/*--------------------------------*- C++ -*----------------------------------*\
  =========                 |
  \\      /  F ield         | OpenFOAM: The Open Source CFD Toolbox
   \\    /   O peration     | Website:  https://openfoam.org
    \\  /    A nd           | Version:  7
     \\/     M anipulation  |
\*---------------------------------------------------------------------------*/
FoamFile
{
    version     2.0;
    format      ascii;
    class       surfaceScalarField;
    location    "2.5";
    object      phi;
}
// * * * * * * * * * * * * * * * * * * * * * * * * * * * * * * * * * * * * * //

dimensions      [0 3 -1 0 0 0 0];

internalField   nonuniform List<scalar> 
53739
(
1.84093e-06
4.40711e-05
-0.000128434
-3.91171e-05
0.00158876
-0.000488608
6.17295e-06
3.84329e-05
-0.000127948
1.98234e-05
-0.000328629
-0.000121043
5.4064e-06
0.00175539
-0.000728441
-1.79403e-05
0.00167938
-0.000490331
-6.99496e-05
0.00113698
-0.000442644
1.26263e-05
2.64444e-05
-0.000127408
2.48654e-05
-0.000360716
-0.000120727
5.22277e-05
-0.00123068
-0.000115101
0.000250293
0.00247218
-0.000740908
4.95983e-05
0.00183416
-0.000740545
-0.000169368
0.00203493
-0.000717344
-5.03133e-06
0.00175871
-0.000491196
-3.9451e-05
0.0011486
-0.000437631
1.29447e-05
0.000216249
-0.00036912
1.90026e-05
8.46562e-06
-0.000126838
3.05023e-05
-0.000398016
-0.00012061
5.40111e-05
-0.00129079
-0.000114628
7.38539e-05
-0.00143201
-9.31679e-05
0.00037739
0.00367323
-0.000193431
0.000288102
0.00249554
-0.000787341
-7.02829e-05
0.00293661
-0.000953066
7.45437e-05
0.00186952
-0.000752024
-5.94392e-05
0.00200266
-0.000688285
-6.74831e-06
0.0011758
-0.000576133
1.77595e-05
0.00181617
-0.000490849
-6.58261e-06
0.00112712
-0.000432634
1.91064e-05
0.000179666
-0.000366144
-3.33976e-06
-0.000944212
-0.000305838
2.0122e-05
-9.94065e-06
-0.000126241
3.56205e-05
-0.000439987
-0.000120487
5.34343e-05
-0.00135038
-0.000114453
6.90538e-05
-0.00152318
-9.2512e-05
0.000100129
-0.00246675
-7.20399e-05
0.00031108
0.00361341
0.000172487
0.000410143
0.00362258
-0.000441441
0.000127049
0.00455332
-0.00055005
0.0003408
0.00244847
-0.000848902
4.17316e-05
0.00297434
-0.000926233
2.74413e-05
0.00166982
-0.000776169
0.000106745
0.00186519
-0.000755549
2.65686e-05
0.00187998
-0.000662497
-7.40767e-05
0.00112317
-0.000542476
2.71317e-05
0.000634169
-0.000435471
5.24964e-05
0.00183142
-0.000489436
4.34426e-06
0.00109587
-0.000428319
2.4384e-05
0.000140134
-0.000364051
-1.64407e-05
-0.000919422
-0.00030544
1.35676e-05
-0.000704455
-0.000234396
2.40164e-05
-3.14249e-05
-0.000125592
4.06902e-05
-0.000486944
-0.000119975
5.3565e-05
-0.00141024
-0.000114193
6.69022e-05
-0.00161235
-9.21766e-05
9.81362e-05
-0.0025858
-7.16005e-05
3.08948e-05
-0.00161656
-6.61662e-05
0.000140821
0.00342305
0.000201042
0.000374591
0.00373891
-0.000210878
8.47714e-05
0.00529644
-0.000191238
0.000512207
0.00355309
-0.000586259
0.000331707
0.0045379
-0.000715994
0.000328896
0.00323981
-0.000865169
0.000427257
0.00228474
-0.00091586
0.000160928
0.00285763
-0.000866551
-2.78808e-05
0.00143339
-0.000736003
2.06632e-05
0.00129771
-0.000570839
0.000121698
0.00183781
-0.000738623
4.00639e-06
0.00175841
-0.000633639
-6.81571e-05
0.00107418
-0.000520965
4.10008e-05
0.00046141
-0.000427158
4.35055e-05
0.000323143
-0.000369738
6.93936e-05
0.00182492
-0.000486244
2.39123e-05
0.00104727
-0.000424062
2.68376e-05
0.000101068
-0.000362525
-1.50309e-05
-0.000895432
-0.000306108
4.26913e-05
-0.000719294
-0.000235157
-3.68062e-06
-0.000615684
-0.000208545
2.8933e-05
-5.73544e-05
-0.000124941
4.29655e-05
-0.000535947
-0.000119555
5.33995e-05
-0.00146965
-0.000113965
6.71957e-05
-0.0017019
-9.1845e-05
9.48087e-05
-0.00270178
-7.09979e-05
2.71393e-05
-0.00164926
-6.60321e-05
1.56148e-05
-0.0025088
-5.84047e-05
0.000358944
0.00395826
0.000526416
0.00029492
0.00343057
0.00010075
0.000155963
0.00527126
-0.000123256
0.000588756
0.00382623
-0.000318801
0.000560179
0.00540282
-0.000545729
0.000840714
0.00436
-0.000867741
0.000514887
0.00354561
-0.000617504
0.000418708
0.00452654
-0.000832687
0.000406717
0.00288192
-0.000792696
0.000120624
0.00129512
-0.000618948
0.000344516
0.00214535
-0.000944891
0.000230142
0.00254538
-0.000829751
-3.71479e-05
0.00123666
-0.000700834
0.000122467
0.00103095
-0.000550715
0.000292211
0.000816878
-0.0004791
0.000136502
0.00177693
-0.000719942
-2.64579e-06
0.00165425
-0.000607911
-1.97201e-05
0.000999444
-0.000512347
5.59776e-05
0.000300982
-0.000431545
3.85079e-05
0.000272582
-0.000372414
8.41875e-06
-6.39118e-05
-0.00038494
9.41668e-05
0.00179217
-0.000482433
4.03196e-05
0.000984187
-0.000420513
1.91702e-05
7.23808e-05
-0.000361146
1.01658e-05
-0.000894856
-0.000306071
6.64951e-05
-0.000761561
-0.000235527
-1.38035e-05
-0.000599962
-0.000209936
-3.81185e-05
-0.00134038
-0.000191408
3.30496e-05
-8.71025e-05
-0.000124345
4.17626e-05
-0.000583421
-0.000119228
5.01015e-05
-0.00152512
-0.000114188
6.84664e-05
-0.00179229
-9.20434e-05
9.15264e-05
-0.00281413
-7.10216e-05
2.7627e-05
-0.00168221
-6.56768e-05
3.03655e-06
-0.00251895
-5.89185e-05
-4.3399e-05
-0.00240883
-5.54895e-05
0.000764947
0.00422583
0.000965153
0.000505204
0.00421413
0.000217704
0.000469845
0.00506819
0.000196288
0.00046693
0.00349997
-4.52724e-06
0.000748718
0.00526518
-8.17093e-05
0.000934346
0.00514594
-0.000622538
0.000503776
0.00394227
-0.000461975
0.000791616
0.00536549
-0.000654383
0.00100018
0.0040432
-0.000822387
0.000778764
0.00280463
-0.00067203
0.00064324
0.0034011
-0.000831131
0.00062977
0.00436644
-0.000857031
0.000460059
0.0023157
-0.000763674
0.000229836
0.00101183
-0.000616779
0.000333549
0.00143619
-0.000541681
0.000317576
0.00199242
-0.000921569
0.000187116
0.00219297
-0.000782237
-3.02738e-05
0.00108876
-0.000671291
0.000264977
0.000690454
-0.000569336
0.000247407
0.0005501
-0.000492836
4.50819e-05
0.000108699
-0.0005213
0.000119595
0.00173957
-0.000705678
2.75531e-05
0.00153776
-0.000590684
1.50448e-05
0.000909593
-0.000513935
0.000116194
0.000127805
-0.000445197
5.70654e-05
0.000231319
-0.000380853
-4.25079e-06
-5.79423e-05
-0.000387936
-4.97636e-05
-0.000539921
-0.000388341
0.000121394
0.00173037
-0.000478453
3.76928e-05
0.000923255
-0.00041743
9.55991e-06
5.16846e-05
-0.000359276
5.45178e-05
-0.000936417
-0.000305635
9.43958e-05
-0.000835363
-0.000235138
-1.76157e-05
-0.000577325
-0.000212921
-4.78193e-05
-0.00130635
-0.000193108
-6.33433e-05
-0.00095881
-0.000187268
3.73269e-05
-0.000120963
-0.00012384
4.08985e-05
-0.000629427
-0.000119238
4.55118e-05
-0.00157578
-0.000114081
6.83871e-05
-0.00188287
-9.19928e-05
8.18927e-05
-0.00291705
-7.10161e-05
2.36066e-05
-0.00171095
-6.58844e-05
-2.0267e-06
-0.00252277
-5.98365e-05
-4.90081e-05
-0.00236282
-5.59165e-05
-6.57015e-05
-0.00218518
-5.6128e-05
0.00118265
0.00472767
0.00158922
0.000904016
0.0044205
0.000977211
0.00064698
0.00490732
0.000523318
0.000651943
0.0043579
0.000316308
0.000932772
0.00501912
8.27144e-05
0.00103245
0.00609733
-0.000340128
0.000505631
0.00372415
-0.000198372
0.00107664
0.00528642
-0.000310793
0.00149996
0.00547419
-0.000909735
0.00165239
0.00355893
-0.000540242
0.000740675
0.00407412
-0.000594973
0.00116527
0.00501014
-0.000642135
0.0010849
0.00350021
-0.00073623
0.000763955
0.00202404
-0.000575919
0.0006291
0.00129009
-0.000509345
0.000663478
0.0032147
-0.000960644
0.000705332
0.00389124
-0.000874139
0.000390697
0.00189114
-0.000853439
0.000435138
0.000701964
-0.000623969
0.000431512
0.0012198
-0.000584497
0.000301208
0.00145615
-0.000641233
0.000268169
0.00183078
-0.000876594
0.000207909
0.00184844
-0.000757395
9.18291e-05
0.000897169
-0.000667433
0.000365591
0.000367005
-0.000597239
0.00025967
0.000294332
-0.000516172
8.01959e-05
6.38538e-05
-0.000532437
-3.69136e-05
-0.000325905
-0.000601
0.000125095
0.00171124
-0.000692958
4.79379e-05
0.00140728
-0.000585445
5.33007e-05
0.000794675
-0.000519506
0.000188359
-5.73014e-05
-0.00046267
0.000103514
0.000168753
-0.000391749
3.31269e-06
-6.80824e-05
-0.000391641
-6.1418e-05
-0.000518694
-0.000395563
-4.04765e-05
-0.000178598
-0.000380116
0.000147985
0.00163671
-0.000473314
5.36159e-05
0.000846068
-0.000413984
2.04971e-05
1.5228e-05
-0.000355959
0.000103666
-0.00102711
-0.000303864
0.000104288
-0.000926554
-0.000236839
-1.15153e-05
-0.000563125
-0.000214216
-4.31134e-05
-0.00128271
-0.000195475
-5.97088e-05
-0.000951679
-0.000189538
-9.07199e-05
-0.000951596
-0.000186963
4.31631e-05
-0.000160691
-0.000123445
4.26183e-05
-0.000676695
-0.00011919
4.14215e-05
-0.00162248
-0.000113957
6.80248e-05
-0.00197321
-9.17648e-05
7.45368e-05
-0.00301361
-6.99764e-05
1.89445e-05
-0.00173473
-6.61842e-05
-3.43997e-06
-0.00252558
-5.96355e-05
-5.16404e-05
-0.00231471
-5.63118e-05
-7.06559e-05
-0.00211413
-5.6309e-05
-9.79794e-05
-0.00162706
-5.8133e-05
0.0015214
0.00445496
0.00245248
0.00127087
0.00450457
0.00204826
0.00109073
0.0047661
0.000868758
0.00119515
0.00460996
0.00019078
0.000896375
0.00548542
0.000435503
0.00128519
0.005836
8.23425e-05
0.000863314
0.00448431
0.000340998
0.00146173
0.00496816
-1.7815e-05
0.0019213
0.00609772
-0.000339015
0.0019082
0.00566214
-0.000675361
0.00068304
0.00419006
-0.000424198
0.00163518
0.00521638
-0.000598225
0.00173379
0.00543939
-0.000924891
0.00164358
0.00278706
-0.00101749
0.00167898
0.00263324
-0.000374315
0.000910392
0.00403289
-0.000716649
0.001296
0.00459439
-0.000769894
0.00118545
0.0027867
-0.000723373
0.000934869
0.00129552
-0.000507433
0.000793026
0.000904921
-0.000552261
0.000629218
0.00100497
-0.00068656
0.000687076
0.00293335
-0.000990149
0.000745135
0.00321492
-0.000821553
0.000434689
0.00147063
-0.000796489
0.000568136
0.000319393
-0.000673413
0.000577944
0.000902426
-0.000624866
0.000360517
0.00124549
-0.000654165
0.000134007
0.000681814
-0.000769152
0.000280599
0.00162546
-0.000837688
0.00022466
0.00153142
-0.000736301
0.000256622
0.000627617
-0.000691164
0.000473849
3.28268e-05
-0.000618744
0.000295119
3.28144e-05
-0.000527327
0.000113316
-1.15394e-05
-0.000550782
-0.000141868
-0.000175869
-0.000602023
-1.61098e-05
0.000859952
-0.000622706
0.000180548
0.00164401
-0.000684045
0.000104227
0.00124864
-0.000584929
0.00014494
0.000613147
-0.00052836
0.000273434
-0.000268403
-0.000478173
0.000168067
4.67898e-05
-0.000404486
2.50922e-05
-0.000101138
-0.000395301
-6.45231e-05
-0.00049018
-0.000398746
-2.0531e-05
-0.000224741
-0.000388598
-2.86507e-05
-0.000293464
-0.000356663
0.000177725
0.00150921
-0.000465474
7.59656e-05
0.000747985
-0.000408578
2.82506e-05
-3.47869e-05
-0.000350798
0.000122209
-0.00113558
-0.000301671
0.000116088
-0.00103418
-0.000237785
-2.6827e-06
-0.000562043
-0.000216294
-4.6798e-05
-0.00125643
-0.000197141
-6.60735e-05
-0.000942082
-0.000190638
-9.26852e-05
-0.000933214
-0.000185891
-0.000129312
-0.000436725
-0.000202004
4.93568e-05
-0.000206821
-0.000123116
4.55446e-05
-0.000726409
-0.000119276
4.16355e-05
-0.00166955
-0.000113756
6.75201e-05
-0.00206321
-9.14809e-05
6.78722e-05
-0.00310326
-6.99852e-05
1.97612e-05
-0.00175904
-6.54296e-05
-1.33507e-05
-0.00251807
-6.03391e-05
-5.98795e-05
-0.00225794
-5.65264e-05
-7.59682e-05
-0.00203768
-5.67891e-05
-0.000104398
-0.00152137
-5.75951e-05
-0.000156602
-0.000700438
-5.23956e-05
0.00176037
0.00477831
0.00316647
0.00168633
0.00435708
0.00232751
0.00128746
0.00493738
0.0018437
0.00169748
0.00460519
0.00111927
0.00103751
0.00513422
0.00153901
0.0013348
0.00543382
0.000562273
0.00145402
0.00508851
-0.00034879
0.00143558
0.00545844
0.000243915
0.00177425
0.00627509
0.000143462
0.00247866
0.00648404
-0.000573481
0.000917794
0.00463183
0.000234006
0.00185861
0.00515029
-6.45575e-05
0.00220638
0.0062217
-0.00061438
0.00215683
0.00516266
-0.000352782
0.00251657
0.00288201
-0.000767717
0.000888273
0.00461942
-0.000536956
0.00155797
0.00532689
-0.000796672
0.00175472
0.00507028
-0.000798389
0.00162057
0.00205319
-0.000876723
0.00165185
0.00131872
-0.000561795
0.00133292
0.00139201
-0.000529735
0.00095126
0.00397063
-0.000840625
0.00132792
0.00404873
-0.000753774
0.001188
0.00210171
-0.000838211
0.00108029
0.000590103
-0.000530119
0.00102573
0.000533581
-0.000583877
0.00068025
0.000896653
-0.000763673
0.00037354
0.0015276
-0.000938153
0.000718638
0.00268425
-0.0009788
0.000733442
0.0025149
-0.000798914
0.000614024
0.00102466
-0.000732994
0.000689332
2.54441e-05
-0.000718023
0.000659797
0.00049219
-0.000627855
0.000399798
0.000984773
-0.000650628
1.17637e-05
0.000678516
-0.000804499
0.000108905
0.00130423
-0.000883244
0.000349073
0.00138848
-0.000818757
0.000236385
0.00127671
-0.000715132
0.000396217
0.000351025
-0.000710986
0.000516359
-0.000264733
-0.000636529
0.000351518
-0.000243707
-0.000525674
0.000153574
-0.000108552
-0.000558796
-0.000173706
-1.66187e-05
-0.000600849
2.74321e-05
0.000844655
-0.000634689
8.46385e-05
0.00050764
-0.000566942
0.000228655
0.00154828
-0.000675883
0.000129411
0.00109577
-0.000584615
0.000198605
0.000395224
-0.00053736
0.000321346
-0.000504471
-0.000491428
0.000222297
-0.000125851
-0.000411741
2.60928e-05
-0.000133243
-0.000401156
-6.00553e-05
-0.000473969
-0.000398255
-1.60708e-05
-0.000277756
-0.000395734
-6.17247e-05
-0.000353065
-0.000359957
-0.000143803
5.31e-05
-0.000324876
0.000207622
0.00135157
-0.000454797
0.000101659
0.000627244
-0.000400846
4.91494e-05
-0.000106966
-0.000343913
0.000118633
-0.00123987
-0.000297623
0.000128556
-0.00115787
-0.000238664
-7.62163e-08
-0.000561185
-0.000218806
-4.78701e-05
-0.00123866
-0.000199539
-8.01797e-05
-0.000927951
-0.000190972
-9.66823e-05
-0.000918958
-0.00018418
-0.000146298
-0.000387705
-0.000193011
-0.000205548
-0.000357469
-0.000176214
5.13966e-05
-0.00025536
-0.000122863
4.88782e-05
-0.000778908
-0.000119495
4.02753e-05
-0.00171546
-0.00011364
6.16678e-05
-0.00214783
-9.0805e-05
6.22353e-05
-0.00318811
-6.8863e-05
8.51347e-06
-0.0017717
-6.58423e-05
-1.49427e-05
-0.00250671
-6.18459e-05
-6.70099e-05
-0.00219409
-5.71704e-05
-8.31973e-05
-0.00195352
-5.74901e-05
-0.000111862
-0.00140913
-5.71681e-05
-0.000159536
-0.000546289
-5.22081e-05
-0.000192537
0.000230956
-3.83622e-05
0.0012891
0.00472998
0.00393559
0.00166433
0.00536855
0.00332229
0.00172715
0.00461572
0.00322699
0.00156321
0.00467684
0.00295448
0.00153181
0.00491698
0.00210948
0.00148919
0.0050216
0.00179161
0.00142186
0.00532302
0.00128538
0.00178148
0.00497856
0.000905545
0.0012682
0.00568921
0.000731651
0.00165208
0.00633964
0.000755358
0.00260052
0.00677932
0.000143233
0.00135999
0.00550282
-0.000148199
0.00159627
0.00537745
-5.46453e-06
0.00216562
0.00651357
4.6184e-05
0.00252237
0.00658855
-0.000326588
0.00307916
0.00455791
-0.000111476
0.00101683
0.00492815
0.00012987
0.00183263
0.00530362
-0.000193986
0.00223842
0.0063125
-0.000639058
0.00219411
0.00440059
-0.000425842
0.00221967
0.00212184
-0.000160436
0.00183
0.000937226
-0.000760039
0.000964517
0.00479605
-0.000536661
0.00159146
0.0053263
-0.000799908
0.00180397
0.00427054
-0.000612908
0.00155598
0.00141471
-0.000635595
0.00160905
0.000401362
-0.00054269
0.00131872
0.000864723
-0.000672981
0.000829078
0.0015505
-0.000759732
0.000959405
0.00374435
-0.000768334
0.00132334
0.00344257
-0.000824362
0.00123192
0.00154594
-0.00081591
0.00105748
6.89731e-05
-0.000685232
0.00108461
0.000157762
-0.000579111
0.000753715
0.00074263
-0.000783771
0.000379995
0.00138282
-0.000987121
0.000375744
0.00181878
-0.00102756
0.000768191
0.00236424
-0.000821889
0.000757399
0.00184986
-0.000834775
0.000701055
0.000620361
-0.000699448
0.000746146
-0.000220717
-0.000716621
0.000736415
2.56749e-06
-0.000613298
0.000403488
0.000769075
-0.000662071
5.398e-06
0.000653675
-0.000804892
0.000209977
0.00120861
-0.000891428
0.000240346
0.000870391
-0.000843802
0.000388719
0.00114144
-0.0007869
0.000332896
0.000945535
-0.000691069
0.000478403
6.34886e-05
-0.000707393
0.000579446
-0.000592055
-0.000641764
0.000412944
-0.000533357
-0.000537526
0.000141258
-0.000196472
-0.000552919
-0.000118564
8.63666e-05
-0.000603272
0.000110444
0.000757883
-0.000640592
4.70499e-05
0.00035321
-0.000589034
-0.000160928
0.000407466
-0.000479913
0.000279313
0.00141694
-0.000665723
0.00016761
0.000928973
-0.00057504
0.000246983
0.000146525
-0.000533749
0.000331747
-0.000753648
-0.000501297
0.000265781
-0.000336358
-0.000418147
3.08889e-05
-0.00017341
-0.00040254
-3.12108e-05
-0.000491617
-0.000400167
-3.80902e-05
-0.000313843
-0.000404257
-8.26174e-05
-0.000396629
-0.000366235
-0.00017523
4.29334e-05
-0.000320859
-0.000203631
3.4182e-05
-0.000267628
0.000205201
0.00119104
-0.000444433
0.000125173
0.000487151
-0.000390998
7.77748e-05
-0.000210004
-0.000335307
0.000116852
-0.00134681
-0.000292154
0.000141675
-0.00129575
-0.000239187
2.27432e-06
-0.000572296
-0.000221314
-4.11093e-05
-0.00122955
-0.000201748
-9.19812e-05
-0.00091138
-0.000191139
-0.000100768
-0.000911136
-0.000181222
-0.000164272
-0.000333542
-0.000185933
-0.000216162
-0.00032164
-0.000172213
-0.000277231
-8.92195e-05
-0.000124374
4.96624e-05
-0.000302605
-0.000122627
5.097e-05
-0.000832871
-0.00011987
3.79143e-05
-0.00175906
-0.00011381
5.3947e-05
-0.00222548
-8.99378e-05
5.0477e-05
-0.00326056
-6.88317e-05
8.94516e-06
-0.00178328
-6.62259e-05
-1.91595e-05
-0.00249149
-6.19088e-05
-6.90849e-05
-0.00212855
-5.83059e-05
-9.25909e-05
-0.00186111
-5.69957e-05
-0.0001176
-0.00129226
-5.67583e-05
-0.000161709
-0.000389816
-5.19325e-05
-0.000191691
0.000408736
-3.82969e-05
-0.000188332
0.0010011
-2.57387e-05
0.00111088
0.00490679
0.00412263
0.00147959
0.0048831
0.00386546
0.00171595
0.00503071
0.00371997
0.0017475
0.00568465
0.00336405
0.00140579
0.00569855
0.00322319
0.00139442
0.00471945
0.00319951
0.00167382
0.00484719
0.00287201
0.00180775
0.0048284
0.00236617
0.00237009
0.00487357
0.00203233
0.00141576
0.00542205
0.00156147
0.00175207
0.00579228
0.00122236
0.00222848
0.00659511
0.00135266
0.00187715
0.00523192
0.000648543
0.00155172
0.00596662
0.00067269
0.00197212
0.00658964
0.000675148
0.00254187
0.00728444
0.000230735
0.00300373
0.00709572
0.000388893
0.0013414
0.00580581
0.000180536
0.0019022
0.00520588
-4.62e-05
0.00238227
0.00655784
-0.000193591
0.00253064
0.00653367
-0.000235463
0.00280036
0.00396215
-0.000311515
0.00242723
0.00286855
0.000205466
0.00109467
0.0051724
5.65757e-05
0.0018237
0.00543221
-0.000230967
0.00230745
0.00615422
-0.000539177
0.00210499
0.00373875
-0.00052623
0.0018914
0.00153262
-0.00011897
0.00177197
0.000784435
-0.0004609
0.00133085
0.00121192
-0.000632697
0.00114788
0.00475053
-0.000610418
0.00170622
0.00495869
-0.000551932
0.00180013
0.00352594
-0.000623515
0.00147793
0.000852282
-0.000470926
0.00139136
-3.02624e-05
-0.000510726
0.00128954
0.000436848
-0.000650641
0.000837851
0.00121822
-0.000798555
0.00069535
0.00191112
-0.000862372
0.00098689
0.00353518
-0.000719295
0.00143026
0.00263729
-0.000635913
0.00111627
0.00113155
-0.000825188
0.00104721
-0.000327112
-0.000720891
0.0010971
-0.000306138
-0.000582016
0.00073546
0.00053382
-0.000702273
0.000444511
0.001133
-0.000973068
0.000471346
0.00155649
-0.000986194
0.00061278
0.000462683
-0.000966445
0.000789462
0.00197899
-0.000701918
0.000797079
0.00130734
-0.000743552
0.000750079
0.000189783
-0.000675873
0.000788359
-0.000460529
-0.000668549
0.000786657
-0.000508724
-0.000579043
0.000423218
0.000522347
-0.000648531
6.34306e-05
0.000616341
-0.000806731
0.000317856
0.00107669
-0.000880378
0.000279117
0.000601772
-0.000854877
6.09746e-05
0.000189701
-0.000728234
0.000373452
0.000941698
-0.000732454
0.000361504
0.000629373
-0.000664632
0.000524298
-0.000256465
-0.000648431
0.000627517
-0.000961739
-0.00063348
0.000477119
-0.000841122
-0.000545338
9.83624e-05
-0.000244498
-0.000556974
-5.74723e-05
0.000151023
-0.000591313
0.000114955
0.00065133
-0.000649764
-5.78486e-06
0.000238902
-0.000603116
-0.000172987
0.000307787
-0.000491598
-0.000201403
4.72598e-05
-0.00041753
0.000298823
0.00125735
-0.000655398
0.000221634
0.00072752
-0.000560731
0.000280421
-0.00012581
-0.000505352
0.000371146
-0.00104091
-0.000500781
0.000311707
-0.000579706
-0.000427981
4.12201e-05
-0.000225066
-0.000405436
-2.29126e-06
-0.000529968
-0.000403008
-6.69054e-05
-0.000327483
-0.000411603
-7.56954e-05
-0.000443119
-0.00038284
-0.000200004
3.06161e-05
-0.000318186
-0.000234175
2.08389e-06
-0.000270748
-0.00026623
-3.56254e-06
-0.000223581
0.000195781
0.00103025
-0.000435724
0.000136367
0.00033821
-0.00038089
9.34485e-05
-0.000330304
-0.000326233
0.000127511
-0.00147051
-0.000285174
0.000140742
-0.00143629
-0.00024188
1.17735e-05
-0.00059093
-0.000223381
-4.03393e-05
-0.0012237
-0.000205983
-9.75692e-05
-0.000893173
-0.00019147
-0.000114835
-0.000897457
-0.000182574
-0.000188299
-0.000264843
-0.000179222
-0.00022648
-0.000274434
-0.000168368
-0.000279682
-4.76932e-05
-0.000125749
-0.00032713
0.00122392
-8.03455e-05
4.68268e-05
-0.000347462
-0.000122409
5.19807e-05
-0.000887389
-0.00012009
3.43908e-05
-0.00179895
-0.000114374
4.95089e-05
-0.00229883
-8.99693e-05
3.91138e-05
-0.00332088
-6.87288e-05
9.5443e-07
-0.00178632
-6.67488e-05
-2.28878e-05
-0.00247281
-6.20153e-05
-8.02643e-05
-0.00205207
-5.81226e-05
-9.9485e-05
-0.00176361
-5.63195e-05
-0.000120823
-0.00117239
-5.60396e-05
-0.000164017
-0.000231007
-5.15508e-05
-0.00019067
0.000585375
-3.79014e-05
-0.000184953
0.00117315
-2.53922e-05
-0.000210801
0.000662793
-1.36202e-05
0.000864133
0.00463937
0.00484232
0.000985238
0.00491926
0.00442467
0.0014456
0.00502853
0.00418009
0.00149124
0.0052098
0.00422265
0.00166668
0.00516469
0.00369889
0.00126926
0.00531696
0.00371575
0.00145936
0.00538766
0.00404018
0.00175291
0.00534535
0.00363837
0.00192585
0.00554421
0.00326636
0.00189372
0.0052617
0.00305395
0.00241905
0.00486808
0.00288222
0.00136227
0.0053929
0.00270729
0.00186926
0.00527228
0.00231095
0.00236085
0.00572023
0.00206488
0.00182778
0.00534
0.00184345
0.00172789
0.00566062
0.00161759
0.00198126
0.00615941
0.0011852
0.00224234
0.00679735
0.00131966
0.0024996
0.00787348
0.00143266
0.00186686
0.00578463
0.000507847
0.0016943
0.00612022
0.000702836
0.00201578
0.00692447
0.000704356
0.00237577
0.00747689
0.000637569
0.00300325
0.0066337
0.00048986
0.00324288
0.00447637
0.000496639
0.00145756
0.0060417
0.000341947
0.00186615
0.00516397
0.000180007
0.00245275
0.00639447
-2.81292e-05
0.0026312
0.00597751
-0.000163641
0.00238874
0.00330114
-7.17939e-05
0.00221591
0.00209255
2.05469e-05
0.00186616
0.00148894
-0.000217005
0.00145603
0.00510597
1.56947e-05
0.00193081
0.00539702
-0.000132823
0.00229415
0.00562938
-0.000200152
0.00198192
0.00300383
-0.000308255
0.00155585
0.000984889
-0.000142981
0.00166613
0.000671148
-0.000382268
0.00124506
0.000949722
-0.000605918
0.00110264
0.00163815
-0.000679343
0.00118332
0.00462608
-0.000489029
0.00166686
0.00460288
-0.000491213
0.00171414
0.00286079
-0.000484648
0.00132712
0.000485192
-0.000536338
0.00124008
-0.000123435
-0.000520739
0.00118577
5.75216e-05
-0.000581711
0.000811958
0.000974956
-0.000774822
0.00061455
0.00174359
-0.000774227
0.00095202
0.000563362
-0.000725374
0.000969
0.00337457
-0.000682822
0.00129325
0.0020023
-0.000580474
0.000991858
0.000969109
-0.000715249
0.000950265
-0.000655569
-0.000658637
0.00106224
-0.000716759
-0.000585852
0.000731172
0.000265408
-0.000621557
0.000465291
0.000901011
-0.000872145
0.000532819
0.00126288
-0.000894424
0.000652494
-1.62567e-05
-0.000880631
0.000555923
-0.00171602
-0.000810024
0.000719245
0.00160845
-0.000688394
0.000749581
0.000860084
-0.000642739
0.000708444
-9.35892e-05
-0.000644326
0.000771316
-0.000682801
-0.0005974
0.000840228
-0.000972713
-0.000567668
0.000366617
0.000297108
-0.000622058
6.17546e-05
0.000614624
-0.000766041
0.000311664
0.000951686
-0.000878439
0.000242602
0.000321004
-0.000847997
5.74129e-06
-0.000132143
-0.000711761
-0.000139888
-0.000203052
-0.000616067
0.000382526
0.000738022
-0.000674961
0.000362063
0.000353567
-0.000597078
0.000501417
-0.000527198
-0.000614895
0.000665351
-0.00130205
-0.000602322
0.000542354
-0.00114993
-0.000555321
0.000129039
-0.000325676
-0.000551978
6.27344e-05
0.000121455
-0.000592432
8.88709e-05
0.000554873
-0.000650633
-2.44645e-06
0.000135043
-0.000619154
-0.000183018
0.000185598
-0.000497913
-0.000277582
1.52112e-05
-0.000416143
-0.000307514
0.000109157
-0.000377023
0.000310535
0.00106021
-0.000633461
0.000254688
0.00048376
-0.00052996
0.000285735
-0.000391045
-0.000487782
0.000361518
-0.0012906
-0.000489671
0.000341284
-0.000839122
-0.000441908
6.87517e-05
-0.000298913
-0.000411112
-6.73699e-06
-0.000567249
-0.000401757
-6.22354e-05
-0.000347723
-0.000418101
-8.83003e-05
-0.000488856
-0.000392401
-0.00022776
9.80741e-06
-0.00032257
-0.000274933
-1.47207e-06
-0.000266177
-0.000291877
-2.17423e-05
-0.000240374
-0.000350009
0.00102554
-0.000202371
0.000177212
0.000877156
-0.000427596
0.000133307
0.000193295
-0.000372135
0.000101284
-0.000458864
-0.000319223
0.000100441
-0.0015703
-0.000277376
0.00012409
-0.00156201
-0.000244426
1.76508e-05
-0.000623082
-0.000226424
-4.38244e-05
-0.00121697
-0.000209174
-0.000113378
-0.000871549
-0.000194494
-0.000132927
-0.000870589
-0.000184895
-0.00021472
-0.000176217
-0.000177304
-0.000236418
-0.000218732
-0.000162523
-0.000288168
6.64406e-06
-0.000125207
-0.000310774
0.00129908
-7.50877e-05
-0.000365313
0.00152941
-4.88506e-05
4.61255e-05
-0.000392018
-0.000122278
5.53812e-05
-0.000945272
-0.000119907
3.20024e-05
-0.00183702
-0.000114017
4.35574e-05
-0.00236721
-8.95492e-05
2.71383e-05
-0.00336926
-6.87358e-05
-2.69124e-06
-0.00178616
-6.61941e-05
-3.22961e-05
-0.00244522
-6.2038e-05
-8.59015e-05
-0.00196958
-5.86099e-05
-0.000105685
-0.00166
-5.60491e-05
-0.000128225
-0.00104516
-5.53241e-05
-0.000166682
-6.88293e-05
-5.1535e-05
-0.000189591
0.000761616
-3.82017e-05
-0.000185169
0.00134447
-2.40519e-05
-0.000211442
0.000861659
-1.28166e-05
-0.000218655
0.000285628
-1.64282e-05
0.000828461
0.00461094
0.00488561
0.000893849
0.00461395
0.00486598
0.000943799
0.00471742
0.00491265
0.00136214
0.00485306
0.00459955
0.00117306
0.00498369
0.0046517
0.00147384
0.0054294
0.004089
0.00115383
0.00517706
0.00432825
0.00128251
0.00515666
0.00455487
0.00184584
0.0053322
0.00378592
0.00179557
0.00553644
0.0036097
0.00127536
0.00552158
0.00420019
0.000698595
0.00458217
0.00450284
0.00207695
0.005645
0.00378239
0.00182623
0.00527203
0.00344658
0.00173705
0.00567834
0.00298193
0.00130607
0.00580758
0.00308205
0.0014487
0.00549911
0.00291336
0.00199608
0.00537483
0.0026321
0.00175123
0.00586782
0.00234178
0.00227103
0.00588983
0.00211266
0.00235965
0.00726573
0.00183877
0.00185154
0.00581335
0.00178141
0.00167417
0.00585142
0.00167278
0.00191882
0.00643208
0.00144189
0.00191877
0.00698291
0.00145665
0.00263595
0.00799918
0.00156127
0.00326631
0.00719552
0.00162907
0.00225687
0.0062122
0.000117293
0.0020527
0.00631052
0.000131001
0.00197683
0.00739059
0.000712637
0.0023911
0.00726827
0.00115307
0.00292421
0.00580965
0.000926158
0.00267639
0.00367199
0.00083376
0.00206831
0.00159455
0.000371639
0.00170825
0.00613772
0.000298004
0.00197009
0.00535262
0.000114013
0.00262573
0.00585122
0.000391677
0.002749
0.005187
-4.70092e-06
0.00196784
0.00258852
0.000136982
0.00185137
0.00171251
0.000122997
0.00146541
0.00125151
3.76214e-05
0.00126391
0.00125034
5.15657e-05
0.00164834
0.00496928
0.000127899
0.00187538
0.00534569
-0.000141497
0.00233552
0.00479644
7.87278e-05
0.0015922
0.00243624
0.000102364
0.00142687
0.000529795
-3.99475e-05
0.00138706
0.000607678
-0.000280806
0.00104544
0.000788198
-0.000454225
0.000855895
0.00134138
-0.000550487
0.000960948
0.00151763
-0.000598137
0.00117136
0.0043795
-0.00042408
0.00157599
0.00420388
-0.000372759
0.00144316
0.00220111
-0.000282833
0.000903473
0.000588113
-0.000540776
0.00112732
-0.00019929
-0.000525567
0.000998462
-0.000217167
-0.000513341
0.000806916
0.000718874
-0.000667254
0.000611781
0.00154956
-0.000659757
0.000891457
0.000178401
-0.00062823
0.000700559
-0.0017293
-0.000605974
0.000952949
0.00317469
-0.000616225
0.00104685
0.00157826
-0.000556055
0.000856736
0.000828961
-0.000588618
0.000829622
-0.00078822
-0.000640904
0.00105037
-0.00103099
-0.000554556
0.000704131
-9.87513e-05
-0.000559208
0.000415708
0.000673263
-0.000747762
0.000504224
0.000982148
-0.000783973
0.000555938
-0.000473128
-0.000750889
0.000365371
-0.00224641
-0.000709875
0.000130267
-0.00135686
-0.000651147
0.000646141
0.00127958
-0.000657209
0.000643616
0.000479388
-0.000589251
0.000614391
-0.000236673
-0.000612629
0.000754289
-0.000864845
-0.00055122
0.000858074
-0.00131588
-0.000569955
0.000406337
7.24386e-05
-0.000620297
0.000241208
0.000525721
-0.000711628
0.000309228
0.000803078
-0.00083779
0.000227407
6.70263e-05
-0.000854315
-3.79738e-05
-0.000438314
-0.000686869
-0.000256547
-0.000330427
-0.00060542
-0.000326984
0.000231392
-0.000504794
0.000391363
0.00054351
-0.000621474
0.000382111
8.45087e-05
-0.000533325
0.00045234
-0.000750341
-0.00054054
0.000549316
-0.00151054
-0.000594202
0.000559512
-0.00139345
-0.000577028
0.000150734
-0.000410554
-0.000552425
9.14008e-05
4.99874e-05
-0.000578648
4.57322e-05
0.000512259
-0.000657786
-1.36841e-05
2.40471e-05
-0.000614253
-0.000225301
6.88152e-05
-0.000504831
-0.000355454
3.64354e-06
-0.000405824
-0.000333525
9.75041e-05
-0.000362841
-0.000362083
0.000788294
-0.000283056
0.000306587
0.000834194
-0.000602413
0.000238747
0.000247463
-0.000502602
0.000263556
-0.000621866
-0.00046141
0.000309505
-0.00150447
-0.000482975
0.000338453
-0.00108222
-0.000460932
8.76549e-05
-0.000391577
-0.000419248
3.2699e-06
-0.000624172
-0.000401283
-9.91808e-05
-0.000346887
-0.00041679
-0.000112595
-0.000537196
-0.000390092
-0.000310496
3.25444e-05
-0.000319362
-0.000307609
1.27198e-05
-0.000265571
-0.000320524
-1.20678e-05
-0.000243495
-0.000311977
0.000983417
-0.000197049
-0.000426768
0.00230516
-0.000171175
0.00015712
0.000736685
-0.000418842
0.000130904
5.58341e-05
-0.000365658
0.000101072
-0.000585262
-0.000314807
9.0543e-05
-0.0016647
-0.000271805
0.000118806
-0.00168674
-0.00024432
1.74892e-05
-0.000657518
-0.00023017
-4.40411e-05
-0.00121875
-0.000212899
-0.000122656
-0.000846589
-0.00019738
-0.000148006
-0.000833024
-0.000189738
-0.000264192
-4.71257e-05
-0.00017802
-0.000254064
-0.000153895
-0.00015476
-0.000294954
7.2405e-05
-0.00012292
-0.000301791
0.00136102
-7.05209e-05
-0.00037372