/*--------------------------------*- C++ -*----------------------------------*\
  =========                 |
  \\      /  F ield         | OpenFOAM: The Open Source CFD Toolbox
   \\    /   O peration     | Website:  https://openfoam.org
    \\  /    A nd           | Version:  7
     \\/     M anipulation  |
\*---------------------------------------------------------------------------*/
FoamFile
{
    version     2.0;
    format      ascii;
    class       volVectorField;
    location    "2.5";
    object      U;
}
// * * * * * * * * * * * * * * * * * * * * * * * * * * * * * * * * * * * * * //

dimensions      [0 1 -1 0 0 0 0];

internalField   nonuniform List<vector> 
18630
(
(-0.0410409 0.0594647 -3.02523)
(-0.747891 -0.235551 -3.65659)
(-0.0485237 0.0758234 -3.00562)
(0.0663303 0.392179 -2.81354)
(-0.761857 -0.453472 -3.07932)
(-0.801679 -0.239714 -3.67851)
(-0.525147 -0.260637 -3.63399)
(-0.0551707 0.091809 -2.98487)
(0.0520042 0.407948 -2.78966)
(0.441746 0.742104 -2.68331)
(-1.21969 0.0965639 -1.81916)
(-0.855849 -0.387501 -3.22669)
(-0.876794 -0.701241 -3.40369)
(-0.850097 -0.197802 -3.69641)
(-0.547926 -0.204662 -3.59533)
(-0.143656 0.0997378 -3.05801)
(-0.0565793 0.107752 -2.96264)
(0.039758 0.427745 -2.76434)
(0.430424 0.76403 -2.67084)
(0.460714 1.03761 -2.56586)
(-2.02342 0.257235 -0.706485)
(-1.32453 0.0838061 -2.17101)
(-1.16966 -0.741631 -2.88441)
(-0.818169 -0.444901 -3.34153)
(-0.873764 -0.580559 -3.34281)
(-0.602547 -0.182439 -3.03996)
(-0.925121 -0.168003 -3.70109)
(-0.565756 -0.142771 -3.55196)
(-0.14818 0.148624 -3.00355)
(0.437225 0.208792 -2.54082)
(-0.0604618 0.12028 -2.93832)
(0.0273906 0.446626 -2.74018)
(0.421566 0.765945 -2.66752)
(0.443951 1.06147 -2.53902)
(0.909149 1.33917 -1.5863)
(-1.95488 0.243634 -0.290043)
(-1.95386 0.233591 -1.03095)
(-2.28203 -0.225878 -0.177139)
(-1.41303 0.133423 -2.50321)
(-1.58438 -0.452434 -2.78672)
(-1.01229 -0.18965 -3.08285)
(-0.855195 -0.425052 -3.42143)
(-0.904924 -0.450571 -3.29629)
(-0.538344 -0.218451 -2.8171)
(-0.313915 -0.242487 -2.12677)
(-0.927195 -0.231631 -3.71847)
(-0.569354 -0.086518 -3.50709)
(-0.151632 0.186318 -2.95504)
(0.436608 0.150658 -2.52616)
(0.270698 0.401639 -1.9715)
(-0.0673061 0.130003 -2.90921)
(0.0155623 0.463167 -2.71787)
(0.393684 0.787657 -2.66078)
(0.426858 1.08242 -2.5184)
(0.900761 1.33647 -1.56614)
(0.669916 0.587 -1.72047)
(-1.6677 -0.206455 0.201818)
(-1.92625 0.160268 -0.617952)
(-2.49433 -0.386837 1.01691)
(-1.93997 0.17921 -1.31333)
(-2.22607 -0.383458 -1.05162)
(-1.53889 -0.224758 -2.49626)
(-1.32164 0.166748 -2.88812)
(-1.4546 -0.190696 -2.80549)
(-0.487568 -0.493086 -2.98247)
(-0.759377 0.187658 -1.95299)
(-0.945108 -0.174337 -3.41736)
(-0.784535 -0.473289 -3.18351)
(-0.494415 -0.242387 -2.61759)
(-0.219907 -0.263103 -2.02995)
(-0.116984 -0.32613 -1.7213)
(-0.939505 -0.233619 -3.71369)
(-0.596243 -0.0345431 -3.45021)
(-0.151492 0.198474 -2.91475)
(0.417104 0.154082 -2.51912)
(0.22842 0.48431 -1.9687)
(0.317759 -0.0255066 -1.63743)
(-0.0723233 0.140463 -2.87705)
(0.00644662 0.476664 -2.69779)
(0.377532 0.832936 -2.63576)
(0.409705 1.10068 -2.50271)
(0.894354 1.33797 -1.55045)
(0.655068 0.597695 -1.70696)
(1.10697 0.587849 -1.31909)
(-1.9101 -0.188703 0.827909)
(-1.69917 -0.157343 0.0212175)
(-2.71896 -0.536015 0.45244)
(-2.10295 0.289455 -0.620555)
(-2.85298 0.0849414 -0.199449)
(-2.30071 0.521692 -1.73912)
(-2.04296 0.320018 -1.53209)
(-2.22395 -0.343748 -1.49074)
(-1.62564 -0.171262 -2.41721)
(-0.64313 -0.417409 -1.82775)
(-1.1615 -0.146503 -3.13152)
(-1.30826 -0.357046 -2.81474)
(-0.571184 -0.565143 -2.64307)
(-0.677164 0.274865 -1.77687)
(-0.608681 0.489902 -1.60293)
(-0.955472 -0.153962 -3.38036)
(-0.734936 -0.447431 -3.0367)
(-0.464138 -0.266038 -2.46906)
(-0.121523 -0.210743 -2.01146)
(-0.100351 -0.157842 -1.72874)
(0.0170603 0.0748778 -1.67374)
(-0.959835 -0.216918 -3.69526)
(-0.58319 -0.021044 -3.39453)
(-0.135813 0.173531 -2.88299)
(0.383345 0.218285 -2.51609)
(0.196493 0.540497 -1.95922)
(0.321261 -0.0337957 -1.6338)
(0.715542 -0.118242 -1.46822)
(-0.0763336 0.150637 -2.84345)
(-0.000590847 0.486467 -2.68005)
(0.358529 0.857412 -2.61308)
(0.397879 1.11797 -2.49705)
(0.911003 1.34067 -1.54578)
(0.637117 0.640401 -1.68478)
(1.13181 0.537859 -1.31973)
(1.26064 -0.116563 -1.32524)
(-2.10175 0.131595 1.48782)
(-2.04274 -0.132743 0.406832)
(-2.5669 -0.157511 0.670555)
(-1.82049 0.0135808 -0.192391)
(-2.65848 -0.00511412 0.33198)
(-2.50532 0.793225 -0.828564)
(-2.03756 -0.131544 -1.16106)
(-2.84679 0.0628402 -0.627188)
(-2.33872 0.47439 -1.92472)
(-1.74646 0.333278 -1.77325)
(-2.07555 0.148044 -1.94677)
(-2.52213 -0.131784 -1.38227)
(-1.35833 -0.203645 -2.48016)
(-0.572365 -0.0975519 -1.53396)
(-0.840563 0.393081 -1.19221)
(-1.10107 -0.193966 -3.09312)
(-1.13771 -0.476234 -2.72381)
(-0.530107 -0.266736 -2.34156)
(-0.582714 0.321405 -1.82685)
(-0.419752 0.280525 -1.64616)
(-0.0511782 -0.0352791 -1.53216)
(-0.993175 -0.0882564 -3.32136)
(-0.712265 -0.382295 -2.90409)
(-0.372727 -0.295913 -2.37603)
(-0.10807 -0.0224272 -2.05826)
(-0.128827 -0.0119502 -1.77726)
(0.0226271 0.0130674 -1.67458)
(0.281502 0.0107003 -1.76198)
(-0.964499 -0.205969 -3.6719)
(-0.540208 -0.0639881 -3.34068)
(-0.106706 0.114801 -2.85759)
(0.344157 0.307783 -2.5083)
(0.163205 0.61843 -1.93243)
(0.303008 -0.00973639 -1.64165)
(0.708273 -0.126056 -1.47924)
(0.5378 -0.239186 -1.45204)
(-0.0807471 0.162038 -2.80941)
(-0.00478374 0.489686 -2.66608)
(0.336674 0.885668 -2.59244)
(0.398721 1.12458 -2.50676)
(0.912901 1.33101 -1.54729)
(0.639383 0.612282 -1.67318)
(1.1257 0.517479 -1.32809)
(1.25957 -0.110257 -1.33434)
(1.20385 -0.319806 -1.21141)
(-2.2229 0.31834 2.74314)
(-2.18273 0.0882579 1.71078)
(-2.55053 -0.0205742 0.881986)
(-2.19303 -0.214095 0.553651)
(-2.67035 0.314253 0.203593)
(-3.15305 0.223783 -0.0528454)
(-1.91015 -0.0219524 -0.288641)
(-2.85207 0.278822 0.189217)
(-3.07377 0.811859 -0.612375)
(-2.32441 1.10819 -1.29387)
(-2.28392 0.132406 -1.11782)
(-2.92927 0.0771289 -0.636613)
(-2.21995 0.5616 -1.92111)
(-1.2945 0.422497 -1.36083)
(-0.792133 0.360616 -0.931178)
(-1.88111 0.00807385 -2.39426)
(-2.12763 -0.188866 -1.99022)
(-0.803556 -0.399981 -2.71063)
(-0.580388 0.441053 -1.36101)
(-0.810113 0.415981 -1.45818)
(-0.757324 0.0591844 -1.51474)
(-0.879168 -0.422804 -2.95688)
(-0.932317 -0.383288 -2.5848)
(-0.51462 -0.0255382 -2.14403)
(-0.47264 0.505271 -1.95248)
(-0.301006 0.230352 -1.71142)
(-0.0398797 -0.0386228 -1.56409)
(0.213508 -0.177931 -1.81113)
(-1.0753 -0.00729284 -3.25524)
(-0.63506 -0.37739 -2.81404)
(-0.351881 -0.320956 -2.33862)
(-0.161886 0.281683 -2.14063)
(-0.168764 0.144095 -1.84149)
(0.0380982 -0.0305065 -1.68564)
(0.273054 -0.00959739 -1.77804)
(0.112486 -0.165549 -1.76642)
(-0.96609 -0.186562 -3.63787)
(-0.506812 -0.0820264 -3.28617)
(-0.0520325 0.0379543 -2.83331)
(0.32372 0.410788 -2.48602)
(0.190937 0.583886 -1.92281)
(0.288513 0.0452656 -1.65177)
(0.6819 -0.0452336 -1.50437)
(0.552909 -0.222506 -1.45849)
(0.571798 -0.36606 -1.34092)
(-0.0863718 0.17703 -2.77606)
(-0.0102144 0.492952 -2.65587)
(0.31319 0.887785 -2.58298)
(0.385895 1.13879 -2.50311)
(0.908502 1.3305 -1.52085)
(0.63634 0.588139 -1.6601)
(1.10319 0.582599 -1.31821)
(1.25424 -0.0524607 -1.34814)
(1.20271 -0.313035 -1.21694)
(1.0294 -0.697866 -1.31267)
(-2.30601 0.758997 2.91585)
(-2.51476 0.23662 2.1394)
(-2.63491 0.218779 0.956314)
(-2.37244 0.0433219 0.41275)
(-2.66111 0.241103 0.73431)
(-3.05461 0.592264 0.531967)
(-2.23598 -0.388154 0.779518)
(-2.74867 0.461006 0.35118)
(-3.30842 1.10622 0.0645749)
(-3.30673 1.4547 -1.00608)
(-2.12326 -0.0468605 -0.397156)
(-3.09283 0.844281 -0.355574)
(-3.08878 0.663914 -1.26553)
(-1.70642 0.904781 -2.4797)
(-1.86852 0.981091 -0.531609)
(-2.39251 0.128862 -1.4561)
(-2.74032 0.357469 -1.18983)
(-1.99637 0.697195 -1.86792)
(-1.08205 0.580139 -1.02201)
(-0.764732 0.625949 -0.983082)
(-0.671296 0.654689 -1.12626)
(-1.82831 -0.0161005 -2.46679)
(-1.96346 -0.2163 -2.16119)
(-0.933494 -0.234395 -2.20925)
(-0.567799 0.659711 -1.55903)
(-0.749423 0.536138 -1.63413)
(-0.793017 0.173637 -1.44526)
(-0.380145 0.0101975 -1.65894)
(-0.682416 -0.555753 -2.84568)
(-0.820293 -0.261409 -2.40962)
(-0.539829 0.168262 -2.15693)
(-0.410426 0.60924 -2.09843)
(-0.229418 0.337499 -1.73667)
(-0.0343178 0.0586888 -1.63388)
(0.19384 -0.196392 -1.80483)
(-0.425643 -0.100609 -2.02696)
(-1.17169 0.0489722 -3.20438)
(-0.647961 -0.257798 -2.75455)
(-0.354023 -0.0998677 -2.34631)
(-0.242946 0.62551 -2.21506)
(-0.210815 0.305108 -1.90171)
(0.0504695 -0.0117312 -1.70291)
(0.254604 -0.00759463 -1.78451)
(0.13448 -0.0969008 -1.79348)
(0.194854 -0.251384 -1.64204)
(-0.982865 -0.135443 -3.57912)
(-0.500084 -0.0434424 -3.22103)
(-0.0113194 0.0184669 -2.80329)
(0.312649 0.499934 -2.44533)
(0.232187 0.596561 -1.90657)
(0.266682 0.0820392 -1.66349)
(0.696049 -0.0209206 -1.50891)
(0.580992 -0.223542 -1.45824)
(0.574034 -0.338608 -1.36075)
(0.357641 -0.599258 -1.48483)
(-0.0953513 0.197775 -2.74465)
(-0.0161932 0.502622 -2.64827)
(0.289791 0.904031 -2.56926)
(0.360686 1.17129 -2.4932)
(0.918465 1.33647 -1.49821)
(0.626953 0.641579 -1.62576)
(1.12014 0.542046 -1.32946)
(1.26709 -0.0536558 -1.34703)
(1.21083 -0.29671 -1.22285)
(1.03122 -0.686653 -1.3024)
(0.691976 -1.34221 -1.33517)
(-2.529 0.517461 2.93346)
(-2.40479 0.641887 2.5594)
(-2.51262 0.428616 2.13351)
(-2.52512 0.589091 1.31977)
(-2.06876 0.0910477 2.53891)
(-2.81145 0.60863 1.02163)
(-2.60372 0.226312 -0.765407)
(-3.06077 0.635916 0.068295)
(-3.31422 1.0769 0.404922)
(-3.59994 1.23969 -0.31875)
(-2.32437 -0.313602 0.587662)
(-2.94718 0.823427 0.178925)
(-3.5957 1.31728 -0.399751)
(-3.27758 1.54447 -1.11074)
(-2.12874 1.9913 -0.90336)
(-2.46455 -0.0486384 -0.588835)
(-3.22661 0.596581 -1.02014)
(-3.03803 0.587428 -1.69549)
(-1.67913 1.05633 -1.89342)
(-1.22003 1.18984 -0.90292)
(-0.988595 0.842443 -0.772214)
(-2.36747 0.00202709 -1.67265)
(-2.70827 0.33474 -1.32947)
(-1.58302 0.639858 -1.85441)
(-0.837657 0.868336 -1.00759)
(-0.677969 1.005 -1.04857)
(-0.660943 0.663953 -1.21317)
(-0.79805 0.180877 -1.67801)
(-1.85364 0.132605 -2.30345)
(-1.63196 -0.176409 -2.20878)
(-0.837232 0.326566 -1.75458)
(-0.536443 1.05185 -1.76617)
(-0.639868 0.625256 -1.65101)
(-0.644716 0.228962 -1.45528)
(-0.202793 -0.399834 -1.78718)
(-0.623371 -0.200102 -2.17477)
(-0.643113 -0.432245 -2.7846)
(-0.800432 -0.11219 -2.27295)
(-0.571666 0.442487 -2.21154)
(-0.360697 0.773914 -2.18341)
(-0.204995 0.546332 -1.71638)
(-0.0435601 0.182788 -1.66778)
(0.106212 -0.225215 -1.80802)
(-0.412451 -0.0725286 -2.04028)
(-0.309163 0.116285 -1.96759)
(-1.24043 0.11583 -3.17865)
(-0.651246 -0.131789 -2.72383)
(-0.333331 0.0297314 -2.37128)
(-0.255804 0.741214 -2.28889)
(-0.24641 0.454939 -1.93693)
(0.041081 0.0458704 -1.73799)
(0.255943 0.0048225 -1.78335)
(0.164458 -0.090325 -1.80434)
(0.224948 -0.244012 -1.68428)
(0.0602905 -0.3893 -1.54941)
(-0.998704 -0.0730509 -3.4926)
(-0.507386 0.0172106 -3.14055)
(-0.0146836 0.0683966 -2.75864)
(0.315629 0.557307 -2.3851)
(0.224415 0.624584 -1.89345)
(0.254289 0.109877 -1.67709)
(0.684596 -0.0117709 -1.52571)
(0.595356 -0.233373 -1.46184)
(0.59293 -0.327228 -1.36752)
(0.382544 -0.634545 -1.4294)
(0.380821 -0.897822 -1.54859)
(-0.110127 0.222967 -2.71555)
(-0.0301624 0.522172 -2.64196)
(0.281813 0.902072 -2.56158)
(0.357869 1.18149 -2.48179)
(0.91646 1.34154 -1.46326)
(0.640959 0.570711 -1.62903)
(1.11114 0.573665 -1.34188)
(1.26603 -0.0479611 -1.35858)
(1.22116 -0.284566 -1.22451)
(1.02914 -0.676463 -1.30066)
(0.699325 -1.31962 -1.3127)
(0.294389 -1.64113 -1.03233)
(-2.35336 0.533916 3.06648)
(-2.83991 0.743313 2.75435)
(-2.48239 0.545035 2.99731)
(-2.36836 0.546088 3.01826)
(-2.57151 0.554908 2.16194)
(-2.55365 0.430751 2.17802)
(-2.62646 0.483799 1.69846)
(-2.66433 0.543304 1.24306)
(-3.1158 0.0203708 1.12199)
(-3.07138 0.579979 1.06044)
(-3.57198 1.74997 0.298181)
(-2.90195 -0.257394 0.0809137)
(-3.19831 0.592325 -0.16215)
(-3.70197 1.03101 0.591412)
(-3.592 1.26513 -0.0147198)
(-2.90068 2.23663 -1.22582)
(-2.48048 -0.34092 0.42042)
(-3.1475 0.386242 0.0645464)
(-3.84345 0.999272 -0.383829)
(-2.87229 1.35509 -1.42532)
(-1.75763 1.81048 0.0858215)
(-0.873977 1.81775 -1.38665)
(-2.70771 -0.245333 -0.843882)
(-3.24396 0.375392 -1.18442)
(-2.96643 0.593502 -1.70879)
(-1.38902 1.25099 -1.00757)
(-0.89877 1.44109 -0.988195)
(-0.817097 0.939693 -1.00584)
(-0.981405 0.529086 -1.05146)
(-2.25186 -0.258413 -1.72272)
(-2.41997 0.324914 -1.58286)
(-1.43763 0.62929 -1.66653)
(-0.617831 0.98346 -1.44459)
(-0.69961 1.17276 -1.13948)
(-0.680434 0.704876 -1.24786)
(-0.813091 0.184898 -1.87042)
(-0.95222 0.255346 -2.04053)
(-1.85409 0.206706 -2.01504)
(-1.15623 -0.107468 -2.32726)
(-0.897618 0.615587 -1.6222)
(-0.597763 1.04541 -1.90128)
(-0.509504 0.727437 -1.61954)
(-0.571228 0.270454 -1.45697)
(-0.174396 -0.578493 -1.75684)
(-0.616432 -0.1009 -2.21452)
(-0.511543 0.0546263 -2.21008)
(-0.56155 -0.295296 -2.67955)
(-0.649201 -0.0684944 -2.22289)
(-0.598275 0.629153 -2.20877)
(-0.369915 0.969616 -2.20582)
(-0.187986 0.712599 -1.74249)
(0.0191836 0.15209 -1.665)
(0.0764304 -0.204288 -1.79862)
(-0.415342 -0.0612857 -2.04496)
(-0.213331 -0.0533632 -2.02457)
(-0.142095 -0.383469 -1.6022)
(-1.31022 0.166709 -3.15187)
(-0.684269 -0.0210498 -2.68587)
(-0.332571 0.179538 -2.37882)
(-0.191799 0.74872 -2.33025)
(-0.248891 0.59094 -1.95611)
(0.0485176 0.0652557 -1.75513)
(0.240113 0.0387877 -1.78807)
(0.226415 -0.139333 -1.79458)
(0.280008 -0.219199 -1.71918)
(0.101761 -0.466488 -1.52016)
(0.106235 -0.641648 -1.32312)
(-0.946209 -0.0676955 -3.41301)
(-0.510814 0.0781843 -3.04752)
(-0.0221047 0.131744 -2.69906)
(0.351171 0.568094 -2.31314)
(0.234752 0.689557 -1.86546)
(0.253797 0.102836 -1.69086)
(0.66998 0.0677405 -1.54419)
(0.615175 -0.243177 -1.46327)
(0.636335 -0.343901 -1.36041)
(0.434437 -0.698828 -1.37952)
(0.431243 -0.913183 -1.46012)
(0.328899 -1.28354 -1.08463)
(-0.12707 0.250352 -2.68844)
(-0.0486766 0.54536 -2.63676)
(0.270386 0.900455 -2.55677)
(0.354256 1.18495 -2.46171)
(0.945427 1.33621 -1.43926)
(0.619368 0.643517 -1.60138)
(1.10396 0.58224 -1.34841)
(1.24068 0.0288053 -1.39339)
(1.21452 -0.29973 -1.22261)
(1.03035 -0.636053 -1.30753)
(0.709395 -1.29988 -1.28665)
(0.307588 -1.61876 -1.03072)
(-0.0828169 -1.55069 -0.736372)
(-2.39384 0.25892 3.00439)
(-2.46038 0.329977 2.98196)
(-2.59669 0.649329 3.0667)
(-2.96296 0.442372 2.7791)
(-2.8795 0.44262 2.94189)
(-2.52416 0.0643031 3.00114)
(-2.44811 0.476855 2.99682)
(-2.41944 0.551573 2.49083)
(-2.68414 0.253028 2.34522)
(-2.78926 0.159269 2.07033)
(-2.89749 0.500773 1.5588)
(-3.45408 1.11522 0.946788)
(-2.96235 0.222352 1.03432)
(-3.08654 0.0354652 0.82553)
(-3.55801 0.542519 0.612144)
(-3.91225 1.25923 0.594359)
(-3.97791 2.00985 0.00757652)
(-2.9302 -0.445736 0.49855)
(-3.13545 0.583145 -0.477989)
(-3.88495 0.848012 0.156699)
(-3.77472 1.1393 -0.474108)
(-2.56833 1.60134 -0.892079)
(-1.97055 1.46154 0.925969)
(-2.65535 -0.535374 0.346079)
(-3.23484 0.279707 -0.0318264)
(-3.76575 0.812507 -0.650826)
(-2.51336 0.995868 -1.50852)
(-1.43586 1.58084 0.165437)
(-0.937449 1.6226 -0.577462)
(-0.95811 0.996493 -0.767186)
(-2.76241 -0.240305 -0.894183)
(-3.241 0.19529 -0.936283)
(-2.57697 0.805518 -1.54678)
(-1.20641 1.17772 -0.339687)
(-0.620736 1.46604 -1.05869)
(-0.682805 1.05966 -0.823343)
(-0.8045 0.480574 -1.26107)
(-1.01503 0.375904 -1.44937)
(-2.13835 -0.294764 -1.53268)
(-2.31531 0.552411 -1.28325)
(-1.07076 0.704328 -1.73025)
(-0.587051 1.16544 -1.51505)
(-0.615722 1.36934 -1.26977)
(-0.627991 0.677083 -1.1205)
(-0.769981 0.31209 -1.8876)
(-1.01314 0.383593 -2.03691)
(-0.518487 0.526815 -2.15879)
(-1.76434 0.275793 -1.80092)
(-1.25272 0.276554 -1.88607)
(-0.827426 0.811399 -1.65481)
(-0.536525 1.19309 -1.82877)
(-0.373677 0.937618 -1.45758)
(-0.496792 0.28571 -1.42784)
(-0.1557 -0.371212 -1.77611)
(-0.640938 0.167657 -2.2203)
(-0.395446 0.0944223 -2.22117)
(-0.103839 -0.316304 -1.88988)
(-0.567213 -0.171604 -2.47908)
(-0.553502 0.0366103 -2.13282)
(-0.607209 0.790185 -2.08003)
(-0.385565 1.11067 -2.14254)
(-0.158308 0.875368 -1.74982)
(0.0187606 0.17642 -1.69317)
(-0.0306899 -0.106764 -1.74125)
(-0.322113 -0.0837669 -2.06291)
(-0.0834914 -0.142207 -2.04744)
(-0.0642616 -0.458084 -1.66186)
(0.0590769 -0.441518 -1.44671)
(-1.22417 0.123214 -3.16392)
(-0.713226 0.0740169 -2.62724)
(-0.370028 0.387927 -2.30505)
(-0.164425 0.866003 -2.27046)
(-0.259519 0.711096 -1.97889)
(0.0369227 0.12452 -1.77857)
(0.253901 0.0817594 -1.77721)
(0.245095 -0.174679 -1.79474)
(0.28353 -0.160122 -1.79)
(0.160514 -0.501669 -1.52132)
(0.183768 -0.674557 -1.31309)
(0.161842 -0.815616 -1.07862)
(-0.834357 -0.105324 -3.35261)
(-0.49336 0.124531 -2.95451)
(-0.0088708 0.188091 -2.62284)
(0.414585 0.577385 -2.23105)
(0.280833 0.712917 -1.84206)
(0.279045 0.115338 -1.71406)
(0.645749 0.114178 -1.56378)
(0.672693 -0.255273 -1.45934)
(0.684349 -0.379002 -1.3533)
(0.492255 -0.788611 -1.32694)
(0.474724 -0.911149 -1.39513)
(0.388021 -1.25993 -1.10255)
(-0.237967 -1.53546 -0.774522)
(-0.144768 0.26468 -2.66517)
(-0.078584 0.567613 -2.63177)
(0.251984 0.89662 -2.55548)
(0.333889 1.21493 -2.4592)
(0.951856 1.36335 -1.42148)
(0.639369 0.614269 -1.60931)
(1.07484 0.611019 -1.35112)
(1.26293 -0.00928324 -1.37388)
(1.2093 -0.29275 -1.22659)
(1.02031 -0.612386 -1.29111)
(0.715107 -1.28614 -1.25902)
(0.323381 -1.5913 -1.03044)
(-0.101553 -1.55451 -0.727647)
(0.108615 -1.67235 -0.420856)
(-2.24017 0.262812 2.98761)
(-2.4062 0.25086 2.95367)
(-2.50765 0.317668 3.0102)
(-2.63985 0.545238 3.0086)
(-2.5564 0.26578 2.92879)
(-2.54912 0.254613 3.02435)
(-2.72668 0.486342 2.80944)
(-2.87287 0.112422 2.97727)
(-3.00599 0.348105 2.83231)
(-2.70872 0.860114 2.57963)
(-2.7976 1.35079 2.73461)
(-2.73235 0.12445 2.85264)
(-2.64047 0.628011 2.3501)
(-3.00051 0.848104 1.90883)
(-2.93699 0.26063 2.05454)
(-2.96278 0.0855516 1.81565)
(-3.27126 0.559057 1.17699)
(-3.55615 1.0238 0.937238)
(-4.17037 1.26944 1.82912)
(-3.00254 -0.070911 1.31716)
(-3.23895 0.184789 0.422431)
(-3.78178 0.494567 0.657413)
(-4.1353 0.895388 0.880283)
(-4.00041 1.81222 -0.111101)
(-2.836 1.82586 0.798785)
(-3.04262 -0.649172 0.836634)
(-3.06515 0.263959 -0.0633494)
(-3.88526 0.783647 0.389067)
(-3.80614 1.06685 -0.686264)
(-2.30416 1.09401 -0.180132)
(-1.55144 1.45681 0.122019)
(-1.04762 1.3622 -0.377385)
(-2.75871 -0.541044 0.0990536)
(-3.29546 0.334711 -0.17819)
(-3.66337 0.457611 -0.680596)
(-2.27151 0.822093 -0.958509)
(-1.16389 1.16182 0.00827362)
(-0.868491 1.45468 -0.51143)
(-0.774036 1.05989 -0.700042)
(-1.07789 0.836411 -1.01421)
(-2.72735 -0.391752 -0.83501)
(-3.01131 0.171691 -1.15142)
(-2.30217 0.607468 -0.962957)
(-0.92228 1.09468 -0.505173)
(-0.627699 1.3413 -1.16507)
(-0.558818 1.02284 -0.65141)
(-0.758287 0.473119 -1.33082)
(-1.07374 0.358121 -1.36248)
(-0.637383 0.905879 -1.52864)
(-2.00256 -0.319401 -1.3588)
(-1.85799 0.445134 -1.31666)
(-1.2054 0.579896 -1.2766)
(-0.527354 1.22315 -1.41627)
(-0.52731 1.43884 -1.2943)
(-0.598731 0.740146 -0.999438)
(-0.63993 0.296741 -1.66866)
(-0.863913 0.422868 -1.95016)
(-0.214428 0.659171 -2.00079)
(0.609772 0.668184 -1.66943)
(-1.48311 0.182223 -1.79728)
(-1.19699 0.411086 -1.47509)
(-0.750477 0.888735 -1.64229)
(-0.597902 1.25797 -1.64765)
(-0.317022 1.16576 -1.30169)
(-0.3001 0.141451 -1.41681)
(-0.215523 -0.291939 -1.67988)
(-0.605807 0.20117 -2.19942)
(-0.254206 0.0164981 -2.15876)
(0.0453982 -0.231756 -1.89846)
(0.131375 -0.346983 -1.69875)
(-0.63522 -0.0418258 -2.26968)
(-0.610295 0.193819 -1.93928)
(-0.541945 0.837322 -1.97644)
(-0.349495 1.36313 -1.88334)
(-0.172626 1.0681 -1.75638)
(0.0355429 0.195734 -1.70885)
(-0.092881 0.0102361 -1.72871)
(-0.248816 -0.188147 -2.04116)
(-0.0425905 -0.144737 -2.06998)
(0.0562104 -0.512494 -1.70423)
(0.128006 -0.537069 -1.46208)
(0.05275 -0.611318 -1.2402)
(-1.14979 0.123299 -3.09828)
(-0.671579 0.152839 -2.49876)
(-0.390552 0.52148 -2.20117)
(-0.207781 1.12485 -2.09414)
(-0.22266 0.825971 -2.02173)
(-0.0125641 0.228324 -1.82237)
(0.248052 0.0877462 -1.76851)
(0.270379 -0.109307 -1.81268)
(0.321663 -0.153669 -1.85328)
(0.201285 -0.553723 -1.57236)
(0.253115 -0.727879 -1.28599)
(0.24237 -0.822162 -1.09983)
(-0.275734 -1.22786 -0.919717)
(-0.712648 -0.133913 -3.29974)
(-0.455237 0.154211 -2.86826)
(0.0178886 0.235856 -2.54284)
(0.452458 0.609127 -2.15892)
(0.346978 0.703049 -1.81487)
(0.277694 0.136375 -1.75769)
(0.652669 0.143222 -1.56678)
(0.696252 -0.258172 -1.48401)
(0.732322 -0.391483 -1.35559)
(0.519576 -0.805719 -1.34185)
(0.513129 -0.915833 -1.33837)
(0.444173 -1.25203 -1.10304)
(-0.202204 -1.53552 -0.769933)
(-0.350933 -1.78375 -0.47035)
(-0.159334 0.280426 -2.64456)
(-0.125146 0.603606 -2.62448)
(0.225751 0.901329 -2.54837)
(0.330253 1.22624 -2.46264)
(0.963248 1.36001 -1.41229)
(0.643381 0.607489 -1.61158)
(1.08327 0.61675 -1.34259)
(1.26029 0.00441036 -1.37574)
(1.22149 -0.274976 -1.22909)
(0.997377 -0.643509 -1.25821)
(0.714625 -1.27778 -1.23504)
(0.329366 -1.57625 -1.03264)
(-0.0745101 -1.5632 -0.709129)
(0.116142 -1.67617 -0.413044)
(0.303504 -1.73205 -0.188549)
(-2.22726 0.157597 2.84218)
(-2.24701 0.0484059 3.0186)
(-2.28175 0.238028 3.09437)
(-2.45494 0.266323 2.97241)
(-2.41243 0.3719 3.02688)
(-2.6998 0.262026 2.91719)
(-2.55507 0.113993 3.06243)
(-2.63188 0.3615 3.15409)
(-2.74932 0.234192 2.9639)
(-2.86945 0.538342 2.78321)
(-2.69171 0.435999 2.80922)
(-2.37104 0.0626814 3.51832)
(-2.79511 -0.0253614 3.12688)
(-2.7453 -0.0272601 3.10177)
(-2.7973 0.476687 2.72218)
(-3.02286 1.11804 2.58551)
(-2.92512 -0.20903 2.92069)
(-2.91486 0.225829 2.58909)
(-2.99653 0.3196 2.14604)
(-3.11181 0.553284 1.98833)
(-3.71885 0.953712 1.91274)
(-3.05662 0.0346741 2.02183)
(-3.02447 -0.234319 1.65945)
(-3.37165 0.152626 1.50744)
(-3.7225 0.505058 1.24381)
(-4.27132 1.03886 1.75338)
(-3.99625 2.05662 0.975571)
(-3.31986 -0.27912 1.18048)
(-3.47068 -0.0913895 -0.227391)
(-3.89581 0.152811 1.16976)
(-4.2001 0.6968 0.937754)
(-3.70433 1.38493 0.471)
(-2.4461 1.38351 1.12839)
(-1.13854 1.4994 0.379608)
(-3.35932 -0.476349 0.127036)
(-3.09305 0.0128021 0.0239119)
(-3.86752 0.70394 0.530315)
(-3.4842 0.91651 -0.473981)
(-1.94002 0.920742 0.247157)
(-1.39557 1.295 0.00718525)
(-0.978179 1.04842 -0.0612278)
(-0.904306 0.99481 -0.143459)
(-2.74178 -0.628026 0.36277)
(-3.35352 -0.00169753 -0.0522228)
(-3.38871 0.447479 -0.243889)
(-1.84494 0.721006 0.0787148)
(-0.848429 0.99663 0.121877)
(-0.819239 1.25951 -0.428007)
(-0.789062 0.92535 -0.547974)
(-0.900991 0.556492 -0.993895)
(-0.925983 0.944869 -1.03705)
(-2.58955 -0.574923 -1.05417)
(-2.82742 -0.014418 -0.825211)
(-1.82467 0.37957 -0.542257)
(-0.826414 0.807962 -0.585661)
(-0.60082 1.22042 -1.1938)
(-0.397701 0.95124 -0.597167)
(-0.651197 0.563162 -1.24651)
(-0.953813 0.443971 -1.22232)
(-0.370984 0.976558 -1.33091)
(0.627831 1.06454 -0.984445)
(-1.936 -0.438319 -1.12541)
(-1.43667 0.289302 -1.35831)
(-0.98685 0.547947 -0.969197)
(-0.333382 1.15389 -1.43049)
(-0.467008 1.51209 -1.15473)
(-0.4995 0.803284 -1.02839)
(-0.533043 0.173435 -1.42596)
(-0.727108 0.34427 -1.75905)
(-0.170123 0.645968 -1.71689)
(0.803355 0.504859 -1.46377)
(0.520382 0.0755682 -1.51733)
(-1.26603 0.107257 -1.78766)
(-0.873816 0.436507 -1.38948)
(-0.682209 0.825419 -1.58044)
(-0.589596 1.28898 -1.47663)
(-0.282447 1.36862 -1.14309)
(-0.299966 0.274629 -1.49324)
(-0.334727 0.0270403 -1.54002)
(-0.617293 0.182589 -2.08368)
(-0.133383 0.0781434 -2.16848)
(0.204085 -0.120701 -1.89767)
(0.271998 -0.500293 -1.61778)
(-0.0129139 -0.612142 -1.34957)
(-0.644561 0.0694048 -2.0879)
(-0.625816 0.387238 -1.76497)
(-0.406184 0.852234 -1.75846)
(-0.191151 1.18746 -1.78175)
(-0.202402 1.21898 -1.80951)
(0.0331569 0.252716 -1.73707)
(-0.059288 0.00989784 -1.68206)
(-0.174121 -0.186997 -2.04753)
(0.0250209 -0.162147 -2.07453)
(0.169111 -0.572254 -1.7658)
(0.226653 -0.640572 -1.44725)
(0.147306 -0.700046 -1.1787)
(-0.214875 -0.76301 -1.11497)
(-1.04137 0.065595 -2.95984)
(-0.585846 0.179018 -2.32773)
(-0.355705 0.665633 -2.06401)
(-0.1206 1.02509 -2.03632)
(-0.17068 0.867433 -2.09091)
(-0.0276503 0.293536 -1.87842)
(0.281214 0.125306 -1.76924)
(0.301232 -0.171044 -1.79006)
(0.409716 -0.182204 -1.89649)
(0.3493 -0.679752 -1.57809)
(0.316009 -0.766771 -1.28164)
(0.307574 -0.86137 -1.07153)
(-0.178607 -1.10144 -1.04151)
(-0.842386 -1.31525 -0.895399)
(-0.636477 -0.127362 -3.23724)
(-0.439471 0.194705 -2.78461)
(0.0471455 0.289728 -2.47571)
(0.469629 0.659118 -2.12089)
(0.398952 0.725786 -1.76745)
(0.269941 0.180552 -1.79996)
(0.674185 0.133911 -1.55889)
(0.706967 -0.248426 -1.51154)
(0.76239 -0.399037 -1.36652)
(0.55054 -0.848003 -1.3646)
(0.562377 -0.930863 -1.28441)
(0.506097 -1.24446 -1.07103)
(-0.137637 -1.55852 -0.746886)
(-0.279901 -1.82503 -0.386344)
(-0.451072 -1.8603 -0.264341)
(-0.173035 0.292545 -2.62953)
(-0.169089 0.630697 -2.61797)
(0.222256 0.92239 -2.52947)
(0.321431 1.22801 -2.44636)
(0.971406 1.38373 -1.39077)
(0.653646 0.546828 -1.61034)
(1.12237 0.591528 -1.32579)
(1.25296 0.02786 -1.37956)
(1.21735 -0.266188 -1.23377)
(1.03637 -0.639284 -1.22649)
(0.718438 -1.26558 -1.221)
(0.335401 -1.55709 -1.04512)
(-0.0661687 -1.55638 -0.71393)
(0.126893 -1.68745 -0.365526)
(0.304311 -1.72403 -0.156815)
(0.319954 -1.59584 -0.571103)
(-2.21464 0.199843 2.68392)
(-2.20096 0.129364 2.88682)
(-2.33928 0.23888 2.92699)
(-2.26594 0.128771 2.99943)
(-2.29877 0.0964278 3.10569)
(-2.38582 0.321156 3.1592)
(-2.40396 -0.0343675 3.06893)
(-2.44682 0.100936 3.16478)
(-2.53436 0.270589 3.20286)
(-2.74942 0.0610742 2.86625)
(-2.61146 0.0851429 2.96478)
(-2.43103 -0.0577206 3.26588)
(-2.58957 -0.0482117 3.42716)
(-2.99372 0.303604 2.91768)
(-2.98542 0.377613 2.90711)
(-2.86492 0.215394 2.88642)
(-2.06936 -0.50301 3.74417)
(-2.58529 0.754294 3.51542)
(-2.83544 -0.378389 3.16786)
(-2.81224 0.399129 3.10224)
(-3.06144 0.0626287 2.65636)
(-3.30077 0.895603 2.42161)
(-3.37973 0.646006 2.58201)
(-2.9148 -0.287234 2.88467)
(-2.97857 0.0474455 2.48588)
(-3.1435 0.121779 2.2405)
(-3.11926 0.202418 2.27651)
(-3.86071 0.781487 1.81987)
(-4.50467 1.25948 1.58987)
(-3.52925 0.018595 1.61783)
(-3.29807 0.110753 1.56132)
(-3.49803 -0.127548 1.77114)
(-3.80573 0.224732 1.43333)
(-4.24404 0.914665 1.6285)
(-4.00818 1.27803 1.28121)
(-2.5119 0.97892 2.21712)
(-3.44908 -0.687734 1.27693)
(-3.7204 -0.18571 -0.91422)
(-4.21053 -0.0574712 0.5293)
(-4.19188 0.747443 0.408381)
(-3.13382 0.758432 1.55533)
(-2.00519 0.892137 1.50925)
(-1.06186 1.03607 0.840561)
(-0.869609 0.948199 0.52654)
(-3.54961 -0.500821 -0.0704093)
(-3.03395 -0.249827 0.590841)
(-3.57074 0.635611 0.239313)
(-2.95918 0.364012 0.405471)
(-1.60393 0.986162 0.45463)
(-1.26891 0.945593 0.118492)
(-0.859679 0.732285 0.332404)
(-0.785872 0.760523 0.176639)
(-1.35457 0.589344 0.266555)
(-2.69456 -0.691352 0.775131)
(-3.24189 -0.229848 -0.0128774)
(-2.89869 0.31863 -0.39511)
(-1.52351 0.0294375 0.479071)
(-0.74765 0.881125 0.256569)
(-0.821721 0.905669 -0.243947)
(-0.707697 0.825924 -0.335404)
(-0.766 0.430997 -0.708915)
(-0.951192 0.708652 -0.6847)
(0.0727187 0.674117 -0.782868)
(-2.41244 -0.636989 -0.693236)
(-2.45096 -0.297158 -0.399899)
(-1.44859 0.246606 -0.442321)
(-0.888202 0.606876 -0.328837)
(-0.577655 1.11042 -1.14095)
(-0.300831 0.865353 -0.596482)
(-0.600086 0.530263 -1.06393)
(-0.956095 0.395858 -0.958421)
(-0.323075 0.721552 -1.0859)
(0.631992 0.867099 -0.829472)
(0.924003 0.568641 -0.98827)
(-1.83618 -0.576919 -0.594064)
(-1.25582 0.162449 -1.31909)
(-0.867617 0.327549 -0.761326)
(-0.364612 1.00122 -1.27448)
(-0.392335 1.50563 -1.05769)
(-0.413998 0.855405 -1.03463)
(-0.516957 0.398252 -1.12511)
(-0.611019 0.29478 -1.52702)
(0.131389 0.684436 -1.4535)
(1.17218 0.455003 -1.20122)
(0.799024 0.00125863 -1.30144)
(0.473536 -0.364269 -1.15558)
(-1.12118 0.10066 -1.47232)
(-0.790574 0.363465 -1.24261)
(-0.619262 0.759078 -1.40429)
(-0.471521 1.18385 -1.36768)
(-0.257392 1.36764 -1.09217)
(-0.23073 0.35713 -1.65069)
(-0.370725 0.143913 -1.45092)
(-0.424993 0.0772227 -1.94451)
(-0.0123623 0.114838 -2.09927)
(0.34895 -0.11792 -1.88917)
(0.42671 -0.624641 -1.49703)
(0.0831861 -0.589726 -1.34627)
(-0.0604434 -0.787816 -1.10219)
(-0.664195 0.161365 -1.7853)
(-0.550983 0.402614 -1.60123)
(-0.297895 0.732769 -1.53724)
(-0.110906 1.18356 -1.52644)
(-0.211176 1.2895 -1.84617)
(0.0192678 0.320311 -1.79179)
(-0.0580435 0.0760613 -1.6612)
(-0.10363 -0.29908 -1.98683)
(0.118051 -0.157406 -2.10579)
(0.364811 -0.778651 -1.71447)
(0.293172 -0.737199 -1.4184)
(0.223116 -0.776503 -1.11248)
(-0.186607 -0.715838 -1.10136)
(-0.608386 -1.34173 -0.739571)
(-0.846321 0.0278101 -2.77149)
(-0.487381 0.221164 -2.14825)
(-0.387183 0.654927 -1.98802)
(-0.0843019 1.07562 -1.90813)
(-0.191001 0.950064 -2.07509)
(0.000394034 0.303656 -1.95169)
(0.244908 0.214667 -1.78324)
(0.361615 -0.169755 -1.76645)
(0.468628 -0.20963 -1.90513)
(0.495187 -0.979265 -1.48829)
(0.395965 -0.84329 -1.24749)
(0.362888 -0.874367 -1.05351)
(-0.130953 -1.03378 -1.09435)
(-0.732926 -1.41732 -0.723875)
(-0.959417 -1.48342 -0.657749)
(-0.629262 -0.0952955 -3.15667)
(-0.459361 0.249029 -2.70498)
(0.0450433 0.358072 -2.43593)
(0.409001 0.734922 -2.1169)
(0.432766 0.769887 -1.71641)
(0.25719 0.220492 -1.82348)
(0.680434 0.166503 -1.56039)
(0.683284 -0.171571 -1.5594)
(0.803582 -0.406184 -1.37079)
(0.545821 -0.853843 -1.42167)
(0.593537 -0.930129 -1.25988)
(0.542178 -1.26394 -1.00195)
(-0.113138 -1.55897 -0.724659)
(-0.224375 -1.84817 -0.335624)
(-0.413067 -1.87627 -0.205093)
(-0.677187 -1.87537 -0.423848)
(-0.189752 0.305885 -2.61971)
(-0.202873 0.65672 -2.60703)
(0.248188 0.928568 -2.51994)
(0.308147 1.2399 -2.42182)
(0.987095 1.38695 -1.38871)
(0.606832 0.679636 -1.57381)
(1.14943 0.570208 -1.2897)
(1.26128 0.0279502 -1.37412)
(1.21849 -0.261005 -1.23592)
(1.02697 -0.644005 -1.22403)
(0.73321 -1.25597 -1.20488)
(0.336275 -1.55212 -1.04584)
(-0.0590642 -1.5831 -0.685821)
(0.140158 -1.68568 -0.3736)
(0.3105 -1.70665 -0.157804)
(0.324713 -1.60487 -0.538756)
(0.448112 -1.63614 -1.26169)
(-2.05365 0.0726905 2.66407)
(-2.17178 0.114734 2.69074)
(-2.23906 0.198642 2.74398)
(-2.07514 0.163506 2.93663)
(-2.22498 0.111579 3.02325)
(-2.30833 0.189393 3.07684)