/*--------------------------------*- C++ -*----------------------------------*\
  =========                 |
  \\      /  F ield         | OpenFOAM: The Open Source CFD Toolbox
   \\    /   O peration     | Website:  https://openfoam.org
    \\  /    A nd           | Version:  7
     \\/     M anipulation  |
\*---------------------------------------------------------------------------*/
FoamFile
{
    version     2.0;
    format      ascii;
    class       volScalarField;
    location    "2";
    object      nut;
}
// * * * * * * * * * * * * * * * * * * * * * * * * * * * * * * * * * * * * * //

dimensions      [0 2 -1 0 0 0 0];

internalField   nonuniform List<scalar> 
18750
(
0.000293575
0.000713317
0.000296071
0.000561876
0.00122874
0.000566862
0.000557974
9.34329e-05
0.00024659
0.000389408
0.00224117
0.000521933
0.00124839
0.000281869
0.000504016
0.000496765
0.000170326
0.000137914
0.000254326
0.000329098
0.00339022
0.00138311
0.00183846
0.000616893
0.000440175
0.00121391
0.000380201
0.00026274
0.000458822
0.000453799
0.000276814
0.000142419
3.76903e-05
0.000336744
0.000297132
0.00318337
0.00176947
0.00412961
0.00107687
0.00107037
0.00180025
0.000386233
0.000451724
0.000469988
0.00123975
0.000271394
0.000330615
0.000233464
0.000478679
0.000504732
0.000387687
0.000238762
0.000142154
5.75411e-05
0.00036372
0.000336847
0.00229035
0.00125275
0.00272605
0.00115229
0.00176215
0.00365875
0.00068077
0.000911505
0.00104701
0.0022643
0.000474146
0.000375306
0.000423328
0.000526266
0.00111787
0.000392732
0.000285932
0.000363005
0.000211037
0.000518211
0.000541122
0.000313432
0.000349472
0.000209923
0.000149045
0.000227481
0.000302347
0.000287585
0.00246083
0.000551325
0.00206808
0.000982425
0.00156035
0.002749
0.00160521
0.00114935
0.00172726
0.00363396
0.000561016
0.000614478
0.000469739
0.00141115
0.00287711
0.0005368
0.000559543
0.000328043
0.000362124
0.00064443
0.000793517
0.000302334
0.000330086
0.000296789
0.000413101
0.000196878
0.000596644
0.000504525
0.00028412
0.000310586
0.000304729
0.000178032
0.000158455
0.00021087
0.000313016
0.00034252
0.00254065
0.000999178
0.00235899
0.00108625
0.00077398
0.00217427
0.000990057
0.000925507
0.00141326
0.00282623
0.00174488
0.00130043
0.00108126
0.00147477
0.00403938
0.000542822
0.000455926
0.000402322
0.000277875
0.00124341
0.00264718
0.000549832
0.000562212
0.000602764
0.00046628
0.000367409
0.000637713
0.000739899
0.000188434
0.000352397
0.000287029
0.000353407
0.000416428
0.000207238
0.000646413
0.000574651
0.000215584
0.000222083
0.000311491
0.000223431
0.000155902
0.000167037
0.000191248
0.000180883
0.000335662
0.00261368
0.000738969
0.00256551
0.000506396
0.000466215
0.00225381
0.000895789
0.00111582
0.000667015
0.00227339
0.000473437
0.000583251
0.0015758
0.00120549
0.00276228
0.000790454
0.000927747
0.00112405
0.00111029
0.00219202
0.00428175
0.000627801
0.000478818
0.000473895
0.000436244
0.000476813
0.000896588
0.00211285
0.00063546
0.000512161
0.000623938
0.000520494
0.000556089
0.000426374
0.000527892
0.000965888
0.000238059
0.000271461
0.000377038
0.000291318
0.000419095
0.000400905
0.00026776
0.000649602
0.000618932
0.000250671
0.00025529
0.00021163
0.000300296
0.000134952
0.000154275
0.000174942
0.0001849
0.000227814
0.000347015
0.00226816
0.000724578
0.00246431
0.000349349
0.000325896
0.00241147
0.00096033
0.000503821
0.000461768
0.00209788
0.000866092
0.00114879
0.00154039
0.00125061
0.00259464
0.00163312
0.00057877
0.00125906
0.00121255
0.00143408
0.00277192
0.00100029
0.00125581
0.00101175
0.00135561
0.00132394
0.00172262
0.00380629
0.000657527
0.000463213
0.000523573
0.000468841
0.000397714
0.000696719
0.00230126
0.0021518
0.000591644
0.000715507
0.000255448
0.000596712
0.000451333
0.000558856
0.000495533
0.000786534
0.00113394
0.000148475
0.000260303
0.000523477
0.000325112
0.00029452
0.000432958
0.0003893
0.000282837
0.000684282
0.00069188
0.000205863
0.000242393
0.000282259
0.00022301
0.000273111
0.000110829
0.000162891
0.000179802
0.000180983
0.000203465
0.000325611
0.00249887
0.0011372
0.00220311
0.00103885
0.000430527
0.00246715
0.000671168
0.000560903
0.000338806
0.00244758
0.000731716
0.000736517
0.000804684
0.000511733
0.00226628
0.000692544
0.000859641
0.0016492
0.00118744
0.000803953
0.00242322
0.000985324
0.00140974
0.000790476
0.00120905
0.00103478
0.00181142
0.00283725
0.000742398
0.00172393
0.00104731
0.00108193
0.0012231
0.0015837
0.00184243
0.00322805
0.000402449
0.000217535
0.000620592
0.000642824
0.000365905
0.000685938
0.00083674
0.00123665
0.00229792
0.000483949
0.000500691
0.000474005
0.000292849
0.000477774
0.00053216
0.000526946
0.000618259
0.000666049
0.00102299
0.000253276
0.000249968
0.000108403
0.000300312
0.000264745
0.00030353
0.000457415
0.000418156
0.000258055
0.000728315
0.000769244
0.000210503
0.000182455
0.000246345
0.000324232
0.00024016
0.000226065
0.00013981
0.00017609
0.000186018
0.000196616
0.00017059
0.000505095
0.00239086
0.000721439
0.00229468
0.000828035
0.000897068
0.0022063
0.000600129
0.00077309
0.000533302
0.00239286
0.000842332
0.000692266
0.000723717
0.000632702
0.00236716
0.00092904
0.00119886
0.000578086
0.000537677
0.000409966
0.00219729
0.000552019
0.000734352
0.00108142
0.0011303
0.0016145
0.000979691
0.00248347
0.000903267
0.000949028
0.00079408
0.00076902
0.0010624
0.00231233
0.00335865
0.00325967
0.000588054
0.000806912
0.000952812
0.000800019
0.000936077
0.000723373
0.00071918
0.00203831
0.00339577
0.000232683
0.000175768
0.000433982
0.000760077
0.000899551
0.000718365
0.000986453
0.000824623
0.000692087
0.00238018
0.000559267
0.000343611
0.000581378
0.000205841
0.000231403
0.000425871
0.000311236
0.000510344
0.000757247
0.000678577
0.00110524
0.000308434
0.000235642
0.000299956
0.000266397
0.000273227
0.000255488
0.000339262
0.000482518
0.000408666
0.00028123
0.000709675
0.000841211
0.000122876
0.00018954
0.000174983
0.000257813
0.000344809
0.000238863
0.000179192
0.000134793
0.000188555
0.000190017
0.000149208
0.000286357
0.000320973
0.0025837
0.000880656
0.00229318
0.00101959
0.000380108
0.00218639
0.000641071
0.000719002
0.000755566
0.00221742
0.000481725
0.000591383
0.000416947
0.000521462
0.00261908
0.000814502
0.000605385
0.000682854
0.000484764
0.000394985
0.00243843
0.00121214
0.00107248
0.00104228
0.000521073
0.000519725
0.000639998
0.00207513
0.000558777
0.000758124
0.00113204
0.0012354
0.00124976
0.00142206
0.00162189
0.00297232
0.000520043
0.000539213
0.000720385
0.000818734
0.000850663
0.00146156
0.0025745
0.00268433
0.00315543
0.000761505
0.000467989
0.000437339
0.000670277
0.000981184
0.000882836
0.000276757
0.000335541
0.0017434
0.00340906
0.000407773
8.31496e-05
0.00073388
0.000501316
0.000504412
0.000596317
0.000680285
0.00094393
0.000848077
0.00101108
0.00251576
0.000265717
0.000371206
0.000427297
0.000449755
0.000355456
0.000160474
0.000421448
0.00040169
0.000413879
0.000685444
0.000730245
0.00146175
0.000425396
0.000646717
0.000133266
0.000253237
0.000154565
0.0004355
0.00025589
0.000367343
0.000471935
0.000394645
0.000314718
0.000690698
0.000857008
8.2084e-05
0.000132146
0.000171985
0.000171503
0.000264351
0.00032568
0.000292894
0.000152053
0.000122793
0.000192516
0.000187664
0.000139934
0.000191836
0.000392157
0.00230226
0.000628471
0.00226203
0.000308292
0.00085274
0.00222108
0.000638077
0.000736867
0.000536868
0.00216981
0.000646927
0.000654743
0.000615377
0.000593347
0.00236625
0.00064318
0.000830965
0.000571497
0.000459567
0.000250024
0.00256134
0.00069721
0.000501392
0.000677128
0.000677101
0.000543508
0.000313994
0.00234295
0.000952057
0.00110871
0.00103093
0.000802688
0.000804267
0.000617905
0.000645941
0.00204079
0.000645603
0.000691257
0.000538944
0.00114053
0.0010801
0.00115602
0.00137654
0.0015459
0.0029169
0.000664755
0.000434457
0.000870596
0.000416524
0.00100556
0.000866841
0.00133585
0.00248709
0.0021571
0.00297585
0.00106026
0.000567779
0.000404227
0.00044323
0.000810355
0.00110808
0.00127513
0.000807685
0.000632426
0.00163448
0.00416293
0.00100498
0.000322752
0.000402182
0.000688708
0.000993705
0.000712719
0.000348422
0.000538489
0.00115328
0.000692868
0.000983317
0.00247852
0.000612842
0.000394341
0.000452076
0.000646977
0.00084288
0.001193
0.000378813
0.000479685
0.000499749
0.000744591
0.000775969
0.000751782
0.00187394
0.000177982
0.000357942
0.000256523
0.000378276
0.000264371
0.000312373
0.000213011
0.00026072
0.000371018
0.000447963
0.000386993
0.000335235
0.000687258
0.000827683
0.000158534
7.41974e-05
0.000128146
0.000139641
0.000154152
0.000258152
0.000297749
0.000315443
0.000145412
0.000114585
0.000195347
0.000186491
0.00013834
0.000213495
0.000567617
0.00219235
0.000742673
0.00216754
0.000591555
0.00055661
0.00223661
0.000359762
0.000455916
0.000705503
0.00213121
0.000743874
0.000531704
0.000772923
0.000475961
0.00212847
0.00064594
0.000638018
0.000740375
0.00042648
0.000569356
0.00225521
0.000645925
0.000600569
0.000627048
0.000591137
0.00047409
0.000519846
0.00224753
0.000460242
0.000400014
0.000560054
0.000536076
0.000846062
0.000732296
0.000916553
0.00237019
0.000600917
0.000485899
0.000471887
0.000751393
0.000668753
0.000551712
0.000700746
0.000642828
0.00199248
0.000542538
0.000336965
0.000446034
0.000259953
0.00105902
0.000916619
0.000888252
0.00130908
0.00127453
0.00291799
0.000812895
0.000490474
0.00107035
0.000539054
0.000863974
0.000786327
0.000800332
0.00150374
0.00248331
0.00312715
0.00313516
0.000738421
0.000629753
0.00049957
0.000468473
0.00056406
0.00110638
0.00090065
0.00127403
0.0012527
0.00114546
0.00169001
0.00438779
0.000418487
0.000544535
0.000202968
0.000294406
0.000394301
0.000938401
0.00062635
0.000529063
0.00091089
0.000940586
0.00101021
0.00108107
0.00305816
0.000393408
0.000519238
0.00043422
0.000666213
0.000566166
0.000517856
0.00046541
0.000574421
0.000573605
0.000275317
0.000654489
0.000865218
0.000770786
0.00196944
0.000340605
0.000127226
0.000305009
0.000249003
0.000260627
0.000391739
0.000330903
0.000327317
0.000289271
0.000333028
0.000489954
0.00040293
0.00036875
0.000635781
0.000838923
0.000252441
0.000141994
7.0806e-05
0.000198672
0.000110561
0.000148279
0.000236559
0.000273403
0.000331819
0.000133184
0.000109899
0.000194277
0.00017735
0.000148734
0.000301106
0.000317886
0.00211756
0.000410687
0.00210375
0.000413996
0.000730446
0.00226373
0.000320051
0.000438815
0.000510872
0.00229751
0.000538758
0.000425081
0.000642237
0.000606578
0.00211614
0.000458865
0.000626408
0.00050922
0.000773507
0.000601242
0.00225205
0.000645224
0.000520251
0.000551874
0.000610632
0.000530675
0.00061142
0.00241593
0.000530926
0.000721116
0.000718293
0.000445882
0.000434034
0.000517238
0.000701909
0.00244122
0.000593447
0.000477002
0.000476189
0.00057654
0.000386333
0.000584398
0.000702316
0.000646084
0.00245052
0.000590488
0.000494896
0.000604181
0.000606557
0.000515752
0.000576973
0.000434115
0.000652403
0.000780445
0.00211338
0.000431292
0.000372194
0.000506804
0.000407289
0.000735573
0.000679861
0.000737022
0.000925817
0.00130457
0.00104358
0.00328465
0.00049829
0.000464068
0.000500357
0.000516996
0.000717434
0.00069524
0.000385465
0.000622734
0.0011563
0.00176137
0.0022559
0.00339957
0.00081777
0.000493112
0.000841224
0.000252097
0.000192653
0.000629963
0.00079282
0.0011385
0.00131638
0.000586006
0.000810491
0.00162193
0.00369629
0.000281793
0.000506365
0.000613547
0.000401798
0.000346348
0.000131509
0.000443248
0.000900399
0.0007445
0.000642671
0.000664145
0.000674852
0.00140105
0.00340651
0.000945292
0.000368287
0.000362003
0.000426278
0.000990432
0.000794758
0.000649686
0.000504048
0.000579785
0.000493486
0.000552871
0.000632551
0.000742276
0.000847331
0.00188435
0.000585919
0.000283439
8.16865e-05
0.000370984
0.000226816
0.000252649
0.000357746
0.000277305
0.000240384
0.000290261
0.000306345
0.000489314
0.0004336
0.000434715
0.000547051
0.000804275
0.00017594
0.000219724
0.000160169
8.36306e-05
0.0001502
0.000147901
0.000157583
0.000206776
0.000242924
0.000337479
0.000151984
5.64233e-05
0.000194774
0.000192017
0.000173812
0.000270493
0.000497733
0.00225957
0.000506157
0.00199023
0.000300658
0.000514633
0.0021949
0.000757713
0.000268404
0.000619091
0.00229908
0.000389159
0.000447012
0.000187246
0.000529644
0.00227054
0.000387948
0.000475226
0.00051733
0.00048256
0.000535642
0.00203644
0.000418829
0.000339525
0.000663137
0.000535285
0.000567407
0.000375013
0.00223572
0.000403796
0.000448449
0.000347155
0.000507571
0.0004377
0.000409964
0.000389655
0.00240344
0.000541048
0.000436172
0.000530033
0.000573144
0.000543197
0.000365739
0.000285344
0.000313964
0.00239624
0.000506434
0.000354929
0.000493201
0.000743142
0.000763893
0.000744416
0.000596495
0.000546051
0.000501189
0.00236765
0.000269703
0.000500678
0.000578569
0.00067791
0.00106
0.00080327
0.000816836
0.000864389
0.000676475
0.000815101
0.00196991
0.000283776
0.000429781
0.000507741
0.000702706
0.000535729
0.000668943
0.000724591
0.00077409
0.000973108
0.00114211
0.00118018
0.00315394
0.000939296
0.000669799
0.000794129
0.000819816
0.00102087
0.00108499
0.00103021
0.000278845
0.000561486
0.00113513
0.00133876
0.00163486
0.00354622
0.000683943
0.000979854
0.000986086
0.000772703
0.000667712
0.000409267
0.000520357
0.000863604
0.000541675
0.000869069
0.00083911
0.000928097
0.00194029
0.00354938
0.000502904
0.000394799
0.000766515
0.000352504
0.000515695
0.000579273
0.000565835
0.000608667
0.000699455
0.000517517
0.000453686
0.000800185
0.000832051
0.000985334
0.00316241
0.000931286
0.000554066
0.000667516
0.000533917
0.000335838
0.000581755
0.000262096
0.000530311
0.00063553
0.000563363
0.000551714
0.000476298
0.000758129
0.000713738
0.000839964
0.00185301
0.000511302
0.000516613
0.000279948
0.000133763
0.000292056
0.000382061
0.000301077
0.000377494
0.000314329
0.000242222
0.000318576
0.000289297
0.000492372
0.000470866
0.000468508
0.000493805
0.000760902
0.000637379
0.000212682
0.000184239
0.000106575
7.40231e-05
0.000106786
0.000212686
0.000154267
0.000193856
0.000230525
0.000334578
0.000124929
4.48156e-05
0.000200246
0.000199685
0.000345064
0.000253326
0.000451692
0.00217107
0.000374541
0.00211007
0.000352059
0.000606362
0.00205696
0.000394553
0.000338872
0.000698674
0.00224977
0.000475619
0.000680081
0.000718553
0.000365436
0.00234162
0.000539669
0.000507815
0.000433628
0.000384837
0.000533054
0.00213475
0.000445072
0.000485791
0.000461231
0.000396529
0.000595237
0.00047012
0.00194055
0.000433725
0.00042222
0.000613875
0.000319107
0.000441311
0.000588189
0.000621835
0.00208405
0.000372601
0.000558549
0.000398501
0.000524829
0.00034428
0.000434084
0.000297729
0.00061398
0.00236458
0.000390597
0.000505101
0.000695252
0.000626483
0.000472912
0.000567822
0.000444769
0.000429848
0.000635626
0.00238187
0.00048267
0.000400728
0.00052269
0.000575309
0.000644485
0.000727335
0.000655325
0.000528368
0.000708489
0.000974025
0.00237201
0.000322104
0.000667173
0.000587651
0.000525672
0.000516408
0.000581157
0.00089814
0.000736883
0.00078674
0.00097946
0.000665408
0.00214889
0.00088761
0.00042703
0.000372118
0.000400611
0.000596615
0.000478679
0.000308705
0.00100024
0.000814606
0.000737831
0.00104502
0.00141428
0.00331171
0.000565637
0.000340915
0.000930335
0.00111277
0.000812048
0.000818821
0.000654304
0.000732669
0.000884415
0.000776487
0.00108405
0.00132417
0.00203495
0.00375292
0.000443581
0.000442865
0.00116783
0.00127859
0.00087546
0.00058881
0.000309132
0.000584792
0.000841835
0.000805701
0.00117212
0.00169381
0.00146099
0.00186375
0.00288074
0.000691182
0.00104211
0.000406904
0.000555347
0.000431901
0.000346645
0.000476665
0.000556825
0.000444189
0.000818958
0.000493639
0.000321173
0.000589057
0.000775903
0.000661673
0.00310219
0.000703733
0.000598701
0.000447434
0.000515859
0.000502879
0.000366849
0.000432238
0.000782824
0.000277937
0.000541478
0.00055429
0.000604603
0.000678473
0.000553141
0.000591533
0.000836044
0.00179212
0.000443311
0.000518837
0.000302615
0.000200732
0.000152802
0.000356584
0.000240217
0.000203784
0.000304768
0.000344622
0.000227236
0.000265278
0.000287733
0.000511298
0.000542618
0.000474568
0.000414539
0.000731994
0.00035701
0.000213515
0.000180993
0.000232397
0.000104811
7.0693e-05
0.000107457
0.00021342
0.000160135
0.000198801
0.000218972
0.000305663
0.000125935
9.98964e-05
0.000207343
0.000204842
0.000311272
0.000296844
0.000277788
0.00208438
0.000449672
0.00215093
0.000364807
0.000500396
0.00205848
0.00053807
0.000392989
0.000434587
0.00213693
0.000606869
0.000298517
0.000480192
0.000593759
0.00222844
0.000346517
0.000372856
0.00048814
0.000571202
0.000404033
0.00222581
0.000337601
0.000469041
0.000360239
0.000220132
0.000411264
0.000701567
0.00209206
0.000406302
0.000394144
0.000482331
0.000318854
0.000479853
0.000540639
0.000538337
0.00199316
0.00026963
0.000612212
0.000528722
0.00053597
0.000394478
0.000506737
0.000447743
0.000426587
0.00222637
0.000411344
0.000352503
0.000656022
0.00042254
0.000416191
0.000546747
0.000445534
0.000360594
0.000538701
0.00257398
0.000483313
0.000441206
0.000414059
0.000708232
0.000521961
0.000387231
0.000448987
0.000499834
0.000583551
0.000614664
0.00244193
0.000351594
0.000538112
0.000360275
0.000529817
0.000746026
0.000640526
0.000485782
0.000321192
0.000596037
0.00090778
0.000525805
0.00242746
0.000588244
0.000385491
0.000205411
0.000364383
0.000486404
0.000594313
0.000834025
0.000728025
0.00071298
0.000743531
0.000304941
0.00063949
0.00219399
0.000922458
0.000477724
0.000568642
0.000130877
0.000444178
0.000412594
0.000406601
0.000867537
0.000843404
0.000826289
0.000568272
0.000792286
0.00131564
0.0031338
0.00106982
0.00104182
0.000867589
0.00065871
0.000899171
0.000685578
0.00048344
0.000488898
0.0013015
0.00143008
0.00160259
0.00108789
0.00117859
0.00182651
0.00335907
0.000988568
0.00045942
0.000605968
0.00112059
0.000743717
0.000616602
0.000483398
0.00019014
0.000454399
0.00105931
0.000862045
0.002273
0.00213756
0.00191289
0.0017477
0.00256827
0.000554203
0.000483609
0.000389346
0.000309149
0.000759084
0.000709329
0.000458994
0.00102627
0.000260827
0.000682948
0.000466813
0.00048348
0.00024702
0.00029712
0.000625414
0.000678141
0.00278044
0.000838064
0.00051885
0.000203401
0.000511664
0.000427334
0.00048843
0.000364439
0.000611888
0.000512556
0.000383863
0.000446854
0.000646275
0.000600452
0.000692005
0.000711217
0.000480431
0.000798656
0.0020456
0.000597018
0.000474997
0.000500132
0.000258336
0.000208081
0.000200203
0.000383154
0.000306053
0.000246563
0.000331856
0.000339415
0.000496296
0.000415105
0.000306812
0.000493614
0.000623245
0.00059281
0.00032336
0.000595789
0.000318555
9.41916e-05
0.000416354
0.000170877
0.000265497
9.76212e-05
6.02875e-05
0.00016079
0.000105956
0.000165338
0.000194825
0.000205506
0.000265488
8.39126e-05
5.67745e-05
0.000210993
0.000211706
0.000197831
0.000325168
0.000599173
0.00210548
0.000368556
0.0019833
0.000313084
0.000255619
0.00215873
0.00036327
0.000211591
0.000568648
0.00210454
0.000369642
0.000411552
0.000477644
0.000257113
0.00209052
0.000354665
0.000441349
0.000322198
0.000436026
0.00030295
0.00226984
0.000374143
0.000289983
0.000283233
0.000492403
0.000301299
0.000459332
0.00221632
0.000324035
0.000364278
0.000281304
0.00027981
0.000319354
0.000362885
0.000663584
0.0020568
0.000354513
0.000418616
0.000553627
0.000327599
0.000573422
0.000523318
0.000412074
0.000546911
0.00199833
0.00032851
0.000436115
0.000575165
0.000648665
0.000281632
0.00065427
0.00051627
0.000613356
0.000560549
0.0022111
0.000572854
0.000445249
0.000593411
0.00059153
0.000399078
0.000518792
0.000435965
0.000250888
0.000391058
0.000590801
0.00252342
0.000365886
0.000340135
0.000527354
0.000465355
0.000553256
0.000641783
0.000630906
0.00049684
0.000261349
0.000560246
0.000349114
0.00243267
0.000604072
0.000507703
0.000241785
0.000329501
0.000553518
0.000697117
0.00066953
0.000618004
0.000517829
0.000690044
0.000779191
0.000619567
0.0021847
0.000424332
0.000417698
0.00050951
0.000424362
0.00042755
0.000448184
0.000823989
0.000655384
0.000781306
0.000828614
0.000690473
0.000509363
0.000605999
0.00209555
0.000733367
0.00085036
0.000848588
0.000575293
0.000823034
0.000827819
0.000368034
0.000541748
0.000400779
0.000665154
0.000987811
0.00071161
0.00106228
0.00126496
0.00291298
0.00100055
0.00150349
0.000564527
0.000811733
0.00120605
0.000665009
0.000854338
0.000536767
0.000390588
0.00053599
0.00145523
0.00197011
0.000964069
0.00108556
0.00103401
0.00287247
0.000987602
0.000688138
0.000406259
0.000745536
0.000546102
0.000605599
0.000929966
0.000278093
0.000171187
0.000420889
0.000587222
0.000631759
0.00162082
0.00151819
0.00203403
0.0017084
0.00262618
0.00188903
0.000703744
0.000311697
0.00114086
0.000531178
0.000322476
0.00038257
0.000249111
0.000430689
0.000241201
0.000806888
0.000422702
0.000529624
0.000381942
0.000173368
0.000601889
0.000708882
0.00260977
0.000515424
0.000678291
0.000489548
0.000256981
0.000161993
0.000223512
0.000354104
0.000332306
0.000543057
0.000510874
0.000469262
0.000405361
0.000527534
0.000668343
0.000898713
0.000790681
0.000491472
0.00058474
0.00211356
0.000256109
0.000474714
0.000411971
0.000495001
0.000338086
0.000205138
0.000244235
0.000347989
0.000255457
0.000190805
0.00035699
0.000363998
0.000480773
0.000255628
0.000337445
0.00045402
0.00068645
0.000829227
0.000346222
0.000568532
0.000188936
0.000142735
0.000119663
0.000138799
0.000187887
0.000171537
8.61315e-05
0.000104102
0.00010652
0.000110654
0.00017835
0.000192246
0.000243308
0.00022669
7.80787e-05
6.41291e-05
0.000244163
0.000197541
0.000215758
0.000319048
0.00027997
0.00214819
0.000363394
0.00194019
0.000356846
0.000448424
0.00199003
0.000308103
0.00041885
0.000369355
0.00207869
0.000237907
0.000349074
0.000277924
0.000441919
0.00213191
0.000307451
0.000399833
0.000337201
0.00035485
0.000343589
0.00193775
0.000402621
0.00039099
0.000412341
0.000398186
0.000343214
0.000407955
0.00229742
0.000520373
0.000458342
0.000411399
0.000162429
0.000424768
0.000333267
0.000542933
0.0022136
0.000485632
0.000411533
0.000493652
0.000407642
0.000313208
0.000331672
0.000592416
0.000433305
0.00194109
0.000454078
0.000410328
0.000362335
0.000394944
0.000416879
0.000571706
0.000470682
0.000669408
0.000794154
0.00210423
0.000344131
0.000470663
0.000387221
0.000555196
0.00054075
0.000445988
0.000450956
0.000436972
0.000588523
0.000919203
0.0023687
0.000361478
0.000394207
0.000429448
0.000570393
0.000409317
0.000838023
0.000667587
0.000387788
0.000381079
0.000334741
0.000619733
0.0026221
0.000496089
0.00037997
0.00042732
0.000456159
0.000668902
0.000446092
0.000674953
0.000641363
0.000644507
0.000416884
0.000388458
0.000558058
0.00245505
0.000633721
0.00051596
0.000536886
0.000905509
0.000660119
0.000614495
0.000554034
0.00032356
0.000582052
0.000722421
0.000708573
0.000826548
0.000520119
0.00233856
0.000733135
0.000565481
0.000597217
0.000544585
0.00110056
0.000792984
0.00070045
0.000642553
0.000630592
0.000834712
0.000675349
0.000620471
0.00102823
0.000756272
0.00216762
0.000871798
0.000804397
0.000820635
0.000805842
0.000517851
0.000729193
0.000838234
0.000414741
0.000606526
0.000425257
0.000949747
0.000679395
0.00088331
0.00109117
0.00123218
0.00287239
0.00113538
0.00121216
0.00129075
0.00181035
0.000799109
0.00102101
0.0011262
0.000678197
0.000568547
0.000418718
0.00132474
0.00109855
0.0008384
0.000792585
0.00165503
0.00160332
0.00268993
0.000319027
0.000831547
0.000467207
0.000453983
0.000741421
0.000849863
0.000291469
0.000459341
0.000408452
0.000562897
0.000211329
0.000487571
0.000656832
0.000462196
0.000803661
0.00178032
0.00149139
0.00246793
0.00087053
0.000819498
0.000347368
0.000333385
0.000455297
0.000871445
0.000641425
0.000432072
0.000523187
0.000140694
0.000324715
0.000423593
0.000544185
0.000608059
0.000433844
0.00151473
0.000647729
0.000837365
0.00291917
0.000546966
0.000561395
0.000604386
0.000567678
0.000286432
0.000239087
0.00032394
0.00022926
0.000351434
0.00035803
0.000558839
0.000393337
0.000438846
0.000547131
0.000579819
0.000979557
0.000773825
0.000743891
0.000563593
0.00166845
0.000209682
0.000344732
0.000387003
0.000374054
0.000478056
0.000350627
0.000143915
0.000233598
0.000331548
0.000209038
0.000279985
0.000371702
0.000444371
0.00036676
0.000365059
0.000354262
0.000429621
0.000717413
0.00095138
0.000308566
0.000636936
0.000124675
0.000145588
1.28638e-05
0.000165744
0.00017188
0.000181966
0.000140935
7.26338e-05
8.77014e-05
0.000139278
0.000135048
0.000200744
0.000200161
0.00029352
0.00024613
0.000174832
0.000131738
0.000244776
0.000185669
0.00027931
0.000292369
0.000260463
0.00211143
0.000461161
0.00198504
0.000292162
0.000347445
0.00195836
0.000536843
0.000453963
0.000368128
0.00208416
0.000368763
0.000338295
0.00036469
0.000379932
0.00208804
0.000584466
0.000395954
0.000295329
0.000326617
0.000412064
0.00212202
0.000330256
0.00026769
0.000290395
0.000305469
0.000337267
0.000314887
0.00202635
0.00042841
0.000439656
0.000485833
0.00035593
0.000310936
0.000365181
0.000271014
0.00234037
0.000505822
0.000507708
0.000454105
0.000486229
0.000338102
0.000332154
0.000372467
0.000629379
0.00215768
0.000550925
0.000409368
0.000306129
0.000317826
0.000400722
0.00028955
0.000299177
0.000484071
0.000514113
0.00198218
0.000406579
0.00040322
0.000370073
0.000367768
0.00036823
0.000387445
0.000357016
0.000455425
0.000416788
0.000658383
0.00231856
0.000424846
0.000330451
0.000369551
0.000288718
0.000554879
0.000618428
0.000349121
0.0004784
0.000558597
0.000555312
0.000780648
0.00247636
0.000243547
0.000414312
0.000510948
0.000421713
0.000476346
0.000473922
0.000722342
0.000361019
0.000432969
0.000660814
0.000496808
0.000497535
0.00267429
0.000610604
0.000434307
0.000328209
0.000645803
0.000477876
0.000571938
0.000582562
0.000453964
0.000530381
0.000466915
0.00065901
0.000546618
0.000427624
0.00238772
0.000722744
0.000901274
0.000454588
0.0005533
0.000350237
0.000641273
0.000637609
0.000473681
0.000576038
0.000582427
0.000614281
0.000604971
0.00063247
0.000684533
0.00229657
0.000768601
0.000738697
0.000602517
0.000662015
0.000913061
0.000397572
0.000767317
0.000865759
0.000781761
0.000847846
0.000625224
0.000650773
0.000697906
0.000643385
0.00100041
0.00213492
0.00101061
0.000872239
0.00122586
0.000460293
0.000599564
0.000574424
0.000564115
0.00065854
0.000524466
0.000403776
0.000656154
0.000597564
0.000454172
0.000618755
0.00116111
0.00130877
0.00268394
0.000874317
0.00102313
0.0016148
0.000822862
0.00154731
0.00107412
0.000785888
0.000735825
0.000759403
0.000346407
0.000620476
0.000534522
0.000443491
0.00104892
0.000910715
0.00124405
0.00138028
0.0023237
0.000179798
0.000508701
0.000446322
0.000374529
0.00070753
0.000596339
0.000990207
0.000473083
0.000967763
0.000239813
0.000374877
0.000400996
0.000434559
0.000396482
0.000402245
0.000671909
0.00151499
0.00123572
0.00244402
0.000740755
0.000924308
0.000533866
0.000346478
0.000318332
0.0004974
0.00040599
0.000442341
0.000344807
0.00023524
0.000368904
0.00037496
0.000394152
0.000427386
0.000899345
0.000736893
0.000693344
0.000398264
0.00104084
0.00310516
0.000434908
0.000542931
0.000635672
0.000615267
0.000522558
0.000251876
0.000236318
0.000291514
0.000361892
0.000267466
0.000875401
0.000627375
0.00036574
0.000648593
0.000511696
0.000542573
0.000974352
0.000990719
0.00151465
0.000758032
0.00134707
0.000437699
0.000228602
0.000233241
0.000336193
0.000515029
0.000452107
0.000253052
0.000238307
0.000213406
0.000408963
0.000361938
0.000235944
0.000336117
0.000416233
0.000652112
0.000322516
0.000236583
0.000414897
0.000746897
0.000619132
0.000470594
0.00071795
0.000150753
0.00017968
0.000136753
0.000165796
0.00020787
0.000177119
0.000187675
0.000229572
8.93206e-05
0.000137353
0.000163968
0.000147146
0.000234307
0.000212761
0.000335236
0.00020401
0.000127809
0.00016937
0.000187899
0.00017594
0.000309553
0.000289402
0.000506991
0.00209188
0.000571657
0.00200386
0.000259849
0.00027021
0.00204806
0.000502643
0.000230336
0.00034427
0.00199023
0.000553482
0.000424341
0.000539314
0.000366072
0.00205376
0.00048984
0.000392734
0.000339688
0.000295848
0.000504549
0.00214745
0.000416387
0.000713606
0.000155761
0.000397266
0.000417203
0.000461911
0.00212346
0.000519556
0.000381416
0.000382036
0.000289641
0.000229516
0.00023103
0.000582468
0.0020427
0.000635585
0.00048283
0.000342789
0.000369336
0.000508751
0.000297186
0.000261845
0.000214761
0.00237556
0.000544762
0.000428709
0.000411089
0.000336068
0.00032826
0.000392222
0.000282736
0.000238949
0.000345945
0.00220637
0.000183941
0.000379118
0.000301838
0.00025952
0.000367916
0.00040393
0.000364646
0.000315484
0.000331709
0.000421035
0.00194255
0.000289804
0.000267659
0.00028953
0.000384302
0.000477613
0.000601533
0.000424635
0.000426006
0.000508504
0.000542775
0.000731776
0.0022526
0.000447876
0.000335311
0.000278234
0.000366345
0.000510886
0.000766411
0.000278428
0.000417763
0.000424786
0.000418543
0.000635542
0.00057032
0.00259849
0.000615825
0.000463168
0.000382776
0.000352208
0.000509139
0.00038328
0.000735726
0.00030588
0.0003554
0.000426945
0.000402432
0.00057382
0.000400289
0.00244275
0.000636472
0.000733793
0.000327425
0.000367106
0.000440565
0.000517511
0.000491448
0.000592317
0.000771424
0.000592658
0.000404825
0.000468605
0.000689182
0.000391852
0.00224506
0.000485256
0.000425195
0.000619768
0.000442636
0.000518215
0.000269035
0.000534634
0.000579696
0.000622127
0.000777649
0.000619979
0.00051818
0.000620896
0.000661385
0.000927755
0.00232813
0.000528387
0.000673855
0.00063036
0.000889978
0.000673991
0.000984197
0.000663534
0.000658554
0.000682412
0.000826767
0.000731471
0.000700669
0.000721416
0.000745498
0.000996126
0.00091061
0.00228332
0.000750804
0.00104046
0.00121729
0.00141505
0.00173449
0.00109608
0.000745633
0.000784498
0.000326405
0.000643094
0.000724894
0.000605216
0.000514115
0.00101286
0.000857167
0.00109833
0.00129454
0.00266638
0.000744653
0.000860154
0.000640266
0.00086249
0.00143992
0.000947379
0.00101549
0.00057368
0.00020132
0.000648373
0.000940978
0.000901438
0.000369784
0.000615322
0.00127341
0.00149968
0.000670297
0.00179749
0.00256374
0.000962001
0.000305688
0.000863958
0.000376849
0.000470124
0.000923537
0.000484275
0.000323216
0.000235957
0.000502037
0.000179653
0.000298803
0.000104243
0.000335397