/*--------------------------------*- C++ -*----------------------------------*\
  =========                 |
  \\      /  F ield         | OpenFOAM: The Open Source CFD Toolbox
   \\    /   O peration     | Website:  https://openfoam.org
    \\  /    A nd           | Version:  7
     \\/     M anipulation  |
\*---------------------------------------------------------------------------*/
FoamFile
{
    version     2.0;
    format      ascii;
    class       volScalarField;
    location    "2";
    object      p;
}
// * * * * * * * * * * * * * * * * * * * * * * * * * * * * * * * * * * * * * //

dimensions      [0 2 -2 0 0 0 0];

internalField   nonuniform List<scalar> 
18750
(
-71.2596
-71.3357
-71.3179
-71.3604
-73.6069
-71.378
-71.9382
-71.4819
-71.5766
-71.4939
-69.7585
-72.5769
-75.1757
-72.291
-71.6227
-72.4448
-71.7245
-71.6676
-71.7392
-71.6149
-62.85
-69.7336
-71.4569
-72.4018
-73.4373
-76.4933
-72.0401
-72.4883
-71.821
-72.8533
-71.6694
-71.7433
-71.9078
-71.7887
-71.7104
-59.1239
-65.3985
-63.7701
-71.0919
-71.0946
-72.949
-72.4434
-72.9933
-74.2553
-77.661
-72.2474
-72.1604
-72.6663
-72.039
-73.1105
-71.7888
-71.7144
-71.7526
-72.0778
-71.8293
-71.8178
-58.7961
-60.9526
-58.8456
-68.2069
-65.8141
-64.624
-71.2563
-72.2269
-72.6177
-74.3006
-72.448
-72.7506
-73.5181
-75.0659
-78.4035
-71.9376
-72.3251
-72.262
-72.8196
-72.2605
-73.2005
-71.6863
-71.8246
-71.7555
-71.7536
-72.1086
-71.8498
-71.9508
-57.5948
-59.7685
-58.7877
-61.8449
-61.0103
-58.9278
-67.9161
-69.213
-66.5089
-65.2653
-71.9473
-71.8723
-73.3197
-74.1816
-75.433
-71.1061
-72.4899
-73.0422
-73.9879
-75.9317
-78.8791
-71.6445
-71.9769
-72.3996
-72.3473
-72.9391
-72.4538
-73.2271
-71.5438
-71.7245
-71.8602
-71.7925
-71.7499
-72.0102
-71.8587
-71.9756
-56.8942
-58.0296
-57.7203
-60.0936
-59.4435
-58.8178
-63.0216
-62.0892
-60.8555
-59.0426
-68.4138
-68.1274
-69.1941
-67.4931
-66.0385
-71.0763
-72.1324
-72.5019
-74.411
-75.8119
-76.0863
-70.9584
-71.0523
-72.5607
-73.2913
-74.3774
-76.8296
-79.199
-71.4678
-71.6845
-72.03
-72.4543
-72.4214
-73.0294
-72.5862
-73.1428
-71.5249
-71.5751
-71.7601
-71.8961
-71.824
-71.7434
-71.99
-71.8528
-71.9328
-55.549
-56.7249
-56.7035
-58.0457
-57.9592
-57.6802
-60.7735
-60.089
-59.5727
-58.6191
-64.7108
-63.2806
-62.2554
-60.9524
-59.3222
-68.4127
-68.4485
-68.5507
-69.7908
-68.017
-66.2022
-70.3326
-71.1579
-72.5123
-73.0315
-75.3538
-77.7186
-76.0949
-70.4097
-70.9541
-71.025
-72.672
-73.4654
-74.6928
-77.5828
-79.1517
-71.5514
-71.5358
-71.7335
-72.0738
-72.5144
-72.4847
-73.0948
-72.6591
-72.9663
-71.5774
-71.5385
-71.6027
-71.7963
-71.9294
-71.8485
-71.7366
-72.0862
-71.8287
-71.9137
-54.745
-55.7207
-55.592
-56.829
-56.7752
-56.5576
-58.3792
-58.1976
-58.0797
-57.6275
-60.9354
-60.7932
-59.8218
-59.365
-58.3217
-64.6723
-64.8723
-63.025
-62.1959
-61.1208
-59.7533
-67.7172
-68.5796
-68.4054
-69.0612
-70.5792
-68.9941
-66.2783
-69.5241
-70.2884
-71.2667
-72.8871
-73.4635
-76.3741
-79.3756
-75.9062
-70.2422
-70.4801
-70.92
-71.0423
-72.7803
-73.5856
-74.916
-77.5622
-78.6263
-71.2435
-71.5946
-71.5835
-71.7881
-72.1171
-72.5706
-72.5353
-73.1235
-72.6923
-72.6896
-71.3857
-71.5797
-71.5539
-71.629
-71.8331
-71.9575
-71.8651
-71.7278
-72.0833
-71.8292
-71.8891
-54.2102
-54.7517
-54.7779
-55.8919
-55.8467
-55.6712
-57.2403
-56.8502
-56.7717
-56.5768
-58.8833
-58.4654
-58.1281
-57.9393
-57.5257
-61.0058
-60.9267
-60.5569
-59.6735
-58.9825
-58.118
-64.4568
-64.7195
-64.9885
-63.2371
-62.5336
-61.1545
-60.5833
-66.8013
-67.4642
-68.5072
-68.5839
-69.5731
-71.1334
-70.1785
-66.4331
-69.3238
-69.6075
-70.3247
-71.4353
-73.2047
-73.8043
-77.2014
-80.1608
-74.6545
-69.8828
-70.2206
-70.549
-70.854
-71.0569
-72.8745
-73.6824
-74.904
-77.4528
-77.738
-70.6879
-71.3015
-71.6192
-71.6752
-71.8438
-72.1815
-72.6229
-72.5595
-73.115
-72.6816
-72.3269
-70.8203
-71.394
-71.5832
-71.5703
-71.6472
-71.8693
-71.9823
-71.8743
-71.7154
-72.0218
-71.8276
-71.7988
-53.7366
-54.367
-54.1847
-54.8127
-54.7591
-54.842
-55.9509
-55.8525
-55.866
-55.9088
-57.1419
-57.1457
-56.7597
-56.7186
-56.5767
-58.6361
-58.755
-58.7409
-58.0409
-57.8897
-57.528
-61.4123
-60.9571
-61.0436
-59.9257
-59.4721
-58.5366
-57.9853
-64.317
-64.5363
-64.8223
-64.8969
-63.9786
-62.5103
-60.5697
-60.9599
-66.4803
-66.8049
-67.5634
-68.8674
-68.8072
-69.6919
-71.7855
-72.1604
-65.4219
-69.1502
-69.2298
-69.5833
-70.1561
-71.6878
-73.4903
-73.9092
-77.1325
-80.4655
-73.0377
-69.5897
-69.9137
-70.2201
-70.4956
-70.802
-71.0477
-72.8748
-73.6991
-74.8355
-77.186
-76.5331
-70.0865
-70.7554
-71.3356
-71.6638
-71.7483
-71.8985
-72.2361
-72.6664
-72.571
-73.0693
-72.6292
-71.8853
-70.0703
-70.8436
-71.4019
-71.5872
-71.5902
-71.6671
-71.9022
-72.009
-71.8776
-71.7016
-72.0001
-71.8136
-71.6886
-53.3156
-53.8559
-53.7325
-54.1343
-54.4894
-54.2244
-54.8335
-54.8517
-54.8665
-54.9016
-55.9275
-55.9157
-55.8342
-55.7934
-55.6894
-57.0701
-56.9849
-56.9632
-56.6782
-56.6851
-56.4168
-58.7517
-58.6633
-58.5907
-58.5807
-58.045
-57.8373
-57.7055
-61.7215
-61.4427
-60.9584
-61.0309
-59.7922
-59.2275
-58.1081
-57.7055
-64.0819
-64.2745
-64.3086
-64.9069
-64.987
-64.3745
-62.006
-60.684
-61.7638
-66.2462
-66.6941
-66.853
-67.7981
-69.2294
-69.0151
-70.1938
-72.2504
-72.9984
-64.7456
-69.0875
-69.0015
-69.13
-69.4793
-70.0623
-71.9031
-73.6423
-74.0073
-77.3546
-80.1287
-71.1936
-69.5318
-69.584
-69.9849
-70.2779
-70.5006
-70.7703
-71.0463
-72.788
-73.6825
-74.7416
-76.7438
-75.1566
-69.633
-70.1125
-70.8474
-71.3744
-71.6784
-71.7584
-71.9537
-72.301
-72.7084
-72.575
-72.9881
-72.5475
-71.4418
-70.026
-70.077
-70.8634
-71.4107
-71.595
-71.6038
-71.6905
-71.9314
-72.0366
-71.8777
-71.688
-71.969
-71.786
-71.6217
-53.0464
-53.1973
-53.3594
-53.8413
-53.7809
-53.7305
-54.2618
-54.0711
-54.389
-54.1497
-54.9092
-54.8046
-54.853
-54.9068
-54.8762
-55.8828
-55.8279
-55.848
-55.7609
-55.7603
-55.6105
-57.0981
-56.9947
-56.9145
-56.9565
-56.661
-56.697
-56.4297
-58.8951
-58.7703
-58.6383
-58.9388
-58.4914
-57.9787
-57.7553
-57.7067
-61.6339
-61.5194
-61.6826
-61.1505
-60.4839
-60.168
-58.7942
-57.7495
-57.5383
-64.1237
-64.0909
-64.1824
-64.4827
-65.0015
-65.2191
-64.0559
-62.3619
-61.2147
-62.4239
-66.4547
-66.2693
-66.7455
-66.8947
-67.9206
-69.4249
-69.1679
-70.621
-73.0238
-73.8602
-64.9447
-68.9121
-68.9798
-68.9423
-69.0436
-69.3759
-69.9839
-72.0262
-73.6101
-74.1717
-77.5832
-79.5169
-69.6795
-68.8892
-69.4168
-69.5747
-70.0469
-70.3572
-70.4474
-70.7645
-71.0115
-72.6307
-73.5903
-74.5404
-76.161
-73.7698
-69.4349
-69.6388
-70.1697
-70.9176
-71.3964
-71.7012
-71.8186
-72.0126
-72.3611
-72.7449
-72.5529
-72.8827
-72.4599
-71.0449
-70.1406
-70.0127
-70.0864
-70.8786
-71.4241
-71.6035
-71.607
-71.7126
-71.9579
-72.065
-71.8756
-71.675
-71.9062
-71.7368
-71.5467
-52.8151
-53.0762
-53.0494
-53.3473
-53.2947
-53.3183
-53.7648
-53.8161
-53.7906
-53.7482
-54.2612
-54.2684
-54.1634
-54.2769
-54.1906
-54.9207
-54.8087
-54.88
-54.9326
-54.9584
-55.0173
-55.9054
-55.9155
-55.8585
-55.8149
-55.8097
-55.7869
-55.8209
-57.3711
-57.2521
-56.9732
-56.9654
-56.8445
-56.5148
-56.3895
-56.3392
-59.0613
-58.89
-58.7758
-58.6167
-58.8131
-58.5375
-57.9275
-57.5819
-57.6421
-61.5252
-61.4884
-61.4513
-61.6882
-61.1232
-60.6292
-60.0222
-58.5035
-57.9346
-57.7279
-64.2264
-64.0976
-64.041
-64.2252
-64.5092
-65.0359
-65.166
-64.2263
-62.3207
-61.5847
-63.1716
-66.4058
-66.4462
-66.312
-66.7908
-66.9624
-68.0154
-69.5282
-69.1365
-70.8013
-73.0199
-74.2561
-66.2211
-68.4614
-68.8293
-68.8146
-68.7942
-69.0665
-69.326
-70.087
-72.0448
-73.6167
-74.209
-76.9521
-78.8599
-69.2182
-68.3893
-68.7727
-69.3499
-69.578
-70.0047
-70.4136
-70.6081
-70.7201
-70.9691
-72.4574
-73.4301
-74.2438
-75.4831
-72.4999
-69.2726
-69.4177
-69.6427
-70.2285
-71.0061
-71.465
-71.7068
-71.86
-72.0694
-72.3977
-72.7796
-72.4886
-72.7619
-72.3465
-70.6761
-70.0682
-70.1256
-70.004
-70.1007
-70.8842
-71.4371
-71.608
-71.6091
-71.734
-71.984
-72.0937
-71.8721
-71.6605
-71.8493
-71.6763
-71.4769
-52.5494
-52.7166
-52.782
-53.0639
-53.0703
-53.0778
-53.3891
-53.3758
-53.398
-53.4041
-53.8126
-53.8015
-53.7697
-53.8032
-53.7905
-54.3054
-54.2334
-54.2974
-54.1645
-54.2367
-54.1651
-55.0586
-54.9416
-54.9149
-54.8955
-54.9275
-54.9393
-54.9589
-56.1505
-56.0224
-55.9137
-55.9061
-55.8665
-55.7586
-55.5659
-55.6996
-57.6112
-57.4674
-57.2935
-57.058
-57.0866
-56.8224
-56.475
-56.2548
-56.2617
-59.3581
-59.1457
-58.926
-58.7565
-58.7261
-58.7156
-58.7239
-57.9861
-57.7295
-57.7119
-61.5547
-61.5496
-61.3566
-61.2659
-61.5173
-60.9449
-60.7367
-59.8489
-58.4322
-58.3676
-57.3456
-64.4844
-64.2699
-64.0263
-64.4466
-64.0511
-64.8191
-64.8049
-64.7984
-64.4602
-62.3526
-61.3081
-63.3912
-66.6048
-66.3068
-66.3884
-66.4946
-66.851
-67.1341
-68.0175
-69.3106
-69.3098
-71.302
-71.6295
-74.4199
-67.989
-67.5859
-68.2709
-68.7272
-68.7362
-68.7575
-69.083
-69.2611
-70.0033
-71.7092
-73.5112
-74.2435
-76.2571
-77.5018
-68.9444
-68.2332
-68.4
-68.7344
-69.2704
-69.6193
-69.9761
-70.5053
-70.7045
-70.7201
-70.9181
-72.1688
-73.1941
-73.8986
-74.5554
-71.5288
-69.0668
-69.2153
-69.3954
-69.6459
-70.2653
-71.0876
-71.512
-71.7311
-71.9178
-72.131
-72.4576
-72.8156
-72.3874
-72.6182
-72.2215
-70.3597
-70.0326
-70.0449
-70.115
-69.9985
-70.1106
-70.9014
-71.4493
-71.6103
-71.6082
-71.7537
-72.01
-72.1243
-71.8678
-71.6402
-71.7706
-71.6029
-71.4254
-52.4162
-52.5622
-52.4605
-52.7559
-52.7691
-52.7767
-52.9888
-53.1057
-53.068
-53.0881
-53.3955
-53.3685
-53.3746
-53.4194
-53.4176
-53.833
-53.7815
-53.7405
-53.7834
-53.8522
-53.8027
-54.4001
-54.3714
-54.2324
-54.301
-54.1751
-54.2119
-54.1673
-55.2844
-55.1078
-54.939
-55.0009
-54.9714
-54.9411
-54.8665
-54.9514
-56.2967
-56.1857
-56.0459
-55.9232
-55.882
-55.9733
-55.7466
-55.7871
-55.6055
-57.7733
-57.5975
-57.428
-57.222
-57.0795
-57.0335
-56.8251
-56.6217
-56.4286
-56.246
-59.5018
-59.402
-59.1527
-58.8712
-58.7033
-58.809
-58.719
-58.7015
-58.0276
-57.7098
-57.701
-61.6531
-61.6342
-61.471
-61.2375
-61.4986
-61.2544
-61.0366
-60.9996
-60.0818
-58.6928
-58.6815
-56.7621
-64.2648
-64.3601
-64.2026
-63.8895
-64.3382
-63.7561
-64.6635
-64.8028
-64.4759
-64.5061
-63.4234
-61.5719
-63.2698
-66.992
-66.5257
-66.21
-66.264
-66.4706
-66.9297
-67.3425
-68.0362
-69.0223
-69.2672
-71.4637
-70.4268
-73.7639
-68.3395
-67.1221
-67.398
-68.0306
-68.5675
-68.4641
-68.6088
-69.1557
-69.3682
-69.9673
-71.3828
-73.313
-73.8495
-75.3799
-75.4756
-69.5182
-68.3809
-68.1712
-68.3718
-68.6687
-69.2571
-69.7666
-70.0681
-70.4908
-70.5651
-70.7542
-70.855
-71.8836
-72.8066
-73.4431
-73.5788
-70.7379
-68.6016
-68.9817
-69.165
-69.3762
-69.6556
-70.2826
-71.1229
-71.4952
-71.7523
-71.9931
-72.1905
-72.5219
-72.8555
-72.2657
-72.4529
-72.1015
-70.0492
-70.6787
-70.0292
-70.0271
-70.1111
-69.9948
-70.1217
-70.9204
-71.4641
-71.6147
-71.6057
-71.772
-72.0349
-72.1511
-71.8619
-71.6202
-71.6369
-71.5155
-71.3478
-52.2649
-52.3827
-52.4113
-52.569
-52.5023
-52.4452
-52.72
-52.7856
-52.6945
-52.8154
-52.9916
-53.0253
-53.0659
-53.0673
-53.0904
-53.45
-53.3559
-53.3522
-53.3789
-53.4471
-53.4038
-53.9182
-53.8256
-53.7742
-53.7819
-53.8124
-53.8454
-53.7921
-54.5757
-54.3696
-54.337
-54.3287
-54.3077
-54.1933
-54.0488
-54.2601
-55.3944
-55.243
-55.1135
-54.9924
-55.0191
-54.9922
-54.9557
-54.9359
-54.9529
-56.4906
-56.3602
-56.1555
-56.0269
-55.8725
-55.9087
-55.9017
-55.8192
-55.7835
-55.5141
-57.924
-57.8081
-57.6522
-57.4627
-57.3686
-57.1417
-56.9278
-56.7127
-56.5618
-56.3777
-56.2384
-59.6924
-59.5073
-59.3309
-59.0553
-58.7765
-58.8633
-58.7922
-58.6969
-58.6341
-58.1642
-57.7476
-57.4762
-61.6102
-61.5659
-61.4484
-61.4768
-61.3602
-61.4568
-61.3551
-60.9614
-60.8786
-60.3442
-59.2848
-59.0426
-56.0413
-64.7215
-64.4096
-64.2152
-64.0441
-64.2719
-63.9268
-64.1429
-64.1585
-64.9253
-64.4019
-64.1659
-63.5432
-61.2846
-63.0679
-66.3727
-66.9357
-66.513
-66.0547
-66.1267
-66.5133
-66.9513
-67.3736
-67.9413
-68.4705
-69.2723
-70.9262
-69.5519
-72.7094
-68.0708
-66.6428
-67.0654
-67.2695
-67.8153
-68.4457
-68.4287
-68.531
-69.1818
-69.3448
-69.8406
-71.0489
-73.0273
-73.2655
-74.3611
-74.1274
-69.5246
-67.9779
-68.2674
-68.1158
-68.3048
-68.5705
-69.1679
-69.7456
-70.1669
-70.5449
-70.5836
-70.7801
-70.7853
-71.5751
-72.4604
-72.9464
-72.7068
-69.9148
-68.3712
-68.5405
-68.897
-69.115
-69.3585
-69.6682
-70.3415
-71.1606
-71.5259
-71.7609
-72.069
-72.2465
-72.5775
-72.9011
-72.1189
-72.2556
-71.9875
-69.7949
-71.2534
-70.6526
-70.0343
-70.0098
-70.1028
-69.9974
-70.1352
-70.9322
-71.4781
-71.6202
-71.6023
-71.7885
-72.0628
-72.1769
-71.8563
-71.5898
-71.5781
-71.4125
-71.2659
-52.0643
-52.2236
-52.2634
-52.3992
-52.3659
-52.4249
-52.6343
-52.5777
-52.4652
-52.4989
-52.7889
-52.7625
-52.7414
-52.7437
-52.803
-53.0791
-53.0138
-53.1193
-53.0272
-53.1094
-53.0977
-53.5224
-53.4377
-53.4216
-53.3877
-53.397
-53.4237
-53.4129
-54.0216
-53.8832
-53.7635
-53.8304
-53.841
-53.766
-53.7721
-53.7667
-54.7414
-54.4701
-54.397
-54.2968
-54.3336
-54.289
-54.1847
-54.1954
-54.1796
-55.6132
-55.409
-55.1169
-55.0347
-55.0543
-54.9616
-54.9675
-54.9561
-54.9256
-54.9065
-56.6111
-56.5281
-56.3029
-56.096
-56.0732
-55.9143
-55.8335
-55.8542
-55.7347
-55.6863
-55.4503
-58.1317
-57.7423
-57.8326
-57.661
-57.4574
-57.3505
-57.046
-56.8894
-56.7906
-56.563
-56.4839
-56.1246
-59.6856
-59.6466
-59.5858
-59.3548
-59.0928
-59.0413
-58.8978
-58.8192
-58.6585
-58.5881
-58.2236
-57.7521
-57.3301
-61.5659
-61.5669
-61.6403
-61.6199
-61.4932
-61.5194
-61.2255
-61.2587
-61.0007
-60.7645
-60.2867
-59.4894
-59.077
-55.5911
-64.1145
-64.6375
-64.584
-64.2115
-64.191
-64.3106
-64.041
-64.2019
-63.9706
-64.7513
-64.2777
-63.9802
-63.6789
-61.0591
-62.9675
-65.9508
-66.2226
-66.6745
-66.5779
-65.961
-66.002
-66.4976
-66.9749
-67.3024
-67.7666
-68.0856
-68.9632
-69.9712
-68.787
-71.7489
-67.6785
-66.7663
-66.5763
-66.9993
-67.0574
-67.5861
-68.2231
-68.3802
-68.6808
-69.0996
-69.2385
-69.6949
-70.6518
-72.2861
-72.5617
-73.2349
-72.877
-68.5086
-67.8386
-67.7844
-68.1749
-68.0819
-68.2614
-68.4663
-69.0613
-69.7229
-69.9928
-70.5627
-70.7773
-70.7831
-70.7298
-71.2831
-72.1
-72.4086
-71.9557
-69.214
-68.6817
-68.3237
-68.4839
-68.8284
-69.0781
-69.3501
-69.6716
-70.4031
-71.1939
-71.5702
-71.777
-72.1275
-72.3125
-72.6365
-72.9559
-71.9521
-71.9527
-71.8754
-69.6732
-71.1215
-71.2576
-70.644
-70.0397
-69.993
-70.0877
-70.0021
-70.1412
-70.9445
-71.4944
-71.6262
-71.5993
-71.8
-72.103
-72.2134
-71.8627
-71.5555
-71.5941
-71.2846
-71.1967
-51.9628
-52.0868
-52.0374
-52.2747
-52.2485
-52.2552
-52.3778
-52.4157
-52.386
-52.4172
-52.6078
-52.61
-52.5355
-52.5636
-52.5045
-52.8747
-52.8203
-52.7482
-52.8091
-52.8101
-52.8237
-53.1858
-53.1481
-53.1218
-53.0449
-53.0788
-53.0962
-53.1509
-53.602
-53.5259
-53.4509
-53.4684
-53.388
-53.4072
-53.3954
-53.3802
-54.1754
-53.9616
-53.7721
-53.8647
-53.8176
-53.7926
-53.7587
-53.8551
-53.7129
-54.8927
-54.7035
-54.4725
-54.3864
-54.3915
-54.251
-54.2584
-54.2097
-54.1422
-54.2281
-55.7515
-55.5533
-55.3694
-55.1302
-55.089
-55.0573
-54.9828
-55.0001
-54.9395
-54.8924
-54.9814
-56.8705
-56.625
-56.5493
-56.2844
-56.1378
-56.0394
-55.8808
-55.8641
-55.8698
-55.7094
-55.7689
-55.3934
-58.268
-58.0575
-58.0667
-57.7029
-57.5183
-57.3883
-57.2019
-56.9701
-56.9585
-56.8116
-56.6635
-56.4836
-56.1733
-59.8307
-59.6908
-59.7027
-59.6032
-59.3438
-59.1954
-59.008
-58.8575
-58.7292
-58.465
-58.4489
-58.1701
-57.8128
-57.3848
-61.6048
-61.5753
-61.5711
-61.6419
-61.3918
-61.5038
-61.4324
-61.193
-61.1498
-60.9635
-60.6894
-60.2546
-59.3244
-59.0121
-56.2449
-63.7789
-64.1648
-64.7274
-64.6672
-64.2787
-64.1534
-64.319
-64.1183
-64.1321
-64.2085
-64.4309
-63.9024
-63.6784
-63.4454
-61.1299
-62.5741
-65.2383
-65.8468
-66.1394
-66.4627
-66.5249
-66.0199
-65.9542
-66.3023
-66.9732
-67.2771
-67.47
-67.7441
-68.5113
-68.7267
-68.6109
-70.232
-66.6767
-66.7556
-66.6715
-66.5935
-66.8941
-66.8564
-67.4346
-68.0631
-68.3379
-68.6368
-69.0059
-69.1649
-69.5594
-70.353
-71.6516
-71.9401
-72.5256
-71.3825
-67.8284
-67.3967
-67.7244
-67.6043
-68.0697
-68.053
-68.2195
-68.4047
-68.958
-69.7731
-70.0153
-70.5842
-70.8875
-70.8394
-70.6857
-70.9973
-71.6374
-71.7784
-71.3693
-68.5461
-68.8604
-68.7026
-68.2902
-68.4108
-68.7626
-69.0486
-69.3471
-69.6864
-70.4326
-71.2337
-71.6135
-71.7838
-72.1849
-72.4061
-72.7044
-73.0325
-71.7943
-71.5507
-71.757
-69.6153
-70.6128
-71.0956
-71.244
-70.5938
-70.0446
-69.977
-70.0679
-70.0008
-70.1504
-70.9667
-71.5122
-71.6351
-71.6012
-71.8055
-72.1344
-72.2549
-71.8608
-71.5314
-71.5696
-71.1925
-71.1718
-51.8427
-51.949
-51.9647
-52.124
-52.0683
-52.0381
-52.2508
-52.2575
-52.2284
-52.241
-52.4621
-52.3717
-52.4041
-52.4129
-52.4614
-52.68
-52.6097
-52.5741
-52.5531
-52.5549
-52.5725
-52.9277
-52.8619
-52.8027
-52.7495
-52.7843
-52.8245
-52.8215
-53.238
-53.1747
-53.1312
-53.1174
-53.0661
-53.0215
-53.1733
-53.1184
-53.689
-53.5984
-53.5048
-53.438
-53.4471
-53.3871
-53.3901
-53.43
-53.4051
-54.2855
-54.1601
-54.0469
-53.9257
-53.8813
-53.7965
-53.7707
-53.7095
-53.7001
-53.6664
-55.0227
-54.7951
-54.6062
-54.5062
-54.3955
-54.3263
-54.3385
-54.2813
-54.2435
-54.0746
-54.2358
-55.9307
-55.7367
-55.5033
-55.3252
-55.1371
-55.0716
-54.9493
-55.0204
-54.9799
-54.9725
-54.8619
-55.0424
-57.0492
-56.8734
-56.6792
-56.5255
-56.3126
-56.1192
-55.7396
-55.8308
-55.8268
-55.7757
-55.731
-55.7156
-55.3173
-58.4552
-58.2259
-58.085
-57.7433
-57.6933
-57.519
-57.3122
-57.1959
-56.9244
-56.9108
-56.832
-56.5959
-56.482
-56.0966
-60.0381
-59.844
-59.732
-59.7497
-59.553
-59.2496
-59.1321
-58.9992
-58.8527
-58.5709
-58.3135
-58.3535
-58.0442
-57.7389
-57.3185
-61.7959
-61.9003
-61.4445
-61.5442
-61.651
-61.6626
-61.4393
-61.4133
-61.223
-61.1581
-60.864
-60.491
-60.0196
-59.0253
-58.9337
-56.9468
-63.5156
-63.9958
-64.0879
-64.8122
-64.6853
-64.2509
-64.2316
-64.353
-64.0134
-64.1556
-64.089
-64.1021
-64.036
-63.7666
-62.8178
-61.033
-62.0013
-65.0609
-65.218
-65.7034
-66.0152
-66.4675
-66.5687
-66.0158
-65.9331
-66.3866
-66.8819
-67.2248
-67.1679
-67.6266
-68.2119
-67.9326
-67.9564
-68.8669
-65.4362
-65.9263
-66.6587
-66.5048
-66.5171
-66.8567
-66.8091
-67.3098
-67.8933
-68.2159
-68.4409
-68.807
-69.1726
-69.4081
-70.0702
-71.0369
-71.313
-71.5975
-70.2663
-67.5509
-66.9026
-67.3382
-67.6266
-67.4879
-67.9912
-68.0392
-68.1384
-68.3657
-68.8418
-69.7198
-70.086
-70.5926
-70.837
-70.9307
-70.6879
-70.616
-71.268
-71.0485
-70.8764
-68.2281
-69.1171
-68.9483
-68.7322
-68.3553
-68.3897
-68.6963
-69.0425
-69.3473
-69.7224
-70.5049
-71.3023
-71.6482
-71.7825
-72.2377
-72.4848
-72.7809
-73.1274
-71.6779
-71.1678
-71.5664
-69.6111
-70.6728
-70.6245
-71.0841
-71.2269
-70.5633
-70.046
-69.9663
-70.0506
-70.0106
-70.1615
-70.984
-71.5282
-71.6473
-71.6064
-71.8094
-72.1577
-72.2892
-71.8504
-71.5091
-71.4775
-71.1578
-71.1634
-51.7571
-51.8667
-51.8489
-52.0011
-51.9702
-51.9585
-52.0834
-52.0828
-52.0573
-52.0138
-52.3648
-52.2244
-52.2627
-52.2315
-52.2318
-52.4834
-52.4246
-52.379
-52.4121
-52.4274
-52.4558
-52.6545
-52.6911
-52.5929
-52.6059
-52.5759
-52.5511
-52.5106
-52.9639
-52.8789
-52.7901
-52.8224
-52.8024
-52.8035
-52.8599
-52.7723
-53.3364
-53.228
-53.1811
-53.1099
-53.0823
-53.1271
-52.9683
-53.2132
-53.1496
-53.762
-53.7115
-53.5604
-53.5244
-53.4251
-53.3893
-53.4391
-53.4256
-53.3556
-53.3462
-54.4197
-54.2845
-54.1477
-54.049
-53.9043
-53.8464
-53.8191
-53.7999
-53.7358
-53.6401
-53.5721
-55.2578
-54.9853
-54.7949
-54.7562
-54.4871
-54.262
-54.3471
-54.3446
-54.267
-54.2432
-54.1055
-54.303
-56.156
-55.9174
-55.6515
-55.5465
-55.4043
-55.1646
-55.1134
-55.0303
-54.9773
-54.9427
-54.9616
-54.9298
-55.0588
-57.291
-56.9715
-56.8336
-56.6838
-56.4699
-56.2174
-56.0907
-55.9256
-55.8671
-55.7518
-55.7411
-55.6784
-55.7629
-55.3004
-58.6006
-58.1492
-58.155
-58.0554
-57.9211
-57.6155
-57.4379
-57.3035
-57.1212
-56.9986
-56.8776
-56.69
-56.5155
-56.3132
-55.9935
-60.2004
-60.0685
-59.9759
-59.7494
-59.706
-59.4519
-59.2002
-59.0657
-58.9029
-58.6707
-58.4647
-58.4144
-58.2008
-57.9938
-57.4442
-57.1642
-62.3466
-61.9605
-62.102
-61.6144
-61.766
-61.9062
-61.9955
-61.6328
-61.3723
-61.2905
-61.0828
-60.9982
-60.5776
-60.087
-58.6112
-58.8849
-57.7672
-62.9037
-63.424
-63.8573
-64.1114
-64.8481
-64.6167
-64.2274
-64.2106
-64.2649
-64.0487
-64.0854
-63.9474
-63.996
-63.9058
-63.6487
-62.2984
-61.2357
-61.7863
-65.0504
-65.1976
-65.1726
-65.5137
-65.8776
-66.3912
-66.5189
-66.05
-65.9522
-66.2272
-66.7934
-66.9661
-67.1989
-67.373
-67.7906
-67.5296
-67.5987
-68.6678
-65.0196
-65.5093
-65.7286
-66.6343
-66.4583
-66.4435
-66.7977
-66.7232
-67.0894
-67.7537
-68.0824
-68.2886
-68.7021
-69.0923
-69.2767
-69.8784
-70.5016
-70.7907
-70.5753
-69.3384
-67.2659
-67.2198
-67.0369
-67.2921
-67.5193
-67.4017
-67.9014
-67.9604
-68.0529
-68.2878
-68.7676
-69.7329
-70.1565
-70.5772
-70.8514
-70.9864
-70.7277
-70.3182
-71.0054
-70.3218
-70.3782
-68.1218
-69.6022
-69.2379
-69.0343
-68.7716
-68.3934
-68.3975
-68.6473
-69.0208
-69.3546
-69.7414
-70.5574
-71.3454
-71.683
-71.7632
-72.2721
-72.5363
-72.8712
-73.2362
-71.6105
-70.9422
-71.3395
-69.58
-70.4211
-70.7324
-70.6472
-71.0556
-71.2188
-70.5566
-70.0426
-69.9586
-70.0428
-70.0229
-70.1695
-70.9986
-71.5438
-71.6603
-71.6123
-71.8198
-72.1839
-72.3222
-71.8543
-71.4896
-71.3369
-71.1193
-71.149
-51.6606
-51.8275
-51.756
-51.8896
-51.9082
-51.8046
-51.9582
-52.0088
-51.953
-51.9718
-52.06
-52.1037
-52.0721
-52.0309
-52.0061
-52.2956
-52.1901
-52.2673
-52.2341
-52.2669
-52.2064
-52.4529
-52.4373
-52.4291
-52.4282
-52.4216
-52.4315
-52.4149
-52.6923
-52.6558
-52.6406
-52.6241
-52.6194
-52.5775
-52.5046
-52.5248
-53.0626
-52.9066
-52.8997
-52.8468
-52.7505
-52.8133
-52.8724
-52.8609
-52.7616
-53.4409
-53.3348
-53.214
-53.1752
-53.137
-53.0905
-53.1165
-53.0343
-53.2775
-53.0916
-53.9566
-53.8827
-53.7237
-53.6065
-53.5149
-53.4333
-53.4313
-53.4412
-53.4018
-53.3546
-53.3607
-54.5756
-54.4122
-54.2776
-54.173
-53.9967
-53.8406
-53.8496
-53.7921
-53.7634
-53.6589
-53.6529
-53.5495
-55.3231
-55.1314
-54.9617
-54.8224
-54.6899
-54.4219
-54.5194
-54.3901
-54.2803
-54.2657
-54.167
-54.1907
-54.3635
-56.1855
-55.9896
-55.9182
-55.6171
-55.5183
-55.3434
-55.2161
-55.1457
-55.0337
-54.9246
-54.9046
-54.9224
-54.9543
-55.1008
-57.3563
-57.4014
-56.9107
-56.8526
-56.7048
-56.3938
-56.1939
-56.0271
-55.9744
-55.84
-55.7981
-55.7904
-55.6058
-55.6342
-55.363
-58.8338
-58.6153
-58.2076
-58.2521
-58.0013
-57.9538
-57.5932
-57.4095
-57.2548
-57.0669
-56.9932
-56.8922
-56.7453
-56.5291
-56.189
-56.0242
-60.6922
-60.2687
-60.1712
-60.0944
-59.7795
-59.7134
-59.3529
-59.2212
-58.9845
-58.8384
-58.6217
-58.4727
-58.2734
-58.0599
-57.8026
-57.4082
-57.1806
-61.996
-62.3296
-61.9993
-62.0148
-61.8361
-61.9885
-62.2359
-62.279
-61.6262
-61.4187
-61.2012
-61.1433
-60.8867
-60.5089
-59.9698
-59.2266
-58.8002
-58.4651
-62.7002
-62.9505
-63.3391
-63.7537
-63.8494
-64.6811
-64.3664
-64.2107
-64.3314
-64.1998
-64.1642
-63.7436
-63.923
-63.8236
-63.3864
-63.2343
-62.4184
-61.2587
-61.63
-64.6503
-65.0808
-65.2429
-65.1316
-65.3633
-65.6175
-66.1305
-66.2055
-66.0581
-65.9126
-66.2414
-66.6458
-66.9678
-66.9592
-67.1419
-67.2544
-67.0661
-67.0972
-67.2384
-64.1328
-65.5564
-65.4166
-65.5968
-66.5147
-66.3028
-66.3515
-66.7295
-66.7131
-67.0192
-67.628
-67.8854
-68.1833
-68.5864
-68.9273
-69.1633
-69.7647
-70.1973
-70.4648
-69.6143
-68.1366
-66.7534
-67.9239
-67.3675
-67.2048
-67.2469
-67.4079
-67.337
-67.822
-67.8923
-67.9933
-68.2448
-68.7361
-69.7575
-70.1564
-70.5767
-70.9527
-71.0721
-70.8042
-70.1824
-70.791
-69.6908
-70.0006
-68.2318
-69.5474
-69.7345
-69.3735
-69.1116
-68.8106
-68.3593
-68.3855
-68.5854
-68.9822
-69.3641
-69.7068
-70.5558
-71.3968
-71.7405
-71.7601
-72.3172
-72.6193
-72.9544
-73.3652
-71.6023
-70.7544
-71.1114
-69.5472
-70.3884
-70.5379
-70.7761
-70.6764
-71.0385
-71.2028
-70.5526
-70.046
-69.9749
-70.0337
-70.0317
-70.1748
-71.0151
-71.5596
-71.6755
-71.6229
-71.8282
-72.2047
-72.3544
-71.8536
-71.4701
-71.1985
-71.0747
-71.1373
-51.6017
-51.5564
-51.6522
-51.7316
-51.755
-51.7392
-51.9013
-51.8605
-51.7615
-51.8116
-51.9568
-51.9414
-51.9531
-52.0052
-51.972
-52.1488
-52.0948
-52.1008
-52.0352
-52.0702
-52.0237
-52.3397
-52.2242
-52.2505
-52.2411
-52.2151
-52.2448
-52.1951
-52.5658
-52.4831
-52.4184
-52.4375
-52.4043
-52.4228
-52.4429
-52.4416
-52.8747
-52.7349
-52.6812
-52.6417
-52.6467
-52.5911
-52.5177
-52.4855
-52.5765
-53.1999
-53.0227
-52.9407
-52.9325
-52.8682
-52.8301
-52.8278
-52.8338
-52.8235
-52.7853
-53.571
-53.4096
-53.3134
-53.2298
-53.173
-53.1308
-53.114
-53.1447
-52.9791
-53.1619
-52.9603
-54.0544
-53.9798
-53.8435
-53.6703
-53.5787
-53.4562
-53.4478
-53.4177
-53.4323
-53.353
-53.3549
-53.3514
-54.5662
-54.5518
-54.4161
-54.2641
-54.1528
-53.9605
-53.9144
-53.7769
-53.7393
-53.7383
-53.6168
-53.702
-53.4824
-55.3964
-55.3322
-55.085
-54.9864
-54.7696
-54.6476
-54.4375
-54.4892
-54.3329
-54.2167
-54.2231
-54.1526
-54.2263
-54.2644
-56.439
-56.392
-55.9411
-55.8845
-55.6779
-55.4784
-55.3008
-55.2012
-55.0444
-54.933
-54.9416
-55.0064
-55.0924
-54.8667
-54.9931
-57.6803
-57.5329
-57.2048
-56.9773
-56.8636
-56.6219
-56.4434
-56.2454
-56.0268
-55.9225
-55.7989
-55.7353
-55.7843
-55.6387
-55.6044
-55.4134
-59.1614
-58.7321
-58.7797
-58.3247
-58.1441
-58.0449
-57.834
-57.5666
-57.4502
-57.2498
-57.0698
-56.9697
-56.7921
-56.7361
-56.3544
-56.2689
-56.1571
-60.8052
-60.6009
-60.4229
-60.3186
-59.896
-59.8835
-59.6639
-59.2202
-59.1632
-59.0425
-58.7729
-58.587
-58.388
-58.0166
-57.8815
-57.7875
-57.2351
-57.2153
-61.9611
-61.9137
-62.1282
-62.0736
-61.9743
-61.7437
-61.8913
-62.1882
-62.2152
-61.707
-61.3612
-61.2261
-60.9453
-60.8322
-60.2886
-59.7168
-59.2211
-58.4381
-58.7747
-62.8915
-62.697
-62.8624
-63.18
-63.7112
-63.86
-64.4481
-64.2913
-64.043
-63.9927
-64.0728
-63.942
-64.0701
-63.558
-63.5515
-63.2792
-63.1063
-62.2447
-60.8381
-61.7683
-64.5335
-64.8429
-65.1191
-65.2619
-65.019
-65.1626
-65.4524
-65.7537
-65.9703
-66.1367
-65.9179
-66.1932
-66.6439
-66.952
-66.6663
-66.8572
-66.9257
-67.2376
-66.3688
-66.2079
-64.197
-65.9845
-65.5396
-65.3891
-65.5395
-66.2211
-66.2011
-66.2893
-66.6327
-66.7112
-66.9824
-67.493
-67.8361
-68.161
-68.5127
-68.7904
-69.0744
-69.7869
-69.9619
-69.9946
-69.0259
-67.2622
-66.6673
-68.4622
-68.1065
-67.5037
-67.2886
-67.2172
-67.2787
-67.3078
-67.7555
-67.8313
-67.9685
-68.1734
-68.6861
-69.76
-70.2844
-70.4578
-71.0242
-71.1616
-70.9105
-70.1446
-70.7431
-69.1872
-69.8248
-68.4784
-69.7394
-69.8486
-69.8696
-69.5266
-69.193
-68.8653
-68.4552
-68.4054
-68.6369
-68.9644
-69.3711
-69.7145
-70.5839
-71.4464
-71.7611
-71.7731
-72.3646
-72.7246
-73.0369
-73.5019
-71.6475
-70.5722
-70.914
-69.5386
-69.863
-70.5339
-70.6494
-70.8524
-70.7205
-71.03
-71.1708
-70.5384
-70.0502
-69.9863
-70.0251
-70.0446
-70.1817
-71.0329
-71.5734
-71.6891
-71.6364
-71.8306
-72.2259
-72.3852
-71.8338
-71.4517
-71.0867
-71.0359
-71.1249
-51.5468
-51.5847
-51.5967
-51.6299
-51.6707
-51.7181
-51.7329
-51.7904
-51.7635
-51.8506
-51.7933
-51.8219
-51.7735
-51.8141
-52.0178
-52.0549
-51.919
-51.9631
-52.0097
-51.9505
-52.1978
-52.1311
-52.1151
-52.0949
-52.0373
-52.0192
-52.0305
-52.4247
-52.3497
-52.2516
-52.265
-52.2253
-52.1766
-52.2293
-52.2334
-52.6124
-52.6076
-52.4411
-52.4497
-52.4153
-52.4119
-52.3785
-52.4326
-52.4512
-52.8502
-52.7943
-52.7247
-52.7034
-52.6119
-52.5629
-52.582
-52.5788
-52.489
-52.561
-53.3396
-53.1189
-52.9342
-52.9405
-52.8906
-52.8597
-52.8449
-52.8104
-52.8711
-52.7917
-52.8737
-53.6451
-53.543
-53.4135
-53.2821
-53.2304
-53.1577
-53.0668
-53.1215
-53.1424
-53.0515
-53.0704
-52.9209
-54.1984
-54.0068
-53.9633
-53.7555
-53.6584
-53.6301
-53.548
-53.4318
-53.3784
-53.3925
-53.3639
-53.3709
-53.3147
-54.773
-54.7354
-54.5343
-54.3463
-54.2794
-54.1352
-53.9955
-53.8928
-53.7611
-53.7755
-53.7147
-53.6072
-53.7319
-53.3612
-55.7056
-55.3942
-55.2962
-55.0871
-54.9688
-54.7787
-54.6309
-54.544
-54.4545
-54.261
-54.2614
-54.257
-54.2192
-54.2659
-54.1897
-56.6985
-56.4999
-56.3643
-55.9519
-55.906
-55.6691
-55.4592
-55.3027
-55.1518
-55.0771
-54.9615
-54.9369
-54.9851
-55.1138
-54.9177
-54.9029
-57.8889
-57.7484
-57.596
-57.1225
-56.9722
-56.747
-56.533
-56.3741
-56.1498
-56.0976
-55.9249
-55.7175
-55.6381
-55.672
-55.6799
-55.6241
-55.4579
-59.5474
-58.9833
-58.8522
-58.732
-58.422
-58.166
-58.1302
-57.7477
-57.654
-57.4638
-57.3219
-57.1761
-56.982
-56.7126
-56.6368
-56.3704
-56.2315
-56.2745
-60.8968
-60.9372
-60.4693
-60.4288
-60.4182
-60.3341
-59.9629
-59.7148
-59.3187
-59.1302
-58.9545
-58.7056
-58.4632
-58.4017
-58.1194
-57.8842
-57.6306
-57.0312
-57.2457
-61.9966
-61.758
-61.866
-61.9528
-61.8992
-61.918
-61.9086
-62.0315
-62.0938
-62.0137
-61.6782
-61.4143
-61.2184
-60.9033
-60.8501
-60.4613
-60.0606
-59.1012
-58.2744
-58.9744
-62.7992
-62.8397
-62.6254
-62.8767
-63.1344
-63.5087
-63.8311
-64.0698
-64.1174
-63.8397
-63.7855
-64.0564
-63.7612
-63.8525
-63.476
-63.4513
-63.3592
-63.1541
-62.1991
-61.192
-61.9622
-64.7458
-64.734
-64.9544
-65.0733
-65.237
-64.9436
-65.0194
-65.2488
-65.5857
-65.7077
-66.1376
-66.0476
-66.0504
-66.4853
-66.7108
-66.515
-66.6605
-66.7137
-67.2261
-65.9546
-66.3047
-64.2418
-66.7089
-66.2146
-65.7234
-65.5255
-65.5672
-66.0386
-66.0777
-66.1982
-66.5798
-66.6511
-66.9846
-67.3801
-67.7229
-68.0137
-68.4287
-68.743
-68.9407
-69.9105
-69.7779
-69.5149
-68.5243
-66.8815
-66.7083
-68.8053
-68.7534
-68.3134
-67.6817
-67.4974
-67.2228
-67.212
-67.2769
-67.7083
-67.8196
-67.92
-68.2173
-68.6555
-69.8425
-70.3976
-70.4617
-71.0919
-71.2475
-71.0454
-70.1862
-70.8969
-69.0375
-69.7782
-68.6715
-69.789
-69.9773
-70.1405
-70.0203
-69.6842
-69.2837
-68.9309
-68.5459
-68.4343
-68.6397
-69.0026
-69.4008
-69.7134
-70.6297
-71.4576
-71.8144
-71.8105
-72.3869
-72.8616
-73.1434
-73.6441
-71.7262
-70.463
-70.7543
-69.5475
-69.996
-70.2719
-70.6736
-70.8049
-70.9331
-70.7772
-71.0206
-71.1291
-70.5267
-70.056
-69.9756
-70.02
-70.0605
-70.1896
-71.0469
-71.5869
-71.6974
-71.6463
-71.836
-72.2465
-72.4149
-71.8128
-71.4327
-71.0087
-71.0049
-51.621
-51.6057
-51.5663
-51.6886
-51.6584
-51.7007
-51.6665
-51.8163
-51.7898
-51.7948
-51.8039
-51.7431
-51.9226
-51.8314
-51.845
-51.8333
-51.7791
-51.7883
-52.0894
-52
-51.9878
-51.9255
-51.9678
-51.9953