/*--------------------------------*- C++ -*----------------------------------*\
  =========                 |
  \\      /  F ield         | OpenFOAM: The Open Source CFD Toolbox
   \\    /   O peration     | Website:  https://openfoam.org
    \\  /    A nd           | Version:  7
     \\/     M anipulation  |
\*---------------------------------------------------------------------------*/
FoamFile
{
    version     2.0;
    format      ascii;
    class       surfaceScalarField;
    location    "2";
    object      phi_0;
}
// * * * * * * * * * * * * * * * * * * * * * * * * * * * * * * * * * * * * * //

dimensions      [0 3 -1 0 0 0 0];

internalField   nonuniform List<scalar> 
54125
(
0.000133609
-2.22767e-05
-0.00158218
0.000462361
-7.24168e-05
-0.000176924
7.09686e-05
-5.5273e-05
-0.0013574
0.000116704
-2.05146e-05
-0.00167837
0.000707288
-5.22401e-05
0.00372186
0.000245222
-0.000132238
0.000707631
0.000395142
-5.94458e-05
-0.000395916
5.62546e-05
-4.99993e-05
-0.0016966
6.53041e-05
-5.03927e-05
-0.00139282
0.000110465
-2.02045e-05
-0.00176863
0.000791792
8.22794e-05
0.00691972
0.000377779
-4.21093e-05
0.00217428
0.000649684
-5.44304e-06
0.00347276
0.000144102
-0.00013444
0.000728284
0.000231912
-0.000113752
0.000595329
0.000348058
-5.33187e-05
-0.00058019
7.79895e-05
-5.44699e-05
-0.000929142
4.57447e-05
-4.49859e-05
-0.00174775
6.58112e-05
-5.04935e-05
-0.00142835
0.000106437
-2.13552e-05
-0.00185371
-0.000139504
0.000201611
0.00804591
0.000337339
-5.19975e-05
0.00630625
0.000619296
1.67913e-05
0.00693331
0.000342407
-9.8911e-05
0.00189385
0.000360892
-8.05202e-06
0.00204791
0.000552562
3.66166e-05
0.00323164
0.000202075
-0.000125461
0.000130865
0.0001294
-0.000116478
0.000647355
0.00023245
-0.000108006
0.000483378
0.000281242
-4.39651e-05
-0.00071103
0.000119481
-5.50419e-05
-0.000425586
6.7637e-05
-4.79176e-05
-0.000993847
4.08317e-05
-4.50552e-05
-0.00179402
6.52468e-05
-5.06816e-05
-0.00146427
9.62246e-05
-2.21228e-05
-0.00192782
-0.0012135
0.000415123
0.00577017
-0.000409988
0.00102545
0.00889382
-0.00031856
0.000234574
0.00874919
0.000321203
-0.000252272
0.00529624
0.000405915
-0.000141908
0.00641992
0.000492771
-4.95815e-05
0.00704268
0.000248212
-0.000107384
0.00187482
0.000319342
-5.41946e-05
0.00175005
0.000385097
3.02851e-05
0.0019016
0.00039335
7.66093e-05
0.00304292
0.000115799
-0.000101815
0.000301907
0.000168114
-0.000109141
2.30494e-05
0.000120824
-0.000106457
0.000565813
0.000226567
-9.83656e-05
0.000376458
0.000188827
-3.12328e-05
-0.000772399
6.17218e-05
-5.98287e-05
-5.94313e-05
0.000105505
-4.75407e-05
-0.000531468
6.22916e-05
-4.68922e-05
-0.0010543
3.48024e-05
-4.54284e-05
-0.00183408
6.03997e-05
-5.12183e-05
-0.00149557
8.47374e-05
-2.25713e-05
-0.00198998
-0.00125746
0.0001173
0.00400722
-0.00100417
0.000693843
0.006992
-0.00102484
0.000333028
0.00614343
4.07632e-05
0.00106053
0.00899224
-0.000185409
0.00085041
0.00886931
-0.000336218
0.000410893
0.00916729
0.00024466
-0.000288138
0.0043642
0.000363672
-0.000270721
0.00538073
0.00043746
-0.000182937
0.00650092
0.000400303
-5.19134e-05
0.00708765
0.000141532
-4.91539e-05
0.00165751
0.000227763
-8.53613e-05
0.00184633
0.000298168
-2.78344e-05
0.00163083
0.000425053
6.48544e-05
0.00171487
0.000222669
0.000118916
0.00289016
-2.55163e-05
-5.95035e-05
0.00115519
9.63162e-05
-9.38914e-05
0.000295847
0.000147369
-9.9817e-05
-6.86685e-05
0.000107441
-9.29858e-05
0.000487795
0.000207927
-8.49892e-05
0.000282687
0.000123782
-1.70198e-05
-0.000794424
6.97957e-05
-7.6811e-05
6.30232e-05
6.3114e-05
-5.16313e-05
-0.000118455
0.000101429
-4.52435e-05
-0.000634546
5.47337e-05
-4.62741e-05
-0.00110819
2.67353e-05
-4.59075e-05
-0.00186612
5.36495e-05
-5.0858e-05
-0.00152093
7.22377e-05
-2.23034e-05
-0.00203992
-0.0015849
0.00026058
0.00400708
-0.00121609
0.000293676
0.00466334
-0.00108343
6.4298e-05
0.00400151
-0.000337003
0.00102587
0.00810936
-0.000823548
0.000663832
0.00729934
-0.000955677
0.000262415
0.00650047
0.000396528
0.000584742
0.00643554
0.000199153
0.000841908
0.00916526
-0.000204705
0.00091627
0.0090061
-0.000253143
0.000370626
0.00945011
0.000134902
-0.000318871
0.00409823
0.00024705
-0.000268443
0.00434264
0.000366706
-0.000288071
0.00541732
0.000419964
-0.000198489
0.00665258
0.000268257
-1.83719e-05
0.00706043
4.70578e-05
1.53788e-05
0.00194197
0.000127859
-5.68303e-05
0.00159743
0.000211211
-5.61966e-05
0.00181085
0.000247125
1.37723e-06
0.00155462
0.000479682
9.86958e-05
0.00146333
1.59699e-05
0.000163009
0.00283497
2.76485e-05
-2.64568e-05
0.00149141
-8.57988e-06
-5.54669e-05
0.00118846
0.000102966
-9.12186e-05
0.000285712
0.000128279
-8.69776e-05
-0.000148222
8.34563e-05
-7.8027e-05
0.000424112
0.000175632
-7.1725e-05
0.00021541
5.7226e-05
1.63608e-07
-0.000779576
7.33351e-05
-8.15632e-05
-9.34475e-05
6.4783e-05
-6.82824e-05
1.48914e-05
6.70912e-05
-4.8772e-05
-0.000182017
9.57949e-05
-4.34465e-05
-0.000733168
4.66443e-05
-4.59121e-05
-0.00115483
1.88189e-05
-4.58931e-05
-0.00188991
4.67556e-05
-4.92858e-05
-0.00154071
5.95696e-05
-2.18139e-05
-0.00207767
-0.0019238
0.000204228
0.00371424
-0.00117885
0.000422173
0.00471545
-0.00128103
0.000218739
0.00398594
-0.000667309
0.000741394
0.00569426
-0.00108019
0.000262365
0.00472191
-0.00112447
1.80992e-05
0.00415221
-5.52102e-06
0.00131852
0.00753658
-0.000108393
0.00100815
0.00807259
-0.000785152
0.000600072
0.00754213
-0.000927493
0.000283591
0.00689123
0.000175248
0.000411667
0.0051203
0.00063499
0.000404518
0.00648499
0.000304197
0.0007777
0.00936634
-0.000153109
0.000839665
0.00911013
-0.000249361
0.000319883
0.00964784
2.62269e-05
-0.000200683
0.00336759
9.16397e-05
-0.000307241
0.00417325
0.000240674
-0.000257818
0.00428292
0.000317938
-0.000255443
0.00540346
0.000616907
-0.000193928
0.00669091
-0.000107309
8.83527e-05
0.00709536
3.29027e-05
1.02098e-05
0.00267721
6.44378e-05
2.3118e-05
0.001789
0.000167549
-3.55872e-05
0.00151224
0.000181408
-2.86185e-05
0.00178772
0.000204543
3.799e-05
0.00149424
0.000454641
0.000137364
0.00120997
-9.08208e-05
0.000201279
0.00278173
0.000100761
-8.311e-06
0.00155627
3.82866e-06
-2.15188e-05
0.00151842
4.62149e-06
-5.37089e-05
0.00121342
9.2522e-05
-8.62725e-05
0.000288279
0.000117039
-7.27075e-05
-0.000223937
6.45363e-05
-6.3937e-05
0.000370606
0.000131464
-5.46676e-05
0.000185532
-2.21061e-05
1.05248e-05
-0.000708425
3.13699e-05
-8.34516e-05
0.000531546
7.10878e-05
-7.54329e-05
-0.000157385
6.58798e-05
-6.67224e-05
-3.30379e-05
6.84197e-05
-4.60235e-05
-0.00024786
8.86607e-05
-4.2455e-05
-0.000825286
3.9618e-05
-4.58281e-05
-0.00119451
9.19773e-06
-4.49062e-05
-0.00190349
3.82465e-05
-4.87357e-05
-0.00155203
4.1047e-05
-2.16812e-05
-0.00209704
-0.00173497
-0.000215961
0.00327681
-0.00132242
0.000422335
0.00462166
-0.001604
0.000195504
0.0038417
-0.000846371
0.000378474
0.00515674
-0.00113851
0.000326867
0.00466564
-0.00134319
0.000248918
0.00395574
-0.000411069
0.00117729
0.00594963
-0.00045635
0.000755208
0.00554937
-0.000996357
0.00025868
0.00469254
-0.00111037
9.82522e-05
0.00423683
0.000227821
0.00126067
0.00713286
0.0005424
0.00123985
0.00739747
-2.23074e-06
0.00104006
0.00793904
-0.000590089
0.000689712
0.00757299
-0.000914943
0.000252295
0.00730452
2.16068e-05
0.000376538
0.00572228
0.00014466
0.000131775
0.00534002
0.00057019
0.000392452
0.00654072
0.000218644
0.000763863
0.00954143
-1.3137e-05
0.000687667
0.00937239
-0.000403084
0.000290629
0.00965299
-0.000192713
-2.38209e-05
0.00400108
0.000102052
-0.000235779
0.00325851
7.25629e-05
-0.000273832
0.00428425
0.00021753
-0.000205962
0.00419732
0.000347719
-0.000221547
0.00528791
0.000864505
-0.000141503
0.00651091
-0.000356736
0.000331674
0.0070296
0.000127525
-3.45179e-05
0.00268607
8.69058e-07
6.85721e-05
0.00263471
9.99706e-05
2.90499e-05
0.00162902
0.000162523
-1.00465e-05
0.00142367
0.000177753
1.26765e-05
0.00175232
0.000164807
7.74768e-05
0.00145386
0.000210802
0.000178049
0.00115386
-0.000287116
0.000255214
0.00279153
7.27816e-05
4.67254e-06
0.00198651
6.16346e-05
-3.47383e-06
0.00154768
1.89511e-06
-2.04638e-05
0.00154916
1.64799e-05
-5.10741e-05
0.00123016
7.55005e-05
-7.80181e-05
0.00030675
0.000106996
-5.9515e-05
-0.000295737
4.49166e-05
-4.96276e-05
0.000329848
7.22895e-05
-3.92137e-05
0.000201227
-8.80046e-05
2.30294e-05
-0.000602403
1.95616e-05
-8.47675e-05
0.000645097
2.55274e-05
-7.80971e-05
0.000508682
7.22945e-05
-7.71016e-05
-0.0002193
6.73402e-05
-6.51512e-05
-8.12504e-05
6.77019e-05
-4.38949e-05
-0.000314122
8.06192e-05
-4.24054e-05
-0.000909328
3.33442e-05
-4.59111e-05
-0.00122685
-1.70911e-06
-4.45503e-05
-0.00190596
2.74667e-05
-4.83334e-05
-0.00155285
3.33216e-05
-2.24479e-05
-0.00210791
-0.00161158
-0.000106771
0.00327589
-0.00169156
-5.54101e-05
0.00421323
-0.00162953
-8.94954e-05
0.00339184
-0.000839322
0.000422172
0.00460374
-0.00121981
0.000220889
0.00467758
-0.00158875
0.000212489
0.00387476
-0.00066867
0.000565097
0.00551146
-0.000615987
0.000379699
0.00526354
-0.000995349
0.000291345
0.0046222
-0.0012466
0.000186048
0.00390593
0.000310671
0.00126821
0.00631286
1.46686e-05
0.00110843
0.00612414
-0.000474731
0.000785358
0.0054952
-0.000942044
0.000332368
0.00481038
-0.00111288
0.000222278
0.00421249
0.00043597
0.0010375
0.00631205
0.000305573
0.000920878
0.00729092
0.000325501
0.00126435
0.00741786
-0.000154725
0.00109817
0.00790395
-0.000614908
0.000706177
0.00772088
-0.000948261
0.000238636
0.00761106
-0.000190343
0.000338555
0.00553889
0.000196529
8.26033e-05
0.00567697
0.000108061
5.02504e-05
0.00564672
0.000503994
0.000297227
0.00672089
0.000568794
0.000668334
0.00933969
0.000464482
0.000348176
0.00971487
-0.000544124
0.000475967
0.00936441
-9.77234e-05
3.09648e-05
0.00458748
5.19681e-06
-5.99505e-05
0.00382092
0.000154834
-0.000253033
0.00318285
5.11174e-05
-0.000202421
0.00439211
0.000168002
-0.000207727
0.00419325
0.000467195
-0.000149342
0.00499336
0.000533511
0.000115581
0.00640429
-0.000615243
0.000453208
0.00690451
1.41673e-05
-4.16186e-05
0.00303524
5.94842e-05
9.58199e-06
0.00274721
-2.02281e-05
8.69132e-05
0.00259897
0.000128291
3.07798e-05
0.00147638
0.00016527
1.61147e-05
0.00133046
0.000139028
4.73632e-05
0.0017504
3.58545e-05
0.000120619
0.00152035
6.00055e-06
0.000233803
0.00124156
-0.000487221
0.000309252
0.0028815
0.000105902
6.38617e-06
0.00238949
3.10414e-05
1.84626e-06
0.00197567
4.72426e-05
-4.06062e-06
0.00155632
1.79965e-05
-1.55544e-05
0.00156298
2.48785e-05
-5.0144e-05
0.00124511
6.33238e-05
-6.971e-05
0.000334241
8.7499e-05
-4.74247e-05
-0.000352095
8.17769e-06
-3.41712e-05
0.000314918
1.66519e-05
-2.45255e-05
0.000259597
-0.000149315
3.55321e-05
-0.000455299
1.72789e-05
-7.5887e-05
0.000777544
1.99723e-05
-7.86152e-05
0.000625643
2.76186e-05
-8.08961e-05
0.000484858
8.19273e-05
-7.89402e-05
-0.000287438
6.61391e-05
-6.32685e-05
-0.000128016
6.32591e-05
-4.27648e-05
-0.000377022
7.22968e-05
-4.29812e-05
-0.000984554
2.72164e-05
-4.59765e-05
-0.00125264
-1.16557e-05
-4.41947e-05
-0.00189844
1.99956e-05
-4.74841e-05
-0.00154781
2.28231e-05
-2.25551e-05
-0.00210818
-0.00180932
0.000259897
0.00266913
-0.00206223
3.79434e-05
0.00370286
-0.00151155
-0.000110254
0.00326816
-0.000743628
0.000160883
0.00456911
-0.00151216
3.7829e-05
0.00437826
-0.001634
-0.000116763
0.00355385
-0.000604868
0.000473721
0.00499639
-0.000778235
0.000272875
0.004714
-0.000972892
0.000232689
0.00463492
-0.00147757
0.00018394
0.0039218
0.000168102
0.000758538
0.00562609
-0.000438113
0.000504388
0.00583956
-0.000808104
0.000365996
0.00552227
-0.00103472
0.00026933
0.0046316
-0.00119531
0.00016685
0.00382151
0.000378299
0.00140998
0.00605012
0.000134463
0.00116118
0.00643121
-0.000118482
0.00110425
0.00624923
-0.000534967
0.000722432
0.00548537
-0.000954305
0.000442829
0.00492922
-0.00118327
0.000198109
0.00424938
0.000253734
0.000861654
0.00590467
0.000548522
0.000659705
0.00622123
0.000397428
0.000879618
0.00738629
9.76568e-05
0.00128075
0.00764162
0.000238489
0.00113959
0.00780084
-0.000293347
0.000781492
0.00793585
-0.000776244
0.000188436
0.00765474
-0.000165337
0.000286251
0.00566734
-7.42811e-06
0.00013808
0.00549604
0.000294513
-8.44774e-05
0.00567202
0.000121241
-6.65957e-05
0.00594042
0.000559399
0.000254391
0.00674344
0.000663735
0.000475246
0.00901608
0.000320508
0.000459444
0.00994439
-0.000616331
0.000548787
0.00881671
-7.68461e-05
6.68965e-05
0.00456076
-8.67047e-06
3.33031e-05
0.00456238
0.000126874
-0.000129465
0.00355025
0.000209349
-0.000168528
0.0030679
5.89408e-05
-0.000108065
0.00439878
9.7546e-05
-0.000143997
0.00422938
0.000286413
2.23321e-05
0.00483605
0.000296972
0.000259153
0.00630737
-0.000834567
0.000487401
0.00676446
6.92544e-05
-4.28047e-05
0.00290338
-3.41033e-05
-1.76054e-05
0.00312757
3.22864e-05
-1.3161e-05
0.00286224
-3.16578e-05
8.15829e-05
0.00259782
0.000107552
1.52953e-05
0.00139453
0.000140721
3.37813e-05
0.00126664
0.00012895
0.000112007
0.00171756
-1.43897e-05
0.000171987
0.00160473
-6.90479e-05
0.000290011
0.0013465
-0.000635675
0.000355984
0.00301187
3.84459e-05
-4.49719e-05
0.00262766
4.3803e-05
-1.67707e-06
0.00236918
8.4903e-05
2.17706e-06
0.00191215
6.48792e-05
-1.04466e-06
0.00155886
2.68396e-05
-2.09678e-05
0.0015731
1.92837e-05
-4.95966e-05
0.00126898
4.29441e-05
-6.21317e-05
0.0003783
6.26793e-05
-3.59034e-05
-0.000385825
-3.6435e-05
-1.9652e-05
0.000334824
-2.99173e-05
-1.04807e-05
0.000355523
-0.00020913
4.59827e-05
-0.000269329
1.60208e-05
-7.52827e-05
0.00115896
1.93267e-05
-7.05576e-05
0.000750159
2.3272e-05
-8.03232e-05
0.000601798
2.43349e-05
-8.37474e-05
0.000465331
7.79871e-05
-8.06273e-05
-0.000348067
6.45104e-05
-6.18739e-05
-0.000173417
6.05724e-05
-4.25876e-05
-0.000437988
6.40018e-05
-4.35959e-05
-0.00105094
2.12789e-05
-4.60022e-05
-0.00127211
-2.20499e-05
-4.40041e-05
-0.00187987
7.40041e-06
-4.70822e-05
-0.00153068
1.50348e-05
-2.20038e-05
-0.00210121
-0.00177128
5.39594e-05
0.00246364
-0.00192981
0.000117264
0.00247103
-0.00163902
0.000231611
0.00256499
-0.000995528
0.000274132
0.00438075
-0.00176787
6.9394e-05
0.00377892
-0.00158296
-0.000113768
0.00333089
-0.000597822
0.000225131
0.00485459
-0.000859608
0.000149894
0.00453842
-0.00127714
2.89324e-05
0.00453681
-0.00157264
-5.00139e-05
0.00369894
-8.84463e-05
0.000574735
0.00530966
-0.000617137
0.000426226
0.00502206
-0.00085412
0.000267671
0.00472504
-0.0010195
0.000205903
0.00459774
-0.00132268
0.000202366
0.00384681
9.03205e-05
0.000920545
0.00586464
-0.000190263
0.000638145
0.00581706
-0.000423195
0.000487833
0.00602243
-0.000781707
0.00038767
0.00565067
-0.00104478
0.000239133
0.00464979
-0.00121224
0.000233323
0.00361716
0.000234037
0.00149727
0.00631317
0.000290297
0.00129649
0.00617303
0.000202981
0.0011894
0.00654051
-0.000257343
0.000954366
0.0063723
-0.000521062
0.000778716
0.00590904
-0.000798456
0.000379897
0.00525254
-0.00110592
0.000175128
0.00440394
3.42506e-05
0.000759879
0.00553121
0.000181026
0.00072459
0.00565133
0.000632939
0.000643307
0.00611912
0.000275271
0.00105585
0.00745716
0.000261243
0.00132334
0.00775603
2.45825e-06
0.00108505
0.00815856
-0.000430632
0.000734256
0.00814117
-0.000722175
3.23484e-05
0.00772824
-0.000120641
0.000211476
0.00582188
-0.000127545
0.000173508
0.00575079
9.65077e-05
6.42461e-06
0.0054355
0.000254069
-7.11215e-05
0.00563183
8.71914e-05
-2.0962e-05
0.00618753
0.00035421
0.000249222
0.0067128
0.000535021
0.000561113
0.0086658
-6.89482e-05
0.000747001
0.0101121
-0.000685533
0.000693898
0.00797378
-4.68635e-05
0.000103612
0.00426168
-5.31703e-05
7.18329e-05
0.0045413
7.67153e-05
-1.34115e-05
0.0044019
6.73411e-05
-0.000131788
0.00341451
0.000216416
-5.1327e-05
0.0029023
7.05386e-05
1.91881e-06
0.00432305
0.000120587
7.95233e-05
0.00418055
0.00021665
0.000118787
0.00474537
0.000197869
0.000383163
0.00614469
-0.00105608
0.000604705
0.00658016
-3.26339e-05
-9.82083e-05
0.0026876
-2.54153e-05
-2.80167e-06
0.0029578
6.10085e-05
-7.05723e-05
0.00320888
2.12179e-05
7.73498e-05
0.00291014
-2.35174e-05
5.40608e-05
0.00260941
4.91077e-05
2.0968e-05
0.00137751
8.20012e-05
8.28817e-05
0.00125671
8.13187e-05
0.00014407
0.00172684
-6.01423e-05
0.000206434
0.00171202
-0.000173708
0.000333405
0.00151287
-0.000830768
0.000348877
0.00328463
-3.00026e-05
-8.25026e-05
0.002368
1.13501e-05
-3.66066e-05
0.00267057
0.000114972
-3.88512e-06
0.00228354
1.87443e-05
-8.62721e-06
0.00192533
5.0377e-05
-2.001e-06
0.00156751
3.32385e-05
-2.35758e-05
0.00157836
2.06156e-05
-4.95082e-05
0.00129631
4.19991e-06
-5.36249e-05
0.000455824
5.96793e-05
-2.49257e-05
-0.000418952
-7.74033e-05
-6.6098e-06
0.000386307
-7.30291e-05
3.03191e-06
0.000478903
-0.000243213
5.48807e-05
-6.59617e-05
-6.43521e-06
-7.14304e-05
0.0010477
-2.18015e-06
-6.92296e-05
0.00115981
2.10399e-05
-7.24055e-05
0.000721202
1.92109e-05
-8.1805e-05
0.000580644
2.05942e-05
-8.70763e-05
0.000451186
7.77619e-05
-8.2321e-05
-0.000405381
6.30057e-05
-6.04485e-05
-0.000218562
6.10371e-05
-4.29369e-05
-0.000499684
5.70062e-05
-4.38245e-05
-0.00111012
1.60029e-05
-4.58982e-05
-0.00128622
-3.18551e-05
-4.3454e-05
-0.00185165
8.16942e-07
-4.76964e-05
-0.0015058
1.42253e-05
-2.33993e-05
-0.00209204
-0.00161981
-3.98982e-05
0.00262096
-0.00147421
-1.07804e-05
0.00353995
-0.00164467
9.06693e-05
0.00237862
-0.00103867
0.000119946
0.00381884
-0.0017542
6.1524e-05
0.00262745
-0.00175042
0.000181977
0.00255048
-0.000676662
0.000329283
0.00437198
-0.00094258
0.000230867
0.00430225
-0.00161008
6.65189e-05
0.00393158
-0.00152177
-0.00011546
0.00339548
-0.000153879
0.000365837
0.00509145
-0.000582051
0.000193947
0.00477545
-0.000920635
0.000139319
0.00449455
-0.00117595
9.5589e-05
0.00454766
-0.00134772
-3.94019e-05
0.00376337
-0.000185759
0.000716243
0.00542079
-0.000282716
0.000520108
0.00530823
-0.000685202
0.000427406
0.00512433
-0.000904273
0.000258936
0.00479457
-0.00107702
0.000202173
0.00463017
-0.00144437
0.00021041
0.00386853
2.45516e-05
0.00100556
0.00618869
-4.20215e-05
0.000762595
0.00607251
-0.000215633
0.000624697
0.00609881
-0.000384568
0.000491675
0.00604565
-0.000713536
0.000373687
0.00570859
-0.000949394
0.000289762
0.00474428
-0.00127428
0.000266527
0.00351899
2.86897e-05
0.0015025
0.00625233
-1.38438e-05
0.00132312
0.00648141
0.00024129
0.001279
0.00647508
-2.94832e-05
0.00110633
0.0066933
-0.000222634
0.000952019
0.00668287
-0.000571404
0.000699299
0.0061635
-0.000836197
0.000367259
0.00546598
-0.00112643
0.0002964
0.0045118
-0.000176325
0.000719912
0.00589398
-0.000109699
0.000629506
0.00560845
-2.58723e-06
0.00071067
0.00568306
0.000429274
0.000815233
0.00618453
0.000271114
0.00111305
0.00748353
-1.76214e-05
0.00123561
0.0079773
-0.000123912
0.00109629
0.00845546
-0.000933397
0.000559584
0.00847838
-0.000878064
0.000174066
0.0077467
-5.6728e-05
0.000171993
0.00551051
1.67274e-05
0.000135348
0.00579014
0.000106083
7.75669e-05
0.00565028
8.57188e-05
3.80353e-05
0.00530797
0.000332176
2.86412e-05
0.00546646
0.000128456
0.000167093
0.00621174
0.000355493
0.000447845
0.00659116
0.00028685
0.000774623
0.00856798
-7.79618e-05
0.000926748
0.0101551
-0.000763105
0.000607214
0.00707359
0.000121035
8.73812e-05
0.00380169
1.91583e-05
0.000101469
0.00418747
-1.29088e-05
9.00765e-05
0.00451173
7.69865e-05
-1.08333e-05
0.00422517
7.80723e-06
-4.62895e-05
0.00337815
5.6647e-05
5.30486e-05
0.00284363
8.08444e-05
0.000149205
0.00425452
0.000107672
0.000191352
0.00408164
0.000256431
0.000258747
0.00455322
9.10766e-05
0.000487858
0.00599676
-0.00127312
0.000566316
0.0064562
-4.42174e-05
-0.000182575
0.00199797
-6.25096e-05
-4.86115e-05
0.00280727
9.20644e-05
-2.55848e-05
0.00293572
3.35769e-05
3.96347e-05
0.00323176
-8.46225e-08
2.03639e-05
0.0029943
8.30833e-06
2.68072e-05
0.00262851
3.92492e-05
3.90175e-05
0.00140275
4.73014e-05
9.45905e-05
0.00126309
6.30476e-05
0.000190473
0.00173943
-0.000110325
0.000247832
0.00183051
-0.000272112
0.0003661
0.00169473
-0.000943186
0.000364339
0.00362027
-0.000130456
-8.28323e-05
0.00190487
-8.66225e-05
-5.7186e-05
0.00247302
5.97433e-05
-4.05929e-05
0.00266857
6.44273e-05
-1.61751e-05
0.00224587
8.5186e-05
3.37105e-06
0.00185536
4.37253e-05
-4.76662e-06
0.00158273
3.51551e-05
-2.88379e-05
0.00158554
2.6325e-05
-4.89718e-05
0.00132637
-8.66628e-06
-4.25061e-05
0.000539077
4.18583e-05
-1.61764e-05
-0.000435241
-0.000112326
3.94975e-06
0.00046586
-0.000111869
1.41771e-05
0.000632292
-0.000248597
6.06977e-05
0.000136163
-2.71798e-05
-7.9018e-05
0.00102348
-4.68902e-06
-6.51746e-05
0.00104833
9.62704e-06
-7.01048e-05
0.00114788
2.65709e-05
-7.3919e-05
0.000686745
2.89599e-05
-8.35306e-05
0.000548139
2.00336e-05
-9.00824e-05
0.000438913
7.85119e-05
-8.35431e-05
-0.000460799
6.08224e-05
-5.91923e-05
-0.000263129
5.52823e-05
-4.32778e-05
-0.000555513
5.09904e-05
-4.36637e-05
-0.00116335
1.07992e-05
-4.57603e-05
-0.00129471
-4.3103e-05
-4.40455e-05
-0.0018122
-8.59606e-06
-4.80531e-05
-0.00147255
4.18138e-06
-2.25379e-05
-0.00207368
-0.00162945
-4.08787e-05
0.00260501
-0.00144913
-3.05537e-05
0.0032128
-0.00156386
3.35907e-05
0.00250657
-0.000947407
-3.89443e-05
0.003623
-0.00143773
6.6779e-06
0.00330747
-0.00173007
0.000144667
0.0022136
-0.000904033
0.000344263
0.00401569
-0.000947595
5.36055e-05
0.00383177
-0.00168118
1.29204e-05
0.00286761
-0.00170874
6.03154e-05
0.00267713
-0.000237873
0.000418127
0.00456014
-0.000652106
0.000279123
0.00439378
-0.00106457
0.000235941
0.00427676
-0.00147671
8.01073e-05
0.00403678
-0.00149939
-0.000118781
0.00366593
-0.000310324
0.000526436
0.00511743
-0.000325629
0.000317025
0.00501129
-0.000721368
0.000210339
0.0047406
-0.00095259
0.000142385
0.00449607
-0.00112735
3.95654e-05
0.00451903
-0.0014002
4.09594e-05
0.00367825
-0.000178132
0.000804118
0.00558561
-0.000180227
0.000654511
0.0054246
-0.000354118
0.000518155
0.00535597
-0.000660317
0.000425042
0.00523397
-0.000812451
0.000233678
0.00486198
-0.000898943
0.00018862
0.00460151
-0.00145755
0.000169809
0.00388199
-0.000138148
0.00103393
0.00632291
-0.000182211
0.000834613
0.00628504
-6.32721e-05
0.000747473
0.0062543
-0.000269649
0.000602238
0.00622841
-0.000417781
0.00047583
0.00613866
-0.000689087
0.000387689
0.00572834
-0.000925827
0.000316501
0.00478394
-0.00128039
0.000209137
0.00346381
-8.03575e-05
0.00132061
0.00617613
-5.89006e-05
0.00125537
0.00626928
-4.33235e-05
0.00126623
0.00653492
8.92723e-05
0.00127697
0.00664444
-7.33745e-06
0.0010851
0.00683867
-0.000339584
0.000870514
0.00683362
-0.000613915
0.000683334
0.00633743
-0.000989311
0.000440997
0.00537729
-0.00124728
0.000422851
0.00445817
-0.000179581
0.000731123
0.00608534
-1.23614e-06
0.000625323
0.00591612
6.10785e-06
0.000500084
0.00591901
3.57359e-05
0.000728608
0.00581967
0.000353454
0.000855723
0.00642057
0.000192356
0.00121685
0.00743839
-6.52597e-05
0.00121368
0.00828066
-0.000368431
0.00106362
0.00860671
-0.000878253
0.000631721
0.00882102
-0.000781875
-4.24431e-05
0.00780792
0.000298751
0.000165588
0.00503519
-3.69179e-05
0.000145766
0.00555617
4.28971e-05
5.30897e-05
0.00575882
0.000121717
6.90671e-05
0.00557452
7.70416e-05
0.000102063
0.00516531
0.000104169
0.000222179
0.00536385
0.00020081
0.000441996
0.00609762
0.000251037
0.000639691
0.00658273
0.000213766
0.00103407
0.00850333
-0.000218104
0.001065
0.0100065
-0.000640689
0.000642131
0.00579903
-7.24727e-05
0.000105625
0.00346006
-0.000135085
0.000157148
0.00381858
-7.16171e-08
0.000155157
0.00421452
0.000147129
0.000150333
0.00423701
9.92684e-05
8.20106e-05
0.00399752
-7.63404e-08
6.78328e-05
0.00337175
5.38243e-05
0.000143797
0.00283446
0.000180486
0.00023509
0.0040776
6.48029e-05
0.00035397
0.00398466
0.00011918
0.000384275
0.0044273
-9.2593e-05
0.000619753
0.0057638
-0.00153198
0.000529227
0.00651576
-0.000256059
-0.000178355
0.00175681
-2.94371e-05
-9.6199e-05
0.00198837
-1.2131e-05
-2.48469e-05
0.0028784
2.38554e-05
3.10988e-05
0.00298483
0.000132252
8.75945e-06
0.0031963
-2.99998e-05
5.2439e-05
0.00304239
3.77749e-06
6.73042e-05
0.0026316
-1.01414e-05
6.69592e-05
0.00146684
-1.65665e-06
0.000146128
0.00130043
4.21333e-05
0.000220203
0.00176679
-0.000208179
0.00031145
0.00198101
-0.00035392
0.000411414
0.00188971
-0.000922161
0.000419449
0.00387438
-4.32171e-05
-0.000108732
0.0016414
-0.000125021
-6.14873e-05
0.0020295
-5.44897e-05
-5.81887e-05
0.00255473
1.22908e-05
-4.33497e-05
0.00271003
7.53216e-05
-1.91705e-05
0.00222205
8.98175e-05
-1.11578e-05
0.00179197
0.000132029
-5.63121e-06
0.00150601
4.13021e-05
-3.21211e-05
0.00158821
2.14989e-05
-4.70458e-05
0.00136469
-1.34289e-05
-3.6959e-05
0.000624279
1.87647e-05
-8.78904e-06
-0.000430467
-0.000131785
1.16349e-05
0.000557085
-0.000145695
2.22042e-05
0.000807885
-0.000245821
6.40547e-05
0.000322111
-7.15141e-05
-9.90507e-05
0.00107057
-2.21764e-05
-7.13189e-05
0.0010518
-5.78485e-07
-6.52621e-05
0.00104407
1.11057e-05
-7.01527e-05
0.00113301
2.54319e-05
-7.46519e-05
0.000652434
2.72057e-05
-8.49024e-05
0.000515753
2.11767e-05
-9.29564e-05
0.00042715
7.9971e-05
-8.44484e-05
-0.000515514
5.81043e-05
-5.7983e-05
-0.000306528
5.00434e-05
-4.36398e-05
-0.00060558
4.4425e-05
-4.35889e-05
-0.00120994
5.63901e-06
-4.57874e-05
-0.00129861
-5.45346e-05
-4.45136e-05
-0.0017612
-1.77464e-05
-4.83535e-05
-0.00142899
6.27652e-06
-2.29779e-05
-0.00205698
-0.00172663
-2.16966e-06
0.00244922
-0.00117267
-0.000317409
0.00320995
-0.00144175
-8.78213e-05
0.00257072
-0.00101923
0.000121046
0.00359632
-0.0013966
7.4659e-05
0.0031306
-0.00160607
-3.8462e-05
0.00242103
-0.000951805
7.61458e-05
0.00378161
-0.000970134
5.65068e-05
0.00359571
-0.00147506
6.46007e-05
0.00318142
-0.0018262
0.000154131
0.00217692
-0.000561562
0.000545127
0.00422783
-0.000864092
0.000236436
0.00404484
-0.00104513
4.98675e-05
0.00377539
-0.00152649
1.7573e-05
0.00296013
-0.00166694
3.74067e-05
0.00280727
-0.000376603
0.000483331
0.00458607
-0.000412489
0.000397699
0.00452842
-0.000749165
0.000288726
0.00436879
-0.00107882
0.000221732
0.00426137
-0.00140734
5.97011e-05
0.00413828
-0.00133095
-0.000125386
0.00372206
-0.000284533
0.000707823
0.00514815
-0.000323045
0.000462243
0.00511503
-0.000413597
0.000319017
0.00496209
-0.000815765
0.000244776
0.00479366
-0.000919904
0.000163555
0.00447954
-0.000887773
6.92141e-05
0.0044796
-0.00147455
5.43375e-05
0.00364091
-0.000148757
0.000831683
0.00554848
-0.000124217
0.00071339
0.00546874
-0.000215247
0.000638485
0.00545624
-0.000391432
0.000494015
0.00540878
-0.00071022
0.000422664
0.00533743
-0.000859133
0.000214775
0.00500587
-0.00086764
0.000213684
0.00449944
-0.00133384
9.93469e-05
0.0038361
-8.53204e-05
0.00106011
0.00619348
-7.79321e-05
0.000895792
0.00628077
-0.000106862
0.000827503
0.00626854
-0.000105627
0.000772118
0.00627932
-0.000195141
0.000593968
0.00629808
-0.000493201
0.000465996
0.00621397
-0.00072433
0.000392359
0.0057629
-0.00110728
0.000278241
0.0048328
-0.00134866
0.000181289
0.0033839
-6.17386e-05
0.00115367
0.00642225
-1.77957e-06
0.00111872
0.00631332
-3.58639e-05
0.00120099
0.00637649
0.000152301
0.00122877
0.00646655
5.5568e-05
0.00126653
0.0067609
-9.5393e-06
0.0010756
0.00683547
-0.000322871
0.000826827
0.00694774
-0.000621903
0.000670054
0.00636184
-0.00102147
0.000501238
0.00544212
-0.00121816
0.000475333
0.00441912
3.98345e-05
0.000713803
0.00638482
-0.000193381
0.000704711
0.00616241
2.56322e-05
0.000494441
0.00593903
6.28615e-05
0.000862777
0.0058437
0.000180415
0.000799881
0.00577214
0.000186954
0.00125049
0.00630415
0.000166329
0.00130505
0.0073815
-0.000146923
0.00119416
0.00854807
-0.000622581
0.000942078
0.0091327
-0.000902642
0.000344281
0.00911883
-0.000479839
-0.000132031
0.0077791
-6.99201e-05
0.000167451
0.00469644
-7.38775e-05
0.000141987
0.00497776
3.35318e-05
6.84615e-05
0.00550719
0.000170256
4.67318e-05
0.00575802
0.000157906
8.2812e-05
0.00553513
-1.20555e-05
0.00018409
0.00521538
9.37213e-05
0.000422455
0.0053435
0.000269299
0.000678975
0.00596953
0.000153882
0.00104885
0.00647887
-1.97631e-05
0.00125859
0.00844867
-0.000515773
0.00118657
0.00988522
-0.000848252
0.000612109
0.00450319
-0.000171908
6.40778e-05
0.00311232
-6.68597e-05
0.000159202
0.00349543
-7.93234e-05
0.000215747
0.00382519
6.83045e-05
0.000197951
0.00412245
0.000131941
0.000185821
0.00413351
8.20759e-05
0.000174182
0.00377909
0.000106457
0.000156389
0.00325648
-0.000103253
0.000242194
0.00292047
0.00014973
0.000352779
0.0039274
5.39936e-05
0.000511056
0.00384602
-6.62414e-05
0.000474356
0.00443076
-0.00023528
0.000766202
0.00540819
-0.00155443
0.000584739
0.00656329
-0.00011648
-0.000145084
0.00207287
-0.000233994
-0.000142813
0.0019124
-9.9533e-05
-0.000125342
0.00213391
-0.000102517
2.15473e-05
0.00300276
5.3632e-05
-8.6521e-06
0.00302393
0.000151417
5.23484e-05
0.00313479
0.000114962
0.000102368
0.00302439
-1.00327e-05
4.36887e-05
0.0027062
-5.4167e-05
0.000100825
0.00158781
-4.17645e-05
0.000160924
0.00138804
-1.30284e-05
0.000271924
0.00183811
-0.000201181
0.000342921
0.0021189
-0.000471753
0.000451448
0.00218377
-0.000883153
0.000478533
0.00403318
-2.0526e-05
-0.000159859
0.00151777
-1.98618e-05
-9.51431e-05
0.00167274
-0.000120993
-5.94123e-05
0.00215114
-4.54591e-05
-5.60335e-05
0.00262398
9.98837e-05
-5.0165e-05
0.00266657
4.77032e-05
-3.3445e-05
0.00222384
9.0253e-05
-1.50673e-05
0.00173233
8.67809e-05
-6.37875e-06
0.00147346
4.35202e-05
-3.67295e-05
0.00159247
1.72051e-05
-4.8065e-05
0.00140864
-5.28257e-05
-3.20534e-05
0.000744794
-2.07001e-05
-3.74125e-06
-0.000388752
-0.000150601
1.8422e-05
0.000656934
-0.000163119
3.03811e-05
0.000986931
-0.000232012
6.24047e-05
0.000497994
-9.09148e-05
-0.00011569
0.000934366
-5.55284e-05
-8.80792e-05
0.00114286
-1.87175e-05
-7.09296e-05
0.00107618
-3.06438e-06
-6.44393e-05
0.00104142
1.41448e-05
-6.99755e-05
0.00111419
2.71351e-05
-7.45066e-05
0.000614903
2.688e-05
-8.61831e-05
0.0004821
2.23691e-05
-9.56985e-05
0.000416031
8.08121e-05
-8.48768e-05
-0.000569432
5.54229e-05
-5.69015e-05
-0.000348689
4.52129e-05
-4.40156e-05
-0.000650366
3.80467e-05
-4.35569e-05
-0.00125022
6.81677e-07
-4.58464e-05
-0.00129796
-6.63475e-05
-4.53047e-05
-0.0016979
-2.43914e-05
-4.83927e-05
-0.00137919
6.41957e-06
-2.45925e-05
-0.00203881
-0.00185948
7.74305e-05
0.00203291
-0.00135757
0.000183991
0.0029815
-0.00141057
-0.000162051
0.0025801
-0.00133317
-0.000194482
0.00346734
-0.00105562
-0.000292456
0.0030736
-0.00147559