/*--------------------------------*- C++ -*----------------------------------*\
  =========                 |
  \\      /  F ield         | OpenFOAM: The Open Source CFD Toolbox
   \\    /   O peration     | Website:  https://openfoam.org
    \\  /    A nd           | Version:  7
     \\/     M anipulation  |
\*---------------------------------------------------------------------------*/
FoamFile
{
    version     2.0;
    format      ascii;
    class       volVectorField;
    location    "2";
    object      U;
}
// * * * * * * * * * * * * * * * * * * * * * * * * * * * * * * * * * * * * * //

dimensions      [0 1 -1 0 0 0 0];

internalField   nonuniform List<vector> 
18750
(
(0.957376 1.07884 0.319565)
(0.0773977 2.05347 0.116589)
(0.876872 0.384079 -1.26382)
(1.0318 1.04728 0.290811)
(-2.56014 2.61861 -0.188239)
(-0.498461 1.33464 -1.07033)
(0.109482 2.02397 0.148567)
(1.1194 0.618696 -1.06417)
(0.901901 0.414644 -1.25598)
(1.07635 1.07729 0.285887)
(-4.83575 2.57828 0.519657)
(-1.53255 1.03115 -0.266094)
(-2.58193 2.20525 0.0677253)
(-0.530686 0.417383 -0.875781)
(-0.518797 1.39564 -0.997736)
(0.142932 1.92016 0.199516)
(0.623299 0.992195 -1.01515)
(1.13776 0.584641 -1.07046)
(0.862438 0.45864 -1.24619)
(1.0341 1.1791 0.232056)
(-4.94164 1.9964 -0.475013)
(-4.1559 1.77908 0.0648637)
(-4.65542 2.76072 0.525908)
(-1.30862 1.14927 -0.136035)
(-1.49113 0.956766 -0.191716)
(-2.47793 1.63522 0.354607)
(-0.124306 0.434991 -0.909604)
(-0.495397 0.411682 -0.842652)
(-0.515528 1.42659 -0.956671)
(0.171042 1.75606 0.252285)
(0.272286 1.46235 -1.25065)
(0.613869 0.978871 -1.00239)
(1.14761 0.56431 -1.07174)
(0.839314 0.522085 -1.24539)
(1.03055 1.19372 0.216611)
(-3.68138 -2.47562 0.576509)
(-6.11021 0.268606 1.34585)
(-5.72505 0.782096 -0.300554)
(-3.50617 1.2538 -0.337457)
(-4.35814 1.56985 -0.320805)
(-4.97156 2.15163 0.265762)
(-1.21292 1.74215 -0.718689)
(-1.29225 1.03154 0.0631986)
(-1.45674 0.816275 -0.0284527)
(-2.36 0.931275 0.547935)
(-0.192653 0.774421 -0.890569)
(-0.0687035 0.41766 -0.859213)
(-0.465375 0.396666 -0.792458)
(-0.533009 1.41665 -0.87234)
(0.178756 1.54881 0.298002)
(0.0438272 0.868086 -1.06579)
(0.258304 1.44395 -1.19377)
(0.609987 0.959311 -0.997656)
(1.12831 0.531469 -1.07109)
(0.904081 0.510692 -1.2527)
(1.04781 1.21197 0.198448)
(-2.76626 -1.75532 0.116313)
(-4.58016 -1.65354 0.875481)
(-3.85477 -2.38746 0.403401)
(-5.74035 0.750504 3.24129)
(-5.97977 0.467777 1.35383)
(-6.05725 -0.101552 -0.0882598)
(-2.91979 -0.0966053 -1.03615)
(-3.63902 1.14183 -0.61278)
(-4.5116 1.47743 -0.524616)
(-5.07145 1.33625 0.221663)
(-1.13203 0.403454 -0.24216)
(-1.31594 1.4964 -0.596974)
(-1.24763 0.856282 0.235083)
(-1.36475 0.656696 0.17301)
(-2.09261 0.0340384 0.699475)
(-0.753997 0.205602 -0.476702)
(-0.23088 0.730052 -0.865651)
(-0.0188544 0.346422 -0.752353)
(-0.430298 0.362399 -0.726099)
(-0.526914 1.34705 -0.734986)
(0.202046 1.31594 0.36421)
(-0.0403993 0.985728 -1.45366)
(0.0208583 0.931947 -1.00438)
(0.244975 1.41132 -1.14921)
(0.608123 0.93412 -0.998942)
(1.16541 0.504613 -1.07253)
(0.902438 0.546882 -1.2419)
(1.05306 1.22707 0.187076)
(-2.73319 -1.74817 -0.0624368)
(-3.20708 -1.77039 0.230518)
(-2.60035 -1.98134 0.0809549)
(-5.40427 -0.241544 1.75937)
(-4.80423 -1.68901 0.899117)
(-4.04006 -2.31068 0.360569)
(-4.17744 1.72523 1.74941)
(-6.23792 0.649318 2.7487)
(-5.94266 0.226619 1.90906)
(-6.31829 -0.393195 -0.0421377)
(-2.71356 0.640623 -0.752765)
(-2.93261 -0.081921 -1.03315)
(-3.74246 0.850338 -0.706711)
(-4.66267 1.5234 -0.590406)
(-5.08177 0.531883 0.587964)
(-1.37064 -0.43414 -0.111035)
(-1.09583 0.257112 -0.259326)
(-1.34455 1.24148 -0.526338)
(-1.19647 0.661459 0.376729)
(-1.23572 0.442158 0.385647)
(-1.86411 -0.624274 0.804136)
(-0.99358 0.26068 -0.362779)
(-0.79334 0.259137 -0.526527)
(-0.265026 0.665407 -0.820955)
(0.0325339 0.232305 -0.612158)
(-0.390359 0.304597 -0.646174)
(-0.516764 1.20638 -0.599825)
(0.220248 1.06581 0.41863)
(0.0589961 0.939169 -1.77535)
(-0.0624156 0.985959 -1.38787)
(0.000921276 0.968249 -0.935517)
(0.237906 1.37211 -1.12084)
(0.602918 0.909482 -0.998365)
(1.1854 0.496528 -1.03622)
(0.888933 0.602518 -1.21725)
(1.00896 1.26277 0.16646)
(-2.48974 -2.19319 -0.062664)
(-3.22785 -1.61559 0.736278)
(-2.65639 -1.69413 0.0611844)
(-3.85601 -0.779176 0.69693)
(-3.04745 -1.84142 0.144877)
(-2.53958 -2.16773 0.111422)
(-5.04563 0.224686 2.02894)
(-5.42514 -0.0841929 1.8851)
(-4.7479 -2.06874 0.629984)
(-4.16484 -2.34934 0.154719)
(-3.35488 0.399783 1.02332)
(-4.35204 1.37256 1.61885)
(-6.23592 0.413128 2.54104)
(-6.13941 -0.676697 1.7485)
(-6.38672 -1.07546 0.246222)
(-2.25392 0.874343 -1.0646)
(-2.74301 0.508072 -0.784579)
(-2.921 -0.19711 -1.07511)
(-3.80691 0.357824 -0.705907)
(-5.02174 1.75 -0.76371)
(-4.73094 -0.935015 1.00312)
(-1.79243 0.144406 0.194428)
(-1.2359 -0.473966 -0.210187)
(-1.05929 0.357437 -0.0566138)
(-1.40025 1.06075 -0.411382)
(-1.1505 0.366754 0.503374)
(-1.02139 0.204177 0.638815)
(-1.67838 -1.05026 0.857303)
(-1.05933 0.392451 -0.007014)
(-1.01682 0.232344 -0.335103)
(-0.846318 0.258821 -0.529829)
(-0.284961 0.574723 -0.760498)
(0.100494 0.118393 -0.466608)
(-0.344286 0.216606 -0.565483)
(-0.498856 0.992251 -0.418396)
(0.242873 0.810961 0.461578)
(-0.369963 0.18861 -1.64553)
(0.0416414 0.971182 -1.77215)
(-0.0879454 0.970983 -1.31629)
(-0.0160246 0.971408 -0.874047)
(0.23307 1.33434 -1.10672)
(0.596329 0.88276 -0.997388)
(1.20028 0.478457 -0.990664)
(0.898117 0.625865 -1.19758)
(1.09617 1.20324 0.16403)
(-2.20772 -2.03497 -0.171251)
(-3.12476 -1.14881 0.545587)
(-2.50105 -2.05283 0.0731099)
(-3.32755 -0.940563 0.431424)
(-3.02614 -1.90902 0.547934)
(-2.45729 -1.96285 0.146503)
(-3.8879 -0.0646754 1.58328)
(-3.75447 -0.765778 0.755446)
(-2.9856 -1.85596 -0.0506514)
(-2.49333 -2.41551 0.126898)
(-4.72744 0.640316 2.72226)
(-4.97032 1.27417 2.12432)
(-5.43882 -0.00603178 1.82838)
(-4.91011 -1.72167 0.926754)
(-4.35578 -2.33907 0.0328727)
(-3.87272 -0.596119 0.986585)
(-3.43121 -0.148773 0.42288)
(-4.50646 1.03003 1.49251)
(-6.35474 0.0437223 2.44135)
(-6.16747 -0.673101 1.32231)
(-6.18668 -2.29789 0.590689)
(-2.63665 0.241035 -0.0636745)
(-2.22311 0.840124 -1.15716)
(-2.85906 0.443827 -0.713028)
(-2.84771 -0.490261 -0.878621)
(-3.72902 0.0716118 -0.477287)
(-5.1378 1.6588 -0.703188)
(-4.58363 -1.5072 1.17127)
(-1.69713 0.766204 -0.12944)
(-1.77421 -0.299532 0.371046)
(-1.11142 -0.434308 -0.251436)
(-1.05944 0.279056 0.0913054)
(-1.42049 1.00445 -0.239845)
(-1.07998 0.176256 0.629017)
(-0.838653 -0.0618329 0.875069)
(-1.35657 -1.72071 0.930906)
(-1.31461 0.543188 -0.135243)
(-1.05363 0.409621 -0.000321805)
(-1.0524 0.2065 -0.305167)
(-0.876325 0.231402 -0.515129)
(-0.305936 0.439422 -0.684036)
(0.167394 0.0498557 -0.337572)
(-0.282348 0.092499 -0.469912)
(-0.465781 0.790177 -0.2864)
(0.265592 0.547739 0.50312)
(-0.438283 -0.00110089 -1.85596)
(-0.363182 0.19258 -1.70775)
(0.020574 0.98624 -1.76042)
(-0.114696 0.943542 -1.243)
(-0.0268654 0.947752 -0.836192)
(0.230129 1.29826 -1.10412)
(0.589125 0.857268 -0.995225)
(1.22384 0.471312 -0.974673)
(0.90022 0.603224 -1.19662)
(0.997414 1.25925 0.112515)
(-2.21927 -1.33535 0.0382253)
(-2.76809 -1.74732 -0.313721)
(-2.15483 -2.19746 -0.152182)
(-2.98976 -1.07486 0.451865)
(-3.01029 -1.44224 0.398785)
(-2.33203 -2.20386 0.0691567)
(-3.59215 -0.977115 0.547254)
(-3.44544 -0.972878 0.440355)
(-2.97053 -1.97527 0.551869)
(-2.38792 -2.00227 0.13794)
(-4.25497 0.467385 2.01789)
(-4.0047 0.376595 1.77001)
(-3.61009 -0.892566 0.977911)
(-2.94191 -1.94409 0.146429)
(-2.36344 -2.73987 0.21991)
(-4.20713 0.98827 2.17919)
(-4.73627 0.533675 2.79423)
(-5.09706 0.840275 2.31187)
(-5.19346 -0.717691 1.82695)
(-4.74328 -1.96298 0.993709)
(-4.4622 -2.44979 -0.364928)
(-3.7178 -1.01883 0.851482)
(-3.80174 -0.493634 0.31894)
(-3.60872 -0.565676 0.507173)
(-4.5588 0.802099 1.53085)
(-6.54967 -0.230265 2.24775)
(-6.61576 0.303074 0.660311)
(-5.63129 -3.74181 0.863069)
(-2.95092 0.171186 -0.0483668)
(-2.64021 0.211168 -0.303851)
(-2.21449 0.83891 -1.04219)
(-2.98593 0.229109 -0.578988)
(-2.72819 -0.707089 -0.936524)
(-3.62151 -0.265858 -0.346483)
(-4.76297 0.203029 0.381555)
(-4.2051 -2.46623 1.17835)
(-1.97507 0.363838 -0.188533)
(-1.84643 0.259364 0.227556)
(-1.71355 -0.478508 0.458547)
(-0.997646 -0.351235 -0.199335)
(-0.947883 0.183474 0.284131)
(-1.47207 0.911384 -0.0264808)
(-1.07581 0.0295715 0.754482)
(-0.672852 -0.527333 1.23551)
(-1.01786 -2.34802 1.02674)
(-1.60815 0.575111 0.202817)
(-1.33887 0.327186 -0.074652)
(-1.08806 0.343105 -0.0144962)
(-1.09256 0.206915 -0.273683)
(-0.891623 0.194575 -0.470537)
(-0.308459 0.279553 -0.60798)
(0.229467 0.0115276 -0.222556)
(-0.203302 -0.0640972 -0.355925)
(-0.443493 0.566568 -0.150483)
(0.281914 0.293034 0.537228)
(-0.53301 0.123789 -1.69259)
(-0.426251 0.00224972 -1.89203)
(-0.357292 0.185282 -1.78301)
(0.0016179 0.992373 -1.75006)
(-0.134415 0.908481 -1.17472)
(-0.0316158 0.910035 -0.830667)
(0.228091 1.26318 -1.10704)
(0.582559 0.833699 -0.991851)
(1.24021 0.460327 -0.949413)
(0.895839 0.648921 -1.15643)
(0.963574 1.24066 0.116056)
(-1.8165 -1.52244 0.160802)
(-2.44667 -1.44355 -0.22539)
(-2.12248 -1.55576 -0.0473798)
(-3.18175 -0.638673 0.185115)
(-2.78391 -1.87673 -0.081443)
(-2.08306 -2.286 -0.201996)
(-3.35793 -0.537076 0.514944)
(-3.12144 -0.929667 0.211253)
(-3.04917 -1.32203 0.446828)
(-2.33517 -2.18468 0.0571934)
(-3.70714 0.590132 0.961621)
(-3.68998 -0.591114 0.650125)
(-3.45213 -1.3421 0.347135)
(-2.80554 -2.07208 0.415105)
(-2.25678 -1.98411 0.17307)
(-3.97638 0.7713 2.00726)
(-4.21981 0.378799 2.01445)
(-4.10167 -0.495202 1.618)
(-3.45075 -1.30262 0.987435)
(-2.74654 -2.22772 0.478158)
(-1.98928 -3.07695 0.323464)
(-4.0462 0.651644 1.75355)
(-4.21135 1.17932 1.11911)
(-4.93586 0.303357 2.7159)
(-5.03835 0.154451 2.51718)
(-5.3851 0.364621 1.78874)
(-5.0839 -1.47626 1.38772)
(-4.65822 -2.40026 -0.322305)
(-3.68264 -0.360303 0.792251)
(-3.61375 -0.529573 0.300029)
(-3.67178 -0.542845 -0.243835)
(-3.79652 -0.936642 0.00701545)
(-4.7003 0.273435 1.29712)
(-6.58765 0.284987 1.27779)
(-7.00186 -0.260737 1.01148)
(-4.95488 -4.52799 0.495383)
(-3.02201 -0.0740218 0.216159)
(-3.03725 0.028242 -0.0712002)
(-2.48978 -0.0233815 -0.567566)
(-2.24376 0.781483 -0.750257)
(-3.05914 0.12031 -0.534357)
(-2.61392 -1.15979 -0.681942)
(-3.12739 -1.1263 0.107205)
(-4.14332 -1.39198 1.42263)
(-3.50815 -3.46065 0.970736)
(-1.85473 0.678632 -0.179211)
(-2.02415 -0.0501563 -0.181498)
(-1.86437 -0.0575899 0.332836)
(-1.6734 -0.458582 0.438146)
(-0.912637 -0.290894 -0.136775)
(-0.972394 0.150551 0.357381)
(-1.47495 0.690269 0.190317)
(-1.02383 -0.273988 0.899985)
(-0.517874 -0.920164 1.57268)
(-0.661224 -2.8684 1.17856)
(-1.7089 0.349435 -0.107844)
(-1.59287 0.487968 0.103592)
(-1.31664 0.28456 -0.0672566)
(-1.08318 0.538705 0.0268148)
(-1.11697 0.144116 -0.301395)
(-0.909261 0.0697593 -0.419808)
(-0.298278 0.114318 -0.534565)
(0.279748 -0.019623 -0.112969)
(-0.130783 -0.205691 -0.253638)
(-0.411047 0.329534 -0.0201077)
(0.282731 0.0827242 0.548407)
(-0.780429 0.178348 -1.47253)
(-0.524691 0.11238 -1.72997)
(-0.413735 0.0117508 -1.92819)
(-0.346885 0.148573 -1.86416)
(-0.0143352 1.01434 -1.72129)
(-0.150175 0.866182 -1.12088)
(-0.0295358 0.859561 -0.848404)
(0.225528 1.23184 -1.10711)
(0.576056 0.808676 -0.989603)
(1.26216 0.456467 -0.942013)
(0.903991 0.605365 -1.14965)
(0.902469 1.29225 0.121614)
(-1.69428 -1.47681 0.0806291)
(-1.5519 -2.34566 0.263522)
(-1.70627 -1.63113 0.215025)
(-2.89952 -0.643274 0.29024)
(-2.39204 -1.60248 -0.161197)
(-2.00092 -1.72954 -0.07078)
(-3.2314 -0.634256 0.141731)
(-2.89964 -1.24198 0.172074)
(-2.83485 -1.72099 -0.0886395)
(-2.04401 -2.31484 -0.192488)
(-3.42324 0.0711337 0.628996)
(-3.26782 -0.87096 0.4751)
(-2.96332 -1.44157 0.184327)
(-2.82972 -1.63986 0.393205)
(-2.13588 -2.31648 0.0586796)
(-3.74898 0.528818 1.11699)
(-3.71885 -0.2138 0.856905)
(-3.87124 -0.660462 0.667873)
(-3.52584 -1.55468 0.403583)
(-2.67247 -2.18184 0.308346)
(-1.9933 -2.09255 0.273302)
(-4.14257 0.539371 2.26142)
(-3.98742 0.619162 2.00346)
(-4.2437 0.514316 2.13827)
(-4.03537 -1.16174 1.41216)
(-3.46509 -1.59278 1.05561)
(-2.97982 -2.10302 0.349517)
(-2.06614 -2.98404 0.404669)
(-3.67693 -0.0472376 1.55127)
(-3.87316 0.193147 1.64748)
(-4.2187 1.24147 0.912812)
(-5.03695 0.148315 2.60803)
(-5.25472 0.422576 2.72713)
(-5.47433 -0.443672 1.61377)
(-4.94338 -2.07561 1.17889)
(-4.62402 -2.41252 -0.28221)
(-3.79261 0.0185425 0.5469)
(-3.77078 -0.330889 0.500964)
(-3.59891 0.253234 -0.14691)
(-3.70634 -0.543954 -0.357374)
(-3.83688 -1.25635 0.0186612)
(-4.6801 -0.139796 1.26932)
(-6.26869 -0.019709 1.12092)
(-6.81923 -1.15315 1.88682)
(-4.17209 -4.83116 0.161562)
(-2.76748 -0.147465 0.168311)
(-3.0198 -0.398643 0.285699)
(-3.0056 -0.134061 -0.265387)
(-2.26213 -0.387272 -0.37017)
(-2.13185 0.441366 -0.227718)
(-2.98943 -0.224229 -0.408717)
(-2.60691 -1.23173 -0.0984617)
(-2.89054 -1.51181 0.343142)
(-3.88179 -1.7671 1.71814)
(-2.96691 -4.11487 1.1384)
(-1.70729 0.174702 -0.196449)
(-1.97812 -0.08349 0.0173325)
(-2.12951 0.389189 -0.442773)
(-1.88226 -0.253233 0.335791)
(-1.67004 -0.451997 0.237754)
(-0.863363 -0.322925 -0.038087)
(-0.880646 0.0640935 0.687266)
(-1.40778 0.391805 0.495175)
(-0.904972 -0.665584 1.07772)
(-0.367895 -1.32181 1.81958)
(-0.285451 -3.42406 0.913863)
(-1.59017 0.217429 -0.503977)
(-1.74562 0.29738 -0.130924)
(-1.58566 0.435905 0.107003)
(-1.31894 0.146465 -0.0559832)
(-1.18825 0.289065 -0.0295905)
(-1.12471 0.0811044 -0.340884)
(-0.91937 0.0114717 -0.3771)
(-0.286337 -0.051708 -0.468207)
(0.332969 -0.0372422 -0.00387346)
(-0.0661218 -0.352943 -0.157676)
(-0.375042 0.0728581 0.109199)
(0.252838 -0.113076 0.572383)
(-0.692819 0.137046 -1.60428)
(-0.797359 0.196589 -1.5106)
(-0.514695 0.104939 -1.76008)
(-0.406736 0.0302523 -1.96081)
(-0.335102 0.0657978 -1.95255)
(-0.0361506 0.999518 -1.69806)
(-0.160424 0.820463 -1.08644)
(-0.0141959 0.799357 -0.86944)
(0.221452 1.20369 -1.10126)
(0.571122 0.78642 -0.985108)
(1.27201 0.45968 -0.926131)
(0.872011 0.642025 -1.13758)
(0.81583 1.33045 0.0447899)
(-1.83199 -1.15187 0.0392414)
(-2.46201 -0.798781 -0.00603961)
(-1.58198 -1.55789 0.11061)
(-2.48941 -0.993378 -0.0398435)
(-1.6257 -2.23286 0.191585)
(-1.48348 -1.79228 0.20926)
(-2.83865 -0.332486 0.238215)
(-2.84642 -0.836616 0.294784)
(-2.38494 -1.59631 -0.151431)
(-1.99136 -1.81427 -0.0970133)
(-3.41594 -0.0523267 0.329913)
(-3.1648 -0.875835 0.151146)
(-2.89707 -1.26372 0.149764)
(-2.75766 -1.81514 0.0812303)
(-2.244 -2.0288 -0.0448377)
(-3.48787 -0.059422 0.73122)
(-3.47895 -0.49276 0.633581)
(-3.21363 -1.14153 0.474568)
(-2.94423 -1.5736 0.156798)
(-2.70654 -1.87924 0.438991)
(-2.00872 -2.42791 0.056585)
(-3.97195 0.482503 1.33303)
(-3.89848 0.0188067 1.05421)
(-3.86889 -0.599002 0.81141)
(-3.93812 -0.913829 0.675575)
(-3.51105 -1.69331 0.400444)
(-2.63346 -2.23791 0.404706)
(-1.73662 -2.26137 0.324769)
(-4.07601 0.469563 2.45674)
(-4.16518 0.314933 2.32669)
(-4.185 0.427026 2.03123)
(-4.42665 -0.543411 1.79689)
(-4.09032 -1.32829 1.5047)
(-3.59391 -2.11503 0.973562)
(-2.95209 -2.42618 0.177421)
(-1.93492 -3.10472 0.51691)
(-3.84784 -0.297487 1.27099)
(-3.62918 -0.511942 1.34712)
(-3.63114 -0.454571 1.67764)
(-4.1123 0.597564 1.62578)
(-4.99864 -0.209903 2.65097)
(-5.28407 -0.881579 2.63616)
(-5.46131 -1.10509 1.66972)
(-4.34459 -3.68892 0.453588)
(-4.35265 -2.88588 -0.226054)
(-3.56646 0.160952 0.488809)
(-3.8621 -0.0793333 0.360371)
(-3.78859 -0.0315214 0.187736)
(-3.62284 -0.0604055 -0.0104827)
(-3.76909 -0.419565 -0.195175)
(-3.98238 -1.25956 -0.0140413)
(-4.5356 -0.435308 1.49752)
(-5.91017 -0.717824 1.83531)
(-6.71199 -1.8509 2.74256)
(-2.87122 -5.30565 -0.940331)
(-2.51632 -0.304426 0.390343)
(-2.79056 -0.260093 0.170673)
(-2.94072 -0.589435 0.202615)
(-2.84168 -0.293024 -0.538583)
(-2.15591 -0.591841 -0.174976)
(-1.94652 -0.121255 0.339332)
(-2.75669 -0.752849 0.345745)
(-2.41838 -1.46785 0.385429)
(-2.68289 -1.65379 0.787342)
(-3.4592 -2.3517 2.19132)
(-2.02682 -4.9203 0.446537)
(-1.27994 -0.498462 -0.678818)
(-1.79057 -0.313744 -0.0600825)
(-1.9154 0.582521 -0.169276)
(-2.1241 -0.41705 0.256257)
(-1.9192 -0.373458 0.280966)
(-1.6741 -0.480471 0.183801)
(-0.84294 -0.363709 0.0816877)
(-0.844017 -0.330768 0.69947)
(-1.43381 0.334314 0.611173)
(-0.762635 -1.04467 1.23379)
(-0.200403 -1.64168 2.00104)
(-0.0841627 -3.77845 0.84048)
(-1.20595 -0.322313 -0.643239)
(-1.55161 -0.421549 -0.418118)
(-1.80124 0.18041 -0.171374)
(-1.56575 0.147407 -0.0808919)
(-1.30817 0.0793278 -0.0126181)
(-1.17304 0.26909 -0.022508)
(-1.1366 0.0274986 -0.372771)
(-0.972462 0.0665399 -0.323965)
(-0.283794 -0.192398 -0.403602)
(0.367125 -0.0373842 0.0789085)
(0.00846872 -0.516823 -0.0655819)
(-0.340445 -0.138755 0.20046)
(0.216898 -0.248237 0.5883)
(-0.66009 -0.22531 -1.41233)
(-0.703536 0.144826 -1.61065)
(-0.79828 0.171893 -1.55081)
(-0.504313 0.0924153 -1.78235)
(-0.396597 0.0399761 -2.00686)
(-0.314097 0.0157638 -2.03615)
(-0.0568156 1.00124 -1.65505)
(-0.16246 0.771175 -1.07128)
(0.00609986 0.741679 -0.877649)
(0.217584 1.1762 -1.0905)
(0.568256 0.766118 -0.981282)
(1.29167 0.43862 -0.947238)
(0.854368 0.651382 -1.12149)
(0.84685 1.26641 0.0911962)
(-1.70062 -1.1135 0.0388942)
(-2.18992 -1.28625 -0.0935888)
(-1.59277 -1.3938 0.0436309)
(-2.39405 -0.651791 -0.0107704)
(-2.21968 -1.12206 0.0301167)
(-1.32375 -1.77926 0.100693)
(-2.63394 -0.770453 0.228899)
(-2.47231 -1.19924 -0.0547253)
(-1.61301 -2.0982 0.115389)
(-1.45919 -1.79141 0.0952093)
(-3.0126 -0.0371128 0.376731)
(-2.86389 -0.544082 0.198242)
(-2.67897 -1.2804 0.28504)
(-2.4126 -1.60404 -0.139344)
(-1.92937 -1.94472 -0.125551)
(-3.3288 -0.136932 0.451826)
(-3.28814 -0.397876 0.308851)
(-3.01122 -1.16753 0.169686)
(-2.73693 -1.61067 0.134415)
(-2.60818 -2.03323 -0.0608251)
(-1.81442 -2.40128 -0.0432421)
(-3.6011 -0.147646 0.926957)
(-3.53799 -0.358474 0.727284)
(-3.46012 -0.667806 0.638847)
(-3.26676 -1.23071 0.481585)
(-2.91468 -1.6656 0.101754)
(-2.69396 -1.90732 0.454363)
(-1.81522 -2.58026 -0.00885303)
(-4.09065 -0.0931216 1.38789)
(-4.08485 -0.586602 1.17954)
(-4.05063 -0.391158 1.03776)
(-3.99659 -0.87576 0.80455)
(-3.86349 -1.14167 0.645231)
(-3.42458 -1.81597 0.431571)
(-2.50481 -2.41708 0.459014)
(-1.53725 -2.44273 0.204377)
(-3.9787 -0.0413909 2.23657)
(-4.074 -0.057849 2.30384)
(-4.29425 -0.24647 2.22185)
(-4.36964 -0.154652 2.06257)
(-4.42466 -0.673466 1.72929)
(-4.15636 -1.821 1.29694)
(-3.58234 -2.51379 1.07358)
(-2.65068 -3.04095 0.388473)
(-1.63523 -3.4094 0.632281)
(-3.91495 -0.195475 1.40796)
(-3.83256 -0.124015 1.21002)
(-3.70143 -0.251697 1.20358)
(-3.68306 -0.650483 1.66461)
(-4.37203 0.336173 1.75984)
(-4.9906 -0.647654 2.41189)
(-5.27069 -1.13728 2.63768)
(-5.18454 -2.32823 1.70361)
(-4.69742 -3.92544 1.05985)
(-4.37027 -3.01154 -0.104462)
(-3.30399 1.24217 0.2449)
(-3.63515 0.194409 0.353106)
(-3.76791 -0.11046 0.217208)
(-3.70249 -0.224924 0.169042)
(-3.47691 -0.52232 0.282555)
(-3.40307 -1.00152 0.631807)
(-3.96257 -1.05994 0.619894)
(-4.54623 -0.689746 1.78974)
(-6.03969 -0.897768 1.86636)
(-6.48022 -2.56913 3.48855)
(-1.96667 -5.5394 -1.11775)
(-2.21321 0.283165 0.0595514)
(-2.49756 -0.327673 0.459102)
(-2.72817 -0.46636 0.342708)
(-2.92605 -0.0727591 0.434493)
(-2.66945 -0.592464 -0.19616)
(-2.1746 -0.555675 -0.0303851)
(-1.89111 -0.289018 0.543367)
(-2.74395 -0.804282 0.574127)
(-2.18558 -1.72421 0.805311)
(-2.52322 -1.81698 0.986931)
(-2.94647 -2.86705 2.72159)
(-1.20982 -5.53412 -0.121846)
(-1.09056 -0.89045 -0.812048)
(-1.3044 -0.546503 -0.445427)
(-1.87879 0.198883 -0.0680477)
(-2.05901 0.0985682 0.0189927)
(-2.15045 0.181 -0.0914025)
(-1.93821 -0.695391 0.0661557)
(-1.65662 -0.577724 0.195197)
(-0.836012 -0.49777 0.182887)
(-0.662326 -0.315602 1.01251)
(-1.4437 0.086247 0.812287)
(-0.653343 -1.35228 1.3415)
(-0.0475537 -1.94767 2.12245)
(-0.068152 -3.87813 1.11929)
(-1.06517 -0.272533 -0.546672)
(-1.2648 -0.461356 -0.472496)
(-1.61837 -0.268269 -0.422827)
(-1.82543 0.19725 -0.177374)
(-1.52346 0.280531 0.0613498)
(-1.28197 0.0330704 -0.0607385)
(-1.16648 0.227831 -0.0752848)
(-1.14669 -0.0344151 -0.415684)
(-1.00792 -0.0514889 -0.216255)
(-0.28492 -0.298776 -0.350562)
(0.390548 -0.0362653 0.14001)
(0.0938402 -0.672625 0.013997)
(-0.299305 -0.37841 0.262812)
(0.174703 -0.36559 0.579331)
(-0.659275 -0.757237 -1.94849)
(-0.651513 -0.214771 -1.41722)
(-0.708985 0.140457 -1.60812)
(-0.801052 0.153945 -1.58667)
(-0.488787 0.0836161 -1.80304)
(-0.386149 0.0538787 -2.04876)
(-0.296706 -0.0216942 -2.11815)
(-0.0792764 1.00146 -1.60192)
(-0.158809 0.719716 -1.06843)
(0.0299081 0.690311 -0.875198)
(0.214229 1.14682 -1.0783)
(0.562696 0.748608 -0.982187)
(1.29454 0.431228 -0.967085)
(0.839138 0.625681 -1.10995)
(0.698568 1.34999 0.0399036)
(-1.58739 -0.997071 -0.0861489)
(-2.10792 -0.710402 -0.0981569)
(-1.67042 -1.21997 -0.0461327)
(-2.41271 -0.616188 0.0437324)
(-2.00655 -1.45434 0.00676777)
(-1.51606 -1.46405 -0.0744322)
(-2.53841 -0.587685 -0.0465669)
(-2.34535 -0.75065 -0.0184019)
(-1.96002 -1.37366 0.126045)
(-1.15145 -1.88569 0.0765024)
(-2.69585 -0.21825 0.381642)
(-2.6069 -0.980651 0.139191)
(-2.41232 -1.3038 -0.0815682)
(-1.65469 -2.02876 0.0113846)
(-1.419 -1.83612 0.0733807)
(-2.98662 -0.257072 0.4083)
(-2.91051 -0.474593 0.381117)
(-2.80057 -0.929829 0.209607)
(-2.65997 -1.34442 0.306154)
(-2.41756 -1.58152 -0.123167)
(-2.03192 -1.94151 -0.142335)
(-3.35861 -0.0110848 0.639592)
(-3.31607 -0.317207 0.410043)
(-3.17202 -0.840938 0.312746)
(-2.94077 -1.41032 0.186177)
(-2.70483 -1.64786 0.153797)
(-2.61927 -1.92252 0.113541)
(-1.67873 -2.51154 -0.0797785)
(-3.61987 -0.0241773 0.950701)
(-3.63486 -0.164833 0.938042)
(-3.53137 -0.452959 0.702079)
(-3.39054 -0.99376 0.6228)
(-3.24508 -1.48987 0.471509)
(-2.84545 -1.8291 0.0556258)
(-2.60845 -1.87353 0.457822)
(-1.75356 -2.59296 -0.0306476)
(-4.01972 0.123266 1.38035)
(-4.12775 -0.321232 1.29822)
(-4.08012 -0.643645 1.14738)
(-4.0466 -0.816903 0.977705)
(-3.9824 -1.18066 0.769536)
(-3.77175 -1.57775 0.639258)
(-3.3238 -2.04454 0.47071)
(-2.40279 -2.60068 0.411623)
(-1.23449 -2.63593 0.0600281)
(-4.16217 -0.0948334 1.92341)
(-4.04839 -0.161967 1.98711)
(-4.07261 -0.487715 2.18846)
(-4.29452 -0.437444 2.18496)
(-4.38283 -0.793615 2.00594)
(-4.36696 -1.14728 1.65642)
(-4.06401 -2.32516 1.14829)
(-3.45474 -2.68933 1.1208)
(-2.36813 -3.36083 0.70224)
(-1.45165 -3.50819 0.660689)
(-4.04646 0.184473 1.25309)
(-3.98697 -0.653452 1.36483)
(-3.925 -0.417141 0.804766)
(-3.90407 -0.373306 1.22216)
(-3.898 -0.636331 1.6629)
(-4.33189 -0.522372 2.34222)
(-4.89823 -1.04607 2.28091)
(-5.21251 -1.9915 2.47683)
(-4.89047 -3.29171 1.45738)
(-4.31721 -4.57606 0.0320813)
(-4.77979 -2.34459 -0.026507)
(-3.01296 -0.508132 0.535329)
(-3.21431 -0.432677 0.357255)
(-3.65146 -0.0595339 0.104937)
(-3.7548 -0.129761 0.134757)
(-3.69471 -0.178666 0.144372)
(-3.24037 -0.996374 0.44289)
(-3.38561 -1.18295 1.16903)
(-4.04202 -0.828596 1.21628)
(-4.41823 -0.981781 2.84725)
(-5.68311 -1.68234 1.90274)
(-5.86893 -3.28329 3.78473)
(-0.0967293 -5.68224 -1.52511)
(-2.07655 -0.767578 0.541749)
(-2.27523 0.256786 0.454243)
(-2.40078 -0.736068 0.596638)
(-2.64344 -0.69058 0.503222)
(-2.71437 -0.354455 0.594797)
(-2.46193 -0.810774 0.330554)
(-2.07654 -0.686015 0.33305)
(-1.80819 -0.674169 0.858443)
(-2.4158 -1.19394 1.1126)
(-1.98269 -1.77963 1.38368)
(-1.99851 -2.36462 1.32397)
(-2.43008 -3.23093 3.01271)
(-1.06939 -5.80167 0.359416)
(-1.36963 -0.036685 -0.668128)
(-1.21229 -0.976197 -0.43748)
(-1.25821 -0.645258 -0.205609)
(-1.88472 -0.732136 0.270884)
(-1.97945 -0.153119 0.168334)
(-2.215 0.110004 0.30359)
(-2.06342 0.319365 0.420209)
(-1.64765 -0.621307 0.327881)
(-0.830016 -0.584846 0.327097)
(-0.852824 -0.420633 1.1029)
(-1.24978 -0.13558 1.2454)
(-0.577998 -1.4606 1.61239)
(0.0891639 -2.19998 2.27335)
(-0.00647738 -3.85188 1.47235)
(-0.996918 -0.506459 -1.00135)
(-1.05588 -0.356475 -0.503738)
(-1.32101 -0.481722 -0.462833)
(-1.67629 -0.35303 -0.449983)
(-1.82978 0.0362696 -0.349434)
(-1.56562 0.087654 -0.0924671)
(-1.23214 0.0370661 -0.0255991)
(-1.17824 0.219176 -0.079405)
(-1.14538 -0.102086 -0.48314)
(-0.994249 -0.13612 -0.187716)
(-0.275998 -0.421425 -0.294779)
(0.396869 -0.0459658 0.184959)
(0.194223 -0.836873 0.087406)
(-0.249438 -0.598054 0.31413)
(0.115723 -0.448141 0.520558)
(-0.581005 -0.846416 -2.19591)
(-0.68511 -0.706603 -1.92583)
(-0.675765 -0.213577 -1.41361)
(-0.717741 0.0944747 -1.57442)
(-0.80014 0.140312 -1.60119)
(-0.474313 0.0639829 -1.80766)
(-0.380646 0.0702295 -2.08415)
(-0.285026 -0.0442794 -2.19654)
(-0.101341 0.998364 -1.53892)
(-0.144732 0.664226 -1.07707)
(0.0559127 0.635986 -0.880146)
(0.210065 1.11697 -1.06594)
(0.554333 0.737505 -0.979529)
(1.28322 0.410892 -0.984923)
(0.822388 0.629565 -1.09351)
(0.642753 1.33833 0.00458943)
(-1.31785 -1.06578 0.0693337)
(-1.94789 -0.711518 0.0892177)
(-1.60404 -1.00982 -0.132088)
(-2.19157 -0.732067 -0.327008)
(-2.03653 -0.918589 -0.0787915)
(-1.55221 -1.36871 -0.0892845)
(-2.39581 -0.743721 0.126635)
(-2.24562 -1.02545 0.108505)
(-1.90363 -1.49167 0.00988926)
(-1.30968 -1.62823 -0.0664235)
(-2.53413 -0.580747 0.166916)
(-2.38993 -0.779912 0.109461)
(-2.22918 -1.08831 -0.0121008)
(-1.8924 -1.40345 0.173577)
(-1.05692 -1.90852 0.113458)
(-2.75501 -0.249825 0.525392)
(-2.72478 -0.534881 0.328461)
(-2.54037 -1.08742 0.158158)
(-2.22695 -1.55487 0.0264902)
(-1.53532 -2.16277 -0.00306902)
(-1.52169 -1.76186 0.0379209)
(-3.05034 -0.362155 0.494481)
(-2.96308 -0.576651 0.438264)
(-2.90555 -0.614164 0.381993)
(-2.69179 -1.25201 0.157019)
(-2.51513 -1.54629 0.253216)
(-2.43605 -1.52033 -0.103607)
(-1.88567 -2.1592 -0.105756)
(-3.34572 -0.0749086 0.827081)
(-3.30952 -0.358351 0.64834)
(-3.2931 -0.700385 0.417296)
(-3.13661 -1.00083 0.36806)
(-2.86992 -1.6647 0.203576)
(-2.50295 -1.90666 0.0519816)
(-2.34721 -2.12707 0.215272)
(-1.68445 -2.43337 -0.0740951)
(-3.59661 -0.112154 1.01879)
(-3.58349 -0.161452 0.919677)
(-3.50572 -0.383317 0.932409)
(-3.50135 -0.649559 0.654874)
(-3.44824 -0.974204 0.626062)
(-3.17534 -1.71411 0.458243)
(-2.81885 -2.07118 0.0801435)
(-2.08554 -2.44098 0.294011)
(-1.53074 -2.66557 -0.00973116)
(-3.92031 0.202749 1.45722)
(-3.99315 -0.0966008 1.33384)
(-4.04341 -0.360427 1.29187)
(-4.04141 -0.307072 1.26636)
(-4.02162 -0.852206 0.964996)
(-3.96829 -1.22775 0.754331)
(-3.83196 -1.57059 0.60486)
(-3.18389 -2.33883 0.395301)
(-2.28301 -2.65901 0.469348)
(-1.14236 -2.6542 0.0226141)
(-4.16106 0.225973 1.69332)
(-4.15154 -0.284703 1.87009)
(-4.14637 -0.205069 1.90118)
(-4.17455 -0.601959 2.05553)
(-4.21566 -0.394088 2.24624)
(-4.31175 -1.10959 2.03524)
(-4.31381 -1.40599 1.62964)
(-4.0589 -2.3327 1.07128)
(-3.15796 -3.14652 1.0227)
(-2.32438 -3.30501 0.825674)
(-1.21554 -3.57862 0.819496)
(-4.09325 0.476238 1.38246)
(-4.16344 -0.0364601 1.45701)
(-3.96607 -0.53795 1.19658)
(-3.6751 -0.220903 2.16422)
(-3.80363 -0.724584 1.52095)
(-3.52456 -0.899681 2.73503)
(-4.08817 -0.88459 2.8165)
(-4.6566 -1.54388 2.4054)
(-5.06066 -2.81849 2.25441)
(-4.81041 -4.08006 1.27679)
(-3.74846 -5.31673 -0.288528)
(-4.63877 -2.50328 0.160378)
(-2.90069 0.135623 0.234902)
(-3.00947 -0.745304 0.393503)
(-3.29928 -0.0912576 0.277895)
(-3.6081 0.171875 0.0868037)
(-3.8573 -0.265915 0.201098)
(-3.64789 -0.405343 0.361756)
(-3.45102 -0.543339 0.891285)
(-3.14398 -1.82637 1.77652)
(-4.01251 -0.842154 2.11046)
(-4.18573 -1.31736 3.82569)
(-5.16281 -2.47251 2.22278)
(-5.30158 -4.01121 4.07874)
(1.02646 -5.5149 -1.8511)
(-1.30621 -0.656766 -0.156035)
(-1.95903 -0.892863 0.576896)
(-2.2681 -0.423371 0.697721)
(-2.46299 -0.82054 0.730625)
(-2.68112 -0.473563 0.577738)
(-2.68921 -0.382986 0.667723)
(-2.23913 -1.00803 0.565408)
(-1.98692 -0.98344 0.614607)
(-1.67494 -1.1517 1.12743)
(-2.05315 -1.6458 1.51721)
(-1.81003 -2.02698 1.63687)
(-1.90735 -2.41399 2.05731)
(-1.76668 -3.63831 2.83997)
(-0.616658 -5.64529 0.416785)
(-1.37919 0.446404 -0.580197)
(-1.29688 0.146368 -0.905943)
(-1.07153 -1.05882 -0.898218)
(-1.35264 -0.599661 -0.0749763)
(-1.98259 0.362599 -0.283018)
(-1.94842 -0.520608 0.11998)
(-2.20017 -0.105325 0.494635)
(-2.0872 -0.540043 0.0246222)
(-1.67407 -0.723619 0.472569)
(-0.855106 -0.705101 0.375388)
(-0.666216 -0.761221 1.16545)
(-1.14943 -0.689622 1.26966)
(-0.587844 -1.59724 1.79623)
(0.0828098 -2.35155 2.42759)
(-0.00861803 -3.77762 1.74301)
(-0.658005 -0.829129 -1.2749)
(-0.966245 -0.444958 -0.977776)
(-1.07599 -0.389762 -0.475122)
(-1.3543 -0.619582 -0.412589)
(-1.69137 -0.460271 -0.361235)
(-1.82253 -0.0520205 -0.41346)
(-1.54284 -0.0769344 -0.199255)
(-1.23274 0.0113786 -0.030997)
(-1.16646 0.190999 -0.0836319)
(-1.15082 -0.155765 -0.525392)
(-1.00279 -0.220839 -0.166714)
(-0.276909 -0.544518 -0.25686)
(0.391 -0.068222 0.217708)
(0.326595 -1.0071 0.168498)
(-0.19066 -0.791697 0.348528)
(0.0535606 -0.523658 0.420577)
(-0.931386 -0.30936 -2.59695)
(-0.588703 -0.901332 -2.12563)
(-0.665547 -0.742326 -1.88547)
(-0.690398 -0.221476 -1.39999)
(-0.714714 0.0370594 -1.54692)
(-0.802715 0.0898633 -1.58263)
(-0.450074 0.0438043 -1.8135)
(-0.368952 0.0713662 -2.11782)
(-0.278315 -0.0491246 -2.26362)
(-0.120984 0.989869 -1.47083)
(-0.129522 0.618938 -1.0797)
(0.0911939 0.594393 -0.886526)
(0.204114 1.08903 -1.05814)
(0.546242 0.714093 -0.997248)
(1.27826 0.399788 -0.989053)
(0.768687 0.645176 -1.10345)
(0.635039 1.3128 0.0238128)
(-1.23472 -1.09826 -0.00831485)
(-1.6497 -0.888179 0.0180052)
(-1.3139 -1.01605 0.00234149)
(-1.91437 -0.91292 0.138323)
(-1.92323 -0.740909 -0.0735079)
(-1.61404 -1.11925 -0.165675)
(-2.2316 -0.559883 0.083921)
(-2.25265 -0.680813 -0.362593)
(-1.85662 -1.22646 -0.0579022)
(-1.43773 -1.45749 -0.105582)
(-2.48325 -0.604338 0.196018)
(-2.32042 -0.868736 0.111144)
(-2.20797 -1.06647 0.0900986)
(-1.70315 -1.66458 0.0207008)
(-1.14441 -1.75887 -0.05163)
(-2.53242 -0.380711 0.447466)
(-2.51092 -0.72763 0.150556)
(-2.33787 -0.909243 0.174323)
(-2.09999 -1.3689 0.0557761)
(-1.74715 -1.5139 0.255172)
(-0.88341 -1.96195 0.114124)
(-2.80074 -0.267993 0.482307)
(-2.77437 -0.462856 0.516772)
(-2.66943 -0.930555 0.254791)
(-2.39129 -1.33456 0.191858)
(-2.16303 -1.63739 0.0790395)
(-1.57376 -2.11355 -0.0270027)