/*--------------------------------*- C++ -*----------------------------------*\
  =========                 |
  \\      /  F ield         | OpenFOAM: The Open Source CFD Toolbox
   \\    /   O peration     | Website:  https://openfoam.org
    \\  /    A nd           | Version:  7
     \\/     M anipulation  |
\*---------------------------------------------------------------------------*/
FoamFile
{
    version     2.0;
    format      ascii;
    class       volScalarField;
    location    "7.5";
    object      p;
}
// * * * * * * * * * * * * * * * * * * * * * * * * * * * * * * * * * * * * * //

dimensions      [0 2 -2 0 0 0 0];

internalField   nonuniform List<scalar> 
18750
(
-66.6472
-65.005
-66.9554
-66.7926
-63.1739
-66.0573
-65.3317
-67.7449
-67.0107
-66.9316
-58.4341
-64.2869
-63.476
-66.7636
-66.1879
-65.6915
-66.8751
-67.7939
-67.0813
-67.0607
-55.921
-60.3668
-59.2247
-64.6298
-64.6775
-63.8493
-65.4274
-66.8374
-66.3364
-66.0948
-65.1265
-66.9488
-67.8604
-67.1642
-67.1934
-54.7064
-59.0232
-55.6492
-61.7119
-61.1906
-59.9514
-64.1539
-64.9954
-65.0782
-64.4155
-64.4389
-65.5893
-66.9653
-66.571
-66.5549
-65.2473
-65.2324
-67.0241
-67.9371
-67.2599
-67.3388
-51.6039
-57.0323
-54.5467
-60.2323
-60.2738
-55.7731
-61.5754
-62.3491
-61.4831
-60.0399
-63.9364
-64.4027
-65.3123
-65.5438
-65.1096
-65.5469
-64.7097
-65.7544
-67.1557
-66.8675
-67.1108
-64.8338
-65.2725
-65.338
-67.1023
-68.0178
-67.3655
-67.4981
-48.5294
-50.0694
-51.7978
-56.8595
-58.1751
-53.9103
-60.4718
-61.2705
-60.2116
-55.8476
-62.2704
-62.2379
-62.624
-61.9707
-61.1982
-64.424
-64.3104
-64.7346
-65.7097
-66.0185
-65.7485
-65.0477
-65.7388
-64.9946
-65.984
-67.3609
-67.1761
-67.7075
-64.9404
-64.8589
-65.2993
-65.4263
-67.1806
-68.0941
-67.4783
-67.6644
-47.7657
-48.4973
-48.5703
-51.8457
-49.2741
-51.9404
-57.6994
-55.9836
-58.7566
-53.6032
-62.191
-61.1867
-61.8453
-60.2229
-56.0831
-63.0958
-62.5313
-62.6919
-63.0545
-62.572
-62.2512
-64.1013
-64.6037
-64.752
-65.1744
-66.1163
-66.4292
-66.421
-64.7525
-65.1562
-65.9279
-65.2905
-66.2743
-67.5701
-67.4867
-68.3466
-65.0516
-64.9465
-64.8808
-65.3296
-65.5183
-67.2621
-68.1751
-67.5938
-67.8266
-46.4692
-47.4587
-47.6745
-48.9525
-48.54
-48.4721
-51.9588
-51.7265
-50.7581
-51.4338
-58.3007
-57.3543
-56.4641
-57.8487
-53.2084
-63.0025
-62.1978
-61.7041
-62.024
-60.1022
-56.0186
-63.2587
-63.2097
-62.8437
-63.0395
-63.6835
-63.5116
-62.6304
-63.8836
-64.2824
-64.881
-65.1434
-65.6473
-66.4803
-66.6983
-67.0717
-64.3719
-64.7788
-65.2799
-66.1213
-65.5735
-66.5572
-67.7887
-67.7886
-68.9699
-65.0815
-65.0372
-64.954
-64.9024
-65.371
-65.6066
-67.3496
-68.2632
-67.7087
-67.976
-45.4905
-46.409
-46.3557
-47.4075
-47.434
-47.5856
-49.143
-48.9711
-48.8325
-48.5631
-51.546
-51.5415
-51.3429
-50.8628
-51.3677
-58.6828
-58.36
-57.4672
-56.4633
-57.4365
-53.769
-63.0265
-62.797
-62.1647
-61.747
-62.3237
-59.5996
-55.7827
-62.9403
-63.437
-63.1563
-63.1024
-63.484
-64.079
-63.7639
-63.1055
-63.2121
-63.6107
-64.3954
-65.2018
-65.5427
-66.058
-66.8347
-67.041
-67.6531
-64.0333
-64.3494
-64.8142
-65.4119
-66.3117
-65.8374
-66.8645
-68.0039
-68.0705
-69.4728
-65.0501
-65.0591
-65.0243
-64.9596
-64.9249
-65.4168
-65.6766
-67.4245
-68.342
-67.8198
-68.1091
-44.8033
-45.5082
-45.4771
-46.4238
-46.3004
-46.2172
-47.2275
-47.2165
-47.2703
-47.3425
-49.3992
-49.1538
-48.929
-48.9965
-49.0026
-51.6118
-51.9918
-50.7906
-51.0661
-50.836
-51.8075
-58.4217
-58.4266
-57.6696
-57.2571
-55.6382
-57.1154
-53.7171
-62.1601
-62.7158
-62.7517
-62.376
-61.4485
-62.0902
-59.2735
-55.8847
-61.5291
-62.6772
-63.4018
-63.2756
-63.5449
-63.7922
-64.3082
-63.5053
-63.6064
-62.6062
-63.0466
-63.6708
-64.5912
-65.4476
-65.8444
-66.4896
-67.1634
-67.35
-68.2045
-63.8782
-63.9894
-64.3363
-64.8641
-65.5329
-66.4755
-66.094
-67.1632
-68.2243
-68.3574
-69.8761
-65.1486
-65.0423
-65.0397
-65.0137
-64.9718
-64.9442
-65.4647
-65.7433
-67.4837
-68.4111
-67.9279
-68.222
-44.4329
-44.8793
-44.7067
-45.4635
-45.4322
-45.4488
-46.2475
-46.3237
-46.2146
-46.1523
-47.328
-47.0725
-47.2033
-47.2666
-47.228
-49.6402
-49.6538
-49.1283
-49.0409
-48.9855
-48.9854
-51.9078
-52.2321
-51.9502
-50.7336
-50.9905
-50.8104
-51.391
-57.6103
-58.3422
-58.225
-57.1851
-56.8668
-55.2268
-56.2724
-53.4773
-60.1304
-61.6538
-62.4885
-62.8741
-62.3772
-61.6424
-61.5587
-58.6606
-55.5092
-60.8186
-61.2399
-62.4371
-63.4303
-63.5533
-63.8959
-63.8586
-64.1918
-63.6735
-63.6717
-62.0452
-62.6548
-63.232
-63.9448
-64.7988
-65.6288
-66.1557
-66.9096
-67.4595
-67.7373
-68.6703
-63.7633
-63.8786
-63.9686
-64.3371
-64.9046
-65.6251
-66.6266
-66.3433
-67.4506
-68.4413
-68.6094
-70.205
-65.1637
-65.1256
-65.032
-65.0195
-64.9944
-64.9908
-64.9588
-65.5078
-65.815
-67.5398
-68.4768
-68.0317
-68.312
-44.1479
-44.4402
-44.3287
-44.8021
-44.8562
-44.6164
-45.4603
-45.3801
-45.3666
-45.2854
-46.4699
-46.2931
-46.2054
-46.2404
-46.0644
-47.6494
-47.2865
-47.1469
-47.3368
-47.2083
-47.1035
-49.9882
-49.9212
-49.5802
-49.0082
-48.9689
-48.9223
-48.9431
-51.6769
-51.8425
-52.0758
-51.7501
-51.1515
-50.9945
-50.8412
-51.0086
-56.6201
-57.7127
-58.4408
-57.6735
-56.3685
-56.151
-54.7026
-55.5335
-53.2747
-59.0186
-59.6612
-61.1497
-62.0613
-63.0981
-62.3061
-61.4904
-60.8906
-58.4234
-54.7506
-60.2383
-60.7644
-60.9976
-62.2251
-63.5928
-63.7618
-64.2548
-64.1921
-64.1297
-63.5988
-62.987
-62.0218
-62.1711
-62.9447
-63.34
-64.1228
-64.913
-65.8399
-66.4505
-67.2282
-67.6536
-67.827
-68.5953
-63.571
-63.7957
-63.8917
-63.9719
-64.3603
-64.9567
-65.7224
-66.7521
-66.5749
-67.7414
-68.7026
-68.8057
-70.4016
-65.4604
-65.164
-65.1046
-65.0194
-64.9999
-64.9648
-65.0056
-64.9701
-65.5349
-65.9034
-67.5981
-68.5303
-68.1252
-68.3948
-43.7877
-44.1335
-44.1458
-44.3395
-44.3927
-44.3401
-44.9602
-44.7717
-44.8381
-44.5526
-45.4479
-45.3926
-45.3117
-45.3289
-45.276
-46.6782
-46.3733
-46.2018
-46.0658
-46.0987
-46.0561
-47.7724
-47.4759
-47.3733
-47.0145
-47.2091
-47.1785
-47.0838
-50.1328
-50.0955
-49.685
-49.4709
-48.9483
-48.7839
-48.7823
-49.0318
-51.8042
-52.001
-51.6081
-51.9148
-51.6254
-51.0022
-50.8277
-51.1555
-51.0373
-56.026
-57.0075
-57.6546
-58.1154
-57.071
-55.8262
-55.7565
-54.9278
-55.0088
-53.0191
-58.2142
-58.9526
-59.4802
-60.5007
-61.5353
-63.2219
-62.3629
-61.4026
-60.0435
-57.5615
-54.4813
-59.7365
-60.0442
-60.7186
-60.9728
-62.1669
-63.4852
-63.7981
-64.5104
-64.5207
-63.8759
-63.3861
-62.4536
-63.0293
-62.7605
-62.3481
-62.9289
-63.3431
-64.1915
-65.0893
-66.014
-66.6347
-67.5221
-67.7994
-67.8985
-68.5351
-63.5225
-63.6959
-63.8331
-63.9084
-63.9697
-64.3921
-65.0139
-65.8011
-66.8506
-66.7769
-68.0044
-68.9257
-68.9401
-70.5039
-65.4496
-65.4699
-65.1683
-65.0794
-65.0103
-64.9829
-64.9376
-65.0189
-64.9759
-65.5374
-66.0021
-67.6558
-68.5668
-68.2182
-68.4655
-43.5602
-43.8992
-43.7824
-44.1046
-44.121
-44.1501
-44.4814
-44.3777
-44.353
-44.3034
-45.0211
-44.8381
-44.722
-44.7465
-44.5956
-45.5652
-45.4304
-45.2318
-45.2525
-45.1632
-45.3455
-46.6185
-46.5724
-46.401
-46.0694
-45.8683
-45.891
-45.9438
-47.9103
-47.6554
-47.5398
-47.3445
-46.9953
-47.0924
-46.9842
-47.0345
-50.2135
-50.2743
-50.0829
-49.6154
-49.3994
-48.7487
-48.7532
-48.332
-48.9811
-52.0971
-51.9026
-51.9843
-52.0372
-52.0002
-51.6092
-51.0559
-50.7711
-51.0516
-50.9152
-55.7359
-55.7934
-56.6558
-57.2576
-58.0369
-56.7826
-55.4855
-55.7853
-54.8058
-54.1504
-52.9723
-57.9253
-58.1226
-58.4617
-59.2256
-59.946
-61.1658
-62.9851
-62.3725
-61.3819
-59.207
-57.4358
-54.9765
-60.7629
-60.0917
-59.9752
-60.4826
-61.0109
-62.1035
-63.0735
-63.5764
-64.4736
-64.1234
-63.6172
-63.2124
-62.3666
-63.5688
-63.3782
-63.1668
-62.3478
-62.8743
-63.449
-64.3633
-65.3222
-66.1885
-66.7607
-67.7839
-67.9073
-67.8389
-68.2516
-63.3118
-63.6908
-63.8228
-63.9066
-63.9372
-63.9869
-64.4251
-65.0696
-65.8539
-66.9101
-66.9713
-68.2372
-69.0901
-69.0382
-70.5801
-64.0679
-65.4318
-65.48
-65.1719
-65.0575
-65.0052
-64.97
-64.9099
-65.0314
-64.9759
-65.5182
-66.0634
-67.713
-68.6011
-68.3059
-68.5275
-43.3102
-43.5926
-43.5184
-43.8082
-43.8118
-43.6964
-44.1984
-44.0695
-44.1595
-44.0291
-44.5298
-44.4158
-44.3128
-44.3229
-44.2069
-45.079
-44.9443
-44.7973
-44.6618
-44.6518
-44.5457
-45.6896
-45.6022
-45.3913
-45.2618
-45.165
-45.0243
-45.282
-46.8848
-46.7234
-46.486
-46.3209
-46.036
-45.6438
-45.8056
-45.791
-48.1406
-47.8936
-47.6683
-47.4764
-47.2406
-47.1139
-47.0134
-46.8952
-46.788
-50.2113
-50.3465
-50.3705
-49.9951
-49.519
-49.3101
-48.8592
-48.6132
-48.2225
-48.7487
-52.4856
-52.0801
-51.8777
-51.9409
-52.0933
-51.8964
-51.6139
-51.1992
-50.7732
-50.8922
-50.6648
-55.527
-55.7373
-55.673
-56.592
-57.0899
-57.5194
-56.4432
-55.3287
-55.6877
-54.3207
-53.642
-52.3984
-58.2155
-57.6964
-58.0177
-58.2771
-59.0451
-59.512
-60.5488
-62.5069
-61.9536
-60.8647
-58.5215
-57.3035
-54.467
-62.6294
-61.3498
-60.541
-60.1501
-60.613
-61.104
-62.1146
-62.813
-63.2971
-64.4904
-63.958
-63.3451
-62.7906
-61.8385
-62.8862
-63.6911
-63.6683
-62.9259
-62.3834
-62.8972
-63.5864
-64.6113
-65.5259
-66.3181
-66.96
-67.9606
-68.0005
-67.8092
-67.7935
-63.2645
-63.4437
-63.824
-63.9457
-64.0215
-63.978
-64.0405
-64.4501
-65.127
-65.9026
-66.9551
-67.1595
-68.474
-69.316
-69.1963
-70.5598
-63.4938
-64.088
-65.4094
-65.483
-65.1956
-65.0445
-65.0055
-64.9623
-64.8786
-65.0267
-64.9717
-65.495
-66.0955
-67.7686
-68.6497
-68.3796
-68.6007
-43.101
-43.2601
-43.2954
-43.5518
-43.5051
-43.4235
-43.8345
-43.7973
-43.788
-43.6474
-44.23
-44.1257
-44.0595
-44.1216
-44.0633
-44.5894
-44.4966
-44.4008
-44.2802
-44.2737
-44.2224
-45.1739
-45.0232
-44.9305
-44.7943
-44.6216
-44.5963
-44.5634
-45.7286
-45.6812
-45.4591
-45.351
-45.1882
-45.0988
-45.115
-45.2501
-47.0278
-46.8336
-46.7571
-46.4145
-46.2035
-46.0664
-45.4401
-45.7983
-45.857
-48.3015
-48.0293
-47.693
-47.624
-47.3532
-47.2608
-47.0226
-46.938
-46.5882
-46.6491
-50.4161
-50.3972
-50.3737
-50.276
-49.888
-49.3764
-49.1831
-48.8127
-48.4759
-48.2134
-48.7007
-53.0218
-52.5588
-52.0775
-51.6623
-52.1181
-52.1181
-51.9438
-51.3331
-50.95
-50.454
-50.9818
-50.2769
-56.0125
-55.5282
-55.779
-56.406
-56.4552
-57.0981
-56.9541
-56.0812
-55.2033
-55.9796
-53.9187
-53.5412
-51.8374
-59.6882
-58.6694
-58.0243
-57.6693
-58.3458
-58.628
-59.1864
-60.1484
-61.9617
-61.6202
-60.0281
-58.1844
-56.5278
-54.158
-63.3459
-63.0455
-61.7898
-60.9169
-60.4062
-60.6068
-61.2402
-62.2999
-63.0551
-63.4113
-64.4273
-63.7271
-63.0253
-62.2786
-61.1793
-62.6465
-62.9616
-63.8459
-64.0063
-63.0946
-62.6371
-63.0349
-63.766
-64.7185
-65.6145
-66.5035
-67.2359
-68.2063
-68.1401
-67.5223
-67.2539
-63.1814
-63.3654
-63.5786
-63.9765
-64.0739
-64.1419
-64.0208
-64.1029
-64.4774
-65.1957
-65.954
-66.9978
-67.3509
-68.7601
-69.585
-69.2773
-70.4463
-63.5656
-63.5284
-64.1142
-65.3803
-65.4749
-65.213
-65.0433
-65.0116
-64.9589
-64.8598
-65.0062
-64.9623
-65.458
-66.1236
-67.8165
-68.6995
-68.4602
-68.6938
-42.9359
-43.0855
-43.0959
-43.3184
-43.2659
-43.2689
-43.5296
-43.5288
-43.4726
-43.4676
-43.8545
-43.7883
-43.7487
-43.7632
-43.6993
-44.2254
-44.1909
-44.0595
-43.9311
-44.0676
-44.0621
-44.6147
-44.5298
-44.5368
-44.3117
-44.3082
-44.2487
-44.1625
-45.2207
-45.1571
-45
-44.9249
-44.707
-44.5608
-44.5983
-44.5386
-45.9687
-45.6991
-45.6256
-45.4882
-45.4384
-45.1901
-45.0692
-45.0325
-45.1318
-47.0704
-46.9746
-46.7636
-46.6622
-46.4407
-46.2134
-45.8935
-45.4889
-45.6013
-45.7788
-48.5278
-48.1188
-48.0005
-47.7666
-47.6359
-47.4702
-47.2816
-46.9935
-46.8823
-46.4395
-46.5947
-50.7735
-50.4983
-50.2635
-49.9491
-49.9809
-49.7906
-49.3138
-49.0872
-48.6415
-48.5533
-48.2888
-48.7176
-53.2591
-53.0117
-52.4157
-51.9994
-51.8378
-52.2674
-52.052
-51.8284
-51.1105
-50.7879
-50.5943
-50.6152
-50.184
-56.8513
-55.9594
-55.7094
-55.9049
-56.3775
-56.5729
-56.6615
-56.7307
-55.8316
-55.1225
-55.2208
-54.2155
-53.0061
-52.0713
-60.7714
-59.7336
-59.0299
-58.093
-57.83
-58.034
-58.4553
-58.8551
-59.9155
-61.5001
-60.7936
-59.6604
-57.7673
-56.0642
-54.0551
-62.8861
-63.4956
-63.5682
-62.3044
-61.2044
-60.3416
-60.6796
-61.3985
-62.4721
-62.9499
-63.415
-64.3522
-63.476
-62.9375
-61.6767
-60.6279
-62.7555
-62.7314
-63.0326
-63.9847
-64.2192
-63.5228
-62.9579
-63.1672
-63.9097
-64.885
-65.7787
-66.5661
-67.3638
-68.5792
-68.2425
-67.6708
-66.8028
-63.2382
-63.2769
-63.451
-63.6995
-64.1253
-64.2173
-64.2386
-64.0962
-64.1835
-64.5129
-65.2187
-65.9987
-67.0113
-67.4938
-69.0038
-69.8185
-69.4411
-70.2586
-63.5647
-63.6215
-63.5737
-64.1573
-65.3484
-65.4565
-65.231
-65.0507
-65.0217
-64.9588
-64.8527
-64.9855
-64.9474
-65.4285
-66.145
-67.8536
-68.7308
-68.5388
-68.7616
-42.7952
-42.8995
-42.912
-43.0957
-43.0987
-43.0864
-43.3521
-43.2629
-43.31
-43.3319
-43.5507
-43.4895
-43.4501
-43.4398
-43.4949
-43.8703
-43.8531
-43.7007
-43.7223
-43.7368
-43.6466
-44.2926
-44.1875
-44.173
-44.0653
-43.9809
-44.0186
-43.9859
-44.7237
-44.6645
-44.5819
-44.4878
-44.3478
-44.2967
-44.1331
-44.1615
-45.3393
-45.2392
-45.1053
-45.0038
-44.8786
-44.6912
-44.578
-44.5609
-44.4584
-46.0914
-45.9184
-45.7917
-45.5887
-45.5419
-45.3776
-45.1225
-44.9523
-45.0447
-44.9733
-47.2768
-46.9437
-46.9561
-46.7879
-46.574
-46.3715
-46.0686
-45.8666
-45.6866
-45.6787
-45.7465
-48.9468
-48.457
-47.9546
-47.7459
-47.7326
-47.6229
-47.4764
-47.2903
-46.9802
-46.8738
-46.6345
-46.7321
-51.0405
-50.7639
-50.4179
-50.1184
-49.9136
-49.7396
-49.6982
-49.2985
-48.9368
-48.6424
-48.5882
-48.3518
-48.7422
-54.0357
-53.3959
-53.233
-52.8162
-52.0071
-52.2319
-52.1736
-52.026
-51.6314
-50.7918
-50.7669
-50.6287
-50.5005
-50.0983
-57.917
-57.1144
-56.072
-55.4122
-55.7685
-56.1424
-56.4811
-56.6543
-56.6772
-55.8238
-54.9254
-54.5639
-53.9793
-53.4031
-51.7434
-61.6825
-61.1237
-60.124
-59.2714
-58.2823
-57.8785
-58.016
-58.3655
-58.8695
-59.7964
-60.9052
-59.8659
-59.1533
-57.4879
-56.3164
-54.1078
-62.0708
-62.7956
-63.4843
-63.8492
-62.7557
-61.3427
-60.5619
-60.9085
-61.5193
-62.2302
-62.4473
-63.182
-64.2787
-63.2796
-62.6944
-61.3821
-60.2654
-62.6591
-62.85
-62.797
-63.1296
-64.046
-64.3817
-63.9263
-63.2771
-63.3686
-64.1229
-65.0531
-65.9199
-66.6192
-67.4896
-68.9141
-68.4416
-67.6453
-66.1702
-63.1318
-63.3232
-63.3568
-63.5146
-63.8094
-64.2683
-64.4098
-64.3481
-64.2027
-64.2579
-64.5651
-65.2294
-66.0023
-66.9813
-67.6341
-69.2164
-70.0434
-69.6067
-69.9819
-63.5747
-63.6175
-63.6738
-63.6219
-64.2109
-65.3203
-65.4382
-65.2617
-65.0636
-65.0376
-64.9636
-64.8395
-64.9632
-64.9297
-65.4074
-66.1676
-67.8951
-68.7548
-68.6114
-68.8013
-42.6813
-42.786
-42.8018
-42.9141
-42.8978
-42.9077
-43.1379
-43.0847
-43.1271
-43.0658
-43.3623
-43.2631
-43.2474
-43.3063
-43.314
-43.5531
-43.5436
-43.4774
-43.5174
-43.4484
-43.4408
-43.936
-43.8624
-43.818
-43.781
-43.7498
-43.6805
-43.6555
-44.3213
-44.2447
-44.2101
-44.1579
-44.0846
-43.9614
-44.0011
-43.981
-44.8118
-44.699
-44.6321
-44.5617
-44.4885
-44.3509
-44.2364
-44.209
-44.2059
-45.4339
-45.3162
-45.2226
-45.1327
-44.9668
-44.8024
-44.71
-44.4661
-44.4647
-44.58
-46.37
-46.0754
-45.8641
-45.8043
-45.6005
-45.4446
-45.2915
-45.1244
-44.9087
-45.0149
-45.0523
-47.5599
-47.2389
-47.1543
-46.8315
-46.727
-46.5903
-46.2649
-46.1659
-45.8777
-45.6517
-45.7654
-45.7273
-49.3929
-48.8864
-48.3475
-47.9952
-47.9674
-47.7773
-47.7246
-47.4322
-47.3241
-47.1092
-46.8403
-46.8072
-46.8636
-51.7714
-51.0824
-50.6052
-50.3623
-50.0755
-49.8158
-50.0786
-49.7483
-49.3279
-48.7944
-48.8124
-48.5765
-48.7176
-48.6859
-55.0224
-54.1661
-53.5276
-53.3141
-52.7833
-52.4971
-52.4574
-52.1258
-52.1361
-51.3325
-50.5892
-50.8259
-50.4937
-50.8309
-49.623
-59.0213
-58.0651
-57.1298
-56.2952
-55.5864
-55.8216
-56.2521
-56.3822
-56.7642
-56.4329
-55.507
-54.5342
-54.1399
-53.6052
-53.3748
-51.3541
-61.4235
-61.6836
-61.1853
-60.6703
-59.4206
-58.4566
-57.8322
-58.1714
-58.2272
-58.758
-59.4814
-60.1775
-59.7091
-58.6408
-57.2793
-56.2573
-54.1269
-61.9569
-62.2564
-62.844
-63.5146
-63.9902
-63.2807
-61.9581
-61.0058
-61.1032
-61.7106
-62.2984
-62.4625
-63.2312
-64.157
-63.2471
-62.1718
-60.6414
-59.8104
-62.629
-62.8529
-62.9172
-62.8344
-63.1802
-63.9813
-64.4958
-64.2129
-63.6282
-63.5357
-64.3373
-65.1866
-65.9995
-66.7256
-67.549
-69.1203
-68.436
-66.8344
-65.4514
-63.1009
-63.2496
-63.4035
-63.4186
-63.5736
-63.9137
-64.4109
-64.585
-64.4588
-64.3089
-64.3414
-64.6185
-65.2334
-65.9927
-66.9158
-67.768
-69.4462
-70.272
-69.7252
-69.6899
-63.7197
-63.6154
-63.6781
-63.7254
-63.6793
-64.2278
-65.3011
-65.4293
-65.2897
-65.0831
-65.0593
-64.9714
-64.821
-64.9373
-64.9107
-65.3767
-66.1856
-67.9328
-68.7866
-68.6772
-68.8291
-42.5524
-42.7316
-42.7086
-42.8316
-42.7833
-42.7984
-42.9402
-42.9569
-42.916
-42.8913
-43.1601
-43.1262
-43.1289
-43.1229
-43.0692
-43.3646
-43.3224
-43.3118
-43.318
-43.3128
-43.2548
-43.6169
-43.5775
-43.522
-43.456
-43.5115
-43.4393
-43.4392
-43.9345
-43.9231
-43.879
-43.7854
-43.7555
-43.7017
-43.716
-43.6519
-44.4695
-44.2705
-44.237
-44.2012
-44.1296
-44.0585
-43.9366
-43.9749
-43.9635
-44.8473
-44.8247
-44.7417
-44.6133
-44.5184
-44.4691
-44.3213
-44.2182
-44.2017
-44.2463
-45.6569
-45.4839
-45.3665
-45.2477
-45.1145
-44.9139
-44.818
-44.612
-44.4848
-44.4175
-44.6218
-46.6034
-46.372
-46.1169
-45.911
-45.8304
-45.7096
-45.4416
-45.3712
-45.1306
-44.9465
-45.0609
-45.0936
-47.8718
-47.5386
-47.2777
-47.1236
-46.8595
-46.7918
-46.5318
-46.3133
-46.065
-45.9124
-45.6987
-45.78
-45.8101
-49.8497
-49.3416
-48.8511
-48.3989
-48.267
-47.8999
-47.9901
-47.696
-47.4078
-47.2048
-47.0997
-46.672
-46.6544
-46.8201
-52.4055
-51.6851
-51.1775
-50.8292
-50.5938
-50.1182
-50.0694
-49.9637
-49.6665
-49.2583
-48.8312
-48.9268
-48.6694
-48.7024
-48.4291
-55.6044
-54.8528
-54.0456
-53.6132
-53.1601
-52.7818
-52.4173
-52.3432
-52.0641
-51.9335
-51.2063
-50.9166
-50.9207
-50.4968
-50.761
-49.4136
-59.5375
-59.0704
-58.2276
-57.486
-56.6781
-55.8268
-55.9842
-56.1714
-56.2366
-56.5108
-56.2704
-55.5574
-54.5919
-54.0144
-53.0184
-53.04
-51.3668
-61.0722
-61.2905
-61.5789
-61.1911
-60.3724
-59.6936
-58.6962
-58.0149
-58.1856
-58.1505
-58.6152
-59.3719
-59.6104
-59.2272
-58.1335
-56.8817
-56.0109
-53.9992
-62.4043
-62.1507
-62.3337
-62.8472
-63.4389
-64.0189
-63.6418
-62.4668
-61.2946
-61.2977
-61.8964
-62.5001
-62.6128
-63.238
-63.7795
-62.9481
-62.0015
-60.4192
-59.521
-62.6263
-62.7501
-62.9947
-62.9801
-62.8758
-63.226
-63.9644
-64.5055
-64.4889
-63.8514
-63.6573
-64.4993
-65.2872
-66.2084
-66.6799
-67.7002
-69.3892
-68.6758
-66.7511
-64.6629
-63.1976
-63.2212
-63.3462
-63.4759
-63.4567
-63.6396
-63.9992
-64.5492
-64.7175
-64.563
-64.4142
-64.4063
-64.649
-65.2268
-65.9855
-66.8257
-67.8679
-69.644
-70.5201
-69.7959
-69.3985
-63.7601
-63.7497
-63.6627
-63.745
-63.7775
-63.7381
-64.2477
-65.3017
-65.4268
-65.3125
-65.1098
-65.0884
-64.9805
-64.8072
-64.9074
-64.888
-65.3486
-66.1913
-67.9577
-68.8188
-68.7356
-68.8599
-42.4721
-42.5574
-42.5233
-42.7235
-42.7428
-42.6834
-42.8854
-42.8476
-42.8053
-42.8057
-42.9871
-42.951
-42.9365
-42.9496
-42.8908
-43.1658
-43.146
-43.1267
-43.1017
-43.0919
-43.0566
-43.4228
-43.3498
-43.2969
-43.3162
-43.3141
-43.2636
-43.2667
-43.6491
-43.6584
-43.549
-43.5169
-43.4392
-43.4798
-43.4335
-43.4125
-44.0283
-43.968
-43.995
-43.8128
-43.823
-43.776
-43.6675
-43.6803
-43.6501
-44.4717
-44.4274
-44.2848
-44.2362
-44.1446
-44.1031
-44.0249
-43.9892
-43.9443
-43.9391
-45.0363
-44.8911
-44.8226
-44.7246
-44.6248
-44.5209
-44.4301
-44.2967
-44.2608
-44.2729
-44.2427
-45.8147
-45.6698
-45.4901
-45.369
-45.2207
-45.0891
-44.9645
-44.8114
-44.6371
-44.5344
-44.5642
-44.7071
-46.8364
-46.5981
-46.3856
-46.1731
-45.9432
-45.8293
-45.6478
-45.4851
-45.3227
-45.1745
-45.0079
-45.1172
-45.2302
-48.2863
-47.9128
-47.6333
-47.3069
-47.0656
-46.8974
-46.731
-46.4869
-46.3882
-46.082
-46.1336
-45.8031
-45.7226
-45.8756
-50.3251
-49.8372
-49.3922
-48.943
-48.5619
-48.2959
-48.0485
-47.8735
-47.5313
-47.4868
-47.3255
-47.1711
-47.1039
-46.7281
-46.8166
-53.117
-52.4085
-51.8638
-51.3016
-50.8961
-50.4701
-50.1229
-49.937
-49.4938
-49.4126
-49.1882
-49.0362
-48.9984
-48.9485
-48.4942
-48.5239
-56.3125
-55.6012
-55.1567
-53.8756
-53.5977
-52.9688
-52.7154
-52.2313
-52.1593
-52.1259
-51.9545
-51.3616
-51.0032
-50.8377
-50.4334
-50.4181
-49.4923
-59.7792
-59.421
-59.0332
-58.4995
-57.6985
-56.7381
-55.8149
-55.9629
-55.8814
-56.2128
-56.428
-56.0029
-55.5211
-54.1912
-53.7295
-52.9335
-53.2464
-51.3366
-61.8128
-61.1602
-61.1611
-61.5356
-61.0182
-60.3157
-59.9667
-59.0926
-58.0836
-58.1354
-58.1709
-58.6263
-59.1522
-59.1065
-58.6423
-57.878
-56.914
-56.0058
-54.431
-62.2523
-62.5699
-62.3018
-62.3302
-62.7689
-63.2454
-63.9905
-63.6015
-62.7338
-61.4955
-61.4905
-62.0687
-62.5511
-62.6335
-63.3732
-63.5558
-62.789
-62.0494
-60.573
-59.3379
-62.6793
-62.7302
-62.8443
-63.0927
-63.0321
-62.9074
-63.2377
-63.9115
-64.4881
-64.7091
-64.0843
-63.8665
-64.6656
-65.36
-66.2794
-66.5699
-67.9077
-69.4704
-68.9563
-66.5518
-64.0886
-63.5056
-63.307
-63.3239
-63.4257
-63.5519
-63.49
-63.682
-64.0737
-64.6608
-64.8321
-64.6865
-64.516
-64.4652
-64.6659
-65.1917
-65.9253
-66.7242
-68.0152
-69.8829
-70.6369
-69.8605
-69.0363
-63.9623
-63.783
-63.8084
-63.7152
-63.8132
-63.8387
-63.7936
-64.3052
-65.2953
-65.4249
-65.3379
-65.1421
-65.1255
-64.987
-64.7994
-64.875
-64.8569
-65.316
-66.1924
-67.9768
-68.8464
-68.7919
-68.8938
-42.3878
-42.497
-42.4778
-42.5855
-42.5615
-42.5291
-42.6328
-42.6996
-42.7508
-42.6785
-42.8284
-42.893
-42.8426
-42.7964
-42.7954
-43.0058
-43.003
-42.9448
-42.9417
-42.9312
-42.8755
-43.2252
-43.1777
-43.1239
-43.1109
-43.0612
-43.0859
-43.0474
-43.4725
-43.3881
-43.3515
-43.2851
-43.2843
-43.2651
-43.2933
-43.2762
-43.7424
-43.7139
-43.6463
-43.4751
-43.5255
-43.4621
-43.4981
-43.458
-43.3746
-44.1188
-43.9938
-43.9614
-43.8936
-43.8081
-43.7507
-43.741
-43.724
-43.6269
-43.6062
-44.6706
-44.5036
-44.3835
-44.2888
-44.205
-44.1375
-44.0705
-44.0472
-43.9757
-43.9768
-43.9349
-45.2297
-45.1284
-44.9344
-44.8403
-44.7164
-44.6405
-44.5181
-44.4272
-44.3811
-44.2681
-44.2873
-44.2874
-46.0639
-45.806
-45.6614
-45.5181
-45.3833
-45.1902
-45.0996
-44.9465
-44.7748
-44.727
-44.6345
-44.601
-44.7568
-47.0796
-46.8838
-46.6062
-46.3243
-46.1062
-46.019
-45.7522
-45.6701
-45.466
-45.3407
-45.2448
-45.2451
-45.1254
-45.2654
-48.6153
-48.25
-47.8997
-47.5913
-47.3265
-47.1873
-46.8735
-46.6106
-46.4044
-46.3446
-46.2838
-46.1204
-45.9858
-45.7493
-45.9732
-50.7238
-50.3176
-49.7307
-49.2807
-48.8276
-48.6461
-48.476
-48.0445
-47.8213
-47.5946
-47.5021
-47.3968
-47.1919
-47.0928
-46.6876
-46.7129
-53.6585
-52.9608
-52.512
-51.8488
-51.1033
-50.7111
-50.4021
-50.0832
-49.7437
-49.55
-49.3109
-49.1634
-49.2052
-49.102
-48.869
-48.3961
-48.6096
-56.7904
-56.1585
-55.5173
-55.0182
-54.2574
-53.4467
-52.9409
-52.5697
-52.3174
-52.2384
-52.2181
-51.8073
-51.1749
-50.8172
-50.794
-50.5495
-50.4528
-49.5501
-60.0933
-59.7597
-59.4022
-58.9406
-58.0134
-57.5158
-56.7514
-55.9297
-55.9013
-55.8806
-56.1337
-56.2313
-55.8283
-54.9616
-53.9519
-53.5483
-53.0245
-53.0079
-51.635
-62.5258
-61.7665
-60.8243
-61.0444
-61.4416
-60.7649
-60.5016
-60.061
-59.1836
-58.2053
-58.0823
-58.1885
-58.6808
-58.9444
-58.9736
-58.0535
-57.5745
-56.7255
-55.6882
-54.7025
-61.8855
-62.3701
-62.6996
-62.4926
-62.4951
-62.7423
-63.1898
-63.9132
-63.6238
-62.8948
-61.7903
-61.7736
-62.1873
-62.5299
-62.6643
-63.3667
-63.7523
-62.6357
-61.9119
-60.6805
-59.0227
-62.7395
-62.7739
-62.8009
-62.9058
-63.143
-63.0123
-62.9303
-63.2539
-63.8699
-64.4509
-64.7703
-64.2999
-64.051
-64.7822
-65.4017
-66.0151
-66.4956
-68.32
-69.3999
-69.1046
-66.1309
-63.6261
-63.6574
-63.5647
-63.4055
-63.4182
-63.4988
-63.6201
-63.5456
-63.7096
-64.127
-64.7535
-64.9387
-64.8193
-64.6338
-64.5473
-64.6505
-65.1405
-65.828
-66.6071
-67.9906
-70.0102
-70.787
-69.9373
-68.8193
-64.2439
-64.0157
-63.786
-63.8663
-63.7701
-63.8745
-63.9079
-63.8619
-64.3911
-65.2954
-65.4379
-65.3657
-65.1773
-65.1721
-64.996
-64.7921
-64.8402
-64.8277
-65.2848
-66.1903
-67.9891
-68.8643
-68.8494
-68.8609
-42.2622
-42.3847
-42.4002
-42.4666
-42.4962
-42.4866
-42.5985
-42.5791
-42.5584
-42.5134
-42.7317
-42.6619
-42.699
-42.6892
-42.654
-42.8614
-42.8412
-42.8682
-42.8545
-42.8193
-42.7607
-43.0504
-43.0141
-42.9889
-42.9416
-42.947
-42.9292
-42.8722
-43.2614
-43.2343
-43.1664
-43.1475
-43.1177
-43.0668
-43.1223
-43.0539
-43.5087
-43.5142
-43.3672
-43.3209
-43.2736
-43.262
-43.2937
-43.3135
-43.2805
-43.7832
-43.7238
-43.7191
-43.5976
-43.5705
-43.4778
-43.4628
-43.5193
-43.4112
-43.3682
-44.1871
-44.1221
-44.1048
-43.9381
-43.8838
-43.8382
-43.7713
-43.7668
-43.6617
-43.6551
-43.635
-44.8438
-44.6449
-44.5123
-44.3919
-44.3186
-44.2637
-44.1371
-44.0909
-44.0179
-44.0189
-43.9513
-43.9662
-45.4059
-45.3231
-45.1343
-44.9241
-44.8388
-44.7602
-44.6422
-44.5112
-44.4053
-44.3599
-44.3017
-44.2798
-44.2684
-46.313
-46.0765
-45.8234
-45.6524
-45.4809
-45.3531
-45.2029
-45.0796
-44.9136
-44.7973
-44.6699
-44.6453
-44.6722
-44.7754
-47.4658
-47.1066
-46.875
-46.5864
-46.3999
-46.1681
-46.022
-45.831
-45.646
-45.4014
-45.3528
-45.1222
-45.217
-45.201
-45.1956
-49.0227
-48.6225
-48.2121
-47.8468
-47.613
-47.3955
-47.0798
-46.8709
-46.6501
-46.5909
-46.3442
-46.2809
-46.0271
-45.9714
-45.8901
-45.992
-51.0464
-50.6358
-50.1712
-49.5543
-49.1062
-48.816
-48.7419
-48.2547
-47.9372
-47.8549
-47.8643
-47.5762
-47.4136
-47.1658
-46.9783
-46.8688
-46.7389
-54.1675
-53.6661
-52.9085
-51.9936
-51.5807
-51.0201
-50.6289
-50.1591
-50.0085
-49.6493
-49.5579
-49.3656
-49.257
-49.2882
-49.0516
-48.9213
-48.5927
-48.6934
-57.38
-56.4033
-55.9475
-55.3462
-54.8213
-54.2751
-53.329
-52.8644
-52.6413
-52.2408
-52.141
-52.1144
-51.6606
-50.988
-50.7758
-50.8351
-50.4479
-50.4724
-49.59
-60.7836
-60.097
-59.7072
-59.3638
-58.9145
-58.0552
-57.4719
-56.8975
-55.97
-55.7696
-56.0551
-56.0185
-56.0012
-55.3447
-54.3655
-53.7224
-53.4031
-52.6263
-52.8322
-51.7151
-62.1821
-62.5972
-61.8696
-60.8263
-60.9909
-61.4052
-60.9526
-60.5227
-60.007
-59.228
-58.1707
-57.9874
-58.2131
-58.6753
-58.477
-58.628
-57.666
-57.2639
-56.4305
-55.557
-54.5324
-61.8925
-61.8708
-62.4414
-62.8089
-62.6913
-62.6248
-62.6561
-63.1145
-63.8097
-63.7205
-63.0027
-62.111
-61.9948
-62.2612
-62.5558
-62.7372
-63.497
-64.018
-62.2846
-62.0194
-60.9155
-58.8625
-62.791
-62.8692
-62.873
-62.849
-62.921
-63.1156
-62.9955
-62.9697
-63.2783
-63.8269
-64.4377
-64.7991
-64.4101
-64.1897
-64.7969
-65.3985
-65.9099
-66.4799
-68.4921
-69.528
-69.2365
-66.1108
-63.0984
-63.7936
-63.6897
-63.6282
-63.5082
-63.4974
-63.5684
-63.6617
-63.5946
-63.7227
-64.1355
-64.8198
-65.0392
-64.9173
-64.7405
-64.5971
-64.61
-65.0576
-65.7165
-66.472
-67.9461
-70.0745
-70.8585
-70.0614
-68.7471
-64.314
-64.3555
-64.0606
-63.8154
-63.9194
-63.8369
-63.9244
-63.9785
-63.9413
-64.4533
-65.3465
-65.476
-65.3944
-65.2158
-65.2274
-65.0204
-64.7881
-64.8045
-64.7961
-65.2524
-66.1788
-67.992
-68.8723
-68.9072
-68.9106
-42.2633
-42.2649
-42.401
-42.3527
-42.4239
-42.4826
-42.4824
-42.453
-42.5041
-42.585
-42.5726
-42.5726
-42.5185
-42.5141
-42.7366
-42.7482
-42.6914
-42.7221
-42.6147
-42.6495
-42.9351
-42.8818
-42.7984
-42.8781
-42.8575
-42.7366
-42.7576
-43.0983
-43.0924
-43.018
-42.9454
-42.9276
-42.9559
-42.929
-42.8633
-43.3051
-43.2766
-43.2458
-43.1898
-43.1252
-43.0996
-43.0905
-43.1181
-43.0779
-43.607
-43.5384
-43.4913
-43.3876
-43.3703
-43.2784
-43.2964
-43.3016
-43.2921
-43.299
-44.0234
-43.8566
-43.8002
-43.6904
-43.6308
-43.5369
-43.5186
-43.4903
-43.3713
-43.3543
-43.3567
-44.518
-44.2179
-44.137
-44.0637
-43.9809
-43.8689
-43.8332
-43.7916
-43.7125
-43.6341
-43.588
-43.7422
-44.9911
-44.787
-44.6568
-44.4038
-44.4203
-44.3419
-44.221
-44.1418
-44.0556
-43.986
-44.0387
-43.932
-43.9943
-45.6219
-45.4538
-45.351
-45.1495
-45.0095
-44.8407
-44.7284
-44.6095
-44.456
-44.3821
-44.3272
-44.3274
-44.3287
-44.2482
-46.5438
-46.295
-46.0707
-45.8403
-45.6552
-45.4916
-45.3367
-45.1844
-45.002
-44.8531
-44.8178
-44.5566
-44.7075
-44.7489
-44.7436
-47.8225
-47.4929
-47.0922
-46.8152
-46.6737
-46.4403
-46.1815
-46.0195
-45.7847
-45.5488
-45.5185
-45.3501
-45.2367
-45.2031
-45.186
-45.1153
-49.3865
-48.9628
-48.5522
-48.1954
-47.8458
-47.6137
-47.2307
-47.0964
-46.7644
-46.698
-46.6081
-46.4451
-46.3179
-46.0699
-46.0662
-45.8342
-46.0376
-51.4837
-50.9641
-50.5437
-49.9854
-49.5194
-49.2159
-48.8348
-48.6267
-48.146
-48.1832
-47.8904
-47.8509
-47.6433
-47.2935
-47.2216
-47.1297
-46.8462
-46.6206
-54.6536
-54.13
-53.6241
-52.8547
-52.2446
-51.6326
-50.9683
-50.5507
-50.1293
-49.8292
-49.7602
-49.3952
-49.2609
-49.3102
-49.1685
-49.18
-48.8987
-48.6641
-48.5007
-57.8873
-57.2376
-56.5689
-55.7168
-55.0912
-54.6236
-53.8619
-53.3373
-52.8544
-52.5659
-52.2292
-52.1651
-51.9522
-51.2914
-50.9965
-50.6391
-50.6224
-50.4338
-50.3797
-49.5594
-61.1767
-60.6777
-59.8953
-59.3748
-59.2668
-58.9188
-58.1371
-57.3502
-56.673
-56.1355
-55.7831
-56.0588
-55.9023
-55.582
-54.8715
-54.6583
-53.6093
-53.1949
-52.5001
-52.7536
-51.555
-61.8639
-62.168
-62.7214
-62.05
-60.8695
-60.9587
-61.1783
-60.8832
-60.5037
-60.0776
-59.1961
-58.2096
-58.0578
-58.3564
-58.6016
-58.6159
-57.9705
-57.3723
-57.2849
-56.5301
-55.6767
-54.5374
-62.1089
-61.9832
-61.8602
-62.4652
-62.917
-62.7888
-62.7062
-62.5392
-62.9816
-63.6936
-63.6081
-63.0262
-62.4195
-62.1715
-62.2889
-62.4939
-62.7601
-63.6416
-64.3716
-62.9021
-61.9695
-60.7394
-58.3158
-63.206
-62.8833
-62.9852
-62.9416
-62.902
-62.9371
-63.0705
-62.9852
-62.9904
-63.288
-63.7808
-64.4286
-64.8682
-64.6086
-64.3179
-64.7353
-65.2427
-65.7513
-66.3742
-67.8454
-69.6278
-68.9253
-65.9414
-62.6018
-64.2529
-63.7941
-63.7199
-63.69
-63.606
-63.5693
-63.6281
-63.6998
-63.639
-63.6941
-64.1633
-64.8632
-65.1292
-64.9776
-64.8309
-64.6766
-64.5766
-64.9421
-65.5785
-66.3054
-67.8467
-70.0457
-70.7619
-70.2462
-68.8108
-64.3415
-64.1795
-64.4522
-64.1286
-63.8519
-63.9822
-63.907
-63.9656
-64.0505
-64.0219
-64.5076
-65.395
-65.5097
-65.4264
-65.2599
-65.287
-65.0557
-64.7884
-64.7666
-64.7595
-65.2183
-66.1632
-67.9768
-68.89
-68.9678
-42.2644
-42.244
-42.2499
-42.3452
-42.4049
-42.3727
-42.4219
-42.5462
-42.5215
-42.4824
-42.4948
-42.5099
-42.6145
-42.5981
-42.6264
-42.5451
-42.5314
-42.5413
-42.775
-42.7527
-42.6972
-42.682
-42.7028
-42.5842
-42.6436