/*--------------------------------*- C++ -*----------------------------------*\
  =========                 |
  \\      /  F ield         | OpenFOAM: The Open Source CFD Toolbox
   \\    /   O peration     | Website:  https://openfoam.org
    \\  /    A nd           | Version:  7
     \\/     M anipulation  |
\*---------------------------------------------------------------------------*/
FoamFile
{
    version     2.0;
    format      ascii;
    class       surfaceScalarField;
    location    "7.5";
    object      phi;
}
// * * * * * * * * * * * * * * * * * * * * * * * * * * * * * * * * * * * * * //

dimensions      [0 3 -1 0 0 0 0];

internalField   nonuniform List<scalar> 
54125
(
7.90551e-05
-6.40846e-05
-0.000108755
0.000169069
-0.000150446
0.00207988
-3.28768e-05
-9.95033e-05
0.000157956
8.07053e-05
-5.64523e-05
-0.000133008
0.000240666
-5.80867e-05
0.00388393
-7.16611e-06
-0.000237008
0.00211352
0.000168591
-0.000147557
0.00213955
-1.20643e-05
-0.000107295
0.000291467
-1.62169e-05
-8.79623e-05
0.000205683
8.8854e-05
-5.50148e-05
-0.000166847
-0.000175518
-5.33436e-05
0.00502344
0.000191552
-0.000146159
0.00376795
0.000333933
-7.69237e-05
0.00379551
4.12088e-05
-0.000189883
0.00215569
4.39555e-05
-0.000232547
0.00213834
0.000206636
-0.000151206
0.00217297
1.92695e-05
-7.2616e-05
0.000413748
-2.17734e-06
-9.56491e-05
0.000301331
-6.08314e-06
-8.54635e-05
0.000242215
9.67617e-05
-5.36575e-05
-0.000209951
-0.00124086
0.000443326
0.0054434
0.000781899
-0.000246201
0.00510397
6.02585e-06
4.76402e-05
0.00530371
0.000202462
-3.96111e-05
0.0027835
0.000219886
-0.000162846
0.00367794
0.000268136
-8.84756e-05
0.00382249
0.000108402
-8.88268e-05
0.0026221
8.51641e-05
-0.000200791
0.00203659
7.04418e-05
-0.000236931
0.00214754
0.000245391
-0.000145957
0.0021703
6.11462e-05
-3.30137e-05
-0.000468635
2.65738e-05
-6.51435e-05
0.000356669
3.11255e-06
-9.32281e-05
0.000305983
5.95087e-06
-8.27434e-05
0.00026535
0.000105968
-5.25852e-05
-0.000263334
-0.00134905
0.000694421
0.00608217
0.000909078
0.000399593
0.00592344
-0.00120808
0.000576024
0.00608148
0.000783533
-0.000191069
0.00444935
0.000522917
-0.0001065
0.00495508
-0.000184259
0.000119741
0.00563636
0.000277711
0.000165915
0.00384688
0.000185643
-0.000118846
0.00263902
0.000255352
-0.000175021
0.00357958
0.000256764
-8.13799e-05
0.0038925
0.000188877
-4.92944e-05
0.00185151
0.000160576
-0.000100018
0.00238733
0.00011398
-0.000221063
0.00190985
0.000100194
-0.000224108
0.00213145
0.000284678
-0.000138598
0.00213019
6.70052e-05
-2.98834e-05
-0.000725418
6.18116e-05
-3.02411e-05
-0.000565349
3.65298e-05
-6.41487e-05
0.00029106
6.79495e-06
-9.05359e-05
0.000306981
1.57461e-05
-7.99023e-05
0.000276921
0.000113953
-5.17926e-05
-0.000325495
-0.00138839
9.37291e-05
0.00613927
2.78063e-05
0.00113503
0.00787899
-0.0014369
0.000627976
0.00568301
0.00106274
0.000404568
0.00550766
0.000657581
0.0005985
0.0057663
-0.00125093
0.000616594
0.00653156
0.00049448
-8.82818e-05
0.0036355
0.000459326
-0.000181517
0.00425068
0.000496159
-9.32641e-05
0.00492727
-0.000298831
0.000186792
0.00600516
0.00029932
0.000163338
0.00355375
0.000321065
7.07639e-05
0.00349678
0.000182325
-0.000205969
0.00260162
0.000265248
-0.000164306
0.00349745
0.000420313
-5.38791e-05
0.00381074
0.000133042
-8.27861e-05
0.00156257
0.000188857
-4.45409e-05
0.00166899
0.000200409
-0.000115821
0.0021182
0.000132333
-0.000227334
0.00178754
0.000106682
-0.000201704
0.00210362
0.000319255
-0.00012765
0.00205253
4.07922e-05
-3.9641e-05
-0.000341793
6.15913e-05
-2.80571e-05
-0.000789194
6.62373e-05
-3.00531e-05
-0.000665681
4.38803e-05
-6.31128e-05
0.000219757
9.63807e-06
-8.78714e-05
0.000305312
2.36248e-05
-7.70558e-05
0.00027856
0.000118006
-5.07092e-05
-0.000392792
-0.00194068
0.000162974
0.00442118
-0.000686474
0.000575345
0.0074811
-0.00125955
4.70183e-05
0.0059149
0.000275192
0.00125389
0.00743683
2.58024e-05
0.00104545
0.0080933
-0.00141597
0.000439581
0.00540847
0.000539044
0.000411601
0.00486789
0.000575096
0.000511779
0.00547862
0.000210693
0.000683831
0.00598453
-0.00134617
0.000622742
0.00695616
0.000307743
-0.000204636
0.00326825
0.000413276
-3.73252e-05
0.0033991
0.000280059
-0.000165292
0.00422498
0.000406827
-1.83367e-05
0.00499082
-7.99272e-05
0.000249976
0.00625543
0.000231624
8.42448e-05
0.00279099
0.000348606
7.20969e-05
0.00339267
0.000304123
-2.33499e-05
0.00321045
0.000209943
-0.000223738
0.00258345
0.000212308
-0.000119414
0.00345736
0.000316045
-3.55009e-05
0.00384945
0.000128837
-9.25128e-05
0.00108038
0.000111085
-7.02868e-05
0.00153882
0.000191256
-3.6624e-05
0.00146477
0.000213549
-0.000126969
0.00184817
0.000128856
-0.00022269
0.00168931
0.000118189
-0.000174265
0.00205567
0.00029627
-0.000114392
0.00198866
1.1321e-05
-4.48205e-05
-0.000174849
3.96748e-05
-3.75091e-05
-0.000372016
6.10118e-05
-2.86584e-05
-0.0008516
6.81984e-05
-2.98335e-05
-0.000767159
4.60742e-05
-6.25037e-05
0.000148315
9.73038e-06
-8.53491e-05
0.000303875
3.08914e-05
-7.44791e-05
0.000271438
0.000116286
-4.90805e-05
-0.000459997
-0.00184469
2.29752e-05
0.0026378
-0.000922088
0.000210607
0.00578553
-0.00162693
0.000196322
0.00459224
-0.000211386
0.00079434
0.00799712
-0.000720564
0.000400585
0.0078739
-0.00124692
2.99213e-05
0.00571592
0.000161581
0.00123415
0.00725716
0.000144703
0.00109467
0.00781801
-0.000556611
0.000862319
0.00843787
-0.00150548
0.000316924
0.00525085
0.000572222
0.000229754
0.00453015
0.000361307
0.000416219
0.00501542
0.000181382
0.000573842
0.00568728
4.93086e-05
0.000829558
0.00613524
-0.00134793
0.00074744
0.00747671
0.000107272
-0.000322735
0.00305743
0.000366501
-7.8066e-05
0.00329109
0.000175591
-8.52213e-05
0.00344756
0.000433604
-0.000164621
0.0041476
0.000262298
0.000102787
0.00508802
-0.000239463
0.000257504
0.00655343
0.00017837
-6.87101e-05
0.00261879
7.76889e-05
2.7213e-05
0.00286927
0.00029835
4.11362e-05
0.00322109
0.000295313
-8.09452e-05
0.00298589
0.000137283
-0.000206834
0.00266244
0.000293323
-8.14063e-05
0.00332813
0.000191825
1.52412e-05
0.00393866
4.72556e-05
-8.7091e-05
0.00103425
7.0568e-05
-8.59297e-05
0.00106513
0.000115193
-5.6765e-05
0.00150478
0.00017269
-3.48406e-05
0.00126815
0.000214804
-0.000136876
0.00159363
9.68992e-05
-0.00021416
0.00164204
0.000119759
-0.000147881
0.00200029
0.00029052
-0.000102533
0.00191696
-2.99883e-05
-4.10634e-05
0.000470929
1.57836e-05
-4.26809e-05
-0.000185461
4.09067e-05
-3.89367e-05
-0.000402645
5.79401e-05
-2.93545e-05
-0.000910019
6.61671e-05
-3.02813e-05
-0.000865549
4.30884e-05
-6.19962e-05
8.18735e-05
1.13136e-05
-8.29691e-05
0.000301051
3.54781e-05
-7.18308e-05
0.000258711
0.000107751
-4.71199e-05
-0.000520628
-0.00138722
-0.000256591
0.00368447
-0.000937342
3.16907e-05
0.00482373
-0.00180949
0.000296089
0.00252427
-0.000148292
0.00022014
0.00666565
-0.00069507
0.000183984
0.00577238
-0.00166311
0.000183328
0.00482511
-6.50084e-05
0.00100572
0.0077334
-0.000164998
0.000647287
0.00806012
-0.000847283
0.000304623
0.00788987
-0.0012842
2.20055e-05
0.00547265
0.000332288
0.0012857
0.00727457
5.30317e-05
0.00108295
0.00757715
-9.78518e-05
0.000963443
0.00799612
-0.000499788
0.000782153
0.00852173
-0.00163613
0.000222856
0.0053162
7.71454e-05
0.000344932
0.00465328
0.00015669
0.000277254
0.00487893
9.20928e-06
0.000524234
0.00523141
0.000345568
0.000732764
0.00587211
-6.57411e-05
0.000884718
0.006326
-0.00117706
0.000685573
0.00772873
-3.76946e-05
-0.00011999
0.00272633
-1.82983e-05
-0.000264567
0.00333991
0.000242961
-0.000185998
0.00344726
0.000106227
-0.00013413
0.00360616
2.88614e-06
-6.55024e-05
0.00445028
0.00022162
0.000140807
0.00527642
-0.000411456
0.000326645
0.00683007
-7.65632e-05
-0.00014027
0.00223298
3.43364e-05
-4.2584e-05
0.00272482
0.000101003
1.52347e-07
0.00292444
0.000215215
2.91525e-06
0.0030947
0.000307035
-0.000135492
0.00282232
9.45739e-05
-0.000168064
0.00275142
0.000152073
-5.49754e-05
0.00336603
0.000195786
3.10012e-05
0.00400239
-1.67373e-06
-6.3454e-05
0.00150042
4.01899e-05
-8.56255e-05
0.00100954
0.000102412
-8.25431e-05
0.0010294
8.14876e-05
-4.28391e-05
0.00148923
0.000144584
-3.41014e-05
0.00108696
0.00019411
-0.000146407
0.00137485
8.87032e-05
-0.000205092
0.00162186
0.000120472
-0.000128211
0.00194097
0.0002528
-9.20309e-05
0.00186394
-2.24883e-05
-5.3373e-05
0.000854649
-2.22659e-05
-3.82655e-05
0.000488779
2.06732e-05
-4.48606e-05
-0.00020021
3.98196e-05
-4.05727e-05
-0.000431246
5.35713e-05
-3.01603e-05
-0.000963712
6.26903e-05
-3.09905e-05
-0.000959245
3.55638e-05
-6.14565e-05
2.4797e-05
1.52334e-05
-8.0465e-05
0.000294452
3.95109e-05
-6.92021e-05
0.000241282
9.59096e-05
-4.51783e-05
-0.000571359
-0.00145888
5.03194e-05
0.00349829
-0.00105213
-7.82813e-05
0.0044263
-0.00133992
-0.000185598
0.00340049
-0.000323857
5.59363e-05
0.00535234
-0.000718977
0.000250763
0.00489296
-0.00183165
7.44825e-05
0.00261834
-0.000176015
0.000459134
0.00674782
-0.000163712
0.000175865
0.00667248
-0.000846686
0.000139815
0.00581529
-0.00163718
0.000180043
0.00499804
-0.000129694
0.00118008
0.00798586
-6.42434e-05
0.000868747
0.00762922
-0.00014661
0.000692655
0.00772084
-0.00078073
0.000209718
0.0079831
-0.00136309
-2.63122e-05
0.00522592
0.000117544
0.00143226
0.00747109
-0.000145209
0.00117717
0.00748225
-0.000158494
0.00102262
0.00768568
-0.000126969
0.000927865
0.00832294
-0.000457067
0.00099274
0.00814317
-0.00152433
0.000304423
0.00535905
-0.000149774
0.000617272
0.00457638
-0.000140644
0.000384108
0.00466877
-6.76457e-05
0.000379237
0.00533453
-7.34084e-05
0.000723326
0.00542048
-0.000247431
0.000761427
0.00624572
-0.000282586
0.000917072
0.0065987
-0.00114867
0.000613259
0.00785269
-0.0002924
9.25109e-05
0.00287622
-9.08073e-05
-0.000172623
0.00275953
6.21492e-05
-0.000337559
0.00353033
-2.31439e-05
-0.000207447
0.00375894
0.000162869
-0.000128295
0.00381312
-0.00010807
4.66935e-05
0.00474704
-9.80537e-05
0.000278313
0.00557488
-0.000318504
0.000334713
0.00700965
-0.000176588
-8.5006e-05
0.00265237
-0.000104636
-9.01329e-05
0.00242536
0.000104869
-6.7279e-05
0.00278979
-1.0127e-06
-5.85802e-06
0.00301572
0.00020375
-6.16491e-05
0.00296169
0.000218259
-0.000153413
0.00278352
7.9739e-05
-0.000136659
0.00284207
6.58489e-07
-1.39485e-05
0.0035308
3.30838e-05
6.76231e-05
0.00415448
-4.47802e-05
-4.43649e-05
0.00217112
2.06862e-05
-6.22374e-05
0.00143408
6.57958e-05
-8.88725e-05
0.000970749
8.45591e-05
-7.19251e-05
0.00101375
9.68047e-05
-2.62118e-05
0.00143811
0.000106386
-3.40665e-05
0.000930925
0.000171221
-0.000158245
0.00119235
8.18059e-05
-0.00019274
0.00161981
0.000104057
-0.000120183
0.00190458
0.000194438
-7.66179e-05
0.00184203
5.03294e-07
-6.80038e-05
0.00129272
-1.42178e-05
-4.89181e-05
0.00087952
-1.56576e-05
-3.94467e-05
0.000499023
2.39641e-05
-4.723e-05
-0.000217517
3.83443e-05
-4.23478e-05
-0.000457403
4.67595e-05
-3.10485e-05
-0.00101041
5.65627e-05
-3.08946e-05
-0.00104637
3.06402e-05
-6.07824e-05
-2.55257e-05
1.42048e-05
-7.80738e-05
0.000289119
4.12368e-05
-6.67207e-05
0.000221588
8.21411e-05
-4.34082e-05
-0.000610092
-0.00152371
-3.87791e-06
0.00292517
-0.00107231
5.03783e-05
0.0040968
-0.00127162
2.66643e-05
0.00340333
-0.000625146
7.64976e-05
0.00461709
-0.00090867
-8.7652e-05
0.00451805
-0.00139845
-0.000111449
0.00307875
-0.00053242
0.000224148
0.00579204
-0.000327963
1.11183e-05
0.00575623
-0.000808518
-5.28071e-06
0.00493455
-0.00191825
6.89572e-05
0.00283044
-0.000368692
0.000698593
0.00662748
-0.000169763
0.000397784
0.00663142
-0.000198861
0.000173993
0.00669055
-0.00083687
0.000186446
0.00586503
-0.00156725
0.00012275
0.00507945
-0.000131846
0.00119725
0.00772727
-0.000137923
0.000960367
0.00788696
-0.000239017
0.00082931
0.00757309
-0.000238799
0.000596452
0.00744594
-0.000673506
0.000124072
0.00804916
-0.00138585
-9.33963e-05
0.00518083
-0.000189596
0.00142089
0.00801498
-0.000153204
0.0012294
0.00743142
-0.000348511
0.00117922
0.00760652
-0.00019225
0.00110227
0.00763012
-0.000240709
0.00102325
0.00828571
-0.000363316
0.00120292
0.00732541
-0.00131422
0.000256608
0.00526799
-1.19152e-05
0.000774715
0.00462694
-0.000154723
0.000574516
0.00444989
-9.01324e-05
0.000436124
0.00476417
-0.000358464
0.000556856
0.00583632
-0.000160491
0.000721653
0.00578362
-0.000422792
0.000831886
0.00664563
-0.000549089
0.00102488
0.00663812
-0.000977778
0.000600435
0.00791153
-0.000312049
8.27999e-05
0.00379211
-0.000449405
-2.97618e-05
0.00307813
-7.61891e-05
-0.000247648
0.00285067
1.43602e-05
-0.000283777
0.00359129
0.000187395
-0.000247175
0.00389417
0.000118552
-6.34095e-05
0.00402293
-8.05958e-06
0.000157
0.00495615
-0.000332238
0.000345522
0.00589697
-0.000367206
0.000363439
0.0070465
-8.4082e-05
-2.06634e-05
0.0031455
-9.02345e-05
-0.000171029
0.00284419
-9.71829e-05
-0.000150443
0.0026715
3.3135e-05
-8.48984e-05
0.00292026
1.02203e-05
-1.52827e-05
0.00305593
6.86268e-05
-0.000102899
0.00294894
0.000187656
-0.000138007
0.00276843
-3.81941e-05
-8.50073e-05
0.00303313
7.82199e-05
2.06639e-05
0.00360359
-6.17369e-05
8.85693e-05
0.00432209
1.64406e-06
-8.35254e-05
0.00248597
3.54679e-05
-4.74361e-05
0.00210663
3.05657e-05
-7.21116e-05
0.0013711
8.41719e-05
-9.01432e-05
0.00092876
7.72605e-05
-5.35623e-05
0.00100218
5.77281e-05
-1.02985e-05
0.00140337
9.36988e-05
-3.86039e-05
0.000774148
0.000122099
-0.000162269
0.00107042
6.35078e-05
-0.000185833
0.00163616
8.77581e-05
-0.000112162
0.0018936
0.000131571
-6.78227e-05
0.00186042
1.91724e-05
-7.32865e-05
0.00188993
5.96157e-06
-6.23797e-05
0.00130022
-5.86504e-06
-4.94215e-05
0.00089536
-7.38355e-06
-4.09152e-05
0.000500092
2.53624e-05
-4.98472e-05
-0.00023538
3.45945e-05
-4.40403e-05
-0.000479006
4.35777e-05
-3.09287e-05
-0.00105396
5.03857e-05
-3.0831e-05
-0.00112671
2.61088e-05
-6.02449e-05
-6.94634e-05
7.04259e-06
-7.59148e-05
0.000291271
4.60401e-05
-6.43953e-05
0.000196535
6.33096e-05
-4.17756e-05
-0.000631626
-0.0016153
0.000217087
0.00229185
-0.00118899
2.91614e-05
0.00372513
-0.00134187
2.00603e-05
0.00297535
-0.000618078
0.000165135
0.00438882
-0.000928138
4.82035e-05
0.00409473
-0.00128361
-9.65592e-06
0.00329814
-0.000805562
0.000221027
0.00500185
-0.00053171
9.45054e-05
0.00463868
-0.000838764
-4.74528e-05
0.0044843
-0.00160251
-3.78243e-05
0.00280084
-0.000585406
0.000255615
0.00578038
-0.000360587
0.000102898
0.00589108
-0.000367601
-2.99171e-05
0.00594961
-0.000828991
2.59948e-05
0.00496964
-0.00190712
1.37468e-05
0.00315657
-0.000403193
0.000985333
0.00627466
-0.000302487
0.000623123
0.00656671
-0.000303542
0.000379312
0.00649063
-0.000172247
0.000166635
0.00664381
-0.00070926
0.000131016
0.00589252
-0.0014551
4.82489e-05
0.00510046
-0.000217138
0.00116218
0.00717878
-2.20754e-05
0.000982184
0.00757432
-0.000166282
0.000919043
0.00761499
-0.000378652
0.000775313
0.00758063
-0.000170314
0.000490635
0.00700898
-0.000594779
8.74893e-05
0.00809973
-0.0013572
-0.000177825
0.00540163
6.46249e-05
0.00129483
0.0082888
-5.84781e-05
0.00121496
0.00793317
2.33061e-05
0.00119147
0.00730573
-0.000299252
0.00121638
0.0074332
-0.000288435
0.00115367
0.00762764
-0.00030191
0.00117446
0.00819329
-0.000320921
0.000946348
0.0064075
-0.00118369
0.000256375
0.00521753
-0.000134969
0.00072369
0.0053248
-0.000416262
0.000686517
0.00448179
-0.000149578
0.000589667
0.00436974
-0.000100611
0.000500953
0.00493504
-0.000168229
0.000649597
0.006264
-8.09854e-05
0.000747507
0.00606753
-0.00012073
0.00105024
0.00673295
-0.000783043
0.000937997
0.00675136
-0.000713808
0.000623061
0.00763507
-0.000170609
5.10619e-05
0.00430167
-0.000330935
2.86874e-05
0.00397436
-0.000499008
-8.05523e-05
0.00331286
-0.000239271
-0.000230192
0.00306949
7.23094e-05
-0.00043403
0.00371605
3.62959e-05
-0.00025425
0.00411734
-2.3148e-05
-9.03582e-06
0.00439977
-0.000391425
0.000288589
0.00536632
-0.000116121
0.000474729
0.00598002
-0.000521314
0.000342286
0.00716379
-2.41222e-05
-0.00011001
0.00358832
2.79935e-05
-0.000147348
0.0031293
-7.15296e-05
-0.000185435
0.00298127
-1.31155e-05
-0.000136312
0.0028202
0.000118724
-2.69164e-05
0.00289043
-3.6533e-05
-6.8957e-05
0.00311625
3.0652e-05
-0.000124003
0.00299798
0.000106938
-0.000115481
0.00281406
-7.32302e-05
-6.02062e-05
0.00325074
-0.000126637
8.11662e-05
0.00382539
-6.29164e-05
0.000113626
0.00440295
0.000102217
-0.000158901
0.00315459
4.00855e-05
-8.6346e-05
0.00249075
6.58257e-05
-6.11404e-05
0.00202397
5.77019e-05
-8.3091e-05
0.00129896
6.18557e-05
-8.30472e-05
0.000921751
4.9571e-05
-3.59814e-05
0.00101289
5.33131e-05
3.21909e-06
0.00135182
7.04536e-05
-4.17162e-05
0.000633527
0.00010577
-0.000167189
0.000972112
2.20139e-05
-0.000178119
0.00168715
4.33156e-05
-0.000110643
0.00193915
3.93536e-05
-5.37569e-05
0.00193814
5.98234e-05
-8.45847e-05
0.00191347
2.64978e-05
-6.81754e-05
0.00186923
1.34412e-05
-6.30127e-05
0.00130037
1.05471e-06
-5.0153e-05
0.000903543
-6.51609e-07
-4.26094e-05
0.000493506
2.60458e-05
-5.27488e-05
-0.000252717
2.95045e-05
-4.57076e-05
-0.000493731
3.64044e-05
-3.11148e-05
-0.00109008
4.2555e-05
-3.11375e-05
-0.00119837
2.25831e-05
-5.97911e-05
-0.00010817
8.48092e-06
-7.38339e-05
0.000292229
4.91622e-05
-6.2156e-05
0.000167753
3.80972e-05
-4.01161e-05
-0.000629607
-0.00156895
-4.94476e-05
0.00261868
-0.00118587
0.000207305
0.00323287
-0.00149502
0.00020991
0.00223509
-0.000769178
0.000251917
0.0039252
-0.000981734
3.9602e-05
0.00375918
-0.00143008
3.38404e-05
0.00308799
-0.000869914
0.00032678
0.0042447
-0.000515334
0.000154496
0.00426616
-0.000869764
-7.98318e-06
0.00412406
-0.00130029
-7.32414e-05
0.00306915
-0.000763881
0.000426903
0.00495793
-0.000593282
0.00030382
0.00502523
-0.000454354
8.16025e-05
0.00459638
-0.000757399
5.41055e-06
0.00436947
-0.00174436
-6.36618e-05
0.00270174
-0.000611057
0.000375372
0.00589713
-0.000376325
0.000101485
0.00585563
-0.000233965
-1.48968e-05
0.00580649
-0.000271953
3.05169e-05
0.00604479
-0.000639214
-2.69466e-05
0.00494028
-0.00174739
1.36147e-05
0.00343525
-0.000161131
0.00110875
0.00613356
-0.000293966
0.000875149
0.00629453
-0.000286567
0.000584132
0.00648217
-0.000394505
0.000313411
0.00635971
-1.75506e-05
0.000172161
0.0064499
-0.000815708
5.72606e-05
0.00610443
-0.00149675
-1.02954e-05
0.0052503
-0.000236293
0.00125611
0.0071562
-0.000132017
0.00101581
0.00721869
0.000154179
0.00102537
0.00733712
-0.000182555
0.000916548
0.00735706
-0.000326727
0.000738152
0.0073714
-0.00024051
0.000410449
0.00662462
-0.000309438
-1.66336e-05
0.00792706
-0.00119994
-6.3002e-05
0.00548088
-3.90014e-05
0.00113236
0.00828413
-0.000236542
0.00118962
0.00813442
1.42433e-05
0.00116662
0.0077942
-0.000164725
0.00124356
0.00734267
-0.00028655
0.00121914
0.00748605
-0.000257619
0.00112689
0.00785184
-0.000222176
0.00115242
0.00808867
-0.000651514
0.000523203
0.00600915
-0.0011269
0.000308691
0.00532193
6.1462e-05
0.000523859
0.00598411
-0.000220406
0.000649278
0.00525151
-0.000450249
0.000639964
0.00438274
-0.000456629
0.000578812
0.00450924
-9.13189e-06
0.000637049
0.00502903
-0.000203841
0.000698743
0.00655291
-0.000258244
0.000777031
0.00657583
-0.000698479
0.00110461
0.00687338
-0.000567785
0.000931638
0.00689445
-0.000835481
0.000504248
0.00744499
-0.000125646
-4.56803e-05
0.00405558
-0.000108325
0.000126657
0.00434001
-0.000315538
2.39882e-05
0.00411383
-0.000408345
-0.000134851
0.00361275
-0.000151561
-0.000400071
0.00330582
-2.3099e-06
-0.000337166
0.00376474
0.000224567
-0.000171155
0.00408555
2.79876e-05
0.000125073
0.00464223
-0.000417211
0.000444008
0.00574102
-0.000446247
0.0004394
0.00620251
-0.000347246
0.000395966
0.00705215
0.000331561
-0.000366245
0.00374915
-2.88794e-05
-0.000189947
0.00369988
2.21596e-05
-0.000112675
0.0031002
-2.39475e-05
-0.000131559
0.00305817
1.40391e-05
-0.00010984
0.00295094
-0.00011086
-4.31527e-05
0.00302505
-0.000110903
-8.68994e-05
0.00324337
4.37765e-05
-9.72946e-05
0.00300647
5.45845e-05
-9.62525e-05
0.0029013
-0.000180355
-8.23554e-06
0.00354251
-0.000253057
0.000104171
0.00413122
-0.000348767
0.000135097
0.00465597
0.000221987
-0.000219909
0.00308809
0.000188596
-0.00015367
0.00305982
6.44203e-05
-0.000101396
0.00248003
8.16092e-05
-7.54404e-05
0.00193576
9.22675e-05
-9.84712e-05
0.00122146
5.8035e-05
-7.02863e-05
0.000924067
5.82788e-05
-1.68196e-05
0.00100416
9.26645e-06
1.2613e-05
0.00132462
5.5256e-05
-4.60082e-05
0.000499646
0.000105298
-0.000170385
0.000881663
5.92304e-06
-0.000175447
0.00175451
8.14901e-05
-9.91543e-05
0.00195222
-6.82189e-05
-3.40895e-05
0.00207854
6.72351e-05
-8.30962e-05
0.00168007
6.4867e-05
-8.00189e-05
0.00186044
3.79492e-05
-6.85464e-05
0.00183681
2.01828e-05
-6.38693e-05
0.00129391
6.89869e-06
-5.08182e-05
0.000904853
2.49162e-06
-4.45831e-05
0.000482848
2.77133e-05
-5.59908e-05
-0.000270147
2.52158e-05
-4.72166e-05
-0.000502845
3.02098e-05
-3.12984e-05
-0.00112013
3.44011e-05
-3.13107e-05
-0.00126125
1.66938e-05
-5.87614e-05
-0.000139937
4.37179e-06
-7.17118e-05
0.000297413
4.60869e-05
-6.01938e-05
0.000141744
2.6259e-05
-3.83704e-05
-0.000617496
-0.00161122
3.64953e-05
0.00257197
-0.00127047
9.99222e-05
0.0030449
-0.0014546
-7.02787e-05
0.00264855
-0.000963646
0.000432335
0.00360208
-0.00101701
0.000187836
0.00329022
-0.00151587
0.000176023
0.00214485
-0.00097547
0.000441924
0.00390318
-0.000670335
0.000248198
0.00387161
-0.000859922
-4.3606e-06
0.00378754
-0.00141283
-1.75124e-05
0.00321805
-0.000942267
0.000544252
0.00445657
-0.000741256
0.000316139
0.00423103
-0.000504977
0.00013007
0.00417872
-0.000689445
-7.56573e-05
0.00405852
-0.00137013
-0.000108734
0.00280366
-0.000634125
0.000559004
0.0050483
-0.000546481
0.000451252
0.00498065
-0.000460264
0.000313504
0.00501963
-0.000454298
0.00010557
0.00467857
-0.000642733
2.49757e-05
0.00428435
-0.00175887
-3.55214e-05
0.00274873
-0.000291516
0.000410291
0.00594239
-0.000493922
0.000176668
0.00602191
-0.000464211
5.27872e-06
0.0060131
-0.000249344
-2.10301e-05
0.00571287
-0.000112412
0.000142286
0.00597042
-0.000878028
8.0743e-06
0.00500815
-0.00167653
-0.000102657
0.00371768
-0.000306924
0.00119773
0.00600873
-0.00030444
0.00103748
0.00614365
-0.000248192
0.000853336
0.00642769
-0.000339204
0.000568928
0.0063833
-0.000449327
0.000265499
0.00638897
-4.25132e-05
0.000189743
0.00611942
-0.000612594
5.63409e-05
0.00634095
-0.00131336
-4.40289e-05
0.00540775
-3.64254e-05
0.00135066
0.00696668
-0.000160034
0.00101064
0.00708487
-6.1232e-05
0.0010307
0.00728883
-4.50441e-05
0.000968867
0.00716513
-0.000287723
0.000916551
0.00717984
-0.000216944
0.00071884
0.00702234
-0.0004329
0.000195368
0.00662335
-0.000382794
0.000121106
0.00747423
-0.00108837
6.24621e-05
0.00537989
0.000418414
0.000995058
0.00708829
-2.20956e-06
0.00107704
0.00817851
-0.000128721
0.00111285
0.00786666
-0.00029682
0.0012021
0.00767585
-0.000293164
0.00124399
0.00760185
-0.000325307
0.00120476
0.00752964
-0.000529655
0.00112815
0.00814752
-0.000493449
0.000801002
0.00760584
-0.000521906
0.00037123
0.00590073
-0.00117905
0.000184426
0.00548107
-0.00027433
0.000381207
0.00587876
8.80601e-05
0.000509602
0.0059274
-0.000163007
0.000574366
0.00516458
-0.000420775
0.000538473
0.00443551
-0.000520564
0.000562666
0.00495262
-0.000198072
0.000711152
0.00521238
0.000155029
0.000728888
0.00667059
-0.000108372
0.00101843
0.00679838
-0.000725434
0.00121771
0.00689553
-0.000723729
0.000886806
0.00678937
-0.000733501
0.000541746
0.0072895
0.000400622
-0.000136364
0.0041488
-0.000187817
0.000199663
0.00414151
-0.000124395
4.1482e-05
0.00446908
-0.000280642
3.00614e-05
0.00420561
-0.000310001
-0.000165541
0.00370226
-0.000407598
-0.000283456
0.00354885
-0.000104417
-0.000216172
0.00380327
3.22488e-05
-6.41107e-06
0.00422856
-1.16615e-05
0.000247045
0.00490544
-0.000602308
0.00044993
0.00615244
-0.000625985
0.000520741
0.00645067
-0.000731155
0.000375768
0.00705877
0.00041356
-0.000363814
0.00341151
0.000272932
-0.000434975
0.00390984
0.000124835
-0.000108097
0.00363489
3.33389e-05
-0.000125979
0.00314289
3.61827e-05
-0.000131272
0.00313569
-1.50484e-05
-5.4226e-05
0.0030351
-0.000109543
-2.99635e-05
0.00313594
-0.000164155
-4.89044e-05
0.0033684
-2.50736e-05
-0.000105632
0.00309618
2.78816e-05
-7.28717e-05
0.00304335
-0.000258009
3.94103e-05
0.0038712
-0.0001223
0.000155394
0.00431471
-0.000469732
0.000172184
0.0048853
0.000165277
-0.000232199
0.00277821
0.000225779
-0.000211945
0.00298545
0.000187467
-0.00016225
0.00297116
0.000110382
-0.000117198
0.00243159
9.7447e-05
-0.000100953
0.0018477
8.95824e-05
-0.000111071
0.00117516
5.91143e-05
-4.79611e-05
0.000923807
1.27593e-05
-2.56622e-06
0.00103179
-2.24852e-06
2.16307e-05
0.00128944
4.15902e-05
-4.87007e-05
0.000370773
5.31874e-05
-0.000173948
0.00084367
-8.85858e-06
-0.000166835
0.00183542
-2.90341e-05
-8.85351e-05
0.00208178
-0.000126219
-2.44514e-05
0.00225547
4.03267e-05
-6.53244e-05
0.00235341
6.34629e-05
-7.85199e-05
0.00161511
7.51383e-05
-8.20315e-05
0.00179879
4.74966e-05
-6.99227e-05
0.00179537
2.62027e-05
-6.44682e-05
0.00128136
1.30391e-05
-5.14898e-05
0.000898721
4.16483e-06
-4.7128e-05
0.000469821
2.89999e-05
-5.95488e-05
-0.000286815
2.07708e-05
-4.86502e-05
-0.000506264
2.05396e-05
-3.16287e-05
-0.00114035
2.66671e-05
-3.16183e-05
-0.00131506
1.04135e-05
-5.76515e-05
-0.00016441
4.63735e-06
-6.96906e-05
0.000302272
4.90687e-05
-5.92405e-05
0.000113545
6.31737e-06
-3.64087e-05
-0.000587405
-0.00171026
2.75612e-05
0.00233532
-0.00142013
0.000176122
0.00286701
-0.00142919
1.25253e-06
0.00254531
-0.00119125
0.00029176
0.00329479
-0.00121746
0.000117389
0.00305769
-0.00145005
-9.04754e-05
0.00267321
-0.00126462
0.00066515
0.00359359
-0.00081077
0.0003667
0.00356366
-0.000899131
0.000226652
0.0032788
-0.00154145
0.000169434
0.00210403
-0.00108297
0.000608997
0.00404321
-0.000786015
0.000388669
0.00380746
-0.000735267
0.00022728
0.00387026
-0.000770107
-3.99799e-06
0.00385469
-0.00137425
-8.69329e-05
0.0033091
-0.000765987
0.000652842
0.0046869
-0.000817918
0.000530232
0.00451391
-0.000748696
0.000345259
0.00430427
-0.000577488
0.000157411
0.00406885
-0.000655412
-4.95287e-05
0.00401199
-0.00141422
-0.000157349
0.00261637
-0.000527365
0.000740832
0.00514646
-0.000558946
0.000515296
0.00504928
-0.000624971
0.000438015
0.0050169
-0.000473131
0.000335753
0.00501323
-0.0003611
0.00013733
0.0048149
-0.000909588
0.000105437
0.00417495
-0.00172661
-6.44305e-05
0.00286324
-0.000492109
0.000472338
0.00612095
-0.000459539
0.000279539
0.00599462
-0.000317159
0.000156272
0.00593988
-0.000213172
2.45363e-05
0.0058415
-0.000302424
8.98436e-05
0.00561841
-0.000138457
0.000234907
0.00583953
-0.000660944
-1.2047e-05
0.00496588
-0.00152023
-4.59091e-05
0.00397046
-0.000227079
0.00138121
0.00589856
-0.000183147
0.00103587
0.00603345
-0.000239158
0.00100577
0.00616914
-0.000272799
0.000798397
0.00642598
-0.000451641
0.000492627
0.00632009
-0.00033961
0.000254174
0.0064472
-0.00026355
0.00014684
0.00585957
-0.000673682
7.37179e-05
0.0065141
-0.00110221
-7.80513e-05
0.00549964
0.000166783
0.00155853
0.00673212
-0.000161697
0.00117696
0.00695985
-8.76532e-05
0.00106538
0.00700911
-0.000152722
0.000969465
0.00714413
-0.000193593
0.000979524
0.00700258
-0.000260711
0.000947738
0.00688634
-0.000608559
0.000519997
0.00677661
-0.000390655
0.000166878
0.00647478
-0.000487919
0.000279953
0.00722275
-0.00114522
8.54887e-05
0.00526057
-0.000219221
0.000870165
0.00599156
0.00033841
0.000873189
0.0070418
0.000366046
0.00105104
0.00771127
-5.94297e-05
0.00108632
0.00762109
-0.000348618
0.00120494
0.00754295
-0.000335148
0.00125785
0.00768584
-0.000322076
0.00128401
0.00785088
-0.000535061
0.00112725
0.00824796
-0.000617437
0.000514089
0.00735498
-0.000664093
0.000251493
0.00577403
-0.00111641
0.00035868
0.0055053
-8.84897e-05
0.000381092
0.00534495
-4.67039e-05
0.000413661
0.00583359
0.000131535
0.00046884
0.005777
1.72147e-05
0.000438511
0.00496669
-0.000345074
0.000456482
0.00457676
-0.000473619
0.000582538
0.00514726
-0.000286311
0.0007929
0.00533026
-3.69146e-05
0.000997998
0.00676018
-0.000131292
0.00115652
0.0069792
-0.000827347
0.00102984
0.00697754
-0.000929132
0.000911598
0.00672266
-0.000789231
0.000520105
0.00682747
0.000529057
-0.000242381
0.00467803
0.000121899
9.27416e-05
0.00440675
4.26038e-05
3.20993e-05
0.00423312
-0.000260393
3.50821e-05
0.00475779
-0.000251286
8.47376e-06
0.00431907
-0.000329999
-0.000167348
0.0039011
-0.000391852
-0.000212315
0.0038273
-0.000179393
-8.04464e-05
0.00389255
-0.000156779
0.000107298
0.00450001
-0.000363728
0.00038901
0.00535797
-0.000690629
0.000574252
0.00653155
-0.000487339
0.000541359
0.00665011
-0.000853264
0.000390662
0.00705164
0.000231891
-0.000178556
0.00234823
0.000400077
-0.000263663
0.0030659
0.00030754
-0.000336104
0.00401778
0.000263315
-0.000149505
0.00350548
5.55922e-05
-0.000159753
0.00321323
8.28113e-05
-0.000111545
0.00319978
1.61114e-05
-4.94358e-05
0.00309757
-0.000169173
-9.99685e-07
0.00326997
-0.00020865
-8.68561e-05
0.00355602
-8.33814e-05
-8.05453e-05
0.00322883
-0.00012862
-4.89582e-05
0.00331353
-0.0002875
9.38304e-05
0.0042114
-0.000354116
0.000199971
0.00461201
-0.000572888
0.000178812
0.00515316
0.000150237
-0.000210333
0.00292774
0.000155469
-0.000222019
0.00269627
0.000247274
-0.000213697
0.00286476
0.000213144
-0.000168807
0.00285712
0.000155427
-0.000143663
0.00234507
0.000131712
-0.000129418
0.00174737
0.000105782
-0.000113539
0.00113912
5.16926e-05
-2.13534e-05
0.000919902
1.78041e-05
1.3933e-05
0.00104246
-3.19358e-05
3.1526e-05
0.00126169
3.57497e-05
-5.00703e-05
0.000237813
2.09364e-05
-0.000175246
0.000841558
-2.68636e-05
-0.00016025
0.00193864
3.33746e-06
-8.11485e-05
0.00218421
-0.000212801
-5.6499e-06
0.00248024
8.40401e-06
-1.91028e-05
0.0018781
3.11444e-05
-6.1402e-05
0.00230515
6.52489e-05
-8.14018e-05
0.00154923
8.46358e-05
-8.49579e-05
0.00172919
5.45173e-05
-7.01586e-05
0.00174654
3.33724e-05
-6.48612e-05
0.00126135
2.00116e-05
-5.25381e-05
0.000884119
4.77914e-06
-5.05421e-05
0.000456035
2.8232e-05
-6.34116e-05
-0.000300285
1.61904e-05
-5.01432e-05
-0.00050394
8.2798e-06
-3.20592e-05
-0.00114819
1.95851e-05
-3.14506e-05
-0.00136085
4.76758e-06
-5.71515e-05
-0.000181717
5.23372e-06
-6.8281e-05
0.000306079
4.40521e-05
-5.83814e-05
9.14654e-05
-7.33664e-06
-3.45479e-05
-0.00054552
-0.00163371
-7.72287e-05
0.00234324
-0.00145189
6.59592e-05
0.00281027
-0.00147509
-4.84317e-05
0.00242965