/*--------------------------------*- C++ -*----------------------------------*\
  =========                 |
  \\      /  F ield         | OpenFOAM: The Open Source CFD Toolbox
   \\    /   O peration     | Website:  https://openfoam.org
    \\  /    A nd           | Version:  7
     \\/     M anipulation  |
\*---------------------------------------------------------------------------*/
FoamFile
{
    version     2.0;
    format      ascii;
    class       volVectorField;
    location    "7.5";
    object      U_0;
}
// * * * * * * * * * * * * * * * * * * * * * * * * * * * * * * * * * * * * * //

dimensions      [0 1 -1 0 0 0 0];

internalField   nonuniform List<vector> 
18750
(
(0.0855151 0.833234 -0.906196)
(-1.38177 0.988022 -0.577763)
(-0.10898 -0.358448 -1.76278)
(0.0477474 0.867883 -0.849661)
(-2.62157 0.786626 -0.493441)
(-1.43479 -0.187778 -1.60453)
(-1.49912 1.10143 -0.641369)
(-0.211866 -0.105023 -2.45143)
(-0.12446 -0.338006 -1.72864)
(0.00869917 0.894362 -0.804205)
(-3.21598 1.2555 0.390392)
(-2.5689 0.362466 -0.0890371)
(-2.64695 0.641699 -0.530328)
(-1.50039 -0.0616463 -1.81809)
(-1.45345 0.095214 -1.66341)
(-1.60655 1.1811 -0.693132)
(-0.311182 0.212329 -1.99284)
(-0.212477 -0.147055 -2.36314)
(-0.138797 -0.313956 -1.69342)
(-0.0217226 0.901954 -0.765537)
(-3.42094 -2.13421 0.574795)
(-3.3949 1.4384 -0.672531)
(-3.40887 1.96705 0.388352)
(-1.89666 0.748774 -1.18339)
(-2.52023 0.331066 -0.241039)
(-2.65688 0.755512 -0.524316)
(-1.82586 0.336057 -0.769279)
(-1.40897 0.17105 -1.98309)
(-1.47927 0.240796 -1.62625)
(-1.71715 1.2723 -0.724843)
(0.286591 0.765052 -0.960425)
(-0.282119 0.225622 -1.99204)
(-0.207278 -0.186164 -2.26558)
(-0.146768 -0.284099 -1.65696)
(-0.0379065 0.869374 -0.742966)
(-4.40319 -3.08642 0.145003)
(-3.88744 2.72389 1.29134)
(-3.95195 -2.3002 0.789061)
(-3.0691 0.963624 -0.76496)
(-3.45831 1.41771 -0.107123)
(-4.05228 0.796408 0.721209)
(-2.65735 1.03283 0.825194)
(-1.8229 0.818245 -1.27182)
(-2.47567 0.195349 -0.335062)
(-2.75261 0.81056 -0.451832)
(-1.29211 0.469055 -0.443325)
(-1.70553 0.453763 -1.02268)
(-1.35803 0.276363 -2.03014)
(-1.54753 0.435765 -1.47087)
(-1.81372 1.46158 -0.770817)
(0.465155 0.676373 -0.474905)
(0.311399 0.802989 -0.930055)
(-0.259872 0.24964 -1.95797)
(-0.194138 -0.222828 -2.16137)
(-0.150942 -0.246131 -1.62017)
(-0.0347706 0.811284 -0.735279)
(-4.26608 -1.30753 -0.20008)
(-4.92443 1.11996 2.2996)
(-3.85111 -3.6511 -0.176445)
(-3.60611 3.14507 0.71086)
(-4.03082 1.07499 1.93975)
(-4.1598 -2.66393 0.726973)
(-2.41035 1.28383 -0.346092)
(-2.90326 0.514136 -0.581611)
(-3.43007 1.45353 0.0289073)
(-4.0488 0.221442 0.783474)
(-2.34235 1.65461 0.473348)
(-2.48371 1.32803 0.156503)
(-1.83358 0.792808 -1.24545)
(-2.4248 0.0496641 -0.304511)
(-2.86554 0.773373 -0.373054)
(-1.04701 0.62664 -0.31544)
(-1.19299 0.532341 -0.474491)
(-1.54997 0.605592 -1.25549)
(-1.30902 0.357481 -1.95664)
(-1.59309 0.530652 -1.2744)
(-1.94537 1.63724 -0.815074)
(0.217265 0.24025 -0.723799)
(0.462126 0.659658 -0.50262)
(0.315637 0.832682 -0.893894)
(-0.230753 0.278376 -1.92066)
(-0.174238 -0.253858 -2.05375)
(-0.155464 -0.19926 -1.58383)
(-0.0226286 0.76114 -0.715091)
(-2.85529 -2.36559 0.0649573)
(-4.96731 -0.825715 0.524575)
(-3.88222 -2.06981 -0.0196931)
(-4.98081 1.49502 2.09075)
(-5.3892 1.18216 2.42622)
(-3.30466 -3.91891 -0.557094)
(-3.16885 1.29956 1.32148)
(-3.69119 1.54026 1.29827)
(-4.02189 0.598662 2.13351)
(-4.06347 -3.22795 0.527268)
(-2.12712 0.587673 -0.245835)
(-2.37271 1.07204 -0.512959)
(-2.85045 0.256729 -0.619277)
(-3.58967 1.25856 0.388415)
(-4.30271 1.02599 0.875482)
(-1.8288 0.894303 0.769161)
(-2.37699 1.51336 0.37667)
(-2.31947 1.35303 -0.58835)
(-1.86257 0.697402 -1.13389)
(-2.34757 -0.262035 -0.110986)
(-2.87578 0.639273 -0.257006)
(-0.721971 0.666102 -0.746516)
(-1.05663 0.646035 -0.268682)
(-1.0995 0.569257 -0.477523)
(-1.44297 0.664921 -1.3699)
(-1.28057 0.396221 -1.79102)
(-1.6351 0.551331 -1.02454)
(-2.04679 1.68238 -0.836069)
(0.113037 -0.00711332 -0.956481)
(0.225453 0.246796 -0.735095)
(0.484103 0.643553 -0.524799)
(0.331666 0.863197 -0.865708)
(-0.202146 0.296658 -1.88945)
(-0.16169 -0.262023 -1.94636)
(-0.161148 -0.145317 -1.54709)
(-0.006968 0.730802 -0.673067)
(-1.87282 -2.66206 -0.108595)
(-3.84464 -1.14713 0.362921)
(-3.10412 -2.03121 0.197877)
(-5.30414 -0.26194 1.08203)
(-5.07799 -1.65324 0.20086)
(-3.84682 -2.17265 0.31515)
(-4.80411 1.06718 2.39967)
(-5.27944 0.597268 2.05812)
(-5.75304 -0.674066 2.05934)
(-3.06739 -4.16932 -1.14581)
(-3.07182 1.0068 0.466697)
(-3.28007 0.882894 1.4423)
(-3.81411 0.613203 1.3641)
(-4.09252 -0.269047 2.38993)
(-4.29278 -3.42412 0.777819)
(-1.92306 0.798858 -1.03403)
(-2.15878 1.07934 0.284578)
(-2.35007 0.561164 -0.349344)
(-2.88579 0.232523 -0.442372)
(-3.67296 0.748607 0.682404)
(-4.62053 -0.376093 0.879465)
(-1.62766 0.765535 -0.0749845)
(-1.9058 0.554439 0.215294)
(-2.32608 1.24693 0.281588)
(-2.2709 1.18572 -0.818198)
(-1.87881 0.343354 -0.897872)
(-2.26819 -0.397192 -0.024365)
(-2.79266 -0.0539379 0.0374929)
(-0.687931 0.334792 -0.552394)
(-0.74499 0.703137 -0.713301)
(-1.08976 0.636064 -0.143338)
(-1.0032 0.539798 -0.503221)
(-1.30018 0.614395 -1.43675)
(-1.26233 0.310089 -1.6152)
(-1.65512 0.544557 -0.778569)
(-2.07252 1.54189 -0.803601)
(-0.312943 -0.534071 -0.920621)
(0.118193 0.0236308 -1.00972)
(0.22582 0.255156 -0.739942)
(0.494732 0.618185 -0.538712)
(0.352446 0.862588 -0.86143)
(-0.162998 0.273712 -1.8664)
(-0.155262 -0.218131 -1.85137)
(-0.170353 -0.0897702 -1.50693)
(0.0076241 0.706855 -0.619234)
(-2.57993 -1.37447 -0.217781)
(-3.2108 -0.984713 0.187429)
(-1.6123 -2.89173 -0.0324596)
(-4.51382 -0.111599 0.178209)
(-3.87166 -1.19726 0.361399)
(-2.90078 -2.31433 0.324872)
(-5.20198 -0.195855 1.42324)
(-5.49866 -0.459075 0.977777)
(-5.12142 -2.1766 -0.160024)
(-3.34847 -2.68672 0.312409)
(-4.72149 1.5624 2.27265)
(-5.07369 0.344331 2.18436)
(-5.22801 -0.591266 1.69267)
(-5.67692 -1.08032 2.20394)
(-2.6141 -4.39218 -2.10582)
(-3.16353 -0.262624 0.623478)
(-3.13736 0.663385 0.591327)
(-3.50201 -0.317178 1.67264)
(-4.11117 1.10188 1.83492)
(-4.1643 -1.10062 2.68771)
(-4.48026 -3.57628 0.47136)
(-1.78666 0.476502 -0.938561)
(-2.18714 -0.11576 -0.789202)
(-2.36454 0.569466 -0.252792)
(-2.39561 0.379133 -0.526176)
(-2.85836 -0.327916 0.030448)
(-3.84066 1.09137 0.739795)
(-4.46448 -1.05801 0.86308)
(-1.59284 0.238774 -0.508031)
(-1.82574 0.015131 0.0129074)
(-1.97181 0.399545 0.0427643)
(-2.24998 0.82676 -0.00196857)
(-2.19844 1.03894 -0.873712)
(-1.86939 -0.142038 -0.65578)
(-2.16231 -0.60788 0.127458)
(-2.78606 -0.283656 0.122337)
(-0.99959 0.169569 -0.64167)
(-0.687317 0.406628 -0.60565)
(-0.754441 0.689882 -0.642572)
(-1.10885 0.584181 -0.0818848)
(-0.900786 0.478239 -0.570713)
(-1.16672 0.504341 -1.47899)
(-1.24713 0.193452 -1.46575)
(-1.64995 0.457178 -0.616375)
(-2.04385 1.21068 -0.69357)
(-0.550063 -0.309507 -0.796387)
(-0.294956 -0.522083 -0.954247)
(0.124974 0.0532546 -1.06488)
(0.233618 0.268903 -0.748551)
(0.490111 0.570519 -0.556725)
(0.377294 0.860945 -0.851616)
(-0.105485 0.200989 -1.83898)
(-0.153336 -0.200826 -1.76196)
(-0.182619 -0.0358061 -1.46315)
(0.0265411 0.674179 -0.568664)
(-2.3558 -1.35862 0.0823143)
(-2.97958 -0.966971 -0.31973)
(-2.27046 -1.73391 -0.200909)
(-3.52139 0.0285356 -0.10724)
(-3.20529 -0.939136 0.827951)
(-1.44149 -2.90818 0.0620631)
(-4.53849 0.289805 0.427238)
(-4.37879 -0.385986 0.174851)
(-3.70888 -1.49722 0.182406)
(-3.00865 -2.37262 0.33644)
(-5.22409 -0.146861 1.6728)
(-5.1653 -0.49896 1.3179)
(-5.18257 -0.751703 1.12638)
(-5.02361 -2.26216 -0.245596)
(-2.92782 -3.1441 0.116838)
(-5.00022 0.779017 2.3827)
(-5.01517 -0.292604 2.29462)
(-5.06616 -0.537955 2.00541)
(-5.41172 -0.887042 1.1848)
(-5.45182 -1.41152 2.89283)
(-2.60743 -4.03579 -1.70468)
(-3.12886 -0.670079 0.970998)
(-3.07716 -0.168811 0.785286)
(-3.40439 0.0304064 0.916728)
(-3.50167 -0.831258 2.04626)
(-3.91921 -1.527 1.68289)
(-3.94557 -2.23521 2.68659)
(-4.0452 -4.40814 0.457808)
(-1.91215 -0.696299 0.232632)
(-1.82616 0.167892 -0.983171)
(-2.25905 -0.0233902 -1.02028)
(-2.452 0.0834101 -0.367249)
(-2.6232 0.264038 -0.335355)
(-3.08437 -0.472164 0.251434)
(-3.90846 -0.312545 1.15778)
(-4.5488 -1.32796 0.929177)
(-1.75241 -0.103009 -0.597411)
(-1.56011 -0.0259704 -0.368896)
(-1.87059 0.229064 -0.0520894)
(-1.9963 -0.206219 -0.0310044)
(-2.1611 0.400711 -0.385684)
(-2.16107 0.732946 -0.789728)
(-1.87858 -0.313819 -0.58351)
(-2.20378 -0.807239 0.207394)
(-2.75263 -0.713036 0.236756)
(-1.43413 0.0516788 -0.227819)
(-0.979283 0.202514 -0.684903)
(-0.70345 0.470007 -0.606498)
(-0.793859 0.605611 -0.494618)
(-1.11278 0.492379 -0.00315445)
(-0.812558 0.395561 -0.652031)
(-1.02203 0.374862 -1.50305)
(-1.26588 0.17614 -1.34405)
(-1.62933 0.368554 -0.554271)
(-1.94459 0.849648 -0.579263)
(-0.826089 -0.00785822 -1.41786)
(-0.549809 -0.313896 -0.807026)
(-0.27753 -0.501351 -0.99003)
(0.129107 0.0850545 -1.12222)
(0.240545 0.278206 -0.757142)
(0.529542 0.533761 -0.59321)
(0.396306 0.849639 -0.844645)
(-0.0736264 0.186925 -1.79702)
(-0.141526 -0.194553 -1.67742)
(-0.199113 0.0144798 -1.41737)
(0.0526469 0.630484 -0.52823)
(-1.93799 -1.17324 0.0262176)
(-2.74219 -0.981648 0.00698271)
(-2.23881 -1.49597 0.0703204)
(-2.99301 -0.588333 0.153734)
(-2.89911 -1.07886 -0.213532)
(-2.01392 -1.99429 -0.200736)
(-3.75272 -0.446608 0.249089)
(-3.63097 -0.298613 -0.164772)
(-3.14147 -1.52818 0.133513)
(-1.38629 -2.95131 0.164255)
(-4.37372 -0.0127284 0.76099)
(-4.41381 -0.0784723 0.360452)
(-4.38954 -0.666185 0.222552)
(-3.6748 -1.68776 0.175669)
(-2.96035 -2.44738 0.387939)
(-5.04248 -0.192675 1.94746)
(-5.23788 -0.493584 1.57603)
(-4.92635 -0.915188 1.31264)
(-4.90267 -1.14634 0.902465)
(-4.98799 -2.40475 -0.192616)
(-2.67552 -3.36879 -0.132841)
(-5.18216 0.383548 2.89746)
(-4.90421 -0.637388 2.42647)
(-4.95792 -1.18575 2.2294)
(-5.0535 -0.834613 2.37756)
(-5.40567 -1.77435 1.53126)
(-4.92621 -1.84117 2.76808)
(-2.64912 -3.49869 -0.772557)
(-3.39117 -0.794046 1.83099)
(-2.93535 -0.95565 1.17196)
(-3.09189 -0.17428 0.976984)
(-3.63321 -1.25795 1.42601)
(-3.63998 -0.818772 2.25684)
(-3.93206 -2.26727 1.81826)
(-3.69847 -3.0217 2.41105)
(-4.15857 -4.16988 0.651446)
(-2.48142 -0.927682 0.337771)
(-2.0061 -0.923081 -0.115226)
(-1.85676 0.222274 -1.24219)
(-2.37841 -0.530181 -1.01302)
(-2.62764 0.145136 -0.452865)
(-2.65951 -0.388687 0.132686)
(-3.24184 -0.871429 0.708452)
(-3.52785 -1.65291 1.1334)
(-4.12618 -2.56581 0.826461)
(-2.17445 -0.368561 -0.17723)
(-1.76788 -0.0556651 -0.413304)
(-1.62187 0.0540332 -0.540889)
(-1.89225 -0.0986716 -0.0108319)
(-2.05614 -0.10517 -0.258757)
(-2.03352 -0.0607397 -0.559805)
(-2.11128 0.451321 -0.582781)
(-1.88088 -0.631419 -0.28499)
(-2.11427 -1.14389 0.431148)
(-2.5958 -1.27851 0.342835)
(-1.63097 0.147881 -0.420546)
(-1.42 0.101076 -0.264415)
(-0.958352 0.286415 -0.724355)
(-0.712843 0.484209 -0.580938)
(-0.795718 0.528726 -0.328648)
(-1.09835 0.353322 0.0788843)
(-0.690023 0.282881 -0.784849)
(-0.923104 0.21771 -1.46053)
(-1.24419 0.0276948 -1.28628)
(-1.62763 0.204825 -0.442342)
(-1.8208 0.474654 -0.480938)
(-1.22361 0.155499 -1.45591)
(-0.838253 -0.0179641 -1.42969)
(-0.550031 -0.313258 -0.820039)
(-0.257624 -0.472455 -1.03185)
(0.128565 0.120169 -1.18291)
(0.244281 0.281618 -0.76145)
(0.537758 0.567204 -0.588106)
(0.423838 0.817532 -0.837494)
(-0.0564386 0.176692 -1.75852)
(-0.129878 -0.200262 -1.60209)
(-0.217035 0.0590058 -1.37071)
(0.0813731 0.577559 -0.498018)
(-1.56968 -1.32537 0.124215)
(-2.43141 -0.848048 -0.0358328)
(-1.93567 -1.17861 0.0747397)
(-2.93298 -0.487693 0.0943448)
(-2.66169 -1.1162 -0.0182576)
(-2.12132 -1.60385 0.0715232)
(-3.22462 -0.586466 0.0240513)
(-3.04975 -0.779581 0.0149462)
(-2.92873 -1.08095 -0.0555694)
(-1.55427 -2.34703 -0.24006)
(-3.73569 -0.635605 0.240132)
(-3.83422 -0.652099 0.187319)
(-3.84663 -0.640469 -0.159705)
(-3.06805 -1.68313 0.0138957)
(-1.38564 -2.94624 0.235532)
(-4.11316 0.0551191 1.15328)
(-4.34652 -0.292146 0.760625)
(-4.27178 -0.827022 0.319601)
(-4.34559 -1.10617 0.350692)
(-3.69794 -1.75562 -0.042791)
(-2.81475 -2.65845 0.366583)
(-4.77165 -0.647231 1.75736)
(-5.09744 -0.076407 1.65857)
(-5.09216 -0.94589 1.39201)
(-4.8682 -1.34752 1.10224)
(-4.67094 -1.31358 0.581089)
(-5.02859 -2.16273 -0.15695)
(-2.56464 -3.43825 -0.331155)
(-5.31008 1.0884 2.45541)
(-5.33772 0.0609222 2.50286)
(-4.85346 -0.89802 2.47485)
(-4.87841 -1.50823 2.27196)
(-4.88102 -1.66452 2.46995)
(-5.16413 -1.99154 2.25553)
(-3.9915 -2.44967 1.65185)
(-2.43126 -3.31287 -0.379228)
(-3.60154 -0.577548 1.83166)
(-2.85609 -1.90182 1.72934)
(-2.78763 -1.19267 1.25919)
(-3.23672 -0.261536 1.28921)
(-4.08946 -0.661579 1.16502)
(-3.93032 -0.852374 2.46054)
(-4.16654 -1.94369 2.61124)
(-3.52991 -3.28146 2.18743)
(-4.15322 -3.58603 0.580476)
(-2.79829 0.0651267 0.108253)
(-2.59036 -0.721181 -0.0693845)
(-2.00822 -1.1068 -0.324029)
(-2.01368 -0.277334 -0.855094)
(-2.29081 -0.801081 -1.10103)
(-2.62584 -0.735583 -0.538463)
(-2.7509 -0.679948 0.385693)
(-3.03068 -1.77143 1.13959)
(-4.09267 -1.03699 1.46387)
(-3.79285 -3.00935 0.781916)
(-2.29494 0.038208 -0.0382561)
(-1.84925 0.215856 -1.17267)
(-1.86269 -0.257271 -0.839415)
(-1.85961 -0.00533452 -0.704306)
(-1.93751 -0.326278 0.0936422)
(-1.96335 -0.601114 -0.403036)
(-2.01398 -0.217659 -0.59901)
(-2.02175 -0.106956 -0.420149)
(-1.91323 -0.948327 -0.204478)
(-2.11439 -1.47711 0.51369)
(-2.36411 -1.84626 0.446333)
(-2.06054 0.461266 -0.752496)
(-1.65796 0.163152 -0.505757)
(-1.38865 0.18647 -0.362337)
(-0.949733 0.398456 -0.760927)
(-0.721634 0.426612 -0.456785)
(-0.816418 0.387794 -0.187882)
(-1.05772 0.238606 0.138751)
(-0.598011 0.22206 -0.868633)
(-0.786919 0.0957594 -1.42727)
(-1.17093 -0.251505 -1.25506)
(-1.63302 0.14268 -0.408066)
(-1.60529 -0.0254098 -0.363249)
(-1.25871 0.505148 -1.60257)
(-1.22355 0.161753 -1.46255)
(-0.852984 -0.0268512 -1.43542)
(-0.545435 -0.303786 -0.839318)
(-0.233638 -0.440652 -1.08144)
(0.126719 0.167132 -1.24676)
(0.246885 0.282435 -0.76523)
(0.542927 0.55866 -0.586673)
(0.460625 0.779724 -0.839318)
(-0.0284445 0.158852 -1.72344)
(-0.115726 -0.207463 -1.53548)
(-0.233506 0.0997471 -1.32309)
(0.113768 0.515693 -0.470121)
(-1.74974 -1.1343 -0.0277126)
(-2.14296 -1.01342 0.208013)
(-1.4486 -1.4656 0.130927)
(-2.58143 -0.46737 0.0944371)
(-2.44037 -0.957506 -0.0445026)
(-1.85856 -1.3267 0.108379)
(-2.84788 -0.818659 0.214619)
(-2.83287 -0.567188 0.114091)
(-2.58058 -1.27078 -0.0947946)
(-1.84661 -1.86234 0.0561061)
(-3.25264 -0.522455 0.422584)
(-3.32063 -0.502251 0.201664)
(-2.98111 -0.917238 -0.0422603)
(-2.7283 -1.2958 0.154024)
(-1.31607 -2.47661 -0.331411)
(-3.82744 -0.761289 0.346878)
(-3.83544 -0.761918 0.0368289)
(-3.84027 -0.738243 0.0957316)
(-3.98563 -0.604321 0.0413004)
(-3.04656 -1.72399 -0.197837)
(-1.59652 -2.74587 0.314229)
(-4.06583 0.217134 1.42599)
(-4.13287 -0.24118 1.11003)
(-4.27278 -0.500747 0.727662)
(-4.09051 -1.37304 0.159354)
(-4.20517 -1.20133 0.402409)
(-3.46324 -2.20377 -0.244649)
(-2.63774 -2.90288 0.116723)
(-4.57706 -0.582474 1.83203)
(-4.72643 -0.494235 1.7346)
(-4.8636 0.197876 1.75061)
(-4.83616 -0.963054 1.47232)
(-4.80898 -1.36391 1.04176)
(-4.17334 -1.75353 0.416044)
(-5.01865 -1.84122 -0.243339)
(-2.56292 -3.44189 -0.348647)
(-5.39047 0.284736 2.38464)
(-5.38612 -0.272697 2.49236)
(-5.23014 -0.234649 2.32207)
(-4.65271 -1.30957 2.55235)
(-4.63453 -1.85296 2.32971)
(-4.80955 -1.9348 2.30831)
(-5.11035 -1.7671 2.15759)
(-2.87505 -3.2404 1.31246)
(-2.31546 -3.30721 -0.400594)
(-4.03417 -0.80418 1.42028)
(-3.41149 -1.39352 1.7388)
(-2.67661 -2.19037 1.68213)
(-2.64217 -1.93941 1.33883)
(-3.31809 -0.0571357 1.93781)
(-4.14873 -0.947575 1.13517)
(-3.8879 -1.83248 2.63517)
(-3.48054 -3.42688 2.38555)
(-3.5106 -3.29781 2.25925)
(-3.29729 -4.17024 -0.0688382)
(-2.58156 -0.045421 0.28662)
(-2.89113 -0.118137 0.238569)
(-2.61801 -0.622326 -0.194042)
(-2.17848 -0.712162 -0.564599)
(-2.07929 0.282659 -1.75303)
(-2.35428 -0.851205 -1.04711)
(-2.48809 -1.1739 -0.372194)
(-2.85827 -1.1123 0.732106)
(-3.13287 -2.16736 1.60828)
(-3.04556 -2.83697 1.3397)
(-3.91769 -3.07029 0.905849)
(-2.57924 0.76049 -0.916508)
(-2.36896 0.198676 -0.0909839)
(-2.16694 0.204699 -0.844921)
(-2.10016 -0.277681 -0.483701)
(-1.95609 -0.383905 -0.335105)
(-1.865 -0.632881 -0.194984)
(-1.99058 -0.758051 -0.52398)
(-1.97452 -0.551521 -0.544431)
(-2.00426 -0.230749 -0.297811)
(-1.8916 -1.34269 0.235856)
(-1.76676 -2.07558 0.635544)
(-1.98121 -2.54111 0.534622)
(-2.02019 1.031 -1.47322)
(-2.07049 0.499125 -0.837003)
(-1.66304 0.223776 -0.604023)
(-1.35556 0.236168 -0.498224)
(-0.946798 0.45503 -0.764357)
(-0.733617 0.335471 -0.329621)
(-0.792555 0.224909 -0.0513932)
(-1.00428 0.0654034 0.187791)
(-0.492458 0.15094 -0.963626)
(-0.726234 0.00871375 -1.35082)
(-1.16774 -0.296691 -1.263)
(-1.65956 0.00245136 -0.31249)
(-1.33444 -0.583456 -0.236243)
(-1.10697 0.442702 -2.01116)
(-1.26461 0.507578 -1.66219)
(-1.23321 0.181147 -1.46397)
(-0.857978 -0.0295837 -1.4428)
(-0.541119 -0.293173 -0.861258)
(-0.212635 -0.418251 -1.1396)
(0.118513 0.205795 -1.30959)
(0.250467 0.281882 -0.766782)
(0.559477 0.553569 -0.587478)
(0.497638 0.734035 -0.846646)
(0.00386227 0.132654 -1.68414)
(-0.106282 -0.214143 -1.47508)
(-0.250259 0.125299 -1.2742)
(0.149916 0.447921 -0.440281)
(-1.70823 -1.00144 0.030003)
(-2.05885 -0.71419 -0.043047)
(-1.66437 -1.25008 -0.0931613)
(-2.3713 -0.689061 0.132832)
(-2.1133 -0.983954 0.221324)
(-1.28588 -1.65729 0.0898767)
(-2.60731 -0.624883 0.317419)
(-2.54112 -0.634126 0.125429)
(-2.40731 -0.973131 -0.0582501)
(-1.90338 -1.3333 0.04135)
(-2.96855 -0.775773 0.408691)
(-2.73506 -0.962606 0.210592)
(-2.72571 -0.61899 0.0764387)
(-2.61163 -1.18174 -0.210226)
(-1.48333 -2.16006 0.000914374)
(-3.36184 -0.424858 0.472007)
(-3.26874 -0.42767 0.50486)
(-3.28359 -0.507144 0.23318)
(-2.88605 -1.09972 -0.130027)
(-2.77073 -1.148 0.184927)
(-1.17245 -2.48687 -0.344803)
(-3.87475 -0.327983 0.52811)
(-3.89038 -0.776795 0.20383)
(-3.81448 -0.997305 -0.146257)
(-3.70773 -0.879148 0.0654086)
(-3.96517 -0.573233 0.129526)
(-2.8272 -1.90045 -0.284061)
(-1.49622 -2.8609 0.292575)
(-3.90329 0.0894857 1.56691)
(-3.99031 -0.217207 1.42712)
(-4.12261 -0.602292 1.0458)
(-4.12978 -1.05826 0.704552)
(-3.9434 -1.62873 0.12677)
(-3.95213 -1.41802 0.405428)
(-3.67298 -2.24181 -0.142905)
(-2.69166 -2.84882 -0.0823103)
(-4.56518 -0.0512101 2.03831)
(-4.68113 -0.813753 1.67105)
(-4.68523 -0.652694 1.77599)
(-4.72067 -0.661951 1.63027)
(-4.60345 -1.19261 1.44929)
(-4.57616 -1.63167 0.926022)
(-3.83647 -2.21385 0.200259)
(-4.56652 -2.42081 0.185841)
(-2.35634 -3.54131 -0.406357)
(-4.70778 1.42614 1.83399)
(-5.41327 0.215906 2.38968)
(-5.30513 -0.539148 2.43414)
(-4.88449 -1.31055 2.40862)
(-4.65961 -1.73868 2.44513)
(-4.55599 -2.25304 2.30931)
(-4.8317 -2.28057 2.22716)
(-4.34194 -3.14398 0.734533)
(-3.15272 -2.86723 1.50995)
(-2.2342 -3.48812 -0.357623)
(-3.74568 -0.46354 1.00674)
(-3.87299 -0.720213 1.49225)
(-3.28243 -1.74003 1.50081)
(-2.61057 -2.33137 1.48503)
(-2.73182 -2.31483 1.44551)
(-3.32619 -0.782342 2.16596)
(-4.7029 -0.0777284 1.18596)
(-4.19673 -1.6445 3.00702)
(-3.42044 -3.67901 2.32735)
(-3.22296 -3.79921 2.34458)
(-3.51334 -4.10888 0.0212354)
(-2.49063 1.76516 -0.529541)
(-2.73603 -0.594527 0.661436)
(-2.80697 -0.519555 0.334435)
(-2.68088 -0.577226 -0.287215)
(-2.42249 -0.395096 -0.709417)
(-2.12124 -1.36726 -1.1211)
(-2.1267 -1.57207 -0.567269)
(-2.60726 -0.981968 0.105375)
(-2.73913 -1.69669 1.17527)
(-3.0136 -3.01472 1.4216)
(-3.07529 -3.22316 1.48808)
(-2.75671 -4.21681 0.412273)
(-2.26199 1.26308 -2.23002)
(-2.21535 1.47693 -1.67242)
(-2.53893 0.115944 -0.0801892)
(-2.14203 0.112267 -0.640821)
(-2.05183 -0.118823 -0.60396)
(-1.91233 -0.491676 -0.158019)
(-1.95984 -0.579465 -0.213849)
(-1.85742 -1.28185 -0.319581)
(-1.91315 -0.740704 -0.505079)
(-2.08599 -0.36766 -0.250643)
(-1.88079 -1.75522 0.298818)
(-2.25182 -2.09881 0.741468)
(-1.53972 -3.21602 0.564075)
(-1.78977 1.31856 -1.62631)
(-2.01835 1.08036 -1.52784)
(-2.03661 0.55816 -0.962912)
(-1.6879 0.240297 -0.701247)
(-1.33391 0.272156 -0.722458)
(-0.94855 0.439824 -0.683227)
(-0.755009 0.28829 -0.168437)
(-0.779873 0.0893672 0.0513664)
(-0.944272 -0.0597641 0.222211)
(-0.386748 0.103365 -1.07049)
(-0.621937 -0.0992113 -1.29817)
(-1.16974 -0.529926 -1.18948)
(-1.59831 -0.272622 -0.173372)
(-1.23736 -0.843934 -0.178712)
(-1.52473 0.0816917 -1.53469)
(-1.08208 0.344476 -2.09206)
(-1.29201 0.56594 -1.66692)
(-1.23028 0.180984 -1.47631)
(-0.869017 -0.00283247 -1.44415)
(-0.53227 -0.298314 -0.887199)
(-0.19304 -0.38426 -1.21192)
(0.109025 0.239181 -1.37024)
(0.250409 0.271509 -0.768241)
(0.56962 0.54486 -0.590105)
(0.557564 0.707286 -0.841327)
(0.039422 0.103598 -1.63825)
(-0.0989434 -0.224854 -1.43006)
(-0.252318 0.138487 -1.22559)
(0.189817 0.372053 -0.408173)
(-1.52411 -1.09475 0.012392)
(-1.94265 -0.998752 0.0116018)
(-1.63494 -1.13408 -0.0054236)
(-2.18479 -0.688027 0.193365)
(-1.92718 -0.910167 -0.0175506)
(-1.64999 -1.26899 -0.138995)
(-2.36262 -0.849302 0.519913)
(-2.3371 -0.759898 0.110718)
(-2.06512 -1.00667 0.2013)
(-1.14262 -1.78766 0.0546515)
(-2.65071 -0.808307 0.448388)
(-2.50762 -0.727245 0.326082)
(-2.45398 -0.87662 0.0509794)
(-2.36917 -0.99594 -0.0872729)
(-1.94504 -1.33828 -0.0382887)
(-3.09649 -0.60879 0.594733)
(-2.88208 -0.941684 0.442881)
(-2.6998 -1.0313 0.206423)
(-2.59529 -0.773499 0.0594785)
(-2.3805 -1.43573 -0.211814)
(-1.22776 -2.31527 -0.0327419)
(-3.32499 -0.141721 0.706426)
(-3.24851 -0.694382 0.540483)
(-3.14525 -0.83651 0.462301)
(-3.18416 -0.838838 0.365918)
(-2.96899 -1.18543 -0.111602)
(-2.26933 -1.79806 0.270756)
(-1.13776 -2.40579 -0.232538)
(-4.02253 -0.54901 0.422011)
(-3.8466 -0.798804 0.251732)
(-3.8875 -0.785138 0.153398)
(-3.80433 -1.07443 -0.124323)
(-3.51906 -1.23287 0.277312)
(-3.81065 -0.899091 0.314293)
(-2.92684 -1.85031 -0.549371)
(-1.64604 -2.79584 0.24029)
(-3.82645 0.214665 1.66017)
(-3.88772 0.0343538 1.62623)
(-4.01967 -0.366428 1.40462)
(-4.15472 -0.9299 0.99925)
(-3.91498 -1.6661 0.598636)
(-3.99299 -1.56031 0.163698)
(-3.51861 -1.85285 0.300662)
(-3.74047 -2.33537 -0.0286115)
(-2.7386 -2.80156 -0.191012)
(-4.28694 0.395858 2.20191)
(-4.47592 -0.443052 1.80845)
(-4.58062 -0.714356 1.72085)
(-4.61611 -1.13941 1.63286)
(-4.51754 -1.26726 1.62765)
(-4.44441 -1.52677 1.43725)
(-3.78554 -2.75759 0.411098)
(-3.8643 -2.27189 0.326487)
(-4.06539 -2.83898 0.621438)
(-1.89197 -3.80912 -0.432522)
(-3.86273 -0.446414 1.8378)
(-4.59859 0.94113 2.0148)
(-5.2796 0.386604 2.11518)
(-4.959 -0.640245 2.51326)
(-4.80228 -1.66599 2.50849)
(-4.71713 -2.32554 2.38086)
(-4.6006 -2.34409 2.42951)
(-4.93648 -2.52292 2.17617)
(-4.00114 -3.41243 0.0138172)
(-2.52991 -3.4118 1.04871)
(-2.09781 -3.59711 0.354351)
(-3.30475 0.417036 0.796954)
(-3.89688 -0.654374 1.07778)
(-3.71662 -0.904098 1.25352)
(-3.06146 -1.92308 1.13942)
(-2.49641 -2.41228 1.27934)
(-2.87226 -2.29821 1.56655)
(-3.40152 -1.13423 2.36642)
(-4.18439 -1.77554 2.0562)
(-4.18316 -2.08475 3.38316)
(-2.99994 -4.19112 2.06926)
(-2.4719 -4.41804 2.48255)
(-2.49018 -4.49108 -0.151961)
(-2.95741 1.73358 -0.255089)
(-2.97728 0.332815 0.750051)
(-2.70619 0.53015 -0.110428)
(-2.95498 -0.631342 0.469147)
(-2.7462 -0.569979 -0.321006)
(-2.43088 -0.819787 -0.578348)
(-2.02815 -1.68598 -0.700164)
(-2.15523 -1.62708 -0.0800254)
(-2.47343 -1.66683 0.425314)
(-2.74362 -2.29268 1.38524)
(-2.75254 -3.5255 1.85507)
(-3.30355 -3.10837 1.90364)
(-2.35275 -4.62133 0.358578)
(-1.62817 0.186141 -0.72713)
(-2.15625 1.19096 -2.32117)
(-2.90796 1.02324 -0.96249)
(-2.40092 0.443634 -0.480506)
(-2.09518 0.0653591 -0.535314)
(-2.07092 -0.346102 -0.283459)
(-1.9406 -0.615815 -0.022556)
(-1.82445 -1.13504 -0.0892796)
(-1.87164 -1.48032 -0.441001)
(-1.88897 -0.953532 -0.318323)
(-1.94603 -1.00205 0.0576983)
(-1.90646 -2.02605 0.663964)
(-1.23221 -2.98426 1.00369)
(-1.16645 -3.79397 0.595305)
(-1.90468 1.08245 -1.62861)
(-1.83274 1.27297 -1.72516)
(-2.01518 1.04528 -1.51703)
(-2.02028 0.575001 -1.11864)
(-1.6608 0.195862 -0.867701)
(-1.3283 0.337965 -0.978485)
(-0.935179 0.360518 -0.500896)
(-0.769477 0.23881 -0.0667452)
(-0.754928 -0.0273689 0.154023)
(-0.82659 -0.277899 0.29847)
(-0.28588 0.0867336 -1.16485)
(-0.552352 -0.215932 -1.2411)
(-1.15559 -0.613134 -1.1534)
(-1.66095 -0.352893 -0.103512)
(-1.02784 -1.27129 -0.0873543)
(-1.24551 0.273576 -1.14962)
(-1.49991 -0.0621425 -1.58142)
(-1.05754 0.2524 -2.1567)
(-1.24284 0.58972 -1.70608)
(-1.23428 0.171974 -1.48326)
(-0.882701 0.0268357 -1.44296)
(-0.511453 -0.322555 -0.925251)
(-0.183292 -0.339945 -1.29968)
(0.0949864 0.266456 -1.42807)
(0.249331 0.26482 -0.768739)
(0.598168 0.524632 -0.59932)
(0.592006 0.686323 -0.828851)
(0.078477 0.0739097 -1.58698)
(-0.0878471 -0.223342 -1.41973)
(-0.256566 0.144216 -1.16915)
(0.235546 0.293047 -0.377316)
(-1.54271 -0.965655 -0.0293222)
(-1.91876 -0.786232 0.0177606)
(-1.50897 -1.08983 -0.0429922)
(-1.98906 -0.878299 0.236691)
(-1.81277 -1.13313 0.00624826)
(-1.54258 -1.2978 -0.0368264)
(-2.17544 -0.984967 0.212775)
(-2.1131 -0.781474 0.211817)
(-1.92379 -0.931329 -0.00700755)
(-1.57317 -1.33426 -0.108551)
(-2.40729 -0.837852 0.52176)
(-2.33849 -0.86492 0.513857)
(-2.21117 -0.923404 0.201249)
(-1.99213 -1.08789 0.227512)
(-1.00845 -1.90874 0.0473301)
(-2.76825 -0.620187 0.592698)
(-2.57118 -0.910344 0.392026)
(-2.35262 -0.974775 0.36309)
(-2.37575 -1.15932 0.0820186)
(-2.40157 -0.965474 -0.134834)
(-1.88781 -1.4328 -0.0637122)
(-3.06451 -0.68731 0.650309)
(-3.00298 -0.704675 0.639365)
(-2.84114 -1.06656 0.479421)
(-2.69218 -1.0896 0.271139)
(-2.55952 -0.8427 0.105624)
(-2.28333 -1.54889 -0.260899)
(-0.923885 -2.44195 -0.0516615)
(-3.30535 -0.347191 0.824374)
(-3.31428 -0.610252 0.625036)
(-3.25207 -0.663263 0.562471)
(-3.29738 -0.548819 0.387096)
(-3.14242 -1.00398 0.404537)
(-3.00023 -1.35024 -0.00152704)
(-2.486 -1.72981 0.0849441)
(-1.08841 -2.37341 -0.153195)
(-3.99174 -0.497172 0.679988)
(-3.91028 -0.733575 0.472123)
(-3.84823 -0.949068 0.242277)
(-3.74566 -0.998809 0.202783)
(-3.66823 -1.17338 -0.0474509)
(-3.42329 -1.47099 0.303264)
(-3.53357 -1.42548 0.521309)
(-2.63657 -2.33806 -0.343438)
(-1.80861 -2.6816 0.0594059)
(-3.66916 0.29606 2.04208)
(-3.78789 -0.350728 1.47936)
(-3.92105 -0.360362 1.49812)
(-3.97398 -0.769002 1.27229)
(-4.04183 -1.29306 0.85929)
(-3.85118 -1.66731 0.524944)
(-3.73488 -2.01328 0.0975207)
(-3.30852 -2.07185 0.222717)
(-3.54353 -2.59564 -0.00409468)
(-2.57808 -2.94108 -0.0643326)
(-4.21634 0.0120315 2.61119)
(-4.37058 0.074848 2.20727)
(-4.53556 0.38221 1.92702)
(-4.42168 -0.901135 1.68552)
(-4.4332 -1.48887 1.69416)
(-4.31772 -1.43548 1.74428)
(-4.01239 -1.92621 1.29509)
(-3.56631 -3.08136 0.197293)
(-3.3791 -2.68352 0.394773)
(-3.69022 -3.04732 0.693258)
(-1.81569 -3.69658 -0.943904)
(-3.63868 -0.598148 1.4694)
(-3.8712 0.353607 1.48285)
(-4.6252 0.682041 2.1024)
(-5.05561 0.870592 1.95384)
(-4.77067 -0.676881 2.40726)
(-4.57858 -1.92044 2.66798)
(-4.44072 -2.79004 2.58222)
(-4.81736 -2.09842 2.47024)
(-4.63191 -3.08974 1.83647)
(-3.42206 -3.5924 -0.00742907)
(-2.2463 -3.60644 1.00927)
(-2.07995 -3.53296 0.569528)
(-3.27365 1.14456 0.937224)
(-3.53466 0.0529015 1.01014)
(-3.69475 -0.763426 1.09646)
(-3.47183 -1.76425 0.97896)
(-2.87229 -2.03743 0.938297)
(-2.52114 -2.40947 1.24401)
(-2.86559 -2.24283 1.75948)
(-3.0914 -1.80809 2.76739)
(-3.79857 -2.58595 2.23962)
(-3.49943 -3.66761 2.76651)
(-2.67679 -4.51125 1.96688)
(-2.46356 -4.37344 2.53879)
(-1.74449 -4.84885 -0.347419)
(-2.98914 1.47196 -1.16733)
(-3.07927 1.65111 -0.0781876)
(-2.84507 0.890178 0.180928)
(-3.04026 0.775132 -0.135024)
(-3.15693 -0.755657 0.359598)
(-2.87539 -0.311313 -0.46444)
(-2.47818 -0.715847 -0.614168)
(-2.10273 -1.80784 -0.419782)
(-1.98094 -2.03222 0.400071)
(-2.33226 -2.10403 1.06595)
(-2.49925 -3.08114 1.73298)
(-2.78187 -4.02382 1.53608)
(-2.7454 -3.74097 2.0196)
(-1.94006 -4.98958 0.213069)
(-1.44967 0.441533 -0.572407)
(-1.38667 0.128696 -0.0779485)
(-1.97016 1.20116 -2.07857)
(-2.82146 1.06065 -0.974035)
(-2.41229 0.745508 -0.90908)
(-2.23947 0.123782 -0.67637)
(-2.14235 -0.298814 -0.364573)
(-1.86344 -0.827698 0.106979)
(-1.94153 -1.1751 -0.313043)
(-1.78709 -1.7688 -0.39206)
(-1.89126 -1.11258 -0.425664)
(-1.88409 -1.38032 0.143585)
(-1.82168 -2.48045 0.741332)
(-1.74875 -3.11597 1.01185)
(-0.610163 -4.32665 0.524157)
(-1.20156 -0.177544 -1.27268)
(-1.87778 0.863823 -1.66788)
(-1.84244 1.24176 -1.72613)
(-2.00657 1.02887 -1.45823)
(-1.97982 0.548651 -1.33936)
(-1.61393 0.185278 -1.032)
(-1.34809 0.459009 -1.17141)
(-0.916521 0.23194 -0.200826)
(-0.731333 0.144079 0.0664483)
(-0.728991 -0.163483 0.240579)
(-0.692671 -0.452394 0.375948)
(-0.176314 0.0694424 -1.23117)
(-0.45422 -0.267092 -1.17696)
(-1.16263 -0.734454 -1.11162)
(-1.55722 -0.703538 0.0659676)
(-0.880268 -1.61778 -0.0107499)
(-1.01074 1.19963 0.316421)
(-1.22549 0.193911 -1.20069)
(-1.46377 -0.187764 -1.62329)
(-1.00755 0.114305 -2.22047)
(-1.28853 0.588688 -1.70449)
(-1.23345 0.1837 -1.48856)
(-0.884886 0.0187082 -1.44558)
(-0.482982 -0.343492 -0.987461)
(-0.182976 -0.284826 -1.40304)
(0.0772116 0.293794 -1.48319)
(0.248886 0.252415 -0.768613)
(0.625238 0.516533 -0.604972)
(0.626706 0.645511 -0.835712)
(0.120218 0.0452782 -1.53339)
(-0.0778059 -0.229362 -1.42257)
(-0.256283 0.133756 -1.11627)
(0.294479 0.220903 -0.348298)
(-1.43757 -0.88788 -0.0295537)
(-1.80835 -0.89426 -0.0524944)
(-1.47628 -1.06886 0.0133902)
(-2.00601 -0.846531 0.0680513)
(-1.74383 -1.08634 -0.0192293)
(-1.53721 -1.05866 -0.0493427)
(-2.10602 -0.91952 0.12337)
(-2.01954 -0.875234 0.274233)
(-1.79271 -1.18238 0.00612595)
(-1.44981 -1.41661 -0.0315933)
(-2.33392 -0.721964 0.377966)
(-2.15825 -0.973065 0.216693)
(-2.02893 -0.914226 0.229924)
(-1.87984 -1.03695 -0.0319358)
(-1.43511 -1.46399 -0.110662)
(-2.44548 -0.823673 0.554043)
(-2.38294 -0.914016 0.501905)
(-2.14026 -1.20141 0.427402)
(-2.17072 -1.00578 0.252174)
(-1.96521 -1.17343 0.29764)
(-0.886693 -2.00162 0.0768183)
(-2.85335 -0.396157 0.708502)
(-2.73099 -0.575053 0.631584)
(-2.47817 -1.083 0.471065)
(-2.33305 -1.13104 0.36318)
(-2.24411 -1.46619 0.180054)