/*--------------------------------*- C++ -*----------------------------------*\
  =========                 |
  \\      /  F ield         | OpenFOAM: The Open Source CFD Toolbox
   \\    /   O peration     | Website:  https://openfoam.org
    \\  /    A nd           | Version:  7
     \\/     M anipulation  |
\*---------------------------------------------------------------------------*/
FoamFile
{
    version     2.0;
    format      ascii;
    class       volScalarField;
    location    "0.5";
    object      nut;
}
// * * * * * * * * * * * * * * * * * * * * * * * * * * * * * * * * * * * * * //

dimensions      [0 2 -1 0 0 0 0];

internalField   nonuniform List<scalar> 
18750
(
0.00103355
0.00170803
0.000651987
0.000760038
0.00265837
0.00130513
0.00116159
0.00101169
0.000206078
0.000407775
0.0023489
0.00104315
0.00155001
0.000448344
0.00150478
0.001479
0.000347662
0.000314184
0.000586536
0.00064758
0.00190119
0.00269872
0.00262931
0.00285373
0.00363498
0.0028996
0.000358966
0.000678678
0.00152574
0.00173221
0.000145845
0.000338734
0.00103603
0.000913366
0.00100003
0.00205955
0.00176885
0.00215385
0.0016893
0.000470803
0.00233753
0.00107353
0.0005214
0.00124408
0.00210245
0.000177759
0.00017473
0.000572909
0.00108464
0.00185523
0.000161381
0.000269295
0.000310394
0.00142404
0.00115227
0.00117364
0.00223663
0.00165677
0.00230784
0.0011578
0.00186139
0.00205241
0.000455032
0.00177386
0.00237179
0.00223802
0.000271158
0.00132639
0.00205394
0.00586051
0.00200686
0.000246859
0.000148709
0.000388101
0.000424927
0.00181096
0.00170535
9.46489e-05
0.000125577
0.000374475
0.000319647
0.00153101
0.00123001
0.00119443
0.00209661
0.00188016
0.00239181
0.00138746
0.000817406
0.0021474
0.000743294
0.0010496
0.00172964
0.00185943
0.000398617
0.000643159
0.000953707
0.00116099
0.00208485
0.000390068
0.000278249
0.000996852
0.00190053
0.000270588
0.00181674
8.28521e-05
0.000293162
0.000299816
0.000297092
0.00106149
0.00188002
0.00136301
4.93951e-05
7.46497e-05
0.000133116
0.000438699
0.000314715
0.00151403
0.00120084
0.00109115
0.00197776
0.00211199
0.00229239
0.00114598
0.0013125
0.00204359
0.000679277
0.000800679
0.00175373
0.00192233
0.000437772
0.000628571
0.000862345
0.00149427
0.00172673
0.000475239
0.000323779
0.000289661
0.00183885
0.00108855
0.00195465
0.000205056
0.000352122
0.000346169
0.00099424
0.00202656
0.000738084
0.0013683
0.000100041
7.17223e-05
0.000278289
0.000380233
0.000152461
0.000908613
0.00174246
0.000947448
6.94387e-05
6.3906e-05
7.80863e-05
0.000169367
0.000455157
0.000295373
0.00137671
0.00109012
0.000914171
0.00178312
0.00194761
0.00237713
0.000865739
0.00131999
0.0017056
0.000539482
0.000783707
0.00219593
0.00161714
0.000431192
0.000495022
0.00131278
0.00170491
0.00170383
0.000450286
0.000320809
0.000777817
0.00152441
0.00142949
0.00148068
0.000263578
0.000501267
0.00041831
0.000769122
0.00185692
0.0014899
0.00154926
0.000237246
0.000102051
0.000304986
0.000352529
0.000701161
0.00155572
0.00217755
0.00110096
8.0276e-05
9.19838e-05
0.000100315
0.000221411
0.000394851
0.000219191
0.000877916
0.0012344
0.00060062
4.25702e-05
8.13757e-05
0.000138004
8.53879e-05
0.000195259
0.000408359
0.000295028
0.00115817
0.000831846
0.000723249
0.0018925
0.00164755
0.00241388
0.00060206
0.00114447
0.00182906
0.00045164
0.000813649
0.0019025
0.00130314
0.000388478
0.000298868
0.000903534
0.00173135
0.00134053
0.000435337
0.000203297
0.000651606
0.00109336
0.00140497
0.00139952
0.000273483
0.000501979
0.000279658
0.00102348
0.00089654
0.00138208
0.00122239
0.000274355
0.00016652
0.000401015
0.000563567
0.000628244
0.00125159
0.00162871
0.00116099
0.000235875
0.000128948
0.000196718
0.000293339
0.000366313
0.000473428
0.000956257
0.0012875
0.000905107
7.61208e-05
8.1181e-05
0.000116657
0.000127972
0.000228826
0.000372155
8.18415e-05
0.000819693
0.00068347
0.000406822
3.84288e-05
5.12986e-05
8.68216e-05
0.00018064
8.2233e-05
0.000199388
0.00030021
0.000274603
0.000915846
0.000506401
0.000537185
0.00134526
0.00239532
0.000518561
0.00109208
0.00169632
0.000325939
0.000877949
0.00165347
0.00135253
0.000527486
0.000213071
0.00054814
0.00103487
0.00123711
0.000519219
0.000143687
0.000541049
0.00048643
0.00103425
0.00107559
0.000216863
0.000143375
0.000359712
0.00053581
0.00052373
0.00123238
0.00105337
0.00027566
0.000126522
0.000494389
0.000512855
0.000667954
0.000489104
0.00136113
0.00111511
0.000245956
0.000118448
0.000230736
0.000331582
0.000569271
0.000682024
0.00078127
0.00162099
0.000960282
0.000188686
0.000136781
0.000224365
0.000215089
0.000282902
0.000411465
0.000493571
0.000521752
0.00172433
0.000675939
7.19894e-05
7.42906e-05
9.46059e-05
0.000150176
0.000140435
0.000232074
0.000354966
0.000108752
0.000696486
0.000348757
0.000314138
3.39602e-05
4.46803e-05
7.22002e-05
8.98448e-05
0.000208997
9.54349e-05
0.000187741
0.000185244
0.000278011
0.000672681
0.000370265
0.00036805
0.00234826
0.000670776
0.00110247
0.00185079
0.00054323
0.000824394
0.00153563
0.0014931
0.000630427
0.00016079
0.000704413
0.00106187
0.00128292
0.000523955
0.000335316
0.000471495
0.000368626
0.000811468
0.00112222
0.000225613
0.000331781
0.00063001
0.000536162
0.000203904
0.000791482
0.000917211
0.000181539
0.000200038
0.000494466
0.000671746
0.000544194
0.000307084
0.0010262
0.000916892
0.000222235
0.000150245
0.00025108
0.000411695
0.000442249
0.000537153
0.00037791
0.00109298
0.000840639
0.000212814
0.000101701
0.000241991
0.000333348
0.000142642
0.000360052
0.00048734
0.000721771
0.00155696
0.000746619
0.000147345
0.000107227
0.00022907
0.000258731
0.000163481
0.000214853
0.000468397
0.000433752
0.000403958
0.00156867
0.000518603
6.44016e-05
6.96818e-05
9.20694e-05
0.000117417
0.00015868
0.000133953
0.000246103
0.000307313
0.000138045
0.000547595
0.000263057
0.000268689
2.97217e-05
3.8864e-05
6.0358e-05
8.53523e-05
8.73102e-05
0.000252632
0.000111801
0.000167406
0.000114341
0.000244635
0.000453361
0.000502562
0.000328243
0.00261937
0.00123869
0.002089
0.000756953
0.000835182
0.00129864
0.00165016
0.000645979
0.000396228
0.000507924
0.00113583
0.00126688
0.00046229
0.000546426
0.000275929
0.000304601
0.00100003
0.0010615
0.000296217
0.000448618
0.000681308
0.000499023
0.000331131
0.000879469
0.000871115
0.000199906
0.000201375
0.000625583
0.00077403
0.000708042
0.000224033
0.000698146
0.000860853
0.000156384
0.000141931
0.000253698
0.000504641
0.000711413
0.000654633
0.000218845
0.000593156
0.000774583
0.000161285
0.000169875
0.000280979
0.000296707
0.000225127
0.000461167
0.0004533
0.000172455
0.000646533
0.00059498
0.000171312
0.000121736
0.000232818
0.000280005
0.000256853
0.000142423
0.000266356
0.000285652
0.000546366
0.00105354
0.000626233
0.000120668
8.37824e-05
0.000182816
0.000251361
0.000191916
0.000129016
0.000212086
0.000441141
0.000365432
0.000501411
0.00115417
0.000456462
5.73775e-05
6.42755e-05
8.44395e-05
0.000109986
0.000127004
0.000149205
0.000126984
0.000244052
0.000290959
0.000123392
0.00038835
0.000257499
0.000240724
2.67488e-05
3.3235e-05
4.89233e-05
7.18861e-05
9.28618e-05
9.82978e-05
0.000240071
0.000117933
0.000145059
9.22082e-05
0.000227209
0.000357153
0.000251587
0.000287559
0.00308113
0.00133164
0.00233426
0.00104881
0.00144355
0.00174978
0.000612806
0.00075481
0.000658859
0.00124771
0.00149372
0.000410515
0.000712152
0.000514144
0.000435925
0.00110997
0.00121747
0.000340534
0.000528757
0.000628045
0.000523359
0.00041736
0.000895395
0.000959628
0.000237135
0.000262377
0.000510286
0.000550757
0.000574439
0.000298693
0.000777544
0.000720631
0.000168062
0.000148993
0.000267702
0.000421761
0.000566217
0.000580004
0.000182162
0.000649125
0.000767667
0.00013099
0.000140006
0.00023607
0.000278378
0.000291824
0.000485753
0.000496483
0.000152669
0.000429717
0.000629273
0.000124072
0.00014936
0.000236025
0.00026544
0.000292541
0.000194201
0.00037653
0.00037704
0.000164889
0.000268471
0.000476498
0.00013052
0.000127484
0.000216412
0.000246358
0.0002283
0.000209043
0.000179168
0.000223913
0.000315124
0.000259678
0.00052446
0.000596716
0.00010229
7.0189e-05
0.000141046
0.000210142
0.000170947
0.000132457
0.000159995
0.000175401
0.000319167
0.000374918
0.000293967
0.000826234
0.000312641
5.14641e-05
5.62629e-05
7.21861e-05
9.36283e-05
0.000115572
0.000113721
0.000137067
0.000123536
0.000233193
0.00026898
0.000161898
0.000250471
0.000282026
0.000255319
2.41649e-05
2.88888e-05
3.90274e-05
5.74755e-05
7.82542e-05
9.82834e-05
0.000104455
0.000186197
0.000112983
0.000127974
0.000137612
0.000206549
0.000286609
0.000237097
0.000296751
0.00120072
0.00272591
0.000969166
0.00144621
0.00203145
0.000833502
0.000677225
0.00123513
0.00163934
0.000370295
0.000669305
0.000773328
0.000438317
0.00101887
0.00150946
0.000264052
0.000464397
0.000553525
0.000586254
0.000481063
0.000853815
0.00142495
0.000216355
0.000343544
0.000448914
0.000457824
0.000506786
0.000359674
0.000698932
0.0011508
0.00017338
0.000221601
0.00034404
0.000331724
0.000381128
0.000419253
0.000263198
0.000616618
0.000973602
0.000134294
0.000151595
0.000247636
0.000279725
0.000300402
0.000299073
0.000381013
0.00017511
0.000490563
0.000680512
0.000117212
0.000127738
0.00017991
0.00021673
0.000214485
0.000159728
0.000259139
0.000370278
0.000115723
0.000311803
0.000487665
9.35867e-05
0.000122811
0.000173718
0.000209578
0.000195558
0.000231525
7.54865e-05
0.000238909
0.000292577
0.000148276
0.000137343
0.000408066
9.75813e-05
0.00010984
0.000177267
0.00021244
0.000204537
0.000142121
0.000176288
0.000157371
0.000186753
0.000289799
0.000151359
0.00019395
0.000384848
7.73253e-05
6.567e-05
0.000115681
0.000166698
0.000161668
0.000121977
0.000121465
0.000155941
0.00015492
0.000262765
0.00040817
0.000144891
0.000490841
0.000385937
4.55631e-05
4.95623e-05
6.16461e-05
7.80086e-05
9.74581e-05
0.000103585
0.000100392
0.000123396
0.000116338
0.000223947
0.000250088
0.000172659
0.000181794
0.000294986
0.000236565
2.23796e-05
2.53424e-05
3.1795e-05
4.43594e-05
6.2081e-05
8.09345e-05
9.94046e-05
0.000103183
0.000165987
0.000102754
0.000107799
0.000182734
0.000199175
0.000203887
0.000443546
0.000350778
0.00296938
0.00124338
0.00124176
0.00245415
0.00097297
0.000802783
0.00140471
0.00162743
0.000620085
0.000805485
0.000781319
0.00115023
0.0016014
0.000279746
0.000403611
0.000516583
0.00076029
0.000704099
0.000869555
0.00146516
0.000196102
0.000309874
0.000360484
0.000397635
0.000565068
0.000584523
0.000853595
0.00126692
0.00016187
0.000236272
0.000309596
0.000310376
0.000353085
0.000326384
0.000385441
0.000671696
0.00106
0.000131795
0.00018216
0.000239543
0.000223953
0.000267578
0.000240339
0.000302234
0.00028903
0.000463783
0.000787987
0.000128095
0.000134504
0.000182225
0.000189225
0.000158322
0.000209144
0.000158968
0.000258324
0.000154025
0.00032309
0.000495726
9.59374e-05
0.000117493
0.000139446
0.000152014
0.000141897
0.000157541
0.000146117
0.000181019
0.000246255
9.10032e-05
0.000219175
0.000335951
8.48272e-05
9.7005e-05
0.000128766
0.000146977
0.000149434
0.000143932
0.000157967
9.17908e-05
0.000168612
0.000173213
9.93892e-05
8.6088e-05
0.000239371
8.01627e-05
9.64159e-05
0.000131775
0.0001637
0.000154458
0.000134713
0.00010809
0.00013272
0.000116124
0.000119686
0.000214476
8.3117e-05
0.000105036
0.00028403
6.01389e-05
5.9153e-05
0.000100764
0.000137977
0.000148907
0.000109624
9.79855e-05
0.000110632
0.000133997
0.000148781
0.000183425
0.000416991
8.53938e-05
0.000214066
0.000340122
4.21155e-05
4.40036e-05
5.2842e-05
6.43889e-05
7.98675e-05
8.63594e-05
8.99341e-05
8.99336e-05
0.000112206
0.000104649
0.000214094
0.000223796
0.000179219
0.000177804
0.000310001
0.000224977
2.05164e-05
2.3034e-05
2.6606e-05
3.44328e-05
4.72049e-05
6.34483e-05
8.00301e-05
9.63047e-05
9.57825e-05
0.000137121
9.14731e-05
9.62828e-05
0.000172077
0.000212485
0.000200524
0.000253038
0.000292658
0.00326838
0.00115213
0.00267279
0.0011943
0.00113648
0.00109775
0.00201675
0.000652144
0.000932177
0.000921133
0.00107002
0.00156635
0.000448421
0.000570189
0.000871155
0.000899322
0.00110322
0.00136242
0.000220551
0.000297782
0.000369111
0.000440517
0.000749264
0.000754537
0.000973076
0.00117277
0.000162463
0.000210165
0.000258546
0.000361646
0.000368202
0.000432226
0.000534739
0.000723654
0.000959967
0.000126359
0.000168805
0.000206902
0.000222864
0.000296858
0.000319071
0.000257498
0.000363474
0.000371459
0.000654763
0.000137791
0.000140966
0.00016672
0.000179318
0.000177124
0.000237093
0.000223933
0.000228637
0.000227291
0.000243113
0.000467146
9.73034e-05
0.000130398
0.0001346
0.000140488
0.000117316
0.000142272
0.000114206
0.000132739
0.000197204
0.000138062
0.000218818
0.000328547
9.77158e-05
9.57345e-05
0.000119141
0.000115045
0.000108147
0.000112151
0.000121105
0.00015474
0.000181149
0.000205968
0.000104722
0.000174166
0.000243307
7.77977e-05
8.575e-05
9.45121e-05
0.00010957
0.000112648
0.000115074
9.52711e-05
0.000118818
0.000112395
0.000120427
0.000166959
6.24888e-05
5.08386e-05
0.000210347
6.8892e-05
8.12833e-05
9.69801e-05
0.00011215
0.000110697
0.000111114
0.000103861
8.2278e-05
8.46171e-05
7.31739e-05
0.000102167
0.000159421
7.49229e-05
5.18431e-05
0.000330662
5.23124e-05
5.24095e-05
7.72721e-05
0.000105033
0.000120507
9.69012e-05
8.54546e-05
8.97434e-05
9.46216e-05
0.000117063
0.000133393
0.000128271
0.000160131
0.000152999
9.46461e-05
0.000145169
3.68453e-05
4.12049e-05
4.58758e-05
5.43734e-05
6.51067e-05
7.19611e-05
7.53609e-05
8.05304e-05
8.3494e-05
0.00010237
0.000103315
0.000208894
0.000192179
0.000164755
0.000195866
0.00023712
0.000216209
2.0682e-05
2.06518e-05
2.3408e-05
2.75115e-05
3.57544e-05
4.77088e-05
6.20304e-05
7.61403e-05
8.94237e-05
8.37525e-05
0.000108703
8.11696e-05
8.87208e-05
0.000179968
0.00019622
0.000164588
0.000217043
0.000284627
0.00280465
0.0015598
0.00313619
0.00115341
0.000948823
0.0020821
0.000735132
0.000918406
0.00139702
0.0012395
0.00176048
0.000407345
0.000646806
0.000923439
0.00122565
0.00136368
0.00144272
0.000319457
0.00039854
0.000578793
0.00079611
0.00107055
0.00114468
0.00104407
0.000193621
0.000215434
0.000282168
0.000376802
0.000424345
0.00045353
0.000606509
0.000449056
0.000752324
0.000133875
0.000163998
0.000189561
0.000238923
0.000333814
0.000336146
0.000202254
0.000241231
0.000256521
0.000691806
0.000149503
0.000126813
0.000154565
0.000163599
0.000193935
0.000239697
0.000258017
0.000175387
0.000210345
0.000237097
0.000580594
9.77324e-05
0.00014188
0.000126204
0.0001488
0.000141562
0.000161882
0.000161184
0.000189546
0.000139438
0.000154992
0.000155036
0.000352727
0.000110642
9.83425e-05
0.000125192
0.000115651
0.000116371
0.000112866
0.00011857
8.23753e-05
0.000119332
0.000197439
0.00010344
0.000146007
0.000250883
8.91128e-05
9.68772e-05
9.57774e-05
0.000106891
9.52154e-05
9.65945e-05
9.63457e-05
0.000119361
0.00016096
0.000146864
0.000189065
6.96766e-05
0.000149877
0.000218868
7.3438e-05
7.81875e-05
8.47672e-05
8.63e-05
9.60493e-05
9.50391e-05
9.09853e-05
8.37497e-05
9.56518e-05
6.94264e-05
0.000112545
9.97904e-05
5.33581e-05
8.21443e-05
0.000159246
6.30562e-05
6.96486e-05
7.95204e-05
8.7937e-05
8.85383e-05
9.52231e-05
9.65161e-05
8.76982e-05
7.06882e-05
6.14184e-05
5.76915e-05
7.8579e-05
0.000140023
6.60052e-05
5.05843e-05
0.000222649
4.58121e-05
4.97024e-05
5.99005e-05
7.66956e-05
8.98363e-05
8.20085e-05
7.3085e-05
7.58284e-05
7.83561e-05
8.69908e-05
0.000105824
0.000106511
0.000139488
0.000298494
0.000138944
0.000110746
0.000168665
3.81664e-05
3.64258e-05
4.20611e-05
4.65601e-05
5.4575e-05
6.07133e-05
6.452e-05
6.83473e-05
7.5526e-05
7.78196e-05
9.63052e-05
0.000107422
0.000212786
0.000176974
0.000173719
0.000218946
0.000159072
0.000196361
1.72599e-05
2.03402e-05
2.04351e-05
2.33991e-05
2.78067e-05
3.57004e-05
4.63272e-05
5.84965e-05
6.99591e-05
7.96559e-05
7.0283e-05
8.26564e-05
7.15319e-05
7.80564e-05
0.000138652
0.000176648
0.000256258
0.00021732
0.000294143
0.0018653
0.00244126
0.00228036
0.00144125
0.00223467
0.00258184
0.000549798
0.00116276
0.00171597
0.00204585
0.000364314
0.000673677
0.000819416
0.00144332
0.00161136
0.00158901
0.000346937
0.000374859
0.000654361
0.000813275
0.00114533
0.00105358
0.00121986
0.000232222
0.000320491
0.000451461
0.000538155
0.000505359
0.000588975
0.000374701
0.000775897
0.000157766
0.000182971
0.000212684
0.000278704
0.000352833
0.000373641
0.000240087
0.000259375
0.0002226
0.00060327
0.000170691
0.000133408
0.000157144
0.000169886
0.000211985
0.000275221
0.000275369
0.000200907
0.000170521
0.00020241
0.000512763
9.73741e-05
0.000145282
0.000124379
0.000145139
0.000156841
0.000178489
0.000175571
0.000236558
0.000135481
0.000102894
0.000106904
0.000413045
0.000127807
9.96076e-05
0.000133953
0.000122678
0.000133828
0.000126403
0.000151219
0.000130013
0.000157382
0.000116443
0.000123467
0.000114007
0.000342239
9.78778e-05
0.000109556
9.63719e-05
0.000118657
0.000110638
0.000117493
0.000124066
0.000109399
0.000106607
0.000125096
0.000139216
0.00010635
0.000109034
0.000253129
8.4683e-05
8.81059e-05
9.72541e-05
9.13704e-05
0.000100329
9.21992e-05
9.04953e-05
0.000101469
0.000107531
7.0142e-05
8.89824e-05
0.00011496
0.000141394
8.68607e-05
0.00022346
7.04611e-05
7.32466e-05
7.82831e-05
8.13684e-05
8.15649e-05
8.75955e-05
8.65497e-05
8.55627e-05
8.56767e-05
9.40787e-05
6.63334e-05
9.75123e-05
0.000136809
8.41425e-05
5.94817e-05
0.00014133
5.63582e-05
6.3541e-05
6.81888e-05
7.55717e-05
7.93912e-05
8.38194e-05
8.88919e-05
9.2365e-05
8.53614e-05
6.85081e-05
7.1159e-05
4.90944e-05
6.57098e-05
0.00012985
6.23286e-05
5.42705e-05
0.000202942
5.03863e-05
4.51882e-05
5.22293e-05
5.85864e-05
6.87183e-05
6.92187e-05
6.43354e-05
6.51318e-05
6.80603e-05
7.22814e-05
7.79015e-05
9.49749e-05
8.65461e-05
0.000153615
0.000196119
0.000121393
0.000212546
0.00016312
2.90463e-05
3.80236e-05
3.68034e-05
4.22853e-05
4.65067e-05
5.24729e-05
5.6408e-05
5.97343e-05
6.43814e-05
7.12867e-05
7.36309e-05
9.30275e-05
0.000112605
0.00017731
0.000181776
0.000174375
0.000180764
0.000159177
0.000206262
1.77539e-05
1.68456e-05
1.97437e-05
1.99489e-05
2.31308e-05
2.74846e-05
3.46076e-05
4.36747e-05
5.3553e-05
6.22666e-05
6.85556e-05
5.7347e-05
6.20681e-05
6.87148e-05
7.85156e-05
9.21286e-05
0.000137635
0.000266317
0.000203387
0.000254509
0.00156979
0.00173048
0.00131626
0.00177514
0.00248508
0.00228691
0.00080621
0.00127516
0.00212836
0.00218539
0.000343978
0.000447578
0.000934362
0.00123784
0.00148888
0.000400154
0.00036563
0.000600514
0.000627386
0.000840441
0.000521349
0.0012065
0.00025057
0.000332011
0.000340632
0.000552443
0.000426252
0.000489088
0.000364827
0.00100605
0.000203829
0.000235628
0.000320203
0.000361872
0.00041508
0.000288626
0.000323841
0.000347997
0.000762889
0.000196885
0.00015657
0.000181539
0.000219953
0.000238872
0.000270631
0.000292106
0.000239563
0.000263653
0.000185059
0.000588015
0.000101301
0.000165686
0.000133776
0.000155413
0.000167358
0.000207436
0.000196115
0.000200237
0.000126768
0.000144972
0.000148236
0.000498685
0.00015091
9.64151e-05
0.000148377
0.000126691
0.000149201
0.000152565
0.000166356
0.000147971
0.000179211
0.000136885
0.000109667
0.000141103
0.000411746
0.000107957
0.00012559
9.70579e-05
0.000134398
0.000118683
0.000128913
0.000126337
0.000132636
0.00010941
0.000143384
0.000100144
0.000111363
0.000112677
0.000308491
9.77433e-05
9.64737e-05
0.000108699
9.56079e-05
0.000119816
0.000111388
0.000125359
0.000119399
0.000115026
0.000104227
0.000131921
0.000134677
7.3326e-05
9.51982e-05
0.000235913
7.72949e-05
8.35413e-05
8.9367e-05
9.60691e-05
9.03638e-05
9.9672e-05
8.76194e-05
9.81058e-05
9.07372e-05
7.65451e-05
5.61961e-05
8.55459e-05
0.000115289
0.000131955
8.58009e-05
0.000216346
6.8633e-05
6.99866e-05
7.37724e-05
7.70378e-05
8.04445e-05
7.8656e-05
8.55301e-05
8.37802e-05
8.34615e-05
8.54138e-05
8.83133e-05
7.92505e-05
0.000101095
0.000161208
0.000100685
6.49318e-05
0.000128312
6.49634e-05
5.66428e-05
6.27194e-05
6.65353e-05
7.18557e-05
7.69595e-05
8.01456e-05
8.63449e-05
8.99625e-05
8.41832e-05
7.70889e-05
6.76367e-05
3.29557e-05
7.42227e-05
0.000138864
4.33856e-05
8.20503e-05
0.000213999
3.63973e-05
5.02535e-05
4.60581e-05
5.1191e-05
5.6152e-05
6.00054e-05
5.94178e-05
5.9594e-05
6.1293e-05
6.47359e-05
6.50853e-05
7.23312e-05
8.2253e-05
7.13391e-05
0.000119618
0.000129932
0.000132393
0.000172639
8.96523e-05
3.2005e-05
2.88875e-05
3.79528e-05
3.6771e-05
4.21405e-05
4.56704e-05
5.0167e-05
5.34574e-05
5.68286e-05
6.12751e-05
6.77076e-05
7.0088e-05
8.93943e-05
0.000103416
0.000140234
0.000235084
0.000184555
0.000134609
0.000137688
0.00020138
1.4978e-05
1.73437e-05
1.6262e-05
1.92545e-05
1.95591e-05
2.26966e-05
2.66807e-05
3.29557e-05
4.02955e-05
4.79335e-05
5.40484e-05
5.7663e-05
4.79033e-05
4.78536e-05
6.43422e-05
8.09944e-05
8.19994e-05
0.00010209
0.000171204
0.000177213
0.000266852
0.00179039
0.00126653
0.00157122
0.00173572
0.00190839
0.00162524
0.00137315
0.00145421
0.00175211
0.00171988
0.000471568
0.00071487
0.00116096
0.00103879
0.00166156
0.00045173
0.000300872
0.000361855
0.000542136
0.000636465
0.00145444
0.00033607
0.000376712
0.000330774
0.000501099
0.000338744
0.000438716
0.000441016
0.00111494
0.000198809
0.00023677
0.000345007
0.000306317
0.000408682
0.000334043
0.00040995
0.000316651
0.000877696
0.000175959
0.000202378
0.000212815
0.000291302
0.000294392
0.00035077
0.000301623
0.000259684
0.000172402
0.000700315
0.000107619
0.000193075
0.000151595
0.000195484
0.000194671
0.000211218
0.00020994
0.00024531
0.000183936
0.000188459
0.00018017
0.000568412
0.000179016
0.000100789
0.000170979
0.000133771
0.00016209
0.00016568
0.000182691
0.000153752
0.000173621
0.00013704
0.000128967
0.000154919
0.000456976
0.00012032
0.000144751
9.79584e-05
0.000154212
0.000126908
0.000154371
0.000148037
0.000157465
0.000142064
0.000190765
0.000119901
0.00011312
0.000129444
0.000379986
0.000108306
0.000106473
0.000124951
9.88056e-05
0.000134135
0.000119082
0.000125071
0.00012762
0.000121493
0.000100953
0.000126883
9.73067e-05
0.000140677
0.000122364
0.000316126
7.989e-05
9.65322e-05
9.79075e-05
0.000108279
9.79672e-05
0.000119929
0.000113241
0.000122212
0.00011707
0.000118433
0.000117037
0.000116361
0.000101978
5.23664e-05
9.96175e-05
0.000241195
8.03532e-05
7.63017e-05
8.47282e-05
8.99634e-05
9.63981e-05
9.0286e-05
9.64326e-05
9.32644e-05
9.32652e-05
8.38952e-05
8.2165e-05
7.32958e-05
8.9404e-05
0.000119793
0.000108188
0.00010868
0.000189235
8.25187e-05
6.86101e-05
7.0311e-05
7.35222e-05
7.77701e-05
7.96782e-05
7.96704e-05
8.47205e-05
8.08166e-05
8.09633e-05
8.20875e-05
8.74563e-05
8.26112e-05
7.51175e-05
0.000109153
9.2857e-05
8.04835e-05
0.00012992
4.0695e-05
6.49236e-05
5.63917e-05
6.16706e-05
6.46449e-05
7.0274e-05
7.5096e-05
7.7296e-05
8.36549e-05
8.58638e-05
8.4479e-05
7.40638e-05
6.37574e-05
2.7837e-05
6.67537e-05
0.000109306
7.05131e-05
0.000125013
0.000196431
4.34355e-05
3.62614e-05
5.03723e-05
4.53015e-05
5.09705e-05
5.28607e-05
5.57261e-05
5.71865e-05
5.73942e-05
6.01452e-05
6.07829e-05
6.13006e-05
6.66964e-05
8.0806e-05
6.75869e-05
0.000127491
0.00024077
0.000138945
0.00012085
0.000135392
2.61573e-05
3.21357e-05
2.89413e-05
3.78222e-05
3.67094e-05
4.16748e-05
4.44221e-05
4.8554e-05
5.14829e-05
5.45059e-05
5.87103e-05
6.45235e-05
6.69552e-05
8.38275e-05
9.5189e-05
0.000136219
0.000209809
0.000201249
0.000118186
0.000106057
0.000181752
1.57397e-05
1.44763e-05
1.68748e-05
1.56955e-05
1.90484e-05
1.91422e-05
2.21977e-05
2.57155e-05
3.10356e-05
3.67e-05
4.23806e-05
4.632e-05
4.82925e-05
4.16644e-05
3.94119e-05
5.49051e-05
6.72278e-05
5.97503e-05
0.00010955
0.00018661
0.000185595
0.000307755
0.00179506
0.00073496
0.00165484
0.000779957
0.000883976
0.00172012
0.00115326
0.00150752
0.00184421
0.00197429
0.000955942
0.00131063
0.00172339
0.00190073
0.00168058
0.000757233
0.000655654
0.000940392
0.00122361
0.00136252
0.00161313
0.000557206
0.00046044
0.000358528
0.000294661
0.00034686
0.000357309
0.00126161
0.0003346
0.000343209
0.000326706
0.000338697
0.000387959
0.000371111
0.000411661
0.000272353
0.00102817
0.000178307
0.000185506
0.000227584
0.000292434
0.000316128
0.000398524
0.000329899
0.000301527
0.000238243
0.000819651
0.000196114
0.000174702
0.000193509
0.000206525
0.000239902
0.000225862
0.000267173
0.000221709
0.000208803
0.000193196
0.000654548
0.000213163
0.000115156
0.000188205
0.000152969
0.000185997
0.000188551
0.000200738
0.000182411
0.000208197
0.000155226
0.000145333
0.000140175
0.000552103
0.000142419
0.00016794
0.000104263
0.000170531
0.000134803
0.000157823
0.000157991
0.000170856
0.000141188
0.000183795
0.000152756
0.000158624
0.000153584
0.000452566
0.000120101
0.00011785
0.000145266
0.000104179
0.000152345
0.000133574
0.000148072
0.000151748
0.000151234
0.000130027
0.000174865
0.000124668
0.000113372
0.000115876
0.000372878
8.03471e-05
0.000109567
0.000107963
0.000124704
0.000100819
0.000135575
0.00011603
0.0001256
0.000122701
0.000115212
0.000109952
0.000108459
0.00010225
0.000123664
0.000125251
0.000302538
0.000107702
7.81598e-05
9.74029e-05
9.89567e-05
0.000109783
9.74243e-05
0.000119544
0.000113394
0.000117807
0.000116833
0.000111977
0.000101701
0.000105834
0.00011695
6.73416e-05
0.000101414
0.000227269
0.000102858
8.00656e-05
7.68602e-05
8.51171e-05
9.04327e-05
9.57277e-05
8.72713e-05
9.81843e-05
9.17603e-05
9.19991e-05
9.05574e-05
9.04154e-05
6.99408e-05
8.29834e-05
0.000137031
0.000126122
0.000129262
0.000188941
4.57079e-05
8.23661e-05
6.90365e-05
7.0353e-05
7.44539e-05
7.7492e-05
8.10808e-05
7.88859e-05
8.36885e-05
8.01553e-05
7.93014e-05
8.14027e-05
8.37065e-05
6.9219e-05
6.93334e-05
0.000120124
6.13037e-05
8.98277e-05
0.000143882
5.57335e-05
4.06497e-05
6.4401e-05
5.59926e-05
6.10794e-05
6.38037e-05
6.94004e-05
7.28126e-05
7.55883e-05
8.0611e-05
8.31994e-05
8.08893e-05
7.54745e-05
5.55309e-05
3.20721e-05
6.28178e-05
7.57872e-05
4.86658e-05
0.000148239
0.000191987
3.65252e-05
4.36547e-05
3.64125e-05
4.97002e-05
4.54845e-05
4.9657e-05
5.15102e-05
5.46549e-05
5.58458e-05
5.64423e-05
5.78594e-05
5.88198e-05
5.76441e-05
6.39659e-05
7.80837e-05
7.50931e-05
8.61731e-05
0.000127552
0.000144011
0.000101051
0.000127745
2.8174e-05
2.60432e-05
3.19459e-05
2.87122e-05
3.7706e-05
3.63111e-05
4.11606e-05
4.33955e-05
4.71267e-05
4.98365e-05
5.26036e-05
5.64835e-05
6.18143e-05
6.39478e-05
7.89201e-05
9.37165e-05
0.000133813
0.000136948
0.000166891
0.000102455
0.000113411
0.000204549
1.0641e-05
1.52744e-05
1.4008e-05
1.64799e-05
1.56432e-05
1.85977e-05
1.89715e-05
2.17703e-05
2.47625e-05
2.90339e-05
3.32946e-05
3.74744e-05
3.97715e-05
4.12245e-05
3.57121e-05
3.44196e-05
5.86442e-05
6.53743e-05
5.66871e-05
0.000150659
0.000189206
0.000201029
0.000274279
0.0018968
0.000398526
0.00178789
0.000585504
0.000624936
0.00174177
0.000510796
0.000634371
0.000645912
0.00174792
0.000670743
0.000965381
0.000946402
0.00129023
0.00202894
0.00090782
0.00142159
0.00143814
0.00134398
0.00153584
0.00156304
0.000883796
0.000860767
0.000796585
0.000757821
0.000834791
0.000865604
0.00139514
0.000687485
0.00051986
0.000517434
0.000374554
0.000264129
0.000259875
0.000285721
0.00119676
0.000354058
0.000331534
0.000306393
0.000275795
0.000315796
0.000366368
0.000325534
0.000307054
0.000257026
0.000911254
0.000199714
0.000171712
0.000184332
0.000203761
0.000226794
0.000265748
0.000283595
0.000246349
0.000221675
0.000196372
0.00076232
0.000141491
0.000193406
0.000168406
0.000195389
0.000199619
0.00022199
0.000191702
0.000224331
0.000184468
0.000193379
0.000168375
0.00063343
0.000155083
0.000193571
0.000111648
0.000186597
0.00014756
0.000186294
0.000179208
0.000190201
0.000171885
0.000215493
0.000156301
0.00015374
0.000152179
0.000524319
0.000128552
0.000133574
0.000166817
0.000107326
0.000171505
0.000130684
0.000157193
0.000163006
0.000151951
0.000135844
0.000147021
0.000135131
0.000170574
0.000146636
0.000445004
7.34717e-05
0.00012617
0.000121172
0.000146458
0.000102006
0.000157034
0.000129632
0.000145153
0.000150835
0.000135901
0.000135191
0.000144036
0.000104341
0.000124654
0.000115131
0.000363093
0.00013341
7.77958e-05
0.000109053
0.000108875
0.000125635
0.00010216
0.000133091
0.00011478
0.000121481
0.000121879
0.000116554
0.000104736
0.000114052
9.43821e-05
0.000117699
0.000120911
0.000304156
0.000121832
0.000106239
7.87784e-05
9.72958e-05
9.94624e-05
0.000108969
9.73722e-05
0.000119631
0.000110514
0.000114016
0.000110874
0.000102058
0.000105729
0.000114189
0.000116483
8.44206e-05
0.000107292
0.000214906
4.12193e-05
0.000101716
8.10542e-05
7.68999e-05
8.56932e-05
8.95602e-05
9.39096e-05
8.74322e-05
9.71167e-05
9.17968e-05
9.52792e-05
9.42695e-05
8.77554e-05
6.95859e-05
8.56711e-05
9.06014e-05
8.77374e-05
0.000127722
0.000210217
7.06832e-05
4.59423e-05
8.14791e-05
6.92869e-05
7.05509e-05
7.38097e-05
7.82224e-05
8.0438e-05
7.83459e-05
8.32078e-05
7.93234e-05
7.91197e-05
7.92027e-05
7.8773e-05
6.28245e-05
7.52627e-05
9.90795e-05
0.000122393
0.000120527
0.00017249
4.62526e-05
5.59459e-05
4.09073e-05
6.40347e-05
5.60833e-05
6.05398e-05
6.30325e-05
6.81631e-05
7.16969e-05
7.29359e-05
7.87663e-05
8.0065e-05
7.96302e-05
7.4295e-05
5.67505e-05
3.5234e-05
6.22917e-05
9.20036e-05
6.25681e-05
7.62811e-05
0.000186992
3.62696e-05
3.64365e-05
4.3233e-05
3.60243e-05
4.9761e-05
4.48947e-05
4.94134e-05
5.09877e-05
5.3723e-05
5.5188e-05
5.62726e-05
5.63308e-05
5.73371e-05
5.55535e-05
6.14631e-05
7.55277e-05
7.19778e-05
9.70236e-05
0.000157669
0.000142828
0.000110117
0.000138613
1.76838e-05
2.83399e-05
2.59106e-05
3.18208e-05
2.88281e-05
3.72668e-05
3.62938e-05
4.04845e-05
4.24928e-05
4.58852e-05
4.8454e-05
5.10036e-05
5.46031e-05
5.94109e-05
6.14309e-05
7.604e-05
8.59091e-05
0.00012361
0.00012684
0.000136385
8.83793e-05
8.94188e-05
0.000196498
1.29618e-05
9.99597e-06
1.495e-05
1.36378e-05
1.62365e-05
1.53951e-05
1.88523e-05
1.88798e-05
2.13561e-05
2.38792e-05
2.71684e-05
3.03429e-05
3.35001e-05
3.46451e-05
3.60465e-05
3.29809e-05
3.19371e-05
6.19289e-05
7.53024e-05
6.41638e-05
0.000175239
0.000131815
0.000184602
0.000299551
0.00202221
0.00035697
0.00183689
0.00041053
0.000320266
0.0017677
0.000418695
0.000432436
0.000496394
0.00178878
0.000406542
0.000522487
0.000458944
0.000501908
0.00177588
0.000347771
0.000448271
0.000575974
0.000717315
0.000826639
0.00193234
0.000432894
0.000818439
0.00127529
0.00138497
0.00143355
0.0013097
0.00167367
0.000860785