/*--------------------------------*- C++ -*----------------------------------*\
  =========                 |
  \\      /  F ield         | OpenFOAM: The Open Source CFD Toolbox
   \\    /   O peration     | Website:  https://openfoam.org
    \\  /    A nd           | Version:  7
     \\/     M anipulation  |
\*---------------------------------------------------------------------------*/
FoamFile
{
    version     2.0;
    format      ascii;
    class       volScalarField;
    location    "0.5";
    object      p;
}
// * * * * * * * * * * * * * * * * * * * * * * * * * * * * * * * * * * * * * //

dimensions      [0 2 -2 0 0 0 0];

internalField   nonuniform List<scalar> 
18750
(
-93.6279
-95.2385
-93.7084
-93.3665
-93.6452
-93.3016
-95.1159
-94.7187
-93.6586
-93.2735
-95.4799
-77.7195
-93.569
-96.644
-92.977
-95.094
-97.3178
-94.6527
-93.7868
-93.3367
-96.7973
-96.7861
-95.4036
-96.0701
-60.5746
-93.8644
-97.8253
-96.6581
-93.358
-95.2138
-97.4908
-97.313
-94.7574
-94.0909
-93.607
-97.4599
-96.7252
-96.7013
-97.3625
-97.1004
-95.5276
-97.4946
-95.946
-78.1481
-94.5251
-97.8419
-97.8119
-96.7116
-93.7511
-95.5032
-97.6845
-97.4938
-97.3181
-95.0601
-94.612
-94.0732
-97.5842
-97.9466
-97.3229
-97.7158
-96.2846
-96.6639
-97.7342
-97.3462
-96.8831
-95.8125
-97.9213
-97.3675
-96.1978
-84.1032
-95.2974
-97.8698
-97.8344
-97.8145
-96.8024
-94.2065
-95.8892
-97.8543
-97.6816
-97.4979
-97.3327
-95.5813
-95.3005
-94.6435
-97.775
-97.8705
-97.5279
-97.7575
-97.7863
-97.2164
-97.6178
-97.6879
-96.5036
-96.9059
-97.878
-97.754
-97.327
-97.4134
-96.278
-97.8787
-97.9167
-97.3951
-96.4927
-90.0105
-95.875
-97.9003
-97.8667
-97.8312
-97.8166
-96.9099
-95.0173
-96.2845
-97.9545
-97.8541
-97.6811
-97.5035
-97.3539
-96.2014
-96.0358
-95.198
-97.7668
-97.5618
-97.7212
-97.8023
-97.7879
-97.521
-97.733
-97.8064
-97.4392
-97.3376
-98.0064
-97.6091
-97.6482
-96.9148
-97.0736
-97.9781
-97.8823
-97.7786
-97.3188
-97.8689
-96.6679
-97.897
-97.8781
-97.9136
-97.4756
-96.8273
-93.2252
-96.4449
-97.986
-97.8997
-97.8631
-97.8308
-97.8128
-97.0452
-95.854
-96.6194
-98.0855
-97.9545
-97.854
-97.6831
-97.5116
-97.3784
-96.8045
-96.7037
-95.644
-97.784
-97.6086
-97.7593
-97.7735
-97.8187
-97.7924
-97.8124
-97.8186
-97.6419
-97.6753
-97.9795
-97.7348
-97.7293
-97.4108
-97.4619
-98.0374
-98.0099
-97.5276
-97.7216
-97.3109
-97.343
-97.9236
-97.9564
-97.8799
-97.7628
-97.4527
-97.5788
-97.0172
-98.0066
-97.8959
-97.8828
-97.913
-97.5555
-97.1302
-94.5663
-96.88
-98.1041
-97.9856
-97.8996
-97.8607
-97.8341
-97.8178
-97.1905
-96.5598
-96.8642
-98.1899
-98.0855
-97.9549
-97.854
-97.6864
-97.5222
-97.4029
-97.3097
-97.2136
-95.9493
-97.7096
-97.8891
-97.7067
-97.7778
-97.8893
-97.8198
-97.8504
-97.7507
-97.8696
-97.9254
-97.9295
-97.7938
-97.8083
-97.5624
-97.7677
-98.1023
-97.9589
-97.7154
-97.7514
-97.4812
-97.5978
-98.004
-98.0177
-97.9896
-97.6152
-97.7078
-97.5697
-97.5702
-98.0436
-97.9213
-97.9582
-97.8906
-97.7552
-97.541
-97.4583
-97.3421
-98.1062
-98.0049
-97.8956
-97.8926
-97.9169
-97.6133
-97.3533
-95.8057
-97.1785
-98.2027
-98.1037
-97.9855
-97.9001
-97.8604
-97.8409
-97.8433
-97.324
-97.0423
-97.0293
-98.312
-98.1898
-98.0857
-97.956
-97.8543
-97.6904
-97.5326
-97.4256
-97.6797
-97.5107
-96.126
-97.9392
-97.727
-97.9359
-97.8845
-97.794
-97.9457
-97.744
-97.9582
-97.9018
-97.8685
-97.8065
-97.7467
-97.8074
-97.9128
-97.9757
-97.9008
-97.7617
-97.8216
-97.6118
-97.7887
-98.0363
-98.0939
-97.9312
-97.7495
-97.7914
-97.5868
-97.6772
-98.075
-98.0033
-98.035
-97.9908
-97.6958
-97.7863
-97.7303
-97.613
-98.1297
-98.0417
-97.92
-97.9704
-97.8936
-97.7694
-97.5903
-97.4992
-97.4654
-98.208
-98.1038
-98.0036
-97.8982
-97.9031
-97.9222
-97.6468
-97.4858
-96.5861
-97.4477
-98.3195
-98.2023
-98.1036
-97.9855
-97.9009
-97.8618
-97.85
-97.8703
-97.4614
-97.3072
-97.1471
-98.4392
-98.3119
-98.1899
-98.0861
-97.9579
-97.8551
-97.6948
-97.5394
-97.4435
-97.9239
-97.5475
-96.1977
-97.8967
-97.9542
-97.855
-97.7199
-97.9129
-97.8461
-97.8473
-97.7054
-97.8279
-97.919
-97.7809
-97.9529
-97.7951
-97.8975
-97.8473
-97.8054
-97.7371
-97.8354
-97.8258
-98.0266
-97.9778
-97.8747
-97.7457
-97.8329
-97.6461
-97.7513
-98.0886
-98.033
-98.0668
-97.893
-97.7237
-97.8431
-97.6504
-97.7146
-98.1485
-98.071
-97.9995
-98.0456
-97.9662
-97.7125
-97.8365
-97.8188
-97.6902
-98.226
-98.129
-98.0397
-97.923
-97.9683
-97.8932
-97.7771
-97.632
-97.5683
-97.5506
-98.3238
-98.2071
-98.1033
-98.005
-97.8958
-97.9109
-97.9219
-97.6797
-97.5731
-97.0852
-97.5471
-98.4462
-98.3193
-98.2022
-98.1037
-97.9859
-97.9019
-97.8643
-97.8611
-97.8995
-97.5822
-97.4309
-97.2393
-98.5732
-98.4392
-98.312
-98.1901
-98.0868
-97.9605
-97.8565
-97.6992
-97.5394
-97.4558
-98.0716
-97.4864
-96.2993
-98.1692
-97.9257
-97.8259
-97.9476
-97.9238
-97.8663
-97.5788
-97.8479
-97.9167
-97.8489
-97.8663
-97.5341
-97.9265
-97.8147
-97.9207
-97.7898
-97.881
-97.7507
-97.9975
-97.8995
-97.832
-97.7937
-97.7585
-97.7835
-97.8231
-98.0815
-98.0208
-97.9546
-97.8539
-97.6992
-97.8206
-97.6684
-97.7655
-98.1662
-98.0851
-98.0318
-98.0516
-97.8782
-97.7355
-97.8489
-97.6879
-97.7544
-98.2399
-98.1471
-98.0693
-97.9948
-98.0344
-97.9386
-97.7467
-97.8591
-97.838
-97.7254
-98.3365
-98.225
-98.1272
-98.0383
-97.9292
-97.9568
-97.8844
-97.7718
-97.6814
-97.6824
-97.6191
-98.451
-98.3231
-98.2067
-98.1049
-98.0053
-97.9004
-97.913
-97.9224
-97.6961
-97.6374
-97.4224
-97.5873
-98.5788
-98.446
-98.3192
-98.2023
-98.1039
-97.9869
-97.903
-97.8678
-97.8671
-97.9279
-97.6692
-97.4989
-97.307
-98.7123
-98.5731
-98.4392
-98.3122
-98.1905
-98.0877
-97.9631
-97.8585
-97.7036
-97.5347
-97.4627
-98.1592
-97.5836
-96.4762
-98.3977
-98.3626
-98.0719
-97.9772
-97.9285
-97.7354
-97.9166
-97.8968
-97.8924
-97.8826
-97.4728
-97.9337
-97.8036
-97.9364
-97.8332
-97.8935
-97.5635
-97.9915
-97.8972
-97.8314
-97.8912
-97.794
-97.9057
-97.7352
-98.0823
-98.0049
-97.9202
-97.8195
-97.7586
-97.7623
-97.7983
-97.8111
-98.1732
-98.0788
-98.0134
-97.9525
-97.8421
-97.7037
-97.7995
-97.6825
-97.8009
-98.2583
-98.1655
-98.0807
-98.0154
-98.0195
-97.8856
-97.7395
-97.8317
-97.7128
-97.7754
-98.3496
-98.2388
-98.1455
-98.0662
-97.9908
-97.9991
-97.926
-97.7553
-97.8478
-97.8347
-97.7436
-98.4603
-98.3357
-98.2243
-98.1263
-98.0358
-97.9374
-97.9378
-97.8741
-97.7597
-97.7129
-97.7516
-97.6493
-98.5839
-98.4506
-98.3225
-98.207
-98.1047
-98.0067
-97.9111
-97.9145
-97.9261
-97.7043
-97.6782
-97.5815
-97.6447
-98.7168
-98.5787
-98.4459
-98.3193
-98.2027
-98.1042
-97.9884
-97.9042
-97.8718
-97.8712
-97.943
-97.7331
-97.5358
-97.3368
-98.8578
-98.7122
-98.5732
-98.4393
-98.3124
-98.191
-98.0888
-97.966
-97.8611
-97.7082
-97.5335
-97.4616
-98.2223
-97.6667
-96.5673
-99.0894
-98.2746
-98.3262
-98.3797
-97.9692
-97.9231
-97.9587
-97.9443
-97.701
-97.9714
-97.897
-97.8538
-97.8507
-97.988
-97.3884
-98.0142
-97.9187
-97.8582
-97.8995
-97.7802
-98.0177
-97.473
-98.091
-97.9895
-97.9192
-97.82
-97.8528
-97.7755
-98.0039
-97.7198
-98.1829
-98.076
-97.9848
-97.9096
-97.8127
-97.766
-97.7678
-97.8477
-97.8265
-98.2751
-98.1719
-98.0796
-98.004
-97.9356
-97.8398
-97.7171
-97.7808
-97.7391
-97.8018
-98.3666
-98.2574
-98.1626
-98.0766
-98.0097
-97.9953
-97.8858
-97.7383
-97.8237
-97.7273
-97.7796
-98.4764
-98.349
-98.2381
-98.1439
-98.0619
-97.9863
-97.9839
-97.912
-97.7735
-97.8327
-97.8237
-97.747
-98.5921
-98.4598
-98.3358
-98.2246
-98.1247
-98.0332
-97.9512
-97.9318
-97.8663
-97.7474
-97.7336
-97.7691
-97.6769
-98.723
-98.5836
-98.4504
-98.3228
-98.2075
-98.1052
-98.0081
-97.9174
-97.9146
-97.9285
-97.7287
-97.6965
-97.6754
-97.6754
-98.8618
-98.7167
-98.5786
-98.446
-98.3194
-98.2032
-98.1045
-97.9902
-97.9056
-97.8757
-97.8752
-97.9502
-97.776
-97.6036
-97.356
-99.0058
-98.8578
-98.7122
-98.5732
-98.4394
-98.3127
-98.1916
-98.0899
-97.969
-97.864
-97.7125
-97.5353
-97.4507
-98.2166
-97.5518
-96.8338
-98.2927
-98.787
-99.0718
-98.1485
-98.2876
-98.2402
-98.3702
-98.0849
-97.9452
-97.9315
-97.8775
-97.9663
-97.6349
-98.042
-97.9452
-97.8685
-97.8578
-97.7345
-97.9095
-97.3232
-98.109
-98.0032
-97.9272
-97.8199
-97.8741
-97.7777
-98.001
-97.4743
-98.1994
-98.0864
-97.9899
-97.9207
-97.8211
-97.8374
-97.7593
-97.9619
-97.7393
-98.2923
-98.18
-98.0765
-97.9901
-97.9165
-97.818
-97.7776
-97.7633
-97.8729
-97.8592
-98.3853
-98.274
-98.17
-98.0756
-97.9967
-97.9312
-97.8401
-97.7443
-97.7697
-97.7754
-97.7969
-98.4948
-98.366
-98.2566
-98.1597
-98.0715
-97.9983
-97.9637
-97.8661
-97.7654
-97.8229
-97.7348
-97.7734
-98.6084
-98.4761
-98.3488
-98.2384
-98.1437
-98.0571
-97.9819
-97.9692
-97.9055
-97.7825
-97.8136
-97.8086
-97.7501
-98.7324
-98.5918
-98.4597
-98.3355
-98.2233
-98.1225
-98.032
-97.9528
-97.9292
-97.8614
-97.7418
-97.7489
-97.7712
-97.6866
-98.869
-98.7229
-98.5836
-98.4505
-98.3234
-98.2082
-98.1064
-98.0094
-97.9215
-97.9124
-97.9243
-97.7491
-97.7022
-97.7147
-97.7015
-99.01
-98.8618
-98.7167
-98.5786
-98.446
-98.3196
-98.2037
-98.1049
-97.9923
-97.9069
-97.8793
-97.8782
-97.95
-97.7888
-97.7015
-97.4384
-99.1592
-99.0058
-98.8578
-98.7123
-98.5733
-98.4396
-98.313
-98.1923
-98.0911
-97.9718
-97.8672
-97.7165
-97.5374
-97.443
-98.0635
-97.3486
-97.3385
-97.4835
-99.3491
-98.2126
-98.7654
-98.7213
-99.0332
-98.5629
-98.1079
-98.2973
-98.1384
-98.4358
-98.1056
-98.0337
-97.9216
-97.9471
-97.826
-97.9416
-97.5825
-98.1353
-98.0294
-97.9468
-97.835
-97.8368
-97.7613
-97.6364
-97.3485
-98.2192
-98.1033
-98.0051
-97.9232
-97.8124
-97.8569
-97.75
-97.7911
-97.5258
-98.3122
-98.1973
-98.0852
-97.9895
-97.9205
-97.8067
-97.8396
-97.756
-97.8818
-97.7341
-98.4052
-98.2911
-98.1796
-98.0761
-97.986
-97.9152
-97.8259
-97.7979
-97.772
-97.8265
-97.7976
-98.5167
-98.3847
-98.2732
-98.1677
-98.0727
-97.9922
-97.9273
-97.8444
-97.7703
-97.7768
-97.7887
-97.7809
-98.6258
-98.4945
-98.3657
-98.2561
-98.1575
-98.0664
-97.9886
-97.9453
-97.8784
-97.7867
-97.8007
-97.7501
-97.7582
-98.7485
-98.6083
-98.476
-98.3493
-98.2394
-98.1439
-98.0538
-97.9764
-97.9568
-97.9001
-97.7795
-97.7998
-97.7954
-97.7468
-98.8795
-98.7322
-98.5918
-98.4597
-98.3348
-98.2211
-98.1209
-98.0296
-97.9472
-97.9235
-97.8566
-97.7465
-97.7615
-97.7708
-97.684
-99.0177
-98.8689
-98.7228
-98.5837
-98.4508
-98.3239
-98.209
-98.1076
-98.0112
-97.9254
-97.9085
-97.9155
-97.7725
-97.7038
-97.7461
-97.7156
-99.1634
-99.01
-98.8617
-98.7166
-98.5785
-98.4461
-98.3197
-98.2042
-98.1052
-97.9945
-97.9085
-97.8828
-97.8792
-97.945
-97.7815
-97.7233
-97.5252
-99.3108
-99.1592
-99.0058
-98.8578
-98.7123
-98.5734
-98.4398
-98.3135
-98.1932
-98.0922
-97.9743
-97.8706
-97.7191
-97.5408
-97.4442
-97.9036
-97.0014
-97.6324
-96.1798
-98.3056
-97.2454
-99.0875
-99.2252
-98.4786
-98.3646
-98.7819
-98.6054
-99.1036
-98.5427
-98.1789
-98.0588
-98.2677
-98.0762
-98.286
-97.9483
-98.0851
-98.0338
-97.8883
-97.9518
-97.7347
-97.6893
-97.5755
-98.2481
-98.1299
-98.0264
-97.9443
-97.8315
-97.8814
-97.6986
-97.6331
-97.52
-98.3345
-98.2172
-98.1011
-97.9971
-97.9231
-97.8106
-97.8376
-97.7473
-97.7335
-97.5676
-98.4277
-98.3116
-98.1958
-98.0857
-97.9909
-97.9204
-97.8114
-97.8323
-97.7623
-97.8026
-97.7071
-98.5416
-98.4048
-98.2905
-98.178
-98.075
-97.986
-97.9198
-97.8364
-97.8168
-97.7824
-97.7996
-97.7773
-98.6463
-98.5166
-98.3845
-98.2723
-98.1664
-98.0707
-97.9899
-97.9282
-97.852
-97.7829
-97.7852
-97.7832
-97.7743
-98.7675
-98.6258
-98.4944
-98.366
-98.2558
-98.1559
-98.0626
-97.9829
-97.9376
-97.8609
-97.7851
-97.7996
-97.7574
-97.7539
-98.8955
-98.7484
-98.6083
-98.4762
-98.3498
-98.2405
-98.1441
-98.0517
-97.9743
-97.9473
-97.8926
-97.7888
-97.79
-97.7929
-97.7531
-99.029
-98.8794
-98.7322
-98.592
-98.4599
-98.3341
-98.2204
-98.12
-98.0284
-97.9475
-97.9204
-97.8546
-97.7551
-97.7702
-97.7684
-97.6895
-99.1713
-99.0177
-98.8688
-98.7229
-98.5838
-98.451
-98.3245
-98.21
-98.1089
-98.0128
-97.9284
-97.9042
-97.9039
-97.7791
-97.709
-97.752
-97.7052
-99.3151
-99.1634
-99.01
-98.8617
-98.7166
-98.5785
-98.4461
-98.32
-98.2048
-98.1054
-97.9967
-97.9111
-97.8866
-97.8773
-97.9384
-97.7836
-97.714
-97.5646
-99.4708
-99.3108
-99.1592
-99.0058
-98.8578
-98.7124
-98.5735
-98.44
-98.314
-98.1941
-98.0933
-97.9765
-97.8742
-97.7191
-97.545
-97.4496
-97.8563
-96.7762
-97.6882
-95.5272
-96.4
-96.1163
-98.8647
-97.8694
-97.5036
-98.8856
-98.986
-99.0534
-98.3019
-98.2811
-98.3197
-98.6147
-98.4679
-98.6861
-98.2731
-98.1676
-98.1477
-98.0239
-98.2443
-97.9727
-98.0845
-97.86
-98.1761
-98.0827
-98.0233
-97.8692
-97.9415
-97.7629
-97.7099
-97.6483
-98.3631
-98.2459
-98.1272
-98.0249
-97.9508
-97.8276
-97.8341
-97.6882
-97.6856
-97.5961
-98.4546
-98.3346
-98.2162
-98.1005
-98.0025
-97.9297
-97.8211
-97.8199
-97.7429
-97.7159
-97.6453
-98.5705
-98.4281
-98.3111
-98.1956
-98.0863
-97.9925
-97.9247
-97.8302
-97.8153
-97.7686
-97.782
-97.7233
-98.6684
-98.5418
-98.4049
-98.2896
-98.1779
-98.0751
-97.9888
-97.9225
-97.8481
-97.8238
-97.7843
-97.7957
-97.7642
-98.7912
-98.6467
-98.5168
-98.3845
-98.2719
-98.1656
-98.0698
-97.9889
-97.9249
-97.8525
-97.798
-97.7851
-97.7834
-97.7715
-98.9155
-98.7676
-98.6259
-98.4946
-98.3663
-98.2558
-98.1546
-98.0601
-97.9797
-97.9289
-97.8592
-97.803
-97.7892
-97.7641
-97.7563
-99.0454
-98.8955
-98.7484
-98.6084
-98.4765
-98.3506
-98.2414
-98.1439
-98.0518
-97.9748
-97.9385
-97.8859
-97.7949
-97.7835
-97.7896
-97.7569
-99.1827
-99.0291
-98.8794
-98.7323
-98.5923
-98.46
-98.3338
-98.2201
-98.12
-98.0282
-97.9484
-97.9175
-97.8526
-97.7654
-97.7714
-97.7659
-97.7
-99.3232
-99.1713
-99.0177
-98.8689
-98.7229
-98.584
-98.4513
-98.3251
-98.2111
-98.1102
-98.0143
-97.9307
-97.9005
-97.889
-97.7842
-97.7128
-97.7372
-97.7066
-99.4763
-99.3151
-99.1634
-99.01
-98.8617
-98.7166
-98.5785
-98.4462
-98.3202
-98.2053
-98.1057
-97.9987
-97.9139
-97.8892
-97.8759
-97.9271
-97.791
-97.7187
-97.5862
-99.6197
-99.4708
-99.3108
-99.1592
-99.0058
-98.8578
-98.7125
-98.5737
-98.4403
-98.3144
-98.1949
-98.0943
-97.9782
-97.8777
-97.7203
-97.5547
-97.4623
-97.801
-96.9154
-97.565
-95.7817
-95.7075
-95.6675
-97.3472
-96.2832
-96.1361
-98.2724
-98.2891
-97.7056
-97.5332
-98.4614
-98.5838
-98.7135
-98.5497
-98.3475
-98.2188
-98.2313
-98.268
-98.4114
-98.2548
-98.3881
-98.0006
-98.2243
-98.1608
-98.1248
-97.9981
-98.1021
-97.869
-97.8678
-97.762
-98.2879
-98.175
-98.0798
-98.0205
-97.866
-97.8991
-97.7384
-97.7207
-97.6812
-98.4889
-98.3642
-98.2459
-98.1284
-98.0324
-97.9552
-97.8248
-97.824
-97.7238
-97.7296
-97.6558
-98.6025
-98.4557
-98.3353
-98.2169
-98.1036
-98.0069
-97.936
-97.8484
-97.8219
-97.7406
-97.7415
-97.6824
-98.6927
-98.5713
-98.4283
-98.3111
-98.1956
-98.0875
-97.9986
-97.9263
-97.8541
-97.825
-97.7718
-97.7734
-97.7241
-98.8188
-98.6693
-98.5424
-98.4048
-98.2899
-98.1781
-98.0763
-97.9929
-97.9248
-97.857
-97.8248
-97.7838
-97.7896
-97.7613
-98.9397
-98.7915
-98.647
-98.517
-98.3847
-98.2717
-98.1653
-98.0694
-97.9886
-97.9242
-97.8567
-97.806
-97.7881
-97.7815
-97.7693
-99.0665
-98.9157
-98.7677
-98.6262
-98.495
-98.3668
-98.256
-98.1536
-98.0589
-97.98
-97.9263
-97.8576
-97.8106
-97.7876
-97.7684
-97.7594
-99.1979
-99.0455
-98.8956
-98.7485
-98.6086
-98.477
-98.3514
-98.242
-98.1437
-98.0514
-97.9748
-97.9313
-97.8803
-97.8
-97.7746
-97.7862
-97.7591
-99.335
-99.1827
-99.0292
-98.8795
-98.7325
-98.5926
-98.4603
-98.3339
-98.2205
-98.1203
-98.0284
-97.9503
-97.9141
-97.8517
-97.7707
-97.7718
-97.7663
-97.7096
-99.4872
-99.3233
-99.1713
-99.0178
-98.8689
-98.723
-98.5842
-98.4517
-98.3258
-98.212
-98.1115
-98.0157
-97.9324
-97.8974
-97.8767
-97.7762
-97.7164
-97.7487
-97.7261
-99.6256
-99.4763
-99.3152
-99.1634
-99.01
-98.8617
-98.7166
-98.5785
-98.4463
-98.3205
-98.2058
-98.106
-98.0003
-97.916
-97.8897
-97.8792
-97.9093
-97.7848
-97.7152
-97.6147
-99.7716
-99.6197
-99.4708
-99.3108
-99.1592
-99.0059
-98.8579
-98.7126
-98.5739
-98.4406
-98.3149
-98.1958
-98.0951
-97.9797
-97.8816
-97.7246
-97.5816
-97.4673
-97.7877
-97.1501
-97.6292
-96.0634
-95.96
-95.9627
-96.2611
-95.7354
-95.8997
-97.4122
-96.9187
-96.4719
-96.7606
-98.1286
-97.8905
-97.6753
-97.6742
-97.5487
-98.2624
-98.312
-98.3258
-98.1751
-98.1517
-97.865
-98.2602
-98.2063
-98.1846
-98.1647
-98.1934
-98.0499
-97.9481
-97.8489
-98.3199
-98.2219
-98.157
-98.0772
-97.9579
-97.9918
-97.8317
-97.8364
-97.748
-98.4031
-98.2889
-98.1734
-98.0802
-98.01
-97.8638
-97.8709
-97.7604
-97.7618
-97.7003
-98.635
-98.4914
-98.3664
-98.2481
-98.1312
-98.0374
-97.9588
-97.8592
-97.8259
-97.7363
-97.7325
-97.6933
-98.7211
-98.6042
-98.4572
-98.3365
-98.2188
-98.1053
-98.0157
-97.9398
-97.8597
-97.8277
-97.7554
-97.7549
-97.7097
-98.8517
-98.695
-98.5725
-98.4289
-98.3116
-98.1967
-98.0905
-98.0032
-97.9306
-97.868
-97.8311
-97.7712
-97.7784
-97.7368
-98.9683
-98.8193
-98.6702
-98.5428
-98.4055
-98.29
-98.1793
-98.079
-97.9966
-97.9262
-97.8583
-97.8275
-97.785
-97.7863
-97.7568
-99.0933
-98.9402
-98.7917
-98.6474
-98.5173
-98.3851
-98.272
-98.1656
-98.0695
-97.99
-97.9228
-97.8601
-97.8138
-97.79
-97.7847
-97.7662
-99.2172
-99.0668
-98.9159
-98.7678
-98.6265
-98.4954
-98.3674
-98.2562
-98.1532
-98.0591
-97.9804
-97.9235
-97.8569
-97.817
-97.7902
-97.7714
-97.7591
-99.3507
-99.1981
-99.0457
-98.8957
-98.7487
-98.609
-98.4775
-98.3521
-98.2425
-98.1434
-98.051
-97.9746
-97.9262
-97.8751
-97.8012
-97.7761
-97.7847
-97.7609
-99.5048
-99.3352
-99.1828
-99.0292
-98.8796
-98.7327
-98.593
-98.4607
-98.3344
-98.2213
-98.1208
-98.0291
-97.9525
-97.9111
-97.8513
-97.7884
-97.775
-97.7622
-97.7161
-99.6353
-99.4873
-99.3234
-99.1713
-99.0178
-98.8689
-98.7231
-98.5844
-98.4521
-98.3264
-98.213
-98.1127
-98.0169
-97.9335
-97.8948
-97.8658
-97.7589
-97.7173
-97.7645
-97.7341
-99.7762
-99.6256
-99.4763
-99.3152
-99.1634
-99.01
-98.8618
-98.7167
-98.5786
-98.4465
-98.3208
-98.2064
-98.1063
-98.0019
-97.9178
-97.8895
-97.8796
-97.9045
-97.7787
-97.7241
-97.6466
-99.9164
-99.7716
-99.6196
-99.4708
-99.3108
-99.1592
-99.0059
-98.8579
-98.7127
-98.5741
-98.4409
-98.3154
-98.1966
-98.0959
-97.9809
-97.8854
-97.7302
-97.6237
-97.4694
-97.8092
-97.3105
-98.1259
-96.2593
-96.1708
-96.198
-96.4073
-96.1394
-96.1606
-96.8379
-96.4026
-96.1264
-96.3448
-97.7557
-97.2141
-96.8341
-96.7082
-96.9365
-98.0862
-97.9088
-97.663
-97.5398
-97.4193
-97.4596
-98.2401
-98.2084
-98.2015
-98.187
-98.051
-97.9138
-97.7928
-98.3584
-98.2738
-98.2102
-98.1141
-98.0632
-98.045
-97.9033
-97.885
-97.7679
-98.4358
-98.3278
-98.2219
-98.1386
-98.058
-97.9486
-97.9374
-97.8119
-97.8029
-97.7358
-98.5369
-98.4068
-98.293
-98.1726
-98.0854
-98
-97.8908
-97.8589
-97.7648
-97.7582
-97.7213
-98.7548
-98.6384
-98.4942
-98.3689
-98.2514
-98.1355
-98.0453
-97.9605
-97.871
-97.8377
-97.7524
-97.7613
-97.7142
-98.8901
-98.7264
-98.6066
-98.4589
-98.3381
-98.2213
-98.1108
-98.0227
-97.9415
-97.8672
-97.8276
-97.7646
-97.7636
-97.7267
-99.0017
-98.8524
-98.6965
-98.5737
-98.4302
-98.3126
-98.1987
-98.094
-98.0092
-97.9298
-97.8619
-97.828
-97.7762
-97.7802
-97.745
-99.1247
-98.9692
-98.8196
-98.6709
-98.5436
-98.4061
-98.2913
-98.1807
-98.0815
-98.0002
-97.9285
-97.8659
-97.8288
-97.7859
-97.7844
-97.7575
-99.241
-99.0941
-98.9406
-98.7919
-98.6478
-98.5177
-98.3858
-98.2726
-98.1662
-98.0706
-97.9907
-97.9236
-97.8633
-97.8174
-97.7881
-97.7865
-97.7643
-99.3709
-99.2175
-99.0671
-98.9161
-98.7681
-98.6269
-98.496
-98.368
-98.2566
-98.1534
-98.059
-97.9813
-97.9224
-97.8561
-97.8183
-97.789
-97.7748
-97.7565
-99.5285
-99.3512
-99.1982
-99.0459
-98.8958
-98.7489
-98.6093
-98.4781
-98.3527
-98.2429
-98.1431
-98.051
-97.9745
-97.9228
-97.8696
-97.8001
-97.7782
-97.7848
-97.7621
-99.6492
-99.5048
-99.3355
-99.1829
-99.0293
-98.8797
-98.7329
-98.5934
-98.4612
-98.3351
-98.2224
-98.1217
-98.0302
-97.9554
-97.9089
-97.85
-97.8
-97.7708
-97.762
-97.7191
-99.7856
-99.6355
-99.4872
-99.3236
-99.1714
-99.0179
-98.869
-98.7232
-98.5847
-98.4525
-98.3271
-98.214
-98.1137
-98.018
-97.9351
-97.8919
-97.8561
-97.7569
-97.7147
-97.7711
-97.737
-99.924
-99.7762
-99.6256
-99.4763
-99.3152
-99.1634
-99.0101
-98.8618
-98.7168
-98.5788
-98.4467
-98.3212
-98.2069
-98.1066
-98.0033
-97.9196
-97.8888
-97.8777
-97.903
-97.7699
-97.7285
-97.6844
-100.062
-99.9164
-99.7716
-99.6196
-99.4707
-99.3108
-99.1592
-99.0059
-98.858
-98.7128
-98.5743
-98.4412
-98.3158
-98.1974
-98.0966
-97.982
-97.8889
-97.741
-97.6548
-97.4971
-97.7961
-97.4864
-98.6251
-96.3289
-96.3225
-96.3092
-96.3608
-96.2656
-96.3277
-96.7235
-96.4371
-96.3606
-96.4592
-97.2389
-96.9104
-96.6306
-96.533
-96.7171
-97.7857
-97.4451
-97.2001
-96.9889
-96.897
-97.1736
-98.1364
-98.0228
-97.898
-97.6792
-97.5946
-97.5586
-97.5515
-98.293
-98.2457
-98.1385
-98.1078
-98.1093
-97.908
-97.8589
-97.7464
-98.4613
-98.3665
-98.282
-98.2184
-98.125
-98.0397
-97.9588
-97.8706
-97.8278
-97.75
-98.5756
-98.4458
-98.3344
-98.2384
-98.1542
-98.0556
-97.9454
-97.9053
-97.8079
-97.7953
-97.737
-98.6738
-98.5415
-98.4125
-98.2977
-98.178
-98.0934
-97.9995
-97.9022
-97.8642
-97.7772
-97.7724
-97.73
-98.935
-98.7622
-98.6435
-98.4969
-98.3719
-98.2556
-98.1412
-98.0518
-97.9613
-97.886
-97.8376
-97.769
-97.7672
-97.7315
-99.0447
-98.8906
-98.7268
-98.6095
-98.461
-98.3405
-98.2246
-98.1162
-98.0292
-97.9434
-97.8715
-97.8311
-97.7735
-97.7733
-97.7385
-99.1572
-99.0032
-98.8527
-98.6978
-98.5753
-98.4314
-98.3143
-98.201
-98.0982
-98.013
-97.9337
-97.8721
-97.8302
-97.7803
-97.7814
-97.7508
-99.2747
-99.1264
-98.9703
-98.8199
-98.6717
-98.5442
-98.4074
-98.2926
-98.1824
-98.0845
-98.0031
-97.9307
-97.8677
-97.8308
-97.7863
-97.7848
-97.7586
-99.4014
-99.2416
-99.0943
-98.941
-98.7922
-98.6482
-98.5182
-98.3865
-98.2735
-98.1672
-98.072
-97.9924
-97.9242
-97.8655
-97.8203
-97.7866
-97.7853
-97.7633
-99.5612
-99.3716
-99.2179
-99.0673
-98.9161
-98.7684
-98.6274
-98.4965
-98.3687
-98.2571
-98.1536
-98.0598
-97.9826
-97.9217
-97.8586
-97.8203
-97.7844
-97.7766
-97.7557
-99.6661
-99.5287
-99.3517
-99.1984
-99.046
-98.8959
-98.7491
-98.6097
-98.4786
-98.3533
-98.2433
-98.1429
-98.051
-97.9745
-97.9204
-97.8642
-97.8007
-97.7722
-97.7841
-97.7616
-99.8007
-99.6495
-99.5048
-99.3358
-99.183
-99.0295
-98.8799
-98.7332
-98.5939
-98.4618
-98.336
-98.2236
-98.1227
-98.0317
-97.9572
-97.9071
-97.8528
-97.8028
-97.7711
-97.759
-97.7227
-99.9374
-99.7856
-99.6356
-99.4872
-99.3237
-99.1714
-99.0179
-98.869
-98.7234
-98.585
-98.453
-98.3278
-98.2149
-98.1146
-98.0199
-97.9373
-97.8895
-97.8467
-97.7573
-97.7119
-97.7691
-97.7408
-100.067
-99.9239
-99.7762
-99.6256
-99.4763
-99.3153
-99.1635
-99.0101
-98.8619
-98.7169
-98.579
-98.447
-98.3216
-98.2075
-98.1068
-98.0046
-97.9215
-97.8875
-97.8747
-97.8955
-97.7596
-97.7328
-97.7252
-100.186
-100.062
-99.9163
-99.7715
-99.6196
-99.4707
-99.3108
-99.1592
-99.006
-98.8581
-98.7129
-98.5745
-98.4414
-98.3163
-98.1981
-98.0972
-97.983
-97.8927
-97.7614
-97.6612
-97.5204
-97.8019
-97.6345
-98.9184
-96.3583
-96.3833
-96.3652
-96.4221
-96.3688
-96.4189
-96.6167
-96.4485
-96.421
-96.5256
-96.9786
-96.7292
-96.6009
-96.5882
-96.7283
-97.4365
-97.2374
-97.0196
-96.8574
-96.8637
-97.0127
-97.917
-97.6838
-97.4208
-97.1602
-97.0431
-97.1115
-97.2524
-98.24
-98.1516
-97.9701
-97.8053
-97.7682
-97.6853
-97.6675
-97.6392
-98.3805
-98.2845
-98.2261
-98.1284
-98.0556
-97.9313
-97.8509
-97.8006
-97.7157
-98.6321
-98.4734
-98.378
-98.294
-98.2065
-98.1187
-98.0121
-97.9381
-97.8421
-97.8054
-97.7394
-98.7089
-98.5869
-98.4562
-98.3493
-98.2398
-98.1575
-98.0514
-97.9603
-97.9025
-97.8129
-97.7961
-97.741
-98.8085
-98.6821
-98.5468
-98.4171
-98.3034
-98.1867
-98.0981
-98.0008
-97.9185
-97.8615
-97.7898
-97.7793
-97.7403
-99.0942
-98.9312
-98.7645
-98.6489
-98.5003
-98.3753
-98.2593
-98.1474
-98.0569
-97.9626
-97.889
-97.8403
-97.7799
-97.7782
-97.7417
-99.1915
-99.048
-98.8905
-98.7298
-98.6124
-98.4635
-98.3431
-98.2275
-98.1215
-98.0337
-97.9491
-97.8818
-97.8315
-97.7811
-97.7782
-97.7477
-99.2935
-99.1608
-99.0063
-98.8532
-98.6994
-98.5764
-98.4331
-98.3163
-98.2034
-98.1024
-98.017
-97.9379
-97.8757
-97.8317
-97.7841
-97.7836
-97.7552
-99.4783
-99.2749
-99.1262
-98.971
-98.8205
-98.6722
-98.5451
-98.4087
-98.2941
-98.1843
-98.0869
-98.0057
-97.9319
-97.8723
-97.8319
-97.7863
-97.7858
-97.7596
-99.5904
-99.4026
-99.2413
-99.0945
-98.9409
-98.7924
-98.6487
-98.5189
-98.3874
-98.2747
-98.1683
-98.0737
-97.9935
-97.9251
-97.8677
-97.8226
-97.7871
-97.7857
-97.7614
-99.6814
-99.5616
-99.3723
-99.2182
-99.0675
-98.9164
-98.7687
-98.6279
-98.4971
-98.3695
-98.2578
-98.154
-98.0608
-97.984
-97.9214
-97.8617
-97.8224
-97.7833
-97.7784
-97.7542
-99.8223
-99.6668
-99.5288
-99.3523
-99.1985
-99.0462
-98.896
-98.7493
-98.6101
-98.4791
-98.3539
-98.2436
-98.143
-98.0511
-97.9749
-97.9182
-97.8621
-97.8012
-97.775
-97.7838
-97.761
-99.9578
-99.8007
-99.6499
-99.5048
-99.336
-99.183
-99.0296
-98.8801
-98.7335
-98.5944
-98.4625
-98.337
-98.2248
-98.1239
-98.0329
-97.9585
-97.9056
-97.852
-97.8078
-97.7699
-97.7514
-97.7258
-100.078
-99.9373
-99.7856
-99.6357
-99.4872
-99.3238
-99.1714
-99.018
-98.8691
-98.7236
-98.5853
-98.4534
-98.3285
-98.2159
-98.1154
-98.0216
-97.9391
-97.887
-97.8389
-97.7504
-97.711
-97.767
-97.7491
-100.193
-100.067
-99.9238
-99.7762
-99.6256
-99.4762
-99.3153
-99.1635
-99.0102
-98.862
-98.717
-98.5792
-98.4473
-98.322
-98.208
-98.1071
-98.0056
-97.9229
-97.8862
-97.8718
-97.8891
-97.748
-97.7312
-97.7658
-100.307
-100.186
-100.062
-99.9163
-99.7715
-99.6196
-99.4707
-99.3108
-99.1592
-99.006
-98.8582
-98.7131
-98.5747
-98.4417
-98.3167
-98.1987
-98.0978
-97.9839
-97.8968
-97.782
-97.6571
-97.5478
-97.737
-97.6206
-99.1189
-96.3394
-96.4175
-96.3822
-96.4827
-96.3998
-96.4362
-96.6131
-96.4819
-96.465
-96.5453
-96.8259
-96.6538
-96.589
-96.6074
-96.6971
-97.1707
-96.9835
-96.8196
-96.75
-96.7939
-96.9201
-97.6277
-97.4246
-97.2184
-97.1342
-97.0646
-97.0989
-97.1777
-98.0568
-97.8631
-97.7002
-97.5047
-97.2965
-97.2783
-97.3495
-97.4045
-98.3464
-98.2065
-98.0929
-97.9382
-97.871
-97.8275
-97.7218
-97.7011
-97.5916
-98.4955
-98.3966
-98.3095
-98.2201
-98.1208
-98.0236
-97.9457
-97.8655
-97.7984
-97.7175
-98.7127
-98.6434
-98.4964
-98.3865
-98.2824
-98.1909
-98.0967
-97.9937
-97.9354
-97.8311
-97.8014
-97.741
-98.8588
-98.7217
-98.5937
-98.4657
-98.3573
-98.2478
-98.1521
-98.0481
-97.9648
-97.8945
-97.8188
-97.7976
-97.7469
-98.975
-98.8096
-98.6919
-98.5519
-98.4221
-98.3068
-98.193
-98.0996
-98.0008
-97.9213
-97.8607
-97.7979
-97.7863
-97.7472
-99.233
-99.0987
-98.9309
-98.7668
-98.6541
-98.5037
-98.379
-98.2626
-98.1528
-98.0598
-97.9675
-97.8993
-97.8404
-97.7892
-97.7828
-97.7501
-99.3204
-99.1991
-99.055
-98.8911
-98.7326
-98.6148
-98.466
-98.3457
-98.2305
-98.1265
-98.0379
-97.9534
-97.8867
-97.8356
-97.7871
-97.7836
-97.754
-99.5532
-99.295
-99.1612
-99.0077
-98.8549
-98.7002
-98.5776
-98.4351
-98.3184
-98.2057
-98.1057
-98.0196
-97.9411
-97.8809
-97.8338
-97.7871
-97.7853
-97.7583
-99.5922
-99.487
-99.2741
-99.1266
-98.9709
-98.8209
-98.6731
-98.546
-98.4101
-98.2956
-98.186
-98.0898
-98.0074
-97.9338
-97.8747
-97.8332
-97.7879
-97.7874
-97.7615
-99.7056
-99.5914
-99.4025
-99.2415
-99.0946
-98.9412
-98.7927
-98.6492
-98.5195
-98.3885
-98.2758
-98.1696
-98.0752
-97.995
-97.9261
-97.8692
-97.8247
-97.7859
-97.7842
-97.7638
-99.8619
-99.6822
-99.5619
-99.3732
-99.2183
-99.0676
-98.9165
-98.769
-98.6284
-98.4977
-98.3703
-98.2586
-98.1547
-98.062
-97.9853
-97.9213
-97.8633
-97.8234
-97.7828
-97.7781
-97.7537
-99.9843
-99.822
-99.6677
-99.5289
-99.3528
-99.1987
-99.0463
-98.8961
-98.7496
-98.6105
-98.4796
-98.3546
-98.2441
-98.1431
-98.0514
-97.9749
-97.9171
-97.8595
-97.8015
-97.7697
-97.7829
-97.7594
-100.094
-99.9576
-99.8007
-99.6502
-99.5047
-99.3363
-99.1831
-99.0298
-98.8802
-98.7339
-98.595
-98.4632
-98.338
-98.226
-98.1252
-98.0341
-97.9598
-97.9042
-97.8519
-97.8128
-97.7681
-97.7495
-97.7257
-100.204
-100.078
-99.9372
-99.7856
-99.6358
-99.4872
-99.3239
-99.1715
-99.0181
-98.8692
-98.7237
-98.5855
-98.4539
-98.3291
-98.2168
-98.1162
-98.0222
-97.9408
-97.8852
-97.8353
-97.7352
-97.7085
-97.7672
-97.7589
-100.313
-100.192
-100.067
-99.9237
-99.7762
-99.6256
-99.4762
-99.3154
-99.1636
-99.0103
-98.8621
-98.7172
-98.5793
-98.4476
-98.3224
-98.2085
-98.1073
-98.0065
-97.9237
-97.8852
-97.869
-97.8827
-97.7331
-97.7216
-97.8124
-100.307
-100.44
-100.186
-100.062
-99.9163
-99.7715
-99.6196
-99.4707
-99.3108
-99.1592
-99.0061
-98.8583
-98.7132
-98.5749
-98.442
-98.317
-98.1993
-98.0984
-97.9848
-97.9003
-97.7913
-97.6717
-97.5423
-97.6169
-97.7074
-99.1656
-96.2779
-96.3582
-96.359
-96.4526
-96.4037
-96.4359
-96.6184
-96.4816
-96.4828
-96.533
-96.7334
-96.6167
-96.5655
-96.5917
-96.659
-96.9885
-96.8596
-96.7405
-96.6977
-96.743
-96.8434
-97.3098
-97.16
-96.9982
-96.9034
-96.894
-96.9634
-97.055
-97.7227
-97.5467
-97.4136
-97.2765
-97.1945
-97.193
-97.2322
-97.2947
-98.1675
-98.0291
-97.8777
-97.7206
-97.5614
-97.5343
-97.4905
-97.5518
-97.5454
-98.4532
-98.3317
-98.2164
-98.1528
-98.045
-97.9542
-97.8584
-97.8116
-97.7425
-97.6449
-98.662
-98.5272
-98.3994
-98.3182
-98.2227
-98.1317
-98.0187
-97.9861
-97.8621
-97.8
-97.7159
-98.9403
-98.7388
-98.6525
-98.5024
-98.4025
-98.2862
-98.1889
-98.0852
-98.0019
-97.9166
-97.8292
-97.798
-97.7408
-99.0261
-98.8598
-98.7347
-98.6031
-98.4729
-98.3624
-98.2488
-98.1484
-98.0459
-97.9624
-97.8846
-97.8193
-97.7993
-97.7522
-99.1625
-98.976
-98.8081
-98.6993
-98.558
-98.4259
-98.3098
-98.1972
-98.0993
-98.0019
-97.9255
-97.8573
-97.8037
-97.7903
-97.753
-99.4122
-99.2465
-99.1134
-98.9327
-98.7733
-98.6575
-98.5072
-98.3819
-98.2652
-98.1572
-98.0626
-97.9737
-97.9039
-97.8437
-97.795
-97.7871
-97.7558
-99.5356
-99.3221
-99.1999
-99.0598
-98.8974
-98.7345
-98.6162
-98.4685
-98.3482
-98.2331
-98.1303
-98.0401
-97.9566
-97.8923
-97.8384
-97.7915
-97.7865
-97.7588
-99.6141
-99.5621
-99.2956
-99.1611
-99.008
-98.8557
-98.7015
-98.5787
-98.4369
-98.3202
-98.2078
-98.1085
-98.022
-97.9443
-97.884
-97.8355
-97.7897
-97.7869
-97.7616
-99.7428
-99.5932
-99.4415
-99.2736
-99.1268
-98.9712
-98.8213
-98.6736
-98.5468
-98.4114
-98.297
-98.1877
-98.0919
-98.0093
-97.9354
-97.8772
-97.8345
-97.7887
-97.7885
-97.7648
-99.8928
-99.7041
-99.5936
-99.4051
-99.2407
-99.0946
-98.9412
-98.7931
-98.6498
-98.5203
-98.3897
-98.277
-98.1707
-98.0767
-97.9962
-97.9272
-97.8705
-97.8258
-97.7872
-97.7862
-97.766
-100.018
-99.8604
-99.6834
-99.5622
-99.3741
-99.2184
-99.0677