/*--------------------------------*- C++ -*----------------------------------*\
  =========                 |
  \\      /  F ield         | OpenFOAM: The Open Source CFD Toolbox
   \\    /   O peration     | Website:  https://openfoam.org
    \\  /    A nd           | Version:  7
     \\/     M anipulation  |
\*---------------------------------------------------------------------------*/
FoamFile
{
    version     2.0;
    format      ascii;
    class       surfaceScalarField;
    location    "0.5";
    object      phi_0;
}
// * * * * * * * * * * * * * * * * * * * * * * * * * * * * * * * * * * * * * //

dimensions      [0 3 -1 0 0 0 0];

internalField   nonuniform List<scalar> 
54095
(
0.000364264
-2.12223e-05
0.000552524
0.000749599
-0.000114904
0.000214207
0.000400994
-5.88809e-05
0.000286805
0.000396994
-2.14397e-05
0.00017697
0.00112107
-0.000491174
-4.53243e-05
0.000491316
-0.000278456
9.57077e-05
0.000824903
-0.00012627
-8.74312e-05
0.000309566
-7.01154e-05
0.000164244
0.000414563
-5.63236e-05
-9.28742e-05
0.000404323
-2.34913e-05
-0.000203862
0.00147122
-0.000255543
0.000317008
0.00102737
0.000292963
-0.00539304
0.00122387
-0.000566118
0.000121822
0.000379375
-0.000198681
-3.29619e-05
0.000324793
-0.000240669
0.000299876
0.000847382
-0.000157705
-0.000372785
0.000127207
-5.45265e-05
8.94406e-05
0.00032597
-6.77691e-05
-0.00015028
0.000415064
-5.77235e-05
-0.000473706
0.000375962
-2.24101e-05
-0.000557414
0.0017883
-0.000352047
9.5639e-05
0.00123234
-0.000126879
0.000321912
0.00166038
-0.000265167
0.000145669
0.000409808
0.000248863
0.000305642
0.00107884
0.000545492
0.00541146
0.00129534
-0.000414988
8.88534e-05
0.000171083
-0.000111257
-7.68171e-05
0.000396368
-0.000170054
-0.000173975
0.000552357
-0.000232324
0.000237201
0.000759314
-0.000140124
-0.000616013
0.000112207
-3.71256e-05
-7.9975e-05
0.000128327
-5.07702e-05
-5.58853e-05
0.000302678
-6.4979e-05
-0.000445703
0.00038566
-5.72611e-05
-0.000824514
0.000329976
-2.15178e-05
-0.000865873
0.00206913
-0.000310555
-1.89174e-05
0.00129511
-1.08226e-05
0.000710971
0.00202405
-0.000345328
7.72947e-05
0.000177756
-5.30806e-05
0.000309104
0.00160625
-2.0326e-05
-0.000450338
0.00169689
-0.00022946
-2.64225e-05
0.000358853
-6.10116e-05
-9.7405e-05
0.000521906
0.000391798
0.000333798
0.00105288
0.000303977
0.00419197
0.00117859
-0.000343173
1.27505e-05
0.000214589
-8.70138e-05
3.9118e-05
0.000182504
-0.000128799
-0.000172249
0.000401914
-0.000166481
-0.000339055
0.000615245
-0.000232033
9.95254e-05
0.000629385
-0.00010612
-0.000809302
5.48617e-05
-1.04563e-05
3.23043e-05
0.000108812
-3.60297e-05
-0.000203527
0.000125655
-4.62731e-05
-0.000200246
0.000269797
-6.26338e-05
-0.000710127
0.000332626
-5.42735e-05
-0.00112439
0.000278421
-1.96192e-05
-0.00112467
0.00237679
-0.000267579
-9.61251e-05
0.00143067
-7.5409e-06
-0.000187621
0.00231574
-0.000276623
-3.39809e-05
0.000110257
0.000130353
5.83969e-05
0.00184142
1.55482e-06
0.00012892
0.00198755
-0.000285298
7.19367e-05
0.000426729
-0.000123207
9.83153e-05
0.00045746
6.80105e-05
0.000285213
0.00135514
-0.000185438
-0.000796623
0.00154377
-0.000178635
-0.000212968
0.00024091
-5.10265e-05
-0.000122267
0.00041618
-4.94159e-06
6.56586e-05
0.00065444
0.000310803
7.44462e-05
0.00105089
0.000172819
0.00324034
0.000977684
-0.000273882
-6.16664e-05
2.6119e-05
-1.98141e-06
6.06894e-05
0.000211326
-9.03854e-05
-0.00010181
0.000177061
-0.000114497
-0.000275639
0.000359246
-0.000171176
-0.000489361
0.000595519
-0.000169326
-0.000100161
0.00048917
-7.86502e-05
-0.000941401
1.87592e-05
5.92865e-07
1.05776e-05
5.91192e-05
-1.00349e-05
-5.28097e-05
0.000102598
-3.34612e-05
-0.000318937
0.000120121
-4.23654e-05
-0.000340636
0.000237241
-5.88468e-05
-0.000942795
0.000271084
-4.86658e-05
-0.00136642
0.000228191
-1.73798e-05
-0.00133549
0.00256295
-0.000359759
-0.00013942
0.00150116
-5.11272e-06
-0.000394358
0.00262705
-0.000298241
-0.000109195
8.05788e-05
0.000187176
-0.000129373
0.00187935
7.23541e-05
-0.000574524
0.00222716
-0.000332539
5.89431e-05
0.000404397
6.62385e-05
-6.31736e-05
0.000465765
0.000170991
-0.000119344
0.0015492
0.000126673
-0.000477113
0.00177172
-0.000257982
0.000101967
0.000261989
-4.95921e-05
4.19695e-05
0.000510691
-4.94644e-05
0.000121279
0.000660933
1.58447e-05
7.74363e-05
0.00117486
-0.000243167
-0.000856063
0.00127073
-0.000145407
-0.000360608
-1.14316e-05
7.51814e-05
-2.10538e-05
0.000259977
-4.5263e-05
-0.000130596
0.000426776
1.51903e-06
0.000125228
0.000506477
0.000215487
-0.000115453
0.00102017
3.15713e-05
0.00251023
0.000762598
-0.000211185
-0.000123909
1.81027e-05
2.36253e-05
1.92513e-05
4.23324e-05
-3.51604e-06
-9.39314e-06
0.000190954
-8.80995e-05
-0.000216563
0.000168011
-9.29131e-05
-0.000401792
0.000298563
-0.000125046
-0.000594962
0.000538432
-0.00013534
-0.000310819
0.000362718
-5.41046e-05
-0.00102182
3.48696e-05
5.67871e-06
6.71985e-06
1.7739e-05
1.07867e-06
-1.82749e-05
6.26675e-05
-9.32161e-06
-0.000139617
9.50186e-05
-2.99419e-05
-0.000426379
0.000113119
-3.84801e-05
-0.000474121
0.00019757
-5.3734e-05
-0.0011353
0.00021128
-4.22861e-05
-0.0015528
0.000184199
-1.49205e-05
-0.00150476
0.00275247
-0.000325596
-8.39698e-05
0.00134784
-3.35894e-06
-0.000306276
0.0028621
-0.000284315
-9.0157e-05
7.93105e-05
0.000197618
2.55308e-05
0.0018996
5.68382e-05
-0.000769694
0.002488
-0.000324104
-4.59267e-05
0.000284617
0.0002814
-9.596e-05
0.000468567
0.000215209
-0.00027503
0.00126451
-2.51693e-06
-0.000619851
0.0020058
-0.00031059
0.000135454
0.000315169
8.57061e-05
3.32206e-05
0.000618157
5.05246e-05
-5.01731e-05
0.000453202
0.000296829
-8.17685e-05
0.00119525
7.93338e-06
-0.00076341
0.00147055
-0.000233291
0.000135439
5.09324e-05
8.9893e-05
6.29843e-05
0.000331603
-3.59998e-05
-4.31213e-05
0.000561085
3.53116e-05
-3.24967e-05
0.000362518
-6.35804e-05
4.18084e-05
0.00102393
-0.000242976
-0.000762253
0.00097484
-0.000201325
-0.000371524
3.43721e-05
8.28852e-05
2.16941e-05
2.00007e-05
7.19086e-05
-0.000115894
0.000237276
-4.99405e-05
-0.000125458
0.000363891
-3.96227e-05
0.000184458
0.000256418
0.000114035
-0.000155772
0.00098356
-2.82564e-05
0.00188218
0.000578684
-0.00018878
-0.000151094
3.8622e-05
4.77045e-05
7.00304e-06
2.26735e-05
2.19998e-05
-1.11992e-05
5.67329e-05
-4.50671e-06
-8.70512e-05
0.000164764
-8.08186e-05
-0.000298403
0.000149136
-8.02918e-05
-0.000482564
0.000206437
-9.66511e-05
-0.000642518
0.000432473
-0.000108599
-0.000477518
0.000260044
-3.43078e-05
-0.00106336
2.39838e-05
1.73922e-05
8.32807e-07
3.44272e-05
6.20859e-06
-3.28372e-05
1.82976e-05
1.91219e-06
-4.78064e-05
6.26809e-05
-8.4311e-06
-0.000223808
8.60395e-05
-2.5961e-05
-0.000524938
0.000104657
-3.44918e-05
-0.00059802
0.000157131
-4.82484e-05
-0.00128647
0.000159924
-3.5848e-05
-0.00169179
0.000149003
-1.27629e-05
-0.001641
0.00288238
-0.000134945
-5.96479e-05
0.00095004
-9.29489e-06
0.000256276
0.00306809
-0.000305954
1.59966e-05
0.000164994
0.000148225
6.97262e-05
0.0019061
1.84699e-05
-0.000615552
0.00261118
-0.000244293
3.09538e-05
0.000322019
0.000304547
-4.06136e-05
0.000398862
0.000272821
-0.000120747
0.000887546
-6.31446e-05
-0.000653691
0.00219181
-0.000232797
8.64942e-07
0.000370799
0.000262916
-1.25739e-05
0.00061151
0.000201854
-7.59583e-05
0.000162303
0.000250992
-0.000237639
0.000763021
-8.74841e-05
-0.000410733
0.00166123
-0.000232361
0.00017713
0.000166859
9.8831e-05
0.000182278
0.000445999
2.81309e-06
-3.34641e-05
0.000663112
5.67878e-05
8.78411e-05
7.35778e-05
0.000212929
2.17588e-06
0.00089828
-3.26519e-05
-0.000838403
0.00115715
-0.000189304
0.000142428
6.02601e-05
0.000124667
3.76021e-05
0.000120782
8.89643e-05
-0.000162761
0.000322545
9.3324e-07
-9.40121e-05
0.000426425
-1.0942e-05
-0.000147669
2.08551e-05
-9.30577e-05
0.000127453
0.000888776
-0.000198359
-0.000670435
0.000741392
-0.000250202
-0.000284031
4.64331e-05
0.000116714
2.93541e-05
5.82052e-05
7.70318e-05
-1.89608e-05
2.30063e-05
6.66249e-05
-0.000198733
0.000178141
-5.08189e-05
-0.000127638
0.000281321
-5.14259e-05
0.000217734
2.44787e-05
5.40393e-05
-5.61094e-05
0.000842751
-2.9214e-05
0.00131233
0.00043086
-0.000176898
-0.000145013
2.99151e-05
7.48184e-05
4.54583e-06
4.36555e-05
4.65337e-05
-2.67591e-05
2.04409e-05
2.44227e-05
-4.22719e-05
5.76933e-05
-3.48998e-06
-0.000159392
0.000137767
-7.35247e-05
-0.000356897
0.000128501
-6.52048e-05
-0.000537854
0.000121677
-7.69479e-05
-0.000638714
0.000322465
-8.53859e-05
-0.000588981
0.000185024
-2.10282e-05
-0.00107835
1.90871e-05
2.46595e-05
6.83621e-07
2.35964e-05
1.81339e-05
-3.46889e-05
3.21242e-05
7.09249e-06
-7.01417e-05
1.92021e-05
2.94464e-06
-7.83843e-05
5.90564e-05
-7.14009e-06
-0.000301686
7.64713e-05
-2.20167e-05
-0.000613884
9.59689e-05
-3.09679e-05
-0.00071127
0.00012187
-4.31615e-05
-0.00140102
0.000121343
-3.01518e-05
-0.00179575
0.000121899
-1.12048e-05
-0.0017517
-0.000148022
4.2047e-05
0.000693541
0.00041716
0.000310533
0.00328959
-0.000277404
-3.74661e-06
0.000454439
1.97681e-05
0.000256558
0.00191623
4.43183e-05
-0.000104126
0.00278405
-0.00028109
0.000124217
0.000481811
0.000194536
-6.9898e-05
0.000392143
0.000250561
-0.000155646
0.000660648
-0.000106156
-0.000526791
0.00228295
-0.000190084
0.000129895
0.000447285
0.000308367
-0.000177244
0.000549576
0.000363456
-6.9314e-05
7.70485e-05
0.000173303
-0.00027194
0.000313078
-0.00012254
-0.000314005
0.00178785
-0.000174109
4.83617e-05
0.000258649
0.000227976
-3.96525e-05
0.000540214
0.000190804
-9.57387e-05
0.000517304
0.000270215
5.06263e-05
-0.000131611
0.000180569
-0.000300504
0.000491039
-0.000104885
-0.000130968
0.0013051
-0.000190396
0.000219576
4.45051e-05
0.000167972
-9.08813e-06
0.00028678
9.51538e-05
-7.60609e-05
0.000422049
7.21471e-06
-8.33952e-05
0.000420097
0.000110487
0.000196611
-0.000149792
0.000181167
-4.09956e-05
0.000654575
-5.04722e-05
-0.000743033
0.000902132
-0.000130398
0.000112086
4.05584e-05
0.000177754
1.00869e-05
0.000112116
0.000128927
-5.62714e-05
9.78011e-05
0.000101808
-0.000338431
0.000229273
3.4343e-05
-0.000190429
0.000253772
-1.3117e-06
-0.000211866
-0.000145914
-3.89752e-05
0.000138461
0.000662081
-0.000147357
-0.000592609
0.000508272
-0.000220089
-0.000141355
3.68019e-05
0.000155907
2.544e-05
7.52577e-05
0.000112277
-3.74936e-05
4.46825e-05
8.33778e-05
-5.99552e-05
2.38332e-06
6.96017e-05
-0.000263843
0.000119898
-3.85412e-05
-0.000122655
0.000206671
-4.56425e-05
0.000239246
-9.77797e-05
6.30411e-05
7.10919e-05
0.000660551
-1.81683e-05
0.000815517
0.00030926
-0.000171433
-9.78168e-05
2.26869e-05
9.82934e-05
3.90396e-06
3.49696e-05
7.36698e-05
-3.39635e-05
3.81631e-05
4.86596e-05
-5.70349e-05
1.04321e-05
2.91314e-05
-6.61233e-05
5.25194e-05
-3.11467e-06
-0.000223265
0.000113087
-6.5533e-05
-0.000393185
0.000107665
-5.50676e-05
-0.000571431
6.6928e-05
-6.78695e-05
-0.000601289
0.000216527
-6.45399e-05
-0.000640653
0.000131106
-1.0492e-05
-0.00107707
1.42981e-05
3.24557e-05
8.10601e-08
1.89645e-05
2.5021e-05
-2.5168e-05
2.24694e-05
1.86793e-05
-6.87451e-05
2.92319e-05
8.37854e-06
-0.000104807
1.90171e-05
4.43233e-06
-0.000108974
5.40543e-05
-5.59851e-06
-0.000372158
6.72726e-05
-1.87807e-05
-0.000693344
8.89112e-05
-2.84281e-05
-0.000814914
9.33512e-05
-3.88271e-05
-0.0014857
9.59335e-05
-2.55489e-05
-0.00187734
0.000100165
-1.05877e-05
-0.00184127
-2.59011e-05
0.000131539
0.00353472
-0.000206199
3.11753e-06
0.000772204
0.000261349
0.00016891
0.00189988
0.000131601
-8.2131e-05
0.00290114
-0.000140766
1.99287e-05
0.000612022
7.77408e-05
-9.67267e-05
0.000685008
0.000194385
-0.000186374
0.000729336
-7.6411e-05
-0.000377493
0.00241611
-7.66171e-05
6.76705e-05
0.000412496
0.000273756
-0.000176137
0.000581796
0.000327419
-0.000178975
0.000148288
2.81643e-05
-0.000361206
0.000147658
-5.68762e-05
-0.000494579
0.00196147
-9.45678e-05
5.08426e-05
0.000228223
0.000324916
-0.00016221
0.000561917
0.000346117
-0.000181609
0.000421319
0.000268446
-6.8472e-05
-4.77296e-05
-2.86222e-05
-0.000449739
0.000198136
-1.901e-05
-0.0001762
0.00140251
-9.07287e-05
4.16815e-05
2.0981e-05
0.000277296
-7.51226e-05
0.000376935
0.000219739
-0.000158742
0.000454619
0.000250685
-0.000108779
0.000334357
0.00026016
5.67753e-05
-0.000221282
6.33061e-05
-0.000397205
0.000334908
-6.25244e-05
6.08269e-05
0.00102156
-7.58277e-05
0.000175972
-1.22008e-05
0.000236925
-3.86426e-05
0.000100804
0.000165894
-6.85158e-05
0.000216875
0.000112748
-0.000300668
0.000290601
0.000100833
-0.000135069
0.00026933
0.000187892
0.000174327
-0.000135273
0.000121536
-0.000223645
0.000315146
-4.7792e-05
-0.000478705
0.000631577
-5.82157e-05
4.69969e-05
1.79321e-06
0.000227401
-1.68355e-05
9.50751e-05
0.000181962
-6.27662e-05
7.26825e-05
0.000134558
-0.000117022
2.61248e-05
0.000109099
-0.000436928
0.000123317
6.34945e-05
-0.000258654
0.000154536
5.7516e-05
-0.000256222
-0.000185428
2.00913e-05
5.86609e-05
0.000425119
-0.00010392
-0.000473346
0.000341412
-0.000155992
-1.75143e-05
1.9794e-05
0.000193198
1.18738e-05
6.17661e-05
0.000154342
-4.34215e-05
5.27035e-05
0.00011771
-8.63663e-05
9.24488e-06
9.3414e-05
-8.25802e-05
-3.25197e-05
7.41836e-05
-0.000291529
7.76958e-05
-2.00456e-05
-0.000112861
0.00013261
-1.60893e-05
0.000293432
-0.000112667
8.70002e-05
0.000145518
0.00043902
-9.72185e-06
0.000431313
0.000205174
-0.000160807
-1.10779e-05
1.43642e-05
0.000120346
1.67653e-06
2.7845e-05
9.7144e-05
-2.84507e-05
2.94596e-05
7.55944e-05
-6.78886e-05
2.31457e-05
5.27902e-05
-7.46075e-05
7.95909e-07
3.42107e-05
-8.52275e-05
4.33811e-05
-1.70711e-06
-0.000276418
8.8968e-05
-5.57584e-05
-0.000414189
9.2872e-05
-5.21696e-05
-0.000591091
3.78704e-05
-5.3071e-05
-0.000557277
0.00013155
-4.66241e-05
-0.000640138
8.79113e-05
-7.85016e-06
-0.00105696
1.03713e-05
3.98569e-05
-1.29434e-06
1.42991e-05
3.26668e-05
-2.18638e-05
1.7846e-05
2.54099e-05
-4.97446e-05
2.01536e-05
1.93767e-05
-9.98968e-05
2.56924e-05
9.90557e-06
-0.000135973
1.7979e-05
6.24474e-06
-0.000138796
4.85849e-05
-4.03122e-06
-0.000435493
5.90248e-05
-1.65507e-05
-0.000764246
7.8456e-05
-2.72163e-05
-0.000904981
6.99226e-05
-3.52587e-05
-0.00154591
8.07932e-05
-2.26303e-05
-0.00194609
8.33129e-05
-1.01077e-05
-0.00191448
0.00380198
-0.000219463
2.0535e-05
-0.000127897
-0.000170606
0.00187246
0.000145394
-0.00019263
0.00314868
-0.000170635
-7.37889e-05
0.00063871
0.000106229
-2.10573e-05
0.000992419
0.00018665
-0.00019355
0.000810159
9.58172e-05
-0.000399538
0.00251667
-4.48873e-05
-3.57387e-05
0.000174451
0.000233752
-0.000110777
0.000713984
0.000151075
-0.000185605
0.000440372
-8.00861e-06
-0.00054686
0.000245105
1.4257e-05
-0.000565814
0.00202272
5.86926e-05
-5.2278e-05
8.6298e-05
0.000363513
-0.000108866
0.000537352
0.00033093
-0.000155083
0.000430449
0.000153806
-0.000313747
1.99132e-05
-4.30317e-05
-0.000442693
0.000120917
9.08869e-06
-0.000521017
0.00151815
-2.56197e-05
-3.91718e-05
-1.10087e-05
0.00036611
-9.40364e-05
0.000348943
0.000343292
-0.000131393
0.000365349
0.000285378
-0.000109272
0.000286441
0.000119611
-0.00016879
-0.000180919
-2.5752e-05
-0.000483359
0.000130903
5.56831e-05
-0.000118606
0.00110242
-5.02842e-05
1.11138e-05
-5.82053e-05
0.00034548
-7.6713e-05
4.8488e-05
0.000279728
-8.27963e-05
0.000205099
0.000238969
-0.00013525
0.000229685
0.000249924
-3.76273e-05
0.000250337
0.000150162
-1.1087e-05
-0.000241777
3.00478e-05
-0.000383274
8.48521e-05
4.9651e-05
0.000165642
0.000743994
-2.01179e-05
8.36734e-05
-6.94496e-05
0.000311201
-4.08007e-05
3.98912e-05
0.000229445
-4.70094e-05
3.65788e-05
0.000172058
-9.1723e-05
3.62962e-05
0.000134053
-0.000344059
0.000114952
0.000168375
-0.000107188
0.000116141
0.000164632
0.000169626
-0.00011951
3.01077e-05
-0.000367462
0.000110317
1.8021e-05
-0.00024014
0.000387965
2.9286e-06
-2.48456e-06
-3.24052e-05
0.000273644
-2.79699e-05
3.92481e-05
0.000229152
-4.15067e-05
4.30817e-05
0.000180739
-9.93253e-05
1.87538e-05
0.000134494
-0.000151927
-6.91352e-05
9.73955e-05
-0.000434213
3.13764e-05
0.000120155
-0.000274974
4.16829e-05
8.86689e-05
-0.000233873
-0.00016428
4.26362e-05
-3.62828e-05
0.000210753
-6.07997e-05
-0.000340271
0.000198297
-7.80312e-05
6.73935e-05
1.33497e-07
0.000227944
-7.39523e-07
4.15281e-05
0.000193894
-4.13606e-05
3.90098e-05
0.000156951
-9.22128e-05
1.12317e-05
0.000126387
-0.000107425
-3.25776e-05
0.000100821
-7.58437e-05
-2.21041e-05
7.21879e-05
-0.000318277
4.00165e-05
1.45882e-06
-8.14571e-05
9.37266e-05
1.97507e-05
0.000359826
-7.37627e-05
9.20166e-05
0.000155413
0.000229095
-3.05479e-05
0.00020351
0.000140094
-0.000138399
7.51386e-05
7.50435e-06
0.000140897
-1.2398e-06
1.94605e-05
0.000119406
-2.57467e-05
2.22499e-05
9.88775e-05
-5.61377e-05
1.43353e-05
7.895e-05
-8.82302e-05
9.11669e-06
5.72586e-05
-8.10797e-05
-4.75728e-06
3.81715e-05
-0.00010237
3.1596e-05
1.45601e-06
-0.000316643
6.32927e-05
-4.58127e-05
-0.000424814
7.41794e-05
-4.36312e-05
-0.000596255
1.15743e-05
-4.42637e-05
-0.000501289
6.64532e-05
-3.49706e-05
-0.000598678
5.49745e-05
-1.03718e-05
-0.00101825
6.8366e-06
4.66741e-05
-2.00664e-06
1.04077e-05
3.99547e-05
-1.899e-05
1.33702e-05
3.29279e-05
-4.2752e-05
1.58515e-05
2.59627e-05
-7.21821e-05
1.76055e-05
2.01474e-05
-0.000127744
2.23463e-05
1.17192e-05
-0.000163794
1.64143e-05
8.6204e-06
-0.000167862
4.29889e-05
-2.57289e-06
-0.00049246
5.16481e-05
-1.56451e-05
-0.000827465
7.09345e-05
-2.65252e-05
-0.000984649
5.36678e-05
-3.24618e-05
-0.00158975
6.97286e-05
-2.05759e-05
-0.00200535
6.89781e-05
-8.86522e-06
-0.00197459
0.004109
-0.000226239
-0.000142663
0.00214174
-0.000242128
-0.000225469
0.00345971
-0.00014188
-0.000148613
0.000107395
-0.000117368
0.000955157
8.17812e-05
-6.97316e-05
0.00101154
-8.88068e-06
-0.000555765
0.00271935
-9.71645e-05
-0.000179305
-0.000116543
0.000300731
-0.000111378
0.0007976
0.000112018
-3.00413e-05
0.000660101
1.83553e-05
-0.000335817
0.000397932
6.77551e-05
-0.000665007
0.00205805
-6.00844e-05
-1.09814e-05
-0.00015107
0.00037825
-9.43009e-05
0.000315318
0.000262183
1.4826e-07
0.000481661
4.68869e-05
-0.000291713
0.000147362
-4.43118e-05
-0.00061574
0.000123211
9.63582e-05
-0.000605774
0.00154379
-2.86296e-05
-4.92904e-05
-0.000123069
0.000435762
-5.35639e-05
0.000193279
0.000388133
-1.04053e-05
0.000204601
0.000246995
-8.7523e-05
0.000205541
0.000114173
-0.000390052
-0.000154059
2.0634e-06
-0.000462527
1.96481e-05
3.19745e-05
-0.000467356
0.00112459
-3.84765e-05
-2.28707e-05
-0.000127374
0.000444438
-6.8454e-05
6.74025e-06
0.00037936
-8.83567e-05
8.0397e-05
0.000312917
-3.42293e-05
5.31426e-05
0.000232838
-4.59557e-05
8.15793e-05
8.85127e-05
-0.000114297
-0.000271695
2.29321e-05
-0.000420691
-1.22658e-05
8.85089e-05
-0.000160281
0.00079708
-1.77062e-05
-2.42665e-05
-0.000124421
0.000423662
-5.33566e-05
-3.01656e-05
0.000343214
-7.01419e-05
-1.42828e-05
0.000288401
-8.13663e-05
-2.2295e-05
0.000233963
-6.06978e-05
-2.19116e-05
0.000215847
3.3551e-05
1.57399e-05
9.41908e-05
2.51711e-05
-0.000241968
2.92534e-05
-0.000240419
-1.12984e-05
0.000102644
0.000164496
0.000439495
1.18323e-05
2.03107e-05
-0.000101923
0.000379946
-3.61009e-05
-3.99447e-05
0.000304434
-3.65974e-05
-2.42727e-05
0.000240023
-4.76199e-05
-2.93321e-05
0.000179417
-8.90005e-05
-8.54105e-05
0.000163142
-0.00032255
-2.88105e-05
0.000169697
-5.20662e-05
-1.06166e-05
9.7252e-05
0.000154781
-0.00015555
1.44194e-05
-0.000372589
-8.34152e-06
7.01187e-05
-8.82355e-05
0.000183287
4.49152e-05
-3.23895e-05
-5.83007e-05
0.00032019
-2.95444e-05
-6.74351e-06
0.000272927
-2.34739e-05
-1.11917e-06
0.000227662
-4.83006e-05
-1.27159e-05
0.000178512
-0.000119395
-5.95298e-05
0.000139567
-0.000167146
-7.04468e-05
0.000131371
-0.000397086
-4.94687e-05
0.000128423
-0.000225243
-2.40005e-05
9.96961e-05
-0.000173205
-0.000108544
5.18554e-05
-0.000114156
4.92492e-05
-1.02804e-05
-0.000228176
0.000113468
-1.28227e-05
0.000106842
-1.54158e-05
0.000258746
-8.37996e-06
1.69198e-05
0.000229271
-3.35765e-05
2.1146e-05
0.000193784
-7.70893e-05
-1.88095e-06
0.000161829
-0.000111439
-3.0463e-05
0.000133483
-0.000100508
-3.97443e-05
0.000104268
-7.29365e-05
-5.25871e-05
7.45864e-05
-0.000307222
5.66115e-06
2.65638e-05
-3.06387e-05
7.63854e-05
3.59234e-05
0.000413714
-4.84418e-05
5.44132e-05
0.000130468
8.82096e-05
-3.28052e-05
7.61599e-05
7.8863e-05
-9.32413e-05
0.000144491
-6.83997e-07
0.000159862
-3.46114e-06
1.0364e-05
0.000140165
-2.19556e-05
1.35609e-05
0.000120588
-4.76476e-05
1.03531e-05
0.000101655
-7.33441e-05
1.2905e-06
8.22948e-05
-9.69515e-05
1.36232e-06
6.09299e-05
-8.28542e-05
-8.9904e-06
4.18211e-05
-0.00011733
2.16812e-05
4.94691e-06
-0.000346095
4.23736e-05
-3.58182e-05
-0.000423353
6.18476e-05
-3.93594e-05
-0.000592072
-7.13856e-06
-3.30392e-05
-0.000442414
1.81744e-05
-2.75122e-05
-0.000529983
2.95238e-05
-9.1223e-06
-0.000969678
3.86904e-06
5.29858e-05
-2.85185e-06
6.89951e-06
4.66726e-05
-1.56241e-05
9.65166e-06
4.00979e-05
-3.58117e-05
1.16622e-05
3.3313e-05
-6.17644e-05
1.34875e-05
2.66933e-05
-9.22155e-05
1.52079e-05
2.11229e-05
-0.000152356
1.88027e-05
1.41059e-05
-0.000188082
1.43629e-05
1.03721e-05
-0.00019517
3.75419e-05
-1.31241e-06
-0.000544334
4.46605e-05
-1.52362e-05
-0.000883415
6.23044e-05
-2.52884e-05
-0.00105413
4.20353e-05
-3.02675e-05
-0.00162209
5.50971e-05
-1.8478e-05
-0.00205083
5.74003e-05
-7.6904e-06
-0.0020243
-0.000144275
-0.000210104
0.00270492
-0.000323159
-0.000356462
0.0037431
-0.000184005
-0.000242049
0.000870532
-0.000270772
-2.55983e-05
0.00157773
-0.000287249
-0.000646287
0.00293592
-9.17662e-05
-0.000273419
0.000279157
-0.000154049
0.000559107
0.000136166
6.67402e-05
0.000638635
-8.93179e-05
3.21715e-05
0.000724431
-0.000176305
-0.000803123
0.00220247
-0.000102814
-0.000220908
-0.000415826
0.000463348
-0.000112846
-2.20629e-05
0.000295828
4.21931e-05
0.000428741
9.07942e-05
-4.95601e-05
0.000342878
-8.05606e-05
-0.000383017
0.000187014
8.82871e-06
-0.000797723
0.00151922
4.46338e-05
-3.10427e-05
-0.000336268
0.000525831
-7.26066e-05
-8.20556e-05
0.000401032
4.21843e-05
1.11439e-06
0.00020255
4.7971e-05
0.000156841
7.90424e-05
-0.000366367
-6.21243e-05
-1.8495e-05
-0.000592822
-1.40124e-05
7.88776e-05
-0.00067962
0.00106866
-1.47562e-05
2.13989e-05
-0.000260797
0.000540986
-4.38078e-05
-8.70465e-05
0.000437144
-8.7885e-06
-6.68518e-05
0.000335245
4.85933e-05
-5.49973e-05
0.000225348
-9.0558e-05
-0.000125412
0.000129352
-0.00031035
-0.000315403
2.39142e-05
-0.000410758
-9.67435e-05
6.1766e-05
-0.000483121
0.00077561
-5.60107e-05
5.46106e-05
-0.000208218
0.000527358
-4.78773e-05
-0.000100081
0.000444483
-6.36606e-05
-8.807e-05
0.000363177
-6.48304e-05
-0.000114243
0.000292085
-1.52744e-06
-0.000164046
0.000218925
-3.42341e-05
-0.000128954
0.000119084
-6.57549e-05
-0.000301405
7.19542e-05
-0.000344699
-5.84604e-05
0.000104776
-0.000235602
0.000477712
-4.82846e-05
-1.41985e-05
-0.000156993
0.00049434
-3.57907e-05
-0.000107902
0.000420055
-6.22408e-05
-0.000102482
0.000356357
-5.9889e-05
-0.000128735
0.000290964
-3.89641e-05
-0.000158759
0.000239192
-1.06935e-05
-0.000178296
0.000203152
7.40754e-05
-0.000119551
0.000104065
5.92938e-05
-0.00024162
7.96827e-05
-0.000131388
-8.21724e-05
0.000113592
0.000136566
0.00017876
1.40073e-05
1.08299e-05
-0.000122388
0.000441011
-2.93689e-05
-8.70228e-05
0.000374983
-2.63701e-05
-8.37974e-05
0.000312945
-2.68403e-05
-9.21657e-05
0.000252915
-4.16686e-05
-0.000112512
0.000206132
-7.90083e-05
-0.00016184
0.000183928
-0.000245388
-0.000143269
0.000173195
-3.4208e-05
-0.00011669
7.7599e-05
0.000184291
-0.000155578
3.37922e-05
-0.000289229
-5.31865e-05
8.57198e-05
-2.66045e-05
4.90279e-05
6.23125e-05
-3.02622e-05
-7.38082e-05
0.000363642
-2.60155e-05
-4.34725e-05
0.000318422
-1.46471e-05
-3.49256e-05
0.000273213
-1.29533e-05
-4.5658e-05
0.000227349
-5.33609e-05
-7.16322e-05
0.000184874
-0.000123533
-7.82793e-05
0.000158478
-0.000155719
-0.000125129
0.000141717
-0.000337838
-9.57354e-05
0.00013613
-0.00016028
-6.13286e-05
0.000123365
-0.000107001
-7.16715e-05
5.4535e-05
-0.000155742
-3.25756e-05
3.76824e-05
-0.000157896
9.43157e-06
4.38999e-05
0.000132374
-2.84446e-05
0.000285862
-1.21212e-05
-4.74227e-06
0.000259228
-2.32307e-05
-4.77875e-08
0.000227605
-5.37895e-05
-1.21282e-05
0.000195686
-8.84648e-05
-3.59168e-05
0.000167628
-0.000108376
-4.5841e-05
0.00014147
-9.05071e-05
-5.28427e-05
0.000112134
-6.66322e-05
-5.7321e-05
8.27165e-05
-0.000284372
-1.61676e-05
4.71902e-05
1.66357e-05
4.37143e-05
4.53717e-05
0.000440889
-5.16168e-05
3.71529e-05
0.000104988
2.28355e-06
-2.09706e-05
1.978e-05
3.83002e-05
-5.18935e-05
0.000187609
-7.76946e-06
0.00017719
-5.44493e-06
2.10947e-06
0.00015921
-1.77157e-05
6.20298e-06
0.000140728
-3.8647e-05
5.48879e-06
0.000122449
-6.22682e-05
-1.29598e-06
0.000104378
-8.06438e-05
-5.33511e-06
8.51825e-05
-0.000100661
-3.8022e-06
6.46171e-05
-8.30454e-05
-1.37458e-05
4.46875e-05
-0.000128962
1.19707e-05
8.83887e-06
-0.000365181
2.46489e-05
-2.642e-05
-0.000416281
3.94129e-05
-3.15112e-05
-0.000570709
-1.60424e-05
-2.93103e-05
-0.000382538
-1.23739e-05
-2.45141e-05
-0.00044712
5.79639e-07
-8.75819e-06
-0.000904099
1.62616e-06
5.87233e-05
-3.47768e-06
3.93632e-06
5.29053e-05
-1.30209e-05
6.31083e-06
4.67139e-05
-2.85509e-05
8.27723e-06
4.03235e-05
-5.10994e-05
9.60352e-06
3.38333e-05
-7.85079e-05
1.13062e-05
2.75637e-05
-0.000109963
1.30704e-05
2.22155e-05
-0.000173536
1.6034e-05
1.58379e-05
-0.000209582
1.21676e-05
1.20123e-05
-0.000220662
3.2529e-05
-2.46146e-07
-0.000591853
3.72076e-05
-1.4474e-05
-0.000931437
5.39367e-05
-2.35259e-05
-0.0011148
3.27901e-05
-2.80234e-05
-0.00164534
4.06029e-05
-1.70903e-05
-0.00208203
4.93306e-05
-8.56029e-06
-0.00206507
-0.000354448
-0.000238115
0.00411731
-0.000328877
-0.000255437
0.00106725
-0.000380959
-0.000258074
0.00214471
-0.000390047
-0.000717402
0.00322114
-0.000169528
-0.000357746
0.000204912
7.79427e-05
-0.000202789
0.000739604
-0.000308397
-0.000105419
0.00122176
-0.000248261
-0.000987117
0.00245985
-1.24139e-05
-0.000518383
0.000507177
-0.000158895
-0.000290692
0.000315075
-6.43285e-05
0.000227247
0.000141034
3.78824e-05
0.000510904
-0.000207455
-0.000104705
0.000415488
-0.000160279
-0.000974132
0.0014833
0.000166429
-0.000351421
-0.000536739
0.000621776
-8.87169e-05
-0.000382801
0.000454879
2.88483e-05
-0.000192737
0.000268518
5.83206e-05
6.04844e-05
7.25279e-05
-0.000106291
7.97629e-05
-8.35464e-05
-0.000432529
2.15051e-05
7.78577e-05
-0.000866465
0.000810421
0.000263455
-3.62606e-05
-0.000420168
0.000649385
-6.99337e-05
-0.000299287
0.000525218
1.54479e-05
-0.00029341
0.000369646
0.000101646
-0.000166053
0.000220824
1.72451e-05
-0.000228316
0.00011032
-0.000392279
-0.000288262
-4.3993e-06
-0.000536686
-0.000154165
0.000114807
-0.000751761
0.000532153
0.000103907
0.000160949
-0.000328735
0.000637908
-4.50857e-05
-0.000230378
0.000534103
-1.04705e-05
-0.000224025
0.000438633
2.37786e-05
-0.000199242
0.00033964
1.93001e-05
-0.000220643
0.000231097
-0.000135705
-0.00028461
0.000170568
-0.000301347
-0.000397833
5.33108e-05
-0.000305875
-0.00020957
9.89731e-05
-0.000486995
0.000358096
2.14308e-05
0.000152795
-0.000239897
0.000602497
-3.68411e-05
-0.000190615
0.000523886
-4.4568e-05
-0.000193141
0.000451496
-6.13199e-05
-0.000232859
0.000379904
-4.85252e-05
-0.000226899
0.000316202
-3.06636e-05
-0.000285904
0.000224148
-3.16893e-05
-0.000221189
0.0001929
-8.5063e-05
-0.000301717
9.54795e-05
-0.000275305
-0.000138695
0.000105984
-0.000333348
4.73313e-05
4.50362e-05
7.21942e-05
-0.000181265
0.000559138
-2.77375e-05
-0.000147277
0.000491728
-4.72088e-05
-0.000157754
0.000429045
-6.09714e-05
-0.000183312
0.000371269
-4.90484e-05
-0.000193752
0.000315689
-3.42209e-05
-0.000241454
0.000265347
6.72563e-06
-0.000219148
0.00021282
4.11992e-05
-0.000186174
0.000149412
5.90482e-05
-0.000236969
0.000111343
-4.77477e-05
-9.79005e-05
0.000113781
8.15064e-05
-2.0916e-05
2.78971e-05
5.28765e-05
-0.000124848
0.000490392
-2.35815e-05
-0.000114925
0.000437373
-2.03069e-05
-0.000113097
0.000379817
-1.50703e-05
-0.000127266
0.000325494
-1.78106e-05
-0.000135877
0.000271525
-4.28179e-05
-0.000142235
0.000238232
-6.93575e-05
-0.000195576
0.000206047
-0.000207794
-0.000197467
0.00017265
-2.75268e-05
-0.000167576
8.81332e-05
0.000236197
-0.000137512
6.55963e-05
-0.000203265
-8.38068e-05
8.60322e-05
9.06792e-07
-7.88851e-05
6.49949e-05
-6.94058e-06
-8.17207e-05
0.000403972
-2.16557e-05
-6.3859e-05
0.00036146
-9.93672e-06
-6.07689e-05
0.000319052
2.35612e-07
-6.85648e-05
0.000274786
-3.95356e-06
-8.34261e-05
0.000232556
-5.35332e-05
-9.0445e-05
0.000196559
-0.00011701
-9.98893e-05
0.000172173
-0.000139128
-0.000133247
0.000158577
-0.000284358
-0.000106528
0.000152541
-9.90954e-05
-7.92171e-05
0.000128542
-5.8077e-05
-7.84352e-05
6.33339e-05
-0.000154575
-5.97896e-05
6.85677e-05
-0.00012049
-5.33601e-05
6.00627e-05
0.000163971
-3.63177e-05
0.000310355
-1.2556e-05
-2.14853e-05
0.000285373
-1.4671e-05
-1.65971e-05
0.000257296
-3.01209e-05
-2.32325e-05
0.000227203
-5.65856e-05
-3.90559e-05
0.000199285
-8.23612e-05
-5.0545e-05
0.000174507
-9.62034e-05
-5.42906e-05
0.00014854
-7.64249e-05
-5.6792e-05
0.000120768
-6.16375e-05
-5.53347e-05
8.81535e-05
-0.00025803
-3.40559e-05
6.62967e-05
5.44156e-05
1.02773e-05
6.37517e-05
0.000443425
-4.29749e-05
1.53974e-05
9.55526e-05
-4.30225e-05
-3.695e-07
-1.09541e-06
1.7126e-05
-2.22454e-05
0.000193308
-1.21259e-05
0.000192627
-6.68254e-06
-5.81038e-06
0.000176534
-1.30219e-05
-1.8006e-06
0.000159245
-2.81215e-05
-7.82062e-07
0.000141681
-4.88199e-05
-5.54172e-06
0.000124279
-6.70238e-05
-8.91071e-06
0.00010661
-8.18547e-05
-9.50683e-06
8.75862e-05
-0.000101053
-7.61608e-06
6.76563e-05
-8.23641e-05
-1.7029e-05
4.68593e-05
-0.000137786
4.87959e-07
1.24816e-05
-0.000372042
9.113e-06
-1.81026e-05
-0.000401595
1.48853e-05
-2.69366e-05
-0.000534031
-2.47283e-05
-2.54627e-05
-0.000324071
-3.48259e-05
-2.22416e-05
-0.000358208
-3.12833e-05
-6.03768e-06
-0.000817448
-1.89555e-07
6.4037e-05
-2.97625e-06
1.6772e-06
5.85857e-05
-1.08353e-05
3.50457e-06
5.28603e-05
-2.26719e-05
5.28421e-06
4.68077e-05
-4.03194e-05
6.61888e-06
4.0634e-05
-6.4519e-05
7.71928e-06
3.44513e-05
-9.31148e-05
9.50976e-06
2.84908e-05
-0.000125748
1.10982e-05
2.33198e-05
-0.000192116
1.33399e-05
1.74864e-05
-0.000228396
9.95607e-06
1.33625e-05
-0.000244227
2.76814e-05
5.5599e-07
-0.000634565
3.05363e-05
-1.31741e-05