/*--------------------------------*- C++ -*----------------------------------*\
  =========                 |
  \\      /  F ield         | OpenFOAM: The Open Source CFD Toolbox
   \\    /   O peration     | Website:  https://openfoam.org
    \\  /    A nd           | Version:  7
     \\/     M anipulation  |
\*---------------------------------------------------------------------------*/
FoamFile
{
    version     2.0;
    format      ascii;
    class       volScalarField;
    location    "4.5";
    object      nut;
}
// * * * * * * * * * * * * * * * * * * * * * * * * * * * * * * * * * * * * * //

dimensions      [0 2 -1 0 0 0 0];

internalField   nonuniform List<scalar> 
18720
(
0.000601346
0.00127534
0.000499607
0.000275075
0.000372986
0.000286531
0.000549304
0.00108939
0.000890653
0.000412371
0.000169154
0.000271497
0.000164109
0.00049076
0.000389889
0.000466816
0.000694593
0.000779194
0.00116357
0.000290715
0.000455378
0.000187125
0.000313366
0.000223207
0.000222933
0.000132299
0.00069504
0.000670209
0.000735079
0.000742317
0.000313446
0.000538925
0.000944835
0.000712456
0.000213462
0.000991554
0.00104006
0.000396915
0.000571683
0.000117116
0.000478267
0.000228068
0.000339382
0.00016722
0.000243502
0.00135438
0.000523251
0.000898111
0.000559138
0.000793454
0.000608863
0.000533058
0.000600664
0.000908839
0.000396461
0.000622149
0.000645234
0.000257684
0.000282193
0.000688955
0.000798736
0.000132611
0.000438232
0.000239562
0.000187227
0.00077837
0.000220454
0.000518129
0.00014079
0.000157293
0.000302616
0.00187368
0.00185385
0.00196956
0.000857974
0.000622538
0.000845309
0.000858065
0.000814505
0.000949117
0.000617798
0.000720706
0.00070578
0.000579177
0.000634824
0.000737386
0.00137896
0.000504547
0.000386597
0.000432465
0.000303659
0.000557867
0.000887278
0.000340022
0.000425559
0.000479861
0.000153976
0.000208903
0.000927719
0.000168954
0.000744598
0.000186227
0.000144984
0.00017869
0.000302174
0.00110149
0.00174147
0.00148331
0.00152127
0.000750069
0.00133405
0.000745088
0.00100945
0.000976901
0.00123304
0.000951353
0.00119234
0.000977349
0.000594645
0.000485351
0.000991966
0.000846526
0.000850647
0.000527165
0.000554478
0.000668377
0.000985995
0.000788583
0.000506928
0.000418173
0.000207062
0.000250377
0.00040471
0.000960124
0.000157786
0.000350163
0.000414321
0.000218196
0.000101633
0.000137639
0.00101903
0.000347339
0.000881923
0.000360272
0.00017061
0.000125824
0.000284372
0.000157024
0.00109283
0.00155685
0.00235662
0.00288706
0.00115113
0.00162329
0.000837427
0.00080052
0.00126464
0.00148657
0.000686147
0.000606511
0.00176635
0.000785584
0.000768975
0.000963432
0.000936151
0.00117529
0.000572971
0.0002603
0.000661596
0.00113454
0.000500169
0.00127124
0.00086165
0.000149397
0.000215393
0.000352554
0.000112272
0.0011931
0.000689445
0.000431515
0.000166507
0.000322482
0.000158301
0.000310171
0.000729179
0.000290918
0.00031104
0.000394672
0.000251977
0.000249226
0.000173461
0.000132517
0.00100116
0.000453152
0.00090555
0.000525813
0.000248124
0.000137611
7.20867e-05
0.000191346
0.00033011
0.000593307
0.000924201
0.000995716
0.00118157
0.00151325
0.00110677
0.00160255
0.00160786
0.000947456
0.00108349
0.00113485
0.000689874
0.000849856
0.00293871
0.000887313
0.000783856
0.000594543
0.000947155
0.000476882
0.000570489
0.00100808
0.00101741
0.000961187
0.000591585
0.000288749
0.00039865
0.000205851
0.000778666
0.000855726
0.00155277
0.00145324
0.000868478
0.000370369
0.00058544
0.000409581
0.000386112
0.000710037
0.000950576
0.000758195
0.000377901
0.000208816
0.000312553
0.0004433
0.00020129
0.000245166
0.000746206
0.000483938
0.000500101
0.000308471
0.000272777
0.000218385
0.000135291
0.000193902
0.000164838
0.0008731
0.00043639
0.000747917
0.000654468
0.000209414
0.000190234
0.000186851
0.000284969
0.000184993
0.000308955
0.000336855
0.000234539
0.00103991
0.00125195
0.0020151
0.000912044
0.00246047
0.00170725
0.00111798
0.000933845
0.00231771
0.000537152
0.00116878
0.000691824
0.00107215
0.00161447
0.000926409
0.000938939
0.000654489
0.000550546
0.00097722
0.00117231
0.000764721
0.000809294
0.000769702
0.000309324
0.00014192
0.000978237
0.0011319
0.00137456
0.000945497
0.000641449
0.000605775
0.000447622
0.000494826
0.000894072
0.00139682
0.00136087
0.000644526
0.000558232
0.000446196
0.000497916
0.00036967
0.000340895
0.000491155
0.00020383
0.000427513
0.00117035
0.0004535
0.000207497
0.000348962
0.000332996
0.000369245
0.0001814
0.000462299
0.000524984
0.000701185
0.000333434
0.00053581
0.000263181
0.000161155
0.000199827
0.000223281
0.000292955
0.000113968
0.000368888
0.00038125
0.000561117
0.000637639
0.000142126
0.000216051
0.000194626
0.000309284
0.000263726
0.000162319
6.23352e-05
0.000329005
0.000642173
0.00086829
0.000568705
0.00168048
0.000321872
0.00107494
0.00126862
0.000798542
0.00082403
0.000851233
0.0018839
0.000579731
0.00120431
0.000880859
0.00115279
0.00227374
0.00144166
0.000835633
0.000456248
0.00109005
0.0014317
0.00116365
0.000680434
0.000519943
0.000415861
0.000578236
0.000729038
0.00106112
0.000696834
0.000688249
0.000744721
0.000477223
0.00053171
0.000562507
0.00104336
0.00111831
0.0011976
0.00111049
0.000324439
0.000308513
0.000438163
0.000482885
0.000510533
0.000964541
0.00042721
0.000818057
0.000951987
0.00109237
0.000401309
0.000524516
0.000728332
0.000458109
0.000405787
0.000330946
0.000347209
0.000288553
0.00121836
0.000763136
0.000107918
0.000354878
0.000322321
0.000372588
0.000157436
0.0002386
0.00100089
0.000370139
0.00097669
0.000745482
0.000752437
0.000280344
0.000209519
0.000164971
0.000251338
0.000310762
0.000277438
0.000119949
0.000800893
0.000343669
0.000455258
0.000535514
0.000208573
0.000240201
0.000169784
0.000151739
0.000485787
0.000149881
0.000100548
0.000133666
0.000339877
0.000244528
0.00069729
0.00041789
0.00135803
0.000447317
7.51077e-05
0.000632401
0.000987223
0.00057228
0.00115923
0.00175512
0.00166945
0.000334372
0.000525577
0.00126941
0.00201367
0.00123414
0.000300701
0.000866412
0.00117638
0.00158205
0.00156934
0.00100444
0.000380634
0.00180361
0.000882968
0.00106747
0.00230384
0.00151566
0.000717913
0.000453742
0.000517681
0.000494983
0.000766214
0.000860065
0.000996908
0.000387363
0.000782587
0.00073126
0.000738706
0.000373239
0.000552176
0.00050679
0.000865774
0.000822735
0.000713258
0.00104512
0.000279254
0.000865462
0.000236602
0.000663733
0.00075729
0.00040279
0.000596449
0.000598103
0.000400855
0.00114288
0.000646766
0.000362464
0.000438771
0.000619338
0.000304058
0.000506224
0.000192501
0.000573866
0.000386035
0.000319795
0.00100521
0.000356672
0.000273934
0.000263774
0.000330354
0.000310392
0.000276087
0.000395621
0.000215721
0.00107231
0.000260595
0.00098551
0.000916561
0.000597951
0.000315405
0.000160137
0.000207142
0.000248431
0.000295963
0.000298738
0.00027838
0.000127031
0.00134456
0.000140323
0.000331945
0.000577387
0.000211518
0.000220765
0.00030543
0.000380257
0.000268125
0.000269896
0.000185495
0.000161268
0.00014977
0.00055493
0.00103584
0.000528459
0.000969975
0.000529939
0.000382811
0.000563307
0.000970532
0.0015333
0.000865939
0.000811863
0.000770851
0.00145674
0.000942757
0.000579738
0.00086094
0.000540388
0.00140731
0.00105422
0.000285927
0.00110137
0.000970129
0.0019762
0.00258824
0.000746539
0.000742074
0.000395641
0.00158465
0.00166956
0.00180715
0.0012344
0.000617595
0.00100209
0.000566246
0.00079226
0.00139417
0.00128183
0.00104772
0.000925815
0.00048103
0.000326694
0.000951176
0.00065408
0.000488854
0.00091624
0.00102985
0.00127662
0.000937689
0.000833947
0.000435766
0.000384486
0.000496385
0.000588103
0.000444031
0.00141907
0.000791359
0.00144146
0.00027245
0.00035954
0.000784179
0.000622968
0.000443556
0.000595729
0.000686195
0.000424258
0.000951543
0.000524928
0.000398584
0.000472946
0.000644935
0.000322883
0.000240173
0.000533748
0.000516716
0.000449218
0.000632388
0.00043721
0.000613298
0.000298121
0.000427593
0.00020723
0.0012009
0.000448444
0.00032945
0.000237427
0.000433135
0.000249408
0.000261188
0.000369895
9.99217e-05
0.000927467
0.000439445
0.000351023
0.000538111
0.00056395
0.000408764
0.000289443
0.000173009
0.000243384
0.000307974
0.000318103
8.49811e-05
0.000317983
8.17571e-05
0.00153933
0.000543489
0.000463107
0.000596534
0.000193996
0.000156785
0.000364059
0.000440386
0.000121706
0.000150291
8.75044e-05
0.000176332
9.99921e-05
8.351e-05
0.000808356
0.00108797
0.000928922
0.00100202
0.000847592
0.00049035
0.000738341
0.000845608
0.00167862
0.000605219
0.000407843
0.000280043
0.00106673
0.00141994
0.000487449
0.000697841
0.00113613
0.00161512
0.00197742
0.00115508
0.000533283
0.000844005
0.00167185
0.00118672
0.00082777
0.00147513
0.00134359
0.00163287
0.00116779
0.00187637
0.00132283
0.00100516
0.000701705
0.00135902
0.00061525
0.00106593
0.000849374
0.00243039
0.00144017
0.000920016
0.000879762
0.00146402
0.000578764
0.000706672
0.000989534
0.00131897
0.00162508
0.000441133
0.000916257
0.000794555
0.000454374
0.00053875
0.000383269
0.000745075
0.000635992
0.00108813
0.000550192
0.000665259
0.00062196
0.000567907
0.000393738
0.000668737
0.00112351
0.00086723
0.000202726
0.000872533
0.00083499
0.000835128
0.000874469
0.00056664
0.000325067
0.000787703
0.000398802
0.000529192
0.000613847
0.000440975
0.000838103
0.000428943
0.00046744
0.000700414
0.000711285
0.000602632
0.000420963
0.000184819
0.000412707
0.000482703
0.000771772
0.000644833
0.000568811
0.000343297
0.000641607
0.000482746
0.000387066
0.00025292
0.00161036
0.000349688
0.000205774
0.000184819
0.000309423
0.000173216
0.000240867
0.000347958
0.000489826
0.000337206
0.000884598
0.00088758
0.000336026
0.000519222
0.000222987
0.000330343
0.000351578
0.000214145
0.000366655
0.000240554
0.000195061
0.00026692
0.000389575
0.000283493
8.47487e-05
0.0016226
0.000797012
0.000705805
0.000686655
0.000340076
0.000130205
0.000207386
0.000327037
0.000255967
0.000139995
0.000137576
0.000144984
0.000102645
7.85339e-05
0.000406934
0.000597915
0.000897452
0.000404034
0.000345262
0.000777786
0.000851638
0.000919705
0.00150397
0.00100484
0.000438806
0.0005442
0.000919788
0.00137678
0.00132363
0.000816531
0.00114206
0.00115344
0.00208659
0.00242153
0.00206439
0.000561963
0.000244755
0.000333408
0.00145906
0.00123906
0.00172734
0.00114174
0.00122378
0.000431408
0.00107593
0.00202604
0.000944217
0.000886849
0.00100342
0.000468684
0.00134257
0.000658621
0.00210274
0.00181859
0.000857408
0.000958765
0.000890571
0.000353344
0.000709385
0.001463
0.000916705
0.00103469
0.00165116
0.000791804
0.000595428
0.00188681
0.00039338
0.000692944
0.00128832
0.00118019
0.000934936
0.00118984
0.00148629
0.000833019
0.000882912
0.000767917
0.000871585
0.00132212
0.0010373
0.000695639
0.000638197
0.000767061
0.000743923
0.00140197
0.000275691
0.00103427
0.000647472
0.000732441
0.00030435
0.00126111
0.000879946
0.000549196
0.00049996
0.000599332
0.00045938
0.000697086
0.000251629
0.000707451
0.000420573
0.000333955
0.000802663
0.000770108
0.000308638
0.000402194
0.000531357
0.00029666
0.000665426
0.000713779
0.000301221
0.000627935
0.000531196
0.000217397
0.000343298
0.000493337
0.000420392
0.000633814
0.00060085
0.000583881
0.000456481
0.000687345
0.000518896
0.000584291
0.000259793
0.00113455
0.000294911
0.000131525
0.000311675
0.000268106
0.000180051
0.000164077
0.000395099
0.000458255
0.000445278
0.000352849
0.000660418
0.00101149
0.000204412
0.000447446
0.000405108
0.000267776
0.000314472
0.000216976
0.000398241
0.000332762
0.000284088
0.000702733
0.000432811
0.000313074
0.000400761
0.000343568
0.00156616
0.000798918
0.000794057
0.000688896
0.000385439
0.000243376
0.000177416
0.000132628
0.000373102
0.000154733
0.000134894
0.000107144
0.000172846
6.63737e-05
0.000214429
6.61641e-05
0.000368639
0.000311473
0.000641114
0.000403353
0.000454406
0.000469126
0.000634335
0.000729949
0.000894654
0.000651454
0.000536758
0.000801417
0.000509706
0.00127577
0.000900217
0.000807383
6.24614e-05
0.00138188
0.00108236
0.00139707
0.000638222
0.000327374
0.000275368
0.00109362
0.00184861
0.00184085
0.00122179
0.000876673
0.00141145
0.000701662
0.00117563
0.00109698
0.000695074
0.00157695
0.00159282
0.000483767
0.00050221
0.00129272
0.00206668
0.00158534
0.000849065
0.00160029
0.000758789
0.000481522
0.00102117
0.00079542
0.000721894
0.00113204
0.00119833
0.00110842
0.00101373
0.000515099
0.000351508
0.000748504
0.00190775
0.00155465
0.00169009
0.00150071
0.000801957
0.00152165
0.000907555
0.000824987
0.000935663
0.000776742
0.00119923
0.00119663
0.00083559
0.00112436
0.000739905
0.000814254
0.000797555
0.000767769
0.000604821
0.000541941
0.00108057
0.00103997
0.000653726
0.000591173
0.000837513
0.000846551
0.000725743
0.00104428
0.00120565
0.000499781
0.000671686
0.000447846
0.000677411
0.000831988
0.000690967
0.000371326
0.000575161
0.000576741
0.00116632
0.000440701
0.000719585
0.00109209
0.000282244
0.000350511
0.000720349
0.000738489
0.000862741
0.000678519
0.000313275
0.0004262
0.000202494
0.000336696
0.000926927
0.000455101
0.000501841
0.000500285
0.000439279
0.000328951
0.000435866
0.000604652
0.000695038
0.000545329
0.000504468
0.000743562
0.000450161
0.000673302
0.000637298
0.000407726
0.000233602
0.000838968
0.000274334
0.000287672
0.000227471
0.000249805
0.000256021
0.00020125
0.000324705
0.000529715
0.000438562
0.000331762
0.000549772
0.000729492
0.000984676
0.000153284
0.00033273
0.000456063
0.000200503
0.000254022
0.000224705
0.000179648
0.00034307
0.000337184
0.000196714
0.000246334
0.000369342
0.000345187
0.000199513
5.13057e-05
0.00139727
0.000856204
0.000715202
0.000453897
0.000124702
0.000406726
0.000281564
0.000130401
0.000155904
0.000146642
0.000126885
0.000183205
6.30561e-05
8.5408e-05
0.000100712
0.0001048
0.000130085
0.000772484
0.000600247
0.000602423
0.000605451
0.00047367
0.000297635
0.000446168
0.000389906
0.000702156
0.000545903
0.000489312
0.000781622
0.000305945
0.000768503
0.00105524
0.000827373
0.000647027
0.000948564
0.00111596
0.00113084
0.000605009
0.000513919
0.001016
0.00114083
0.00281659
0.00139647
0.00154731
0.000508518
0.000416746
0.000785676
0.000588225
0.00126163
0.000262584
0.00200194
0.00184204
0.000380287
0.00077822
0.000140094
0.00168279
0.00124601
0.00139992
0.00141832
0.00115021
0.00137127
0.000698304
0.000749483
0.000997051
0.00148858
0.00107701
0.00103196
0.00113181
0.000954872
0.00137729
0.000239741
0.000881223
0.000553801
0.00125574
0.00110851
0.00121468
0.000998418
0.00135781
0.00103249
0.000609497
0.00108049
0.00104722
0.00130471
0.00129389
0.00142956
0.00241359
0.0017974
0.00085498
0.000545227
0.00100354
0.00118657
0.00139902
0.00113898
0.000935856
0.00153096
0.000988179
0.00167116
0.00105742
0.000634186
0.000737567
0.00103887
0.000979485
0.000482534
0.00119084
0.00134622
0.000818017
0.00049461
0.000972422
0.000976516
0.000883685
0.000702917
0.000774026
0.000209836
0.000318528
0.000535975
0.000650159
0.00117719
0.000744318
0.000725708
0.000699133
0.000427926
0.000402806
0.000343152
0.000420874
0.000959022
0.000985497
0.000688137
0.000454617
0.000241417
0.000700243
0.000733
0.000526026
0.000377413
0.00027855
0.000518132
0.000347606
0.000317931
0.000366444
0.000427111
0.000479553
0.000191507
0.00058452
0.000361396
0.00034313
0.000392635
0.00028605
0.000606038
0.000509585
0.000552336
0.000496799
0.000419287
0.000366885
0.000771398
0.000847789
0.000649184
0.000326526
0.000657261
0.000348337
0.000407236
0.000331812
0.00031071
0.000296096
0.000330043
0.000257636
0.000378023
0.000478933
0.000249903
0.000285938
0.000243814
0.000907873
0.000805529
0.000312636
0.000608842
0.000405042
0.000347352
0.00025629
0.000356637
0.000278293
0.000305663
0.000251623
0.000174496
0.000177626
0.000350633
0.000394811
0.000201254
0.000214548
0.000105364
0.00116517
0.0006919
0.00069378
0.000109648
0.000613891
0.000351497
0.000149999
0.000179422
0.000219304
0.000174561
0.000187398
0.000145453
7.18613e-05
9.12986e-05
0.000104889
0.000135609
0.000109385
0.00012576
0.000545343
0.000810851
0.000911819
0.00056157
0.000691554
0.000389153
0.000444823
0.00105598
0.000641784
0.000436673
0.000549647
0.000590757
0.000433021
0.000410955
0.00054302
0.000812267
0.000314364
0.000546119
0.000802501
0.000984214
0.000693531
0.000278835
0.000655241
0.000846087
0.000720827
0.000914105
0.00124762
0.000635888
0.000748237
0.000174134
0.000747989
0.00084463
0.00136762
0.000897795
0.00121401
0.000330064
0.001098
0.000948741
0.000612562
0.00117022
0.00148838
0.00125405
0.00159697
0.00178741
0.000650834
0.000400644
0.000529482
0.0017891
0.00198085
0.00101194
0.00140815
0.00156244
0.00108714
0.00166349
0.000642096
0.000588639
0.000943561
0.000735694
0.0010954
0.000681718
0.000976774
0.000936218
0.00104708
0.00130167
0.000800496
0.000703145
0.00123773
0.000936973
0.00140575
0.00164092
0.00127166
0.00174643
0.00106427
0.000971069
0.000574881
0.0010728
0.000904452
0.00156794
0.000688342
0.000941482
0.00140437
0.000796446
0.00122368
0.000798333
0.00133939
0.000604547
0.00124257
0.0013096
0.000716123
0.00090184
0.00166052
0.000873842
0.00150522
0.0010939
0.000878371
0.00100202
0.000746494
0.000561558
0.00042832
0.000786731
0.00107359
0.000887138
0.000820957
0.00110693
0.000969691
0.000776486
0.00044983
0.000657907
0.000539541
0.00120762
0.000784588
0.000582433
0.000522755
0.000951263
0.000847277
0.000988939
0.000769269
0.000715246
0.000349017
0.000326229
0.000399285
0.000651972
0.000728089
0.00109387
0.000293484
0.000638242
0.000291724
0.000759409
0.000596022
0.000935114
0.000929886
0.00062956
0.00044472
0.000468631
0.000539937
0.000513366
0.000341987
0.000692309
0.000603268
0.000428796
0.000756082
0.000648985
0.000417499
0.0003409
0.000403891
0.000422556
0.000739115
0.00055923
0.000360572
0.000333187
0.000373083
0.000238508
0.000956318
0.000784572
0.000534715
0.000280216
0.000578608
0.000787808
0.000587033
0.000440539
0.000306268
0.000391184
0.000242827
0.000224737
0.000145503
0.000343433
0.00027673
0.000355213
0.000419506
0.00017183
0.000659356
0.000775459
0.000337444
0.000689894
0.000532205
0.000358249
0.000256756
0.000447178
0.000438718
0.000230735
0.00041127
0.000198387
0.000245441
0.000309221
0.00027615
0.000231299
0.000205828
0.000148368
0.00012989
0.000812417
0.000495585
0.000757791
0.000413244
0.000934555
0.000210328
0.000124547
0.000110843
0.000259907
0.000141534
0.000134354
7.2826e-05
0.000160657
9.09338e-05
0.000175112
0.000123661
0.000171305
0.000166008
9.4956e-05
0.000572887
0.000657066
0.000642166
0.000704143
0.000626892
0.000659233
0.00048843
0.000371709
0.000643072
0.000549833
0.000699735
0.000344442
0.000646633
0.000549424
0.000444568
0.000388812
0.000409885
0.000408558
0.000889268
0.000599228
0.000589163
0.000548407
0.000576584
0.00061703
0.000565854
0.00099293
0.00101615
0.000550164
0.000525804
0.000553768
0.000728518
0.000502396
0.00091313
0.000931073
0.000742708
0.000671704
0.000744742
0.000651864
0.00058485
0.000958375
0.00041517
0.00118964
0.000823504
0.00119844
0.000382632
0.000720715
0.000567207
0.000347686
0.00129061
0.00198811
0.00143456
0.00171996
0.000852292
0.00120858
0.000637515
0.000843751
0.000420837
0.000709077
0.0018959
0.000835326
0.00114279
0.00115493
0.00172474
0.00110415
0.00105364
0.00044098
0.000715701
0.000812635
0.00140731
0.00103546
0.0013624
0.000955179
0.00195775
0.000871843
0.00110171
0.00107569
0.00108775
0.000687475
0.000858047
0.000640984
0.00180854
0.00144867
0.00195247
0.00139171
0.000709144
0.000451578
0.000554255
0.00118721
0.000597672
0.000671597
0.00098227
0.00161261
0.00152954
0.00143335
0.00111152
0.00186564
0.000755212
0.00117459
0.00136881
0.00157643
0.000615175
0.000615576
0.000328252
0.00087723
0.00120767
0.00102102
0.000813094
0.00132058
0.00093055
0.000918002
0.000722731
0.000635481
0.000558928
0.000628794
0.00127075
0.00115255
0.00113414
0.000755517
0.000812503
0.00141301
0.000637361
0.000711926
0.000475942
0.000552593
0.00060974
0.000788378
0.000558011
0.000481905
0.000794134
0.000894732
0.000998161
0.000675614
0.000821024
0.000910523
0.000361598
0.000567379
0.000337313
0.000525111
0.000599042
0.000631464
0.000830105
0.00122484
0.000285914
0.000500911
0.000590179
0.000682364
0.000706301
0.000354669
0.000391607
0.000489556
0.000655312
0.000429259
0.000627627
0.000572081
0.000612103
0.000583518
0.000448555
0.000668288
0.000817684
0.000933833
0.000383271
0.000187224
0.000306827
0.000466187
0.00066044
0.000404795
0.000431757
0.000507287
0.000195097
0.000226945
0.000907773
0.000742325
0.000549519
0.00034057
0.000400134
0.000939312
0.000550558
0.000282246
0.000365662
0.00035073
0.000304779
8.09859e-05
0.000362541
0.000276353
0.000351962
0.000310918
0.00027146
0.000473145
0.000164916
0.000416173
0.000532397
0.000410075
0.000376826
0.000612287
0.00034584
0.000692849
0.000572894
0.000320193
0.000214409
0.000252771
0.000221594
0.000170241
0.000329682
0.000280253
0.000202093
0.000182512
0.000137059
0.000137178
9.99591e-05
0.000332988
0.000484625
0.000651764
0.0007366
0.0010397
0.000252731
0.000223434
0.000172513
0.000132695
0.000158726
0.00013698
0.000168066
0.000120628
0.000153803
0.00020627
7.17762e-05
0.000188424
0.000192005
8.47458e-05
0.00020113
0.000523416
0.000397577
0.000558819
0.000554076
0.00045701
0.000529908
0.000510345
0.000582969
0.000321901
0.000535668
0.000567237
0.000423737
0.000376614
0.000613222
0.00083042
0.000685504
0.000679023
0.000639578
0.000949256
0.00083918
0.000436922
0.000505243
0.000611332
0.000478554
0.000810403
0.00120076
0.00103815
0.000643515
0.000428984
0.00050159
0.000282027
0.00048912
0.000850139
0.000820076
0.000870758
0.000316461
0.000727603
0.000578868
0.000703069
0.000783306
0.000534643
0.00103223
0.000787403
0.000831073
0.000463856
0.000724267
0.000552181
0.000662095
0.000635207
0.00164446
0.0009626
0.00128825
0.000780753
0.000708692
0.000595761
0.000819796
0.000598145
0.000631394
0.000855242
0.00138563
0.00130157
0.00142459
0.000961639
0.000744298
0.00113694
0.000686947
0.000464682
0.000376085
0.000744328
0.0013996
0.00157202
0.00105525
0.000914981
0.00121623
0.0008818
0.00113495
0.00138906
0.000365327
0.000856993
0.000812213
0.000732185
0.00158674
0.00140749
0.00132564
0.0022282
0.00104677
0.00106046
0.00107526
0.000992225
0.000704631
0.00044159
0.00168749
0.00127204
0.00156149
0.00213421
0.00133755
0.00110333
0.00167179
0.000968858
0.000410356
0.00128281
0.00108592
0.00079739
0.000374025
0.000880057
0.00149842
0.001193
0.0017651
0.00157297
0.00062357
0.00113837
0.000929179
0.00137997
0.00151821
0.000436388
0.000563466
0.000521462
0.000673117
0.000602594
0.0015144
0.00114564
0.00086654
0.00106678
0.00137066
0.000720986
0.00101991
0.000834889
0.000793671
0.00110228
0.00131238
0.000910504
0.00107707
0.000671305
0.000797587
0.000824871
0.00115436
0.000565319
0.00102931
0.000780328
0.000402058
0.000611372
0.000528176
0.000567294
0.000805245
0.000340186
0.000617851
0.000959172
0.000493187
0.000899542
0.000857397
0.000805597
0.000650166
0.000511142
0.000597846
0.000460285
0.000663466
0.000651875
0.000560909
0.00121987
0.000384012
0.000244554
0.000576473
0.000607212
0.000552214
0.000549443
0.000428837
0.000474653
0.000673759
0.000637131
0.000200786
0.000870752
0.000405379
0.000428735
0.000767921
0.000499063
0.000617938
0.000698528
0.000928144
0.000606675
0.000263314
0.00021281
0.000625532
0.000536101
0.000525649
0.000537085
0.000237811
0.000423754
0.000578291
0.000383354
0.00061348
0.000707137
0.000536323
0.000415506
0.000342528
0.00118322
0.000588563
0.000336767
0.000553305
0.000455722
0.000312667
0.000310171
0.000333909
0.000353298
0.000273562
0.000232225
0.000360606
0.000628461
0.000462899
0.000142999
0.000263048
0.000640229
0.000576382
0.000460191
0.000596658
0.00041529
0.000689437
0.000531721
0.000269497
0.000219976
0.000264836
0.000212315
0.00025391
0.000348552
0.000300503
0.000185971
0.000185397
0.000121333
0.000140188
0.000159325
0.000135138
0.000211371
0.000339095
0.000483544
0.000806461
0.000924828
0.000290967
0.000248305
0.000184521
0.000108127
0.000171741
0.000208574
0.000190616
0.000152835
0.000125794
0.000190363
0.000200416
0.0001317
0.000177424
0.000127996
9.33325e-05
0.000178933
0.000659442
0.000560938
0.000654307
0.000636012
0.000599183
0.000485984
0.000560242
0.000656496
0.00062888
0.000590438
0.000536314
0.000719336
0.000720075
0.000513849
0.000745344
0.000559483
0.000345868
0.000478803
0.000565194
0.000496808
0.000474464
0.000769866
0.000593868
0.000810018
0.00091724
0.000762561
0.000734124
0.000377863
0.000405459
0.000482583
0.000446026
0.000631905
0.00111763
0.000623988
0.000431032
0.000661332
0.000751761
0.000679154
0.000500747
0.000700674
0.000833958
0.00108035
0.000681897
0.000717894
0.000482791
0.000592287
0.000400493
0.000478009
0.000694119
0.00132194
0.000769694
0.000615721
0.000692453
0.000731546
0.00032806
0.000548396
0.000630017
0.000278535
0.000571588
0.000681651
0.000883909
0.00135738
0.000725298
0.000661011
0.00104664
0.000803404
0.000907681
0.000847531
0.000856569
0.00122625
0.00145339
0.00118545
0.00110067
0.00142889
0.000999316
0.000929559
0.000833859
0.000540061
0.000517209
0.000632814
0.000577104
0.00135567
0.00131678
0.00179368
0.00155012
0.00228016
0.00138668
0.00176378
0.00166697
0.00116365
0.000765511
0.000750645
0.000524864
0.000657631
0.0014721
0.00135857
0.00157062
0.00159233
0.000515999
0.000597068
0.00121935
0.00112258
0.00082088
0.000653038
0.000688136
0.00101438
0.00125955
0.00158489
0.00129122
0.00105677
0.00207756
0.000709014
0.00073121
0.000646881
0.00081888
0.00123595
0.00110404
0.000792568
0.000567654
0.00102533
0.00137911
0.00125745
0.00147536
0.00158722
0.00135067
0.00169476
0.000631892
0.0014082
0.000932605
0.00256371
0.00065315
0.000435225
0.000645085
0.000586451
0.000648767
0.000580615
0.0013521
0.0011467
0.00101106
0.000366604
0.00118942
0.00106809
0.00100478
0.000572057
0.000825875
0.00093627
0.000617828
0.00121491
0.00104599
0.0011278
0.000802007
0.000787897
0.000962447
0.00075899
0.000463276
0.000794324
0.00076613
0.000695503
0.000436694
0.000450458
0.00106388
0.000546377
0.000512023
0.00073791
0.000592637
0.0009031
0.000701615
0.000752056
0.00087376
0.00106812
0.000941404
0.00118474
0.000540151
0.000550301
0.00066969
0.000544989
0.000642907
0.00106646
0.00034011
0.000438805
0.000566325
0.000843026
0.000526823
0.000565908
0.000489371
0.00075618
0.000812395
0.00059096
0.000910018
0.000925872
0.000949027
0.000354191
0.000420706
0.00057044
3.85496e-05
0.000850457
0.000427899
0.000655952
0.000311329
0.000176004
0.000436078
0.000465795
0.000858081
0.000531269
0.000364107
0.000488101
0.000714008
0.000608385
0.000466554
0.000491548
0.000673988
0.000657609
0.000335974
0.000619857
0.00133968
0.000639789
0.000607798
0.000867636
0.000571431
0.00037376
0.000560214
0.00026749
0.000417624
0.00023017
0.00023998
0.000390683
0.000359018
0.000522567
0.000470777
0.000199391
0.00024669
0.000731538
0.00079903
0.000445206
0.000680006
0.000576942
0.000406843
0.000211398
0.000339463
0.000236392
0.000370927
0.00023591
0.000342852
0.000302356
0.00027519
0.000197308
0.00019032
0.000105632
9.58016e-05
0.000144423
0.000299025
0.000181265
0.000266751
0.000329303
0.000494141
0.000822948
0.000846231
0.000317736
0.000322565
0.000265601
0.000298434
0.000184125
0.000217835
0.00017092
0.000259225
0.00012459
0.000184978
0.000296791
0.000131098
0.000149696
0.000134648
0.000137005
0.000175812
0.000115338
0.00116036
0.000811517
0.000889203
0.000813794
0.00072719
0.000669246
0.000700058
0.000692166
0.000707531
0.000390195
0.000616965
0.000813747
0.000661839
0.000597366
0.000480887
0.000659301
0.000427336
0.000587326
0.000758225
0.000389412
0.000494078
0.000624913
0.000479217
0.000366785
0.000458784
0.000605624
0.000678914
0.000665148
0.000587559
0.000641437
0.000493999
0.000892692
0.000855696
0.000722015
0.000586755
0.000504091
0.000322139
0.00065722
0.000499685
0.000763165
0.00118011
0.000724078
0.000707865
0.000444442
0.000367094
0.000672492
0.000457416
0.000456898
0.000326573
0.000551069
0.000833657
0.000709639
0.000359829
0.000632178
0.000821266
0.000754022
0.000844365
0.000685891
0.000609066
0.000876765
0.00118967
0.00107644
0.000625752
0.000728645
0.00100619
0.000293398
0.000855122
0.000471209
0.00088595
0.0010318
0.00125695
0.00110393
0.00105519
0.000970247
0.000811911
0.000713152
0.000922148
0.000731304
0.000595461
0.0005495
0.000348115
0.000809575
0.000741029
0.001371
0.00155434
0.00141363
0.000932715
0.0012858
0.000717814
0.000887379
0.000733718
0.000576531
0.000586527
0.000650134
0.00106848
0.00169484
0.0015078
0.000853257
0.00147472
0.00177046
0.00111404
0.00125672
0.00122747
0.000963702
0.000590746
0.000564181
0.00108912
0.00109704
0.00135072
0.00247584
0.00184664
0.0011473
0.00152186
0.000501715
0.000816831
0.00159766
0.00108698
0.000717635
0.00107815
0.00096528
0.00116401
0.00114661
0.000878743
0.0011495
0.00156325
0.00051781
0.00142861
0.000685624
0.000449488
0.000563119
0.000790605
0.000679498
0.00149877
0.000982002
0.000469373
0.0005836
0.00177638
0.000885911
0.000956031
0.00126131
0.0014954
0.00155509
0.000404117
0.00126956
0.00112778
0.00163009
0.00114085
0.000993975
0.000403458
0.000475697
0.000935376
0.000731213
0.000926841
0.001146
0.000795574
0.00112215
0.00105579
0.000772516
0.0012681
0.000527212
0.00050163
0.000750437
0.000781581
0.000931451
0.000762837
0.000798001
0.000814728
0.000660527
0.000866031
0.000919462
0.00111153
0.00137583
0.000451631
0.000595729
0.000764736
0.00118917
0.000609135
0.000943058
0.00100524
0.000452721
0.000485052
0.000607701
0.000297124
0.000977316
0.000720021
0.000810933
0.000784845
0.00057001
0.000696608
0.000790281
0.000591919
0.00058826
0.000342609
0.000665345
0.00173543
0.000611604
0.00181862
0.000421325
0.00032938
0.000461421
0.000908567
0.000603375
0.000692473
0.000456073
0.000843706
0.000829293
0.000674605
0.00043935
0.000629344
0.000728112
0.000899291
0.000972356
0.000457873
0.000597645
0.00038602
0.000325868
0.00047731
0.000704804
0.000490485
0.00026626
0.000329999
0.000538884
0.000688823
0.000345078
0.000282937
0.00052046
0.00076758
0.000553764
0.000722546
0.000470512
0.000463831
0.000855527
0.000541877
0.000502039
0.000428937
0.00119257
0.000955246
0.000837672
0.00071643
0.000264415
0.000488098
0.000225837
0.000416482
0.000332179
0.000341876
0.000349354
0.000379309
0.000325164
0.000510366
0.000430308
0.000236305
0.000255333
0.000686983