/*--------------------------------*- C++ -*----------------------------------*\
  =========                 |
  \\      /  F ield         | OpenFOAM: The Open Source CFD Toolbox
   \\    /   O peration     | Website:  https://openfoam.org
    \\  /    A nd           | Version:  7
     \\/     M anipulation  |
\*---------------------------------------------------------------------------*/
FoamFile
{
    version     2.0;
    format      ascii;
    class       volScalarField;
    location    "4.5";
    object      p;
}
// * * * * * * * * * * * * * * * * * * * * * * * * * * * * * * * * * * * * * //

dimensions      [0 2 -2 0 0 0 0];

internalField   nonuniform List<scalar> 
18720
(
-61.9492
-61.5595
-62.1301
-61.8253
-60.9178
-61.0721
-61.8788
-61.3827
-61.3573
-61.0278
-61.7397
-60.7851
-60.2794
-59.395
-61.3911
-60.6475
-61.2428
-61.5692
-61.1914
-61.1486
-61.2251
-60.3413
-61.6279
-60.575
-60.2066
-59.4395
-57.7455
-59.8217
-59.01
-60.4042
-61.5874
-60.1425
-60.8387
-61.1115
-61.4567
-60.9984
-60.9308
-60.9986
-60.684
-59.5024
-61.4787
-60.376
-60.1188
-59.3874
-59.1244
-55.7201
-58.2103
-57.4852
-58.9627
-60.8216
-58.6268
-60.015
-61.6473
-61.4289
-59.6525
-60.3689
-60.8284
-61.357
-60.859
-60.8238
-60.6856
-60.7372
-60.4911
-60.1769
-59.1808
-61.3277
-60.2689
-60.0205
-59.3309
-59.0886
-58.1963
-54.0992
-56.1606
-55.1494
-57.2892
-59.318
-57.0465
-58.578
-60.2099
-62.4328
-58.3436
-59.4881
-60.9316
-61.916
-61.6369
-59.3074
-59.9959
-60.5416
-61.0448
-61.7864
-60.3123
-60.6561
-60.4627
-60.4239
-60.29
-60.0196
-59.5126
-58.2556
-61.189
-60.1923
-59.8972
-59.2615
-59.0241
-58.1793
-57.5906
-52.6057
-54.2771
-53.6484
-54.6182
-57.3493
-54.9227
-56.8538
-58.2825
-60.5862
-56.5762
-58.2988
-59.7086
-61.4943
-62.3399
-58.1773
-58.9003
-60.3834
-61.4702
-62.3352
-61.8444
-59.0992
-59.6932
-60.2601
-60.7399
-61.6921
-61.3844
-59.568
-60.4742
-60.2629
-60.1428
-60.0958
-59.836
-59.4223
-59.0478
-57.5843
-61.0468
-60.0976
-59.7565
-59.1796
-58.9221
-58.1772
-57.5668
-56.8673
-51.8476
-52.9421
-52.4162
-53.5171
-55.2194
-53.5595
-54.8511
-56.7792
-58.7655
-54.8407
-56.3711
-57.945
-60.358
-61.9147
-56.2546
-57.9474
-59.4318
-60.9349
-62.739
-62.6678
-57.9316
-58.6601
-59.8862
-60.9301
-62.0335
-62.651
-61.5102
-58.9823
-59.3926
-59.9844
-60.456
-61.5271
-61.2404
-61.0839
-59.1028
-60.2754
-60.0812
-59.8935
-59.88
-59.6065
-59.2969
-58.9513
-58.5783
-56.8696
-60.9014
-60.0005
-59.618
-59.0782
-58.7594
-58.1384
-57.5333
-56.8642
-56.2668
-50.6169
-51.7032
-51.7206
-52.4917
-53.4338
-52.5154
-53.2552
-54.6906
-57.6508
-53.7016
-54.5202
-56.2215
-59.6763
-61.0234
-54.7721
-55.884
-57.6515
-59.826
-62.3642
-63.0532
-56.039
-57.4474
-58.9725
-60.2988
-62.2987
-63.45
-62.9005
-57.5306
-58.2547
-59.3331
-60.4959
-61.6125
-62.2854
-62.3873
-61.204
-58.7661
-59.1113
-59.6873
-60.1608
-61.3224
-61.0762
-60.8717
-60.4684
-58.6203
-60.1139
-59.8826
-59.6635
-59.6705
-59.4154
-59.1534
-58.8144
-58.5004
-57.7428
-56.2446
-60.7656
-59.9148
-59.4903
-58.975
-58.6832
-58.0973
-57.4552
-56.8495
-56.28
-55.5278
-49.4711
-50.6136
-49.8975
-51.0742
-52.8248
-51.1653
-51.1827
-53.3999
-55.3321
-52.5613
-52.8555
-54.7769
-57.8315
-60.9195
-53.6483
-54.2315
-55.5497
-58.8106
-62.5355
-63.0287
-54.7568
-55.4944
-56.9824
-59.2291
-61.7678
-63.7635
-63.7027
-55.8328
-56.8888
-58.3368
-59.6461
-61.8252
-63.1495
-63.5318
-62.513
-57.3524
-57.6753
-58.8464
-60.024
-61.0189
-61.8586
-62.2251
-62.1237
-60.54
-58.5432
-58.9475
-59.3845
-59.8722
-61.0493
-60.8045
-60.6282
-60.3919
-59.846
-57.7412
-59.9886
-59.7229
-59.482
-59.4401
-59.2829
-58.9998
-58.6712
-58.399
-57.7298
-56.9413
-55.4915
-60.6768
-59.8312
-59.3914
-58.8793
-58.6732
-58.0297
-57.3587
-56.8376
-56.2952
-55.5476
-54.8308
-48.5986
-49.4654
-49.1855
-50.007
-51.1573
-50.0433
-50.746
-52.3017
-53.8704
-51.2396
-51.9599
-54.1071
-55.7978
-58.3114
-52.7688
-52.7602
-54.2636
-57.0491
-60.3618
-63.389
-53.8124
-53.7554
-55.033
-57.8454
-61.7891
-64.4543
-64.0296
-54.7522
-55.2015
-56.4259
-58.7146
-61.1103
-63.4237
-64.2019
-63.636
-55.7099
-56.4656
-58.3649
-59.1329
-61.3402
-62.8477
-63.3568
-63.0898
-62.0409
-57.145
-57.491
-58.4066
-59.4559
-60.4667
-61.4732
-61.9878
-61.9451
-61.5276
-59.913
-58.2893
-58.7178
-59.0468
-59.6089
-60.7035
-60.4783
-60.3687
-60.2391
-59.7637
-59.0334
-56.8908
-59.8289
-59.5889
-59.2697
-59.1796
-59.1186
-58.8268
-58.5069
-58.2876
-57.6962
-56.9552
-56.131
-54.7963
-60.5657
-59.7429
-59.3204
-58.7781
-58.5747
-57.9396
-57.2564
-56.8325
-56.3002
-55.5745
-54.8649
-54.1252
-47.847
-48.9271
-48.4877
-48.909
-49.6398
-49.1636
-49.9668
-51.1071
-52.7621
-50.2526
-50.7007
-51.9191
-53.5962
-56.5067
-51.474
-51.4217
-52.8254
-55.0206
-58.1157
-61.1023
-52.7483
-52.4498
-53.7004
-55.9783
-59.7874
-63.2477
-64.9868
-53.8792
-53.4694
-55.0015
-57.061
-60.9533
-64.023
-64.9741
-64.3848
-54.7708
-54.9497
-56.3013
-58.1668
-60.5093
-62.8826
-63.9646
-63.9429
-62.9797
-55.7293
-56.0829
-57.6232
-58.7672
-60.7751
-62.142
-63.1353
-63.101
-62.179
-61.4692
-56.9557
-57.2379
-57.9987
-58.9594
-59.9633
-61.1277
-61.6941
-61.771
-61.478
-60.7445
-59.0565
-58.1521
-58.4767
-58.7066
-59.3535
-60.22
-60.178
-60.0965
-60.0419
-59.6682
-58.9682
-57.8045
-56.0897
-59.6346
-59.4417
-59.0518
-58.945
-58.9183
-58.653
-58.3342
-58.1746
-57.6211
-56.9472
-56.1673
-55.485
-54.0875
-60.3723
-59.6734
-59.2664
-58.7046
-58.4199
-57.8812
-57.1781
-56.7933
-56.2847
-55.5862
-54.8974
-54.1588
-53.6717
-47.0441
-47.7958
-47.7352
-47.7995
-48.9305
-48.3656
-48.7425
-49.5121
-51.0501
-49.0951
-49.7272
-50.9543
-52.4966
-54.2558
-50.1854
-50.1718
-51.0508
-53.5851
-55.2839
-58.8498
-51.2402
-51.4664
-51.4934
-53.78
-57.3336
-60.1944
-63.9265
-52.6549
-52.2402
-53.0588
-55.058
-58.738
-62.6901
-65.389
-65.0716
-53.8589
-53.5721
-54.4156
-56.3542
-60.0224
-63.4315
-64.6118
-64.6213
-63.8616
-54.7946
-54.6598
-55.8064
-57.9291
-59.9427
-62.3
-63.6579
-63.9092
-62.7852
-62.1306
-55.9127
-56.0668
-56.7155
-58.4827
-60.071
-61.4932
-62.8691
-63.0365
-62.1446
-61.4014
-60.7522
-56.8832
-57.1418
-57.7155
-58.5392
-59.5648
-60.5825
-61.293
-61.5129
-61.3429
-60.7308
-59.4769
-57.6274
-57.993
-58.2077
-58.4562
-59.0646
-59.5196
-59.8485
-59.8239
-59.8372
-59.5508
-58.9067
-57.9409
-56.5223
-55.4107
-59.4117
-59.3025
-58.8645
-58.7471
-58.7234
-58.487
-58.1577
-58.0523
-57.5488
-56.9309
-56.2084
-55.5456
-54.6519
-53.6442
-60.1194
-59.5892
-59.2094
-58.6233
-58.2861
-57.8386
-57.1207
-56.7195
-56.2742
-55.5976
-54.9268
-54.1915
-53.6998
-53.442
-46.4458
-46.6839
-47.0687
-47.3607
-48.0621
-47.5852
-47.7205
-48.4923
-49.1357
-48.1122
-48.6877
-49.585
-50.2082
-52.6976
-48.9973
-49.414
-50.2364
-51.523
-52.639
-56.0116
-49.9839
-50.2896
-50.5863
-52.9324
-55.194
-56.8892
-60.7984
-50.8012
-51.3131
-51.4979
-53.3402
-56.6476
-59.4043
-63.005
-65.5849
-52.6434
-52.8516
-52.424
-54.3879
-57.8869
-61.9479
-64.774
-65.4044
-64.3797
-53.8481
-53.421
-53.5085
-56.1473
-59.0502
-62.3502
-64.3068
-64.706
-63.7002
-62.442
-54.6756
-54.6717
-55.5109
-57.1568
-59.3434
-61.5912
-63.3009
-63.77
-62.9379
-61.2884
-61.2352
-55.9047
-55.9374
-56.4306
-57.9205
-59.5257
-61.0412
-62.4786
-62.8478
-62.1609
-61.539
-60.2809
-59.3183
-56.749
-56.9609
-57.4442
-58.1935
-59.257
-60.0121
-60.8189
-61.1776
-61.1925
-60.6038
-59.5992
-58.4536
-56.4462
-57.8125
-57.9098
-58.2374
-58.6817
-59.0632
-59.5148
-59.5264
-59.6005
-59.3917
-58.8381
-57.9784
-56.6002
-55.3667
-54.5762
-59.2287
-59.1522
-58.6867
-58.5355
-58.5536
-58.2926
-57.9785
-57.9178
-57.4874
-56.8982
-56.2271
-55.5884
-54.7222
-53.9477
-53.4201
-59.8407
-59.4706
-59.119
-58.5369
-58.1533
-57.7374
-57.1005
-56.646
-56.2406
-55.6111
-54.9517
-54.2204
-53.7335
-53.4642
-52.8474
-46.1983
-46.5049
-46.6346
-46.8776
-47.3176
-46.9468
-47.205
-47.4692
-48.5085
-47.4421
-47.7913
-48.2649
-48.7702
-50.6855
-48.0674
-48.584
-49.3851
-49.5294
-51.5503
-52.8882
-48.8453
-49.2359
-49.9977
-50.9376
-53.0254
-54.0495
-57.4813
-49.6443
-50.5012
-50.9548
-52.0528
-54.6926
-56.6004
-58.7212
-63.2727
-51.0368
-51.3693
-51.2599
-52.7078
-55.6993
-58.5412
-62.1566
-63.9579
-64.9872
-52.4483
-52.7936
-52.9064
-54.2861
-57.2475
-60.761
-64.0565
-65.5888
-64.169
-62.9724
-53.7191
-53.4986
-53.3444
-55.3273
-58.3478
-61.2858
-64.0166
-64.5418
-63.9681
-61.7278
-61.1168
-54.6482
-54.5358
-54.9939
-56.5088
-58.6652
-60.7037
-62.9089
-63.5495
-63.1056
-61.4259
-60.3207
-60.025
-55.8069
-55.6011
-56.0935
-57.5672
-58.9123
-60.4033
-62.0109
-62.5631
-62.0674
-61.6788
-60.4895
-58.9139
-58.1821
-56.6592
-56.72
-57.1698
-57.8957
-58.751
-59.5811
-60.3429
-60.8204
-60.9414
-60.6542
-59.7327
-58.6854
-57.286
-55.226
-57.626
-57.6633
-57.9926
-58.3299
-58.7906
-59.2103
-59.181
-59.3392
-59.2277
-58.749
-57.9889
-56.6847
-55.503
-54.5087
-53.8806
-59.0919
-58.9878
-58.5068
-58.3229
-58.376
-58.0764
-57.8065
-57.7768
-57.3928
-56.8522
-56.2401
-55.6119
-54.7862
-54.0165
-53.2768
-52.8187
-59.5783
-59.309
-59.0015
-58.4536
-58.0357
-57.5932
-57.0878
-56.6078
-56.2006
-55.6176
-54.9747
-54.2331
-53.7622
-53.4845
-52.8812
-52.2513
-46.0293
-46.2309
-46.1627
-46.3527
-46.8482
-46.4351
-46.7349
-47.0065
-47.6924
-46.8289
-47.1317
-47.5161
-47.9388
-48.9712
-47.1585
-47.8778
-48.5309
-48.4822
-49.422
-51.2306
-47.8962
-48.5109
-48.9529
-49.6039
-51.4939
-52.203
-54.3967
-48.569
-48.8477
-49.8747
-51.0241
-52.2797
-54.3093
-54.868
-58.8863
-49.644
-50.0599
-50.7069
-52.2801
-53.5011
-55.8665
-58.0149
-59.1263
-63.2316
-50.602
-51.3271
-51.5513
-53.0947
-54.8599
-57.6089
-61.3427
-64.49
-62.934
-63.3892
-52.0504
-52.4846
-52.1562
-53.6095
-56.2896
-59.5576
-63.4323
-65.3579
-64.8193
-61.465
-61.0234
-53.5942
-53.3871
-53.162
-54.7609
-57.5297
-60.1809
-63.5396
-64.3862
-64.2813
-62.4076
-60.5237
-59.8581
-54.607
-54.3577
-54.6797
-56.177
-57.906
-59.9712
-62.3199
-63.2735
-63.0832
-61.8451
-60.7188
-59.0022
-58.5711
-55.7027
-55.6692
-55.8398
-56.932
-58.1913
-59.8587
-61.4112
-62.2112
-61.947
-61.7279
-60.6921
-59.2836
-58.0211
-57.0861
-56.5202
-56.6252
-56.9654
-57.5814
-58.3328
-59.2081
-59.8252
-60.4298
-60.6671
-60.514
-59.8764
-58.9543
-57.5431
-55.6829
-54.3434
-57.4106
-57.5062
-57.756
-57.9646
-58.5486
-58.923
-58.8211
-59.0766
-59.0355
-58.6369
-57.9771
-56.7888
-55.6422
-54.6793
-53.7466
-53.2283
-58.9595
-58.8341
-58.3245
-58.1245
-58.1827
-57.8645
-57.6409
-57.6353
-57.2833
-56.7904
-56.2348
-55.6393
-54.8479
-54.0841
-53.3226
-52.6529
-52.2334
-59.3668
-59.1207
-58.8748
-58.3791
-57.936
-57.4695
-57.0028
-56.5757
-56.1582
-55.6099
-54.997
-54.2394
-53.7837
-53.5059
-52.903
-52.2641
-51.5643
-45.5809
-45.9506
-45.6388
-45.8501
-46.4328
-46.0952
-46.3957
-46.5407
-46.9931
-46.4237
-46.7605
-46.9455
-47.3888
-48.1938
-46.6482
-47.0751
-47.3623
-47.8782
-48.2302
-49.8574
-47.062
-47.6553
-48.021
-48.6322
-48.9744
-50.1308
-51.8319
-47.7452
-48.2206
-48.6907
-49.6696
-50.8822
-52.7089
-52.3728
-55.218
-48.4405
-48.8953
-49.5581
-50.4117
-51.9004
-53.3761
-54.947
-56.0262
-58.6553
-49.2313
-49.8181
-50.2725
-51.6615
-53.3065
-55.2833
-57.7234
-59.5743
-58.5715
-61.7037
-50.6788
-51.2598
-51.1803
-52.3332
-54.3815
-56.7623
-60.1516
-64.7301
-63.88
-60.4503
-60.6159
-52.1496
-52.3825
-52.0732
-52.9458
-55.0161
-58.619
-62.6341
-65.2461
-65.0747
-62.2357
-59.2786
-60.0624
-53.5738
-53.304
-52.9573
-54.2518
-56.7717
-59.1763
-62.7388
-64.1196
-64.3667
-62.9793
-60.9513
-58.886
-58.5731
-54.5769
-54.4364
-54.501
-55.512
-57.424
-59.3763
-61.6071
-62.8606
-63.0425
-62.0209
-61.0596
-59.4535
-58.0096
-57.6745
-55.5617
-55.6814
-55.8582
-56.3613
-57.6118
-59.4695
-60.7218
-61.7902
-61.7948
-61.6453
-60.9767
-59.6527
-58.3426
-56.8095
-55.4612
-56.3579
-56.527
-56.7996
-57.3612
-57.9183
-58.6934
-59.3628
-60.0146
-60.3787
-60.3287
-59.9471
-59.0491
-57.7609
-55.9462
-54.2006
-53.5976
-57.2086
-57.3334
-57.5002
-57.6432
-58.2957
-58.5545
-58.473
-58.7998
-58.7905
-58.4955
-57.9183
-56.8901
-55.7658
-54.8527
-53.9283
-53.0623
-52.5991
-58.8104
-58.6679
-58.1209
-57.9223
-57.9822
-57.6507
-57.4732
-57.4935
-57.1831
-56.7273
-56.2104
-55.6482
-54.9125
-54.1516
-53.3951
-52.7483
-52.113
-51.5507
-59.2045
-58.9384
-58.7377
-58.2993
-57.8027
-57.3718
-56.893
-56.5026
-56.1038
-55.6002
-55.0139
-54.2432
-53.7988
-53.5276
-52.9218
-52.2797
-51.5768
-50.5915
-45.4101
-45.4745
-45.4681
-45.7519
-45.9859
-45.7406
-45.8732
-45.8806
-46.5796
-46.0269
-46.214
-46.5012
-46.9664
-47.4792
-46.4114
-46.5668
-46.9082
-47.3257
-47.5155
-48.6525
-46.582
-47.0925
-47.3603
-47.8413
-48.1704
-49.0112
-50.2133
-47.1871
-47.4805
-48.2121
-48.5316
-49.3509
-50.6997
-50.8399
-52.6117
-47.8747
-47.8498
-48.5929
-49.5637
-50.6553
-51.2208
-52.5401
-53.0115
-55.6031
-48.2793
-48.996
-49.5236
-49.4007
-51.3241
-52.9813
-54.6248
-56.3477
-55.5636
-57.7775
-49.195
-49.7443
-50.019
-50.6461
-52.7567
-54.7666
-57.0328
-59.7563
-60.0243
-57.771
-59.121
-50.4998
-51.0043
-51.1094
-51.5985
-53.4607
-55.8072
-59.3613
-64.2904
-64.7454
-61.8313
-58.0222
-58.7092
-52.2537
-52.3647
-52.1512
-52.7609
-54.4006
-57.1934
-61.9392
-64.4954
-65.1662
-63.107
-60.0912
-57.9671
-58.3549
-53.8186
-53.1568
-52.9717
-53.8669
-55.824
-58.2294
-61.7254
-63.7141
-64.2372
-63.3222
-61.6524
-59.3393
-57.171
-57.6541
-54.5505
-54.4326
-54.397
-55.1492
-56.8484
-58.8502
-60.8534
-62.3617
-62.8627
-62.2541
-61.5375
-59.84
-58.4808
-56.7771
-56.4721
-55.3625
-55.5969
-55.6333
-56.0472
-57.0707
-58.8383
-60.0594
-61.2718
-61.5321
-61.4963
-61.2556
-59.7985
-58.6691
-57.1441
-54.909
-53.9675
-56.1872
-56.3952
-56.6396
-57.0737
-57.4926
-58.1612
-58.9546
-59.5864
-60.0829
-60.0963
-59.907
-59.0041
-57.9629
-56.1662
-54.3885
-53.1246
-52.8979
-57.094
-57.117
-57.2431
-57.4686
-57.9191
-58.1736
-58.0441
-58.4784
-58.5468
-58.3401
-57.8371
-56.9427
-55.8781
-55.0174
-54.0735
-53.216
-52.4201
-52.0272
-58.6609
-58.4621
-57.9094
-57.6974
-57.7851
-57.4449
-57.3006
-57.3606
-57.0682
-56.6786
-56.1741
-55.647
-54.9709
-54.2177
-53.4925
-52.8564
-52.1899
-51.1847
-50.5696
-59.0833
-58.7951
-58.5974
-58.1917
-57.6316
-57.2841
-56.7549
-56.4192
-56.0398
-55.5946
-55.0279
-54.2509
-53.8103
-53.5484
-52.9388
-52.2943
-51.589
-50.6122
-49.7582
-45.2153
-45.4496
-45.2657
-45.4821
-45.7288
-45.4302
-45.6822
-45.8706
-46.0835
-45.7144
-45.8288
-46.1206
-46.276
-46.958
-46.0392
-46.1552
-46.4861
-46.8117
-46.8591
-47.7898
-46.1929
-46.6357
-46.9126
-47.1464
-47.5833
-48.026
-49.0158
-46.59
-46.9282
-47.3512
-47.7142
-48.4002
-48.7053
-49.3043
-50.7805
-47.0088
-47.374
-47.9022
-48.5748
-49.149
-50.2273
-50.9541
-51.2138
-53.0038
-47.6653
-47.8919
-48.3921
-49.2668
-49.9535
-50.6985
-52.0887
-52.9061
-53.2449
-55.5099
-48.1884
-48.6279
-49.3478
-49.672
-51.0902
-52.9667
-54.2352
-56.7423
-56.1643
-54.8693
-56.5912
-49.0987
-49.7704
-49.9008
-50.4317
-52.0893
-54.0111
-56.6945
-58.824
-60.6039
-58.9177
-56.0815
-57.2829
-50.397
-50.7903
-50.8979
-51.1787
-52.7493
-55.0706
-58.5665
-62.8024
-65.3577
-63.1564
-58.913
-57.0362
-57.4793
-52.1473
-51.9575
-51.9886
-52.2054
-53.638
-56.1576
-60.6006
-63.59
-65.0354
-63.5584
-61.0453
-58.5501
-56.6529
-56.7032
-53.9111
-53.1298
-52.8447
-53.434
-55.0886
-57.3082
-60.5824
-63.1391
-64.107
-63.666
-62.1963
-59.9975
-57.7123
-55.9622
-56.3438
-54.4105
-54.3207
-54.1934
-54.7722
-56.3551
-58.4354
-59.9828
-61.837
-62.6453
-62.3307
-62.0532
-60.2548
-58.9528
-57.1541
-54.911
-54.5536
-55.1761
-55.5429
-55.5579
-55.7457
-56.5296
-58.1731
-59.5234
-60.7429
-61.1802
-61.3118
-61.2835
-59.9666
-59.0729
-57.4391
-55.3218
-53.2971
-52.9143
-55.9911
-56.2897
-56.5479
-56.7152
-57.1948
-57.7029
-58.5236
-59.2464
-59.7367
-59.8546
-59.7837
-59.173
-58.1131
-56.3436
-54.6177
-53.4092
-52.612
-52.3124
-56.8761
-57.0136
-57.025
-57.311
-57.467
-57.7661
-57.7399
-58.2161
-58.2912
-58.1772
-57.7776
-56.9668
-55.9499
-55.1645
-54.2046
-53.3479
-52.579
-51.3594
-51.1248
-58.4957
-58.2948
-57.7514
-57.4698
-57.5781
-57.2428
-57.1156
-57.2244
-56.9623
-56.6309
-56.1361
-55.649
-55.0191
-54.2753
-53.5638
-52.9436
-52.2584
-51.2447
-50.137
-49.7442
-58.9846
-58.7081
-58.4631
-58.0702
-57.4672
-57.1836
-56.6115
-56.3059
-55.9713
-55.5996
-55.0401
-54.2556
-53.8196
-53.5657
-52.9527
-52.3054
-51.6017
-50.6342
-49.784
-49.4364
-45.1485
-45.349
-45.2152
-45.2799
-45.505
-45.2643
-45.4162
-45.5901
-45.8349
-45.3909
-45.6296
-45.7898
-45.9863
-46.2961
-45.6211
-45.8232
-46.0125
-46.1742
-46.3845
-47.0559
-45.8383
-46.1132
-46.3015
-46.6879
-46.8675
-47.048
-48.0487
-46.1839
-46.4951
-46.7717
-47.1899
-47.5714
-47.7914
-48.4989
-49.3437
-46.3909
-46.8981
-47.2025
-47.5938
-48.2659
-48.9738
-49.4249
-49.7103
-51.0852
-46.9052
-47.1925
-47.6953
-48.0758
-48.9649
-49.7006
-50.5929
-51.2304
-51.4489
-52.7935
-47.3141
-47.6929
-48.3178
-48.9677
-49.9639
-51.3057
-52.0197
-53.2304
-53.3779
-52.8543
-54.4066
-48.0754
-48.6613
-49.1526
-49.5304
-50.8575
-52.2742
-54.1312
-55.7279
-56.4309
-55.7512
-53.9803
-55.4964
-48.9849
-49.466
-50.0306
-50.4058
-51.3835
-53.2678
-55.4302
-58.0022
-61.3248
-59.8244
-56.9257
-55.5057
-56.4384
-50.425
-50.5741
-50.6973
-51.0155
-52.5805
-54.7893
-56.9531
-61.3286
-65.4815
-64.1139
-59.8752
-57.4313
-55.9301
-56.2403
-52.1983
-51.8078
-51.6556
-51.6578
-53.4013
-56.1497
-59.0149
-62.8998
-64.8575
-63.8697
-61.7198
-59.3924
-57.4096
-55.322
-55.4065
-53.9631
-52.9424
-52.6767
-52.9383
-54.7736
-56.6943
-59.1965
-62.3705
-63.9497
-63.6483
-62.5078
-60.7607
-58.4117
-56.6375
-54.5902
-54.4567
-54.7479
-54.266
-54.1518
-54.3241
-55.6656
-57.7165
-59.2814
-61.1683
-62.3328
-62.4708
-62.1871
-60.6022
-59.3452
-57.6064
-55.3956
-53.3032
-52.9791
-55.0942
-55.4782
-55.451
-55.4462
-56.0344
-57.6155
-59.1126
-60.1779
-60.7329
-61.0261
-61.1831
-60.2926
-59.2699
-57.6518
-55.7376
-53.6444
-52.195
-52.422
-55.7544
-56.2573
-56.4544
-56.4899
-56.9022
-57.337
-58.0986
-58.9395
-59.3609
-59.5776
-59.6161
-59.187
-58.1881
-56.5043
-54.884
-53.7405
-52.81
-52.0676
-51.4212
-56.5971
-56.7542
-56.86
-57.0804
-57.0325
-57.3865
-57.5279
-58.018
-58.0202
-58.0041
-57.6594
-56.9331
-56.0027
-55.2866
-54.3249
-53.4868
-52.6088
-51.435
-50.1924
-50.0624
-58.3241
-58.1368
-57.5604
-57.2414
-57.3684
-57.0658
-56.9462
-57.0741
-56.8338
-56.5502
-56.1166
-55.6401
-55.0561
-54.3251
-53.6253
-53.0237
-52.3174
-51.3011
-50.2077
-49.3074
-49.4176
-58.9058
-58.6324
-58.3634
-57.9331
-57.3502
-57.0807
-56.5041
-56.1988
-55.8824
-55.599
-55.0513
-54.2588
-53.8311
-53.579
-52.9646
-52.3155
-51.611
-50.6555
-49.8168
-49.4437
-48.9265
-45.065
-45.2097
-45.0967
-45.1261
-45.3609
-45.1331
-45.2774
-45.2818
-45.6714
-45.2217
-45.3398
-45.3704
-45.6706
-45.9489
-45.3423
-45.4941
-45.7373
-45.8813
-46.0447
-46.499
-45.585
-45.7107
-45.858
-46.1601
-46.3045
-46.5739
-47.4683
-45.8197
-46.0051
-46.2693
-46.5508
-46.8958
-47.0603
-47.5315
-48.4287
-45.9802
-46.2601
-46.6212
-47.0446
-47.3822
-47.9054
-48.1861
-48.6631
-49.7335
-46.4063
-46.6554
-47.1843
-47.5492
-48.0655
-49.009
-49.3167
-49.6567
-49.9809
-51.2361
-46.9183
-47.0516
-47.6083
-48.0628
-48.7533
-50.0751
-50.3715
-51.0793
-51.6959
-51.2673
-52.5806
-47.1649
-47.7457
-48.2093
-48.812
-49.4014
-50.5836
-52.1413
-52.9264
-53.4124
-53.0981
-52.5506
-53.6583
-47.9279
-48.5722
-48.8654
-49.3933
-50.0854
-51.1607
-53.0034
-55.3131
-56.61
-56.0629
-54.912
-53.7514
-54.9287
-48.8634
-49.3009
-49.792
-50.1633
-51.3417
-52.205
-54.3024
-58.051
-61.0687
-61.1767
-58.0775
-55.958
-55.2765
-55.6747
-50.1538
-50.5671
-50.628
-50.6236
-52.3598
-54.063
-55.53
-60.1904
-65.1493
-64.7273
-60.97
-58.0501
-56.4346
-54.2724
-54.8885
-52.6317
-51.7044
-51.5711
-51.4002
-53.3407
-55.2139
-57.3712
-61.9664
-64.2376
-63.8427
-62.0706
-60.138
-58.0771
-55.9401
-54.0422
-54.064
-54.3081
-52.972
-52.5615
-52.5551
-54.4923
-55.7333
-57.952
-61.2525
-63.5744
-63.5191
-62.87
-61.61
-59.1043
-57.155
-55.2523
-52.9918
-52.8539
-54.5397
-54.2479
-54.0582
-54.1629
-54.9977
-56.6627
-58.6702
-60.4397
-61.9574
-62.1943
-62.219
-61.0873
-59.6577
-58.0534
-55.9163
-53.7802
-51.9822
-51.8735
-54.9079
-55.2173
-55.3178
-55.2864
-55.6734
-56.9359
-58.5045
-59.4912
-60.2714
-60.6766
-61.0243
-60.4916
-59.3679
-57.837
-56.1015
-54.0115
-52.4912
-51.6287
-51.7232
-55.6002
-55.9837
-56.3251
-56.2882
-56.6936
-57.0519
-57.6915
-58.5718
-58.9659
-59.2897
-59.3938
-59.1004
-58.2473
-56.6314
-55.1116
-53.9616
-53.1104
-52.3309
-50.9406
-50.1129
-56.4731
-56.4521
-56.6367
-56.8045
-56.6195
-57.1817
-57.2398
-57.8219
-57.7713
-57.8279
-57.513
-56.8804
-56.0359
-55.3993
-54.4371
-53.6268
-52.7485
-51.6949
-50.2946
-49.5411
-49.2554
-58.1623
-57.9985
-57.3269
-57.0322
-57.1646
-56.8808
-56.8065
-56.9197
-56.7083
-56.4661
-56.0689
-55.6201
-55.0798
-54.368
-53.6809
-53.0944
-52.3713
-51.3474
-50.2774
-49.3556
-48.6332
-48.9162
-58.8802
-58.555
-58.2958
-57.7746
-57.2308
-56.9755
-56.4105
-56.1117
-55.7958
-55.5807
-55.0636
-54.2614
-53.8431
-53.5856
-52.9759
-52.3234
-51.6221
-50.6787
-49.8487
-49.4489
-48.9375
-49.21
-44.9375
-45.055
-45.0395
-45.0196
-45.1495
-45.0122
-45.085
-45.153
-45.4015
-45.1257
-45.2011
-45.2201
-45.3867
-45.7568
-45.1128
-45.2594
-45.4202
-45.5275
-45.7423
-46.2564
-45.3721
-45.3979
-45.6126
-45.7906
-45.9774
-46.2287
-46.8156
-45.4732
-45.6612
-45.8552
-46.1048
-46.3461
-46.5509
-47.0287
-47.7713
-45.708
-45.9986
-46.138
-46.5304
-46.6786
-46.9912
-47.3431
-47.7913
-48.9439
-45.9205
-46.2144
-46.5982
-46.9494
-47.3329
-48.2744
-48.2077
-48.7385
-49.0202
-49.8681
-46.3488
-46.4144
-46.8067
-47.3686
-47.835
-48.6878
-48.9691
-49.4598
-50.1783
-50.1452
-50.9806
-46.827
-46.7702
-47.4992
-47.8862
-48.367
-49.2917
-50.4338
-50.8409
-51.6348
-51.2513
-51.0597
-52.3281
-47.0127
-47.5247
-48.1295
-48.6848
-49.0871
-49.9666
-50.9152
-52.8093
-53.482
-53.6265
-52.9953
-52.276
-53.3746
-47.8598
-48.294
-48.8707
-49.1836
-49.8352
-50.5718
-52.4074
-55.0914
-56.6632
-56.5058
-55.6422
-54.3998
-53.6603
-54.6497
-48.9919
-49.2183
-49.4113
-49.9278
-50.7499
-51.4189
-54.139
-57.1081
-60.387
-62.1615
-59.1057
-56.3962
-55.5281
-53.8881
-53.8339
-50.4663
-50.3746
-50.2964
-50.6625
-51.7404
-52.8088
-55.8022
-59.0001
-64.0642
-65.5252
-62.1287
-58.9284
-57.3737
-54.9429
-52.9925
-53.5832
-52.8739
-51.7548
-51.2247
-51.2438
-52.8567
-54.0362
-56.4333
-60.8075
-63.5889
-63.5677
-62.7186
-60.8362
-58.6048
-56.5706
-54.656
-52.5016
-52.5029
-54.1975
-53.0416
-52.5267
-52.3893
-53.5505
-55.4028
-57.0409
-60.0908
-62.9364
-63.2656
-62.9112
-62.1072
-59.8024
-57.8904
-55.8626
-53.5842
-51.7911
-51.6129
-54.1072
-53.8863
-53.8522
-53.9773
-54.6437
-56.1469
-57.8107
-59.726
-61.3559
-62.0021
-62.0812
-61.5304
-59.9352
-58.5404
-56.451
-54.259
-52.4005
-51.2011
-51.3632
-54.5571
-54.8491
-55.1375
-55.0782
-55.3996
-56.2694
-57.8206
-58.9068
-59.7306
-60.2961
-60.701
-60.5356
-59.5358
-58.1296
-56.4339
-54.3815
-52.825
-51.933
-50.8205
-50.7387
-55.3683
-55.7619
-56.2071
-56.1134
-56.5484
-56.6122
-57.3452
-58.2165
-58.6257
-58.9922
-59.1478
-58.935
-58.2422
-56.7266
-55.3344
-54.2417
-53.3555
-52.4549
-51.1773
-49.3683
-49.4716
-56.3328
-56.2614
-56.3507
-56.5669
-56.3458
-56.9429
-56.9883
-57.5904
-57.5576
-57.6471
-57.3709
-56.871
-56.054
-55.4973
-54.5422
-53.7498
-52.9624
-51.9078
-50.44
-49.6105
-48.6756
-48.5981
-58.0019
-57.8323
-57.115
-56.8528
-56.9633
-56.6939
-56.6577
-56.7766
-56.6148
-56.3924
-56.0137
-55.5892
-55.0906
-54.4065
-53.7293
-53.155
-52.4221
-51.3859
-50.3381
-49.3966
-48.6701
-48.3823
-49.1983
-58.8665
-58.4866
-58.2113
-57.6132
-57.1325
-56.8811
-56.3197
-56.0422
-55.7542
-55.5826
-55.0755
-54.2603
-53.8464
-53.5849
-52.9861
-52.3338
-51.6315
-50.7002
-49.8847
-49.4527
-48.9493
-49.2134
-49.6303
-44.825
-44.939
-44.8967
-44.8627
-44.9937
-45.0266
-44.9744
-44.9765
-45.116
-44.9476
-45.0002
-45.109
-45.1874
-45.5234
-45.0323
-45.1204
-45.2131
-45.2823
-45.4892
-45.9012
-45.1046
-45.1414
-45.2762
-45.4069
-45.6875
-45.9471
-46.3744
-45.2463
-45.4119
-45.6253
-45.7503
-45.9216
-46.1147
-46.5511
-47.1039
-45.4318
-45.6541
-45.7645
-46.0767
-46.2298
-46.4752
-46.8538
-47.1894
-47.9152
-45.6252
-45.9016
-46.0649
-46.2802
-46.6927
-46.9732
-47.2937
-47.8792
-48.1154
-49.0087
-45.7207
-46.0353
-46.3998
-46.7482
-47.2498
-47.4586
-48.001
-48.4939
-49.0185
-49.0923
-49.9653
-46.1478
-46.3698
-46.9821
-47.2861
-48.0169
-48.1702
-49.0135
-49.3924
-50.0767
-50.1925
-49.7304
-50.8622
-46.6218
-46.9305
-47.3893
-47.8498
-48.4218
-49.0886
-49.7723
-50.7907
-51.1293
-51.4396
-51.0606
-51.0952
-51.9026
-46.9414
-47.371
-47.8469
-48.3579
-49.1953
-49.9548
-50.5928
-52.2416
-53.6142
-54.1379
-53.437
-52.6421
-52.1917
-52.9754
-47.8373
-48.1748
-48.5646
-48.948
-50.0206
-51.083
-52.4954
-53.9062
-56.5746
-57.1051
-56.4243
-54.8264
-54.0317
-52.8313
-53.3481
-48.836
-49.0237
-49.3249
-49.8022
-50.2106
-51.8357
-53.5367
-56.1312
-59.5548
-62.7915
-60.1597
-57.2783
-55.8834
-54.185
-52.2209
-52.438
-50.7578
-50.7773
-50.302
-50.4448
-51.0627
-52.6947
-54.7915
-57.9095
-62.6274
-65.3422
-62.6022
-59.9401
-57.9592
-55.7523
-53.5604
-51.7368
-51.9835
-52.8183
-52.0534
-51.1938
-51.0472
-51.7248
-53.9048
-56.238
-59.0123
-62.8838
-63.6434
-63.3174
-61.995
-59.5632
-57.1511
-55.4075
-53.0827
-51.2955
-51.3705
-54.0773
-52.8619
-52.4538
-52.244
-53.0203
-54.666
-56.7828
-58.8654
-61.8592
-62.7977
-62.8216
-62.3462
-60.5062
-58.5046
-56.5085
-54.1893
-52.3682
-50.8806
-50.9052
-53.8045
-53.6012
-53.8398
-53.7835
-54.3153
-56.4529
-57.2442
-59.0866
-60.6587
-61.6243
-61.8423
-61.6262
-60.3908
-58.9461
-56.9444
-54.7259
-52.8244
-51.5035
-50.4569
-50.5673
-54.3742
-54.7883
-55.0884
-54.8644
-55.1842
-55.9661
-57.1603
-58.4503
-59.1091
-59.8542
-60.3865
-60.3253
-59.7526
-58.3549
-56.7191
-54.749
-53.1826
-52.2338
-51.1194
-49.5957
-49.2367
-55.2042
-55.4493
-56.0751
-55.9255
-56.2781
-56.2636
-56.9801
-57.9201
-58.3485
-58.7453
-58.9065
-58.7461
-58.1427
-56.7963
-55.5397
-54.506
-53.5257
-52.6037
-51.428
-49.5283
-48.3777
-48.575
-56.2208
-56.0253
-56.1419
-56.3583
-56.1944
-56.7788
-56.7972
-57.3004
-57.3435
-57.4681
-57.2405
-56.7869
-56.058
-55.5693
-54.6405
-53.8784
-53.1603
-52.0937
-50.5921
-49.6449
-48.7681
-47.8336
-48.3841
-57.82
-57.6801
-56.9126
-56.6257
-56.75
-56.5259
-56.4899
-56.6558
-56.4976
-56.312
-55.9553
-55.5502
-55.0779
-54.4457
-53.7709
-53.2066
-52.4669
-51.4177
-50.3891
-49.4368
-48.7103
-48.3859
-48.7707
-49.6374
-58.8201
-58.43
-58.1181
-57.4564
-57.0414
-56.7857
-56.2483
-55.9732
-55.7204
-55.5896
-55.0844
-54.2563
-53.839
-53.5916
-52.9942
-52.343
-51.6397
-50.7169
-49.92
-49.4539
-48.961
-49.2133
-49.618
-50.3973
-44.6661
-44.8619
-44.7768
-44.7649
-44.8542
-44.8394
-44.8277
-44.7653
-45.0117
-44.9134
-44.8482
-44.9425
-44.9955
-45.2531
-44.9124
-44.9142
-44.972
-45.0932
-45.2554
-45.6195
-45.0622
-45.093
-45.1703
-45.2284
-45.3359
-45.6171
-46.0172
-45.1565
-45.1228
-45.2954
-45.3855
-45.5534
-45.7662
-46.1267
-46.6241
-45.2291
-45.3397
-45.5952
-45.7937
-45.837
-46.013
-46.3574
-46.7416
-47.326
-45.3437
-45.5595
-45.7275
-45.9273
-46.18
-46.3174
-46.8247
-47.1167
-47.4845
-48.1457
-45.5297
-45.6968
-46.0376
-46.2138
-46.664
-46.7854
-47.3826
-47.772
-48.0863
-48.1141
-49.1308
-45.5091
-46.0015
-46.3127
-46.4961
-47.246
-47.5343
-47.9703
-48.2625
-48.9438
-49.0395
-48.9948
-49.5724
-46.1684
-46.3787
-46.8624
-47.2253
-47.7786
-47.7736
-48.5234
-49.2191
-49.8458
-50.2298
-49.7334
-49.8314
-50.6905
-46.3894
-46.8563
-47.0421
-47.6172
-48.2405
-48.9622
-49.5537
-50.246
-51.0673
-51.694
-51.5979
-51.5005
-50.9087
-51.5228
-47.0387
-47.636
-47.74
-48.2586
-49.0414
-49.4088
-50.8436
-52.206
-53.8069
-54.4614
-53.8785
-53.1653
-52.8139
-51.5444
-52.23
-47.7188
-48.2685
-48.4516
-48.8988
-49.2031
-50.7926
-51.4118
-53.4961
-56.2827
-57.2675
-57.1701
-55.4867
-54.3621
-53.3304
-51.3842
-51.6641
-48.6089
-49.0178
-49.1939
-49.3387
-49.6853
-51.1194
-52.4493
-55.6996
-58.406
-63.2421
-61.1418
-58.1988
-56.5843
-54.764
-52.8268
-50.919
-51.2959
-50.7267
-50.6139
-50.0834
-50.1466
-50.5591
-52.3171
-53.9944
-56.3937
-60.7863
-64.7207
-63.0389
-60.8337
-58.6553
-56.3732
-54.3186
-52.3005
-50.5765
-50.9427
-52.6253
-52.1568
-51.3658
-51.4235
-51.1754
-53.8795
-55.1708
-57.6437
-61.6594
-63.4384
-63.1921
-62.6152
-60.3635
-58.0267
-56.0278
-53.716
-51.6992
-50.1995
-50.5522
-53.9124
-53.2592
-52.4823
-52.5434
-52.6025
-54.6079
-56.082
-57.9786
-60.721
-62.1388
-62.6065
-62.4909
-61.1027
-59.1063
-57.142
-54.7907
-52.8739
-51.221
-50.3789
-50.2216
-53.5183
-53.6479
-53.7634
-53.7226
-53.9784
-55.4298
-57.0537
-58.3559
-60.095
-61.1066
-61.5439
-61.6224
-60.7131
-59.2777
-57.4225
-55.2127
-53.2684
-51.8532
-50.7382
-49.4646
-49.4114
-54.007
-54.5481
-54.8678
-54.8703
-54.963
-55.4855
-56.6305
-57.8855
-58.4139
-59.371
-59.9834
-60.2253
-59.6485
-58.4546
-56.9549
-55.1007
-53.5385
-52.4666
-51.4039
-49.7968
-48.3439
-48.3159
-54.8057
-55.1624
-55.8159
-55.814
-55.9964
-56.1422
-56.6778
-57.614
-58.0718
-58.5142
-58.5918
-58.5337
-58.0099
-56.8626
-55.7304
-54.7428
-53.6856
-52.7459
-51.6185
-49.6919
-48.4652
-47.7616
-47.8444
-56.102
-55.8278
-55.9423
-56.1713
-56.0367
-56.4206
-56.5962
-57.0662
-57.1429
-57.2841
-57.1031
-56.6765
-56.0339
-55.6268
-54.7152
-54.0036
-53.327
-52.2804
-50.7099
-49.6767
-48.8524
-47.8184
-48.0696
-48.7789
-57.6564
-57.5216
-56.7285
-56.4131
-56.5272
-56.3485
-56.3271
-56.5377
-56.3596
-56.2349
-55.8898
-55.5042
-55.0531
-54.4775
-53.8059
-53.2497
-52.5014
-51.4525
-50.4363
-49.4815
-48.7488
-48.3874
-48.7704
-49.1725
-50.3839
-58.8491
-58.3728
-58.0409
-57.3174
-56.9389
-56.6837
-56.1893
-55.8773
-55.644
-55.5681
-55.0909
-54.2486
-53.8295
-53.6068
-53.0017
-52.3444
-51.6458
-50.7399
-49.9462
-49.4627
-48.9748
-49.2117
-49.6079
-50.4615
-50.7163
-44.691
-44.6463
-44.6648
-44.8132
-44.7652
-44.7209
-44.7025
-44.8895
-44.8
-44.7645
-44.7516
-44.8011
-45.042
-44.8942
-44.8519
-44.8055
-44.9483
-45.0118
-45.3382
-44.9347
-44.9363
-44.9004
-45.0074
-45.1323
-45.302
-45.6933
-45.0173
-45.0761
-45.1069
-45.2336
-45.2959
-45.4355
-45.737
-46.1846
-45.024
-45.1419
-45.3014
-45.4829
-45.5277
-45.7073
-45.9733
-46.3587
-46.7913
-45.1547
-45.271
-45.5077
-45.6256
-45.8086
-45.8648
-46.3477
-46.5971
-46.9951
-47.441
-45.3678
-45.4734
-45.6252
-45.8852
-46.1294
-46.2027
-46.8143
-47.1739
-47.5162
-47.6614
-48.0745
-45.4157
-45.5517
-45.7271
-46.0875
-46.3914
-46.9742
-47.0374
-47.6068