/*--------------------------------*- C++ -*----------------------------------*\
  =========                 |
  \\      /  F ield         | OpenFOAM: The Open Source CFD Toolbox
   \\    /   O peration     | Website:  https://openfoam.org
    \\  /    A nd           | Version:  7
     \\/     M anipulation  |
\*---------------------------------------------------------------------------*/
FoamFile
{
    version     2.0;
    format      ascii;
    class       surfaceScalarField;
    location    "4.5";
    object      phi;
}
// * * * * * * * * * * * * * * * * * * * * * * * * * * * * * * * * * * * * * //

dimensions      [0 3 -1 0 0 0 0];

internalField   nonuniform List<scalar> 
54006
(
0.000207663
-0.00235259
0.00211794
-5.81475e-05
0.000403787
0.000272759
-0.00056719
-0.000181154
0.000225918
-5.80482e-05
0.0002131
0.00186979
-6.50674e-05
0.000226689
-0.00294008
0.00269961
-4.43698e-05
0.000429522
0.00233913
-0.00238311
-0.00053515
0.0004314
-0.000188434
0.000375713
-0.000855491
-0.000193449
0.000444386
-0.000407897
0.000174547
-0.000165501
0.000206222
-4.37956e-05
0.00020547
0.00162606
-6.57214e-05
0.000264964
0.00241923
-4.96568e-05
0.000223926
-0.00245079
0.00221564
-3.31467e-05
0.000685257
0.00392258
-0.00413511
-0.000723573
0.000404058
-0.000532692
0.000454895
-0.00252958
-0.000571873
0.000515298
0.00114005
-0.00134154
-0.000404569
0.00039075
-0.000172793
0.00032807
-0.00109244
-0.000220359
0.000571403
-0.000150988
-0.000174352
0.00050144
-0.000920663
0.000623231
-0.000145584
0.000215776
-3.23319e-05
0.000190615
0.00139395
-6.65994e-05
0.000257923
0.00214727
-5.16845e-05
0.000252589
0.00195137
-3.79791e-05
0.000214457
-0.00270738
0.00248931
-2.95332e-05
0.000646902
0.00571095
-0.00558732
-0.000425505
0.000698544
-0.000719819
0.000770119
-0.00439831
-0.000771453
0.000754788
0.0037465
-0.00389498
-0.000814587
0.000540258
-0.000424742
0.000442393
-0.00275074
-0.000548093
0.000623606
-0.00156908
-0.000396533
0.000680633
0.000933412
-0.00126491
-0.000252264
0.00048551
-0.000127221
0.000277542
-0.00128269
-0.000251715
0.000547084
-0.00046193
-0.000198579
0.000537046
0.000342541
-0.000178119
0.000484346
-0.00172884
0.00141196
-9.85898e-05
0.000209781
-2.93331e-05
0.000183243
0.00116783
-6.89204e-05
0.000253156
0.00188145
-5.39316e-05
0.000260431
0.00167872
-3.94659e-05
0.000244789
0.00223865
-3.211e-05
0.000144516
-0.00430396
0.00416092
-3.10078e-05
0.000432179
0.00632332
-0.00602417
-0.000546256
0.000797749
-0.000458269
0.000615373
-0.00551108
-0.000485708
0.00089966
0.00545614
-0.00557956
-0.000446961
0.000789281
-0.000755512
0.000755253
-0.00465393
-0.000733577
0.000771214
-0.00392039
-0.000893644
0.000682771
0.00206892
-0.00225113
-0.000634521
0.000702671
-0.000262255
0.000405773
-0.00290869
-0.000566162
0.000638145
-0.00185242
-0.000355814
0.000734154
-0.00156888
-0.000289666
0.00080299
0.000105172
-0.000436245
-0.000239836
0.000466238
-8.54092e-05
0.000267665
-0.00145558
-0.000272799
0.000469853
-0.000723125
-0.000207217
0.000532725
6.6458e-05
-0.000194789
0.000540951
0.00105315
-0.000115475
0.000272644
-0.00294524
0.00283916
-0.000120642
0.00013298
-3.19948e-05
0.000177894
0.000946893
-7.3143e-05
0.000251156
0.00162032
-5.89505e-05
0.000279969
0.00138635
-4.15342e-05
0.00025468
0.00197707
-3.2566e-05
0.000176044
0.00398576
-3.29977e-05
0.000120089
-0.00403249
0.00392323
-4.18356e-05
0.00041176
0.00627515
-0.00585557
0.000397631
0.000712212
-0.000210815
0.000380786
-0.00573348
-0.000234362
0.000848757
0.00654037
-0.00693917
-9.6555e-05
0.000868995
-0.000371151
0.000750347
-0.00548941
-0.00050699
0.000915098
-0.00571749
-0.000491663
0.000942614
0.00538452
-0.00570107
-0.000390251
0.000701953
-0.000610925
0.000588001
-0.00473441
-0.000764044
0.000736837
-0.00384262
-0.000910047
0.000805446
-0.00248781
-0.000728257
0.000842235
0.00094604
-0.00120188
-0.000417922
0.00077005
-0.000238961
0.000437364
-0.00305609
-0.000595051
0.000520994
-0.00206739
-0.00040234
0.000699247
-0.00180219
-0.000289028
0.000869337
-0.000778769
-0.000275529
0.000377781
-0.00127735
0.00120916
-0.000276776
0.000248337
-0.000124817
0.000264906
-0.00160447
-0.000305107
0.0004102
-0.000936932
-0.000218036
0.000552644
-0.000214116
-0.000199317
0.000542653
0.000677266
-0.000106877
0.000343874
0.00268389
-0.000128026
0.000256636
-0.00306741
0.00296971
-0.00015949
0.000104172
-4.26172e-05
0.000178543
0.000727093
-7.9365e-05
0.000244864
0.0013669
-6.45828e-05
0.00029256
0.00108076
-4.5913e-05
0.000264568
0.00170425
-3.32859e-05
0.000195819
0.00378905
-3.167e-05
0.000145278
0.00379066
-4.57051e-05
7.89103e-05
-0.0038005
0.0037334
-5.36524e-05
0.000406965
0.00610793
-0.00588056
0.00124695
0.000531815
0.000202153
0.000390907
-0.00543158
0.00035927
0.000781973
0.00730041
-0.0069594
0.000123403
0.000988677
-0.000177072
0.00048604
-0.00540478
-8.14053e-05
0.000793664
-0.00702444
-2.76548e-05
0.00122746
0.00635688
-0.00672176
-1.6524e-05
0.00104227
-0.000152866
0.000566893
-0.00554741
-0.000339315
0.000799683
-0.00590704
-0.000380289
0.00101162
-0.00585132
-0.000547589
0.000945192
0.00315325
-0.00331245
-0.000334006
0.000825781
-0.000428474
0.000480404
-0.00468661
-0.000666498
0.000717974
-0.00384472
-0.000958924
0.000756986
-0.00267071
-0.000784878
0.000897263
-0.00144574
-0.00051233
0.000613793
0.000613349
-0.000771905
-0.000495378
0.000330121
-0.000275323
0.00045829
-0.00318864
-0.000583767
0.000444231
-0.0022409
-0.000455565
0.00059336
-0.00195046
-0.000294792
0.000822767
-0.00107113
-0.000276777
0.000504003
0.00108598
-0.000312479
0.000327157
-0.00189545
0.00182309
-0.000274939
0.000213451
-0.000160809
0.000266485
-0.00173613
-0.00033384
0.000362542
-0.0011255
-0.000234212
0.000549802
-0.000480918
-0.000208477
0.000547275
0.000313701
-0.00011846
0.000394725
0.00248412
-0.000106014
0.000321653
0.00284162
-0.000176308
0.000186716
-0.00314407
0.00302832
-0.000151547
6.3447e-05
-5.34663e-05
0.000183988
0.000504543
-8.69876e-05
0.000243809
0.00111457
-7.08424e-05
0.000300726
0.000767628
-5.21807e-05
0.000277943
0.00141461
-3.42159e-05
0.000218352
0.00356886
-3.14512e-05
0.000162816
0.00364043
-4.42568e-05
0.000111287
0.0036364
-5.99926e-05
2.40834e-05
-0.00364712
0.00361388
-4.44962e-05
0.000433002
0.00663893
-0.00640306
0.00163946
0.000535808
0.00121247
0.00113651
-0.00565014
0.000411934
0.00103438
0.00741355
-0.00677498
0.000355977
0.000951153
4.71641e-05
0.000346894
-0.00481754
0.000155616
0.00138214
-0.00730374
0.000115137
0.00161341
0.00719991
-0.00720519
-0.000257273
0.00139719
-0.000331731
0.000315407
-0.00506993
-0.000177964
0.000676369
-0.00689521
-8.7326e-05
0.00110137
-0.00689959
6.04293e-05
0.00159464
0.00502149
-0.00549723
-0.000190237
0.000904387
-0.000201428
0.000333889
-0.00551439
-0.000351285
0.000781673
-0.00598653
-0.000323526
0.000963225
-0.00578688
-0.000650969
0.00109535
-0.00361966
-0.000438465
0.0010153
0.00219033
-0.00253924
-0.000386605
0.000534279
-0.000500678
0.000379946
-0.00455781
-0.000623099
0.000592433
-0.00377389
-0.000885525
0.000742178
-0.00290347
-0.000874988
0.000824557
-0.00172695
-0.000505454
0.00079231
-0.00104225
-0.000530292
0.000405584
-0.000249402
0.000188468
-0.000512872
0.000259774
-0.000280553
0.000417652
-0.00327675
-0.000564911
0.000581671
-0.00252484
-0.000518954
0.000590228
-0.0021723
-0.000274144
0.000741297
-0.00129785
-0.000262101
0.000618991
0.000894722
-0.000309788
0.000442129
0.0017002
-0.000310071
0.000203648
-0.00182508
0.00184526
-0.000312046
0.000139845
-0.000155538
0.000279053
-0.00185753
-0.000358907
0.000367167
-0.00133549
-0.000247214
0.00051909
-0.000732783
-0.000200711
0.000567004
-5.04696e-05
-0.000133367
0.000439455
0.00225084
-0.000106289
0.000368821
0.00270247
-0.00017287
0.000257458
0.00287293
-0.000167081
7.47947e-05
-0.00330322
0.00326135
-0.000160389
6.11799e-06
-4.42031e-05
0.000186851
0.000282582
-9.52757e-05
0.000242545
0.000862504
-7.74686e-05
0.000301898
0.00045537
-6.04826e-05
0.000297701
0.00110029
-3.5561e-05
0.000238388
0.0033272
-3.09448e-05
0.000177198
0.00347549
-4.37122e-05
0.000131282
0.0035205
-5.9638e-05
4.45559e-05
0.00356089
-5.15587e-05
1.26402e-06
-0.00384673
0.00384636
-4.53934e-05
0.000775178
0.00655356
-0.00679731
0.00246574
0.000874453
0.00181635
0.00133509
-0.00625476
0.00189826
0.00137069
0.00706647
-0.00697859
0.00121527
0.00105388
0.000648641
0.000537958
-0.00563502
0.00121625
0.00168888
-0.00639873
-0.000271062
0.00171976
0.00796478
-0.00792559
0.000210443
0.00165762
-0.000324364
0.00029893
-0.00455235
0.000255052
0.000771268
-0.00717008
-7.2943e-05
0.00156041
-0.00741259
-0.000136494
0.00179822
0.00591689
-0.00598878
-0.00038895
0.00172845
-0.000311788
0.000173613
-0.00489751
-0.000309346
0.000660615
-0.00677269
-0.000179426
0.000986621
-0.00694857
-6.17419e-05
0.0017422
-0.00589031
-0.000193332
0.00143396
0.00321475
-0.00352745
-0.000296194
0.000998051
-0.000379944
0.000139867
-0.00533359
-0.000373726
0.000665157
-0.00603407
-0.00037647
0.00108139
-0.00576726
-0.000682351
0.00108499
-0.00381806
-0.000713005
0.00104136
-0.00278512
-0.00044164
0.000608293
0.00113763
-0.00121676
-0.000510182
0.000297479
-0.000508973
0.000240167
-0.00437779
-0.000577117
0.000805999
-0.00390661
-0.000714713
0.000680454
-0.00297397
-0.000905249
0.000766753
-0.002072
-0.000555397
0.00091567
-0.00138844
-0.000455942
0.000568732
6.88465e-05
-0.000537273
0.000223614
-0.000562222
0.00056972
-0.000540336
8.07841e-05
-0.000319974
0.000398437
-0.00334465
-0.00054304
0.000453803
-0.00265714
-0.000519247
0.000635417
-0.00244956
-0.000358028
0.000674821
-0.00145617
-0.000223635
0.000700354
0.000683165
-0.000311444
0.00052466
0.00155087
-0.000316293
0.000326121
0.00180296
-0.000336434
-2.43611e-05
-0.00182082
0.00196016
-0.00035223
2.17995e-05
-0.000163933
0.000278504
-0.00195815
-0.000377763
0.000357973
-0.00153527
-0.000274558
0.000515559
-0.00100314
-0.000190521
0.000554863
-0.000374764
-0.000133578
0.000489968
0.00198035
-0.00011445
0.000399427
0.00254897
-0.000175017
0.000308352
0.00269095
-0.000167967
0.000132782
0.00318219
-0.000176149
8.67018e-05
-0.00358056
0.00352657
-0.000191834
-8.44352e-06
-4.47396e-05
0.000192686
5.74248e-05
-0.000101898
0.000236552
0.000612814
-8.21385e-05
0.00028609
0.000161079
-6.92677e-05
0.000312681
0.000765585
-3.84599e-05
0.000250628
0.00307105
-3.00413e-05
0.00019109
0.00329576
-4.23022e-05
0.00014638
0.00339019
-5.97814e-05
6.54805e-05
0.00348709
-5.13142e-05
1.90799e-05
0.00382846
-5.27402e-05
-2.36458e-05
-0.00319281
0.00323465
-6.3592e-05
0.000946789
0.00620785
-0.00648031
0.00308503
0.00118748
0.00239117
0.00103073
-0.00680924
0.00297321
0.0011781
0.00611529
-0.00583352
0.00237656
0.00134564
0.00103844
0.000786804
-0.00636506
0.00186933
0.00121974
-0.00617113
0.00155994
0.00151701
0.00833806
-0.00785344
0.000933395
0.00176042
0.000486269
0.00061135
-0.00584994
0.00124222
0.000931119
-0.00599003
0.000647698
0.00172131
-0.00824741
-0.000110146
0.00157638
0.00795456
-0.00806689
0.000544613
0.00194797
-0.000404198
0.000191979
-0.00440017
0.000258222
0.000457037
-0.0065404
-0.000171052
0.00127085
-0.00755373
-0.000216043
0.00201463
-0.00610768
-0.000290038
0.00134964
0.00532945
-0.00559705
-3.70364e-05
0.0013458
-0.000205632
4.81325e-05
-0.00467227
-0.00035777
0.000496246
-0.0066489
-0.000264224
0.000910818
-0.00682544
-0.000131991
0.00156949
-0.00614917
-0.000287375
0.00147458
-0.003744
-0.000409995
0.000766854
0.0014292
-0.0016017
-0.000282262
0.000435039
-0.000477928
-5.59493e-05
-0.005027
-0.000470983
0.000675305
-0.00587868
-0.000398415
0.000885719
-0.0057679
-0.000581099
0.00111347
-0.0041095
-0.00073763
0.000977034
-0.00291607
-0.000643421
0.000807881
-0.00123819
-0.000659359
0.000320694
0.000788676
-0.000812568
-0.00058337
6.46156e-05
-0.000577266
0.000227
-0.00425491
-0.000584268
0.000514684
-0.0039563
-0.000588307
0.000906399
-0.00317349
-0.000786174
0.000681318
-0.00232996
-0.000653778
0.0010152
-0.00184142
-0.000417264
0.000695754
-5.38421e-05
-0.000504347
0.000295973
0.000647351
-0.000584757
-0.000198115
-2.16219e-05
0.000235191
-0.000580152
-5.06416e-05
-0.000357362
0.00038471
-0.00340021
-0.000539934
0.00049006
-0.00281894
-0.000513326
0.000572882
-0.00261205
-0.000414079
0.000591415
-0.00159915
-0.000251602
0.000708904
0.000550638
-0.000310044
0.000575076
0.00139058
-0.000326807
0.000416475
0.00171234
-0.000333797
0.000112893
0.00202149
-0.000377882
3.91333e-05
-0.00247947
0.00256491
-0.0003901
5.05473e-05
-0.000191321
0.000286941
-0.00204476
-0.000383248
0.000338112
-0.00171753
-0.00029706
0.000486756
-0.00127682
-0.000201544
0.00054529
-0.000644541
-0.000153353
0.000548595
0.00166451
-0.000115713
0.000426144
0.00237431
-0.000174847
0.000360324
0.00247217
-0.000170174
0.000183543
0.00307175
-0.000175589
0.000146011
0.00343869
-0.000215202
5.95885e-05
-0.003255
0.00318278
-0.000202852
-3.66387e-05
-6.31078e-05
0.000198202
-0.000168553
-0.000107228
0.000236299
0.000358785
-8.41673e-05
0.000271385
-0.000117383
-7.50619e-05
0.000312113
0.000426408
-4.22028e-05
0.000254186
0.00280643
-2.8024e-05
0.000206366
0.00310099
-4.16369e-05
0.000163514
0.00324364
-5.92701e-05
7.68772e-05
0.00340147
-5.10439e-05
3.35527e-05
0.0037948
-5.12107e-05
-1.00476e-05
0.00326282
-7.08569e-05
-6.67182e-05
-0.00169331
0.00176053
-6.40974e-05
0.00102457
0.00616266
-0.0061932
0.00333813
0.00113212
0.00281028
0.00101271
-0.0067168
0.00342965
0.00141342
0.00572998
-0.00578143
0.00290117
0.00129116
0.00200694
0.00103511
-0.00710725
0.00257091
0.00104585
-0.0056338
0.00294737
0.00167831
0.00761498
-0.00719769
0.00179797
0.0022214
0.000807368
0.000926228
-0.0065356
0.00196437
0.000755671
-0.00631769
0.00219134
0.00147962
-0.00721123
0.00115942
0.00160982
0.00881911
-0.00865874
0.000739589
0.00171018
0.000682259
0.000454897
-0.00596413
0.00114039
0.000534218
-0.00571307
0.000888074
0.00143115
-0.00771021
-4.9796e-05
0.00168416
-0.00811908
0.00027251
0.00155608
0.00767502
-0.00764576
0.000308913
0.00121864
3.98552e-05
0.00018726
-0.00456019
0.000198712
0.000511508
-0.00608631
-0.000211137
0.00107229
-0.00740155
-0.000484698
0.00191488
-0.00641393
-0.000255182
0.00163908
-0.00600104
-5.05503e-05
0.000900492
0.00375013
-0.00394514
2.43369e-05
0.00069908
-0.000292361
-3.38756e-05
-0.00464756
-0.000401498
0.000525762
-0.00644008
-0.00041704
0.000835275
-0.00666243
-0.000376786
0.00139578
-0.00628363
-0.000279846
0.00141947
-0.00400862
-0.000465192
0.00115153
-0.00194324
-0.000412106
0.000500474
0.00179907
-0.00186472
-0.000396384
0.000184761
-0.000554174
-2.30433e-05
-0.00477039
-0.000521774
0.000407591
-0.00558707
-0.000655503
0.00082662
-0.00541749
-0.000669045
0.0011161
-0.00440205
-0.000723329
0.00102975
-0.00296557
-0.000702678
0.00091685
-0.00136253
-0.000740174
0.000391171
-0.000859667
-0.000707458
-0.00025553
0.00125336
-0.00110278
-0.000676537
-0.000239829
-0.000621063
0.000210555
-0.00406895
-0.000585127
0.000500402
-0.00397048
-0.000580425
0.000882844
-0.00345047
-0.000621286
0.000637713
-0.00247834
-0.000684101
0.00100811
-0.00235369
-0.000440714
0.00085008
-0.000248713
-0.000497396
0.000393572
0.000735187
-0.00056928
2.6915e-06
0.000406432
-0.000645796
-0.000197272
-0.000121148
0.000337877
-0.000560476
-3.74916e-05
-0.000398257
0.000485128
-0.00357385
-0.000512302
0.000472076
-0.0029808
-0.000512037
0.000552178
-0.00271693
-0.000473872
0.000620588
-0.00183622
-0.000252307
0.000731473
0.000412556
-0.000296398
0.00063543
0.00121458
-0.000343332
0.000526917
0.0015377
-0.000318758
0.000226648
0.00201961
-0.00037502
0.000137138
0.00261278
-0.000416881
4.90861e-05
-0.00251009
0.00250331
-0.000372813
1.15293e-05
-0.000202227
0.000312607
-0.00213114
-0.000384167
0.000353308
-0.0018916
-0.000326182
0.000460591
-0.00154118
-0.000221902
0.000489474
-0.000865375
-0.000158071
0.000590528
0.00131813
-0.000143313
0.000454402
0.00218236
-0.000171798
0.00040793
0.00222774
-0.000174832
0.000234336
0.00291493
-0.000170811
0.000166082
0.00334666
-0.000216087
0.000103235
0.00308245
-0.000228159
-9.06626e-05
-0.00225514
0.00225288
-0.000176644
-7.51545e-05
-6.4083e-05
0.000221863
-0.000413219
-0.000107469
0.000229313
0.000106666
-8.44224e-05
0.000245094
-0.000369676
-7.69678e-05
0.00029377
0.000102624
-4.50482e-05
0.000260197
0.0025308
-2.67707e-05
0.00022019
0.00289293
-4.01626e-05
0.000177342
0.00308404
-5.93777e-05
8.73086e-05
0.00330582
-5.09252e-05
4.61399e-05
0.00374988
-5.22615e-05
3.14148e-06
0.00327962
-7.1154e-05
-6.44097e-05
0.00182531
-7.12278e-05
-9.38703e-05
-0.00140539
0.00149386
-5.86977e-05
0.00100335
0.00628755
-0.00628817
0.00335115
0.00137326
0.00335946
0.00131752
-0.00642847
0.00364921
0.00168696
0.00583204
-0.00593781
0.00317036
0.00125059
0.00253462
0.00126025
-0.00707737
0.00321522
0.00124249
-0.0059032
0.00335478
0.00197132
0.00664353
-0.00662792
0.00259255
0.00256123
0.00145566
0.00115469
-0.00710336
0.00239776
0.000850599
-0.00606476
0.00290695
0.0018718
-0.0067668
0.00212431
0.00181787
0.00906465
-0.00872747
0.00125273
0.00204472
0.000668454
0.000906948
-0.00696945
0.00210243
0.00103986
-0.00606394
0.00120498
0.00141255
-0.00690307
0.00190178
0.00172926
-0.00835258
0.000808168
0.00178241
0.00884985
-0.00902634
0.000689753
0.00162566
0.000320056
0.000597079
-0.00633471
0.00128421
0.000609478
-0.00532338
0.000652735
0.00114519
-0.00709184
0.000196803
0.00174835
-0.0080251
2.27552e-05
0.00179638
-0.00796159
0.000431048
0.0015123
0.00661112
-0.0071822
0.000268186
0.000981877
0.000122293
0.000652812
-0.00534373
0.000240544
0.000348455
-0.00518326
-0.000527025
0.000883518
-0.00700037
-0.000660564
0.00164154
-0.00666066
-0.000483721
0.00153696
-0.00610088
-0.000272835
0.000940994
-0.00381667
3.15159e-05
0.00078639
0.0021476
-0.00228611
-0.000123072
0.000283114
-0.000351255
9.5212e-05
-0.00474007
-0.000431331
0.000240439
-0.00611538
-0.000559049
0.000955872
-0.00682646
-0.000382265
0.00118526
-0.00613157
-0.000598013
0.0015164
-0.00427308
-0.00050203
0.00144528
-0.00252425
-0.000412607
0.000623802
-0.00198237
-0.000527096
-0.000132939
0.00171431
-0.00172207
-0.000511216
-0.00039573
-0.000679947
8.72156e-05
-0.00471714
-0.000506088
0.000343426
-0.00535949
-0.000592375
0.000887365
-0.00526248
-0.000815034
0.000997041
-0.00463002
-0.000800396
0.00104113
-0.00304325
-0.00067867
0.00112494
-0.00163131
-0.000708758
0.000423527
-0.000908579
-0.000721216
-0.0001774
-0.000812676
-0.000817471
-0.000500035
0.00194524
-0.00164206
-0.000676962
-0.000272362
-0.00056821
0.000377072
-0.00398777
-0.000545641
0.00048517
-0.00397515
-0.000593559
0.000743626
-0.00364159
-0.000580757
0.000761304
-0.00268188
-0.000558453
0.000972778
-0.00279372
-0.000485376
0.000982725
-0.00053931
-0.000497411
0.000585266
0.000732735
-0.000553294
0.000208709
0.000484394
-0.000629304
-5.78294e-06
0.000448732
-0.00061373
-0.000211263
-0.000194947
0.000386881
-0.000492061
-5.31735e-05
-0.000378042
0.000344003
-0.00358441
-0.000510693
0.000481587
-0.00312576
-0.000495629
0.000518911
-0.00279086
-0.000496428
0.000528402
-0.00202479
-0.000324226
0.000826576
0.00018967
-0.000265468
0.000712176
0.00100982
-0.00034941
0.000630522
0.00129464
-0.000322871
0.000353477
0.0019302
-0.000348483
0.000193318
0.00262534
-0.000414815
0.000105543
0.00248625
-0.000402133
-0.00023333
-0.00233509
0.00241888
-0.000313939
-0.000103067
-0.000174499
0.000364127
-0.00223018
-0.000357654
0.000334423
-0.00203318
-0.000347696
0.000399821
-0.00177163
-0.000250462
0.000433517
-0.00104604
-0.000180985
0.000567986
0.000990689
-0.000138417
0.000466908
0.00196383
-0.000171501
0.000438603
0.00197421
-0.000179537
0.000273853
0.00273088
-0.000177324
0.000217397
0.00321741
-0.000212824
0.000139935
0.00295809
-0.000228515
-7.00303e-05
0.0022294
-0.000199055
-0.000187237
-0.00156326
0.00163634
-0.000156361
-0.000102896
-5.86888e-05
0.000235584
-0.000668676
-0.000100368
0.000229908
-0.000147169
-8.3542e-05
0.000233198
-0.000609778
-7.75181e-05
0.000276144
-0.000204949
-4.55386e-05
0.000262397
0.00224861
-2.52545e-05
0.00023446
0.00267167
-3.99654e-05
0.000184455
0.0029193
-5.9879e-05
0.000103672
0.00319541
-5.26397e-05
5.17967e-05
0.00369962
-5.246e-05
1.86164e-05
0.00328097
-7.22296e-05
-5.28317e-05
0.00187838
-7.13917e-05
-8.9962e-05
0.00157801
-6.54154e-05
-9.80216e-05
-0.00137899
0.001478
-5.9689e-05
0.00106393
0.00571537
-0.00602379
0.00379099
0.00168045
0.00341978
0.00152629
-0.00648851
0.00363875
0.00119736
0.0060078
-0.00566335
0.0034963
0.00125822
0.00328095
0.00159141
-0.00678693
0.003548
0.00143277
-0.00597457
0.00349569
0.00211399
0.00582568
-0.00601964
0.00322164
0.00224681
0.00232809
0.00105049
-0.00691274
0.00302162
0.000770936
-0.0059702
0.00336189
0.00219894
-0.00661266
0.00301237
0.00173398
0.00834735
-0.00787323
0.00220231
0.00203405
0.00129096
0.00127544
-0.00736027
0.00255229
0.00126539
-0.00641936
0.00252683
0.00161398
-0.00674564
0.00268436
0.00219674
-0.00842485
0.00135421
0.00173306
0.00917772
-0.00894845
0.00107281
0.00192571
0.000747325
0.0010785
-0.00759152
0.00224982
0.00070151
-0.00600451
0.00195097
0.00129022
-0.00671401
0.000870888
0.00208591
-0.00761635
0.000827988
0.00182016
-0.00892287
0.000680917
0.0016722
0.00847897
-0.00895919
0.00101008
0.001129
0.000353374
0.00155595
-0.00718711
0.000888304
0.000440524
-0.00499701
0.000865777
0.00101325
-0.00661835
4.95186e-05
0.00177216
-0.00790216
-5.6756e-05
0.00167069
-0.00827023
0.000197672
0.00117724
-0.00750306
0.000515661
0.0009029
0.00447574
-0.00495033
0.000626256
0.000237239
-5.35848e-05
0.000477922
-0.00576505
5.51363e-05
0.000253613
-0.00489993
-5.59665e-05
0.00111007
-0.00687402
-0.000807567
0.00146486
-0.00697297
-0.000627846
0.0016496
-0.00622624
-0.000491559
0.00153891
-0.00405954
-0.000123591
0.00101881
-0.00243219
-0.000217412
-0.000127728
0.00216501
-0.00223141
-6.18822e-05
-0.000297574
-0.000496667
0.000328078
-0.00485784
-0.00055183
0.000198738
-0.00587463
-0.000527399
0.000662091
-0.00658601
-0.000574227
0.00102045
-0.00589339
-0.000643862
0.00134149
-0.00452525
-0.00064621
0.0015268
-0.00295784
-0.000470311
0.000678965
-0.0020948
-0.00055561
7.44473e-05
-0.00185261
-0.000648405
-0.00070871
0.00216251
-0.00193055
-0.000534497
-0.000509968
-0.00069685
0.000140967
-0.00457637
-0.000647827
0.000324372
-0.00512804
-0.00057674
0.00075179
-0.00518668
-0.000676339
0.00110977
-0.00492246
-0.000871069
0.00101133
-0.00318687
-0.000695325
0.00120861
-0.00193918
-0.000596693
0.000585894
-0.000918309
-0.000699657
4.45438e-05
-0.000636419
-0.000733308
-0.000300143
-0.00133397
-0.0008312
-0.000581643
0.0026417
-0.00232601
-0.000622282
-0.000319194
-0.000485979
0.00028689
-0.00396586
-0.00049318
0.000473172
-0.00398727
-0.000525098
0.00061885
-0.00375566
-0.000579424
0.000792005
-0.00300463
-0.000521614
0.000902836
-0.00292714
-0.000501291
0.00108263
-0.000890698
-0.000504443
0.000796156
0.000616744
-0.000547053
0.000374933
0.000513194
-0.000603549
-4.55225e-06
0.000617164
-0.000599865
-5.30994e-05
0.000484524
-0.00055273
-0.000652062
0.000119946
0.00020078
-0.000394055
-0.000238379
-0.000304626
0.000354868
-0.00356766
-0.000491005
0.000454794
-0.00325917
-0.000497653
0.000516464
-0.00289301
-0.00051012
0.00050526
-0.00218698
-0.000405989
0.00083002
-0.000125766
-0.000270824
0.000729929
0.000843993
-0.00036266
0.000672065
0.00104147
-0.000329698
0.000436553
0.00178291
-0.000338286
0.000313458
0.00257869
-0.0003979
0.000170926
0.00243401
-0.00039356
-0.000167489
0.00247077
-0.000356562
-0.000355479
-0.00183747
0.00194975
-0.000257975
-0.000224809
-0.000150807
0.000379797
-0.00232916
-0.000323465
0.000349663
-0.00216422
-0.000346376
0.000372747
-0.00199186
-0.000267015
0.000417562
-0.0012451
-0.000192814
0.00049381
0.000720092
-0.000141801
0.000488074
0.00173164
-0.000159838
0.000455587
0.00171079
-0.000179214
0.000308764
0.0025227
-0.000176457
0.000259221
0.0030474
-0.000214732
0.000160142
0.00283522
-0.000231479
-4.7579e-05
0.00218683
-0.000191195
-0.000175074
0.00170322
-0.000180821
-0.000214541
-0.000907057
0.000995592
-0.000128377
-0.000105793
-5.97504e-05
0.000244369
-0.000932227
-8.94172e-05
0.000240583
-0.000409311
-7.88089e-05
0.000236335
-0.000852165
-7.74898e-05
0.000259293
-0.000495326
-4.64349e-05
0.000266897
0.00195988
-2.37074e-05
0.00024386
0.00244155
-3.89917e-05
0.000189577
0.00274902
-5.92591e-05
0.000112924
0.00307516
-5.25572e-05
6.64321e-05
0.00363435
-5.3807e-05
3.02711e-05
0.00327026
-7.20196e-05
-3.80422e-05
0.00191643
-7.2236e-05
-8.93272e-05
0.00166117
-6.52227e-05
-9.59049e-05
0.00157412
-6.56312e-05
-0.000111519
-0.000552402
0.000661776
-5.75434e-05
0.000565591
0.00505054
-0.00492855
0.00445783
0.00122353
0.00386136
0.00134027
-0.00604684
0.00408453
0.000649079
0.0057777
-0.00544912
0.00401069
0.000938407
0.00366316
0.00152495
-0.00648581
0.00369326
0.00116079
-0.00560905
0.00385643
0.00168922
0.00624441
-0.0061734
0.00385005
0.00152266
0.00351369
0.000946581
-0.00665918
0.00341714
0.000658956
-0.00618121
0.00386662
0.00237472
-0.00606947
0.00336974
0.00136815
0.00712464
-0.00704315
0.00350598
0.00184361
0.00232811
0.00141496
-0.00705729
0.0030462
0.00142918
-0.00633781
0.00322543
0.00140944
-0.0060657
0.00301947
0.00229038
-0.00751329
0.00255881
0.00151611
0.0086089
-0.00832092
0.00213128
0.00155364
0.00128586
0.00127702
-0.00745931
0.00243119
0.000964385
-0.0067845
0.00265456
0.00136651
-0.00651259
0.00221748
0.00212113
-0.00786706
0.00209135
0.00207397
-0.0090443
0.00119625
0.0011166
0.0094573
-0.00929331
0.00146443
0.000813369
0.00123609
0.00168357
-0.0074231
0.00139763
0.00094362
-0.00604694
0.00178916
0.00104546
-0.00616631
0.00137106
0.0016979
-0.00734985
0.000678648
0.0017412
-0.00875534
0.00058994
0.00163756
-0.00933186
0.000593271
0.00109591
0.00822957
-0.00875515
0.00134265
0.000136247
0.000763325
0.000943107
-0.00736303
0.000861669
0.00079819
-0.00540627
0.000752987
0.000886823
-0.00578862
0.000259297
0.00158976
-0.00787096
-0.000106584
0.00185837
-0.00833727
-0.000198488
0.00144975
-0.00746253
0.000246296
0.00173403
-0.00567218
0.000522291
-0.000419535
0.00380966
-0.00374239
0.000850801
-0.000326598
-0.000219334
0.000711818
-0.00597431
-0.000194086
0.000128693
-0.0045328
-0.000241945
0.00072427
-0.00659532
-0.000396855
0.00134737
-0.00754585
-0.000561603
0.00158242
-0.00644848
-0.000646546
0.00184087
-0.00459493
-0.000270237
0.000863967
-0.00258312
-0.00015766
0.000322016
-0.00234007
-0.000356323
-0.000947694
0.00198595
-0.00183635
2.75031e-05
-0.000711204
-0.000631963
0.000387625
-0.00498447
-0.000671092
0.000128911
-0.00563409
-0.000596902
0.000635958
-0.00657945
-0.000418129
0.00129599
-0.00594963
-0.0007042
0.00114544
-0.00458095
-0.000722269
0.001427
-0.00327559
-0.000546844
0.000825544
-0.0022481
-0.000556659
0.000231537
-0.00182761
-0.000767601
-0.000615675
-0.00159502
-0.00066841
-0.000930266
0.0033664
-0.00290539
-0.000646881
-0.000533918
-0.000596828
0.000311603
-0.00473066
-0.000753994
0.000251762
-0.00481464
-0.00073982
0.000614653
-0.00510676
-0.000652456
0.000849752
-0.00477765
-0.000878893
0.000995828
-0.00338933
-0.0007616
0.00115272
-0.00212545
-0.000579141
0.000796897
-0.000827382
-0.000688361
0.000219978
-0.000459731
-0.000721391
-0.000266138
-0.00115386
-0.000651825
-0.000443189
-0.00202145
-0.000745667
-0.000841817
0.0026312
-0.00247597
-0.000587765
-0.000678499
-0.000377163
0.000312024
-0.0039153
-0.000551383
0.000452073
-0.00402184
-0.000455888
0.000619219
-0.00382662
-0.000556901
0.000797047
-0.00339114
-0.000484704
0.000840097
-0.0029455
-0.00051333
0.00111669
-0.00124385
-0.000534905
0.000942386
0.000397163
-0.000555183
0.000483995
0.000510545
-0.000591847
0.000185164
0.000731069
-0.000589161
-0.000174306
0.000771854
-0.000541963
-0.000544091
0.000510274
-0.000485623
-0.000815855
0.000647281
-0.000277606
-0.000303353
-0.000414708
-0.000242224
0.00038121
-0.00356869
-0.00048192
0.000405805
-0.00332899
-0.000477328
0.00055174
-0.0030648
-0.000504858
0.000489385
-0.00231039
-0.000458527
0.000739703
-0.000462756
-0.000314891
0.000713876
0.000717227
-0.00036986
0.000681065
0.000804006
-0.000350674
0.000495386
0.00159043
-0.000323839
0.000424615
0.00245499
-0.000379974
0.000227894
0.00235906
-0.000390706
-0.000100817
0.00249143
-0.000360978
-0.000334561
0.00204541
-0.000292738
-0.00040407
-0.00125424
0.00137337
-0.00018757
-0.000249323
-0.000120799
0.000366443
-0.00241342
-0.000282219
0.000370046
-0.00228281
-0.000334333
0.000434251
-0.00225573
-0.000280424
0.000408397
-0.00146554
-0.000195681
0.000453236
0.000483498
-0.00014256
0.000518221
0.00146785
-0.000152372
0.00046718
0.00145226
-0.000178904
0.000325299
0.00230676
-0.000175641
0.00028675
0.00286025
-0.000209625
0.000193493
0.00268652
-0.000229254
-1.43838e-05
0.00213865
-0.000206963
-0.000160968
0.00176164
-0.000177973
-0.000205987
0.00107492
-0.000150071
-0.000265856
3.69115e-05
7.86459e-05
-8.95971e-05
-0.000114778
-6.01587e-05
0.000249688
-0.0012013
-7.67631e-05
0.000255521
-0.000683167
-7.10827e-05
0.000241787
-0.00109504
-7.7717e-05
0.00024325
-0.00076962
-4.64454e-05
0.000275464
0.00166107
-2.30825e-05
0.000252233
0.00220281
-3.72057e-05
0.000191874
0.00257675
-5.85938e-05
0.000121805
0.00294653
-5.24278e-05
8.54234e-05
0.00354906
-5.26909e-05
4.33849e-05
0.0032455
-7.24266e-05
-3.40094e-05
0.00195069
-7.22678e-05
-6.44526e-05
0.00171948
-6.60904e-05
-8.47757e-05
0.00165891
-6.52386e-05
-0.000118729
0.00077666
-6.17871e-05
-0.000154413
0.000116805
2.985e-05
-4.97854e-05
0.000458457
0.00521368
-0.00523186
0.00461533
0.000636896
0.0045525
0.00127812
-0.00508786
0.00481202
0.000781361
0.00515379
-0.00541577
0.00458752
0.000586294
0.00406893
0.00104344
-0.00591713
0.00408631
0.000608533
-0.0052866
0.00447427
0.000844628
0.00623584
-0.00581383
0.00443328
0.0010399
0.00410432
0.000809126
-0.00635639
0.00378842
0.000940124
-0.00612927
0.00393231
0.00183225
-0.0058605
0.00408601
0.000667814
0.00619123
-0.00598222
0.00434137
0.00150619
0.00370906
0.00145344
-0.00666344
0.0033372
0.00127191
-0.00622765
0.00362085
0.000888195
-0.00538708
0.00370547
0.00154785
-0.00634578
0.00341489
0.0013002
0.00783761
-0.00774149
0.00362577
0.0010681
0.00243525
0.00127228
-0.00699491
0.00293162
0.00127978
-0.00678675
0.00317975
0.00165115
-0.00637876
0.00325385
0.0021043
-0.00696269
0.00248569
0.00314417
-0.00895899
0.00212667
0.00104341
0.00890811
-0.00885037
0.00214673