/*--------------------------------*- C++ -*----------------------------------*\
  =========                 |
  \\      /  F ield         | OpenFOAM: The Open Source CFD Toolbox
   \\    /   O peration     | Website:  https://openfoam.org
    \\  /    A nd           | Version:  7
     \\/     M anipulation  |
\*---------------------------------------------------------------------------*/
FoamFile
{
    version     2.0;
    format      ascii;
    class       surfaceScalarField;
    location    "4.5";
    object      phi_0;
}
// * * * * * * * * * * * * * * * * * * * * * * * * * * * * * * * * * * * * * //

dimensions      [0 3 -1 0 0 0 0];

internalField   nonuniform List<scalar> 
54006
(
0.000204725
-0.00234981
0.00211756
-5.83735e-05
0.000403173
0.0002786
-0.000575201
-0.000182092
0.000224034
-5.78361e-05
0.0002131
0.00186881
-6.50423e-05
0.000225311
-0.00294371
0.00270464
-4.46169e-05
0.000429488
0.0023444
-0.00238647
-0.000537974
0.000430539
-0.000190013
0.000375489
-0.00086355
-0.00019351
0.000442055
-0.000407745
0.000175271
-0.000166361
0.000205537
-4.39981e-05
0.000205323
0.00162505
-6.60783e-05
0.000264925
0.00242458
-4.99092e-05
0.000224134
-0.00245383
0.00221867
-3.35918e-05
0.000684338
0.00390458
-0.00411823
-0.000722228
0.000403608
-0.000534595
0.000454091
-0.00252879
-0.000575427
0.000512995
0.00113531
-0.00133464
-0.000409591
0.000389103
-0.000174018
0.000327774
-0.00109992
-0.000220814
0.000570406
-0.000149443
-0.000174277
0.000501557
-0.00092673
0.000629634
-0.000146689
0.000216022
-3.26207e-05
0.000189715
0.00139364
-6.6896e-05
0.000257828
0.00215295
-5.22815e-05
0.000252709
0.00195455
-3.8492e-05
0.000214445
-0.00270824
0.00248949
-2.92963e-05
0.00065354
0.00570514
-0.00559417
-0.00042605
0.000697332
-0.000716827
0.000769926
-0.0043837
-0.000771354
0.000758925
0.00375674
-0.00391413
-0.000810765
0.000539259
-0.000428981
0.000443626
-0.00274876
-0.000550983
0.000619547
-0.00155599
-0.000403213
0.000679596
0.000927331
-0.00126046
-0.000254501
0.000484964
-0.000128101
0.000278344
-0.00129201
-0.000252128
0.000546956
-0.000460626
-0.00019876
0.000536373
0.00035078
-0.000179087
0.000484093
-0.001727
0.00140982
-9.91538e-05
0.000209828
-2.90132e-05
0.00018215
0.00116852
-6.94773e-05
0.000253106
0.00188754
-5.45863e-05
0.000260745
0.00168149
-3.99717e-05
0.000244863
0.00223811
-3.19703e-05
0.00014273
-0.00430947
0.00416751
-3.00651e-05
0.000450058
0.00634169
-0.00604389
-0.000540564
0.000803499
-0.000461306
0.000615497
-0.00550957
-0.000488516
0.00089949
0.00544452
-0.00556702
-0.000444117
0.00079087
-0.000748718
0.000756985
-0.00464341
-0.000731498
0.000773313
-0.00394704
-0.000892215
0.000680423
0.00209686
-0.00227411
-0.000634348
0.00070183
-0.00026509
0.000408976
-0.00291374
-0.000565638
0.000638182
-0.00183864
-0.000359556
0.000731257
-0.0015656
-0.000292953
0.000803241
0.000103074
-0.000436559
-0.000240164
0.00046635
-8.5168e-05
0.000266699
-0.00146536
-0.000272986
0.000472319
-0.000724971
-0.000206995
0.000532824
7.55424e-05
-0.000195601
0.000540865
0.00104997
-0.000115235
0.000271358
-0.00295092
0.0028431
-0.000119965
0.000130939
-3.14416e-05
0.000176961
0.000948453
-7.38033e-05
0.000250631
0.00162713
-5.96993e-05
0.000280242
0.00138884
-4.21819e-05
0.000254786
0.00197598
-3.2625e-05
0.000175258
0.00399236
-3.20725e-05
0.000118162
-0.00405248
0.00394553
-4.12733e-05
0.000418824
0.00631313
-0.00588087
0.000392736
0.000726766
-0.000207562
0.000379125
-0.0057494
-0.000252422
0.000858843
0.00652909
-0.00691995
-0.000109058
0.00086893
-0.00037071
0.000747973
-0.00548483
-0.000506565
0.000919087
-0.00570803
-0.000493287
0.000946677
0.00536929
-0.00570041
-0.000379245
0.000703012
-0.000606778
0.000597761
-0.00473628
-0.000759302
0.000739796
-0.00387243
-0.00090772
0.000802441
-0.00250784
-0.000729662
0.000838528
0.0009396
-0.00119065
-0.000418586
0.000769818
-0.000239322
0.00043467
-0.00305873
-0.000596775
0.000528867
-0.00205833
-0.000402499
0.000699057
-0.00180035
-0.000291041
0.000869509
-0.000782049
-0.000276107
0.000377191
-0.00127253
0.0012033
-0.000276769
0.000246917
-0.000123496
0.000264449
-0.00161489
-0.000304738
0.000410218
-0.000939584
-0.00021796
0.000552211
-0.000203521
-0.0001999
0.00054284
0.000673393
-0.000107083
0.000343597
0.00268597
-0.000126445
0.000254928
-0.00308144
0.00298381
-0.000159101
0.000103306
-4.24373e-05
0.00017753
0.000729732
-8.02157e-05
0.000244199
0.00137438
-6.52595e-05
0.000292709
0.00108297
-4.65367e-05
0.000264764
0.00170239
-3.33571e-05
0.000197064
0.00379392
-3.12575e-05
0.000144065
0.00381445
-4.50558e-05
7.97891e-05
-0.0038101
0.00374278
-5.37439e-05
0.000413601
0.00612981
-0.00589444
0.00125629
0.000547013
0.000195813
0.000394654
-0.00546265
0.000367054
0.000793276
0.00731809
-0.00697401
0.000114219
0.00100115
-0.000183216
0.000487123
-0.00542357
-8.18542e-05
0.000803693
-0.00702923
-2.77556e-05
0.00124572
0.00633336
-0.00670012
-4.13438e-05
0.00104767
-0.000148052
0.000580135
-0.00553236
-0.00035003
0.000805486
-0.00589791
-0.000382368
0.00100962
-0.00586156
-0.000539322
0.00094338
0.003165
-0.00332127
-0.000327827
0.000823631
-0.000428403
0.000486707
-0.0047018
-0.000667566
0.000719972
-0.00386815
-0.000954685
0.000756559
-0.00268614
-0.000786928
0.000895205
-0.00143045
-0.000515562
0.000613564
0.000610794
-0.000770678
-0.000495074
0.000329475
-0.000275073
0.000458118
-0.00319158
-0.000585577
0.000445938
-0.00223333
-0.000457496
0.000596639
-0.00194874
-0.000298542
0.000823506
-0.00107635
-0.000277402
0.000502911
0.00108059
-0.000312708
0.000325611
-0.00190815
0.00183515
-0.000274451
0.000212826
-0.000160056
0.000265337
-0.0017461
-0.000333276
0.000362707
-0.00112859
-0.000234236
0.000548216
-0.000467836
-0.000209153
0.000545481
0.00031264
-0.000119864
0.000394351
0.00248672
-0.000105119
0.000319428
0.00285788
-0.000175881
0.000186233
-0.00315128
0.00303672
-0.000150987
6.22455e-05
-5.36572e-05
0.000182865
0.000508477
-8.79165e-05
0.00024289
0.0011228
-7.15204e-05
0.000300497
0.000770175
-5.29586e-05
0.000278417
0.00141152
-3.40891e-05
0.000219155
0.00357234
-3.09266e-05
0.00016244
0.00366451
-4.37591e-05
0.000112637
0.00364515
-6.00569e-05
2.29056e-05
-0.00363964
0.00360788
-4.48925e-05
0.000454961
0.00663232
-0.00640825
0.00163797
0.000558446
0.00119618
0.00112023
-0.00565578
0.000421628
0.00104409
0.00745702
-0.00681164
0.000360095
0.000969691
4.59261e-05
0.00035275
-0.00484471
0.000154661
0.00136872
-0.00729478
0.000122805
0.00162365
0.00720228
-0.00719786
-0.000268144
0.00140373
-0.000352505
0.000322348
-0.00507954
-0.00017082
0.000680022
-0.00689925
-8.63609e-05
0.00111331
-0.00689239
6.08291e-05
0.00159552
0.00499163
-0.00547694
-0.000208169
0.000910356
-0.000198972
0.000348918
-0.0055136
-0.000349928
0.000780245
-0.00598317
-0.000325051
0.000965106
-0.00580825
-0.000644226
0.00109778
-0.00363539
-0.000427782
0.00101965
0.00218703
-0.0025348
-0.000386141
0.000535366
-0.000500532
0.000386311
-0.00457682
-0.000624525
0.000596498
-0.00379707
-0.000889208
0.000743663
-0.00291388
-0.000873964
0.000821926
-0.00170657
-0.000509223
0.000790841
-0.00104209
-0.000532078
0.000402861
-0.000253303
0.000193365
-0.000512387
0.000257514
-0.000279719
0.000419807
-0.00328079
-0.000567085
0.000576777
-0.00251466
-0.000518316
0.000584101
-0.00216591
-0.000276208
0.000740763
-0.00130524
-0.000264936
0.000617614
0.000889821
-0.000309899
0.000440279
0.00171146
-0.000309872
0.00020264
-0.00184041
0.00186041
-0.000310858
0.000139564
-0.000154697
0.000277211
-0.00186647
-0.000358482
0.000364364
-0.00133671
-0.000246635
0.000518415
-0.000718404
-0.000201586
0.000566717
-5.07205e-05
-0.000134092
0.000439267
0.0022539
-0.000107155
0.000366417
0.00272144
-0.00017266
0.000256863
0.00288331
-0.00016669
7.2852e-05
-0.00331122
0.00326962
-0.000159331
4.47344e-06
-4.43862e-05
0.00018578
0.000287801
-9.62787e-05
0.000241498
0.00087143
-7.80462e-05
0.000301994
0.000457892
-6.12318e-05
0.000298173
0.00109599
-3.55964e-05
0.000237421
0.00333134
-3.05142e-05
0.000176914
0.0034997
-4.30357e-05
0.000130974
0.00352986
-5.94422e-05
4.36104e-05
0.00355645
-5.22416e-05
-7.12201e-07
-0.00382905
0.00383073
-4.58568e-05
0.000790946
0.00654322
-0.00676553
0.00245313
0.000899781
0.00181112
0.0013157
-0.0062587
0.00189678
0.00138202
0.0070867
-0.00698992
0.00120327
0.00107352
0.000649081
0.000549905
-0.00562308
0.00119735
0.00167635
-0.006426
-0.000271634
0.00172694
0.00796741
-0.00793022
0.000219625
0.00166153
-0.000310949
0.000303544
-0.00456372
0.000251499
0.000807187
-0.00719685
-7.0435e-05
0.00157736
-0.00739631
-0.000142796
0.00179938
0.00592353
-0.00600081
-0.00039473
0.00173028
-0.000324048
0.000182063
-0.00490502
-0.000299803
0.000661477
-0.00677912
-0.000172187
0.000996198
-0.00695001
-5.98346e-05
0.00175157
-0.00587443
-0.000195472
0.00143242
0.00320209
-0.00352748
-0.000295553
0.000997791
-0.000377857
0.000150728
-0.00533973
-0.000369274
0.000665077
-0.00603109
-0.000370581
0.00107328
-0.00578295
-0.000679965
0.00108678
-0.0038389
-0.000705574
0.00104685
-0.00278209
-0.0004365
0.000604835
0.00113325
-0.00121365
-0.000507713
0.000295283
-0.00050821
0.000244086
-0.00439309
-0.000576271
0.000798788
-0.00392042
-0.000723186
0.000673759
-0.00298075
-0.000911999
0.000767623
-0.00205061
-0.00055678
0.000911401
-0.00138722
-0.00045788
0.000566784
7.21352e-05
-0.000537353
0.000221016
-0.000572788
0.000581254
-0.000539229
8.11325e-05
-0.000318575
0.000398789
-0.00334988
-0.000543249
0.000454173
-0.00264937
-0.000522185
0.000636215
-0.0024459
-0.000356129
0.000674395
-0.00146359
-0.000225531
0.000700589
0.000675011
-0.000311448
0.000523389
0.0015607
-0.000316106
0.000324428
0.0018184
-0.000335423
-2.71304e-05
-0.00183383
0.00197348
-0.000350525
1.91752e-05
-0.000162483
0.000277685
-0.00196709
-0.000377732
0.000356635
-0.00153674
-0.000273589
0.000514032
-0.000986498
-0.000190578
0.00055425
-0.000372606
-0.000135777
0.000490026
0.0019818
-0.000114597
0.000396861
0.00256942
-0.000175082
0.000307798
0.00270168
-0.000167858
0.0001311
0.00319051
-0.000175066
8.39019e-05
-0.00358258
0.00352998
-0.000191348
-1.01126e-05
-4.47108e-05
0.000191773
6.35052e-05
-0.000102728
0.000235106
0.000622585
-8.25389e-05
0.000286321
0.000163634
-7.01096e-05
0.00031297
0.000760571
-3.87846e-05
0.000248609
0.00307628
-2.9146e-05
0.000190839
0.00332013
-4.17827e-05
0.000145647
0.00340087
-5.96908e-05
6.35844e-05
0.00348447
-5.10466e-05
1.67334e-05
0.00381497
-5.32107e-05
-2.42956e-05
-0.00318576
0.00322798
-6.37823e-05
0.000959538
0.00619597
-0.00645874
0.00307499
0.0011991
0.00239128
0.00103001
-0.0067971
0.00297907
0.00119378
0.00612983
-0.00583794
0.00234949
0.00137092
0.00103759
0.000790422
-0.006355
0.0018667
0.00123178
-0.0062076
0.00155902
0.00153618
0.00835802
-0.0078799
0.000915906
0.00176505
0.000497854
0.000617671
-0.00583965
0.00124789
0.000976669
-0.00600955
0.000611417
0.00173245
-0.00825801
-9.89395e-05
0.00158471
0.00795038
-0.00806521
0.000549129
0.00194532
-0.000393157
0.000198556
-0.00440384
0.000263237
0.000453718
-0.00656653
-0.000171067
0.00128719
-0.0075447
-0.00021304
0.00200433
-0.00609234
-0.00030404
0.00134456
0.00532228
-0.00559082
-3.83223e-05
0.00133463
-0.000206322
5.30941e-05
-0.00467296
-0.000355422
0.000494259
-0.00665394
-0.000254167
0.000909807
-0.0068341
-0.000124621
0.00158229
-0.006143
-0.000286772
0.00147785
-0.00374341
-0.000410546
0.000761576
0.00142484
-0.00159687
-0.000280257
0.000431459
-0.000475801
-5.37823e-05
-0.00503632
-0.00046294
0.000685065
-0.00589539
-0.00039125
0.000889587
-0.00579384
-0.000575513
0.00111424
-0.00412715
-0.000738329
0.000978001
-0.00291298
-0.000641277
0.000805974
-0.00123372
-0.000655621
0.000315468
0.000785658
-0.000807476
-0.000580347
6.34631e-05
-0.000575895
0.000223566
-0.00427107
-0.00058277
0.000519323
-0.00397071
-0.000591129
0.000901596
-0.00317142
-0.000797899
0.000682672
-0.00231252
-0.00065837
0.00101062
-0.00183462
-0.000419416
0.000691895
-4.9314e-05
-0.000504936
0.00029326
0.0006586
-0.000583531
-0.000202306
-3.12242e-05
0.000246172
-0.000579
-5.32288e-05
-0.000355838
0.000378766
-0.003399
-0.000539999
0.000490134
-0.00281151
-0.000514604
0.00057256
-0.0026119
-0.000414713
0.000588186
-0.00160135
-0.000252308
0.000710285
0.000539503
-0.000310282
0.000573853
0.00139943
-0.000327171
0.000414711
0.00172825
-0.000332877
0.000110186
0.00203528
-0.000376306
3.60353e-05
-0.00249086
0.00257657
-0.000388359
4.7312e-05
-0.000190743
0.000286457
-0.00205488
-0.000382936
0.000335928
-0.0017182
-0.000297093
0.000486674
-0.00125964
-0.000200799
0.000544384
-0.000640599
-0.000153998
0.000547344
0.00166454
-0.000117251
0.000424565
0.00239583
-0.000174728
0.000359893
0.00248265
-0.000170299
0.000182182
0.00307865
-0.0001746
0.000142465
0.00344393
-0.00021475
5.69128e-05
-0.00324489
0.00317509
-0.000202762
-3.77942e-05
-6.30557e-05
0.000195442
-0.000159847
-0.000108198
0.000235348
0.00036888
-8.43709e-05
0.000270949
-0.00011445
-7.54036e-05
0.000311808
0.000421344
-4.26905e-05
0.000253825
0.00281118
-2.75014e-05
0.000206514
0.00312544
-4.09664e-05
0.000163189
0.00325497
-5.9079e-05
7.30446e-05
0.00340293
-5.11948e-05
3.00681e-05
0.00378455
-5.06978e-05
-1.10744e-05
0.00325667
-7.08324e-05
-6.75087e-05
-0.00168167
0.00174949
-6.41032e-05
0.00103259
0.0061506
-0.00617712
0.00333386
0.00113812
0.00280844
0.00101483
-0.00669741
0.00343463
0.00143144
0.00574003
-0.00577895
0.00287626
0.00131376
0.00199474
0.00102649
-0.00709829
0.00258915
0.00105731
-0.00561844
0.00293404
0.00170895
0.00763271
-0.00723785
0.00178186
0.00225523
0.000799345
0.000926042
-0.00651352
0.0019557
0.000760705
-0.00631121
0.00218627
0.00149242
-0.00723829
0.00115743
0.00162629
0.00881441
-0.00867013
0.000730046
0.00172168
0.00068502
0.000458073
-0.00594773
0.00113942
0.000530627
-0.00572996
0.000891388
0.00144505
-0.00773818
-6.62693e-05
0.00166478
-0.00812132
0.00029673
0.0015656
0.00767924
-0.00764614
0.000294982
0.00120995
3.71924e-05
0.000172248
-0.00453567
0.000202409
0.000519042
-0.00612092
-0.000207152
0.00108397
-0.00741172
-0.000478201
0.00192998
-0.00639874
-0.000254329
0.00163588
-0.00600462
-4.82678e-05
0.000910591
0.00374158
-0.00395525
2.6341e-05
0.000694113
-0.000293961
-3.3969e-05
-0.00464105
-0.000398878
0.000534267
-0.00644734
-0.000411222
0.000836876
-0.00666823
-0.000367333
0.0014127
-0.00629055
-0.000275531
0.00141705
-0.00400616
-0.000463065
0.00113701
-0.00192843
-0.000410028
0.000492861
0.00179098
-0.00185571
-0.000392919
0.00018018
-0.000552207
-3.30094e-05
-0.00477186
-0.000519942
0.00041308
-0.0056114
-0.000640687
0.000828257
-0.00545163
-0.000660125
0.00111942
-0.00442003
-0.000719379
0.00102856
-0.00296788
-0.000701379
0.000914766
-0.00135786
-0.00074001
0.000389961
-0.000854716
-0.000705083
-0.000261011
0.00125322
-0.00110156
-0.000673296
-0.000242689
-0.000620383
0.000198128
-0.00407824
-0.000586117
0.000497802
-0.00398277
-0.000578378
0.000882514
-0.00344404
-0.00062846
0.000633419
-0.00246263
-0.000693024
0.00100416
-0.00234486
-0.000442001
0.000847771
-0.000245034
-0.000497614
0.000388795
0.000747724
-0.000568144
-1.96634e-06
0.00041962
-0.000644826
-0.000204281
-0.000125771
0.000346184
-0.000559097
-4.09705e-05
-0.000396875
0.000488479
-0.00357648
-0.00051151
0.000471593
-0.00297453
-0.000512643
0.000551592
-0.00271649
-0.000474933
0.000618077
-0.00183656
-0.000253199
0.000731541
0.000399713
-0.000296715
0.000633957
0.00122352
-0.00034377
0.000525982
0.00155308
-0.000318083
0.000224736
0.00203327
-0.000373424
0.000132704
0.00262481
-0.000414791
4.61177e-05
-0.0025164
0.00251052
-0.000371686
9.99654e-06
-0.000202169
0.000308245
-0.00214076
-0.000385747
0.000352899
-0.00189417
-0.000324514
0.000460167
-0.00152403
-0.000221925
0.000488635
-0.000859708
-0.000158519
0.000589095
0.00131844
-0.000143174
0.000453199
0.00220342
-0.000171533
0.000407069
0.00223936
-0.000175314
0.000232642
0.00291926
-0.000170508
0.000162872
0.00335183
-0.000215304
0.000101017
0.00307645
-0.000228198
-9.26982e-05
-0.00224611
0.00224504
-0.000176502
-7.57164e-05
-6.40554e-05
0.000219186
-0.00040195
-0.000108821
0.000227983
0.000117575
-8.48761e-05
0.00024552
-0.000367311
-7.70304e-05
0.000293192
9.79674e-05
-4.52186e-05
0.000259344
0.00253541
-2.62721e-05
0.000220053
0.00291757
-3.96833e-05
0.000176587
0.00309692
-5.94962e-05
8.62059e-05
0.00330874
-5.10976e-05
4.10621e-05
0.00374457
-5.22785e-05
1.90498e-06
0.00327538
-7.13057e-05
-6.53342e-05
0.00181522
-7.12234e-05
-9.41019e-05
-0.00139624
0.00148499
-5.87512e-05
0.00100212
0.00628252
-0.00628096
0.00335211
0.00135432
0.00335956
0.00132142
-0.00640955
0.00364596
0.00170169
0.00583433
-0.00593583
0.00316511
0.00125994
0.00252608
0.00125779
-0.00707291
0.0032248
0.00125777
-0.00588834
0.00334356
0.00199343
0.00666448
-0.00664824
0.00257553
0.00260851
0.00142983
0.00114805
-0.00708976
0.00239146
0.000842131
-0.0060345
0.00292379
0.00189681
-0.00679526
0.00208707
0.00182535
0.00908487
-0.00874809
0.00124602
0.00205686
0.000661481
0.000902525
-0.0069346
0.00209625
0.00104732
-0.00607482
0.00120261
0.0014281
-0.00692803
0.00189297
0.00172286
-0.00837082
0.000800042
0.00179511
0.00883495
-0.00902179
0.000687372
0.0016223
0.000327341
0.000560105
-0.0062951
0.00129454
0.000615887
-0.00533643
0.000649051
0.00116504
-0.00711945
0.000191588
0.00175248
-0.00803128
2.1191e-05
0.00179907
-0.0079391
0.000426494
0.001518
0.00659022
-0.00715942
0.000256771
0.000980721
0.000122835
0.000652146
-0.00531706
0.000245894
0.000354792
-0.00521297
-0.000526072
0.000892682
-0.00700983
-0.000664852
0.00165469
-0.00664137
-0.000477554
0.00153667
-0.00611263
-0.000265932
0.000931012
-0.00383273
3.5206e-05
0.000766138
0.00215116
-0.00227979
-0.000118306
0.000273007
-0.000350501
8.17543e-05
-0.00473124
-0.000425226
0.000247463
-0.00612453
-0.000556067
0.000951175
-0.00682143
-0.000380934
0.00119155
-0.00614516
-0.000584848
0.00151861
-0.00426977
-0.000501976
0.00143861
-0.0025069
-0.000408437
0.000621147
-0.00197379
-0.000523139
-0.000141935
0.00171376
-0.00171582
-0.000509929
-0.000399239
-0.000679168
8.01463e-05
-0.0047208
-0.000504288
0.000340733
-0.00538048
-0.000593798
0.000885085
-0.00528851
-0.000806378
0.00100099
-0.00465091
-0.000796824
0.00104031
-0.00304266
-0.000680753
0.00112398
-0.00162632
-0.000709128
0.000420809
-0.000906314
-0.000720426
-0.00018352
-0.000808859
-0.000816234
-0.000508456
0.00195116
-0.00164569
-0.000674594
-0.000276335
-0.000567306
0.000372802
-0.00398788
-0.00054921
0.000483764
-0.00398602
-0.000595041
0.000752029
-0.00364153
-0.000581326
0.000759122
-0.00266693
-0.000565201
0.000968604
-0.00278743
-0.000487515
0.000981309
-0.00053712
-0.000497266
0.000580713
0.000748247
-0.000552868
0.000205755
0.000498439
-0.000627983
-8.55608e-06
0.000455312
-0.000612695
-0.000214252
-0.000203017
0.000394961
-0.000490672
-5.40927e-05
-0.000376962
0.000346194
-0.00359355
-0.000509489
0.000482632
-0.00312098
-0.000494801
0.000519395
-0.00279137
-0.000496992
0.000527593
-0.00202601
-0.000324441
0.000824841
0.000176883
-0.000266115
0.000710521
0.00101939
-0.0003499
0.000629146
0.00131026
-0.00032303
0.00035094
0.00194332
-0.000346433
0.000189556
0.00263791
-0.000413208
0.000104219
0.00249282
-0.000400293
-0.000233761
-0.00233824
0.00242063
-0.000313015
-0.000104988
-0.000174156
0.000359748
-0.00223921
-0.000360094
0.000332684
-0.00203665
-0.000347967
0.000402128
-0.00175594
-0.000249207
0.000432056
-0.00103877
-0.000181731
0.000566644
0.000991089
-0.000138464
0.000466118
0.00198525
-0.000171069
0.000437448
0.00198661
-0.000179647
0.000272188
0.00273497
-0.000177
0.000214765
0.00322
-0.000212375
0.00013634
0.00295501
-0.000228299
-7.20726e-05
0.00222217
-0.000198591
-0.000188844
-0.00155208
0.00162681
-0.000156482
-0.000103655
-5.86798e-05
0.000233571
-0.000655386
-0.000102075
0.000228724
-0.000135621
-8.4348e-05
0.000232507
-0.000607257
-7.74375e-05
0.000275433
-0.000208881
-4.56152e-05
0.000261565
0.00225357
-2.4941e-05
0.000233773
0.00269698
-3.94582e-05
0.000181759
0.0029353
-5.98242e-05
0.000102068
0.00320036
-5.31799e-05
5.0398e-05
0.00369569
-5.26138e-05
1.72658e-05
0.00327814
-7.23036e-05
-5.32165e-05
0.00186855
-7.1424e-05
-9.08072e-05
0.00157002
-6.54429e-05
-9.83821e-05
-0.00137545
0.00147486
-5.97758e-05
0.00105242
0.00571182
-0.00601155
0.00379595
0.00165609
0.00342977
0.00152247
-0.0064787
0.00363734
0.00120071
0.00601352
-0.00566399
0.00350356
0.00125075
0.00328504
0.00159806
-0.00677862
0.00355143
0.00145114
-0.00596941
0.00348617
0.00210122
0.00585138
-0.00602519
0.00323114
0.00227034
0.00232767
0.00104378
-0.00690862
0.00301979
0.000760056
-0.00594202
0.00336056
0.00223249
-0.00662961
0.00298925
0.00173443
0.00836176
-0.0079028
0.0022075
0.00202278
0.00127934
0.00127528
-0.00735128
0.00255156
0.00127412
-0.006406
0.00253617
0.00163222
-0.00675469
0.00267909
0.00218241
-0.00845381
0.00133324
0.00171898
0.00918813
-0.00894029
0.00107431
0.00191103
0.000755016
0.00105746
-0.00756832
0.00226453
0.000703986
-0.00600912
0.00194246
0.00130319
-0.00674433
0.000880754
0.00209822
-0.00764648
0.00082288
0.00183185
-0.00893145
0.00067692
0.00164636
0.00845622
-0.00892877
0.00103156
0.00109859
0.00036077
0.001554
-0.00715696
0.000903588
0.000446291
-0.00500112
0.000867731
0.00102377
-0.00664595
4.44639e-05
0.001773
-0.00790268
-5.53211e-05
0.00166764
-0.00826016
0.000211276
0.00119803
-0.00750947
0.000509534
0.000859196
0.00445798
-0.00492813
0.000633867
0.000215206
-4.75293e-05
0.000475399
-0.00575385
7.11507e-05
0.000257356
-0.00491463
-6.23402e-05
0.0011077
-0.00688034
-0.00081209
0.00147424
-0.0069549
-0.000634009
0.00164628
-0.00623001
-0.000487848
0.00150829
-0.004049
-0.000119347
0.00102161
-0.00242897
-0.000216081
-0.000141061
0.00217425
-0.00223691
-5.65163e-05
-0.000305878
-0.000494432
0.000318876
-0.00484613
-0.000545109
0.000199367
-0.00588285
-0.000525547
0.000672544
-0.0065902
-0.00057476
0.00102624
-0.00590705
-0.000644297
0.00135209
-0.00452173
-0.00064467
0.00152858
-0.0029433
-0.000470178
0.000675624
-0.00208498
-0.000552059
6.64088e-05
-0.00184543
-0.000643461
-0.000714953
0.00217777
-0.00194417
-0.000537039
-0.000515889
-0.000696048
0.000126764
-0.00457125
-0.000634435
0.000325228
-0.00515641
-0.000569819
0.000752899
-0.00520516
-0.000678012
0.00110491
-0.00493116
-0.000871915
0.00100984
-0.00318378
-0.000696937
0.00120758
-0.00193445
-0.000598897
0.00058132
-0.000917026
-0.000699023
3.75837e-05
-0.000628773
-0.00073234
-0.000306305
-0.00133213
-0.00083205
-0.000581416
0.00264095
-0.00232814
-0.000620237
-0.000322154
-0.000484735
0.000284881
-0.00396435
-0.000490622
0.00046934
-0.00399114
-0.000530793
0.000620638
-0.00375661
-0.000581203
0.000790975
-0.00298645
-0.000525187
0.00090181
-0.00292626
-0.000503341
0.00107984
-0.000889582
-0.000504376
0.000791677
0.000635359
-0.000546909
0.000371898
0.000527628
-0.000603015
-8.41794e-06
0.000624231
-0.000598928
-5.36149e-05
0.000491224
-0.000551124
-0.000650459
0.000105859
0.000212533
-0.000392366
-0.00023894
-0.000303807
0.000350576
-0.00357679
-0.000490933
0.000455866
-0.00325725
-0.000496394
0.000513711
-0.00288715
-0.000510598
0.000503552
-0.00218788
-0.000406612
0.000828821
-0.000138178
-0.000271557
0.000729136
0.000853509
-0.000363255
0.000670578
0.00105749
-0.000330255
0.000433924
0.00179577
-0.000337214
0.000311526
0.00259055
-0.000395832
0.000167457
0.00244062
-0.000392126
-0.000169162
0.00247291
-0.000355479
-0.000356963
-0.00183256
0.00194509
-0.00025743
-0.000226668
-0.000150702
0.000377865
-0.00233786
-0.000326901
0.000346903
-0.00216723
-0.000347696
0.000369629
-0.00197371
-0.000267324
0.000415462
-0.00123449
-0.000193516
0.000491248
0.000722088
-0.000142413
0.000487039
0.00175277
-0.000159245
0.000453936
0.00172277
-0.000179406
0.000306543
0.00252647
-0.000175623
0.00025677
0.00305052
-0.000213898
0.000157045
0.0028343
-0.000231439
-5.00514e-05
0.00218164
-0.000190938
-0.000177895
0.00169589
-0.000180588
-0.000215872
-0.000895781
0.000985294
-0.000128504
-0.000106172
-5.98444e-05
0.000243059
-0.000917631
-9.12512e-05
0.000238527
-0.000396239
-7.99847e-05
0.000235067
-0.000849096
-7.75754e-05
0.000258921
-0.000499111
-4.61277e-05
0.000265953
0.00196552
-2.3517e-05
0.000243524
0.0024669
-3.83778e-05
0.000187915
0.00276674
-5.88136e-05
0.000110409
0.00308258
-5.24551e-05
6.58614e-05
0.00363076
-5.41162e-05
2.89699e-05
0.00326861
-7.20526e-05
-3.88297e-05
0.00190741
-7.23303e-05
-9.00918e-05
0.00165387
-6.51879e-05
-9.6397e-05
0.00157151
-6.56959e-05
-0.000111665
-0.000552297
0.000661864
-5.76782e-05
0.000562171
0.00504547
-0.00492988
0.00446226
0.0012072
0.00386525
0.00133556
-0.00603416
0.00408964
0.000645638
0.00578658
-0.00545469
0.00401913
0.000928185
0.00367133
0.00153178
-0.00648381
0.00369053
0.00116206
-0.0055936
0.00385603
0.00166696
0.0062575
-0.00618521
0.00386553
0.00151451
0.00352965
0.00094378
-0.00665803
0.00342011
0.000648823
-0.00616379
0.00385704
0.00240105
-0.00607921
0.00337163
0.00136403
0.00713918
-0.00706206
0.00352442
0.00182401
0.00234579
0.00141635
-0.00705761
0.00304649
0.00143888
-0.00631393
0.00322694
0.00143948
-0.00607612
0.00299981
0.00228124
-0.00755584
0.00254346
0.00146884
0.00862695
-0.00831412
0.00214481
0.00152269
0.00128555
0.00127144
-0.00746521
0.00242987
0.000959013
-0.00675979
0.00265032
0.00138368
-0.00652473
0.00222572
0.0021401
-0.00788673
0.00207014
0.00209326
-0.00906008
0.00119162
0.00109301
0.00945754
-0.00930095
0.00147107
0.000766568
0.00124409
0.00168417
-0.00742525
0.00141376
0.000946612
-0.00603277
0.00178785
0.00104734
-0.00619084
0.00136541
0.00170259
-0.00736855
0.000673234
0.00172712
-0.00876069
0.000592643
0.00165821
-0.00931748
0.000605449
0.00104928
0.00819684
-0.00871741
0.00136204
0.000110177
0.000768882
0.000968513
-0.00737786
0.000872765
0.000784729
-0.00538524
0.000760335
0.00089589
-0.00582158
0.00025517
0.00159266
-0.00786987
-0.000106772
0.00185477
-0.0083352
-0.00018877
0.00142341
-0.00747039
0.000257084
0.00172035
-0.00563855
0.000521212
-0.00043806
0.00381656
-0.0037472
0.000861509
-0.000335515
-0.000215878
0.000707076
-0.00597654
-0.000183546
0.000127407
-0.00453255
-0.000238968
0.000734167
-0.00660314
-0.00040116
0.00135634
-0.00753262
-0.000564464
0.00159075
-0.00645749
-0.000645193
0.00183798
-0.00457828
-0.000267967
0.000869574
-0.00258719
-0.000155079
0.000305183
-0.00234053
-0.00035124
-0.000959801
0.00200793
-0.00184878
2.91798e-05
-0.00071746
-0.000630811
0.000387812
-0.00498148
-0.000661088
0.000130608
-0.00563816
-0.000595178
0.000634282
-0.0065779
-0.000419234
0.00128405
-0.0059549
-0.000706046
0.00115055
-0.00458362
-0.000723115
0.00143044
-0.00326391
-0.000546919
0.000819472
-0.00223891
-0.000554396
0.000223073
-0.00181671
-0.000766269
-0.000629359
-0.00159808
-0.000666491
-0.000929792
0.00338988
-0.00293119
-0.000647352
-0.000537329
-0.000592905
0.000307427
-0.00472375
-0.000751049
0.000249008
-0.00483251
-0.000738003
0.00061668
-0.00512359
-0.000647436
0.000857915
-0.00479893
-0.000877184
0.000994369
-0.00338447
-0.000763777
0.00115213
-0.00212381
-0.000579864
0.000789723
-0.000826554
-0.000687416
0.000214536
-0.00045096
-0.000719473
-0.000269642
-0.00115177
-0.000651478
-0.000441722
-0.00202804
-0.000744046
-0.000844168
0.00263628
-0.00247914
-0.000583664
-0.000678892
-0.000375321
0.000307435
-0.00391373
-0.000550587
0.000456177
-0.0040282
-0.000453874
0.00061081
-0.00382475
-0.000559751
0.000793762
-0.00337139
-0.000486476
0.000838818
-0.00294557
-0.000515872
0.00111418
-0.00124319
-0.000534774
0.000939713
0.000417199
-0.000555351
0.000479901
0.000526406
-0.000591665
0.000180045
0.000741145
-0.000588447
-0.000175121
0.000775651
-0.000540777
-0.000545689
0.000521442
-0.000483507
-0.000816323
0.000630551
-0.000262986
-0.000300571
-0.000415705
-0.000241691
0.000376328
-0.00357446
-0.000482964
0.000404082
-0.00332972
-0.000475647
0.000553395
-0.0030633
-0.000504011
0.000488201
-0.00231171
-0.000459517
0.000739076
-0.000476965
-0.000315653
0.000713062
0.000726589
-0.00037066
0.000679726
0.000820198
-0.000351758
0.000492467
0.00160231
-0.000322721
0.000421171
0.00246729
-0.000378353
0.000225102
0.00236576
-0.000389033
-0.000102813
0.00249342
-0.000359879
-0.000336337
0.00204033
-0.000292271
-0.000406245
-0.00124398
0.00136409
-0.000187175
-0.000250457
-0.000120928
0.000365846
-0.002422
-0.000285656
0.000365541
-0.00228464
-0.000336509
0.000430485
-0.00223576
-0.000281058
0.000407656
-0.001454
-0.000196546
0.00045136
0.000486462
-0.000143297
0.000517489
0.00148843
-0.000152034
0.000466279
0.00146395
-0.000178786
0.000322665
0.00231008
-0.00017527
0.000284217
0.00286492
-0.000208377
0.000191059
0.0026871
-0.000228794
-1.60752e-05
0.00213472
-0.000207267
-0.000162989
0.00175586
-0.000178011
-0.000207509
0.00106599
-0.000150174
-0.000266852
5.2849e-05
6.31932e-05
-8.93595e-05
-0.000114851
-6.04654e-05
0.00024839
-0.00118534
-7.86796e-05
0.000253561
-0.000668651
-7.23996e-05
0.000241008
-0.00109215
-7.79398e-05
0.00024299
-0.00077387
-4.58068e-05
0.000274009
0.00166844
-2.30536e-05
0.000251965
0.00222816
-3.6749e-05
0.000189994
0.0025966
-5.82381e-05
0.000120142
0.00295601
-5.23841e-05
8.51096e-05
0.00354558
-5.23835e-05
4.20298e-05
0.00324491
-7.24513e-05
-3.55159e-05
0.00194305
-7.21764e-05
-6.424e-05
0.00171201
-6.62248e-05
-8.52758e-05
0.0016569
-6.53038e-05
-0.000118949
0.000776977
-6.1863e-05
-0.000154495
0.000121138
2.55425e-05
-4.98646e-05
0.00045935
0.00521309
-0.00523431
0.00461685
0.000629395
0.0045589
0.0012689
-0.00508734
0.00481788
0.000778898
0.00515338
-0.00541802
0.00459364
0.000578583
0.00407719
0.00104641
-0.00590871
0.00409139
0.000603668
-0.00528595
0.00447929
0.000829657
0.00624173
-0.00582693
0.00444163
0.00102799
0.00411622
0.00081201
-0.0063592
0.00378414
0.000933591
-0.0061185
0.00393066
0.00184558
-0.00586861
0.0040949
0.000664669
0.00620511
-0.00599418
0.00435395
0.00149094
0.00372641
0.00145189
-0.00666115
0.00333664
0.00127235
-0.00620153
0.00362439
0.000921656
-0.00539518
0.00369083
0.00153784
-0.00636562
0.00341857
0.00125276
0.00785119
-0.00777046
0.00365978
0.00104198
0.0024543
0.00126428
-0.00700105
0.00293916
0.00127829
-0.00676681
0.00318009
0.00166387
-0.00637232
0.00324295
0.00211512
-0.00699858
0.00246753
0.00314731
-0.00895294
0.00212823
0.00100542