/*--------------------------------*- C++ -*----------------------------------*\
  =========                 |
  \\      /  F ield         | OpenFOAM: The Open Source CFD Toolbox
   \\    /   O peration     | Website:  https://openfoam.org
    \\  /    A nd           | Version:  7
     \\/     M anipulation  |
\*---------------------------------------------------------------------------*/
FoamFile
{
    version     2.0;
    format      ascii;
    class       volVectorField;
    location    "4.5";
    object      U_0;
}
// * * * * * * * * * * * * * * * * * * * * * * * * * * * * * * * * * * * * * //

dimensions      [0 1 -1 0 0 0 0];

internalField   nonuniform List<vector> 
18720
(
(1.52327 -1.02362 -1.4033)
(2.15265 0.321649 -1.57292)
(1.64156 -1.05371 -1.37603)
(1.47744 -1.00226 -1.44452)
(1.68207 -1.29946 -1.25847)
(1.04151 1.19478 -2.53064)
(2.46361 0.250797 -1.4723)
(1.88582 0.306773 -1.70289)
(2.28782 -0.0766848 -1.22823)
(1.711 -1.36445 -1.25599)
(1.49332 -0.987491 -1.43023)
(1.63591 -1.31054 -1.24825)
(1.81628 -1.07736 -0.807502)
(1.35624 2.05732 -2.27338)
(0.828722 1.35873 -2.44382)
(0.92827 1.18697 -2.75658)
(1.33738 0.653766 -2.33352)
(1.93935 -0.0559634 -1.42132)
(1.64305 0.344516 -1.87171)
(2.56495 -0.111561 -0.991993)
(1.9532 -0.309669 -1.31972)
(1.78833 -1.08823 -0.769142)
(1.43144 -0.976092 -1.4667)
(1.64529 -1.24867 -1.31447)
(1.84571 -1.07808 -0.856861)
(1.74234 -1.21503 -0.709195)
(1.39907 2.86963 -0.993938)
(1.21578 2.03119 -2.35662)
(1.57869 2.05137 -2.12536)
(1.4689 2.00063 -2.34273)
(1.21267 0.634417 -2.36543)
(0.989308 1.20395 -2.84546)
(1.7505 0.701086 -1.99838)
(2.40045 0.633601 -1.36254)
(1.9032 -0.402821 -1.25028)
(1.39118 0.391421 -2.11303)
(2.31315 -0.0539046 -1.20558)
(1.92614 -0.288864 -1.44305)
(1.82957 -0.722251 -0.892745)
(1.7163 -1.22806 -0.685435)
(1.39421 -0.968938 -1.53095)
(1.65039 -1.27667 -1.32563)
(1.90525 -1.07187 -0.901171)
(1.77669 -1.21116 -0.725721)
(1.30054 -2.07088 -0.667452)
(0.681092 2.99314 -1.78659)
(1.27561 2.90338 -1.0436)
(1.52419 2.80952 -1.04237)
(1.60786 2.79322 -1.1499)
(1.59745 1.96458 -2.19059)
(1.65845 2.13416 -1.88565)
(1.4708 1.94624 -2.389)
(1.11424 1.04263 -3.00525)
(2.32513 0.576289 -1.49411)
(1.0791 1.31498 -2.7168)
(1.94185 0.639126 -1.75261)
(2.30547 0.666953 -1.31206)
(2.37642 0.206982 -0.92268)
(1.89727 -0.764631 -0.660922)
(1.28483 0.430878 -2.26642)
(2.12827 -0.0424213 -1.40708)
(1.91562 -0.320824 -1.58032)
(1.79886 -0.667137 -1.01887)
(1.11864 -1.40582 -0.636578)
(1.31649 -2.07277 -0.685357)
(1.37459 -0.948762 -1.69192)
(1.66949 -1.22857 -1.38768)
(1.96842 -1.0792 -0.995585)
(1.81797 -1.19808 -0.752904)
(1.29183 -2.06641 -0.643567)
(0.930819 -1.93543 -0.703265)
(0.330952 3.07754 1.04499)
(0.935979 3.4241 -0.503294)
(0.614849 2.97685 -0.789749)
(1.23023 3.41493 -0.474556)
(1.32837 2.85205 -1.22606)
(1.75708 2.47125 -1.38827)
(1.66105 2.72684 -1.21441)
(1.77901 2.82959 -1.02665)
(1.20005 1.09646 -2.76335)
(1.59824 2.1124 -1.90246)
(1.55183 1.7964 -2.41863)
(1.2841 1.2008 -2.91165)
(1.9276 0.621149 -1.0091)
(2.17298 0.174843 -0.889116)
(1.27475 1.18286 -2.63652)
(1.64578 0.722901 -2.03471)
(2.32249 0.637141 -1.21834)
(2.43335 0.215212 -1.05909)
(1.13134 -0.573149 -1.32867)
(1.09263 -1.3775 -0.651446)
(1.22364 0.456491 -2.448)
(2.01318 -0.0342872 -1.54673)
(2.16704 -0.285453 -1.50268)
(1.82167 -0.606422 -1.11973)
(1.20586 -1.41114 -0.592289)
(1.16865 -1.45849 -1.18641)
(0.95267 -1.95972 -0.745828)
(1.37374 -0.944153 -1.9186)
(1.66751 -1.26975 -1.42785)
(2.01772 -1.08487 -1.15565)
(1.8657 -1.21465 -0.764488)
(1.33895 -2.06089 -0.64898)
(0.911926 -1.93785 -0.683094)
(0.596402 -1.87222 -1.19378)
(0.497756 2.6436 2.54414)
(0.454224 3.3085 0.431905)
(0.485084 2.76619 0.911659)
(1.03255 3.45618 0.35036)
(1.06322 3.2711 -0.3559)
(1.11585 2.67759 -0.221522)
(1.34492 3.48445 -0.208658)
(1.20807 3.27902 0.0757997)
(1.58671 2.76607 -0.573154)
(1.58091 2.53119 -1.1675)
(1.742 2.75458 -0.965563)
(2.02167 2.81232 -1.00802)
(1.58706 1.57688 -0.896002)
(1.92238 0.581343 -1.02428)
(1.74438 2.16181 -1.65077)
(1.48027 1.64487 -2.56785)
(1.27535 1.2002 -2.97514)
(1.83674 0.57821 -1.36444)
(0.996475 0.402382 -1.68275)
(1.08997 -0.528455 -1.33269)
(1.54122 1.27555 -2.38923)
(1.38972 0.813742 -2.40347)
(2.23959 0.538929 -1.29967)
(2.42506 0.240852 -1.14414)
(1.22829 -0.604824 -1.30955)
(0.941254 -0.8942 -1.13176)
(1.10745 -1.42466 -1.20932)
(1.26263 0.451336 -2.63132)
(1.84694 -0.00222227 -1.81751)
(2.29221 -0.371045 -1.53713)
(1.88192 -0.545041 -1.26879)
(1.29786 -1.44273 -0.381419)
(1.1901 -1.48588 -1.16507)
(0.851131 -1.51122 -1.21889)
(0.575131 -1.88096 -1.19422)
(1.38752 -0.948901 -2.16974)
(1.69696 -1.27627 -1.48996)
(2.03894 -1.08052 -1.35696)
(1.94198 -1.22878 -0.800308)
(1.41428 -2.08729 -0.666564)
(0.931695 -1.94463 -0.647808)
(0.679026 -1.84015 -1.20219)
(0.144815 -1.79657 -1.28158)
(0.162319 3.51713 2.38803)
(0.210707 3.30176 2.22237)
(0.612379 3.03159 1.19082)
(0.599426 3.62398 1.21703)
(1.10448 3.77687 0.262908)
(0.60403 2.50118 0.329229)
(0.966869 3.51912 0.226581)
(1.95296 3.5184 0.0156617)
(1.32718 3.11483 -0.374924)
(1.08678 2.47226 -0.476191)
(1.37285 3.29613 -0.115491)
(1.27908 3.39476 0.125149)
(1.47226 2.65662 -0.277321)
(1.37411 1.72591 -0.196009)
(1.38238 2.59621 -0.866666)
(2.03953 2.65273 -0.483084)
(2.12937 2.85444 -0.804885)
(1.72346 1.69114 -1.41531)
(1.55176 1.18273 -0.782631)
(0.716986 0.306337 -1.75235)
(1.8226 1.84367 -1.69832)
(1.55516 1.81856 -2.32464)
(0.977794 1.18508 -3.08205)
(1.70656 0.584637 -1.68668)
(1.3899 0.370561 -1.62813)
(0.850394 -0.118621 -1.57231)
(0.792544 -0.881741 -1.11626)
(1.62888 1.13577 -2.35667)
(1.31686 0.815947 -2.56074)
(2.13565 0.560525 -1.39716)
(2.40993 0.248011 -1.14727)
(1.38556 -0.625426 -1.24949)
(1.05746 -0.903736 -1.20626)
(0.687835 -0.924575 -1.3743)
(0.770165 -1.48623 -1.21728)
(1.36901 0.383974 -2.79629)
(1.75705 0.012923 -2.04953)
(2.40472 -0.424251 -1.50582)
(1.98224 -0.528675 -1.36748)
(1.37254 -1.43103 -0.415183)
(1.25313 -1.50447 -1.09206)
(0.926438 -1.50443 -1.24478)
(0.364843 -1.61245 -1.10672)
(0.156734 -1.80802 -1.26924)
(1.39251 -0.945025 -2.4348)
(1.70617 -1.28055 -1.58406)
(2.0162 -1.06234 -1.57168)
(2.04991 -1.25145 -0.882357)
(1.42326 -2.05918 -0.666667)
(0.95431 -1.95349 -0.623982)
(0.693063 -1.85942 -1.19186)
(0.163305 -1.77886 -1.31286)
(-0.162231 -1.91239 -0.777395)
(0.507223 3.3069 2.86871)
(0.402472 2.9856 3.18277)
(1.62909 2.85975 2.6964)
(1.34191 3.44511 1.87467)
(0.565507 3.74779 1.36128)
(0.663735 2.62574 1.85334)
(2.19562 3.16664 -0.110627)
(1.79777 3.94511 -0.146516)
(1.84342 3.79265 -0.11866)
(0.493755 2.27455 0.564246)
(1.06727 3.60786 0.116355)
(1.7274 3.53335 0.165316)
(2.65205 3.07399 -0.977336)
(1.31381 2.43932 -1.10408)
(0.86952 2.34431 -0.831671)
(1.38918 3.18925 -0.192656)
(1.50672 3.31983 -0.184822)
(1.74765 2.79101 0.0858968)
(1.76785 1.71387 -0.610927)
(1.45897 1.17004 -0.801793)
(1.09415 2.46862 -0.946409)
(1.87333 2.61947 -0.776007)
(2.57736 2.29511 -1.04352)
(1.75116 1.70429 -2.0582)
(1.63405 1.32642 -0.581171)
(0.83811 0.573193 -1.15872)
(0.673982 -0.0250976 -1.52258)
(1.7366 1.6928 -1.6701)
(2.40135 1.00165 -2.02823)
(1.24999 1.25889 -2.88894)
(1.41328 0.738145 -2.16169)
(1.88058 0.472422 -1.27612)
(1.10786 -0.0818934 -1.54615)
(0.450139 -0.22926 -1.69881)
(0.52247 -0.829585 -1.4311)
(1.73541 1.03886 -2.28618)
(1.5915 0.797924 -2.39938)
(1.84182 0.675374 -1.78122)
(2.49175 0.107182 -0.882869)
(1.54194 -0.636199 -1.15383)
(1.20299 -0.943127 -1.24733)
(0.855898 -0.93316 -1.35054)
(0.278184 -0.913697 -1.44487)
(0.239688 -1.619 -1.15495)
(1.47471 0.354195 -2.87618)
(1.72375 0.0159892 -2.26316)
(2.4892 -0.458056 -1.45768)
(2.17828 -0.526386 -1.31032)
(1.5074 -1.38926 -0.530605)
(1.24777 -1.52426 -1.09494)
(1.01579 -1.46893 -1.28238)
(0.413171 -1.61302 -1.09264)
(0.386608 -1.74172 -1.31673)
(-0.11397 -1.92959 -0.758206)
(1.38438 -0.943746 -2.67674)
(1.66769 -1.28462 -1.69491)
(1.94671 -1.03 -1.76869)
(2.1332 -1.273 -1.03027)
(1.37108 -2.05198 -0.650506)
(0.964379 -1.95362 -0.606281)
(0.68973 -1.84916 -1.19337)
(0.165129 -1.7545 -1.30777)
(-0.161482 -1.88163 -0.866151)
(-0.362778 -1.61065 -1.33442)
(0.623201 3.0393 3.09961)
(0.743981 3.16388 2.99994)
(0.88647 3.22531 2.79171)
(1.057 3.02772 2.83098)
(0.919141 3.86063 1.55422)
(0.958588 3.08971 2.41734)
(1.20884 3.16447 1.92585)
(1.47308 4.01263 1.24816)
(1.52985 4.03074 0.513549)
(0.99743 2.71514 1.64766)
(1.35533 2.85174 1.37721)
(2.01164 3.96419 -0.617478)
(1.50425 3.97094 0.743807)
(2.84222 3.07865 -0.987444)
(0.644069 2.06846 0.695047)
(1.40975 3.21028 0.198503)
(1.71394 3.52474 -0.31678)
(2.75186 2.73875 -0.64189)
(1.90322 2.67551 -0.352992)
(1.59122 1.65557 -0.247999)
(0.79565 2.22348 -0.520444)
(1.56441 3.13557 -0.335152)
(1.71737 3.14493 -0.42907)
(1.99313 2.76738 -0.0436107)
(1.69843 1.71747 -0.847055)
(1.19968 0.790568 -0.569913)
(0.520679 0.602047 -1.10576)
(0.830556 2.45496 -0.899959)
(1.91132 2.61482 -0.781968)
(2.28034 2.45338 -0.940572)
(2.06111 1.59225 -1.98122)
(1.67714 1.1769 -1.2365)
(1.06258 0.59787 -1.3886)
(0.459757 0.37833 -1.36171)
(0.007885 -0.327309 -1.73309)
(1.71662 1.60253 -1.71732)
(1.82035 1.56524 -1.76593)
(2.09638 0.972894 -2.24876)
(1.10488 0.885937 -2.63585)
(2.20124 0.347224 -1.07135)
(1.39039 -0.15742 -1.46071)
(0.703578 -0.334492 -1.59585)
(-0.454861 -0.0943148 -1.77885)
(0.123132 -0.868149 -1.43411)
(1.77878 0.958359 -2.26971)
(1.72351 0.784223 -2.27847)
(1.79753 0.668561 -2.03049)
(2.18758 0.11903 -1.17342)
(1.72104 -0.717064 -1.08383)
(1.30857 -0.917613 -1.37394)
(1.01242 -0.969367 -1.35797)
(0.451186 -0.998577 -1.4423)
(0.362088 -1.2352 -1.74816)
(0.385556 -1.7487 -1.30374)
(1.62387 0.199768 -2.87986)
(1.68848 0.0567212 -2.48106)
(2.33003 -0.417166 -1.63678)
(2.32081 -0.588931 -1.21611)
(1.59557 -1.43548 -0.625232)
(1.24612 -1.55281 -1.0751)
(1.05223 -1.47216 -1.32058)
(0.501773 -1.60258 -1.08457)
(0.427995 -1.73985 -1.32756)
(0.169016 -1.58576 -1.5954)
(-0.383292 -1.63239 -1.29285)
(1.38121 -0.928907 -2.87481)
(1.62546 -1.2749 -1.74736)
(1.86584 -0.990553 -1.8638)
(2.15705 -1.27453 -1.2241)
(1.37195 -2.06496 -0.638398)
(0.998625 -1.94657 -0.568712)
(0.703 -1.83565 -1.16946)
(0.0776962 -1.71649 -1.32548)
(-0.214786 -1.9008 -0.793381)
(-0.346087 -1.59407 -1.36167)
(-0.611574 -0.887288 -1.59983)
(0.618482 2.97841 3.1624)
(0.725212 3.15169 2.90117)
(0.840771 3.19199 2.9296)
(0.747959 2.81797 3.31561)
(1.02192 3.16814 2.59997)
(1.05595 3.41796 2.50468)
(1.00289 2.63517 3.45919)
(1.15456 3.64541 2.52789)
(1.36215 4.20223 1.09845)
(1.15759 2.90895 2.55764)
(1.03902 2.98608 2.01676)
(1.37207 3.94573 1.5598)
(1.45652 4.31174 1.05539)
(1.27688 4.00905 0.898928)
(0.925445 2.85573 1.68106)
(0.57833 2.92383 1.75278)
(1.83235 3.86986 0.241937)
(1.86318 3.98442 0.341818)
(1.19131 3.76706 0.902989)
(1.55204 2.67941 -0.332984)
(0.637555 2.08264 0.663001)
(1.19307 2.92536 0.136705)
(1.73193 3.50801 -0.70929)
(2.523 2.85775 -0.373136)
(1.99985 2.79422 -0.321369)
(0.682324 1.95806 0.209341)
(0.868899 0.719024 -0.556323)
(0.723979 2.18249 -0.512697)
(1.92857 2.80969 -0.85345)
(1.84164 3.00407 -0.589603)
(2.03985 2.7832 -0.052033)
(1.67791 1.70973 -1.0607)
(1.48293 0.770272 -0.685848)
(0.577894 0.915224 -0.56474)
(0.261449 0.417595 -1.23801)
(0.958082 2.22497 -1.02675)
(1.78507 2.35611 -1.27752)
(2.45697 2.3914 -1.07407)
(2.30854 1.65715 -1.64935)
(1.8374 1.24524 -1.4937)
(1.22253 0.534539 -1.71006)
(0.383356 0.402858 -1.59246)
(-0.35519 0.596934 -1.54829)
(-0.381174 0.0295524 -1.93836)
(1.76105 1.62195 -1.74053)
(1.99732 1.2677 -1.78637)
(2.03032 0.995509 -1.80124)
(1.15051 0.817306 -2.58715)
(2.13872 0.606618 -1.19665)
(1.53592 -0.184899 -1.45364)
(0.91386 -0.428358 -1.53427)
(0.0224214 -0.179712 -1.81295)
(-0.170917 -0.125014 -1.93087)
(0.229525 -1.18594 -1.8041)
(1.81565 0.971115 -2.23845)
(1.73584 0.679772 -2.28822)
(1.87817 0.628055 -2.098)
(1.96856 0.179504 -1.43666)
(1.98634 -0.830671 -1.01661)
(1.378 -1.01063 -1.46649)
(1.25273 -1.03638 -1.32162)
(0.569553 -1.07998 -1.43426)
(0.517335 -1.28623 -1.67207)
(0.373344 -1.24251 -1.79783)
(0.154062 -1.60163 -1.58668)
(1.76771 0.088085 -2.78906)
(1.78866 -0.010281 -2.57662)
(2.21722 -0.397224 -1.76304)
(2.26409 -0.614292 -1.19363)
(1.5147 -1.3641 -0.986082)
(1.26975 -1.58679 -1.01351)
(1.12734 -1.44697 -1.34855)
(0.578599 -1.59275 -1.08927)
(0.451386 -1.71776 -1.33817)
(0.195398 -1.53214 -1.6427)
(-0.440874 -1.12125 -1.47722)
(-0.623633 -0.885086 -1.59825)
(1.46741 -0.971762 -2.85308)
(1.58942 -1.24823 -1.8012)
(1.77934 -0.933987 -1.90524)
(2.10845 -1.25007 -1.36783)
(1.38419 -2.04732 -0.618815)
(1.0113 -1.95638 -0.519887)
(0.718784 -1.81801 -1.18158)
(0.0612925 -1.71583 -1.33231)
(-0.269353 -1.83229 -0.818542)
(-0.339989 -1.61784 -1.36661)
(-0.627789 -0.880055 -1.59867)
(-0.776957 -0.748883 -1.32897)
(0.658563 3.05612 2.79118)
(0.371811 2.99099 3.21823)
(0.743707 3.0148 3.11339)
(1.20272 2.85776 3.09119)
(0.663869 3.0176 3.00203)
(1.14337 3.31902 2.80625)
(0.746048 2.83992 3.48868)
(1.45871 3.30039 2.61584)
(1.97704 3.84948 1.84998)
(1.4438 3.23265 2.67925)
(0.855348 2.74579 3.00557)
(1.51283 3.41018 2.71125)
(1.39603 4.35299 1.55922)
(1.43313 4.42055 0.894896)
(1.43592 3.21161 2.46382)
(1.41229 2.82972 2.09928)
(1.55477 2.72661 3.05873)
(1.58139 4.12151 1.2607)
(1.74376 4.39426 0.792817)
(0.829432 3.82625 1.11896)
(1.18407 2.64753 1.98231)
(1.22992 2.46095 1.4915)
(1.75461 3.32356 0.618938)
(2.37819 3.68715 -0.428329)
(1.86043 3.73853 0.476261)
(1.37391 3.24482 -0.0815318)
(0.691979 1.72715 0.446407)
(0.84447 2.27597 0.838385)
(1.1888 2.55503 0.0155628)
(1.82699 3.40534 -0.815858)
(2.47998 2.8451 -0.818654)
(2.20532 2.8143 -0.460898)
(1.31385 1.89087 0.156101)
(0.698882 1.08112 -0.10813)
(0.215862 0.865225 -0.665989)
(0.891204 2.16971 -0.602168)
(1.51329 2.76369 -1.01665)
(1.8918 2.96459 -0.696664)
(2.13881 2.65332 -0.801859)
(1.92196 1.76219 -1.00519)
(1.79318 0.910542 -0.708947)
(0.886678 0.897298 -0.791069)
(-0.569067 0.777433 -1.061)
(-0.654975 0.606409 -1.50012)
(1.11382 2.10147 -1.00716)
(1.67656 2.17665 -1.43419)
(2.54114 1.71749 -1.75177)
(2.24428 1.73096 -1.89926)
(2.05183 1.01457 -1.74855)
(1.7183 0.352872 -1.69301)
(0.506453 0.393542 -1.65486)
(-0.0211802 0.452034 -1.61604)
(-0.670822 0.92145 -1.75425)
(-0.3975 -0.0252808 -2.04154)
(2.25292 0.763979 -1.72481)
(2.0121 1.16559 -1.75323)
(2.02964 1.03315 -1.69953)
(1.81321 0.72088 -1.9442)
(2.01645 0.699043 -1.49894)
(1.75497 -0.202324 -1.47877)
(1.13798 -0.5641 -1.52492)
(0.403053 -0.255818 -1.79055)
(0.0308025 -0.208729 -1.95163)
(-0.129665 -0.122019 -1.73255)
(0.173512 -1.21742 -1.81548)
(1.94415 0.832635 -2.21097)
(1.94366 0.670596 -2.11089)
(1.90648 0.566176 -2.09831)
(1.6381 0.343057 -1.92168)
(2.38509 -1.03868 -0.758602)
(1.4748 -1.03335 -1.43769)
(1.43063 -1.06772 -1.36228)
(0.721061 -1.14537 -1.35851)
(0.436041 -1.34242 -1.68328)
(0.454316 -1.25118 -1.75282)
(-0.245464 -1.15047 -1.55162)
(-0.442422 -1.15402 -1.46483)
(2.08316 -0.253566 -2.45515)
(1.75937 -0.016271 -2.73047)
(1.98897 -0.240755 -2.06663)
(2.02498 -0.516772 -1.38617)
(1.4606 -1.29136 -1.0843)
(1.31363 -1.5723 -1.0252)
(1.16874 -1.44178 -1.38265)
(0.626914 -1.57543 -1.14212)
(0.457879 -1.71345 -1.29101)
(0.18339 -1.51913 -1.64717)
(-0.398141 -1.08075 -1.5025)
(-0.798617 -0.809957 -1.25164)
(-0.793232 -0.74725 -1.31829)
(1.62159 -1.08541 -2.63144)
(1.57624 -1.25156 -1.86792)
(1.7237 -0.896367 -1.89038)
(2.01803 -1.19491 -1.40772)
(1.40341 -2.05309 -0.591779)
(1.01449 -1.94589 -0.490672)
(0.64433 -1.81955 -1.18092)
(0.0618392 -1.68197 -1.34592)
(-0.312386 -1.80966 -0.826924)
(-0.339526 -1.59694 -1.3978)
(-0.595517 -0.874223 -1.61944)
(-0.739666 -0.741515 -1.35624)
(-0.771628 -0.740539 -1.37478)
(0.417727 2.87423 2.91666)
(1.01929 3.10066 2.78571)
(1.13952 3.07398 2.68614)
(1.02364 2.79669 2.96369)
(0.608496 2.95498 3.13426)
(1.25914 3.15033 2.91113)
(1.19952 2.85059 3.10469)
(1.37471 2.92593 2.88616)
(1.79806 3.46455 2.11537)
(1.41115 3.2125 2.86446)
(0.948489 2.70764 3.33638)
(1.46833 3.1928 2.81793)
(1.21369 4.09333 2.557)
(1.6557 4.44488 1.48733)
(1.66536 3.22768 2.7559)
(1.34466 2.83924 2.45459)
(1.39905 3.14841 3.07874)
(1.4472 4.43567 1.52234)
(1.31991 4.37924 1.25038)
(1.74416 4.3816 0.777781)
(1.7142 2.994 2.6162)
(1.16397 2.79852 2.58097)
(1.7123 3.51766 0.780164)
(1.76057 3.80767 1.46559)
(1.76768 4.31107 0.539013)
(1.65946 4.20949 1.04364)
(1.24249 3.2612 -0.212074)
(2.55212 2.5751 0.948173)
(1.047 2.24833 1.63872)
(1.74686 3.05837 0.24132)
(2.27616 3.52988 -0.0862526)
(1.90986 3.78016 0.486902)
(0.882098 3.68055 0.621459)
(0.905023 2.31127 0.794717)
(0.378709 1.13705 0.00428502)
(1.41517 2.42345 0.272948)
(1.09116 2.26734 -0.0210574)
(2.39113 2.50451 -1.72237)
(2.26338 2.82558 -1.257)
(2.56432 2.55904 -0.727564)
(1.95269 1.69754 -0.406899)
(0.682332 1.09992 -0.028885)
(0.16732 1.04952 -0.295222)
(-0.823271 0.799121 -0.763555)
(1.34739 2.01143 -0.934322)
(1.59581 2.49581 -0.996523)
(2.08967 2.65563 -1.06846)
(2.26722 2.62499 -0.74671)
(1.93044 1.76555 -1.42323)
(1.99728 1.09602 -0.916695)
(0.961238 0.897719 -0.767214)
(-0.498376 0.911233 -1.18273)
(-1.01646 0.916654 -0.952243)
(-0.797353 0.935332 -1.82962)
(1.15453 2.00722 -1.3965)
(1.8352 2.05216 -1.37375)
(2.38061 1.71665 -1.35173)
(2.15855 1.71765 -1.94502)
(2.24795 0.892258 -1.8363)
(2.1192 0.473373 -1.31689)
(0.990534 0.312606 -1.60467)
(0.355996 0.334174 -1.65366)
(-0.0412971 0.629138 -2.01472)
(-0.778059 1.20187 -1.67076)
(-0.406408 -0.125298 -1.67779)
(1.75715 1.28929 -1.58864)
(2.09202 1.08469 -1.56113)
(2.0222 1.0197 -1.86948)
(1.90112 0.656502 -1.76588)
(2.13812 0.782317 -1.47473)
(2.04548 -0.271386 -1.42717)
(1.40698 -0.686247 -1.51015)
(0.796816 -0.392177 -1.71217)
(0.303442 -0.279488 -1.89985)
(-0.050748 -0.250114 -1.67932)
(-1.10151 -0.0827605 -1.37245)
(-0.1822 -1.125 -1.54258)
(2.02939 0.739875 -2.15881)
(1.92674 0.570946 -2.15964)
(1.84171 0.4558 -2.13447)
(1.57868 0.371932 -2.1326)
(2.28223 -1.11362 -0.844261)
(1.44373 -1.02991 -1.45226)
(1.52329 -1.0676 -1.45866)
(0.849205 -1.11136 -1.37166)
(0.63957 -1.43785 -1.55148)
(0.563435 -1.24006 -1.71778)
(-0.224496 -1.20562 -1.56655)
(-0.598956 -0.942443 -1.29323)
(-0.853312 -0.823481 -1.21221)
(2.11614 -0.374896 -2.17246)
(1.83324 -0.0988898 -2.72296)
(1.94288 -0.21075 -2.26026)
(1.88402 -0.489106 -1.49126)
(1.35979 -1.18305 -1.23219)
(1.37954 -1.63499 -0.868067)
(1.20662 -1.43432 -1.37171)
(0.692102 -1.56003 -1.17862)
(0.43845 -1.68587 -1.33718)
(0.213544 -1.46007 -1.66439)
(-0.379523 -1.04957 -1.51663)
(-0.742118 -0.781567 -1.28913)
(-0.875412 -0.488181 -1.10207)
(-0.786458 -0.744659 -1.369)
(1.76355 -1.21644 -2.33924)
(1.62076 -1.27934 -1.81873)
(1.72267 -0.882376 -1.81743)
(1.92246 -1.12192 -1.45349)
(1.41416 -2.06793 -0.576423)
(1.01836 -1.95075 -0.465814)
(0.617013 -1.77902 -1.20431)
(0.0294872 -1.61478 -1.36883)
(-0.291333 -1.80385 -0.900928)
(-0.337583 -1.58331 -1.40247)
(-0.568169 -0.872333 -1.63974)
(-0.731603 -0.738206 -1.35691)
(-0.737919 -0.732459 -1.38394)
(-0.858212 -0.336247 -1.40213)
(0.650421 2.38232 3.22204)
(0.562497 2.83164 2.90964)
(0.831364 2.94219 2.73584)
(0.321268 2.69823 3.11749)
(0.589274 3.07092 3.03754)
(1.39559 3.03262 2.74272)
(0.837609 2.62762 3.0673)
(1.28276 3.04678 2.98397)
(0.989503 2.9302 3.05624)
(1.10105 3.11174 2.96037)
(0.63206 2.89929 3.20041)
(1.81018 2.94218 2.75995)
(1.27086 3.47717 3.09209)
(0.836784 4.27682 2.54704)
(1.8167 3.0914 2.83688)
(1.51831 2.77766 2.91549)
(1.73055 2.90374 2.97763)
(2.18826 3.41807 2.75012)
(1.34625 4.13876 2.15242)
(0.946214 4.54286 1.36588)
(2.04717 3.25276 2.56959)
(1.4512 2.97411 2.74604)
(1.53906 2.93028 2.83932)
(2.33934 3.43745 2.48163)
(1.58781 4.43602 1.31803)
(1.07629 4.53313 1.25557)
(0.454039 4.13447 1.2359)
(2.91155 3.10395 1.19242)
(1.28362 2.54439 2.84723)
(1.65261 2.65485 2.05863)
(2.24156 3.26392 1.25482)
(2.00954 4.18537 0.383081)
(1.76009 4.40232 1.11085)
(0.711744 4.15462 1.48045)
(-0.235411 2.03874 1.21595)
(2.25841 3.14727 0.862994)
(1.19627 2.33099 1.57191)
(1.69315 2.63329 0.744148)
(2.51334 3.39506 -0.11228)
(2.1931 3.72823 -0.0810415)
(1.83798 3.5269 0.0318989)
(1.50915 2.42303 0.686443)
(-0.654162 1.76878 1.13643)
(-0.137435 1.1132 -0.174947)
(1.88761 2.30951 -0.591996)
(1.02569 2.02207 -0.0197744)
(1.96825 2.98731 -0.148907)
(2.27433 3.09707 -0.874592)
(2.53656 2.6163 -0.81029)
(2.249 1.68663 -0.834774)
(0.870919 1.16627 0.0620908)
(0.772136 1.11224 -0.657293)
(-1.0375 0.791828 0.0970194)
(-1.04781 1.13527 -1.1699)
(1.69963 1.82891 -1.17881)
(1.67087 2.37296 -1.09769)
(2.14847 2.65867 -1.02167)
(2.86291 1.65505 -1.12543)
(1.84393 1.81689 -1.72315)
(1.99578 1.05076 -1.00655)
(1.05792 0.900463 -0.804125)
(-0.13237 0.9018 -1.31564)
(-0.817816 0.905753 -1.1377)
(-1.13879 1.47371 -1.21755)
(-0.981815 1.23432 -1.68463)
(1.68656 1.67735 -1.85035)
(1.85531 1.83421 -1.61767)
(2.22318 1.91208 -1.314)
(2.38759 1.54789 -1.81083)
(2.1294 0.938759 -2.10797)
(2.22181 0.400027 -1.34124)
(1.48503 0.0965413 -1.50628)
(0.532216 0.160177 -1.61125)
(-0.313735 0.697903 -1.60233)
(-0.133768 1.05395 -1.83659)
(-1.60619 1.19234 -1.43205)
(-1.13882 0.0640309 -1.3622)
(1.78715 1.0725 -1.71524)
(2.10355 1.00522 -1.40301)
(2.19495 0.963908 -1.6928)
(2.07905 0.704823 -1.60745)
(2.20622 0.643971 -1.44331)
(2.1919 -0.256881 -1.52366)
(1.49046 -0.737367 -1.61639)
(1.02106 -0.497162 -1.70222)
(0.575206 -0.440929 -1.84123)
(0.0570772 -0.27016 -1.6393)
(-0.730164 -0.141466 -1.50554)
(-1.48493 0.200282 -1.19196)
(-0.756099 -0.933264 -1.23917)
(2.11877 0.464824 -2.0887)
(2.08992 0.471582 -2.06384)
(1.88039 0.610134 -2.10631)
(1.68439 0.234998 -2.21596)
(1.92052 -0.794186 -1.30688)
(1.41593 -1.06417 -1.47641)
(1.53072 -1.03295 -1.58247)
(0.90859 -1.16313 -1.34626)
(0.825733 -1.44764 -1.4694)
(0.515805 -1.28522 -1.72172)
(-0.225979 -1.20962 -1.56393)
(-0.542349 -0.942832 -1.33839)
(-0.768555 -0.657911 -1.03084)
(-0.928143 -0.496879 -1.04441)
(2.08893 -0.413793 -1.8787)
(1.98656 -0.270009 -2.5586)
(2.11039 -0.321726 -2.2749)
(1.82416 -0.457114 -1.56998)
(1.31792 -1.14885 -1.30637)
(1.4056 -1.65157 -0.776743)
(1.21594 -1.38304 -1.36433)
(0.698766 -1.53784 -1.19833)
(0.42106 -1.68434 -1.27858)
(0.190685 -1.44467 -1.65418)
(-0.302139 -1.01454 -1.56277)
(-0.882261 -0.796738 -1.17366)
(-0.79534 -0.479639 -1.17968)
(-1.03337 -0.0316652 -0.874627)
(-0.853247 -0.337145 -1.41098)
(1.87921 -1.34558 -1.99081)
(1.68944 -1.33193 -1.65857)
(1.78276 -0.938622 -1.68658)
(1.85464 -1.06314 -1.5462)
(1.41034 -2.05697 -0.559105)
(1.02798 -1.9624 -0.425055)
(0.588239 -1.76392 -1.18826)
(0.0118804 -1.58483 -1.31234)
(-0.248947 -1.8166 -0.837568)
(-0.342455 -1.58254 -1.40916)
(-0.598921 -0.865797 -1.64086)
(-0.674331 -0.739148 -1.38556)
(-0.735845 -0.736925 -1.38424)
(-0.87318 -0.343399 -1.38875)
(-1.09889 -0.00724728 -1.2359)
(-0.178058 2.48439 3.17313)
(0.328281 2.53535 3.22157)
(0.748836 2.32477 3.20759)
(0.258493 2.53763 3.31108)
(0.0741103 2.86858 3.11166)
(0.965389 2.73567 2.77828)
(0.641621 2.52054 3.20454)
(0.691278 2.92567 3.1989)
(0.473368 3.11853 3.26088)
(1.09649 2.98371 2.98904)
(0.773829 2.75905 3.05265)
(1.38155 2.8282 2.85268)
(0.427025 2.90388 3.73585)
(1.15964 3.63228 3.35592)
(1.63283 2.9531 2.82912)
(1.42196 2.76708 2.95804)
(0.753392 2.74123 3.34749)
(1.21983 3.14049 3.10646)
(0.482881 3.91133 3.51673)
(0.870355 4.21832 2.42513)
(1.9336 3.04312 2.76516)
(1.41987 2.97264 3.00329)
(1.46366 2.73036 3.13262)
(1.71221 3.47964 2.70807)
(1.81663 4.143 1.98654)
(0.502012 4.25335 2.19005)
(0.131511 4.58582 1.59546)
(2.35627 2.92826 2.56998)
(2.03827 3.05691 2.59498)
(1.41874 3.10779 2.78757)
(1.80791 3.47288 1.86598)
(1.67195 4.12356 1.84829)
(1.3286 4.43124 1.22212)
(1.04336 4.51644 2.01892)
(-0.0479718 3.85566 1.80438)
(2.5491 2.76374 2.44993)
(2.30759 2.56098 2.12482)
(1.70536 2.62636 1.52222)
(2.1628 3.00612 1.19178)
(2.59322 3.7729 0.287874)
(1.75515 4.40254 1.08113)
(2.02331 4.26303 0.234781)
(-0.424633 3.4004 2.09562)
(-1.00826 1.81594 1.11223)
(2.54172 2.69089 1.22249)
(1.25639 2.43045 1.49696)
(1.70727 2.48159 0.530497)
(2.81017 3.26807 -0.0957452)
(2.54755 3.63433 -0.209704)
(2.61588 3.21558 -0.43759)
(1.29968 2.8591 0.63597)
(-0.0962379 1.90585 0.743146)
(-1.37248 1.71369 1.37616)
(-1.12428 1.11711 -0.529932)
(1.9918 2.28208 -0.63378)
(1.01761 1.99883 0.0198834)
(2.06364 2.51292 -0.709264)
(2.44422 3.03569 -1.18581)
(2.50501 2.58247 -0.951036)
(2.33532 1.95952 -1.22843)
(1.27282 1.06318 0.00608893)
(0.914177 1.02438 -0.554882)
(-0.726823 0.92481 -0.418126)
(-1.55862 1.31366 0.0221067)
(-0.987928 1.72302 -1.42717)
(1.90475 1.67749 -1.38598)
(1.60428 2.29511 -1.33837)
(2.285 2.49967 -1.20515)
(2.34451 2.35509 -0.53643)
(2.13807 1.65016 -1.60509)
(1.96246 1.1214 -0.951792)
(1.26651 0.910311 -1.06886)
(0.314845 0.865405 -1.28323)
(-0.330251 0.775854 -1.48225)
(-1.04956 1.26076 -1.2566)
(-1.12567 1.73704 -1.47367)
(-1.75283 1.15069 -1.25048)
(1.86669 1.57247 -1.91197)
(1.82611 1.4337 -1.71673)
(2.11995 1.5278 -1.82716)
(2.47489 1.48094 -1.75531)
(2.03716 0.998696 -2.27582)
(2.26355 0.219363 -1.39008)
(1.91734 -0.149508 -1.39837)
(0.662231 0.043468 -1.65543)
(0.117205 0.439142 -1.60348)
(-0.710092 0.985211 -1.43398)
(-1.31023 1.24436 -1.56751)
(-1.81968 1.25838 -1.42245)
(-1.60212 0.241698 -1.07737)
(1.86408 0.982101 -1.73209)
(1.80099 1.00554 -1.64038)
(2.47325 0.461222 -1.35488)
(2.07057 0.856109 -1.66307)
(2.21118 0.410523 -1.38116)
(2.16039 -0.212848 -1.62038)
(1.57253 -0.745484 -1.70571)
(1.17677 -0.627695 -1.66301)
(0.834757 -0.598206 -1.79672)
(0.269379 -0.478357 -1.65819)
(-0.490285 -0.279576 -1.52129)
(-1.30755 0.0320322 -1.37366)
(-1.5632 -0.259581 -0.76161)
(-0.925883 -0.664094 -0.913647)
(2.17519 0.386311 -1.92146)
(2.10657 0.322964 -2.07955)
(2.15659 0.188329 -2.04766)
(1.84519 0.191798 -2.19461)
(1.66831 -0.670366 -1.70559)
(1.53297 -1.15797 -1.42305)
(1.53199 -1.08877 -1.61629)
(0.927926 -1.11824 -1.40521)
(0.865333 -1.48894 -1.38709)
(0.647036 -1.31367 -1.6765)
(-0.184615 -1.19711 -1.55375)
(-0.389238 -1.00059 -1.37751)
(-0.700735 -0.671516 -1.07167)
(-1.08031 -0.256197 -0.687564)
(-1.0759 -0.0442938 -0.810758)
(2.01869 -0.434218 -1.66106)
(2.1587 -0.53171 -2.28066)
(2.21621 -0.411214 -2.28373)
(1.75266 -0.406532 -1.76262)
(1.396 -1.20497 -1.28997)
(1.41924 -1.64867 -0.713223)
(1.16177 -1.35867 -1.36799)
(0.724675 -1.50374 -1.21388)
(0.457348 -1.60027 -1.26377)
(0.202443 -1.40537 -1.64781)
(-0.359789 -0.99902 -1.55031)
(-0.584187 -0.770893 -1.35251)
(-0.70861 -0.476794 -1.26512)
(-0.974703 -0.0309856 -0.921524)
(-1.53657 0.257906 -0.483382)
(-1.0483 -0.0176828 -1.34186)
(1.94947 -1.44531 -1.61917)
(1.75876 -1.40655 -1.47313)
(1.86094 -1.01447 -1.52388)
(1.78431 -0.994351 -1.70909)
(1.38909 -2.04623 -0.456977)
(1.01137 -1.9508 -0.426916)
(0.551276 -1.79316 -1.16422)
(0.0135698 -1.57035 -1.31207)
(-0.302319 -1.73945 -0.917252)
(-0.354059 -1.57682 -1.41918)
(-0.594007 -0.846254 -1.66028)
(-0.675297 -0.730525 -1.38841)
(-0.695549 -0.734053 -1.40947)
(-0.879214 -0.339568 -1.38378)
(-1.12919 -0.023614 -1.17825)
(-1.29298 -0.231184 -1.0674)
(0.484607 2.50123 2.71261)
(-0.100577 2.45766 3.19786)
(0.672854 2.53122 3.00278)
(0.445817 2.5291 3.12245)
(0.103126 2.45722 3.42604)
(0.677739 2.45643 2.97049)
(0.159029 2.57971 3.24445)
(0.0724771 2.61759 3.43385)
(0.294617 3.06103 3.29525)
(0.839118 2.77908 2.82189)
(0.85663 2.5212 3.09988)
(0.925936 2.6979 3.16843)
(0.202704 2.80512 3.75067)
(0.341153 3.0803 3.76047)
(1.57787 2.72924 2.92866)
(1.13756 2.85927 3.00023)
(0.923508 2.77265 3.02637)
(0.821592 2.77805 3.54657)
(1.08321 3.52106 3.59505)
(-0.133219 3.82413 3.74721)
(1.68813 2.88302 2.87781)
(1.76035 2.80254 2.8889)
(1.74144 2.22607 3.21628)
(1.7691 2.8924 3.04875)
(2.74502 3.42383 2.59545)
(0.689628 3.90406 3.38066)
(0.113423 4.17875 2.51806)
(2.1317 2.70989 2.8454)
(1.71923 2.87426 2.94486)
(1.55078 2.90985 2.99506)
(2.08641 3.02499 3.03303)
(2.18317 3.95014 1.87571)
(0.968485 4.49937 1.94436)
(0.362774 4.34018 2.30821)
(-0.0122948 4.64641 1.6692)
(2.32102 2.84167 2.69064)
(2.08216 2.98007 2.71731)
(1.82403 2.00059 3.30961)
(2.17028 3.40492 1.73098)
(2.01919 3.75099 1.58865)
(1.54851 4.34208 1.36581)
(1.55549 4.55207 1.68551)
(-0.41847 4.62708 2.16532)
(-0.933335 3.32342 2.03918)
(2.34632 2.96463 2.44122)
(2.31107 2.55697 2.27396)
(1.7508 2.41018 1.57874)
(2.33941 2.98789 1.1733)
(2.48438 3.71019 0.652675)
(2.22198 4.20776 0.854576)
(2.3967 4.38388 0.292925)
(0.486881 3.50875 1.98983)
(-1.34183 3.30991 1.56346)
(-1.88581 1.61936 1.69472)
(2.39437 2.37158 1.60122)
(1.59736 2.25458 1.054)
(1.79835 2.10861 0.479639)
(2.86364 2.71787 1.58318)
(2.77573 3.39739 -0.319211)
(2.72358 3.28407 -0.286825)
(1.55433 3.20172 0.674925)
(0.2382 1.57069 0.958783)
(-0.991439 1.71055 0.929875)
(-1.88826 1.62638 1.92165)
(-1.64992 1.49079 -0.151592)
(1.96562 2.15934 -0.204552)
(1.40637 2.04376 -0.0115436)
(2.03866 2.54298 -0.0168138)
(2.71231 2.65036 -1.06658)
(2.60926 2.50036 -0.909889)
(2.48657 1.97991 -1.3485)
(1.64751 1.18634 0.387302)
(1.22248 0.886002 -0.754458)
(-0.067503 0.930286 -0.984394)
(-1.40061 1.23709 -0.128963)
(-2.22577 1.92627 0.149052)
(-1.48855 1.69877 -1.20772)
(1.9378 1.73998 -1.43433)
(1.52407 2.11559 -1.39083)
(2.33995 2.15229 -1.26392)
(2.54084 1.93233 -1.1274)
(2.35781 1.38084 -1.71258)
(1.7625 1.32886 -1.33794)
(1.72677 0.661529 -1.33283)
(0.84071 0.820047 -1.23936)
(-0.393925 0.893123 -1.26399)
(-1.00643 1.1774 -1.28909)
(-0.894984 1.53323 -1.69527)
(-1.85591 1.62258 -1.3197)
(-1.91895 1.27855 -1.33465)
(2.16366 1.26702 -1.99391)
(1.7688 1.68572 -1.61179)
(2.32725 1.44603 -1.31263)
(2.71021 0.869289 -1.63036)
(2.01232 0.884668 -2.34324)
(2.12572 0.3107 -1.60441)
(2.04312 -0.287572 -1.44492)
(0.907375 -0.133608 -1.7132)
(0.308776 0.297541 -1.60889)
(0.0139519 0.606815 -1.69962)
(-1.18139 1.03149 -1.47357)
(-1.6488 1.19828 -1.63888)
(-1.70554 1.23379 -1.49152)
(-1.62785 -0.2696 -0.726532)
(1.95104 0.82219 -1.72896)
(1.90757 0.949329 -1.57948)
(1.86048 1.10608 -1.7689)
(2.11259 0.759237 -1.78743)
(2.00427 0.544289 -1.72469)
(2.20912 -0.209383 -1.57009)
(1.7514 -0.770722 -1.64314)
(1.32471 -0.675682 -1.63152)
(0.978749 -0.729214 -1.82178)
(0.566635 -0.598103 -1.68152)
(-0.414864 -0.377418 -1.51964)