/*--------------------------------*- C++ -*----------------------------------*\
  =========                 |
  \\      /  F ield         | OpenFOAM: The Open Source CFD Toolbox
   \\    /   O peration     | Website:  https://openfoam.org
    \\  /    A nd           | Version:  7
     \\/     M anipulation  |
\*---------------------------------------------------------------------------*/
FoamFile
{
    version     2.0;
    format      ascii;
    class       volScalarField;
    location    "7.5";
    object      nut;
}
// * * * * * * * * * * * * * * * * * * * * * * * * * * * * * * * * * * * * * //

dimensions      [0 2 -1 0 0 0 0];

internalField   nonuniform List<scalar> 
18870
(
0.000100634
0.000241571
0.000107753
0.000135181
0.000353968
0.000274497
0.000370116
0.00011713
0.000330642
0.000405338
0.000706664
0.000315418
0.000221217
0.000251904
0.000228799
0.000423345
0.000106165
0.000133124
0.000170467
0.000191726
0.000733247
0.000710807
0.000593749
0.00031945
0.000172457
0.000389515
0.00019843
0.000321175
0.000573115
0.000249543
9.69492e-05
0.000111
0.000143172
0.000154179
8.63549e-05
0.000568353
0.000606839
0.000600019
0.000716821
0.000520939
0.000338643
0.000304558
0.000127457
0.000348586
0.000501616
0.000185626
0.000248967
0.000427325
0.000236633
0.000680841
0.000129905
0.000185773
0.000241986
0.000106513
0.00023609
0.000202335
0.000807917
0.000347878
0.000726637
0.000598211
0.000493306
0.000410075
0.000578884
0.000453269
0.000359635
0.000407142
0.000318592
0.000141969
0.000479868
0.000645723
0.000460976
0.000151983
0.000314546
0.000330329
0.000209153
0.000346764
0.000290509
0.000144553
0.000298641
0.000418181
0.000134448
0.000577845
0.000129908
0.000164713
0.000457636
0.00084343
0.000730454
0.000960894
0.000824471
0.00089194
0.00034812
0.000524979
0.000824637
0.000233274
0.00057808
0.000468452
0.000491254
0.000426522
0.000265521
0.000307654
0.000136399
0.000345994
0.000635467
0.000554109
0.000328145
0.000139418
0.000450035
0.000480494
0.00020808
0.000289273
0.000219543
0.000242426
0.000167451
0.000405923
0.00021627
0.00018875
0.000112781
0.000125461
0.000227139
0.000194255
0.000574531
0.000693526
0.000736467
0.00086546
0.00108088
0.00140636
0.000397287
0.000856586
0.000770399
0.000433808
0.000277501
0.000549985
0.000493756
0.000754303
0.000850094
0.000536211
0.000471796
0.000210033
0.000450096
0.000626526
0.000161566
0.000260663
0.000168548
0.000554751
0.000474102
0.000500759
0.000393965
0.000201369
0.000114451
0.000206935
0.000429029
0.000160538
0.000580378
0.000244189
0.000148772
0.00030064
0.000249173
0.000323582
0.00017857
0.000278524
0.0001497
9.80959e-05
0.000127868
0.000201852
0.000153816
0.000942118
0.000394956
0.00043142
0.0009372
0.000831995
0.000852421
0.000947237
0.000573928
0.00129714
0.000915769
0.000871674
0.000769616
0.000771864
0.000927632
0.000948114
0.000500721
0.000535435
0.000425296
0.000302777
0.00103428
0.000782036
0.000596575
0.000294818
0.000315383
0.000734765
0.000372172
0.000499617
0.000425985
0.000296214
0.000213849
0.000507677
0.00046674
0.000458563
0.000272323
0.000365744
0.000513082
0.000116471
0.000363336
0.000359893
0.000228144
0.000260204
0.000332719
0.000261683
0.000248038
0.000284197
0.000136751
0.000130583
0.000193359
0.000226826
0.000138924
9.19066e-05
0.000127772
0.000166347
9.28166e-05
0.000193946
0.000930157
0.000831063
0.000596959
0.000412285
0.000635526
0.00051619
0.00068056
0.00123005
0.000655479
0.000390533
0.000882169
0.00081145
0.00099092
0.000570893
0.000776155
0.000768196
0.000407106
0.000449627
0.00130259
0.000928154
0.00134981
0.000569388
0.000796714
0.000499196
0.000407049
0.000744261
0.000496117
0.000420487
0.000613424
0.00033158
0.000458038
0.000648494
0.000263869
0.000508583
0.000395346
0.000281004
0.000281757
0.000197592
0.000709021
0.000542134
0.00039705
0.00035276
0.000957372
0.000413375
0.000365534
0.000123595
0.000894032
0.000250185
0.000196972
0.000243888
0.000256235
6.69372e-05
0.000350504
0.000275606
0.000201268
9.38131e-05
0.000188763
9.71653e-05
0.000122483
0.000325774
0.000397775
0.000128877
0.000178478
8.67644e-05
0.000179952
0.000143338
0.00193617
0.0016028
0.000936435
0.000796254
0.000710251
0.00113434
0.000372168
0.000756377
0.000392299
0.00107975
0.000662616
0.000972805
0.000214517
0.00119435
0.000648559
0.000750679
0.000484898
0.00114718
0.000477453
0.000722158
0.00141376
0.000706063
0.000653587
0.000388784
0.0014827
0.00106904
0.00127296
0.000666979
0.000677388
0.000774405
0.000606208
0.000337738
0.00044484
0.00069403
0.00079422
0.000240697
0.000481801
0.00065268
0.000424258
0.000574002
0.000707816
0.000328556
0.000357774
0.000313221
0.000292669
0.000351018
0.000289754
0.00093408
0.000543439
0.000533103
0.000258503
0.000247459
0.000387065
0.000326361
0.000292029
9.12367e-05
0.000340744
0.000238619
0.000256421
0.000308394
0.00032404
0.000134513
0.000357429
0.000293931
0.000281303
0.000395661
0.000105757
0.000272612
0.000225497
6.48746e-05
0.000145285
0.000501248
0.000112636
8.05345e-05
0.000198041
0.000204696
0.000105975
0.000142514
0.00195189
0.00143189
0.000767611
0.000449623
0.000694886
0.000782934
0.000571139
0.00069296
0.00106688
0.000736291
0.000346112
0.000410761
0.000634876
0.00121108
0.00122006
0.000505362
0.000457937
0.00110986
0.00143133
0.000488303
0.000365157
0.000682242
0.000677978
0.000494336
0.000728806
0.000253683
0.00106073
0.000517536
0.000558151
0.000675031
0.000585248
0.00161995
0.000399525
0.000806778
0.00127076
0.000766224
0.000724821
0.000789861
0.00122381
0.000613297
0.000529066
0.000755415
0.000584175
0.000336791
0.000565537
0.000462038
0.000487365
0.000500431
0.000531152
0.000146099
0.000653784
0.000555224
0.000395361
0.000236905
0.000470741
0.000249663
0.000348877
0.000466524
0.000647435
0.000541212
0.000189434
0.000297414
0.000458873
0.000381739
0.000335229
0.000534272
7.92165e-05
0.000476283
0.000154693
0.000260583
0.000393965
0.000343075
0.00022342
0.000356587
0.000274423
0.000233478
0.000266977
0.000293995
0.000127956
0.000177672
0.000203668
0.000380775
0.000112451
0.000128867
0.000415691
0.00013932
0.000141963
0.000106133
6.39539e-05
7.41984e-05
0.000127707
0.000823865
0.000703528
0.000640318
0.000774554
0.00125931
0.000873911
0.000813865
0.00116618
0.000825696
0.00155734
0.000799801
0.00104491
0.00108287
0.00071985
0.00130706
0.00066852
0.000644465
0.00124278
0.000630704
0.000658541
0.000957519
0.000625719
0.000546404
0.000787684
0.000431034
0.000392903
0.000254983
0.00086494
0.000915154
0.00112096
0.000850562
0.000806553
5.80972e-05
0.000823509
0.00103255
0.0013512
0.000623806
0.000599066
0.0007296
0.00164379
0.000529675
0.00101662
0.00106398
0.000977433
0.000910113
0.000693161
0.00101974
0.000307898
0.000561707
0.000573324
0.00074686
0.0012562
0.000612132
0.000430643
0.000365733
0.000437773
0.000367475
0.000627198
0.000290249
0.000264741
0.000528127
0.000609033
0.000395589
0.000321854
0.000732602
0.000310599
0.000406926
0.000331955
0.000426514
0.000549266
0.000518929
0.00022223
0.000310895
0.000723773
0.000407424
0.000254977
0.000399802
0.000506483
0.000114479
0.000315346
0.000147887
0.000279052
0.000362756
0.000343194
0.00027964
0.00035509
0.000286689
0.000277695
0.00014211
0.000331395
0.000261683
0.000102818
0.000138808
0.000202566
0.000239474
0.000495103
0.000110188
0.000749371
0.000246615
0.000192055
0.000137543
7.88387e-05
9.30182e-05
0.000134613
0.000103035
0.000544954
0.000635873
0.00075549
0.00114592
0.000724039
0.000465368
0.000960727
0.00124589
0.000791885
0.00127097
0.00105451
0.00123138
0.00107566
0.00114979
0.00118545
0.00089532
0.000948105
0.00101879
0.00093738
0.00130612
0.000811887
0.000925928
0.000806218
0.000489021
0.000955294
0.00103247
0.000901034
0.000605444
0.000532553
0.000619454
0.00112376
0.000321515
0.00041227
0.000707297
0.000739292
0.000520169
0.000665283
0.00125605
0.000563539
0.000643283
0.000382983
0.00120213
0.000637817
0.00116754
0.00100443
0.000453489
0.000359353
0.000890339
0.00119896
0.00051592
0.000959484
0.000664625
0.00103175
0.000996475
0.000994671
0.000653722
0.000690162
0.000667075
0.00124682
0.000769872
0.000994505
0.0018041
0.000415703
0.000484189
0.00101624
0.000283468
0.000616177
0.000323962
0.00108503
0.000900843
0.00128436
0.000543764
0.000887999
0.000523884
0.000375392
0.000574515
0.000371951
0.000371295
0.000589254
0.000457898
0.00050425
0.000461933
0.000736647
0.000542079
0.000309526
0.000730048
0.00035411
0.000273873
0.00028148
0.000283991
0.000586355
0.000114612
0.000326985
0.000148342
0.000236846
0.000313709
0.000432684
0.000345986
0.00042211
0.000346139
0.000303072
0.000130728
0.000297879
0.000236578
0.000281669
8.43671e-05
0.000164837
0.000185816
0.000145033
0.000788507
0.000366681
0.000115181
0.000105384
0.000137
0.000198825
0.000159784
7.81326e-05
0.000129384
0.00012797
0.000172891
0.000729765
0.000814585
0.000909008
0.000756534
0.00106825
0.000765586
0.000843606
0.000840762
0.00057371
0.000581031
0.000773664
0.000512978
0.000972588
0.000930917
0.00104234
0.000673161
0.00100372
0.00124193
0.0011771
0.0012104
0.00107563
0.000794203
0.00119772
0.000992313
0.000903063
0.000986246
0.000697258
0.000954886
0.000922424
0.00119074
0.000675153
0.000475831
0.000706108
0.00105584
0.000789981
0.000869417
0.000650963
0.000646242
0.000722419
0.000275868
0.000503416
0.00039577
0.00119855
0.000579209
0.000747206
0.000391026
0.000798431
0.000543055
0.000588326
0.000484186
0.000825091
0.000893003
0.000952012
0.000801744
0.000561111
0.000216397
0.000349813
0.00145823
0.00105774
0.000719531
0.000783654
0.000744698
0.00125102
0.000998974
0.000666691
0.00136819
0.000630281
0.000897578
0.000869627
0.000476393
0.00107201
0.00124248
0.00118737
0.000596144
0.000892051
0.00096338
0.000328627
0.000518681
0.000845685
0.000740191
0.000588066
0.00063768
0.00036996
0.000347082
0.000798508
0.000837144
0.000442411
0.000683846
0.000431707
0.000244967
0.000455676
0.000401486
0.0003807
0.000522377
0.000661781
0.000821078
0.000203597
0.000218193
0.000383204
0.000389496
0.00033179
0.00048433
0.000488368
0.000461902
0.000273738
0.000140527
0.00049456
0.000170114
0.000289183
0.000230046
0.000531333
0.000132891
0.000368638
0.000256299
0.000339806
0.000259292
0.000249684
0.000231751
0.00029001
0.000402402
0.000131615
0.000215114
6.1488e-05
0.000124161
0.000124226
3.64607e-05
0.000121382
5.77094e-05
0.00011973
0.000118121
0.00027137
8.30801e-05
0.000103391
0.000125588
0.000182689
0.000106172
0.000410043
0.000961829
0.000869767
0.000808418
0.000717813
0.00080787
0.000623621
0.00068273
0.00101219
0.000796586
0.00072042
0.00057867
0.00073114
0.000738885
0.000546571
0.00103954
0.000533459
0.000659723
0.00100779
0.000444093
0.00059005
0.000833954
0.00110601
0.00103321
0.00123972
0.00101392
0.000518662
0.000744688
0.000927157
0.00144053
0.00136785
0.0010333
0.00070129
0.000751174
0.00110712
0.00135964
0.000755704
0.00164056
0.000824176
0.000460572
0.00081374
0.00103288
0.000558639
0.000905791
0.000928218
0.000576334
0.000720298
0.00115327
0.000246153
0.000547097
0.000799073
0.00167285
0.000658331
0.00076741
0.000907499
0.000614894
0.00086768
0.000910066
0.000796469
0.000386374
0.00065067
0.000571785
0.00191363
0.000838713
0.000754299
0.000679492
0.000436966
0.000384595
0.00101579
0.00127661
0.00185387
0.000813146
0.000360638
0.00138812
0.000974097
0.00111797
0.0012054
0.000713827
0.00042474
0.000950662
0.000879681
0.000616828
0.00126159
0.00112991
0.00111942
0.000768013
0.00107882
0.00057345
0.000649729
0.000231802
0.000357116
0.000725583
0.000870543
0.000214646
0.000393321
0.000694165
0.000237354
0.000546409
0.000681833
0.000709685
0.000495885
0.00039713
0.000365036
0.000420973
0.000437273
0.000268927
0.000441847
0.000376626
0.000394096
0.00075697
0.000418182
0.000232676
0.000294135
0.000327035
0.000467216
0.000752669
0.00048305
0.000302974
0.000313963
0.000394482
0.000199268
0.000507891
7.83545e-05
0.000208204
0.000252051
0.000389558
0.00048663
0.000161474
0.000230249
0.00032931
0.000488936
0.00019996
0.00029611
0.00027526
0.000377787
0.000255629
0.000186098
0.000231739
0.000250106
0.000135231
9.77157e-05
9.37311e-05
0.000438209
0.000222105
0.000262849
0.000155927
0.000260706
8.48193e-05
0.000110276
0.000120119
0.000129499
0.000113305
0.000141891
0.000474194
0.000732173
0.000455338
0.00055453
0.000573633
0.000785099
0.000527277
0.000612963
0.000581449
0.000868889
0.000769323
0.000814241
0.000663632
0.000659651
0.000643979
0.00080791
0.000755158
0.000827299
0.000749573
0.000770186
0.00077444
0.000893555
0.00077549
0.000813287
0.000909057
0.000691375
0.000824165
0.000964724
0.000871238
0.000927005
0.000986684
0.00102093
0.000469066
0.000552936
0.000607011
0.00101227
0.000878376
0.00104195
0.000994774
0.000950102
0.000566612
0.00070264
0.00115002
0.000957152
0.00109569
0.00102572
0.000977807
0.000581219
0.000443853
0.000734802
0.000958044
0.000418504
0.000880912
0.000940624
0.00140574
0.000905206
0.000475486
0.000286433
0.000235947
0.00060879
0.00081749
0.00149205
0.000676612
0.000954716
0.000540118
0.000806822
0.000473632
0.000573384
0.000391566
0.000406386
0.000992106
0.000705834
0.000363066
0.00148276
0.00115725
0.000724832
0.000471115
0.000402219
0.000266453
0.000520652
0.00107346
0.000685068
0.00149686
0.00105104
0.000264448
0.000646384
0.00147439
0.000815566
0.0009797
0.000884877
0.000633465
0.000483059
0.00132199
0.00152695
0.00110885
0.000761742
0.00108478
0.00196238
0.00046632
0.00119741
0.000648014
0.000242912
0.000732534
0.000396651
0.000430317
0.000457415
0.000862847
0.000398872
0.000776778
0.00072467
0.000466509
0.000697879
0.000525579
0.000344596
0.000820197
0.000544527
0.000702786
0.000415381
0.000309593
0.000393455
0.000246696
0.000486784
0.000469655
0.000514335
0.000633816
0.000544918
0.000621102
0.000374156
0.000307549
0.000543318
0.000547033
0.000473964
0.000461046
0.000350117
0.000416389
0.000467915
0.000250677
0.000558653
0.000203457
0.000148042
0.000298688
0.000345635
0.000676642
0.000194845
0.00025564
0.000261172
0.000548274
0.000211012
0.000379636
0.000270397
0.000410309
0.000293273
0.000222207
0.000180145
0.000168242
0.000317884
0.000180512
0.000523755
0.000379946
0.000113238
8.40435e-05
6.34916e-05
0.000143693
0.000222787
0.000122071
9.65476e-05
0.000134396
0.000115789
9.27462e-05
6.84516e-05
7.89546e-05
0.000683235
0.000609369
0.000694683
0.000656698
0.000597629
0.000626149
0.00080943
0.000765607
0.000577314
0.000608313
0.000613389
0.000824783
0.000589942
0.00052254
0.000607554
0.000833677
0.000969512
0.000748127
0.000578436
0.000735102
0.000753287
0.000878139
0.000801207
0.000941361
0.000748683
0.000562988
0.000747337
0.000921376
0.000639296
0.000641246
0.000829804
0.000669878
0.000738869
0.000735368
0.000851048
0.000588463
0.000819659
0.000965665
0.00111631
0.000546451
0.000394892
0.00059044
0.000995667
0.000814801
0.000717229
0.000638329
0.0016231
0.000744055
0.000592545
0.000824668
0.000560614
0.00121935
0.00095602
0.000878415
0.000626868
0.000885847
0.000833146
0.000906193
0.000543083
0.000640675
0.00102147
0.000722302
0.000576719
0.000816118
0.00163196
0.00112547
0.000917122
0.000915349
0.000920385
0.000719553
0.0009605
0.000828213
0.00178601
0.00104458
0.00109113
0.000775422
0.00100508
0.000598389
0.000658613
0.000846034
0.000312403
0.000598539
0.000384257
0.00097352
0.00038445
0.0010601
0.00112539
0.000403664
0.000466387
0.000922104
0.000688909
0.0002892
0.000460647
0.000422903
0.000734696
0.00095137
0.00101249
0.000660723
0.00105187
0.00101716
0.000844501
0.000855734
0.000898208
0.000558706
0.000683811
0.00089125
0.00120907
0.000568081
0.000615325
0.000421849
0.00118366
0.00158754
0.000471562
0.000773487
0.000810439
0.000423845
0.00110921
0.000773302
0.000585044
0.000549573
0.000580689
0.00128996
0.000344899
0.000287039
0.00056244
0.0011252
0.000998828
0.000646601
0.00019171
0.000939392
0.000891761
0.000423336
0.000578113
0.000486155
0.000546036
0.00052387
0.000337686
0.000820631
0.000458658
0.000477493
0.000609254
0.0002079
0.00104474
0.000370998
0.000313766
0.000273694
0.000476341
0.000466452
0.000678626
0.000299504
0.000291317
0.000384413
0.00021208
0.000183238
0.000481459
0.000287368
0.000258658
0.000215382
0.000279026
0.000569224
0.000173215
0.00028234
0.000220314
0.000379666
0.000215813
0.000340893
0.000280111
0.00052985
0.000274655
0.000178812
0.000201974
0.000159798
0.000238361
0.000219964
0.000211813
0.000403864
0.000125607
0.000108462
0.000153395
9.24119e-05
0.00012818
0.000139322
0.000118943
5.51031e-05
0.0001563
0.000101636
7.92473e-05
7.77815e-05
7.50297e-05
0.000190992
0.000500408
0.000419089
0.000672059
0.000406384
0.000543799
0.000681938
0.000603387
0.000571607
0.000759403
0.000598664
0.000745372
0.000578015
0.000690938
0.00062695
0.000512356
0.000610705
0.000634521
0.000663991
0.000674165
0.000511413
0.000591305
0.000914676
0.000751805
0.000663002
0.000778594
0.000800353
0.000811972
0.000766632
0.00114552
0.000780597
0.000635456
0.00105202
0.000837032
0.00055317
0.000689158
0.000580647
0.000745
0.000751085
0.000424396
0.000400026
0.000735855
0.000789841
0.000521595
0.000735193
0.000973456
0.000631723
0.000628851
0.000657594
0.000589411
0.000525274
0.00105283
0.00115924
0.000718015
0.000674917
0.000825558
0.000816541
0.00119945
0.000610147
0.000570739
0.00073368
0.000332342
0.000746687
0.0011215
0.00157525
0.000449905
0.000856643
0.000953689
0.000825597
0.000890595
0.000551403
0.000766402
0.000861602
0.000776859
0.0013672
0.000718137
0.00130508
0.0010562
0.00117183
0.00093187
0.000727402
0.00104927
0.000860626
0.000521219
0.000751496
0.00203536
0.00212647
0.000728897
0.000643964
0.000633315
0.000622808
0.000201643
0.000677592
0.00088655
0.000273223
0.000759433
0.000511921
0.000815697
0.000204585
0.00127572
0.000889951
0.000595859
0.000315123
0.000773263
0.000994637
0.000929427
0.000302646
0.000496368
0.00054383
0.000746182
0.000853419
0.00127751
0.00102933
0.000578938
0.000807148
0.000806941
0.00109855
0.000675676
0.00100811
0.000776909
0.000728762
0.000724608
0.00131617
0.00238595
0.000891976
0.00064805
0.00170615
0.00125375
0.000594554
0.000705296
0.000753721
0.000550571
0.000415119
0.000649091
0.000778732
0.000501018
0.00042423
0.000706763
0.00157683
0.000987812
0.000684076
0.000535565
0.000393135
0.00106524
0.000761825
0.000279714
0.000382294
0.000470604
0.000414816
0.000757767
0.000719039
0.000353823
0.000686352
0.000384828
0.000280093
0.00114676
0.000449386
0.000469828
0.000488918
0.000517698
0.00102753
0.000251886
0.000356251
0.000267565
0.000577212
0.000421067
0.000455358
0.000203631
0.000408571
0.000380616
0.000312048
0.000191937
0.00024074
0.000545585
0.000156246
0.000403322
0.000244136
0.000187715
0.000447557
0.000242189
0.000256985
0.000221853
0.00016888
0.000269614
0.000366649
0.000253063
0.000567287
0.000271717
0.000251541
0.000208264
0.000127065
0.000174857
0.00031193
0.000177105
0.000228427
0.000253843
0.00011509
0.000199152
9.1238e-05
0.000100699
0.000138438
0.000124841
0.000103214
8.28071e-05
0.000156696
0.000138427
0.000120562
0.000117222
8.70513e-05
4.37759e-05
6.0648e-05
0.000717292
0.000550113
0.000609857
0.000594466
0.000571563
0.000592114
0.000531317
0.000536674
0.000508099
0.000470658
0.000399307
0.000512663
0.000614781
0.000581753
0.000561982
0.000631788
0.000489627
0.000534637
0.000677121
0.00069467
0.000704144
0.000931985
0.000605092
0.000527539
0.000606829
0.000608966
0.00042154
0.00049362
0.000837318
0.000641186
0.000520048
0.000628071
0.000768049
0.000554004
0.000451557
0.00059264
0.000763581
0.000877592
0.000980094
0.000960511
0.000748289
0.000464195
0.000462961
0.00085893
0.000395981
0.000652939
0.00100426
0.000816546
0.000575113
0.000881995
0.000911606
0.000476418
0.000404847
0.000784292
0.00143383
0.000103178
0.000422496
0.000959599
0.000777685
0.000798755
0.000790901
0.000643831
0.00160944
0.000648067
0.000702676
0.000768628
0.000976775
0.00066924
0.00041462
0.00064229
0.000618231
0.00044438
0.0014058
0.000936153
0.00187682
0.000782195
0.000734495
0.000804705
0.00108587
0.000885286
0.000406313
0.00051812
0.000934758
0.000892971
0.00111851
0.000528491
0.000602188
0.00102281
0.00158617
0.000436337
0.000744852
0.000576534
0.000409909
0.000606904
0.00116715
0.000450725
0.000815153
0.00148484
0.00155543
0.000466419
0.000421641
0.00067284
0.00094398
0.000797117
0.000419134
0.00066835
0.000702779
0.00048112
0.000433162
0.00101418
0.0010114
0.000539951
0.000484456
0.00098192
0.000505858
0.0004232
0.000808246
0.00218223
0.000542729
0.00044133
0.00101049
0.000865506
0.000463867
0.000768072
0.000971811
0.00217195
0.000834713
0.000682072
0.00063332
0.000618419
0.00107078
0.000681281
0.000692651
0.000618115
0.000603752
0.000625311
0.000777772
0.00100718
0.00133037
0.00126852
0.000768757
0.00161679
0.00154176
0.000731622
0.000576931
0.000872541
0.000845204
0.000772195
0.000591508
0.000520448
0.000371396
0.000600322
0.000487039
0.000827791
0.00186445
0.000970421
0.000750765
0.000556613
0.00045394
0.001039
0.000636939
0.000297965
0.000448742
0.000601612
0.000383253
0.000644744
0.000411704
0.000538449
0.000689867
0.000608764
0.000371473
0.000362769
0.000825233
0.000434899
0.000632527
0.000326131
0.000443976
0.000521094
0.000621144
0.000368019
0.000285815
0.000483369
0.00057963
0.000404687
0.000256866
0.000402763
0.000377058
0.000470669
0.000231796
0.000351879
0.000325482
0.000494925
0.000313107
0.000353922
0.000328429
0.000249744
0.000415424
0.000236517
0.000214072
0.000195128
0.000167064
0.000367475
0.000432543
0.000279303
0.000586763
0.000239876
0.000239633
0.000205487
0.00016558
0.000156635
0.000167933
0.000194123
0.000264595
7.60857e-05
0.0001957
0.0001179
0.00010748
0.000115686
9.65161e-05
0.000195457
0.000106136
0.000130658
0.000118702
0.000189817
0.000141064
9.21336e-05
8.33436e-05
8.47042e-05
2.22325e-05
9.27366e-05
0.000114151
0.000906055
0.000591821
0.000781522
0.000483331
0.000606412
0.000567842
0.000557344
0.000642966
0.000560335
0.000447993
0.000458665
0.000573963
0.000549455
0.000537304
0.000572631
0.000871174
0.000433414
0.000351916
0.000530421
0.000658073
0.00071228
0.00110342
0.000760867
0.000605199
0.000495606
0.000634452
0.000768566
0.000642574
0.000622166
0.000736457
0.0006773
0.0003583
0.000464059
0.000556188
0.000655143
0.000808529
0.000612302
0.00060486
0.000659786
0.000756356
0.00065879
0.000543867
0.000404124
0.000476286
0.00040982
0.000823954
0.000715795
0.000822978
0.00083069
0.000457855
0.000389823
0.000550318
0.000325752
0.000614037
0.000295358
0.000865302
0.000547449
0.000566531
0.000935985
0.00103812
0.0007768
0.00108391
0.000621838
0.000921383
0.000656616
0.00133086
0.00075633
0.00042764
0.000299711
0.0004363
0.000772259
0.0005323
0.000594595
0.00156433
0.000582497
0.000937818
0.000393521
0.000960085
0.000633661
0.00055504
0.000844704
0.000840342
0.000532086
0.000604777
0.000733778
0.000544585
0.00160307
0.00126602
0.000922822
0.000543079
0.00057553
0.000852372
0.000936494
0.00055553
0.000493391
0.000794854
0.000765999
0.00117297
0.000387076
0.000492008
0.000995586
0.00164714
0.000556493
0.000964716
0.000762664
0.000488858
0.000452437
0.000727399
0.00101497
0.000728651
0.000582424
0.000652631
0.00202477
0.000391845
0.000479257
0.00104857
0.000723289
0.000981843
0.000984704
0.000737737
0.00114714
0.000945754
0.000548596
0.000632231
0.00106096
0.000772899
0.000624617
0.000397182
0.000682717
0.000397562
0.00026851
0.000859364
0.00068804
0.0008767
0.000748189
0.000697946
0.000835788
0.00112564
0.00116031
0.000939648
0.000687718
0.00169288
0.00103433
0.000499594
0.000350122
0.000734319
0.00073493
0.000942821
0.000878626
0.000627785
0.000353019
0.000760733
0.000424543
0.000676332
0.000787958
0.00149668
0.000410654
0.00088157
0.000953024
0.00151436
0.000893519
0.000708738
0.000605572
0.000984391
0.000624019
0.000710736
0.00051738
0.000403822
0.000786755
0.00042461
0.000700152
0.00107569
0.00154565
0.0010329
0.000715787
0.000475667
0.000476501
0.00071501
0.00050584
0.000356847
0.000556983
0.00080367
0.00038015
0.000543412
0.000454981
0.000319178
0.000296041
0.000898471
0.000309696
0.000342099
0.000412382
0.000836261
0.000474799
0.000679056
0.000488174
0.000464355
0.000514019
0.000147461
0.000502863
0.000311919
0.000493494
0.000420459
0.000486345
0.000302907
0.000347926
0.000317487
0.000167224
0.00031911
0.000241228
0.000199203
0.000354394
0.000422496
0.000277346
0.000253867
0.000755662
0.000277397
0.000200896
0.000161444
0.000258886
0.000244043
0.000226171
0.000197976
0.000427145
0.000364488
0.000361142
0.000351048
0.000202635
0.000223419
0.000136878
0.000188359
0.000116422
0.00014162
0.000269547
0.000283934
0.000176823
0.00031062
0.00011432
0.000160213
0.000118576
0.000173877
0.000133086
0.000108019
0.000188634
0.000183295
0.000148631
0.000146112
9.50391e-05
8.18319e-05
6.45413e-05
8.86924e-05
6.15847e-05
6.27014e-05
0.000214406
0.00122496
0.000871486
0.000822617
0.00065362
0.000732906
0.000765792
0.000452498
0.000548472
0.000589703
0.000594238
0.000525231
0.000528073
0.000601475
0.000592829
0.000509663
0.000610127
0.000522449
0.000440827
0.000499413
0.000547487
0.000525033
0.000719613
0.000663465
0.000356661
0.000385524
0.000468345
0.000659629
0.000535331
0.000506167
0.000728634
0.000724935
0.000554755
0.000488933
0.000502922
0.000687385
0.000652928
0.000530629
0.000524548
0.000668951
0.000649973
0.000431083
0.000514615
0.00088368
0.000877713
0.000777022
0.0006736
0.00082386
0.000725636
0.000653374
0.000704928
0.000529383
0.00059503
0.000722344
0.000844782
0.00110616
0.0010384
0.000887448
0.000711482
0.000592002
0.000397039
0.000684138
0.000316171
0.000175601
0.000721889
0.00056563
0.000620339
0.0013082
0.00100148
0.000854101
0.00106987
0.00080161
0.000588529
0.000868187
0.000714042
0.000849215
0.000870829
0.000797969
0.000798819
0.000855064
0.00074872
0.000812899
0.000376427
0.000723321
0.000621125
0.000560143
0.000819151
0.00112881
0.000639179
0.000369129
0.000692154
0.000700051
0.000246396
0.00045854
0.00099381
0.000966016
0.000582871
0.000814215
0.00083561
0.000572164
0.00100254
0.0013126
0.000625118
0.000732473
0.000816349
0.00101799
0.000632039
0.000357456
0.000453753
0.000712043
0.000682078
0.000700192
0.00133964
0.000410805
0.000577407
0.000617143
0.0013259
0.00099522
0.000653978
0.000759194
0.000877821
0.000928697
0.000826457
0.000394578
0.000851768
0.000592519
0.000805352
0.000918452
0.00159431
0.000770644
0.000381158
0.00073639
0.000515252
0.000717465
0.000682402
0.000816426
0.000507074
0.00100885
0.00120972
0.000578713
0.000642397
0.00126791
0.000947342
0.000801532
0.000503248
0.000752853
0.000326802
0.000485447
0.000805548
0.00110001
0.000910042
0.000767357
0.000845415
0.0009476
0.000776102
0.00159037
0.00088632
0.00107001
0.000507827
0.0016737
0.000866866
0.000695457
0.000351552
0.000708872
0.00111056
0.000579905
0.000550212
0.000703358
0.000581904
0.000456977
0.000721392
0.00110152
0.000641278
0.00111872
0.000807877
0.000389589
0.000816306
0.000747523
0.00118849
0.00114932
0.000484051
0.000782742
0.000678754
0.000636179
0.000624966
0.00050407
0.000456347
0.000279088
0.000826771
0.00051699
0.000453664
0.00148803
0.000771825
0.00125133
0.000515931
0.000502479
0.000379266
0.000473311
0.000510593
0.000393056
0.000388517
0.000670737
0.000494915
0.000502318
0.00044927
0.000639424
0.000506381
0.000249092
0.00032324
0.000308995
0.000420407
0.000584439
0.000880396
0.000558673
0.000533639
0.00046827
0.00039789
0.000126828
0.000443224
0.000473232
0.000275673
0.00048509
0.000641628
0.000531006
0.000251244
0.000411408
0.000420574
0.000241075
0.000341757
0.000262994
0.000242084
0.000323124
0.000251565
0.000805833
0.000398764
0.000485618
0.000668661
0.000295652
0.000362492
0.000268464
0.000249611
0.000199002
0.000245258
0.000167038
0.000432252
0.000109327
0.000289082
0.000613527
0.000241194
0.00027903
0.000136201
0.000155984
0.000165691
0.000259384
0.000185731
0.00027105
5.84611e-05
6.98634e-05
0.000285913
0.000238506
0.000133231
0.000153985
0.000221549
0.000121725
0.00012665
0.000142061
0.000188734
0.000110029
0.000178587
0.000132794
0.000122312
5.43514e-05
6.50519e-05
0.000118747
4.38759e-05
0.000192795
0.000277979
0.000802399
0.00121909
0.0010868
0.000985738
0.000887773
0.000863663
0.000712419
0.000680451
0.000704747
0.000754385
0.000496857
0.000501441
0.000519767
0.000636626
0.000578587
0.000574502
0.00062198
0.000544539
0.000435717
0.000430377
0.000498673
0.000415529
0.000508931
0.000571245
0.000424195
0.000505973
0.000373006
0.00050118
0.000387259
0.000492993
0.000370643
0.000382352
0.000522036
0.000589141
0.000481584
0.000574548
0.000671804
0.000461367
0.000374368
0.000552098
0.000575594
0.00050527
0.000551958
0.000569315
0.000481057
0.000563041
0.000634973
0.00046526
0.000608324
0.000736834
0.000443217
0.000511725
0.000407183
0.000356137
0.000394488
0.000380213
0.000523119
0.000692866
0.000531779
0.000531251
0.000627445
0.000751567
0.000747547
0.000887271
0.00104209
0.00127264
0.000322194
0.000354708
0.000741268
0.000627094
0.000531018
0.000605514
0.000547672
0.000308107
0.000336415
0.000648684
0.000720079
0.000550079
0.000472596
0.000525303
0.000933659
0.00107448
0.000472754
0.000515424
0.00071859
0.000839274
0.000669529
0.000429375
0.000701412
0.000769936
0.00092462
0.000424901
0.000571403
0.00103822
0.000673079
0.000674797
0.000711628
0.000456929
0.00061225
0.00105783
0.000371911
0.000360124
0.000559727
0.00102343
0.000812843
0.000291783
0.000466256
0.000310853
0.000458421
0.000608851
0.00110527
0.000276088
0.000608272
0.000561341
0.00111548
0.000613018
0.000714659
0.000762484
0.00093486
0.000861838
0.000537439
0.000347168
0.000525708
0.000823697
0.000652233
0.000631567
0.00118223
0.000849825
0.000541522
0.000387927
0.00137896
0.000990001
0.00069045
0.000582992
0.000678516
0.000886438
0.000767629
0.00047928
0.000475817
0.000705589
0.000988511
0.000854558
0.000421314
0.000950304
0.0011834
0.000447172
0.000604775
0.000561217
0.000849717
0.000574322
0.00051564
0.000643641
0.000533651
0.000533702
0.0007879
0.000519828
0.000289045
0.00102487
0.000826882
0.000625633
0.000629309
0.000584843
0.00108181
0.000878931
0.000688919
0.00112127
0.000970787
0.000572537
0.000694071
0.000469091
0.000495745
0.000614813
0.000361937
0.000599953
0.000820249
0.000707077
0.00130102
0.000684493
0.000617039
0.0004634
0.000847015
0.000844332
0.000967816
0.000641279
0.000729494
0.000809962
0.000728242
0.000710159