/*--------------------------------*- C++ -*----------------------------------*\
  =========                 |
  \\      /  F ield         | OpenFOAM: The Open Source CFD Toolbox
   \\    /   O peration     | Website:  https://openfoam.org
    \\  /    A nd           | Version:  7
     \\/     M anipulation  |
\*---------------------------------------------------------------------------*/
FoamFile
{
    version     2.0;
    format      ascii;
    class       surfaceScalarField;
    location    "7.5";
    object      phi_0;
}
// * * * * * * * * * * * * * * * * * * * * * * * * * * * * * * * * * * * * * //

dimensions      [0 3 -1 0 0 0 0];

internalField   nonuniform List<scalar> 
54451
(
3.17019e-05
-0.00138926
-3.48097e-05
-8.79898e-06
-0.000610827
-0.000195889
2.29601e-05
-0.00141952
-3.44991e-05
4.71071e-05
-0.00335342
-1.13294e-05
7.16832e-05
0.000300733
-0.000365068
-2.67551e-05
-0.000519375
-0.000199149
2.40506e-05
-0.00170516
-0.000139962
1.43586e-05
-0.00144114
-3.46148e-05
2.94253e-05
-0.00340388
-1.34626e-05
-6.75912e-06
-0.00488754
4.97068e-06
0.000332286
0.000672736
-0.000114455
3.61752e-05
0.000343208
-0.000358241
-5.5975e-05
-0.00018793
-0.00034855
-4.14169e-05
-0.000418189
-0.000193257
-5.74283e-06
-0.00173523
-0.000133913
-4.07134e-05
-0.00371371
-5.18495e-05
6.29764e-06
-0.00145558
-3.4344e-05
1.87457e-05
-0.00344776
-9.48404e-06
-2.9553e-05
-0.00487389
2.43991e-06
-3.79004e-05
-0.00520812
-3.87146e-06
0.000450895
0.00149486
0.00011863
0.000286085
0.000617144
-0.000147991
3.69247e-05
0.000905491
-0.000322118
-1.67767e-05
0.000419385
-0.000348343
-8.96637e-05
-0.000120615
-0.000341635
-5.8405e-05
-0.00122209
-0.000259405
-5.31244e-05
-0.000324489
-0.000191873
-2.04677e-05
-0.00177201
-0.000117263
-7.58422e-05
-0.00375651
-4.48308e-05
-6.97035e-05
-0.00433428
-3.3313e-05
-2.20046e-06
-0.00146193
-3.41752e-05
-3.74983e-08
-0.00346947
-1.25943e-05
-4.45721e-05
-0.00484517
6.37005e-06
-5.44496e-05
-0.00514751
-3.71926e-06
-9.85935e-05
-0.00558424
-6.93286e-06
0.000307321
0.00486955
0.000176488
0.000431024
0.00133699
0.000179159
0.000202603
0.00109902
-6.74836e-05
0.000217471
0.000600226
-0.000216259
-4.63667e-05
0.00102435
-0.000310146
2.97485e-05
0.000900019
-0.000393693
-3.89427e-05
0.000495513
-0.000329766
-0.000123145
-3.35968e-05
-0.000332684
-0.000102913
-0.00128494
-0.000251711
-7.2959e-05
-0.00239039
-0.000165457
-6.71344e-05
-0.000222978
-0.000185954
-5.02591e-05
-0.00180284
-0.000110824
-0.000103952
-0.0037806
-3.37908e-05
-0.000101073
-0.00428581
-4.66825e-05
-0.000281171
-0.00434724
-5.13202e-05
-8.82097e-06
-0.00146162
-3.44884e-05
-1.2712e-05
-0.00348012
-1.0812e-05
-6.46821e-05
-0.00479639
3.3115e-06
-7.74876e-05
-0.00506039
-3.26554e-06
-0.000109119
-0.00547201
-6.83299e-06
-0.000154147
-0.00540581
-4.24174e-06
0.000174788
0.00604168
0.000423567
0.000379703
0.00479974
0.000150553
0.000258379
0.00343128
0.000145616
0.000369158
0.00133712
0.000118874
0.00016772
0.00104878
1.53137e-05
0.000114091
0.00194469
-0.000178726
0.000162515
0.000625709
-0.000224871
-3.82975e-05
0.00107723
-0.000353988
-0.00011265
0.000988214
-0.000388603
-0.000128036
0.000571467
-0.000347476
-5.31434e-05
0.000565099
-0.000316557
-0.000166209
6.68024e-05
-0.000314214
-0.000145268
-0.00137303
-0.000203286
-0.000149569
-0.0024435
-0.000150099
-0.000554297
-0.00317868
-0.000185518
-7.92262e-05
-0.000122673
-0.000183384
-6.79694e-05
-0.00183566
-9.78735e-05
-0.000150737
-0.00377562
-2.97493e-05
-0.000152944
-0.00421809
-2.6053e-05
-0.00029822
-0.0041411
-6.37238e-05
-0.000348154
-0.00446683
-4.88787e-05
-1.77952e-05
-0.00145312
-3.38841e-05
-2.48431e-05
-0.00348052
-9.24211e-06
-8.09851e-05
-0.00473018
3.95674e-06
-9.77016e-05
-0.00495587
-3.50884e-06
-0.000141202
-0.00532796
-6.11122e-06
-0.0001748
-0.00523388
-3.96615e-06
-0.000190776
-0.00509611
-7.44483e-06
0.000179062
0.00592774
0.00108908
0.000351959
0.00614511
0.000233167
0.000417572
0.00705878
9.85404e-05
0.000355804
0.00469908
0.000258342
0.000344465
0.00334205
6.30309e-05
0.000179591
0.00269513
-5.46929e-05
0.000375778
0.00128417
0.000120935
0.000155693
0.00102926
-5.56001e-05
-7.26552e-05
0.00212137
-0.000201354
-0.000235966
0.00231488
-0.000187128
5.12029e-05
0.000735764
-0.000214218
-0.000134147
0.00118964
-0.000369345
-0.000162004
0.00103368
-0.000382721
-0.000140696
0.000506143
-0.000332152
-0.000676075
-9.29079e-05
-0.000318797
-8.84337e-05
0.000649042
-0.000293482
-0.000195211
0.000180186
-0.000302699
-0.000214592
-0.00140415
-0.000219241
-0.000223139
-0.00245918
-0.000117415
-0.000631509
-0.0028426
-0.000152891
-0.00062229
-0.00334888
-0.000197248
-9.1861e-05
-2.68502e-05
-0.000175075
-9.34087e-05
-0.00186307
-8.74093e-05
-0.000183791
-0.0037501
-2.05881e-05
-0.000178087
-0.00412634
-4.11186e-05
-0.000368117
-0.00389376
-4.64799e-05
-0.000395139
-0.00426328
-4.69424e-05
-0.000391388
-0.00391978
-6.98177e-05
-2.5814e-05
-0.00143583
-3.45632e-05
-4.20432e-05
-0.00346318
-9.18478e-06
-0.000102928
-0.00464372
7.23122e-06
-0.000118868
-0.00482869
-4.35375e-06
-0.000151461
-0.00517367
-6.33919e-06
-0.000198746
-0.00503795
-3.28726e-06
-0.000206575
-0.00488654
-6.95816e-06
-0.000181737
-0.00402109
-7.21987e-06
0.000320785
0.00627911
0.00147791
0.000178888
0.00613002
0.00106502
0.000353604
0.00672444
0.00105351
0.000436863
0.00630242
6.81924e-05
0.000507543
0.00700727
0.000121605
0.000238072
0.00575608
0.000235695
0.000363635
0.0047704
0.000363679
0.00032768
0.00335238
7.6031e-05
0.000442354
0.00238249
-0.000139344
-0.000295321
0.0030808
7.50249e-05
0.000202086
0.00126852
9.98781e-05
9.82662e-05
0.00104475
-0.000126966
-0.000170469
0.00229282
-0.000218591
-0.000207843
0.00245692
-0.000276246
-0.000577991
0.00107101
-0.00017177
-2.16865e-05
0.000857192
-0.000194404
-0.000193902
0.00130971
-0.000335599
-0.00013623
0.000979494
-0.000393517
-0.000182189
0.000345502
-0.000263029
-0.000837272
4.49909e-05
-0.000264288
-0.000771757
-0.0018883
-0.000304406
-0.000111986
0.000734604
-0.000277085
-0.000233048
0.000287877
-0.000261533
-0.000255334
-0.00144788
-0.000187424
-0.000266469
-0.00243947
-0.000150566
-0.000650565
-0.00253105
-0.000146518
-0.00071348
-0.00298545
-0.000197974
-0.000632548
-0.00249596
-0.000167486
-0.000105399
7.35762e-05
-0.00017201
-0.000133709
-0.00187662
-6.98549e-05
-0.000225133
-0.00369807
-1.72366e-05
-0.000230101
-0.00399803
-3.76599e-05
-0.000379197
-0.00364709
-6.0048e-05
-0.000443404
-0.00401635
-4.87471e-05
-0.000424385
-0.00368425
-6.46641e-05
-0.000393985
-0.00334507
-6.57899e-05
-2.80243e-05
-0.0014161
-3.47839e-05
-5.16346e-05
-0.00343713
-8.97562e-06
-0.0001217
-0.0045377
6.48867e-06
-0.00013841
-0.0046809
-2.14959e-06
-0.000172936
-0.00499923
-5.85754e-06
-0.00021585
-0.00482574
-2.70439e-06
-0.000226424
-0.00465744
-5.96792e-06
-0.000198148
-0.00382261
-7.28726e-06
-0.000195501
-0.00330831
-9.89463e-06
0.000602468
0.00663227
0.00202127
0.000325103
0.00623301
0.0014907
0.000359989
0.00630547
0.00139726
0.000150429
0.00638222
0.00109766
0.000434658
0.00673472
0.00112763
0.000442648
0.00681785
0.00108732
0.000386568
0.00632585
0.000448719
0.000550314
0.0067015
0.000151324
0.000515338
0.00531612
0.000488583
-0.000117434
0.0037701
0.000319703
0.000228252
0.00481783
0.000305137
0.000233945
0.00356035
2.00227e-05
0.0002656
0.00219188
-0.000169428
-0.000465937
0.00302721
0.000172331
-0.000420512
0.00177036
5.73403e-05
0.000151326
0.0012804
9.80469e-05
-5.76654e-05
0.00112244
-0.00011405
-9.07504e-05
0.00242784
-0.000307461
-0.00025773
0.0025104
-0.000196526
-0.000755467
0.000906509
-0.000193549
-0.000481538
0.000664004
-0.000241034
-7.04191e-05
0.000993755
-0.000209509
-0.000262093
0.00144947
-0.000305113
-0.000224786
0.000948259
-0.000334912
-0.000291082
0.000214074
-0.000237477
-0.000919314
0.000274258
-0.000223547
-0.000917426
-0.00168684
-0.000261806
-0.000988283
-0.000750352
-0.000249075
-0.000135183
0.000830895
-0.000266034
-0.000245274
0.000357491
-0.000235134
-0.000321359
-0.00146157
-0.00015162
-0.000366274
-0.00235713
-0.000133591
-0.000707878
-0.00219991
-0.000153015
-0.000771905
-0.00261632
-0.000187147
-0.000686173
-0.00226132
-0.000170823
-0.000755952
-0.0019753
-0.000110242
-0.000110528
0.000163955
-0.000157576
-0.000145346
-0.00189492
-5.99974e-05
-0.000263036
-0.00361654
-1.00455e-05
-0.000277133
-0.00383579
-4.07537e-05
-0.000416064
-0.003383
-5.86252e-05
-0.000470919
-0.00378139
-3.99367e-05
-0.000467736
-0.00342756
-6.4125e-05
-0.000419988
-0.00313103
-5.68624e-05
-0.000470144
-0.00264095
-5.00903e-05
-3.11981e-05
-0.00139373
-3.43772e-05
-7.28573e-05
-0.00338901
-1.00497e-05
-0.000145327
-0.00440965
8.30061e-06
-0.000154669
-0.00451724
-2.50045e-06
-0.000194852
-0.00480132
-5.20584e-06
-0.00023438
-0.00459506
-2.15259e-06
-0.000247554
-0.00440739
-5.20328e-06
-0.000214567
-0.00360793
-6.08867e-06
-0.000209806
-0.00309677
-9.01487e-06
-0.000256476
-0.00184433
-1.57441e-05
0.00153375
0.00640228
0.00265994
0.00057608
0.00668726
0.00176931
0.000279073
0.00650488
0.00189937
0.000206345
0.00624892
0.0015243
0.000328808
0.00646921
0.00143281
0.000334563
0.00703895
0.00141769
0.000215328
0.00633866
0.00126568
0.000461329
0.006776
0.00114536
0.000451502
0.00687462
0.0011347
0.000192764
0.0065671
0.0012009
0.000285366
0.00622394
0.000592896
0.000228106
0.00657446
0.000581602
0.000446928
0.00463012
0.000655987
-0.000307457
0.00352907
0.000571131
-0.000445755
0.0035173
0.00042635
0.000276689
0.00469235
0.000321058
0.000138751
0.00353748
0.000131591
-0.00015207
0.00239548
-0.000122254
-0.000605146
0.00294168
0.000263525
-0.000720692
0.0017241
0.000183814
-0.000606261
0.00289476
-1.11366e-05
0.000156634
0.00123799
0.000140008
-0.00013736
0.00131818
-0.000222422
-0.000226565
0.00255649
-0.000240925
-0.000528584
0.00265675
-0.000216313
-0.000873318
0.000820419
-0.000156432
-0.000924044
0.000789373
-0.0003123
-0.00140932
0.00115126
-0.000196299
-9.60751e-05
0.00108506
-0.000155525
-0.000262285
0.00155308
-0.000296111
-0.000255905
0.000869121
-0.000291428
-0.000446418
0.000129472
-0.000170166
-0.00094221
0.000466044
-0.000194932
-0.000977974
-0.00142693
-0.000277383
-0.0011052
-0.000383201
-0.000209935
-0.00122556
-0.00035383
-0.000194294
-0.000136301
0.000917
-0.000254538
-0.000291355
0.000414956
-0.00017749
-0.000360458
-0.00144069
-0.000158592
-0.000442722
-0.0022223
-0.000120858
-0.000759807
-0.00182847
-0.000161294
-0.000822792
-0.00228493
-0.000132533
-0.000747946
-0.00201028
-0.000157977
-0.000791548
-0.00168296
-9.16065e-05
-0.000823988
-0.00176278
-0.000110202
-0.000121699
0.00025516
-0.000150377
-0.000190227
-0.00189499
-4.01382e-05
-0.000322649
-0.0035003
1.08424e-06
-0.000308929
-0.00364711
-4.44635e-05
-0.000456567
-0.00310849
-5.35444e-05
-0.000499266
-0.00352415
-5.09819e-05
-0.000521559
-0.00314674
-4.67498e-05
-0.000451767
-0.00290248
-5.54675e-05
-0.000505902
-0.00236026
-4.14558e-05
-0.000578523
-0.00205099
-5.40803e-05
-3.68669e-05
-0.00136593
-3.43308e-05
-9.26673e-05
-0.003323
-7.71671e-06
-0.00016015
-0.00426623
6.68316e-06
-0.000174287
-0.00433357
-1.08467e-06
-0.00021265
-0.0045864
-4.76466e-06
-0.000253698
-0.00434534
-1.23025e-06
-0.000266921
-0.00413865
-3.97056e-06
-0.000229758
-0.00337722
-6.1495e-06
-0.000221475
-0.00287276
-8.63121e-06
-0.000267774
-0.00157157
-1.40055e-05
-0.000270434
-0.00124007
-1.12665e-05
0.00167943
0.00645794
0.00372858
7.59693e-06
0.00696671
0.00274353
0.000268372
0.0061832
0.0026921
0.000666656
0.00642487
0.00187952
0.000203565
0.00645006
0.00194937
4.30362e-06
0.00642968
0.00213362
0.0001385
0.00631123
0.00155379
0.000267561
0.00660277
0.00158451
0.000464166
0.00692312
0.00153597
0.000227116
0.00714202
0.00175822
0.000314655
0.0060946
0.00132583
0.000332453
0.00662032
0.00131702
0.000573603
0.00656665
0.00132666
-2.65704e-05
0.00606956
0.00135136
-0.00082984
0.00508736
0.00149759
0.000325851
0.00617344
0.000766252
0.000262415
0.00636831
0.00067538
-0.000123449
0.00432731
0.000855795
-0.000831767
0.00369192
0.000719765
-0.000882143
0.00364313
0.00060675
-0.0014765
0.00191849
0.000992791
0.000365391
0.00438412
0.000499606
0.000157119
0.00338471
0.000179355
-0.000294496
0.00255118
4.38174e-05
-0.000813046
0.00276863
0.000335251
-0.00085763
0.00158417
0.000387773
-0.00128543
0.00337695
6.30047e-05
-0.00166976
0.00121047
5.1432e-05
0.000116033
0.00122983
0.00019074
-0.000233286
0.00151122
-8.203e-05
-0.000273219
0.00268597
-0.00033459
-0.00072999
0.00282117
-0.000121768
-0.000977627
0.000782175
-0.000142652
-0.000893954
0.00098732
-0.000438399
-0.00158532
0.00155668
-0.000237593
-0.00154692
-0.000167139
-0.00023546
-8.21002e-05
0.00112736
-0.000104426
-0.000353094
0.00169118
-0.000231882
-0.000405252
0.000856374
-0.00023857
-0.000572344
0.000223276
-0.000255609
-0.00099062
0.000694113
-0.000167422
-0.0010795
-0.00108146
-0.0002837
-0.00122343
2.4775e-05
-0.00020988
-0.00129503
7.48165e-05
-0.000135095
-0.00115987
-0.0014292
-0.000139623
-0.000148135
0.00100846
-0.000247307
-0.000321092
0.000431257
-0.000139973
-0.000439031
-0.00139514
-0.000106659
-0.000459816
-0.00210433
-0.000125681
-0.000786725
-0.00146528
-0.00015389
-0.000874249
-0.0018823
-0.000188946
-0.000863444
-0.00169251
-0.000108415
-0.000845276
-0.0013597
-8.77296e-05
-0.000886769
-0.00140638
-6.71361e-05
-0.000901006
-0.00204729
-0.00010166
-0.00013469
0.00034821
-0.000143409
-0.000229465
-0.0018784
-3.01669e-05
-0.000366936
-0.00334049
6.83987e-06
-0.000350499
-0.00342633
-4.34833e-05
-0.000486428
-0.00282065
-5.85259e-05
-0.000543218
-0.00324949
-3.86883e-05
-0.000543767
-0.00286549
-5.53931e-05
-0.000479314
-0.00265832
-4.13557e-05
-0.000530902
-0.00206519
-4.11127e-05
-0.000608887
-0.00170605
-4.52867e-05
-0.000604008
-0.00130892
-3.60273e-05
-4.33651e-05
-0.00133222
-3.37963e-05
-0.000107498
-0.00324075
-9.0862e-06
-0.000180399
-0.00410309
9.53927e-06
-0.000196455
-0.00412964
-7.91202e-07
-0.000228595
-0.00435553
-3.36636e-06
-0.000266828
-0.00408261
-6.69378e-07
-0.000283626
-0.0038528
-3.44938e-06
-0.000245283
-0.00313058
-5.32415e-06
-0.000236469
-0.00263528
-7.15316e-06
-0.00027353
-0.00129246
-1.42098e-05
-0.000277956
-0.000964985
-1.11334e-05
-0.000266047
-0.00123017
-7.3364e-06
0.000729545
0.00657099
0.00477973
-0.000241118
0.00632869
0.00429303
0.000148338
0.00608151
0.00386477
0.000777653
0.00692389
0.00268959
0.000192909
0.0061862
0.00275118
-3.22475e-05
0.00618708
0.00271429
0.000338946
0.00639006
0.00199663
0.000212326
0.00632469
0.00206013
-4.34051e-05
0.0066448
0.00224182
7.00718e-05
0.00698784
0.00222483
0.000211716
0.00631511
0.00156069
0.000307447
0.00648157
0.00169999
0.000587733
0.00673077
0.00176273
-6.44054e-05
0.00681076
0.00190507
-0.000530883
0.0069216
0.00206513
0.000280984
0.0059554
0.00128073
0.000424989
0.00630034
0.00148323
0.000387829
0.00594688
0.00142551
-0.000640471
0.00554186
0.00166306
-0.000795795
0.00473073
0.00162165
-0.00165504
0.00362611
0.00155907
0.000427575
0.00607347
0.000800593
0.00053774
0.00595087
0.000803074
-0.000294982
0.00405518
0.000947991
-0.000861074
0.0037771
0.000818645
-0.00112955
0.00390188
0.000732935
-0.00169757
0.00191818
0.0010192
-0.00191287
0.000935731
0.000954343
0.000220571
0.00407679
0.000633415
8.69245e-05
0.00323354
0.000330558
-0.000360106
0.00261579
0.000201635
-0.000991146
0.00266248
0.000411125
-0.00102899
0.00151329
0.000457488
-0.00136527
0.00393866
0.000297374
-0.00194651
0.00153425
0.000100404
-0.00168743
0.000102279
-0.000110402
7.09872e-05
0.00128627
0.00026285
-0.000208873
0.00154498
1.27557e-05
-0.000503123
0.00288107
-0.00017925
-0.000848902
0.00293679
-0.000173658
-0.00110869
0.00089649
-0.000118017
-0.000978306
0.00113137
-0.000387895
-0.00172723
0.00193745
-0.000315367
-0.00165165
0.000135216
-0.000183332
-0.00138228
0.000126353
-0.000303275
-0.000101132
0.00115103
-7.7734e-05
-0.00040244
0.00182506
-0.000156962
-0.000412987
0.000815352
-0.000216904
-0.000702197
0.000316046
-8.89591e-05
-0.00106054
0.000957514
-0.000245197
-0.00114369
-0.000720017
-0.00025942
-0.00133377
0.000392253
-0.000180857
-0.00135752
0.000516537
-0.000139358
-0.00119102
-0.00116688
-9.31605e-05
-0.00129305
-0.000816049
3.04187e-05
-0.000170257
0.00110641
-0.000233089
-0.000342074
0.0004155
-0.000118941
-0.00051058
-0.0013301
-6.13655e-05
-0.000500714
-0.00189439
-0.000166384
-0.000838389
-0.0010924
-0.000146596
-0.000908222
-0.00151019
-0.00016099
-0.000930287
-0.00134051
-0.000154431
-0.000882412
-0.00100082
-6.41898e-05
-0.000940083
-0.00102094
-6.39922e-05
-0.000955426
-0.00169111
-7.67749e-05
-0.000892598
-0.0012279
-6.09544e-05
-0.000140994
0.000435512
-0.000137078
-0.000271629
-0.00183622
-2.14603e-05
-0.000405386
-0.00315801
1.23425e-05
-0.000373684
-0.0032067
-3.5561e-05
-0.000500051
-0.00253855
-5.41295e-05
-0.000564323
-0.00296591
-4.46019e-05
-0.00057031
-0.00257859
-3.89017e-05
-0.000501773
-0.00241902
-3.82101e-05
-0.000565742
-0.00174477
-3.25055e-05
-0.000624628
-0.00135878
-3.72805e-05
-0.000622169
-0.000982395
-2.7603e-05
-0.000605931
-0.000646928
-2.96711e-05
-4.90534e-05
-0.00129251
-3.40986e-05
-0.000117982
-0.00315172
-4.84632e-06
-0.000192527
-0.00392854
8.89855e-06
-0.000215271
-0.00390485
2.19269e-08
-0.000246057
-0.00410744
-2.82635e-06
-0.000280974
-0.00380632
1.31774e-06
-0.000301411
-0.0035498
-2.25905e-06
-0.000258039
-0.00286999
-6.00203e-06
-0.000248036
-0.00238405
-8.52633e-06
-0.000280556
-0.00100598
-1.30737e-05
-0.000284544
-0.000684034
-1.0616e-05
-0.000272549
-0.000961268
-7.48749e-06
-0.000224789
-0.00168151
-1.25718e-06
0.000434039
0.00580578
0.00509454
0.000111931
0.00602363
0.00478116
6.44584e-05
0.00612586
0.00488827
0.000283969
0.00650992
0.00430873
0.000245034
0.00604465
0.00427776
-0.000335524
0.00615798
0.0039089
0.000519818
0.00670963
0.00301487
-1.21888e-05
0.006104
0.00299631
-8.18698e-05
0.0061979
0.00277882
-0.00053814
0.00711356
0.00286245
0.000166902
0.00655005
0.00196103
-0.000145811
0.00664859
0.00212599
-5.28514e-05
0.00691817
0.00242734
-7.121e-05
0.00687888
0.00235759
-0.000200634
0.00630046
0.00256164
6.38059e-05
0.00638683
0.00165954
0.000433038
0.00620448
0.00182972
0.000445631
0.00650796
0.001865
-0.000495934
0.00643581
0.00199315
-0.000538824
0.00660764
0.00196206
-0.00126473
0.00602903
0.00192764
0.000198407
0.0059612
0.00134186
0.000438977
0.00624448
0.00143535
-5.11565e-05
0.00560327
0.00158301
-0.000759582
0.00525712
0.00160876
-0.00116189
0.00476887
0.00165726
-0.00193086
0.00388806
0.00159299
-0.0019607
0.00453854
0.00139312
0.000344733
0.00576288
0.0010498
0.000549115
0.00524192
0.00104736
-0.000457956
0.00384681
0.00110929
-0.000901157
0.0037602
0.000874902
-0.00125871
0.00409922
0.000851026
-0.00199991
0.00225663
0.00102913
-0.00205022
0.00114325
0.000915387
-0.00197464
0.00260245
0.000617088
4.27164e-05
0.00387971
0.000744687
-9.1359e-05
0.003285
0.000464444
-0.000673863
0.00267911
0.000437978
-0.00101662
0.00241753
0.000614309
-0.00130605
0.00162909
0.000492686
-0.0013962
0.00439324
0.000420813
-0.0022274
0.00196308
0.000368717
-0.00174146
0.000311551
-1.90603e-05
-0.00177158
0.00170174
9.51965e-05
4.01003e-05
0.00133774
0.000366516
-0.000279673
0.00169439
-9.32701e-06
-0.000478609
0.00301306
-5.3615e-05
-0.000997978
0.00306193
-8.60572e-06
-0.00121102
0.00105142
-0.000178105
-0.00110657
0.00115682
-0.000180586
-0.00179322
0.0021915
-0.000182496
-0.00179204
0.000437169
-0.000182794
-0.0014615
0.00050235
-0.000288843
-0.00169673
0.00130899
-0.000259288
-0.000125238
0.00116282
-7.20331e-05
-0.000434086
0.00189929
-5.99521e-05
-0.000520665
0.000856295
-0.00018782
-0.000774704
0.000633547
-0.000260415
-0.00117594
0.00131163
-0.000105517
-0.0011743
-0.000413726
-0.000285406
-0.00139103
0.00072436
-0.00013078
-0.00139558
0.000911161
-6.23175e-05
-0.00125095
-0.000932512
-6.28572e-05
-0.00136039
-0.000547526
4.32805e-05
-0.00138109
0.000719146
0.000135325
-0.000178334
0.00120487
-0.000226876
-0.000377702
0.000392992
-0.000104509
-0.000565405
-0.00125479
-3.42268e-05
-0.000528869
-0.00166423
-0.00013634
-0.000837033
-0.000742365
-0.000179441
-0.00092172
-0.00111058
-0.00018881
-0.000955513
-0.00102528
-9.1016e-05
-0.00092928
-0.000675241
-5.25057e-05
-0.000992793
-0.000632117
-2.59643e-05
-0.000978031
-0.00133832
-6.33825e-05
-0.000908076
-0.000952128
-6.66388e-05
-0.000955254
-2.46188e-05
-6.01087e-05
-0.000168411
0.000544206
-0.000130948
-0.000317377
-0.00175469
-1.92095e-05
-0.000445345
-0.00294397
1.73113e-05
-0.000405642
-0.00297267
-3.13185e-05
-0.000525703
-0.00225461
-3.98558e-05
-0.00059998
-0.00267063
-3.04096e-05
-0.000594207
-0.00228992
-4.04788e-05
-0.000519271
-0.0021705
-2.61838e-05
-0.000588637
-0.00141288
-2.94982e-05
-0.000644615
-0.000991395
-3.58338e-05
-0.000642449
-0.000645759
-1.6012e-05
-0.000621671
-0.000302521
-2.28881e-05
-0.000546403
-8.87172e-05
-4.54406e-06
-5.54181e-05
-0.00124705
-3.34636e-05
-0.000134392
-0.00304322
-8.20842e-06
-0.000217214
-0.00372928
1.31016e-05
-0.000227865
-0.00366937
1.283e-06
-0.000259856
-0.00384571
-1.85134e-06
-0.000296963
-0.00351601
3.82517e-06
-0.000314388
-0.00323302
-1.07623e-06
-0.000269652
-0.00259825
-4.34697e-06
-0.000255503
-0.00212759
-6.95765e-06
-0.000286576
-0.000713217
-1.47178e-05
-0.000289763
-0.000396612
-1.07334e-05
-0.00027703
-0.000687976
-6.87747e-06
-0.000230181
-0.00145807
-7.4329e-07
-0.000205456
-0.000780567
-3.96541e-06
0.000374134
0.00595148
0.0046951
0.000165032
0.00566365
0.00494943
0.000209606
0.00570334
0.00514857
-1.45241e-05
0.00604313
0.0048566
6.55494e-06
0.00621916
0.00492635
-0.000343343
0.00600002
0.00491129
0.000110015
0.00659977
0.00437194
-0.00038335
0.00616521
0.00455933
-1.43674e-05
0.00608213
0.0042861
-0.000610995
0.00633017
0.00413002
0.000272675
0.00655028
0.00319921
-0.000677993
0.00633984
0.0033112
-0.000343138
0.00640358
0.00308092
-0.000480418
0.00727113
0.00303047
-0.000599565
0.00710216
0.00331363
-5.39054e-05
0.00663678
0.00216933
5.54289e-05
0.00684987
0.00213736
-0.000233123
0.00727287
0.00245005
-0.000580919
0.00675033
0.00264088
-0.00074861
0.00607007
0.00279776
-0.0012023
0.00646621
0.00282037
-9.33115e-05
0.00652083
0.00165381
-1.09162e-05
0.00644771
0.00186621
-3.13303e-05
0.00633273
0.00198513
-0.00061779
0.00610881
0.00205021
-0.00101477
0.00636859
0.00208507
-0.00162123
0.00592009
0.00176137
-0.00190527
0.00536134
0.00191361
0.000193204
0.00584947
0.00139316
0.000691918
0.00583243
0.00161111
-0.000166147
0.00516316
0.00158366
-0.00101973
0.0053231
0.00163559
-0.00133975
0.00485654
0.00160213
-0.00202782
0.0039513
0.00162193
-0.0020999
0.00489544
0.00128579
-0.00236396
0.00544161
0.00133206
9.20787e-05
0.00546593
0.00117637
4.23713e-05
0.00488066
0.00127732
-0.00101475
0.00395416
0.0012809
-0.000854675
0.00365568
0.00105186
-0.00141842
0.00427349
0.000813009
-0.00205195
0.00261151
0.0011519
-0.00218847
0.00134243
0.000791021
-0.00184916
0.00303444
0.000591093
-0.00190773
0.00388251
0.000593464
-2.46035e-05
0.00383246
0.000813315
-0.000240481
0.00330829
0.000682212
-0.000520498
0.00266829
0.00051715
-0.00110398
0.00224917
0.000712344
-0.00123188
0.00168953
0.000574724
-0.00156566
0.00489473
0.000450272
-0.00211818
0.00220699
0.000501863
-0.00192088
0.000782063
2.70361e-05
-0.00173368
0.00176868
0.000186174
-0.00187835
0.00169839
0.000281466
1.26036e-05
0.00142241
0.0004113
-0.000264529
0.00172094
0.000170403
-0.00053617
0.00310491
-8.5672e-05
-0.00114557
0.0035465
-0.000167314
-0.00134395
0.00126132
-5.05036e-05
-0.00113747
0.00100103
-5.91469e-05
-0.00187192
0.00245955
3.22517e-05
-0.00181809
0.000704842
-2.76574e-05
-0.0015026
0.000714103
-0.000142899
-0.00174329
0.00166728
-0.000264232
-0.00179388
0.00193166
-0.000138837
-0.000129816
0.00121385
-0.000133278
-0.000481666
0.00191851
1.27156e-05
-0.000591352
0.000939653
-0.000117362
-0.000915628
0.00110643
-0.000273946
-0.00122486
0.00173709
-0.000298053
-0.00119167
5.22371e-05
-0.000301533
-0.00135453
0.00095795
-0.000119984
-0.0014896
0.0013818
-4.10926e-05
-0.00135817
-0.000603256
-2.61921e-05
-0.0013681
-0.00029843
7.81126e-05
-0.001365
0.00105099
0.000168366
-0.0012655
0.000238343
9.05247e-05
-0.000253359
0.0013489
-0.000194298
-0.000435757
0.00038427
-9.97736e-05
-0.000647895
-0.00114529
-1.14678e-05
-0.000517273
-0.00147584
-0.000110987
-0.00088877
-0.000383112
-0.000132525
-0.000960471
-0.000785881
-0.000143651
-0.000964323
-0.000742071
-0.0001019
-0.000960121
-0.000328658
3.2512e-06
-0.001041
-0.000218519
-1.37401e-05
-0.00101046
-0.000938432
-6.00054e-05
-0.000934242
-0.000684942
-3.87746e-05
-0.000989557
0.000332397
-5.57677e-05
-0.000897267
0.0012325
-8.54279e-05
-0.000181307
0.000656543
-0.000121972
-0.000360666
-0.00164631
-1.3056e-05
-0.000472484
-0.00273097
2.30601e-05
-0.000439149
-0.00271369
-3.03847e-05
-0.000536353
-0.00197555
-3.38774e-05
-0.000629517
-0.00234409
-3.38367e-05
-0.000629643
-0.00198362
-2.14512e-05
-0.000534489
-0.00192104
-2.51055e-05
-0.00059769
-0.00107536
-2.1511e-05
-0.000658529
-0.000612529
-3.64117e-05
-0.000657552
-0.00029895
-1.4854e-05
-0.000626119
4.69164e-05
-1.63607e-05
-0.000549274
0.000207702
-2.14229e-07
-0.000452995
0.00015394
4.27245e-06
-6.07199e-05
-0.00119632
-3.34369e-05
-0.000148924
-0.00292302
-4.73837e-06
-0.000228469
-0.00351964
1.06216e-05
-0.000246873
-0.00341347
4.07319e-06
-0.000269529
-0.00357369
-1.2048e-06
-0.000307728
-0.00321218
2.05212e-06
-0.000326107
-0.00290499
1.89622e-06
-0.000283465
-0.0023113
-4.56792e-06
-0.000260044
-0.00186545
-6.4409e-06
-0.000292264
-0.000416485
-1.14256e-05
-0.000294054
-0.00010629
-1.09863e-05
-0.000281082
-0.000411087
-6.5405e-06
-0.000234131
-0.00123065
-1.66227e-07
-0.000207956
-0.00057014
-3.21461e-06
-0.00018795
-5.42898e-06
-1.84583e-05
4.69692e-06
0.00557388
0.00482066
0.000278046
0.00579139
0.00463458
-5.56679e-05
0.00589754
0.00485556
-0.000232984
0.00576679
0.00492697
-0.000123621
0.0058324
0.00495055
-2.1533e-05
0.00552291
0.00512463
-0.000233094
0.00611454
0.0049002
-0.000378209
0.00620196
0.00486866
-0.000283155
0.00623994
0.00495522
-0.000390201
0.00613074
0.00488237
2.84374e-05
0.00656867
0.00439081
-0.000866998
0.00616544
0.00456072
-0.000491544
0.00623479
0.00455508
-0.000527807
0.00623875
0.00442491
-0.000749709
0.00650244
0.00438099
2.26603e-05
0.00635552
0.00343306
-0.00041655
0.00655866
0.00345237
-0.000632464
0.00671855
0.00339557
-0.000620684
0.00700439
0.00338743
-0.00078477
0.00660605
0.00356274
-0.00127246
0.00603669
0.00366896
-0.000100251
0.0065803
0.00238652
-0.000146879
0.0066801
0.00247506
-0.000266549
0.00702124
0.00262421
-0.000865762
0.0066308
0.00281755
-0.00118132
0.00593685
0.00294066
-0.0013081
0.00604984
0.002901
-0.00160638
0.00511186
0.00296244
-0.000280957
0.00676755
0.00178
5.38179e-05
0.00674438
0.00199524
-0.000312972
0.00641145
0.00193431
-0.00120183
0.00612655
0.00214949
-0.00122063
0.00613978
0.00215991
-0.0015403
0.00565789
0.00185974
-0.00198062
0.00520211
0.0018013
-0.00229804
0.00451965
0.00187876
-3.3702e-05
0.00569413
0.00143604
-0.000132495
0.0057753
0.00162516
-0.000802602
0.00477696
0.00178516
-0.000854897
0.0053665
0.00154048
-0.00145102
0.00486045
0.00166427
-0.00214254
0.00417408
0.00146994
-0.00169877
0.00471615
0.00131151
-0.00217814
0.00579628
0.0012601
-0.00233859
0.0041217
0.00144926
-3.98654e-05
0.0052768
0.00122525
-7.60523e-05
0.00447663
0.00141598
-0.000709088
0.00403207
0.001388
-0.00106159
0.00376301
0.00113117
-0.00130294
0.00439646
0.000999959
-0.00210769
0.00280514
0.00116141
-0.00230466
0.00192913
0.000751674
-0.00175826
0.0030312
0.000631641
-0.00189874
0.00411645
0.000522213
-0.00215719
0.00293593
0.000899802
-4.81718e-05
0.00379365
0.000866138
-0.000443728
0.00341411
0.00088669
-0.000573486
0.00246525
0.000922569
-0.00138927
0.00220618
0.000803833
-0.00151192
0.00199846
0.000571383
-0.00144167
0.00520666
0.000566999
-0.00223151
0.00240423
0.000612628
-0.00200106
0.00130129
0.000165608
-0.00174279
0.00178484
0.000251066
-0.00200722
0.0017326
0.000415898
-0.00188227
0.00149008
0.000185235
-0.000113356
0.00158341
0.000490753
-0.000499316
0.0020115
0.000138393
-0.000616648
0.00329976
8.50634e-07
-0.00118132
0.00376428
-3.7768e-05
-0.00148781
0.00161827
-0.000261311
-0.00118686
0.000912155
3.35629e-05
-0.00188277
0.00268423
0.000244415
-0.00197016
0.00121387
3.77915e-06
-0.00154718
0.000923286
-4.7831e-05
-0.00176496
0.00200293
-8.16918e-05
-0.00180073
0.00222194
-0.000118783
-0.00172983
0.00236888
5.13105e-05
-0.000179899
0.0012792
-0.000145943
-0.000476367
0.00182528
5.56113e-07
-0.000605913
0.000979637
-6.92499e-05
-0.000729938
0.00142465
-0.000222914
-0.00132324
0.00215239
-0.000254768
-0.00122615
0.000323774
-0.000303912
-0.00133086
0.00112143
-9.84764e-05
-0.00149857
0.00171916
8.11093e-05
-0.00144617
-0.00022823
-1.09501e-05
-0.00134454
-9.27524e-05
0.000102206
-0.00136051
0.00140337
0.000151997
-0.00127827
0.000572
0.000123416
-0.00120582
0.00106855
3.57862e-05
-0.000281918
0.0015071
-0.000168926
-0.000509132
0.000428114
-8.96764e-05
-0.000671875
-0.00103647
-9.20174e-06
-0.000574466
-0.00126118
-9.08089e-05
-0.000905169
5.73592e-06
-0.000131019
-0.00100752
-0.000407301
-0.000133102
-0.000989059
-0.000456648
-6.96581e-05
-0.000993914
5.77034e-06
2.30974e-05
-0.00107142
0.00023839
2.00698e-05
-0.00102602
-0.000554515
-3.01693e-05
-0.000949908
-0.000420279
-3.2313e-05
-0.000991301
0.0006924
-3.35956e-05
-0.000897809
0.00159657
-7.13017e-05
-0.000782919
0.00232843
-1.19555e-05
-0.000186147
0.000765152
-0.000116061
-0.000398679
-0.00151691
-1.6165e-06
-0.000500782
-0.00249775
2.60408e-05
-0.000473311
-0.00243295
-3.12433e-05
-0.000547406
-0.00170588
-2.21836e-05
-0.000647979
-0.00202205
-1.5669e-05
-0.000655422
-0.00165687
-3.12741e-05
-0.00056078
-0.00164452
-2.06578e-05
-0.000603576
-0.000741818
-1.51163e-05
-0.000669756
-0.000237315
-1.92342e-05
-0.000672862
6.09943e-05
-1.75474e-05
-0.000628926
0.000392403
-1.24962e-05
-0.000548438
0.000503848
1.79988e-06
-0.000449014
0.000383087
1.16959e-05
-0.000384544
0.000499646
-4.73386e-05
-6.53996e-05
-0.00114086
-3.34307e-05
-0.000159643
-0.00278896
-7.8575e-06
-0.000247185
-0.00329147
1.42821e-05
-0.000260717
-0.0031443
2.16927e-06
-0.000279775
-0.00329016
3.18335e-07
-0.000320117
-0.00289672
3.44686e-06
-0.000344161
-0.00255807
-7.03574e-07
-0.000298632
-0.00200729
-3.48249e-06
-0.000270573
-0.00159252