/*--------------------------------*- C++ -*----------------------------------*\
  =========                 |
  \\      /  F ield         | OpenFOAM: The Open Source CFD Toolbox
   \\    /   O peration     | Website:  https://openfoam.org
    \\  /    A nd           | Version:  7
     \\/     M anipulation  |
\*---------------------------------------------------------------------------*/
FoamFile
{
    version     2.0;
    format      ascii;
    class       volVectorField;
    location    "7.5";
    object      U_0;
}
// * * * * * * * * * * * * * * * * * * * * * * * * * * * * * * * * * * * * * //

dimensions      [0 1 -1 0 0 0 0];

internalField   nonuniform List<vector> 
18870
(
(0.411614 -0.610918 -0.98074)
(0.176741 -0.319498 -1.51036)
(0.403891 -0.616348 -0.972412)
(0.628983 -1.55803 -0.618894)
(-0.248712 0.104599 -1.5622)
(0.0786611 -0.261319 -1.52252)
(0.468915 -0.86077 -1.46364)
(0.392529 -0.62252 -0.973461)
(0.607077 -1.59887 -0.606602)
(0.310055 -2.48198 0.143012)
(0.605996 0.4327 0.0636304)
(-0.291992 0.100685 -1.52718)
(-0.175129 -0.144721 -1.71357)
(-0.00285637 -0.252993 -1.52434)
(0.339488 -0.763074 -1.48625)
(0.196096 -1.81688 -0.655514)
(0.380379 -0.631523 -0.980308)
(0.602527 -1.62645 -0.599768)
(0.231133 -2.50964 0.0233202)
(-0.0240916 -2.67004 0.0744037)
(0.613996 0.873804 0.458816)
(0.415814 0.430602 -0.139745)
(-0.175856 0.394776 -0.813618)
(-0.320565 0.111138 -1.46727)
(-0.25184 -0.126763 -1.68003)
(-0.197021 -0.643931 -1.46039)
(-0.0729447 -0.222225 -1.50916)
(0.384939 -0.850437 -1.38341)
(0.151656 -1.88548 -0.533731)
(0.102634 -2.19627 -0.122466)
(0.365588 -0.633351 -0.985934)
(0.564548 -1.6294 -0.578055)
(0.236131 -2.5057 0.1945)
(0.0223091 -2.68402 0.0790337)
(-0.323892 -2.92512 -0.252256)
(0.300009 2.5716 0.0286329)
(0.544976 0.852403 0.621807)
(0.214862 0.604459 0.118366)
(0.112436 0.351848 -0.371267)
(-0.313848 0.431236 -0.824947)
(-0.0650825 0.417707 -1.24933)
(-0.349429 0.121773 -1.39189)
(-0.353558 -0.145092 -1.65131)
(-0.278471 -0.694663 -1.41835)
(-0.21616 -1.27491 -0.876359)
(-0.160557 -0.205806 -1.50518)
(0.274508 -0.826283 -1.36417)
(0.154699 -1.93399 -0.387301)
(0.0719219 -2.20259 -0.125726)
(-0.631723 -2.29777 -0.391767)
(0.336244 -0.635656 -0.995123)
(0.538872 -1.65509 -0.569698)
(0.223638 -2.5249 0.048499)
(-0.00599798 -2.68827 0.0835981)
(-0.32595 -2.91637 -0.249948)
(-0.782454 -2.90083 -0.0620929)
(-0.199782 2.98551 0.947463)
(0.125775 2.48231 -0.0755523)
(0.0468171 1.73944 0.648544)
(0.540421 0.81626 0.718811)
(-0.052295 0.522217 0.258243)
(0.000139536 0.939749 -0.438844)
(-0.0195156 0.304205 -0.410915)
(-0.413675 0.44324 -1.03115)
(-0.213551 0.460722 -1.14705)
(-0.00105969 0.313259 -1.30805)
(-0.386221 0.129761 -1.33659)
(-0.45639 -0.135579 -1.57324)
(-0.331631 -0.779251 -1.35768)
(-0.250189 -1.22193 -0.856731)
(-1.23499 -1.87277 -0.659788)
(-0.206623 -0.194868 -1.496)
(0.27145 -0.900846 -1.26178)
(0.0757464 -1.97972 -0.305098)
(0.0192169 -2.2171 -0.0939152)
(-0.458745 -2.32908 -0.594808)
(-1.06342 -2.46473 -0.362718)
(0.309828 -0.660843 -0.983478)
(0.557437 -1.6697 -0.576997)
(0.257892 -2.53961 0.132636)
(-0.0190999 -2.6875 0.083376)
(-0.32944 -2.95307 -0.234467)
(-0.790109 -2.90694 -0.0598078)
(-1.16547 -2.80343 -0.133391)
(-0.3264 2.88464 1.55808)
(-0.142032 3.04223 0.69763)
(-0.0602292 3.5239 0.431405)
(-0.251171 2.35678 0.366403)
(0.0862763 1.74317 0.650875)
(0.0383727 1.32923 -0.0281066)
(0.380074 0.83515 0.730514)
(0.0214457 0.52484 -0.140437)
(-0.546715 0.928847 -0.178694)
(-0.793422 1.00296 -0.509794)
(-0.120248 0.326812 -0.428064)
(-0.571239 0.390443 -1.03646)
(-0.356393 0.439887 -1.2069)
(-0.337408 0.201011 -1.39588)
(-1.56221 -0.32732 -0.943363)
(-0.454708 0.118948 -1.24187)
(-0.514138 -0.173061 -1.52933)
(-0.427829 -0.913809 -1.2608)
(-0.376901 -1.42825 -0.479747)
(-1.3237 -1.77328 -0.494296)
(-1.23812 -1.99399 -0.952638)
(-0.289892 -0.195013 -1.48828)
(0.202634 -0.912638 -1.21599)
(0.0546233 -2.0229 -0.209693)
(-0.0105805 -2.23364 -0.117278)
(-0.83051 -2.28737 -0.314237)
(-1.08679 -2.48959 -0.330709)
(-1.30228 -2.21458 -0.404418)
(0.280993 -0.673879 -0.965892)
(0.568873 -1.69491 -0.548052)
(0.222977 -2.56577 0.202608)
(-0.0332667 -2.69817 0.0301633)
(-0.313927 -2.96299 -0.240912)
(-0.805642 -2.90567 -0.0412433)
(-1.16324 -2.82468 -0.122223)
(-1.24864 -2.28213 -0.195951)
(-0.158301 3.09548 1.84549)
(-0.354446 2.93724 1.47971)
(0.0504033 3.37335 1.61268)
(-0.15763 3.15791 0.505246)
(-0.181845 3.5491 0.0501703)
(-0.236897 2.94753 -0.117722)
(-0.255047 2.31098 1.02108)
(-0.146193 1.64431 0.636319)
(-0.176028 1.28252 -0.38169)
(-0.316198 1.56233 -0.217493)
(-0.0500711 0.678356 0.694531)
(-0.255774 0.46209 -0.127616)
(-0.700569 0.930426 -0.120838)
(-0.553318 1.0421 -0.887058)
(-1.13241 0.393146 -0.336776)
(-0.29669 0.28449 -0.447744)
(-0.700996 0.389566 -0.946649)
(-0.560568 0.312829 -1.32714)
(-0.49084 0.0743801 -1.30666)
(-1.80637 -0.365814 -0.682558)
(-1.75319 -1.21401 -1.07188)
(-0.492676 0.120984 -1.2169)
(-0.636584 -0.134983 -1.42018)
(-0.497152 -0.944269 -1.17314)
(-0.324572 -1.40014 -0.706538)
(-1.28977 -1.75 -0.545492)
(-1.40377 -1.94162 -0.853821)
(-1.42488 -1.5221 -0.864429)
(-0.341693 -0.219593 -1.43059)
(0.121839 -1.0844 -1.07927)
(0.048349 -2.08362 -0.097718)
(-0.072525 -2.24868 -0.0755736)
(-0.647791 -2.24299 -0.51247)
(-1.16587 -2.46918 -0.345845)
(-1.27599 -2.24374 -0.409438)
(-1.16515 -1.9212 -0.622353)
(0.316298 -0.660354 -0.957113)
(0.632961 -1.68981 -0.585342)
(0.249144 -2.59463 0.18099)
(-0.0307898 -2.70377 0.106206)
(-0.323358 -2.94815 -0.231142)
(-0.791322 -2.9184 -0.0398816)
(-1.17146 -2.82754 -0.108663)
(-1.24399 -2.29059 -0.180619)
(-1.28013 -1.91504 -0.14206)
(-0.222212 3.19466 2.64412)
(-0.522433 3.05685 1.90233)
(-0.278703 3.11439 1.91684)
(-0.58272 3.05351 1.57285)
(-0.03229 3.36167 1.60426)
(-0.098751 3.44546 1.42152)
(-0.463203 3.15216 0.892706)
(-0.26649 3.43889 -0.307863)
(0.500492 2.82993 0.339214)
(-1.08169 1.75638 0.949772)
(-0.5975 2.4458 0.521943)
(-0.197084 1.7568 0.410605)
(-0.428561 1.01553 -0.319854)
(-0.61903 1.38887 -0.202225)
(-1.00504 0.64247 0.533042)
(-0.226336 0.611328 0.697112)
(-0.431461 0.408366 -0.191227)
(-0.468444 1.08303 -0.493811)
(-0.648458 1.15253 -1.03205)
(-1.55213 0.206211 -0.374448)
(-1.40679 0.155289 -0.597198)
(-0.469642 0.287717 -0.474394)
(-0.84689 0.33948 -0.796356)
(-0.678451 0.282261 -1.17628)
(-0.711959 -0.0555019 -1.24129)
(-1.8405 -0.496315 -0.303113)
(-1.84651 -1.28316 -0.973901)
(-1.80983 -0.756153 -0.887488)
(-0.558421 0.104585 -1.14277)
(-0.71348 -0.254028 -1.29993)
(-0.560059 -1.14284 -0.893179)
(-0.441367 -1.48528 -0.487615)
(-1.37388 -1.73501 -0.605739)
(-1.5566 -1.82073 -0.782581)
(-1.47792 -1.44785 -0.903487)
(-1.63047 -1.27652 -0.600918)
(-0.390953 -0.216401 -1.43141)
(0.0307447 -1.01116 -1.07316)
(-0.0165492 -2.13972 0.0321264)
(-0.119757 -2.25665 -0.13976)
(-0.714797 -2.22618 -0.503619)
(-1.15734 -2.47708 -0.349954)
(-1.36706 -2.20494 -0.425805)
(-1.21301 -1.89051 -0.533795)
(-1.48945 -1.62805 -0.360615)
(0.335632 -0.65387 -0.954805)
(0.641114 -1.68951 -0.589846)
(0.192793 -2.62117 0.214046)
(-0.00873467 -2.71822 0.0912443)
(-0.33675 -2.91537 -0.20767)
(-0.806351 -2.88435 -0.025581)
(-1.19099 -2.83151 -0.0834786)
(-1.26132 -2.29654 -0.146606)
(-1.27361 -1.92755 -0.159813)
(-1.85915 -1.29881 -0.307025)
(0.217445 3.35483 2.85819)
(-0.26738 3.35223 2.08866)
(-0.0340206 3.24223 1.94356)
(-0.745668 2.95503 1.97736)
(-0.41808 3.08339 1.91766)
(0.0291165 3.41948 1.62434)
(-0.816097 3.12267 1.74012)
(-0.242655 3.40158 1.59681)
(-0.49976 3.25043 1.61364)
(0.0372897 3.35193 1.65325)
(-0.914693 3.04128 1.16074)
(-0.78588 3.16189 0.538814)
(0.157834 2.63089 0.768198)
(-1.41495 1.54381 1.36591)
(-0.573408 1.72361 0.0974017)
(-0.713254 2.33966 0.232415)
(-0.664466 1.65869 0.660122)
(-0.570384 0.965412 -0.324644)
(-0.864899 1.30816 -0.376331)
(-1.24557 0.734422 0.923551)
(-0.25717 1.42625 -0.30305)
(-0.319151 0.53044 0.830796)
(-0.614165 0.365455 -0.198468)
(-0.815135 1.02569 -0.380487)
(-0.910833 1.01142 -1.10687)
(-1.7775 -0.135911 0.152353)
(-1.82557 -0.0383259 -0.660853)
(-2.28443 0.137846 -0.530863)
(-0.578814 0.240215 -0.378414)
(-0.847868 0.405953 -0.861597)
(-0.812099 0.103984 -1.10271)
(-1.01607 -0.392705 -1.03249)
(-1.98832 -0.395861 -0.191414)
(-1.8426 -1.32838 -1.08421)
(-2.02004 -0.735255 -0.745284)
(-2.39154 -0.6412 -0.651113)
(-0.579413 0.112592 -1.10359)
(-0.724592 -0.233806 -1.27904)
(-0.603632 -1.12013 -0.753335)
(-0.52687 -1.50998 -0.422503)
(-1.40628 -1.72812 -0.670039)
(-1.58484 -1.8155 -0.77655)
(-1.48539 -1.52942 -0.842774)
(-1.62564 -1.31119 -0.606579)
(-2.0672 -1.30944 -0.429872)
(-0.437348 -0.205733 -1.46024)
(-0.0506057 -1.28143 -0.832878)
(-0.0549632 -2.17534 0.177012)
(-0.149257 -2.26724 -0.16694)
(-0.808003 -2.20564 -0.487676)
(-1.15846 -2.48447 -0.333975)
(-1.36752 -2.26118 -0.283634)
(-1.22584 -1.89458 -0.499875)
(-1.56168 -1.58397 -0.315216)
(-2.11479 -1.42965 -0.414462)
(0.32348 -0.663895 -0.955483)
(0.642603 -1.68943 -0.565432)
(0.257409 -2.62356 0.169952)
(-0.0191845 -2.71637 0.136938)
(-0.320365 -2.90721 -0.205791)
(-0.807143 -2.87929 -0.0193864)
(-1.18135 -2.84671 -0.0736028)
(-1.24832 -2.32334 -0.138167)
(-1.28327 -1.91189 -0.136054)
(-1.87907 -1.27407 -0.249736)
(-1.99909 -1.0036 -0.4074)
(1.12265 3.54027 3.28392)
(-0.102777 3.20868 2.78906)
(-0.413685 2.89882 2.66361)
(-0.569333 3.15194 2.13352)
(-0.326829 3.18541 1.93399)
(-0.415284 3.04017 2.38458)
(-0.795216 2.99791 1.93277)
(-0.594347 3.1593 1.88274)
(0.036025 3.53154 1.65983)
(-0.63719 3.58034 2.02341)
(-0.901944 2.94448 1.81054)
(-0.819155 3.23915 1.86633)
(-0.680688 3.31104 1.62253)
(-0.2726 3.28133 1.67833)
(-1.12469 2.38214 1.9494)
(-0.923797 2.91653 1.50817)
(-0.866685 3.13704 0.734837)
(-0.934978 1.98054 1.34646)
(-1.69477 1.33724 1.53514)
(-1.32092 1.47995 0.514226)
(-1.87783 0.757919 1.41262)
(-0.673505 2.18736 0.589903)
(-0.857014 1.50352 0.987367)
(-0.851549 1.01355 -0.109724)
(-1.53919 0.964155 -0.178664)
(-1.32711 0.419727 1.47603)
(-1.43469 1.04093 -0.227659)
(-2.2703 0.190264 0.249741)
(-0.372445 0.503718 0.953551)
(-0.75942 0.39657 -0.1223)
(-0.853729 1.01285 -0.92077)
(-1.18981 0.956663 -0.874701)
(-1.82142 -0.152209 0.138935)
(-1.99195 -0.0792743 -0.982431)
(-2.53561 0.135153 -0.825056)
(-2.44429 -0.555207 -0.388875)
(-0.635425 0.22759 -0.275391)
(-1.09101 0.224627 -0.609364)
(-0.933531 -0.0359172 -0.95542)
(-1.29961 -0.502551 -0.826631)
(-2.06038 -0.61609 0.0382786)
(-1.95197 -1.37621 -1.03095)
(-2.28544 -0.726984 -0.743798)
(-2.50359 -0.60783 -0.533346)
(-2.18686 -1.10952 -0.632571)
(-0.664855 0.0743597 -1.03606)
(-0.781891 -0.296388 -1.21002)
(-0.73853 -1.3792 -0.2426)
(-0.480914 -1.53654 -0.612895)
(-1.5237 -1.5633 -0.623229)
(-1.60285 -1.87528 -0.787431)
(-1.74643 -1.60791 -0.378295)
(-1.74715 -1.24422 -0.564075)
(-2.17741 -1.24234 -0.241104)
(-2.14487 -1.50749 -0.53267)
(-0.454883 -0.241933 -1.45208)
(-0.181575 -1.41766 -0.688676)
(-0.0792026 -2.20497 0.231578)
(-0.21086 -2.26229 -0.156832)
(-0.836587 -2.18259 -0.513557)
(-1.22718 -2.46503 -0.267515)
(-1.46952 -2.20092 -0.464358)
(-1.27269 -1.91543 -0.379285)
(-1.55971 -1.61353 -0.333886)
(-2.14296 -1.40145 -0.325214)
(-2.30542 -1.07263 -0.410992)
(0.312511 -0.67754 -0.949106)
(0.653039 -1.70355 -0.557809)
(0.185308 -2.63409 0.246621)
(-0.0758665 -2.72324 0.113505)
(-0.314818 -2.95117 -0.188157)
(-0.773656 -2.94762 -0.00172678)
(-1.20048 -2.81165 -0.0372837)
(-1.2542 -2.32095 -0.0930407)
(-1.2901 -1.90852 -0.142535)
(-1.86623 -1.28995 -0.25929)
(-2.0068 -1.00235 -0.382655)
(-1.91107 -0.992755 -0.120235)
(0.223148 3.14882 3.90744)
(-1.19423 2.76511 3.96871)
(-0.0839929 2.96678 3.59381)
(-0.173446 3.5207 2.63412)
(-0.638446 2.95591 2.73248)
(-0.483539 2.93906 2.79225)
(-0.991782 2.91909 2.25277)
(-0.644062 3.02129 2.10397)
(-0.604367 3.10733 2.47144)
(-0.021898 3.30142 2.37932)
(-0.865523 3.00367 1.90348)
(-0.684175 3.18554 1.96843)
(0.0639645 3.48822 2.04188)
(-1.16007 3.1996 2.30992)
(-1.32741 3.20922 2.45452)
(-1.06311 2.75687 1.72134)
(-0.991745 3.02718 1.92375)
(-1.02046 2.97294 1.84041)
(-1.2785 2.4669 2.30045)
(-1.53953 2.10657 2.29114)
(-2.04333 1.1872 2.32547)
(-1.02988 2.99513 1.24762)
(-0.808591 3.01707 0.930034)
(-1.2189 1.72043 1.47387)
(-1.69185 1.39511 1.61466)
(-1.69372 1.42853 0.807683)
(-2.40204 0.32207 1.60127)
(-2.58369 0.0111474 1.83647)
(-0.840046 2.00055 0.836478)
(-1.12507 1.22114 1.30407)
(-1.10231 0.889383 -0.239452)
(-1.99778 0.661011 0.282485)
(-1.6675 0.218494 1.55222)
(-1.51372 1.55851 -0.0138789)
(-2.67176 0.139993 0.490159)
(-2.39828 -0.403721 -0.00673376)
(-0.336075 0.525391 1.09439)
(-0.886584 0.331759 0.00331536)
(-1.39619 0.781545 -0.30477)
(-1.44953 0.919245 -0.788162)
(-1.85365 -0.385625 0.348589)
(-2.22206 -0.203809 -0.886648)
(-2.77601 0.0950245 -1.14552)
(-2.61272 -0.528221 -0.279846)
(-2.2464 -0.329965 -0.812901)
(-0.651679 0.199972 -0.302567)
(-1.23429 0.193472 -0.38781)
(-1.02883 -0.186859 -0.802767)
(-1.31692 -0.63675 -0.633764)
(-2.17805 -0.563295 -0.678445)
(-2.06574 -1.24225 -1.11335)
(-2.50836 -0.73433 -0.81252)
(-2.61771 -0.572884 -0.527501)
(-2.27812 -1.14248 -0.365301)
(-2.586 -0.750227 -0.238805)
(-0.756839 0.017291 -0.9621)
(-0.780588 -0.377306 -1.20486)
(-0.849413 -1.46908 0.024522)
(-0.543663 -1.51614 -0.655061)
(-1.52158 -1.65497 -0.477923)
(-1.78168 -1.74777 -0.76551)
(-1.79539 -1.557 -0.859956)
(-1.7918 -1.24137 -0.57724)
(-2.23629 -1.26721 -0.236034)
(-2.28582 -1.36605 -0.340181)
(-2.22359 -0.998932 -0.366644)
(-0.512276 -0.256987 -1.43225)
(-0.232389 -1.5235 -0.592039)
(-0.0837542 -2.24753 0.251178)
(-0.220472 -2.26761 -0.122387)
(-0.832637 -2.15447 -0.501858)
(-1.17107 -2.49248 -0.315174)
(-1.4483 -2.25975 -0.342302)
(-1.30141 -1.90618 -0.321064)
(-1.65194 -1.57322 -0.254852)
(-2.15651 -1.40722 -0.297536)
(-2.32345 -1.08679 -0.364412)
(-2.33912 -0.753795 -0.121959)
(0.308742 -0.68947 -0.940714)
(0.686881 -1.69796 -0.535016)
(0.294114 -2.64146 0.187213)
(-0.0923406 -2.7737 0.152697)
(-0.34515 -2.91395 -0.148953)
(-0.745437 -2.93565 0.0441034)
(-1.20851 -2.80277 -0.0272078)
(-1.25085 -2.30362 -0.109392)
(-1.29888 -1.94784 -0.14817)
(-1.88734 -1.27114 -0.188388)
(-2.00974 -0.996809 -0.377008)
(-1.91677 -0.978023 -0.137052)
(-1.56361 -1.14718 -0.203838)
(-0.221357 2.79999 3.99425)
(-0.41176 3.07868 4.06863)
(-0.596854 2.9168 4.19644)
(-0.45512 3.15112 3.85827)
(-0.346894 2.95037 3.97971)
(-0.458054 2.90021 3.61868)
(-0.624265 3.38977 2.94278)
(-0.650285 2.99342 2.92978)
(-0.766948 2.94303 2.89269)
(-0.837391 3.14123 2.79625)
(-1.20027 2.99396 2.16338)
(-0.878689 2.98833 2.23412)
(-0.85351 3.17861 2.51705)
(-0.400459 3.47596 2.49164)
(-0.627403 3.14183 2.75979)
(-1.09324 2.92797 1.90403)
(-0.615848 3.15317 2.02452)
(-0.296648 3.38222 2.24926)
(-1.51271 2.91711 2.48157)
(-1.13109 3.20349 2.53966)
(-1.77798 2.69501 2.71477)
(-1.1314 2.72901 1.71651)
(-0.720014 3.05758 1.84865)
(-1.16299 2.45365 2.30544)
(-1.60744 2.21826 2.29721)
(-1.89031 1.86746 2.48536)
(-2.15355 1.60802 2.4594)
(-2.01792 1.80091 2.36913)
(-1.38337 2.59455 1.52864)
(-0.814276 2.80486 1.30859)
(-1.2629 1.6106 1.71991)
(-1.77654 1.24585 1.77473)
(-1.88214 1.46622 1.04369)
(-2.74599 0.323922 1.76167)
(-2.89139 0.0231594 1.77356)
(-2.47083 0.767442 1.50568)
(-1.02696 1.65011 1.16848)
(-1.03817 1.25425 1.56688)
(-1.35574 0.74205 0.0524254)
(-2.16294 0.319763 1.04488)
(-2.02006 0.0128328 1.34819)
(-1.72522 1.61377 0.190701)
(-2.92949 0.000253166 1.26557)
(-2.57937 -0.377075 -0.0432294)
(-2.50511 0.472151 -0.503433)
(-0.454662 0.461894 1.35289)
(-1.02451 0.249283 0.207027)
(-1.39036 0.825916 0.0445082)
(-1.81947 0.585171 -0.617732)
(-2.07449 -0.421239 0.0239851)
(-2.40672 -0.374593 -0.969977)
(-3.07373 0.0417752 -1.02069)
(-2.74899 -0.66324 -0.318239)
(-2.3126 -0.398942 -0.6746)
(-2.72092 0.258347 -0.74082)
(-0.685454 0.133503 -0.336519)
(-1.3249 0.0982046 -0.194689)
(-1.19114 -0.39571 -0.566395)
(-1.44871 -0.734255 -0.648606)
(-2.35019 -0.787382 0.143032)
(-1.95526 -1.38505 -0.895815)
(-2.63626 -0.787907 -0.542302)
(-2.72391 -0.582276 -0.29031)
(-2.40063 -1.19349 -0.395274)
(-2.58224 -0.964217 -0.200262)
(-2.65306 -0.156994 0.413508)
(-0.788187 -0.00621082 -0.98472)
(-0.85724 -0.543126 -1.14373)
(-0.883384 -1.59589 0.212755)
(-0.480749 -1.55973 -0.533106)
(-1.56433 -1.53916 -0.800875)
(-1.76974 -1.78368 -0.837383)
(-1.93806 -1.56 -0.639032)
(-1.87275 -1.22307 -0.493582)
(-2.33412 -1.21686 -0.00539342)
(-2.26036 -1.46715 -0.321114)
(-2.24839 -1.04183 -0.331032)
(-2.50513 -0.436675 -0.211935)
(-0.545732 -0.285975 -1.40338)
(-0.209651 -1.62788 -0.521982)
(-0.120074 -2.25723 0.296757)
(-0.271022 -2.27511 -0.0649271)
(-0.858024 -2.14064 -0.409316)
(-1.2189 -2.47238 -0.263325)
(-1.53927 -2.2275 -0.375072)
(-1.30606 -1.88463 -0.195246)
(-1.70221 -1.54416 -0.267214)
(-2.19299 -1.36584 -0.23975)
(-2.35774 -1.07712 -0.270165)
(-2.35563 -0.759204 -0.0400457)
(-2.03589 -0.427033 -0.345189)
(0.304514 -0.709083 -0.933172)
(0.675646 -1.69361 -0.545334)
(0.187653 -2.67445 0.344643)
(-0.0693891 -2.78555 0.183582)
(-0.351303 -2.89919 -0.151809)
(-0.794559 -2.85739 0.0253721)
(-1.1754 -2.87889 0.0113506)
(-1.25393 -2.31272 -0.0691295)
(-1.31953 -1.9307 -0.158814)
(-1.86859 -1.26239 -0.250044)
(-2.01393 -0.991086 -0.38832)
(-1.91761 -0.976424 -0.116886)
(-1.56287 -1.14952 -0.190878)
(-1.50428 -0.676246 0.144941)
(-0.14851 2.85819 3.41618)
(-0.660719 2.70293 3.93041)
(-0.189575 2.81115 4.0167)
(-0.803407 2.78238 4.1096)
(-0.556681 2.93276 4.14366)
(-0.845496 2.79504 4.14112)
(-0.769696 3.12792 3.87264)
(-0.99749 2.79387 4.18801)
(-0.629036 2.92761 3.93135)
(-0.925265 3.02263 3.66878)
(-1.02483 3.03212 3.22421)
(-1.29479 2.60718 3.26405)
(-0.912358 2.87876 3.09635)
(-1.18033 3.42128 2.74667)
(-0.710873 3.44142 3.01318)
(-1.58236 2.81254 2.34657)
(-1.18318 3.15179 2.18344)
(-1.16268 3.23938 2.49347)
(-1.13057 3.07684 2.87851)
(-1.18486 2.79445 2.98655)
(-1.34551 3.02426 3.02569)
(-1.54903 2.75992 1.91895)
(-1.13429 2.74885 2.24739)
(-1.14713 2.77408 2.48539)
(-1.63719 2.71829 2.53106)
(-1.72445 2.74426 2.62916)
(-2.58954 2.44736 2.38513)
(-2.55994 2.2243 2.33482)
(-1.18219 2.74249 1.67622)
(-1.00317 2.89173 1.99771)
(-1.7286 2.2852 2.31246)
(-1.76909 2.04554 2.22723)
(-2.2302 1.75939 2.39855)
(-2.57788 1.19024 2.39242)
(-2.3626 1.74619 2.2278)
(-2.57455 2.20959 1.63646)
(-1.67897 2.20142 1.7546)
(-1.34068 2.02936 1.87399)
(-1.80594 1.02197 2.11786)
(-1.69555 1.18007 2.02318)
(-2.26391 1.26327 1.06761)
(-2.79187 0.344014 1.93269)
(-3.36013 -0.532645 1.56401)
(-2.46587 0.928742 1.38777)
(-2.54804 1.48313 0.568236)
(-1.09095 1.54555 1.39662)
(-1.21183 1.11169 1.67952)
(-1.42139 0.649562 0.317036)
(-2.18942 0.054681 1.64991)
(-2.13491 -0.227184 1.34169)
(-2.03977 1.48791 0.537417)
(-3.00216 0.118993 1.53979)
(-2.77619 -0.68675 0.266822)
(-2.52302 0.357436 -0.0579191)
(-2.79366 0.246354 0.935364)
(-0.562473 0.407816 1.59302)
(-1.10208 0.164726 0.43966)
(-1.64964 0.683345 -0.26329)
(-2.10158 0.727767 -0.326513)
(-2.23199 -0.682915 0.594642)
(-2.49645 -0.620235 -0.94775)
(-3.2154 -0.118406 0.0936043)
(-2.84497 -0.669529 0.179964)
(-2.42374 -0.267713 -0.632588)
(-2.86327 0.0424141 -0.725147)
(-2.97808 0.38299 -0.483953)
(-0.740889 0.0937983 -0.451782)
(-1.37818 0.0350049 -0.113929)
(-1.37487 -0.466981 -0.155213)
(-1.68573 -0.593329 -0.674606)
(-2.48091 -0.607986 -0.858885)
(-2.05061 -1.20116 -0.831195)
(-2.53066 -0.751112 -0.888946)
(-2.8886 -0.590401 -0.284905)
(-2.5174 -1.31576 -0.127723)
(-2.60752 -0.874909 0.0273974)
(-2.66585 -0.106735 0.449134)
(-2.49933 -0.274849 0.496936)
(-0.960371 -0.170795 -0.793375)
(-0.981874 -0.766399 -1.05414)
(-0.916923 -1.69287 0.286379)
(-0.649249 -1.43612 -0.500301)
(-1.6057 -1.58263 -0.65669)
(-1.92548 -1.7094 -0.777021)
(-1.8991 -1.64393 -0.837345)
(-1.93899 -1.25022 -0.153256)
(-2.39593 -1.23678 0.0210175)
(-2.35716 -1.37254 -0.222197)
(-2.30768 -1.03064 -0.22737)
(-2.56125 -0.513287 -0.29845)
(-2.38013 0.159166 -0.305009)
(-0.590402 -0.317424 -1.37117)
(-0.283493 -1.66185 -0.456477)
(-0.129374 -2.27472 0.26633)
(-0.2623 -2.29431 -0.0504387)
(-0.85342 -2.1219 -0.393557)
(-1.22532 -2.45787 -0.14878)
(-1.53602 -2.3195 -0.204468)
(-1.3 -1.88465 -0.183359)
(-1.69936 -1.51784 -0.214373)
(-2.21265 -1.35632 -0.177544)
(-2.39384 -1.05959 -0.30415)
(-2.36874 -0.717823 0.0395477)
(-2.051 -0.413283 -0.321783)
(-1.76233 -0.249409 0.281989)
(0.295767 -0.725791 -0.927906)
(0.667617 -1.72029 -0.514935)
(0.299122 -2.70653 0.210759)
(-0.0788318 -2.78919 0.207831)
(-0.296262 -2.98896 -0.124312)
(-0.74658 -2.88708 0.0705575)
(-1.14038 -2.8826 0.137312)
(-1.24127 -2.33975 -0.0542824)
(-1.27005 -1.93949 -0.12323)
(-1.88048 -1.25387 -0.173356)
(-2.01085 -0.981977 -0.398391)
(-1.92259 -0.962265 -0.1083)
(-1.55974 -1.14324 -0.180716)
(-1.50328 -0.672786 0.155617)
(-1.47971 -0.27762 -0.321771)
(-0.24101 2.65773 3.08433)
(-0.33323 2.84849 3.29413)
(-0.403471 2.78166 3.42681)
(-0.71107 2.62802 3.86646)
(-0.636025 2.68838 3.85493)
(-0.43705 2.67985 4.014)
(-1.09532 2.70016 4.12809)
(-1.05346 2.80463 4.07791)
(-0.623226 2.87745 4.15559)
(-0.844298 2.92357 4.16577)
(-1.04552 3.0599 3.90918)
(-1.61884 2.58723 4.18282)
(-1.21295 2.71242 4.17069)
(-0.915683 2.83437 4.03969)
(-1.12193 2.94412 3.97456)
(-1.30542 2.85506 3.39491)
(-1.24953 2.96204 3.25655)
(-1.32341 2.88483 3.33718)
(-1.53073 3.1646 3.15084)
(-1.33571 3.11342 3.42944)
(-1.51308 2.70685 3.78141)
(-1.74734 2.73875 2.54644)
(-1.67671 2.93378 2.43999)
(-1.42963 3.3431 2.55355)
(-1.5622 2.95215 2.993)
(-1.68559 2.52573 3.21521)
(-1.49333 2.74618 3.25958)
(-1.58371 2.38607 3.46002)
(-1.89678 2.6538 2.01324)
(-0.882585 3.27239 2.16305)
(-1.2689 3.01887 2.35375)
(-2.17798 2.19993 2.61081)
(-2.04094 2.52399 2.69124)
(-2.5811 2.17978 2.58293)
(-2.69084 2.07894 2.19317)
(-2.75834 1.70453 2.61704)
(-1.50628 2.40894 1.83627)
(-1.44055 2.4031 2.17257)
(-2.13523 1.41705 2.70995)
(-1.95517 1.98156 2.16908)
(-2.34933 1.54667 2.53345)
(-2.84915 1.06657 2.24465)
(-2.12874 2.11 2.33429)
(-2.58822 2.19498 1.50204)
(-2.31732 1.63871 2.30385)
(-1.88211 1.8731 1.8142)
(-1.60451 1.71347 2.07636)
(-1.62276 1.40336 2.27514)
(-1.89754 1.02181 2.17843)
(-2.00428 1.45722 1.44454)
(-3.01724 0.105501 1.75658)
(-3.16417 -0.0928618 1.76957)
(-2.68927 0.806731 1.221)
(-2.6768 1.39277 0.579693)
(-2.66797 1.04706 1.40513)
(-1.22731 1.51904 1.55998)
(-1.23012 1.18497 1.76191)
(-1.42791 0.564195 1.04829)
(-2.5424 -0.360998 1.69639)
(-2.37292 -0.181799 1.15102)
(-2.21231 1.79747 0.877257)
(-3.16168 -0.159082 1.29503)
(-2.90679 -0.217266 0.545366)
(-2.52985 0.180379 -0.172904)
(-2.95108 0.322958 0.851069)
(-2.93488 0.187767 0.219005)
(-0.632898 0.422448 1.70101)
(-1.29735 0.0132749 0.394344)
(-1.70759 0.475584 0.346896)
(-2.5606 0.0788173 -0.195404)
(-2.4793 -0.717984 -0.403346)
(-2.4689 -0.860415 -0.8735)
(-3.22728 -0.205229 0.668777)
(-3.04244 -0.795293 0.0898916)
(-2.54969 -0.500992 -0.323519)
(-2.96601 0.13252 -0.0577937)
(-3.00468 0.413547 -0.548018)
(-2.83478 0.629109 -0.236305)
(-0.869609 -0.0796405 -0.32007)
(-1.39764 -0.105757 -0.363222)
(-1.4841 -0.965061 0.189821)
(-1.45736 -0.568916 -0.629156)
(-2.61151 -0.895084 -0.924899)
(-2.10493 -1.26091 -1.04372)
(-2.5167 -0.882066 -1.06775)
(-2.97214 -0.571229 0.107247)
(-2.62507 -1.28737 0.020074)
(-2.57222 -0.985547 -0.0124131)
(-2.70923 -0.172356 0.428118)
(-2.5662 -0.452663 0.664868)
(-2.48663 0.0749375 0.0653269)
(-1.04739 -0.244696 -0.668827)
(-1.03177 -1.00452 -0.946603)
(-0.857641 -1.78581 0.246491)
(-0.598801 -1.63191 -0.390207)
(-1.64617 -1.49448 -0.46039)
(-1.90164 -1.93332 -0.505238)
(-2.04787 -1.64878 -0.509315)
(-2.04449 -1.22915 -0.0350781)
(-2.45347 -1.19505 0.185277)
(-2.36757 -1.39278 -0.141619)
(-2.33448 -1.07646 -0.292266)
(-2.58901 -0.437991 -0.142147)
(-2.40229 0.181103 -0.179368)
(-2.06591 0.757913 -0.48531)
(-0.620824 -0.33318 -1.35688)
(-0.236187 -1.73933 -0.34794)
(-0.145445 -2.30517 0.287983)
(-0.381546 -2.2874 0.0476385)
(-0.8584 -2.14255 -0.380415)
(-1.22068 -2.45543 -0.081237)
(-1.5693 -2.34665 -0.370973)
(-1.30742 -1.95963 -0.0883782)
(-1.70804 -1.50339 -0.211056)
(-2.2458 -1.32897 -0.108446)
(-2.40969 -1.09195 -0.374916)
(-2.37961 -0.718436 0.0908169)
(-2.06577 -0.398906 -0.300605)
(-1.76015 -0.247584 0.322136)
(-1.50852 -0.0481323 -0.219947)
(0.289113 -0.740137 -0.917366)
(0.677162 -1.70794 -0.508537)
(0.193413 -2.72548 0.330308)
(-0.0669967 -2.80455 0.22809)
(-0.261977 -2.99044 -0.034978)
(-0.727289 -2.90217 0.0719916)
(-1.20477 -2.79544 0.0163562)
(-1.26575 -2.34087 -0.0418945)
(-1.31356 -1.87673 -0.14905)
(-1.87542 -1.22452 -0.182738)
(-2.01869 -0.968535 -0.32621)
(-1.924 -0.953631 -0.106994)
(-1.55014 -1.13563 -0.175765)
(-1.50337 -0.671471 0.17234)
(-1.47308 -0.273036 -0.296747)
(-1.17326 0.454367 -0.53186)
(-0.519382 2.34491 3.1573)
(-0.52084 2.65322 3.08308)
(-0.450514 2.5091 3.3647)
(-1.04264 2.56945 3.34281)
(-0.678274 2.72059 3.40156)
(-0.396244 2.72773 3.56215)
(-1.04794 2.59296 3.77463)
(-0.959827 2.62954 3.77461)
(-0.908353 2.54398 3.86299)
(-0.488526 2.76175 4.00538)
(-1.3149 2.71074 4.10953)
(-1.42141 2.6662 4.07563)
(-0.987099 2.83062 4.14393)
(-1.0057 2.78112 4.21707)
(-0.829636 2.97569 4.15736)
(-1.43832 2.83554 3.95344)
(-1.74753 2.55373 4.12504)
(-1.61851 2.67596 4.20381)
(-1.11355 2.85672 4.23123)
(-1.12736 2.96122 4.10503)
(-1.22753 2.81294 4.15417)
(-1.55263 2.69445 3.59309)
(-1.42701 2.85928 3.52199)
(-1.64141 2.90925 3.60973)
(-1.86912 2.89547 3.56928)
(-1.73344 2.69763 3.75609)
(-1.7739 2.57753 3.82864)
(-1.74381 2.3164 3.79866)
(-2.03071 2.4914 2.84765)
(-2.26566 2.39682 2.7536)
(-2.08261 2.62142 3.02538)
(-2.16819 2.50752 3.33377)
(-1.98188 2.33813 3.43403)
(-1.54566 2.55026 3.31553)
(-1.76114 2.00935 3.46115)
(-2.06561 2.03463 3.25148)
(-2.26787 2.52233 2.14331)
(-2.16035 2.59196 2.34985)
(-1.95648 2.34187 2.81759)
(-2.09088 2.39765 2.55126)
(-2.36269 2.1799 2.82647)
(-2.6713 1.88238 2.72248)
(-2.50848 1.88462 2.23366)
(-2.63744 1.7604 2.47563)
(-2.91538 1.62253 2.17414)
(-1.6952 2.19424 2.04018)
(-1.66275 2.34406 2.13307)
(-2.17343 1.58977 2.55419)
(-2.34197 1.65402 2.26839)
(-2.6613 1.3874 2.30023)
(-2.84991 1.07239 2.25625)
(-2.65747 1.29328 2.10536)
(-2.46334 2.36416 1.41681)
(-2.32599 1.54628 2.19962)
(-2.53112 1.31854 1.97537)
(-2.0179 1.68931 1.83682)
(-2.10906 1.04047 2.23429)
(-1.77491 1.18998 2.52789)
(-2.20663 0.784003 2.37212)
(-2.65056 0.915049 1.53738)
(-2.89454 0.201295 1.97438)
(-3.10586 -0.215038 2.02956)
(-2.9767 0.664299 0.884978)
(-2.83862 1.29019 0.82457)
(-2.92076 0.836934 1.18045)
(-2.37783 1.15491 1.70368)
(-1.55784 1.10091 1.71732)
(-1.71968 0.704323 1.82099)
(-1.45192 0.241112 1.73729)
(-1.93979 -0.118355 2.53089)
(-2.53383 -0.49952 1.44009)
(-2.32885 1.66028 1.05856)
(-3.32928 -0.168102 1.41189)
(-2.9926 -0.646621 1.24232)
(-2.55818 0.00268003 0.0711483)
(-2.91598 -0.0201919 1.18396)
(-2.96559 0.182722 0.864072)
(-2.99983 0.625033 0.486059)
(-0.721935 0.394543 1.76373)
(-1.39343 0.055712 0.630054)
(-1.70026 1.03194 0.28591)
(-2.49073 0.699467 -0.351052)
(-2.61725 -0.871308 0.061302)
(-2.41335 -1.13684 -0.951064)
(-3.0678 -0.0835824 1.04633)
(-3.09188 -0.678173 0.564738)
(-2.76918 -0.56082 -0.0705181)
(-2.88983 0.107749 0.0754661)
(-3.02015 0.363579 -0.325625)
(-2.84263 0.653189 -0.0629078)
(-2.58815 0.787415 0.511454)
(-0.917949 -0.165271 -0.141674)
(-1.43706 -0.379447 -0.581494)
(-1.73183 -0.879432 0.366463)
(-1.82646 -0.499713 -0.655666)
(-2.90614 -0.829946 -0.659418)
(-2.22505 -1.41059 -0.70586)
(-2.49758 -0.957412 -0.876022)
(-2.98058 -0.669773 0.443482)
(-2.66318 -1.30948 0.428879)
(-2.58265 -1.09894 -0.0800246)
(-2.73806 -0.147175 0.599746)
(-2.63499 -0.267338 0.570876)
(-2.5274 0.0528716 0.128549)
(-2.40061 0.836731 0.161437)
(-1.11929 -0.288294 -0.551163)
(-1.16037 -1.18465 -0.835971)
(-0.87734 -1.84958 0.229812)
(-0.710689 -1.59814 -0.337848)
(-1.63698 -1.46009 -0.382846)
(-2.07841 -1.8041 -0.699712)
(-2.05788 -1.72737 -0.677723)
(-2.13214 -1.30883 -0.072911)
(-2.48673 -1.14289 0.236382)
(-2.42903 -1.36581 0.00100749)
(-2.38594 -1.1625 -0.124743)
(-2.60456 -0.451446 -0.0170482)
(-2.4238 0.213863 -0.140883)
(-2.08208 0.750533 -0.481039)
(-1.76587 0.701789 0.37678)
(-0.65094 -0.35187 -1.38698)
(-0.233974 -1.77849 -0.265125)
(-0.145092 -2.32539 0.331307)
(-0.327054 -2.33348 0.064488)
(-0.892307 -2.1251 -0.477865)
(-1.2399 -2.50896 0.0672948)
(-1.65834 -2.31969 -0.160378)
(-1.40555 -2.00134 -0.0646251)
(-1.73843 -1.49499 -0.235752)
(-2.25982 -1.31882 -0.0141047)
(-2.45494 -1.04699 -0.182087)
(-2.3964 -0.700609 0.125364)
(-2.07322 -0.383226 -0.291354)
(-1.75263 -0.242198 0.336531)
(-1.51504 -0.0207553 -0.148836)
(-1.35298 0.533909 -0.501061)
(0.288449 -0.768132 -0.895546)
(0.69417 -1.70775 -0.507721)
(0.31164 -2.71985 0.187525)
(-0.0890379 -2.80816 0.260469)
(-0.341896 -2.91104 -0.134422)
(-0.77592 -2.87031 0.0534241)
(-1.16868 -2.82241 0.0732305)
(-1.2774 -2.33891 -0.0446851)
(-1.27777 -1.91323 -0.11522)
(-1.87184 -1.21351 -0.174745)
(-2.02199 -0.972169 -0.286585)
(-1.92577 -0.947095 -0.109094)
(-1.55508 -1.11453 -0.185425)
(-1.50774 -0.658958 0.194387)
(-1.47176 -0.268162 -0.273317)
(-1.16576 0.44406 -0.534727)
(-1.13938 0.792183 -0.0431218)
(-0.153851 2.37495 2.89547)
(-0.716664 2.22393 3.15891)
(-0.415546 2.37441 3.28282)
(-0.656026 2.6023 3.10509)
(-0.673627 2.43866 3.40903)
(-0.581145 2.59224 3.4433)
(-1.16119 2.48106 3.30561)
(-0.858489 2.68851 3.39366)
(-0.902729 2.72096 3.46607)
(-0.60764 2.72713 3.58529)
(-1.21685 2.50687 3.70233)
(-1.11173 2.56822 3.73878)
(-1.16016 2.55813 3.81457)
(-0.978398 2.70252 3.87534)
(-0.70332 2.91875 3.86183)
(-1.47777 2.58553 4.07231)
(-1.42669 2.52367 4.10822)
(-1.41379 2.73124 4.03051)
(-1.48924 2.76059 4.06604)
(-1.22305 2.77378 4.11177)
(-0.920594 2.8479 4.04061)
(-1.9946 2.48289 3.99451)
(-1.94436 2.49654 4.05552)
(-1.89681 2.5259 4.23707)
(-1.75348 2.67178 4.3298)
(-1.46808 2.90927 4.09245)
(-1.50047 2.66919 4.01839)
(-1.22267 2.81981 3.78509)
(-1.84272 2.60958 3.83291)
(-1.63371 2.75571 3.81559)
(-1.85785 2.96324 3.86776)
(-2.23976 2.62662 3.98417)
(-2.05264 2.37692 4.00489)
(-1.951 2.54516 3.71898)
(-1.90844 2.36017 3.58713)
(-1.22369 2.3251 3.52625)
(-2.09484 2.4295 3.17644)
(-2.41746 2.48781 3.05006)