/*--------------------------------*- C++ -*----------------------------------*\
  =========                 |
  \\      /  F ield         | OpenFOAM: The Open Source CFD Toolbox
   \\    /   O peration     | Website:  https://openfoam.org
    \\  /    A nd           | Version:  7
     \\/     M anipulation  |
\*---------------------------------------------------------------------------*/
FoamFile
{
    version     2.0;
    format      ascii;
    class       volScalarField;
    location    "10";
    object      nut;
}
// * * * * * * * * * * * * * * * * * * * * * * * * * * * * * * * * * * * * * //

dimensions      [0 2 -1 0 0 0 0];

internalField   nonuniform List<scalar> 
18750
(
0.000975159
0.00127677
0.000863892
0.00138749
0.00204668
0.001495
0.00164045
0.000817754
0.00145113
0.000326997
0.0013266
0.00221755
0.0054962
0.00156038
0.00132822
0.000448263
0.000791424
0.0015638
0.000417847
0.000295563
0.00165532
0.00158719
0.000937551
0.00205848
0.000776172
0.000950379
0.00132004
0.0010512
0.000291231
0.000471775
0.000710282
0.00159413
0.000487553
0.000366429
0.000170154
0.0022209
0.00170529
0.00102842
0.00288068
0.00214845
0.000929761
0.00132586
0.00078736
0.00070939
0.00109021
0.00109897
0.000970993
0.00027962
0.000404741
0.000528202
0.000680462
0.00151397
0.000542625
0.000198831
0.000214648
0.000179204
0.00240964
0.00216099
0.00102496
0.00195461
0.00148418
0.00151755
0.00265338
0.00150604
0.00188205
0.000968102
0.00131085
0.00169876
0.000893336
0.00107881
0.00134975
0.000916219
0.0011927
0.000523005
0.000481496
0.000497137
0.000338454
0.000670853
0.00137264
0.000587806
0.000217363
0.000239765
0.000187898
4.1512e-05
0.00250981
0.0021912
0.000929844
0.00195077
0.000985102
0.000614032
0.00239501
0.00188894
0.00052944
0.00131241
0.00146865
0.000542544
0.00197271
0.000731983
0.000584841
0.0011366
0.000749725
0.000697436
0.00139566
0.000949953
0.00100319
0.000772861
0.00137038
0.000458795
0.000363387
0.000460584
0.000380756
0.000223333
0.000660673
0.00118895
0.000630028
0.000291625
0.000196087
8.59013e-05
5.35457e-05
1.99359e-05
0.00236334
0.00241412
0.000436684
0.0021298
0.00125801
0.00112637
0.00200329
0.00136152
0.000696593
0.000480314
0.00252708
0.00137203
0.000827671
0.000817507
0.000810373
0.00109984
0.000933386
0.000952104
0.000575692
0.000971775
0.000829519
0.000947848
0.0010308
0.000722699
0.00128545
0.000833385
0.000998975
0.000875106
0.00066358
0.00127628
0.000245212
0.000406669
0.000554167
0.000419264
0.000138961
0.000261359
0.000638726
0.000970589
0.000671064
0.000114692
0.000260296
0.000338164
5.16975e-05
5.57562e-05
8.20643e-05
0.00269094
0.00243225
0.000726997
0.00232456
0.000548326
0.000737576
0.00240664
0.00143874
0.000819164
0.000589069
0.00251784
0.00144267
0.000338962
0.00054297
0.000910047
0.00234648
0.00111341
0.000400809
0.000546678
0.000691239
0.000845695
0.000705985
0.000866295
0.00104735
0.000671786
0.00109224
0.000770064
0.00109404
0.000832052
0.00117307
0.000710487
0.000749277
0.000798289
0.000785915
0.000732896
0.000388114
0.000545136
0.000961064
0.000509659
0.000601697
0.000566018
0.00047153
0.000258274
0.000139073
0.00032891
0.000598879
0.000744032
0.000702097
0.000162501
0.000229734
0.000172292
4.05386e-05
0.000109047
0.000174027
0.000168106
0.00204739
0.00225881
0.000576358
0.0023004
0.0009775
0.00054937
0.00237062
0.000806934
0.000896124
0.000632037
0.00188299
0.00121483
0.00105287
0.000892552
0.000243875
0.00196118
0.00140551
0.000506122
0.000349722
0.000494246
0.000439396
0.00193577
0.000955135
0.000624093
0.0003639
0.000917451
0.000878507
0.000575252
0.000970598
0.000769589
0.00114731
0.000807693
0.00113608
0.00099821
0.000954675
0.00120076
0.000771964
0.000807822
0.000572047
0.00063491
0.000781489
0.000721203
0.000948386
0.000409085
0.000306896
0.00050085
0.000654125
0.000706084
0.000370202
0.000532056
0.000300088
0.000234932
0.000226215
0.000335811
0.000342333
0.000545595
0.00052508
0.000634492
0.000145553
0.000179576
9.6985e-05
0.000272937
9.44772e-05
0.00017106
0.000166878
0.000248676
0.00202839
0.00221587
0.000586055
0.00261397
0.000851839
0.000662442
0.00244957
0.00114988
0.00042171
0.000579407
0.0023407
0.000417707
0.000783189
0.000395398
0.000283699
0.00194164
0.00106264
0.00107982
0.000585515
0.000296671
0.000288426
0.00263965
0.00135986
0.00073351
0.000254086
0.000628787
0.000332812
0.000604119
0.00224497
0.00110783
0.000731571
0.00101133
0.00148712
0.00125754
0.000332359
0.00123364
0.0012928
0.000915491
0.000635487
0.00118387
0.00152186
0.00104087
0.00104019
0.0012328
0.000809695
0.000848862
0.000283923
0.000632044
0.000787604
0.000618564
0.000734394
0.000801123
0.0004654
0.000273185
0.000289452
0.000498596
0.000437109
0.000413181
0.0010394
0.000692439
0.000443769
0.000116206
0.000280292
0.000342961
0.000215644
0.000550606
0.000488852
0.000383777
0.000419423
0.000228012
0.000210522
0.000455034
9.51224e-05
0.000191524
6.00618e-05
0.000173913
0.000318834
0.000165502
0.00227199
0.00207993
0.000534865
0.0021727
0.00221468
0.000459172
0.000633742
0.00242926
0.000971577
0.000357198
0.000495831
0.00220997
0.000770816
0.00117169
0.000699828
0.000777896
0.00228912
0.000670833
0.000904115
0.000524325
0.000564126
0.000693648
0.00219349
0.00109825
0.00107788
0.000576413
0.00040801
0.000476776
0.000450838
0.00377064
0.00140411
0.000358718
0.00049641
0.000944752
0.000612281
0.000479814
0.000949409
0.00214128
0.00118936
0.00183231
0.00179986
0.0016135
0.00100994
0.000321802
0.00119982
0.00108024
0.00104909
0.000831076
0.000706341
0.00166019
0.00156641
0.00140516
0.00101895
0.00120123
0.000890953
0.000629015
0.000846925
0.000244426
0.000512583
0.000558355
0.000842976
0.000769223
0.000515058
0.000660135
0.000355515
0.000294218
0.000404017
0.000495134
0.000452881
0.000378357
0.000857667
0.000521812
0.000264598
0.000271795
0.000297295
0.000235487
0.000305912
0.000624093
0.000531273
0.000432289
0.000423151
0.000505021
0.000172887
0.000241816
0.00011304
0.00021834
0.000140783
0.000134402
0.000272294
0.000386359
0.000179675
0.000110788
0.00220286
0.0020816
0.000721436
0.00254948
0.00201341
0.000445697
0.000546506
0.000451871
0.00216079
0.000593214
0.000478315
0.000328146
0.00229875
0.00134991
0.000528614
0.000648014
0.000524179
0.00215937
0.000320552
0.00100583
0.000584375
0.000732972
0.000860397
0.00242037
0.0010004
0.000876943
0.000918282
0.000303215
0.000689621
0.000443314
0.00221071
0.00148587
0.000706788
0.000638673
0.000242381
0.000605766
0.00036726
0.00044818
0.00340181
0.00141032
0.000975255
0.000538775
0.000713412
0.000893657
0.000635675
0.00116326
0.000775483
0.00192259
0.00112269
0.00212711
0.00137216
0.0010204
0.00123097
0.000481729
0.000853677
0.000992719
0.000810585
0.000844732
0.00119825
0.000869868
0.00138989
0.000930209
0.00107016
0.00111536
0.000999958
0.00106804
0.000396332
0.000746432
0.000786151
0.000296155
0.000454204
0.000435059
0.000633853
0.000798008
0.000388769
0.000702456
0.000349923
0.000250446
0.000296895
0.000251171
0.000491582
0.000513101
0.000528021
0.00037111
0.000376332
0.000308363
0.000222652
0.000299187
0.000290005
0.000318663
0.00038631
0.000499334
0.000431481
0.000375037
0.000432101
0.000320459
0.000241654
0.00024637
0.000167817
0.000213656
0.000177969
0.000150561
0.000211053
0.000412275
0.000213303
0.000105365
0.000269823
0.00234085
0.00239434
0.000453922
0.00238818
0.00213919
0.000539089
0.000313987
0.000545044
0.00207751
0.000451994
0.000497495
0.000530392
0.000473723
0.00228527
0.0004806
0.000594623
0.000546578
0.000492607
0.00250039
0.00126351
0.00050239
0.000468489
0.000583262
0.000673443
0.00203026
0.000460451
0.000463445
0.000362408
0.000434365
0.000984189
0.00045851
0.00260534
0.00109349
0.000757486
0.000879772
0.000494298
0.000705568
0.000779993
0.000587314
0.00235374
0.00108805
0.000999477
0.000828999
0.000576564
0.000513604
0.00084505
0.000942573
0.000339833
0.00306495
0.00102172
0.00109621
0.000549721
0.000587649
0.000680119
0.000877597
0.00111805
0.000798847
0.000472303
0.00201028
0.000841431
0.00100819
0.00119424
0.000709283
0.00159694
0.000482064
0.000661838
0.00107843
0.000924625
0.000882105
0.0010192
0.0010687
0.000788306
0.000625711
0.00106073
0.000938863
0.000828391
0.000995602
0.000983401
0.00110343
0.000703994
0.000888687
0.000688555
0.000388526
0.000312602
0.000992064
0.000906772
0.000526155
0.00035911
0.000642798
0.000323761
0.000348457
0.000310153
0.000326699
0.000577649
0.000495227
0.000468058
0.000543995
0.000318052
0.000477965
0.000199646
0.000175878
0.000293588
0.000500016
0.000428026
0.000439924
0.00039778
0.000291328
0.000503204
0.000317316
0.000390542
0.000317866
0.000281026
0.000245648
0.00019975
0.000260782
0.000159836
0.00022555
0.000213532
0.000417714
0.000217209
0.000100111
0.000253998
0.000182461
0.00218032
0.0022021
0.000347003
0.0023963
0.00228266
0.000430044
0.000201269
0.000274293
0.0021183
0.000475962
0.000444075
0.000205163
0.000450945
0.0019451
0.000576324
0.000470143
0.000562843
0.000431938
0.000403273
0.0021493
0.000548775
0.000691539
0.000641539
0.000372027
0.000724844
0.0022678
0.000961068
0.000528318
0.000455121
0.000758556
0.000991051
0.000839246
0.00212477
0.000930976
0.000473593
0.000537219
0.000784683
0.000790439
0.000661637
0.000589575
0.00237719
0.00058612
0.00119186
0.000691666
0.000636065
0.000320213
0.000902155
0.000455723
0.000769012
0.00254132
0.000883078
0.000875319
0.000853233
0.000401065
0.000580445
0.000978038
0.000769436
0.000646013
0.00036842
0.00282047
0.000761309
0.000704167
0.00046662
0.000454823
0.000445579
0.00077042
0.000599089
0.000397279
0.000251226
0.0006352
0.0019023
0.000798111
0.000816584
0.00119823
0.00128364
0.00159349
0.000857667
0.000594504
0.000754683
0.00135769
0.000560624
0.00115704
0.00108353
0.000502177
0.000418733
0.000603545
0.00164949
0.000744184
0.000887225
0.000830578
0.00128968
0.000944189
0.000786309
0.000595957
0.000535467
0.000582358
0.000597602
0.00027907
0.000858655
0.000519406
0.000521254
0.000413633
0.000520991
0.000484815
0.000129213
0.000358284
0.000591982
0.00116126
0.000931179
0.000495558
0.000474645
0.000721997
0.000428161
0.000289926
0.00024701
0.000280504
0.000251412
0.000727896
0.000640367
0.00062148
0.000364419
0.000275187
0.000343803
0.000568059
0.000306584
0.000383713
0.000416775
0.000126314
0.000261252
0.000120941
0.000441189
0.000193152
0.000316583
0.000330426
0.000361269
0.000161335
9.50973e-05
0.00019491
0.00016277
0.000172549
0.00225073
0.00229282
0.0005403
0.00238022
0.00228661
0.000384422
0.000477473
0.000402597
0.00237365
0.00224605
0.000278401
0.000428724
0.000546961
0.000259797
0.00212977
0.000564382
0.00036109
0.000374405
0.000334774
0.000314546
0.00213224
0.000602409
0.00041956
0.000643407
0.000426417
0.000407936
0.00047859
0.00238132
0.000737254
0.000694201
0.00062994
0.000364635
0.00058818
0.00043686
0.00236682
0.000923981
0.00057023
0.000526233
0.000315583
0.000618308
0.000661905
0.000720093
0.00222552
0.000383128
0.000433051
0.000671379
0.000404228
0.000645095
0.00069064
0.000580814
0.000446635
0.00266467
0.000571876
0.00100024
0.000814078
0.000527003
0.000393219
0.000428179
0.000423332
0.000526167
0.00021085
0.00244154
0.00100564
0.000972495
0.000687133
0.000634732
0.000561959
0.000503736
0.000576391
0.000419853
0.00062201
0.000329959
0.0028044
0.000719556
0.00109901
0.000568904
0.000901654
0.00090972
0.000785678
0.000361743
0.000471268
0.000809635
0.000720836
0.0007249
0.00177494
0.000722457
0.000665062
0.00178855
0.00153545
0.00125382
0.00140703
0.000770057
0.000894514
0.00108532
0.000966838
0.000828532
0.000816391
0.00107822
0.000503105
0.00018923
0.000429688
0.000557669
0.00140772
0.000842406
0.000700796
0.00107079
0.000678287
0.00114279
0.000355151
0.000459545
0.000893623
0.000488382
0.000675705
0.000398293
0.000455717
0.000737654
0.000257536
0.000325042
0.000466358
0.000555272
0.000746431
0.000348965
0.000623021
0.000627091
0.00127023
0.000949531
0.000526151
0.000518517
0.00048149
0.000338591
0.000307163
0.000237069
0.000403814
0.000279159
0.000650066
0.000386213
0.000806524
0.000221742
0.000268269
0.000304971
0.000617618
0.000587409
0.0003534
0.000366706
0.000382356
0.000168417
0.000306049
0.000107965
3.2489e-05
0.000253489
0.000233209
0.000423188
0.000349507
0.000167574
9.15472e-05
0.000113372
0.000291468
0.00022069
6.43479e-05
0.0019992
0.00223601
0.000601481
0.00235719
0.00239317
0.000549228
0.000432284
0.000520194
0.00242377
0.00226771
0.000227615
0.000485185
0.000491123
0.000474036
0.000418325
0.00222644
0.000429239
0.000189052
0.000594275
0.000335554
0.000395728
0.00215217
0.00049548
0.000271702
0.000376148
0.000251898
0.000290457
0.00045718
0.00211687
0.000695739
0.00057974
8.64227e-05
0.000611449
0.000525217
0.000681328
0.00057056
0.00222247
0.000833959
0.000408579
0.000446005
0.000435238
0.000449215
0.000664635
0.000442853
0.00239694
0.00105046
0.000510722
0.000558389
0.000186582
0.000514832
0.00102588
0.000608375
0.000505335
0.00211784
0.000424844
0.000527761
0.000307218
0.000948766
0.000914393
0.000830903
0.000613991
0.00056329
0.000559921
0.00312084
0.000805903
0.00121304
0.000569449
0.000705418
0.00109944
0.000504874
0.000401983
0.00062102
0.000436031
0.000452168
0.00231345
0.00100952
0.00068369
0.000865385
0.000741271
0.000566072
0.000592169
0.000273272
0.000390074
0.000492185
0.000653689
0.000644427
0.00232569
0.00150478
0.00241556
0.00178772
0.00145608
0.00133735
0.00124004
0.000549132
0.000453026
0.000500252
0.000768362
0.000642655
0.000643107
0.00193303
0.000488599
0.00129109
0.00136314
0.00180555
0.00127432
0.00175956
0.00103075
0.000812149
0.00145759
0.000753748
0.000890526
0.000756585
0.00108093
0.00118062
0.000594784
0.00037885
0.000451913
0.00126267
0.000932563
0.000685036
0.000662679
0.00076793
0.00144026
0.000524167
0.000787018
0.000203699
0.000526119
0.000954593
0.000536356
0.000514809
0.000383194
0.00067555
0.000479522
0.000287055
0.000291687
0.000364199
0.000550556
0.000670592
0.000578381
0.000865117
0.000256267
0.000488893
0.000547335
0.000415707
0.00047453
0.000578715
0.000415653
0.000467729
0.000393637
0.000344049
0.000439885
0.00039544
0.000232348
0.000482994
0.00056576
9.47481e-05
0.000274601
0.000243516
0.000474691
0.000511661
0.000385018
0.000420332
0.000350489
0.000403566
0.000186857
0.00038657
0.00016616
9.67809e-05
0.000202968
0.000351868
0.000536894
0.000341701
0.000182551
0.000146624
7.03851e-05
0.000292802
0.000118762
0.000170234
0.000243211
0.00195573
0.00198156
0.000570932
0.00211562
0.00224819
0.000419105
0.000406377
0.000483771
0.00240503
0.00228643
0.000433922
0.000426945
0.000548207
0.000377743
0.000673518
0.0022002
0.000408104
0.000331211
0.000385322
0.000586668
0.000440103
0.000413331
0.00223946
0.000509655
0.000294125
0.000283888
0.00045581
0.000216028
0.000215119
0.00205498
0.000432634
0.000387018
0.000268519
0.000350832
0.000280873
0.000316788
0.000197073
0.0022552
0.000755788
0.000469298
0.000594338
0.000434781
0.000469472
0.000835223
0.000346137
0.000420842
0.00228799
0.000692685
0.000476154
0.000801664
0.000646483
0.000448288
0.000862084
0.000335701
0.000623442
0.00223005
0.000673713
0.000691645
0.000405622
0.000820382
0.000592046
0.00054327
0.000537406
0.000750619
0.000359818
0.00212265
0.000340308
0.00062143
0.000531359
0.000995594
0.000983109
0.000614403
0.000662863
0.000750271
0.000314833
0.000355627
0.0028784
0.000948935
0.00164534
0.00118438
0.000725633
0.00084084
0.000875919
0.000573115
0.000421283
0.00063183
0.000569278
0.000386203
0.00291793
0.00144391
0.00153447
0.000738239
0.000411853
0.000503934
0.000478381
0.000110667
0.000445595
0.000479458
0.000356279
0.000676697
0.000695138
0.00315835
0.00159342
0.00158436
0.00175502
0.000970791
0.00108568
0.00160248
0.000348041
0.000414633
0.000483681
0.000613664
0.000392123
0.000534513
0.000704963
0.00217288
0.000912783
0.00165513
0.00108354
0.00101303
0.00123354
0.0015091
0.00156479
0.000889948
0.000845995
0.000758821
0.000765358
0.00076612
0.00108806
0.00075523
0.00132111
0.000435475
0.000263121
0.000463874
0.00141183
0.00102034
0.000764415
0.000779527
0.000454232
0.000752534
0.000626524
0.00096939
0.000617243
0.00046281
0.000592584
0.000610821
0.000613038
0.000450832
0.000347626
0.000636605
0.000243211
0.000441449
0.000255069
0.000309923
0.00043166
0.000317748
0.000930885
0.000442896
0.000162996
0.000409549
0.000585555
0.000414957
0.00026544
0.000439108
0.000635694
0.000612387
0.000660082
0.000277317
0.000177986
0.000716796
0.000605526
0.000505173
0.00073409
0.000327599
0.000117254
0.000287595
0.000258414
0.000387113
0.000368123
0.000148492
0.000309733
0.000459428
0.00034207
0.000416871
0.000160709
0.000459654
0.000250098
0.000159667
0.000278012
0.000439344
0.000514687
0.000289482
0.000150203
0.000174753
5.98724e-05
0.000176859
0.000141195
0.000109801
0.000280903
0.000195966
0.00201697
0.00196878
0.000393815
0.00208903
0.00202648
0.000472736
0.000180218
0.000611125
0.00210931
0.0022637
0.00032513
0.000400235
0.000536332
0.000535333
0.000529309
0.00228688
0.00056681
0.000546235
0.000555171
0.000440302
0.000386314
0.000362115
0.00222271
0.000483485
0.000458584
0.000388886
0.000573074
0.000393247
0.000405292
0.00071834
0.00223448
0.00040881
0.000442077
0.000324935
0.000436904
0.000225228
0.000273992
0.000304795
0.00201808
0.000431846
0.000297731
0.000323651
0.000316923
0.000249423
0.000183816
0.00052206
0.000749665
0.00223033
0.000588302
0.000436903
0.000724238
0.000308583
0.000400898
0.000357504
0.000517784
0.000653719
0.000304781
0.00242594
0.000812947
0.000567374
0.000536255
0.00063011
0.000653099
0.000466338
0.000518883
0.000486742
0.00036741
0.00216404
0.00047962
0.000752106
0.000964515
0.000700151
0.000704287
0.000647929
0.00050844
0.000611827
0.000560891
0.000629007
0.00240951
0.000461921
0.000691207
0.00121489
0.00101805
0.000790648
0.00105379
0.000610321
0.000687827
0.00110292
0.0011092
0.000811152
0.00260482
0.000815917
0.00148214
0.00123205
0.00130565
0.00114178
0.000725624
0.000910298
0.000466707
0.000724121
0.000787231
0.000776254
0.000307554
0.00288768
0.00187822
0.00144119
0.00113379
0.00110583
0.000820899
0.000579737
0.000310423
0.000753693
0.000671339
0.000308667
0.000601183
0.000326606
0.000196952
0.00339335
0.00164855
0.000835181
0.000683779
0.000959848
0.000863456
0.00092994
0.000883584
0.000662896
0.000545408
0.0005617
0.000414463
0.000979132
0.00036489
0.000752544
0.00214976
0.0010769
0.00119789
0.000651716
0.000739334
0.000783646
0.000795998
0.00141692
0.00101919
0.000816193
0.00122198
0.000684201
0.000792131
0.00105642
0.00144743
0.00098866
0.00132255
0.000616332
0.00039082
0.000712199
0.000440913
0.000591842
0.00067721
0.000737711
0.000345047
0.000536811
0.000541991
0.000998176
0.000816144
0.00132908
0.000429176
0.000722383
0.000467914
0.000652828
0.000350213
0.000463523
0.000524712
0.000342601
0.000652723
0.0002352
0.000420967
0.000379741
0.000241181
0.000782132
0.00026255
0.000293372
0.000328428
0.000587851
0.000335651
0.000471947
0.000435015
0.000541346
0.000596205
0.000700665
0.000326865
0.00027711
0.000500887
0.000620975
0.000623818
0.000610603
0.000838752
0.000303898
0.000134593
0.000306018
0.00029339
0.000442213
0.000214501
0.000336419
0.00030107
0.000413421
0.000441256
0.000341882
0.000390686
0.000182481
0.000487079
0.000323243
4.81308e-05
0.000315538
0.000275776
0.000444257
0.00033728
0.000137868
0.000125499
0.000106369
0.000234442
0.000212902
8.03642e-05
0.000331143
0.000258987
0.000383534
0.00209292
0.00200825
0.000318417
0.00216189
0.0019865
0.000378818
0.000325845
0.00036817
0.00205631
0.00194077
0.000390485
0.000403987
0.000229194
0.00023631
0.000567253
0.00219976
0.000432823
0.000235415
0.000382617
0.000447138
0.000537798
0.000536342
0.00221755
0.000445703
0.000347071
0.000447587
0.000533142
0.000331295
0.000451706
0.000351206
0.00221309
0.000374565
0.000391507
0.00045438
0.000445051
0.00034793
0.000397927
0.000403187
0.000312599
0.00235337
0.000515373
0.000190524
0.000390492
0.000405674
0.000164354
0.000418462
0.000287715
0.000264626
0.00199873
0.000486501
0.000325845
0.000263589
0.000399391
0.000289789
0.000237156
0.00041445
0.000674483
0.000481466
0.0022605
0.000585771
0.000546015
0.000318808
0.000589329
0.000429795
0.000430033
0.000584104
0.000378555
0.000535206
0.000492184
0.00229808
0.000972999
0.000548069
0.000493605
0.000286601
0.000888422
0.000869695
0.000555672
0.000506834
0.000794981
0.000976431
0.00202726
0.000669604
0.000810867
0.00052935
0.000503951
0.000944893
0.000971416
0.000656446
0.000692242
0.00099864
0.0012072
0.00128806
0.00259042
0.000648545
0.000613793
0.00123068
0.00140027
0.00101733
0.000657625
0.00040893
0.000664637
0.000692586
0.000836726
0.000665644
0.000953752
0.00245501
0.000835853
0.00146502
0.00157778
0.00137629
0.0010906
0.000633338
0.00070725
0.000997527
0.00047008
0.000177304
0.000368711
0.00086502
0.000625666
0.00240748
0.00192506
0.00164333
0.00126934
0.000715439
0.000692464
0.000699193
0.000623688
0.000804074
0.000228283
0.000458971
0.00030368
0.00125289
0.000310811
0.000219445
0.00312012
0.00218746
0.00170299
0.00135363
0.00157481
0.00118551
0.00137651
0.000400131
0.000715531
0.000812501
0.000663203
0.000807747
0.000544658
0.000587022
0.000540294
0.000682903
0.00231149
0.0010188
0.000830552
0.000860772
0.00078786
0.00106245
0.000820068
0.000857107
0.00180418
0.00110478
0.000984696
0.000629084
0.00078845
0.000849791
0.000717892
0.00105016
0.00116595
0.00130624
0.000979983
0.000687163
0.000510465
0.000973274
0.00150782
0.000786944
0.000482375
0.000683944
0.000407595
0.000367032
0.000209298
0.000463524
0.000217118
0.000780137
0.000949428
0.000768605
0.00052358
0.000585537
0.000415486
0.00045158
0.00026578
0.000610409
0.000340551
0.000197437
0.000305181
0.000318553
0.000222631
0.000416463
0.000253877
0.000206574
0.000316932
0.000476607
0.000324021
0.000269842
0.000445948
0.00087543
0.000668426
0.00054584
0.000931397
0.000475701
0.000288787
0.000315777
0.000384589
0.000649525
0.000545828
0.00102285
0.000230063
0.000134911
0.000309306
0.000330557
0.000415438
0.000121675
0.000207511
0.000407761
0.000389963
0.000205026
0.000453232
0.000350168
0.000318507
0.000215708
0.00057701
0.000377398
0.000110477
0.000243466
0.000306623
0.000489775
0.000351978
0.000127709
0.000107975
0.000160878
0.000268802
0.000270393
0.000111318
0.000364912
0.000268162
0.000378184
0.00032652
0.00214632
0.00208018
0.000436642
0.00219165
0.00197297
0.000336515
0.00033597
0.000358164
0.00218387
0.00203236
0.000345364
0.00040075
0.000375315
0.000325218
0.00036025
0.00205961
0.000421445
0.000364526
0.000246871
0.000315305
0.000357973
0.000491847
0.00221642
0.000332832
0.000647681
0.000285642
0.000547974
0.000194869
0.000293732
0.000449895
0.00230229
0.000524156
0.000744827
0.000334789
0.000596314
0.000330199
0.00046836
0.000437025
0.000482545
0.00206089
0.000363527
0.000249958
0.000305912
0.000416519
0.000238271
0.000376758
0.000303158
0.000459975
0.000555028
0.00224976
0.000551182
0.000410586
0.000379727
0.000177081
0.000228966
0.000303161
0.000243804
0.000658578
0.000433372
0.0020271
0.000627743
0.000488202
0.000472835
0.000216697
0.000222956
0.000393514
0.000342263
0.000566667
0.000499748
0.000627158
0.00238192
0.000489608
0.000579342
0.000517189
0.000590683
0.000408515
0.000388745
0.000313202
0.000573685
0.000762815
0.000603242
0.000638625
0.00222776
0.000752552
0.00067394
0.000480161
0.00058728
0.000906101
0.000278224
0.000626525
0.00069727
0.000728085
0.00064903
0.000454976
0.00206877
0.000689597
0.000913688
0.000659412
0.000817475
0.000961686
0.000746854
0.000766376
0.000945378
0.000820401
0.000550448
0.000588029
0.000979126
0.00259086
0.000543107
0.00076665
0.000797394
0.000966114
0.000946196
0.000919144
0.000691089
0.00094573
0.000756367
0.000359442
0.000564562
0.000550428
0.000625872
0.00249531
0.000592614
0.00139513
0.00121413
0.000991283
0.000955054
0.000906943
0.000462543
0.000750878
0.000703771
0.000826834
0.000614838
0.000688297
0.000327586
0.000549557
0.00250807
0.0009758
0.00169451
0.000983891
0.000606116
0.000487365
0.000493318
0.000290738
0.000334201
0.000683766
0.000408006
0.000839279
0.000217699
0.000314094
0.000163589
0.000185632
0.00283967
0.000896381
0.00200787
0.00143949
0.000754409
0.000926215
0.001127
0.00162053
0.000933992
0.00112702
0.00111848
0.000873701
0.000400749
0.000614343
0.000416631
0.000576931
0.000914216
0.0026792
0.00100762
0.00112086
0.000754681
0.000632365
0.000430224
0.000858684
0.000927968
0.00115833
0.000733417
0.000940026
0.000504786
0.000482501
0.000392272
0.00102568
0.00122097
0.00103416
0.0008342
0.00129922
0.00112902
0.000639806
0.00043018
0.000833365
0.00102486
0.000799453
0.00068016
0.000879876
0.000472317
0.000389315
0.000403924
0.000232403
0.000209064
0.00097255
0.000829781
0.000595417
0.00048158
0.000409045
0.000550598
0.000506554
0.000393198
0.00038065
0.000563146
0.000261073
0.000310185
0.000290621
0.000377878
0.000280753
0.000563036
0.000279012
0.000186834
0.00023943
0.000448443
0.000583996
0.000673149
0.000373916
0.000372121
0.000653194
0.000743397
0.000581996
0.00113138
0.000450033
0.000235194
0.000117094
0.000660703
0.000663827
0.000408616
0.000711962
0.000198209
0.000141043
0.000295289
0.000335482
0.000214933
0.000274058
0.000121703
0.000405497
0.000368246
0.000137507
0.000152038
0.000473457
0.000362204
0.000218876
0.000205109
0.000487758
0.000405301
0.000220144
0.000270653
0.00055948
0.000495613
0.000342624
0.000109332
9.73195e-05
0.000115257
0.000232123
0.000318669
0.000246608
0.000397512
0.000319689
0.000246653
0.000373629
0.000158931
0.00195289
0.00212609
0.000499592
0.00230801
0.00200714
0.000446875
0.000280702
0.000408991
0.00225152
0.00199355
0.000310919
0.000230393
0.000344806
0.000344191
0.000403033
0.00209805
0.000358434
0.000260636
0.000282616
0.000581216
0.000352892
0.000344447
0.001988
0.000483497
0.000447084
0.000270174
0.000256992
0.00021641
0.000215649
0.000329372
0.00217053
0.000555687
0.00062025
0.000253331
0.000408048
0.000265783
0.000458672
0.000222537
0.000381665
0.00227755
0.000698726
0.000142919
0.000276275
0.00044529
0.00032739
0.000539997
0.00038674
0.000586412
0.000429714
0.00218399
0.000383139
0.000389202
0.000245735
0.00031796
0.000293012
0.000283695
0.000502735
0.000612268
0.000511749
0.000517267
0.00212564
0.000724296
0.000351396
0.000272087
0.000274277
0.000355025
0.000370124
0.000293072
0.000538089
0.000446595
0.000488995
0.00208222
0.000533306
0.00056379
0.000194173
0.000245401
0.000248689
0.000516402
0.000425663
0.000706338
0.000501313
0.000380872
0.000668678
0.00228646
0.000516419
0.000689031
0.000391345
0.000775136
0.000384688
0.000603737
0.000484836
0.000804015
0.000722355
0.000880908
0.000601691
0.00065137
0.00210631
0.000703013
0.000706198
0.000643803
0.000971762
0.000610466
0.00048683
0.000328581
0.000699184
0.000645857
0.000669866
0.000492199
0.000477279
0.00220246
0.000668964
0.000836715
0.000742175
0.000835954
0.00105707
0.000827657
0.000653966
0.00110981
0.000812719
0.0012074
0.000449726
0.000500074
0.000968468
0.00245742
0.000717555
0.000778619
0.000868427
0.00118668
0.00116119
0.00135528
0.000638717
0.000945837
0.000745657
0.000944848
0.000989676
0.000691965
0.000581425
0.000636916
0.0024269
0.000928538
0.00123679
0.00105675
0.0012086
0.00112172
0.000959251
0.00066304
0.00040576
0.000574718
0.000534306
0.000969843
0.00098964
0.000613708
0.000277941
0.000206203
0.00251419
0.00129453
0.001016
0.000503381
0.000306991
0.000672973
0.000831924
0.00031883
0.000497105
0.000570305
0.000196073
0.000328759
0.000507904
0.000382541
0.000182931
0.00028283
0.000278982
0.00224721
0.00178654
0.000804463
0.000777582
0.000880212
0.000608159
0.00141072
0.00168348
0.00138342
0.00187937
0.00115909
0.000560058
0.000651057
0.000483281
0.000671395
0.000850792
0.000512454
0.00122643
0.00288046
0.00109975
0.000728755
0.00104172
0.000763094
0.000676849
0.000984352
0.000349517
0.000507909
0.000603017
0.000676119
0.00110888
0.000682098
0.000473502
0.00112392
0.000611345
0.000725045
0.00124014
0.000764294
0.000961557
0.00096991
0.000728019
0.000749909
0.000423236
0.000644989
0.000482742
0.000613506
0.000607245
0.000310371
0.000480855
0.000321136
0.000339719
0.000139612
0.000286736
0.000664117
0.000681217
0.000491952
0.000545306
0.000808721
0.000535286
0.000380927
0.000377107
0.000479111
0.000285236
0.000290534
0.000231328
0.000260201
0.000328432
0.000143551
0.000253372
0.000270288
0.000252138
0.000226641
0.000502255
0.000456303
0.000418417
0.000430493
0.00085334
0.000398896
0.000417284
0.000808889
0.000618415
0.00117641
0.000372544
0.00020997
0.000285639
0.00106213
0.00120636
0.000374865
0.000419543
0.000178565
0.000139962
0.000279635
0.000342486
0.000273342
0.0003405
0.00014775
0.000252869
0.000241992
8.79429e-05
0.000421104
0.000283967
0.000508172
0.000357417
0.000147007
0.000212515
0.000293175
0.000312118
0.000262974
0.00039032
0.000668122
0.000478128
0.000318169
0.000118993
9.47066e-05
0.000131919
0.000126833
0.000272691
0.000285778
0.000354619
0.00032991
0.000108301
0.000356312
0.000139006
0.000194471
0.0019411
0.00201463
0.000363878
0.00205874
0.00207535
0.000446734
0.000316552
0.000475359
0.00224648
0.00205772
0.000496484
0.000388063
0.000243514
0.000288457
0.000400174
0.00200142
0.000302919
0.00027607
0.000430453
0.000465198
0.000458094
0.000399338
0.00209019
0.000418574
0.000403345
0.000262387
0.000265159
0.000259746
0.000203404
0.00024734
0.00208634
0.000366303
0.000106024
0.000208688
0.000304859
0.000201002
0.000326565
0.000212457
0.000208874
0.00225385
0.000385254
0.000152599
0.000428946
0.000460035
0.000292234
0.000390632
0.000492111
0.00043801
0.000279652
0.00229256
0.00043596
0.000499548
0.000549966
0.000355456
0.000473834
0.000506746
0.000565442
0.000297852
0.000401679
0.000466885
0.00225891
0.000370128
0.000410249
0.000482684
0.00042223
0.000506061
0.000376383
0.000586153
0.000409755
0.000387819
0.00055177
0.000347497
0.00211043
0.00056817
0.000269597
0.000390992
0.000423171
0.000393224
0.000139104
0.000333623
0.000640108
0.000501177
0.000378764
0.000560361
0.00200435
0.000459006
0.000373457
0.000481804
0.000254053
0.000237079
0.000402046
0.000280657
0.000543297
0.000553527
0.000529392
0.000430657
0.000700174
0.00223694
0.000390409
0.000540672
0.000773813
0.00037144
0.000391171
0.000750947
0.000292138
0.00060202
0.000606053
0.0004764
0.00066883
0.000692807
0.000567342
0.00206331
0.000658416