/*--------------------------------*- C++ -*----------------------------------*\
  =========                 |
  \\      /  F ield         | OpenFOAM: The Open Source CFD Toolbox
   \\    /   O peration     | Website:  https://openfoam.org
    \\  /    A nd           | Version:  7
     \\/     M anipulation  |
\*---------------------------------------------------------------------------*/
FoamFile
{
    version     2.0;
    format      ascii;
    class       volScalarField;
    location    "10";
    object      p;
}
// * * * * * * * * * * * * * * * * * * * * * * * * * * * * * * * * * * * * * //

dimensions      [0 2 -2 0 0 0 0];

internalField   nonuniform List<scalar> 
18750
(
-83.7432
-81.1738
-83.7427
-83.74
-77.0998
-81.1002
-83.5372
-83.8043
-83.8488
-86.1894
-79.6202
-76.8214
-70.7077
-81.0954
-83.7581
-86.0807
-83.8714
-84.1238
-86.1566
-85.9316
-78.8337
-78.8623
-79.8529
-76.9099
-75.3314
-84.0013
-81.1847
-84.0322
-86.1018
-85.0468
-83.95
-84.5585
-86.1406
-85.9134
-86.1361
-77.2571
-78.076
-79.1369
-78.4121
-79.5051
-82.0219
-77.4703
-78.4325
-83.897
-82.5144
-81.3884
-84.274
-86.056
-85.0059
-85.0489
-84.0651
-85.0737
-86.1453
-85.9375
-86.1018
-86.6778
-75.2446
-77.1242
-77.6605
-77.7254
-79.1006
-79.9851
-78.3813
-79.5471
-81.7309
-83.0316
-78.2525
-80.0635
-83.9295
-82.5454
-82.3522
-81.6393
-84.4605
-85.9288
-84.9413
-84.9443
-85.8489
-84.1984
-85.5541
-86.1817
-85.9687
-86.0504
-86.646
-87.6397
-74.1843
-75.3554
-75.5025
-77.0585
-77.5742
-78.7632
-77.3763
-78.936
-80.0216
-81.2009
-78.4695
-79.8473
-81.3949
-82.6715
-83.366
-79.0232
-81.6806
-84.0806
-82.5663
-82.4003
-83.602
-81.8894
-84.7525
-85.8125
-84.8715
-84.9128
-85.8404
-86.2906
-84.3456
-85.9339
-86.245
-85.9598
-85.9911
-86.6167
-87.6327
-88.0596
-73.4951
-74.2257
-74.6899
-75.5096
-75.3475
-76.5332
-76.9769
-77.2431
-79.0113
-79.6626
-77.3034
-79.4332
-79.8997
-80.9769
-82.6168
-78.8974
-80.2137
-81.4166
-82.4875
-82.9146
-83.7897
-79.7794
-82.6688
-84.1844
-82.6733
-82.482
-83.5333
-84.1712
-82.1254
-85.0776
-85.7379
-84.8435
-84.9045
-85.8228
-86.3173
-86.7954
-84.5008
-86.1896
-86.3259
-85.9126
-85.935
-86.6058
-87.566
-88.0847
-88.6366
-72.2669
-73.4425
-73.6626
-74.3242
-74.5577
-75.2138
-75.5813
-75.3142
-76.4535
-77.3359
-77.0057
-77.3512
-78.9373
-79.513
-80.0416
-77.7957
-79.9007
-80.0628
-80.7327
-82.3121
-83.2208
-79.5859
-80.4975
-81.6378
-82.33
-82.5487
-83.6593
-82.8187
-80.4803
-83.0095
-84.2039
-82.7804
-82.4228
-83.6349
-84.2817
-85.2581
-82.3212
-85.279
-85.6111
-84.8606
-84.9151
-85.8491
-86.3435
-86.8446
-87.4496
-84.6546
-86.3366
-86.4139
-85.861
-85.8942
-86.5855
-87.5039
-88.1008
-88.6231
-89.0421
-71.6742
-72.3524
-72.3804
-73.3708
-73.595
-73.7789
-74.4558
-74.4631
-75.0879
-75.5719
-75.6245
-75.3268
-76.6191
-76.9428
-77.7268
-77.0275
-77.6174
-78.8163
-79.5077
-80.015
-81.2178
-78.3603
-80.0765
-80.283
-80.4641
-81.8978
-82.7878
-83.7667
-80.3865
-80.7556
-81.7311
-82.0898
-82.3257
-83.4207
-82.9941
-82.6358
-81.0488
-83.3249
-84.1989
-82.9017
-82.4972
-83.7333
-84.3424
-85.3178
-85.9955
-82.4777
-85.2477
-85.5361
-84.9196
-84.9206
-85.8522
-86.3913
-86.9021
-87.5198
-88.1959
-84.7975
-86.419
-86.4619
-85.8321
-85.8705
-86.5362
-87.4719
-88.1188
-88.6037
-89.0804
-89.6618
-71.0552
-71.5707
-71.7247
-72.2462
-72.4336
-72.5486
-73.3821
-73.6231
-74.0425
-74.0975
-74.3544
-74.6037
-75.105
-75.5126
-76.3173
-75.5086
-75.3533
-76.7533
-76.8893
-78.0218
-78.2845
-77.0374
-77.7382
-78.6006
-79.4222
-80.0013
-81.2686
-82.1604
-78.9978
-80.022
-80.1156
-80.2929
-81.2487
-82.1658
-83.686
-82.4424
-80.9988
-81.0141
-81.7434
-81.9465
-82.2545
-83.3337
-83.1166
-82.6562
-83.3979
-81.3808
-83.7583
-84.2337
-82.9788
-82.7031
-83.7704
-84.2684
-85.3913
-86.123
-86.6623
-82.6107
-85.163
-85.5612
-84.8078
-84.9097
-85.8465
-86.4497
-86.9781
-87.5956
-88.3084
-88.9928
-84.9225
-86.4527
-86.4341
-85.826
-85.8545
-86.492
-87.4512
-88.1155
-88.6362
-89.1178
-89.6835
-89.8244
-70.8181
-71.0788
-71.1164
-71.1244
-71.6349
-71.7169
-71.8354
-72.4042
-72.4445
-72.6436
-72.9359
-73.4845
-73.6006
-73.9929
-74.1054
-74.543
-74.3638
-74.7279
-74.9528
-75.465
-76.0706
-76.3672
-75.5936
-75.521
-76.8854
-77.0814
-77.8111
-78.1255
-78.6173
-77.0786
-77.93
-78.6686
-79.178
-79.7955
-81.2442
-82.2278
-81.4508
-79.6807
-80.0445
-79.8172
-80.0539
-80.5928
-82.047
-83.3398
-82.5786
-82.6586
-81.3952
-81.2918
-81.8383
-81.9436
-82.3297
-83.1779
-83.214
-82.7657
-83.392
-84.2671
-81.6476
-84.0374
-84.271
-83.0654
-82.879
-83.856
-84.3528
-85.5337
-86.2509
-86.8663
-87.3698
-82.7438
-85.1406
-85.5696
-84.5868
-84.9384
-85.9026
-86.5137
-87.089
-87.6774
-88.4255
-89.0496
-89.431
-85.0267
-86.4451
-86.3852
-85.8379
-85.854
-86.5319
-87.5012
-88.1066
-88.6813
-89.1611
-89.7068
-89.8258
-89.8718
-70.4918
-70.8968
-70.7965
-70.7339
-71.2233
-71.1756
-71.2268
-71.1852
-71.7896
-71.7605
-71.9243
-71.9357
-72.5761
-72.3465
-72.5967
-72.9634
-73.026
-73.4814
-73.6036
-73.9799
-74.1463
-74.4789
-74.6863
-74.4602
-74.7988
-75.0823
-75.52
-75.988
-76.2862
-76.4062
-75.5027
-75.6478
-77.2046
-77.1524
-77.8492
-78.0794
-78.5741
-79.1089
-77.4785
-78.1408
-78.5446
-79.1311
-79.7718
-81.3911
-81.8583
-81.8524
-81.6309
-80.2693
-80.2074
-79.7639
-79.9898
-80.4288
-82.166
-82.8921
-82.9061
-82.8031
-82.7345
-81.7384
-81.6084
-81.9649
-81.9634
-82.4692
-82.9345
-83.2699
-82.9443
-83.4581
-84.468
-84.8632
-81.9741
-84.0983
-84.3068
-83.2881
-82.8872
-84.0438
-84.4843
-85.6754
-86.4255
-87.0288
-87.5324
-88.3747
-82.8828
-85.1164
-85.5849
-84.6425
-85.0569
-86.0045
-86.5917
-87.2281
-87.7999
-88.5425
-89.1588
-89.4667
-89.3211
-85.1144
-86.4258
-86.3488
-85.8764
-85.8674
-86.6105
-87.5373
-88.1476
-88.7192
-89.2028
-89.7306
-89.8318
-89.8785
-90.1604
-69.934
-70.4015
-70.4524
-70.43
-70.8222
-70.8399
-70.8095
-70.7865
-71.2199
-71.2239
-71.2433
-71.3628
-71.2217
-71.7382
-71.8441
-71.9257
-71.9982
-72.0684
-72.4967
-72.4426
-72.809
-73.0502
-73.0635
-73.2064
-73.5346
-73.5825
-74.1595
-74.2465
-74.4305
-74.5986
-74.8835
-74.5402
-74.7786
-75.0538
-75.5336
-76.0406
-76.1203
-76.4669
-76.587
-75.6145
-76.0078
-77.3377
-77.3383
-77.827
-78.0717
-78.6966
-78.9666
-79.2131
-77.4032
-78.2696
-78.5762
-79.3596
-79.7954
-81.2776
-81.6225
-81.8789
-81.6475
-81.9255
-80.7313
-80.581
-80.0712
-80.2198
-80.6413
-82.0557
-82.7117
-83.173
-82.9784
-82.7927
-82.6885
-82.028
-81.8822
-82.0607
-81.99
-82.555
-82.8883
-83.3186
-83.1471
-83.5633
-84.5067
-84.8709
-85.622
-82.2732
-84.0869
-84.3284
-83.353
-83.0548
-84.0849
-84.5839
-85.8017
-86.6053
-87.2337
-87.7741
-88.5558
-88.6447
-83.0102
-85.0465
-85.664
-84.7137
-85.1407
-86.0913
-86.7016
-87.3744
-87.9297
-88.6855
-89.2805
-89.5151
-89.3813
-89.3688
-85.1895
-86.4219
-86.2912
-85.8706
-85.8874
-86.711
-87.5307
-88.2266
-88.7512
-89.2404
-89.7578
-89.8428
-89.8864
-90.1595
-90.3967
-69.7708
-69.991
-70.028
-69.9371
-70.4005
-70.4136
-70.4588
-70.4922
-70.7597
-70.8336
-70.86
-70.9135
-70.8388
-71.2452
-71.1929
-71.2573
-71.3768
-71.3897
-71.2858
-71.7492
-72.0078
-71.9041
-72.0095
-72.0957
-72.2242
-72.4205
-72.4629
-72.8467
-73.0752
-73.096
-73.1834
-73.498
-73.679
-73.6651
-74.0481
-74.2536
-74.4288
-74.6033
-74.6823
-74.9308
-74.5151
-75.0162
-75.1658
-75.4242
-75.7675
-76.1804
-76.3234
-76.4113
-76.9936
-75.6993
-76.4786
-77.3298
-77.5958
-77.7456
-78.2287
-78.5362
-78.7662
-79.132
-79.7124
-77.4295
-78.6441
-78.9833
-79.6888
-80.0509
-81.0635
-81.5832
-81.8619
-81.9978
-81.9088
-82.021
-80.6192
-80.9627
-80.235
-80.4472
-80.7532
-81.7373
-82.8002
-83.3402
-82.9956
-82.771
-82.6953
-82.7501
-82.1851
-82.2119
-82.0145
-82.0168
-82.5074
-83.2244
-83.312
-83.2782
-83.8174
-84.5786
-84.9861
-85.7829
-86.2515
-82.4787
-84.115
-84.2459
-83.2175
-83.4118
-84.1434
-84.6735
-85.9009
-86.7194
-87.4672
-88.0531
-88.7456
-88.8106
-88.4996
-83.1179
-84.9052
-85.6044
-84.7265
-85.246
-86.1659
-86.8274
-87.5433
-88.0464
-88.8397
-89.4177
-89.5769
-89.4006
-89.3844
-89.3156
-85.255
-86.4323
-86.2294
-85.7994
-85.9186
-86.8407
-87.5357
-88.2842
-88.8047
-89.2922
-89.7891
-89.8565
-89.8945
-90.162
-90.3832
-90.0704
-69.4105
-69.7196
-69.7679
-69.7658
-70.0408
-70.0485
-69.9953
-70.0348
-69.9743
-70.4275
-70.438
-70.3947
-70.4624
-70.4466
-70.7565
-70.7871
-70.8553
-70.8722
-70.9316
-70.8649
-71.2735
-71.1466
-71.2441
-71.2907
-71.4556
-71.4713
-71.3483
-71.7713
-71.9429
-71.9006
-72.0893
-72.1498
-72.2505
-72.3145
-72.3488
-72.4232
-72.8996
-73.1085
-73.1411
-73.2539
-73.5556
-73.6003
-73.579
-73.9178
-73.9636
-74.3053
-74.5229
-74.8089
-74.7361
-74.9201
-75.1947
-74.4756
-75.283
-75.1954
-75.3549
-75.8138
-76.1466
-76.1434
-76.6784
-76.8976
-77.2937
-75.7235
-76.7417
-77.2606
-77.5911
-77.599
-78.0559
-78.4377
-78.7896
-79.2904
-79.7525
-79.7546
-77.3868
-78.7414
-79.2898
-79.9819
-80.1052
-80.9238
-81.4185
-81.7594
-81.9682
-81.8439
-82.1131
-82.335
-80.3783
-81.2263
-80.2412
-80.591
-80.9118
-81.5713
-82.7199
-83.264
-82.9605
-82.8792
-82.6125
-82.7967
-83.7512
-82.3036
-82.4661
-81.9827
-82.0652
-82.6319
-83.2325
-83.3315
-83.4392
-84.0923
-85.0091
-85.1388
-86.0462
-86.4151
-86.2892
-82.6156
-84.1299
-84.0981
-83.3155
-83.3933
-84.2784
-84.7746
-85.9688
-86.9093
-87.6149
-88.328
-88.9215
-88.9104
-88.668
-88.1848
-83.2064
-84.725
-85.4316
-84.8018
-85.3496
-86.2516
-86.9635
-87.6714
-88.2291
-88.9962
-89.5278
-89.6351
-89.4246
-89.3796
-89.3735
-89.1747
-85.3421
-86.4453
-86.1915
-85.7748
-85.9654
-86.9521
-87.6309
-88.3502
-88.9002
-89.3595
-89.8197
-89.871
-89.9031
-90.1695
-90.3722
-90.0671
-90.0553
-69.191
-69.4395
-69.4343
-69.4716
-69.7045
-69.7366
-69.6738
-69.8021
-69.7874
-70.056
-70.0634
-70.0374
-70.016
-70.0199
-70.0498
-70.4449
-70.4212
-70.4387
-70.3718
-70.4936
-70.4391
-70.7669
-70.7662
-70.8281
-70.9197
-70.8765
-71.0006
-70.8808
-71.283
-71.099
-71.2705
-71.3768
-71.4015
-71.5397
-71.5656
-71.4584
-71.9436
-71.9179
-71.9208
-72.2137
-72.0784
-72.3036
-72.3205
-72.5681
-72.3165
-72.4011
-72.9456
-73.1508
-73.1204
-73.2932
-73.4184
-73.6632
-73.7504
-73.5432
-73.9052
-74.0479
-74.3431
-74.4271
-74.5637
-74.7201
-74.8966
-75.1341
-75.4347
-74.4946
-75.2094
-75.4402
-75.3332
-75.7489
-75.8567
-76.3571
-76.6169
-76.8765
-77.4274
-77.6364
-75.7237
-76.6515
-77.513
-77.4863
-77.5227
-77.8906
-78.2359
-78.6259
-79.5502
-79.8124
-79.6478
-80.164
-77.2497
-78.6158
-79.1569
-79.6764
-79.9988
-80.6032
-81.0415
-81.7933
-81.7704
-81.7723
-82.0221
-82.3021
-82.4558
-80.447
-81.6638
-80.7964
-80.7498
-81.0591
-81.6588
-82.6651
-83.3098
-83.199
-82.82
-82.6486
-82.8239
-83.6652
-84.0154
-82.3325
-82.5554
-82.0071
-82.1401
-82.6318
-82.8394
-83.5553
-83.5615
-84.0527
-85.3143
-85.3348
-86.2387
-86.5155
-86.3558
-86.1716
-82.6989
-84.1063
-84.0637
-83.4124
-83.623
-84.4804
-84.8609
-86.072
-87.0711
-87.8512
-88.6068
-89.1391
-88.9849
-88.7674
-88.2759
-87.8009
-83.2728
-84.5705
-85.2247
-84.7847
-85.4224
-86.3581
-87.1318
-87.8061
-88.5032
-89.1596
-89.6205
-89.6857
-89.4503
-89.3922
-89.454
-89.268
-88.8398
-85.4619
-86.453
-86.1727
-85.8177
-86.0284
-87.0294
-87.7356
-88.4529
-88.9834
-89.4272
-89.8506
-89.886
-89.9129
-90.1761
-90.355
-90.0728
-90.0798
-89.43
-69.1062
-69.2662
-69.2615
-69.2161
-69.4685
-69.4648
-69.5226
-69.4655
-69.4743
-69.7044
-69.7605
-69.7803
-69.7208
-69.7176
-69.8014
-70.0616
-70.071
-70.1012
-70.0325
-70.0992
-70.0596
-70.0626
-70.4181
-70.4579
-70.4163
-70.4793
-70.4479
-70.5559
-70.4862
-70.7421
-70.7874
-70.8041
-70.9323
-70.8965
-71.0343
-71.0025
-70.9839
-71.273
-71.0767
-71.2837
-71.2691
-71.3932
-71.5403
-71.5326
-71.6849
-71.5965
-72.0772
-71.9598
-71.9611
-71.9608
-72.0678
-72.2835
-72.3087
-72.5754
-72.7028
-72.5241
-72.5142
-72.9196
-73.0477
-73.0169
-73.2223
-73.3591
-73.6678
-73.812
-73.8891
-73.5515
-73.7541
-73.9458
-74.2825
-74.1501
-74.328
-74.8077
-74.9241
-75.2
-75.517
-75.8222
-74.6735
-74.9664
-75.6299
-75.3766
-75.6738
-75.8287
-76.1643
-76.6029
-77.0182
-77.3749
-77.648
-77.8138
-76.2085
-77.0436
-77.4578
-77.5422
-77.6315
-77.8441
-78.2885
-78.739
-79.425
-79.6055
-79.7087
-80.2105
-80.6641
-77.3195
-79.1953
-79.0839
-79.4361
-80.3628
-80.6608
-81.0458
-81.5917
-81.7543
-81.8712
-82.0566
-82.4466
-82.4638
-82.6464
-80.4264
-82.1519
-81.2716
-81.1386
-81.5792
-81.7394
-82.6924
-83.2953
-83.2541
-82.7874
-82.7244
-82.811
-83.5928
-83.8677
-83.8627
-82.2855
-82.5015
-82.0328
-82.2181
-82.2892
-82.7397
-83.6578
-83.707
-84.211
-85.1019
-85.2138
-86.2458
-86.55
-86.5685
-86.1402
-85.6905
-82.7469
-84.0365
-84.2009
-83.4751
-83.8452
-84.5718
-84.9609
-86.1581
-87.1849
-88.0626
-88.8401
-89.1777
-89.0144
-88.7337
-88.3443
-87.9923
-87.1813
-83.3204
-84.445
-85.0228
-84.7954
-85.5289
-86.4965
-87.2821
-87.9731
-88.7991
-89.3271
-89.6856
-89.71
-89.4759
-89.4101
-89.5221
-89.345
-88.9313
-89.0051
-85.5629
-86.4514
-86.161
-85.8848
-86.107
-87.0983
-87.8545
-88.5349
-89.0507
-89.4983
-89.8838
-89.9006
-89.9256
-90.1853
-90.3447
-90.1047
-90.0858
-89.4778
-89.3109
-68.9887
-69.1194
-69.1387
-69.1086
-69.2635
-69.2854
-69.3299
-69.2445
-69.2342
-69.4642
-69.5088
-69.5274
-69.4849
-69.4942
-69.5169
-69.7106
-69.7397
-69.7847
-69.76
-69.7454
-69.7759
-69.7764
-70.0667
-70.0411
-70.0518
-70.0925
-70.1287
-70.1697
-70.1256
-70.0078
-70.3804
-70.4203
-70.443
-70.473
-70.4614
-70.5648
-70.6012
-70.5196
-70.7041
-70.8137
-70.8505
-70.8314
-70.9557
-71.0388
-71.049
-71.0799
-71.0383
-71.2296
-71.105
-71.3037
-71.1971
-71.3901
-71.5214
-71.6823
-71.6616
-71.6823
-71.676
-71.9056
-72.018
-71.9157
-71.9289
-72.0629
-72.2221
-72.4506
-72.5597
-72.6764
-72.6724
-72.5202
-72.5601
-72.8798
-72.9628
-72.9664
-73.079
-73.4095
-73.6009
-73.8713
-73.9935
-74.0176
-73.5185
-73.8189
-73.7414
-73.9648
-74.0497
-74.2534
-74.3614
-74.867
-75.1927
-75.2257
-75.604
-76.1258
-74.7897
-74.8321
-75.4924
-75.4438
-75.4189
-75.7206
-76.1626
-76.4793
-76.9744
-77.2619
-77.7012
-77.9452
-78.2225
-76.35
-77.1926
-77.0725
-77.6184
-77.8644
-78.1249
-78.4297
-78.7183
-79.2511
-79.5882
-79.8558
-80.3241
-80.6261
-81.1165
-77.028
-79.899
-79.805
-80.4639
-81.0228
-81.172
-81.2915
-81.4525
-81.6026
-81.9081
-81.9041
-82.5716
-82.6933
-82.7202
-82.7332
-80.2288
-82.2732
-81.8304
-81.5622
-81.8349
-81.8256
-82.6103
-83.2494
-83.3534
-82.8129
-82.6986
-82.7001
-83.5111
-83.7236
-83.8081
-83.5756
-82.1222
-82.3417
-82.0951
-82.2481
-82.5324
-83.2816
-83.6035
-83.8283
-84.381
-85.1183
-85.2377
-86.2587
-86.5961
-86.5741
-86.1706
-85.8333
-85.3906
-82.789
-83.9323
-84.2492
-83.554
-83.8737
-84.5384
-85.1176
-86.2587
-87.3238
-88.2502
-88.9528
-89.2309
-88.9867
-88.7393
-88.4741
-88.1479
-87.3477
-87.4962
-83.3936
-84.3673
-84.9813
-84.9648
-85.6467
-86.6043
-87.3802
-88.1165
-89.01
-89.4625
-89.7139
-89.7263
-89.5004
-89.4358
-89.5864
-89.4136
-89.0296
-89.0641
-88.9132
-85.6592
-86.4363
-86.1457
-85.942
-86.1991
-87.1713
-87.9848
-88.5865
-89.1278
-89.5706
-89.916
-89.9134
-89.9398
-90.1994
-90.3604
-90.1447
-90.0862
-89.5321
-89.3565
-88.9238
-68.8739
-68.9855
-69.0221
-68.9815
-69.1195
-69.1515
-69.1501
-69.1523
-69.1219
-69.2761
-69.2968
-69.329
-69.332
-69.324
-69.2575
-69.461
-69.5012
-69.5457
-69.5089
-69.5407
-69.5161
-69.5014
-69.7115
-69.703
-69.7989
-69.8057
-69.7679
-69.8309
-69.757
-69.7245
-70.0756
-70.0544
-70.0174
-70.0882
-70.0995
-70.1524
-70.2092
-70.1487
-70.0613
-70.2699
-70.42
-70.4554
-70.442
-70.4598
-70.5477
-70.587
-70.6364
-70.5978
-70.6341
-70.8362
-70.8408
-70.9407
-70.9446
-71.0307
-71.0631
-71.0779
-71.0759
-71.1205
-71.2126
-71.1532
-71.2699
-71.3637
-71.3578
-71.465
-71.6643
-71.6111
-71.719
-71.7864
-71.7296
-71.7994
-72.0551
-71.822
-71.9576
-71.9698
-72.1033
-72.2142
-72.5466
-72.6386
-72.6094
-72.5554
-72.4393
-72.8164
-72.6856
-72.5884
-72.8722
-72.9863
-73.3089
-73.531
-73.8014
-73.8987
-74.1087
-74.3708
-73.461
-74.1445
-73.4537
-73.6736
-73.8584
-74.0487
-74.3174
-74.7944
-75.0101
-75.3155
-75.6368
-75.7872
-76.3194
-74.6891
-74.7839
-75.4029
-75.6018
-75.4288
-75.6151
-76.2282
-76.464
-76.8179
-77.3714
-77.7531
-77.8283
-78.3396
-78.5376
-76.3044
-77.3824
-77.2952
-77.8881
-78.2227
-78.4023
-78.5415
-78.842
-79.1411
-79.7083
-79.9687
-80.5273
-80.5903
-80.964
-80.9676
-76.9727
-80.1153
-80.4015
-81.1697
-81.2187
-81.4568
-81.6296
-81.6083
-81.6001
-81.7843
-81.8559
-82.6357
-82.6462
-82.6194
-82.6512
-82.4797
-80.0698
-82.3981
-82.1263
-81.6488
-81.6203
-81.6597
-82.5494
-83.102
-83.3345
-82.8767
-82.7286
-82.7225
-83.3536
-83.7513
-83.6337
-83.3397
-83.254
-81.8468
-82.1291
-82.0792
-82.2105
-82.659
-83.3943
-83.6342
-83.9096
-84.4987
-85.1891
-85.363
-86.3235
-86.5099
-86.4453
-86.2188
-86.0765
-85.5916
-85.353
-82.8481
-83.8538
-84.1999
-83.6807
-84.0643
-84.63
-85.3005
-86.4041
-87.4852
-88.4116
-89.0252
-89.238
-88.9514
-88.7368
-88.4657
-88.2388
-87.5122
-87.5595
-87.333
-83.4923
-84.3557
-85.0186
-85.0558
-85.766
-86.6719
-87.4738
-88.2459
-89.1485
-89.5528
-89.7538
-89.742
-89.5201
-89.4596
-89.6442
-89.4859
-89.1675
-89.1415
-89.0364
-88.4851
-85.7802
-86.4125
-86.1172
-85.9916
-86.3017
-87.2536
-88.0503
-88.6372
-89.2195
-89.635
-89.9448
-89.9278
-89.9523
-90.2129
-90.3885
-90.195
-90.1047
-89.595
-89.4046
-88.9473
-88.2003
-68.7241
-68.8699
-68.8729
-68.8963
-68.9842
-69.0177
-69.0125
-68.9903
-68.9861
-69.1093
-69.1429
-69.1396
-69.1498
-69.1725
-69.1463
-69.2409
-69.2852
-69.3114
-69.3591
-69.3203
-69.3339
-69.2855
-69.4417
-69.497
-69.4353
-69.5712
-69.4756
-69.5962
-69.5716
-69.5063
-69.7215
-69.7583
-69.6162
-69.8139
-69.7386
-69.8424
-69.8424
-69.8439
-69.7643
-70.1008
-70.0929
-70.0961
-70.1027
-70.1006
-70.1669
-70.1654
-70.214
-70.2279
-70.0747
-70.326
-70.3013
-70.4102
-70.4426
-70.5114
-70.5655
-70.5898
-70.646
-70.6153
-70.6195
-70.6574
-70.763
-70.7374
-70.9345
-70.9402
-71.0133
-71.0615
-71.0863
-71.1024
-71.1414
-71.0998
-71.2721
-71.2457
-71.1792
-71.3489
-71.3054
-71.4295
-71.5503
-71.7215
-71.7172
-71.8057
-71.9186
-71.8212
-71.856
-72.1437
-71.7012
-71.8527
-71.925
-72.0122
-72.389
-72.46
-72.5294
-72.8398
-73.0356
-72.8514
-72.3051
-72.7561
-72.5492
-72.5082
-72.7386
-72.876
-73.1796
-73.5561
-73.7746
-73.8979
-74.0975
-74.2168
-74.3547
-73.3286
-74.1999
-73.472
-73.7447
-73.3893
-73.8994
-74.4317
-74.7409
-74.8591
-75.4079
-75.9074
-75.98
-76.4605
-76.2538
-74.6299
-74.7311
-75.2073
-75.4644
-75.6499
-75.6228
-75.9403
-76.3697
-76.923
-77.3127
-77.6149
-77.7197
-78.4472
-78.5075
-78.5263
-76.3964
-77.5233
-77.8907
-78.279
-78.3721
-78.64
-78.7415
-78.9334
-79.3074
-79.6309
-80.0097
-80.5514
-80.5519
-80.7674
-80.7962
-80.8697
-77.0945
-80.2169
-80.7578
-81.1809
-81.3533
-81.56
-81.7269
-81.7754
-81.6551
-81.772
-81.816
-82.3971
-82.6298
-82.3798
-82.3659
-82.2103
-82.1779
-79.8706
-82.3683
-82.0656
-81.7245
-81.6669
-81.9043
-82.4093
-82.9344
-83.2225
-82.8091
-82.7429
-82.6908
-83.2489
-83.6752
-83.5141
-83.2289
-83.1444
-82.8302
-81.678
-82.0501
-82.0628
-82.2686
-82.4592
-82.9315
-83.7251
-83.9721
-84.6327
-85.2594
-85.4734
-86.3673
-86.5376
-86.428
-86.1219
-86.1283
-85.7574
-85.5082
-85.7054
-82.8722
-83.7553
-84.132
-83.8686
-84.2496
-84.8891
-85.4789
-86.5628
-87.6522
-88.5611
-89.0846
-89.2357
-88.9373
-88.7085
-88.4927
-88.3223
-87.711
-87.6077
-87.3606
-87.2088
-83.6042
-84.398
-84.9813
-85.0443
-85.9305
-86.7453
-87.5779
-88.3666
-89.2426
-89.6265
-89.8049
-89.7586
-89.538
-89.4842
-89.6928
-89.5904
-89.3245
-89.2421
-89.1578
-88.5511
-88.007
-85.9152
-86.4033
-86.0843
-86.0418
-86.4327
-87.3404
-88.0812
-88.6972
-89.3124
-89.692
-89.9719
-89.9457
-89.9648
-90.2299
-90.4144
-90.2573
-90.1279
-89.6633
-89.4626
-88.9606
-88.2445
-87.4017
-68.6116
-68.7478
-68.7289
-68.7118
-68.8548
-68.869
-68.8966
-68.8923
-68.8875
-68.9789
-68.9991
-69.0371
-69.025
-69.0093
-68.9973
-69.0701
-69.1099
-69.1531
-69.178
-69.0996
-69.2071
-69.2012
-69.2554
-69.2935
-69.2265
-69.3654
-69.3346
-69.3821
-69.4038
-69.3372
-69.5042
-69.4736
-69.4293
-69.5775
-69.5176
-69.5843
-69.5897
-69.5978
-69.5364
-69.7452
-69.7062
-69.7998
-69.7889
-69.7878
-69.8385
-69.8576
-69.9098
-69.8602
-69.8408
-70.0821
-70.0611
-70.15
-70.1526
-70.0992
-70.1865
-70.2083
-70.2203
-70.2737
-70.2172
-70.1711
-70.3347
-70.2627
-70.3563
-70.4785
-70.4634
-70.5539
-70.5286
-70.6012
-70.65
-70.7467
-70.6683
-70.6513
-70.7412
-70.6942
-70.9419
-70.9194
-70.9682
-71.0381
-71.0602
-71.0945
-71.1679
-71.3192
-71.2632
-71.266
-71.263
-71.1589
-71.2885
-71.2349
-71.4084
-71.5288
-71.6752
-71.6582
-71.7663
-71.9802
-72.0581
-71.9315
-71.8823
-71.9506
-71.6392
-71.718
-71.7285
-71.928
-72.2876
-72.2834
-72.4249
-72.7773
-72.9935
-73.1093
-73.0047
-72.2058
-72.4932
-72.4697
-72.4431
-72.4973
-72.7572
-73.0707
-73.4578
-73.7176
-73.7828
-73.8121
-74.1971
-74.3083
-74.4174
-73.2136
-74.089
-73.4418
-73.833
-73.3893
-73.7641
-74.2919
-74.8625
-74.8362
-75.4
-75.9487
-76.1453
-76.4467
-76.3276
-76.3739
-74.77
-74.4517
-75.1419
-75.3844
-75.6859
-75.7979
-75.8411
-76.3235
-76.7208
-77.1126
-77.6242
-77.3733
-77.8531
-78.3503
-78.3103
-78.5482
-76.6145
-77.2995
-78.0036
-78.4722
-78.6579
-78.8064
-78.8993
-79.0334
-79.37
-79.6934
-80.0617
-80.4787
-80.4886
-80.6117
-80.6165
-80.6437
-80.4689
-77.2474
-80.0214
-80.6316
-81.2024
-81.3065
-81.6073
-81.5638
-81.8288
-81.777
-81.7015
-81.8613
-82.2891
-82.5395
-82.2847
-82.0594
-81.925
-81.7143
-80.9402
-79.7657
-82.4012
-81.9039
-81.6526
-81.6288
-81.7936
-82.3236
-82.968
-83.0368
-82.8925
-82.7146
-82.6781
-83.2129
-83.4879
-83.5827
-83.3275
-83.1467
-82.8949
-83.0163
-81.8303
-82.2148
-82.0861
-82.2681
-82.5158
-83.078
-83.8606
-84.0239
-84.7381
-85.2109
-85.506
-86.3195
-86.5351
-86.3776
-86.0887
-86.0407
-85.656
-85.615
-85.899
-86.459
-82.8784
-83.6759
-84.0532
-83.9628
-84.4474
-85.1264
-85.6598
-86.7346
-87.7697
-88.7263
-89.1771
-89.2554
-88.8954
-88.6676
-88.5181
-88.4957
-87.8828
-87.6896
-87.3892
-87.3701
-86.9629
-83.7395
-84.4345
-84.9153
-85.1244
-86.0906
-86.8488
-87.6637
-88.4661
-89.326
-89.6733
-89.8301
-89.782
-89.5608
-89.5111
-89.7369
-89.6802
-89.4649
-89.3695
-89.2469
-88.585
-88.0879
-87.5282
-86.0666
-86.4208
-86.049
-86.0957
-86.5789
-87.4216
-88.1274
-88.7606
-89.4031
-89.7418
-89.9968
-89.9636
-89.9784
-90.2508
-90.4419
-90.317
-90.1575
-89.7346
-89.5377
-88.9715
-88.2847
-87.4247
-86.9721
-68.515
-68.6036
-68.6034
-68.605
-68.7503
-68.7447
-68.7551
-68.722
-68.7115
-68.8427
-68.848
-68.8712
-68.9074
-68.8766
-68.8976
-68.9677
-68.9508
-69.0328
-69.0417
-68.9817
-69.0448
-68.9994
-69.0931
-69.1109
-69.1276
-69.1871
-69.2226
-69.2226
-69.3698
-69.223
-69.2803
-69.2822
-69.3951
-69.3345
-69.3608
-69.4049
-69.4236
-69.3795
-69.3659
-69.4748
-69.5011
-69.5923
-69.5163
-69.5549
-69.6093
-69.6095
-69.6835
-69.6066
-69.6063
-69.7536
-69.7463
-69.7421
-69.7383
-69.778
-69.8376
-69.8458
-69.89
-69.9486
-69.8838
-69.8922
-70.0654
-70.175
-70.0575
-70.0834
-70.0697
-70.1396
-70.1632
-70.2066
-70.3198
-70.3834
-70.2863
-70.2548
-70.3002
-70.3264
-70.3956
-70.4363
-70.4491
-70.4675
-70.5523
-70.5976
-70.589
-70.7574
-70.896
-70.703
-70.6285
-70.7172
-70.7287
-70.7394
-70.8466
-70.9032
-71.0064
-71.0368
-71.0686
-71.1281
-71.2559
-71.522
-71.3719
-71.2308
-71.3163
-71.1535
-71.0503
-71.1591
-71.3821
-71.4321
-71.5669
-71.6521
-71.8217
-71.8928
-72.0158
-72.1976
-72.0591
-71.9249
-71.9659
-71.5854
-71.7292
-71.6149
-71.8807
-72.0925
-72.2705
-72.3171
-72.6158
-72.911
-73.0577
-73.1261
-73.201
-72.2556
-72.5282
-72.4
-72.36
-72.3418
-72.5951
-73.0184
-73.1681
-73.4698
-73.7888
-74.3243
-74.0647
-74.0171
-74.4038
-74.5794
-73.2535
-73.9946
-73.4418
-73.6657
-73.6921
-73.7553
-74.222
-74.5116
-74.7904
-75.3707
-75.8088
-75.9787
-76.3119
-76.347
-76.2521
-76.3724
-74.9062
-74.35
-75.1447
-75.3564
-75.4448
-75.8077
-76.0423
-76.3297
-76.804
-77.0591
-77.7183
-77.9746
-77.7689
-78.1487
-78.1829
-78.0815
-78.1243
-76.9333
-77.5027
-77.2677
-78.3682
-78.5219
-78.7491
-78.587
-79.0846
-79.314
-79.8484
-80.028
-80.5069
-80.4956
-80.4248
-80.3443
-80.2298
-80.0989
-79.9995
-77.5537
-80.2378
-80.2428
-80.8308
-81.3548
-81.4113
-81.4691
-81.8204
-81.8238
-81.5643
-81.8086
-82.2182
-82.3946
-82.2109
-81.8724
-81.6977
-81.319
-81.3009
-80.8561
-80.0363
-82.661
-81.9133
-81.5941
-81.6662
-81.6559
-82.259
-82.5894
-82.9514
-82.8993
-82.8004
-82.7531
-83.0493
-83.301
-83.4475
-83.3447
-82.9996
-83.1005
-83.219
-83.8498
-82.0313
-82.4979
-82.1594
-82.1448
-82.625
-83.4059
-83.7209
-84.0874
-84.8101
-85.2512
-85.6145
-86.3103
-86.4627
-86.3374
-86.1548
-86.0521
-85.8251
-85.8268
-86.1471
-86.7116
-86.8724
-82.9266
-83.6048
-83.9965
-84.0886
-84.7113
-85.2161
-85.8341
-86.9165
-87.8862
-88.745
-89.2189
-89.2379
-88.9394
-88.6372
-88.5068
-88.6331
-88.0457
-87.7929
-87.4839
-87.4259
-86.9136
-86.9822
-83.9178
-84.474
-84.9048
-85.2596
-86.2354
-86.947
-87.6865
-88.5007
-89.3954
-89.6921
-89.8451
-89.8093
-89.5917
-89.5403
-89.7758
-89.7797
-89.6116
-89.5073
-89.3901
-88.6439
-88.1894
-87.5668
-87.3524
-86.2354
-86.4397
-85.9994
-86.155
-86.7388
-87.5073
-88.1906
-88.8359
-89.4911
-89.7862
-90.0197
-89.9806
-89.9925
-90.2716
-90.4861
-90.3767
-90.2137
-89.8085
-89.6166
-88.9935
-88.3205
-87.4448
-86.984
-86.7695
-68.4174
-68.5251
-68.5068
-68.5358
-68.6049
-68.5897
-68.6501
-68.61
-68.5994
-68.7242
-68.7561
-68.74
-68.7402
-68.7521
-68.7238
-68.8463
-68.8503
-68.8863
-68.9036
-69.0163
-68.9175
-68.8812
-68.9968
-68.9767
-69.012
-69.0375
-69.0823
-69.0184
-68.9092
-69.0385
-69.0588
-69.1249
-69.1588
-69.1481
-69.2303
-69.2923
-69.253
-69.2411
-69.2532
-69.2619
-69.2995
-69.3522
-69.3558
-69.3539
-69.3995
-69.4221
-69.4566
-69.4205
-69.394
-69.4753
-69.5203
-69.4435
-69.4986
-69.5534
-69.5802
-69.6164
-69.6249
-69.7311
-69.6311
-69.6249
-69.7996
-69.7383
-69.736
-69.7412
-69.7835
-69.7741
-69.8598
-69.8701
-69.9659
-70.0605
-69.9312
-69.9289
-70.0528
-70.1521
-70.0642
-70.0586
-70.0702
-70.1252
-70.1541
-70.2018
-70.2603
-70.3148
-70.4832
-70.3776
-70.3372
-70.2798
-70.319
-70.3748
-70.2548
-70.4132
-70.4882
-70.5112
-70.5759
-70.5798
-70.6807
-70.8473
-70.9741
-70.8643
-70.5935
-70.7348
-70.7072
-70.727
-70.7392
-70.8899
-70.8741
-70.9387
-71.0256
-71.1841
-71.2941
-71.4374
-71.5628
-71.5152
-71.1592
-71.2929
-71.0853
-71.0656
-71.1016
-71.311
-71.3525
-71.4973
-71.5878
-71.8232
-71.9548
-71.9202
-72.1635
-72.4106
-72.1508
-71.7481
-71.9858
-71.5493
-71.676
-71.681
-71.8128
-71.9924
-71.6043
-72.3805
-72.5896
-72.9205
-73.0135
-73.0796
-73.2613
-73.4824
-72.1511
-72.5309
-72.383
-72.2962
-72.2993
-72.4873
-72.9527
-73.086
-73.2563
-73.862
-74.1413
-74.4468
-74.7836
-74.4214
-74.7021
-74.7417
-73.2868
-73.871
-73.4681
-73.8169
-73.6486
-73.8608
-74.0754
-74.6117
-74.7241
-75.3084
-75.6388
-75.9062
-76.218
-76.2372
-76.2126
-76.1843
-76.2376
-74.7645
-74.5992
-75.014
-75.2684
-75.5516
-75.7316
-76.1778
-76.2004
-76.6254
-77.0386
-77.6422
-78.0909
-77.8092
-78.1652
-78.051
-77.8707
-78.012
-77.8411
-77.0811
-77.7642
-77.1233
-77.926
-78.2548
-78.6641
-78.8974
-78.9478
-79.3048
-80.1057
-80.1875
-80.1768
-80.3515
-80.3675
-80.1602
-80.0419
-79.8297
-79.639
-79.575
-77.5106
-80.6666
-80.269
-80.1989
-81.0724
-81.3691
-81.4376
-81.5818
-81.6539
-81.6296
-81.6369
-81.8965
-82.0998
-82.088
-81.7856
-81.4342
-81.1892
-81.3321
-80.7439
-81.1249
-80.264
-82.8117
-81.9184
-81.5737
-81.6417
-81.463
-82.2069
-82.5078
-82.8924
-82.8452
-82.8037
-82.7479
-82.9623
-83.261
-83.3306
-83.3014
-82.9363
-83.2262
-83.5133
-84.2008
-84.59
-82.0863
-82.6909
-82.1817
-82.1149
-82.6821
-83.4193
-83.898
-84.1765
-84.8202
-85.3342
-85.6771
-86.3021
-86.5456
-86.3201
-86.0906
-86.1506
-86.0189
-86.0286
-86.4503
-86.8037
-86.9425
-87.4731
-83.0201
-83.5246
-84.0329
-84.274
-84.927
-85.4626
-86.0191
-87.0567
-87.9986
-88.7888
-89.2015
-89.2195
-88.9874
-88.6244
-88.5343
-88.6999
-88.1169
-87.9023
-87.5907
-87.4957
-86.9443
-87.0313
-87.6904
-84.1646
-84.5626
-84.952
-85.4406
-86.381
-87.0363
-87.6788
-88.5084
-89.4519
-89.7069
-89.8607
-89.8264
-89.6212
-89.5726
-89.811
-89.8538
-89.7678
-89.6496
-89.5398
-88.7165
-88.2544
-87.6052
-87.3727
-87.4302
-86.4752
-86.0011
-86.2465
-86.9173
-87.624
-88.2519
-88.9223
-89.5641
-89.8238
-90.0407
-89.9981
-90.0073
-90.2915
-90.5375
-90.4666
-90.2808
-89.8895
-89.694
-89.019
-88.3464
-87.4628
-86.9963
-86.7679
-86.4689
-68.4304
-68.3876
-68.4127
-68.5167
-68.5376
-68.5351
-68.5414
-68.5281
-68.6323
-68.5917
-68.6121
-68.6285
-68.6339
-68.6062
-68.762
-68.7525
-68.7455
-68.7457
-68.7363
-68.7634
-68.7596
-68.8324
-68.8698
-68.8614
-68.8857
-68.9472
-68.9094
-68.7902
-68.8351
-68.9713
-68.9881
-69.0172
-69.0646
-69.0472
-69.0432
-69.1351
-69.0751
-69.0613
-69.0844
-69.1122
-69.1637
-69.1627
-69.1491
-69.2487
-69.2511
-69.2633
-69.2155
-69.2518
-69.2819
-69.2655
-69.2878
-69.3268
-69.3552
-69.3379
-69.4405
-69.4309
-69.5326
-69.4465
-69.4348
-69.4276
-69.499
-69.5235
-69.4622
-69.4771
-69.5428
-69.6265
-69.6514
-69.7106
-69.8371
-69.7298
-69.7079
-69.7606
-69.7249
-69.7003
-69.6783
-69.7709
-69.8039
-69.833
-69.8873
-69.9776
-70.004
-70.1406
-70.1211
-69.9787
-70.012
-70.0687
-70.0552
-70.0367
-70.0693
-70.1324
-70.1
-70.1541
-70.2303
-70.3141
-70.4828
-70.4619
-70.5345
-70.403
-70.2603
-70.2755
-70.3556
-70.4635
-70.3689
-70.4601
-70.4817
-70.5556
-70.5703
-70.6904
-70.8601
-70.8894
-71.2447
-71.053
-70.5646
-70.6457
-70.6552
-70.7606
-70.7496
-70.8519
-70.8521
-70.7799
-70.9856
-71.1983
-71.3161
-71.4195
-71.5182
-71.764
-71.5461
-71.1281
-71.1705
-71.0566
-71.0306
-71.1672
-71.215
-71.3102
-71.4024
-71.5356
-71.7497
-71.8898
-72.0701
-72.1667
-72.3715
-72.6601
-72.42
-71.5963
-71.9433
-71.6258
-71.6503
-71.6791
-71.769
-71.9672
-72.193
-72.1877
-72.6413
-72.7489
-73.1294
-73.2002
-73.2644
-73.4737
-73.6913
-72.1097
-72.3845
-72.4566
-72.2656
-72.3422
-72.4598
-72.6578
-73.0656
-72.9864
-73.6438
-73.9902
-74.2938
-74.6901
-74.5953
-74.6296
-74.7473
-74.8866
-73.2141
-73.6615
-73.5007
-73.837
-73.6308
-73.8161
-74.123
-74.5433
-74.8612
-75.2359
-75.6534
-75.9967
-76.1321
-76.2843
-76.217
-76.3181
-76.1266
-76.2342
-74.6154
-74.3828
-75.0001
-75.18
-75.7624
-76.1092
-76.1753
-76.2138
-76.4037
-77.0747
-77.5506
-77.8095
-77.7963
-78.0768
-78.1063
-77.9274
-77.8165
-77.9213
-77.8269
-76.4068
-77.3725
-77.2297
-77.3204
-78.1874
-78.7044
-79.0315
-79.2119
-79.5275
-80.0306
-80.244
-79.9588
-80.1888
-80.1682
-80.0907
-79.8896
-79.6826
-79.4627
-79.4595
-79.3851
-77.3621
-80.6469
-80.2847
-80.1482