/*--------------------------------*- C++ -*----------------------------------*\
  =========                 |
  \\      /  F ield         | OpenFOAM: The Open Source CFD Toolbox
   \\    /   O peration     | Website:  https://openfoam.org
    \\  /    A nd           | Version:  7
     \\/     M anipulation  |
\*---------------------------------------------------------------------------*/
FoamFile
{
    version     2.0;
    format      ascii;
    class       surfaceScalarField;
    location    "10";
    object      phi;
}
// * * * * * * * * * * * * * * * * * * * * * * * * * * * * * * * * * * * * * //

dimensions      [0 3 -1 0 0 0 0];

internalField   nonuniform List<scalar> 
54095
(
8.57526e-05
-0.000688106
-6.0497e-05
-0.000133327
-0.000826133
-1.75391e-06
0.000101174
-0.000715713
-7.35681e-05
0.000289188
-0.000228396
-8.32611e-05
-0.000480641
0.000835961
-0.000113714
-7.46982e-05
-0.000619658
-3.06022e-05
0.000243583
0.000145588
-1.47792e-05
0.000115849
-0.000747413
-8.41476e-05
0.000290205
-0.000496841
-9.53278e-05
3.82945e-07
0.00101257
-6.84319e-05
-0.00106579
0.00368645
0.000307955
-0.000386874
0.00118493
-3.67974e-05
-1.55362e-05
0.00320924
0.000543548
1.98266e-05
-0.000454603
-6.90333e-05
0.000274124
0.00018211
-5.10429e-05
-9.01774e-05
0.00200986
-1.65353e-05
0.000117617
-0.0007729
-9.21299e-05
0.000273928
-0.000748513
-0.000106405
6.6005e-06
0.000983119
-7.24765e-05
-8.34488e-05
0.00105212
-6.68792e-05
-0.0012968
0.00411641
0.000156961
-0.00098843
0.00411067
0.000177333
-0.000239974
0.00330512
0.000613333
-0.000232591
0.00139133
4.60173e-05
7.33203e-05
0.0028608
0.000512439
-0.000385912
0.00214952
0.000593209
6.80985e-05
-0.000296963
-0.000108122
0.000306513
0.000147477
-6.69849e-05
-6.22116e-05
0.00206973
-4.21018e-05
-0.000240079
0.00182643
-6.02205e-05
0.000113812
-0.000791422
-9.52904e-05
0.000241798
-0.000967186
-0.000115254
1.51314e-05
0.000938596
-7.70129e-05
-7.76305e-05
0.00112641
-6.91403e-05
-5.34839e-05
0.000909668
-6.75346e-05
-0.001303
0.00521338
0.000182323
-0.00130546
0.00423931
0.000194137
-0.00042174
0.00512988
0.000658342
-0.000719265
0.00447664
0.000120707
-9.31062e-05
0.00309359
0.000555299
-0.000379398
0.0037732
0.000707913
-2.34728e-05
0.00140396
7.89502e-05
0.000221028
0.00254828
0.000444025
-0.000272934
0.0022878
0.000584883
-0.000289744
0.00153818
0.000332607
0.000116672
-0.000155909
-0.000143913
0.000311337
6.72761e-05
-9.74602e-05
-4.39147e-05
0.0020944
-3.26123e-05
-0.000234134
0.0020104
-6.95702e-05
-8.76511e-05
0.00239548
-0.000121648
0.000103587
-0.0008
-9.50082e-05
0.00019973
-0.0011401
-0.000122107
1.6227e-05
0.000887596
-8.04822e-05
-7.4321e-05
0.00119582
-7.21033e-05
-4.96344e-05
0.000958442
-6.82805e-05
-3.76157e-05
0.00149704
-5.72341e-05
-0.00131091
0.00467001
0.000223914
-0.00134815
0.00504964
0.000206422
-0.000805457
0.00669119
0.000546671
-0.00113419
0.00440993
0.000244299
-0.000430971
0.00496879
0.000693096
-2.11793e-05
0.00525509
0.000793716
-0.000209134
0.00442148
0.000240821
0.000227317
0.00276262
0.000445382
-0.000253772
0.00354242
0.000766921
-0.000354624
0.00275633
0.000752236
0.000131402
0.00129769
9.15331e-05
0.000240754
0.00230452
0.000393292
-0.000141703
0.00229668
0.000532931
-0.000233267
0.00177127
0.000350925
-0.000152799
0.00174326
0.000135665
0.000146551
-3.24187e-05
-0.000166454
0.000292315
-3.04205e-05
-0.000138802
-3.67807e-05
0.00207403
-2.40827e-05
-0.000230038
0.00220338
-6.98663e-05
-8.36777e-05
0.00248578
-0.000125821
-9.41403e-05
0.00265302
-0.000198012
8.89365e-05
-0.000796617
-9.23199e-05
0.000151667
-0.0012594
-0.000127372
2.44166e-05
0.000823598
-8.25252e-05
-7.02761e-05
0.00125834
-7.27233e-05
-4.3121e-05
0.000999725
-7.02654e-05
-3.05734e-05
0.00151677
-5.74348e-05
-1.20137e-05
0.00205615
-4.98345e-05
-0.00167908
0.00378196
0.000296267
-0.00138373
0.0045416
0.000163999
-0.00119593
0.00512419
0.000463963
-0.00128493
0.00502009
0.000180296
-0.000782908
0.00659216
0.000657394
-0.00022911
0.00649898
0.000620395
-0.000808521
0.00479718
0.000212143
-0.000255859
0.00486416
0.000832105
-0.00015321
0.00497731
0.000870309
-0.000205898
0.00543224
0.000831282
2.04581e-06
0.0042389
0.000311932
0.000334945
0.00248274
0.000426506
-3.26737e-05
0.00313053
0.000748242
-0.000215373
0.00269732
0.000808041
-0.000198999
0.00137626
0.000633955
0.000244976
0.00113566
6.36111e-05
0.000202319
0.00214899
0.000337064
-5.34305e-05
0.00229218
0.000414441
-0.00022411
0.00197006
0.000328209
-0.000162942
0.00200915
0.000164305
-8.42181e-05
0.00267247
-0.000109795
0.000155135
7.57019e-05
-0.000174319
0.000270136
-0.000169097
-0.000146248
-1.33223e-05
0.00202106
-4.80857e-05
-0.00022063
0.00239108
-6.14365e-05
-7.48858e-05
0.00258223
-0.000134559
-6.48891e-05
0.0027615
-0.000199984
-3.51897e-05
0.00291219
-0.000197668
7.4938e-05
-0.000783283
-8.82718e-05
0.000104137
-0.00132472
-0.000131141
2.80103e-05
0.000754377
-8.61626e-05
-6.93438e-05
0.00131571
-7.05535e-05
-3.56526e-05
0.00103182
-6.91698e-05
-2.50951e-05
0.00152944
-5.78405e-05
-4.72193e-06
0.00205389
-5.04563e-05
3.04602e-05
0.00183723
-4.1143e-05
-0.00171786
0.00311046
0.00017258
-0.00167648
0.00384877
0.000225934
-0.00141291
0.00429305
0.000469027
-0.00132799
0.00449539
8.92668e-05
-0.00115454
0.00516131
0.000498514
-0.000818951
0.00585022
0.000795375
-0.00126123
0.00525107
0.00022173
-0.000845829
0.0066378
0.000724626
-0.000205356
0.00643312
0.000775394
-0.000281473
0.00656139
0.000672988
-0.000622434
0.0051937
0.000227956
-0.000136855
0.00472262
0.000825481
-0.000110047
0.00493886
0.000947926
-0.00013112
0.0053574
0.000860892
-0.000225721
0.00585531
0.000812036
0.00018528
0.00400294
0.000295662
0.000300675
0.00222741
0.000468909
0.000130259
0.00266454
0.000708806
-0.000175559
0.00264772
0.000749286
-0.00015143
0.00160741
0.00056538
-2.13574e-05
0.00113259
0.000519491
0.000319303
0.000973724
-2.23648e-06
0.000157905
0.00206112
0.000263711
-9.32586e-05
0.00234174
0.000367447
-0.00022146
0.00216786
0.000217475
-0.000152761
0.00224242
0.000172809
-4.97361e-05
0.00295127
-0.000129643
-3.55853e-05
0.00313178
-0.000265862
0.000154463
0.00014841
-0.000152233
0.000238184
-0.000311998
-0.000165465
-4.62379e-06
0.0019649
-5.7453e-05
-0.000218478
0.00256847
-7.63357e-05
-5.24019e-05
0.00268025
-0.000142701
-2.15193e-05
0.00283499
-0.000211621
-8.95837e-06
0.00291849
-0.000202053
7.68023e-05
0.00296501
-0.000171242
6.17973e-05
-0.000761606
-8.34744e-05
6.51668e-05
-0.00134471
-0.00013345
2.33164e-05
0.000690336
-9.04162e-05
-6.44757e-05
0.00136411
-7.00856e-05
-2.85198e-05
0.00105898
-6.91853e-05
-1.65748e-05
0.00153337
-5.6527e-05
2.90174e-06
0.00204313
-4.99782e-05
3.87873e-05
0.00178958
-4.15925e-05
4.84232e-05
0.00162683
-2.50784e-05
-0.00151953
0.00322913
-1.29346e-05
-0.00180161
0.00323783
-2.24107e-06
-0.00131854
0.00453809
0.000330551
-0.00157528
0.00392833
0.000167724
-0.00131453
0.00424532
0.000433656
-0.000966661
0.00492536
0.000711912
-0.00128116
0.0044185
9.68253e-05
-0.00127845
0.00521938
0.000463809
-0.00064546
0.00597176
0.000817072
-0.000612634
0.00602828
0.000928172
-0.00119502
0.00556003
0.000263623
-0.000827305
0.00672153
0.000828442
-0.000174198
0.0064015
0.0008204
-0.00020425
0.00660155
0.000808363
-0.000662679
0.00698616
0.00103423
-0.000467944
0.0055683
0.000278629
-9.76333e-05
0.00460549
0.000743399
-1.58311e-05
0.00497536
0.000935073
-7.43774e-05
0.00536427
0.00083988
-9.81123e-05
0.00579014
0.000872743
5.63831e-05
0.00437229
0.00103226
0.000324624
0.0037678
0.000229818
0.000137561
0.00206829
0.000475132
1.75534e-05
0.00238953
0.000633113
-0.000193781
0.002659
0.000669843
-0.000187685
0.00185261
0.00053901
1.73602e-05
0.00123212
0.000398755
6.23602e-05
0.00277955
0.000305611
0.000312173
0.000864439
-4.84254e-05
0.000192504
0.00191678
0.000187782
-0.000208245
0.00247733
0.000331738
-0.000264422
0.00238534
0.000195908
-0.000142708
0.00243359
0.000116616
3.32688e-05
0.00315094
-8.16527e-05
3.34002e-05
0.00325509
-0.000295313
9.4365e-05
0.00361216
-0.000264974
0.000146242
0.000199007
-0.000135042
0.000207633
-0.000442366
-0.000164331
-7.3926e-06
0.00186923
-3.90915e-05
-0.00019989
0.00274294
-9.65081e-05
-3.47566e-05
0.00275893
-0.000148785
-1.5238e-05
0.00291686
-0.000225916
2.7803e-06
0.00291512
-0.000208125
0.000101732
0.0028676
-0.000167582
0.000104079
0.00298111
-0.000119591
5.0087e-05
-0.000733235
-7.84578e-05
3.82525e-05
-0.00133193
-0.000134503
2.11583e-05
0.000629823
-9.4095e-05
-6.91443e-05
0.0014135
-7.06609e-05
-1.79549e-05
0.00107411
-6.72639e-05
2.47501e-06
0.00151947
-5.77614e-05
9.79362e-06
0.00202613
-4.93187e-05
4.29763e-05
0.00173937
-4.27368e-05
5.64698e-05
0.00155314
-2.43707e-05
6.6451e-05
0.00113766
-1.77856e-05
-0.00159087
0.00276914
6.76607e-05
-0.00162893
0.00300788
4.85732e-05
-0.00120192
0.00426271
-3.66557e-05
-0.00159102
0.00320562
4.79437e-05
-0.00125718
0.0042703
0.0002082
-0.00108299
0.00533639
0.000453034
-0.00150778
0.00396835
0.0001866
-0.00148202
0.00420289
0.000413726
-0.000865459
0.00482628
0.00075274
-0.000810561
0.00517641
0.000865863
-0.00128203
0.00434959
0.000155925
-0.00126732
0.00530992
0.000446306
-0.000690264
0.00614526
0.000806374
-0.000561884
0.00628763
0.000915357
-0.000835987
0.00663967
0.00091709
-0.00111234
0.00584053
0.00036389
-0.000823202
0.00681488
0.00089585
-0.000129828
0.0064717
0.000872239
-0.000126924
0.00665789
0.00081661
-0.000340046
0.00702027
0.00101619
-7.92636e-05
0.00711246
0.0011192
-0.000190226
0.00589482
0.000188331
-0.000156597
0.00452608
0.0006522
-0.00016748
0.00501753
0.000886261
-0.000129019
0.00540718
0.000827394
-9.27861e-05
0.00556012
0.000975001
0.000142447
0.00399585
0.00112409
0.000230373
0.00264881
0.00104608
0.000294155
0.00360998
0.000175831
0.000102645
0.00198133
0.000406626
-0.000229994
0.00234279
0.000543615
-0.00023448
0.00270495
0.00055722
-8.36652e-05
0.00201557
0.000447841
-6.1997e-05
0.00145996
0.000406439
0.000132678
0.00279333
0.000285692
0.000216055
0.00384305
1.08081e-05
0.000228135
0.000845428
-6.28825e-05
0.000239717
0.00170621
0.000130064
-0.000251602
0.00260061
0.000308711
-0.00026587
0.00256696
0.000216097
-0.000127582
0.0026079
0.000114421
3.77262e-05
0.00333346
-0.000118871
2.52692e-05
0.00341555
-0.000264597
0.000105402
0.00358208
-0.000268905
6.55628e-05
0.00377111
-0.000235169
0.000132581
0.000253006
-0.000136493
0.000179703
-0.000550757
-0.000168101
2.96442e-05
0.00177434
-7.79241e-05
-0.00021357
0.00291885
-7.05836e-05
9.76526e-06
0.00279801
-0.0001633
5.71419e-05
0.00294127
-0.000227854
1.19782e-05
0.00289963
-0.00021261
0.00011019
0.00275207
-0.000159811
0.0001305
0.00284536
-0.000105861
0.00013861
0.00240439
-6.67743e-05
4.01829e-05
-0.000699346
-7.40723e-05
1.94323e-05
-0.00129481
-0.000135008
1.29336e-05
0.00057959
-9.72039e-05
-5.44063e-05
0.00144494
-7.11315e-05
-1.10315e-05
0.00108368
-6.91982e-05
-3.1396e-07
0.00150999
-5.7469e-05
1.58004e-05
0.00200251
-4.99484e-05
5.12515e-05
0.0016811
-4.23074e-05
6.07872e-05
0.00147519
-2.55775e-05
7.5167e-05
0.00105672
-1.8599e-05
2.47916e-05
0.000555648
-2.61217e-05
-0.00168684
0.00269713
1.9364e-05
-0.00262053
-0.00149674
0.00257359
6.33573e-05
-0.00132207
0.00361042
0.000134198
-0.00163815
0.00297286
8.21464e-05
-0.00117928
0.00424011
-6.73418e-06
-0.0011595
0.00445437
6.98767e-05
-0.00171915
0.00332789
8.91074e-05
-0.00138556
0.00399102
0.00023077
-0.000869511
0.00507769
0.000470953
-0.000672073
0.00498824
0.000403072
-0.00131955
0.00377844
0.000227426
-0.00150997
0.00423913
0.000393003
-0.000974729
0.00476856
0.00075591
-0.000774352
0.00528472
0.000856901
-0.000722701
0.00558347
0.000854211
-0.00131707
0.00452994
2.43801e-05
-0.00121438
0.0054552
0.000401828
-0.000612883
0.00634971
0.00072491
-0.000353466
0.00643787
0.000882676
-0.00047912
0.00681422
0.000879878
-0.000188557
0.00698044
0.000999896
-0.000843331
0.0064571
3.65431e-05
-0.000826673
0.0069467
0.000902138
-0.000262863
0.00654224
0.00092069
-0.000115965
0.00662252
0.000894549
-0.000174871
0.00679453
0.00112443
6.567e-05
0.00720617
0.000999264
0.000242058
0.00688505
0.00101231
-0.000146342
0.00622436
0.000110956
-0.000204186
0.0044979
0.000523337
-0.000347509
0.00497387
0.000813376
-9.24399e-05
0.00528563
0.000865769
0.000163086
0.00508641
0.00105435
1.2853e-05
0.00360859
0.00128741
0.00020083
0.00256282
0.00114193
0.000127433
0.00319287
0.000857951
0.000181976
0.00348813
0.000168016
0.000102711
0.0019874
0.00030677
-0.000205779
0.00231373
0.000389863
-9.35475e-05
0.00267396
0.000402285
-2.22891e-06
0.00214183
0.000305606
-1.0533e-05
0.00164214
0.000313915
7.75337e-05
0.00283635
0.000311152
0.000195908
0.00397151
6.67193e-05
0.000130729
0.0038425
-0.000197684
0.000167859
0.000887377
-7.72258e-05
0.000236194
0.00150734
7.94901e-05
-0.00022201
0.00275104
0.000231296
-0.000240699
0.00272916
0.000173647
-1.56786e-05
0.00273792
0.000111517
0.000123544
0.00349747
-0.000115986
8.48334e-05
0.00347875
-0.000254927
0.000120324
0.00357097
-0.000263626
0.000117052
0.00374141
-0.000225759
9.00762e-05
0.0037177
-0.000174232
0.000121942
0.000318269
-0.000147021
0.000147365
-0.000633423
-0.00018176
1.94294e-05
0.00172192
-0.000122182
-0.000159949
0.00305091
-0.000104442
2.44611e-05
0.00286807
-0.000176143
5.06409e-05
0.00295318
-0.000226162
2.36916e-05
0.00288325
-0.000219362
0.000119453
0.00263068
-0.000159418
0.000148576
0.00269354
-9.57807e-05
0.000158554
0.00226982
-5.46762e-05
9.33111e-05
0.00172663
-1.41496e-05
3.2335e-05
-0.000660789
-7.08919e-05
9.30786e-06
-0.00124248
-0.000135716
3.51584e-06
0.000541231
-0.000100164
-4.42205e-05
0.0014641
-7.21392e-05
-4.70983e-07
0.001083
-6.99819e-05
9.02489e-06
0.001488
-5.62316e-05
2.62814e-05
0.00197147
-5.27049e-05
5.69442e-05
0.00161571
-4.14967e-05
6.3551e-05
0.00139468
-2.53482e-05
7.80025e-05
0.000973167
-2.00242e-05
3.72428e-05
0.000527795
-2.79885e-05
-1.91734e-05
0.000227391
-2.08273e-05
-0.00165481
0.00226743
0.000153493
-0.00245296
-0.00161225
0.0028094
3.23874e-06
-0.00142994
0.00318687
7.37007e-05
-0.00313334
-0.00174242
4.82018e-05
-0.00163686
0.00252473
4.7577e-05
-0.00130065
0.00371592
7.92282e-05
-0.00100503
0.00378127
8.95107e-05
-0.00174174
0.0028494
0.000146045
-0.00107704
0.00400199
1.17459e-05
-0.00104377
0.0045474
7.44915e-05
-0.000715486
0.00481993
0.000279407
-0.00151608
0.00332448
0.000199949
-0.00153019
0.00389676
0.000203586
-0.000767824
0.00466795
0.000433608
-0.000606914
0.00484917
0.000442577
-0.000488302
0.00548953
0.000470585
-0.00136093
0.00376725
5.5037e-05
-0.00148003
0.00435132
0.000380894
-0.00109935
0.00492071
0.000727317
-0.000619166
0.00541503
0.000891301
-0.000614204
0.00572259
0.000852859
-0.000155866
0.0061144
0.000941894
-0.00117342
0.0047813
7.87277e-05
-0.0012263
0.00549187
0.000387334
-0.000591072
0.00641312
0.000666632
-0.000327939
0.00654881
0.000825946
-0.000341433
0.0069542
0.00090926
-7.28412e-05
0.00703375
0.000965076
9.54485e-05
0.00718508
0.00101082
-0.000743402
0.00678022
0.000273936
-0.000879852
0.00679449
0.00086442
-0.000408446
0.00651475
0.000990571
2.12921e-06
0.0064565
0.000992146
1.34665e-05
0.00657913
0.00125957
0.000122436
0.00696701
0.00125401
0.000281458
0.0066214
0.00118229
0.000127163
0.00556163
0.00101675
-2.62559e-05
0.00627856
0.00015403
-0.000247723
0.00457773
0.000381557
-0.000132941
0.00467917
0.000745197
0.000209221
0.00487132
0.00092492
0.000322809
0.00452938
0.00109776
4.46144e-05
0.00326929
0.0013385
3.64988e-05
0.00263563
0.00125564
0.000251862
0.00332685
0.000951999
0.000376917
0.00324011
0.000527514
0.000137322
0.00335696
0.000161708
0.000162179
0.00197895
0.000250487
-7.54057e-05
0.00227044
0.00020346
4.76678e-05
0.00253674
0.000238718
0.000141684
0.00217725
0.000209505
-1.22504e-05
0.00191638
0.000167164
0.000125261
0.00283583
0.00027401
0.000154377
0.00413276
0.000115852
0.000305045
0.00388695
-0.000165724
0.000156838
0.00373572
-0.000293442
0.000148696
0.000945263
-8.46406e-05
0.000231252
0.0012937
5.25287e-05
-0.000195351
0.0027999
0.00024541
-0.000186033
0.00290498
8.15599e-05
5.89521e-05
0.00282864
4.84357e-05
0.000238031
0.00354365
-0.000122054
7.97803e-05
0.00355167
-0.000244994
0.000131277
0.00356906
-0.000264838
9.02196e-05
0.00374163
-0.000205485
0.000126093
0.00366957
-0.000145159
0.000125774
0.00340744
-0.00012621
0.0001166
0.000385624
-0.00015162
0.000122258
-0.00069238
-0.000201014
3.89161e-05
0.00164856
-0.000143792
-0.000131609
0.00314165
-0.000125528
4.94696e-05
0.0028988
-0.000185107
5.36821e-05
0.00295777
-0.000225394
3.7552e-05
0.00286369
-0.00021788
0.000113719
0.00251745
-0.000162909
0.000146142
0.00255125
-9.97229e-05
0.000170044
0.00213557
-5.35716e-05
0.000137367
0.00156759
4.23965e-06
4.04342e-05
0.00070372
5.90932e-06
2.68799e-05
-0.000619639
-6.80293e-05
8.82881e-06
-0.00118699
-0.000135213
2.41134e-06
0.00050468
-0.000101576
-2.93081e-05
0.00146726
-7.40206e-05
1.30363e-05
0.00106891
-7.10827e-05
2.05387e-05
0.00145344
-5.59613e-05
3.50286e-05
0.00193156
-5.1353e-05
6.32084e-05
0.00154104
-4.12448e-05
7.19015e-05
0.00130415
-2.28698e-05
8.05075e-05
0.000888327
-2.10164e-05
4.60099e-05
0.000491902
-3.01409e-05
-1.58685e-05
0.000237457
-2.21868e-05
-1.13267e-05
0.00016711
-1.25259e-05
-0.00151842
0.00277004
-3.28785e-05
-0.00287354
-0.00172483
0.00227993
0.000100083
-0.00129638
0.00300389
6.79e-05
-0.00305186
-0.00167039
3.15813e-05
-0.00162313
0.00280428
-8.61199e-06
-0.0014299
0.00321941
9.99494e-05
-0.000999721
0.00353418
0.000151621
-0.00361742
-0.00150053
9.83753e-05
-0.001564
0.00233952
7.4715e-06
-0.00118507
0.0038619
9.63008e-06
-0.00102996
0.00380536
4.13159e-05
-0.000755367
0.0042345
0.000132351
-0.00175604
0.00283454
0.000254815
-0.00112387
0.00364466
9.70617e-05
-0.00083469
0.00456537
6.06442e-05
-0.000683226
0.00469951
0.000271216
-0.00045402
0.00451424
0.000341319
-0.0014951
0.00323642
0.000222234
-0.00171559
0.00408734
0.000244921
-0.00106919
0.00446838
0.000372994
-0.000641682
0.00485901
0.000446286
-0.000543678
0.00529688
0.0005647
-0.000247445
0.00544479
0.000905818
-0.00135197
0.00391762
2.81785e-05
-0.00132755
0.00422824
0.000279367
-0.00104865
0.00515472
0.000604461
-0.000609667
0.00552507
0.000899001
-0.000448623
0.00583782
0.000883264
-0.000163899
0.00607922
0.000979096
-2.98221e-06
0.0060822
0.00111579
-0.0010136
0.00503173
1.97737e-05
-0.00129732
0.00557489
0.000413176
-0.000629263
0.00637869
0.000642577
-0.000303665
0.00665256
0.000868673
-3.43401e-05
0.00689292
0.000935033
5.8122e-05
0.00706165
0.000945673
0.000250466
0.00719087
0.000990275
0.00028156
0.00670577
0.00104757
-0.00054923
0.00690352
0.00039967
-0.000980381
0.00697546
0.000825631
-0.000213124
0.00645863
0.00100072
0.000161672
0.00639815
0.00109646
0.000163739
0.00654011
0.00119024
0.0001938
0.00678123
0.00129617
0.000216031
0.00644072
0.00125516
0.000216253
0.0055129
0.00126663
0.000390622
0.00477533
0.00104443
5.97516e-05
0.00617241
0.000183724
-0.000129432
0.00474275
0.000280627
0.000236387
0.00409347
0.000655469
0.000481215
0.00424279
0.000940175
0.000492194
0.00403283
0.00107096
0.00026449
0.00277792
0.00131239
1.22261e-05
0.00277667
0.0013105
0.00033228
0.00327561
0.00112897
0.00069335
0.00318206
0.000621743
0.000294413
0.0028456
0.00039206
8.62621e-05
0.00331851
0.000100884
0.000216832
0.00195805
0.000197027
0.000104144
0.00207211
0.000149322
7.12873e-05
0.00239057
9.23126e-05
0.000176931
0.00229738
6.05842e-07
0.000198403
0.00203454
0.000130972
4.28262e-05
0.00285024
0.000189709
0.000135305
0.00421612
0.000186628
0.000140246
0.00409068
-0.000137898
0.000219199
0.00374237
-0.000265476
4.23056e-05
0.0036716
-0.000220694
0.00015034
0.000995042
-8.35193e-05
0.000245841
0.00108224
3.2425e-06
-0.000142069
0.00285253
0.000180878
-0.000151034
0.00304057
0.000129242
4.62631e-05
0.0029154
-1.98817e-06
9.01975e-05
0.00368634
-0.000130776
0.000101011
0.00357925
-0.000213097
0.000117494
0.00357733
-0.000257036
0.00017164
0.00366898
-0.000217688
0.0001779
0.00358661
-0.000130385
0.000147312
0.00336022
-0.000107884
0.000204615
0.00287097
-0.000106523
0.000117615
0.000441068
-0.000146179
0.000111741
-0.000727871
-0.000219041
4.89815e-05
0.00155962
-0.000158646
-7.66509e-05
0.00318939
-0.000144195
9.15188e-05
0.00287557
-0.000180784
6.84657e-05
0.00294971
-0.000224981
6.42486e-05
0.00282439
-0.000215312
0.000125141
0.00240496
-0.00016732
0.000146371
0.00241769
-0.00010382
0.000166901
0.00200976
-6.03105e-05
0.000158671
0.00139434
7.01859e-06
4.16773e-05
0.000623685
2.67288e-05
9.00258e-05
0.000373917
-2.54421e-05
2.27167e-05
-0.000576787
-6.5569e-05
1.27496e-05
-0.00113463
-0.000133133
4.63601e-06
0.000465926
-0.000101095
-1.85163e-05
0.00145832
-7.41132e-05
1.61027e-05
0.00105087
-7.20864e-05
3.06336e-05
0.00140719
-5.54679e-05
4.29313e-05
0.00188255
-4.98865e-05
7.45766e-05
0.00145618
-4.10698e-05
7.95302e-05
0.0012056
-2.22216e-05
8.8258e-05
0.00079862
-2.14207e-05
4.92456e-05
0.000454065
-3.24258e-05
-1.3133e-05
0.000244091
-2.36415e-05
-1.05903e-05
0.000168966
-1.34523e-05
-1.22072e-05
0.000410184
-1.60554e-05
-0.00158054
0.00269291
3.93505e-05
-0.00267014
-0.00159821
0.00270647
-6.30534e-05
-0.00122276
0.00324906
3.11445e-05
-0.0033867
-0.0016508
-1.5782e-05
-0.00169838
0.00223504
0.000120143
-0.00145714
0.00305961
7.16091e-05
-0.00107725
0.00354571
0.00015196
-0.00355224
-0.00140399
7.96377e-05
-0.00164614
0.00289061
-4.19963e-06
-0.00132962
0.00323459
0.000120762
-0.00104404
0.00345913
0.000189088
-0.000825572
0.00378484
0.000219964
-0.00378298
-0.00104096
0.00016191
-0.00168284
0.00228983
-2.35071e-05
-0.00113212
0.00393244
-5.48186e-05
-0.000985353
0.00394249
2.31643e-05
-0.00078764
0.00423095
0.000149285
-0.000607984
0.0042049
0.000284926
-0.00170903
0.00287409
0.000174392
-0.00121836
0.00328541
0.000116831
-0.000971436
0.00447328
9.13934e-05
-0.000683478
0.00454783
0.000254124
-0.000508693
0.0044503
0.00030017
-0.00043586
0.00480564
0.000598515
-0.00155215
0.00320327
0.000233325
-0.00154549
0.00425801
0.000269511
-0.00105104
0.00439208
0.000323618
-0.000609527
0.0048265
0.000405366
-0.00034633
0.00506668
0.000574196
-0.000353257
0.00528018
0.000918668
2.39169e-05
0.00547632
0.00100491
-0.00123872
0.00401567
0.000127073
-0.00155208
0.00430525
0.000205926
-0.00100503
0.00528132
0.000528528
-0.000645235
0.00564132
0.000829785
-0.000176989
0.00584051
0.00103896
-0.000141278
0.00608638
0.0010755
0.000121619
0.00601868
0.00117146
0.000231546
0.00613931
0.00117672
-0.000954012
0.00531868
0.000117835
-0.00146766
0.00575728
0.000324668
-0.00046447
0.00640783
0.000635388
-0.000203813
0.00675928
0.000901346
9.07187e-06
0.00690783
0.00100843
0.00011817
0.00696267
0.00110964
0.000341255
0.00702254
0.000988785
0.000264468
0.00652979
0.00111804
0.000379027
0.00605111
0.00114867
-0.00043974
0.00697051
0.00043251
-0.000763527
0.0071836
0.000825617
-0.000199753
0.00672718
0.000993222
0.000234795
0.00652314
0.00112215
0.000335561
0.00653691
0.0012563
0.000485732
0.00663396
0.00111626
0.000112325
0.00643208
0.00120471
0.000291799
0.00559221
0.00121633
0.000602163
0.00502033
0.00111282
0.000130069
0.00397079
0.00118718
4.72252e-05
0.00601328
0.000198162
-3.13857e-05
0.00484971
0.00032498
0.000406492
0.00351013
0.000561619
0.000472991
0.00363032
0.000866236
0.000465974
0.00378425
0.000899711
0.000193156
0.00268016
0.00117397
6.13928e-05
0.00277805
0.00129244
0.00035485
0.00320273
0.00116383
0.000476136
0.00314679
0.000828345
0.00035515
0.00289197
0.000439428
0.000139498
0.00315103
0.000214499
-4.67994e-05
0.00340427
0.000111379
0.000265528
0.00190853
0.000130721
3.54617e-05
0.00193335
0.000158248
-1.31473e-05
0.00236177
4.02289e-05
5.26376e-06
0.00229611
0.000134585
-0.000111054
0.00226837
-3.19678e-05
4.16842e-05
0.0028964
0.000144138
0.000132856
0.00421958
0.000170886
0.000249075
0.00420911
-9.23598e-06
0.000184166
0.00383311
-0.000234905
-1.31778e-05
0.00370652
-0.000139901
0.000164333
0.00395436
-0.000171687
0.000171603
0.00103218
-9.11242e-05
0.000252607
0.000870088
-1.22378e-05
-5.08963e-05
0.0028522
0.000103456
-6.47685e-05
0.00318532
2.42476e-05
-7.48379e-06
0.00314893
-5.28428e-06
0.00027795
0.00361772
-0.00014285
0.000135283
0.00356306
-0.000185619
0.000139949
0.00357798
-0.000228556
0.000201456
0.00357687
-0.000220008
0.000115309
0.00354447
-0.000123958
0.000155481
0.00331288
-7.98589e-05
9.77174e-05
0.00278921
-8.2162e-05
0.000188228
0.00217667
-8.18697e-05
0.000110456
0.000495315
-0.000141986
0.000101081
-0.000720575
-0.000241806
5.55322e-05
0.00147284
-0.000183158
-5.10254e-05
0.00321793
-0.000154674
9.16743e-05
0.00283963
-0.00018383
9.11765e-05
0.0029328
-0.000224409
8.3832e-05
0.00277422
-0.000215711
0.000136167
0.00230613
-0.000178075
0.000162707
0.00227043
-0.000103228
0.000174166
0.00187779
-5.77516e-05
0.000172169
0.00120596
5.13915e-06
5.46947e-05
0.000528994
3.38814e-05
5.10544e-05
0.000353799
-1.47971e-05
0.00011654
0.000996013
-6.03948e-05
1.9266e-05
-0.000532294
-6.37591e-05
1.39242e-05
-0.00108304
-0.000131087
2.92008e-06
0.000430131
-0.000100259
-1.13137e-05
0.00144218
-7.36404e-05
2.39578e-05
0.00102559
-7.27872e-05
3.61754e-05
0.00135616
-5.72284e-05
4.71157e-05
0.00182616
-4.61911e-05
8.53162e-05
0.00136132
-4.03441e-05
8.68823e-05
0.00110034
-2.26933e-05
9.9354e-05
0.000701027
-2.39825e-05
4.76229e-05
0.000419455
-3.4433e-05
-7.96282e-06
0.00024425
-2.46222e-05
-1.10493e-05
0.000170744
-1.43712e-05
-7.60317e-06
0.000420355
-1.60202e-05
1.89449e-06
0.000982045
-1.82656e-05
-0.00149923
0.00248182
-0.000159989
-0.00240315
-0.00160331
0.00268474
1.32654e-05
-0.001208
0.00315365
2.12256e-05
-0.00315029
-0.00169199
1.87878e-05
-0.00264774
-0.0015604
0.00256221
6.2838e-06
-0.00141557
0.00315235
-7.91554e-06
-0.00110093
0.00351676
7.59618e-05
-0.00353791
-0.00148904
6.86679e-05
-0.00175622
0.0022137
0.000131424
-0.00134094
0.00309513
9.59373e-05
-0.00110915
0.00351188
0.000170548
-0.00103391
0.00372025
0.000292144
-0.0036521
-0.00116886
0.000177148
-0.0016158
0.00284001
-1.64378e-05
-0.0013031
0.00321724
0.000184136
-0.00113674
0.00350396
0.000227324
-0.000788785
0.00369103
0.000284048
-0.000740697
0.00383316
0.000369883
-0.00385037
-0.00102985
0.000238224
-0.00169893
0.00229429
-1.45559e-05
-0.00110309
0.00386654
-7.28708e-05
-0.00100727
0.0039085
1.50043e-05
-0.000845399
0.00421932
0.00019672
-0.000662846
0.00420611
0.000302232
-0.000679394
0.0043409
0.000473565
-0.00171816
0.00287872
0.000161379
-0.00126936
0.00319991
-1.62461e-05
-0.00103593
0.00449865
7.63524e-05
-0.000721667
0.00451165
0.000239718
-0.000388269
0.00440737
0.000338995
-0.000660621
0.00475963
0.000653543
-7.16842e-05
0.00472654
0.000875221
-0.00152098
0.00332712
0.000158411
-0.00165383
0.00417204
0.000421042
-0.00108197
0.00435994
0.000378593
-0.000591172
0.00470695
0.000389104
-0.000498741
0.00519101
0.000602786
-0.000441748
0.00526705
0.000887801
0.000121784
0.0052872
0.00110762
0.000214992
0.00526599
0.0011427
-0.00125337
0.00412633
0.000188694
-0.00161804
0.00435975
0.000222952
-0.000915711
0.00539192
0.000546571
-0.000540845
0.00574782
0.000759063
-0.000188322
0.00593468
0.000933011
-3.34723e-05
0.00605625
0.00122072
0.000146276
0.00599265
0.00129652
0.000239043
0.00608189
0.00125431
0.000309373
0.00598855
0.00118949
-0.000908791
0.00558353
0.000204197
-0.00124776
0.00600897
0.000350374
-0.000620742
0.00652533
0.000628151
-2.77659e-05
0.00676429
0.000892932
0.000327551
0.00677215
0.00104503
0.00040922
0.00688959
0.00115802
0.000212189
0.00679039
0.00124193
0.00020517
0.00632859
0.00127662
0.000379081
0.0062138
0.00117844
0.000283142
0.00529503
0.0011579
-0.000454422
0.00702364
0.000448508
-0.000484425
0.00730212
0.000767038
8.01118e-05
0.0069461
0.000933074
0.000248646
0.00668861
0.00105209
0.000422968
0.0064491
0.00125296
0.000385729
0.00639458
0.00130311
0.00028353
0.00618082
0.00114539
0.000413049
0.00558614
0.00115258
0.000485027
0.00506939
0.00115838
0.00038726
0.00388038
0.00117112
0.000217475
0.00359227
0.0011586
-0.000333565
0.00607707
0.000222971
5.52583e-05
0.0048542
0.000403935
0.00018896
0.00326265
0.000418962
0.000287551
0.00312647
0.000764778
0.000311313
0.00368344
0.000660999
5.02719e-05
0.00252278
0.000895774
-1.39605e-05
0.00283198
0.00117568
0.000287713
0.00319484
0.00114548
0.000426453
0.00320796
0.000925289
0.000292205
0.00310286
0.000509412
0.000142477
0.00316773
0.000267072
0.000239268
0.00378687
1.18379e-05
-2.32288e-06
0.00342478
0.000153414
0.000299611
0.00186034
0.000112564
-2.69762e-05
0.00188743
0.000152727
-3.71692e-06
0.0024224
3.65672e-05
-0.000208567
0.00252946
7.95492e-06
0.000158265
0.00245417
6.8471e-05
3.59413e-05
0.00286162
0.000102154
0.000199737
0.00417338
0.000130549
0.000301491
0.00439178
-0.000111826
5.8054e-05
0.00399378
-0.000112649
2.37752e-05
0.00378184
-0.000178526
-3.74582e-05
0.00404674
-9.70989e-05
5.65839e-05
0.00376894
-0.000127809
0.000161398
0.00104515
-6.39103e-05
0.000193861
0.000720532
-3.43488e-05
-2.15226e-05
0.00284388
7.31288e-05
-5.36004e-05
0.00332382
-3.24693e-05
0.000276062
0.00305102
-6.22301e-05
0.000174176
0.00366961
-0.000140174
0.000132873
0.00354399
-0.000172813
0.000139264
0.00355383
-0.00016457
0.000154412
0.00355435
-0.000197745
0.000284853
0.00331618
-0.000102404
0.00016649
0.00323229
-3.76895e-05
0.000185502
0.0026148
-3.62647e-05
8.96697e-05
0.00210541
-4.95207e-05
0.000208851
0.00219206
-7.9301e-05
0.000108708
0.000540926
-0.000135053
8.37813e-05
-0.000674314
-0.000258105
4.44494e-05
0.00140118
-0.000211678
-1.90382e-05
0.00321216
-0.000169659
0.00010819
0.00279236
-0.000191635
9.14576e-05
0.00290646
-0.000212774
9.1237e-05
0.00271863
-0.000212944
0.000142075
0.00221995
-0.000186285
0.000190891
0.00209577
-0.000107424
0.000199817
0.00171323
-3.91311e-05
0.000158715
0.00102898
8.14377e-06
6.65512e-05
0.000422092
3.75277e-05
-1.29505e-05
0.000396368
-6.78716e-06
5.06323e-05
0.000965972
-4.29915e-05
0.000125031
0.00179636
-5.20789e-05
1.82565e-05
-0.000487676
-6.28746e-05
1.37721e-05
-0.00103136
-0.000129211
-3.13344e-06
0.000401738
-9.95597e-05
-3.51669e-06
0.00142006
-7.46244e-05
3.12438e-05
0.000994255
-7.3554e-05
3.90437e-05
0.00130226
-5.79318e-05
5.56304e-05
0.00176048
-4.71773e-05
9.23091e-05
0.00126188
-3.90641e-05
9.84146e-05
0.000986358
-2.4777e-05
0.000108363
0.000597481
-2.75103e-05
4.24247e-05
0.000389077
-3.60296e-05
-4.87789e-06
0.000239505
-2.48099e-05
-1.28689e-05
0.000174196