/*--------------------------------*- C++ -*----------------------------------*\
  =========                 |
  \\      /  F ield         | OpenFOAM: The Open Source CFD Toolbox
   \\    /   O peration     | Website:  https://openfoam.org
    \\  /    A nd           | Version:  7
     \\/     M anipulation  |
\*---------------------------------------------------------------------------*/
FoamFile
{
    version     2.0;
    format      ascii;
    class       surfaceScalarField;
    location    "10";
    object      phi_0;
}
// * * * * * * * * * * * * * * * * * * * * * * * * * * * * * * * * * * * * * //

dimensions      [0 3 -1 0 0 0 0];

internalField   nonuniform List<scalar> 
54095
(
8.09285e-05
-0.000638152
-5.78812e-05
-0.000132019
-0.000802917
-1.22064e-06
9.76004e-05
-0.000664481
-7.12709e-05
0.000287325
-0.000194097
-8.24938e-05
-0.000465184
0.000854338
-0.000113665
-7.25335e-05
-0.000603347
-2.94364e-05
0.000240069
0.000160821
-1.56689e-05
0.000114123
-0.000697091
-8.15132e-05
0.000289744
-0.000460052
-9.50593e-05
2.48606e-06
0.00101287
-6.91696e-05
-0.00105152
0.00373216
0.000300131
-0.000367037
0.0011847
-3.58541e-05
-1.81221e-05
0.00325717
0.000542719
2.21707e-05
-0.000443768
-6.76269e-05
0.0002713
0.000200346
-5.0518e-05
-8.47974e-05
0.00201756
-2.09112e-05
0.000117738
-0.000724716
-9.01127e-05
0.000276826
-0.000712655
-0.000105737
8.80444e-06
0.000982099
-7.30951e-05
-8.16004e-05
0.00106025
-6.74575e-05
-0.00130059
0.00409204
0.000160352
-0.00096263
0.00417036
0.000157401
-0.00023725
0.00329166
0.00060971
-0.000201465
0.00136345
4.48844e-05
9.50719e-05
0.00288661
0.000510927
-0.000373956
0.00216481
0.000586777
7.12756e-05
-0.000290542
-0.000106764
0.000305419
0.000170726
-6.66e-05
-5.82341e-05
0.00207864
-4.4566e-05
-0.000236669
0.00184301
-6.33157e-05
0.00011472
-0.000745348
-9.40877e-05
0.000244742
-0.00093223
-0.000115279
1.68887e-05
0.000936865
-7.73911e-05
-7.62332e-05
0.00113284
-6.94527e-05
-5.25718e-05
0.000915803
-6.80879e-05
-0.00131942
0.00517498
0.000182379
-0.0012993
0.00422172
0.000206986
-0.000419541
0.00507582
0.00066772
-0.000647481
0.0044855
0.000130867
-4.90945e-05
0.00304845
0.000544782
-0.000373409
0.00375352
0.000714817
1.10328e-05
0.00134781
7.58802e-05
0.000225666
0.00256855
0.0004427
-0.000251778
0.00229208
0.000577193
-0.000280871
0.00154703
0.000326562
0.000120562
-0.000153363
-0.000143021
0.000313017
9.38112e-05
-9.81235e-05
-4.07012e-05
0.0021022
-3.25687e-05
-0.00023125
0.00202525
-7.17902e-05
-8.55901e-05
0.00241412
-0.000123647
0.000105324
-0.000756304
-9.43684e-05
0.00020341
-0.00110722
-0.000122512
1.85851e-05
0.000883702
-8.0701e-05
-7.3636e-05
0.00120135
-7.22655e-05
-4.85022e-05
0.000963923
-6.90706e-05
-3.66485e-05
0.00148843
-5.77433e-05
-0.00131997
0.0046464
0.000216623
-0.00135044
0.0050151
0.000211016
-0.0007935
0.00667979
0.0005593
-0.00109036
0.00442548
0.000239121
-0.000415838
0.00493372
0.000715829
-2.76926e-05
0.00519292
0.000804162
-0.000150262
0.00439537
0.000251425
0.000243209
0.00271962
0.000442149
-0.000224188
0.00349691
0.000773794
-0.000336834
0.0027277
0.000756037
0.000146609
0.00123521
8.65519e-05
0.000243518
0.00232249
0.000391444
-0.000125563
0.00229587
0.000523774
-0.000227733
0.00177658
0.000344125
-0.000152332
0.00177161
0.000134425
0.000150932
-3.23955e-05
-0.000166575
0.000296867
-4.26153e-06
-0.000138405
-3.11722e-05
0.00208101
-2.71774e-05
-0.000227369
0.0022157
-6.9289e-05
-8.12979e-05
0.00250306
-0.000127939
-9.14271e-05
0.0026666
-0.00019974
9.11717e-05
-0.000755393
-9.20831e-05
0.000155457
-0.00122905
-0.000127989
2.5947e-05
0.000818219
-8.29764e-05
-6.94304e-05
0.00126249
-7.24136e-05
-4.13967e-05
0.00100394
-7.08827e-05
-2.92529e-05
0.00150681
-5.82018e-05
-1.20216e-05
0.00205042
-5.01011e-05
-0.00167701
0.00379286
0.000289257
-0.00138588
0.00452642
0.00015542
-0.00118891
0.00515173
0.000462997
-0.00128201
0.00502456
0.0001822
-0.000789651
0.00659141
0.000673208
-0.000216902
0.00649522
0.000637714
-0.000770724
0.00483935
0.00020659
-0.000243071
0.00482172
0.000837394
-0.000155466
0.00495561
0.000884411
-0.000202288
0.00541841
0.000834183
3.88401e-05
0.00419487
0.00030827
0.000346209
0.00244032
0.000428029
-5.87557e-06
0.00307277
0.000746604
-0.000201698
0.00267128
0.000804178
-0.000190659
0.00137467
0.000627509
0.000256585
0.00107412
5.54381e-05
0.000203291
0.00216907
0.00033354
-5.00542e-05
0.00230186
0.000404343
-0.000223421
0.00197764
0.000318769
-0.000162273
0.00203239
0.000164325
-7.94092e-05
0.00271311
-0.000112585
0.000159503
7.47617e-05
-0.000175489
0.000276999
-0.000144232
-0.000148147
-1.05206e-05
0.00202895
-4.98694e-05
-0.000217715
0.00240065
-6.38456e-05
-7.12924e-05
0.00260066
-0.000136992
-6.00677e-05
0.00277187
-0.000202393
-3.52707e-05
0.00290704
-0.0001999
7.7396e-05
-0.000744525
-8.82637e-05
0.000107704
-0.00129701
-0.000131829
2.86246e-05
0.000748764
-8.71579e-05
-6.84846e-05
0.00131849
-7.04905e-05
-3.43508e-05
0.00103514
-6.92667e-05
-2.45042e-05
0.00151895
-5.85127e-05
-3.9396e-06
0.00204697
-5.08137e-05
3.15971e-05
0.00183037
-4.12849e-05
-0.00172399
0.00310674
0.000172514
-0.00167369
0.0038605
0.000220165
-0.00141787
0.00429214
0.000466486
-0.00132366
0.00448071
8.73509e-05
-0.00116014
0.00517847
0.000499159
-0.000803377
0.00587973
0.000795741
-0.00125583
0.00527919
0.00023048
-0.000842848
0.00663687
0.00073652
-0.000190711
0.00642104
0.000782631
-0.000278487
0.00656874
0.000694738
-0.000584992
0.00523151
0.000231676
-0.000124322
0.00467925
0.000819594
-0.000103395
0.00493614
0.000954382
-0.000121119
0.00536318
0.000859057
-0.000211764
0.00585054
0.000827985
0.000211862
0.00395435
0.000285251
0.000294285
0.00218668
0.000470925
0.000133964
0.00261339
0.000703391
-0.000173215
0.00262917
0.000738508
-0.000152192
0.00161294
0.000555826
-2.2649e-05
0.00114801
0.00051427
0.000322733
0.000919334
-8.44261e-06
0.000162277
0.00208076
0.000258473
-0.000102134
0.00236372
0.000363285
-0.000223476
0.00218091
0.000206832
-0.000149659
0.00226144
0.000168089
-4.18546e-05
0.00298651
-0.00012729
-3.13872e-05
0.00314544
-0.000270022
0.000157916
0.000149402
-0.000155159
0.000244936
-0.000289644
-0.000167308
-2.81813e-06
0.00196969
-5.74525e-05
-0.000217016
0.00257882
-7.95087e-05
-4.76813e-05
0.00269494
-0.000144794
-1.65298e-05
0.00284214
-0.00021524
-7.31305e-06
0.00291245
-0.000204425
8.03059e-05
0.00294857
-0.000172624
6.44261e-05
-0.0007254
-8.35511e-05
6.79691e-05
-0.00131914
-0.000134108
2.38645e-05
0.000684202
-9.1132e-05
-6.34199e-05
0.00136535
-7.05996e-05
-2.64637e-05
0.00106041
-6.9292e-05
-1.4538e-05
0.00152112
-5.69002e-05
2.93021e-06
0.00203576
-5.02329e-05
3.88668e-05
0.00178309
-4.23966e-05
4.97918e-05
0.00162151
-2.48943e-05
-0.00152496
0.00321664
-9.04367e-06
-0.00180263
0.00324167
-5.97806e-06
-0.00132773
0.00451125
0.000336478
-0.00156736
0.00393758
0.000166628
-0.00131807
0.00424001
0.000430236
-0.000965909
0.00491069
0.000721259
-0.00127824
0.00440525
9.78718e-05
-0.00128275
0.00524231
0.000463416
-0.000624994
0.0059962
0.00081697
-0.000607822
0.00606323
0.000920686
-0.00119022
0.00560733
0.000277082
-0.000821411
0.00671863
0.000845804
-0.000166733
0.00639307
0.000827826
-0.000195772
0.00661356
0.00081246
-0.000634015
0.00699341
0.00104607
-0.000435964
0.00560556
0.00027377
-0.000101357
0.00457875
0.00072782
-1.76544e-05
0.00497577
0.000931585
-7.39345e-05
0.00538091
0.00083738
-9.0839e-05
0.00576376
0.000884478
5.74492e-05
0.00431113
0.00105938
0.000331441
0.00372464
0.000220995
0.000129916
0.00203215
0.000472138
-6.36924e-06
0.002365
0.000623549
-0.000207628
0.00266069
0.00065603
-0.000183639
0.00185575
0.00052968
1.55913e-05
0.00125432
0.000392069
6.77595e-05
0.00281088
0.000307569
0.000303614
0.000825202
-5.15664e-05
0.000200079
0.00193402
0.000183157
-0.000214115
0.00250344
0.000330057
-0.000268173
0.00240217
0.000193185
-0.000138065
0.00244833
0.000110323
4.02447e-05
0.00318309
-8.5264e-05
3.57121e-05
0.00327036
-0.000295234
9.49663e-05
0.00360199
-0.000268399
0.000148817
0.000202086
-0.000137075
0.000212807
-0.000422442
-0.000167199
-1.82231e-06
0.00187214
-4.40687e-05
-0.00019835
0.00275212
-9.58187e-05
-2.92864e-05
0.00277103
-0.000152778
-6.81773e-06
0.00291829
-0.000228668
4.6151e-06
0.00290648
-0.000210957
0.000103015
0.00284735
-0.000167359
0.000107895
0.00296076
-0.000119886
5.28209e-05
-0.000699737
-7.84841e-05
4.03254e-05
-0.00130789
-0.000135126
2.09719e-05
0.000623714
-9.4592e-05
-6.77115e-05
0.00141281
-7.08808e-05
-1.69473e-05
0.00107475
-6.80014e-05
2.49354e-06
0.00150823
-5.88935e-05
1.03979e-05
0.00201827
-4.98062e-05
4.34047e-05
0.00173244
-4.29872e-05
5.67693e-05
0.00154737
-2.50261e-05
6.86461e-05
0.00113387
-1.77488e-05
-0.00158776
0.00276239
6.68007e-05
-0.00163825
0.00300221
5.00534e-05
-0.00120423
0.00425649
-3.53664e-05
-0.00158571
0.00321036
4.96577e-05
-0.00126223
0.00424333
0.00020611
-0.00107698
0.00531475
0.000461244
-0.00149505
0.00396619
0.000188185
-0.00148897
0.00419828
0.000414576
-0.000864578
0.00482405
0.000756457
-0.000811142
0.00518409
0.000868008
-0.00129272
0.00436129
0.000146468
-0.00126095
0.00534013
0.000439594
-0.000682522
0.00617812
0.000797284
-0.000548286
0.00632569
0.000907021
-0.000803223
0.00667251
0.000911939
-0.00109362
0.00590812
0.00035686
-0.000820006
0.00681013
0.000904228
-0.000137245
0.00647868
0.000879791
-0.000129341
0.00667208
0.00082471
-0.000320993
0.00700801
0.00102801
-5.629e-05
0.00712512
0.00111159
-0.000166544
0.00593293
0.000170615
-0.000170848
0.00451528
0.000637998
-0.000205309
0.00502401
0.000878518
-0.000141059
0.00541292
0.000833003
-7.78354e-05
0.00550867
0.000986674
0.00013634
0.00392746
0.0011474
0.00023276
0.00262462
0.00106204
0.000279252
0.00357573
0.000173274
0.000101216
0.00195274
0.000399269
-0.00024084
0.00233376
0.000530102
-0.000229059
0.00270539
0.000539735
-7.01174e-05
0.00201149
0.000432348
-6.44893e-05
0.00148526
0.000403471
0.000133221
0.00281723
0.000288209
0.000216322
0.00386961
1.92397e-05
0.000214944
0.000824788
-6.57125e-05
0.000246516
0.00172067
0.000128074
-0.000247824
0.00262479
0.0003078
-0.000261652
0.00258335
0.00021218
-0.000119108
0.00261944
0.000111898
4.84301e-05
0.00336078
-0.000122614
2.86e-05
0.00342676
-0.000265655
0.000107265
0.00357326
-0.000270758
6.93858e-05
0.00376242
-0.000235455
0.000134991
0.000257556
-0.000137641
0.000182509
-0.000531762
-0.00016994
3.35294e-05
0.0017794
-8.70156e-05
-0.000208786
0.00292447
-7.53427e-05
1.43942e-05
0.00280998
-0.000166105
6.08194e-05
0.0029367
-0.000229509
1.1481e-05
0.00289308
-0.00021635
0.000109932
0.00273019
-0.000160323
0.000133809
0.00282115
-0.000104785
0.000142215
0.00238644
-6.6147e-05
4.2974e-05
-0.000668704
-7.40067e-05
2.10842e-05
-0.00127191
-0.00013554
1.20088e-05
0.000574506
-9.79271e-05
-5.20549e-05
0.00144153
-7.12564e-05
-9.34734e-06
0.00108288
-6.96546e-05
5.01964e-07
0.0014978
-5.80785e-05
1.74986e-05
0.00199349
-5.16154e-05
5.17429e-05
0.00167326
-4.23673e-05
6.08921e-05
0.00146952
-2.60366e-05
7.64456e-05
0.00105121
-1.88131e-05
2.70347e-05
0.000556515
-2.63799e-05
-0.00168435
0.00270103
1.70167e-05
-0.00262145
-0.00150099
0.00256334
6.17963e-05
-0.00132211
0.00361857
0.000130846
-0.00163599
0.00296939
8.30959e-05
-0.00117683
0.00422763
-6.48989e-06
-0.00115939
0.00446206
6.92017e-05
-0.00171484
0.00333623
9.39239e-05
-0.00139612
0.00397034
0.000229788
-0.000857484
0.00504179
0.000471978
-0.000668203
0.00497192
0.000407524
-0.00131807
0.00377136
0.000220181
-0.00151229
0.00424226
0.000395548
-0.000986298
0.00478297
0.000759426
-0.000767061
0.00530095
0.000858374
-0.000714057
0.00559882
0.000852861
-0.00131267
0.00455275
2.75963e-05
-0.00120707
0.00547204
0.000401617
-0.000606637
0.00637291
0.000714201
-0.000338057
0.00645894
0.000872753
-0.000456184
0.00683486
0.000879859
-0.000172011
0.00699643
0.000997531
-0.000816181
0.00653399
2.37638e-05
-0.000839065
0.00693307
0.000902144
-0.000280122
0.00652556
0.000932156
-0.00010814
0.00661135
0.000907607
-0.000149656
0.00676655
0.00113799
7.85414e-05
0.0071894
0.00102153
0.000253666
0.0068462
0.00102297
-0.000141478
0.0062403
0.000113363
-0.0002049
0.00449019
0.000501821
-0.000342751
0.00495827
0.000805654
-7.01936e-05
0.00525678
0.000875789
0.000190391
0.00501379
0.00106738
8.57212e-06
0.0035397
0.00130138
0.0001756
0.00257465
0.00115498
0.000135482
0.00323515
0.000869402
0.000167855
0.00345212
0.0001707
0.000108774
0.0019638
0.000299956
-0.000187253
0.00230183
0.000370632
-6.57379e-05
0.00265943
0.000380144
9.17977e-06
0.0021335
0.00028943
-3.16866e-06
0.00166683
0.000302372
7.74194e-05
0.0028567
0.000315186
0.000193876
0.00399507
7.61371e-05
0.000140683
0.00385583
-0.000198332
0.000161275
0.000878381
-7.98764e-05
0.000241404
0.0015185
7.75576e-05
-0.000215629
0.00277554
0.000226485
-0.000232531
0.0027456
0.000169287
5.39343e-06
0.00273955
0.000101069
0.00013394
0.0035169
-0.00011734
8.56947e-05
0.00348235
-0.000252417
0.000121114
0.00356095
-0.000264529
0.000120335
0.00373117
-0.000226033
9.64294e-05
0.00370896
-0.000170065
0.000124444
0.000323763
-0.000147677
0.000150917
-0.000617545
-0.000181691
2.16268e-05
0.00172517
-0.000125326
-0.000151861
0.0030503
-0.000113041
2.83749e-05
0.002876
-0.000179095
4.85163e-05
0.00294829
-0.000225707
2.52072e-05
0.00287712
-0.000221256
0.000118363
0.00260964
-0.000162423
0.000149401
0.00266928
-9.69664e-05
0.000160159
0.00225288
-5.49357e-05
0.000100504
0.00170955
-1.26846e-05
3.5075e-05
-0.000633039
-7.07404e-05
9.68558e-06
-0.00121959
-0.000136019
2.81129e-06
0.000536682
-0.000100527
-4.13176e-05
0.00145749
-7.25669e-05
1.64545e-06
0.00108051
-7.05399e-05
1.03453e-05
0.00147352
-5.57233e-05
2.75458e-05
0.00196096
-5.30889e-05
5.64338e-05
0.00160701
-4.17975e-05
6.44641e-05
0.00138793
-2.52378e-05
7.84921e-05
0.000966925
-2.02443e-05
3.90985e-05
0.000526882
-2.82783e-05
-1.86375e-05
0.000225753
-2.10566e-05
-0.00165665
0.00226533
0.000152434
-0.00244546
-0.00161053
0.00280976
8.0704e-07
-0.00143162
0.00318795
7.30164e-05
-0.00313444
-0.00174687
4.74528e-05
-0.00163641
0.00251789
4.5869e-05
-0.00129472
0.0037239
7.43512e-05
-0.00100985
0.00377805
8.51212e-05
-0.00174526
0.00284781
0.000151998
-0.00107819
0.0039783
1.44941e-05
-0.00103127
0.00455455
7.47986e-05
-0.000708098
0.00480612
0.00027853
-0.0015067
0.00332235
0.000202516
-0.00154877
0.00389465
0.00020609
-0.000782617
0.00463646
0.000431435
-0.000606427
0.00483777
0.000445491
-0.000482717
0.00546629
0.000478583
-0.00136168
0.00377798
4.23846e-05
-0.00147117
0.004349
0.000377545
-0.00108788
0.00493838
0.000721383
-0.000602801
0.00542916
0.000895957
-0.00059783
0.00574412
0.00085472
-0.000152477
0.00610967
0.000944878
-0.00116079
0.00481845
7.89125e-05
-0.00122774
0.00550008
0.00038823
-0.000574856
0.00640806
0.000661203
-0.00032185
0.00656151
0.000825347
-0.000314863
0.00696167
0.000911153
-4.96849e-05
0.00704294
0.000961579
0.000118422
0.0072017
0.00100439
-0.000728928
0.00680735
0.000314099
-0.000878618
0.00677268
0.00085787
-0.000406452
0.0064992
0.000992205
1.93978e-05
0.00643888
0.00101503
3.50726e-05
0.0065605
0.00126898
0.000132475
0.00693971
0.00126379
0.000264161
0.00658359
0.00119558
0.000135751
0.00554198
0.00103372
-1.33037e-05
0.00626423
0.000157225
-0.000236718
0.00457926
0.000369789
-8.21399e-05
0.00461728
0.000737698
0.000254641
0.00481063
0.000931428
0.00034348
0.00445183
0.00110344
5.88984e-05
0.00320532
0.00133969
3.30985e-05
0.00265585
0.0012645
0.000274973
0.00334556
0.000963486
0.00039415
0.00324319
0.000537988
0.000127421
0.00332674
0.000159231
0.000174765
0.00195408
0.000247063
-5.22442e-05
0.00224956
0.00018884
6.31542e-05
0.00251262
0.000221753
0.000156605
0.00216721
0.000195231
-8.44031e-06
0.00194557
0.000153077
0.000125174
0.00284929
0.000270308
0.000149019
0.00415569
0.000126662
0.000311492
0.00390262
-0.000161814
0.000159802
0.00373358
-0.000297293
0.000148943
0.000941424
-8.75418e-05
0.000238102
0.00130173
4.97096e-05
-0.000187619
0.00281905
0.000243293
-0.000176851
0.00292214
7.49357e-05
6.43306e-05
0.00283179
4.10889e-05
0.000240289
0.00355228
-0.000126082
8.05767e-05
0.00355164
-0.000241999
0.000127418
0.00356489
-0.000265408
9.32397e-05
0.00372934
-0.000206537
0.000133063
0.00365607
-0.000146046
0.000134208
0.0033973
-0.0001227
0.000118761
0.000392567
-0.00015249
0.000124322
-0.000678291
-0.000201567
4.28732e-05
0.00164912
-0.0001457
-0.000124526
0.00313509
-0.000126904
5.45968e-05
0.00289545
-0.000185439
5.54961e-05
0.00294966
-0.000225623
4.03081e-05
0.00285638
-0.000217734
0.000111025
0.00249927
-0.000165471
0.000144572
0.00253008
-0.000103335
0.000168544
0.00212134
-5.54773e-05
0.00014207
0.00154724
4.40069e-06
4.23391e-05
0.000693368
7.27564e-06
2.94554e-05
-0.000594685
-6.78096e-05
8.63215e-06
-0.0011637
-0.000135261
2.4911e-06
0.000499403
-0.000101231
-2.6845e-05
0.00145803
-7.42152e-05
1.46912e-05
0.00106471
-7.14517e-05
2.23951e-05
0.00143686
-5.62662e-05
3.51114e-05
0.00192075
-5.06309e-05
6.45653e-05
0.00153095
-4.15931e-05
7.31068e-05
0.00129559
-2.25683e-05
8.16726e-05
0.000881051
-2.10361e-05
4.75372e-05
0.000489545
-3.04446e-05
-1.53043e-05
0.000235251
-2.24718e-05
-1.05495e-05
0.000162265
-1.27185e-05
-0.00152201
0.00275912
-3.14924e-05
-0.00286227
-0.00172494
0.00227949
0.000100254
-0.00130232
0.00299958
6.83478e-05
-0.00304479
-0.00167714
3.43586e-05
-0.00162205
0.00280499
-9.6022e-06
-0.00142697
0.00322115
9.98605e-05
-0.00100299
0.00352856
0.000150896
-0.00361329
-0.00150272
9.86666e-05
-0.00156563
0.00233084
7.41921e-06
-0.0011796
0.00386807
3.10827e-06
-0.0010275
0.00381103
3.76034e-05
-0.000749122
0.00423437
0.00013032
-0.00175279
0.00283609
0.000257813
-0.00113557
0.0036177
9.93998e-05
-0.000830534
0.00455538
6.1579e-05
-0.000680114
0.00468379
0.000270815
-0.000447178
0.00450745
0.000339364
-0.00149701
0.00323541
0.000222268
-0.00171525
0.0040975
0.000243741
-0.0010728
0.00445532
0.00037215
-0.000637829
0.00485625
0.000447988
-0.000537942
0.00528042
0.000571473
-0.000239236
0.00542236
0.000910391
-0.00134145
0.00393103
2.7609e-05
-0.00133294
0.00422559
0.000270998
-0.00103939
0.00518533
0.000595124
-0.000609806
0.0055415
0.000897001
-0.000427323
0.00585262
0.000899915
-0.00015688
0.0060827
0.000988885
1.35135e-05
0.00607371
0.00112452
-0.00100141
0.00506538
2.55592e-05
-0.00130345
0.00559405
0.000409769
-0.000627594
0.00637697
0.000640456
-0.000294469
0.00666431
0.000872263
-1.49349e-05
0.00689716
0.000939858
6.96787e-05
0.00706495
0.000951932
0.000265758
0.00716821
0.000993472
0.0002921
0.00667029
0.00105488
-0.000533374
0.00692581
0.000401608
-0.00096518
0.00699091
0.000824335
-0.000184328
0.00645994
0.000999322
0.00017339
0.00640966
0.00110267
0.000184698
0.00654793
0.00118639
0.000216973
0.00676629
0.00128432
0.000210211
0.0064153
0.00125496
0.000223861
0.00552179
0.00126688
0.000407609
0.00478929
0.00105175
6.34922e-05
0.00613969
0.000188467
-0.000110375
0.00474441
0.000277215
0.000272973
0.00401461
0.000647243
0.000505042
0.00416838
0.000938057
0.000501788
0.00397293
0.00106515
0.000269948
0.00272644
0.00130393
1.98298e-05
0.00279329
0.0013076
0.000336493
0.00328692
0.00113567
0.00070528
0.00317751
0.00063538
0.000290061
0.00285264
0.000398806
6.03481e-05
0.00331451
0.000100821
0.000218711
0.00194172
0.000190982
0.000114598
0.00204853
0.000145877
6.99238e-05
0.0023756
7.90883e-05
0.000166417
0.00229402
-7.14816e-06
0.000202269
0.00204976
0.000129059
4.2881e-05
0.00285895
0.000181108
0.000138387
0.00422179
0.000193231
0.000137876
0.00411192
-0.000127268
0.000220167
0.00374821
-0.000263545
3.97168e-05
0.0036755
-0.000219615
0.000151751
0.000993511
-8.50756e-05
0.000251405
0.00108965
-2.5401e-06
-0.000130943
0.00286898
0.0001736
-0.000143064
0.00305939
0.000124587
4.56745e-05
0.00292172
-6.07315e-06
8.72078e-05
0.00369342
-0.00013177
0.000103675
0.00357044
-0.000208251
0.000112929
0.0035747
-0.000253715
0.000179478
0.00365144
-0.000222411
0.000179614
0.0035695
-0.00013103
0.000150235
0.00335134
-0.000108255
0.000205989
0.0028473
-0.000103457
0.000119426
0.000449224
-0.000146629
0.000112716
-0.000713366
-0.0002215
5.11267e-05
0.00156035
-0.000161435
-7.05613e-05
0.00318094
-0.000147833
9.56102e-05
0.00286588
-0.000178254
7.13564e-05
0.00294032
-0.000225054
6.7508e-05
0.00281382
-0.000215458
0.000125352
0.0023909
-0.000170152
0.000145927
0.00239813
-0.000106334
0.000166913
0.00199527
-6.25084e-05
0.000162889
0.0013698
6.61265e-06
4.41462e-05
0.000610784
2.7534e-05
8.8982e-05
0.000362605
-2.44176e-05
2.50589e-05
-0.000554551
-6.51923e-05
1.27604e-05
-0.00111118
-0.000133085
5.5869e-06
0.000459538
-0.000100983
-1.74602e-05
0.00144796
-7.37047e-05
1.60574e-05
0.00104676
-7.23265e-05
3.13003e-05
0.00139004
-5.59313e-05
4.16186e-05
0.00187216
-4.92861e-05
7.62944e-05
0.00144537
-4.13542e-05
8.01714e-05
0.0011962
-2.2374e-05
8.99968e-05
0.000790034
-2.15484e-05
5.00772e-05
0.000451138
-3.27066e-05
-1.232e-05
0.00024105
-2.39233e-05
-1.00986e-05
0.000163583
-1.3691e-05
-1.14098e-05
0.000407201
-1.60013e-05
-0.00158269
0.0026923
3.9712e-05
-0.00267134
-0.00160107
0.00269617
-6.09171e-05
-0.00122528
0.00324025
3.00807e-05
-0.00337886
-0.00165271
-1.38373e-05
-0.00169793
0.00223438
0.000120992
-0.00145825
0.00305781
7.32978e-05
-0.00107842
0.00354168
0.00015212
-0.00355003
-0.00140578
8.05493e-05
-0.00164515
0.0028903
-5.78646e-06
-0.00132647
0.00323616
0.000122262
-0.00104346
0.00345534
0.000189041
-0.000819837
0.00378224
0.000219414
-0.00378004
-0.00104427
0.000162419
-0.00168659
0.00228648
-2.18439e-05
-0.00112886
0.00392854
-5.97575e-05
-0.00098428
0.00394705
2.08427e-05
-0.000788928
0.00423152
0.00014926
-0.000603352
0.00420351
0.000283557
-0.00170621
0.00287362
0.000171681
-0.00122475
0.0032711
0.000113909
-0.000978551
0.00446744
9.30973e-05
-0.000683401
0.00453823
0.000252704
-0.000506725
0.00444517
0.000301883
-0.000435437
0.00480029
0.000604135
-0.00154548
0.00321076
0.000228683
-0.00154872
0.00425884
0.000276718
-0.00105107
0.00438555
0.00032519
-0.000606562
0.00482082
0.00040433
-0.000340305
0.00506319
0.000578204
-0.000355138
0.00527086
0.000921231
3.12441e-05
0.00546411
0.00101043
-0.0012308
0.00403237
0.000128053
-0.00156101
0.00430838
0.000202375
-0.000997368
0.00529824
0.000527871
-0.000642749
0.00566239
0.000822511
-0.000159167
0.00585748
0.00103637
-0.000128712
0.00608487
0.00109614
0.000129821
0.00601586
0.00118268
0.000238314
0.00614109
0.00118401
-0.000946672
0.00535628
0.000122391
-0.00145932
0.00578524
0.000328511
-0.000453184
0.00642195
0.000633644
-0.00019162
0.00676545
0.000904331
2.82329e-05
0.00691266
0.00101323
0.000142789
0.00694992
0.00112908
0.00033824
0.00699166
0.00100045
0.000244785
0.0065087
0.00113414
0.000385525
0.00604632
0.00115864
-0.000435256
0.00698692
0.000437638
-0.000732475
0.00719531
0.000819302
-0.000192261
0.00675954
0.000989968
0.000248239
0.00654682
0.00111897
0.000350986
0.00653981
0.00126159
0.000499545
0.00662047
0.00110261
0.000114538
0.00641731
0.00118761
0.000305267
0.00559487
0.0012131
0.000607708
0.00503475
0.00111899
0.000118605
0.00396693
0.00119339
-1.83029e-05
0.00601428
0.000204067
-2.61933e-05
0.0048412
0.000336582
0.000394561
0.00345883
0.000553027
0.000461041
0.00356969
0.000854815
0.000445476
0.0037564
0.000875526
0.000169754
0.00266886
0.00115525
6.77393e-05
0.00279046
0.0012819
0.000364307
0.00320732
0.00116127
0.000459105
0.00315446
0.00083749
0.000351228
0.00290998
0.000446977
0.000137724
0.00316131
0.000219637
-5.28467e-05
0.00340418
0.00011493
0.000269144
0.001896
0.000128796
2.23469e-05
0.00192707
0.000159156
-2.40664e-05
0.00236783
3.46507e-05
-2.16549e-05
0.00230682
0.00013362
-0.000124077
0.00229325
-3.93507e-05
4.27551e-05
0.0029063
0.000142632
0.000136021
0.00421463
0.000165185
0.000261875
0.00422558
-2.83355e-06
0.000178791
0.00384799
-0.000226225
-1.03983e-05
0.00370761
-0.000135027
0.000161742
0.00395237
-0.000169089
0.000171946
0.00103384
-9.28501e-05
0.000257508
0.00087385
-1.40698e-05
-4.15357e-05
0.00286286
9.62389e-05
-5.65005e-05
0.00320357
1.53604e-05
4.59464e-06
0.00314648
-9.15827e-06
0.00028214
0.0036204
-0.00014383
0.000138628
0.00355126
-0.000183702
0.00013887
0.00357329
-0.000220358
0.000191668
0.00357236
-0.00022038
0.000117987
0.00352086
-0.000124852
0.000159254
0.00330037
-7.64198e-05
9.37637e-05
0.00276742
-7.79947e-05
0.00018139
0.00215785
-7.78047e-05
0.00011199
0.000504378
-0.000142085
0.000103219
-0.00070605
-0.000244402
5.69718e-05
0.00147213
-0.000184666
-4.91331e-05
0.00321001
-0.000158832
8.97364e-05
0.0028296
-0.000185228
9.26778e-05
0.00292423
-0.000223547
8.40312e-05
0.00276213
-0.000215774
0.000135842
0.0022973
-0.000181408
0.000165544
0.00224813
-0.000105526
0.000176452
0.00186073
-5.82408e-05
0.000174015
0.00117861
4.74071e-06
5.79253e-05
0.000512922
3.423e-05
4.3661e-05
0.000350505
-1.4125e-05
0.000112228
0.000987356
-5.76099e-05
2.13336e-05
-0.000512657
-6.32273e-05
1.40234e-05
-0.0010595
-0.000130898
3.23888e-06
0.00042362
-0.000100405
-9.92624e-06
0.0014306
-7.36939e-05
2.50702e-05
0.00102106
-7.30763e-05
3.58784e-05
0.00133944
-5.76052e-05
4.6837e-05
0.0018156
-4.62176e-05
8.67064e-05
0.0013495
-4.01133e-05
8.80951e-05
0.00108968
-2.29278e-05
0.000101134
0.000691028
-2.45011e-05
4.81081e-05
0.000416166
-3.46838e-05
-7.11865e-06
0.000240308
-2.48464e-05
-1.06724e-05
0.000164905
-1.4573e-05
-6.31892e-06
0.000415937
-1.61082e-05
1.97701e-06
0.000978092
-1.81035e-05
-0.00150413
0.00248373
-0.000160026
-0.00240226
-0.00160307
0.00268155
1.27455e-05
-0.0012066
0.00315198
2.25582e-05
-0.0031535
-0.00169258
1.84577e-05
-0.00264993
-0.00156219
0.00255272
7.71113e-06
-0.0014192
0.0031482
-7.91535e-06
-0.00110349
0.00351612
7.53678e-05
-0.00353633
-0.00148485
6.92787e-05
-0.00175667
0.00221404
0.000131857
-0.00133745
0.0030914
9.83789e-05
-0.00110815
0.00350689
0.00017277
-0.00102818
0.00371959
0.000292866
-0.003652
-0.00117438
0.000179567
-0.00161389
0.00283615
-1.85512e-05
-0.00130358
0.00322069
0.000184403
-0.0011398
0.00350414
0.00022898
-0.000794545
0.00369085
0.000286043
-0.000736508
0.00383095
0.000371034
-0.00384942
-0.00103151
0.000238172
-0.00170007
0.00229159
-1.12499e-05
-0.00110002
0.00385813
-7.61707e-05
-0.00101227
0.00391035
1.06579e-05
-0.000847074
0.00421842
0.000197616
-0.000662162
0.00420576
0.000302452
-0.000681639
0.00434216
0.000474185
-0.00171557
0.0028822
0.000161509
-0.00128028
0.00319353
-1.91896e-05
-0.00103621
0.00449364
7.2853e-05
-0.000719484
0.00450547
0.000238779
-0.000385736
0.00440422
0.000339078
-0.000660262
0.00475214
0.000655164
-7.12554e-05
0.00471491
0.000880185
-0.00151314
0.00334059
0.000152504
-0.00165713
0.0041678
0.00041585
-0.0010809
0.00435926
0.00038654
-0.000584827
0.00469695
0.00039114
-0.000489202
0.00519019
0.000607361
-0.000433767
0.00526365
0.000890461
0.000127962
0.00527177
0.00111543
0.000225255
0.0052492
0.00114856
-0.00125375
0.0041549
0.000184543
-0.0016145
0.00436839
0.000223225
-0.000899816
0.00539556
0.000551683
-0.000518627
0.00575933
0.000757943
-0.000170087
0.00593514
0.000943164
-1.01287e-06
0.0060508
0.00121424
0.000155367
0.00598882
0.00130606
0.000251444
0.00605922
0.00125789
0.000312494
0.00598404
0.00119389
-0.000906243
0.00562115
0.000206121
-0.00121802
0.00604289
0.000350282
-0.000608987
0.00653961
0.000627584
-4.42295e-06
0.00675671
0.000895049
0.000361592
0.00675724
0.00104915
0.000424052
0.00687943
0.00115922
0.000205613
0.0067596
0.00127006
0.000210899
0.00631819
0.00128533
0.000380112
0.00622161
0.00118645
0.000284428
0.00525236
0.00116321
-0.000474566
0.00700043
0.000442748
-0.000447546
0.00730548
0.000748822
9.8981e-05
0.00695579
0.00091863
0.000261282
0.00669253
0.00104402
0.000428522
0.00642846
0.00124727
0.00037441
0.00635271
0.00132469
0.000298135
0.00613625
0.00115327
0.000423973
0.00557821
0.00114461
0.000463776
0.00508902
0.00115416
0.000392753
0.00387999
0.00116441
0.000231847
0.00358597
0.00115419
-0.000373801
0.00610528
0.000229949
6.99031e-05
0.00483884
0.000405664
0.000172768
0.00323989
0.000405103
0.000268561
0.00308969
0.000740399
0.000297842
0.00365414
0.000637573
4.42606e-05
0.0025127
0.000863344
-2.29244e-05
0.00285046
0.00116093
0.000274637
0.00321035
0.00114026
0.000418601
0.00323604
0.000922956
0.000292487
0.00311979
0.000513979
0.000152665
0.00317606
0.000269163
0.000237572
0.00379756
1.38363e-05
-3.18405e-06
0.00341815
0.000161165
0.000301428
0.00185375
0.000113268
-1.84973e-05
0.00188134
0.000151484
1.62097e-06
0.00243213
3.67306e-05
-0.000203731
0.00255096
-1.16654e-06
0.000164508
0.00247841
6.60835e-05
3.95868e-05
0.00287
9.59902e-05
0.000203931
0.00416466
0.000127538
0.000285712
0.00440222
-0.00010549
4.59291e-05
0.0040237
-0.000106495
2.40514e-05
0.00379286
-0.000176274
-4.94272e-05
0.00405349
-9.2963e-05
5.32694e-05
0.00378428
-0.000126443
0.000161154
0.001049
-6.43249e-05
0.00019333
0.000726957
-3.60681e-05
-1.63203e-05
0.00285087
7.12095e-05
-4.75821e-05
0.00333673
-3.84769e-05
0.000271589
0.00304773
-6.77396e-05
0.000176472
0.00366663
-0.000139189
0.000130234
0.00353551
-0.000174289
0.000137097
0.00354582
-0.000157487
0.000156132
0.00355104
-0.000189627
0.000283062
0.00329703
-0.000103158
0.000167355
0.00321879
-3.66172e-05
0.000190699
0.00259006
-3.18277e-05
7.55903e-05
0.00209259
-4.46672e-05
0.00019877
0.00217484
-7.38136e-05
0.000110652
0.000549819
-0.00013476
8.56117e-05
-0.000659557
-0.000260166
4.47543e-05
0.001397
-0.000210786
-1.56311e-05
0.00320304
-0.000171995
0.000110202
0.00277815
-0.000192521
8.93901e-05
0.0028959
-0.000210407
9.364e-05
0.00270433
-0.000212547
0.000140202
0.00221631
-0.000188275
0.00019378
0.0020718
-0.000110768
0.000200962
0.00169293
-3.7554e-05
0.000156808
0.00100301
8.65804e-06
6.58358e-05
0.000407101
3.76066e-05
-1.25741e-05
0.000392764
-6.12813e-06
4.15097e-05
0.000965557
-4.01552e-05
0.000115787
0.00177543
-4.88173e-05
2.00927e-05
-0.000470607
-6.21427e-05
1.41959e-05
-0.00100805
-0.000128879
-2.79658e-06
0.000395075
-9.95571e-05
-2.92276e-06
0.00140824
-7.51273e-05
3.24004e-05
0.000988984
-7.40152e-05
3.97479e-05
0.00128504
-5.84286e-05
5.62135e-05
0.00174928
-4.7497e-05
9.2415e-05
0.00125013
-3.9268e-05
9.99664e-05
0.000974846
-2.52433e-05
0.000109173
0.000586865
-2.79383e-05
4.23954e-05
0.000385493
-3.62241e-05
-4.14375e-06
0.000234742
-2.49742e-05
-1.25451e-05
0.000168066
-1.54624e-05