/*--------------------------------*- C++ -*----------------------------------*\
  =========                 |
  \\      /  F ield         | OpenFOAM: The Open Source CFD Toolbox
   \\    /   O peration     | Website:  https://openfoam.org
    \\  /    A nd           | Version:  7
     \\/     M anipulation  |
\*---------------------------------------------------------------------------*/
FoamFile
{
    version     2.0;
    format      ascii;
    class       volVectorField;
    location    "10";
    object      U;
}
// * * * * * * * * * * * * * * * * * * * * * * * * * * * * * * * * * * * * * //

dimensions      [0 1 -1 0 0 0 0];

internalField   nonuniform List<vector> 
18750
(
(1.75651 -0.418943 -0.4925)
(-0.251545 -0.659326 0.416111)
(1.85442 -0.315762 -0.666199)
(3.46727 0.0502816 -2.27153)
(-1.15962 0.362398 -1.10558)
(0.110215 -0.494273 0.282874)
(2.82707 0.15343 -0.458295)
(1.83542 -0.225836 -0.806909)
(3.32788 0.0746278 -2.68975)
(-0.140079 0.687199 -1.62516)
(-3.02818 2.29209 0.327037)
(-0.919272 0.653077 -0.586161)
(0.142037 2.07733 0.375108)
(0.623453 -0.262893 0.0299139)
(3.11408 0.407526 -0.802958)
(0.14514 1.33967 0.175675)
(1.70486 -0.14029 -0.95666)
(2.99026 0.0591237 -3.02534)
(-0.116237 0.672836 -1.73421)
(-0.79347 0.664777 -1.4294)
(-3.03955 2.69442 -0.60323)
(-2.67711 2.39724 -0.162002)
(-0.569421 2.22688 1.78258)
(-0.483148 0.809196 0.102088)
(-0.0475527 1.78142 0.372023)
(-1.29716 1.24674 3.86579)
(0.916809 -0.079311 -0.204222)
(3.20019 0.599392 -1.16384)
(0.12125 1.37534 -0.0597571)
(-1.32162 1.13813 -0.347219)
(1.55824 -0.1024 -1.00415)
(2.54258 -0.0111892 -3.23514)
(-0.0738891 0.657251 -1.87392)
(-0.737345 0.663278 -1.50342)
(-0.699695 0.542385 -1.64855)
(-3.10476 3.47138 -0.046971)
(-3.28837 2.54457 -0.541553)
(-0.753577 3.48787 1.35683)
(-2.07281 2.64543 0.0277651)
(0.0415614 2.14307 1.36063)
(-1.81656 2.5493 1.97346)
(-0.274283 0.898208 0.35541)
(-0.0481432 2.15938 0.370705)
(-1.12498 1.42825 3.73679)
(-1.22317 0.900358 2.12063)
(1.04402 0.129017 -0.457998)
(2.99782 0.746349 -1.5439)
(0.131417 1.49156 0.0493893)
(-1.36584 1.18406 -0.470276)
(-0.527653 1.60658 -0.556592)
(1.39217 -0.06841 -0.981513)
(2.08509 -0.119249 -3.32896)
(-0.0406723 0.640822 -2.03245)
(-0.697638 0.687447 -1.57774)
(-0.67469 0.557427 -1.66165)
(-0.431584 0.971432 -1.4651)
(-1.90707 3.16985 0.372593)
(-3.24015 3.22213 -0.0932211)
(-1.35116 4.46511 0.804834)
(-2.75222 2.49274 -0.85176)
(-1.0907 3.32674 1.43623)
(-0.403893 3.53857 2.0045)
(-0.764553 2.95656 0.770442)
(0.924593 2.10147 0.705395)
(-1.25934 2.4181 2.02729)
(-1.24651 1.8105 2.69109)
(0.0703166 0.988469 0.412894)
(0.0710957 1.64479 0.347256)
(-1.12847 1.37492 3.28044)
(-1.28112 1.03613 2.03819)
(-0.383394 1.00312 0.871069)
(0.996895 0.277528 -0.655887)
(2.57264 0.749646 -1.84063)
(-0.0388533 1.51912 -0.0210151)
(-1.47767 1.22498 -0.437703)
(-0.595638 1.58604 -0.588494)
(-0.535293 1.74457 -1.39734)
(1.23399 -0.0465776 -0.904814)
(1.66161 -0.244931 -3.33667)
(-0.031576 0.61444 -2.21315)
(-0.699691 0.702859 -1.57243)
(-0.634353 0.554161 -1.70801)
(-0.419652 0.977419 -1.47307)
(-0.198322 1.36989 -1.18337)
(-2.48686 2.42352 0.367086)
(-2.3229 2.82276 0.32461)
(-1.83208 3.30272 0.427832)
(-3.31048 2.85434 -0.375273)
(-1.51137 4.3732 0.943001)
(0.0546298 4.31942 1.33926)
(-1.67265 2.82557 -0.987226)
(-0.516619 3.17945 1.96629)
(-0.665006 3.40217 2.09446)
(-0.789296 3.58876 1.96839)
(-0.274863 2.94354 0.862604)
(0.924313 1.98093 0.672788)
(-0.384914 2.19135 2.02283)
(-0.865504 1.72231 2.98796)
(-1.00816 0.885302 2.26142)
(0.387116 0.995342 0.348096)
(0.142067 1.54104 0.309818)
(-1.06481 1.35975 2.93933)
(-1.27454 1.06166 1.85937)
(-0.475364 1.15771 1.10663)
(-0.499025 1.75569 0.271642)
(0.800334 0.36484 -0.794683)
(1.956 0.616315 -1.99371)
(0.10407 1.39713 -0.299468)
(-1.51824 1.28197 -0.249112)
(-0.633013 1.62478 -0.627772)
(-0.549093 1.79447 -1.39449)
(-0.137472 1.9376 -1.55947)
(1.09023 -0.0324048 -0.795984)
(1.30112 -0.369767 -3.28936)
(-0.0554799 0.571416 -2.40788)
(-0.753179 0.697195 -1.47213)
(-0.610705 0.557371 -1.72296)
(-0.377776 0.958325 -1.50667)
(-0.187861 1.36906 -1.17608)
(0.281326 1.26701 -1.09879)
(-2.50945 2.06165 0.0297779)
(-2.60249 2.31483 0.349431)
(-2.3514 2.7611 0.477167)
(-2.34866 2.76785 0.264851)
(-2.04452 3.33711 0.283331)
(-1.11772 3.772 1.09539)
(-3.36787 2.78446 -0.501948)
(-1.73989 4.21349 1.11269)
(-0.786641 4.3067 1.63203)
(-0.421387 4.43095 1.23493)
(-1.3868 3.07766 -0.735917)
(-0.261628 3.24774 1.92632)
(-0.631858 3.21277 2.27632)
(-0.729189 3.5482 2.25112)
(-0.24209 3.93246 2.13223)
(0.0524808 2.95358 0.490618)
(0.488409 1.82701 1.01487)
(0.0788798 1.93645 1.95107)
(-0.959961 1.68875 2.83449)
(-1.10215 0.890044 2.32346)
(-0.279277 0.692323 1.67615)
(0.599454 1.03714 0.211559)
(0.413046 1.73042 0.120256)
(-1.11247 1.28976 2.55371)
(-1.37281 1.16456 1.03665)
(-0.582035 1.43985 1.07838)
(-0.404086 1.82973 0.302632)
(-0.347798 2.01457 -1.21403)
(0.606515 0.389206 -0.708309)
(1.30511 0.349965 -1.98846)
(0.103664 1.49379 -0.234154)
(-1.57204 1.29626 -0.32855)
(-0.634916 1.68846 -0.688342)
(-0.654759 1.78055 -1.48618)
(-0.195488 1.96096 -1.5949)
(0.383961 2.02604 -1.4286)
(0.960792 -0.0238523 -0.669561)
(1.00899 -0.477586 -3.21214)
(-0.121308 0.501645 -2.59132)
(-0.785807 0.684964 -1.4366)
(-0.584474 0.553493 -1.70993)
(-0.457586 0.974191 -1.43643)
(-0.200986 1.3752 -1.15118)
(0.263595 1.2585 -1.12462)
(0.551662 1.15244 -0.798192)
(-1.80907 2.18682 -0.0492217)
(-2.60134 1.8414 0.0554259)
(-1.85405 2.96841 0.406876)
(-2.72329 2.2103 0.266973)
(-2.37118 2.7116 0.307406)
(-1.81256 3.2621 0.879718)
(-2.53504 2.48873 0.178459)
(-2.49776 3.11714 0.0851302)
(-0.652347 3.87811 1.29786)
(-0.806302 4.04604 1.67176)
(-3.26608 2.89445 -0.613885)
(-1.94506 4.1523 1.37338)
(-1.03659 4.18978 1.73323)
(-0.612788 4.31416 1.57688)
(-0.972508 4.57458 1.61659)
(-1.16287 3.43144 -0.337497)
(-0.294061 3.22511 1.72392)
(-0.492449 3.26012 2.27729)
(-0.713312 3.51281 2.43941)
(-0.146974 3.90722 2.01026)
(0.0696533 2.90097 1.95013)
(0.207859 2.90554 0.245253)
(-0.26048 1.45781 1.2979)
(-0.302458 1.69731 1.86975)
(-1.00123 1.59028 2.67053)
(-1.075 1.0054 2.07714)
(-0.260261 0.818999 1.17838)
(0.0279856 1.7538 1.81741)
(0.72275 1.03376 0.058817)
(0.723358 1.88597 -0.269458)
(-1.25921 1.31529 2.14032)
(-1.49496 1.11862 0.95641)
(-0.566691 1.49624 0.919009)
(-0.0619911 2.0357 0.401278)
(-0.249766 2.07364 -1.43073)
(0.287556 2.41715 -1.25687)
(0.419431 0.388748 -0.650365)
(0.809831 0.127669 -1.73516)
(-0.0103886 1.45475 -0.458865)
(-1.57186 1.3485 -0.521916)
(-0.651694 1.72408 -0.835772)
(-0.506167 1.86901 -1.57828)
(-0.202359 1.94809 -1.66651)
(0.406803 2.00346 -1.44688)
(0.474495 2.04618 -1.20706)
(0.843849 -0.0197533 -0.539678)
(0.79591 -0.559974 -3.12053)
(-0.224527 0.39844 -2.74015)
(-0.794525 0.689804 -1.43576)
(-0.527246 0.567717 -1.71809)
(-0.283577 0.933286 -1.45598)
(-0.234328 1.35382 -1.15978)
(0.274888 1.25918 -1.1184)
(0.518659 1.13858 -0.781328)
(0.638437 0.820222 -0.339669)
(-1.79948 1.73019 -0.0102007)
(-2.16697 1.78499 0.0281422)
(-1.52174 2.81149 0.0195867)
(-2.42586 1.88976 0.124931)
(-1.88868 2.88777 -0.0576576)
(-1.11678 3.44231 0.419674)
(-2.63407 2.16724 0.284973)
(-2.61763 2.40788 0.245349)
(-2.07891 3.06031 0.934401)
(-1.44244 3.36986 1.24305)
(-2.80693 2.23221 0.382381)
(-2.67412 3.00412 0.199107)
(-0.807779 3.95345 1.34762)
(-0.836981 4.02428 1.58564)
(-1.70932 4.18305 1.49304)
(-3.29575 2.91212 -0.297963)
(-2.18821 4.09092 1.61475)
(-1.18541 4.11667 1.91605)
(-0.860143 4.33264 1.61065)
(-1.04093 4.56795 1.74668)
(-0.0579465 4.6549 2.43472)
(-1.04395 3.74798 -0.409164)
(-0.581922 3.07257 1.56324)
(-1.00025 3.25917 2.07347)
(-1.0772 3.45763 2.36711)
(-0.654651 3.77131 1.73592)
(0.0520863 2.94649 2.34894)
(0.130008 1.80635 3.0679)
(-0.140679 2.7515 0.218072)
(-0.502405 1.27372 1.16679)
(-1.16242 1.27914 1.6195)
(-1.37636 1.49503 2.27)
(-1.20524 1.08036 1.67499)
(-0.19772 0.815184 1.25217)
(0.203754 1.9216 1.48043)
(0.376016 2.54464 0.210382)
(0.727259 1.09057 -0.00110612)
(0.947858 1.8293 -0.581282)
(-1.35999 1.29708 1.87055)
(-1.57729 1.28037 1.00139)
(-0.598506 1.55163 0.788245)
(-0.504302 2.18035 0.0556813)
(-0.400004 2.27786 -1.08614)
(0.278303 2.42137 -1.29739)
(0.502229 2.52639 -1.14097)
(0.260631 0.366491 -0.637684)
(0.558248 -0.0353066 -1.52088)
(0.0651543 1.40672 -0.640909)
(-1.90132 1.27846 -0.0200797)
(-0.635186 1.79077 -0.943886)
(-0.453385 1.99122 -1.52281)
(-0.191719 1.95688 -1.74261)
(0.286708 1.96386 -1.44368)
(0.522269 2.01465 -1.128)
(0.822383 1.6771 -0.623381)
(0.738229 -0.019456 -0.41787)
(0.673915 -0.613151 -3.02736)
(-0.357119 0.26778 -2.84383)
(-0.795042 0.693109 -1.43641)
(-0.506196 0.57752 -1.73482)
(-0.417033 1.01672 -1.34263)
(-0.238658 1.36673 -1.18762)
(0.29674 1.26644 -1.0708)
(0.493542 1.10594 -0.828165)
(0.667985 0.814698 -0.324427)
(0.225361 0.390392 -0.500675)
(-1.55086 1.69557 -0.00792435)
(-1.82282 1.72854 -0.0270879)
(-1.38492 2.31903 0.153254)
(-2.04906 1.83919 0.00934153)
(-1.6607 2.68906 0.0893342)
(-1.71421 2.8693 -0.100089)
(-2.53193 1.60168 0.144137)
(-2.34617 2.33706 -0.00180118)
(-0.990729 3.45074 0.555558)
(-1.00356 3.30609 0.788148)
(-2.52524 2.06069 0.366949)
(-2.71411 2.26365 0.251585)
(-2.43588 2.82745 0.91601)
(-1.70099 3.32021 1.27783)
(-1.27441 3.70181 1.22355)
(-2.88351 2.19803 -0.125626)
(-2.87796 2.95033 0.197609)
(-1.0632 4.06317 1.17306)
(-0.827869 4.13086 1.51267)
(-1.02227 4.48084 1.43028)
(-0.499662 4.60395 1.65074)
(-2.80171 3.24197 -1.52234)
(-2.59304 4.00807 1.66804)
(-1.835 4.03764 1.9855)
(-1.23619 4.32368 1.59907)
(-1.02828 4.55428 1.72959)
(-0.188925 4.85922 2.249)
(0.720323 4.52483 2.07804)
(-1.34461 3.96272 -0.332891)
(-0.709939 2.98376 1.23206)
(-1.67094 3.04081 1.77069)
(-1.22653 3.39396 2.29296)
(-0.178753 3.64793 1.76767)
(-0.605128 2.40347 3.03154)
(0.101306 1.74344 3.10789)
(0.5709 1.9862 2.3886)
(-0.916354 2.32178 0.381717)
(-0.479187 1.24703 0.885952)
(-1.54522 1.03602 1.31581)
(-1.51144 1.3859 1.92397)
(-1.2486 1.07083 1.27395)
(0.050491 1.05133 1.07097)
(0.00398476 1.88161 1.41886)
(0.153597 2.59969 0.42779)
(-0.127037 2.49364 -0.167794)
(0.623709 1.15322 -0.0125241)
(0.902442 1.70872 -0.661332)
(-1.23166 1.42243 1.68624)
(-1.55467 1.2898 1.03069)
(-0.402484 1.75359 0.91174)
(0.0767928 2.32714 0.155615)
(-0.567029 2.23161 -1.057)
(0.242682 2.43487 -1.35924)
(0.456265 2.53793 -1.13933)
(0.544176 2.48203 -0.964521)
(0.128947 0.356018 -0.653098)
(0.429796 -0.22485 -1.55599)
(0.0464047 1.30998 -0.905352)
(-1.74643 1.50092 -0.38823)
(-0.657768 1.80122 -1.05633)
(-0.563511 1.90743 -1.58738)
(-0.280185 1.94303 -1.82349)
(0.265146 1.89367 -1.43989)
(0.464312 1.94504 -1.01371)
(0.838941 1.63867 -0.497286)
(0.286119 1.20788 -0.429706)
(0.643339 -0.0228146 -0.310936)
(0.620082 -0.610157 -2.95151)
(-0.514553 0.152409 -2.91315)
(-0.786699 0.696505 -1.45326)
(-0.480416 0.585879 -1.74394)
(-0.319202 0.962807 -1.38844)
(-0.195597 1.33051 -1.27845)
(0.230351 1.23156 -1.06873)
(0.490632 1.106 -0.846811)
(0.694914 0.810656 -0.331792)
(0.261948 0.393593 -0.5473)
(-0.206828 0.140268 -0.687954)
(-1.72645 1.41857 0.204163)
(-1.5566 1.68548 -0.0475134)
(-1.41326 2.0437 0.0431739)
(-1.46912 1.7759 0.0117178)
(-2.18133 1.25305 -0.0335307)
(-1.48796 2.29479 0.155451)
(-1.08705 2.46413 0.113105)
(-2.36957 1.27026 0.150905)
(-1.763 2.54214 0.168217)
(-1.6706 2.81318 -0.107096)
(-0.889606 3.21669 0.243756)
(-2.42226 1.66529 0.282308)
(-2.56479 2.118 0.0735132)
(-1.2818 3.11157 0.564669)
(-1.02792 3.16056 0.710681)
(-0.917476 3.71502 0.206253)
(-2.78743 1.60698 0.150852)
(-2.67912 2.26739 0.266536)
(-2.3538 2.76765 0.883537)
(-1.48973 3.35405 1.31325)
(-1.22645 3.63305 1.19595)
(-0.382866 4.06798 1.35579)
(-2.89802 2.17988 -0.118435)
(-2.93857 2.88261 0.234756)
(-1.43788 4.03034 1.04123)
(-0.976625 4.22753 1.38652)
(-0.967503 4.44938 1.41892)
(-0.360979 4.61328 1.64604)
(-0.0020296 4.64271 1.7503)
(-3.05232 3.53219 -0.478051)
(-3.12547 3.74153 1.65428)
(-2.38088 3.8427 1.99105)
(-1.3041 4.16369 1.69773)
(-0.874283 4.32643 2.05892)
(-0.403516 4.63435 2.68664)
(0.205109 4.61573 1.77635)
(-0.259877 3.87431 2.19811)
(-1.54203 4.04432 -0.0230872)
(-0.994489 2.91121 0.801965)
(-1.29468 3.00602 1.45284)
(-0.595756 3.42065 2.17789)
(0.102478 3.39657 2.03742)
(-0.80547 2.11484 3.30541)
(-0.19292 1.70395 3.23509)
(0.394212 2.221 2.73224)
(0.656763 2.12488 1.79344)
(-1.3459 1.885 0.544474)
(-0.547586 1.24051 0.66)
(-1.68795 0.918683 0.954801)
(-1.51621 1.29278 1.21844)
(-0.800956 1.23403 0.610093)
(-0.238182 1.26 0.616822)
(0.349636 1.97137 0.978096)
(-0.0244184 2.68612 0.65592)
(0.0236898 2.54391 -0.0374448)
(0.0272223 2.31237 -1.15927)
(0.536517 1.16249 0.0122178)
(0.65274 1.62385 -0.7886)
(-1.47048 1.34787 1.35295)
(-1.48503 1.38723 0.498582)
(-0.505408 1.90884 0.496499)
(-0.231106 2.46503 0.00515458)
(-0.581689 2.2315 -1.11806)
(0.116999 2.45813 -1.28609)
(0.437791 2.56417 -1.02458)
(0.506021 2.5322 -0.875691)
(0.631893 2.27697 -0.636967)
(0.0361179 0.354416 -0.658699)
(0.336684 -0.295116 -1.68849)
(-0.0802689 1.38806 -1.06111)
(-1.62188 1.43145 -0.78025)
(-0.604377 1.84928 -1.1986)
(-0.649888 1.8667 -1.64749)
(-0.28499 1.95256 -1.75724)
(0.304967 1.87034 -1.45596)
(0.343465 1.86057 -0.975965)
(0.69855 1.60049 -0.459002)
(0.489238 1.12647 -0.362253)
(-0.248988 0.49503 0.207287)
(0.557701 -0.0286167 -0.220905)
(0.612593 -0.558097 -2.90365)
(-0.475456 0.0866119 -2.98713)
(-0.746352 0.701227 -1.50481)
(-0.44395 0.596045 -1.75979)
(-0.30393 0.968918 -1.40467)
(-0.222786 1.35257 -1.1732)
(0.189834 1.21022 -1.08848)
(0.507102 1.11249 -0.806629)
(0.736649 0.820196 -0.298931)
(0.3307 0.402596 -0.60107)
(-0.180059 0.142153 -0.722027)
(-0.233252 0.10591 -0.251755)
(-1.26215 1.84528 -0.177429)
(-1.77727 1.33462 0.102117)
(-1.41773 1.9076 0.0656002)
(-1.37583 1.7872 -0.0189639)
(-1.64837 1.62609 -0.0721278)
(-1.52888 1.96554 0.0530212)
(-1.06279 2.31789 0.0962763)
(-1.25952 2.10185 0.0698732)
(-2.14484 1.30653 -0.061569)
(-1.44883 2.29914 0.125304)
(-1.1866 2.37684 -0.00284813)
(-0.85123 2.77912 0.0730349)
(-2.25222 1.4391 0.351923)
(-2.10364 2.14718 0.20797)
(-1.46231 2.86005 -0.135185)
(-1.0594 3.05121 0.263972)
(-0.455411 2.99724 0.426788)
(-2.39264 1.53384 0.330848)
(-2.79582 1.87208 0.230627)
(-1.99092 2.56426 0.42657)
(-1.22617 3.00872 0.576727)
(-1.1357 3.43228 0.381104)
(-0.279431 3.69727 1.04894)
(-2.72481 1.6547 0.281787)
(-2.97607 2.01507 -0.00373543)
(-2.3418 2.78432 0.839669)
(-1.70954 3.30976 1.2166)
(-1.36027 3.60144 1.24393)
(-0.658103 3.92835 1.33762)
(0.00512835 3.98481 1.44644)
(-2.86788 2.24487 -0.122466)
(-2.96944 2.77737 0.416398)
(-1.89588 3.86291 0.962811)
(-0.991774 4.23372 1.29271)
(-0.940247 4.49537 1.35118)
(-0.452182 4.60739 1.69986)
(0.108282 4.78382 1.5746)
(0.557383 4.53813 1.72868)
(-3.01997 3.66063 0.0931698)
(-3.37762 3.47203 1.48753)
(-2.19655 3.77124 1.86813)
(-1.13923 4.06685 1.92303)
(-0.880508 4.22711 2.30629)
(-0.444907 4.5421 2.87118)
(-0.555261 4.20455 2.42446)
(0.115358 3.38466 3.14081)
(0.769557 3.22475 1.93688)
(-1.57712 4.02074 0.0556128)
(-0.926162 3.02764 0.719373)
(-0.571259 2.98682 1.14971)
(0.0622976 3.31075 2.11837)
(0.340842 3.01138 2.41331)
(-0.713863 1.90604 3.22128)
(-0.541791 1.7244 3.26713)
(0.0294438 2.22153 3.06098)
(1.15978 2.18875 1.97952)
(0.769 1.88302 0.880217)
(-1.49855 1.65875 0.603633)
(-0.454995 1.29341 0.444521)
(-1.38598 0.922873 0.826563)
(-1.35818 1.17273 0.39067)
(-0.50304 1.42139 0.273216)
(0.682711 1.45123 0.678561)
(0.0291032 2.00936 0.439882)
(-0.149805 2.80103 0.846499)
(-0.509134 2.59652 0.0471799)
(0.0117236 2.4963 -1.07021)
(0.196208 2.40156 -0.686407)
(0.413221 1.21639 0.0399973)
(0.55312 1.42356 -0.872773)
(-1.36711 1.36939 1.26759)
(-1.55237 1.34608 0.954532)
(-0.508382 1.8683 0.222096)
(-0.386864 2.45439 -0.111328)
(-0.718507 2.29295 -1.03064)
(-0.260799 2.40131 -1.13529)
(0.284931 2.57865 -1.09841)
(0.520394 2.49497 -0.790297)
(0.693571 2.2666 -0.455025)
(0.663393 1.94935 -0.572643)
(-0.0203647 0.381242 -0.611858)
(0.442722 -0.337176 -1.73737)
(-0.135026 1.22828 -1.19927)
(-1.52822 1.55708 -0.937369)
(-0.535483 2.00347 -1.12838)
(-0.593703 1.93297 -1.63448)
(-0.252209 1.95772 -1.67942)
(0.331412 1.85448 -1.48488)
(0.345071 1.819 -0.994495)
(0.545105 1.52171 -0.547137)
(0.532984 1.07765 -0.379281)
(-0.230385 0.413283 0.422783)
(0.068391 0.256595 -0.100087)
(0.487511 -0.0336882 -0.142283)
(0.65058 -0.514627 -2.85093)
(-0.392039 0.0733509 -2.99592)
(-0.739383 0.722473 -1.47902)
(-0.404977 0.611744 -1.77489)
(-0.281653 0.995061 -1.43047)
(-0.241982 1.31407 -1.13509)
(0.234656 1.20554 -1.12053)
(0.491049 1.08519 -0.766051)
(0.788713 0.831425 -0.223118)
(0.396181 0.414487 -0.674993)
(-0.162187 0.141492 -0.760571)
(-0.22871 0.0952378 -0.275959)
(-0.299609 0.254389 -0.340658)
(-1.21256 1.71797 0.0650661)
(-1.45022 1.65239 -0.168173)
(-0.936359 2.17941 0.130533)
(-1.16243 1.89275 -0.129013)
(-1.82304 1.25274 0.0957973)
(-1.51627 1.82968 0.0759529)
(-0.972609 2.28281 0.0476522)
(-1.18008 2.11448 0.0634721)
(-1.72745 1.53298 -0.0869474)
(-1.59511 1.90808 0.0579225)
(-1.28765 2.16314 0.133669)
(-0.836047 2.45741 0.17591)
(-0.881926 2.41566 0.0995383)
(-2.43473 0.771585 -0.137251)
(-1.47561 2.30866 0.0749945)
(-1.24578 2.38169 -0.106474)
(-0.950808 2.68193 0.0944773)
(-0.732489 2.72341 0.205543)
(-2.32676 1.18564 0.273456)
(-2.44943 1.67 0.263296)
(-1.75993 2.61658 -0.0139773)
(-1.25811 2.84432 0.252385)
(-0.746862 2.85101 0.377594)
(-0.516441 3.16679 0.375429)
(-2.57244 1.17612 0.162783)
(-2.41666 2.23445 0.24324)
(-2.21951 2.42538 0.356101)
(-1.39497 2.97882 0.512124)
(-0.940608 3.26433 0.55434)
(-0.452421 3.42553 1.09331)
(-0.258754 3.6536 1.29478)
(-2.63161 1.70143 0.486971)
(-3.42692 1.60721 -0.211501)
(-2.44663 2.84026 0.798054)
(-2.10099 3.25848 0.899736)
(-0.944977 3.77855 1.38072)
(-0.698164 3.94302 1.37182)
(-0.155452 3.98086 1.56447)
(0.0841649 4.00022 1.81837)
(-2.80326 2.38582 -0.197763)
(-3.46019 2.40423 0.188302)
(-1.84199 3.85223 0.859205)
(-1.08107 4.34231 1.27019)
(-0.855332 4.47628 1.60291)
(-0.674901 4.57769 1.82473)
(0.108747 4.79509 1.46209)
(0.106642 4.30948 1.86716)
(0.543644 3.9699 1.84279)
(-3.06739 3.5531 0.362243)
(-3.45852 3.44314 1.40808)
(-1.7539 3.89865 1.79271)
(-1.05419 4.18732 2.03849)
(-0.741706 4.31889 2.4647)
(0.0576895 4.67277 2.34142)
(-0.676716 4.18421 2.41998)
(0.481383 3.83641 2.6148)
(1.33211 3.20357 2.04823)
(0.289302 2.59914 2.26314)
(-1.90445 3.74912 0.106696)
(-1.13307 3.1541 0.770162)
(0.0343787 2.83783 0.711359)
(-0.0590522 2.92509 1.97455)
(-0.0492056 2.74636 2.50661)
(-0.61357 1.65492 2.76558)
(-0.89235 1.6744 3.22466)
(-0.275197 2.11887 3.18397)
(0.520348 2.21279 2.57038)
(0.868018 1.91696 1.16109)
(-0.0746967 2.03066 1.07776)
(-1.60491 1.6238 0.632567)
(-0.291516 1.36522 -0.00390721)
(-1.22234 0.808622 0.760217)
(-1.13744 1.13213 0.172133)
(-0.781321 1.34095 0.177517)
(-0.661425 1.57106 -0.279364)
(0.0723841 2.00092 0.149224)
(-0.193152 2.88314 0.83137)
(-0.0281644 2.73837 0.299405)
(0.0967657 2.5549 -0.963792)
(-0.00394431 2.4422 -0.585489)
(0.793943 2.59149 -0.764928)
(0.298053 1.25572 0.0835532)
(0.413932 1.28089 -0.877277)
(-1.33679 1.45094 0.913663)
(-1.51056 1.66145 0.441396)
(-0.471387 2.00008 0.173851)
(-0.602431 2.43086 -0.260839)
(-0.724625 2.30252 -1.00224)
(-0.396514 2.37849 -0.923216)
(0.0406565 2.52555 -1.16841)
(0.42498 2.45911 -0.823557)
(0.674063 2.32432 -0.413079)
(0.50805 1.90888 -0.572314)
(0.866141 1.49543 -0.367294)
(-0.0710568 0.409465 -0.545959)
(0.498878 -0.181939 -1.6963)
(-0.247224 1.16276 -1.38747)
(-1.52586 1.62699 -1.00792)
(-0.658284 1.88036 -1.2308)
(-0.588671 1.93668 -1.63679)
(-0.264063 1.96587 -1.67176)
(0.367316 1.85499 -1.51605)
(0.390486 1.80597 -1.02598)
(0.534101 1.4952 -0.581125)
(0.435228 0.96908 -0.386955)
(-0.209963 0.353579 0.484249)
(0.0595604 0.247 0.00915932)
(0.14257 0.696968 -0.300864)
(0.428641 -0.0315859 -0.0849198)
(0.653368 -0.439173 -2.8071)
(-0.37158 0.0924525 -2.93842)
(-0.696807 0.712789 -1.42666)
(-0.368763 0.625161 -1.79258)
(-0.250223 0.977306 -1.44816)
(-0.366277 1.31731 -1.0511)
(0.270548 1.22196 -1.08865)
(0.421824 1.07009 -0.713631)
(0.798145 0.825796 -0.233558)
(0.452265 0.435664 -0.763736)
(-0.0968216 0.151086 -0.785069)
(-0.23665 0.0826508 -0.298719)
(-0.228465 0.2554 -0.358278)
(-0.3832 0.622373 -0.4201)
(-1.30357 1.50875 0.00547197)
(-1.41215 1.60315 0.0128801)
(-1.14033 2.03063 -0.0152295)
(-1.06218 1.77436 0.0748068)
(-1.55459 1.51571 -0.0397336)
(-1.31458 1.9201 0.0656401)
(-1.0098 2.2968 -0.0866135)
(-0.890685 2.25149 0.103347)
(-1.91905 1.05678 0.0817692)
(-1.49219 1.8441 0.103805)
(-1.08833 2.23423 0.0405936)
(-0.868244 2.37059 0.208264)
(-0.746252 2.31967 0.065551)
(-1.7692 1.49512 -0.0961575)
(-1.69531 1.80249 0.0818693)
(-1.43529 2.07191 0.160775)
(-1.10146 2.34214 0.216589)
(-0.663526 2.48636 0.250315)
(-0.720156 2.49001 0.165874)
(-2.45596 0.830785 -0.108544)
(-1.52728 2.25876 0.0791359)
(-1.48659 2.35316 -0.176396)
(-1.07518 2.63037 0.156211)
(-0.872559 2.64253 0.220594)
(-0.660572 2.79915 0.369167)
(-2.35471 1.05982 0.283726)
(-2.69484 1.28244 0.145909)
(-1.79969 2.59797 -0.0250049)
(-1.33062 2.75119 0.212475)
(-0.816105 2.82596 0.362176)
(-0.99677 3.023 0.327176)
(0.117036 3.12018 0.948206)
(-2.63655 1.12609 -0.0194129)
(-2.68106 1.84965 0.424005)
(-2.3149 2.27249 0.398789)
(-1.48923 2.87918 0.475838)
(-1.06088 3.17593 0.548296)
(-0.797428 3.31151 0.902977)
(-0.172149 3.48268 1.31749)
(0.316038 3.495 1.29829)
(-2.82166 1.4719 0.634127)
(-3.59833 1.41017 -0.158959)
(-2.46417 2.8567 0.782521)
(-2.20929 3.23289 0.759563)
(-1.37075 3.64491 1.50704)
(-0.792323 3.84959 1.66169)
(-0.377706 3.90889 1.80214)
(-0.0431999 3.99871 1.84997)
(0.452594 3.87392 1.66706)
(-2.89859 2.48611 -0.19484)
(-3.23384 2.72194 0.546736)
(-2.72738 3.46202 0.824215)
(-1.48743 4.2964 1.3162)
(-0.922262 4.50275 1.75319)
(-0.673255 4.57291 1.80378)
(-0.674061 4.4638 1.92894)
(-0.510824 4.18684 1.96464)
(0.309602 4.00799 1.89787)
(0.0338668 3.56254 2.00879)
(-3.27219 3.49089 0.374677)
(-3.49646 3.59223 1.23749)
(-2.09042 4.12042 1.83653)
(-1.31444 4.27748 2.09948)
(-0.821231 4.35611 2.44128)
(-0.595788 4.33004 2.48063)
(-0.465668 4.2716 2.21426)
(0.594664 3.93631 2.36244)
(0.653802 3.47387 2.35258)
(0.163462 2.55717 2.41415)
(0.484931 2.35645 2.56082)
(-2.67255 3.06415 0.212882)
(-1.3656 3.09799 0.757858)
(-0.545106 2.38423 0.910958)
(-0.716419 2.11984 1.95653)
(-0.941064 2.36357 2.24729)
(-1.20512 1.39425 1.89132)
(-1.15539 1.52515 2.9152)
(-0.565675 2.02712 3.09192)
(0.270417 2.18243 2.63215)
(0.241369 2.03527 1.56452)
(-0.479972 2.04972 1.03538)
(0.00259823 2.4057 0.0127051)
(-1.6328 1.68804 0.674512)
(-0.225429 1.4703 0.00817858)
(-0.841065 0.933038 0.845017)
(-0.970075 1.29916 0.286074)
(-1.43286 1.05861 0.0775826)
(0.809156 1.65901 0.626565)
(0.0146823 2.1045 0.0666253)
(-0.1927 2.86406 0.815005)
(0.105152 2.97185 0.223879)
(-0.599542 2.51969 -0.367431)
(-0.216936 2.42009 -0.499722)
(-0.175729 2.59154 -0.347069)
(0.426263 2.40754 -0.370232)
(0.115673 1.19699 0.0541944)
(0.275952 0.963701 -0.984658)
(-1.29077 1.44042 0.796298)
(-1.50961 1.59039 0.0754233)
(-0.673314 2.12131 -0.236376)
(-0.65965 2.47281 -0.244553)
(-0.745133 2.26238 -0.935623)
(-0.564578 2.35533 -0.692516)
(-0.0506711 2.46057 -1.12028)
(0.299656 2.45725 -0.779325)
(0.748335 2.36915 -0.323396)
(0.50403 1.85366 -0.344515)
(0.329853 1.45509 -0.145582)
(1.07866 1.48279 -0.362026)
(-0.12721 0.420602 -0.46279)
(0.52125 -0.115692 -1.67717)
(-0.359814 1.0001 -1.72445)
(-1.54303 1.52618 -1.17699)
(-0.690433 1.84886 -1.30145)
(-0.695678 1.93164 -1.55324)
(-0.25141 1.98416 -1.64507)
(0.376284 1.87393 -1.51183)
(0.521529 1.7902 -1.15111)
(0.700036 1.50714 -0.538518)
(0.225511 0.83168 -0.308215)
(-0.191873 0.274117 0.467996)
(0.0384518 0.251394 0.0565716)
(0.0904464 0.644177 -0.238243)
(0.646805 1.22725 -0.633363)
(0.377277 -0.00785399 -0.0610669)
(0.651419 -0.357507 -2.77117)
(-0.34232 0.0560668 -2.87841)
(-0.680231 0.710454 -1.41948)
(-0.333674 0.643801 -1.81503)
(-0.233792 0.978583 -1.44985)
(-0.345281 1.20695 -1.09203)
(0.275545 1.22563 -1.00761)
(0.417912 0.998972 -0.708316)
(0.782644 0.811994 -0.307581)
(0.489855 0.463065 -0.861812)
(-0.0545027 0.158047 -0.780479)
(-0.248556 0.0695643 -0.31455)
(-0.171422 0.258534 -0.376963)
(-0.374884 0.605813 -0.396718)
(0.0357754 1.09351 -0.356439)
(-0.828039 1.63478 -0.160432)
(-1.26821 1.5659 0.029212)
(-0.78088 1.97854 -0.226329)
(-1.17764 1.59035 0.102411)
(-1.41597 1.59834 0.00711684)
(-1.28262 1.94127 0.00359481)
(-0.845406 2.19101 0.0516778)
(-1.08976 2.03751 -0.0548792)
(-0.985003 1.81019 0.111201)
(-1.68397 1.31885 -0.0433642)
(-1.38442 1.8807 0.0479816)
(-1.19014 2.17869 -0.0767567)
(-1.01932 2.22096 0.214367)
(-0.953411 2.30037 -0.000366741)
(-1.96856 0.976205 0.0608433)
(-1.55225 1.72276 0.136983)
(-1.3421 2.06719 0.0656818)
(-0.818311 2.36296 0.247305)
(-0.877114 2.35576 0.308923)
(-0.880744 2.3669 0.202667)
(-1.86557 1.33915 -0.170884)
(-1.80177 1.69055 0.07345)
(-1.54045 2.01876 0.250623)
(-1.36001 2.22968 0.272411)
(-0.941512 2.38482 0.32054)
(-0.855316 2.54125 0.431499)
(-0.625177 2.49663 0.252333)
(-2.51434 0.5868 -0.0271542)
(-1.54045 2.16143 0.0736786)
(-1.86149 2.1222 -0.204061)
(-1.42691 2.51752 0.203309)
(-0.885473 2.66434 0.25759)
(-1.01591 2.71757 0.380529)
(-0.450666 2.7613 0.630317)
(-2.41027 0.989896 0.231581)
(-2.80465 1.15485 0.102503)
(-2.09773 2.40394 -0.194494)
(-1.50804 2.63081 0.192238)
(-1.42734 2.60715 0.360213)
(-1.22809 2.92133 0.391815)
(-0.147568 3.02756 1.1201)
(0.016863 3.11213 1.1223)
(-2.67336 1.10076 0.0028763)
(-2.8617 1.63517 0.39709)
(-2.37268 2.13334 0.62076)
(-1.44771 2.69386 0.537331)
(-1.09735 3.20248 0.518657)
(-0.846226 3.34187 0.95766)
(-0.338219 3.32934 1.41775)
(0.0431274 3.35295 1.48891)
(0.171858 3.31405 1.65311)
(-3.03859 1.46042 0.39249)
(-3.59862 1.38859 -0.144553)
(-2.40295 2.75719 0.808218)
(-1.8115 3.39615 0.828968)
(-0.863581 3.77775 1.38367)
(-0.43182 4.08289 1.21397)
(-0.45227 3.86787 1.90638)
(-0.09485 3.94488 1.93859)
(0.196152 3.89788 1.82604)
(0.692396 3.57116 1.78444)
(-3.28997 2.32691 -0.248603)
(-2.89956 3.03124 0.815433)
(-2.03245 3.78293 0.582922)
(-1.7219 4.14502 1.30405)
(-1.03223 4.39939 1.71697)
(-0.847274 4.49507 1.76592)
(-0.751826 4.35737 2.1025)
(-0.657439 4.05345 2.31587)
(0.0977442 4.06723 2.27786)
(0.832766 3.32787 2.0588)
(0.23055 2.85646 2.05393)
(-4.05809 2.7379 -0.0385386)
(-3.35586 3.64343 1.27163)
(-2.73295 3.94621 1.80627)
(-1.56858 4.25334 1.85929)
(-0.907605 4.32791 2.08975)
(-0.837363 4.10755 2.48568)
(-0.737227 3.87798 2.76262)
(0.300225 3.84854 2.28697)
(0.342213 3.58704 2.3335)
(0.253424 2.62792 2.34938)
(0.647375 2.33475 2.33877)
(0.801953 2.27437 2.0925)
(-2.88345 2.99708 0.109591)
(-1.55416 2.96229 0.754027)
(-1.27618 1.67889 1.31942)
(-1.02912 1.74337 1.05205)
(-1.48206 1.90916 1.77124)
(-1.29155 1.24134 1.0092)
(-1.41138 1.49137 2.38608)
(-0.517072 2.05882 2.8369)
(0.0266867 2.22687 2.63486)
(-0.0434204 2.0839 1.93742)
(-0.31164 2.07526 0.979181)
(-0.435452 2.4184 0.287433)
(-0.259766 2.6312 0.0244802)
(-1.67561 1.61921 0.752657)
(-0.454771 1.36411 0.205352)
(-0.885852 0.932788 0.742067)
(-1.10018 1.26009 0.134212)
(0.325328 2.09597 -0.0894401)
(-0.521352 1.98722 -0.0307004)
(-0.256675 2.06898 -0.176835)
(-0.347394 2.82965 0.613823)
(-0.520821 2.97302 -0.00920019)
(0.560517 2.67211 -0.997321)
(-0.524486 2.44359 -0.316697)
(0.250343 2.68936 -0.696473)
(-0.00657995 2.50702 -0.297414)
(0.328941 2.28133 -0.434437)
(0.039339 1.1613 0.0296113)
(0.0777248 0.743983 -0.697355)
(-1.34862 1.36989 0.731768)
(-1.43361 1.72339 -0.0811124)
(-0.682854 2.097 -0.383457)
(-0.833756 2.36259 -0.338703)
(-0.921545 2.1708 -0.93575)
(-0.739643 2.26296 -0.650989)
(-0.123264 2.50276 -0.765109)
(0.208409 2.36694 -0.620321)
(0.670853 2.36222 -0.167984)
(0.508307 1.83131 -0.0405772)
(-0.479092 1.29377 0.0361289)
(0.240101 1.47035 -0.294159)
(0.566544 1.69517 -0.338856)
(-0.176202 0.453408 -0.331126)
(0.499374 -0.0852021 -1.62565)
(-0.52173 0.800568 -1.97569)
(-1.54276 1.47754 -1.2455)
(-0.758534 1.84389 -1.35098)
(-0.817721 1.81633 -1.57835)
(-0.18674 2.02269 -1.54515)
(0.342765 1.88338 -1.474)
(0.719978 1.83845 -1.27808)
(0.863211 1.52371 -0.472773)
(-0.0402779 0.665072 -0.0648204)
(-0.191767 0.216364 0.441272)
(-0.0192784 0.276776 0.1307)
(0.00545703 0.645209 -0.159923)
(0.490813 1.19632 -0.433632)
(0.517597 1.40458 -0.174161)
(0.360857 0.0180887 -0.0724264)
(0.647045 -0.282358 -2.7439)
(-0.337059 0.00977757 -2.81721)
(-0.672503 0.739258 -1.42341)
(-0.300592 0.661936 -1.85503)
(-0.224403 0.979344 -1.44926)
(-0.355094 1.19485 -1.10985)
(0.258633 1.16484 -1.00424)
(0.432174 0.978156 -0.728185)
(0.793974 0.81692 -0.403834)
(0.493162 0.489976 -0.938646)
(-0.0245397 0.164566 -0.74611)
(-0.261698 0.0542915 -0.323981)
(-0.135272 0.266339 -0.400464)
(-0.32583 0.60641 -0.401191)
(0.0644526 1.06894 -0.383694)
(0.410264 1.12303 -0.360786)
(-0.918865 1.30534 0.0495771)
(-1.07442 1.49253 -0.120898)
(-0.787231 1.77725 -0.0955623)
(-0.733582 1.67442 -0.16927)
(-1.29594 1.51353 0.0300984)
(-1.12527 1.83286 -0.287596)
(-0.663668 2.00302 -0.18149)
(-0.854934 1.93321 -0.207715)
(-1.06021 1.68706 0.0993577)
(-1.60729 1.36693 -0.0428209)
(-1.40322 1.84291 -0.0405848)
(-1.14161 2.06364 -0.0327167)
(-1.12992 2.0532 -0.214633)
(-0.745627 2.1864 -0.00497559)
(-0.999774 2.07702 -0.0314124)
(-1.76797 1.16958 -0.0401625)
(-1.40129 1.86756 0.0522527)
(-1.32744 2.11135 -0.044043)
(-1.1766 2.15821 0.172483)
(-0.817652 2.30133 0.329241)
(-0.830379 2.34013 0.278265)
(-2.00984 0.874315 0.0952998)
(-1.6674 1.57999 0.131601)
(-1.4315 1.98735 0.107986)
(-1.20767 2.18642 0.234775)
(-1.03209 2.29048 0.361267)
(-0.783349 2.4008 0.42907)
(-0.785025 2.38999 0.277588)
(-1.9934 1.14557 -0.151501)
(-1.90216 1.62598 0.0467817)
(-1.60767 1.92512 0.23127)
(-1.45682 2.14634 0.298384)
(-1.00916 2.41593 0.343244)
(-1.04631 2.41562 0.492625)
(-0.376661 2.66546 0.53667)
(-0.861406 2.5428 0.415975)
(-2.56982 0.393591 0.0827067)
(-1.86595 1.80188 0.0569045)
(-1.91988 2.07631 -0.234696)
(-1.49328 2.45449 0.170439)
(-1.04171 2.56532 0.224369)
(-1.03384 2.66377 0.420534)
(-0.278045 2.88731 0.651986)