/*--------------------------------*- C++ -*----------------------------------*\
  =========                 |
  \\      /  F ield         | OpenFOAM: The Open Source CFD Toolbox
   \\    /   O peration     | Website:  https://openfoam.org
    \\  /    A nd           | Version:  7
     \\/     M anipulation  |
\*---------------------------------------------------------------------------*/
FoamFile
{
    version     2.0;
    format      ascii;
    class       volScalarField;
    location    "5.5";
    object      p;
}
// * * * * * * * * * * * * * * * * * * * * * * * * * * * * * * * * * * * * * //

dimensions      [0 2 -2 0 0 0 0];

internalField   nonuniform List<scalar> 
18870
(
-69.3544
-70.1826
-69.3778
-68.4755
-70.2709
-70.2862
-69.4972
-69.4022
-68.4995
-67.6955
-70.0272
-70.4789
-70.2742
-70.392
-69.6231
-68.6619
-69.4311
-68.5273
-67.7196
-66.5435
-69.1734
-70.4378
-70.4835
-70.7122
-70.4119
-69.4722
-70.5057
-69.7476
-68.7341
-67.6466
-69.4608
-68.5586
-67.7528
-66.555
-65.509
-67.0477
-69.6618
-70.5398
-70.7775
-70.6498
-70.4403
-70.959
-70.5685
-69.727
-68.7466
-70.6169
-69.8648
-68.7874
-67.6862
-66.7581
-69.4899
-68.5892
-67.7824
-66.5635
-65.5205
-65.0342
-65.0319
-67.4805
-69.3164
-70.233
-71.1103
-71.6144
-71.0414
-70.9573
-70.7928
-69.834
-71.209
-70.8202
-69.9749
-68.8448
-67.8222
-70.7184
-69.9698
-68.8273
-67.7205
-66.7683
-66.1953
-69.5171
-68.613
-67.7883
-66.5696
-65.5262
-65.0247
-64.5883
-63.2967
-65.3116
-66.2698
-67.7952
-69.8305
-71.5174
-70.7314
-71.6158
-72.072
-71.0335
-71.3816
-71.2678
-71.0859
-69.9475
-69.2391
-71.4473
-71.064
-70.1173
-68.9153
-67.8453
-67.3783
-70.8072
-70.0676
-68.8588
-67.7505
-66.7675
-66.199
-65.6173
-69.5409
-68.6348
-67.7572
-66.567
-65.519
-65.0144
-64.5745
-64.0383
-61.9601
-63.626
-64.7581
-65.6746
-66.7648
-67.9149
-68.0536
-70.1874
-72.1687
-72.7521
-71.1799
-72.0625
-72.518
-71.3663
-70.1353
-71.6793
-71.3922
-71.3047
-69.9922
-69.2853
-68.7361
-71.6604
-71.168
-70.241
-68.9509
-67.8415
-67.3685
-66.9119
-70.8845
-70.16
-68.8861
-67.7633
-66.7643
-66.1884
-65.6084
-64.9945
-69.5639
-68.6639
-67.732
-66.5575
-65.5057
-65.0107
-64.554
-64.0067
-63.6937
-60.2629
-62.2526
-62.8501
-63.8857
-65.0704
-65.5294
-66.0053
-66.9997
-68.2659
-69.6087
-68.6198
-70.8552
-72.6031
-72.7113
-70.7224
-71.7034
-72.3429
-72.8548
-71.5186
-70.1256
-69.4555
-71.9238
-71.4489
-71.4884
-70.0161
-69.312
-68.777
-68.015
-71.8426
-71.3179
-70.4278
-68.958
-67.8199
-67.3199
-66.8935
-66.2131
-70.9497
-70.2348
-68.907
-67.7626
-66.7439
-66.1775
-65.5912
-64.9593
-64.6914
-69.5871
-68.6943
-67.7096
-66.555
-65.4955
-64.9985
-64.5273
-63.9825
-63.6583
-63.0744
-59.0842
-60.6255
-61.4064
-62.4637
-62.9137
-63.3961
-64.1949
-65.2725
-65.9538
-66.4019
-66.2112
-67.1686
-68.3875
-69.9143
-69.5656
-69.2173
-71.1356
-72.8585
-72.6427
-70.4888
-69.7936
-72.2257
-72.585
-73.0731
-71.3495
-70.1867
-69.4073
-68.8554
-72.1276
-71.5097
-71.5927
-70.0547
-69.2477
-68.7493
-67.9371
-67.6786
-71.9761
-71.5052
-70.5417
-68.9459
-67.7562
-67.2657
-66.8632
-66.222
-65.8268
-71.0025
-70.2629
-68.913
-67.7419
-66.711
-66.1633
-65.5674
-64.9119
-64.6477
-64.0958
-69.6088
-68.7151
-67.6722
-66.5455
-65.4835
-64.9812
-64.501
-63.9544
-63.6325
-63.0596
-62.4609
-58.0382
-59.172
-59.6139
-61.0266
-61.4554
-61.7696
-62.8026
-62.8249
-63.3919
-64.0257
-64.4249
-65.4724
-66.4292
-67.0733
-67.2455
-66.465
-67.6256
-68.7026
-69.4575
-69.1943
-68.8809
-69.2812
-70.8441
-72.7576
-72.5698
-70.6486
-69.7849
-68.8841
-72.6455
-72.8398
-73.1797
-71.1601
-70.1112
-69.288
-68.7703
-68.2724
-72.2823
-71.5325
-71.6945
-69.9893
-69.0391
-68.6258
-67.8925
-67.5913
-67.0432
-72.0616
-71.5957
-70.577
-68.9336
-67.6823
-67.1989
-66.7984
-66.1741
-65.7079
-65.2712
-71.0437
-70.259
-68.9275
-67.7038
-66.6687
-66.1342
-65.5368
-64.865
-64.5927
-64.0163
-63.3027
-69.6209
-68.717
-67.6372
-66.5304
-65.4724
-64.99
-64.4694
-63.9283
-63.6189
-63.0429
-62.4472
-62.1352
-56.9627
-57.9257
-58.2041
-59.2258
-59.7176
-59.7822
-61.2425
-61.5897
-61.6804
-62.0514
-62.8089
-62.9571
-63.5628
-63.93
-64.3907
-64.6237
-65.641
-66.4978
-66.8044
-67.1327
-67.1493
-66.5791
-67.794
-68.7012
-69.5264
-69.0903
-68.6933
-68.2966
-69.4182
-70.9592
-72.6807
-72.2276
-70.4293
-69.6308
-68.7811
-68.4764
-72.9942
-72.9632
-73.2454
-70.8477
-69.8439
-69.1299
-68.6763
-68.1496
-68.0461
-72.3634
-71.5287
-71.767
-69.8734
-68.84
-68.4893
-67.8363
-67.4895
-66.8892
-66.5297
-72.1044
-71.6221
-70.5401
-68.9146
-67.6291
-67.0903
-66.6963
-66.0179
-65.5927
-65.135
-64.2241
-71.0562
-70.2459
-68.975
-67.682
-66.6113
-66.0929
-65.5006
-64.8117
-64.5266
-63.9291
-63.2326
-62.8688
-69.6114
-68.7003
-67.6144
-66.5141
-65.4431
-64.9969
-64.4218
-63.9036
-63.6132
-63.021
-62.442
-62.1053
-61.6539
-56.2097
-56.9491
-57.1941
-57.8503
-58.3024
-58.5281
-59.1866
-59.8263
-59.8331
-60.2739
-61.1743
-61.5494
-61.7263
-61.8961
-62.2432
-62.8457
-63.3063
-63.4121
-64.427
-64.7153
-64.7463
-64.6938
-65.7759
-66.3538
-66.7516
-66.9088
-66.7559
-66.9403
-66.8701
-67.6437
-68.5785
-69.3853
-69.1043
-68.4233
-68.0428
-67.9083
-69.4293
-70.9269
-72.411
-71.7022
-69.7
-69.2528
-68.6443
-68.2856
-67.9957
-73.0873
-73.2218
-73.2597
-70.5805
-69.4153
-68.9298
-68.5595
-68.0067
-67.808
-67.4926
-72.4044
-71.4926
-71.7214
-69.7769
-68.6277
-68.3292
-67.7606
-67.3524
-66.7396
-66.2467
-65.3142
-72.0777
-71.5491
-70.4483
-68.8513
-67.5205
-66.9533
-66.6249
-65.8535
-65.5115
-64.9646
-64.0739
-63.6243
-71.057
-70.2143
-68.9668
-67.661
-66.5499
-66.0478
-65.4553
-64.7474
-64.4545
-63.8446
-63.1549
-62.7619
-62.0985
-69.5917
-68.6812
-67.5974
-66.472
-65.3942
-64.9809
-64.3581
-63.8672
-63.5977
-62.9978
-62.4316
-62.0733
-61.6284
-61.3203
-55.7972
-56.3009
-56.4738
-56.9587
-57.2594
-57.4603
-57.9691
-58.328
-58.6512
-58.7806
-59.3411
-59.736
-59.8699
-60.1004
-60.558
-61.2239
-61.6477
-61.6308
-61.8887
-62.3336
-62.3474
-63.067
-63.3943
-63.4767
-64.2513
-64.6032
-64.551
-64.6852
-64.7808
-65.4938
-66.2713
-66.3138
-66.7392
-66.5532
-66.7064
-66.3667
-66.8164
-67.498
-68.5642
-69.0497
-68.714
-68.0709
-67.699
-67.6313
-67.7113
-69.4173
-70.9617
-72.0073
-71.1973
-69.4647
-68.8803
-68.5595
-68.033
-67.784
-67.4908
-73.0738
-73.2469
-73.1498
-70.2641
-69.2408
-68.7412
-68.3787
-67.7544
-67.509
-67.1814
-67.1406
-72.3733
-71.4547
-71.6961
-69.6939
-68.3616
-68.1338
-67.6738
-67.2231
-66.5985
-65.9378
-64.9824
-64.6948
-72.0205
-71.4312
-70.3869
-68.7523
-67.3278
-66.8428
-66.5583
-65.707
-65.4126
-64.7953
-63.9367
-63.4299
-62.5585
-71.0678
-70.1653
-68.9485
-67.6011
-66.5009
-65.9889
-65.3981
-64.6783
-64.3758
-63.7357
-63.0665
-62.661
-62.0225
-61.3622
-69.5708
-68.6541
-67.5594
-66.4188
-65.3301
-64.9474
-64.3003
-63.8234
-63.5715
-62.982
-62.417
-62.0401
-61.6015
-61.2954
-61.0607
-55.3093
-55.903
-56.0077
-56.4281
-56.598
-56.6322
-57.1339
-57.2637
-57.4459
-57.6978
-57.9865
-58.4247
-58.5699
-58.7956
-59.0591
-59.4901
-59.551
-59.8461
-60.1918
-60.5241
-60.5941
-61.2898
-61.5596
-61.7745
-61.9563
-62.183
-62.3296
-62.6463
-63.1947
-63.372
-63.5579
-64.0107
-64.0793
-64.3492
-64.4406
-64.696
-64.8588
-65.3031
-66.0603
-66.0134
-66.4047
-66.3053
-66.3452
-65.8724
-66.3608
-66.7215
-67.4132
-68.2572
-68.5972
-68.1509
-67.7128
-67.3398
-67.3512
-67.464
-68.1034
-69.2417
-70.9559
-71.5552
-70.6044
-68.9992
-68.4209
-68.3543
-67.7851
-67.4319
-67.0287
-66.6525
-72.7757
-73.1891
-72.7538
-70.0097
-69.1307
-68.5302
-68.0638
-67.4946
-67.1649
-66.8463
-66.966
-66.0157
-72.3075
-71.4326
-71.5547
-69.5673
-68.378
-67.9287
-67.4851
-67.0786
-66.337
-65.5475
-64.7216
-64.4946
-63.4318
-72.0128
-71.2608
-70.2066
-68.6428
-67.2053
-66.7731
-66.4913
-65.5895
-65.3044
-64.624
-63.778
-63.2343
-62.4125
-61.5877
-71.052
-70.1111
-68.9299
-67.5489
-66.4464
-65.8959
-65.3321
-64.6005
-64.2933
-63.6183
-62.9774
-62.5654
-61.9429
-61.2813
-60.8941
-69.5384
-68.6206
-67.5028
-66.3697
-65.2545
-64.9194
-64.2625
-63.7907
-63.5584
-62.9501
-62.3957
-62.007
-61.5736
-61.2703
-61.0327
-60.6578
-55.0954
-55.3104
-55.619
-55.9453
-56.1059
-56.1396
-56.4603
-56.6545
-56.6695
-56.7447
-57.0292
-57.2977
-57.5178
-57.6941
-57.8739
-57.9122
-58.326
-58.5625
-58.816
-59.0897
-59.2967
-59.498
-59.5883
-59.8784
-60.1977
-60.4782
-60.5685
-60.669
-61.2593
-61.4091
-61.6788
-61.9235
-61.8995
-62.2082
-62.5374
-62.7812
-63.093
-63.5217
-63.5093
-63.7969
-63.7866
-64.2703
-64.3367
-64.414
-64.5707
-64.5227
-65.2254
-65.5713
-65.8443
-66.0297
-66.0257
-65.8648
-65.5047
-65.8098
-66.472
-66.5661
-67.1317
-68.0162
-68.1801
-67.8195
-67.2996
-67.0272
-67.2529
-67.1574
-67.6789
-66.4694
-68.9871
-70.4317
-71.0419
-70.0286
-68.3393
-67.8799
-68.0051
-67.3071
-66.845
-66.5973
-66.2601
-66.1757
-72.4693
-72.9702
-72.2323
-69.6612
-68.847
-68.2288
-67.697
-67.0869
-66.8762
-66.5538
-66.5901
-65.5766
-64.3767
-72.1501
-71.2574
-71.3753
-69.3732
-68.1526
-67.7014
-67.2912
-66.8659
-66.1318
-65.3225
-64.5491
-64.2421
-63.1641
-61.8767
-71.9592
-71.067
-69.9161
-68.5125
-67.1268
-66.6606
-66.4655
-65.4436
-65.1574
-64.4245
-63.6076
-63.0474
-62.2637
-61.4395
-60.9166
-71.0162
-70.0566
-68.7869
-67.4652
-66.3669
-65.787
-65.2529
-64.5158
-64.2043
-63.5117
-62.8888
-62.4729
-61.8566
-61.2052
-60.7955
-60.1074
-69.4962
-68.5909
-67.4721
-66.3135
-65.2017
-64.8882
-64.2189
-63.7588
-63.5444
-62.9174
-62.3729
-61.9749
-61.5458
-61.2441
-61.0046
-60.6563
-60.1807
-54.7956
-55.0601
-55.2564
-55.3866
-55.5569
-55.7701
-55.9647
-56.1066
-56.2665
-56.3742
-56.4723
-56.582
-56.8073
-56.8507
-57.1184
-56.9737
-57.4069
-57.5152
-57.7241
-57.9198
-58.088
-57.8494
-58.4449
-58.4848
-58.8228
-59.0727
-59.2561
-59.5572
-59.5257
-59.5459
-59.7925
-60.2585
-60.3593
-60.4447
-60.8011
-61.0858
-61.1582
-61.693
-61.6179
-61.8183
-61.7225
-61.9474
-62.4401
-62.6134
-62.7945
-63.1637
-63.5298
-63.2609
-63.5121
-63.679
-63.9159
-64.0692
-64.2204
-64.1099
-64.7539
-64.4633
-64.9229
-65.2898
-65.5386
-65.7511
-65.7108
-65.551
-64.9872
-65.51
-66.0439
-65.6061
-66.4879
-66.8279
-68.0163
-67.6748
-67.4298
-67.036
-66.8256
-66.948
-66.8381
-67.1621
-65.8274
-65.4479
-68.6836
-70.1344
-70.4434
-69.5967
-67.9351
-67.7148
-67.6534
-66.7799
-66.4478
-66.0916
-65.845
-65.6813
-64.6784
-72.3716
-72.5581
-71.6846
-69.2746
-68.4128
-67.8415
-67.3902
-66.6849
-66.545
-66.1315
-66.1072
-65.1552
-63.9821
-62.4395
-71.8885
-71.1052
-71.2506
-69.2224
-67.9554
-67.4884
-67.0526
-66.6388
-65.9144
-65.2997
-64.3789
-63.9517
-62.908
-61.5992
-60.9543
-71.8161
-70.7463
-69.6532
-68.3214
-67.0353
-66.5255
-66.3951
-65.294
-64.9994
-64.1745
-63.4103
-62.8295
-62.1264
-61.2834
-60.7714
-60.0021
-70.9802
-69.9696
-68.6404
-67.3264
-66.2744
-65.7008
-65.155
-64.4303
-64.1105
-63.4037
-62.8037
-62.3741
-61.7604
-61.1303
-60.7128
-60.0845
-59.5904
-69.4434
-68.5711
-67.4257
-66.2483
-65.1451
-64.8465
-64.1624
-63.7238
-63.522
-62.8984
-62.3446
-61.9417
-61.519
-61.2179
-60.9947
-60.6695
-60.1697
-59.9879
-54.5631
-54.799
-54.8549
-55.1278
-55.2361
-55.4452
-55.4339
-55.5963
-55.7655
-55.9188
-56.0357
-56.1275
-56.3354
-56.4222
-56.5847
-56.4947
-56.6528
-56.8389
-56.8411
-57.1127
-57.2236
-57.1152
-57.3807
-57.5565
-57.7435
-57.9205
-57.9954
-58.4336
-57.9522
-58.4422
-58.5363
-58.8614
-59.0454
-59.166
-59.347
-59.7734
-59.7132
-59.5317
-59.8166
-60.1559
-60.3053
-60.1455
-60.7963
-60.9076
-61.0656
-61.2263
-61.6361
-61.58
-61.5404
-61.6346
-61.6477
-62.3573
-62.1904
-62.5307
-63.065
-63.1838
-63.1523
-63.2033
-63.2752
-63.2586
-63.6168
-63.8785
-63.9698
-63.9465
-64.2874
-63.9075
-64.4924
-64.7116
-65.1379
-65.1548
-65.2325
-65.5356
-65.2405
-64.6076
-65.1459
-65.4975
-65.1811
-64.467
-66.1629
-66.52
-67.543
-67.3059
-66.9114
-66.861
-66.4791
-66.7214
-66.4728
-66.6469
-65.2611
-64.8614
-64.0833
-68.4283
-69.659
-69.8466
-68.9353
-67.657
-67.5311
-67.09
-66.3351
-66.0841
-65.6908
-65.3604
-65.1616
-64.1891
-62.6426
-72.0391
-71.9932
-71.1128
-68.7576
-67.9865
-67.5029
-67.0743
-66.293
-66.2032
-65.6285
-65.6576
-64.7165
-63.5699
-62.1318
-61.1681
-71.4716
-70.9888
-70.8865
-69.0559
-67.8323
-67.3099
-66.7846
-66.4139
-65.7052
-65.1561
-64.1703
-63.6611
-62.7071
-61.3288
-60.7901
-59.8703
-71.7331
-70.5271
-69.5099
-68.1624
-66.8989
-66.4247
-66.2934
-65.1588
-64.8276
-64.0064
-63.1923
-62.6377
-62.0134
-61.112
-60.6084
-59.8975
-59.3652
-70.9375
-69.8234
-68.5472
-67.1814
-66.1751
-65.6254
-65.0304
-64.3398
-64.0089
-63.2905
-62.6964
-62.266
-61.6697
-61.0657
-60.6372
-60.0447
-59.5656
-59.1297
-69.385
-68.5546
-67.3742
-66.2004
-65.0787
-64.8256
-64.1309
-63.6864
-63.4984
-62.8805
-62.3126
-61.9079
-61.4926
-61.1971
-61.0038
-60.6604
-60.1686
-59.9931
-59.8115
-54.3925
-54.6036
-54.6773
-54.8843
-54.9585
-54.9424
-55.1592
-55.2881
-55.3995
-55.4675
-55.4897
-55.6456
-55.8395
-55.8431
-55.94
-56.0044
-56.1754
-56.3144
-56.5668
-56.444
-56.7021
-56.566
-56.7045
-56.7887
-56.914
-57.0386
-57.2237
-57.398
-57.1656
-57.3957
-57.6218
-57.7337
-57.9233
-57.9884
-58.1808
-58.3286
-57.904
-58.3084
-58.5516
-58.745
-59.0405
-58.9116
-59.3888
-59.6668
-59.621
-59.4492
-59.4295
-59.8809
-60.1565
-60.1548
-60.0875
-60.5413
-60.8148
-60.7486
-60.9154
-60.9307
-61.2236
-61.4289
-61.291
-61.3949
-61.5606
-62.0197
-62.0587
-62.2523
-62.5468
-62.4668
-63.0322
-62.9246
-63.0498
-62.9566
-63.0424
-63.664
-63.5353
-63.7177
-63.6716
-63.7738
-63.3892
-62.6698
-64.3766
-64.5063
-64.8425
-64.7198
-64.8757
-65.2209
-64.8371
-64.2876
-64.6212
-65.2272
-64.2973
-63.8637
-63.3785
-65.9146
-66.2422
-67.1985
-66.8807
-66.5977
-66.6287
-66.4344
-66.3594
-66.0548
-66.004
-64.5485
-64.1911
-63.5039
-62.2639
-68.1954
-69.1826
-69.2596
-68.3797
-67.3858
-67.3005
-66.6359
-65.8551
-65.668
-65.2648
-64.8915
-64.6573
-63.6614
-62.2013
-61.1821
-71.5694
-71.491
-70.4599
-68.2351
-67.6122
-67.2313
-66.8099
-65.8888
-65.8279
-65.2285
-65.1964
-64.2738
-63.0835
-61.8178
-60.7582
-59.5423
-71.2191
-70.8146
-70.4051
-68.7771
-67.6103
-67.0836
-66.5231
-66.221
-65.498
-64.9026
-63.9429
-63.4866
-62.4105
-61.1311
-60.6735
-59.8176
-59.2783
-71.6766
-70.4011
-69.4895
-68.0272
-66.7328
-66.3382
-66.1825
-65.0146
-64.6364
-63.9318
-62.9415
-62.4833
-61.8664
-61.0366
-60.4645
-59.7938
-59.3166
-59.0874
-70.8447
-69.6679
-68.4269
-67.0115
-66.0619
-65.5484
-64.8812
-64.244
-63.9046
-63.1776
-62.582
-62.178
-61.5906
-61.0011
-60.5652
-60.0028
-59.5431
-59.1281
-58.9914
-69.329
-68.5349
-67.3361
-66.1859
-65.0552
-64.7917
-64.1105
-63.6468
-63.4726
-62.8601
-62.2763
-61.8747
-61.4659
-61.1825
-61.0109
-60.6165
-60.1737
-59.997
-59.8365
-60.1287
-54.3228
-54.4826
-54.4919
-54.662
-54.646
-54.7802
-54.8686
-54.9978
-55.056
-55.0885
-55.1345
-55.2693
-55.3817
-55.4663
-55.4447
-55.4817
-55.6529
-55.7683
-55.9737
-55.9954
-56.0476
-55.9921
-56.1571
-56.3179
-56.5813
-56.5731
-56.8559
-56.747
-56.4353
-56.7355
-56.7323
-56.8974
-57.1601
-57.3593
-57.2619
-57.5192
-57.1291
-57.427
-57.6675
-57.6837
-57.9443
-58.0048
-58.197
-58.2778
-58.4504
-57.6993
-58.1108
-58.4761
-58.7717
-58.8121
-58.8346
-59.0764
-59.5443
-59.4781
-59.4972
-59.3205
-59.4084
-59.6586
-59.9438
-60.0574
-60.105
-60.4891
-60.7639
-60.5553
-60.4886
-60.471
-60.8933
-61.0628
-61.1252
-61.1361
-61.1773
-61.4554
-61.9673
-61.7822
-61.7985
-61.9806
-61.9041
-61.3753
-62.8711
-62.8244
-62.6649
-62.7134
-62.9345
-63.5539
-63.0625
-63.2564
-63.3701
-63.1983
-62.6894
-61.9256
-61.739
-64.3693
-64.3153
-64.498
-64.5663
-64.5151
-64.6805
-64.861
-63.8913
-64.2827
-64.7926
-63.6743
-63.3349
-62.6001
-61.7437
-65.7621
-65.9878
-66.6698
-66.3929
-66.2796
-66.4351
-65.7716
-66.0844
-65.6637
-65.3245
-64.0341
-63.6577
-62.8363
-61.7639
-60.5765
-67.9944
-68.7504
-68.6248
-67.8815
-67.0788
-66.9842
-66.3393
-65.4615
-65.254
-64.8502
-64.3258
-64.0793
-63.1203
-61.8222
-60.7281
-59.2888
-71.1196
-71.1165
-69.8021
-67.7605
-67.3272
-67.0045
-66.5638
-65.49
-65.4659
-64.8965
-64.6785
-63.6933
-62.6564
-61.5081
-60.4165
-59.3472
-58.8422
-70.8203
-70.5713
-69.9258
-68.488
-67.3471
-66.8531
-66.219
-66.0479
-65.3095
-64.5672
-63.7242
-63.4209
-62.0948
-60.906
-60.5389
-59.7295
-59.1437
-58.9362
-71.5426
-70.221
-69.2871
-67.8971
-66.5428
-66.2722
-66.0357
-64.8539
-64.4424
-63.7979
-62.6995
-62.3516
-61.7087
-60.9315
-60.3627
-59.6869
-59.2677
-59.05
-58.7538
-70.7409
-69.502
-68.295
-66.8271
-65.9345
-65.4453
-64.7184
-64.1461
-63.8115
-63.0629
-62.4788
-62.1176
-61.5176
-60.9248
-60.4996
-59.9659
-59.5286
-59.1198
-58.9539
-59.4718
-69.2737
-68.5155
-67.307
-66.1652
-65.0513
-64.7103
-64.0835
-63.6097
-63.4454
-62.8328
-62.2372
-61.8413
-61.4385
-61.1642
-61.0099
-60.5819
-60.1836
-59.9977
-59.8607
-60.1059
-60.9686
-54.2416
-54.3792
-54.3653
-54.5123
-54.5464
-54.609
-54.6865
-54.7216
-54.7487
-54.7752
-54.8726
-54.9985
-55.0569
-55.147
-55.2404
-55.1704
-55.2681
-55.4042
-55.5511
-55.5184
-55.592
-55.4376
-55.6589
-55.7458
-55.9168
-56.0863
-56.084
-56.1869
-55.9796
-56.1744
-56.3434
-56.5381
-56.7338
-56.6705
-56.8497
-56.6196
-56.4559
-56.7111
-56.8484
-56.9433
-57.0759
-57.2584
-57.2399
-57.3898
-57.5251
-57.1338
-57.4009
-57.6967
-57.6195
-57.9147
-57.8081
-58.152
-58.1634
-58.2552
-58.192
-57.9502
-58.321
-58.3854
-58.6304
-58.7269
-58.9868
-59.0498
-59.4679
-59.3891
-59.3991
-59.2708
-59.3079
-59.5507
-59.5049
-59.7803
-59.9408
-59.9398
-60.2421
-60.6673
-60.3261
-60.1426
-60.1013
-59.8404
-60.9112
-61.0081
-60.9284
-60.9627
-61.0605
-61.3525
-61.9106
-61.5547
-61.3801
-61.6515
-61.5613
-60.8956
-60.3581
-62.7524
-62.737
-62.4432
-62.5394
-62.6595
-63.0493
-62.5786
-62.8631
-63.1157
-62.8286
-62.5853
-61.5744
-61.2472
-60.3486
-64.1196
-64.1142
-64.2553
-64.1755
-64.0201
-64.3511
-64.6456
-63.6279
-64.0205
-64.2221
-63.4179
-62.674
-61.9542
-61.1835
-60.2197
-65.3791
-65.6314
-66.0997
-65.9365
-65.9742
-66.0326
-65.5346
-65.8873
-64.9707
-64.6544
-63.4034
-62.97
-62.3328
-61.1904
-60.1486
-59.3135
-67.7508
-68.3706
-68.0048
-67.4035
-66.8133
-66.668
-65.9217
-65.0988
-64.8098
-64.3682
-63.7972
-63.4719
-62.6566
-61.4738
-60.3426
-58.8723
-58.3475
-70.6872
-70.6755
-69.1614
-67.3172
-67.1031
-66.764
-66.287
-65.1305
-65.1468
-64.613
-64.1871
-63.009
-62.3172
-61.1858
-60.2132
-59.1474
-58.8018
-58.8257
-70.2456
-70.2346
-69.4322
-68.2116
-67.0574
-66.6277
-66.0013
-65.8322
-65.115
-64.2685
-63.4351
-63.1292
-61.838
-60.7447
-60.1734
-59.586
-59.065
-58.8407
-58.3384
-71.3967
-69.9856
-69.2868
-67.7771
-66.3492
-66.1975
-65.8807
-64.6944
-64.2005
-63.5882
-62.4976
-62.2633
-61.5905
-60.7551
-60.2532
-59.5836
-59.1973
-59.0262
-58.7796
-58.7938
-70.6448
-69.3248
-68.1652
-66.6303
-65.7933
-65.319
-64.5401
-64.0471
-63.7091
-62.9549
-62.3798
-62.0423
-61.4565
-60.8333
-60.4411
-59.9311
-59.522
-59.1337
-58.9735
-59.5266
-61.0042
-69.2123
-68.498
-67.273
-66.1353
-65.0415
-64.6266
-64.0541
-63.574
-63.4158
-62.7977
-62.1948
-61.8087
-61.411
-61.1364
-61.0051
-60.5745
-60.202
-59.9986
-59.883
-60.0883
-61.0741
-62.2628
-54.1293
-54.2527
-54.2734
-54.3677
-54.435
-54.3795
-54.5784
-54.5549
-54.6143
-54.5997
-54.6659
-54.8041
-54.7848
-54.7953
-54.7881
-54.9099
-55.0112
-55.1476
-55.2174
-55.2518
-55.2133
-55.1966
-55.361
-55.4456
-55.5693
-55.5517
-55.5917
-55.6098
-55.5764
-55.7421
-55.8398
-55.9916
-56.0967
-55.9466
-56.1742
-56.1813
-55.9811
-56.1411
-56.2788
-56.5275
-56.5769
-56.5971
-56.8534
-56.5689
-56.6614
-56.411
-56.6813
-56.8378
-56.9416
-57.1262
-57.1757
-57.3464
-57.4301
-57.4074
-57.2346
-57.1474
-57.4055
-57.6904
-57.493
-57.7683
-57.7827
-57.8696
-58.12
-58.174
-57.9042
-57.9319
-57.9093
-58.2713
-58.4407
-58.5036
-58.6849
-58.9903
-58.8871
-59.196
-59.168
-59.2144
-59.1213
-58.6312
-59.2893
-59.5028
-59.526
-59.6445
-59.7141
-59.8502
-60.1577
-60.385
-60.248
-60.1599
-59.9473
-59.4088
-58.986
-60.8593
-60.9434
-60.7786
-60.77
-60.8414
-61.0346
-61.6495
-61.4116
-61.3489
-61.123
-61.0306
-60.6155
-59.8155
-59.3725
-62.4885
-62.4073
-62.3523
-62.3752
-62.4692
-62.711
-63.2659
-62.485
-62.6548
-62.084
-62.0313
-61.1791
-60.6397
-59.9653
-59.2821
-63.8623
-63.7659
-64.0327
-63.89
-63.776
-64.1397
-64.1483
-63.717
-63.5704
-63.481
-62.8358
-62.0476
-61.5296
-60.73
-59.6422
-58.6952
-65.1577
-65.2963
-65.7324
-65.5424
-65.6349
-65.6834
-65.3379
-65.5583
-64.3431
-63.8833
-62.9446
-62.3155
-61.5471
-60.7854
-59.8373
-58.8146
-57.8847
-67.4209
-68.0298
-67.4513
-66.9658
-66.5821
-66.3713
-65.666
-64.6487
-64.4026
-63.868
-63.3104
-62.8204
-62.1948
-61.1503
-60.0419
-58.4567
-57.9818
-58.4728
-70.191
-70.2179
-68.5087
-66.8863
-66.8252
-66.4961
-66.0099
-64.8191
-64.8615
-64.4037
-63.7919
-62.4878
-61.944
-60.9437
-59.9133
-59.0598
-58.7452
-58.7553
-57.9698
-69.9878
-69.8837
-68.852
-67.9732
-66.7999
-66.3829
-65.7604
-65.5816
-64.9059
-64.0255
-63.1717
-62.6403
-61.5857
-60.5339
-60.0396
-59.4923
-58.9736
-58.8291
-58.4023
-58.1137
-71.1646
-69.7527
-69.0702
-67.675
-66.1516
-66.0786
-65.7126
-64.5831
-64.0263
-63.3355
-62.2886
-62.0956
-61.4553
-60.6492
-60.2163
-59.5444
-59.1397
-59.0115
-58.8124
-58.8624
-59.1887
-70.566
-69.1382
-68.046
-66.5179
-65.6463
-65.1851
-64.398
-63.9512
-63.5964
-62.8451
-62.2839
-61.9622
-61.4123
-60.7578
-60.389
-59.9106
-59.5136
-59.1632
-59.0831
-59.5797
-61.1819
-62.3611
-69.1425
-68.4644
-67.234
-66.1006
-65.0281
-64.5622
-64.0179
-63.5355
-63.3922
-62.7683
-62.1459
-61.7791
-61.3836
-61.1095
-60.9978
-60.5853
-60.1935
-60.0224
-59.9089
-60.079
-61.1695
-62.3794
-62.7182
-54.0671
-54.1172
-54.1382
-54.2992
-54.2716
-54.2292
-54.3535
-54.3964
-54.431
-54.3798
-54.5419
-54.6198
-54.6109
-54.6804
-54.6112
-54.7367
-54.8157
-54.9027
-54.8089
-54.8686
-54.8679
-54.9403
-55.1094
-55.1894
-55.2513
-55.297
-55.3175
-55.3637
-55.2256
-55.3676
-55.4931
-55.5925
-55.5682
-55.628
-55.6792
-55.8421
-55.5469
-55.7473
-55.8052
-55.9778
-56.1649
-56.0981
-56.1479
-56.2294
-56.0873
-55.9335
-56.1426
-56.2072
-56.4463
-56.5051
-56.7215
-56.8002
-56.6008
-56.5678
-56.6232
-56.3373
-56.6692
-56.8468
-56.8518
-57.0336
-57.1261
-57.2942
-57.2808
-57.2817
-57.1705
-57.1615
-57.1212
-57.3364
-57.5911
-57.3731
-57.652
-57.6831
-57.8011
-57.9835
-57.9806
-57.9183
-57.7669
-57.6661
-57.8278
-58.0538
-58.3115
-58.3971
-58.4426
-58.7346
-58.7367
-58.9359
-58.8761
-59.0269
-58.7041
-58.2784
-58.0073
-59.1728
-59.3173
-59.4165
-59.3981
-59.4961
-59.9569
-59.952
-60.0805
-60.0517
-59.7482
-59.167
-59.1445
-58.8358
-58.3029
-60.8525
-60.5093
-60.6815
-60.63
-60.7008
-61.0254
-61.5181
-61.1582
-61.0469
-60.5163
-60.6351
-60.169
-59.4311
-58.9642
-58.6591
-62.3774
-62.0325
-62.0624
-62.1585
-62.3305
-62.8235
-62.6513
-62.4095
-61.9794
-61.6921
-61.3771
-60.7228
-60.2178
-59.596
-58.7453
-58.1728
-63.6497
-63.4174
-63.4117
-63.7061
-63.672
-63.7364
-63.8964
-63.6358
-63.3003
-63.0719
-62.1338
-61.4686
-60.989
-60.171
-59.2528
-58.3593
-57.7563
-64.9351
-64.898
-65.4264
-65.2169
-65.2751
-65.4224
-64.9405
-65.2262
-63.8239
-63.2296
-62.4661
-61.7966
-60.9106
-60.2891
-59.4809
-58.2935
-58.0425
-57.597
-67.0817
-67.7683
-66.8409
-66.6755
-66.3271
-66.045
-65.328
-64.3973
-63.9486
-63.4887
-62.8752
-62.3761
-61.7509
-60.8133
-59.7465
-58.3228
-57.7311
-58.2805
-57.6563
-69.7338
-69.7192
-68.129
-66.5035
-66.5611
-66.1917
-65.6422
-64.5368
-64.5222
-64.1829
-63.3921
-62.1748
-61.7137
-60.6843
-59.622
-59.0151
-58.6932
-58.6436
-58.0659
-57.588
-69.6955
-69.7124
-68.4385
-67.7593
-66.5143
-66.1185
-65.5074
-65.3175
-64.6617
-63.8109
-62.9585
-62.1932
-61.3473
-60.4582
-60.0411
-59.3596
-58.8943
-58.764
-58.4319
-58.1903
-58.3241
-70.929
-69.5337
-68.6809
-67.5288
-65.9453
-65.9201
-65.4766
-64.5296
-63.838
-63.0931
-62.0483
-61.8997
-61.2828
-60.5934
-60.1745
-59.5382
-59.1004
-59.007
-58.8432
-58.961
-59.3508
-61.6056
-70.5017
-68.958
-67.9022
-66.4438
-65.4997
-65.042
-64.315
-63.8575
-63.4782
-62.733
-62.1883
-61.8995
-61.3361
-60.7051
-60.358
-59.9072
-59.5105
-59.1915
-59.1788
-59.6303
-61.2596
-62.5527
-62.4614
-69.1053
-68.4175
-67.1865
-66.0552
-65.006
-64.5001
-63.9809
-63.5082
-63.3623
-62.7417
-62.0989
-61.7526
-61.3564
-61.0903
-60.9924
-60.5932
-60.1709
-60.0479
-59.9238
-60.0669
-61.2438
-62.5085
-62.8204
-63.2206
-53.9538
-54.0698
-54.0894
-54.1313
-54.0988
-54.0918
-54.3001
-54.3096
-54.2269
-54.2252
-54.4185
-54.4179
-54.3795
-54.394
-54.368
-54.6336
-54.713
-54.6203
-54.654
-54.7275
-54.6306
-54.7379
-54.853
-54.8736
-54.8512
-54.8602
-54.9136
-55.0524
-54.9554
-55.087
-55.1842
-55.2563
-55.299
-55.3481
-55.4224
-55.4668
-55.2416
-55.3555
-55.4539
-55.5321
-55.6233
-55.6239
-55.6372
-55.8355
-55.8673
-55.5482
-55.7473
-55.8466
-55.91
-56.001
-56.0241
-56.2088
-56.2121
-56.0854
-56.1413
-55.9363
-56.1382
-56.2218
-56.3669
-56.43
-56.6832
-56.7583
-56.5247
-56.5282
-56.5083
-56.5674
-56.32
-56.5053
-56.7694
-56.8214
-56.9127
-57.0623
-57.1312
-57.1482
-57.1422
-57.058
-57.0451
-56.9179
-56.9774
-57.257
-57.3557
-57.2836
-57.3883
-57.69
-57.5535
-57.8542
-57.8357
-57.7651
-57.5242
-57.4135
-57.297
-57.6982
-57.9947
-58.266
-58.21
-58.3264
-58.5565
-58.6568
-58.7394
-58.577
-58.8579
-58.3113
-58.01
-57.9136
-57.7518
-59.1327
-59.2368
-59.3212
-59.2151
-59.3227
-60.0578
-59.9675
-59.6516
-59.6583
-59.6045
-58.9377
-58.5793
-58.4882
-58.1118
-57.7371
-60.848
-60.582
-60.4741
-60.4063
-60.4862
-60.7869
-61.3006
-61.0393
-60.6637
-60.7267
-59.8989
-59.7191
-59.1068
-58.6523
-58.1551
-57.4928
-62.2812
-61.6507
-61.8499
-61.9536
-62.2262
-62.8819
-62.2244
-61.5091
-62.1343
-61.2561
-60.7082
-60.3816
-59.5121
-59.1104
-58.4827
-58.1023
-57.7185
-63.2281
-63.3132
-63.1944
-63.1979
-63.5846
-63.5195
-63.785
-63.3768
-62.7953
-62.324
-61.704
-60.8941
-60.2875
-59.6795
-58.8463
-58.1181
-57.6497
-57.1874
-64.7849
-64.8524
-64.7903
-64.9021
-64.9721
-65.2063
-64.604
-64.7158
-63.0574
-62.7039
-62.0281
-61.3286
-60.6752
-59.8224
-59.1822
-58.1329
-57.8306
-57.4
-57.2612
-66.8195
-67.3768
-66.2832
-66.248
-66.1081
-65.6312
-64.9926
-63.9486
-63.4267
-62.9982
-62.52
-61.9106
-61.1744
-60.4365
-59.5272
-58.2239
-57.5729
-58.1127
-57.7884
-57.0113
-69.3039
-69.122
-67.7136
-66.1131
-66.3459
-65.9103
-65.2286
-64.23
-64.2606
-63.9098
-63.0021
-61.8261
-61.4597
-60.5284
-59.4078
-58.9578
-58.6748
-58.5939
-58.1275
-57.6897
-57.4212
-69.3448
-69.4586
-68.1992
-67.4817
-66.2584
-65.8662
-65.2452
-65.023
-64.4297
-63.5809
-62.7161
-61.8613
-61.1035
-60.4143
-59.9535
-59.2064
-58.7697
-58.6891
-58.4617
-58.2876
-58.4361
-59.1522
-70.6348
-69.2912
-68.3435
-67.3603
-65.753
-65.7195
-65.2035
-64.4115
-63.645
-62.8455
-61.8269
-61.7282
-61.1365
-60.5134
-60.052
-59.5061
-59.0628
-58.9996
-58.8766
-59.0661
-59.7002
-61.7867
-61.7147
-70.2962
-68.7877
-67.7459
-66.3479
-65.3526
-64.9027
-64.2503
-63.7565
-63.3675
-62.6158
-62.0925
-61.84
-61.268
-60.6602
-60.3239
-59.9168
-59.5183
-59.2196
-59.1857
-59.6923
-61.3405
-62.8401
-62.5962
-62.4249
-69.0658
-68.3709
-67.1217
-66.0039
-64.976
-64.4616
-63.95
-63.4754
-63.3277
-62.7074
-62.0587
-61.7265
-61.3321
-61.074
-60.9854
-60.6001
-60.1619
-60.0622
-59.9298
-60.041
-61.313
-62.6463
-62.9149
-63.2692
-64.5339
-53.9552
-53.9784
-54.0991
-54.0664
-54.0342
-54.1352
-54.1175
-54.0015
-54.0428
-54.4179
-54.3426
-54.2363
-54.2128
-54.1708
-54.4355
-54.4936
-54.4258
-54.3489
-54.3666
-54.4247
-54.6624
-54.7181
-54.7331
-54.6683
-54.6825
-54.6967
-54.8121
-54.7458
-54.8715
-54.8826
-54.9143
-54.9151
-55.0082
-55.0634
-55.1636
-54.9719
-55.1131
-55.2087
-55.2768
-55.3326
-55.3204
-55.4403
-55.4307
-55.5418
-55.2389
-55.3521
-55.4458
-55.5154
-55.5911
-55.6336
-55.6298
-55.8315
-55.7617
-55.8058
-55.6079
-55.6325
-55.8088
-55.8791
-55.9715
-55.9748
-56.2129
-56.1209
-56.0156
-56.0652
-56.0669
-55.9693
-56.0198
-56.139
-56.2381
-56.3292
-56.4811
-56.6827
-56.4954
-56.4539
-56.3943
-56.4924
-56.3252
-56.2527
-56.5205
-56.6396
-56.889
-56.8286
-57.0142
-56.9753
-57.1127
-56.9897
-56.9446
-56.8927
-56.7327
-56.7817
-56.8086
-57.1039
-57.2906
-57.3622
-57.3181
-57.5148
-57.6014
-57.7697
-57.6114
-57.5083
-57.5814
-57.1863
-57.0637
-56.9213
-57.7929
-57.8856
-57.8546
-58.1611
-58.1938
-58.3231
-58.3847
-58.5408
-58.5392
-58.3293
-58.1675
-57.9471
-57.609
-57.4315
-57.1372
-59.0031
-59.0964
-59.2149
-59.0156
-59.3186
-59.9179
-59.6721
-59.5015
-59.302
-59.2861
-58.6982
-58.1137
-58.0951
-57.8885
-57.5276
-57.1685
-60.7549
-60.4543
-60.5092
-60.2247
-60.2064
-60.5172
-60.9879
-60.8181
-60.2469
-60.2435
-59.625
-59.2458
-58.6362
-58.2671
-57.8176
-57.3621
-57.137
-62.0091
-61.6688
-61.8002
-61.9253
-62.0469
-62.985
-62.0291
-61.1735
-61.8673
-60.6168
-60.4237
-59.8087
-59.2045
-58.9733
-58.1371
-57.8372
-57.4369
-56.9979
-62.949
-63.1673
-63.0175
-62.9315
-63.3332
-63.3347
-63.3141
-63.1115
-62.3355
-61.8689
-61.2316
-60.3458
-59.9074
-59.2019
-58.5752
-57.8592
-57.3341
-57.0143
-56.8706
-64.5412
-64.5782
-64.3223
-64.6696
-64.7152
-64.8723
-64.1959
-64.0293
-62.7062
-62.0693
-61.5676
-60.7933
-60.2637
-59.4794
-58.9737
-57.9412
-57.0323
-57.3409
-57.1977
-56.7513
-66.6498
-66.8716
-65.8035
-65.8721
-65.881
-65.3155
-64.6417
-63.4611
-63.0603
-62.5173
-62.1655
-61.4411
-60.5713
-60.124
-59.2891
-58.0385
-57.55
-57.9556
-57.6955
-57.1415
-56.8511
-68.9159
-68.4862
-67.1152
-65.7377
-66.0749
-65.5343
-64.9426
-63.9863
-64.0319
-63.73
-62.6164
-61.4377
-61.0439
-60.2679
-59.2229
-58.8264
-58.6841
-58.628
-58.1373
-57.7812
-57.5521
-58.0405
-69.0207
-69.1532
-67.94
-67.1033
-65.9854
-65.616
-64.9744
-64.7683
-64.2125
-63.3388
-62.4751
-61.575
-60.845
-60.1077
-59.8027
-59.0768
-58.6558
-58.6635
-58.4967
-58.3713
-58.6206
-59.6086
-60.3144
-70.4133
-69.0587
-68.0163
-67.1541
-65.5373
-65.5066
-64.9569
-64.2356
-63.4937
-62.5883
-61.6448
-61.5415
-61.0244
-60.4313
-60.0204
-59.4439
-59.0083
-59.0174
-58.9334
-59.1398
-59.9429
-61.8599
-61.9462
-61.9116
-70.107
-68.6188
-67.5856
-66.2555
-65.2147
-64.7435
-64.1736
-63.6522
-63.2637
-62.4944
-61.992
-61.7798
-61.2466
-60.6281
-60.2946
-59.9284
-59.5324
-59.2574
-59.2608
-59.7645
-61.4267
-63.0313
-62.724
-62.5355
-64.002
-68.9998
-68.329
-67.0611
-65.9546
-64.9438
-64.4432
-63.9153
-63.4303
-63.2913
-62.6723
-62.0131
-61.7029
-61.3047
-61.0682
-60.9764
-60.5981
-60.1579
-60.0705
-59.9386
-60.009
-61.3802
-62.7834
-62.9961
-63.2989
-64.5431
-64.4875
-53.9205
-53.9745
-53.953
-54.1325
-54.0695
-54.0586
-54.056
-54.0502
-54.0863
-54.0757
-54.0617
-54.0872
-54.593
-54.3686
-54.2959
-54.2239
-54.2215
-54.2773
-54.4767
-54.5392
-54.5364
-54.4599