/*--------------------------------*- C++ -*----------------------------------*\
  =========                 |
  \\      /  F ield         | OpenFOAM: The Open Source CFD Toolbox
   \\    /   O peration     | Website:  https://openfoam.org
    \\  /    A nd           | Version:  7
     \\/     M anipulation  |
\*---------------------------------------------------------------------------*/
FoamFile
{
    version     2.0;
    format      ascii;
    class       surfaceScalarField;
    location    "5.5";
    object      phi_0;
}
// * * * * * * * * * * * * * * * * * * * * * * * * * * * * * * * * * * * * * //

dimensions      [0 3 -1 0 0 0 0];

internalField   nonuniform List<scalar> 
54451
(
5.81361e-05
-0.00176979
-7.6426e-05
0.000122983
-0.00024648
-0.000270236
5.03571e-05
-0.0018154
-7.57658e-05
2.76748e-05
-0.00166122
-5.87424e-05
0.000174366
0.0013171
-0.00050828
0.000108187
-0.000307966
-0.000264464
7.05393e-05
-0.000813093
-0.000243138
4.42104e-05
-0.00185502
-7.49668e-05
2.33822e-05
-0.00170405
-5.63109e-05
-1.47295e-05
-0.00298535
-3.66379e-05
0.000360966
0.00257973
-0.000578843
0.000166222
0.00125616
-0.000508605
0.00012628
0.000172524
-0.000481108
0.000120191
-0.000386646
-0.000259043
5.80868e-05
-0.000875208
-0.000237054
7.1954e-05
-0.00219126
-0.000225515
4.13511e-05
-0.00189193
-7.39617e-05
1.79503e-05
-0.00173918
-5.77897e-05
-2.68778e-05
-0.0029805
-3.42809e-05
1.68553e-05
-0.00372151
-4.03541e-05
0.000344122
0.00486415
-0.000462629
0.000308655
0.00250934
-0.000600821
0.000313754
0.00128033
-0.000638145
0.00017991
0.00119192
-0.000497445
0.00011281
8.83229e-05
-0.000479127
0.000191549
-0.00166455
-0.000434752
0.000126647
-0.000473886
-0.000253655
6.06092e-05
-0.000945969
-0.000230941
5.35722e-05
-0.00228791
-0.000220862
2.4275e-05
-0.00264909
-0.000202407
3.37564e-05
-0.00192145
-7.3036e-05
9.09582e-06
-0.00176585
-5.63857e-05
-3.48235e-05
-0.00296801
-3.54549e-05
3.8804e-06
-0.00371941
-4.02606e-05
1.07729e-05
-0.0028829
-4.97416e-05
0.000249179
0.00713257
9.13286e-07
0.000330733
0.00487557
-0.000455267
0.000524668
0.00330133
-0.000423469
0.000310569
0.00246922
-0.00061247
0.000371946
0.00104509
-0.000624712
0.000314138
-0.000364882
-0.000593186
0.000185308
0.0011243
-0.000484505
0.000103298
1.67864e-05
-0.000468597
0.00016382
-0.00181003
-0.000443895
6.12305e-05
-0.00177001
-0.000366778
0.000123076
-0.000565448
-0.000247475
4.84532e-05
-0.00101374
-0.000225246
1.44077e-05
-0.00235351
-0.000214568
3.21811e-05
-0.0026984
-0.000199854
3.70559e-05
-0.00227881
-0.000191174
2.59417e-05
-0.00194344
-7.21219e-05
1.15271e-06
-0.00178461
-5.54295e-05
-4.52921e-05
-0.00294451
-3.46009e-05
-6.12657e-06
-0.00370877
-3.99703e-05
-4.07386e-06
-0.00287019
-4.88978e-05
1.57689e-05
-0.00266983
-5.59533e-05
0.000439024
0.00714033
7.84888e-05
0.00038736
0.00707093
-1.3202e-05
0.000622001
0.00632336
-0.00016122
0.000326136
0.00489894
-0.00046538
0.000635324
0.00303368
-0.000450997
0.00045455
0.00156518
-0.000531409
0.000278809
0.00245299
-0.000590457
0.000205863
0.000942053
-0.000612001
0.000200647
-0.000436163
-0.000590258
1.98187e-05
-0.00058844
-0.000498422
0.000165289
0.00107089
-0.000470259
7.94264e-05
-4.59286e-05
-0.000452763
8.90295e-05
-0.00190813
-0.000445118
6.17676e-05
-0.00187063
-0.000372859
9.83053e-05
-0.00191004
-0.000306708
0.000109156
-0.000651125
-0.000241631
3.97332e-05
-0.00108039
-0.000219402
1.71476e-06
-0.00241784
-0.000207919
1.29271e-05
-0.00273577
-0.000196256
3.48667e-06
-0.00229885
-0.000187374
4.24961e-05
-0.00212831
-0.000200308
1.56437e-05
-0.00195524
-7.11705e-05
-6.91619e-06
-0.00179293
-5.68868e-05
-5.56538e-05
-0.00291067
-3.36133e-05
-1.8113e-05
-0.00368522
-4.00373e-05
-1.22738e-05
-0.00284696
-5.09291e-05
6.57205e-07
-0.00266307
-5.63167e-05
-1.00698e-05
-0.00245445
-5.71931e-05
0.000727891
0.007792
0.000333134
0.000466193
0.0072636
0.000171647
0.00054095
0.00711866
0.000281986
0.000441955
0.0069158
0.000188376
0.000667067
0.00642994
-0.000151523
0.000370697
0.00612798
-0.000340816
0.000332635
0.00499676
-0.00044551
0.000228532
0.00299221
-0.000446573
0.000291954
0.00157663
-0.000553757
8.61513e-05
-0.000132035
-0.000495233
0.000254268
0.00242534
-0.000558767
5.28232e-05
0.00094559
-0.000567391
0.00015448
-0.000532412
-0.000581202
-5.22549e-05
-0.00056854
-0.000496136
7.67045e-05
-0.00134686
-0.000432671
0.00013945
0.0010291
-0.000454163
3.52318e-05
-7.96985e-05
-0.000431988
5.09182e-05
-0.00197637
-0.000433727
-2.47867e-06
-0.00192627
-0.00037408
3.26374e-05
-0.00200751
-0.000304532
9.47252e-05
-0.00167739
-0.000308077
7.77109e-05
-0.000715309
-0.000237378
2.45125e-05
-0.0011407
-0.000212753
-1.70687e-05
-0.00247419
-0.000201643
-4.62005e-06
-0.00276651
-0.00019067
-2.9033e-05
-0.00229356
-0.000184779
5.30217e-06
-0.0021229
-0.000197426
-2.20607e-05
-0.00183673
-0.000187132
4.75141e-06
-0.00195641
-7.03873e-05
-1.86439e-05
-0.00179022
-5.52352e-05
-6.63168e-05
-0.00286687
-3.43633e-05
-3.19242e-05
-0.00364677
-4.01335e-05
-2.64227e-05
-0.00280949
-5.10816e-05
-9.2102e-06
-0.00264816
-5.66287e-05
-2.16176e-05
-0.00243215
-5.7004e-05
-6.3148e-05
-0.00189658
-6.42378e-05
0.00075992
0.00803478
0.00145938
0.000748751
0.00789771
0.000370348
0.000236044
0.00783664
0.000535239
0.000563907
0.0073127
0.00029712
0.000456655
0.00715543
0.000345289
0.000235209
0.00730385
0.000371796
0.000340186
0.00713001
-0.000100714
0.000366092
0.00656729
-8.65309e-05
0.00017957
0.00615835
-6.95027e-05
0.000228751
0.00371781
-0.000508874
0.000317079
0.00501719
-0.000384344
0.000302771
0.00274355
-0.000446799
0.000197856
0.00166409
-0.000577406
-0.000134947
-8.08438e-05
-0.000522257
-3.69873e-05
0.000422842
-0.000329055
0.000148075
0.00242357
-0.000513176
-1.00641e-05
0.000965666
-0.000533547
4.85595e-05
-0.000550153
-0.00054729
-0.000176539
-0.000483718
-0.000491964
-7.50371e-05
-0.00131892
-0.000416404
0.000133059
-0.000964
-0.00043868
7.13124e-05
0.00102185
-0.000434526
-1.09814e-05
-8.31084e-05
-0.00041526
2.83379e-05
-0.00203053
-0.000423232
-5.62212e-05
-0.00193938
-0.000369011
-5.01635e-05
-0.00205613
-0.000304337
8.17995e-06
-0.00168056
-0.000304244
-3.66961e-05
-0.00150313
-0.000317807
6.02891e-05
-0.000772664
-0.00023363
-7.23135e-06
-0.00118677
-0.000202711
-4.64216e-05
-0.00251274
-0.000194098
-3.58831e-05
-0.00277758
-0.000186616
-5.69899e-05
-0.00227287
-0.000180802
-3.09868e-05
-0.00208995
-0.000195957
-4.59261e-05
-0.00182746
-0.000182383
-3.90769e-05
-0.00212891
-0.000207676
-6.80619e-06
-0.00194672
-6.9064e-05
-3.18292e-05
-0.00177279
-5.59918e-05
-8.24915e-05
-0.0028065
-3.31178e-05
-4.81118e-05
-0.00359366
-3.93684e-05
-3.91126e-05
-0.00275945
-5.10602e-05
-1.80222e-05
-0.00262431
-5.69107e-05
-2.92445e-05
-0.00240224
-5.72928e-05
-7.45078e-05
-0.00181503
-6.40379e-05
-5.73658e-05
-0.00140152
-6.8844e-05
0.000590197
0.0077103
0.00269124
0.000971797
0.00780281
0.00148779
0.000271014
0.00736226
0.00133748
0.000677531
0.00800473
0.000508611
0.000128404
0.0080002
0.000535038
-0.000167898
0.00807487
0.000757952
0.000294104
0.00746944
0.00037475
0.000321683
0.007089
0.000407958
6.24936e-05
0.00733821
0.000428006
9.81416e-05
0.00676139
0.00013852
0.000330139
0.00717821
0.000244155
0.000703917
0.00656115
-0.000495725
0.000129286
0.00613099
9.39341e-06
-0.000236384
0.00375297
-3.22054e-06
-0.000247813
0.00186131
-0.000338544
0.000275854
0.00493136
-0.000370067
4.90808e-05
0.00272605
-0.00042599
4.732e-05
0.0017978
-0.000579267
-0.000323076
3.83126e-05
-0.000550026
-0.000288203
0.000486298
-0.000372547
9.77987e-05
0.000746401
-0.000391516
9.61442e-05
0.00231751
-0.000484663
-8.549e-05
0.00103887
-0.000511875
-1.94485e-05
-0.000512682
-0.000523231
-0.000307222
-0.000301623
-0.000478385
-0.000185552
-0.00126519
-0.000410299
-8.39097e-06
-0.00093939
-0.000424442
-0.000119634
-0.00054941
-0.000466904
3.58723e-05
0.00102565
-0.000402776
-4.76606e-05
-7.93349e-05
-0.00039787
-2.5611e-05
-0.00205002
-0.00041658
-0.000116776
-0.00192639
-0.000355326
-0.00010227
-0.00207755
-0.000302306
-5.86909e-05
-0.00165172
-0.00030547
-8.48159e-05
-0.00146089
-0.000307594
-1.76095e-05
-0.00192066
-0.000350699
3.58466e-05
-0.000816627
-0.000231139
-3.97015e-05
-0.00122155
-0.000190981
-8.39815e-05
-0.00253081
-0.000183154
-6.31054e-05
-0.00277236
-0.00018432
-9.31564e-05
-0.00223009
-0.000175352
-4.75411e-05
-0.0020466
-0.000194629
-5.96414e-05
-0.00181341
-0.000179614
-6.75267e-05
-0.00211574
-0.00020253
-7.56429e-05
-0.000943895
-0.000238316
-2.13304e-05
-0.00192299
-6.77066e-05
-4.27855e-05
-0.00174617
-5.28997e-05
-9.73405e-05
-0.00273172
-3.34272e-05
-5.88266e-05
-0.00352879
-3.91615e-05
-5.13766e-05
-0.00269633
-5.11161e-05
-3.22573e-05
-0.00258589
-5.72205e-05
-3.82995e-05
-0.00236372
-5.71252e-05
-8.32195e-05
-0.00172533
-6.37748e-05
-6.73296e-05
-0.00133047
-6.77594e-05
-6.7333e-05
-0.00177912
-6.68806e-05
0.000414909
0.00660012
0.00348997
0.000821185
0.00764409
0.00283675
0.000246405
0.00749656
0.00278583
0.000971635
0.00737215
0.00163359
5.2206e-05
0.00743372
0.00149253
-8.67133e-05
0.00738438
0.00118312
0.000490547
0.00796062
0.000632385
-2.46766e-05
0.00813413
0.000721042
-0.000143137
0.00809949
0.000716051
-0.000149076
0.00771152
0.000538209
0.000300209
0.00751871
0.000464187
0.00031017
0.00738893
0.000468567
9.18e-05
0.00727801
0.00050564
5.22553e-05
0.00688694
1.38117e-05
-8.54013e-05
0.00482865
4.51525e-06
0.000452754
0.00689961
0.000276682
0.000377384
0.00674694
-0.000269934
1.26656e-05
0.00575899
-8.90698e-05
-0.000399858
0.00402402
-0.000184877
-0.000278854
0.00202803
-0.000179297
-7.84724e-05
0.00208114
-0.000186387
0.000249411
0.00484239
-0.000412536
-3.90251e-05
0.00267751
-0.000367988
-2.73076e-05
0.00192517
-0.0005455
-0.000618593
0.000300687
-0.00053027
-0.00013447
0.000312623
-0.000427433
-6.06363e-05
0.000810944
-0.000384844
-0.000102637
0.0010583
-0.000583147
5.95289e-05
0.00216623
-0.000427707
-9.94862e-05
0.00109774
-0.000491706
-0.000106226
-0.000427397
-0.000516545
-0.000401663
-9.80066e-05
-0.00044196
-0.000344406
-0.00108579
-0.000415646
-0.000138788
-0.000860092
-0.0004095
-0.000176473
-0.000429412
-0.000452783
-0.000124956
-0.000527912
-0.000509155
-3.76005e-06
0.0010449
-0.000374553
-9.85402e-05
-4.90888e-05
-0.000374183
-7.66393e-05
-0.00204309
-0.000412143
-0.000150884
-0.00191482
-0.000340371
-0.000201451
-0.0020334
-0.000291181
-0.000130484
-0.00156571
-0.000305378
-0.000109913
-0.00140944
-0.000306655
-6.56618e-05
-0.00188999
-0.000340127
-9.72305e-05
-0.000929363
-0.000375453
-4.96409e-07
-0.000842678
-0.000223319
-6.16835e-05
-0.00125248
-0.000181317
-0.000130366
-0.0025164
-0.000172366
-8.18133e-05
-0.00274614
-0.000186393
-0.000117555
-0.00217484
-0.000173389
-8.3094e-05
-0.0019823
-0.000188813
-8.05856e-05
-0.0017908
-0.000174957
-0.000102143
-0.00207869
-0.000197748
-9.07349e-05
-0.000889733
-0.000233287
-0.00014515
-0.00136139
-0.000251261
-3.25039e-05
-0.00188834
-6.63805e-05
-6.42035e-05
-0.00169653
-5.31435e-05
-0.000117485
-0.00263667
-3.04647e-05
-7.36615e-05
-0.00344993
-3.86233e-05
-5.90808e-05
-0.00262483
-5.15763e-05
-4.55106e-05
-0.00253403
-5.74681e-05
-5.0484e-05
-0.002314
-5.64592e-05
-9.2805e-05
-0.00162611
-6.35388e-05
-7.51479e-05
-0.00125111
-6.79859e-05
-8.54526e-05
-0.00169498
-6.64392e-05
-4.56607e-05
-0.00145335
-7.82289e-05
0.000248604
0.00678922
0.00371087
0.000554935
0.00660396
0.00349217
4.15673e-05
0.00728889
0.00344566
0.00095281
0.00741156
0.00289526
-7.12124e-05
0.00742371
0.00303302
-7.65428e-05
0.00714746
0.00265507
0.000559271
0.00725874
0.00175429
-5.86592e-05
0.00731259
0.0017887
-0.000223221
0.00757694
0.00138005
-0.000193458
0.00758106
0.00121253
0.00063045
0.00794783
0.000602537
-0.000146402
0.00840275
0.000820338
-0.000205647
0.00814505
0.000972926
2.07151e-06
0.00772783
0.000749919
-9.79854e-05
0.00639099
0.000522137
0.00036464
0.00746974
0.000623674
0.000269627
0.00740811
0.000552765
1.83859e-05
0.00710188
0.000638979
-0.000427122
0.00718143
0.000238414
-0.000361153
0.00495485
-3.0089e-05
-0.000291408
0.00439226
7.16077e-05
0.000455189
0.00656257
0.000364532
0.000100569
0.00682803
5.59945e-05
2.4334e-06
0.00556093
-0.000101613
-0.000831867
0.00404528
0.000102942
-0.00015882
0.0023449
-0.000477394
-0.000305275
0.00239107
-0.000244592
-0.000344088
0.00279626
-0.000263354
5.78394e-05
0.00488156
-0.000397908
-0.000142634
0.00267584
-0.000367727
-0.000178623
0.00213813
-0.000508549
-0.000687551
0.000479026
-0.000437952
-0.000533316
0.000454023
-0.00048276
-0.000242837
0.000874632
-0.000387072
-0.000149486
0.00123164
-0.000585172
-0.000296767
0.00139621
-0.000530286
-6.90358e-06
0.00197128
-0.000363454
-0.000146546
0.00115035
-0.000432309
-0.000167375
-0.000336598
-0.000491769
-0.000437841
0.000113467
-0.000441062
-0.000501534
-0.000821773
-0.000405897
-0.000314006
-0.000695674
-0.000396543
-0.000211842
-0.000299446
-0.000437537
-0.00018999
-0.000368529
-0.000487837
-0.00021013
-0.000417534
-0.000488043
-7.21227e-05
0.00108534
-0.000335288
-0.000158256
1.90744e-05
-0.000346144
-0.000176733
-0.00197115
-0.000399759
-0.000184849
-0.00189674
-0.000327191
-0.000223758
-0.00199093
-0.000276642
-0.000164321
-0.0014713
-0.000304359
-0.000143223
-0.00135861
-0.000293567
-0.000128007
-0.00184065
-0.000330135
-0.00012079
-0.000871769
-0.000367666
-0.000199717
-0.00170744
-0.000397661
-3.18057e-05
-0.000848899
-0.0002189
-0.000116595
-0.00126373
-0.000159677
-0.000175216
-0.00247957
-0.000160415
-0.000105907
-0.00269679
-0.000189471
-0.000129903
-0.00211337
-0.00017704
-0.000126468
-0.00188909
-0.000185642
-0.000106762
-0.00175372
-0.000169614
-0.000134824
-0.00202131
-0.00019031
-0.000101261
-0.000833789
-0.00022758
-0.000161391
-0.00127238
-0.000246359
-9.52932e-05
-0.000621455
-0.000271646
-5.0319e-05
-0.00183662
-6.51516e-05
-8.23356e-05
-0.00162862
-5.19534e-05
-0.000127631
-0.00253135
-3.08377e-05
-8.83206e-05
-0.00335349
-3.85863e-05
-7.03632e-05
-0.00254108
-5.20174e-05
-5.20025e-05
-0.00247593
-5.76687e-05
-5.93512e-05
-0.00225542
-5.67019e-05
-0.000101479
-0.00151867
-6.24225e-05
-8.04149e-05
-0.00116634
-6.78989e-05
-8.37777e-05
-0.00161252
-6.66686e-05
-4.81838e-05
-0.00139299
-7.86086e-05
-2.38649e-05
-0.000692254
-9.29717e-05
0.00018731
0.00631635
0.00394981
0.000261159
0.00682385
0.00379723
1.66634e-05
0.0069972
0.00375973
0.00043551
0.00690198
0.00352155
-0.000149556
0.0074178
0.00344161
-0.000167979
0.0076969
0.00346282
0.000469618
0.00717183
0.00310098
-0.000211246
0.00742243
0.00304913
-0.000358436
0.00742509
0.00289061
-0.000157012
0.00733516
0.0025149
0.000825028
0.007201
0.00169249
-9.63248e-05
0.00734638
0.00167042
-0.000252041
0.00786733
0.0015447
-0.000376343
0.00794937
0.00139015
-0.000489897
0.00744233
0.00136683
0.000728684
0.00789065
0.000440201
-1.85996e-05
0.00854353
0.000749983
-6.80682e-06
0.00800519
0.000985389
-0.000326784
0.00763946
0.000960963
-0.000675196
0.00656422
0.000890731
-0.000517065
0.00598713
0.000635287
0.000297628
0.00745148
0.000663682
4.28567e-05
0.00728978
0.000799716
-0.00016743
0.00723509
0.000589416
-0.000784462
0.00729867
0.000474338
-0.000441553
0.00525751
0.000218486
-0.000429402
0.00427802
0.000208281
-0.000350609
0.00375797
0.00020988
0.000149456
0.00636197
0.000498052
-8.88138e-05
0.00681516
0.000323585
-0.000125442
0.00543727
0.000126468
-0.000595196
0.00371001
0.000141304
-0.000562931
0.00278362
-0.000306163
-0.00051026
0.00244034
-0.000259242
-0.000380773
0.00302314
-0.000240183
-0.000346778
0.00329904
-0.000558148
-1.95691e-05
0.00485371
-0.000127407
-0.000166569
0.00260619
-0.000308227
-0.000238989
0.00232795
-0.000485932
-0.000770733
0.000715347
-0.000411979
-0.00070993
0.00072572
-0.000501253
-0.000432408
0.00094926
-0.000438987
-0.000230539
0.00145861
-0.000595346
-0.000312793
0.00149764
-0.000563799
-0.000414692
0.00143296
-0.000476855
-9.68093e-05
0.0017817
-0.000307585
-0.00019555
0.00118407
-0.000359883
-0.000281286
-0.000211588
-0.000452767
-0.000476967
0.000328098
-0.000414282
-0.000541285
-0.000544355
-0.000400953
-0.000387535
-0.000473113
-0.000405243
-0.000255607
-0.000160024
-0.000423583
-0.000252803
-0.00021724
-0.00046403
-0.000193618
-0.000349178
-0.000483366
-0.000332768
-0.000477643
-0.000495715
-0.000168968
0.00120379
-0.000320889
-0.000234141
0.000107917
-0.000306584
-0.000262719
-0.0018465
-0.000383287
-0.000214541
-0.001867
-0.000320867
-0.000260615
-0.0019241
-0.000263302
-0.000225481
-0.00135342
-0.000295514
-0.000176603
-0.00131286
-0.000280275
-0.00017076
-0.0017957
-0.000302573
-0.000145201
-0.000813614
-0.000344349
-0.000223567
-0.00162768
-0.000385242
-0.000136219
-0.00112733
-0.000365296
-9.49244e-05
-0.000814013
-0.000210493
-0.000153016
-0.0012528
-0.000159152
-0.000216157
-0.00241025
-0.000140469
-0.000134614
-0.00262102
-0.000189882
-0.000149058
-0.00204479
-0.000179354
-0.000144641
-0.00179039
-0.000183106
-0.000122429
-0.00171215
-0.000164128
-0.00015958
-0.00194644
-0.00018639
-0.000118282
-0.000763267
-0.000222965
-0.000186293
-0.00115701
-0.000240434
-0.000117432
-0.000531574
-0.000266992
-0.000112149
0.000157277
-0.000269886
-5.1062e-05
-0.00178457
-6.4919e-05
-0.000109329
-0.00153382
-5.06162e-05
-0.000140024
-0.00241387
-2.94093e-05
-0.000104193
-0.00324167
-3.84633e-05
-7.86933e-05
-0.00244848
-5.24909e-05
-6.45322e-05
-0.00240528
-5.81436e-05
-6.85349e-05
-0.00218795
-5.66027e-05
-0.000108407
-0.00140415
-6.28127e-05
-8.78814e-05
-0.00107328
-6.76014e-05
-9.62292e-05
-0.00151822
-6.59727e-05
-6.10043e-05
-0.00132018
-7.84747e-05
-2.69853e-05
-0.000651324
-9.25527e-05
-5.18745e-05
0.000438229
-0.000105807
0.000192671
0.00571057
0.00422774
0.000203601
0.00634495
0.0039864
5.69268e-05
0.00650067
0.00394738
0.000101598
0.0068943
0.00385099
-4.36298e-05
0.00689754
0.00379096
-9.77247e-05
0.00700891
0.00373765
0.000231485
0.00700655
0.00354816
-0.000255534
0.00751875
0.00346489
-0.000323645
0.0076465
0.00345721
-0.000120684
0.00722071
0.00356432
0.000534713
0.00731166
0.00315819
-0.000237763
0.00752025
0.00314461
-0.000267697
0.00748749
0.00300237
-0.000289198
0.00742526
0.00271336
-0.000510307
0.00744586
0.002404
0.000750813
0.00732739
0.00184685
-4.06226e-05
0.00723803
0.00182286
-9.37506e-05
0.0079456
0.0016791
-0.000239203
0.00802929
0.0013772
-0.000549114
0.00733596
0.00137045
-0.000465773
0.00719709
0.00116344
0.000529682
0.00787238
0.000494528
0.000117133
0.00829041
0.000619045
-0.000507188
0.00807774
0.00101719
-0.000738008
0.00745287
0.00112552
-0.00054839
0.00668471
0.00094731
-0.000542629
0.00613376
0.000857335
-0.000134199
0.00564173
0.000490212
0.000144788
0.00737569
0.000635154
-8.92703e-05
0.00708639
0.000867528
-0.000155213
0.00732633
0.000738251
-0.000436478
0.00725122
0.000478152
-0.000433338
0.00522392
0.000378334
-0.000678372
0.00441973
0.000244887
-0.000503741
0.00384537
0.000243858
-0.00031811
0.00457152
-8.07923e-06
2.13552e-05
0.00638838
0.000425513
-0.000121068
0.00680474
0.000462974
-0.000317653
0.00551067
0.00032885
-0.00088525
0.00373291
0.000218083
-0.000541902
0.00293701
-0.000180118
-0.000595972
0.00268859
-0.000390848
-0.000516939
0.00329512
-0.000244827
-0.000287052
0.00351085
-0.000477737
-0.000289705
0.00283902
-0.000648142
-0.000223969
0.00485967
8.68219e-05
-2.13105e-06
0.00248148
-0.000196116
-0.000302508
0.00244158
-0.000400639
-0.000739171
0.000937311
-0.000445693
-0.000776218
0.00103047
-0.000481795
-0.000585565
0.00114052
-0.000494485
-0.000248875
0.00162345
-0.000610555
-0.000317377
0.0014927
-0.000525838
-0.000401082
0.00156861
-0.000491987
-0.000560587
0.00153128
-0.000420214
-0.000171408
0.00165236
-0.000314499
-0.00023607
0.00120187
-0.00032345
-0.000391159
-4.50592e-05
-0.000397972
-0.000523684
0.000561858
-0.000377383
-0.000624072
-0.000212712
-0.000382468
-0.000486724
-0.00019542
-0.000417402
-0.000378029
4.34244e-05
-0.000407265
-0.000321206
-3.82792e-05
-0.000452097
-0.000324294
-0.000168315
-0.000465801
-0.000348245
-0.000337549
-0.00049878
-0.00023739
-0.00106202
-0.000390751
-0.000245144
0.00131596
-0.0002613
-0.000279549
0.00017823
-0.00026467
-0.00031807
-0.00169952
-0.000351656
-0.000257162
-0.00180629
-0.000321444
-0.000272894
-0.00186394
-0.000257192
-0.000271043
-0.00120925
-0.000281063
-0.000213372
-0.001251
-0.000266428
-0.000204823
-0.00174686
-0.000283875
-0.000171866
-0.000733764
-0.000328839
-0.000261741
-0.00152407
-0.000372518
-0.000169987
-0.00110644
-0.000353582
-0.000240447
2.67517e-05
-0.000310234
-8.4055e-05
-0.000789714
-0.00020872
-0.000229811
-0.00119546
-0.000147343
-0.00027366
-0.00229115
-0.000144618
-0.000183351
-0.00249727
-0.000185069
-0.000159555
-0.00197024
-0.000183575
-0.000169478
-0.00168739
-0.00017741
-0.000147986
-0.00165781
-0.000157995
-0.000196838
-0.0018396
-0.00018253
-0.000135096
-0.000681441
-0.000221002
-0.000196297
-0.00104347
-0.000236438
-0.00013657
-0.000434229
-0.000262213
-0.000124981
0.00025119
-0.00026291
-0.000179069
0.000538855
-0.000262827
-5.86108e-05
-0.00172598
-6.35084e-05
-0.000125157
-0.00142237
-5.12168e-05
-0.000152501
-0.00228294
-2.90446e-05
-0.000117976
-0.00311578
-3.73188e-05
-8.71881e-05
-0.00234679
-5.29647e-05
-7.44385e-05
-0.00232501
-5.83183e-05
-7.90558e-05
-0.00211026
-5.67762e-05
-0.000117617
-0.00128007
-6.30738e-05
-9.38204e-05
-0.000973832
-6.84373e-05
-0.000101392
-0.001419
-6.54321e-05
-6.84744e-05
-0.00123925
-7.84351e-05
-2.90582e-05
-0.000608593
-9.21475e-05
-5.49832e-05
0.000505902
-0.000105242
-3.98756e-05
0.000795993
-0.000115919
-7.5551e-05
0.00561292
0.00440759
0.000270023
0.00557729
0.00433227
0.000141219
0.00571946
0.00422943
0.000268282
0.00608576
0.00412528
0.000112384
0.006381
0.00395004
-9.118e-05
0.00649438
0.00397055
5.74409e-05
0.00683627
0.00388129
-0.000114748
0.00680959
0.00379816
-0.00020408
0.00691469
0.00376562
-0.000192031
0.00684287
0.00392505
0.000294411
0.00717767
0.00354887
-0.000302484
0.00761749
0.00351414
-0.000249797
0.0075637
0.0035298
-0.00047008
0.00728812
0.00357068
-0.000483206
0.00726545
0.00343529
0.000676287
0.00726329
0.00316661
-1.61227e-05
0.00745359
0.00320035
-0.000208257
0.0075938
0.00315281
-0.000308896
0.0076353
0.00286203
-0.000372245
0.00752423
0.00245812
-0.000254279
0.00762006
0.00222429
0.000517407
0.00745755
0.00195249
-7.76005e-05
0.00733119
0.00194843
-0.000390902
0.00767413
0.00197805
-0.000595689
0.00786245
0.00170362
-0.00054832
0.00720418
0.00150891
-0.000658055
0.00731211
0.00137085
-0.000240866
0.0071117
0.0011513
0.000351807
0.00760304
0.000923511
0.000336715
0.00762687
0.000732076
-0.000433817
0.00795497
0.00102042
-0.000813244
0.00770579
0.00114104
-0.000483184
0.00676207
0.00109801
-0.000616569
0.00605919
0.000960078
-0.000206438
0.0054801
0.000721658
-0.000422037
0.00562451
0.00068867
8.2468e-05
0.00724202
0.000614635
-0.000465542
0.00717727
0.000888755
-0.000477196
0.00750842
0.000844984
-0.000659316
0.00708546
0.000678077
-0.000551083
0.00524682
0.000464435
-0.000668984
0.0046578
0.000213277
-0.000792028
0.0041247
0.000240639
-0.000313068
0.00486307
-2.16742e-05
-0.000385206
0.0056551
-6.90034e-05
-0.0002633
0.00651149
0.0005699
0.000109669
0.00667591
0.000442535
-0.000346573
0.00561547
0.00040224
-0.000737256
0.00393828
0.000121569
-0.000703018
0.00317804
-9.61381e-05
-0.000638133
0.0029229
-0.000361857
-0.000567717
0.00341261
-0.000189495
-0.000288116
0.00356222
-0.000325462
-0.000216285
0.00274475
-0.000568262
-0.000581432
0.0031464
-0.000425402
-0.000263733
0.00482409
0.00024238
-0.000206676
0.00257179
-3.28841e-05
-0.000320464
0.0025033
-0.000328526
-0.00078823
0.00114643
-0.000345207
-0.000824638
0.00130983
-0.00052449
-0.000742308
0.00141474
-0.000500431
-0.000459261
0.00172094
-0.000510749
-0.00050787
0.00161907
-0.00055026
-0.000550359
0.00168674
-0.000417908
-0.000641105
0.00171346
-0.000381305
-0.000473302
0.00159391
-0.000244085
-0.000258676
0.00157856
-0.000252199
-0.000311422
0.00126233
-0.000343087
-0.000491398
0.000183771
-0.000378953
-0.00058388
0.000804994
-0.000314391
-0.000607851
9.0462e-05
-0.000345599
-0.000546589
8.18998e-05
-0.000384242
-0.000474451
0.000324178
-0.000437077
-0.000422794
0.000200656
-0.000428229
-0.000342676
1.53167e-05
-0.000464918
-0.000372106
-0.000204817
-0.000488168
-0.000286484
-0.00105927
-0.000385038
-0.000470565
-0.000515184
-0.000234718
-0.000204185
0.00139495
-0.00025471
-0.000367815
0.000237465
-0.00018253
-0.000425686
-0.00151068
-0.000301482
-0.000318914
-0.00170259
-0.000319799
-0.000287533
-0.00180896
-0.000248448
-0.000297445
-0.00106776
-0.000270721
-0.000282821
-0.00114431
-0.000252914
-0.000254971
-0.00169005
-0.000265105
-0.000203614
-0.000624914
-0.000324207
-0.00028269
-0.0013984
-0.000368117
-0.000201462
-0.00106617
-0.000347891
-0.000271764
0.000106641
-0.000286688
-0.000419378
0.000977601
-0.000310262
-0.000112054
-0.000749557
-0.000202454
-0.000283538
-0.00111087
-0.000134936
-0.000335572
-0.0021246
-0.000130816
-0.000215043
-0.00236044
-0.000184377
-0.000168253
-0.00188789
-0.000186356
-0.000189474
-0.00158158
-0.00017435
-0.000175302
-0.00158558
-0.000153399
-0.000218287
-0.00172105
-0.000175879
-0.00015502
-0.00058392
-0.000218852
-0.000206712
-0.000925583
-0.00023357
-0.000156648
-0.000325304
-0.00025719
-0.000139333
0.000353653
-0.000254402
-0.000197004
0.000670569
-0.000252604
-0.000201189
0.00123692
-0.000285318
-7.85049e-05
-0.00164771
-6.22873e-05
-0.000145488
-0.00129143
-4.89585e-05
-0.000162111
-0.00214311
-2.89402e-05
-0.000131296
-0.00297626
-3.72768e-05
-9.8141e-05
-0.00223296
-5.30104e-05
-8.52481e-05
-0.00223392
-5.88008e-05
-8.8557e-05
-0.00202327
-5.67492e-05
-0.000123269
-0.00115097
-6.26056e-05
-0.000100532
-0.000867771
-6.8603e-05
-0.000104654
-0.0013168
-6.59833e-05
-7.62361e-05
-0.00114988
-7.85611e-05
-3.0697e-05
-0.000564591
-9.17404e-05
-5.85043e-05
0.000576852
-0.000104594
-4.22782e-05
0.000848643
-0.000115615
-2.73523e-05
0.00107937
-0.000118034
-0.000358953
0.00531554
0.0046143
5.03726e-05
0.00570192
0.00436073
-3.30699e-05
0.00533786
0.00457815
0.000436265
0.00539037
0.00438384
0.000260197
0.00559867
0.00430525
1.94162e-06
0.00563542
0.00431326
0.000187256
0.00579159
0.00425306
0.000160437
0.00610973
0.00412138
-0.000233288
0.00642656
0.00404707
-0.000277123
0.00650449
0.00409959
0.000105025
0.00681018
0.00388182
-0.000105871
0.00667637
0.0038179
-0.000246647
0.00691661
0.00379309
-0.000538626
0.00680863
0.0038684
-0.000628899
0.00674136
0.00404094
0.00065462
0.00719556
0.0035433
-7.70302e-05
0.00769495
0.00353232
-0.000305945
0.0075691
0.00360642
-0.00052379
0.00746288
0.00356993
-0.000350102
0.007335
0.00347899
-0.000122209
0.00706995
0.00326689
0.000306226
0.00732646
0.00319873
-0.000224659
0.00751909
0.00324816
-0.0003353
0.00754069
0.00319785
-0.000452929
0.00757964
0.00306571
-0.00024064
0.00750033
0.00257824
-0.000363623
0.00756396
0.00221979
0.00022563
0.00767333
0.00195851
0.000599703
0.00717581
0.00222741
0.000248294
0.00734305
0.00202906
-0.00041249
0.00759446
0.00200676
-0.000649207
0.00781944
0.00185702
-0.000810509
0.00763646
0.00159867
-0.000547122
0.00760003
0.00115155
-0.00029942
0.00707558
0.00149995
-0.000380765
0.00690439
0.00114281
0.000393917
0.00715152
0.00102024
-0.000310529
0.00728086
0.00111451
-0.000481949
0.00766219
0.0010296
-0.00084762
0.00774634
0.00116817
-0.000752599
0.00700995
0.00109468
-0.000714881
0.00617278
0.00103031
-0.000801502
0.00579987
0.000649784
-0.000346915
0.00563901
0.000741007
-0.0004673
0.00604074
0.000572073
-0.000130225
0.00712903
0.000609773
-0.000381258
0.00740872
0.000874105
-0.000554221
0.00780379
0.000801025
-0.000551587
0.00685659
0.000888184
-0.000628635
0.00516917
0.000681342
-0.000630328
0.00483954
0.000274891
-0.000711984
0.00445848
2.37655e-05
-0.000543477
0.00517917
0.000179898
-0.000202587
0.0055387
8.10327e-05
-0.000536126
0.00559764
6.62805e-05
-0.000324023
0.00663403
0.000634608
-3.83446e-05
0.00655146
0.000526023
-0.000394755
0.00554118
0.000591115
-0.00114883
0.00424779
0.000453325
-0.000630746
0.0034481
-0.000342381
-0.000783272
0.00306056
-0.000192839
-0.000749073
0.00348262
-0.000142053
-0.000477304
0.00327219
6.99739e-05
-0.000380436
0.00265602
-0.000406657
-0.00060394
0.00291779
-0.000376826
-0.000760173
0.00444777
-0.000361586
-0.000348267
0.00475251
0.000501869
-0.000313312
0.0027103
0.000105754
-0.000731964
0.00285244
-0.000141461
-0.000751777
0.00121333
-0.000227536
-0.000851579
0.00165153
-0.000443181
-0.000785863
0.00161118
-0.000481655
-0.000729484
0.00190847
-0.000432927
-0.000665353
0.00177851
-0.000427634
-0.000681643
0.00188964
-0.000414187
-0.000711223
0.00199428
-0.000359614
-0.00061545
0.00176757
-0.000226001
-0.000673479
0.00227971
-0.000123073
-0.000207144
0.00149819
-0.000270595
-0.00029302
0.00119063
-0.000255292
-0.000576645
0.00034686
-0.000355215
-0.000645853
0.00102207
-0.000269087
-0.000645974
0.00044942
-0.000314908
-0.000587374
0.00039092
-0.00036469
-0.000545621
0.000613455
-0.00041072
-0.000488279
0.0004285
-0.000431614
-0.000406477
0.000231046
-0.000441095
-0.000401136
-6.17963e-05
-0.000489493
-0.000324367
-0.00105231
-0.000372221
-0.000521897
-0.000438687
-0.000211401
-0.000581485
0.000877869
-0.000263198
-0.000346683
0.00159535
-0.000256967
-0.000468594
0.000375163
-0.000207352
-0.000504517
-0.00127625
-0.000248009
-0.000397932
-0.00151332
-0.000307857
-0.000342323
-0.00171207
-0.000242621
-0.000326879
-0.000926915
-0.000251886
-0.000315981
-0.00102395
-0.000250402
-0.000297183
-0.00160175
-0.00026232
-0.000241383
-0.000493355
-0.000310301
-0.000291004
-0.00127761
-0.000360699
-0.000228472
-0.00101739
-0.00034508
-0.000314794
0.000198904
-0.000264693
-0.000447556
0.00121635
-0.000274886
-0.000395825
0.00134535
-0.000361103
-0.000167353
-0.000673174
-0.000193452
-0.000347244
-0.000997355
-0.00011421
-0.000343658
-0.00195683
-0.000121165
-0.000238415
-0.00221058
-0.000173554
-0.000188443
-0.00179297
-0.000188985
-0.000217773
-0.00146106
-0.00017435
-0.000203341
-0.00149657
-0.000148577
-0.000232795
-0.00159382
-0.000171106
-0.000171806
-0.000477285
-0.000211241
-0.000230321
-0.000789151
-0.000229618
-0.000170516
-0.000210751
-0.000253843
-0.000148962
0.000460263
-0.000245535
-0.000214877
0.000813985
-0.000241446
-0.000223689
0.00143918
-0.000273452
-0.000151265
0.00101634
-0.000316526
-9.22531e-05
-0.00155528
-6.22993e-05
-0.000154381
-0.00115048