/*--------------------------------*- C++ -*----------------------------------*\
  =========                 |
  \\      /  F ield         | OpenFOAM: The Open Source CFD Toolbox
   \\    /   O peration     | Website:  https://openfoam.org
    \\  /    A nd           | Version:  7
     \\/     M anipulation  |
\*---------------------------------------------------------------------------*/
FoamFile
{
    version     2.0;
    format      ascii;
    class       volVectorField;
    location    "5.5";
    object      U;
}
// * * * * * * * * * * * * * * * * * * * * * * * * * * * * * * * * * * * * * //

dimensions      [0 1 -1 0 0 0 0];

internalField   nonuniform List<vector> 
18870
(
(0.47603 -0.783644 -1.6981)
(0.633956 -0.00237364 -2.09619)
(0.434244 -0.797375 -1.67855)
(0.235435 -0.782721 -1.74542)
(0.28774 0.737018 -2.37567)
(0.62143 0.00394091 -2.04122)
(0.443457 -0.322348 -1.96133)
(0.422462 -0.815015 -1.649)
(0.244913 -0.797788 -1.7246)
(-0.0239439 -1.49308 -0.921578)
(0.397832 1.37682 -1.68873)
(0.129239 0.711793 -2.3785)
(0.146376 0.130196 -2.26946)
(0.630409 0.00702379 -1.98947)
(0.440604 -0.32949 -1.92231)
(0.2155 -1.04977 -1.70086)
(0.439845 -0.822515 -1.61583)
(0.229719 -0.821855 -1.70696)
(-0.0235659 -1.5665 -0.846627)
(0.445824 -1.82894 -0.720442)
(0.532182 2.56309 -1.18892)
(0.382123 1.33705 -1.71902)
(0.474561 0.835855 -2.06447)
(0.202825 0.685298 -2.33633)
(0.0611247 0.108334 -2.2496)
(0.746571 -0.688208 -2.00723)
(0.643662 0.00280133 -1.93715)
(0.455177 -0.33961 -1.88476)
(0.207625 -1.10248 -1.62903)
(0.303555 -1.28311 -1.69196)
(0.411316 -0.847591 -1.58637)
(0.185931 -0.857635 -1.68777)
(0.00567699 -1.56335 -0.903978)
(0.448378 -1.81685 -0.70401)
(0.298821 -1.43102 -1.11481)
(-0.253105 3.59184 -0.0101984)
(0.0824781 2.47861 -1.27831)
(0.389533 1.80434 -1.07729)
(0.253293 1.41051 -1.74767)
(0.470754 0.733589 -2.09191)
(0.473821 -0.0882716 -2.02054)
(0.209123 0.711846 -2.2702)
(0.114074 0.0440133 -2.17506)
(0.73288 -0.737513 -1.9953)
(0.243538 -0.830729 -1.90426)
(0.6459 -0.000997747 -1.87766)
(0.478608 -0.350404 -1.84765)
(0.240132 -1.14213 -1.55524)
(0.297574 -1.30099 -1.6829)
(0.24503 -1.10318 -1.36363)
(0.410975 -0.860656 -1.55726)
(0.157834 -0.891887 -1.66758)
(-0.00994065 -1.58474 -0.863282)
(0.451332 -1.81189 -0.700301)
(0.311418 -1.45668 -1.09154)
(0.323802 -1.30145 -1.19705)
(-0.122315 3.57171 0.202629)
(-0.202657 3.61307 -0.00128266)
(0.55333 3.3624 -0.0130141)
(-0.0522607 2.46878 -1.41535)
(0.523393 1.67524 -0.95132)
(0.672029 0.941933 -1.09076)
(0.188092 1.36442 -1.78553)
(0.389887 0.528085 -2.09227)
(0.398832 -0.129893 -1.96018)
(0.294613 -0.22464 -1.71347)
(0.172122 0.64324 -2.22003)
(0.0204433 0.021952 -2.11042)
(0.485239 -0.826939 -1.95405)
(0.479881 -0.832283 -1.96688)
(0.415699 -0.869928 -1.36271)
(0.617148 -0.029186 -1.81959)
(0.515793 -0.346771 -1.80762)
(0.271952 -1.1731 -1.4895)
(0.326042 -1.31675 -1.64692)
(0.147458 -1.14587 -1.31648)
(0.263725 -1.03085 -1.56656)
(0.404482 -0.883897 -1.52855)
(0.131223 -0.929473 -1.64644)
(0.00115361 -1.63118 -0.846952)
(0.443181 -1.81457 -0.700683)
(0.317834 -1.38565 -1.12696)
(0.317191 -1.30116 -1.20622)
(0.112826 -1.22372 -1.36035)
(0.0195222 3.87554 0.467346)
(-0.227682 3.56147 0.515636)
(0.260785 3.5763 0.0615301)
(-0.410383 3.496 0.304732)
(0.546247 3.38375 -0.0668563)
(0.169641 3.02759 -0.667403)
(-0.388018 2.51012 -1.41761)
(-0.131826 1.56409 -0.817413)
(0.252053 0.83003 -1.36384)
(-0.156929 -0.107423 -1.44894)
(0.0321715 1.33455 -1.69734)
(0.298911 0.622074 -1.89565)
(0.317944 -0.135398 -1.894)
(0.124883 -0.277914 -1.70671)
(0.332529 -0.621607 -1.48878)
(0.0495255 0.661808 -2.13714)
(-0.0397874 -0.0781517 -2.01942)
(0.49763 -0.853309 -1.86158)
(0.432394 -0.858374 -1.99123)
(0.367539 -0.918466 -1.34477)
(0.386352 -0.773414 -1.44978)
(0.556557 -0.068652 -1.78058)
(0.515922 -0.366534 -1.76992)
(0.280348 -1.21582 -1.42128)
(0.336474 -1.34572 -1.60432)
(0.144119 -1.1496 -1.27824)
(0.173756 -1.05017 -1.5492)
(0.0200711 -0.919334 -1.48504)
(0.385177 -0.908982 -1.50533)
(0.109424 -0.968491 -1.623)
(0.0278112 -1.62962 -0.896031)
(0.415151 -1.83429 -0.675769)
(0.279961 -1.40232 -1.10864)
(0.314417 -1.29621 -1.21143)
(0.100996 -1.23122 -1.35877)
(-0.505073 -1.06793 -1.2419)
(0.268683 4.03536 1.80532)
(-0.290429 3.89993 0.689731)
(-0.178073 3.84144 0.509954)
(-0.271418 3.66877 0.78221)
(-0.0500247 3.67883 0.061027)
(0.00248897 3.61357 0.904674)
(-0.43093 3.50438 0.202642)
(-0.33578 3.21305 0.441503)
(-0.158956 3.06976 -0.585089)
(0.141511 1.91369 -0.811089)
(-0.562858 2.52959 -1.16338)
(-0.768264 1.24363 -0.715019)
(0.102457 0.856311 -1.47113)
(-0.282959 -0.0956929 -1.28465)
(0.0684192 0.224801 -0.952255)
(-0.111123 1.31397 -1.46712)
(0.108835 0.582661 -1.74094)
(0.200719 -0.232149 -1.79563)
(-0.130173 -0.281687 -1.68218)
(0.132405 -0.629786 -1.4859)
(0.296626 -0.444246 -1.33835)
(-0.101841 0.493691 -2.06287)
(-0.143329 -0.0653992 -1.93259)
(0.47508 -0.87894 -1.76655)
(0.427786 -0.882453 -1.96395)
(0.252384 -0.985564 -1.32193)
(0.294725 -0.794961 -1.44841)
(0.0471868 -0.746674 -1.35221)
(0.519111 -0.109623 -1.7524)
(0.445557 -0.426303 -1.73834)
(0.254917 -1.26773 -1.33549)
(0.317573 -1.37373 -1.57081)
(0.0917569 -1.18265 -1.22152)
(0.144576 -1.04573 -1.53722)
(-0.0227197 -0.94291 -1.44762)
(-0.163078 -1.09766 -1.30839)
(0.359621 -0.949746 -1.47489)
(0.0867335 -1.01057 -1.59698)
(0.03079 -1.6704 -0.832713)
(0.372572 -1.86698 -0.618234)
(0.274305 -1.42201 -1.11021)
(0.314436 -1.29879 -1.21576)
(0.108097 -1.22409 -1.35995)
(-0.517674 -1.0697 -1.23393)
(-0.45835 -0.799685 -1.71069)
(0.00322254 3.75436 2.8728)
(0.166908 4.06574 1.75171)
(-0.409469 3.57565 1.97448)
(-0.455009 3.94593 0.693592)
(-0.524864 3.87196 0.406614)
(-0.598039 3.83501 1.08404)
(-1.01056 3.58008 0.909271)
(-0.400038 3.55515 0.231646)
(-0.665026 3.60701 1.13158)
(-0.129338 3.39903 0.244054)
(-0.723738 3.52913 0.612292)
(0.301289 3.38678 -0.647449)
(-0.569526 3.05672 -0.782399)
(-0.570723 1.73956 0.248384)
(-0.365206 0.771276 -1.14014)
(-1.02307 2.23804 -1.17503)
(-0.903333 1.13274 -0.655784)
(-0.206671 0.816114 -1.57674)
(-0.53736 -0.181204 -1.26931)
(-0.360285 0.183703 -1.22647)
(0.306567 0.378082 -0.718778)
(-0.342109 1.17559 -1.32954)
(-0.0773538 0.494034 -1.66112)
(0.182882 -0.228256 -1.74392)
(-0.335993 -0.3569 -1.55921)
(-0.105982 -0.725567 -1.48722)
(0.00993391 -0.485566 -1.23153)
(-0.0906335 -0.317354 -1.42137)
(-0.227599 0.500353 -1.90325)
(-0.216449 -0.203442 -1.80708)
(0.416635 -0.946341 -1.71287)
(0.342429 -0.883978 -1.93884)
(0.234405 -1.01759 -1.28863)
(0.13663 -0.822455 -1.4549)
(-0.000615272 -0.755187 -1.31251)
(0.193942 -0.893415 -1.47456)
(0.454696 -0.137 -1.73553)
(0.360838 -0.487973 -1.7024)
(0.185545 -1.35694 -1.19757)
(0.315371 -1.39861 -1.53502)
(0.0567061 -1.19984 -1.18631)
(0.142328 -1.04091 -1.52921)
(-0.0229364 -0.95007 -1.43113)
(-0.190301 -1.12503 -1.26213)
(-0.262423 -0.533084 -1.88625)
(0.328384 -0.993972 -1.44277)
(0.0562728 -1.06312 -1.55957)
(0.0410268 -1.67753 -0.862027)
(0.417876 -1.83043 -0.644231)
(0.245294 -1.43245 -1.09999)
(0.303633 -1.29182 -1.22312)
(0.106489 -1.22187 -1.3585)
(-0.523825 -1.08666 -1.23335)
(-0.49253 -0.805909 -1.69741)
(-0.423737 -1.02225 -1.40512)
(-0.0711365 3.26481 3.46762)
(-0.0254681 3.82798 2.90946)
(-0.19259 3.76321 3.19456)
(-0.243463 3.83368 1.88836)
(-0.743882 3.61469 2.13006)
(-0.833456 3.48468 1.46742)
(-0.837725 3.89866 0.779755)
(-0.92269 3.83614 0.800064)
(-0.818789 3.87715 1.13023)
(-0.626148 3.53035 1.11168)
(-1.20716 3.51393 0.905603)
(-0.495204 3.54237 0.374303)
(-0.800234 3.55094 1.14165)
(-1.05682 3.24314 0.214058)
(-0.746348 2.23741 0.266017)
(-0.736712 3.64119 0.490369)
(-0.7698 3.39971 0.316102)
(-0.912452 2.80325 -1.39251)
(-1.06747 1.71075 0.832598)
(-0.906368 0.954885 -0.314917)
(-0.215319 0.990056 -0.285458)
(-1.15773 2.1459 -1.30361)
(-1.12438 0.947685 -0.542174)
(-0.537804 0.808015 -1.54307)
(-0.838406 -0.191153 -1.12774)
(-0.517678 0.0630403 -1.44743)
(0.000548916 0.396647 -0.663227)
(-0.454141 0.402467 -1.25266)
(-0.504662 1.04597 -1.18324)
(-0.167061 0.513397 -1.60568)
(0.0348988 -0.198456 -1.68137)
(-0.573043 -0.331118 -1.44345)
(-0.280328 -0.734941 -1.50581)
(-0.137294 -0.508686 -1.17915)
(-0.231698 -0.263075 -1.41821)
(-0.127146 -0.309646 -1.6399)
(-0.321405 0.390659 -1.7519)
(-0.349411 -0.248029 -1.66343)
(0.353041 -0.994286 -1.7024)
(0.292099 -0.914078 -1.89968)
(0.114102 -1.06244 -1.18494)
(0.102442 -0.813945 -1.45992)
(-0.0121333 -0.760134 -1.30489)
(0.113734 -0.996662 -1.4144)
(-0.181539 -0.522829 -1.74235)
(0.375411 -0.233916 -1.71215)
(0.348335 -0.49807 -1.66779)
(0.10822 -1.44163 -1.05183)
(0.348556 -1.40525 -1.49998)
(0.039134 -1.20834 -1.17998)
(0.0453989 -1.10024 -1.46953)
(-0.0358094 -0.967478 -1.41334)
(-0.214038 -1.13643 -1.22208)
(-0.30578 -0.543672 -1.84891)
(-0.469749 -0.787218 -1.70615)
(0.318533 -1.0281 -1.41192)
(0.0277136 -1.12129 -1.52124)
(0.0031791 -1.74016 -0.75735)
(0.398165 -1.84135 -0.60498)
(0.254659 -1.40302 -1.10716)
(0.302304 -1.28393 -1.22378)
(0.101422 -1.23603 -1.35519)
(-0.543852 -1.09347 -1.21016)
(-0.52003 -0.833886 -1.68095)
(-0.569613 -1.00234 -1.36057)
(-0.302673 -0.794366 -1.66628)
(-0.314875 3.3331 3.35137)
(-0.0813745 3.26176 3.48972)
(-0.429614 3.43243 3.67837)
(-0.0417886 3.90371 3.01383)
(-0.643929 3.54381 3.52898)
(-0.373005 3.46241 3.22945)
(-0.656472 3.55127 2.09365)
(-1.0972 3.41939 2.35729)
(-1.04646 3.5466 1.66483)
(-0.812896 3.57127 1.50275)
(-1.11344 3.80305 0.855781)
(-1.36547 3.82211 1.09173)
(-1.10764 3.86639 1.22581)
(-0.29997 4.03509 0.874693)
(-0.208009 3.35776 0.467604)
(-1.34892 3.47597 0.867853)
(-0.871534 3.63479 0.620708)
(-1.12831 3.33257 1.16519)
(-1.25156 3.21124 0.463439)
(-0.555246 2.37771 -0.145115)
(-0.433064 2.07703 -0.253546)
(-0.891617 3.39439 0.347125)
(-1.00584 3.27641 0.6328)
(-0.999154 2.63352 -1.47088)
(-1.90092 1.48976 1.09432)
(-0.165021 0.724154 -1.54812)
(-0.528439 0.975882 -0.480171)
(-0.110857 1.25946 -0.446491)
(-1.29378 2.06106 -1.38933)
(-1.19135 0.866238 -0.589782)
(-0.835221 0.70755 -1.35085)
(-0.991028 -0.201033 -0.980113)
(-0.933982 -0.177537 -1.51939)
(-0.352948 0.347055 -0.66534)
(-0.583557 0.430261 -1.2797)
(-0.40366 0.592671 -1.59565)
(-0.588984 0.854124 -1.05251)
(-0.301257 0.470533 -1.39521)
(-0.0343711 -0.289887 -1.60526)
(-0.656103 -0.322375 -1.44707)
(-0.638017 -0.716038 -1.34918)
(-0.459883 -0.531283 -1.17237)
(-0.29322 -0.30028 -1.36658)
(-0.243604 -0.281766 -1.55063)
(-0.245242 -0.271538 -1.5768)
(-0.475036 0.312505 -1.58357)
(-0.445268 -0.359096 -1.54949)
(0.251712 -1.07239 -1.63068)
(0.26907 -0.951072 -1.84426)
(0.084859 -1.08209 -1.09659)
(0.0283404 -0.807249 -1.46555)
(-0.0807297 -0.737368 -1.29277)
(-0.0547636 -0.956876 -1.40748)
(-0.190963 -0.483777 -1.68842)
(-0.418019 -0.959074 -1.68284)
(0.33656 -0.280297 -1.70181)
(0.196089 -0.681951 -1.55361)
(0.055759 -1.52791 -0.938601)
(0.322508 -1.39024 -1.47862)
(0.0812915 -1.20155 -1.23344)
(-0.0464297 -1.08779 -1.44169)
(-0.109381 -1.0096 -1.37004)
(-0.241022 -1.17863 -1.15049)
(-0.336758 -0.541196 -1.8089)
(-0.509458 -0.783873 -1.64963)
(-0.25468 -0.367676 -2.06769)
(0.327022 -1.04305 -1.3984)
(0.00642743 -1.16577 -1.49381)
(0.0536087 -1.72833 -0.808433)
(0.395182 -1.84799 -0.590971)
(0.23583 -1.41224 -1.10999)
(0.303731 -1.29588 -1.22246)
(0.0975701 -1.22947 -1.35462)
(-0.538368 -1.11714 -1.17623)
(-0.518339 -0.833299 -1.68407)
(-0.407756 -1.0094 -1.38029)
(-0.249189 -0.789804 -1.66951)
(-0.103521 -0.38452 -1.94951)
(-0.290479 3.07162 3.34548)
(-0.472463 3.26284 3.42531)
(-0.502286 3.37046 3.51821)
(-0.269319 3.30375 3.5971)
(-0.91053 3.46629 3.62152)
(-0.79262 3.63722 3.45995)
(-0.6668 3.51166 3.34674)
(-0.950759 3.51977 3.5244)
(-0.878303 3.40963 3.43467)
(-0.625831 3.51892 2.82623)
(-0.5778 3.60649 2.09315)
(-1.35361 3.30974 2.42013)
(-1.34273 3.413 2.17225)
(-1.25775 3.4921 1.7733)
(-0.951341 3.46783 1.6307)
(-1.27233 3.74957 0.680989)
(-1.60498 3.89449 0.911977)
(-1.24029 3.794 1.25053)
(-1.5901 3.44116 1.63562)
(-1.42534 2.82575 1.32967)
(-0.979951 2.75915 1.07186)
(-1.4906 3.42538 0.827466)
(-1.82068 3.21431 1.23315)
(-1.42625 3.19944 1.15998)
(-1.89551 3.09476 0.904782)
(-1.07304 2.27121 0.346404)
(-0.906768 2.00272 0.0274261)
(-1.33419 1.69558 0.494333)
(-1.5583 2.76309 0.701583)
(-1.44604 3.07054 1.05199)
(-1.34813 2.3713 -0.582665)
(-2.05284 1.30879 1.06053)
(-1.24558 1.13931 -0.642807)
(-0.906765 1.0177 -0.446405)
(-0.263698 1.37718 -0.468131)
(-0.89372 1.42571 -0.634005)
(-1.51098 1.9374 -0.601822)
(-1.33423 0.720356 -0.461644)
(-1.04953 0.651629 -1.30046)
(-1.09102 -0.2069 -0.988278)
(-1.26611 -0.197789 -1.21111)
(-0.748257 0.216228 -0.829572)
(-0.704247 0.509476 -1.29166)
(-0.589279 0.606619 -1.56796)
(-0.714851 0.528036 -1.09102)
(-0.747111 0.623007 -0.896608)
(-0.474318 0.399843 -1.11882)
(-0.376604 -0.376352 -1.44081)
(-0.770677 -0.293317 -1.35132)
(-0.622626 -0.733666 -1.29659)
(-0.505156 -0.556782 -1.27404)
(-0.419245 -0.240546 -1.29981)
(-0.37419 -0.256339 -1.4946)
(-0.340979 -0.278811 -1.52695)
(-0.502886 -0.35649 -1.62635)
(-0.639069 0.168255 -1.43639)
(-0.59619 -0.450367 -1.36385)
(0.0815943 -1.05375 -1.50678)
(0.235831 -0.990713 -1.79051)
(0.0904793 -1.10647 -1.03169)
(-0.110963 -0.848936 -1.40538)
(-0.0928851 -0.732403 -1.27336)
(-0.133378 -0.960082 -1.2813)
(-0.181798 -0.481029 -1.57829)
(-0.439585 -0.897898 -1.6429)
(-0.370051 -0.603588 -1.8256)
(0.129979 -0.453835 -1.69697)
(0.0810789 -0.808667 -1.48021)
(0.0279344 -1.66001 -0.730346)
(0.312149 -1.4514 -1.39999)
(0.0658837 -1.20575 -1.2917)
(-0.0116349 -1.05969 -1.43995)
(-0.105179 -1.02366 -1.33651)
(-0.268274 -1.18587 -1.10326)
(-0.359043 -0.55706 -1.7574)
(-0.556786 -0.787476 -1.58586)
(-0.320326 -0.373686 -2.03647)
(-0.273125 0.00120355 -2.09458)
(0.353512 -1.03764 -1.40029)
(-0.0341752 -1.23628 -1.44426)
(0.0472667 -1.75973 -0.767745)
(0.384211 -1.87887 -0.558958)
(0.234893 -1.40423 -1.12606)
(0.274064 -1.29201 -1.23607)
(0.0971513 -1.22751 -1.3539)
(-0.519592 -1.10313 -1.1811)
(-0.531794 -0.850848 -1.67053)
(-0.509317 -0.99914 -1.34907)
(-0.330557 -0.797061 -1.65277)
(-0.0968971 -0.373386 -1.93933)
(-0.420543 0.121125 -2.28778)
(-0.346828 2.77598 3.29448)
(-0.505305 3.0418 3.38234)
(-0.438287 3.11415 3.37509)
(-0.855431 3.21942 3.48186)
(-0.757801 3.30488 3.56928)
(-0.533509 3.3751 3.50213)
(-0.782524 3.34284 3.66516)
(-1.29619 3.4403 3.56889)
(-1.16828 3.54108 3.44883)
(-0.702004 3.4853 3.59111)
(-0.75364 3.47786 3.44797)
(-1.17246 3.41987 3.59828)
(-1.09254 3.49477 3.42553)
(-0.903254 3.43275 3.13266)
(-0.9851 3.43278 2.83435)
(-0.66388 3.6265 2.30644)
(-1.43167 3.33469 2.22855)
(-1.33441 3.84347 1.81139)
(-1.17529 3.89556 1.6598)
(-1.28788 3.39257 1.81405)
(-0.969935 3.31878 1.83457)
(-1.67207 3.52059 0.830751)
(-1.53858 3.89416 0.6152)
(-1.8481 3.4862 1.26139)
(-2.1545 3.17164 1.6389)
(-1.42314 2.96021 1.11973)
(-1.10197 2.85934 1.26156)
(-0.157182 2.81825 0.720633)
(-1.8078 3.22521 0.847336)
(-2.12152 2.90576 1.41438)
(-1.62715 3.22403 1.33989)
(-1.42803 3.42212 0.771682)
(-1.48765 2.18381 0.731207)
(-1.25292 1.82519 0.338888)
(-1.41714 1.53396 0.684955)
(-0.617688 2.05879 0.217223)
(-1.83323 2.61112 0.954286)
(-1.63781 2.91916 1.25131)
(-1.50799 2.25898 0.101836)
(-2.24299 0.91885 1.04913)
(-1.44321 0.918527 -0.443561)
(-1.17376 0.904837 -0.629068)
(-0.612792 1.44297 -0.572633)
(-0.890634 1.47104 -0.510333)
(-0.859905 1.27408 -1.64401)
(-1.79849 1.6531 0.276741)
(-1.37646 0.528223 -0.100293)
(-1.27616 0.624182 -1.13486)
(-1.18393 -0.222114 -0.916746)
(-1.43817 -0.178497 -1.05832)
(-1.01626 0.121452 -1.23002)
(-0.803792 0.528097 -1.38054)
(-0.73539 0.544897 -1.5967)
(-0.565673 0.62849 -1.2799)
(-0.937112 0.520372 -1.22461)
(-0.946161 0.265206 -0.772177)
(-0.652477 0.22452 -0.923494)
(-0.583579 -0.518534 -1.25524)
(-0.826026 -0.304323 -1.26659)
(-0.791758 -0.640631 -1.22324)
(-0.670673 -0.493095 -1.29548)
(-0.55406 -0.291612 -1.25514)
(-0.480734 -0.225993 -1.4487)
(-0.45973 -0.271455 -1.42547)
(-0.54404 -0.326611 -1.6207)
(-0.120382 -0.520485 -1.45547)
(-0.861712 0.0228587 -1.20511)
(-0.636872 -0.512407 -1.33961)
(0.0542481 -1.17492 -1.31544)
(0.182028 -0.974283 -1.76187)
(0.0464156 -1.06012 -1.01506)
(-0.218 -0.838231 -1.33156)
(-0.0851428 -0.79459 -1.25683)
(-0.147456 -1.00181 -1.16843)
(-0.240779 -0.515693 -1.45569)
(-0.49844 -0.962675 -1.53835)
(-0.420369 -0.685122 -1.76006)
(-0.62687 -0.111477 -1.53523)
(0.194442 -0.403217 -1.72798)
(-0.131459 -1.06073 -1.33672)
(-0.0293247 -1.62904 -0.805163)
(0.276808 -1.52129 -1.29515)
(0.0923991 -1.19598 -1.34995)
(-0.0640297 -1.09321 -1.40735)
(-0.117334 -1.04457 -1.28607)
(-0.295474 -1.19526 -1.04877)
(-0.400033 -0.56087 -1.73068)
(-0.566762 -0.792943 -1.55626)
(-0.398818 -0.365781 -2.00084)
(-0.328914 0.024999 -2.04332)
(-0.508772 0.145562 -1.97121)
(0.376276 -1.05887 -1.37467)
(-0.0430676 -1.2637 -1.42398)
(0.0545727 -1.76925 -0.763335)
(0.376479 -1.88725 -0.518503)
(0.240426 -1.41401 -1.1295)
(0.270561 -1.29779 -1.23433)
(0.0938473 -1.2343 -1.35087)
(-0.52953 -1.08624 -1.16837)
(-0.532165 -0.838664 -1.67173)
(-0.464043 -1.02657 -1.33673)
(-0.31665 -0.813022 -1.64127)
(-0.0803202 -0.36031 -1.9325)
(-0.436254 0.125107 -2.2654)
(-0.142954 0.338115 -2.55812)
(-0.269394 2.65166 3.11746)
(-0.470543 2.67323 3.38511)
(-0.369188 2.73162 3.32583)
(-0.709672 2.93922 3.44522)
(-0.66334 3.07875 3.34547)
(-0.572909 3.07557 3.35789)
(-1.08581 3.16894 3.53974)
(-0.929653 3.18892 3.59827)
(-0.794361 3.2523 3.4769)
(-0.511766 3.34737 3.452)
(-1.08246 3.29006 3.6415)
(-1.5471 3.33011 3.57939)
(-1.28489 3.4688 3.48441)
(-1.04504 3.32199 3.61129)
(-0.905248 3.33999 3.68135)
(-1.25443 3.40377 3.52396)
(-1.43694 3.38241 3.6182)
(-1.35583 3.41011 3.53106)
(-1.27126 3.44004 3.36336)
(-1.16727 3.43814 2.96114)
(-0.897485 3.58178 2.70218)
(-1.11764 3.55252 2.56903)
(-1.61249 3.07938 2.34641)
(-1.97864 3.24025 2.40083)
(-1.71336 3.48583 2.30246)
(-1.45543 3.27269 1.89219)
(-1.36103 3.3274 1.66141)
(-1.07064 3.38452 1.18904)
(-1.98262 3.2882 1.1392)
(-1.77334 3.64365 0.582012)
(-2.06488 3.42645 1.17236)
(-2.32279 3.0251 1.72265)
(-1.31334 3.00703 1.53905)
(-1.56876 2.57923 1.66592)
(-0.643079 2.54613 1.12745)
(-0.802107 2.6603 0.75078)
(-2.18835 2.95351 0.749884)
(-2.39432 2.60569 1.33645)
(-2.29069 2.90425 1.37477)
(-2.05821 2.86567 1.10799)
(-1.49951 2.27835 0.876855)
(-1.41868 1.81651 0.530393)
(-1.64059 1.54327 0.517989)
(-0.712089 2.15183 0.114187)
(-0.581839 2.6305 -0.232368)
(-2.30602 2.26136 1.33216)
(-1.35623 3.19999 0.664649)
(-1.65984 2.16971 0.478934)
(-2.10894 0.883399 1.26752)
(-1.61884 0.736276 -0.128575)
(-1.45826 0.871523 -0.334547)
(-0.747868 1.47629 -0.962516)
(-0.879703 1.61211 -0.428028)
(-1.08252 1.11608 -1.46404)
(-1.05267 1.41422 -0.950602)
(-1.90054 1.59718 0.639567)
(-1.38949 0.502753 0.160633)
(-1.45731 0.433309 -0.950778)
(-1.33991 -0.215991 -0.664195)
(-1.64299 -0.346557 -1.30585)
(-1.33119 0.0479335 -1.35784)
(-1.14051 0.418205 -1.24481)
(-0.924779 0.465186 -1.56587)
(-1.03507 0.551875 -1.03866)
(-1.01616 0.593641 -1.09889)
(-0.980289 0.590754 -0.946995)
(-1.08513 0.0445866 -0.595395)
(-0.801121 0.0703445 -1.08797)
(-0.750722 -0.611062 -1.21016)
(-1.02034 -0.322255 -1.10626)
(-0.802394 -0.537185 -1.06352)
(-0.793336 -0.485106 -1.24647)
(-0.743271 -0.254981 -1.31449)
(-0.604697 -0.233541 -1.37185)
(-0.521049 -0.226174 -1.39537)
(-0.604737 -0.314521 -1.58395)
(-0.147983 -0.598375 -1.47202)
(-0.633686 -0.367869 -1.14519)
(-0.857005 0.012571 -1.2875)
(-0.780013 -0.705224 -1.03787)
(-0.210815 -1.34954 -0.970656)
(0.0745154 -1.09686 -1.66876)
(0.0804316 -1.05547 -1.01724)
(-0.246878 -0.820162 -1.27957)
(-0.219472 -0.796301 -1.2048)
(-0.273335 -1.0978 -1.03848)
(-0.311914 -0.485764 -1.41537)
(-0.496075 -0.956631 -1.51507)
(-0.442456 -0.676293 -1.74077)
(-0.672923 -0.117525 -1.47211)
(-1.02446 0.248598 -1.24205)
(0.167161 -0.448131 -1.7247)
(-0.212915 -1.20346 -1.2639)
(-0.0208079 -1.68079 -0.750924)
(0.216553 -1.43827 -1.29207)
(0.105491 -1.19883 -1.36566)
(-0.0820088 -1.10412 -1.40243)
(-0.164074 -1.07735 -1.22326)
(-0.318596 -1.20793 -1.00073)
(-0.429883 -0.575908 -1.71845)
(-0.602828 -0.782322 -1.53515)
(-0.478169 -0.377608 -1.95877)
(-0.380047 0.0349193 -1.992)
(-0.583858 0.160806 -1.89983)
(-0.761943 0.431391 -1.98067)
(0.371466 -1.08214 -1.34138)
(-0.0770082 -1.32196 -1.36776)
(0.0736125 -1.76354 -0.789565)
(0.377767 -1.88459 -0.516525)
(0.216786 -1.40079 -1.1193)
(0.253302 -1.2975 -1.24584)
(0.0905899 -1.23677 -1.34745)
(-0.525536 -1.09408 -1.16572)
(-0.526223 -0.848047 -1.67189)
(-0.426411 -0.998293 -1.36412)
(-0.343725 -0.79456 -1.63321)
(-0.071358 -0.345213 -1.92691)
(-0.455463 0.129474 -2.23955)
(-0.170361 0.350125 -2.53479)
(-0.108232 0.489411 -2.75161)
(-0.588182 2.4752 2.99765)
(-0.389348 2.71043 3.05379)
(-0.270806 2.55686 3.25438)
(-0.506 2.62092 3.41878)
(-0.433833 2.69647 3.35483)
(-0.40934 2.75596 3.30327)
(-0.879277 2.75328 3.55007)
(-0.914441 2.86886 3.49485)
(-0.802234 3.02823 3.36831)
(-0.717086 3.07642 3.39299)
(-1.10424 3.13178 3.49637)
(-1.15941 3.05448 3.5821)
(-0.970671 3.21231 3.42921)
(-1.04565 3.09553 3.52349)
(-0.789619 2.98833 3.80507)
(-0.85498 3.43345 3.684)
(-1.39776 3.43571 3.54665)
(-1.34347 3.44033 3.53471)
(-1.1657 3.34216 3.67774)
(-0.941509 3.3921 3.62237)
(-0.599713 3.37551 3.46077)
(-1.58274 3.1972 3.56991)
(-1.67244 3.26697 3.58424)
(-1.55532 3.34383 3.59809)
(-1.71536 3.33106 3.5337)
(-1.39469 3.46833 3.07652)
(-1.27819 3.46996 2.67572)
(-0.468754 3.74999 2.32247)
(-1.50096 3.36204 2.7693)
(-1.43007 3.45567 2.33195)
(-2.07038 3.12929 2.55271)
(-2.10386 3.21362 2.50675)
(-1.80109 3.13699 2.10187)
(-1.36497 3.28705 1.88138)
(-0.956603 3.17723 1.85555)
(-0.998817 3.2735 1.71128)
(-2.07354 3.12662 1.22391)
(-2.41393 2.73328 1.50351)
(-2.38718 3.04686 1.38555)
(-2.41855 2.97989 1.80766)
(-1.94287 2.86963 1.49529)
(-1.70876 2.58963 1.69777)
(-1.39245 2.48986 1.04462)
(-0.971307 2.56337 1.03105)
(-1.11116 2.66113 1.21203)
(-2.58705 2.42815 0.9094)
(-2.55395 2.49362 1.34455)
(-2.56924 2.76358 1.50627)
(-2.07204 2.81251 1.44647)
(-1.77727 1.96747 1.16737)
(-1.53455 1.94031 0.642898)
(-1.8628 1.56173 0.217325)
(-1.02169 2.22311 0.285241)
(-0.347116 2.71878 -0.194972)
(-1.25496 2.61646 -0.074186)
(-2.57282 2.03639 1.48814)
(-1.97682 2.63265 0.796389)
(-1.67755 2.29972 1.05934)
(-2.32628 0.934841 1.14233)
(-1.73764 1.04763 -0.714856)
(-1.71045 0.835817 -0.2553)
(-1.21046 1.35114 -1.16245)
(-1.37698 1.28583 0.233563)
(-1.16379 1.12378 -0.959485)
(-1.37084 1.23214 -0.796497)
(-0.804723 1.97809 -0.724229)
(-2.07974 1.31868 1.19553)
(-1.53388 0.323072 0.506659)
(-1.72679 0.285806 -0.354301)
(-1.37082 -0.332219 -0.530628)
(-1.72883 -0.277978 -1.10531)
(-1.50096 -0.00575503 -1.3058)
(-1.37002 0.333533 -1.1148)
(-1.23215 0.388237 -1.21809)
(-1.08625 0.507596 -1.18103)
(-1.10085 0.602247 -0.977688)
(-1.17792 0.628872 -0.869689)
(-1.44724 0.849415 -0.220154)
(-0.888727 0.057045 -1.07638)
(-0.959381 -0.144457 -0.891054)
(-0.998963 -0.730416 -1.15505)
(-1.14758 -0.401095 -1.02054)
(-0.885403 -0.561138 -0.854962)
(-0.920095 -0.469285 -1.17177)
(-0.988449 -0.274569 -1.15055)
(-0.713513 -0.169831 -1.48785)
(-0.626476 -0.198617 -1.29972)
(-0.655712 -0.273209 -1.57527)
(-0.231929 -0.598237 -1.44941)
(-0.751768 -0.402305 -1.08135)
(-1.33092 0.169994 -0.323013)
(-0.967 -0.151384 -1.31454)
(-0.90604 -0.875541 -0.861935)
(-0.488045 -1.46124 -0.567618)
(-0.0356825 -1.1651 -1.56321)
(0.162261 -1.07177 -1.07488)
(-0.266865 -0.864274 -1.19912)
(-0.296878 -0.82041 -1.16297)
(-0.288895 -1.12787 -0.963068)
(-0.392781 -0.537455 -1.38103)
(-0.475329 -0.922045 -1.48382)
(-0.452918 -0.711968 -1.70712)
(-0.74551 -0.13944 -1.42356)
(-1.14741 0.293174 -1.09274)
(-1.03866 0.438149 -1.54387)
(0.0220994 -0.651035 -1.63333)
(-0.30322 -1.38039 -1.1622)
(-0.0123695 -1.76823 -0.648397)
(0.235297 -1.50448 -1.12144)
(0.0942874 -1.2019 -1.36613)
(-0.142783 -1.07518 -1.41998)
(-0.175841 -1.11248 -1.16994)
(-0.319899 -1.20196 -0.990925)
(-0.513092 -0.60302 -1.66237)
(-0.628357 -0.794842 -1.49242)
(-0.534209 -0.372249 -1.92006)
(-0.420484 0.0532643 -1.94768)
(-0.672248 0.172207 -1.80712)
(-0.844505 0.46366 -1.88212)
(-0.556453 0.358587 -2.3956)
(0.37048 -1.05649 -1.34512)
(-0.0850157 -1.335 -1.35259)
(0.0645555 -1.78509 -0.745429)
(0.358635 -1.92363 -0.452119)
(0.211291 -1.39701 -1.11651)
(0.266565 -1.31872 -1.24767)
(0.0940798 -1.25327 -1.34447)
(-0.518012 -1.11456 -1.14727)
(-0.527932 -0.867911 -1.6596)
(-0.420286 -0.983763 -1.35457)
(-0.33092 -0.797691 -1.62162)
(-0.0604693 -0.33151 -1.92207)
(-0.477042 0.132552 -2.21068)
(-0.198205 0.365386 -2.51137)
(-0.127834 0.508823 -2.74032)
(-0.0428572 0.999386 -2.63864)
(-0.53422 2.3587 2.98521)
(-0.661291 2.47469 2.93008)
(-0.525172 2.41752 3.19042)
(-0.480897 2.7391 2.967)
(-0.385014 2.53635 3.24716)
(-0.370937 2.46266 3.38035)
(-0.672241 2.47305 3.4468)
(-0.416714 2.64439 3.38637)
(-0.670816 2.54864 3.37414)
(-0.451636 2.58473 3.44609)
(-1.10508 2.52999 3.51651)
(-0.974985 2.72861 3.5715)
(-1.07661 2.88904 3.47853)
(-0.97436 2.94187 3.46424)
(-0.945801 2.94695 3.54546)
(-1.22895 3.0975 3.47545)
(-1.38149 2.93089 3.595)
(-1.368 3.0634 3.45851)
(-1.40017 3.01802 3.54686)
(-1.05458 3.21635 3.58185)
(-0.621291 3.1535 3.77549)
(-1.47939 3.30351 3.59562)
(-1.88846 3.2744 3.48983)
(-1.72445 3.26361 3.60542)
(-1.39012 3.39006 3.6912)
(-0.952564 3.45144 3.57551)
(-0.761591 3.23118 3.56692)
(-0.230127 3.46876 3.16187)
(-1.4981 3.32617 3.37979)
(-1.83799 3.18479 3.56441)
(-1.87448 3.18314 3.65349)
(-1.77979 3.25201 3.58162)
(-1.88246 3.10104 3.39446)
(-1.47935 3.33775 2.79255)
(-1.04418 3.56851 2.31101)
(-0.71739 3.63963 2.19973)
(-1.63886 3.17801 2.72036)
(-1.99221 2.93631 2.84739)
(-2.11212 3.04492 2.71594)
(-2.47569 3.07048 2.46259)
(-2.16348 3.1617 2.22638)
(-1.89131 3.28867 1.86586)
(-1.81794 3.24442 1.08577)
(-1.0044 3.14029 1.96201)
(-0.768408 3.55961 1.25097)
(-2.08105 2.69158 1.62476)
(-2.39751 2.57274 1.70565)
(-2.57942 2.79614 1.53411)
(-2.61756 2.9792 1.59988)
(-2.12119 2.76112 1.49646)
(-1.85587 2.51517 1.71202)
(-1.31254 2.43754 1.16503)
(-1.46969 2.39068 0.924691)
(-1.28076 2.80159 1.07631)
(-0.823507 3.62335 0.423911)
(-2.74706 2.23305 0.975753)
(-2.59136 2.74732 1.15289)
(-3.10618 2.53622 1.454)
(-3.09308 1.97406 1.1879)
(-1.85474 1.80668 1.51895)
(-1.88822 1.73563 1.04228)
(-2.0763 1.59205 0.284708)
(-1.27651 2.30038 -0.110218)
(-0.938957 2.53807 0.331511)
(-1.194 2.48653 0.390053)
(-1.95167 2.12051 0.292511)
(-2.83609 1.83761 1.30837)
(-2.23808 2.37043 0.907638)
(-2.58267 1.37989 1.25583)
(-2.22736 0.937087 1.28644)
(-1.77344 0.88962 0.665958)
(-1.74664 0.761078 -0.622352)
(-1.95494 0.992893 -0.55349)
(-1.59755 1.0695 0.623129)
(-1.56552 0.780809 0.0414653)
(-1.59047 0.972447 -0.682317)
(-1.2131 1.94342 -0.712382)
(-1.20198 2.07382 -0.790271)
(-2.08581 1.17314 1.68516)
(-1.41668 0.593455 1.19908)
(-1.87328 0.244964 -0.0658665)
(-1.49076 -0.399213 -0.261605)
(-1.83408 -0.19692 -0.644437)
(-1.57165 -0.0168321 -1.07249)
(-1.47641 0.277793 -1.04882)
(-1.45992 0.319161 -0.940659)
(-1.32641 0.489595 -0.930545)
(-1.26105 0.622995 -0.826117)
(-1.25424 0.573106 -0.862614)
(-1.55976 0.803562 -0.206536)
(-1.20744 0.598382 -0.42935)
(-1.26091 -0.425002 -0.647442)
(-1.17666 -0.452219 -0.505846)
(-1.02659 -0.872794 -0.80113)
(-1.41307 -0.518567 -0.912167)
(-1.31262 -0.55987 -0.632874)
(-1.05746 -0.434162 -1.16212)
(-1.05432 -0.287975 -1.095)
(-0.888606 -0.18362 -1.46316)
(-0.729603 -0.187109 -1.17725)
(-0.690659 -0.317945 -1.52589)
(-0.285126 -0.651808 -1.46798)
(-0.895473 -0.44749 -1.00234)
(-1.40102 0.178355 -0.229872)
(-1.23155 0.621711 -1.34619)
(-1.2048 -0.279571 -1.09689)
(-1.02848 -1.12487 -0.827334)
(-0.303448 -1.43309 -0.935472)
(-0.108162 -1.11372 -1.56701)
(0.0773102 -1.04156 -1.07964)
(-0.412104 -0.877742 -1.0923)
(-0.371346 -0.930859 -1.07198)
(-0.32248 -1.08913 -0.96718)
(-0.439134 -0.45355 -1.42636)
(-0.548492 -0.91515 -1.35644)
(-0.45013 -0.729947 -1.65719)
(-0.797051 -0.168616 -1.4223)
(-1.26231 0.302126 -0.935908)
(-1.23138 0.447312 -1.36367)
(-0.835503 0.568503 -1.77679)
(-0.0775299 -0.810906 -1.54098)
(-0.31302 -1.41162 -1.11662)
(-0.265965 -1.80756 -0.438652)
(0.164221 -1.47196 -1.08583)
(0.0889016 -1.19908 -1.37077)
(-0.099016 -1.08817 -1.43526)
(-0.210176 -1.12596 -1.14668)
(-0.334329 -1.19952 -0.975794)
(-0.554805 -0.626205 -1.58719)
(-0.657822 -0.797304 -1.41956)
(-0.563041 -0.369804 -1.89176)
(-0.442755 0.0691013 -1.92374)
(-0.749986 0.192595 -1.69886)
(-0.90631 0.50773 -1.79146)
(-0.61544 0.395122 -2.30036)
(-0.451547 0.784123 -2.37202)
(0.371204 -1.08514 -1.32246)
(-0.0867928 -1.3593 -1.337)
(0.1175 -1.80113 -0.74665)
(0.359741 -1.93983 -0.401785)
(0.218707 -1.42317 -1.11062)
(0.258191 -1.31755 -1.23185)
(0.0803719 -1.24038 -1.344)
(-0.517368 -1.09481 -1.14493)
(-0.545872 -0.862253 -1.63988)
(-0.413189 -0.967994 -1.35292)
(-0.355385 -0.796201 -1.60356)
(-0.0567894 -0.318303 -1.91702)
(-0.498503 0.133811 -2.18266)
(-0.22719 0.37666 -2.48868)
(-0.169214 0.504311 -2.73417)
(-0.0179918 1.00214 -2.63637)
(0.206502 1.47559 -2.22079)
(-0.320115 2.36426 2.70283)
(-0.607645 2.21127 2.98924)
(-0.352595 2.40209 2.99573)
(-0.689647 2.49006 2.91109)
(-0.685438 2.37962 3.14597)
(-0.382451 2.48127 3.24808)
(-0.71818 2.68054 2.99548)
(-0.509424 2.53998 3.21749)
(-0.60051 2.27548 3.43495)
(-0.420216 2.39084 3.5169)
(-0.92301 2.28441 3.48237)
(-0.688274 2.45442 3.42458)
(-0.599405 2.55834 3.33608)
(-0.76221 2.43288 3.44032)
(-0.622234 2.53906 3.46204)
(-1.06977 2.57745 3.49138)
(-1.15081 2.57956 3.60095)
(-1.10709 2.75615 3.57761)
(-1.16271 2.79717 3.50583)
(-1.02742 2.82169 3.52712)
(-0.632977 2.85542 3.70382)
(-1.60214 2.95468 3.49549)
(-1.64231 2.81855 3.62637)
(-1.72869 2.84651 3.58491)
(-1.59279 2.96929 3.6041)
(-1.16967 3.12628 3.64008)
(-0.646906 3.16518 3.75472)
(-0.501642 3.21371 3.7656)
(-1.67145 3.13476 3.6814)
(-2.1022 3.17066 3.4662)
(-2.09586 3.11803 3.65955)
(-1.60813 3.28165 3.73609)
(-1.02482 3.33249 3.64318)
(-0.843053 3.19975 3.57363)
(-0.750698 3.50576 3.05695)
(-0.612502 3.42555 3.11016)
(-1.89725 3.02313 3.3797)
(-2.18993 3.2117 3.47605)
(-2.1719 3.05383 3.77657)
(-1.91594 3.02338 3.70923)
(-1.85431 3.20867 3.23416)
(-1.48574 3.43312 2.6675)