/*--------------------------------*- C++ -*----------------------------------*\
  =========                 |
  \\      /  F ield         | OpenFOAM: The Open Source CFD Toolbox
   \\    /   O peration     | Website:  https://openfoam.org
    \\  /    A nd           | Version:  7
     \\/     M anipulation  |
\*---------------------------------------------------------------------------*/
FoamFile
{
    version     2.0;
    format      ascii;
    class       volVectorField;
    location    "5.5";
    object      U_0;
}
// * * * * * * * * * * * * * * * * * * * * * * * * * * * * * * * * * * * * * //

dimensions      [0 1 -1 0 0 0 0];

internalField   nonuniform List<vector> 
18870
(
(0.476848 -0.78738 -1.70032)
(0.632407 -0.00813041 -2.09623)
(0.438506 -0.799866 -1.68095)
(0.227578 -0.780802 -1.75074)
(0.283951 0.734327 -2.37779)
(0.618916 -0.00223512 -2.04105)
(0.43995 -0.324317 -1.96221)
(0.416615 -0.819646 -1.65354)
(0.238835 -0.795041 -1.73015)
(-0.0309787 -1.47982 -0.94253)
(0.39944 1.37059 -1.68748)
(0.132594 0.710595 -2.37809)
(0.143523 0.123659 -2.26737)
(0.627482 0.00027622 -1.98921)
(0.436693 -0.331629 -1.92307)
(0.207602 -1.05017 -1.7025)
(0.438219 -0.826373 -1.61993)
(0.231969 -0.817342 -1.71246)
(-0.0424754 -1.56573 -0.841079)
(0.429234 -1.84017 -0.711639)
(0.495512 2.55966 -1.2061)
(0.383901 1.3357 -1.71762)
(0.471678 0.832547 -2.0646)
(0.206046 0.68496 -2.33437)
(0.0592186 0.103688 -2.24723)
(0.732538 -0.688949 -2.00627)
(0.640235 -0.00445287 -1.93707)
(0.450455 -0.34173 -1.8856)
(0.19515 -1.10386 -1.62975)
(0.292232 -1.28719 -1.68837)
(0.411318 -0.85151 -1.59011)
(0.188895 -0.852088 -1.69346)
(-0.00815697 -1.55444 -0.909506)
(0.434232 -1.82556 -0.701055)
(0.293151 -1.43369 -1.1079)
(-0.233041 3.59102 -0.00749541)
(0.0673456 2.47312 -1.29144)
(0.402787 1.79267 -1.08322)
(0.251761 1.40916 -1.74789)
(0.469856 0.726947 -2.09161)
(0.466608 -0.0930897 -2.01854)
(0.207014 0.708826 -2.26919)
(0.113451 0.0352339 -2.17298)
(0.722569 -0.739514 -1.99432)
(0.234516 -0.834239 -1.89796)
(0.642208 -0.00832732 -1.8777)
(0.472372 -0.353021 -1.84849)
(0.223456 -1.14507 -1.55449)
(0.284295 -1.30695 -1.68005)
(0.242475 -1.10416 -1.36297)
(0.407765 -0.86511 -1.561)
(0.157872 -0.887205 -1.67267)
(-0.0318703 -1.57721 -0.856491)
(0.439619 -1.81911 -0.687321)
(0.297645 -1.4578 -1.08425)
(0.322813 -1.30398 -1.18774)
(-0.114152 3.56722 0.215091)
(-0.186217 3.6051 0.00317366)
(0.531012 3.37774 0.00335017)
(-0.0609666 2.46608 -1.43159)
(0.520057 1.66728 -0.942612)
(0.660934 0.937474 -1.09629)
(0.179788 1.36174 -1.78476)
(0.384914 0.527003 -2.08772)
(0.392165 -0.136503 -1.95949)
(0.286811 -0.228698 -1.71166)
(0.165539 0.640729 -2.21895)
(0.0140878 0.0198769 -2.11093)
(0.478282 -0.824866 -1.95426)
(0.471827 -0.835107 -1.96199)
(0.406468 -0.869988 -1.36157)
(0.613488 -0.036303 -1.81909)
(0.510217 -0.348883 -1.80827)
(0.25658 -1.17589 -1.48709)
(0.313043 -1.32141 -1.64817)
(0.142974 -1.14771 -1.31627)
(0.261265 -1.03258 -1.5651)
(0.404328 -0.887742 -1.53096)
(0.130656 -0.927229 -1.65142)
(-0.0237649 -1.63262 -0.82224)
(0.435013 -1.82077 -0.692941)
(0.311049 -1.39206 -1.11527)
(0.314831 -1.30335 -1.19674)
(0.109307 -1.22805 -1.35661)
(0.0211811 3.87601 0.479978)
(-0.21066 3.56097 0.531815)
(0.267718 3.57331 0.0606031)
(-0.397394 3.49013 0.317486)
(0.530977 3.38448 -0.0647708)
(0.159428 3.02997 -0.670652)
(-0.390034 2.51456 -1.41559)
(-0.166134 1.54198 -0.815425)
(0.248094 0.82696 -1.36375)
(-0.165131 -0.117271 -1.44351)
(0.0238396 1.33328 -1.6885)
(0.293034 0.62273 -1.89128)
(0.312877 -0.141296 -1.89334)
(0.116667 -0.280969 -1.70386)
(0.328763 -0.624387 -1.48781)
(0.0437387 0.657211 -2.13582)
(-0.0409878 -0.0863338 -2.01716)
(0.488466 -0.861677 -1.85983)
(0.424355 -0.862879 -1.98857)
(0.355406 -0.921169 -1.34236)
(0.380295 -0.774627 -1.44771)
(0.552041 -0.0766091 -1.77923)
(0.514447 -0.366666 -1.77034)
(0.268103 -1.2176 -1.41992)
(0.328052 -1.34994 -1.60385)
(0.137324 -1.15178 -1.27839)
(0.169946 -1.05248 -1.5468)
(0.0175139 -0.917571 -1.48689)
(0.388237 -0.910185 -1.50827)
(0.111148 -0.966236 -1.63009)
(0.012537 -1.62082 -0.894845)
(0.416895 -1.83438 -0.672119)
(0.289689 -1.4018 -1.10649)
(0.308926 -1.30081 -1.20354)
(0.0939061 -1.23631 -1.35466)
(-0.505753 -1.06665 -1.24288)
(0.275725 4.03389 1.80885)
(-0.295314 3.90153 0.692631)
(-0.178613 3.83968 0.501172)
(-0.295213 3.66503 0.792926)
(-0.0517669 3.67551 0.0559168)
(-0.015184 3.61493 0.911493)
(-0.419192 3.50862 0.197879)
(-0.344474 3.2097 0.425571)
(-0.180134 3.07041 -0.591107)
(0.133374 1.9137 -0.77461)
(-0.576103 2.52296 -1.15492)
(-0.782378 1.23048 -0.712351)
(0.0933295 0.857812 -1.46913)
(-0.292548 -0.103752 -1.27762)
(0.0553775 0.219541 -0.951306)
(-0.119286 1.30868 -1.45729)
(0.0989208 0.581905 -1.73823)
(0.195435 -0.2374 -1.79378)
(-0.134415 -0.285393 -1.67995)
(0.127851 -0.632221 -1.48575)
(0.291476 -0.446786 -1.33625)
(-0.106098 0.491578 -2.06037)
(-0.14668 -0.0685361 -1.93109)
(0.464116 -0.879953 -1.76369)
(0.422445 -0.886083 -1.9633)
(0.247964 -0.983964 -1.3209)
(0.289632 -0.796304 -1.44472)
(0.0378119 -0.747437 -1.34942)
(0.514604 -0.117712 -1.7503)
(0.446484 -0.424293 -1.73944)
(0.247135 -1.26764 -1.33866)
(0.31001 -1.37772 -1.56885)
(0.0861871 -1.18466 -1.22065)
(0.135633 -1.04961 -1.5338)
(-0.030968 -0.942187 -1.44788)
(-0.173207 -1.09791 -1.30548)
(0.36602 -0.948901 -1.47906)
(0.0916639 -1.00314 -1.608)
(0.013538 -1.66139 -0.83039)
(0.379643 -1.8591 -0.631329)
(0.270332 -1.42858 -1.104)
(0.309345 -1.29931 -1.20774)
(0.102135 -1.22786 -1.35649)
(-0.529329 -1.06767 -1.22901)
(-0.4591 -0.797205 -1.71124)
(0.000640276 3.75337 2.8823)
(0.158728 4.0571 1.75181)
(-0.427257 3.57113 1.99299)
(-0.4667 3.9453 0.687192)
(-0.54036 3.87199 0.410333)
(-0.609643 3.83253 1.07765)
(-1.02933 3.57282 0.901451)
(-0.40024 3.55121 0.234769)
(-0.664398 3.60627 1.1325)
(-0.211783 3.38997 0.252706)
(-0.714065 3.53249 0.619401)
(0.274492 3.39518 -0.637258)
(-0.584808 3.04533 -0.828118)
(-0.592234 1.7325 0.295846)
(-0.366452 0.77233 -1.13574)
(-1.02507 2.22565 -1.18503)
(-0.911133 1.12129 -0.652012)
(-0.219117 0.811708 -1.57785)
(-0.5478 -0.18735 -1.26331)
(-0.369859 0.176511 -1.22592)
(0.299123 0.378676 -0.710426)
(-0.35241 1.16506 -1.32598)
(-0.0851055 0.494465 -1.66062)
(0.178751 -0.232568 -1.7418)
(-0.33977 -0.358874 -1.55754)
(-0.108148 -0.726547 -1.4867)
(0.00693793 -0.488875 -1.22839)
(-0.0934501 -0.319724 -1.41512)
(-0.229075 0.49925 -1.90055)
(-0.219365 -0.208661 -1.80518)
(0.406328 -0.950666 -1.70553)
(0.339262 -0.887459 -1.93804)
(0.229596 -1.01714 -1.29029)
(0.132335 -0.824391 -1.45075)
(-0.0113431 -0.755627 -1.30859)
(0.182934 -0.895569 -1.46985)
(0.451568 -0.143044 -1.73317)
(0.357897 -0.486449 -1.70404)
(0.180485 -1.35502 -1.20529)
(0.303724 -1.4036 -1.53142)
(0.0506159 -1.20218 -1.18245)
(0.137958 -1.04252 -1.52858)
(-0.0323537 -0.949441 -1.43056)
(-0.200533 -1.12585 -1.25891)
(-0.26924 -0.528835 -1.8851)
(0.33317 -0.99364 -1.44806)
(0.0590235 -1.05736 -1.56906)
(0.0342931 -1.66537 -0.87236)
(0.404345 -1.83836 -0.637399)
(0.241587 -1.43715 -1.09328)
(0.300881 -1.29542 -1.21353)
(0.102774 -1.22518 -1.35549)
(-0.532718 -1.08274 -1.22928)
(-0.50055 -0.803987 -1.69564)
(-0.425591 -1.02268 -1.40078)
(-0.0667092 3.26102 3.47598)
(-0.016969 3.82828 2.91863)
(-0.202237 3.75403 3.21601)
(-0.269359 3.80441 1.90559)
(-0.76933 3.60518 2.14479)
(-0.837969 3.48513 1.47429)
(-0.836907 3.89551 0.771481)
(-0.941845 3.83571 0.824277)
(-0.818117 3.87365 1.13078)
(-0.593479 3.55086 1.09226)
(-1.19142 3.51568 0.893081)
(-0.490908 3.5487 0.387726)
(-0.796036 3.5429 1.13771)
(-1.03932 3.24703 0.214846)
(-0.742697 2.23512 0.263009)
(-0.717442 3.63911 0.472578)
(-0.764587 3.4012 0.328226)
(-0.900886 2.79661 -1.42949)
(-1.09826 1.7003 0.870477)
(-0.91016 0.955158 -0.294681)
(-0.225272 0.9888 -0.284113)
(-1.15297 2.13748 -1.32771)
(-1.11941 0.942913 -0.545212)
(-0.545469 0.805647 -1.53868)
(-0.846297 -0.195161 -1.12614)
(-0.526572 0.0583556 -1.44536)
(-0.00547932 0.398114 -0.656079)
(-0.458841 0.401715 -1.24765)
(-0.512996 1.03447 -1.18028)
(-0.174602 0.514531 -1.60389)
(0.0293957 -0.203419 -1.67781)
(-0.575547 -0.332104 -1.44114)
(-0.282043 -0.737322 -1.50476)
(-0.142804 -0.511746 -1.17553)
(-0.239843 -0.264194 -1.4122)
(-0.134733 -0.310224 -1.63732)
(-0.324436 0.388575 -1.74887)
(-0.352606 -0.252525 -1.66036)
(0.346056 -0.996329 -1.69429)
(0.288744 -0.917707 -1.89957)
(0.109225 -1.06361 -1.18608)
(0.0938069 -0.815883 -1.45712)
(-0.021481 -0.760425 -1.30069)
(0.107253 -0.99323 -1.41267)
(-0.189414 -0.517512 -1.73959)
(0.372577 -0.23983 -1.70988)
(0.346127 -0.497826 -1.66754)
(0.102214 -1.44255 -1.0566)
(0.33643 -1.41242 -1.49476)
(0.0267693 -1.21303 -1.1706)
(0.0462843 -1.10107 -1.47006)
(-0.0415778 -0.965171 -1.41438)
(-0.224346 -1.13722 -1.21975)
(-0.31298 -0.539447 -1.84788)
(-0.482281 -0.782916 -1.70139)
(0.315935 -1.03331 -1.41376)
(0.0286117 -1.11511 -1.52957)
(-0.0122486 -1.73319 -0.759033)
(0.393887 -1.84589 -0.605883)
(0.245357 -1.40833 -1.09765)
(0.297768 -1.28695 -1.21654)
(0.0974879 -1.23946 -1.35217)
(-0.549951 -1.08721 -1.21307)
(-0.526968 -0.832617 -1.6793)
(-0.568644 -0.996933 -1.36258)
(-0.321902 -0.801973 -1.65878)
(-0.316943 3.32938 3.35849)
(-0.0840108 3.26188 3.50045)
(-0.453093 3.4414 3.67101)
(-0.0391593 3.90206 3.02674)
(-0.663306 3.53504 3.54029)
(-0.381782 3.46471 3.2342)
(-0.659556 3.54136 2.09849)
(-1.10903 3.41093 2.36465)
(-1.0468 3.54826 1.68114)
(-0.804014 3.57567 1.50471)
(-1.1199 3.79639 0.845384)
(-1.38309 3.82852 1.08974)
(-1.0966 3.86465 1.22677)
(-0.358961 4.00266 0.921287)
(-0.262309 3.34722 0.488293)
(-1.34077 3.47711 0.852887)
(-0.918667 3.61724 0.661783)
(-1.14877 3.31314 1.15994)
(-1.25993 3.21402 0.485556)
(-0.541866 2.38979 -0.151632)
(-0.436886 2.08106 -0.242711)
(-0.911245 3.36137 0.348209)
(-1.01319 3.27865 0.648453)
(-0.992747 2.62801 -1.44655)
(-1.91494 1.47237 1.10036)
(-0.172423 0.729742 -1.54217)
(-0.536413 0.976113 -0.478135)
(-0.10946 1.26874 -0.444337)
(-1.28729 2.06086 -1.37787)
(-1.19393 0.85453 -0.591308)
(-0.843374 0.702096 -1.34204)
(-0.997911 -0.202 -0.977981)
(-0.942022 -0.179855 -1.51668)
(-0.363547 0.347013 -0.66006)
(-0.587248 0.430184 -1.27138)
(-0.411345 0.596086 -1.59572)
(-0.598261 0.839944 -1.05071)
(-0.31257 0.470185 -1.38619)
(-0.0378406 -0.295759 -1.60187)
(-0.657636 -0.322903 -1.44368)
(-0.641494 -0.71734 -1.34664)
(-0.463394 -0.534255 -1.17007)
(-0.299333 -0.304531 -1.36071)
(-0.250725 -0.282495 -1.54699)
(-0.252375 -0.268426 -1.57461)
(-0.479658 0.310854 -1.58183)
(-0.448863 -0.362604 -1.5467)
(0.250265 -1.07222 -1.62878)
(0.266274 -0.955323 -1.84365)
(0.0765764 -1.08391 -1.09524)
(0.0250175 -0.808133 -1.46385)
(-0.0894272 -0.737802 -1.28936)
(-0.0554824 -0.960436 -1.40519)
(-0.198434 -0.481933 -1.68492)
(-0.428223 -0.953193 -1.68077)
(0.333189 -0.286086 -1.69934)
(0.194931 -0.678175 -1.5547)
(0.0459151 -1.53013 -0.939919)
(0.315315 -1.39669 -1.47416)
(0.0691686 -1.20573 -1.21996)
(-0.0554608 -1.0923 -1.43871)
(-0.113704 -1.00684 -1.37286)
(-0.250163 -1.17904 -1.14885)
(-0.345486 -0.537281 -1.8083)
(-0.521534 -0.77955 -1.64479)
(-0.263557 -0.363562 -2.06231)
(0.322784 -1.04945 -1.39545)
(0.00182586 -1.16775 -1.49313)
(0.0303128 -1.72631 -0.798175)
(0.388017 -1.85548 -0.583234)
(0.231756 -1.40927 -1.09983)
(0.30157 -1.29099 -1.21546)
(0.0928448 -1.23153 -1.35177)
(-0.550183 -1.11503 -1.17339)
(-0.525472 -0.830474 -1.68215)
(-0.4197 -1.00871 -1.37524)
(-0.254341 -0.79183 -1.66272)
(-0.111195 -0.389109 -1.94127)
(-0.29962 3.07222 3.35015)
(-0.479824 3.26416 3.43232)
(-0.515242 3.36913 3.52111)
(-0.293535 3.30813 3.61012)
(-0.931965 3.46985 3.61787)
(-0.804628 3.63434 3.45777)
(-0.7039 3.48585 3.37645)
(-0.953123 3.51744 3.52715)
(-0.88938 3.41263 3.43334)
(-0.616933 3.52303 2.82891)
(-0.56186 3.61491 2.09612)
(-1.35522 3.30954 2.41306)
(-1.33377 3.43173 2.16343)
(-1.2517 3.50066 1.77593)
(-0.949756 3.4693 1.63803)
(-1.28296 3.74177 0.671595)
(-1.59516 3.90308 0.891449)
(-1.26298 3.77759 1.25277)
(-1.58995 3.43461 1.63481)
(-1.41579 2.82687 1.32932)
(-0.974364 2.76505 1.08304)
(-1.49311 3.41853 0.818229)
(-1.83824 3.20373 1.2525)
(-1.4087 3.2101 1.16118)
(-1.86026 3.11178 0.910381)
(-1.08428 2.26632 0.375362)
(-0.914543 1.99918 0.0439965)
(-1.32656 1.69874 0.496563)
(-1.56652 2.74782 0.708048)
(-1.47453 3.05651 1.08534)
(-1.3603 2.35695 -0.488703)
(-2.06295 1.27143 1.0557)
(-1.24593 1.14251 -0.639964)
(-0.913739 1.01997 -0.44579)
(-0.268511 1.38303 -0.470078)
(-0.887963 1.43505 -0.630642)
(-1.5321 1.91283 -0.491619)
(-1.32561 0.71034 -0.460963)
(-1.0613 0.647522 -1.29025)
(-1.09634 -0.206072 -0.986448)
(-1.27437 -0.204524 -1.20821)
(-0.758867 0.215314 -0.827701)
(-0.708991 0.511039 -1.28363)
(-0.596282 0.608265 -1.5656)
(-0.716975 0.534299 -1.08823)
(-0.758888 0.606066 -0.894407)
(-0.487762 0.396117 -1.10884)
(-0.380096 -0.381437 -1.43702)
(-0.771385 -0.293426 -1.34632)
(-0.624184 -0.733857 -1.29343)
(-0.511268 -0.560408 -1.26933)
(-0.427335 -0.245719 -1.29256)
(-0.381547 -0.256579 -1.4904)
(-0.349067 -0.277851 -1.52312)
(-0.513708 -0.352917 -1.62412)
(-0.646629 0.166962 -1.43391)
(-0.601775 -0.452847 -1.361)
(0.0723011 -1.05573 -1.50433)
(0.23387 -0.995892 -1.78856)
(0.0820939 -1.10799 -1.0286)
(-0.113824 -0.849437 -1.40644)
(-0.102393 -0.732 -1.27022)
(-0.144758 -0.960754 -1.28125)
(-0.190537 -0.474574 -1.57846)
(-0.44933 -0.892461 -1.63986)
(-0.378714 -0.600341 -1.8239)
(0.134019 -0.454198 -1.69519)
(0.0797958 -0.804247 -1.48145)
(0.0220835 -1.65846 -0.732373)
(0.306244 -1.45353 -1.39947)
(0.0562371 -1.21016 -1.27828)
(-0.0171997 -1.0624 -1.43818)
(-0.115016 -1.02277 -1.33917)
(-0.278121 -1.18677 -1.10078)
(-0.367899 -0.553331 -1.75616)
(-0.569729 -0.782883 -1.57935)
(-0.328485 -0.370366 -2.03153)
(-0.278658 0.00463852 -2.09287)
(0.34699 -1.04778 -1.39456)
(-0.0353887 -1.23273 -1.44654)
(0.0353995 -1.74853 -0.774712)
(0.378624 -1.8838 -0.554257)
(0.227834 -1.40869 -1.1117)
(0.276201 -1.28677 -1.22607)
(0.0928026 -1.23034 -1.35138)
(-0.53185 -1.10099 -1.17648)
(-0.537125 -0.845547 -1.67013)
(-0.508328 -0.996001 -1.34921)
(-0.326603 -0.797112 -1.64794)
(-0.103759 -0.377837 -1.93112)
(-0.426625 0.122084 -2.27916)
(-0.344899 2.77425 3.29859)
(-0.509789 3.04167 3.38331)
(-0.441181 3.11251 3.37241)
(-0.866319 3.2171 3.48926)
(-0.755209 3.30457 3.56886)
(-0.527774 3.37227 3.49888)
(-0.804328 3.34702 3.66817)
(-1.31446 3.43987 3.56447)
(-1.16125 3.54272 3.44569)
(-0.708363 3.47466 3.59213)
(-0.763009 3.47948 3.45831)
(-1.17877 3.4191 3.60403)
(-1.0955 3.49866 3.42376)
(-0.910142 3.4365 3.13806)
(-0.987847 3.43363 2.83568)
(-0.674921 3.62282 2.323)
(-1.43968 3.32409 2.22559)
(-1.35272 3.83502 1.82561)
(-1.17162 3.89753 1.67413)
(-1.2761 3.38932 1.81257)
(-0.968863 3.32505 1.82622)
(-1.66923 3.51886 0.829555)
(-1.5247 3.89447 0.587525)
(-1.85451 3.48346 1.25781)
(-2.17035 3.16141 1.63809)
(-1.39923 2.96857 1.12414)
(-1.10057 2.86079 1.27995)
(-0.147909 2.81689 0.725301)
(-1.82788 3.20638 0.838175)
(-2.14104 2.88309 1.42188)
(-1.64367 3.2223 1.34733)
(-1.42339 3.41344 0.778133)
(-1.48395 2.18048 0.748391)
(-1.25056 1.82512 0.347645)
(-1.4147 1.5352 0.690458)
(-0.615546 2.06867 0.215264)
(-1.85055 2.60275 0.97923)
(-1.6052 2.94228 1.22012)
(-1.49411 2.26323 0.104648)
(-2.22879 0.913855 1.05246)
(-1.4516 0.920934 -0.428808)
(-1.18134 0.906834 -0.622808)
(-0.617353 1.44507 -0.583971)
(-0.886324 1.47932 -0.499901)
(-0.86645 1.27418 -1.64836)
(-1.78551 1.65688 0.276319)
(-1.36764 0.518974 -0.092094)
(-1.27649 0.618932 -1.12719)
(-1.18832 -0.22104 -0.910997)
(-1.44513 -0.175727 -1.05147)
(-1.02521 0.121058 -1.23033)
(-0.814164 0.527029 -1.37128)
(-0.742405 0.547823 -1.59486)
(-0.575142 0.636034 -1.27583)
(-0.945904 0.528705 -1.21886)
(-0.956657 0.247323 -0.76685)
(-0.663915 0.220004 -0.918586)
(-0.589966 -0.524222 -1.24906)
(-0.828678 -0.305835 -1.26131)
(-0.789199 -0.641281 -1.21727)
(-0.675001 -0.496631 -1.29063)
(-0.560533 -0.29473 -1.24953)
(-0.488072 -0.225971 -1.44361)
(-0.46953 -0.266977 -1.41849)
(-0.55455 -0.322343 -1.61865)
(-0.132673 -0.513583 -1.45467)
(-0.867506 0.0196977 -1.20577)
(-0.642473 -0.515465 -1.33657)
(0.0532494 -1.17567 -1.31567)
(0.182004 -0.978353 -1.75972)
(0.0403921 -1.06392 -1.00923)
(-0.22281 -0.841626 -1.33186)
(-0.0932265 -0.794406 -1.25446)
(-0.154459 -1.00441 -1.16667)
(-0.248151 -0.512844 -1.45328)
(-0.508922 -0.957603 -1.53227)
(-0.429255 -0.680106 -1.75882)
(-0.632537 -0.104227 -1.53692)
(0.193199 -0.40593 -1.72783)
(-0.130924 -1.05493 -1.34064)
(-0.0363017 -1.63631 -0.790886)
(0.27321 -1.52749 -1.292)
(0.0811414 -1.19966 -1.34053)
(-0.0696792 -1.09501 -1.40511)
(-0.124283 -1.04287 -1.29004)
(-0.305266 -1.19609 -1.04624)
(-0.408596 -0.557231 -1.72875)
(-0.579826 -0.788126 -1.54825)
(-0.407437 -0.362568 -1.9957)
(-0.334513 0.0294368 -2.04191)
(-0.511579 0.151734 -1.96908)
(0.371608 -1.06213 -1.37572)
(-0.0464317 -1.262 -1.42549)
(0.0350962 -1.76658 -0.755433)
(0.369667 -1.897 -0.510831)
(0.232986 -1.42107 -1.11995)
(0.269951 -1.29197 -1.22648)
(0.0904064 -1.23985 -1.3486)
(-0.539806 -1.083 -1.16615)
(-0.540139 -0.839491 -1.66918)
(-0.477281 -1.02693 -1.32854)
(-0.320703 -0.815867 -1.63471)
(-0.0871923 -0.364853 -1.92419)
(-0.442316 0.125969 -2.25679)
(-0.147606 0.341669 -2.55164)
(-0.265813 2.65018 3.11868)
(-0.463003 2.67401 3.38387)
(-0.370636 2.72721 3.32565)
(-0.707935 2.93676 3.44689)
(-0.665312 3.07527 3.34554)
(-0.574888 3.07446 3.35569)
(-1.08435 3.16643 3.54239)
(-0.928766 3.18505 3.59496)
(-0.803337 3.24523 3.47197)
(-0.508125 3.34688 3.44973)
(-1.08703 3.29692 3.63934)
(-1.53234 3.34027 3.57507)
(-1.27494 3.46852 3.48617)
(-1.03486 3.32165 3.61282)
(-0.892605 3.34245 3.67705)
(-1.26439 3.40333 3.52932)
(-1.44445 3.38451 3.61822)
(-1.36274 3.4097 3.53394)
(-1.28114 3.44151 3.37025)
(-1.1637 3.44362 2.95985)
(-0.89075 3.58466 2.69469)
(-1.14478 3.53962 2.58915)
(-1.60481 3.08361 2.35094)
(-1.98088 3.23293 2.41138)
(-1.72854 3.47011 2.32182)
(-1.45801 3.26588 1.89997)
(-1.34835 3.33269 1.65944)
(-1.05901 3.38998 1.19212)
(-2.0009 3.26074 1.16728)
(-1.8018 3.60239 0.622494)
(-2.07077 3.42034 1.17619)
(-2.31098 3.03308 1.7264)
(-1.30498 3.00748 1.55592)
(-1.56869 2.5761 1.67423)
(-0.656937 2.5403 1.14025)
(-0.801243 2.66543 0.764173)
(-2.20971 2.9328 0.744822)
(-2.39059 2.6093 1.3294)
(-2.3049 2.90368 1.37656)
(-2.07321 2.8415 1.13251)
(-1.49665 2.27426 0.890092)
(-1.41291 1.82465 0.53525)
(-1.64221 1.55166 0.50312)
(-0.711443 2.1659 0.112841)
(-0.552973 2.64367 -0.238441)
(-2.32385 2.25257 1.3463)
(-1.33815 3.21057 0.625026)
(-1.65288 2.17539 0.515087)
(-2.10229 0.885141 1.26619)
(-1.62205 0.731246 -0.129358)
(-1.46432 0.872436 -0.330644)
(-0.753661 1.47594 -0.978918)
(-0.898467 1.60433 -0.394362)
(-1.08914 1.11342 -1.44933)
(-1.07687 1.40397 -0.943033)
(-1.89977 1.59094 0.672347)
(-1.38431 0.493417 0.173427)
(-1.46997 0.421241 -0.919616)
(-1.34477 -0.217454 -0.651363)
(-1.64522 -0.347101 -1.30042)
(-1.33962 0.0492224 -1.35318)
(-1.15005 0.416643 -1.23653)
(-0.931448 0.468603 -1.56495)
(-1.04106 0.556285 -1.03845)
(-1.02139 0.603888 -1.09525)
(-0.989584 0.587237 -0.943803)
(-1.08603 0.0399828 -0.601486)
(-0.811977 0.0662154 -1.0878)
(-0.758278 -0.615528 -1.20279)
(-1.02271 -0.322722 -1.10321)
(-0.803362 -0.538662 -1.05654)
(-0.797042 -0.486921 -1.2425)
(-0.749026 -0.25803 -1.30785)
(-0.611349 -0.233998 -1.36753)
(-0.528267 -0.222918 -1.38827)
(-0.615286 -0.309721 -1.58214)
(-0.158885 -0.594106 -1.47255)
(-0.643045 -0.362826 -1.14215)
(-0.86065 0.0142069 -1.29419)
(-0.788518 -0.705715 -1.03399)
(-0.211755 -1.3405 -0.983944)
(0.078976 -1.09935 -1.66843)
(0.073919 -1.05919 -1.01129)
(-0.256505 -0.821506 -1.27892)
(-0.225567 -0.796563 -1.20308)
(-0.28119 -1.10054 -1.03523)
(-0.32015 -0.482188 -1.41188)
(-0.507289 -0.953395 -1.50678)
(-0.451644 -0.671456 -1.73941)
(-0.677999 -0.110291 -1.47488)
(-1.03185 0.258649 -1.23958)
(0.167863 -0.450546 -1.72471)
(-0.214259 -1.19817 -1.26894)
(-0.0293289 -1.68042 -0.754594)
(0.209069 -1.44707 -1.28832)
(0.0954678 -1.20215 -1.35961)
(-0.0888498 -1.10534 -1.39906)
(-0.172301 -1.07589 -1.22648)
(-0.330015 -1.20965 -0.995588)
(-0.438774 -0.572295 -1.71699)
(-0.614113 -0.777837 -1.52766)
(-0.487424 -0.374025 -1.95356)
(-0.385268 0.0398614 -1.9911)
(-0.587033 0.166645 -1.89739)
(-0.765356 0.44017 -1.97116)
(0.367193 -1.09368 -1.33536)
(-0.0792198 -1.32017 -1.37001)
(0.0625507 -1.76151 -0.794109)
(0.372004 -1.8905 -0.509704)
(0.208678 -1.40691 -1.11116)
(0.254346 -1.29995 -1.23799)
(0.0881562 -1.23888 -1.34593)
(-0.536358 -1.09083 -1.16257)
(-0.534593 -0.846536 -1.6696)
(-0.438831 -0.999161 -1.35513)
(-0.347638 -0.798101 -1.62635)
(-0.0775272 -0.34974 -1.91878)
(-0.461415 0.130299 -2.23098)
(-0.175014 0.353502 -2.52829)
(-0.112001 0.488967 -2.74872)
(-0.588254 2.47326 2.9976)
(-0.386125 2.71142 3.05144)
(-0.270383 2.55545 3.25546)
(-0.500223 2.62034 3.41846)
(-0.431938 2.69365 3.35412)
(-0.413794 2.75038 3.30318)
(-0.881992 2.74498 3.55088)
(-0.914765 2.86517 3.49658)
(-0.808877 3.02483 3.37088)
(-0.726269 3.07219 3.39649)
(-1.09938 3.12887 3.49807)
(-1.16712 3.0486 3.5784)
(-0.971806 3.21287 3.42506)
(-1.06011 3.08887 3.52567)
(-0.80184 2.98442 3.80878)
(-0.858 3.44266 3.68002)
(-1.4033 3.43891 3.54235)
(-1.33667 3.44279 3.53801)
(-1.15672 3.34656 3.6811)
(-0.923135 3.39921 3.61718)
(-0.569939 3.38398 3.44931)
(-1.59379 3.19358 3.56965)
(-1.67494 3.26998 3.58302)
(-1.55769 3.34177 3.59944)
(-1.71764 3.33026 3.53405)
(-1.40289 3.46554 3.07957)
(-1.2752 3.47134 2.6652)
(-0.467465 3.74947 2.30021)
(-1.50788 3.35336 2.77436)
(-1.4298 3.45935 2.35401)
(-2.06765 3.13067 2.55759)
(-2.11595 3.2102 2.50203)
(-1.80788 3.14578 2.1055)
(-1.36083 3.29216 1.88498)
(-0.953703 3.17781 1.85823)
(-0.995548 3.27776 1.72457)
(-2.06934 3.10911 1.24273)
(-2.42325 2.70328 1.54517)
(-2.40109 3.0246 1.40637)
(-2.41334 2.98778 1.79878)
(-1.95306 2.86727 1.48938)
(-1.69928 2.59226 1.69559)
(-1.40786 2.49158 1.03762)
(-0.983882 2.56584 1.03749)
(-1.11738 2.67624 1.20686)
(-2.59434 2.41834 0.912486)
(-2.55082 2.51295 1.3374)
(-2.58543 2.76875 1.50672)
(-2.08959 2.78555 1.46159)
(-1.7756 1.95812 1.18446)
(-1.53648 1.94593 0.655298)
(-1.86355 1.5714 0.204336)
(-1.02707 2.23544 0.27726)
(-0.343409 2.72368 -0.186291)
(-1.24955 2.61151 -0.0267366)
(-2.59011 2.03309 1.46718)
(-1.99091 2.62186 0.795113)
(-1.70205 2.27461 1.09711)
(-2.31994 0.940057 1.13926)
(-1.74156 1.05782 -0.747306)
(-1.71171 0.835648 -0.276841)
(-1.23602 1.34099 -1.15365)
(-1.38059 1.28284 0.238986)
(-1.17866 1.12051 -0.9193)
(-1.37961 1.228 -0.795416)
(-0.810338 1.98498 -0.727635)
(-2.07758 1.30929 1.23487)
(-1.52782 0.31885 0.523206)
(-1.72474 0.286724 -0.350004)
(-1.37298 -0.332583 -0.52422)
(-1.73123 -0.272342 -1.08661)
(-1.50366 -0.00422395 -1.30135)
(-1.37635 0.335048 -1.11084)
(-1.24742 0.392614 -1.2016)
(-1.09737 0.514584 -1.17459)
(-1.1077 0.611795 -0.971961)
(-1.18765 0.626856 -0.866508)
(-1.45684 0.849055 -0.214936)
(-0.891887 0.0514843 -1.08808)
(-0.975045 -0.155639 -0.880346)
(-1.00082 -0.736626 -1.14653)
(-1.14891 -0.402281 -1.02083)
(-0.887219 -0.564831 -0.847005)
(-0.919449 -0.472166 -1.16936)
(-0.992238 -0.276213 -1.14311)
(-0.72037 -0.169283 -1.48512)
(-0.633193 -0.194516 -1.29279)
(-0.664534 -0.270582 -1.57494)
(-0.24668 -0.591268 -1.44678)
(-0.758592 -0.397518 -1.07997)
(-1.33871 0.177419 -0.314651)
(-0.979333 -0.156126 -1.31188)
(-0.914954 -0.879437 -0.859239)
(-0.50749 -1.47291 -0.53584)
(-0.0347863 -1.17098 -1.56025)
(0.156662 -1.07607 -1.06893)
(-0.27005 -0.86601 -1.20097)
(-0.303017 -0.819072 -1.16219)
(-0.298902 -1.13228 -0.956044)
(-0.399501 -0.53467 -1.37823)
(-0.48637 -0.916802 -1.47839)
(-0.462741 -0.70567 -1.70639)
(-0.7494 -0.132097 -1.4282)
(-1.15627 0.30279 -1.08767)
(-1.04815 0.446968 -1.53277)
(0.0228633 -0.652557 -1.6345)
(-0.305083 -1.37695 -1.16754)
(-0.0181631 -1.77007 -0.646229)
(0.226197 -1.50837 -1.12035)
(0.0845859 -1.20488 -1.36055)
(-0.147417 -1.07711 -1.41589)
(-0.184496 -1.11245 -1.17127)
(-0.330852 -1.20386 -0.985114)
(-0.521442 -0.599196 -1.66233)
(-0.639726 -0.789427 -1.48734)
(-0.54409 -0.367998 -1.91475)
(-0.425378 0.0578753 -1.94724)
(-0.675367 0.177924 -1.80466)
(-0.848366 0.472563 -1.87195)
(-0.561271 0.364227 -2.38804)
(0.365831 -1.06394 -1.34241)
(-0.0914627 -1.33969 -1.34874)
(0.0486684 -1.78599 -0.744449)
(0.355641 -1.92049 -0.458548)
(0.203281 -1.4034 -1.10754)
(0.259699 -1.31987 -1.24427)
(0.0914826 -1.25467 -1.34294)
(-0.529247 -1.11007 -1.14472)
(-0.533881 -0.86378 -1.66008)
(-0.427159 -0.984171 -1.34892)
(-0.334669 -0.799841 -1.61539)
(-0.0659455 -0.335877 -1.91424)
(-0.482791 0.133269 -2.20225)
(-0.202683 0.36909 -2.50475)
(-0.134713 0.508034 -2.7378)
(-0.0340701 0.994226 -2.63974)
(-0.534042 2.35611 2.98451)
(-0.660622 2.47323 2.93159)
(-0.522385 2.41746 3.19139)
(-0.475885 2.74178 2.96542)
(-0.388347 2.53069 3.24991)
(-0.373971 2.45765 3.38374)
(-0.672243 2.4695 3.44717)
(-0.413215 2.64181 3.38467)
(-0.671211 2.54398 3.374)
(-0.457432 2.57527 3.44782)
(-1.10416 2.52374 3.51827)
(-0.973088 2.72404 3.57374)
(-1.07779 2.88473 3.48212)
(-0.973995 2.93986 3.4659)
(-0.933026 2.94338 3.55035)
(-1.23841 3.09302 3.47796)
(-1.38403 2.93042 3.59406)
(-1.38318 3.05872 3.46127)
(-1.40972 3.01605 3.551)
(-1.0396 3.21839 3.58457)
(-0.609118 3.15618 3.77287)
(-1.52106 3.2983 3.58816)
(-1.8977 3.27244 3.48846)
(-1.73351 3.26165 3.60912)
(-1.38997 3.38865 3.69448)
(-0.935111 3.45577 3.57163)
(-0.755509 3.22839 3.56426)
(-0.215786 3.47374 3.1519)
(-1.50759 3.33217 3.37279)
(-1.84883 3.1897 3.56524)
(-1.8782 3.18192 3.6583)
(-1.77545 3.24805 3.5815)
(-1.88368 3.09927 3.39084)
(-1.46933 3.34749 2.7782)
(-1.02857 3.57016 2.30358)
(-0.707675 3.63751 2.19812)
(-1.64986 3.15371 2.72823)
(-2.00174 2.92334 2.86366)
(-2.1155 3.04187 2.72444)
(-2.47174 3.07346 2.45706)
(-2.16047 3.16909 2.22219)
(-1.88905 3.29696 1.86023)
(-1.81253 3.24639 1.07155)
(-0.991031 3.14804 1.95515)
(-0.747413 3.57174 1.24115)
(-2.08051 2.65357 1.66793)
(-2.38876 2.58243 1.7054)
(-2.58578 2.78872 1.54453)
(-2.60121 2.98679 1.59787)
(-2.10154 2.7645 1.49782)
(-1.84473 2.51492 1.71585)
(-1.28564 2.43344 1.18343)
(-1.47224 2.39784 0.922389)
(-1.29065 2.81947 1.07091)
(-0.83376 3.62617 0.397312)
(-2.75507 2.219 0.988224)
(-2.62944 2.71993 1.14344)
(-3.12063 2.5442 1.43708)
(-3.09466 1.95585 1.18965)
(-1.84373 1.80404 1.52966)
(-1.89589 1.73258 1.06088)
(-2.08236 1.59288 0.29296)
(-1.28438 2.30535 -0.130154)
(-0.95762 2.5352 0.348502)
(-1.19549 2.47759 0.412603)
(-1.94715 2.12666 0.297773)
(-2.82574 1.85905 1.2992)
(-2.25576 2.35733 0.911364)
(-2.59951 1.3444 1.27658)
(-2.21846 0.930438 1.30232)
(-1.77689 0.882723 0.734027)
(-1.74037 0.757573 -0.643198)
(-1.96626 0.987899 -0.539498)
(-1.61502 1.04933 0.623271)
(-1.57021 0.781845 0.0422944)
(-1.6003 0.968401 -0.680283)
(-1.23639 1.94474 -0.709371)
(-1.19945 2.07971 -0.784508)
(-2.08544 1.16276 1.70756)
(-1.42497 0.581539 1.19025)
(-1.87686 0.247776 -0.051877)
(-1.49668 -0.399235 -0.250193)
(-1.83364 -0.189731 -0.637739)
(-1.57487 -0.0158289 -1.06895)
(-1.47871 0.279566 -1.0492)
(-1.46359 0.327782 -0.938054)
(-1.33048 0.497098 -0.926481)
(-1.27051 0.635686 -0.817315)
(-1.25401 0.57059 -0.863736)
(-1.56981 0.80021 -0.195452)
(-1.21632 0.598249 -0.413611)
(-1.27194 -0.439046 -0.64338)
(-1.19237 -0.464094 -0.492716)
(-1.03357 -0.874753 -0.784534)
(-1.41511 -0.518978 -0.920994)
(-1.31459 -0.56521 -0.622165)
(-1.05838 -0.436339 -1.15901)
(-1.05667 -0.289791 -1.08621)
(-0.892671 -0.182832 -1.46181)
(-0.734847 -0.184458 -1.17192)
(-0.702801 -0.313332 -1.51822)
(-0.296434 -0.646205 -1.46626)
(-0.90221 -0.442062 -1.00171)
(-1.40957 0.185651 -0.221711)
(-1.24338 0.630974 -1.33209)
(-1.20605 -0.269597 -1.10986)
(-1.03812 -1.12648 -0.827709)
(-0.306664 -1.44078 -0.928565)
(-0.104884 -1.12109 -1.55917)
(0.0728594 -1.0444 -1.07453)
(-0.41517 -0.878846 -1.0925)
(-0.375396 -0.931748 -1.07248)
(-0.330965 -1.09463 -0.958641)
(-0.446517 -0.451132 -1.42483)
(-0.559197 -0.910224 -1.35356)
(-0.459863 -0.723302 -1.65692)
(-0.800537 -0.160841 -1.42784)
(-1.2693 0.311249 -0.932878)
(-1.23905 0.455654 -1.35349)
(-0.842956 0.575058 -1.76591)
(-0.0756055 -0.815703 -1.5404)
(-0.320967 -1.40907 -1.11279)
(-0.267107 -1.80897 -0.438513)
(0.160064 -1.48023 -1.07786)
(0.0805761 -1.20248 -1.36511)
(-0.105466 -1.08976 -1.43169)
(-0.219411 -1.12555 -1.14729)
(-0.345626 -1.20108 -0.968977)
(-0.564177 -0.622512 -1.58762)
(-0.669602 -0.79233 -1.41483)
(-0.572396 -0.365034 -1.88683)
(-0.447248 0.0741406 -1.92399)
(-0.752333 0.199016 -1.69693)
(-0.908834 0.516862 -1.78173)
(-0.620467 0.401945 -2.29205)
(-0.452817 0.783354 -2.36935)
(0.368534 -1.0936 -1.31987)
(-0.0930396 -1.36309 -1.33334)
(0.105785 -1.79466 -0.751296)
(0.355215 -1.94369 -0.403593)
(0.210887 -1.43011 -1.10196)
(0.254137 -1.32357 -1.226)
(0.0765154 -1.24437 -1.34099)
(-0.528138 -1.09106 -1.14311)
(-0.552873 -0.86116 -1.63927)
(-0.42468 -0.967653 -1.34576)
(-0.358668 -0.799013 -1.59694)
(-0.0615962 -0.322562 -1.90939)
(-0.503967 0.134404 -2.17465)
(-0.231271 0.380238 -2.48197)
(-0.177989 0.500804 -2.73248)
(0.00354845 0.997519 -2.62957)
(0.227569 1.47802 -2.22293)
(-0.320948 2.36344 2.7027)
(-0.605774 2.20939 2.98954)
(-0.354229 2.39873 2.99527)
(-0.689435 2.48998 2.91305)
(-0.683275 2.37995 3.14758)
(-0.376615 2.48351 3.24665)
(-0.720891 2.67665 3.0003)
(-0.51196 2.53108 3.22417)
(-0.604803 2.26727 3.43844)
(-0.42352 2.38723 3.5185)
(-0.924564 2.28404 3.47971)
(-0.692337 2.45088 3.42158)
(-0.600326 2.55258 3.33531)
(-0.765848 2.42629 3.44054)
(-0.624932 2.53168 3.46215)
(-1.07191 2.57305 3.49462)
(-1.15308 2.57591 3.60217)
(-1.10425 2.7545 3.57766)
(-1.16257 2.79102 3.50664)
(-1.0159 2.81879 3.52697)
(-0.621916 2.85476 3.70123)
(-1.60884 2.95216 3.49641)
(-1.64952 2.81361 3.62684)
(-1.74256 2.83768 3.59117)
(-1.58315 2.9771 3.60698)
(-1.15821 3.13213 3.63919)
(-0.636556 3.17047 3.75309)
(-0.49487 3.21946 3.76343)
(-1.69285 3.12867 3.68013)
(-2.10315 3.17447 3.46634)
(-2.09533 3.1215 3.66632)
(-1.59681 3.28395 3.73637)
(-1.0196 3.32517 3.64149)
(-0.835622 3.20377 3.56102)
(-0.768171 3.51065 3.03729)
(-0.618789 3.42498 3.09905)
(-1.90634 3.02464 3.38049)
(-2.19982 3.21475 3.4779)
(-2.18321 3.04957 3.78251)
(-1.91155 3.01902 3.70726)
(-1.84164 3.22244 3.2102)