/*--------------------------------*- C++ -*----------------------------------*\
  =========                 |
  \\      /  F ield         | OpenFOAM: The Open Source CFD Toolbox
   \\    /   O peration     | Website:  https://openfoam.org
    \\  /    A nd           | Version:  7
     \\/     M anipulation  |
\*---------------------------------------------------------------------------*/
FoamFile
{
    version     2.0;
    format      ascii;
    class       volScalarField;
    location    "7";
    object      nut;
}
// * * * * * * * * * * * * * * * * * * * * * * * * * * * * * * * * * * * * * //

dimensions      [0 2 -1 0 0 0 0];

internalField   nonuniform List<scalar> 
18750
(
0.00154407
0.00124786
0.000842064
0.00142902
0.00132713
0.00180298
0.00102154
0.000301745
0.000605552
0.00136169
0.00238495
0.000925396
0.00111848
0.000539058
0.00184927
0.00112839
0.000257892
0.000529653
0.000787561
0.00124114
0.00367879
0.0013026
0.00284603
0.00100893
0.00206903
0.00143762
0.000614918
0.000517483
0.0013113
0.00159243
0.000306437
0.000335345
0.000589378
0.000753819
0.00106133
0.00339037
0.0021058
0.00375394
0.000906018
0.00105307
0.00240406
0.000923025
0.000516799
0.000421539
0.00139245
0.000469059
0.000492809
0.000529151
0.00147148
0.00151834
0.000164092
0.00026356
0.000287835
0.000442341
0.0006881
0.000809806
0.00279125
0.00220606
0.00342356
0.00108779
0.00220624
0.00380476
0.000481744
0.000775398
0.00145504
0.00271121
0.000809432
0.000937543
0.0010637
0.00391833
0.0023516
0.000538704
0.000476815
0.000380531
0.000755559
0.000998858
0.00166743
0.000622207
0.000161147
0.000238246
0.000281545
0.00029419
0.000651644
0.00059297
0.00244689
0.0012809
0.00253224
0.00113915
0.00196471
0.00341281
0.00133808
0.00219283
0.00220394
0.00337703
0.000898347
0.000352628
0.000717818
0.00113969
0.00260954
0.000457507
0.000547031
0.00101635
0.000759716
0.00159569
0.00217166
0.000528004
0.000510242
0.000438009
0.000314306
0.000812359
0.000697832
0.002057
0.000234947
0.00047085
0.000188348
0.000281615
0.000389836
0.000350756
0.000652284
0.000439903
0.0025412
0.000798383
0.00240734
0.000867486
0.00108757
0.00246897
0.00119036
0.00142532
0.00153404
0.00291361
0.000399899
0.00186315
0.00120749
0.00204454
0.00296466
0.000818452
0.00041464
0.00128382
0.000883834
0.00191
0.00272389
0.000563208
0.000611531
0.000616192
0.000780019
0.000762617
0.00163369
0.0018056
0.000474865
0.000512914
0.000447128
0.000394227
0.000404854
0.000580489
0.000560512
0.00172345
0.000473435
0.000238062
0.000393202
0.000177487
0.000204088
0.000332452
0.000462329
0.000651607
0.000400072
0.00275285
0.000692841
0.00259257
0.000348936
0.00062407
0.00245233
0.00105942
0.000701329
0.0008827
0.00219769
0.000331271
0.00161967
0.0018912
0.00150313
0.00297004
0.000892417
0.000735901
0.00132845
0.00252438
0.00216009
0.00293743
0.000597327
0.0022807
0.000436095
0.000393309
0.00140742
0.00242808
0.00222254
0.000797632
0.000611348
0.000429634
0.000422252
0.000482914
0.00105164
0.000810705
0.00171202
0.00037636
0.000528059
0.000507231
0.00040641
0.000345336
0.000423891
0.000426472
0.00050453
0.00164751
0.000255138
0.000558914
0.000349149
0.000368893
0.00022442
0.000215079
0.000358937
0.000620272
0.00063645
0.000367465
0.00258107
0.000552413
0.00285174
0.000360873
0.00114365
0.00253512
0.000412456
0.000363497
0.00102981
0.0024204
0.00112187
0.00108804
0.00102298
0.000627583
0.00242333
0.000178722
0.00031906
0.000575918
0.00204106
0.00131106
0.00250654
0.000346302
0.000846691
0.000760252
0.00121409
0.00123623
0.0017817
0.00257793
0.000700443
0.00075797
0.000739268
0.000564185
0.000518223
0.000812556
0.00164069
0.00231096
0.000489487
0.000839754
0.000583377
0.000474037
0.000848797
0.000891802
0.00126811
0.00151667
0.00130082
0.000329481
0.000375313
0.000506977
0.000471655
0.000359271
0.000272276
0.00049884
0.000411842
0.000377211
0.00141829
0.000201554
0.00027128
0.000546905
0.000367266
0.000334222
0.000267884
0.000217501
0.000341054
0.00048784
0.000589076
0.00026059
0.000828353
0.00265745
0.000619806
0.000737887
0.00253524
0.000727996
0.000667694
0.000821302
0.0026198
0.000635631
0.000713929
0.000701454
0.00133799
0.00255835
0.000709338
0.00140832
0.00108914
0.000744783
0.000679786
0.00240056
0.000868879
0.000972771
0.000595703
0.00126261
0.00162538
0.00116084
0.00285889
0.000761674
0.000432469
0.000323011
0.000509583
0.00101967
0.000775811
0.00120224
0.00249431
0.000494545
0.000747611
0.00110173
0.000297322
0.000350883
0.000374473
0.00137556
0.00189819
0.00207937
0.000527347
0.000409258
0.000941064
0.000884396
0.000694459
0.000954052
0.000524568
0.000906101
0.00153304
0.00108021
0.000311903
0.000263694
0.000345974
0.000539912
0.000437367
0.000324032
0.000338217
0.000495357
0.000432747
0.00026107
0.00110238
0.000151624
0.000218916
0.000295052
0.000431662
0.00044734
0.000271324
0.000286647
0.000212396
0.000349315
0.000673243
0.000489802
0.000304905
0.0022883
0.000563382
0.000637166
0.00256839
0.000731265
0.000447862
0.000764993
0.00246138
0.000804847
0.000733604
0.000967429
0.000751221
0.00260016
0.000899979
0.000481718
0.000461709
0.00104974
0.000650707
0.00272061
0.00118125
0.000866243
0.000849418
0.000854458
0.000971686
0.000981337
0.00228597
0.00112747
0.00041662
0.000478823
0.000705288
0.00108826
0.00225081
0.00120857
0.00253087
0.00064454
0.000604659
0.0010402
0.000788218
0.000688565
0.000844695
0.00181451
0.00126559
0.0024132
0.000665694
0.000517366
0.000721889
0.00113413
0.000838484
0.000629436
0.000628331
0.00110798
0.00180098
0.00212115
0.000390081
0.000656499
0.000465745
0.00073661
0.000727102
0.000552612
0.000522293
0.000440667
0.000350099
0.000888887
0.00104554
0.000316027
0.000346939
0.000201201
0.000432034
0.000610449
0.000390594
0.000323967
0.000340877
0.000585225
0.000527383
0.000244312
0.000869865
0.000253001
0.000169888
0.000235593
0.000313872
0.000371005
0.000491354
0.000185486
0.000251928
0.000221211
0.000361759
0.000335187
0.000388416
0.000316749
0.00232336
0.000917959
0.00221076
0.000964843
0.000671865
0.000748886
0.00241885
0.000894961
0.000237923
0.000464138
0.000522015
0.00257761
0.000577541
0.000544028
0.000413364
0.000673915
0.000710262
0.00277028
0.000760406
0.000405651
0.000702815
0.000858341
0.000865473
0.00111657
0.00261456
0.000916965
0.000968668
0.00148447
0.00085387
0.000616805
0.00127543
0.000782413
0.00258824
0.000842831
0.000745132
0.000301145
0.000386833
0.000753738
0.00153378
0.00104209
0.00126717
0.00261102
0.00052899
0.000787723
0.000867004
0.000560457
0.000634013
0.000440385
0.000611063
0.000710075
0.00108089
0.00230805
0.000694056
0.000614441
0.000645648
0.000706064
0.000632992
0.000465032
0.000697367
0.000709837
0.0010145
0.00141275
0.00202542
0.000631267
0.000503303
0.000558685
0.000452179
0.000618703
0.000864282
0.000893397
0.000336451
0.000522483
0.000611173
0.00102848
0.000939624
0.000720253
0.000273601
0.000356299
0.000207129
0.000522656
0.000642937
0.000401181
0.000432978
0.000332026
0.000695191
0.000819759
0.000415974
0.000537225
0.000154097
0.000332231
0.000206632
0.000241699
0.000346807
0.000471118
0.000497429
0.000223575
0.000160918
0.000197269
0.000354899
0.000399288
0.000268602
0.000287544
0.00224797
0.000484437
0.002294
0.000603676
0.000719567
0.00224693
0.000451289
0.000534352
0.000720519
0.000819425
0.0024298
0.000588952
0.000588923
0.000650256
0.000618932
0.000479806
0.00254325
0.000507428
0.00049131
0.000829491
0.000350254
0.000633363
0.000505243
0.00266342
0.000619112
0.000535256
0.000923209
0.000739107
0.000736899
0.000941245
0.00144902
0.00283901
0.00113677
0.00143463
0.000884648
0.000768072
0.000732994
0.00100469
0.000902622
0.00102184
0.00260505
0.000661083
0.000477187
0.000404535
0.000348778
0.000475969
0.000788176
0.0012762
0.00161221
0.00140244
0.00239662
0.000909921
0.000801504
0.000738667
0.000795373
0.00120148
0.00120442
0.000775766
0.000628348
0.000293964
0.00149327
0.00261063
0.000701917
0.000678704
0.000723871
0.000537783
0.000872006
0.00125606
0.000594701
0.000449919
0.000662703
0.00110995
0.00115164
0.00203228
0.000841554
0.000429756
0.000459416
0.000262607
0.000355818
0.000762288
0.000817764
0.000788796
0.000434445
0.000490881
0.000827019
0.0010974
0.0010783
0.000538594
0.0005147
0.000245499
0.000335613
0.000183894
0.000601602
0.000634261
0.000393487
0.000487928
0.000308178
0.000745266
0.000645374
0.000701398
0.000483351
0.000151124
0.000166998
0.00022562
0.000213955
0.000242335
0.000388358
0.000571078
0.000468034
0.000344494
7.05546e-05
0.000212414
0.000335188
0.000173796
0.000204108
0.000302698
0.000386185
0.00228265
0.000441111
0.000657753
0.00227787
0.000616999
0.000571337
0.000611158
0.00218601
0.000665947
0.000842498
0.000299948
0.000643803
0.000732825
0.00244635
0.000536755
0.000581952
0.000399637
0.000562498
0.000700534
0.000405801
0.00244632
0.000585071
0.000557198
0.000638516
0.000502025
0.000720998
0.000426277
0.000682794
0.0027144
0.000691312
0.000553605
0.000705614
0.000629765
0.00083563
0.000859016
0.000770598
0.000566106
0.00295808
0.0012929
0.000938622
0.000766662
0.00107523
0.000652163
0.000647396
0.000836032
0.00081546
0.00161771
0.00236196
0.000494607
0.000809648
0.000449776
0.000542363
0.000186692
0.000473775
0.000993592
0.00117606
0.000784027
0.00238882
0.00280988
0.000292473
0.00061685
0.000627919
0.000698141
0.00119696
0.00100345
0.000741668
0.000389946
0.000675163
0.000747732
0.00140118
0.00292437
0.00100095
0.000918698
0.000442475
0.000820903
0.000588504
0.00131834
0.000791219
0.000695834
0.000731662
0.000884591
0.00104343
0.000974374
0.00213243
0.000555958
0.000563905
0.000560556
0.000442473
0.000297099
0.000524451
0.000548697
0.000798594
0.00043006
0.000551805
0.000540956
0.000705865
0.000727151
0.00101182
0.000707237
0.000675316
0.000304677
0.000231903
0.000304409
0.000246517
0.000580401
0.000585151
0.00046268
0.000445974
0.00033658
0.000800069
0.000330379
0.000948938
0.00056332
0.000195268
0.000120004
0.00016485
0.000212709
0.000207226
0.000244612
0.000445237
0.000567764
0.000377911
0.000382071
5.69384e-05
0.000219022
0.000317668
0.000186137
0.000175991
0.000312939
0.0023123
0.000514386
0.000458641
0.00227919
0.000552326
0.000530798
0.000573094
0.00231968
0.000483472
0.000396059
0.000765557
0.000480372
0.00225104
0.000572642
0.000686317
0.00060716
0.00062826
0.000476059
0.000691794
0.00245318
0.000536381
0.000496507
0.000716721
0.000832613
0.000606168
0.000590544
0.000551364
0.00253436
0.000736873
0.000560035
0.000594515
0.000501512
0.000458838
0.000580355
0.000723074
0.000762407
0.00260422
0.000715666
0.000865644
0.00073298
0.000539582
0.000515672
0.000417596
0.00106869
0.000462651
0.00124254
0.00257896
0.0011247
0.00101271
0.000747417
0.000724235
0.000691749
0.000635275
0.00121252
0.000964715
0.00124568
0.000919702
0.00260275
0.0008371
0.000812366
0.000521416
0.000342417
0.000498826
0.000767885
0.000474042
0.0013132
0.0011257
0.00112217
0.00205266
0.00287304
0.000233449
0.000635622
0.000850045
0.000497698
0.000931464
0.000843472
0.000827895
0.000912364
0.000735691
0.000738719
0.000699339
0.00105843
0.00326572
0.000570929
0.000601193
0.000303679
0.000841105
0.000799604
0.000728014
0.000685648
0.000459998
0.000592595
0.000611519
0.000994703
0.00143107
0.000761729
0.00236428
0.000603926
0.000620128
0.000692542
0.000575262
0.000473073
0.00038349
0.000665391
0.000504751
0.000602429
0.000317613
0.00056526
0.000781355
0.000894566
0.000524976
0.00101353
0.000623969
0.000780262
0.000674678
0.000293599
0.00019551
0.000289066
0.000396356
0.000520204
0.000522846
0.000596994
0.000440745
0.00039344
0.000742666
0.000278333
0.00102831
0.000694629
0.000196489
0.000141909
0.000132636
0.000177094
0.000220897
0.000210916
0.000241788
0.000469267
0.000536996
0.000222412
0.000285068
6.41741e-05
0.000233387
0.000317124
0.000420517
0.000155752
0.000274483
0.00227498
0.000245873
0.00236857
0.000669192
0.000471158
0.000440718
0.00220264
0.000634317
0.000298793
0.000530617
0.000560518
0.00237164
0.00066944
0.000607932
0.000630874
0.000407607
0.00038833
0.00230142
0.000424156
0.000704738
0.000567251
0.000442343
0.000533397
0.000725589
0.000747286
0.00244641
0.000592529
0.000531705
0.000779594
0.000842993
0.000461446
0.000629141
0.000429705
0.000574431
0.00251773
0.000452228
0.00054841
0.000663076
0.000693226
0.000437968
0.000741247
0.000786859
0.000886082
0.000824225
0.00263265
0.000867655
0.00106009
0.000625855
0.00058516
0.000603425
0.000548447
0.000734329
0.000591434
0.000639633
0.00143458
0.00284631
0.000742145
0.000959296
0.000581117
0.000682894
0.00105962
0.000651747
0.0010063
0.00126917
0.000954785
0.000951623
0.00131468
0.00246869
0.000947644
0.000460957
0.000685025
0.000379023
0.000248592
0.000504982
0.00081837
0.001117
0.00130173
0.00136187
0.00125347
0.00124493
0.00281962
0.000633477
0.000540555
0.000308173
0.000532282
0.000558996
0.000703974
0.00087906
0.000960491
0.000925368
0.000903403
0.000790721
0.000458318
0.00160241
0.00314268
0.000402954
0.000218055
0.000535811
0.00061206
0.000619603
0.000717758
0.000632982
0.000583166
0.000703568
0.000675076
0.00085444
0.00100726
0.00106144
0.000662277
0.00225368
0.000431433
0.000767951
0.000744491
0.000472083
0.00056486
0.000446275
0.000394247
0.000569986
0.000474378
0.000507716
0.000225293
0.000636426
0.000744041
0.00113615
0.000650229
0.00112525
0.000642201
0.000577639
0.000583002
0.00048885
0.000342444
0.000208092
0.000330002
0.000543031
0.000447369
0.000495299
0.000712426
0.000838575
0.000383343
0.00068427
0.000241378
0.00113543
0.000837365
0.000225165
0.000140862
0.000146659
0.000137254
0.000193494
0.000218811
0.000213583
0.000260869
0.000541053
0.000575158
0.000152028
0.000184887
7.87264e-05
0.000252378
0.000301826
0.000257885
0.000114792
0.000304676
0.00217827
0.000339185
0.00226076
0.000234995
0.000610045
0.00227764
0.000667799
0.00050548
0.000494964
0.00027422
0.00215619
0.000526584
0.000521337
0.000541921
0.000649967
0.000651273
0.00246388
0.000562704
0.000721979
0.000441538
0.000442071
0.000633948
0.000586018
0.00240852
0.000615295
0.000774996
0.000644809
0.000507178
0.00043216
0.000407092
0.000511426
0.000847094
0.00243293
0.000487728
0.000755486
0.000572924
0.000698969
0.000374587
0.000405006
0.000685422
0.000481719
0.000736579
0.00249503
0.000575033
0.000720168
0.000550699
0.000505564
0.000445233
0.000351366
0.000821253
0.000817616
0.000998283
0.000994191
0.00242821
0.000847673
0.000923904
0.000881178
0.000550451
0.000649562
0.00070428
0.000682648
0.000943917
0.00059789
0.000747245
0.00104242
0.00292632
0.000813257
0.0010236
0.000529733
0.00075095
0.000769884
0.000751989
0.00100734
0.00106223
0.0011664
0.000892508
0.000858837
0.0013898
0.00253058
0.000892323
0.000517714
0.000692002
0.000636351
0.000344461
0.000473162
0.000504385
0.000832776
0.00122812
0.00209017
0.00130819
0.000439881
0.00137938
0.00334558
0.000379045
0.000600843
0.000535086
0.00040448
0.00051564
0.00032561
0.000760218
0.00088207
0.000950323
0.00106442
0.000664526
0.00103236
0.000539311
0.000929577
0.00253841
0.000441304
0.00036656
0.00053096
0.000838523
0.000576447
0.000713486
0.000686846
0.000563577
0.000522078
0.000604442
0.000837206
0.000719739
0.000974482
0.0010624
0.000660433
0.00234404
0.000533907
0.000435406
0.000715824
0.000787205
0.000470094
0.000364139
0.000379764
0.000429095
0.000550645
0.000658372
0.000444915
0.000403168
0.000687146
0.000828671
0.00115821
0.000869242
0.00125736
0.000622536
0.000621069
0.000589222
0.00069809
0.000382536
0.000367859
0.000252222
0.000252358
0.000453413
0.000471057
0.000500113
0.000716944
0.00114591
0.000423421
0.000613745
0.000246711
0.00103304
0.00117039
0.000168562
0.000222058
0.000111895
0.000207986
0.000135413
0.000179968
0.000206311
0.000220441
0.000295449
0.00059171
0.000635324
0.000236762
0.000121106
0.000104473
0.000295945
0.000302821
0.000251191
7.40155e-05
0.000304459
0.002129
0.000471688
0.00225191
0.000369803
0.000325189
0.00218715
0.000469226
0.00053723
0.000450431
0.00224053
0.000516355
0.000505568
0.000484679
0.000471422
0.000336449
0.00214413
0.000477328
0.000538125
0.00065289
0.00055169
0.000417549
0.000611644
0.00234589
0.000665761
0.000863321
0.000489973
0.000289856
0.000321367
0.000551095
0.000744437
0.00239469
0.000700919
0.000810869
0.000585144
0.00074073
0.000425017
0.000485856
0.000643533
0.000795423
0.000850401
0.00242845
0.000546285
0.000580151
0.000490473
0.000891267
0.000243417
0.000630913
0.000781748
0.000853868
0.000890011
0.000983883
0.00259134
0.000615323
0.000596075
0.000712119
0.000533179
0.000450086
0.000382317
0.000664605
0.000554759
0.00081684
0.000937502
0.000729031
0.00241048
0.000717133
0.000764577
0.00096723
0.000707415
0.000727212
0.000803957
0.000819833
0.000573821
0.000621744
0.000892746
0.000961513
0.000960782
0.00249574
0.000569762
0.000923821
0.000781667
0.000704807
0.000799521
0.0011699
0.00111082
0.00139551
0.000917384
0.00138673
0.00083537
0.0006374
0.00117583
0.00256764
0.000629255
0.000589727
0.000545223
0.000906451
0.000346027
0.000294883
0.000217735
0.000636616
0.000594434
0.00182332
0.000701266
0.000510334
0.00113018
0.0013834
0.00306216
0.000550759
0.000488123
0.000386602
0.000501898
0.000465349
0.000497318
0.000471695
0.0008204
0.00105628
0.00109831
0.00085839
0.00113443
0.000515149
0.000798595
0.00119539
0.00279107
0.000533336
0.000265302
0.000465777
0.000711053
0.000398546
0.000712523
0.000562412
0.00073408
0.000610434
0.000558519
0.00065703
0.000722196
0.000499303
0.00122887
0.000901253
0.00150915
0.00244137
0.000747615
0.000476464
0.00052216
0.000814996
0.000829397
0.000423998
0.0003883
0.000480864
0.000583393
0.000484245
0.000866523
0.000540664
0.000385499
0.000681406
0.000738203
0.00127618
0.00187238
0.00140867
0.000673813
0.000731612
0.000639541
0.000821636
0.000684591
0.000360001
0.000412601
0.000348888
0.000167255
0.000307008
0.000484681
0.000426524
0.000614865
0.0010973
0.000532754
0.000541795
0.000251836
0.000601923
0.00157392
0.00021464
0.000190127
0.00015396
0.00014853
0.000212042
0.000182627
0.000149758
0.000210335
0.000231096
0.000359918
0.000521229
0.000578146
0.000261867
6.56451e-05
0.000222272
0.000342372
0.000282102
9.76803e-05
0.000120903
0.000338978
0.00221628
0.000627366
0.00226548
0.000499739
0.000353975
0.00222636
0.000374513
0.000386008
0.000377331
0.00219102
0.000401474
0.00031143
0.000569861
0.000523621
0.00217432
0.000515705
0.0004533
0.000518478
0.00056571
0.000378902
0.000362992
0.00208391
0.000564571
0.000599531
0.000433947
0.000433678
0.00042274
0.000585265
0.00051579
0.00224261
0.000497208
0.000725346
0.000741794
0.000560621
0.000340249
0.000567449
0.000302795
0.000591133
0.0022852
0.000571574
0.000388148
0.00047401
0.000616703
0.000401642
0.000531344
0.00073626
0.000561627
0.000569689
0.000776112
0.00242857
0.000466657
0.0005557
0.000871889
0.000445965
0.000415344
0.000590527
0.000707534
0.000606035
0.000936909
0.00103236
0.000850359
0.0024332
0.000422177
0.000479031
0.000653698
0.000544233
0.000651996
0.000634338
0.000427305
0.000531269
0.000830965
0.000726598
0.00053578
0.000746314
0.00254816
0.00066159
0.000741874
0.00118287
0.0009546
0.000878888
0.000514812
0.000851587
0.000749851
0.000969626
0.00079594
0.000931591
0.000820262
0.00102094
0.00280422
0.000314771
0.000982754
0.00101681
0.000806031
0.000890517
0.000645168
0.00142227
0.00153262
0.00157762
0.00169053
0.00155062
0.000694962
0.000997691
0.00118205
0.0022922
0.000401203
0.00042204
0.000418766
0.000722614
0.000970652
0.000406098
0.000326975
0.000370922
0.00105585
0.000985576
0.000476539
0.00155707
0.000416873
0.000509527
0.00118828
0.00291473
0.00048377
0.000392136
0.000364104
0.000434828
0.000413109
0.000494176
0.000576437
0.000393637
0.000790262
0.00084747
0.000664261
0.000837935
0.00112779
0.000476933
0.000707181
0.00103312
0.00289068
0.000333367
0.000524106
0.00061583
0.000454672
0.000645754
0.000553542
0.000517965
0.000720522
0.000671159
0.000601882
0.000514739
0.000789553
0.000640982
0.00073918
0.00099043
0.000961359
0.002931
0.00250514
0.00108943
0.000826527
0.00046553
0.000575266
0.000893294
0.000752566
0.000539407
0.000377136
0.000702157
0.00065726
0.00047101
0.000817147
0.000574945
0.000377441
0.000646148
0.000621647
0.00197399
0.00269253
0.00149853
0.000395221
0.000624447
0.000766561
0.000614549
0.000959416
0.000474489
0.000330075
0.000274876
0.000213366
0.00023704
0.000331565
0.000400464
0.000245966
0.000434553
0.00120931
0.000474834
0.00049777
0.000355509
0.00101018
0.00171396
0.000183918
0.000184655
0.000136177
0.000138212
0.00021358
0.000202199
0.000197143
0.000160452
0.000207963
0.000258833
0.000434892
0.000501254
0.000505974
0.000270197
0.000160613
0.000237554
0.000323722
0.000255018
9.44457e-05
0.000173954
0.000425571
0.00217016
0.000651053
0.00226084
0.000458259
0.000762396
0.002284
0.000373106
0.00071193
0.000520316
0.00221731
0.000669621
0.000289206
0.000416103
0.000333151
0.00216325
0.000424176
0.000315134
0.000466178
0.000417921
0.000459412
0.00218253
0.000539633
0.000378634
0.000417793
0.000459134
0.000293156
0.000339242
0.000516808
0.00204528
0.000613119
0.000683513
0.000816721
0.000511033
0.000475058
0.000356523
0.000500061
0.00073352
0.00221275
0.000376243
0.000820774
0.000473717
0.00048018
0.000428846
0.000526952
0.000585972
0.000537892
0.000510641
0.00227003
0.00060951
0.000670181
0.00058389
0.000181228
0.000624442
0.000525296
0.000893857
0.000703016
0.000617659
0.000689687
0.000693914
0.00239575
0.000531152
0.00050271
0.000554826
0.000433644
0.000493079
0.00044149
0.000681574
0.000496912
0.000585068
0.000735339
0.000477253
0.000452765
0.00243678
0.000368432
0.000419476
0.000665662
0.000646408
0.000868082
0.000556681
0.000582095
0.000618526
0.000673823
0.000990329
0.000905907
0.000909019
0.000487321
0.00251545
0.000691234
0.000694862
0.000881667
0.00133269
0.000845907
0.00067365
0.000971286
0.00096334
0.000460225
0.000900567
0.000838112
0.000606367
0.000865608
0.00102558
0.00262295
0.000478754
0.0005808
0.000807125
0.000933594
0.000756878
0.000839407
0.00105207
0.000816093
0.00118571
0.000651573
0.00175519
0.000579744
0.00069061
0.000986572
0.00133536
0.00230898
0.000439989
0.000644215
0.000670782
0.000621982
0.000756267
0.000661632
0.00100763
0.00063601
0.000372639
0.000751954
0.00109963
0.000918592
0.000699851
0.000675691
0.000690562
0.00154363
0.00304357
0.000551654
0.000279433
0.000518378
0.000416357
0.0004479
0.000404841
0.000324505
0.000680269
0.000703812
0.00111433
0.000796551
0.00130161
0.0010499
0.00114047
0.000393618
0.000769256
0.00164076
0.00267974
0.000601616
0.000404107
0.000416726
0.000287
0.000531809
0.000537564
0.000459246
0.00081117
0.000523633
0.000601647
0.000548857
0.000397794
0.000287335
0.000750539
0.000776212
0.00101587
0.000856279
0.00139223
0.00247137
0.00122061
0.00120372
0.000742436
0.00034131
0.000672824
0.000860302
0.000669902
0.00073963
0.000569064
0.000490199
0.000648577
0.000485658
0.000540266
0.000653988
0.000434776
0.000644619
0.000808479
0.00175105
0.00184555
0.00148703
0.000528806
0.000369069
0.000492723
0.000779748
0.00054958
0.000756454
0.000320526
0.000416157
0.000299159
0.000183193
0.000199478
0.00050825
0.000343619
0.000160914
0.000612935
0.00109713
0.000492766
0.000483
0.000433501
0.00136918
0.00175328
0.000202481
0.000181198
0.000165035
0.000139915
0.000143714
0.000273186
0.000214689
0.000183555
0.000169577
0.000213697
0.000285677
0.000489485
0.000612054
0.000364712
0.000200961
0.000277272
0.000162669
0.000272743
0.000200154
0.000200343
0.000216134
0.000376938
0.002103
0.000286765
0.0021733
0.00047747
0.00048366
0.00225033
0.000149222
0.00036912
0.000668638
0.00225737
0.000590138
0.000276272
0.000563065
0.000419991
0.00225076
0.00037626
0.000301082
0.000303397
0.000515333
0.000426007
0.00210435
0.00032202
0.000463372
0.000217499
0.000323324
0.000292857
0.000487631
0.00224558
0.000787856
0.000375819
0.000543719
0.000391173
0.000458668
0.000344158
0.000327512
0.000569578
0.00207937
0.000485796
0.000401334
0.000450898
0.000358061
0.000558009
0.000374127
0.000413906
0.000510569
0.000525796
0.00227594
0.000566223
0.000593166
0.000221631
0.000572161
0.000538737
0.000604309
0.000696497
0.000524091
0.000682111
0.000593452
0.00225897
0.000576269
0.000629835
0.000574396
0.000573254
0.000638135
0.000466701
0.000642756
0.000674414
0.000633819
0.000850957
0.000685229
0.000755395
0.00230655
0.00055939
0.000308434
0.000793402
0.00057408
0.000331445
0.000431648
0.000596018
0.0004978
0.000631125
0.000798164
0.000615658
0.000519471
0.000570836
0.00242361
0.000137974
0.000419422
0.000599712
0.000727445
0.000550452
0.000958809
0.000548624
0.000682974
0.00061042
0.000729806
0.000709507
0.000943632
0.000957272
0.000641141
0.00256699
0.00065517
0.000649175
0.00110951
0.0013692
0.000861771
0.000744398
0.000753822
0.00117852
0.000981574
0.000777796
0.00100623
0.00065061
0.000474658
0.00100431
0.00135193
0.00268905
0.000788783
0.000211525
0.00130598
0.000659791
0.000762343
0.000806505
0.000723865
0.00106383
0.00066636
0.000910098
0.00103737
0.000418288
0.000766476
0.000786146
0.0009202
0.00102857
0.00246997
0.00104548
0.000546054
0.000551731
0.000803568
0.000978469
0.00121932
0.000440783
0.00055345
0.000295286
0.000294419
0.000393029
0.00150491
0.00139612
0.000797942
0.000893947
0.000888692
0.00157185
0.00296352
0.000219397
0.000624666
0.00048063
0.000603739
0.000538484
0.000432927
0.000572516
0.000548064
0.00105638
0.000876024
0.000970391
0.00137909
0.00101158
0.0011429
0.00109383
0.000593662
0.000669109
0.00178259
0.00238114
0.000528984
0.000575546
0.000393798
0.000432
0.000311045
0.000737718
0.000565269
0.000537512
0.000808229
0.000623887
0.000659059
0.000675439
0.000532608
0.000507382
0.000578381
0.000884342
0.000994058
0.00129993
0.00108118
0.00289356
0.000804363
0.00101453
0.00115642
0.000801927
0.000326381
0.00078103
0.000830441
0.00062088
0.000680057
0.000717505
0.0005575
0.000733016
0.00048793
0.000394492
0.000556554
0.000625444
0.000786543
0.000949643
0.00113812
0.00170349
0.00115519
0.000517702
0.00055233
0.000481996
0.000414291
0.000732039
0.00051015
0.000600806
0.000290925
0.000374722
0.000277402
0.000149072
0.000342547
0.000469109
0.000333153
0.000125757
0.00068277
0.0013353
0.000664117
0.000462822
0.000409659
0.00116627
0.00148207
0.000253844
0.00021933
0.000174524
0.000153106
0.000123649
0.000183097
0.000271122
0.000228267
0.00018285
0.000168548
0.000233988
0.000300036
0.000512134
0.0005579
0.000201374
0.000197545
0.000253089
0.000229807
0.000238941
0.000138702
8.2434e-05
0.000199908
0.000360803
0.00218924
0.000445858
0.00209238
0.000387601
0.000328079
0.00216447
0.000845628
0.000382817
0.000385635
0.0022316
0.000265076
0.000241578
0.000519936
0.000702656
0.00229275
0.00059301
0.000724555
0.000260886
0.000352916
0.000498738
0.00219972
0.000505083
0.000428798
0.00022375
0.000353949
0.000228166
0.000398263
0.00214593
0.000503082
0.000278488
0.000331777
0.00037322
0.000314811
0.000338393
0.000382504
0.00218458
0.000328873
0.000771219
0.000344393
0.000528344
0.000499011
0.000428671
0.000318924
0.000327905
0.00049405
0.00206512
0.000632671
0.000361958
0.000518286
0.000515644
0.000434779
0.000391845
0.000481175
0.000526292
0.00027093
0.000555916
0.00224324
0.000735292
0.000680974
0.000741804
0.000337653
0.000458673
0.000680265
0.000708139
0.00056024
0.000446379
0.000451798
0.000323671
0.00226589
0.000535585
0.000799082
0.000729062
0.000473409
0.000703331
0.000403999
0.000714778
0.000476658
0.000545459
0.000541885
0.000836973
0.0010635
0.000738049
0.00234448
0.000632052
0.000683979
0.000757478
0.000857746
0.000661516
0.000754566
0.000640552
0.000713234
0.00056481
0.000887177
0.00108848
0.000828735
0.000729665
0.000518652
0.00236483
0.000495536
0.000434462
0.000860607
0.000637458
0.000631683
0.000663539
0.000683949
0.000710007
0.000645294
0.000667039
0.000446664
0.00056607
0.000995504
0.00143257
0.000927495
0.00241304
0.00057302
0.000722457
0.000644201
0.000949949
0.00133974
0.000759088
0.000871653
0.00109857
0.000846259
0.000899528
0.00102232
0.000742218
0.000535526
0.000444252
0.000851739
0.00123231
0.00271171
0.000342686
0.000690214
0.000731066
0.000677062
0.00082707
0.000869933
0.000647772
0.000773813
0.000945974
0.00101784
0.000837032
0.00132228
0.0010131
0.000856996
0.000667548
0.0008473
0.000978658
0.00277588
0.000381952
0.000548648
0.000557852
0.00085169
0.000854695
0.00125974
0.000900445
0.00038298
0.000396934
0.000348921
0.000397323
0.000819175
0.000743502
0.000794365
0.000731394
0.000509134
0.00110456
0.00206821
0.00321992
0.000645364
0.000670889
0.000375694
0.000915672
0.000361644
0.000587898
0.00114511
0.000849097
0.000678838
0.000292758
0.000975058
0.00110282
0.000932572
0.000948235
0.000898661
0.000871185
0.000782876
0.00100416
0.00205306
0.0029235
0.00104208
0.000868007
0.000437796
0.000270094
0.000401356
0.000668865
0.000632275
0.000550962
0.000769118
0.000593377
0.000626386
0.00107482
0.00078913
0.000566414
0.000679922
0.000584212
0.000734815
0.000858452
0.000615088
0.00125389
0.00288275
0.000488962
0.0010226
0.00130781
0.00112115
0.000795776
0.000347162
0.000629146
0.000786306
0.000692589
0.000714655
0.000699538
0.000505896
0.000489738
0.000423802
0.000426531
0.000552175
0.000648529
0.000619196
0.00054947
0.00128869
0.00277413
0.00127043
0.000338097
0.00041109
0.000286894
0.000450947
0.000403016
0.000847111
0.00058759
0.000488042
0.000278967
0.000300263
0.000131666
0.000150968
0.000480497
0.000475805
0.00035611
0.000303265
0.00048488
0.00103354
0.000699679
0.000447326
0.000414523
0.00167777
0.00100345
0.00019336
0.000228846
0.000188044
0.000189605
0.000159657
0.000115399
0.00021378
0.000233151
0.000217293
0.000193887
0.00018177
0.000233861
0.000303059
0.00056463
0.000506307
0.00039982
0.000272123
0.000123599
0.000246751
0.000219148
9.89476e-05
6.72857e-05
0.000129916
0.00038112
0.00213951
0.000220859
0.0021877
0.000330952
0.000362234
0.00216051
0.000461237
0.000505956
0.000474629
0.00213203
0.000304821
0.000732551
0.000505182
0.000381901
0.00222523
0.000384598
0.000557719
0.000613427
0.000509298
0.000474466
0.0022753
0.000613439
0.000408269
0.000426432
0.000471265
0.000477812
0.000517813
0.00226823
0.000387583
0.000429334
0.000550509
0.000262823
0.000320088
0.000209884
0.000376881
0.00216169
0.000455821
0.000520783
0.000295021
0.000356489
0.00042365
0.000242891
0.000309092
0.000480956
0.00214878
0.000675867