/*--------------------------------*- C++ -*----------------------------------*\
  =========                 |
  \\      /  F ield         | OpenFOAM: The Open Source CFD Toolbox
   \\    /   O peration     | Website:  https://openfoam.org
    \\  /    A nd           | Version:  7
     \\/     M anipulation  |
\*---------------------------------------------------------------------------*/
FoamFile
{
    version     2.0;
    format      ascii;
    class       surfaceScalarField;
    location    "7";
    object      phi_0;
}
// * * * * * * * * * * * * * * * * * * * * * * * * * * * * * * * * * * * * * //

dimensions      [0 3 -1 0 0 0 0];

internalField   nonuniform List<scalar> 
54095
(
0.000323507
-7.61953e-06
-0.000330248
0.000478993
-7.72294e-05
0.00189954
0.000331534
-4.51538e-05
-0.000864296
0.000302623
3.25113e-06
-0.000636122
0.000791921
-0.000109674
-0.0020533
0.000457623
-0.000103523
-0.000461367
0.000530137
-5.06236e-05
0.00172265
0.000118437
-6.76576e-05
-0.00185984
0.000293668
-4.06048e-05
-0.00111411
0.000267803
2.34782e-06
-0.000906273
0.00109305
0.000154005
-0.006799
0.000682238
0.000199306
-0.00305182
0.000784174
-0.000187365
-0.00211997
0.000359518
-0.000172617
-0.00162847
0.000282314
-7.35713e-05
-0.000427065
0.000580509
-3.15019e-05
0.00144145
5.59867e-05
-9.1623e-05
-0.00185298
0.000105616
-6.43937e-05
-0.00194166
0.000252618
-4.04348e-05
-0.00132394
0.000228504
-3.21038e-06
-0.00113157
0.000162903
0.000403235
-0.00865468
0.000811481
1.35326e-05
-0.0052035
0.00110342
0.000216551
-0.0073348
0.000389359
0.00031655
-0.00116542
0.00061186
0.000262608
0.001974
0.000824479
6.28531e-07
-0.00236457
0.000207533
-0.000168775
-0.00186969
0.000315964
-0.000169593
-0.00174279
0.000255217
-6.20548e-05
-0.000399111
0.000559974
-1.16566e-05
0.00112163
5.58383e-05
-8.55686e-05
-0.00100222
5.48645e-05
-8.80957e-05
-0.00188414
9.74783e-05
-5.97125e-05
-0.00201986
0.000210726
-4.32457e-05
-0.00149463
0.00018978
-8.83207e-06
-0.00131252
-0.000625049
0.000439002
-0.0070834
-3.36811e-05
0.000646215
-0.00881064
0.000274162
0.000504541
-0.00832995
0.000129518
2.64373e-05
-0.00433918
0.000856631
6.67581e-05
-0.00529848
0.0010124
0.000305511
-0.00782823
0.000277084
0.000345777
-0.0020176
0.000368991
0.000311197
-0.00126704
0.000613377
0.000224041
0.00139243
0.000775927
6.5463e-05
-0.00264598
0.000118838
-0.000211489
-0.00135813
0.000211269
-0.000191067
-0.00200462
0.000283274
-0.000172066
-0.00181858
0.000159458
-4.47196e-05
-0.00031478
0.000474716
1.18345e-05
0.000824864
3.79937e-05
-7.34294e-05
-0.000800661
5.66614e-05
-8.34585e-05
-0.00106352
4.82075e-05
-8.46232e-05
-0.00190744
9.31088e-05
-5.82888e-05
-0.00209793
0.000174167
-4.41518e-05
-0.00163348
0.000154838
-1.26637e-05
-0.00145469
-0.00127592
0.000293007
-0.00469979
-0.000714017
0.000842193
-0.0078361
-0.000730191
0.000417448
-0.0064965
-0.000265666
0.000945543
-0.00764699
8.52665e-05
0.000730467
-0.0082652
0.000232744
0.000514158
-0.00806446
0.000194307
0.000220929
-0.00360028
0.000227407
-1.816e-05
-0.00411268
0.000849754
6.20923e-05
-0.00529144
0.000690694
0.000314712
-0.00805771
7.41247e-05
0.000387396
-0.00240625
0.000322663
0.000256601
-0.0020744
0.000418279
0.00023394
-0.00141194
0.000578982
0.000278392
0.000759977
0.000570224
0.000203816
-0.00294531
2.55387e-05
-0.000198015
-0.00134202
0.000104546
-0.000228297
-0.00136878
0.000178451
-0.000211923
-0.00209501
0.000259627
-0.000159251
-0.00187057
0.000107815
-4.53756e-06
-0.000232056
0.000365366
2.05976e-05
0.000593739
9.10538e-05
-8.73394e-05
-0.000727619
3.67365e-05
-7.07429e-05
-0.000850113
5.45693e-05
-8.0803e-05
-0.00112191
3.82804e-05
-8.17898e-05
-0.00192222
9.08927e-05
-5.53987e-05
-0.00217758
0.000145831
-4.3154e-05
-0.00174882
0.000120548
-1.39736e-05
-0.00156126
-0.00162617
0.000307048
-0.00370809
-0.00104182
0.000508259
-0.00525666
-0.00124501
0.000350792
-0.00453577
-0.000581551
0.00106022
-0.00813661
-0.000562496
0.00076435
-0.00753524
-0.000859776
0.000320373
-0.00572435
3.88569e-05
0.0009576
-0.00644911
-0.000214447
0.000838572
-0.00731324
6.36622e-05
0.000711964
-0.00767692
-7.91985e-05
0.000498714
-0.00779328
-0.000126203
0.000358693
-0.00358291
0.000539667
0.00018657
-0.00402202
0.000622115
-1.46219e-05
-0.0042398
0.000814731
7.62544e-05
-0.00528873
0.000407556
0.00040567
-0.00830071
0.000137146
0.000404724
-0.0013481
5.96912e-05
0.00030923
-0.00241403
0.000262262
0.000188401
-0.00211267
0.000356033
0.000158046
-0.001388
0.000549334
0.00028879
0.000233484
0.000351097
0.000342619
-0.00327366
2.24496e-05
-0.000167916
-0.00166699
3.56196e-06
-0.000206671
-0.00133047
0.000105361
-0.000245339
-0.00138616
0.000180083
-0.000224852
-0.00217121
0.000243619
-0.000123505
-0.00190432
6.008e-05
1.86178e-05
-0.000144324
0.000266452
3.77316e-05
0.000410103
7.03643e-05
-0.00010486
-0.000714047
9.29374e-05
-8.44165e-05
-0.000806883
3.54971e-05
-6.68535e-05
-0.00089956
5.22662e-05
-7.80197e-05
-0.00117795
3.26981e-05
-7.79756e-05
-0.00193234
7.91101e-05
-5.27162e-05
-0.00224712
0.000122564
-3.84499e-05
-0.00184691
8.99927e-05
-1.37058e-05
-0.00163755
-0.00170678
0.00016214
-0.00337373
-0.00124631
0.000533046
-0.00472201
-0.00150188
0.000266515
-0.00371774
-0.000680562
0.000597972
-0.00604846
-0.000931442
0.000622784
-0.00515971
-0.0012372
0.000270802
-0.00442914
-0.000245096
0.00114511
-0.00812682
-0.00070492
0.00106549
-0.00794727
-0.000668888
0.000705251
-0.00718757
-0.000956159
0.000352847
-0.00520024
-0.000193761
0.00104034
-0.00599524
0.000434271
0.000904032
-0.00640918
0.000385817
0.000739152
-0.00710413
2.14289e-05
0.000743477
-0.00712838
-0.000208432
0.000439206
-0.0076165
0.000271852
0.000165024
-0.00403952
2.00314e-05
0.000341632
-0.00369831
-0.000114
0.000248833
-0.00390921
0.0005127
6.84865e-05
-0.0043887
0.000700067
0.000236125
-0.00526991
-0.000173251
0.00041815
-0.00819452
5.70456e-05
0.000306067
-0.000642918
6.78538e-05
0.000345272
-0.00144843
5.9017e-05
0.000241993
-0.00242128
0.000268812
8.86894e-05
-0.00213204
0.000412818
0.000132691
-0.0014011
0.000362993
0.000370725
-9.75351e-05
0.000184305
0.000335484
-0.003527
5.09144e-05
-0.000169623
-0.00163511
1.67275e-05
-0.000172631
-0.00162482
1.66269e-05
-0.000213639
-0.0013433
0.000114307
-0.000260417
-0.00141263
0.000143813
-0.00022999
-0.00217584
0.000225088
-0.000104512
-0.00192717
6.48851e-05
3.53225e-05
-8.42365e-05
0.000166708
5.43981e-05
0.000278989
2.14801e-05
-9.21011e-05
-0.000302733
7.30091e-05
-0.000106798
-0.000764675
9.26903e-05
-8.0334e-05
-0.000886093
3.26442e-05
-6.42885e-05
-0.000945936
4.89898e-05
-7.56881e-05
-0.00122922
2.45204e-05
-7.4628e-05
-0.00193495
7.1053e-05
-4.81853e-05
-0.00230844
9.94908e-05
-3.3597e-05
-0.00192651
6.14329e-05
-1.29432e-05
-0.00168604
-0.00156468
8.21087e-05
-0.00406992
-0.0011935
0.000196146
-0.00441801
-0.00143224
0.000167181
-0.00361055
-0.000774266
0.000568142
-0.00529099
-0.00111246
0.000460904
-0.00473538
-0.00145931
0.000275705
-0.00377133
-0.000462842
0.000798252
-0.00605695
-0.000759837
0.000635463
-0.00600622
-0.00102185
0.000469623
-0.00500557
-0.00121203
0.000280176
-0.00445345
-1.9467e-05
0.00121619
-0.00805775
-0.000256989
0.0012289
-0.00759896
-0.000508824
0.00122817
-0.00757555
-0.000768653
0.000602241
-0.00664688
-0.00107717
0.000341107
-0.00467261
-3.20814e-05
0.0010607
-0.00563272
-6.58784e-05
0.000985905
-0.0059912
-0.00044958
0.000917563
-0.00625201
0.00023277
0.000702539
-0.00678326
-0.000154012
0.000868948
-0.00670404
-0.00090813
0.000370895
-0.00725251
1.08032e-05
2.81102e-05
-0.00367511
0.000133527
0.000159151
-0.00392272
0.000111283
0.000257734
-0.00375948
0.000276186
0.000242966
-0.00409106
0.000185961
3.90599e-05
-0.00396478
0.000371494
0.000297412
-0.00515768
-0.000198653
0.000399984
-0.00821154
0.000189532
0.000162657
-0.00119106
8.23822e-05
0.000253479
-0.00061678
-0.000140452
0.000305096
-0.00135446
8.95528e-05
0.000186302
-0.00249413
0.00025564
7.61182e-05
-0.0021873
0.000394507
7.2781e-05
-0.00127258
0.000304494
0.000325342
-0.000327002
2.31874e-05
0.000219239
-0.00360271
4.47786e-05
-0.00018263
-0.00102243
6.76186e-05
-0.000180065
-0.00162228
1.67362e-05
-0.000178895
-0.00158361
1.98468e-05
-0.000219333
-0.00137159
0.000120014
-0.000274114
-0.00143953
0.000148157
-0.000235609
-0.00216838
0.000186995
-8.80284e-05
-0.00191976
7.18565e-05
4.54815e-05
-4.76856e-05
8.10323e-05
6.61435e-05
0.000193246
1.96908e-05
-7.47091e-05
0.000248784
3.16206e-05
-9.59108e-05
-0.00034524
7.42453e-05
-0.000107586
-0.000811669
8.64767e-05
-7.62282e-05
-0.00096063
2.94235e-05
-6.23642e-05
-0.000988683
4.38152e-05
-7.35913e-05
-0.00127408
1.69992e-05
-7.12376e-05
-0.00192889
6.31348e-05
-4.3698e-05
-0.00236147
7.48697e-05
-2.80695e-05
-0.00198625
3.31915e-05
-1.22558e-05
-0.00170698
1.04718e-05
-0.00351526
-0.00101669
8.12269e-05
-0.00485531
-0.00130907
4.85214e-05
-0.00424161
-0.000760254
0.000284491
-0.00499508
-0.000939554
0.000210497
-0.00463423
-0.0014565
0.000227916
-0.00384127
-0.00056119
0.000563574
-0.00532215
-0.00090257
0.000560506
-0.00524786
-0.000942556
0.000492892
-0.00503187
-0.00139653
0.000244321
-0.00383116
-0.000178635
0.00104802
-0.00613249
-0.00044621
0.000867812
-0.00610008
-0.000889824
0.000638906
-0.00579451
-0.000906346
0.00047023
-0.00505793
-0.00136726
0.00025288
-0.00441624
-2.04829e-05
0.00129137
-0.00756849
-6.59316e-05
0.00117699
-0.00800579
-0.000231211
0.00131889
-0.00790806
-0.000738137
0.00104524
-0.00704764
-0.000816814
0.000643551
-0.00628652
-0.00122316
0.00028768
-0.00464525
-3.13846e-05
0.00104752
-0.00577608
-0.000165601
0.000993301
-0.00534099
-6.07558e-05
0.000899037
-0.00580064
0.000122674
0.000822714
-0.00621867
-0.000198363
0.00088541
-0.0064154
-0.000380487
0.000689879
-0.00627104
-0.000742048
0.000362
-0.00707112
-3.76252e-05
3.70289e-05
-0.00362975
3.31573e-05
1.67938e-05
-0.00348353
-0.000127965
6.79572e-05
-0.00374543
0.000154207
0.000254169
-0.00383533
0.00025339
0.000117424
-0.00416718
0.000687074
7.97574e-05
-0.00403969
0.000324384
0.000382276
-0.00515986
-0.000598592
0.000428728
-0.00801849
0.000126106
7.47376e-05
-0.0015768
0.000209069
0.000126724
-0.00120576
0.000224805
0.000191656
-0.00071141
7.8641e-05
0.000245066
-0.00147201
0.000100955
0.000114995
-0.00251395
0.000258475
-3.33962e-05
-0.00219144
0.00036271
1.38176e-05
-0.00113677
0.000263004
0.000171899
-0.00047081
-9.0445e-05
0.000100973
-0.00353221
2.31476e-05
-0.000209208
-0.000536085
5.30896e-05
-0.000184037
-0.00103993
7.88821e-05
-0.000192365
-0.00161345
2.65788e-05
-0.000186254
-0.00155679
3.24322e-05
-0.000225727
-0.00142298
0.000144607
-0.000282553
-0.00149338
0.00014938
-0.000230396
-0.0021584
0.000155002
-8.02743e-05
-0.00188587
5.75138e-05
5.88755e-05
-2.30617e-05
1.58347e-05
6.57087e-05
0.000144894
1.38691e-05
-6.57186e-05
0.000418323
2.08268e-05
-7.76498e-05
0.000209697
4.32082e-05
-9.91551e-05
-0.000396879
8.19372e-05
-0.000106657
-0.000863177
8.0022e-05
-7.37959e-05
-0.00102922
2.75271e-05
-6.09783e-05
-0.00102882
3.87806e-05
-7.13253e-05
-0.00131277
1.12271e-05
-6.78342e-05
-0.00191598
5.96485e-05
-3.80196e-05
-0.00241117
5.28735e-05
-2.57953e-05
-0.00202559
1.21936e-05
-1.16153e-05
-0.00170756
5.6701e-05
-0.0044455
-0.00147723
0.000102118
-0.00344923
-0.000715318
1.45882e-05
-0.00479792
-0.000917598
9.86428e-05
-0.00492739
-0.00141457
-3.15918e-05
-0.00425195
-0.00037084
0.00041653
-0.00524923
-0.000837521
0.000296193
-0.00514582
-0.000627651
0.000255766
-0.00497699
-0.00146815
0.000112333
-0.00388199
-0.000360618
0.000593758
-0.00535938
-0.000424266
0.000622002
-0.00540559
-0.000872363
0.000595006
-0.00536744
-0.000767621
0.00041165
-0.00533792
-0.00143317
0.000218066
-0.00398331
-0.000167276
0.0011829
-0.00601434
-0.00027021
0.000937098
-0.0059975
-0.000331565
0.000928218
-0.00628904
-0.000798425
0.000655829
-0.00591982
-0.000947819
0.000426923
-0.00510097
-0.00140267
0.000186689
-0.00442342
5.12254e-05
0.00138199
-0.00725721
-0.000258923
0.00129758
-0.00759576
-0.000171499
0.00123029
-0.00780644
-0.000251876
0.00127721
-0.00776548
-0.000535616
0.00104317
-0.00711001
-0.000862599
0.000707049
-0.00622378
-0.00130381
0.00028239
-0.00436588
-0.000219218
0.00105408
-0.00571867
-5.6965e-05
0.000999994
-0.00569265
8.06297e-05
0.000943618
-0.00559416
3.42153e-05
0.000787877
-0.00564581
8.84233e-05
0.000793079
-0.00596137
0.000731397
0.000694552
-0.00646439
-0.00022917
0.000762484
-0.00611797
-0.00109435
0.000303171
-0.00687854
-3.26045e-06
7.30684e-05
-0.00334867
-8.03459e-06
2.13939e-05
-0.00341725
0.000245656
5.85412e-06
-0.00344227
0.000157725
0.000133927
-0.00370427
7.89131e-05
0.000173211
-0.00386908
0.00041577
0.000101955
-0.00434667
0.000252441
0.000201943
-0.00374909
0.000119728
0.000451822
-0.00503968
-0.000732144
0.000442086
-0.00781888
4.2664e-05
6.36148e-05
-0.0020985
0.000137172
4.78071e-05
-0.00158197
0.000213882
5.85787e-05
-0.00120768
1.40896e-05
0.000128028
-0.000581882
-6.35909e-07
0.000165561
-0.00148951
0.000166751
1.80438e-05
-0.00258754
0.000292997
-0.000111177
-0.00221006
0.000315545
-3.23176e-05
-0.00109309
0.000173372
5.04494e-05
-0.000536145
-0.00016215
2.18902e-05
-0.00337611
-1.68202e-05
-0.000233345
-0.000545753
3.2753e-05
-0.000205369
-0.000526679
7.27732e-05
-0.000186414
-0.00107545
8.81511e-05
-0.000206423
-0.0015995
4.65162e-05
-0.000194452
-0.00155456
3.97318e-05
-0.00022977
-0.00148797
0.000139451
-0.000284286
-0.00154016
0.000133881
-0.000221257
-0.00214007
0.000122575
-7.07947e-05
-0.00181913
4.10164e-05
6.89577e-05
-1.44534e-05
-2.93019e-05
6.28303e-05
0.00012356
-1.40507e-05
-5.68578e-05
0.000865743
2.07236e-05
-6.77546e-05
0.000387704
2.06341e-05
-8.0678e-05
0.000170586
5.21827e-05
-0.000102558
-0.000453161
7.93085e-05
-0.000106358
-0.000909924
7.28406e-05
-7.07635e-05
-0.00109228
2.71473e-05
-5.98376e-05
-0.00106746
3.16449e-05
-6.92766e-05
-0.00134297
2.08672e-06
-6.4726e-05
-0.00189136
4.75734e-05
-3.48143e-05
-0.00244973
3.24388e-05
-1.88509e-05
-0.00205079
-7.6122e-06
-1.07368e-05
-0.00168921
-0.00148958
-2.8471e-05
-0.00315862
0.000160466
-0.0045806
-0.00101704
0.000145237
-0.00438918
-0.00153269
2.34017e-05
-0.0033545
-0.000463309
0.000208969
-0.0051123
-0.000694358
8.71794e-05
-0.00492962
-0.000773157
8.19372e-05
-0.00489541
-0.00141807
-2.39038e-05
-0.00427813
-0.000534331
0.000574099
-0.00515134
-0.00037915
0.000451644
-0.00544979
-0.000693604
0.000265908
-0.00533473
-0.000692266
0.000123546
-0.00506355
-0.00135201
0.000166245
-0.00412939
-0.000532406
0.000738274
-0.0052992
-0.000448279
0.000677074
-0.00523639
-0.000348675
0.000681886
-0.00547536
-0.000677393
0.000505231
-0.00558205
-0.000896334
0.000362464
-0.0055338
-0.00140072
0.000128594
-0.00411386
-0.000265355
0.00128481
-0.00580443
-0.000433921
0.00101603
-0.00591827
-0.000156364
0.00106408
-0.0061485
-0.000379642
0.000932026
-0.00643747
-0.000718519
0.000678374
-0.00598837
-0.00109138
0.000424896
-0.0051104
-0.00159907
0.00020423
-0.00433239
-0.000196977
0.0014775
-0.00692627
2.46429e-05
0.00138
-0.00742123
9.25536e-05
0.001333
-0.0077104
-0.000155627
0.00130601
-0.0076454
-0.000251758
0.00116605
-0.00754817
-0.000222216
0.00112873
-0.00657807
-0.000791925
0.000686903
-0.00606554
-0.00136131
0.000268764
-0.00436768
4.58151e-06
0.000944033
-0.00562643
-2.94843e-05
0.00102387
-0.0057211
-0.000114938
0.00100455
-0.00539299
-0.000142016
0.000887653
-0.0053942
-7.33205e-05
0.000752526
-0.00545302
0.000423801
0.000767936
-0.00604279
3.24656e-05
0.000775603
-0.00625754
-0.000398559
0.000780812
-0.00607733
-0.00117864
0.000370631
-0.00680267
-0.000177758
0.000237224
-0.00360091
-2.81042e-05
5.4848e-05
-0.00321684
5.188e-05
-6.42787e-06
-0.00324297
1.7619e-05
2.00762e-05
-0.00333195
7.18741e-05
8.00657e-05
-0.00368363
8.66373e-05
0.00012318
-0.00381019
0.0004545
9.64784e-05
-0.00440271
0.000345131
0.000255723
-0.00358257
-4.32757e-05
0.000561512
-0.00494245
-0.000920193
0.000458206
-0.00751904
2.21333e-05
4.89986e-05
-0.00258313
8.40146e-05
3.77651e-05
-0.00213972
0.000192795
-1.71676e-05
-0.00162624
0.00021842
1.26951e-05
-0.00122262
0.000200059
7.46542e-05
-0.000644519
8.00125e-05
8.2405e-05
-0.00159415
0.000188631
-8.17423e-05
-0.00266615
0.000256999
-0.000120831
-0.00224467
0.000305902
-9.7389e-06
-0.00121623
9.05378e-05
-9.0425e-06
-0.000554734
-0.000199069
2.91841e-05
-0.00323553
-2.6832e-05
-0.000235645
-0.000578053
-7.56694e-06
-0.000239205
-0.000483627
5.21304e-05
-0.000203615
-0.000540974
7.98312e-05
-0.000189786
-0.00111973
9.35176e-05
-0.000220634
-0.00158752
5.72275e-05
-0.000202343
-0.00156637
4.87876e-05
-0.000234036
-0.00155986
0.000120966
-0.000285894
-0.00156484
0.00012325
-0.000212859
-0.00211917
0.000105287
-4.98019e-05
-0.00175808
1.8788e-05
8.81837e-05
-2.61561e-05
-6.74256e-05
5.60481e-05
0.000127325
-2.77328e-05
-6.11893e-05
0.00118558
-7.40729e-06
-5.91888e-05
0.000864584
2.45636e-05
-7.01232e-05
0.000352585
2.47939e-05
-8.38008e-05
0.000127035
6.13732e-05
-0.00010569
-0.000515202
7.99978e-05
-0.000103543
-0.000957143
6.71722e-05
-6.80391e-05
-0.00115125
2.95918e-05
-5.89171e-05
-0.00110741
2.57942e-05
-6.71423e-05
-0.00136635
-3.2176e-06
-6.12573e-05
-0.0018617
4.18546e-05
-2.77683e-05
-0.00248266
1.6245e-05
-1.84839e-05
-0.00205929
-2.11262e-05
-1.15326e-05
-0.00165655
-0.00161868
7.42005e-05
-0.00262047
-0.00127097
0.000159424
-0.00367622
-0.0015226
-6.58481e-05
-0.00310286
0.000382823
-0.0045859
-0.000836892
0.000191413
-0.00448425
-0.00100634
0.000142285
-0.00427488
-0.00157146
7.73488e-05
-0.00327845
-0.000706293
0.00050253
-0.00502564
-0.000464111
0.000253239
-0.0051934
-0.000741799
6.7393e-05
-0.00486689
-0.000765612
6.89445e-05
-0.00491492
-0.00128468
-0.000111173
-0.00423429
-0.000629336
0.000690812
-0.00529888
-0.000330072
0.000559453
-0.00537736
-0.000354632
0.000434055
-0.00561198
-0.00063418
0.000281286
-0.00553568
-0.000814413
0.000164807
-0.00514404
-0.00131001
4.60039e-05
-0.00426611
-0.000600865
0.0008895
-0.00524191
-0.000496018
0.000781024
-0.00534105
-0.000387025
0.000730509
-0.00505435
-0.000559467
0.00070344
-0.00549374
-0.00063646
0.00051118
-0.00581282
-0.00113386
0.000422859
-0.00578558
-0.00151651
-2.50412e-05
-0.00417138
-0.000373407
0.00138462
-0.00578751
-0.000275972
0.00130559
-0.00579338
-0.000231947
0.00117809
-0.00570777
-0.000260369
0.00107625
-0.00618798
-0.000360673
0.000929318
-0.0065795
-0.000535274
0.000672763
-0.00592318
-0.000794705
0.000480789
-0.00538418
-0.00163767
0.00018905
-0.00424508
-5.55543e-05
0.00155764
-0.00643481
9.56606e-05
0.00149113
-0.00716255
-0.000151639
0.00142249
-0.00747402
-0.000229053
0.00137238
-0.00768973
-0.000326009
0.00124896
-0.00747562
-0.000201223
0.00116896
-0.00696338
-0.00028842
0.00107693
-0.00664721
-0.000893629
0.000707056
-0.00600876
-0.00142228
0.000198433
-0.00432247
-0.000349124
0.000951651
-0.00558291
-0.000115771
0.000958175
-0.00547306
-0.000129608
0.00102732
-0.00556239
-3.86097e-05
0.000987626
-0.00543673
-8.42802e-05
0.000833866
-0.00531938
-6.93251e-05
0.000808499
-0.00533762
0.000434673
0.000750916
-0.00599827
0.000344691
0.000794422
-0.00627071
-0.000407011
0.000817011
-0.00615997
-0.00141632
0.000369122
-0.00667567
-0.00011285
0.000392588
-0.00390774
-7.40687e-05
0.000204576
-0.00359256
2.43074e-05
3.29726e-05
-0.00308776
0.000142256
-2.91597e-05
-0.00311757
0.000186572
1.90486e-05
-0.00325745
3.94963e-05
9.44431e-05
-0.00361438
0.000155967
8.25157e-05
-0.00376356
0.000397309
7.8802e-05
-0.0043661
0.000319932
0.00043075
-0.00346584
-0.000133788
0.000557765
-0.00481769
-0.000931196
0.000462941
-0.00724985
-0.000154768
5.29167e-05
-0.0028066
1.49858e-05
1.61145e-05
-0.00258403
0.000122129
-1.59409e-05
-0.00221095
0.000188989
-3.53234e-05
-0.00168738
0.000303563
-1.74458e-05
-0.00134056
0.000156108
8.028e-07
-0.000661797
0.000108339
6.00788e-06
-0.00174146
0.000208089
-0.000166188
-0.00270792
0.000265162
-0.000103466
-0.00229285
0.000287106
5.41825e-05
-0.00146128
4.47128e-05
4.76473e-05
-0.000599122
-0.000180278
5.96499e-05
-0.00318233
-8.92847e-05
-0.000205475
-0.000676677
3.90013e-06
-0.000257123
-0.000571443
5.91469e-06
-0.000242713
-0.00042588
6.92736e-05
-0.000203755
-0.000571485
9.4341e-05
-0.00019771
-0.00117562
0.000110451
-0.000234419
-0.0015859
6.51928e-05
-0.000212825
-0.0015856
6.47888e-05
-0.000241449
-0.0016395
9.27714e-05
-0.000290951
-0.00155373
0.000120218
-0.000198476
-0.00209393
8.78519e-05
-1.97752e-05
-0.00169612
1.305e-05
0.000122872
-8.97852e-05
-6.64721e-05
4.86997e-05
0.000123971
-1.6859e-05
-7.38488e-05
0.00088553
-1.3335e-05
-6.32795e-05
0.001203
-2.42877e-07
-6.12231e-05
0.000855927
2.80872e-05
-7.26513e-05
0.000313348
2.59983e-05
-8.71582e-05
8.25042e-05
7.32249e-05
-0.000107892
-0.000584077
7.94906e-05
-9.88038e-05
-0.00100587
6.45479e-05
-6.54808e-05
-0.00120923
3.27591e-05
-5.95201e-05
-0.00114779
1.98274e-05
-6.53012e-05
-0.00138213
-1.65438e-05
-5.7899e-05
-0.00181503
2.99234e-05
-2.56058e-05
-0.00250547
6.05684e-06
-2.08324e-05
-0.00205605
-2.82764e-05
-1.14329e-05
-0.00161684
2.47438e-05
-0.00260192
-0.0014356
0.000103997
-0.00318228
-0.00162802
7.72664e-05
-0.00259232
-0.000917679
0.000204829
-0.00406613
-0.00124205
0.000124561
-0.00363092
-0.00155983
-0.000121732
-0.00299276
0.000510825
-0.00459696
-0.000504801
0.000314711
-0.0046685
-0.000805974
0.000264724
-0.00454251
-0.00104914
0.00020632
-0.00412032
-0.00154448
0.000148432
-0.00316709
-0.000748757
0.000682863
-0.00507841
-0.000474894
0.00043365
-0.00506123
-0.000597365
0.000266156
-0.00514943
-0.000613041
7.85814e-05
-0.00489766
-0.000947473
-7.23483e-05
-0.00482068
-0.0012897
-0.000116805
-0.00413779
-0.000702246
0.000779559
-0.00521997
-0.000566768
0.000703373
-0.00537205
-0.000443164
0.000585514
-0.00547268
-0.000600548
0.000498766
-0.00578838
-0.000592776
0.000229616
-0.00564417
-0.00109265
4.8622e-05
-0.00518787
-0.00135784
2.74751e-05
-0.00445225
-0.00049844
0.000956382
-0.00537987
-0.000485921
0.000911229
-0.00516217
-0.000499175
0.000831272
-0.00517459
-0.000342385
0.000804993
-0.00507389
-0.000410786
0.000787936
-0.00572039
-0.000544373
0.000587249
-0.00596812
-0.000906226
0.000255339
-0.00595444
-0.00146276
4.80038e-05
-0.0043943
-0.000385245
0.00152677
-0.00566879
-0.000351245
0.00149974
-0.00553475
-0.000329616
0.00134639
-0.00578371
-0.000208618
0.00113956
-0.00579151
-0.000241871
0.00104826
-0.00639106
-0.00049791
0.000869126
-0.00647918
-0.000302793
0.000693879
-0.00612189
-0.000955265
0.00052057
-0.00565406
-0.00164725
0.000168881
-0.00418898
-0.000316925
0.00153676
-0.00632439
-9.89786e-05
0.00156145
-0.00652192
-7.41271e-05
0.00151781
-0.00731335
-0.000239045
0.0014686
-0.0073698
-0.000409628
0.00131897
-0.0074344
-0.000376157
0.00124977
-0.0072496
-0.000175221
0.00130481
-0.00658137
-4.99457e-05
0.00111826
-0.00666377
-0.000715884
0.00069833
-0.00619978
-0.00161219
0.000157581
-0.00428418
-0.000406942
0.00097008
-0.00557367
-0.00016552
0.000956102
-0.00548939
-5.05254e-05
0.000981949
-0.00535286
-0.000124854
0.00100685
-0.00531451
-0.000218426
0.00100981
-0.00520768
-0.000266614
0.000903913
-0.00510868
-4.20455e-06
0.00082522
-0.00525176
0.000447084
0.00072297
-0.0059766
0.000399048
0.000839704
-0.00637252
-0.000279514
0.000790092
-0.00643522
-0.00149802
0.000464555
-0.0065734
-0.000311869
0.000551152
-0.00410968
3.94508e-05
0.000340916
-0.00406855
-2.37507e-05
0.000181078
-0.00359478
5.86987e-05
4.52629e-05
-0.00303189
0.000236643
-1.16229e-05
-0.00301997
4.04572e-05
0.000111143
-0.0031585
1.61999e-05
6.5386e-05
-0.00350511
0.000330624
4.53301e-05
-0.00385263
0.000425584
0.000153545
-0.00424931
0.00036436
0.000376909
-0.00336224
-8.99597e-05
0.000531881
-0.00475195
-0.000909754
0.000511124
-0.0070315
-0.000321102
0.000130824
-0.00299431
6.73537e-05
-9.81276e-07
-0.00285296
0.000104049
-5.61123e-07
-0.00269754
0.000170994
-3.12392e-05
-0.00231675
0.000235567
-5.05717e-05
-0.00179548
0.000144538
-3.89616e-05
-0.00133488
0.000118629
-5.76772e-05
-0.000651547
0.000121224
-0.000122769
-0.00184131
0.000175268
-0.000216282
-0.0026776
0.000243027
-6.43552e-05
-0.00229712
0.000240693
0.000111875
-0.00167834
1.87637e-05
0.000130162
-0.000675347
-0.000172748
0.000101075
-0.00317713
-0.000118929
-0.000131387
-0.0011026
-4.75067e-05
-0.000233214
-0.000666414
8.51365e-06
-0.000267669
-0.000555244
1.96576e-05
-0.000241995
-0.00037921
8.80588e-05
-0.000204434
-0.000626821
0.000112636
-0.000205612
-0.00124384
0.000129638
-0.000250479
-0.00159839
7.50217e-05
-0.00022246
-0.00161506
7.31452e-05
-0.00025302
-0.00171782
7.35462e-05
-0.000298448
-0.00150747
9.96664e-05
-0.000185682
-0.00204423
4.9101e-05
2.95751e-05
-0.001622
3.08337e-05
0.000130098
-0.00019596
-1.77501e-05
4.1605e-05
7.18398e-05
-3.82843e-05
-8.05839e-05
0.000614566
-7.37145e-06
-7.45166e-05
0.000904139
-4.15332e-06
-6.48888e-05
0.00121082
5.60994e-06
-6.33373e-05
0.000841003
3.19821e-05
-7.52353e-05
0.000269443
2.66018e-05
-9.09152e-05
3.89257e-05
8.77835e-05
-0.00010866
-0.000662005
7.78541e-05
-9.3223e-05
-0.00105598
6.18749e-05
-6.42933e-05
-0.00126633
3.53494e-05
-6.07201e-05
-0.00118772
1.48673e-05
-6.37327e-05
-0.00139117
-2.37172e-05
-5.45126e-05
-0.0017624
1.44964e-05
-2.57321e-05
-0.00251506
4.41721e-07
-1.84125e-05
-0.00204951
-3.0391e-05
-1.28117e-05
-0.00157364
-1.45723e-05
-0.00316084
-0.00165758
2.62853e-05
-0.00259863
-0.00102096
0.000187042
-0.00375372
-0.00139052
0.000114351
-0.0030709
-0.00169119
7.15321e-05
-0.0025325
-0.000685813
0.000313932
-0.00423082
-0.000920228
0.000259787
-0.0040871
-0.00129855
1.26515e-06
-0.0035045
-0.00156755
-5.1842e-05
-0.00291784
0.000651719
-0.00474106
-0.000682922
0.000479463
-0.00455369
-0.000732248
0.000357462
-0.00462636
-0.000627639
0.000303001
-0.00462459
-0.00116463
0.000190742
-0.00394548
-0.00160042
0.000160072
-0.00301644
-0.000745204
0.00077787
-0.00510536
-0.000743504
0.000625282
-0.0050933
-0.00055634
0.00043346
-0.00511535
-0.000648648
0.000223442
-0.00524619
-0.000575899
2.53596e-05
-0.00501225
-0.00124756
-8.2359e-05
-0.00470021
-0.00138895
-3.31419e-05
-0.00407355
-0.000715721
0.00086607
-0.0052858
-0.000539708
0.000789186
-0.005252
-0.00056785
0.00071699
-0.00543485
-0.000283753
0.000634904
-0.00566745
-0.000607515
0.000478413
-0.00584045
-0.000689043
0.000245115
-0.005696
-0.00121452
0.000126271
-0.00497837
-0.00134909
-9.15943e-05
-0.00447432
-0.000596525
0.00105363
-0.00545766
-0.000608739
0.000989824
-0.00520097
-0.000497663
0.000940674
-0.00510352
-0.000309166
0.000892634
-0.00516168
-0.000237053
0.000950422
-0.00524119
-0.000461767
0.000777113
-0.0059464
-0.000477159
0.000570365
-0.00610878
-0.00115911
0.000274813
-0.0059774
-0.00147581
-6.35373e-05
-0.00450221
-0.000460653
0.00161097
-0.00587117
-0.000345406
0.00168596
-0.00560858
-0.000281716
0.00154886
-0.00552963
-0.000334357
0.00125065
-0.00579949
-0.000239324
0.00109584
-0.00600939
-0.000345537
0.000964727
-0.00651728
-0.000281536
0.000819833
-0.00649882
-0.000278256
0.00075074
-0.00612375
-0.000849027
0.000548559
-0.00590059
-0.00182897
0.000220091
-0.00419229
-0.00031337
0.00149508
-0.00635591
-8.33604e-06
0.0015295
-0.00644962
-7.48015e-06
0.00160712
-0.00665428
-0.000406171
0.00155315
-0.00711658
-0.000401577
0.00142378
-0.00729146
-0.00051803
0.00131709
-0.0072503
-0.000437739
0.00134527
-0.00685653
-5.0098e-05
0.00137652
-0.00634245
0.000162047
0.00110647
-0.00683491
-0.000455742
0.000654479
-0.00652045
-0.0017815
0.000328071
-0.00432878
-0.000331116
0.000996132
-0.00603943
-5.94333e-05
0.000948576
-0.00546726
-8.1534e-05
0.00096246
-0.00541212
-7.8414e-05
0.000973
-0.00518189
-0.000206946
0.00109013
-0.00495124
-0.000300327
0.00100792
-0.0049709
-0.000294464
0.000927788
-0.00490059
0.000213067
0.000810648
-0.00522188
0.000431178
0.000757984
-0.00590047
0.00022346
0.000816093
-0.00625762
0.000187824
0.00074046
-0.0069889
-0.00156221
0.000524985
-0.00644593
-0.000401594
0.000639416
-0.00448737
-5.76341e-06
0.000484537
-0.00418019
0.000112542
0.000312337
-0.0042083
-3.9743e-05
0.000244599
-0.00358338
3.18732e-05
0.000135144
-0.00297496
4.11361e-05
8.31768e-05
-0.00288861
1.64995e-05
7.03159e-05
-0.0030613
2.32946e-05
8.38724e-05
-0.00344572
0.000241833
1.71896e-05
-0.00378284
0.000410777
0.000115603
-0.00415576
0.000363124
0.000362574
-0.00331536
-0.000213845
0.000565942
-0.00457416
-0.000956057
0.000498792
-0.00674699
-0.000337445
0.00023858
-0.00342639
-0.000142527
8.87512e-05
-0.00298903
-4.16395e-05
-2.74484e-05
-0.00277592
4.73206e-05
-2.42727e-05
-0.00273217
0.000151227
-5.11675e-05
-0.00237933
0.000195041
-4.38056e-05
-0.00187304
0.000193988
-9.10628e-05
-0.00136585
0.000164713
-0.000116708
-0.000747299
0.000115846
-0.000213275
-0.00188702
0.000134568
-0.000231477
-0.0025715
0.000201378
-4.79046e-05
-0.00223906
0.000160644
0.000164626
-0.00182435
8.41329e-05
0.000196744
-0.000824316
-7.49178e-05
7.7824e-05
-0.00319778
-0.000186507
-6.83538e-05
-0.0015994
-9.43418e-05
-0.000166738
-0.00108211
-2.82461e-05
-0.000254223
-0.000655768
1.16696e-05
-0.000267839
-0.00053546
3.84389e-05
-0.00023532
-0.000354781
9.81693e-05
-0.000203362
-0.000700639
0.000145314
-0.000217689
-0.00133416
0.00014765
-0.000266237
-0.00162441
7.65628e-05
-0.000231126
-0.00165165
7.76782e-05
-0.000266041
-0.00179256
6.12293e-05
-0.000303448
-0.00143607
7.82078e-05
-0.000170013
-0.00194657
1.50241e-05
5.15781e-05
-0.00154401
6.67998e-05
0.000125419
-0.000346132
2.72838e-05
3.25309e-05
-1.83659e-05
-5.71472e-05
-8.08708e-05
0.000138834
-2.25712e-05
-7.9912e-05
0.000642532
2.97318e-06
-7.51609e-05
0.000911438
1.87748e-06
-6.66245e-05
0.00121223
1.27994e-05
-6.5436e-05
0.000818404
3.54904e-05
-7.78115e-05
0.000220849
3.20861e-05
-9.50656e-05
-6.75462e-06
9.89363e-05
-0.000108733
-0.000745431
7.67541e-05
-8.70701e-05
-0.00110996
5.75508e-05
-6.40639e-05
-0.00132054
3.64006e-05
-6.20491e-05
-0.00122581
1.11804e-05
-6.23853e-05
-0.00139447
-3.26451e-05
-5.12837e-05
-0.00170421
9.82646e-06
-2.14864e-05
-0.00252182
-1.95045e-07
-2.06419e-05
-0.00204148
-3.16627e-05
-1.36517e-05
-0.00152832
-0.00174663
3.50911e-05
-0.00237709
0.000157849
-0.00323809
-0.00133468
4.78262e-05
-0.00323822
-0.00169525
-3.52425e-05
-0.00255933
-0.000915811
0.00037651
-0.0038167
-0.00110557
0.000164248
-0.00361827
-0.00123745
7.15265e-05
-0.003132
-0.00168671
4.89495e-05
-0.00246229
-0.000769127
0.000438299