/*--------------------------------*- C++ -*----------------------------------*\
  =========                 |
  \\      /  F ield         | OpenFOAM: The Open Source CFD Toolbox
   \\    /   O peration     | Website:  https://openfoam.org
    \\  /    A nd           | Version:  7
     \\/     M anipulation  |
\*---------------------------------------------------------------------------*/
FoamFile
{
    version     2.0;
    format      ascii;
    class       volVectorField;
    location    "7";
    object      U;
}
// * * * * * * * * * * * * * * * * * * * * * * * * * * * * * * * * * * * * * //

dimensions      [0 1 -1 0 0 0 0];

internalField   nonuniform List<vector> 
18750
(
(2.89969 0.00983924 0.529197)
(4.03248 -1.50943 -0.965578)
(3.28017 0.407006 -0.895818)
(2.527 0.0583308 0.862582)
(0.923723 1.34313 -1.00116)
(3.67638 0.132279 -0.0778401)
(4.02437 -1.61376 -0.821357)
(0.973442 1.2073 -1.02318)
(3.11574 0.383514 -0.784301)
(2.08133 0.164429 0.94532)
(4.59985 4.29136 0.632084)
(1.25172 2.77384 0.20844)
(1.59959 1.26795 -1.3047)
(1.82421 1.01875 -1.41855)
(2.83627 0.0478657 0.139479)
(3.77269 -1.71667 -0.676724)
(0.478636 1.26304 -1.73742)
(0.993058 1.21513 -0.959709)
(2.92329 0.370183 -0.904968)
(1.69738 0.29527 0.842352)
(1.6264 5.89214 1.1434)
(3.48785 3.39225 0.356939)
(4.26567 4.43649 0.721248)
(1.8242 0.739784 1.21418)
(0.335291 0.259739 0.082799)
(2.54411 1.18898 -0.379202)
(0.91685 1.2077 -0.97186)
(1.66117 1.00477 -1.22193)
(2.23566 -0.0518058 0.244864)
(3.3503 -1.71203 -0.48255)
(0.499212 0.658978 -2.03142)
(0.536046 1.23759 -1.67151)
(1.17121 1.20047 -0.818524)
(2.73919 0.367134 -1.02254)
(1.42628 0.416478 0.662985)
(-0.364487 4.89248 0.679326)
(1.26662 5.98763 0.734988)
(2.58144 5.53299 1.33437)
(0.836023 2.95451 -0.328432)
(3.89217 3.23175 0.616965)
(3.92158 4.62883 0.90869)
(1.3264 1.30734 1.53479)
(1.68076 0.651429 1.68598)
(0.261101 -2.10008 0.433069)
(2.79785 1.05183 -0.217104)
(0.743453 0.893731 -1.48118)
(0.996248 1.23832 -1.14757)
(1.46635 1.00556 -1.15247)
(1.43002 -0.112397 0.308295)
(2.85349 -1.41559 -0.297459)
(0.409172 0.511194 -1.54774)
(0.540019 0.683816 -1.9639)
(0.524078 1.27025 -1.59545)
(1.30502 1.15783 -0.85435)
(2.53918 0.367618 -1.07184)
(1.26578 0.518643 0.486866)
(-1.8105 3.30478 0.139156)
(-0.957398 5.30874 0.997465)
(-0.439043 4.60494 0.725467)
(0.14813 5.09623 2.14797)
(1.84756 5.55324 1.10009)
(3.14779 4.99146 1.05612)
(0.605584 2.36287 0.403822)
(1.0807 2.7252 -0.240196)
(4.00913 2.93127 0.967968)
(3.62448 4.70959 1.05633)
(0.477774 1.64537 1.17133)
(1.45557 1.25637 1.11374)
(1.71849 0.673253 1.19264)
(0.323663 -0.450658 0.921304)
(2.53754 1.13901 0.409396)
(0.492316 0.892584 -1.39235)
(0.837073 0.847796 -1.62765)
(1.05593 1.24752 -1.2802)
(1.33234 0.996206 -0.941526)
(0.894618 -0.0364882 0.457829)
(2.21155 -1.4475 -0.274008)
(1.40262 0.431173 -1.49809)
(0.443519 0.517322 -1.54245)
(0.563817 0.667516 -1.9083)
(0.520768 1.24228 -1.54833)
(1.40583 1.12506 -0.829465)
(2.35234 0.379372 -1.0394)
(1.18736 0.583408 0.350721)
(-1.79156 2.53011 0.241734)
(-1.37752 3.56738 0.768832)
(-1.62576 3.22101 -0.00474289)
(-0.800315 5.52175 1.98398)
(-0.379041 5.23797 0.843177)
(-0.688449 4.2453 0.754933)
(0.826036 4.45776 1.96757)
(0.906774 5.13882 2.1276)
(2.1081 5.07432 1.46043)
(2.32555 5.03228 0.620062)
(0.173739 2.41686 0.958266)
(0.978067 2.51277 0.114084)
(1.61577 2.57867 -0.607556)
(4.10489 2.85599 0.820322)
(2.94821 4.93411 1.10121)
(-0.290111 0.815285 1.91926)
(0.391039 1.56204 0.879069)
(1.22439 1.21912 0.89199)
(1.76717 0.62358 1.1404)
(0.278686 -0.449125 1.41914)
(2.16643 1.55423 0.61106)
(0.301158 1.1252 -1.30987)
(0.515506 0.844568 -1.49292)
(0.88462 0.803725 -1.78693)
(1.04379 1.26063 -1.30617)
(1.27156 0.976143 -0.510366)
(0.502799 -0.0512992 0.54082)
(1.6033 -1.04625 -0.125719)
(1.11527 0.431526 -2.17306)
(1.46758 0.393086 -1.39457)
(0.485625 0.52548 -1.50318)
(0.596603 0.678676 -1.84346)
(0.574808 1.23594 -1.45593)
(1.44077 1.09679 -0.784296)
(2.18945 0.394282 -0.946116)
(1.14981 0.623204 0.261141)
(-2.25729 2.27673 0.0874593)
(-1.49562 3.18558 0.581157)
(-1.47982 2.64818 0.22669)
(-0.953218 4.10886 0.777496)
(-0.841453 3.56655 1.11998)
(-1.38202 3.26237 -0.0132907)
(-0.095265 5.44107 2.0769)
(-0.617534 5.58574 1.7999)
(-0.197052 5.05901 0.409344)
(-0.787862 3.82979 0.755439)
(-0.70069 4.05482 2.45672)
(2.30216 3.8023 1.71268)
(3.06584 4.44046 1.51854)
(2.26483 4.49191 1.80123)
(1.93351 4.72736 0.634092)
(1.53827 2.64416 0.996361)
(0.444728 2.42236 1.06506)
(1.08818 2.53923 0.550021)
(1.41198 2.75489 -0.342947)
(4.08626 2.33241 1.32396)
(2.49277 5.02436 0.965392)
(-0.0653252 0.410664 1.54728)
(-0.384226 1.0105 1.57749)
(0.526406 1.56994 0.564198)
(1.47308 1.14472 0.304996)
(1.77759 0.452994 0.827622)
(0.215621 -0.125745 2.27859)
(1.95698 1.66955 0.552511)
(0.0879903 1.08801 -1.10086)
(0.365286 1.06887 -1.32768)
(0.543158 0.821729 -1.57907)
(0.922798 0.763822 -1.94173)
(1.03561 1.24981 -1.24974)
(1.13724 0.990758 -0.257544)
(0.243621 -0.0145821 0.620606)
(0.984993 -0.754219 -0.0241702)
(0.322194 0.189758 -2.21251)
(1.13079 0.41519 -2.16891)
(1.49995 0.345978 -1.27342)
(0.519744 0.52556 -1.46727)
(0.634535 0.679457 -1.79496)
(0.595759 1.22001 -1.36799)
(1.5283 1.0524 -0.692428)
(2.02803 0.421803 -0.843047)
(1.12086 0.653469 0.213472)
(-1.46159 2.59922 -0.0233361)
(-1.53181 2.87898 0.289281)
(-1.96965 2.53609 0.0599383)
(-0.873095 3.53146 0.798636)
(-1.30527 3.31273 0.483759)
(-1.30957 2.72704 0.199111)
(-0.441625 4.05003 1.0859)
(-0.857264 4.1121 0.759997)
(-0.890365 3.57874 0.874546)
(-1.21765 3.36436 -0.0313533)
(0.33312 5.29921 2.22506)
(0.160176 5.15874 2.31742)
(0.429361 5.08903 2.04951)
(-0.145734 4.71401 0.551831)
(-0.717024 3.68228 0.731587)
(0.201965 3.78302 2.30361)
(0.342771 4.01427 2.41536)
(-0.513072 4.52469 1.96576)
(2.78679 3.82597 1.47566)
(1.85113 4.25818 1.48953)
(0.243388 5.25797 0.372013)
(0.531852 2.5091 -0.0106047)
(1.10801 2.32713 0.839244)
(0.581812 2.41859 1.01854)
(1.14986 2.47675 0.7167)
(2.01618 2.30265 0.194307)
(3.19674 2.60881 1.52373)
(2.16767 5.15308 0.931948)
(0.605149 0.805699 0.942171)
(-0.0776686 0.46191 1.3949)
(-0.166323 1.01197 1.3575)
(0.746834 1.55087 0.331895)
(1.27341 1.14251 0.387532)
(1.84942 0.313771 0.667046)
(0.650287 -0.0299298 2.22473)
(1.7464 1.8474 0.369439)
(0.0347737 0.673228 -1.2798)
(0.260963 1.06347 -1.16138)
(0.413823 1.01558 -1.34726)
(0.530522 0.81225 -1.64667)
(0.926121 0.732881 -2.08272)
(0.991861 1.20132 -1.25096)
(1.02714 0.99512 -0.0874416)
(0.00478085 0.0607654 0.754896)
(0.429319 -0.446453 -0.0112201)
(0.238172 -0.18246 -1.63131)
(0.447444 0.177103 -2.31267)
(1.12454 0.36713 -2.13835)
(1.44204 0.318202 -1.21165)
(0.566851 0.519783 -1.43221)
(0.663136 0.667481 -1.75765)
(0.609722 1.19755 -1.28381)
(1.58951 1.01512 -0.610039)
(1.85231 0.46813 -0.764147)
(1.09373 0.69573 0.178507)
(-1.52358 2.36064 -0.0117872)
(-1.01253 3.20449 0.177968)
(-0.717359 2.9507 -0.121839)
(-0.882983 3.34099 0.167038)
(-0.911131 3.13617 0.347475)
(-1.69913 2.84433 -0.0146224)
(-0.74261 3.5119 0.760618)
(-0.737792 3.60398 0.722627)
(-1.08402 3.36741 0.549527)
(-0.939981 2.88248 0.159253)
(-0.142985 4.05563 1.41446)
(-0.197312 4.03973 1.2439)
(-0.806567 4.07872 0.563059)
(-0.797475 3.64285 0.892031)
(-1.30386 3.42656 0.0213206)
(-0.0429699 5.0114 2.29813)
(0.398754 5.31481 2.19104)
(0.462981 5.17436 2.59477)
(0.09959 4.90089 1.60141)
(-0.0323731 4.49676 0.562848)
(-0.905723 3.66503 0.561917)
(-0.264788 3.92785 2.35661)
(0.00864587 3.57441 2.18969)
(1.00326 3.84706 2.10226)
(1.92473 3.84849 1.92354)
(0.964562 4.57903 2.28913)
(1.36296 4.12171 1.44953)
(1.01964 4.88672 0.27545)
(0.658324 2.4418 0.18328)
(0.938316 2.464 -0.000216256)
(-0.0940551 2.78631 0.454543)
(0.875498 2.43786 0.735323)
(1.60068 2.46643 0.0776154)
(1.89294 2.17078 0.261415)
(2.63287 2.66368 1.46705)
(1.9217 5.23122 0.891702)
(0.586365 1.03169 0.369464)
(0.73054 0.703793 0.677312)
(-0.0381145 0.430675 1.2895)
(0.00147287 0.937161 1.13313)
(0.993697 1.46687 0.131687)
(1.55341 1.01572 0.0144057)
(1.61067 0.134309 0.368468)
(0.97891 -0.245876 1.41057)
(1.5757 1.87538 0.37253)
(0.0830278 0.359032 -1.24929)
(0.165123 0.672469 -1.36878)
(0.413104 1.04022 -1.23782)
(0.453788 0.976491 -1.36245)
(0.499632 0.830734 -1.71156)
(0.900528 0.728554 -2.16379)
(0.978088 1.17808 -1.19108)
(0.904336 0.992706 -0.0663267)
(-0.217196 0.175699 0.912644)
(-0.0497365 -0.0845826 -0.0315179)
(0.195437 -0.295669 -1.46292)
(0.232789 -0.172644 -1.70767)
(0.621894 0.161855 -2.38979)
(1.20419 0.322395 -2.03935)
(1.36528 0.303601 -1.17557)
(0.631138 0.503448 -1.39285)
(0.709563 0.661232 -1.71439)
(0.632685 1.1824 -1.18887)
(1.707 0.891404 -0.418688)
(1.67569 0.527792 -0.704445)
(1.07936 0.700538 0.154355)
(-0.775015 2.96697 0.0439917)
(-1.42083 2.45864 0.0266235)
(-0.645288 3.17592 0.00716401)
(-0.586826 3.3119 0.217649)
(-0.684641 2.97304 -0.226141)
(-0.478442 3.39837 0.48589)
(-0.871073 3.40385 0.135249)
(-0.306255 3.32735 0.536061)
(-1.53014 2.98527 -0.00622231)
(-0.167836 3.61849 0.733618)
(-0.402826 3.62549 0.811773)
(-0.730923 3.62164 0.736223)
(-0.223162 3.6784 0.507358)
(-0.971185 2.9488 0.163134)
(0.280842 3.94042 1.80811)
(0.242597 3.98249 1.50928)
(0.256526 4.1239 1.40204)
(-0.639776 4.15196 0.584676)
(-0.575769 3.72754 0.730466)
(-1.11732 3.67022 -0.0238479)
(0.523879 4.68314 2.45559)
(0.252881 4.97184 2.25773)
(0.288409 5.30594 2.35027)
(0.822786 5.2186 2.2592)
(1.06565 4.77051 1.75063)
(0.11453 4.39521 0.552102)
(-0.731478 3.62075 0.297303)
(-0.656161 3.83139 2.47403)
(-0.117657 3.7956 2.18512)
(0.5968 3.67226 2.07279)
(1.28794 3.60558 1.83988)
(1.67599 3.72254 1.90562)
(4.06597 2.90244 1.51244)
(2.03273 3.61821 1.45658)
(-0.0540931 5.22578 -0.0688159)
(0.267928 2.25451 -0.012497)
(0.845186 2.18645 0.123228)
(1.84419 1.65136 -0.0604524)
(1.36992 2.12335 0.679119)
(0.978124 2.41999 0.637818)
(1.57604 2.44484 0.263279)
(1.99328 1.92793 0.8524)
(2.12568 2.71988 1.68955)
(1.75227 5.27029 0.915246)
(0.247955 1.37252 0.233991)
(0.649332 1.00074 0.326346)
(0.819476 0.685035 0.310237)
(0.144418 0.457155 1.00583)
(0.335172 0.98083 0.72976)
(1.44276 1.30472 -0.380103)
(1.71632 0.850713 -0.220995)
(1.50508 0.0672063 -0.0503145)
(1.125 -0.27182 0.452755)
(1.51681 1.75665 0.431636)
(0.00337059 0.382967 -1.60433)
(0.130653 0.337971 -1.19998)
(0.261003 0.662258 -1.45551)
(0.583865 0.980873 -1.34199)
(0.535599 0.921745 -1.38719)
(0.488444 0.866088 -1.75835)
(0.858918 0.752114 -2.15207)
(0.97512 1.15877 -1.11334)
(0.788407 0.989218 -0.0201504)
(-0.341753 0.276665 0.94064)
(-0.368832 0.197224 -0.0782678)
(-0.249234 -0.568164 -1.29181)
(0.195511 -0.289948 -1.52177)
(0.20901 -0.159404 -1.7838)
(0.739185 0.130287 -2.4718)
(1.11166 0.302907 -1.97849)
(1.29227 0.291596 -1.16678)
(0.702974 0.472735 -1.35056)
(0.737419 0.644462 -1.68056)
(0.580105 1.1857 -1.11065)
(1.69132 0.924922 -0.406997)
(1.51966 0.591919 -0.657785)
(1.02651 0.701912 0.153706)
(-0.943641 2.20144 -0.108398)
(-0.605255 3.0511 0.0718138)
(-0.651125 3.01432 0.15245)
(-1.33172 2.50868 0.00353578)
(-0.112658 3.40319 0.0219719)
(-0.407487 3.29743 -0.0186074)
(0.0157044 3.3044 0.163932)
(-0.4921 3.01472 -0.14849)
(-0.506731 3.379 0.528573)
(0.0499245 3.53277 0.556872)
(-0.260438 3.59306 0.0888113)
(-0.191825 3.46238 0.262094)
(-1.2008 3.16488 -0.0173853)
(-0.579411 3.56303 0.87268)
(-0.365315 3.50349 0.875036)
(-0.0260876 3.67255 0.882398)
(-0.0132011 3.77845 0.552256)
(-0.0941719 3.93335 0.391812)
(-0.727497 3.24343 0.0405516)
(-0.0410611 3.81398 1.92371)
(-0.2302 3.9841 1.36954)
(0.649389 3.97164 1.52675)
(0.491658 4.2447 1.41909)
(-0.320555 4.23679 0.644611)
(-0.414302 3.74625 0.609071)
(-1.16232 3.74739 0.0612475)
(0.138905 4.44597 2.66209)
(0.759061 4.84157 2.52876)
(1.16722 4.9553 2.30213)
(0.879752 4.99371 2.53062)
(1.45052 4.94412 2.15235)
(2.01633 3.94275 2.03028)
(0.421413 4.33049 0.807305)
(-0.589072 3.61427 0.151765)
(-0.110516 3.68343 2.22643)
(-0.312413 3.82917 2.4416)
(0.305583 3.61105 2.17348)
(0.789495 3.54577 1.84241)
(1.16666 3.4772 1.79794)
(2.96747 3.16679 1.70286)
(1.92993 3.79547 1.98825)
(1.83769 3.65279 1.50385)
(0.224378 5.39082 0.118556)
(0.10755 2.3772 0.448878)
(0.478697 2.10572 -0.0227664)
(0.968076 2.06689 0.10773)
(0.557408 2.40918 0.121996)
(0.679966 2.41767 0.327682)
(1.1971 2.27962 0.366428)
(1.87007 2.40904 0.380423)
(1.91025 1.82206 1.04823)
(1.632 2.95475 1.73619)
(1.64977 5.20811 0.936561)
(-0.0959466 1.68673 0.299976)
(0.440982 1.35498 0.0383926)
(0.881327 0.895867 0.131541)
(0.853178 0.632327 0.0417251)
(0.326903 0.297819 0.711277)
(0.553462 0.893731 0.450603)
(1.59959 1.22418 -0.804972)
(1.71631 0.8021 -0.161708)
(1.39096 0.0448511 -0.0602331)
(1.06915 -0.366267 -0.242364)
(1.53523 1.58749 0.394266)
(-0.0253086 0.385014 -1.6976)
(0.165206 0.321055 -1.60863)
(0.178255 0.327568 -1.18008)
(0.389401 0.651181 -1.53228)
(0.781944 0.870084 -1.45481)
(0.584303 0.896597 -1.40302)
(0.506283 0.897871 -1.80664)
(0.788418 0.785843 -2.11691)
(0.995302 1.09099 -1.01264)
(0.703096 1.00606 0.0999071)
(-0.429017 0.37889 0.970504)
(-0.62086 0.457602 -0.142299)
(-0.522457 -0.786192 -1.0556)
(-0.24636 -0.559162 -1.32905)
(0.200105 -0.280236 -1.58652)
(0.179258 -0.140166 -1.86139)
(0.84738 0.0929983 -2.53448)
(1.06017 0.288827 -1.86715)
(1.24379 0.282271 -1.17082)
(0.772514 0.435846 -1.3066)
(0.771829 0.631534 -1.63564)
(0.588845 1.17671 -1.01643)
(1.77823 0.852862 -0.123819)
(1.39253 0.650201 -0.631027)
(0.960606 0.707302 0.100409)
(-1.20136 1.84396 0.0749569)
(-0.691527 2.50942 0.0626925)
(-0.848231 2.23977 -0.0244336)
(-0.595895 2.99103 0.246582)
(-0.347058 3.00755 0.137056)
(-0.586805 2.97258 0.0417752)
(-1.20862 2.53489 0.0441015)
(-0.506269 3.23979 0.400343)
(-0.253623 3.42197 0.210433)
(-0.224441 3.31542 -0.00684435)
(0.15003 3.2821 0.0909292)
(-0.0964761 2.98822 -0.0270305)
(-0.547907 3.47031 0.780817)
(-0.0800768 3.52073 0.526919)
(0.334224 3.65304 0.50135)
(0.0815284 3.67391 0.0484551)
(-0.0849324 3.58183 0.391927)
(-0.841195 3.34644 -0.0118618)
(-0.554995 3.52194 1.10144)
(-0.397362 3.53109 0.942501)
(0.0430243 3.44506 0.980528)
(0.114743 3.65946 0.844386)
(0.458911 3.85953 0.591664)
(-0.214809 3.95829 0.265744)
(-0.812339 3.3904 0.0120707)
(-0.481055 3.85279 2.00956)
(0.140638 3.81159 1.82958)
(0.604706 3.74046 1.86912)
(0.691867 3.96108 1.57782)
(0.497706 4.37827 1.42006)
(0.119468 4.17461 0.77006)
(0.0782052 3.90204 0.579818)
(-1.10712 3.78391 -0.0141322)
(0.407635 4.20167 2.78901)
(1.09236 4.60793 2.65699)
(0.676026 4.89631 2.62731)
(0.624894 5.11807 2.34167)
(1.0797 4.90355 2.30171)
(1.95594 4.41566 2.15492)
(1.75692 4.07447 1.71132)
(0.446252 4.34766 0.893912)
(-0.528511 3.78335 -0.120315)
(-0.755394 3.69538 2.13858)
(-0.057766 3.66914 2.18749)
(0.290329 3.75606 2.40477)
(0.913915 3.5334 2.16254)
(1.43382 3.27628 1.74224)
(1.37951 3.30973 1.88905)
(3.18276 3.00921 1.62525)
(2.89282 3.23744 2.06901)
(1.98648 3.58093 1.5854)
(-0.0208573 5.54068 0.0586014)
(0.390346 2.54773 0.91149)
(0.428966 2.32793 0.361349)
(0.777813 1.9496 -0.160732)
(1.13788 2.03017 0.0122502)
(1.70454 1.7201 0.127423)
(1.25018 2.14615 0.298252)
(1.40505 2.15918 0.229683)
(1.88168 2.42856 0.527064)
(2.0056 1.53032 1.61987)
(1.33252 3.09181 1.77772)
(1.64752 5.06089 0.935248)
(-0.167008 1.86731 0.0762349)
(-0.0684115 1.68667 0.26982)
(0.720034 1.32524 -0.290264)
(0.942802 0.912293 0.0389553)
(0.796663 0.643782 -0.0849855)
(0.497378 0.287374 0.284844)
(0.832795 0.87976 0.025343)
(1.67194 1.18955 -0.915282)
(1.71721 0.756906 0.0263017)
(1.48107 0.0527803 0.179492)
(0.974942 -0.310424 -0.148409)
(1.60755 1.47412 0.328151)
(0.0367849 0.448221 -1.53886)
(0.124813 0.36244 -1.79018)
(0.253392 0.264061 -1.60912)
(0.355462 0.298914 -1.18247)
(0.548851 0.641189 -1.62084)
(0.998756 0.761342 -1.56298)
(0.65058 0.865959 -1.42747)
(0.606413 0.904176 -1.89121)
(0.728695 0.795048 -2.10067)
(1.0183 1.05188 -0.816857)
(0.650453 1.01305 0.392704)
(-0.423128 0.459453 0.963835)
(-0.745267 0.643224 -0.185882)
(-0.27875 -0.585324 -1.4832)
(-0.468862 -0.749929 -1.12115)
(-0.232754 -0.541612 -1.37296)
(0.208527 -0.271148 -1.65546)
(0.154558 -0.11572 -1.94804)
(0.945365 0.0557743 -2.53877)
(0.993386 0.289901 -1.75138)
(1.24114 0.260498 -1.19484)
(0.822177 0.403742 -1.27094)
(0.78459 0.615446 -1.59066)
(0.535213 1.18857 -0.930642)
(1.68403 0.856563 -0.242356)
(1.29632 0.692313 -0.619524)
(0.884434 0.715322 0.0987376)
(-1.01822 1.79382 0.0723637)
(-1.05431 2.22266 0.0458223)
(-1.09891 1.92783 0.0304333)
(-0.677679 2.75192 0.198441)
(-0.412109 2.54666 -0.0840259)
(-0.744982 2.22465 -0.00319939)
(-0.691058 2.98471 0.451313)
(-0.0251622 3.10205 0.22669)
(-0.2387 3.01524 0.227157)
(-0.324334 2.92029 0.10172)
(-1.03518 2.53072 0.136147)
(-0.636833 3.33343 0.654661)
(-0.0100258 3.36299 0.332222)
(0.00908315 3.44562 0.156296)
(-0.00782582 3.26242 0.0459831)
(0.207257 3.33314 -0.223104)
(0.0588495 2.95956 -0.0105766)
(-0.733523 3.41474 0.851711)
(-0.16356 3.54154 0.779615)
(0.155227 3.52662 0.571383)
(0.139982 3.82751 0.573622)
(0.240877 3.7886 0.0202679)
(-0.0702544 3.75388 0.101964)
(-0.594093 3.45723 -0.0914915)
(-0.369899 3.59547 1.26535)
(-0.303379 3.4155 1.17283)
(-0.108338 3.52975 1.0095)
(0.125457 3.34335 1.05643)
(0.755345 3.69732 0.839109)
(1.13895 3.75962 0.855995)
(0.935371 3.99944 -0.0928238)
(-0.5063 3.48706 0.0363175)
(-0.318139 3.75947 2.32529)
(0.0340838 3.68946 2.20413)
(0.252297 3.81183 1.83604)
(0.614879 3.70991 1.78865)
(0.547774 4.22526 1.55901)
(0.600513 4.41551 1.30764)
(0.79626 4.12875 0.947555)
(0.265537 3.9788 0.604012)
(-0.880816 3.92421 -0.225908)
(-0.296003 4.09479 2.91852)
(0.405206 4.18325 2.86335)
(0.617565 4.75351 2.72468)
(0.822567 4.79529 2.76722)
(0.650623 5.03786 2.33886)
(1.40395 4.84715 2.35491)
(2.02253 3.98378 2.3248)
(2.66556 3.73934 1.70677)
(0.841459 4.29447 0.858361)
(-0.666053 3.98642 -0.222164)
(-0.728624 3.68728 2.15511)
(-0.204463 3.66023 2.21608)
(0.263617 3.56872 2.28362)
(0.964669 3.50962 2.34404)
(0.896529 3.38095 2.08761)
(0.985046 3.28427 1.91376)
(1.86503 3.12722 1.91448)
(3.26426 2.79243 1.65539)
(2.91424 3.2561 2.15201)
(2.45782 3.39458 1.60673)
(0.473945 5.37428 0.387894)
(-0.635496 2.55126 1.32504)
(0.642451 2.54281 0.819799)
(0.649 2.27669 0.370522)
(0.870816 1.89786 -0.197816)
(1.82803 1.31227 0.0179471)
(1.29571 1.72219 0.275925)
(1.34622 1.98555 0.218014)
(1.69846 2.01567 -0.0194043)
(2.10516 2.02275 1.05669)
(1.92046 1.44935 1.58685)
(1.3784 3.05282 1.78862)
(2.04898 4.79066 1.05636)
(-0.919359 2.02035 0.361781)
(0.136995 1.85814 -0.151092)
(0.122621 1.7482 0.155184)
(0.837741 1.34292 -0.346469)
(1.05525 0.87384 -0.0847776)
(0.857727 0.63967 -0.30055)
(0.597861 0.217392 -0.0037787)
(1.06451 0.816533 -0.575279)
(1.59668 1.15269 -0.947298)
(1.78175 0.663479 0.356612)
(1.55721 0.145483 0.584562)
(0.988844 -0.319257 0.174558)
(1.92913 1.15325 0.156983)
(-0.0425828 0.719839 -1.2349)
(0.293246 0.410156 -1.76209)
(0.29169 0.335688 -1.84154)
(0.317951 0.202096 -1.6102)
(0.449933 0.269502 -1.22416)
(0.787475 0.572602 -1.72242)
(1.20124 0.62167 -1.6954)
(0.724875 0.832805 -1.46478)
(0.756425 0.881862 -2.01153)
(0.690759 0.809436 -2.09813)
(0.958831 1.04734 -0.61858)
(0.56962 1.00558 0.860091)
(-0.298542 0.485053 0.916173)
(-0.669942 0.705073 -0.117447)
(-0.296434 -0.404336 -1.63006)
(-0.254529 -0.580545 -1.5117)
(-0.422586 -0.737787 -1.17302)
(-0.210073 -0.523317 -1.42055)
(0.217787 -0.262252 -1.72692)
(0.145123 -0.0935595 -2.05368)
(1.09181 -0.0170364 -2.46117)
(0.925438 0.304317 -1.63761)
(1.21656 0.24772 -1.27199)
(0.845892 0.383246 -1.25097)
(0.776022 0.611268 -1.54096)
(0.539182 1.17055 -0.846016)
(1.58895 0.912967 -0.310216)
(1.22348 0.696385 -0.62546)
(0.820243 0.731728 0.0578853)
(-0.769164 2.12026 -0.0380391)
(-0.892588 1.88093 0.0645706)
(-0.37034 2.50908 0.110303)
(-0.968534 2.20325 0.0984703)
(-1.05219 1.97203 0.0396607)
(-0.354682 2.85516 0.164088)
(-0.348927 2.76254 0.286916)
(-0.456082 2.47133 -0.203587)
(-0.589065 2.2189 0.050419)
(-0.656477 3.10824 0.523859)
(-0.317868 3.01706 0.376672)
(-0.167896 3.09692 0.27189)
(0.234313 3.08289 0.289631)
(-0.393727 2.89098 0.13416)
(-0.91209 2.52966 0.16775)
(-0.617473 3.3162 0.746543)
(-0.449399 3.38678 0.567117)
(-0.0522848 3.33757 0.402234)
(0.154896 3.43014 0.116838)
(0.423055 3.29986 0.0709828)
(0.0298614 3.33798 -0.246028)
(0.104534 2.94217 0.0801578)
(-0.608535 3.50449 0.98573)
(-0.224546 3.46517 0.877209)
(0.0201548 3.54195 0.793883)
(0.673146 3.67058 0.65666)
(0.448738 3.89079 0.490044)
(0.325608 3.94749 0.0207566)
(-0.135591 3.73479 0.164775)
(-0.245177 3.54089 -0.0580784)
(-0.626479 3.58221 1.31874)
(-0.405524 3.42857 1.27125)
(-0.114233 3.39805 1.2341)
(0.350913 3.42739 1.1487)
(0.920032 3.33029 1.27047)
(0.833337 3.78663 0.792933)
(1.74557 3.64487 0.764126)
(0.781034 4.12659 0.0779031)
(-0.161796 3.67092 -0.139272)
(-0.406594 3.83949 2.41711)
(0.0767587 3.66428 2.49101)
(0.416575 3.53508 2.34361)
(0.349821 3.78993 1.79089)
(0.653208 3.91666 1.69232)
(0.687858 4.3651 1.4702)
(1.02707 4.28898 1.23461)
(1.21018 3.98765 1.04925)
(1.21211 3.83938 0.758016)
(-0.923574 4.10853 -0.340564)
(-0.517004 4.15991 2.74277)
(0.406257 4.17322 2.90525)
(0.853514 4.26209 2.94009)
(0.41874 4.71921 2.76804)
(0.57288 4.88548 2.6062)
(0.848579 4.84168 2.37376)
(1.55137 4.37165 2.68795)
(2.33071 3.5604 2.53673)
(3.15189 3.22379 1.76729)
(1.54662 4.02697 0.843762)
(-0.910681 4.36138 -0.301817)
(-0.583327 3.97269 2.19377)
(0.196122 3.6118 2.13711)
(0.195632 3.60839 2.22078)
(0.690069 3.41614 2.29222)
(0.81441 3.13909 2.54646)
(0.737295 3.27626 2.27159)
(1.04278 3.23875 2.00819)
(2.63955 2.50594 1.74518)
(3.40587 2.59071 1.83962)
(3.36148 2.78164 2.04188)
(3.1804 3.36218 1.68868)
(0.692304 5.3359 0.386065)
(-0.960451 2.83733 1.92732)
(0.765388 2.72654 1.13804)
(1.31088 2.55802 0.722634)
(1.08684 2.1741 0.503207)
(1.24668 1.66266 -0.0746428)
(0.968693 1.81091 0.424141)
(1.11854 1.77763 0.1863)
(1.35045 1.87732 0.267351)
(1.73628 1.90394 -0.0515563)
(2.06709 1.99336 0.718164)
(1.73916 1.46684 1.53367)
(1.4279 2.98714 1.87553)
(2.03879 4.59651 0.970007)
(-1.11123 2.28759 0.758197)
(-0.617693 2.02558 0.125011)
(0.129065 1.8324 -0.170291)
(0.328696 1.77701 0.0864772)
(1.06254 1.30418 -0.352051)
(1.12569 0.886497 -0.0730287)
(0.911204 0.565395 -0.48523)
(0.715121 0.151286 -0.456785)
(1.14797 0.761963 -0.964328)
(1.58264 1.04733 -0.93527)
(1.74 0.570685 0.46139)
(1.43568 0.316241 0.962281)
(1.12257 -0.458693 0.652745)
(2.3093 0.646063 -0.048706)
(-0.592405 1.07521 -0.667947)
(0.172729 0.678157 -1.40304)
(0.427076 0.361978 -1.87928)
(0.345834 0.294465 -1.84507)
(0.392966 0.131638 -1.58477)
(0.526011 0.274873 -1.25344)
(1.02427 0.488656 -1.83864)
(1.38746 0.488759 -1.80295)
(0.812688 0.784207 -1.52829)
(0.913384 0.808932 -2.14603)
(0.669798 0.737774 -2.12721)
(0.921118 1.00434 -0.400869)
(0.565704 0.980399 0.987766)
(-0.123531 0.472498 0.749308)
(-0.489874 0.651024 -0.0293783)
(-0.325604 -0.0820083 -1.71524)
(-0.245578 -0.40891 -1.644)
(-0.235181 -0.574879 -1.53657)
(-0.386431 -0.732329 -1.22444)
(-0.185038 -0.508695 -1.47023)
(0.223887 -0.251333 -1.79777)
(0.153763 -0.0808915 -2.17945)
(1.18385 -0.0772952 -2.34975)
(0.884342 0.320662 -1.52734)
(1.14524 0.272138 -1.36085)
(0.848889 0.376749 -1.24507)
(0.764401 0.610688 -1.48578)
(0.518633 1.16795 -0.765504)
(1.62311 0.854988 -0.206115)
(1.19078 0.713399 -0.651843)
(0.765655 0.76801 0.0296034)
(-0.989656 1.74054 0.00792325)
(-0.765587 2.20095 0.018887)
(-0.547206 2.19169 -0.0245504)
(-0.806842 1.91199 0.031461)
(-0.292047 2.52401 0.18981)
(-0.36909 2.50085 0.0737014)
(-0.753497 2.27872 0.0662468)
(-0.973635 2.00485 0.00176494)
(-0.391345 2.80906 0.356938)
(-0.23618 2.84157 0.160124)
(-0.105086 2.73692 0.204052)
(-0.298154 2.47018 -0.14387)
(-0.572868 2.22207 0.0935771)
(-0.653838 3.10738 0.686124)
(-0.409821 3.13738 0.510264)
(-0.0143653 3.0524 0.422739)
(-0.0117522 3.0857 0.291195)
(0.30318 3.08689 0.244072)
(-0.456335 2.89228 0.128117)
(-0.882538 2.51121 0.159524)
(-0.774203 3.34654 0.888615)
(-0.311263 3.40021 0.727088)
(-0.155647 3.3844 0.514003)
(0.289296 3.37934 0.351968)
(0.372798 3.51873 -0.00852729)
(0.639746 3.33975 0.0818905)
(0.171302 3.27211 -0.149772)
(0.171811 2.92431 0.092397)
(-0.626265 3.54225 1.04441)
(-0.433536 3.45557 0.990975)
(-0.0275516 3.45154 0.903308)
(0.513349 3.61806 0.828745)
(0.606508 3.74025 0.679458)
(0.78296 3.87585 0.531068)
(0.317016 3.92806 0.157249)
(-0.096103 3.73437 -0.176045)
(-0.121083 3.55047 -0.0850096)
(-0.671713 3.67968 1.48668)
(-0.406417 3.55619 1.3822)
(-0.179264 3.43472 1.30939)
(0.260778 3.42532 1.30303)
(0.70866 3.30691 1.33228)
(1.01731 3.33023 1.27769)
(1.65977 3.68938 0.839971)
(1.86774 3.62019 0.672783)
(0.815746 4.11416 -0.0305829)
(-0.0875875 3.85029 -0.12282)
(-0.171529 3.9336 2.62972)
(0.378027 3.76699 2.77613)
(0.392741 3.6201 2.4849)
(0.133062 3.7595 2.09729)
(0.68357 3.86744 1.75511)
(0.663812 4.01183 1.55444)
(0.79651 4.25868 1.41267)
(1.46197 3.99069 1.3463)
(1.59513 3.66968 1.05504)
(1.93039 3.74262 1.02415)
(-0.717003 4.13999 -0.400369)
(-0.388297 4.05576 2.79683)
(0.399929 4.08418 2.79026)
(0.772225 4.11486 2.9983)
(0.747992 4.27944 3.00954)
(0.661801 4.67293 2.76462)
(0.889691 4.75116 2.60075)
(1.1491 4.62602 2.47086)
(1.85278 3.8314 2.76186)
(2.48159 3.336 2.49091)
(2.57448 3.8666 1.70382)
(3.26925 3.25823 1.54292)
(-0.628033 4.76165 -0.552497)
(-0.7095 4.06295 2.36126)
(-0.202643 3.8409 2.13172)
(0.184244 3.47437 2.1991)
(-0.0233897 3.54635 2.18952)
(0.388364 3.23618 2.45385)
(1.08012 3.06013 2.3721)
(1.21942 3.11076 2.24516)
(1.30598 2.89884 2.0872)
(2.42428 2.47826 1.70566)
(3.5988 2.21166 1.88257)
(3.79337 2.2833 1.92206)
(3.21184 3.68901 1.93535)
(0.901422 5.3459 0.330453)
(-0.850601 3.2724 1.85503)
(0.279252 3.04375 1.68571)
(0.343612 2.68955 1.09242)
(1.00058 2.57573 0.994169)
(0.940127 2.13949 0.920259)
(1.09823 1.63887 0.0547087)
(1.32404 1.42361 0.257661)
(1.41289 1.58156 0.229331)
(1.43296 1.84584 0.125996)
(1.68886 1.94853 -0.0238213)
(1.94334 1.92874 0.715538)
(1.56082 1.48224 1.76874)
(1.73732 2.60386 1.82984)
(2.36013 4.09595 0.911599)
(-1.09577 2.60078 1.15203)
(-0.911374 2.27443 0.641643)
(-0.416308 1.99517 -0.0806675)
(0.232214 1.79512 -0.307747)
(0.553586 1.69979 -0.0852755)
(1.21613 1.22714 -0.318933)
(1.32505 0.779448 -0.346748)
(0.97874 0.520969 -0.51755)
(0.758223 0.170404 -0.805948)
(1.17306 0.748726 -1.09951)
(1.53963 0.935297 -0.890501)
(1.60843 0.491445 0.522727)
(1.24875 0.496318 1.05853)
(1.42572 -0.680707 0.658239)
(2.53724 0.232184 -0.131643)
(-1.03908 1.03892 -0.293281)
(-0.225649 1.02806 -1.02215)
(0.419847 0.643537 -1.59473)
(0.481639 0.30421 -1.88537)
(0.439939 0.233068 -1.79454)
(0.470469 0.0762102 -1.5464)
(0.701679 0.235688 -1.32601)
(1.23674 0.396758 -1.97245)
(1.54531 0.341514 -1.86619)
(0.948684 0.713724 -1.60697)
(1.06341 0.735433 -2.20266)
(0.687945 0.660235 -2.12381)
(0.848757 0.963997 -0.216573)
(0.552347 0.937552 1.06704)
(0.122044 0.414877 0.527513)
(-0.282753 0.557227 0.0342124)
(-0.563852 0.291794 -1.62423)
(-0.305536 -0.100736 -1.6901)
(-0.1979 -0.422085 -1.6642)
(-0.201254 -0.569241 -1.56428)
(-0.355717 -0.724728 -1.27438)
(-0.161273 -0.49463 -1.5213)
(0.22658 -0.235608 -1.86695)
(0.192093 -0.0731754 -2.31661)
(1.23164 -0.106741 -2.20591)
(0.879702 0.325684 -1.44315)
(1.08728 0.303529 -1.43371)
(0.842073 0.380501 -1.24938)
(0.738786 0.618209 -1.42972)
(0.504472 1.16405 -0.687649)
(1.57943 0.878166 -0.267798)
(1.16982 0.720881 -0.664094)
(0.729487 0.81498 -0.0150603)
(-0.859524 1.62973 0.0442883)
(-0.710639 2.10923 0.0386481)
(-0.906773 1.77663 -0.0586837)
(-0.684474 2.27155 0.209279)
(-0.617819 2.21813 0.0911582)
(-0.195328 2.23004 -0.0803944)
(-0.658513 1.951 0.0131834)
(-0.3652 2.5835 0.39119)
(-0.179684 2.5703 0.178035)
(-0.292063 2.42869 0.0565328)
(-0.58638 2.31611 0.0728256)
(-0.889258 2.03706 -0.0374151)
(-0.551807 2.90043 0.407249)
(-0.0393641 2.8897 0.293893)
(-0.0272556 2.75823 0.155604)
(0.0998958 2.70683 0.140219)
(-0.352212 2.53277 -0.0773177)
(-0.411686 2.2898 0.131645)
(-0.726804 3.13496 0.860372)
(-0.273424 3.17451 0.672108)
(0.0528436 3.17898 0.469704)
(0.321506 3.1 0.472536)
(0.315281 3.12358 0.321835)
(0.257809 3.09273 0.208157)
(-0.449759 2.89659 0.12687)
(-0.708949 2.55482 0.146277)
(-0.694406 3.31106 0.992715)
(-0.456791 3.42583 0.890881)
(-0.0619066 3.4027 0.677404)
(0.419784 3.42706 0.527543)
(0.594154 3.42924 0.0888256)
(0.444975 3.55409 0.0206223)
(0.808137 3.38292 0.084224)
(0.235322 3.27069 -0.0947438)
(0.236602 2.96028 0.101031)
(-0.76516 3.62722 1.1691)
(-0.249377 3.56102 1.0303)
(0.183922 3.45322 0.996675)
(0.549302 3.49837 0.989967)
(0.52154 3.65398 0.89054)
(0.613333 3.69334 0.742915)
(0.999867 3.80296 0.539137)
(0.626998 3.75369 0.131245)
(0.180579 3.70147 -0.124286)
(0.0674193 3.52845 -0.0783757)
(-0.450019 3.74993 1.71787)
(-0.13637 3.57133 1.61302)
(0.329121 3.49998 1.55329)
(0.315559 3.46516 1.42823)
(0.441285 3.47153 1.34083)
(0.64389 3.30026 1.34329)
(1.08191 3.48529 1.12842)
(1.87691 3.66622 0.771165)
(1.91906 3.60993 0.748876)
(1.57212 3.7368 -0.179401)
(0.213398 3.81998 -0.0717662)
(-0.215164 3.99847 2.62948)
(0.387496 3.88534 2.84963)
(0.494984 3.76014 2.73321)
(0.445194 3.64723 2.40678)
(0.614397 3.78702 2.11565)
(0.432022 4.07337 1.50212)
(0.752373 4.03501 1.46095)
(1.54051 4.20759 1.00266)
(1.84303 3.75467 1.38672)
(2.16586 3.36862 1.05449)
(2.06621 3.65326 0.857665)
(0.0242628 4.15698 -0.486091)
(-0.556993 3.994 2.77647)
(0.0591924 4.10453 2.61081)
(0.585058 4.02241 2.76661)
(1.0539 4.11129 2.96073)
(0.88518 4.25275 2.98897)
(1.08725 4.53008 2.80021)
(1.56359 4.39892 2.74518)
(1.27542 4.49894 2.5683)
(2.27115 3.59463 2.73925)
(2.68232 3.12476 2.54608)
(3.66278 3.16959 1.76622)
(2.9504 3.7033 2.00099)
(-0.296418 4.74796 -0.4969)
(-0.917166 3.92829 2.30987)
(-0.67207 4.01317 2.32581)
(0.356706 3.73792 2.20068)
(-0.0214236 3.46802 2.28352)
(0.390991 3.41033 2.25176)
(0.957071 3.0344 2.24492)
(1.13825 2.84108 2.34975)
(1.87486 2.5807 1.97416)
(2.04308 2.30163 1.65099)
(3.36385 1.85098 1.23266)
(3.60322 2.04732 1.80121)
(3.30052 2.90641 2.09513)
(3.74617 3.3696 2.31996)
(1.1433 5.21615 -0.407335)
(-0.880043 3.52943 2.12519)
(-0.542101 3.29107 1.83156)
(-0.193722 2.89216 1.56272)