/*--------------------------------*- C++ -*----------------------------------*\
  =========                 |
  \\      /  F ield         | OpenFOAM: The Open Source CFD Toolbox
   \\    /   O peration     | Website:  https://openfoam.org
    \\  /    A nd           | Version:  7
     \\/     M anipulation  |
\*---------------------------------------------------------------------------*/
FoamFile
{
    version     2.0;
    format      ascii;
    class       volScalarField;
    location    "2";
    object      nut;
}
// * * * * * * * * * * * * * * * * * * * * * * * * * * * * * * * * * * * * * //

dimensions      [0 2 -1 0 0 0 0];

internalField   nonuniform List<scalar> 
18750
(
0.000295476
0.000993983
0.000266506
0.000575712
0.00137877
0.000323315
0.000993448
7.45207e-05
0.000309889
0.000179773
0.00241155
0.0011586
0.001104
0.000307288
0.000355454
0.00089439
0.00024357
0.000115032
0.00029749
0.000311659
0.00223093
0.00140524
0.00238136
0.00127884
0.00144594
0.000983657
0.000290215
0.000352049
0.000450917
0.000804927
8.46463e-05
0.000138393
0.000243776
0.000263761
0.000799172
0.00235618
0.000788454
0.00250883
0.00166535
0.00121063
0.00231365
0.00109075
0.00111164
0.00165302
0.00115582
0.000588289
0.000214354
0.00033335
0.000501859
0.000662164
0.000122806
0.000102242
5.34977e-05
0.000242332
0.000259193
0.000280821
0.00297049
0.00170478
0.00251239
0.000708336
0.000956062
0.00277585
0.00133975
0.00199688
0.0016017
0.00208227
0.00102662
0.00105298
0.000987375
0.00126211
0.000855815
0.000502749
0.000554328
0.000232735
0.000317095
0.00049834
0.000502873
0.000226624
0.000208364
0.000236786
0.00017759
0.000106427
0.000241525
0.000217409
0.00269376
0.000690898
0.00314969
0.000770603
0.00150423
0.00254281
0.000581172
0.000823795
0.000642309
0.00261899
0.000994257
0.000896837
0.00142133
0.00113161
0.00211663
0.000370622
0.000853477
0.000992373
0.00102108
0.00143549
0.000906059
0.000587268
0.000361343
0.000734812
0.00023961
0.000379459
0.000561833
0.000390308
0.000266296
0.00020247
0.00021552
0.000373388
0.000213907
0.0002516
0.000231403
0.00068013
0.00255984
0.00106213
0.00236487
0.000817023
0.000811976
0.00294003
0.00118381
0.000980695
0.000622297
0.00252324
0.000679362
0.000808342
0.00154954
0.000545458
0.00246412
0.00128392
0.00134105
0.00163536
0.002404
0.00122184
0.00188968
0.000917322
0.00027769
0.000906604
0.00105777
0.000998448
0.00138858
0.00111076
0.00061671
0.000344191
0.000275154
0.000822858
0.000274598
0.000497157
0.000584572
0.000374543
0.000170604
0.000249065
0.00017304
0.000287099
0.000375253
5.12433e-05
0.000110117
0.000234754
0.000226297
0.00229247
0.000451962
0.00255745
0.000542479
0.000791365
0.00255572
0.00081949
0.000938495
0.000973865
0.00249861
0.000898743
0.00106568
0.000998298
0.000868495
0.00302083
0.00092113
0.00043209
0.000955477
0.000561465
0.00037894
0.00288819
0.000797934
0.00129774
0.00162845
0.00251621
0.000576512
0.00100565
0.00167909
0.000309197
0.000821689
0.000371505
0.00100264
0.00101967
0.00124178
0.0015314
0.00131395
0.000250938
0.000281689
0.000269415
0.000269638
0.000623829
0.000332166
0.000471839
0.000619888
0.00041395
0.000264238
0.000162238
0.000195494
0.000144091
0.000170093
0.000269401
0.000102467
0.000116026
0.000232282
0.000238836
0.00247384
0.000665181
0.00238548
0.000822496
0.000701714
0.00261039
0.00101126
0.000805874
0.000675151
0.00251573
0.000164933
0.000590347
0.000639505
0.000684028
0.00276034
0.000590039
0.000795043
0.00150597
0.000844662
0.00201463
0.0029771
0.000715437
0.000747457
0.000705726
0.000864622
0.000822559
0.000547811
0.00269383
0.000446407
0.000913936
0.00119386
0.000845326
0.000918945
0.00141079
0.00146394
0.00237592
0.00032341
0.000736151
0.000640699
0.000565356
0.000857255
0.00086715
0.00125462
0.00147118
0.00147203
0.000576112
0.000312237
0.0002108
0.000630923
0.000238898
0.000469219
0.000342052
0.000637205
0.000635237
0.000503107
0.000290376
0.000246152
0.000173635
0.000221791
0.000186026
0.000172294
0.000251833
0.000270843
0.000124763
0.000219897
0.000928684
0.00249649
0.000622247
0.00228813
0.000385921
0.000604978
0.00242966
0.000769642
0.0007001
0.000624674
0.00255842
0.00109622
0.000544917
0.000937444
0.00083114
0.00252799
0.000700163
0.0002827
0.0014017
0.0010069
0.00159537
0.00277356
0.000763765
0.00153953
0.00133284
0.000865281
0.000646648
0.0010322
0.0025094
0.000920627
0.00136897
0.000800869
0.000986211
0.00108945
0.000647632
0.000792577
0.00237897
0.000763513
0.000691896
0.00114435
0.00139684
0.00107811
0.000949696
0.00118062
0.00141395
0.0023125
0.00030585
0.000430095
0.000863634
0.000783411
0.000721262
0.000984215
0.000819767
0.0013316
0.00134258
0.00160996
0.000628741
0.000609033
0.000489058
0.000296647
0.000893445
0.00019886
0.00030211
0.000268988
0.000519418
0.000651712
0.000474411
0.000338565
0.000257549
0.000235932
0.000205451
0.000236274
0.000414477
0.000166924
0.000176909
0.000169857
7.49621e-05
0.00020807
0.000246474
0.00239784
0.000744596
0.00250311
0.00053583
0.000572665
0.00259394
0.000601777
0.00051865
0.00065081
0.00247913
0.000711013
0.000829688
0.000795403
0.00105134
0.0025624
0.00127097
0.000624234
0.000248616
0.000691206
0.00166388
0.00238622
0.000541143
0.000474605
0.000514957
0.00120007
0.00103789
0.00122927
0.00274599
0.000478105
0.000812938
0.00108294
0.00111485
0.000526357
0.000772224
0.00161555
0.00251285
0.00108577
0.000841103
0.00105745
0.00102861
0.00167799
0.000787778
0.000538717
0.00059079
0.00328534
0.000592237
0.000847698
0.000814363
0.00149083
0.00219457
0.00150749
0.000894422
0.00101662
0.00117638
0.00274621
0.000487037
0.000235687
0.000534659
0.000521707
0.000513206
0.00131012
0.00112335
0.00103513
0.0012252
0.00120514
0.00147601
0.000672777
0.000526289
0.000504855
0.000414265
0.000521476
0.00055252
0.000175772
0.000282829
0.000239215
0.000456165
0.00066805
0.000517896
0.000184921
0.000407057
0.000259279
0.000230107
0.000247095
0.000218106
0.00040731
0.000117755
0.000178722
0.000212715
8.13021e-05
0.00021779
0.000210107
0.00227785
0.000468426
0.00234332
0.000595612
0.000591614
0.00255445
0.000378158
0.00047813
0.000585954
0.00255278
0.000483714
0.000620562
0.000574698
0.000512401
0.00251729
0.00106538
0.000757129
0.000667007
0.000726102
0.000389596
0.00258773
0.00103395
0.000525585
0.000694428
0.00108877
0.000682426
0.00132716
0.00237171
0.000878631
0.000584436
0.000726185
0.000960205
0.000868076
0.00127854
0.000899937
0.00265686
0.000401055
0.000340368
0.000833539
0.00106282
0.00179518
0.000824096
0.000856224
0.0023052
0.00260263
0.000995622
0.00101693
0.001252
0.00118886
0.000541693
0.000555783
0.000258391
0.000900747
0.00160362
0.00338864
0.000527296
0.000685752
0.000745979
0.000311228
0.00140629
0.00178363
0.00160626
0.000768814
0.00123793
0.00101267
0.00277959
0.000660535
0.000369916
0.000300328
0.000490219
0.000805888
0.000275448
0.00119602
0.000936049
0.000870997
0.00120935
0.000909159
0.00137296
0.000686389
0.000533262
0.000511303
0.000301182
0.000485484
0.00060273
0.000631566
0.000199592
0.000292358
0.000311739
0.000400308
0.000915055
0.000464138
0.000190886
0.000248115
0.000403309
0.000289117
0.000231882
0.000261689
0.000203254
0.00033794
0.000121452
0.000207915
0.000232107
0.000162072
0.00024548
0.000673098
0.00232364
0.000505095
0.00226305
0.000467677
0.000383953
0.00232447
0.000224607
0.000460701
0.000278585
0.00256179
0.000469152
0.000442871
0.000437469
0.000584035
0.00253274
0.000671039
0.000489155
0.00035386
0.000361301
0.000778599
0.0023899
0.00117207
0.000883482
0.000728388
0.000926896
0.000944255
0.000931064
0.00249052
0.00111661
0.000785165
0.000748509
0.0011485
0.000704221
0.000893007
0.000748538
0.00229742
0.000932161
0.000621045
0.0009161
0.000833351
0.000614707
0.00101773
0.00150809
0.00173757
0.00253247
0.00133209
0.000621512
0.000546992
0.00075832
0.00165397
0.000355056
0.000288177
0.00143782
0.00119384
0.00271967
0.00113897
0.000988891
0.000724822
0.00107983
0.000907735
0.000937004
0.000854321
0.000423606
0.00118836
0.00326773
0.00238562
0.000556255
0.000762358
0.000685966
0.000595427
0.000900106
0.000800197
0.00127183
0.00139889
0.000945969
0.000756916
0.00144674
0.00172633
0.000761118
0.000641661
0.000316839
0.000374881
0.000346756
0.000987167
0.000384913
0.000719291
0.000794429
0.000732486
0.000988314
0.000748316
0.00137347
0.00025618
0.000728973
0.000496152
0.00032726
0.000193618
0.000513504
0.000421157
0.000509893
0.000235949
0.000261664
0.000283165
0.000370234
0.00094188
0.000460573
0.000143645
0.000198102
0.000280069
0.000315302
0.000231276
0.000223807
0.00027573
0.000209453
0.000267743
0.000103895
0.000228181
0.000300039
0.000137871
0.000266182
0.000510427
0.00228286
0.00038689
0.00235225
0.000650661
0.000448399
0.00233051
0.000475351
0.000460706
0.000408782
0.00232364
0.000215557
0.00028676
0.000509712
0.000616603
0.00248242
0.000483343
0.000611717
0.000739717
0.000467144
0.000397196
0.00263356
0.000444692
0.000662754
0.000409366
0.000672344
0.000712629
0.000675573
0.00235623
0.000750844
0.00106413
0.000658933
0.000709555
0.000822989
0.000776378
0.000910238
0.00246603
0.00106059
0.000840955
0.000388751
0.0011305
0.00082896
0.00111451
0.00120565
0.00127383
0.00224871
0.000341591
0.000318208
0.000773729
0.000866089
0.00100145
0.0021114
0.000915512
0.00153963
0.00196851
0.00258949
0.0012209
0.00200956
0.000666535
0.000541517
0.000378201
0.000779134
0.00178755
0.000749441
0.00137186
0.000876799
0.00269013
0.000493489
0.000443498
0.00110355
0.00106529
0.00107222
0.000822322
0.000913989
0.000517991
0.000265654
0.00246029
0.00189984
0.00252615
0.000292032
0.000492957
0.000821611
0.000639724
0.00167839
0.000562157
0.000791339
0.00169861
0.0011489
0.00118281
0.000843141
0.00137313
0.00207265
0.000555284
0.000780376
0.000514719
0.000357866
0.000406208
0.000586984
0.0012246
0.000561402
0.000853518
0.000901736
0.00071917
0.000925293
0.000722162
0.00126791
0.000339295
0.000269496
0.000417915
0.000560789
0.000344042
0.00031506
0.000355651
0.000411277
0.000333666
0.0001027
0.00024293
0.000357653
0.000487624
0.000653372
0.000560078
0.000159317
0.00013793
0.000147937
0.000301257
0.000296229
0.000214635
0.000190915
0.000267261
0.000184976
0.000223451
0.000101131
0.000206891
0.000200316
9.96604e-05
0.000283756
0.000219837
0.00220873
0.000249362
0.0021865
0.000344733
0.000430559
0.00230729
0.000390787
0.000468083
0.000268169
0.00235526
0.000334595
0.000582833
0.000656228
0.000407584
0.00225412
0.000454924
0.000504255
0.000553575
0.000668078
0.000663834
0.00265315
0.000421946
0.0005437
0.000446468
0.000487149
0.0004429
0.000645395
0.00273366
0.000789701
0.000948874
0.000546306
0.000622475
0.000614277
0.000598583
0.000680116
0.00257962
0.000722034
0.000853442
0.000597179
0.0008902
0.00087297
0.000531439
0.000884447
0.000937184
0.00246717
0.000289558
0.000549418
0.000909284
0.00129544
0.000728543
0.000668159
0.00115801
0.00138415
0.00122261
0.00235748
0.000746846
0.000726125
0.000848246
0.000585451
0.000874931
0.00137686
0.00078097
0.000751604
0.00170981
0.00169097
0.00274707
0.000618101
0.000973274
0.0012698
0.000648933
0.000555256
0.00136626
0.00045542
0.000856632
0.000990267
0.000969861
0.00140264
0.00302288
0.00030296
0.000806308
0.0013512
0.000914269
0.00104242
0.00100804
0.000921048
0.000814571
0.0002203
0.000568549
0.00167346
0.00238881
0.00267738
0.000267376
0.000356657
0.000557057
0.000833219
0.000516508
0.00227186
0.000627696
0.00084148
0.00179048
0.00113581
0.0010955
0.000943344
0.000886372
0.00203082
0.000613456
0.000523147
0.000599714
0.000455135
0.000397655
0.000460245
0.000772535
0.000938552
0.000473137
0.000583488
0.000974988
0.000808729
0.000847948
0.000577139
0.00138991
0.00039862
0.000328813
0.000360545
0.000385598
0.000519626
0.000364611
0.000357948
0.00027623
0.000359423
0.000308809
0.000262752
0.000412738
0.000352417
0.000617699
0.000537654
0.000625459
0.000146923
0.000151021
0.000133366
0.000204726
0.000314648
0.000253611
0.000203038
0.000147683
0.000255404
0.000199924
0.00020104
0.000120066
0.000199663
0.000284932
0.000133721
0.000308422
0.000268088
0.00216194
0.000554871
0.00227776
0.000537265
0.000437379
0.00223128
0.000362895
0.00041146
0.000346769
0.00232154
0.000410758
0.000541467
0.000589875
0.000446266
0.00235372
0.000449901
0.000410346
0.000446467
0.000601693
0.000516586
0.00238126
0.000465866
0.000367515
0.000387041
0.000701984
0.000584221
0.000509566
0.00231306
0.000607162
0.000562061
0.000503576
0.00045576
0.000333241
0.000725637
0.000811829
0.00280386
0.00071661
0.00080639
0.000825443
0.000721175
0.000550431
0.000433797
0.000286648
0.00101231
0.00265556
0.000653637
0.000680311
0.000771955
0.000688541
0.000772506
0.000876246
0.000985296
0.000778548
0.000807819
0.00246738
0.000596163
0.000185573
0.000841155
0.000982068
0.000763883
0.000771139
0.00142068
0.000832457
0.00135298
0.00125683
0.0023331
0.00041705
0.000710899
0.000636469
0.000372358
0.000683927
0.000952918
0.000260301
0.00107819
0.00109117
0.00123637
0.00160536
0.00288483
0.000534852
0.000569668
0.00159414
0.00123773
0.000399487
0.00044804
0.000711576
0.000645813
0.000800851
0.000443497
0.0012227
0.00114257
0.0036097
0.00049379
0.000508983
0.000388223
0.00128345
0.000673963
0.000763056
0.00118804
0.00100496
0.00099768
0.000146243
0.000963263
0.000562269
0.00157552
0.00265834
0.000361899
0.000351551
0.000433387
0.000696666
0.000924003
0.000877903
0.000669927
0.000695699
0.00102399
0.00187694
0.00108784
0.000863301
0.00107049
0.000620119
0.00252635
0.000641276
0.000574962
0.000527944
0.000533605
0.00044262
0.000407318
0.000666414
0.000878944
0.000611546
0.000421431
0.000399754
0.00057945
0.00104929
0.000829634
0.000462087
0.00185321
0.000426316
0.000408551
0.000359405
0.00049123
0.000429309
0.00057446
0.000174003
0.000273401
0.000305815
0.000288578
0.000342965
0.000252924
0.000358672
0.000410847
0.000619017
0.000471944
0.000677254
0.000111793
0.000151265
0.000139523
0.000141148
0.000165637
0.000337601
0.000211248
0.000198327
0.00011355
0.000239568
0.000250728
0.000200878
0.000123946
0.00027692
0.000399671
0.000123305
0.000332253
0.000334744
0.002135
0.000557206
0.00223908
0.000546414
0.00037581
0.0022246
0.000439619
0.000409227
0.000373292
0.00223318
0.000396597
0.000351955
0.00050333
0.000536432
0.0022839
0.000486428
0.000319517
0.000688442
0.000559352
0.000543234
0.00224532
0.000433225
0.000322985
0.000536921
0.000615097
0.000620086
0.000412777
0.00225478
0.000525882
0.000454411
0.000342652
0.000320361
0.000434855
0.000895856
0.000977404
0.0025116
0.000631003
0.000648244
0.000409892
0.000465232
0.000434754
0.000532609
0.000430093
0.000915241
0.00259855
0.000696921
0.000891801
0.000709642
0.000689339
0.000694726
0.000515912
0.000532827
0.000584932
0.000922176
0.00251828
0.00108245
0.000356476
0.000636442
0.00103413
0.000904
0.000817045
0.000841331
0.000969085
0.000803944
0.00114181
0.00242911
0.000761001
0.000299587
0.000493992
0.00116301
0.000634452
0.000796401
0.00167107
0.000947812
0.000812884
0.00100707
0.00115296
0.00225965
0.000478383
0.00108333
0.000725966
0.00042003
0.000436269
0.000668533
0.000418999
0.000960319
0.000194999
0.000827286
0.000883873
0.00179584
0.00312205
0.000593772
0.000419906
0.000747927
0.00114724
0.000847803
0.000521802
0.00073233
0.000552319
0.000439522
0.000785703
0.00103907
0.00100163
0.000954657
0.0032837
0.000548389
0.000507986
0.000513108
0.000658801
0.000960718
0.000635859
0.00114706
0.00142004
0.000911723
0.000747375
0.000362451
0.00102334
0.00119063
0.00142181
0.00294151
0.000457304
0.000499583
0.000264296
0.000616618
0.000912784
0.0010549
0.00103779
0.00108315
0.000592343
0.00112343
0.00156134
0.00116123
0.000914097
0.000949848
0.000974096
0.00254327
0.000603749
0.000660337
0.000503935
0.000564151
0.000637874
0.000435009
0.00056663
0.000467633
0.000474211
0.000411998
0.000659463
0.000607987
0.00122332
0.00104645
0.000758853
0.000324464
0.00163859
0.000582437
0.000366063
0.000378256
0.000438796
0.000485441
0.000516594
0.000508604
0.000243514
0.000197115
0.000336237
0.00023739
0.000195907
0.00018084
0.000387298
0.000426066
0.00059187
0.000353399
0.000733084
0.000144509
6.01642e-05
0.000156988
0.000157613
0.000162931
0.000112498
0.000345506
0.000194007
0.000198212
9.37955e-05
0.000215471
0.000275135
0.000199057
0.000106633
0.000214436
0.000295984
0.000118801
0.000348572
0.000375752
0.00211247
0.000230152
0.00209671
0.000527163
0.000463858
0.00222007
0.000281924
0.000291271
0.000443561
0.00227998
0.000363422
0.000378046
0.000269566
0.000454352
0.00218698
0.000488382
0.000335847
0.000487628
0.000612193
0.000554329
0.00228667
0.000361493
0.000413855
0.00029667
0.000464053
0.000410813
0.000396947
0.00250205
0.000405637
0.00070735
0.00039836
0.00033753
0.000452166
0.000908945
0.0012653
0.00214268
0.000633281
0.000633398
0.000397972
0.000590213
0.00056258
0.000355635
0.000664334
0.00063844
0.0023965
0.000627176
0.000773087
0.000451264
0.000520837
0.000447883
0.000383346
0.000664981
0.000604687
0.000719738
0.00243261
0.000670592
0.000733794
0.000622964
0.000865984
0.000602893
0.000514852
0.000712976
0.000444774
0.00043539
0.000887571
0.00252111
0.000838684
0.000774159
0.00044327
0.000759259
0.000781256
0.000696501
0.000946339
0.00112518
0.000882872
0.000749321
0.000970313
0.0025693
0.00110521
0.0008674
0.000286662
0.000575369
0.000839251
0.000799346
0.000854549
0.000565307
0.00114165
0.000980197
0.000893163
0.000805786
0.00305267
0.000870269
0.00113895
0.000998158
0.00139552
0.000289839
0.000689876
0.000490454
0.000521666
0.000645562
0.000496663
0.000441659
0.000882425
0.00140345
0.00282825
0.000376773
0.000241071
0.00047288
0.000495185
0.00215466
0.000743534
0.000426597
0.000947546
0.000743992
0.000615376
0.00115281
0.00109411
0.000932613
0.00121591
0.00287819
0.000434671
0.000473144
0.000554116
0.000339619
0.000584473
0.000829665
0.000698169
0.000971958
0.00147897
0.00088116
0.000365332
0.000384504
0.00062527
0.00111102
0.00169413
0.00318594
0.000172373
0.000363406
0.000366012
0.000324201
0.000641528
0.000890906
0.000816274
0.000822645
0.00134884
0.000805177
0.00131803
0.00120174
0.00143197
0.000561457
0.00206692
0.00159481
0.00236874
0.000438032
0.000818003
0.000663931
0.00054135
0.000735042
0.000432538
0.000629483
0.0005684
0.000529419
0.00032368
0.00052133
0.000566104
0.000602092
0.00132574
0.000908019
0.000785186
0.000496057
0.00102172
0.00027933
0.000433624
0.000280856
0.000357838
0.000522077
0.000557791
0.000734384
0.000321449
0.000343171
0.000179598
0.000370605
0.000248286
0.00017033
0.000417233
0.000474745
0.000417257
0.000640813
0.000198369
0.000710735
0.0001208
0.000177598
9.54462e-05
0.000123258
0.000149274
0.000186107
0.000184591
0.000355489
0.000195551
0.00018854
0.000130251
0.000188411
0.000116315
0.000186822
0.000130133
0.000211991
0.000187369
0.000139166
0.000346707
0.000413979
0.00211245
0.000358271
0.0020556
0.000430263
0.000248802
0.00210181
0.000576166
0.000332264
0.000347468
0.00220884
0.000501415
0.000270172
0.000305514
0.000453694
0.00222595
0.000363089
0.000219635
0.000217343
0.000344375
0.000425122
0.00215789
0.000316091
0.000427473
0.000245803
0.000670463
0.000434911
0.000630435
0.00224787
0.000322002
0.000568978
0.0003773
0.00040365
0.000322306
0.00111377
0.00079258
0.00215894
0.000458832
0.000425869
0.000580066
0.000424065
0.000397545
0.000449586
0.000593582
0.000650766
0.00217342
0.00059992
0.0004375
0.00061724
0.000293574
0.000519185
0.000472291
0.000523086
0.000422031
0.0010514
0.00229475
0.000530401
0.00053457
0.000802337
0.000469685
0.00068939
0.000468873
0.000668113
0.000400209
0.000614629
0.000543321
0.00252054
0.000636009
0.000647361
0.00045822
0.00064221
0.000897587
0.000548874
0.000552493
0.000698053
0.000306601
0.000417676
0.000598322
0.0024938
0.000759554
0.0011653
0.000685663
0.000642712
0.000698541
0.000747011
0.00101963
0.000866567
0.000487802
0.000879596
0.000620468
0.00062525
0.0023883
0.00103454
0.000846075
0.000785231
0.000417904
0.000299144
0.000821438
0.000806235
0.000716995
0.00114489
0.000999017
0.000648771
0.000923922
0.000838113
0.00263295
0.000437312
0.000670966
0.000636061
0.000916188
0.000920544
0.000348594
0.000303533
0.000443313
0.000794443
0.000199675
0.000794777
0.00143855
0.000979183
0.0011631
0.00303398
0.000417801
0.00100153
0.000800289
0.000801909
0.0010513
0.000882092
0.000743436
0.000658001
0.000583479
0.000779093
0.000845637
0.000976502
0.000673708
0.000904316
0.00266489
0.00307117
0.000560768
0.000541452
0.000280342
0.000411693
0.000309122
0.000603756
0.000792324
0.000754731
0.00104135
0.00106282
0.00111022
0.000416276
0.000554477
0.00144612
0.000929606
0.00134075
0.0035378
0.000382934
0.000203846
0.000237627
0.000428247
0.000355381
0.000618805
0.000771209
0.000679266
0.000569376
0.000755025
0.000880922
0.0012689
0.0010099
0.000997811
0.00102573
0.0019003
0.00120375
0.0022766
0.000448845
0.000512382
0.000769752
0.000575618
0.000525299
0.000893913
0.000344697
0.000618022
0.000566867
0.00046474
0.000434259
0.0004065
0.000381193
0.000868603
0.00058642
0.000729394
0.00096817
0.000700361
0.00133677
0.000319843
0.000249131
0.00033143
0.000252122
0.000401831
0.000397509
0.000468146
0.000856848
0.000369425
0.000366319
0.000225431
0.000355472
0.000259333
0.000193808
0.000323075
0.00036617
0.000404425
0.000537342
0.00033529
0.000602773
0.000122813
0.000114365
0.000258946
6.57281e-05
0.000104793
0.000152616
0.000176312
0.000208175
0.000348004
0.000202419
0.000180031
0.000191909
0.000177173
0.000133219
0.000172717
0.000165031
0.000230851
0.000160785
0.000139931
0.000327929
0.000453945
0.00219595
0.000388123
0.00217403
0.000346477
0.000310515
0.00209399
0.000188035
0.000299911
0.000397657
0.00214824
0.000368426
0.000522377
0.000261953
0.000432802
0.00219538
0.00027929
0.000538049
0.000396955
0.000415094
0.000655401
0.002143
0.0003201
0.000332826
0.000296291
0.000297644
0.000313686
0.000628662
0.00221333
0.000476576
0.000404057
0.000366669
0.000180623
0.000564431
0.000308054
0.000336501
0.00219585
0.000474397
0.000341912
0.000596336
0.000479627
0.000336496
0.00039837
0.000595762
0.000720705
0.00227202
0.000477332
0.000460162
0.00047656
0.00050956
0.000506249
0.000546949
0.000478112
0.000724987
0.00052575
0.00214546
0.000585972
0.000534021
0.00058063
0.000452525
0.000434811
0.000323534
0.000348662
0.000566522
0.000687128
0.000933109
0.00238103
0.00082076
0.000743004
0.000696583
0.000493764
0.000674644
0.000443256
0.00043638
0.000704223
0.000299632
0.000425447
0.000707601
0.00248577
0.000890698
0.000798922
0.000511323
0.000413333
0.000788083
0.000636468
0.000730588
0.000707681
0.00057102
0.000239494
0.000336679
0.000269443
0.00249802
0.000672489
0.00084003
0.000905475
0.000508546
0.000601564
0.000699087
0.000804334
0.000700198
0.00076889
0.000850189
0.000668722
0.000626905
0.000390994
0.00237135
0.00124595
0.000829008
0.00114952
0.000522833
0.000389706
0.00087764
0.000948179
0.000591802
0.00119698
0.000627188
0.000786712
0.000620937
0.000825231
0.000770515
0.00209369
0.000413523
0.000542875
0.000500428
0.000914065
0.00123546
0.000872433
0.000412394
0.000413825
0.000614383
0.000535461
0.000429209
0.000583699
0.000513905
0.000937065
0.000995794
0.00299277
0.000691133
0.000920561
0.000637292
0.000626715
0.000481988
0.00144035
0.000720749
0.000622191
0.000717192
0.000680059
0.000967021
0.000849802
0.00107927
0.00124516
0.00120429
0.00190919
0.00279299
0.000381753
0.000643217
0.000268279
0.000387756
0.000428779
0.000467518
0.000894348
0.000941302
0.00122277
0.00116131
0.00123162
0.00078955
0.000762023
0.000707851
0.00112013
0.00142792
0.00133192
0.00325857
0.000431358
0.000645193
0.000721375
0.000213378
0.00037533
0.000444377
0.000870407
0.000937213
0.000569485
0.000467356
0.000763158
0.000726681
0.00106592
0.000696939
0.000779425
0.00239383
0.000765102
0.0010152
0.00255475
0.000299011
0.000453529
0.000380632
0.000649427
0.000735327
0.000567072
0.000777601
0.000334983
0.000534576
0.000695648
0.000413823
0.000313556
0.000404422
0.000437943
0.000760909
0.000253686
0.000642876
0.000957337
0.000854509
0.00172771
0.000291245
0.00030432
0.00030896
0.000380946
0.000212406
0.000444511
0.000337617
0.000217121
0.000668472
0.000482822
0.000270952
0.000220055
0.000352806
0.000294834
0.000196587
0.00038203
0.000309694
0.000421409
0.000593591
0.000497749
0.000574739
0.000145546
0.000164925
0.00011881
0.000129602
0.00010446
0.000116968
0.000165479
0.000151171
0.000287505
0.000280815
0.000144918
0.000171937
0.000180603
0.000175898
0.000184823
0.000162154
0.000143227
0.000249766
0.000154205
0.00012324
0.000305191
0.000458099
0.00212678
0.000691406
0.00220635
0.000207097
0.000330416
0.00219098
0.000271038
0.000332916
0.000414681
0.00210559
0.000271958
0.000368702
0.000251302
0.000296724
0.00219168
0.000408018
0.000426659
0.000392662
0.00035185
0.000492988
0.00215691
0.000174729
0.000250642
0.000477327
0.000385267
0.000369298
0.00058873
0.0021996
0.000662262
0.000400152
0.000399488
0.000277432
0.000354412
0.000420506
0.000696365
0.00218379
0.000468592
0.000396175
0.000368584
0.000226815
0.000528102
0.000599847
0.00128212
0.000491153
0.00211834
0.00051595
0.000443251
0.000237116
0.000380162
0.000446377
0.000433348
0.00053519
0.000125125
0.000232208
0.00224307
0.000728758
0.000681415
0.00031432
0.000612953
0.000657896
0.00055671
0.000485833
0.000491779
0.00070292
0.000796138
0.00206504
0.000953282
0.000606498
0.000468803
0.000671469
0.000431749
0.000444926
0.000415702
0.000568221
0.000403227
0.000507756
0.000894717
0.0024339
0.000768916
0.000513868
0.000491732
0.000664723
0.000596891
0.000642569
0.000555112
0.00057666
0.000351722
0.000508911
0.000454079
0.000412066
0.00255284
0.00080172
0.000792853
0.000670463
0.000938531
0.000531317
0.000660868
0.000573335
0.000757136
0.000383313
0.000478131
0.000423975
0.000466247
0.000444043
0.00251271
0.000563321
0.000927546
0.00103669
0.00118144
0.000199971
0.000523124
0.000728027
0.00082427
0.000495891
0.000848727
0.000933292
0.000581863
0.000470195
0.000830741
0.00236208
0.0011585
0.000826088
0.000589592
0.000610611
0.000438655
0.000443064
0.000848536
0.00076787
0.000746506
0.00104958
0.000720627
0.000267587
0.000833635
0.00112144
0.000825648
0.00249149
0.000512111
0.000635839
0.000780719
0.000677792
0.000988486
0.000797534
0.000794806
0.000462031
0.000264651
0.000745058
0.000545103
0.000693931
0.000941484
0.000488136
0.000635355
0.00175299
0.00292345
0.000731997
0.000833063
0.000374585
0.000451285
0.000514954
0.000205256
0.00086513
0.000890419
0.000583971
0.000664586
0.0010162
0.000747252
0.00149878
0.000839647
0.00110832
0.00139496
0.00165861
0.00316344
0.000329385
0.000467153
0.000351831
0.000563494
0.000425048
0.000478841
0.000566835
0.000662499
0.000970975
0.000744415
0.000770583
0.00125307
0.000713959
0.000715005
0.000785516
0.000690407
0.00098548
0.00125414
0.00302035
0.000432819
0.000485577
0.000429594
0.000511915
0.000382904
0.00062795
0.000785794
0.00088695
0.000827098
0.000574296
0.000405115
0.000600576
0.000712307
0.000865295
0.000829226
0.00104666
0.0020395
0.00147605
0.00103537
0.00172357
0.000246479
0.000309239
0.00049349
0.000462139
0.000647004
0.000759144
0.000627063
0.000719057
0.000271208
0.000405379
0.00050933
0.000311241
0.000404225
0.000431771
0.000480785
0.000447601
0.000421123
0.000534448
0.000892535
0.00187994
0.0015223
6.24099e-05
0.000279546
0.000281207
0.000288061
0.000347589
0.000215737
0.000506226
0.000398286
0.000340116
0.000578458
0.000357856
0.000258127
0.000314504
0.000403377
0.000253362
0.000178795
0.000146912
0.000274959
0.000416409
0.000509419
0.000618834
0.000617768
0.000584855
8.12111e-05
0.000134189
0.000152796
0.000269013
0.000161738
0.000107368
8.40507e-05
0.000168685
0.000158903
0.00037008
0.000304882
0.000208356
0.000144139
0.000144296
0.000174721
0.000147898
0.000175521
0.000174719
0.000238316
0.000144023
0.000107659
0.00028264
0.000436027
0.00198582
0.000369551
0.00207902
0.000303664
0.000423411
0.00209461
0.000610914
0.000142171
0.000427697
0.00215631
0.000396543
9.57875e-05
0.000325913
0.000372835
0.00211799
0.000541738
0.000311869
0.000382512
0.000193095
0.000465353
0.00211275
0.000231084
0.000524683
0.000519809
0.000367876
0.000292792
0.000237794
0.0021552
0.000378758
0.000265154
0.000299083
0.000441694
0.000753904
0.000336624
0.000404431
0.00214921
0.000598621
0.000432598
0.000336071
0.000420727
0.000174151
0.000237751
0.000297014
0.000486912
0.0021859
0.000371118
0.000577524
0.000473603
0.000357845
0.000327959
0.000512536
0.000566825
0.000402524
0.000387202
0.00215834
0.000473001
0.000535893
0.000406213
0.00029274
0.000431978
0.000355509
0.000430183
0.000502155
0.000837502
0.00068695
0.00214875
0.000569219
0.00068962
0.000454497
0.000346047
0.000478076
0.000528819
0.000439516
0.000559828
0.000620033
0.000549894
0.000595638
0.00208032
0.000424796
0.0005803
0.000654601
0.000538939
0.000561567
0.000452447
0.000490766
0.000384794
0.000492701
0.000392927
0.000451762
0.00072041
0.00231229
0.000609202
0.000728039
0.000771464
0.000463504
0.000539033
0.000525653
0.000465159
0.000608284
0.000677524
0.000516764
0.000310022
0.000763272
0.000387712
0.00265713
0.000716473
0.000750759
0.000725298
0.000713609
0.000424838
0.000793077
0.000599376
0.000684329
0.000631385
0.000430454
0.000685212
0.000382071
0.000401715
0.000537645
0.00246822
0.000802561
0.000604268
0.000833774
0.00105229
0.000814876
0.000764076
0.000739101
0.000876204
0.000911707
0.00104526
0.00100851
0.000396849
0.00066714
0.000476323
0.000737461
0.00253599
0.00104791
0.000764122
0.000460244
0.000965743
0.000849665
0.000335866
0.000390898
0.00045844
0.000629854
0.000926027
0.000472328
0.000420234
0.000638995
0.000548883
0.000989419
0.00062351
0.00225571
0.000899079
0.000490101
0.000539098
0.000528165
0.000723783
0.000829216
0.000539869
0.000731027
0.000593593
0.000842042
0.000705269
0.000730435
0.000705557
0.00108377
0.00124816
0.00109329
0.00100119
0.00267361
0.000907232
0.000627982
0.000630598
0.000499162
0.000381553
0.00041703
0.000547504
0.000923362
0.000801612
0.000242855
0.000787425
0.00140972
0.000692648
0.000996969
0.00061985
0.00144231
0.00131227
0.00141222
0.00326451
0.000319528
0.000394588
0.000457277
0.000483926
0.000534068
0.00046863
0.000202442
0.00081901
0.00069783
0.00086814
0.00134461
0.000827823
0.00103384
0.00074251
0.0010005
0.000564672
0.00167847
0.00147273
0.00136111
0.0031975