/*--------------------------------*- C++ -*----------------------------------*\
  =========                 |
  \\      /  F ield         | OpenFOAM: The Open Source CFD Toolbox
   \\    /   O peration     | Website:  https://openfoam.org
    \\  /    A nd           | Version:  7
     \\/     M anipulation  |
\*---------------------------------------------------------------------------*/
FoamFile
{
    version     2.0;
    format      ascii;
    class       volScalarField;
    location    "2";
    object      p;
}
// * * * * * * * * * * * * * * * * * * * * * * * * * * * * * * * * * * * * * //

dimensions      [0 2 -2 0 0 0 0];

internalField   nonuniform List<scalar> 
18750
(
-68.775
-68.1574
-69.9491
-68.9172
-66.2968
-69.3786
-68.1759
-70.4192
-70.0378
-69.1334
-64.1078
-66.1594
-66.0483
-69.5535
-69.449
-68.236
-70.813
-70.3819
-70.1212
-69.2482
-62.6704
-66.6673
-64.3861
-68.0683
-66.1339
-65.9513
-69.7738
-69.6237
-69.5058
-68.3379
-71.4685
-70.827
-70.3833
-70.2151
-69.2934
-60.9494
-64.7459
-62.7409
-68.9344
-67.3437
-64.5798
-68.902
-68.2459
-66.3562
-66.1472
-69.975
-69.8554
-69.714
-69.6112
-68.4706
-71.601
-71.576
-70.8295
-70.3749
-70.2961
-69.3672
-59.1325
-61.9157
-60.862
-65.7882
-65.0103
-62.9469
-68.889
-69.4182
-67.7397
-64.666
-69.0277
-69.0122
-68.3874
-66.5026
-66.498
-71.008
-70.1133
-69.9643
-69.8252
-69.7188
-68.6482
-71.4243
-71.6656
-71.6784
-70.8297
-70.347
-70.3697
-69.6175
-58.1124
-59.5633
-58.9649
-62.6819
-62.2504
-61.0508
-66.3646
-65.5895
-65.4814
-63.3298
-67.8357
-68.9081
-68.9975
-67.846
-65.0933
-69.1399
-69.1567
-69.0376
-68.4479
-66.5761
-66.9953
-70.9651
-71.1241
-70.2285
-70.1003
-69.9278
-69.8406
-68.8756
-71.3069
-71.4397
-71.7034
-71.8131
-70.8597
-70.3351
-70.4375
-69.9288
-56.6261
-58.1679
-57.8182
-59.9269
-59.3631
-58.9706
-63.4884
-62.6666
-62.6018
-61.4757
-66.6847
-66.0479
-65.3831
-65.8948
-63.3897
-67.8698
-67.8802
-68.6826
-68.6576
-68.1128
-65.7239
-69.5284
-69.1888
-69.3408
-69.0973
-68.5556
-66.8055
-67.6059
-70.9986
-71.0598
-71.2269
-70.3759
-70.2591
-70.0028
-69.9742
-69.1361
-71.1018
-71.324
-71.4526
-71.7533
-71.9072
-70.9096
-70.3529
-70.4925
-70.2542
-55.8785
-56.8508
-56.3521
-58.538
-58.0688
-57.8299
-60.6182
-59.8578
-59.2725
-59.0719
-64.2556
-63.6099
-62.8567
-62.5673
-61.883
-67.1359
-66.5766
-65.6139
-65.564
-66.6547
-63.6308
-68.4744
-67.898
-67.8984
-68.6138
-68.9534
-68.3027
-65.9772
-69.7487
-69.3951
-69.2476
-69.4622
-69.3394
-68.6636
-67.1674
-68.3591
-70.7047
-71.0664
-71.1225
-71.3389
-70.6252
-70.4628
-70.0652
-70.1102
-69.4117
-71.1554
-71.1094
-71.3602
-71.4677
-71.8168
-71.9367
-70.9315
-70.3901
-70.5323
-70.3741
-55.0684
-55.8917
-55.8597
-56.9015
-56.7994
-56.2477
-58.849
-58.4175
-57.9253
-57.7311
-61.6516
-60.7516
-60.0104
-59.0894
-58.8749
-64.9155
-64.0164
-63.5399
-62.9416
-62.9114
-62.1543
-67.1058
-66.9758
-66.1578
-65.6143
-65.8917
-67.1842
-64.3116
-69.4728
-68.29
-68.0133
-67.921
-68.8596
-69.233
-68.6324
-66.7701
-69.6993
-69.6312
-69.3897
-69.3503
-69.6581
-69.6428
-68.8338
-67.7478
-69.1929
-70.9114
-70.71
-71.1237
-71.1978
-71.461
-70.9321
-70.7275
-70.1776
-70.2459
-69.6892
-71.2403
-71.1625
-71.1143
-71.3843
-71.4849
-71.8721
-71.9486
-70.954
-70.4441
-70.5685
-70.4059
-54.4229
-55.0598
-55.1576
-56.0583
-55.8907
-55.7283
-57.1058
-56.8311
-56.5664
-56.3826
-59.0935
-58.8793
-58.2927
-57.9044
-57.4925
-61.9398
-61.6447
-60.8406
-60.0944
-58.1454
-58.9658
-65.2925
-64.0576
-63.5985
-63.7614
-62.6543
-63.3098
-61.751
-67.9856
-67.0577
-66.7121
-65.6155
-65.7778
-66.2903
-67.8159
-64.8008
-69.6939
-69.3669
-68.0842
-68.0243
-67.7269
-69.1525
-69.9808
-69.4297
-67.747
-69.864
-69.6169
-69.6009
-69.4483
-69.406
-69.8268
-69.9432
-69.0502
-68.6412
-70.1689
-70.7094
-70.8789
-70.7173
-71.2107
-71.2956
-71.5746
-71.2498
-70.9745
-70.3234
-70.3655
-69.9617
-71.1223
-71.2722
-71.1683
-71.1221
-71.397
-71.503
-71.9184
-71.9501
-71.0026
-70.5006
-70.6041
-70.5608
-53.9877
-54.5457
-54.4275
-55.3038
-55.0798
-55.0239
-56.2331
-55.9899
-55.8824
-55.6831
-57.4995
-57.1526
-56.7086
-56.5328
-56.3063
-59.3256
-59.1772
-58.655
-58.2406
-57.4499
-57.3333
-62.2795
-61.9688
-61.656
-60.7633
-60.1079
-58.9225
-59.0725
-66.0498
-65.1196
-64.855
-63.8618
-63.7875
-62.9652
-62.9476
-61.5425
-68.0108
-67.9465
-66.8556
-66.8213
-65.5685
-66.1194
-66.8464
-69.1094
-65.2517
-69.2862
-69.6359
-69.3675
-67.9064
-68.0289
-67.4725
-69.356
-70.6327
-70.6307
-68.3781
-69.8947
-69.7457
-69.5314
-69.5998
-69.4712
-69.4945
-69.9973
-70.2161
-69.3176
-69.6663
-71.2673
-70.8442
-70.7025
-70.8757
-70.7281
-71.3122
-71.3704
-71.6828
-71.5886
-71.1759
-70.4292
-70.4922
-70.2108
-70.8098
-71.0904
-71.294
-71.1769
-71.1332
-71.4125
-71.5415
-71.961
-71.9495
-71.0445
-70.5479
-70.6408
-70.7474
-53.5354
-53.9593
-53.9432
-54.6071
-54.5261
-54.3327
-55.3702
-55.1736
-55.0046
-54.9464
-56.3811
-56.16
-55.9621
-55.6842
-55.7132
-57.5978
-57.5066
-57.0154
-56.6348
-56.6263
-56.1361
-59.621
-59.6144
-59.0309
-58.266
-58.1044
-57.421
-57.2303
-62.9189
-62.0915
-61.8742
-62.015
-60.8219
-60.1871
-58.9309
-58.9633
-66.1527
-65.9037
-64.8928
-64.2745
-64.9178
-63.5467
-63.3207
-63.1391
-62.2926
-68.5666
-68.0627
-67.7903
-66.9387
-66.8583
-66.6513
-66.5072
-67.9809
-69.5134
-65.9354
-70.2895
-69.0209
-69.6036
-69.2059
-67.8607
-67.8528
-67.2762
-69.429
-71.3745
-72.5448
-69.7709
-70.6434
-69.8416
-69.6263
-69.4401
-69.5311
-69.4916
-69.7412
-70.2546
-70.525
-69.6118
-70.5625
-72.3165
-71.0493
-70.7964
-70.7248
-70.8875
-70.752
-71.479
-71.4461
-71.8137
-71.936
-71.3615
-70.5123
-70.5632
-70.4481
-70.9096
-70.8146
-71.0678
-71.3008
-71.1887
-71.1503
-71.4322
-71.5926
-72.0033
-71.9455
-71.068
-70.5744
-70.6794
-70.8227
-53.2425
-53.542
-53.5419
-54.0057
-53.9562
-53.8433
-54.6803
-54.5301
-54.4674
-54.2798
-55.4401
-55.2476
-55.1152
-54.952
-54.9061
-56.5385
-56.3208
-56.0662
-55.8351
-55.6017
-55.6651
-57.8507
-57.7142
-57.4107
-56.6873
-56.6016
-55.9752
-56.0702
-60.0602
-59.8262
-59.4351
-58.8619
-58.3786
-57.6389
-57.7293
-57.222
-63.3089
-62.9867
-62.4785
-61.5674
-61.9044
-60.6291
-60.346
-58.496
-58.8157
-66.4349
-65.8002
-65.6934
-64.9179
-63.1481
-64.489
-63.4904
-63.647
-63.6987
-62.44
-70.3918
-68.119
-68.1269
-67.72
-66.9052
-66.9198
-66.5737
-66.9517
-68.9084
-70.5223
-66.9642
-70.8689
-70.0061
-68.8471
-69.511
-68.8734
-67.9063
-67.5391
-67.3392
-69.7807
-72.479
-73.7691
-71.1935
-71.4603
-70.5179
-69.7637
-69.5171
-69.3461
-69.5381
-69.5324
-69.8777
-70.5032
-70.7869
-69.9547
-71.3208
-73.2027
-71.1386
-70.908
-70.7177
-70.77
-70.9016
-70.7916
-71.6673
-71.5566
-71.9477
-72.2579
-71.5104
-70.5638
-70.6005
-70.623
-71.2182
-70.9218
-70.8016
-71.0662
-71.3091
-71.2031
-71.1715
-71.4517
-71.6358
-72.0441
-71.9379
-71.0917
-70.6017
-70.7178
-70.8813
-52.9771
-53.2909
-53.2295
-53.6292
-53.5579
-53.4853
-54.0781
-53.9749
-53.9174
-53.8326
-54.7612
-54.638
-54.4123
-54.2941
-54.183
-55.5218
-55.3817
-55.1108
-55.0325
-54.9523
-54.8547
-56.6537
-56.4015
-56.2254
-55.9643
-55.765
-55.5602
-55.5118
-58.1626
-57.9916
-57.585
-57.054
-56.6195
-56.4718
-56.062
-55.9969
-60.3677
-60.0568
-60.0359
-59.4361
-58.4966
-58.2512
-57.4871
-57.355
-57.1919
-63.281
-63.3995
-62.9028
-62.3254
-61.7906
-60.8661
-60.4402
-59.861
-58.8007
-58.8006
-67.7347
-65.2386
-66.0011
-65.6052
-64.4223
-63.5958
-63.4181
-63.373
-63.845
-62.6628
-62.4606
-71.6747
-69.7092
-67.8387
-68.2557
-67.5036
-66.7377
-66.8049
-67.0403
-67.6995
-69.469
-71.4635
-67.2536
-71.6088
-70.8001
-69.6602
-68.7962
-69.46
-68.7172
-67.7498
-67.3682
-67.7393
-70.2101
-72.864
-74.6048
-72.2007
-71.4636
-71.3979
-70.3951
-69.6665
-69.4504
-69.2628
-69.5333
-69.6545
-69.996
-70.6908
-71.0173
-70.2763
-71.8785
-73.7751
-71.8309
-71.1172
-70.8188
-70.6098
-70.7957
-70.9264
-70.8221
-71.8518
-71.6908
-72.076
-72.5499
-71.6807
-70.5757
-70.6543
-70.705
-71.5256
-71.2002
-70.933
-70.7758
-71.0586
-71.3203
-71.2205
-71.1968
-71.4724
-71.6848
-72.0833
-71.9252
-71.0998
-70.6284
-70.7553
-71.0249
-52.7326
-53.0047
-52.9803
-53.2419
-53.2475
-53.2108
-53.6734
-53.5818
-53.5596
-53.4036
-54.1722
-54.0377
-53.8809
-53.84
-53.7996
-54.7889
-54.6798
-54.5254
-54.3199
-54.255
-54.0296
-55.5868
-55.4376
-55.3273
-55.2282
-54.9457
-54.8566
-54.6718
-56.6701
-56.5155
-56.3522
-56.0999
-55.7959
-55.7702
-55.4776
-55.5338
-58.4994
-58.1315
-57.8958
-57.2608
-56.9076
-56.4141
-56.2371
-55.9825
-56.042
-60.9382
-60.517
-59.8828
-59.2339
-59.5451
-58.3349
-58.1094
-57.4498
-57.2583
-57.1045
-63.7872
-63.2338
-63.4101
-62.6767
-62.03
-62.127
-60.8482
-60.394
-59.7938
-59.0449
-58.5753
-69.4322
-67.2531
-65.2983
-66.1176
-65.5509
-64.1577
-63.9361
-63.4662
-63.5251
-63.429
-62.6532
-61.9507
-71.9062
-71.3419
-68.9405
-67.7291
-68.5529
-67.2803
-66.659
-66.957
-67.3447
-67.9876
-70.466
-71.5329
-67.5103
-71.7848
-71.5451
-70.5615
-69.3196
-68.7661
-69.4197
-68.624
-67.6938
-67.1429
-68.0004
-70.622
-73.1394
-75.1856
-73.2118
-71.6588
-71.497
-71.2727
-70.2706
-69.571
-69.4634
-69.3536
-69.6037
-69.7456
-70.1799
-70.8719
-71.1744
-70.5622
-72.1689
-74.0308
-72.1655
-71.8278
-71.0812
-70.7804
-70.5342
-70.8767
-70.9612
-70.861
-71.9702
-71.8086
-72.1987
-72.8068
-71.7872
-70.5729
-70.6831
-70.7504
-72.011
-71.5152
-71.1803
-70.942
-70.7428
-71.0495
-71.3345
-71.2419
-71.2195
-71.4829
-71.7557
-72.1253
-71.9103
-71.1259
-70.6479
-70.792
-71.1024
-52.5828
-52.8154
-52.7338
-53.0136
-52.9977
-52.9365
-53.3262
-53.2839
-53.2317
-53.158
-53.6868
-53.5887
-53.5106
-53.4762
-53.4159
-54.1598
-54.0819
-54.0801
-53.8269
-53.7404
-53.6033
-54.8208
-54.7921
-54.6188
-54.3861
-54.2881
-54.1616
-54.1227
-55.5522
-55.4557
-55.3988
-55.2185
-55.1013
-54.8778
-54.6688
-54.5539
-56.9505
-56.7363
-56.5261
-56.2447
-56.041
-55.8059
-55.7446
-55.4819
-55.5692
-58.9205
-58.4804
-57.9563
-57.6247
-57.3263
-56.806
-56.4257
-56.1748
-56.1275
-56.1197
-61.3003
-60.9588
-60.0666
-59.7844
-59.6223
-59.1959
-58.3198
-58.1595
-57.174
-57.1523
-57.1859
-64.763
-63.9252
-63.1905
-63.3467
-62.4718
-62.17
-61.8661
-61.1489
-59.9679
-60.0636
-59.1007
-58.1443
-69.5274
-68.8293
-66.58
-65.14
-65.9571
-65.1843
-64.2799
-63.7635
-63.407
-63.4777
-63.308
-62.4532
-61.4005
-71.6145
-71.7645
-70.7276
-68.357
-67.8563
-68.5138
-67.0231
-66.8272
-67.1003
-67.6284
-68.7546
-70.6773
-71.3787
-68.2699
-71.6576
-71.7836
-71.4229
-70.2079
-69.1354
-68.7228
-69.2139
-68.484
-67.6319
-67.1982
-68.3849
-71.1314
-73.3629
-75.1999
-73.8388
-71.8691
-71.6941
-71.4898
-71.1007
-70.1662
-69.4573
-69.4829
-69.4926
-69.7181
-69.842
-70.3336
-70.9597
-71.2821
-70.8132
-72.2252
-73.8973
-72.6057
-72.1893
-71.8126
-71.0334
-70.7212
-70.4884
-70.986
-71.0004
-70.9164
-72.0774
-71.9453
-72.3355
-73.0943
-71.8554
-70.5695
-70.688
-70.6696
-72.0475
-72.022
-71.5043
-71.1564
-70.9452
-70.7107
-71.0445
-71.3506
-71.2691
-71.2416
-71.477
-71.8171
-72.1715
-71.8938
-71.1462
-70.6696
-70.8246
-71.1192
-52.3801
-52.5511
-52.5481
-52.825
-52.8085
-52.7423
-53.0059
-53.0618
-52.9709
-52.8864
-53.3424
-53.3104
-53.2151
-53.1444
-53.1104
-53.7285
-53.6653
-53.5352
-53.5292
-53.4399
-53.358
-54.2384
-54.1605
-54.0596
-53.8545
-53.6542
-53.6059
-53.5974
-54.8941
-54.8416
-54.7212
-54.5939
-54.4586
-54.1073
-54.0327
-53.7717
-55.8531
-55.5988
-55.5165
-55.3476
-55.1754
-54.9964
-54.914
-54.5841
-54.6563
-57.1043
-56.843
-56.7341
-56.4038
-56.2713
-55.8614
-55.8523
-55.558
-55.4287
-55.5773
-59.1185
-58.8144
-58.3742
-57.8579
-57.6935
-57.1055
-56.9228
-56.2985
-56.1977
-55.9879
-55.9831
-61.4712
-61.2771
-60.8152
-60.0757
-59.761
-59.5257
-58.4789
-58.3519
-57.9742
-57.3707
-57.3317
-57.1573
-65.4454
-64.3926
-63.6913
-63.1996
-63.1571
-62.3081
-62.3043
-61.1242
-60.7058
-60.2626
-59.9639
-59.0744
-57.6188
-69.0773
-69.371
-68.2461
-66.0065
-65.1492
-65.6296
-64.8622
-64.2523
-63.4607
-63.2402
-63.5511
-63.1379
-62.3433
-61.3012
-70.9151
-71.8343
-71.5479
-69.9736
-68.0216
-67.8444
-68.2609
-66.7338
-66.8769
-67.2312
-68.061
-69.3448
-70.6506
-70.5225
-68.7166
-71.5484
-71.6815
-71.7488
-71.2758
-69.8347
-69.0648
-68.7457
-68.6922
-68.5363
-67.7312
-67.4734
-68.9328
-71.6852
-73.513
-74.7805
-73.5132
-71.5524
-71.9544
-71.7109
-71.4487
-70.9273
-70.022
-69.3556
-69.4998
-69.6363
-69.6454
-69.9657
-70.4326
-70.967
-71.3967
-71.0425
-72.2107
-73.4281
-73.0926
-72.6197
-72.2051
-71.7847
-70.9801
-70.6163
-70.5054
-71.0258
-71.0343
-70.9708
-72.1913
-72.107
-72.4781
-73.3487
-71.9286
-70.5572
-70.6673
-70.4912
-72.1587
-72.0408
-72.0241
-71.4912
-71.1275
-70.9379
-70.6837
-71.041
-71.3635
-71.2998
-71.2643
-71.4761
-71.8757
-72.2184
-71.8754
-71.1729
-70.6912
-70.8511
-71.1265
-52.2325
-52.4113
-52.4059
-52.5769
-52.5669
-52.5573
-52.8386
-52.8282
-52.7699
-52.6744
-53.0485
-53.0169
-53.0167
-52.9101
-52.8608
-53.366
-53.3352
-53.2248
-53.1802
-53.1301
-53.0951
-53.8373
-53.6984
-53.6338
-53.5529
-53.4473
-53.4131
-53.1308
-54.3326
-54.2137
-54.1315
-54.0256
-53.8587
-53.4837
-53.3121
-53.6275
-55.0975
-54.8989
-54.8052
-54.6239
-54.4885
-54.3446
-54.1555
-53.833
-53.882
-56.0582
-55.8154
-55.6874
-55.4943
-55.2983
-55.1437
-54.9064
-54.7299
-54.4985
-54.4363
-57.2822
-57.13
-57.0182
-56.6143
-56.3613
-56.1569
-55.8479
-55.729
-55.5491
-55.6154
-55.4861
-59.1899
-59.1409
-58.8337
-58.3472
-57.8709
-57.6555
-57.0142
-56.3403
-56.5198
-56.2559
-55.985
-56.0824
-62.0261
-61.5004
-61.2286
-60.7265
-60.0959
-59.8415
-59.292
-58.641
-58.2928
-57.9565
-57.4535
-57.3148
-56.6809
-65.1823
-65.3649
-64.5362
-63.1979
-63.4029
-63.0797
-62.2464
-61.7423
-61.1348
-60.5743
-59.9059
-59.863
-58.978
-57.8116
-68.3309
-69.323
-69.2427
-67.6756
-65.4432
-65.5157
-65.7772
-64.6216
-64.2109
-63.1732
-63.3921
-63.887
-63.0331
-62.5659
-60.8203
-70.2566
-71.2868
-71.8685
-71.3687
-69.3163
-67.8222
-67.7916
-67.998
-66.655
-67.205
-67.6343
-68.6469
-69.9432
-70.3847
-69.8125
-69.026
-71.4159
-71.712
-71.6724
-71.6553
-71.1043
-69.5482
-69.0087
-68.7261
-68.4702
-68.4479
-67.7963
-67.7897
-69.4852
-72.0723
-73.5393
-73.9732
-72.7297
-71.4176
-71.6649
-72.0273
-71.7095
-71.3854
-70.7636
-69.8591
-69.2797
-69.5423
-69.7443
-69.7585
-70.1251
-70.5279
-71.0501
-71.5479
-71.0724
-71.9464
-72.6294
-73.4591
-73.1131
-72.6279
-72.2155
-71.7388
-70.9195
-70.4635
-70.5462
-71.0722
-71.0787
-71.0529
-72.2683
-72.2688
-72.6042
-73.5631
-72.0006
-70.5303
-70.6351
-70.2731
-72.1747
-72.192
-72.0314
-72.0184
-71.4745
-71.0928
-70.921
-70.6576
-71.0363
-71.3767
-71.3282
-71.2872
-71.4876
-71.9343
-72.2539
-71.8399
-71.2059
-70.7122
-70.8722
-71.1357
-52.1862
-52.2436
-52.2404
-52.3944
-52.3911
-52.398
-52.5578
-52.5883
-52.582
-52.5108
-52.8281
-52.8387
-52.7894
-52.7023
-52.6573
-53.0715
-53.0608
-52.9849
-52.9558
-52.8615
-52.8371
-53.487
-53.3167
-53.2943
-53.2095
-53.2358
-53.1679
-53.0454
-53.9209
-53.7545
-53.6893
-53.6008
-53.5161
-53.2963
-53.2472
-53.2522
-54.467
-54.3262
-54.1981
-54.023
-53.886
-53.8074
-53.9053
-53.723
-53.5893
-55.1755
-55.1324
-54.8342
-54.7887
-54.6196
-54.5042
-54.1904
-54.0916
-53.7951
-53.823
-56.2197
-56.0705
-55.852
-55.5952
-55.4082
-55.2474
-54.9569
-54.9376
-54.685
-54.4171
-54.4476
-57.5546
-57.4025
-57.1974
-57.0144
-56.5781
-56.3289
-56.0786
-55.8177
-55.6934
-55.5281
-55.39
-55.2461
-59.2417
-59.311
-59.0879
-58.7796
-58.2111
-57.8806
-57.3883
-56.993
-56.593
-56.5306
-56.3036
-56.2468
-56.179
-61.9808
-61.9672
-61.8395
-61.1251
-60.717
-60.1986
-59.7538
-59.1214
-58.635
-58.3196
-57.9789
-57.3297
-57.2544
-56.618
-64.9254
-65.2995
-65.4637
-64.4256
-63.4007
-63.5417
-63.0274
-62.2891
-61.494
-60.9777
-60.5071
-59.9109
-59.6068
-59.0064
-57.7472
-67.3394
-68.5357
-69.4029
-69.1476
-66.8063
-65.587
-65.7271
-65.7641
-64.6582
-63.8737
-63.397
-63.5955
-64.1095
-63.005
-63.0837
-60.3755
-69.9669
-70.5768
-71.5237
-71.8922
-70.9397
-68.6757
-67.7082
-67.6459
-67.6666
-66.8227
-67.4868
-67.9715
-69.3844
-70.3162
-70.1208
-70.5913
-69.2698
-70.4303
-71.5386
-71.8162
-71.6419
-71.5467
-70.869
-69.2525
-68.928
-68.7
-68.4423
-68.3754
-67.9887
-68.1068
-69.9935
-72.1195
-73.3426
-72.7754
-72.0691
-71.7624
-71.5333
-71.7765
-72.0863
-71.6945
-71.2988
-70.588
-69.7063
-69.2412
-69.5752
-69.8433
-70.0025
-70.2435
-70.5823
-71.1275
-71.7362
-70.9135
-71.6643
-71.9005
-73.3208
-73.4564
-73.1248
-72.6208
-72.2167
-71.6807
-70.8424
-70.3638
-70.5365
-71.1296
-71.1697
-71.1594
-72.3485
-72.4412
-72.7412
-73.7848
-72.054
-70.5055
-70.5779
-70.0739
-71.9737
-72.2312
-72.2137
-72.0199
-72.0115
-71.4544
-71.0549
-70.8924
-70.6396
-71.0307
-71.3915
-71.3537
-71.3089
-71.5035
-71.9889
-72.2892
-71.7986
-71.2341
-70.7331
-70.89
-71.1412
-51.9848
-52.2218
-52.1726
-52.2723
-52.2485
-52.2426
-52.4839
-52.4062
-52.3686
-52.3399
-52.6356
-52.4985
-52.587
-52.5319
-52.4984
-52.8332
-52.8108
-52.7897
-52.7516
-52.6439
-52.6214
-53.1545
-53.0818
-53.0496
-52.9545
-52.9321
-52.862
-52.8298
-53.4661
-53.4157
-53.3497
-53.2702
-53.1888
-53.2905
-53.2471
-53.0504
-53.9548
-53.8898
-53.7314
-53.6575
-53.4859
-53.5041
-53.3575
-53.1967
-53.2088
-54.4822
-54.4771
-54.26
-54.1509
-53.9909
-53.8723
-53.7642
-53.6839
-53.5651
-53.629
-55.2913
-55.242
-54.9536
-54.8928
-54.6964
-54.5749
-54.3973
-54.1697
-54.0316
-53.8497
-53.7447
-56.2546
-56.1675
-55.9847
-55.8386
-55.6029
-55.392
-55.2492
-54.8969
-54.8828
-54.7204
-54.4628
-54.4436
-57.5137
-57.4236
-57.4672
-57.2357
-57.0039
-56.6155
-56.3201
-55.9371
-55.8496
-55.6998
-55.479
-55.3458
-55.3251
-59.3453
-59.3349
-59.34
-59.1267
-58.7111
-58.1006
-57.7482
-57.4687
-57.0546
-56.5751
-56.6324
-56.3211
-56.2361
-55.9334
-61.7615
-62.0433
-62.1391
-61.5501
-61.0775
-60.6222
-60.2387
-59.7153
-59.1721
-58.6356
-58.2391
-57.8966
-57.3237
-57.1576
-56.9027
-64.3991
-65.1595
-65.4733
-65.3216
-63.8819
-63.3287
-63.56
-63.005
-62.1647
-61.4985
-60.8799
-60.5748
-60.1486
-59.2648
-58.9254
-57.4503
-66.5877
-67.6755
-68.8676
-69.2904
-68.8751
-66.2723
-65.3231
-65.8198
-65.7574
-64.732
-63.9551
-63.6213
-63.5278
-63.6867
-62.9459
-62.8254
-60.2303
-69.1622
-70.2226
-70.9069
-71.5856
-71.5743
-70.3286
-68.0881
-67.5288
-67.7156
-67.5119
-66.7133
-67.6586
-68.3666
-69.6712
-70.4478
-69.8928
-69.4554
-68.3417
-70.166
-70.5761
-71.5777
-71.822
-71.5559
-71.3959
-70.5425
-69.0326
-68.8782
-68.8223
-68.4188
-68.3858
-68.2389
-68.4687
-70.3932
-72.1115
-72.4342
-72.04
-71.1335
-72.3314
-71.8422
-71.6392
-71.8665
-72.1071
-71.647
-71.1636
-70.405
-69.5839
-69.277
-69.6523
-69.9312
-70.1488
-70.3273
-70.6318
-71.1898
-71.8905
-70.7618
-71.3275
-71.2237
-72.5247
-73.3658
-73.4424
-73.1252
-72.6005
-72.2014
-71.614
-70.7426
-70.3355
-70.5472
-71.1524
-71.2214
-71.2539
-72.417
-72.6125
-72.8533
-73.9388
-72.0824
-70.4898
-70.5046
-69.9103
-71.9399
-72.0482
-72.2655
-72.2374
-72.0067
-72.0008
-71.4312
-71.0164
-70.8432
-70.6306
-71.0209
-71.4063
-71.3796
-71.3349
-71.5193
-72.0387
-72.3352
-71.7744
-71.2566
-70.7463
-70.9069
-71.1378
-51.891
-51.9943
-52.0151
-52.1986
-52.2136
-52.132
-52.2843
-52.2495
-52.1931
-52.2316
-52.4568
-52.4125
-52.4204
-52.3766
-52.2945
-52.6269
-52.5894
-52.5031
-52.5536
-52.4638
-52.5006
-52.8898
-52.8507
-52.7883
-52.7729
-52.7371
-52.6075
-52.627
-53.1589
-53.1311
-53.0429
-53.0275
-52.9592
-52.8888
-52.8336
-52.7847
-53.5696
-53.4863
-53.4158
-53.3219
-53.1683
-53.1237
-52.6356
-52.9732
-53.0474
-54.0524
-53.9527
-53.8977
-53.7441
-53.5449
-53.589
-53.3486
-53.3919
-53.3252
-53.2461
-54.599
-54.485
-54.3261
-54.241
-54.1116
-54.0036
-53.83
-53.7138
-53.6217
-53.5094
-53.5261
-55.1915
-55.2617
-55.1091
-55.0243
-54.8428
-54.6938
-54.5297
-54.2291
-54.1632
-54.0188
-53.8737
-53.8034
-56.339
-56.2416
-56.2241
-55.9439
-55.8106
-55.5961
-55.3146
-55.1894
-54.9776
-54.8123
-54.6043
-54.6112
-54.4416
-57.5628
-57.6013
-57.4487
-57.4795
-57.3372
-56.9198
-56.4938
-56.2982
-56.0982
-55.8296
-55.7198
-55.5359
-55.2576
-55.2698
-59.3064
-59.4034
-59.382
-58.9003
-59.2004
-58.5647
-58.1312
-57.672
-57.5751
-56.9582
-56.8633
-56.5813
-56.3513
-56.1029
-55.9058
-61.506
-61.8562
-62.1018
-62.0219
-61.0925
-60.8077
-60.6308
-60.2495
-59.6619
-59.2103
-58.3782
-58.3012
-57.9772
-57.2604
-57.3213
-56.7792
-63.9745
-64.67
-65.2268
-65.3564
-64.8248
-63.754
-62.9688
-63.5663
-63.05
-61.939
-61.4149
-60.8483
-60.5292
-60.097
-59.0545
-57.5925
-57.2742
-66.0484
-66.9187
-68.1506
-68.9514
-69.0598
-68.0923
-65.8453
-65.1245
-65.9804
-65.7679
-64.5848
-64.0521
-63.6036
-63.707
-63.2793
-62.8801
-62.1919
-60.3119
-68.7433
-69.3987
-70.3839
-71.0736
-71.5225
-71.3602
-69.682
-67.6137
-67.397
-67.6269
-67.4553
-66.7756
-67.8814
-68.3944
-69.9507
-70.1738
-69.4623
-68.5947
-67.5511
-69.9766
-70.4676
-70.7933
-71.6507
-71.8008
-71.4078
-71.2785
-70.1875
-68.8671
-68.8333
-68.8006
-68.4462
-68.4531
-68.6019
-68.7916
-70.5383
-72.1278
-71.589
-71.1804
-70.2016
-71.8576
-72.465
-71.8925
-71.7321
-71.9425
-72.108
-71.5674
-70.9993
-70.2159
-69.4924
-69.3291
-69.7939
-69.988
-70.2738
-70.4098
-70.689
-71.1898
-71.9782
-70.6715
-71.0751
-70.6604
-72.2185
-72.6029
-73.3972
-73.4259
-73.1129
-72.581
-72.169
-71.5356
-70.6375
-70.3159
-70.5801
-71.2087
-71.2533
-71.3496
-72.4952
-72.7734
-72.9785
-74.053
-72.1056
-70.4643
-70.436
-69.794
-71.1191
-71.4139
-71.9763
-72.112
-72.2767
-72.2587
-72.0073
-71.9871
-71.4069
-70.978
-70.7933
-70.6292
-71.0029
-71.4211
-71.4096
-71.3627
-71.5354
-72.0853
-72.3737
-71.7594
-71.2757
-70.763
-70.9265
-71.1299
-51.8613
-51.8844
-51.8926
-52.0504
-52.0524
-52.0338
-52.119
-52.2092
-52.1212
-52.0972
-52.3004
-52.3545
-52.2396
-52.274
-52.2068
-52.4809
-52.44
-52.3775
-52.3924
-52.2945
-52.3504
-52.7094
-52.6049
-52.569
-52.5223
-52.5488
-52.5837
-52.4724
-52.9273
-52.9109
-52.7973
-52.7675
-52.7057
-52.6576
-52.6413
-52.6283
-53.2461
-53.1928
-53.1419
-53.0451
-53.0288
-52.9354
-52.871
-52.7768
-52.7854
-53.6592
-53.5463
-53.4771
-53.3562
-53.2428
-53.0827
-53.1195
-53.0435
-53.0374
-53.0539
-54.1283
-53.9967
-53.9126
-53.8309
-53.7045
-53.5801
-53.5473
-53.3107
-53.2323
-53.219
-53.209
-54.7063
-54.6107
-54.4983
-54.3953
-54.234
-54.1249
-53.9998
-53.7782
-53.7118
-53.6301
-53.5325
-53.5505
-55.5565
-55.3962
-55.2656
-55.1351
-54.9807
-54.7628
-54.6427
-54.4813
-54.2715
-54.1355
-54.0374
-53.8973
-53.9125
-56.4929
-56.3725
-56.1853
-56.0636
-55.9495
-55.8362
-55.5365
-55.2697
-55.1538
-54.9334
-54.8673
-54.7264
-54.6143
-54.4286
-57.7355
-57.657
-57.6082
-57.4257
-57.518
-57.2226
-56.8704
-56.5089
-56.3039
-56.0414
-55.8297
-55.6888
-55.5281
-55.1534
-55.2713
-59.3189
-59.4217
-59.3919
-59.2061
-59.0848
-58.7327
-58.4513
-58.0748
-57.6147
-57.0095
-57.0508
-56.8617
-56.5912
-56.3007
-56.1817
-55.9498
-61.2215
-61.7917
-62.083
-62.2013
-61.4727
-61.1451
-60.756
-60.585
-60.0721
-59.5376
-59.0675
-58.4553
-58.2692
-57.7682
-57.2766
-57.1799
-56.7015
-63.6948
-64.1273
-64.9328
-65.4499
-65.492
-64.2705
-63.4889
-62.9056
-63.5966
-62.8958
-61.9045
-61.4267
-60.62
-60.4995
-59.784
-59.0514
-58.0983
-57.6541
-65.6858
-66.5104
-67.3031
-68.4402
-69.1034
-68.9056
-67.3917
-65.5587
-65.0987
-65.8213
-65.6579
-64.3284
-64.1372
-63.7518
-63.5675
-62.7342
-62.3548
-61.8336
-60.5389
-68.2617
-69.1284
-69.6698
-70.6565
-71.2388
-71.443
-71.1041
-69.0413
-67.2404
-67.2392
-67.4913
-67.2919
-67.0142
-68.1374
-68.5556
-69.9772
-69.8574
-68.7183
-68.031
-66.3727
-69.7666
-70.1996
-70.6769
-71.1347
-71.7335
-71.7613
-71.2839
-71.1781
-69.8345
-68.7183
-68.76
-68.8208
-68.3993
-68.5894
-68.7851
-68.9468
-70.4984
-72.0045
-70.9635
-70.0355
-69.142
-71.1906
-72.0978
-72.5836
-71.9357
-71.8459
-72.0029
-72.0868
-71.4687
-70.8196
-70.064
-69.408
-69.3808
-69.9075
-70.0883
-70.4311
-70.503
-70.7047
-71.2104
-72.0408
-70.6055
-70.9406
-70.2086
-69.5744
-71.6618
-72.2918
-72.668
-73.4142
-73.3805
-73.0711
-72.574
-72.1204
-71.4408
-70.518
-70.3041
-70.5964
-71.2074
-71.3236
-71.4693
-72.5742
-72.906
-73.1128
-74.1596
-72.1049
-70.4152
-70.3864
-69.7071
-70.9854
-71.1238
-70.3695
-71.4555
-72.0064
-72.1693
-72.2867
-72.264
-72.0179
-71.97
-71.3809
-70.94
-70.7526
-70.6356
-71.0101
-71.4356
-71.4417
-71.3876
-71.5514
-72.1297
-72.4088
-71.7408
-71.2937
-70.7772
-70.9472
-51.7282
-51.8851
-51.8346
-51.9056
-51.8424
-51.9298
-52.0966
-51.9973
-52.0783
-51.9643
-52.1718
-52.1697
-52.1438
-52.1209
-52.1072
-52.3477
-52.3146
-52.2675
-52.2584
-52.2427
-52.2178
-52.5342
-52.4045
-52.4266
-52.4
-52.4347
-52.3194
-52.3125
-52.7544
-52.696
-52.6052
-52.5681
-52.5299
-52.4746
-52.5403
-52.4579
-52.9959
-52.9095
-52.8645
-52.8114
-52.7237
-52.7244
-52.607
-52.6396
-52.6236
-53.3095
-53.2563
-53.1742
-53.1519
-53.0515
-52.8855
-52.875
-52.8652
-52.8036
-52.816
-53.7748
-53.6054
-53.536
-53.4944
-53.343
-53.2511
-53.1762
-53.1237
-53.0236
-53.0218
-53.055
-54.3045
-54.1563
-53.9965
-53.8942
-53.7325
-53.6618
-53.5962
-53.4067
-53.3356
-53.3657
-53.2059
-53.1729
-54.9042
-54.7183
-54.6313
-54.5255
-54.3044
-54.2103
-54.0857
-53.9363
-53.83
-53.818
-53.6034
-53.5642
-53.6093
-55.7514
-55.5707
-55.4085
-55.2222
-55.0903
-54.9863
-54.7918
-54.5677
-54.3158
-54.2769
-54.0999
-53.9508
-54.0118
-53.9289
-56.7118
-56.5695
-56.4371
-56.2695
-56.0025
-56.0246
-55.7364
-55.592
-55.2208
-55.2266
-54.8911
-54.9024
-54.6436
-54.5302
-54.5094
-58.0169
-57.8523
-57.7814
-57.5492
-57.6673
-57.491
-57.2366
-56.7656
-56.3166
-56.1992
-55.9689
-55.8731
-55.6021
-55.5057
-55.3493
-55.1926
-59.3438
-59.5206
-59.5555
-59.5844
-59.1605
-59.1959
-58.8336
-58.5121
-57.9568
-57.5962
-57.209
-57.0667
-56.8664
-56.5775
-56.3258
-56.1728
-55.9587
-61.084
-61.6948
-61.9166
-62.3033
-62.0118
-61.4545
-61.2474
-60.8928
-60.4566
-59.9959
-59.5694
-58.9323
-58.5925
-58.1762
-57.6435
-57.1316
-57.1813
-56.8026
-63.0609
-63.7198
-64.3824
-65.2674
-65.6506
-65.0531
-63.9938
-63.2448
-62.9989
-63.4725
-62.6809
-61.7402
-61.38
-60.6216
-60.5065
-59.7804
-59.0009
-58.2093
-58.0512
-65.5029
-66.0942
-66.7348
-67.705
-68.8409
-69.1137
-68.5881
-66.7469
-65.3477
-65.2583
-66.0036
-65.6298
-64.4054
-64.1503
-63.776
-63.1355
-62.8452
-62.0577
-61.6512
-60.2666
-67.7936
-68.5168
-69.3842
-70.0208
-70.9052
-71.3314
-71.2884
-70.7592
-68.4672
-66.9733
-67.1998
-67.469
-67.1504
-67.3597
-68.5037
-68.5908
-69.6218
-69.6982
-68.0939
-67.1732
-65.1151
-69.1629
-70.0907
-70.3588
-70.6671
-71.3751
-71.7892
-71.6733
-71.1314
-70.9236
-69.4283
-68.5996
-68.6963
-68.8783
-68.3575
-68.8154
-68.8249
-68.9662
-70.4412
-71.6624
-70.4395
-69.2351
-68.1195
-69.3413
-70.8963
-71.3989
-72.3114
-72.7022
-72.0712
-71.9539
-72.0245
-72.0223
-71.3416
-70.646
-69.9379
-69.3426
-69.4353
-70.01
-70.2753
-70.5616
-70.5805
-70.7309
-71.2212
-72.0351
-70.4904
-70.7346
-69.9244
-70.4748
-69.6339
-71.2564
-71.8458
-72.3638
-72.7216
-73.4245
-73.3007
-73.0187
-72.5685
-72.0571
-71.3431
-70.3812
-70.2853
-70.6336
-71.2022
-71.4286
-71.6111
-72.6602
-73.061
-73.2251
-74.2344
-72.0818
-70.3977
-70.3832
-70.8961
-70.9663
-70.254
-70.4567
-71.496
-72.0315
-72.2196
-72.3206
-72.2564
-72.0206
-71.9498
-71.3533
-70.9181
-70.718
-70.6216
-71.0422
-71.4579
-71.4695
-71.413
-71.5825
-72.1587
-72.4369
-71.7158
-71.3104
-70.7925
-51.7175
-51.7092
-51.8444
-51.8442
-51.836
-51.9015
-51.9328
-51.92
-51.9165
-52.1076
-52.0431
-52.0172
-51.8927
-51.96
-52.224
-52.1828
-52.1758
-52.1033
-52.1505
-52.0883
-52.4193
-52.304
-52.3032
-52.2732
-52.2504
-52.1383
-52.1977
-52.565
-52.4718
-52.4381
-52.3953
-52.4201
-52.3845
-52.3373
-52.2824
-52.8174
-52.7473
-52.6884
-52.5992
-52.557
-52.4597
-52.4667
-52.5112
-52.4466
-53.0658
-52.9906
-52.915
-52.8727
-52.7607
-52.7082
-52.6503
-52.6122
-52.6503
-52.6265
-53.4634
-53.3996
-53.2587
-53.1394
-53.1016
-52.9743
-52.9063
-52.9112
-52.8365
-52.8164
-52.8164
-53.8369
-53.7552
-53.6125
-53.5211
-53.4146
-53.3082
-53.2413
-53.1363
-53.0886
-53.0239
-52.9808
-52.9858
-54.4158
-54.234
-54.2222
-53.9995
-53.8452
-53.7698
-53.6489
-53.6142
-53.3944
-53.3562
-53.2135
-53.2082
-53.2425
-55.0881
-54.8901
-54.8183
-54.5938
-54.4634
-54.2947
-54.2113
-54.0643
-53.8898
-53.8344
-53.5909
-53.5523
-53.6559
-53.6603
-55.8335
-55.7509
-55.5226
-55.4459
-55.214
-55.1883
-54.9927
-54.752
-54.5532
-54.3468
-54.1933
-54.1992
-54.0396
-54.0578
-53.8652
-56.8599
-56.6213
-56.6005
-56.3504
-56.21
-56.362
-55.9841
-55.7307
-55.4519
-55.1993
-55.0006
-54.9734
-54.666
-54.5475
-54.5098
-54.4955
-58.1448
-57.988
-57.8761
-57.7071
-57.6775
-57.7709
-57.436
-57.1706
-56.7312
-56.326
-56.1397
-55.9851
-55.7442
-55.5393
-55.5001
-55.407
-55.1576
-59.3264
-59.5449
-59.5803
-59.6835
-59.4535
-59.3065
-59.1742
-58.8623
-58.4272
-57.9397
-57.6748
-57.1944
-57.0676
-56.8157
-56.5576
-56.2693
-56.077
-55.9505
-60.7124
-61.4063
-61.6234
-62.1794
-62.3459
-61.8905
-61.8865
-61.1449
-60.9256
-60.5796
-60.03
-59.556
-59.184
-58.414
-58.2113
-57.6022
-57.2795
-57.2511
-56.9797
-62.9028
-63.4312
-63.6964
-64.7075
-65.6099
-65.7717
-64.8489
-64.0143
-63.2242
-62.9461
-63.4886
-62.5324
-61.8752
-61.3317
-60.8036
-60.1896
-59.8842
-59.1935
-58.1256
-58.4339
-65.2106
-65.6775
-66.2149
-67.1079
-68.0522
-69.0928
-69.0006
-68.2113
-66.2412
-65.0689
-65.0708
-66.1302
-65.2327
-64.6381
-64.0795
-63.629
-63.0438
-62.7912
-62.1831
-61.6325
-60.489
-67.7348
-68.0577
-68.8176
-69.7373
-70.3874
-71.0658
-71.3319
-71.1112
-70.3972
-67.8961
-66.6754
-66.9865
-67.2484
-67.01
-67.6203
-68.7455
-68.3572
-69.4888
-69.2584
-67.6659
-66.518
-64.566
-67.2267
-69.2001
-69.4704
-70.4026
-70.5252
-70.963
-71.4486
-71.8612
-71.5633
-70.9567
-70.605
-69.0173
-68.4642
-68.7584
-68.8981
-68.3465
-69.0093
-68.9519
-68.9342
-70.3415
-71.2775
-69.7495
-68.4246
-68.0067
-70.2576
-69.6743
-70.4787
-71.0855
-71.5631
-72.5097
-72.8022
-72.1254
-72.0365
-72.0164
-71.93
-71.1927
-70.481
-69.7694
-69.3003
-69.5323
-70.1132
-70.4484
-70.6629
-70.7235
-70.8246
-71.2454
-71.8793
-70.1484
-70.5048
-70.245
-70.418
-71.5086
-71.494
-72.0041
-72.4274
-72.7499
-73.4292
-73.2148
-72.9744
-72.5505
-71.9749
-71.2477
-70.2715
-70.2731
-70.6878
-71.288
-71.478
-71.7388
-72.7539
-73.198
-73.3261
-74.3064
-72.0309
-70.3668
-71.3735
-70.8205
-70.1983
-69.5601
-70.5477
-71.5404
-72.0567
-72.2579
-72.3486
-72.2414
-72.0197
-71.9256
-71.3213
-70.8752
-70.6935
-70.5851
-71.0649
-71.4806
-71.4973
-71.437
-71.6196
-72.1892
-72.4622
-71.6872
-71.3276
-51.7123
-51.6799
-51.7119
-51.878
-51.8462
-51.807
-51.8082
-51.9044
-51.9618
-51.9985
-51.9426
-51.8825
-52.0878
-52.017
-52.053
-51.9129
-51.8925