/*--------------------------------*- C++ -*----------------------------------*\
  =========                 |
  \\      /  F ield         | OpenFOAM: The Open Source CFD Toolbox
   \\    /   O peration     | Website:  https://openfoam.org
    \\  /    A nd           | Version:  7
     \\/     M anipulation  |
\*---------------------------------------------------------------------------*/
FoamFile
{
    version     2.0;
    format      ascii;
    class       surfaceScalarField;
    location    "2";
    object      phi;
}
// * * * * * * * * * * * * * * * * * * * * * * * * * * * * * * * * * * * * * //

dimensions      [0 3 -1 0 0 0 0];

internalField   nonuniform List<scalar> 
54125
(
-2.10472e-05
-1.71157e-05
0.00140451
6.78797e-05
-5.40743e-05
-0.00103114
-5.44606e-05
-4.35845e-05
-0.000400502
-2.85723e-05
-1.80936e-05
0.00145118
-0.000121004
-0.000100538
-0.00490032
-3.29615e-05
-0.000171913
-0.00242057
7.58554e-06
-3.89701e-05
-0.00102833
-5.51379e-05
-5.09986e-05
-0.00164489
-5.85644e-05
-4.50291e-05
-0.000315002
-3.70336e-05
-1.86947e-05
0.0015069
-0.000867614
0.000509832
-0.00633768
4.03142e-05
-0.000298722
-0.00282734
-0.000199446
-7.99613e-05
-0.00461333
-0.000104728
-0.000179854
-0.00190555
-7.26984e-05
-0.00017803
-0.00226738
-9.82366e-06
-2.25421e-05
-0.001033
-9.56584e-05
-4.78263e-05
-0.00120749
-6.55764e-05
-5.31987e-05
-0.00157114
-6.27502e-05
-4.46587e-05
-0.000226288
-3.75726e-05
-1.84832e-05
0.00156296
-0.00140431
0.000416606
-0.00472118
-0.000415206
0.000916324
-0.00579735
-0.000922174
0.000556781
-0.00617173
-5.94383e-06
-0.000363616
-0.00250139
-2.69966e-05
-0.000326409
-0.00262659
-0.000248975
3.13907e-05
-0.00440557
-0.0001704
-0.000152208
-0.00100172
-0.000136059
-0.000185175
-0.00182792
-3.90352e-05
-0.000172201
-0.00214143
-6.80286e-05
-1.23003e-05
-0.000990243
-0.000158944
-4.95667e-05
-0.000917061
-9.9577e-05
-5.12347e-05
-0.00110987
-7.32817e-05
-5.17323e-05
-0.00149079
-6.58367e-05
-4.43928e-05
-0.000134542
-4.53028e-05
-1.83811e-05
0.00162664
-0.00138875
0.000180764
-0.00402876
-0.000846481
0.000718388
-0.00596079
-0.00148038
0.000458252
-0.00462123
3.87378e-06
0.000787047
-0.0043044
-0.000423054
0.000810799
-0.00565531
-0.000995937
0.000520909
-0.00594568
4.34119e-07
-0.00039047
-0.00190132
7.79938e-05
-0.000442039
-0.00259981
9.26791e-05
-0.000249607
-0.00247731
-0.000316714
7.58702e-05
-0.00423275
-0.000188674
-0.000146089
-0.00178814
-0.000169229
-0.000166074
-0.000951165
-0.000158779
-0.000187041
-0.00172759
-2.77357e-05
-0.000156006
-0.00203583
-9.91611e-05
-9.56337e-06
-0.000926821
-7.6856e-05
-6.07121e-05
-0.000674567
-0.000154976
-5.22641e-05
-0.000761056
-0.000107292
-5.03049e-05
-0.00100401
-8.23947e-05
-5.21763e-05
-0.00140061
-6.47265e-05
-4.38895e-05
-4.43069e-05
-4.84439e-05
-1.88299e-05
0.00169392
-0.00122618
0.000158405
-0.00473759
-0.00062097
0.000447983
-0.00616672
-0.00141795
0.000175576
-0.00426677
-0.000135186
0.000752663
-0.00644354
-0.000569736
0.00069395
-0.0060498
-0.00135169
0.000520806
-0.00478628
0.000350678
0.000444444
-0.00314958
0.000253793
0.000502486
-0.00417189
-0.00030616
0.000685431
-0.00542099
-0.000955772
0.000530557
-0.00583718
-3.71352e-05
-0.000421882
-0.00222356
9.20829e-05
-0.000442619
-0.00216205
0.00029518
-0.000466221
-0.00283716
0.000180403
-0.000162866
-0.00244671
-0.000332164
0.000138773
-0.00413852
-0.000108677
-8.97178e-05
-0.00265597
-0.000178601
-0.000165094
-0.0017655
-0.000182527
-0.000175156
-0.000887814
-0.000143277
-0.000184747
-0.00163796
-1.35279e-05
-0.000143839
-0.00195275
-0.00011694
-7.64557e-06
-0.000850679
-3.49361e-05
-5.6794e-05
-0.000307253
-6.73835e-05
-6.20447e-05
-0.000597403
-0.000155004
-5.36249e-05
-0.000602733
-0.000110472
-5.01525e-05
-0.00089556
-9.34003e-05
-5.21981e-05
-0.0012989
-6.10801e-05
-4.51225e-05
4.30658e-05
-4.35777e-05
-1.94979e-05
0.00175699
-0.00116407
4.09095e-05
-0.00492928
-0.000790919
0.000433245
-0.00675284
-0.00112048
8.87145e-05
-0.00512378
-0.000228024
0.000644123
-0.00654694
-0.000462507
0.000412684
-0.00651105
-0.0011661
5.7176e-05
-0.00450954
0.000355607
0.000801332
-0.00570886
0.000116864
0.000679775
-0.00629244
-0.000546901
0.000705145
-0.0059934
-0.00130228
0.000507983
-0.00494775
0.000353734
0.000237471
-0.00342054
0.000506903
0.000278347
-0.00334027
0.000523454
0.000411159
-0.00412589
-0.000240195
0.000717749
-0.00518759
-0.00090962
0.000542083
-0.0058018
-0.000111841
-0.000433904
-0.0030317
-1.61092e-05
-0.00044683
-0.00238184
0.000120789
-0.000454714
-0.00247687
-4.88987e-05
-0.000425319
-0.00266908
0.000183203
-0.000106563
-0.00239811
-0.000365606
0.000202904
-0.00409276
-5.70061e-05
-3.98631e-05
-0.00207426
-0.000101791
-0.000115989
-0.00267066
-0.000179214
-0.0001758
-0.00174064
-0.000186445
-0.000194935
-0.000801652
-0.000123958
-0.000183532
-0.00156771
-2.05717e-05
-0.000130729
-0.00187017
-0.000148484
-1.0379e-06
-0.000744735
-5.57417e-05
-5.62346e-05
0.000161317
-3.67151e-05
-5.64217e-05
-0.000276161
-6.48417e-05
-6.36195e-05
-0.000522567
-0.000153673
-5.31208e-05
-0.000446092
-0.000113419
-5.06019e-05
-0.000783738
-9.14588e-05
-5.36073e-05
-0.00119896
-5.45196e-05
-4.57578e-05
0.000123845
-3.87552e-05
-2.00986e-05
0.00181585
-0.00140705
0.000112133
-0.00410078
-0.00135134
0.000225005
-0.00517482
-0.00118609
0.00011441
-0.00497807
-0.000373585
0.000858714
-0.00633244
-0.000864183
0.000384132
-0.00664658
-0.00093079
-6.9555e-05
-0.00528953
-2.44313e-05
0.000966777
-0.00622946
-0.000214286
0.000568607
-0.00637171
-0.000715049
0.00035325
-0.00663898
-0.00129112
0.00015049
-0.00467119
0.000343599
0.000910141
-0.00579225
0.000262931
0.000781777
-0.00556689
0.000112367
0.000637792
-0.005814
-0.000615756
0.000630988
-0.00574084
-0.0012576
0.000523629
-0.00512339
0.000200555
-9.19266e-05
-0.00330228
0.000322314
0.000178364
-0.00365898
0.000555541
0.000137174
-0.00350103
-7.86613e-05
0.000727104
-0.00410548
-0.000259126
0.000693467
-0.00489664
-0.000919801
0.000559825
-0.00580743
0.00015195
-0.000404715
-0.00229015
-0.000151072
-0.000444522
-0.00298472
5.89482e-05
-0.000451197
-0.00262352
-2.05595e-05
-0.00046096
-0.00260712
0.00012624
-0.000447113
-0.00257873
0.000192744
-2.28815e-05
-0.00238564
-0.000423469
0.000308307
-0.00412608
5.01885e-05
-0.000103063
-0.00186009
-9.07167e-05
-5.75936e-05
-0.00207865
-0.000113983
-0.000127757
-0.00266957
-0.000172934
-0.000192007
-0.00172431
-0.000186422
-0.000209041
-0.00070314
-0.000107037
-0.000182836
-0.00150003
-3.47398e-05
-0.00010934
-0.00178165
-0.000158158
5.77644e-06
-0.000631109
3.84155e-06
-8.4315e-05
-1.95835e-05
-5.98294e-05
-5.61365e-05
0.000220861
-3.49914e-05
-5.64126e-05
-0.000248376
-7.56416e-05
-6.40108e-05
-0.000436035
-0.000153888
-5.21461e-05
-0.000290659
-0.000115872
-5.00184e-05
-0.000671454
-9.65051e-05
-5.2996e-05
-0.00109521
-4.66597e-05
-4.61779e-05
0.000196584
-3.45556e-05
-2.07284e-05
0.00187113
-0.00168375
0.000181784
-0.00316933
-0.0013012
0.000162384
-0.00439805
-0.00155408
0.000164381
-0.00389718
-0.000721556
0.000453446
-0.00584804
-0.00129187
0.000312969
-0.00494569
-0.00118874
0.000111023
-0.00483115
-0.000466483
0.00101301
-0.00652095
-0.000561927
0.000731071
-0.00633174
-0.00113149
0.00018056
-0.00648026
-0.00106274
-5.87024e-05
-0.0054592
-7.68424e-05
0.00129626
-0.00625088
-0.000299614
0.000837091
-0.0059354
-0.000316147
0.000742302
-0.00633225
-0.000819384
0.000479676
-0.00676454
-0.00122331
0.000284969
-0.00499046
0.000622275
0.000588306
-0.00463985
0.00029175
0.000833262
-0.00581317
0.000339832
0.000698787
-0.00541218
-3.67194e-05
0.000594053
-0.005819
-0.000482408
0.000604715
-0.00559864
-0.00128017
0.000494116
-0.00525713
0.000365678
-0.000330543
-0.00411379
0.000273956
-8.95281e-05
-0.00345942
0.000466239
3.65375e-05
-0.00396563
0.000253552
0.000339819
-0.00338786
5.609e-05
0.000759158
-0.00410102
-0.000236164
0.000748783
-0.0046567
-0.000881091
0.000571093
-0.0059209
0.000108912
-0.000334021
-0.00176948
7.8424e-05
-0.000412693
-0.00249112
-0.000197568
-0.000423796
-0.00292854
8.67202e-05
-0.000470192
-0.00287394
-2.69674e-05
-0.000481101
-0.00273258
6.28099e-05
-0.000422902
-0.00234856
7.73919e-05
4.40989e-05
-0.00223356
-0.000486033
0.00034859
-0.0041468
9.83861e-05
-0.000110088
-0.00136119
1.75167e-05
-0.000109675
-0.00188536
-9.43341e-05
-6.57031e-05
-0.00208136
-0.000144655
-0.000127011
-0.00266555
-0.000171543
-0.000210358
-0.00170534
-0.000198769
-0.000221641
-0.000581439
-0.000103164
-0.00017493
-0.00142778
-5.33019e-05
-0.000104775
-0.00166446
-0.000163647
1.00653e-05
-0.000512083
1.34168e-05
-0.000109108
-0.000134506
4.94211e-06
-8.42712e-05
3.60911e-06
-6.2093e-05
-5.64588e-05
0.000283
-3.65613e-05
-5.72044e-05
-0.000218621
-7.87494e-05
-6.41335e-05
-0.000345298
-0.000152268
-5.18017e-05
-0.000136608
-0.000118612
-4.83789e-05
-0.000557459
-8.97379e-05
-5.26227e-05
-0.000999029
-3.88387e-05
-4.65908e-05
0.000261285
-2.48208e-05
-2.12595e-05
0.00191721
-0.00166801
4.99219e-05
-0.00309949
-0.00129492
0.00032029
-0.00405453
-0.00178036
0.000192472
-0.00313552
-0.00104209
0.000339743
-0.00487224
-0.00130845
0.000215077
-0.00443218
-0.00155808
0.000197008
-0.00372484
-0.000592889
0.000490828
-0.00612441
-0.000854676
0.000554227
-0.00579654
-0.00145381
0.000265891
-0.00477823
-0.00122162
0.000126618
-0.00479889
-7.36404e-05
0.000973228
-0.00710971
-0.000398655
0.000989724
-0.00668056
-0.000673574
0.000490843
-0.00628459
-0.00110703
0.000229368
-0.00648068
-0.00105762
-4.16331e-05
-0.00558326
0.000544485
0.00122288
-0.0062631
-0.000101703
0.0011115
-0.00613183
-0.000253528
0.00099358
-0.00559332
-0.000314322
0.000781898
-0.00635687
-0.000749054
0.000664118
-0.00687704
-0.00127199
0.000407117
-0.00540576
0.00057287
0.000367484
-0.00373758
0.000581007
0.000576322
-0.00468996
0.000356567
0.000724444
-0.00572916
0.000345981
0.000681319
-0.00559188
-9.97474e-05
0.000500663
-0.00555912
-0.000336699
0.00062929
-0.00563328
-0.0013177
0.000421958
-0.00524249
4.45497e-05
-0.000252594
-0.00228809
0.000308515
-0.000307074
-0.00412634
0.000185441
-4.97043e-05
-0.00375618
0.000482136
5.66757e-05
-0.0040779
0.000159553
0.000496051
-0.00331127
-0.000186263
0.000772452
-0.00387562
-0.000368217
0.000794353
-0.00443435
-0.000957437
0.000581282
-0.00603078
0.000104995
-0.00029485
-0.00237287
7.50593e-05
-0.000323043
-0.00191667
4.22123e-05
-0.0004172
-0.00263426
-0.000210697
-0.000407005
-0.00292568
5.14817e-05
-0.000488347
-0.00308972
-5.25641e-05
-0.00049069
-0.002811
5.38645e-05
-0.00037807
-0.00208341
-8.53013e-05
0.000117233
-0.00197021
-0.00059026
0.00034041
-0.00406059
0.000175479
-0.000116575
-0.00141653
8.97558e-05
-0.000128481
-0.00142719
-3.65685e-05
-0.00010006
-0.00187653
-7.62142e-05
-6.37899e-05
-0.00210493
-0.000146226
-0.000165363
-0.00264307
-0.000166902
-0.000222375
-0.00168997
-0.000209811
-0.000228367
-0.000436803
-8.45072e-05
-0.000178708
-0.00135908
-5.56607e-05
-9.51763e-05
-0.0015424
-0.000169935
7.17442e-06
-0.000374143
-1.11663e-05
-0.000116569
-0.000466375
1.07843e-05
-0.000108168
-0.000121393
7.34262e-06
-8.3955e-05
2.37627e-05
-6.57277e-05
-5.76744e-05
0.000349198
-2.79114e-05
-5.82206e-05
-0.000196623
-7.55241e-05
-6.36515e-05
-0.000257924
-0.000150272
-5.15402e-05
1.68254e-05
-0.000119949
-4.73371e-05
-0.000442795
-8.71568e-05
-5.18938e-05
-0.00090657
-3.08636e-05
-4.69495e-05
0.000317839
-1.97434e-05
-2.10887e-05
0.00195804
-0.00160509
-4.65285e-06
-0.00299136
-0.0013462
0.000141257
-0.00381728
-0.00174526
8.02939e-05
-0.00321488
-0.00107963
0.000315065
-0.00439206
-0.00129481
0.000294335
-0.00417004
-0.00172943
0.000230661
-0.00319483
-0.00078366
0.000489956
-0.00523621
-0.0010566
0.000384175
-0.00483942
-0.0013584
0.000286596
-0.00461717
-0.0015647
0.000199942
-0.0035817
-0.000210635
0.000790688
-0.00618657
-0.000415335
0.000555101
-0.00610861
-0.000816106
0.000491784
-0.0058799
-0.00129242
0.000262931
-0.00472916
-0.00134086
0.000124569
-0.00464022
0.000368906
0.00108581
-0.00693165
-0.000241864
0.00106641
-0.00704624
-0.000618967
0.000844621
-0.0066689
-0.000742519
0.000549741
-0.00617677
-0.00122628
0.000304338
-0.00634943
-0.00106959
-0.000246346
-0.00553932
0.000588587
0.00102728
-0.00529188
0.00020344
0.00122273
-0.00599677
-5.27288e-05
0.00123737
-0.00596633
0.000183004
0.000990059
-0.0056385
-0.000279354
0.000844368
-0.00635751
-0.000375308
0.000941137
-0.00737245
-0.00132059
0.000273759
-0.00567662
0.000316137
0.000283231
-0.00367522
0.000514257
0.000431975
-0.00379898
0.000546798
0.000761208
-0.00508808
0.000452186
0.000611362
-0.00562925
0.000306039
0.00056258
-0.00580028
-0.000267431
0.00049647
-0.00534513
-0.000575847
0.000568521
-0.00557222
-0.00137996
0.000338766
-0.00515873
3.79434e-05
-0.000121686
-0.000985799
4.50236e-05
-0.000249655
-0.00231547
0.000191905
-0.000283062
-0.00404267
0.000125294
-3.47796e-05
-0.00400072
0.000362461
0.000205242
-0.00409807
2.47472e-05
0.000511922
-0.00312805
-0.000278805
0.000786937
-0.00353554
-0.000513447
0.000795707
-0.00422063
-0.00110127
0.00067332
-0.00619309
0.000238682
-0.000276982
-0.00215584
6.12538e-05
-0.000289587
-0.00237782
7.19554e-05
-0.000326222
-0.00211617
2.18377e-05
-0.0004069
-0.00273242
-0.000108298
-0.000404076
-0.00304788
7.04801e-06
-0.000458199
-0.00329616
-5.91623e-05
-0.000433973
-0.00290575
-4.88736e-06
-0.000282172
-0.00176363
-0.000164519
0.000166776
-0.00168771
-0.000769288
0.000317195
-0.00377843
0.000191189
-0.000192488
-0.00202443
0.000172409
-0.000118509
-0.00158813
8.92527e-05
-0.000125631
-0.00148353
-6.5929e-05
-8.57805e-05
-0.00185433
-2.79916e-05
-9.3827e-05
-0.00217639
-0.000151656
-0.000184108
-0.0026052
-0.000159951
-0.000228033
-0.00168063
-0.000206084
-0.000229896
-0.000299479
-7.75527e-05
-0.000173597
-0.00129026
-5.21616e-05
-9.38536e-05
-0.00142007
-0.000137361
-3.976e-07
-0.000256128
3.11213e-05
-0.000107143
7.67766e-05
-1.21708e-05
-0.000116834
-0.000445538
3.8128e-06
-0.000107377
-0.000101783
7.75044e-06
-8.39011e-05
4.22389e-05
-6.90958e-05
-5.93591e-05
0.000419432
-3.43153e-05
-5.77874e-05
-0.000168171
-6.91775e-05
-6.305e-05
-0.000177237
-0.000145722
-5.10562e-05
0.000166266
-0.00012191
-4.59947e-05
-0.000326784
-8.75537e-05
-5.17689e-05
-0.000814197
-2.48116e-05
-4.71328e-05
0.000368695
-1.51931e-05
-2.17325e-05
0.00199497
-0.00147769
-6.10761e-05
-0.00296773
-0.00129994
7.83297e-05
-0.00377394
-0.00158024
-6.56606e-06
-0.00314981
-0.00101657
0.00017423
-0.0041714
-0.00118132
6.34693e-05
-0.00391394
-0.00164158
7.34683e-05
-0.0033762
-0.000846112
0.000383595
-0.0045418
-0.00109469
0.000311517
-0.00437116
-0.00138214
0.000322662
-0.00423829
-0.00163191
0.000184304
-0.00331192
-0.000424745
0.000648546
-0.00527776
-0.000657957
0.000572164
-0.00518158
-0.00103759
0.00041974
-0.00475107
-0.00125496
0.00033708
-0.00479178
-0.00163503
0.000288304
-0.00357584
0.000142013
0.00117265
-0.00607121
-0.000298552
0.000719319
-0.0062941
-0.000679387
0.000553084
-0.00610949
-0.000905557
0.000433297
-0.00588723
-0.00119396
0.00027643
-0.00491334
-0.00139472
0.000263132
-0.00457822
0.00061339
0.00135978
-0.00670142
7.45497e-05
0.00105522
-0.00679156
-0.000387853
0.00108647
-0.00695297
-0.000300094
0.000850077
-0.00648614
-0.000722288
0.000643575
-0.00607307
-0.000641431
9.81082e-05
-0.00642776
-0.00109407
-0.000270042
-0.00549579
0.000343886
0.00104933
-0.00472979
0.000572395
0.00117588
-0.00530316
0.000175729
0.00128295
-0.00567128
0.00010136
0.00126375
-0.00588919
0.000180268
0.00114083
-0.00580919
-0.000290027
0.000908171
-0.00630195
-0.000723617
0.000895301
-0.00784622
-0.00124178
7.16443e-05
-0.00588645
0.000107813
2.98591e-05
-0.0042613
0.000341992
0.00040496
-0.00394518
0.000436759
0.000593125
-0.00387575
0.000635253
0.000625123
-0.0056118
0.000276839
0.000449021
-0.00543007
1.96734e-05
0.000527453
-0.00582619
-0.00029448
0.000457336
-0.00521827
-0.000544118
0.000495482
-0.00569826
-0.00127304
0.000366505
-0.00535346
0.000338773
2.4332e-07
-0.00160034
9.5478e-07
-0.00011828
-0.00105687
0.000153918
-0.000244818
-0.00243568
0.000178121
-0.000416087
-0.00381765
0.00031201
-4.55368e-05
-0.00417025
0.00022133
0.000140952
-0.00394139
1.06723e-05
0.000545466
-0.00295642
-0.000344718
0.000798001
-0.003198
-0.0005425
0.000857664
-0.00402699
-0.00129929
0.000599357
-0.00626244
0.00026981
-0.000281695
-0.00149398
0.000216131
-0.000289572
-0.00219957
2.1814e-05
-0.000274742
-0.00236187
9.19193e-05
-0.000327759
-0.00235316
4.3536e-05
-0.000386447
-0.00282157
8.26052e-05
-0.000371126
-0.00336921
-3.45263e-05
-0.000356882
-0.00349868
-7.99792e-05
-0.000351478
-0.00296255
-1.10479e-05
-0.000188759
-0.0014746
-0.0002354
0.000215824
-0.00140311
-0.000710621
0.000278654
-0.00348383
0.000229111
-0.000286103
-0.00132031
0.000183418
-0.000166536
-0.00217199
0.000147737
-0.000119525
-0.00173816
7.94754e-05
-0.000115198
-0.00152584
-7.77196e-05
-7.86925e-05
-0.00186085
-3.40995e-05
-9.13427e-05
-0.00226937
-0.000166462
-0.000187139
-0.00254881
-0.00015291
-0.000230428
-0.00167291
-0.000193785
-0.000228559
-0.000172643
-6.89407e-05
-0.000167958
-0.00123477
-3.98526e-05
-9.60718e-05
-0.00130935
-0.00012868
-8.94162e-06
-0.0001337
3.32107e-05
-0.00010574
0.00125432
3.17994e-05
-0.000107723
3.58666e-05
-1.04573e-05
-0.000117018
-0.000425441
-2.55635e-06
-0.000106275
-7.68534e-05
4.31883e-06
-8.41258e-05
6.26868e-05
-7.25835e-05
-6.11295e-05
0.000495358
-4.69342e-05
-5.73502e-05
-0.000126937
-6.7138e-05
-6.19501e-05
-9.92053e-05
-0.000139636
-5.04076e-05
0.000310316
-0.000119986
-4.55388e-05
-0.000213028
-8.81503e-05
-5.31568e-05
-0.000720022
-1.90024e-05
-4.72402e-05
0.000413205
-1.71669e-06
-2.22312e-05
0.00201892
-0.00164793
3.51382e-05
-0.00264164
-0.00134405
-2.31071e-05
-0.00351173
-0.001555
-7.13722e-05
-0.00292159
-0.00117556
0.00028597
-0.0040069
-0.00119373
7.36387e-05
-0.00384174
-0.00157409
-2.30958e-06
-0.003215
-0.000877392
0.000266124
-0.00423884
-0.000995719
0.000101518
-0.00430842
-0.00130409
8.72021e-05
-0.00400573
-0.00156406
2.02129e-06
-0.00344606
-0.000577057
0.000533822
-0.00470955
-0.000766559
0.000388027
-0.0045097
-0.00104686
0.000347402
-0.00438664
-0.00134061
0.000304685
-0.00427302
-0.00169919
7.78353e-05
-0.00332559
-0.000207011
0.000988525
-0.00527868
-0.000374012
0.000712064
-0.0053422
-0.000777963
0.000579827
-0.00524309
-0.000975692
0.000423887
-0.00476775
-0.00122246
0.000441086
-0.00491606
-0.00161337
0.000213372
-0.00357056
0.000326251
0.00154361
-0.00578597
6.2105e-05
0.00103522
-0.00637467
-0.000446376
0.00072748
-0.00640997
-0.000640589
0.000607016
-0.00594271
-0.000911332
0.000439327
-0.00586109
-0.000833693
0.000437979
-0.00489593
-0.00140941
0.000146011
-0.00440889
0.000295218
0.00154826
-0.00615307
0.000490252
0.00117033
-0.0067344
-6.02322e-05
0.0012207
-0.00668984
-0.000364737
0.00104305
-0.00667985
-0.000324019
0.00090986
-0.00624814
-0.000759337
0.000710518
-0.00621617
-0.00110521
3.97274e-05
-0.00635594
-0.00116938
-0.000143405
-0.00542479
0.00014304
0.00133886
-0.00464024
0.000473778
0.00113814
-0.00482384
0.000457035
0.0012423
-0.00528279
0.00046037
0.00145154
-0.00568419
5.20911e-05
0.000924613
-0.00544822
0.000135787
0.000966948
-0.00598408
-0.000205872
0.0010043
-0.00649956
-0.000631033
0.000577939
-0.0082656
-0.00114075
-3.97411e-05
-0.005979
0.000370085
0.000146491
-0.00411483
6.42302e-05
9.59279e-05
-0.00401554
0.000482152
0.000306536
-0.00398682
0.000500865
0.00045211
-0.00402548
0.000680166
0.000454015
-0.00598495
0.000703091
0.000467853
-0.00585223
2.22195e-05
0.000484571
-0.00586497
-0.000295886
0.000442205
-0.00521382
-0.000366853
0.000530591
-0.00603799
-0.00126348
0.000385405
-0.00577468
0.00022966
0.000239928
-0.000938781
0.000296941
-8.43073e-06
-0.001791
3.79121e-06
-8.79835e-05
-0.00119569
0.000256973
-0.000299499
-0.00271732
0.000214914
-0.000473881
-0.00356068
0.00056074
-0.000229451
-0.00427798
0.00015669
0.000118227
-0.00370536
-3.23055e-05
0.000657172
-0.00286326
-0.000373659
0.000774423
-0.00275215
-0.000281967
0.000820475
-0.00420154
-0.0013991
0.000449351
-0.00602331
0.000166532
-0.000238238
-0.00139534
0.000288759
-0.000304
-0.00158489
0.000173474
-0.000293201
-0.00220685
-1.60105e-05
-0.000257098
-0.00233704
6.47663e-05
-0.000320518
-0.00256158
3.74195e-05
-0.000346691
-0.00291753
3.28672e-05
-0.000320097
-0.00360533
-7.87872e-05
-0.000306216
-0.00361806
-7.05705e-05
-0.000286655
-0.00298786
-6.79207e-05
-0.000107548
-0.00115225
-0.000186298
0.000222514
-0.00120052
-0.000766724
0.000221058
-0.00306684
9.58247e-05
-0.000255872
-0.000332168
0.000245666
-0.000272224
-0.00142849
0.000170421
-0.00014977
-0.00232262
0.000117835
-0.000112341
-0.00186141
5.19627e-05
-0.000110521
-0.00154166
-5.90253e-05
-6.304e-05
-0.00190271
-7.29029e-05
-8.53426e-05
-0.0023452
-0.000167952
-0.00018648
-0.00249194
-0.000136061
-0.000231503
-0.00167354
-0.000178971
-0.000222103
-5.95126e-05
-6.31159e-05
-0.000159426
-0.00119645
-1.80646e-05
-0.00010477
-0.00121446
-6.03247e-05
-2.917e-05
-4.59217e-05
6.01427e-05
-0.000123107
0.00122982
4.83829e-05
-0.000105999
0.00120421
2.61892e-05
-0.000108198
8.58119e-07
-9.23387e-06
-0.000116574
-0.000405908
-6.19743e-06
-0.000105158
-4.96239e-05
1.81959e-06
-8.43858e-05
8.41235e-05
-7.20341e-05
-6.30357e-05
0.000573077
-5.66321e-05
-5.63274e-05
-7.59276e-05
-6.24775e-05
-6.10124e-05
-2.61231e-05
-0.000132583
-4.98136e-05
0.000447173
-0.000116696
-4.72709e-05
-0.000102218
-8.914e-05
-5.23685e-05
-0.000625754
-6.1462e-06
-4.77654e-05
0.000444885
3.93678e-06
-2.28053e-05
0.00203779
-0.0017131
9.08277e-05
-0.00221867
-0.0014169
0.000139811
-0.00310741
-0.00171775
0.000130373
-0.00260927
-0.00139975
0.000167298
-0.00361633
-0.00129514
-1.17458e-05
-0.00346994
-0.0016043
-2.37242e-05
-0.00286765
-0.000938841
0.000300945
-0.00403618
-0.00118004
0.000284428
-0.00403336
-0.00135811
8.74416e-06
-0.00379877
-0.00155271
-3.01963e-05
-0.00319615
-0.000802158
0.000470011
-0.0044256
-0.000958031
0.000279684
-0.00422554
-0.00105987
0.000143126
-0.00435133
-0.00135553
1.20899e-06
-0.00399001
-0.00167081
-1.19523e-05
-0.00346249
-0.000430514
0.00072688
-0.00484265
-0.000525531
0.000506821
-0.00467682
-0.000818198
0.000356698
-0.00447876
-0.000992902
0.000359413
-0.00442416
-0.00144628
0.000203528
-0.00417489
-0.00169171
5.82029e-05
-0.00330546
-0.000225711
0.00138075
-0.00498146
-5.6258e-05
0.00102249
-0.00547074
-0.000457677
0.0006954
-0.00544648
-0.000796311
0.000575849
-0.00523933
-0.000964916
0.000477866
-0.00475094
-0.00135742
0.000457726
-0.00463669
-0.00163501
0.000152951
-0.00349791
0.000235869
0.00180041
-0.00561139
0.00049632
0.00134279
-0.0060996
-0.000185492
0.00104251
-0.00656444
-0.000388143
0.000718643
-0.00649819
-0.000518645
0.000609588
-0.00591835
-0.000879413
0.000425817
-0.00572885
-0.00112799
0.000154646
-0.00488178
-0.00153788
0.000151278
-0.00419167
0.00022313
0.00167576
-0.00566009
0.00055075
0.00148736
-0.00654706
0.000205628
0.00126184
-0.00652412
0.0001712
0.00125006
-0.00660767
-0.000119731
0.00112596
-0.00672412
-0.000234027
0.000879094
-0.0060469
-0.000633356
0.000750225
-0.00649919
-0.00095693
0.000171991
-0.00634544
-0.00127358
0.000109537
-0.00540149
0.000103874
0.00130248
-0.00488064
-4.47244e-05
0.000988045
-0.00438118
0.00070761
0.00112109
-0.00492809
0.000773831
0.00111203
-0.00521624
0.000604456
0.000949803
-0.00563367
0.000890092
0.00078913
-0.00545741
0.000211426
0.000970508
-0.00613949
-7.1737e-05
0.000895528
-0.00704129
-0.000322491
0.000249024
-0.00859873
-0.00117513
5.2289e-05
-0.00611964
0.000401643
0.00022186
-0.00318723
0.000332444
0.000125535
-0.00417994
0.000181107
5.55244e-05
-0.00394185
0.000552084
0.000210028
-0.00403985
0.000689836
0.000328602
-0.00437499
0.000565807
0.000487882
-0.00601005
2.533e-06
0.000558353
-0.00577185
-0.000160712
0.000478049
-0.00577241
-6.82467e-05
0.000472064
-0.00546071
5.62816e-05
0.000846126
-0.00683696
-0.0014765
0.000554115
-0.00625141
2.43258e-05
0.000357884
-0.000747962
0.000444294
0.000218926
-0.00132167
0.000175226
-2.31367e-05
-0.0018576
-5.07382e-05
-6.60908e-05
-0.00139437
0.00023851
-0.000322917
-0.00304203
0.000210758
-0.000492846
-0.00347063
0.000457806
-0.000333466
-0.00425123
1.09917e-05
0.000212254
-0.00335022
-6.49686e-05
0.000615139
-0.00270958
-0.000218075
0.000755975
-0.00253749
6.41531e-05
0.000706171
-0.00470881
-0.00143285
0.000396791
-0.00575397
5.31333e-05
-0.00018792
-0.000930751
0.000235748
-0.000297184
-0.00139224
0.000276949
-0.000315375
-0.00166925
0.000120112
-0.000292121
-0.0021741
-1.85631e-05
-0.000250282
-0.00233675
0.00013274
-0.000296755
-0.00280328
3.97747e-06
-0.000312619
-0.00300189
-7.01525e-05
-0.000313076
-0.00369627
-7.29622e-05
-0.000281278
-0.00368654
-0.000106194
-0.000253203
-0.00291498
-1.34345e-05
-7.96296e-05
-0.000899785
-0.000100848
0.000197145
-0.00109382
-0.000531192
0.000197531
-0.00279351
7.37166e-05
-0.000199997
5.42748e-05
0.000154384
-0.000255709
-0.000454684
0.000246973
-0.000254713
-0.00154433
0.000155472
-0.000146298
-0.00245337
9.09281e-05
-0.000124134
-0.00194492
2.15724e-05
-0.00010987
-0.00151458
-4.73257e-05
-6.02947e-05
-0.00195246
-0.000112232
-9.00694e-05
-0.00238601
-0.000131847
-0.000185527
-0.00246855
-0.000117699
-0.000231847
-0.00167868
-0.00017307
-0.000210386
4.78202e-05
-5.43413e-05
-0.000160464
-0.00117555
4.24221e-05
-0.000122248
-0.00116995
1.59762e-05
-4.76893e-05
-1.02717e-05
5.56402e-05
-0.000121338
0.000885444
6.30841e-05
-0.000123447
0.00118419
5.85105e-05
-0.000106081
0.00114358
1.59833e-05
-0.000108623
-2.30757e-05
-1.18829e-05
-0.000116109
-0.000383074
-1.01892e-05
-0.000104105
-1.97157e-05
-1.32672e-06
-8.46276e-05
0.000107042
-6.75936e-05
-6.44447e-05
0.000648788
-6.16683e-05
-5.64028e-05
-1.88689e-05
-5.78993e-05
-6.03439e-05
4.23064e-05
-0.000125602
-4.92589e-05
0.000574763
-0.00011341
-4.68287e-05
5.65176e-06
-8.97659e-05
-5.06517e-05
-0.000533102
9.47753e-07
-4.80612e-05
0.000469193
1.11633e-05
-2.3268e-05
0.00204989
-0.00181785
0.000125267
-0.00232953
-0.00137099
9.24785e-05
-0.00295079
-0.00166767
-2.84343e-05
-0.00224031
-0.00153913
0.000336576
-0.00321713
-0.00138261
0.000211064
-0.00310064
-0.00173023
0.00014204
-0.00262538
-0.0010192
0.00029282
-0.00383376
-0.00135189
0.000161322
-0.00361755
-0.00147936
4.25565e-05
-0.00341497
-0.0015642
-5.01815e-06
-0.00285115
-0.000886653
0.000427539
-0.00412812
-0.000948489
0.000265481
-0.00402678
-0.00124072
0.000204473
-0.00404825
-0.00144898
4.02378e-05
-0.00377575
-0.00158204
-5.23794e-05
-0.00323255
-0.000551571
0.000674669
-0.00446837
-0.000737491
0.000462218
-0.00439617
-0.000952865
0.000314674
-0.00426242
-0.0010479
0.00011126
-0.00440638
-0.00138815
1.51632e-05
-0.00407525
-0.00161593
2.84141e-05
-0.00356668
-0.000378126
0.000954739
-0.0050648
-0.000316481
0.000740007
-0.00481562
-0.000529259
0.000477689
-0.00472623
-0.000742769
0.000334493
-0.00450738
-0.000974532
0.000303088
-0.0045141
-0.00140225
0.000147117
-0.00421898
-0.00172468
0.000120527
-0.00333632
7.27037e-05
0.00161611
-0.00519916
0.000288537
0.00135351
-0.0051047
-0.000209405
0.00100231
-0.00575374
-0.000506977
0.000724173
-0.00547597
-0.000571268
0.000591949
-0.00530079
-0.000732119
0.000494488
-0.004935
-0.00134273
0.00039021
-0.00465921
-0.00164181
7.24516e-05
-0.00346644
7.42519e-06
0.00193111
-0.00547911
0.000527702
0.00165118
-0.00589674
0.000376517
0.0013301
-0.00655808
-1.7316e-05
0.000939389
-0.00659667
-0.000235858
0.000759612
-0.00653209
-0.000561166
0.00068041
-0.0058458
-0.000784631
0.000347325
-0.00577025
-0.000894645
0.00024553
-0.00503831
-0.00156938
0.000127255
-0.00402313
6.48401e-05
0.00172425
-0.00545689
3.75466e-05
0.001717
-0.005972
0.000421872
0.00140039
-0.00639988
0.000466288
0.00134597
-0.00631249
0.000210829
0.00126888
-0.00635697
-7.51822e-05
0.00121445
-0.0060942
2.69773e-05
0.000982707
-0.00609493
-0.000380726
0.000774793
-0.006793
-0.000791115
0.000422721
-0.00619
-0.00134455
0.000190409
-0.00542248
0.000445125
0.000799771
-0.00571956
0.000128195
0.000939651
-0.004628
0.00023552
0.0010724
-0.0043869
0.000737719
0.000938812
-0.00494051
0.000724516
0.00107463
-0.00537575
0.000617283
0.000946344
-0.00584236
3.56138e-05
0.000922644
-0.00544262
3.86966e-05
0.000940947
-0.00638432
0.000460812
0.00059348
-0.00791481
-0.000351716
0.000288396
-0.00842684
-0.00119914
0.000297129
-0.00669412
0.000170405
0.000106611
-0.00315243
0.000576589
0.000288788
-0.00348278
0.000232387
6.19918e-05
-0.00424356
0.000272591
5.46428e-05
-0.00410979
0.000590879
8.14261e-06
-0.00407176
0.000520105
0.000309526
-0.00450598
0.000256159
0.000564436
-0.00581449
0.000171867
0.000477835
-0.00593252
-7.09231e-05
0.000512703
-0.00580709
0.000120769
0.00068392
-0.00563734
0.000282362
0.00107864
-0.0075797
-0.00138611
0.00046574
-0.00676388
-3.23864e-05
0.000416741
-0.000933871
0.0002509
0.000339262
-0.00088345
0.000483314
0.000175399
-0.00172657
7.60278e-05
-1.75806e-05
-0.00186202
-5.57488e-05
-9.41111e-05
-0.00158599
0.000228006
-0.000497358
-0.00313278
0.000177083
-0.000601295
-0.0033759
0.000305068
-0.000346323
-0.00406787
-4.35108e-06
0.000241401
-0.0030451
-9.2478e-05
0.000688584
-0.0026559
0.000220039
0.000656503
-0.0027213
2.77552e-05
0.000540176
-0.0049808
-0.00110823
0.000406836
-0.00558377
-2.65326e-05
-0.000110806
-0.000712535
0.000125023
-0.000237345
-0.000961228
0.000274757
-0.000340534
-0.00139486
0.000233916
-0.000330481
-0.00170933
6.8203e-05
-0.000288653
-0.00211301
0.000117772
-0.000252245
-0.00247746
0.000178473
-0.000258502
-0.00308319
-4.86548e-05
-0.000243225
-0.00313531
-0.000110108
-0.000298682
-0.0037006
-8.26564e-05
-0.000259039
-0.00371574
-0.000138453
-0.000237142
-0.00279209
1.8925e-05
-8.94554e-05
-0.000686451
3.63575e-05
0.000158003
-0.00104823
-0.000305989
0.000168124
-0.00263967
2.27584e-05
-0.000190317
-8.15226e-05
8.82749e-05
-0.000206965
-1.96598e-05
0.000181198
-0.000254609
-0.000577476
0.000214761
-0.000250815
-0.00163859
0.00013204
-0.000150672
-0.00257075
6.30461e-05
-0.00012396
-0.00200407
-3.77002e-05
-0.000116164
-0.00142234
-1.10228e-05
-6.67106e-05
-0.00203239
-0.000144727
-9.04308e-05
-0.00239804
-0.000106762
-0.000184332
-0.0024672
-9.33319e-05
-0.000228243
-0.00169309
-0.00015631
-0.000203789
0.000134046
-4.26483e-05
-0.000173968
-0.00117095
8.75201e-05
-0.000129424
-0.00117479
9.17369e-05
-6.57931e-05