/*--------------------------------*- C++ -*----------------------------------*\
  =========                 |
  \\      /  F ield         | OpenFOAM: The Open Source CFD Toolbox
   \\    /   O peration     | Website:  https://openfoam.org
    \\  /    A nd           | Version:  7
     \\/     M anipulation  |
\*---------------------------------------------------------------------------*/
FoamFile
{
    version     2.0;
    format      ascii;
    class       volScalarField;
    location    "1";
    object      p;
}
// * * * * * * * * * * * * * * * * * * * * * * * * * * * * * * * * * * * * * //

dimensions      [0 2 -2 0 0 0 0];

internalField   nonuniform List<scalar> 
18750
(
-73.3135
-72.9271
-73.1609
-73.2287
-71.6215
-71.6866
-72.8052
-73.0292
-73.2362
-73.2091
-72.4446
-64.7839
-71.4969
-73.9354
-71.4792
-72.8342
-74.659
-72.9655
-73.4697
-73.2495
-73.0194
-73.8825
-72.1247
-73.0838
-54.6099
-71.4507
-75.3425
-73.9237
-71.9547
-72.9391
-74.9949
-74.6686
-72.9959
-73.8115
-73.3472
-73.5293
-74.0379
-72.5179
-74.7433
-74.4266
-71.8664
-74.8941
-72.6179
-64.7363
-71.7644
-75.4626
-75.3025
-73.9497
-72.3034
-73.1381
-75.4184
-75.0199
-74.6805
-73.123
-74.1936
-73.5404
-73.4008
-73.8205
-72.939
-75.6274
-73.2067
-72.082
-75.0071
-74.4766
-73.9914
-71.6905
-75.6256
-74.8463
-72.6819
-66.4144
-72.2176
-75.7791
-75.4922
-75.2658
-73.9977
-72.6055
-73.4132
-75.6395
-75.4481
-75.0478
-74.7077
-73.3769
-74.5334
-73.8057
-73.5759
-73.4131
-72.9695
-75.1175
-73.1733
-72.2218
-74.5496
-75.3298
-72.9123
-71.6584
-75.6179
-74.739
-74.151
-74.3461
-71.6586
-75.8097
-75.6376
-74.8906
-72.8176
-70.5612
-72.496
-75.8849
-75.7765
-75.5217
-75.2371
-74.0637
-73.2869
-73.6979
-75.7281
-75.6568
-75.4735
-75.0787
-74.7533
-73.7065
-74.7678
-74.1004
-73.1745
-72.098
-73.5086
-74.5728
-72.4565
-72.6714
-74.7177
-74.8342
-72.8741
-71.5615
-75.619
-74.0305
-75.0965
-73.1869
-71.3569
-75.8053
-75.5701
-74.5462
-74.0069
-74.778
-71.7717
-75.9506
-75.8273
-75.6532
-74.9143
-73.1416
-72.343
-73.0808
-76.0052
-75.8824
-75.7707
-75.5521
-75.2381
-74.1583
-73.8836
-73.97
-75.9997
-75.7323
-75.6726
-75.4958
-75.1071
-74.8104
-74.035
-74.8304
-74.375
-72.8037
-72.6105
-73.0364
-74.3266
-71.7925
-73.6135
-74.8051
-74.0696
-71.8468
-72.333
-75.6031
-74.4967
-74.6046
-72.592
-71.0152
-75.6338
-75.3389
-73.6171
-74.9014
-73.4145
-71.2486
-76.0674
-75.7895
-75.5383
-74.3795
-74.167
-74.351
-71.9829
-76.0803
-75.9525
-75.8659
-75.6548
-74.9173
-73.5101
-72.8589
-73.5043
-76.1761
-76.0082
-75.8803
-75.7814
-75.5872
-75.2716
-74.2679
-74.3681
-74.2126
-76.1166
-76.0088
-75.74
-75.6883
-75.5123
-75.1311
-74.869
-74.3127
-74.7456
-74.5941
-72.3987
-73.0029
-72.7527
-73.2136
-72.7347
-73.1199
-74.3773
-73.7364
-71.8094
-73.2854
-75.3877
-74.5904
-73.8586
-71.4009
-72.1778
-75.6741
-75.1949
-74.2534
-74.4947
-72.4925
-70.5341
-75.8331
-75.5095
-75.0565
-73.3205
-74.7256
-73.4258
-71.1638
-76.2281
-76.057
-75.802
-75.5016
-74.2881
-74.36
-74.2535
-72.3216
-76.3682
-76.0684
-75.9587
-75.9008
-75.72
-74.8966
-73.8282
-73.8471
-73.8142
-76.2993
-76.1854
-76.007
-75.8786
-75.8112
-75.644
-75.3327
-74.3831
-74.7304
-74.387
-76.3367
-76.1257
-76.0179
-75.7505
-75.7029
-75.5242
-75.1546
-74.9209
-74.5132
-74.7145
-74.7494
-72.4531
-72.4293
-73.0176
-73.068
-72.8433
-73.7222
-72.8904
-73.2053
-73.0361
-74.7722
-74.2572
-73.536
-72.3845
-73.1045
-75.9109
-75.4287
-74.5622
-73.7803
-71.3851
-71.9399
-75.9504
-75.528
-74.9534
-74.1955
-74.8268
-72.819
-70.7498
-76.3262
-75.8351
-75.4638
-74.8873
-73.1681
-74.6524
-73.6533
-71.7809
-76.4606
-76.2016
-76.0563
-75.8234
-75.4546
-74.2385
-74.3963
-74.405
-72.7639
-76.4363
-76.3676
-76.06
-75.9714
-75.9184
-75.775
-74.9161
-74.0759
-74.4007
-74.0086
-76.4929
-76.278
-76.1956
-76.0037
-75.8779
-75.8327
-75.708
-75.4197
-74.4927
-74.9378
-74.513
-76.3859
-76.3387
-76.1401
-76.0267
-75.7641
-75.7177
-75.5354
-75.1792
-74.9615
-74.6295
-74.803
-74.8566
-72.1181
-72.27
-72.8074
-72.5496
-73.4026
-72.7826
-73.213
-72.8164
-73.9272
-73.6388
-72.9682
-73.6978
-72.8493
-74.9649
-74.6972
-74.1403
-73.4022
-73.1614
-73.0436
-76.2331
-75.748
-75.1368
-74.7127
-73.8059
-71.6995
-71.4605
-76.3342
-75.8613
-75.4609
-74.9041
-74.4077
-75.159
-73.1474
-71.6267
-76.6523
-76.4626
-75.852
-75.494
-74.8063
-73.1627
-74.6902
-74.1149
-72.7267
-76.6716
-76.4494
-76.1767
-76.0597
-75.8544
-75.4871
-74.2528
-74.5208
-74.5856
-73.15
-76.7083
-76.4236
-76.3719
-76.0526
-75.9906
-75.9326
-75.8058
-74.9521
-74.2852
-74.7806
-74.2116
-76.5463
-76.4997
-76.2551
-76.2035
-75.9998
-75.8771
-75.844
-75.7435
-75.4887
-74.5872
-75.036
-74.6075
-76.4498
-76.3868
-76.3362
-76.1517
-76.0351
-75.7767
-75.7314
-75.5463
-75.2044
-74.989
-74.6756
-74.8875
-74.9362
-71.7812
-72.6542
-72.2329
-72.8265
-72.2457
-73.2375
-72.4666
-73.4961
-73.3662
-72.6757
-73.2793
-72.5159
-74.2168
-73.6228
-73.6687
-73.1262
-73.6248
-72.7092
-75.4286
-74.9206
-74.6196
-74.0856
-73.3998
-73.1026
-72.7892
-76.4983
-76.3502
-75.9085
-75.2722
-74.8701
-73.8873
-72.1109
-71.7656
-76.9738
-76.2867
-75.7976
-75.4089
-74.949
-74.8039
-75.3547
-73.7667
-71.9959
-76.9788
-76.6552
-76.2234
-75.8477
-75.5762
-74.8104
-73.2779
-74.7679
-74.6583
-74.0181
-76.9713
-76.6458
-76.4449
-76.1488
-76.0783
-75.8945
-75.5672
-74.3214
-74.5669
-74.8178
-73.5529
-76.6385
-76.6711
-76.4099
-76.3823
-76.0444
-76.0181
-75.9446
-75.8653
-75.0483
-74.4551
-75.1255
-74.3782
-76.5393
-76.5468
-76.5087
-76.2324
-76.2123
-75.9935
-75.8765
-75.8509
-75.7761
-75.5321
-74.6663
-75.0757
-74.6935
-76.6367
-76.458
-76.3875
-76.3349
-76.157
-76.0423
-75.7852
-75.7392
-75.5573
-75.2315
-75.0027
-74.6737
-75.0148
-74.9887
-71.9167
-72.0128
-72.2502
-71.9277
-72.2874
-72.1972
-72.6694
-72.958
-72.3014
-72.8095
-72.0682
-73.5387
-73.4759
-73.327
-72.7281
-72.7822
-72.1911
-74.566
-74.1337
-73.8833
-73.7289
-73.1511
-73.2598
-72.5494
-76.2899
-75.6982
-74.9203
-74.501
-74.1194
-73.61
-72.9928
-72.5547
-77.1502
-76.6879
-76.4997
-76.4412
-75.6466
-75.0609
-74.1584
-72.6305
-73.1999
-77.2654
-76.91
-76.3038
-75.8002
-75.7808
-75.1593
-75.302
-75.5756
-74.1039
-72.8534
-77.24
-76.9507
-76.5594
-76.2868
-75.8759
-75.6008
-74.866
-73.5494
-74.9397
-75.4166
-74.9034
-76.88
-76.9394
-76.6269
-76.429
-76.1354
-76.1122
-75.9531
-75.7248
-74.5282
-74.6867
-75.0529
-74.0499
-76.7575
-76.6597
-76.6451
-76.3978
-76.3918
-76.0424
-76.0365
-75.956
-75.9318
-75.2111
-74.5618
-75.3528
-74.5622
-76.796
-76.5381
-76.5444
-76.5092
-76.2076
-76.2232
-75.9876
-75.8766
-75.8589
-75.8027
-75.5728
-74.7321
-75.1294
-74.7802
-76.7316
-76.6313
-76.4663
-76.3891
-76.3389
-76.1608
-76.0468
-75.7918
-75.7431
-75.5679
-75.2642
-75.0053
-74.6364
-75.2117
-75.0119
-72.3209
-71.9326
-71.6593
-71.9964
-71.9726
-72.385
-71.9543
-72.0532
-71.9663
-72.874
-72.6591
-72.8832
-72.3572
-72.2058
-72.0437
-73.8585
-73.5199
-73.4418
-73.2814
-72.6817
-72.6209
-71.9979
-74.9816
-74.5605
-74.2279
-73.994
-73.7328
-73.2157
-73.0891
-72.5767
-76.8016
-76.3072
-75.7891
-75.3869
-74.5351
-74.2375
-74.0772
-72.7967
-72.9405
-77.2372
-76.9977
-76.778
-76.4835
-76.7885
-76.1133
-75.366
-74.5376
-73.4001
-73.5995
-77.6498
-77.2911
-76.6416
-76.3219
-75.8931
-75.8908
-75.5515
-75.8644
-75.6554
-74.5924
-74.1013
-77.3398
-77.2193
-76.8718
-76.5088
-76.246
-75.9548
-75.7125
-75.0712
-73.9269
-75.1548
-75.8665
-75.5298
-77.1168
-76.8688
-76.8876
-76.6472
-76.4158
-76.1337
-76.1531
-76.0242
-75.9118
-74.7924
-74.8429
-75.2714
-74.4334
-77.0018
-76.7523
-76.6609
-76.6277
-76.3932
-76.3976
-76.0427
-76.0433
-75.9668
-75.9839
-75.3455
-74.6377
-75.4501
-74.7739
-76.8679
-76.7902
-76.5316
-76.5432
-76.5059
-76.1853
-76.2357
-75.9826
-75.8797
-75.8662
-75.826
-75.6066
-74.7986
-75.2456
-74.8402
-76.8049
-76.7316
-76.6266
-76.4671
-76.3916
-76.3437
-76.1625
-76.0497
-75.7975
-75.7448
-75.5764
-75.3002
-75.0035
-74.6108
-75.287
-75.011
-71.5618
-71.5424
-72.7125
-71.4749
-72.0294
-71.6309
-72.2629
-71.8175
-72.175
-72.3264
-71.9728
-71.8709
-71.7129
-73.1878
-72.8319
-72.613
-72.7428
-72.2878
-72.0982
-72
-73.9988
-73.786
-73.5253
-73.4422
-73.1593
-72.6441
-72.4924
-71.9337
-75.2325
-75.013
-74.7115
-74.3343
-74.133
-73.8005
-73.3052
-73.1074
-72.745
-76.8834
-76.8335
-76.4151
-75.8974
-75.3456
-74.4436
-74.2161
-73.9451
-72.9534
-73.2029
-77.2871
-77.0931
-76.883
-76.8268
-76.883
-76.9589
-76.7192
-76.0463
-75.2192
-74.2751
-73.7015
-77.564
-77.5056
-77.0049
-76.6622
-76.3756
-76.1861
-76.0786
-76.2792
-76.4472
-76.1514
-75.6736
-75.3108
-77.3811
-77.2764
-77.1465
-76.8331
-76.4382
-76.2296
-76.0386
-75.8509
-75.4009
-74.4887
-75.4785
-75.9498
-75.8306
-77.0111
-77.0808
-76.862
-76.8141
-76.696
-76.4799
-76.1598
-76.197
-76.1027
-76.0542
-75.0312
-74.9742
-75.4344
-74.6606
-77.0103
-76.9859
-76.7724
-76.631
-76.6171
-76.3761
-76.41
-76.0692
-76.0461
-75.971
-76.0484
-75.4455
-74.7377
-75.5725
-74.8861
-76.9238
-76.8723
-76.7891
-76.5208
-76.5429
-76.4999
-76.1663
-76.2431
-75.9749
-75.8817
-75.8728
-75.8466
-75.6531
-74.8694
-75.3048
-74.9065
-76.9362
-76.8056
-76.7313
-76.6283
-76.463
-76.3946
-76.348
-76.1616
-76.0512
-75.802
-75.7446
-75.5846
-75.3287
-74.9999
-74.622
-75.2695
-74.9761
-71.1695
-72.0608
-70.6256
-71.8587
-71.4833
-72.3231
-71.1193
-71.7597
-72.089
-71.6594
-71.7816
-71.5142
-72.3148
-72.1951
-72.2303
-71.8622
-71.7945
-71.7077
-73.0729
-73.1281
-72.7516
-72.6167
-72.587
-72.2719
-72.1286
-71.8759
-74.2291
-74.0691
-73.8424
-73.49
-73.2617
-73.0916
-72.5388
-72.4841
-71.8574
-75.7135
-75.4296
-75.1949
-74.9615
-74.4482
-74.341
-73.9062
-73.6702
-73.0106
-72.744
-76.7886
-76.7057
-76.8606
-77.001
-76.5137
-75.3046
-74.7491
-74.4774
-74.0749
-73.1296
-72.8876
-77.4063
-77.1255
-76.8013
-76.7914
-76.8726
-77.2848
-76.9797
-77.0866
-76.7742
-75.826
-75.1177
-73.8496
-77.6577
-77.5594
-77.1751
-76.8676
-76.5372
-76.3501
-76.1948
-75.9515
-76.6748
-77.0711
-76.8786
-77.2267
-76.5302
-77.4925
-77.2539
-77.2351
-77.064
-76.7948
-76.4151
-76.2442
-76.1422
-75.9682
-75.6324
-75.0662
-75.5763
-76.1341
-75.9071
-77.1189
-77.0238
-77.0498
-76.8064
-76.7801
-76.6243
-76.4595
-76.2039
-76.2261
-76.1612
-76.1736
-75.2331
-75.096
-75.4794
-74.8532
-77.1052
-76.9947
-76.9493
-76.7745
-76.6268
-76.6229
-76.3572
-76.4052
-76.0753
-76.0472
-75.9812
-76.0775
-75.507
-74.8197
-75.5949
-74.9165
-76.9999
-76.9242
-76.8741
-76.7933
-76.5111
-76.5427
-76.4885
-76.156
-76.2428
-75.9636
-75.8822
-75.876
-75.8587
-75.7042
-74.9255
-75.325
-74.9818
-77.0257
-76.9358
-76.8064
-76.7321
-76.6338
-76.4626
-76.3985
-76.3532
-76.1588
-76.0524
-75.8059
-75.7432
-75.5921
-75.3373
-74.9913
-74.6041
-75.2423
-74.9658
-70.1614
-71.5691
-70.0778
-71.2555
-71.4899
-70.865
-71.4735
-71.7887
-71.3042
-71.3815
-71.052
-71.9258
-71.7746
-71.9356
-71.6132
-71.5332
-71.3174
-72.5061
-72.2981
-72.1224
-72.0717
-71.8797
-71.7447
-71.6919
-73.3776
-73.1248
-72.9633
-72.7179
-72.6492
-72.4594
-72.239
-72.0782
-71.8524
-74.5219
-74.2244
-74.2059
-73.9555
-73.4709
-73.3248
-73.1227
-72.5672
-72.7232
-72.0135
-76.0403
-75.6869
-75.4374
-75.2327
-74.9285
-74.5514
-74.3421
-73.9336
-73.7434
-72.9576
-72.8684
-76.9178
-76.7652
-76.6747
-77.0219
-76.9049
-76.5944
-75.4494
-75.1096
-74.942
-74.2227
-73.7047
-73.0893
-77.5019
-77.4062
-77.0143
-76.7883
-76.6146
-76.8396
-77.102
-77.4049
-77.6892
-77.5251
-76.136
-75.5574
-73.9182
-77.7792
-77.5505
-77.3849
-77.149
-76.7565
-76.4501
-76.2902
-76.4286
-76.3596
-76.5358
-77.4174
-77.6624
-77.9591
-77.1833
-77.3685
-77.4303
-77.1286
-77.2037
-77.0012
-76.7298
-76.3712
-76.2088
-76.2364
-76.0621
-75.7726
-75.4397
-75.8891
-76.365
-75.8567
-77.2904
-77.0994
-77.0343
-77.034
-76.7146
-76.7588
-76.5923
-76.4177
-76.2485
-76.2472
-76.2072
-76.2842
-75.4119
-75.2304
-75.4783
-75.0369
-77.1433
-77.1033
-76.9816
-76.9246
-76.7673
-76.6295
-76.62
-76.3411
-76.3913
-76.067
-76.0522
-75.9785
-76.0881
-75.5447
-74.8779
-75.5534
-74.9959
-77.1299
-77.0012
-76.924
-76.8709
-76.7988
-76.5086
-76.5435
-76.4757
-76.1487
-76.2435
-75.9528
-75.8845
-75.8741
-75.8604
-75.7399
-74.9758
-75.3421
-75.059
-77.2014
-77.0255
-76.9353
-76.8073
-76.7334
-76.6367
-76.4632
-76.4022
-76.3592
-76.1555
-76.0531
-75.8094
-75.7413
-75.5975
-75.3436
-74.9882
-74.5733
-75.1924
-74.9514
-69.687
-71.0836
-70.363
-70.8977
-70.83
-70.4751
-71.3365
-70.9949
-70.9845
-70.8094
-71.6083
-71.4662
-71.6323
-71.2064
-71.12
-71.0615
-71.9995
-71.9181
-71.7467
-71.6592
-71.4596
-71.4142
-71.3031
-72.6277
-72.4421
-72.2643
-72.1473
-72.0088
-71.8967
-71.7697
-71.6249
-73.601
-73.3057
-73.1601
-73.0685
-72.7165
-72.6337
-72.4335
-72.2486
-72.0749
-71.9454
-74.7657
-74.5466
-74.3321
-74.1028
-73.9897
-73.5814
-73.3399
-73.089
-72.8517
-72.905
-72.462
-76.1557
-75.8976
-75.9141
-75.479
-75.1719
-74.9687
-74.6841
-74.3949
-74.1891
-73.6932
-73.1292
-72.8532
-77.1427
-76.8539
-76.904
-76.8907
-76.6726
-76.5341
-76.5887
-76.0686
-75.4378
-74.9617
-74.3888
-74.1101
-73.2114
-77.5433
-77.4829
-77.2471
-76.9738
-76.7474
-76.6538
-76.8271
-77.3169
-77.9888
-78.1543
-78.0901
-76.4898
-75.9107
-74.1014
-77.7484
-77.6401
-77.4154
-77.2804
-76.9953
-76.7328
-76.4054
-76.3321
-76.6075
-76.6616
-76.8158
-77.6453
-78.1206
-78.0184
-77.5029
-77.3945
-77.2989
-77.3574
-77.0677
-77.1735
-76.907
-76.6665
-76.3552
-76.2255
-76.2678
-76.0742
-75.8765
-75.5967
-76.2063
-76.2108
-75.8
-77.2941
-77.2596
-77.0807
-77.0375
-77.0407
-76.7052
-76.6804
-76.5652
-76.3478
-76.264
-76.2588
-76.1997
-76.335
-75.5065
-75.3122
-75.6049
-75.1469
-77.2166
-77.1373
-77.1089
-76.9731
-76.9164
-76.7611
-76.6282
-76.6138
-76.3241
-76.3863
-76.0544
-76.0498
-75.9637
-76.0927
-75.5765
-74.9167
-75.5294
-75.003
-77.2776
-77.1277
-77.0016
-76.9231
-76.8648
-76.7973
-76.5119
-76.5443
-76.4642
-76.1411
-76.2416
-75.943
-75.8856
-75.8702
-75.8547
-75.7621
-75.0371
-75.3392
-75.1231
-77.2938
-77.2015
-77.0252
-76.9353
-76.8087
-76.7344
-76.638
-76.4623
-76.405
-76.3645
-76.152
-76.0535
-75.8126
-75.7395
-75.6026
-75.3551
-74.9962
-74.5504
-75.1845
-74.91
-69.7499
-70.4516
-70.3066
-70.5819
-70.6301
-70.2812
-71.0575
-70.7961
-70.5947
-70.47
-71.2725
-71.2307
-70.9335
-70.8562
-70.7811
-71.6312
-71.6135
-71.4098
-71.4054
-71.1971
-71.1365
-71.1097
-72.0774
-71.9871
-71.8676
-71.6518
-71.5617
-71.4409
-71.3832
-71.2485
-72.8091
-72.557
-72.4441
-72.2124
-72.1272
-71.9634
-71.8367
-71.7934
-71.6817
-73.7166
-73.6299
-73.3194
-73.2229
-73.0684
-72.6994
-72.6632
-72.465
-72.3197
-72.2169
-71.9522
-75.0302
-74.847
-74.6461
-74.3819
-74.1368
-73.9806
-73.5899
-73.4035
-73.024
-72.8641
-72.7922
-72.5477
-76.33
-76.2182
-76.0554
-75.9159
-75.4626
-75.259
-75.1516
-74.7892
-74.6436
-74.3672
-73.8445
-73.4328
-72.8921
-77.3264
-77.1827
-76.9303
-76.8387
-76.8137
-76.7143
-76.6463
-76.5034
-76.246
-75.7913
-75.5128
-74.6892
-74.1729
-73.4225
-77.5054
-77.4319
-77.3966
-77.1909
-76.8399
-76.694
-76.5647
-76.7693
-77.1624
-77.9198
-78.1772
-77.9412
-76.6894
-76.0557
-74.2419
-77.7367
-77.6054
-77.4678
-77.308
-77.202
-76.8105
-76.6688
-76.3054
-76.3397
-76.4605
-76.7172
-76.8129
-77.3729
-77.6783
-78.1561
-77.4283
-77.4374
-77.3217
-77.2294
-77.2656
-77.0815
-77.0522
-76.7941
-76.6009
-76.3622
-76.223
-76.2039
-76.0574
-75.8868
-75.5965
-76.1259
-76.0389
-75.6234
-77.3071
-77.2794
-77.226
-77.0538
-77.0136
-77.0418
-76.7349
-76.5745
-76.5426
-76.3279
-76.298
-76.2616
-76.1744
-76.332
-75.5757
-75.3581
-75.6778
-75.1755
-77.3533
-77.2071
-77.1325
-77.106
-76.9594
-76.9094
-76.7561
-76.6163
-76.5939
-76.3004
-76.3658
-76.044
-76.0412
-75.9498
-76.0568
-75.6008
-74.9809
-75.4961
-74.9659
-77.3725
-77.2737
-77.1243
-76.999
-76.9222
-76.8625
-76.7924
-76.5147
-76.5469
-76.4549
-76.1354
-76.2373
-75.935
-75.8844
-75.8625
-75.8368
-75.7807
-75.0853
-75.3426
-75.147
-77.3416
-77.2945
-77.2013
-77.025
-76.9359
-76.8103
-76.7351
-76.6379
-76.4607
-76.4067
-76.3691
-76.1484
-76.0537
-75.8155
-75.7378
-75.6083
-75.3689
-74.9939
-74.591
-75.1924
-74.9145
-69.6827
-69.9883
-69.9566
-70.3888
-70.324
-70.221
-70.8214
-70.5281
-70.4906
-70.3976
-71.0009
-70.9092
-70.6613
-70.5957
-70.5493
-71.2529
-71.2007
-71.1166
-70.9345
-70.8847
-70.7847
-71.6621
-71.7493
-71.5637
-71.3559
-71.2916
-71.1997
-71.1406
-71.092
-72.2465
-72.0035
-71.9837
-71.7706
-71.6461
-71.6148
-71.4487
-71.4064
-71.2989
-72.9906
-72.6192
-72.5491
-72.4517
-72.1538
-72.0875
-71.8774
-71.8316
-71.7558
-71.6424
-73.919
-73.8114
-73.6261
-73.3579
-73.2065
-73.0945
-72.7184
-72.6437
-72.6492
-72.2516
-72.2584
-72.1069
-75.2367
-74.9887
-74.8136
-74.7151
-74.3695
-74.2295
-73.9947
-73.6387
-73.4386
-73.0999
-72.8856
-72.9054
-72.536
-76.6283
-76.3683
-76.2662
-76.2624
-75.9898
-75.5927
-75.4231
-75.1503
-74.9593
-74.8076
-74.4265
-74.2192
-73.2445
-73.1596
-77.536
-77.3804
-77.1632
-76.8997
-76.8098
-76.7302
-76.7133
-76.6415
-76.563
-76.3981
-76.0044
-75.5195
-74.7133
-74.418
-73.4712
-77.4647
-77.4132
-77.3863
-77.2649
-77.1011
-76.734
-76.5692
-76.469
-76.6113
-77.0377
-77.5663
-77.3841
-77.341
-76.5199
-76.1071
-74.3756
-77.6863
-77.6197
-77.4776
-77.3077
-77.2027
-77.018
-76.789
-76.5782
-76.3458
-76.249
-76.3739
-76.579
-76.4806
-77.0205
-77.4032
-77.7757
-77.1186
-77.4197
-77.3912
-77.2634
-77.201
-77.1678
-77.0753
-76.9413
-76.7478
-76.5466
-76.3633
-76.2321
-76.1227
-76.0543
-75.8568
-75.6422
-75.9945
-75.8843
-75.4967
-77.4151
-77.2865
-77.2617
-77.1946
-77.023
-76.9744
-77.0943
-76.779
-76.5667
-76.4838
-76.3624
-76.2706
-76.2509
-76.1574
-76.3009
-75.6287
-75.4147
-75.6691
-75.2034
-77.4551
-77.3469
-77.1973
-77.1276
-77.1064
-76.9472
-76.9002
-76.7675
-76.6075
-76.5658
-76.2776
-76.3426
-76.0473
-76.0255
-75.9382
-75.9999
-75.6044
-75.0622
-75.4594
-75.0144
-77.4331
-77.371
-77.2673
-77.12
-76.9966
-76.9202
-76.8624
-76.7852
-76.5265
-76.5502
-76.4404
-76.1373
-76.2303
-75.9306
-75.8816
-75.851
-75.8132
-75.7933
-75.1397
-75.3424
-75.1955
-77.4241
-77.3416
-77.295
-77.201
-77.0251
-76.9365
-76.8114
-76.7359
-76.6371
-76.4589
-76.4079
-76.3716
-76.1446
-76.0537
-75.8183
-75.7362
-75.6134
-75.3679
-75.0077
-74.6759
-75.1903
-74.9332
-69.7172
-69.9898
-69.9137
-70.1509
-70.1156
-70.0662
-70.5551
-70.3381
-70.3114
-70.2753
-70.802
-70.6928
-70.5284
-70.4596
-70.4448
-71.048
-70.9945
-70.7986
-70.6677
-70.6465
-70.6016
-71.411
-71.2626
-71.0643
-71.0265
-70.9152
-70.8573
-70.8349
-71.9169
-71.6481
-71.6581
-71.5046
-71.3862
-71.2859
-71.1962
-71.2333
-71.1004
-72.479
-72.2378
-72.0457
-71.9534
-71.7661
-71.6581
-71.5408
-71.374
-71.3657
-71.4395
-73.0203
-72.9489
-72.6496
-72.5426
-72.4758
-72.1454
-72.0922
-71.8622
-71.9755
-71.8134
-71.7305
-74.1288
-73.9645
-73.8327
-73.7042
-73.3751
-73.2415
-73.1429
-72.8001
-72.6583
-72.5351
-72.2638
-72.3185
-72.1094
-75.6419
-75.1676
-74.9869
-75.0111
-74.6572
-74.4478
-74.3426
-73.9839
-73.7393
-73.5734
-73.3071
-72.8818
-72.9495
-72.6577
-76.8614
-76.6691
-76.5331
-76.3454
-76.2235
-76.0078
-75.6839
-75.5122
-75.2701
-75.0309
-74.6525
-74.4698
-74.3383
-73.3123
-73.3464
-77.5948
-77.4491
-77.2904
-77.0798
-76.8469
-76.7228
-76.6223
-76.4968
-76.4246
-76.4016
-76.1397
-75.9836
-75.5292
-74.9255
-74.5555
-73.5309
-77.4184
-77.3242
-77.3012
-77.3002
-77.2111
-76.8978
-76.7111
-76.5105
-76.4196
-76.4388
-76.7938
-77.1756
-76.9325
-76.8051
-76.366
-76.0344
-74.5121
-77.6449
-77.5956
-77.5072
-77.3917
-77.2014
-77.0732
-76.9108
-76.6891
-76.4597
-76.2988
-76.1728
-76.2877
-76.4767
-76.3337
-76.7533
-77.0925
-77.275
-76.812
-77.4843
-77.3829
-77.3583
-77.2478
-77.2168
-77.1205
-77.0448
-76.8609
-76.691
-76.4675
-76.3559
-76.2496
-76.0973
-76.0033
-75.81
-75.6819
-75.8337
-75.7127
-75.4397
-77.5539
-77.391
-77.2698
-77.2364
-77.1612
-76.9906
-76.9196
-77.0504
-76.7495
-76.5784
-76.3926
-76.3042
-76.2465
-76.2202
-76.1283
-76.2334
-75.664
-75.4249
-75.65
-75.2143
-77.5204
-77.4432
-77.3403
-77.1841
-77.1177
-77.0985
-76.9294
-76.8803
-76.7548
-76.5964
-76.5352
-76.2612
-76.3194
-76.0412
-76.004
-75.9315
-75.9625
-75.597
-75.0944
-75.4302
-75.0077
-77.5035
-77.4302
-77.3709
-77.2623
-77.1173
-76.9953
-76.923
-76.8632
-76.7717
-76.5434
-76.5562
-76.4245
-76.1468
-76.2218
-75.9297
-75.8777
-75.8388
-75.7894
-75.7943
-75.1935
-75.3419
-75.2432
-77.4837
-77.4235
-77.3415
-77.2953
-77.2006
-77.0258
-76.9375
-76.813
-76.7366
-76.6364
-76.4539
-76.4085
-76.3725
-76.1402
-76.0537
-75.8209
-75.7345
-75.618
-75.363
-75.0686
-74.6852
-75.1657
-74.9073
-69.7009
-69.86
-69.8455
-70.0125
-69.9818
-69.9799
-70.3469
-70.1846
-70.1634
-70.1419
-70.701
-70.4835
-70.3375
-70.2957
-70.2906
-70.79
-70.7705
-70.5767
-70.5318
-70.4942
-70.4633
-71.1013
-70.9842
-70.9076
-70.7417
-70.7104
-70.6798
-70.6745
-71.4282
-71.348
-71.2597
-71.0818
-70.9662
-70.9153
-70.913
-70.8419
-71.9328
-71.8451
-71.7946
-71.5973
-71.4704
-71.3764
-71.263
-71.1463
-71.131
-71.1454
-72.3366
-72.5036
-72.1639
-72.0425
-71.9337
-71.7714
-71.6319
-71.4467
-71.4585
-71.4636
-71.4068
-73.2379
-72.9732
-72.9977
-72.6657
-72.5473
-72.4898
-72.1742
-72.1094
-72.0939
-71.8612
-71.8326
-71.8469
-74.4937
-74.0955
-73.9285
-73.8128
-73.6171
-73.3845
-73.2561
-73.0826
-72.8206
-72.7142
-72.5697
-72.3637
-72.2493
-72.1267
-75.9165
-75.5934
-75.214
-75.1086
-75.0475
-74.7539
-74.4352
-74.2318
-74.0875
-73.8107
-73.5975
-73.3529
-73.0176
-72.9928
-72.7073
-77.0873
-76.8843
-76.6082
-76.6212
-76.3554
-76.2722
-75.9538
-75.7279
-75.5318
-75.3437
-75.0898
-74.8017
-74.5974
-74.4405
-73.486
-73.3803
-77.509
-77.5121
-77.3786
-77.233
-77.0144
-76.806
-76.663
-76.5214
-76.1977
-76.2086
-76.2145
-76.1861
-75.8897
-75.5508
-75.1011
-74.7326
-73.4959
-77.5071
-77.3601
-77.2397
-77.1276
-77.1555
-77.1144
-76.8318
-76.6245
-76.3964
-76.3694
-76.3401
-76.537
-76.7989
-76.5264
-76.4782
-76.1983
-75.9093
-74.7049
-77.6604
-77.5409
-77.5158
-77.4064
-77.3136
-77.1794
-76.9848
-76.8129
-76.5864
-76.4251
-76.266
-76.1207
-76.1606
-76.3733
-76.2133
-76.498
-76.8187
-76.9866
-76.5701
-77.5796
-77.4439
-77.3563
-77.3225
-77.2095
-77.1668
-77.115
-76.9908
-76.766
-76.6401
-76.4185
-76.3163
-76.185
-76.048
-75.9638
-75.733
-75.6948
-75.7183
-75.5994
-75.3442
-77.6086
-77.5374
-77.3643
-77.2577
-77.2393
-77.1143
-76.9671
-76.9319
-76.9857
-76.6556
-76.5551
-76.3392
-76.3118
-76.2458
-76.1721
-76.1013
-76.1406
-75.7125
-75.4354
-75.6178
-75.1716
-77.5738
-77.514
-77.4321
-77.3241
-77.1704
-77.1106
-77.082
-76.9259
-76.8664
-76.7417
-76.5816
-76.4992
-76.2522
-76.2992
-76.0351
-75.982
-75.9146
-75.9146
-75.5808
-75.1076
-75.4056
-74.9808
-77.5647
-77.5022
-77.4275
-77.3709
-77.2583
-77.118
-76.9974
-76.9299
-76.8664
-76.752
-76.5549
-76.5593
-76.4077
-76.1596
-76.2132
-75.9299
-75.8726
-75.8267
-75.7644
-75.7908
-75.2406
-75.3367
-75.2889
-77.5964
-77.4828
-77.4227
-77.3414
-77.2953
-77.2007
-77.0271
-76.9385
-76.8155
-76.7378
-76.6358
-76.4475
-76.4084
-76.373
-76.1362
-76.0537
-75.8234
-75.7329
-75.6225
-75.3637
-75.1493
-74.695
-75.1315
-74.877
-69.671
-69.7618
-69.7886
-69.8969
-69.917
-69.9092
-70.1228
-70.05
-70.0314
-70.0356
-70.3655
-70.3204
-70.2281
-70.1724
-70.1769
-70.65
-70.5635
-70.4125
-70.3393
-70.3381
-70.3408
-70.9609
-70.8196
-70.6954
-70.5542
-70.5134
-70.5168
-70.4732
-71.2436
-71.1092
-70.9109
-70.7921
-70.785
-70.7145
-70.6614
-70.6707
-71.4644
-71.363
-71.3009
-71.1796
-71.0973
-70.9791
-70.9354
-70.9828
-70.8791
-72.1243
-72.0469
-71.8669
-71.7281
-71.61
-71.4401
-71.3237
-71.2776
-71.2308
-71.0761
-71.1792
-72.6989
-72.3348
-72.4307
-72.2058
-71.9987
-71.9331
-71.7089
-71.6164
-71.4935
-71.4885
-71.511
-71.4313
-73.4955
-73.2294
-72.893
-73.0018
-72.6675
-72.491
-72.5133
-72.2033
-72.1034
-71.9658
-71.9225
-71.8585
-71.7665
-74.6214
-74.6138
-73.8864
-73.9615
-73.8956
-73.6119
-73.3934
-73.3177
-73.1054
-72.8879
-72.7787
-72.661
-72.3412
-72.35
-72.2363
-76.1304
-75.9796
-75.5716
-75.3838
-75.15
-74.9924
-74.7301
-74.393
-74.3027
-74.1137
-73.8048
-73.4756
-73.3712
-73.0758
-73.0317
-72.8179
-77.2712
-77.0534
-76.9719
-76.9197
-76.5761
-76.4234
-76.3676
-75.9301
-75.6853
-75.5598
-75.3679
-75.1406
-74.8286
-74.5821
-74.3566
-73.5422
-73.5593
-77.3368
-77.4014
-77.4211
-77.3453
-77.1324
-76.9284
-76.8174
-76.4615
-76.3686
-76.1765
-76.1453
-76.1702
-76.0889
-75.9244
-75.6843
-75.1739
-74.8753
-73.5475
-77.5506
-77.4169
-77.3027
-77.2261
-77.0435
-76.9913
-77.0244
-76.7624
-76.5261
-76.3911
-76.3235
-76.2602
-76.3816
-76.4917
-76.2717
-76.2647
-76.0703
-75.7942
-74.8596
-77.6621
-77.5678
-77.4644
-77.4797
-77.3204
-77.2777
-77.1376
-76.8703
-76.7019
-76.5192
-76.4457
-76.2469
-76.1441
-76.0568
-76.2686
-76.1292
-76.2587
-76.5944
-76.598
-76.1672
-77.6463
-77.543
-77.4203
-77.3353
-77.3445
-77.1816
-77.1224
-77.1103
-76.9318
-76.7107
-76.6027
-76.3909
-76.2668
-76.1572
-75.9876
-75.9267
-75.7049
-75.6721
-75.6357
-75.5676
-75.2858
-77.645
-77.5857
-77.5008
-77.3435
-77.2482
-77.2218
-77.0809
-76.9412
-76.9537
-76.9214
-76.6242
-76.5277
-76.3149
-76.2884
-76.221
-76.1233
-76.0541
-76.0675
-75.7183
-75.4752
-75.5836
-75.1737
-77.629
-77.5668
-77.5092
-77.4306
-77.2973
-77.1562
-77.1004
-77.0612
-76.9222
-76.8538
-76.7296
-76.5688
-76.4655
-76.2476
-76.2854
-76.0319
-75.9602
-75.8833
-75.8531
-75.5556
-75.1139
-75.3763
-74.9668
-77.6373
-77.5622
-77.5015
-77.4253
-77.37
-77.2523
-77.1172
-76.9999
-76.9349
-76.8749
-76.7286
-76.5642
-76.5568
-76.3932
-76.1746
-76.204
-75.9305
-75.8662
-75.8116
-75.7394
-75.7852
-75.2744
-75.327
-75.3378
-77.6192
-77.5962
-77.4818
-77.4221
-77.3412
-77.2949
-77.2
-77.0283
-76.9392
-76.8175
-76.7399
-76.6348
-76.4422
-76.4074
-76.374
-76.1313
-76.0533
-75.8257
-75.7314
-75.6273
-75.3695
-75.2296
-74.8058
-75.1381
-74.8746
-69.6315
-69.6963
-69.7221
-69.8157
-69.8452
-69.8348
-69.9496
-69.9434
-69.931
-69.9496
-70.1254
-70.1302
-70.0966
-70.07
-70.0705
-70.3885
-70.4483
-70.2911
-70.1926
-70.1944
-70.2078
-70.6938
-70.5858
-70.4968
-70.3907
-70.3892
-70.3654
-70.3646
-70.9251
-70.9239
-70.7012
-70.597
-70.5826
-70.5305
-70.4984
-70.4994
-71.2305
-71.1104
-71.0357
-70.9301
-70.8406
-70.7754
-70.7126
-70.7255
-70.6879
-71.6728
-71.5897
-71.4104
-71.3115
-71.1364
-71.0627
-71.004
-70.9768
-70.8237
-71.0189
-72.2539
-72.1478
-71.9607
-71.8474
-71.6654
-71.6221
-71.379
-71.3425
-71.1911
-71.2019
-71.2844
-71.1591
-72.8837
-72.6127
-72.3183
-72.422
-72.1795
-72.0122
-71.955
-71.7379
-71.6466
-71.5879
-71.4865
-71.5111
-71.5009
-73.828
-73.4138
-73.1686
-73.0178
-72.9078
-72.7177
-72.4987
-72.3707
-72.2204
-72.1406
-71.9667
-71.929
-71.8011
-71.8506
-74.7745
-74.7226
-74.5664
-74.1402
-73.9701
-73.8947
-73.6859
-73.3791
-73.3043
-73.1923
-72.8621
-72.7614
-72.6689
-72.3586
-72.5136
-72.2352
-76.3527
-76.1552
-75.9953
-75.7126
-75.3966
-75.1963
-74.9807
-74.7256
-74.3835
-74.2404
-74.1272
-73.7326
-73.6833
-73.3329
-73.1757
-72.9809
-72.9959
-77.2587
-77.241
-77.0895
-76.9899
-76.7552
-76.5649
-76.372
-76.1241
-75.9411
-75.7025
-75.573
-75.44
-75.3039
-74.8885
-74.6771
-74.3436
-73.7001
-73.4544
-77.3674
-77.3597
-77.3233
-77.324
-77.2109
-77.0517
-76.9916
-76.7856
-76.3133
-76.2542
-76.0973
-76.0959
-76.042
-76.0274
-75.9128
-75.6376
-75.2268
-74.9065
-73.7182
-77.6342
-77.4866
-77.399
-77.2694
-77.2024
-77.0327
-76.8954
-76.9293
-76.6403
-76.4642
-76.3886
-76.2849
-76.2173
-76.2136
-76.2806
-76.1067
-76.0697
-76.0017
-75.797
-74.9275
-77.7078
-77.6032
-77.5078
-77.4462
-77.4308
-77.2684
-77.2316
-77.0721
-76.7559
-76.634
-76.5335
-76.3782
-76.1545
-76.1306
-76.026
-76.1924
-76.0806
-76.0829
-76.3773
-76.2709
-75.7876
-77.7075
-77.6303
-77.5278
-77.4064
-77.3081
-77.3223
-77.1608
-77.1006
-77.0619
-76.8613
-76.6735
-76.5669
-76.368
-76.2496
-76.1477
-75.9668
-75.8762
-75.6901
-75.6297
-75.5719
-75.5253
-75.2539
-77.7045
-77.6191
-77.5616
-77.4847
-77.3278
-77.2415
-77.1982
-77.0625
-76.9216
-76.9526
-76.8071
-76.6033
-76.5054
-76.303
-76.2912
-76.2225
-76.0931
-76.0066
-75.9894
-75.7154
-75.4854
-75.551
-75.1969
-77.6746
-77.6184
-77.5592
-77.5025
-77.4317
-77.2762
-77.1453
-77.0967
-77.0497
-76.9143
-76.847
-76.7176
-76.5568
-76.4309
-76.2516
-76.2791
-76.0318
-75.9419
-75.8615
-75.7939
-75.5254
-75.1122
-75.3487
-74.9699
-77.6897
-77.6359
-77.5601
-77.5003
-77.4245
-77.3681
-77.2461
-77.1154
-77.0003
-76.9336
-76.8926
-76.7196
-76.5718
-76.5492
-76.3806
-76.1892
-76.1942
-75.9318
-75.8592
-75.7958
-75.7182
-75.7784
-75.3007
-75.3164
-75.3861
-77.6193
-77.6202
-77.5957
-77.4808
-77.4223
-77.3413
-77.2944
-77.1993
-77.0293
-76.94
-76.8189
-76.7431
-76.634
-76.4379
-76.4057
-76.3747
-76.1262
-76.0526
-75.8278
-75.73
-75.6321
-75.3896
-75.3199
-74.9534
-75.1127
-74.8633
-69.5337
-69.6519
-69.6589
-69.7506
-69.7493
-69.7543
-69.8429
-69.8429
-69.8448
-69.8644
-69.992
-70.0352
-69.9661
-69.9661
-69.9708
-70.254
-70.2423
-70.1535
-70.1091
-70.0918
-70.0997
-70.5118
-70.4556
-70.3366
-70.2478
-70.2318
-70.2302
-70.2262
-70.7554
-70.6758
-70.5397
-70.4497
-70.398
-70.393
-70.3887
-70.3684
-71.1224
-70.8997
-70.758
-70.7154
-70.6562
-70.5898
-70.5408
-70.5122
-70.5341
-71.3728
-71.2217
-71.1405
-71.0305
-70.9053
-70.8284
-70.7365
-70.7015
-70.7566
-70.7573
-71.8471
-71.6917
-71.5597
-71.4165
-71.3125
-71.1243
-71.0682
-71.0158
-71.1332
-70.9287
-70.9617
-72.3468
-72.2819
-72.0648
-71.9529
-71.851
-71.6153
-71.5166
-71.427
-71.3344
-71.2479
-71.1626
-71.2348
-71.1908
-73.1658
-72.9096
-72.5317
-72.3843
-72.4289
-72.1291
-71.9846
-71.9211
-71.7004
-71.6237
-71.5919
-71.5489
-71.4967
-71.5135
-73.7906
-73.8192
-73.3158
-73.1902
-73.0023
-72.9208
-72.6926
-72.5617
-72.4357
-72.2484
-72.176
-72.0385
-71.9151
-71.9546
-71.9276
-74.9064
-74.9009
-74.6558
-74.2829
-74.1952
-74.0328
-73.7395
-73.8417
-73.3772
-73.3223
-73.2277
-72.9027
-72.8114
-72.6909
-72.436
-72.5087
-72.2499
-76.5138
-76.4262
-76.212
-76.0815
-75.7537
-75.4333
-75.263
-75.0437
-74.6704
-74.4623
-74.3578
-74.0343
-73.7685
-73.6037
-73.3295
-73.2069
-73.0697
-72.9582
-77.2393
-77.3012
-77.2495
-77.0841
-76.9066
-76.6819
-76.7082
-76.4427
-76.0386
-75.9531
-75.6838
-75.5649
-75.4499
-75.2603
-74.9322
-74.6674
-74.3447
-73.8459
-73.5392
-77.4715
-77.4356
-77.3928
-77.2746
-77.2058
-77.1123
-77.0202
-76.8496
-76.6226
-76.3488
-76.2895
-76.0826
-76.0387
-75.9739
-75.9552
-75.9045
-75.6098
-75.255
-74.9004
-73.8089
-77.6994
-77.5775
-77.4603
-77.3911
-77.2153
-77.2022
-77.0509
-76.8507
-76.7581
-76.5766
-76.4765
-76.3046
-76.271
-76.2206
-76.1286
-76.1321
-75.9994
-75.9565
-75.9526
-75.693
-74.9537
-77.7635