/*--------------------------------*- C++ -*----------------------------------*\
  =========                 |
  \\      /  F ield         | OpenFOAM: The Open Source CFD Toolbox
   \\    /   O peration     | Website:  https://openfoam.org
    \\  /    A nd           | Version:  7
     \\/     M anipulation  |
\*---------------------------------------------------------------------------*/
FoamFile
{
    version     2.0;
    format      ascii;
    class       volVectorField;
    location    "1";
    object      U_0;
}
// * * * * * * * * * * * * * * * * * * * * * * * * * * * * * * * * * * * * * //

dimensions      [0 1 -1 0 0 0 0];

internalField   nonuniform List<vector> 
18750
(
(3.15413 -0.775515 0.111979)
(3.41451 -0.649889 0.4025)
(4.05282 -0.144203 -0.684934)
(3.33153 -0.786897 -0.0783624)
(3.17073 -0.156761 -2.07235)
(4.95941 -0.285279 -1.82319)
(4.01931 -0.770042 0.931413)
(3.61098 -0.300714 -1.84297)
(3.75232 -0.141806 -0.581288)
(3.45719 -0.823187 -0.195666)
(3.33942 -0.177664 -0.776014)
(2.1996 3.13486 -0.599263)
(3.31931 -0.484128 -2.81621)
(2.52231 -0.252916 -2.47181)
(4.45404 -0.572471 -2.03448)
(4.34218 -0.904547 0.271383)
(1.76831 -0.170839 -1.4979)
(3.9221 -0.379391 -1.69814)
(3.35802 -0.0971184 -0.523336)
(3.48553 -0.829202 -0.182375)
(3.35155 0.302437 -0.652168)
(4.2744 -0.449892 -0.528613)
(3.65647 -0.342067 -0.993608)
(1.7738 -0.508963 2.17009)
(0.475971 -0.0668914 -0.155686)
(3.83106 -0.864701 -1.70759)
(0.647202 -0.553747 -0.0274737)
(2.1668 -0.238322 -2.93371)
(4.51015 -0.9326 -1.99204)
(4.0577 -0.913375 0.166199)
(1.14615 -0.0257749 -0.811423)
(1.81254 -0.189898 -1.51583)
(3.9085 -0.476493 -1.53216)
(2.93778 -0.0107596 -0.491443)
(3.3637 -0.810783 -0.0934041)
(3.29504 0.417335 -0.695325)
(3.30691 -0.104771 -0.5785)
(3.69517 0.0860053 -0.652661)
(2.39406 0.458126 -0.216982)
(5.08409 -0.371684 -0.347161)
(3.94064 -0.465858 -0.529089)
(1.02853 -0.206812 0.519567)
(2.07103 -0.420627 2.89562)
(1.39993 -3.46813 -0.666857)
(3.85084 -0.936326 -1.06852)
(1.12985 -0.524009 -0.71638)
(0.743946 -0.48354 -0.0461924)
(1.92578 -0.195457 -2.74821)
(3.96064 -1.13207 -1.65058)
(3.36963 -0.797412 0.437291)
(0.620543 0.194823 -0.640699)
(1.06629 -0.0112292 -0.740117)
(1.83492 -0.207499 -1.43747)
(3.58125 -0.473162 -1.45371)
(2.54204 0.0974225 -0.44443)
(3.14544 -0.760834 0.0140139)
(3.34896 0.643699 -0.624189)
(3.17061 0.144296 0.30526)
(3.58672 0.342675 -0.681473)
(1.26131 0.856326 0.414834)
(3.68505 -0.20697 -0.40509)
(3.69906 -0.145332 -0.288521)
(1.3914 0.236555 0.450854)
(2.18394 0.468985 -0.183547)
(3.89934 -0.206475 -0.748477)
(3.69272 -0.637806 -0.262934)
(0.650967 -0.561859 0.0346204)
(1.37754 -0.327475 0.71337)
(2.57588 -0.452612 1.60654)
(2.11671 -1.95954 -0.906582)
(3.22487 -1.15979 -0.891883)
(1.04502 -0.465426 -0.16648)
(1.22605 -0.552567 -0.819639)
(0.980299 -0.420961 -0.220615)
(2.08643 -0.196145 -2.19047)
(3.31483 -1.00962 -1.24431)
(2.64274 -0.579734 0.219719)
(0.424283 0.177528 -0.531667)
(0.519144 0.218982 -0.432524)
(0.972354 0.0337873 -0.669393)
(1.81653 -0.208556 -1.29257)
(3.18961 -0.412257 -1.36677)
(2.21562 0.201519 -0.373617)
(2.87413 -0.680137 0.0557087)
(3.3401 0.51996 -0.724101)
(2.99086 0.952723 -0.209352)
(3.47737 0.542783 -0.483358)
(1.75319 0.429473 0.592353)
(3.23183 0.478382 0.10483)
(3.45462 0.0869219 -0.261162)
(1.06282 0.938287 -0.28591)
(0.615869 0.827397 0.902151)
(2.80347 0.267435 -0.370017)
(3.22751 -0.262566 -0.176605)
(0.633768 -0.233986 0.017856)
(1.47731 0.134347 0.505763)
(1.45529 0.352077 -0.417904)
(3.58998 -0.0654471 -0.895772)
(2.95001 -0.647762 -0.284783)
(0.632578 -0.591891 0.0806814)
(0.82776 -0.580354 0.0561338)
(1.43223 -0.465475 0.43813)
(2.49653 -0.467824 0.590147)
(2.38126 -1.84893 -1.01373)
(2.59095 -0.999684 -0.356688)
(0.621257 -0.348327 -0.00603836)
(0.995469 -0.424019 -0.102302)
(1.34749 -0.585852 -0.819795)
(1.19243 -0.400999 -0.505573)
(2.13806 -0.228252 -1.60869)
(2.4749 -0.782521 -0.910287)
(1.94841 -0.358625 0.18701)
(0.595626 -0.0238271 0.276657)
(0.378901 0.198617 -0.435423)
(0.449211 0.24774 -0.227012)
(0.900466 0.0843552 -0.58216)
(1.7602 -0.192923 -1.12999)
(2.79268 -0.318625 -1.23416)
(1.97557 0.277625 -0.30232)
(2.60377 -0.584511 0.0630972)
(2.86293 0.590993 -1.06021)
(1.04754 1.4384 0.512896)
(3.48448 0.325586 -0.723952)
(0.129837 1.64788 1.51543)
(2.23436 0.846614 -0.180509)
(3.09813 0.546839 0.378344)
(0.470166 1.00136 0.625659)
(1.48284 0.269217 1.08866)
(2.00501 0.432353 -0.318682)
(2.80628 0.0480595 0.305226)
(0.870003 0.399051 0.278747)
(0.650573 0.81879 -0.269022)
(-0.158897 0.875306 1.07954)
(2.35428 0.240671 -0.492852)
(2.43215 -0.338483 0.0022284)
(0.357482 -0.308898 0.328478)
(0.860691 -0.321267 0.070998)
(1.30374 0.0691169 0.165467)
(0.516377 0.280328 -0.322313)
(3.12029 -0.395487 -0.896594)
(2.23368 -0.653583 -0.161288)
(0.330853 -0.414827 0.286538)
(0.706752 -0.625153 0.119683)
(0.827084 -0.734319 -0.312028)
(1.39567 -0.584056 0.121712)
(1.88696 -0.375402 -0.112621)
(2.18846 -2.53914 -0.97842)
(1.88658 -0.88403 -0.251243)
(0.44707 -0.340931 0.45008)
(0.64427 -0.330879 -0.0505697)
(0.927641 -0.386032 -0.107036)
(1.36664 -0.580839 -0.935662)
(1.3091 -0.392715 -0.840132)
(1.912 -0.218991 -1.20751)
(1.63308 -0.460839 -0.662586)
(1.36865 -0.135444 0.22188)
(0.651429 -0.207773 0.289014)
(0.562174 -0.0129328 0.221656)
(0.342284 0.222415 -0.331159)
(0.40287 0.281181 -0.0395923)
(0.854803 0.133774 -0.500383)
(1.68173 -0.162106 -0.984499)
(2.44298 -0.206156 -1.07401)
(1.86744 0.310972 -0.273596)
(2.36754 -0.492656 0.0571595)
(2.70123 0.392262 -0.654803)
(-0.581004 1.70242 0.757881)
(3.01789 0.283939 -1.0969)
(-0.246446 2.45209 1.4195)
(0.441004 1.3113 0.591262)
(3.1695 0.106042 -0.303404)
(0.0491266 1.78964 1.8782)
(-0.305717 1.71613 1.68872)
(0.522731 1.01857 0.426676)
(1.91857 0.908584 0.198462)
(0.120512 1.09297 0.977707)
(0.171161 0.938366 0.976211)
(0.501249 0.354628 1.4207)
(0.910515 0.41951 0.421408)
(1.56444 0.331158 0.589379)
(0.217523 0.188288 0.410092)
(0.864111 0.374482 0.488396)
(0.357253 0.650765 -0.000576997)
(-0.83542 0.860077 1.0766)
(1.72479 0.215323 -0.107643)
(1.4699 -0.255107 0.328875)
(0.250053 -0.321442 0.510532)
(0.299303 -0.287054 0.323818)
(1.02813 -0.338172 0.158055)
(1.08932 0.000901004 -0.0800777)
(-0.112362 0.208687 -0.274838)
(2.78668 -0.658936 -0.826806)
(1.48563 -0.643432 -0.12412)
(-0.0910813 -0.256254 0.553761)
(0.340395 -0.415795 0.225258)
(0.730796 -0.653891 -0.0470456)
(0.939049 -0.776536 -0.483806)
(1.29831 -0.652301 0.0376187)
(1.1057 -0.255654 -0.254269)
(2.19053 -1.8229 -0.950363)
(1.24752 -0.728291 -0.277779)
(0.528466 -0.44647 0.675236)
(0.502297 -0.342907 0.425474)
(0.667977 -0.316445 -0.0751558)
(0.789171 -0.274938 -0.131559)
(1.24058 -0.517196 -1.00423)
(1.31639 -0.407474 -0.640484)
(1.56894 -0.156991 -0.963634)
(1.01174 -0.135572 -0.432588)
(0.945986 0.0499176 0.25759)
(0.374876 0.158212 0.508335)
(0.652752 -0.204295 0.218055)
(0.474274 0.00811726 0.193108)
(0.315877 0.244218 -0.224586)
(0.372 0.303891 0.0936273)
(0.824503 0.176115 -0.444888)
(1.60092 -0.12246 -0.85366)
(2.1615 -0.0966456 -0.912368)
(1.85021 0.300445 -0.280022)
(2.1872 -0.41785 0.0500918)
(2.41245 0.492208 -0.627764)
(-0.420546 1.53681 0.549021)
(2.8143 0.261666 -0.666568)
(-0.752562 2.4796 0.575884)
(-0.417918 1.84673 0.643955)
(2.95147 0.0287949 -0.444946)
(0.0215181 3.07075 1.82511)
(-0.168344 2.36825 1.45862)
(-0.13186 1.62773 0.692755)
(1.93455 0.443456 -0.508823)
(0.165372 2.11747 2.23842)
(-0.195987 2.02321 2.22167)
(-0.323888 1.89479 1.74411)
(-0.0249892 1.04709 0.757577)
(0.786018 1.16279 -0.366966)
(0.355998 0.825673 1.48279)
(0.139721 0.987669 1.26166)
(-0.137785 0.839018 1.33587)
(-0.388879 0.887389 1.53048)
(0.185346 0.354472 0.968872)
(0.370129 0.748297 0.349922)
(0.117482 -0.0346644 0.72531)
(0.167189 0.220875 0.586914)
(0.628916 0.362338 0.640143)
(0.0291644 0.448688 0.161024)
(-0.789367 0.738557 1.15104)
(0.727493 0.155498 0.462138)
(0.272258 -0.0654661 0.408031)
(-0.292031 -0.3201 0.660565)
(0.178788 -0.326468 0.411259)
(0.277532 -0.354581 0.206947)
(0.98135 -0.476816 -0.0701292)
(0.924757 -0.153352 -0.196937)
(-0.833328 0.202496 -0.0049235)
(2.29219 -0.652455 -0.756686)
(0.81982 -0.668414 -0.0555842)
(0.505939 -0.31383 0.81525)
(0.0477372 -0.273067 0.530374)
(0.360254 -0.415775 0.127188)
(0.787639 -0.681065 -0.0403627)
(1.17278 -0.827998 -0.322108)
(1.12223 -0.63712 -0.128802)
(0.39592 -0.163487 -0.112039)
(1.8054 -1.74216 -0.870851)
(0.763616 -0.577537 -0.371092)
(0.55605 -0.210594 0.7051)
(0.577877 -0.443138 0.60289)
(0.51602 -0.351398 0.437544)
(0.687912 -0.287395 -0.114307)
(0.558079 -0.151497 -0.128843)
(0.93945 -0.308734 -1.02612)
(1.2037 -0.38267 -0.395155)
(1.19414 -0.0677964 -0.780021)
(0.613205 0.0892569 -0.247187)
(0.685278 0.161935 0.203924)
(0.235387 -0.128078 0.76463)
(0.343997 0.172158 0.595739)
(0.601623 -0.191007 0.176425)
(0.374989 0.039066 0.198277)
(0.298816 0.263429 -0.124528)
(0.320951 0.333381 0.285444)
(0.791564 0.218224 -0.417494)
(1.5244 -0.0808553 -0.73889)
(1.95445 -0.00409779 -0.772237)
(1.75438 0.325529 -0.266671)
(2.06405 -0.368938 0.0448869)
(-0.244028 1.48558 0.513347)
(2.49761 0.335217 -0.574807)
(-0.852962 2.27958 0.498427)
(-0.33153 1.98808 0.453205)
(2.62261 0.0439719 -0.268037)
(-0.20794 2.60908 1.74803)
(-0.632245 2.48545 0.506673)
(0.0392962 2.23004 0.244476)
(1.93184 0.245651 -0.166368)
(-0.396292 3.19866 1.73505)
(0.209932 3.13804 1.51109)
(0.262985 2.45199 1.58372)
(-0.56079 2.17654 0.495594)
(0.758158 0.736949 -0.112266)
(-0.541061 2.22593 2.43943)
(-0.0427406 2.07429 2.69035)
(-0.169273 2.28041 2.54258)
(-0.546529 2.31246 2.32069)
(-0.756947 1.63317 1.28885)
(-0.247598 1.53132 -0.110363)
(-0.065392 0.976389 1.81634)
(-0.281334 1.16617 1.70222)
(-0.224121 0.998652 1.66002)
(-0.503932 0.974828 1.788)
(-0.772772 1.18222 1.82984)
(-0.757499 0.459238 1.46655)
(-1.46924 1.46679 -0.140654)
(0.172033 0.0533503 1.08583)
(0.0879517 -0.0267214 0.775088)
(0.194379 0.106362 0.696188)
(0.325955 0.227758 0.733267)
(-0.162967 0.300804 0.321565)
(-0.21635 0.494928 1.17837)
(0.318331 -0.0148417 0.696631)
(-0.996051 0.210766 0.211008)
(0.153928 -0.32899 0.815983)
(-0.200106 -0.258499 0.699257)
(0.133108 -0.320575 0.335464)
(0.26178 -0.405178 0.202979)
(1.01693 -0.541247 -0.20956)
(0.762485 -0.311522 -0.288972)
(-1.11234 0.343413 0.30937)
(1.65377 -0.758673 -0.597311)
(0.431364 -0.822409 -0.0446381)
(0.434052 -0.209067 0.766573)
(0.535338 -0.336582 0.775243)
(0.12786 -0.28469 0.519415)
(0.412448 -0.421351 0.0730866)
(0.779223 -0.684227 -0.0991691)
(1.09525 -0.893021 -0.447505)
(0.916079 -0.60785 -0.331032)
(-0.117729 -0.0900888 0.0457012)
(1.39242 -1.47977 -0.803698)
(0.392362 -0.498003 -0.436186)
(0.154613 -0.370438 0.855334)
(0.595028 -0.192663 0.642665)
(0.659993 -0.454472 0.475544)
(0.562962 -0.337211 0.39938)
(0.655691 -0.244981 -0.15067)
(0.35256 0.00546737 -0.0933696)
(0.770504 -0.212864 -0.80543)
(1.02777 -0.294029 -0.193423)
(0.876958 0.00988746 -0.60905)
(0.433849 0.194525 -0.135657)
(0.537287 0.205574 0.120513)
(0.356685 -0.17998 0.817799)
(0.180557 -0.118599 0.765276)
(0.319843 0.200695 0.678594)
(0.519212 -0.158093 0.199394)
(0.284079 0.0825264 0.227476)
(0.289062 0.28543 -0.0346312)
(0.288302 0.355693 0.389632)
(0.764656 0.257451 -0.390499)
(1.4544 -0.0381284 -0.642922)
(1.81805 0.0616245 -0.669708)
(1.63033 0.408627 -0.23778)
(1.99334 -0.335965 0.0423381)
(2.19733 0.315282 -0.535289)
(-0.722842 2.22849 0.0850927)
(-0.358324 1.9202 0.485147)
(2.49582 0.0288127 -0.239063)
(-0.832461 2.83898 0.581473)
(-0.816642 2.29041 0.549759)
(-0.363335 2.20142 0.464234)
(1.58433 0.373046 0.364736)
(-0.113337 2.85165 1.59163)
(-0.266226 3.03762 1.01649)
(-0.313241 2.59848 0.858577)
(-0.899616 2.46258 0.3947)
(0.530382 0.627172 0.579852)
(-0.251304 3.11659 1.83066)
(0.664607 3.09953 1.82576)
(0.531054 3.05411 1.45677)
(0.04664 2.54034 1.68619)
(-0.429328 2.56287 0.517698)
(-0.574801 1.19111 0.529669)
(-0.777642 2.06453 2.43698)
(-0.519447 2.17183 2.51029)
(-0.251325 2.32659 2.77407)
(-0.306979 2.67453 2.72233)
(-0.483773 2.67763 2.23076)
(-0.602348 2.2206 1.56338)
(-0.978647 1.93041 -0.00670218)
(-0.308905 1.16992 2.18967)
(-0.275706 0.812791 2.09551)
(-0.341489 0.953561 2.00765)
(-0.492487 0.899228 2.04155)
(-0.50914 0.996174 2.03066)
(-1.01106 1.15641 2.22643)
(-1.32802 0.775976 1.90105)
(-1.84946 1.96174 -0.632878)
(0.0570682 -0.0953188 1.17629)
(0.095874 -0.0447435 1.08931)
(0.139258 -0.0453208 0.777789)
(0.137982 0.024994 0.830357)
(0.0948532 0.127753 0.847896)
(-0.293047 0.0829011 0.526461)
(-0.670799 0.536163 1.13953)
(-0.568949 -0.144845 1.20708)
(-1.81946 0.364264 -0.0191888)
(0.771009 -0.295789 0.880762)
(0.280594 -0.379851 0.797435)
(-0.0300784 -0.249218 0.675122)
(0.117005 -0.299529 0.286594)
(0.255497 -0.457685 0.182802)
(0.944603 -0.697314 -0.338043)
(0.5059 -0.45631 -0.272307)
(-1.23502 0.281822 0.666602)
(0.884263 -0.587389 -0.278737)
(-0.589653 -0.634214 0.0853389)
(-0.285192 -0.240252 0.828478)
(0.549448 -0.190011 0.684064)
(0.539514 -0.358333 0.744499)
(0.267391 -0.292278 0.516099)
(0.46932 -0.433652 0.00564122)
(0.700862 -0.649834 -0.195875)
(0.964944 -0.806274 -0.619759)
(0.666005 -0.650172 -0.463546)
(-0.429344 -0.0590354 0.145481)
(1.0096 -1.10495 -0.744083)
(0.0938319 -0.441905 -0.43427)
(0.119836 -0.311639 0.943351)
(0.0561176 -0.389938 0.830061)
(0.606657 -0.168536 0.586474)
(0.700153 -0.462414 0.43855)
(0.564694 -0.319243 0.398588)
(0.554597 -0.168546 -0.150237)
(0.252528 0.120756 -0.0188905)
(0.707722 -0.130713 -0.559722)
(0.795537 -0.237827 -0.176862)
(0.627895 0.0688302 -0.444361)
(0.354417 0.255986 -0.0945173)
(0.415987 0.237755 0.106379)
(0.210677 -0.281623 1.16136)
(0.40069 -0.18212 0.776675)
(0.0973263 -0.116939 0.775408)
(0.298559 0.215778 0.747314)
(0.438935 -0.118512 0.263113)
(0.224159 0.11794 0.267354)
(0.278276 0.297065 0.0334195)
(0.263707 0.376696 0.460039)
(0.747133 0.292737 -0.352263)
(1.39437 0.00052079 -0.570413)
(1.74021 0.100061 -0.608356)
(1.56021 0.423876 -0.220614)
(1.92939 -0.331477 0.0435817)
(2.30249 0.129338 -0.299702)
(-0.2207 1.95465 0.379516)
(2.11287 0.439488 0.23979)
(-0.266092 2.74549 0.450243)
(-0.56298 2.38397 0.205284)
(-0.407937 2.2499 0.511531)
(1.74893 0.148504 0.277586)
(-0.515486 2.85591 1.09151)
(-0.57376 2.8451 0.770579)
(-0.822607 2.50079 0.397179)
(-0.619644 2.37201 0.554971)
(0.0726128 1.07801 0.798875)
(-0.0549569 3.14891 1.59808)
(0.100373 2.90066 1.74817)
(-0.28412 2.92467 1.32535)
(-0.885055 2.77469 0.675646)
(-0.959576 2.55066 0.275978)
(-1.20336 1.34876 1.21168)
(-0.823754 3.14191 0.942604)
(-0.183272 2.98761 1.50103)
(0.620034 2.99211 1.53264)
(0.671268 2.97982 1.4647)
(0.591077 2.45757 1.82709)
(-0.310688 2.56478 0.792734)
(-0.963269 1.6032 0.514428)
(-0.680354 1.81222 2.47107)
(-0.573522 1.78441 2.70468)
(-0.576143 2.13432 2.48615)
(-0.148744 2.33195 2.68904)
(-0.11136 2.71586 2.72998)
(0.497446 2.87631 1.80596)
(-0.181368 2.39974 1.82839)
(0.230684 2.22264 0.0847145)
(-0.330007 1.08153 2.20944)
(-0.0744914 0.781453 2.23576)
(-0.312248 0.862783 2.15177)
(-0.601091 0.941986 2.15662)
(-0.533261 0.896366 2.1762)
(-0.792607 1.04713 2.19343)
(-1.11496 1.30318 2.39065)
(-1.28218 1.14291 2.45029)
(-1.7283 2.26338 -0.375958)
(0.374949 -0.160481 1.18072)
(0.199121 -0.172825 1.0351)
(0.115323 0.0499152 1.03521)
(0.19602 -0.139872 0.746709)
(0.0903454 -0.213816 0.899676)
(-0.177121 -0.0276093 1.01368)
(-0.500253 -0.046365 0.639144)
(-0.728486 0.497271 1.47536)
(-1.06935 -0.00140563 1.51727)
(-2.15231 0.416273 0.0292605)
(0.539145 -0.300262 1.25989)
(0.81652 -0.255156 0.883357)
(0.489359 -0.393271 0.717201)
(0.239395 -0.248491 0.602053)
(0.029754 -0.268725 0.277918)
(0.231872 -0.470515 0.163961)
(0.874458 -0.822955 -0.446199)
(0.202277 -0.592784 -0.212216)
(-1.30448 0.256449 0.645659)
(0.102201 -0.41098 0.0673356)
(-0.848431 -0.561461 0.121972)
(0.027478 -0.170611 0.982274)
(-0.406895 -0.161697 0.779471)
(0.677228 -0.161216 0.635708)
(0.631248 -0.379323 0.631082)
(0.370662 -0.285134 0.501002)
(0.423127 -0.415529 -0.00853459)
(0.545385 -0.533831 -0.254481)
(0.7733 -0.682609 -0.68022)
(0.542041 -0.605358 -0.43873)
(-0.649809 -0.041696 0.265617)
(0.581496 -0.767336 -0.668599)
(-0.198107 -0.425947 -0.370151)
(-0.00375082 -0.463534 1.21576)
(0.165189 -0.315943 0.927395)
(-0.0713439 -0.388586 0.802284)
(0.631876 -0.130952 0.525942)
(0.734835 -0.450063 0.423167)
(0.527563 -0.266962 0.421402)
(0.439404 -0.0799882 -0.119995)
(0.227033 0.201177 0.124478)
(0.666006 -0.0637625 -0.339486)
(0.687538 -0.138454 -0.0542294)
(0.440906 0.101102 -0.307866)
(0.272018 0.284798 -0.0698908)
(0.319046 0.276485 0.115291)
(0.334687 0.0110851 1.07658)
(0.239686 -0.284106 1.1281)
(0.455626 -0.190192 0.732532)
(0.0596696 -0.10629 0.78016)
(0.293049 0.243064 0.795551)
(0.374538 -0.0781334 0.343101)
(0.151241 0.166246 0.335049)
(0.253168 0.312526 0.164001)
(0.249238 0.395994 0.498215)
(0.733661 0.32775 -0.311999)
(1.35224 0.0329379 -0.510149)
(1.70548 0.12435 -0.574731)
(1.52246 0.470425 -0.211461)
(1.8978 -0.329397 0.0382933)
(2.0006 -0.133517 -0.721675)
(-0.36919 1.90574 0.250632)
(2.0432 0.0824469 -0.237629)
(-0.437042 2.15375 0.31739)
(-0.0539462 2.04345 0.284668)
(0.961147 0.795617 0.486337)
(0.00653039 2.85413 0.755015)
(-0.594432 2.81761 0.242016)
(-0.462102 2.44449 0.45006)
(-0.492525 2.29517 0.629195)
(-0.0695101 0.92767 0.432103)
(-0.428401 3.01717 1.07787)
(-0.135115 2.94728 1.10558)
(-0.372826 2.93008 0.842151)
(-0.617827 2.69074 0.504666)
(-0.525318 2.34189 0.435643)
(-1.43551 1.70605 0.572028)
(-0.343689 3.16872 1.88249)
(-0.0844658 3.11356 1.65084)
(-0.149328 3.00926 1.614)
(-0.0880251 2.9046 1.39534)
(-0.27605 2.78483 0.993534)
(-1.21522 2.47263 0.206602)
(-1.10094 1.59328 0.932406)
(-0.796549 2.95809 0.966982)
(-0.144236 2.93379 1.49599)
(-0.0598196 2.98276 1.22588)
(0.492433 2.8967 1.33741)
(0.660835 2.92278 1.60634)
(0.712471 2.93329 1.35138)
(-0.393787 2.55533 0.79901)
(-0.779192 1.70813 0.169574)
(-0.639937 1.84614 2.1795)
(-0.926689 1.78594 2.24397)
(-0.559022 1.8541 2.47443)
(-0.995615 2.23809 2.33672)
(-0.129236 2.57394 2.12342)
(0.181339 2.75525 2.34371)
(0.893426 2.79071 1.57041)
(0.844765 2.51394 1.56331)
(0.59664 2.82728 0.0868996)
(-0.103968 0.929754 2.12011)
(0.105994 0.761942 2.19157)
(-0.158216 0.71615 2.18804)
(-0.262329 0.629466 2.18426)
(-0.458295 0.650928 2.26897)
(-0.544957 0.728057 2.26406)
(-0.859881 1.08634 2.28265)
(-1.22314 1.41947 2.54681)
(-1.03989 1.70026 2.45264)
(-0.592012 2.65929 0.586788)
(0.36084 -0.317753 1.34114)
(0.544978 -0.296542 1.05121)
(0.369752 -0.242503 0.921577)
(0.246161 -0.123293 0.897347)
(0.175949 -0.202267 0.77915)
(0.0104515 -0.314961 1.01143)
(-0.389139 -0.188436 1.18402)
(-0.592403 -0.176618 0.827)
(-0.87546 0.347973 1.69677)
(-1.39259 0.0606132 1.75658)
(-2.25255 0.458579 0.190534)
(0.421947 -0.545397 1.22394)
(0.647445 -0.166517 1.04733)
(0.963855 -0.286767 0.786851)
(0.633616 -0.491402 0.62856)
(0.274008 -0.220328 0.579742)
(0.00433396 -0.25214 0.293237)
(0.150515 -0.432562 0.229764)
(0.604146 -0.809062 -0.236746)
(-0.0176092 -0.705271 -0.0625053)
(-1.30762 0.260276 0.613944)
(-0.34307 -0.29309 0.271048)
(-1.12785 -0.564569 0.132916)
(0.190648 -0.486078 1.30028)
(0.137663 -0.104451 0.978441)
(-0.299181 -0.0943664 0.817616)
(0.688254 -0.107645 0.614438)
(0.695604 -0.415824 0.505685)
(0.284803 -0.241676 0.512304)
(0.256409 -0.335548 0.0342034)
(0.359635 -0.359605 -0.229637)
(0.631982 -0.56644 -0.559271)
(0.347499 -0.63583 -0.273616)
(-0.850003 -0.0403666 0.44101)
(0.171469 -0.440097 -0.550442)
(-0.413441 -0.252172 -0.207441)
(0.491339 -0.167225 1.35013)
(0.170435 -0.4401 1.20091)
(0.118621 -0.30165 0.923206)
(-0.178128 -0.371238 0.773625)
(0.648538 -0.0997965 0.51434)
(0.701062 -0.425061 0.420425)
(0.423489 -0.197463 0.457556)
(0.33926 -0.00676829 -0.0610368)
(0.239806 0.238835 0.211302)
(0.600712 0.0113196 -0.166442)
(0.573307 -0.0954638 0.0257127)
(0.294959 0.121678 -0.195696)
(0.19837 0.364518 -0.0501624)
(0.221745 0.317889 0.148591)
(0.345181 -0.15226 1.16672)
(0.317997 0.0175659 1.07029)
(0.264101 -0.273999 1.09459)
(0.489534 -0.200377 0.713544)
(0.0176037 -0.103535 0.796631)
(0.305109 0.259679 0.821727)
(0.315306 -0.0327866 0.43799)
(0.115946 0.202875 0.380541)
(0.247707 0.323225 0.215021)
(0.240445 0.412843 0.518806)
(0.719719 0.360094 -0.270516)
(1.32808 0.0564555 -0.457003)
(1.6971 0.129291 -0.553779)
(1.56648 0.386097 -0.251317)
(1.86599 -0.364123 0.0303758)
(-0.450318 1.79183 0.372433)
(2.01922 -0.297345 -0.319402)
(-0.70897 2.08738 0.159282)
(-0.508707 2.0192 0.34437)
(1.06836 0.225003 -0.245671)
(-0.806442 2.40854 0.395838)
(-0.533382 2.14238 0.438256)
(-0.642196 2.14691 0.333169)
(-0.515917 1.23644 0.155085)
(-0.600148 3.05182 0.344276)
(0.19671 2.84472 0.839895)
(-0.369773 2.87196 0.22889)
(-0.490467 2.50205 0.353275)
(-0.457775 2.07587 0.592388)
(-1.59621 1.53487 0.104656)
(-0.580427 3.02045 1.55641)
(-0.240801 3.01355 1.0776)
(0.345041 3.02626 1.05747)
(-0.0513737 2.9609 0.793511)
(-0.497166 2.77414 0.362431)
(-0.391769 2.42129 0.331394)
(-0.915513 1.85298 0.390582)
(-0.69224 3.11736 1.84493)
(-0.325295 3.25201 1.75692)
(-0.19345 3.15561 1.71274)
(0.0118795 2.97893 1.65003)
(0.1974 2.88234 1.37178)
(0.014022 2.68204 1.33698)
(-0.961679 2.6309 0.165407)
(-0.829469 1.78629 0.687957)
(-0.412912 2.38709 1.73757)
(-0.507079 3.00024 0.83289)
(0.146522 2.95318 1.10394)
(0.411326 3.23737 0.895975)
(0.399965 2.8825 1.14591)
(0.400619 3.01011 1.82614)
(0.181188 3.19899 1.63201)
(-0.650802 2.7815 0.837172)
(-1.18844 2.02316 -0.284387)
(-0.621466 1.69938 1.98885)
(0.0480461 1.34006 2.41507)
(-0.356613 1.34296 2.48268)
(-0.423947 1.66945 2.31393)
(-0.0886478 1.6423 2.90281)
(-0.234615 2.55686 1.91457)
(0.379167 2.69757 1.76968)
(1.47079 2.65409 1.34399)
(0.697234 2.71016 1.58683)
(-0.241841 3.14422 -0.121603)
(-0.0443725 0.972751 1.91156)
(0.154266 0.704837 2.01516)
(0.168982 0.690905 1.99195)
(-0.217783 0.490136 2.15376)
(-0.430714 0.532808 2.16125)
(-0.42443 0.550697 2.32831)
(-0.713 0.675106 2.19546)
(-0.815561 0.957722 2.3739)
(-1.21323 1.44403 2.59023)
(-0.825352 2.096 1.82566)
(-0.213775 2.62058 0.956199)
(0.0965641 -0.224077 1.45794)
(0.539504 -0.384659 1.25216)
(0.635067 -0.39902 0.953385)
(0.459043 -0.348573 0.814925)
(0.272896 -0.203167 0.849006)
(0.0875887 -0.298557 0.918228)
(-0.166214 -0.406168 1.08381)
(-0.503641 -0.376316 1.19307)
(-0.72481 -0.363942 0.989929)
(-0.98444 0.299954 1.75883)
(-1.78001 0.196431 1.46249)
(-2.15531 0.473726 0.306735)
(0.259774 -0.418635 1.26779)
(0.144076 -0.514079 1.18705)
(0.488173 -0.0129351 0.874506)
(0.677854 -0.164437 0.885676)
(0.656885 -0.416642 0.671894)
(-0.0081409 -0.0790514 0.676018)
(0.116006 -0.282582 0.369292)
(0.134876 -0.406844 0.363765)
(0.361243 -0.793559 0.144535)
(-0.354825 -0.695084 0.163312)
(-1.29166 0.166672 0.604361)
(-0.751072 -0.300476 0.447947)
(-1.18058 -0.760167 0.283918)
(0.395365 -0.172308 1.35449)
(0.312028 -0.4637 1.30992)
(0.173419 -0.0933795 0.97735)
(-0.159908 -0.0509258 0.863559)
(0.4847 -0.0316196 0.680421)
(0.666675 -0.394956 0.465947)
(0.0357239 -0.167429 0.57339)
(0.161853 -0.203085 0.0651783)
(0.246735 -0.208831 -0.0116495)
(0.534814 -0.475794 -0.286791)
(0.231936 -0.637011 -0.0468107)
(-0.907628 0.0414346 0.407699)
(-0.197357 -0.0748054 -0.352377)
(-0.551178 -0.189003 -0.135914)
(0.383056 -0.267708 1.33268)
(0.52628 -0.163761 1.29493)
(0.259577 -0.425129 1.19042)
(0.102211 -0.297153 0.903123)
(-0.227338 -0.351318 0.767304)
(0.587924 -0.053936 0.556283)
(0.598769 -0.348686 0.446061)
(0.308325 -0.118394 0.489736)
(0.276525 0.0652199 0.00373377)
(0.259653 0.258193 0.267607)
(0.527567 0.101472 -0.0321948)
(0.484219 -0.0258427 0.0762713)
(0.182298 0.141084 -0.106806)
(0.133918 0.407606 -0.0142433)
(-0.00379874 0.369547 0.180229)
(0.125348 -0.13044 1.38738)
(0.338294 -0.145286 1.14084)
(0.278979 0.0207524 1.09434)
(0.301856 -0.285619 1.05941)
(0.495502 -0.207115 0.716163)
(-0.0146705 -0.101662 0.818379)
(0.322951 0.271298 0.837344)
(0.26913 0.0085051 0.520756)
(0.092922 0.230439 0.422175)
(0.243078 0.331402 0.258906)
(0.234 0.427831 0.529202)
(0.705457 0.400994 -0.227311)
(1.31767 0.0751399 -0.40047)
(1.68653 0.127078 -0.525257)
(1.52394 0.409146 -0.254375)
(1.83783 -0.381711 0.0228905)
(1.8902 0.144428 -0.0615517)
(-0.865051 1.95015 -0.323853)
(-0.648875 2.02506 0.471637)
(0.986985 0.179325 0.179221)
(-0.508063 2.28362 0.535137)
(-0.667686 2.06349 0.276171)
(-0.552062 2.17617 0.358136)
(-0.281918 0.784298 0.255898)
(-0.428104 2.50547 0.611811)
(-0.653839 2.469 0.388204)
(-0.581703 2.22744 0.293931)
(-0.726031 2.17203 0.320695)
(-1.33462 1.61179 0.171839)
(-0.332293 3.0142 1.12009)
(-0.317456 3.04646 0.375563)
(-0.0127566 2.80923 0.903375)
(-0.253899 2.80848 0.437668)
(-0.443433 2.45642 0.382762)
(-0.440534 2.23074 0.580074)
(-0.974833 1.68679 -0.181417)
(-0.100082 3.2417 1.28009)
(-0.196973 3.04338 1.47564)
(-0.067392 3.10003 1.0157)
(0.363228 3.06589 1.01514)
(0.26262 2.85694 0.902324)
(-0.0686242 2.93032 0.193107)
(-0.0291307 2.43107 0.180339)
(-0.621256 1.97042 0.76072)
(-0.783085 3.29405 1.6183)
(-0.423844 3.32384 1.66188)
(-0.281071 3.20273 1.79568)
(-0.0612327 3.18726 1.63139)
(0.441743 2.96883 1.71898)
(0.505696 2.88249 1.38601)
(0.721612 2.65413 1.31086)
(-0.842411 2.79581 0.155241)
(-0.758313 2.02691 0.48702)
(-0.531438 2.35663 1.1077)
(-0.469494 2.64579 0.901183)
(-0.0992302 2.5379 1.15054)
(0.519651 2.40698 1.60416)
(0.405192 3.02038 1.11242)
(0.513683 2.79324 1.25674)
(0.23475 3.01419 1.95543)
(0.689039 3.15107 1.84414)
(-0.302287 2.93027 1.27184)
(-1.38451 2.32202 -0.562091)
(-0.781163 1.81712 1.62804)
(0.346231 1.43521 2.21562)
(-0.627563 1.53658 1.83885)
(-0.590089 1.32575 2.08954)
(-0.655499 1.80008 1.96582)
(-0.186815 1.75874 2.35361)
(-0.362478 2.73655 1.4166)
(0.516715 2.68629 1.32982)
(1.42938 2.77734 0.945891)
(1.00096 2.78101 1.61828)
(0.332199 3.2872 0.327552)
(-0.168175 0.888753 1.88112)
(0.223668 0.583992 1.92343)
(0.126312 0.567831 1.89867)
(0.268356 0.357773 1.87271)
(-0.141903 0.261367 2.0556)
(-0.380197 0.28114 2.22934)
(-0.333856 0.303001 2.32328)
(-0.884686 0.645537 2.05697)
(-1.05375 0.919611 2.30476)
(-0.963851 1.50392 2.09798)
(-0.400735 2.26605 1.21652)
(0.743584 2.61271 0.481729)
(0.103692 -0.163859 1.43122)
(0.0858101 -0.295 1.45511)
(0.506587 -0.390423 1.22031)
(0.685029 -0.501756 0.88994)
(0.522426 -0.421914 0.783597)
(0.445938 -0.376472 0.715425)
(-0.0526181 -0.369988 1.01202)
(-0.367306 -0.435551 1.17637)
(-0.580403 -0.565841 1.2516)
(-0.891625 -0.494614 1.07234)
(-1.10129 0.2022 1.65587)
(-1.88048 0.171341 1.31039)
(-1.95681 0.56551 0.415336)
(0.495459 -0.399428 1.27686)
(0.525731 -0.472773 1.12609)
(-0.421563 -0.437446 1.12505)
(0.410109 0.106578 0.879647)
(0.395059 -0.0881023 0.877147)
(0.559304 -0.384551 0.75257)
(-0.468885 0.271585 0.82739)
(0.163176 -0.253192 0.533466)
(0.116147 -0.389357 0.493523)
(0.00242873 -0.663282 0.404076)
(-0.493526 -0.691349 0.235337)
(-1.26389 0.106915 0.582328)
(-1.08613 -0.0793697 0.555624)
(-1.19914 -0.783181 0.146436)
(0.279937 -0.137056 1.30429)
(0.432899 -0.171985 1.28846)
(0.299997 -0.409245 1.28109)
(0.168339 -0.131913 0.998712)
(0.0108741 -0.0389078 0.900837)
(0.27989 0.0463517 0.755838)
(0.648802 -0.39779 0.481952)
(-0.159226 -0.100774 0.631925)
(0.203545 -0.163567 0.0938958)
(0.243508 -0.129971 0.197035)
(0.441905 -0.359701 0.0158218)
(0.0475053 -0.569602 0.311029)
(-0.863189 0.00600499 0.374469)
(-0.329072 0.104161 -0.21127)
(-0.626041 -0.1929 -0.0614484)
(0.0212925 -0.407676 1.42411)
(0.361987 -0.263216 1.29141)
(0.543359 -0.163216 1.22961)
(0.288095 -0.399652 1.17049)
(0.216359 -0.318267 0.857907)
(-0.201063 -0.339504 0.801108)
(0.503307 -0.015012 0.605399)
(0.504806 -0.292811 0.469063)
(0.188137 -0.0408216 0.520842)
(0.245092 0.102574 0.0673634)
(0.257868 0.294414 0.331445)
(0.474002 0.195425 0.0804397)
(0.425652 0.0267872 0.118512)
(0.087487 0.159787 -0.0188233)
(-0.0986922 0.472336 0.104118)
(0.0705262 0.383644 0.146602)
(0.112472 -0.0885867 1.53251)
(0.144301 -0.128006 1.37421)
(0.323107 -0.134943 1.12155)
(0.239304 0.0502588 1.1314)
(0.32439 -0.273956 1.04023)
(0.449906 -0.187768 0.730962)
(-0.0263714 -0.101642 0.841461)
(0.337897 0.278527 0.84779)
(0.232147 0.0461089 0.58859)
(0.0790842 0.252191 0.45204)
(0.23976 0.337071 0.288195)
(0.234168 0.445854 0.532499)
(0.708143 0.428076 -0.209874)
(1.31309 0.0844466 -0.348904)
(1.68231 0.138344 -0.49296)
(1.50344 0.377709 -0.261191)
(1.82585 -0.36242 0.0202749)
(1.72833 0.599342 0.273706)
(-0.392068 1.53965 0.668826)
(1.0755 0.417324 0.479325)
(-0.966903 2.21786 0.40717)
(-0.78255 2.08028 0.125348)
(-0.791319 1.98547 0.518381)
(-0.698475 1.04984 0.46798)
(-0.429152 2.31213 0.454727)
(-0.528945 2.3057 0.522529)
(-0.497735 2.15874 0.342036)
(-0.676221 2.09671 0.229453)
(-1.43612 1.2948 0.313048)
(-0.470644 2.56433 0.685662)
(-0.378554 2.47891 0.618546)
(-0.591415 2.54051 0.336803)
(-0.343739 2.2483 0.367906)
(-0.573044 2.2067 0.31242)
(-0.334734 1.86837 -0.0830953)
(-0.270103 3.12809 0.812576)
(-0.24829 3.04039 1.06888)
(-0.297357 3.03859 0.481491)
(-0.0735631 2.77124 0.886901)
(-0.24048 2.78131 0.3753)
(-0.449627 2.4144 0.327116)
(-0.316405 2.23154 0.595146)
(-0.744823 1.771 0.0291043)
(-0.355494 3.32044 1.3413)
(0.0324113 3.20907 1.26834)
(0.285319 3.08752 1.40523)
(0.243373 3.12648 1.0776)
(0.492027 3.0008 1.02923)
(0.614751 2.90892 0.747034)
(-0.211791 2.92133 0.360869)
(0.140414 2.56345 -0.271094)
(-0.544474 2.0902 0.676385)
(-0.663545 3.33283 1.59104)
(-0.275575 3.2837 1.64718)
(-0.381899 3.35942 1.61103)
(-0.261701 3.23126 1.72549)
(0.148557 3.13703 1.67622)
(0.630363 3.02828 1.65941)
(0.885439 2.90981 1.3269)
(1.18887 2.75823 1.12264)
(-0.411985 2.82435 0.315761)
(-0.375488 2.18547 0.226649)
(-0.995292 2.24945 0.994547)
(-0.155806 1.97834 1.48096)
(-0.187601 2.46444 0.955361)
(-0.0594701 2.74499 0.404014)
(-0.442441 3.04622 0.0483254)
(0.235332 2.91637 0.721232)
(0.668308 2.75343 1.59868)
(0.707603 3.16418 1.65383)
(0.763939 3.18629 1.71648)
(0.283186 2.88166 1.58047)
(-1.03598 2.50168 -0.495353)
(-0.623913 1.83391 1.59432)
(0.430729 1.30859 2.19099)
(0.00255311 1.21765 1.89228)
(-0.0350136 0.95438 2.06222)
(0.121862 1.01334 2.0027)