/*--------------------------------*- C++ -*----------------------------------*\
  =========                 |
  \\      /  F ield         | OpenFOAM: The Open Source CFD Toolbox
   \\    /   O peration     | Website:  https://openfoam.org
    \\  /    A nd           | Version:  7
     \\/     M anipulation  |
\*---------------------------------------------------------------------------*/
FoamFile
{
    version     2.0;
    format      ascii;
    class       volScalarField;
    location    "6.5";
    object      nut;
}
// * * * * * * * * * * * * * * * * * * * * * * * * * * * * * * * * * * * * * //

dimensions      [0 2 -1 0 0 0 0];

internalField   nonuniform List<scalar> 
150000
(
0.00143192
0.00154367
0.00134742
0.00118213
0.00134472
0.00168464
0.00134571
0.00112958
0.00185094
0.000970707
0.00115809
0.000626626
0.0011192
0.00116223
0.00227206
0.00116963
0.00400175
0.00219106
0.00120193
0.000874906
0.000642219
0.00171736
0.00199173
0.000536176
0.000920596
0.00041914
0.000536564
0.000837163
0.00116839
0.000955015
0.00215383
0.00215753
0.0012378
0.00212742
0.0010556
0.00068402
0.0015681
0.00116062
0.00202966
0.00117713
0.000741927
0.000548053
0.000889137
0.000731289
0.00149302
0.0021165
0.000734448
0.00050877
0.000258021
0.000618782
0.000462282
0.000468566
0.000931584
0.00126463
0.000841619
0.00219174
0.00201824
0.00123666
0.00230974
0.00179927
0.00140588
0.000867345
0.000790365
0.00255192
0.00090432
0.0008786
0.00156748
0.00115773
0.00229927
0.00301221
0.00143885
0.00124888
0.00109473
0.000545834
0.000841968
0.000712047
0.00104575
0.000898261
0.000948151
0.00189171
0.000696885
0.000341195
0.000188951
0.000615247
0.000425233
0.000456465
0.00051779
0.000436227
0.000931533
0.00133257
0.00084457
0.00180751
0.00224161
0.00106037
0.00234819
0.00209
0.00158273
0.000455204
0.00102216
0.0027444
0.00207067
0.00151426
0.00133168
0.000537009
0.00159212
0.000565535
0.00205215
0.000962071
0.0015786
0.00181031
0.001661
0.00112729
0.00107446
0.000727756
0.00104042
0.00110014
0.00125576
0.00110143
0.000530524
0.000794526
0.000793355
0.000592401
0.00083459
0.0011479
0.000749863
0.00101585
0.0017017
0.000549273
0.000320136
0.000285389
0.000545295
0.000466126
0.000451227
0.000220413
0.000448084
0.000476668
0.000376744
0.000811645
0.00133525
0.000855608
0.0028014
0.00184023
0.00119883
0.00234197
0.00209762
0.00139985
0.00104982
0.00144652
0.00227652
0.00249863
0.00105921
0.000956197
0.000520785
0.000560535
0.00161015
0.0030323
0.00168384
0.00154889
0.00169748
0.000504049
0.00064322
0.000761985
0.00116588
0.000979306
0.00212174
0.0011039
0.000722757
0.00147356
0.00150225
0.000889825
0.00103696
0.0010639
0.00112001
0.00181858
0.00468985
0.000834005
0.0010586
0.000849322
0.000493547
0.000727777
0.000779228
0.000856766
0.000680337
0.00061771
0.000772334
0.00102934
0.000672926
0.00110831
0.00135847
0.000491913
0.000322745
0.000272442
0.000404319
0.000516371
0.000425209
0.000285209
8.92397e-05
0.000146002
0.000399007
0.000554465
0.00026425
0.00041624
0.00121231
0.000878651
0.00275847
0.00233189
0.000903885
0.00275272
0.00201486
0.00104267
0.000966647
0.00156144
0.00234355
0.00228592
0.00134818
0.000622945
0.000112322
0.000747575
0.00131405
0.00234041
0.00240891
0.00223816
0.0013203
0.000567701
0.000332836
0.000325604
0.0010898
0.0016869
0.00243781
0.00145935
0.00131612
0.000615285
0.000460819
0.000605622
0.00102285
0.000686414
0.000864048
0.000692667
0.00197724
0.00227958
0.000999088
0.00070994
0.00102719
0.00100611
0.00126437
0.00121098
0.000570364
0.00131902
0.0010475
0.00124769
0.00162624
0.00187124
0.000746866
0.000740059
0.000705615
0.000479201
0.000743659
0.000693427
0.00073495
0.000712699
0.00019897
0.000594113
0.000528801
0.00071721
0.000906234
0.000814263
0.00111552
0.00106664
0.000462728
0.000260546
0.000370776
0.000248516
0.000531181
0.000341027
0.0003377
3.82619e-05
6.93567e-05
0.000197386
0.000147092
0.000347745
0.000578267
0.000311478
0.000439956
0.00105856
0.00090832
0.00272944
0.0027034
0.00117532
0.00307561
0.00259259
0.000628323
0.000611599
0.00108629
0.00271464
0.00235458
0.00171686
0.00118308
0.000548914
0.00119264
0.00165352
0.00265681
0.00260277
0.00135365
0.001106
0.000267455
0.00104757
0.000807151
0.000726449
0.00135961
0.00254693
0.00234455
0.00173735
0.00117252
0.000355798
0.000757357
0.000249206
0.000565145
0.000625286
0.00117448
0.00194569
0.00263263
0.00159556
0.000833983
0.000754299
0.000658973
0.000707434
0.000946188
0.000715496
0.000928365
0.000954174
0.000754729
0.0006317
0.00147268
0.00305676
0.000946022
0.00101132
0.00096786
0.000922856
0.00125911
0.00188828
0.000685422
0.000419623
0.000732924
0.00137726
0.00188648
0.00139226
0.00100997
0.00235904
0.00174413
0.000702187
0.000911609
0.000367365
0.000779874
0.000719558
0.000669149
0.000399897
0.000178394
0.000240305
0.000177829
0.000423318
0.000493495
0.000393302
0.000903798
0.000935675
0.00123515
0.000795166
0.000435444
0.000222515
0.000468777
6.82158e-05
0.000557256
0.000320192
0.000402465
0.00010859
2.18953e-05
8.79601e-05
0.000158678
0.000180624
0.000178818
0.00031289
0.000588639
0.000390193
0.000575698
0.000811966
0.000945631
0.00286309
0.00299404
0.00118679
0.00275184
0.00282425
0.000853777
0.00073942
0.00113007
0.00317409
0.00305197
0.00131595
0.00121036
0.000978213
0.00087597
0.00162201
0.00289508
0.00264443
0.0023656
0.00118904
0.000499128
0.000752423
0.000728671
0.000936125
0.00121149
0.0030031
0.00281041
0.00168909
0.00114569
0.000741299
0.000596351
0.00127736
0.000907328
0.000885643
0.000982072
0.00123718
0.00269103
0.00221876
0.00106035
0.00085703
0.000828257
0.000601111
0.000307295
0.000418299
0.000473351
0.000876957
0.000878925
0.000621667
0.00169201
0.00264532
0.00145408
0.000706626
0.00107583
0.000866649
0.000950003
0.0015139
0.000631017
0.000379989
0.000791195
0.000872804
0.000961053
0.000414088
0.000631046
0.00241364
0.00314505
0.00122805
0.00146248
0.000845043
0.00101871
0.00123359
0.00116134
0.000523548
0.000405614
0.000338578
0.000493897
0.00081761
0.00108055
0.000734623
0.00114928
0.000878359
0.00279625
0.00167998
0.000781551
0.000985033
0.000284499
0.000721479
0.000605589
0.00060467
0.000266372
0.000148114
0.000187743
0.000198029
0.000230642
0.000288155
0.000256177
0.000476579
0.000471817
0.000886581
0.000561687
0.001148
0.000700231
0.00040067
0.00020259
0.000233839
0.000304728
0.000603123
0.000311668
0.000467202
0.000166365
4.25183e-05
0.000101995
0.000127833
0.000114281
0.000234453
0.000101605
0.00015176
0.000285345
0.000584516
0.000438346
0.000721143
0.000569783
0.000919219
0.00246826
0.00271263
0.00101088
0.00290702
0.0029374
0.00106643
0.000840544
0.00140948
0.00258991
0.00261597
0.000822306
0.00101891
0.00102316
0.000493107
0.000640201
0.00312807
0.00303987
0.00100389
0.000817862
0.00109046
0.000998999
0.000988641
0.000982288
0.00100938
0.0029607
0.00313697
0.00213709
0.00183117
0.000881137
0.000521306
0.00118402
0.000522472
0.00108502
0.00162404
0.00186137
0.00300439
0.00283976
0.00132457
0.0019291
0.000630231
0.000854091
0.0009576
0.000760328
0.000873124
0.000484718
0.000214597
0.000698391
0.0013704
0.00270591
0.00205292
0.000736199
0.00117776
0.000840645
0.000605564
0.000364452
0.000264801
0.000663587
0.000336466
0.000673729
0.00100743
0.000645814
0.000988686
0.00114676
0.0024657
0.00127258
0.000664945
0.000606717
0.000790157
0.00100578
0.00101201
0.000868481
0.000448633
0.000644624
0.00042635
0.00120757
0.00126127
0.000791465
0.000425897
0.00158141
0.00050271
0.0023331
0.00124082
0.00123636
0.000795861
0.00102456
0.00112553
0.00131092
0.000485252
0.000379976
0.000244579
0.000283808
0.000403825
0.000440909
0.000876406
0.000641609
0.000896839
0.00045237
0.0018248
0.0020709
0.00087652
0.00121185
0.000781649
0.000493127
0.000531053
0.000646687
0.000539273
0.000361835
0.000134069
0.000162295
0.000243863
0.000308341
0.00051793
0.000269404
0.000295253
0.000260631
0.000445417
0.000584005
0.000847711
0.000996032
0.00117828
0.000747865
0.000379008
0.000257279
0.000373268
0.000327118
0.000577769
0.000328009
0.000514854
0.000231636
1.41544e-05
0.000128584
0.000142792
0.000224716
7.69996e-05
0.000137816
0.000103115
0.000135927
0.000122447
0.000254642
0.000555209
0.000445967
0.000778978
0.000446169
0.000863657
0.00256054
0.00265816
0.000929274
0.00251491
0.00279353
0.00118932
0.000619908
0.000993809
0.00248954
0.00275622
0.000879382
0.000836837
0.000649117
0.000920585
0.00108137
0.00267058
0.00265852
0.000730575
0.000915617
0.000922971
0.00105569
0.000987816
0.000582885
0.0012925
0.0028096
0.00270963
0.000707957
0.00141348
0.000270899
0.00124318
0.00130528
0.000572333
0.000449129
0.000713442
0.000680498
0.00276065
0.0037377
0.00234917
0.00126063
0.000781031
0.000610537
0.000632098
0.000754519
0.00107363
0.000361276
0.000365098
0.00112051
0.00121312
0.0029209
0.00367772
0.00108636
0.00211349
0.000976643
0.000768082
0.000994513
0.000732765
0.000671296
0.00126143
0.000391939
0.000437499
0.000664809
0.000493371
0.00127177
0.00256525
0.00252266
0.00118313
0.00185831
0.001413
0.000581088
0.000414372
0.000409691
0.000501641
0.000820794
0.000846891
0.000310065
0.000519968
0.0011606
0.000435409
0.00119079
0.00145328
0.00258472
0.00135756
0.00106603
0.000669334
0.000891418
0.00126508
0.000950535
0.000552857
0.00059332
0.000797433
0.000602914
0.000589997
0.000585244
0.000992208
0.000824108
0.000775691
0.000511956
0.00145647
0.00178766
0.00175468
0.00112677
0.000754493
0.000766928
0.00116475
0.00105987
0.000955348
0.000402281
0.000356511
0.000241997
0.000215929
0.00026907
0.000238678
0.00052363
0.000554078
0.000821074
0.000569935
0.00106211
0.00115352
0.0017547
0.00191916
0.00180333
0.00130675
0.000966351
0.000663315
0.000392702
0.000560941
0.000426118
9.13442e-05
0.00022313
0.000152439
0.000300154
0.00028966
0.000293996
0.000296154
0.000700482
0.000639799
0.000375544
0.000265855
0.000490425
0.000663903
0.000888477
0.00101416
0.00111382
0.000858722
0.000427186
0.000348426
0.000381924
0.000299461
0.000556694
0.000379368
0.00051421
0.000232401
7.31547e-05
0.000108734
0.000149108
0.000240596
0.000476198
0.000208851
0.000164771
0.00014337
6.64782e-05
0.000108311
9.97747e-05
0.000190117
0.000505909
0.00042505
0.000783191
0.000469033
0.000810873
0.00229042
0.0025675
0.000825216
0.00268267
0.00251914
0.00118953
0.000802184
0.000569303
0.00261599
0.00294966
0.00107123
0.000582927
0.000394711
0.000695522
0.00152353
0.00257702
0.00275215
0.00100538
0.000894182
0.000499937
0.00087893
0.000577939
0.000698871
0.000866553
0.00253963
0.00287632
0.00106408
0.00171605
0.000789776
0.000975112
0.000866617
0.00133219
0.000808136
0.000609639
0.00088384
0.0030135
0.00306844
0.00105158
0.00109147
0.000792645
0.00128173
0.000926974
0.000613612
0.000931472
0.00083236
0.00064257
0.000774814
0.000921718
0.00251322
0.00396507
0.00193767
0.00177051
0.00122725
0.000897162
0.000463073
0.00118007
0.000722189
0.000814636
0.000509654
0.000596105
0.000630854
0.000593496
0.00121362
0.00281894
0.00329012
0.00103879
0.00135074
0.000980175
0.000495361
0.000852924
0.000849704
0.000764331
0.000709477
0.00102203
0.00173484
0.00094429
0.000302427
0.000510611
0.00081869
0.000673082
0.00261395
0.00228521
0.000631566
0.0016566
0.0015844
0.000579264
0.000409251
0.000376856
0.000671005
0.000825267
0.000822768
0.00110293
0.00059295
0.000962735
0.00112742
0.000629462
0.000209692
0.000917116
0.00127594
0.00252391
0.00151014
0.00115574
0.00118349
0.000897645
0.00121685
0.00094157
0.000448102
0.000714514
0.00058742
0.000613806
0.000785607
0.000484921
0.000583699
0.000743276
0.0010254
0.000868793
0.000829219
0.000416834
0.00140516
0.00138925
0.00215213
0.00123627
0.000928475
0.000923259
0.00114809
0.00114403
0.000775463
0.000367329
0.000298009
0.000284585
0.000223562
0.000266496
0.000308273
0.00025099
0.000190453
0.000528292
0.000633944
0.00089209
0.000586289
0.00081334
0.00131987
0.00148435
0.00159214
0.00198028
0.000916875
0.000400456
0.000706107
0.000585677
0.000317317
0.000302687
0.000164476
0.000335858
0.000122784
0.000273199
0.000270363
0.000395683
0.000423341
0.000310565
0.000365333
0.000448628
0.000753758
0.000417359
0.000211184
0.000819859
0.000755362
0.000834304
0.000692857
0.000966843
0.000633167
0.000364518
0.000280639
0.00033096
0.000397974
0.000513257
0.00041525
0.000544775
0.000121249
7.33666e-05
7.88951e-05
0.000176585
0.000265281
0.00060378
0.000271139
0.000414148
0.000136361
0.000181448
0.000189182
8.45301e-05
7.52534e-05
0.000103227
0.000142069
0.000449674
0.000388039
0.000728773
0.000501
0.000770908
0.0024852
0.00237085
0.000604292
0.00227239
0.00257174
0.000432251
0.000688375
0.000915564
0.00255351
0.00262708
0.000431344
0.000863136
0.000466547
0.000681935
0.00149749
0.00240412
0.00294732
0.000854616
0.00099588
0.000378209
0.000507159
0.000379341
0.00079326
0.000769186
0.00249493
0.00289263
0.000667839
0.00111078
0.000932903
0.000555017
0.00106155
0.000612008
0.000851327
0.000841756
0.000986537
0.00272565
0.00266785
0.000723266
0.000707123
0.00109624
0.000815779
0.000507841
0.00106602
0.00116704
0.000948939
0.000789592
0.000450106
0.000951548
0.00275433
0.00336415
0.0014695
0.00142726
0.000691436
0.000383257
0.00075653
0.000728735
0.000585701
0.000710623
0.000431483
0.00107403
0.000488483
0.000868769
0.000827604
0.00256745
0.00431812
0.00172542
0.00133905
0.000895044
0.000630876
0.000790625
0.000733432
0.000299726
0.000632063
0.000750031
0.00104237
0.00100083
0.000481876
0.00101257
0.000459317
0.000795724
0.00273905
0.00329215
0.000666884
0.00101618
0.00107943
0.00094538
0.000834837
0.000824704
0.000416207
0.00073987
0.00111821
0.000778893
0.00115646
0.000885891
0.00104181
0.000595114
0.000697639
0.000587011
0.000455262
0.00253549
0.00222197
0.000411488
0.0015047
0.00140291
0.000443711
0.00052363
0.00050402
0.000645947
0.000568533
0.000920627
0.000883528
0.000830347
0.000930973
0.000730652
0.00116188
0.00170407
0.00063115
0.000439804
0.000776594
0.00110949
0.00261224
0.00151434
0.00107203
0.000813081
0.00103197
0.000958988
0.000792284
0.000392285
0.000752508
0.000532883
0.000499124
0.000675381
0.000510906
0.00069325
0.000556406
0.000719076
0.00111429
0.00113961
0.000665738
0.000546256
0.000607373
0.000753371
0.000756207
0.00178376
0.00117079
0.000999974
0.000918593
0.0011999
0.00099826
0.000564908
0.000372511
0.000256469
0.000251202
0.000248595
0.000207421
0.000587183
0.000597285
0.000317955
0.000165203
0.000404283
0.00122901
0.00121832
0.000629985
0.000984764
0.00107778
0.00101523
0.00169638
0.001059
0.00167802
0.000708358
0.000413622
0.000782757
0.000810092
0.000273142
0.000228899
0.000143228
0.000314711
0.000105698
0.000234117
0.000249127
0.000228658
0.000213421
0.000217321
0.000450626
0.000351222
0.000331468
0.000395546
0.000600836
0.000380378
0.000354606
0.00073601
0.000635632
0.000662534
0.000576311
0.000711137
0.000525647
0.000346962
0.000234994
0.000290616
0.000373247
0.000459719
0.000455909
0.000460564
0.000190325
3.52002e-05
9.23577e-05
0.000164786
0.000251068
0.00065633
0.000187848
0.000310959
0.000319032
0.000356499
0.000194745
0.000191794
0.000278315
0.000112889
0.000108037
0.000140969
0.0001479
0.000393906
0.00032183
0.000626261
0.000502685
0.0006881
0.00221562
0.00232188
0.0005584
0.00261413
0.00235494
0.000710705
0.000434513
0.000669369
0.0023467
0.00257385
0.000634578
0.000746858
0.00052053
0.000846987
0.000565092
0.00236185
0.00269792
0.000629671
0.00113487
0.000634061
0.000172693
0.000335152
0.000756446
0.000679075
0.00241134
0.00285329
0.00115053
0.00109031
0.000331262
0.000773271
0.000566148
0.000772635
0.000757961
0.000673474
0.00111316
0.00227407
0.00283415
0.000509362
0.000554851
0.000624109
0.00070569
0.00101382
0.00130289
0.000745099
0.000463129
0.000510749
0.000641504
0.000673351
0.00262046
0.00257868
0.000520373
0.00116369
0.00130527
0.000618883
0.000732997
0.000817965
0.000689721
0.00104492
0.00108769
0.00128898
0.0007617
0.00060684
0.00101669
0.00268893
0.00359838
0.0015622
0.00099766
0.000433943
0.000364288
0.000631828
0.00055436
0.000835858
0.000503836
0.000726391
0.000403935
0.000641273
0.00077897
0.000966622
0.000665641
0.000671971
0.00248242
0.00366777
0.0020576
0.00144806
0.00126883
0.000998175
0.000794696
0.000725812
0.000642287
0.000663239
0.000645792
0.000810467
0.00125313
0.00075439
0.000560043
0.000367795
0.000465469
0.000810623
0.000605927
0.00268626
0.00340384
0.000570794
0.00145612
0.00173937
0.00158941
0.00102636
0.000630678
0.00049759
0.000729846
0.000957329
0.00121189
0.000818123
0.000552942
0.0011816
0.000910049
0.000318153
0.000655249
0.000917905
0.000492881
0.000659446
0.00280505
0.00236183
0.000807866
0.000958378
0.0012323
0.000263757
0.000883791
0.000629486
0.000841657
0.000447282
0.000574543
0.00105119
0.00120741
0.000744246
0.000736923
0.000838895
0.000895026
0.000676856
0.000996819
0.000728245
0.000621539
0.0009091
0.000868678
0.00233714
0.00156152
0.0013972
0.000398782
0.00160784
0.00126474
0.00104194
0.000502072
0.000629077
0.000470491
0.000487602
0.000446119
0.00136924
0.0003024
0.000852526
0.000756641
0.00054493
0.00106155
0.0016613
0.00106448
0.000625673
0.000465517
0.000918379
0.000710616
0.000856268
0.0019209
0.00130493
0.00103061
0.000865546
0.00109443
0.00102341
0.000510987
0.000426018
0.00020468
0.00021356
0.000246308
0.000186794
0.000733031
0.000857535
0.000802386
0.00046628
0.000533184
0.000496873
0.000587208
0.00143515
0.00142753
0.000620395
0.0010024
0.00103044
0.00135752
0.00160838
0.00127181
0.00124513
0.000751603
0.000393168
0.00062674
0.000796787
0.000233403
0.000133376
0.0001492
0.000216322
0.00010894
0.000254875
0.000533296
0.000495176
0.000344121
0.000457998
0.000300261
0.000153799
0.000300603
0.000380953
0.000303747
0.00035408
0.000450158
0.000359834
0.000599625
0.000345855
0.000617273
0.000471889
0.000576125
0.000545086
0.000435858
0.000493791
0.000290408
0.000368319
0.000333442
0.000409215
0.000453826
0.000322881
0.000271664
5.75165e-05
0.000142054
0.000161959
0.000320414
0.00066107
0.000144278
0.000299176
9.60681e-05
0.000309466
0.000345871
0.000283034
0.000259479
0.000218696
0.000320035
0.000118189
0.000173598
0.000207878
0.000126168
0.000336122
0.000270765
0.000513106
0.000501174
0.000581454
0.00215466
0.00229139
0.000728831
0.00234851
0.00237314
0.00030188
0.000658234
0.000676589
0.00250503
0.0024234
0.000547496
0.000714336
0.000364097
0.00072377
0.000907162
0.00225174
0.00259884
0.00063426
0.000730765
0.000542186
0.000452935
0.000563673
0.000462423
0.00132972
0.00231362
0.00272502
0.000744675
0.000290043
0.000763692
0.000402871
0.000714565
0.000470829
0.000510166
0.000454243
0.000433137
0.00236188
0.00292443
0.000589453
0.000687472
0.000986566
0.000603558
0.000390331
0.000220763
0.000507937
0.000488981
0.000439382
0.000870113
0.000444715
0.00242786
0.00283131
0.000817205
0.000417876
0.000958499
0.00104491
0.00134807
0.000982781
0.000747019
0.00110413
0.000740477
0.000520476
0.00053216
0.000329027
0.000746654
0.00226151
0.00274509
0.000949203
0.00156319
0.00117049
0.000888246
0.000912101
0.00162325
0.00143295
0.000663371
0.000801799
0.00123841
0.00115521
0.00102007
0.00101127
0.000808118
0.00108833
0.00257758
0.00334433
0.00176969
0.00214653
0.000250964
0.00062102
0.000544221
0.000812669
0.000474163
0.000718138
0.00122115
0.0014207
0.000732846
0.000843848
0.000658719
0.000730111
0.000699641
0.00043846
0.000500158
0.00254965
0.00320153
0.00214033
0.00163424
0.000769926
0.0015729
0.00104402
0.000830481
0.00110747
0.000645974
0.000852726
0.000737057
0.000568352
0.00100479
0.000411019
0.000473852
0.000466023
0.000700449
0.000582122
0.000709392
0.000376038
0.00268296
0.00365516
0.00147338
0.00121655
0.00126948
0.00149842
0.000926291
0.000608383
0.00116583
0.000625849
0.00102621
0.000736844
0.000867691
0.000760721
0.000584025
0.00172967
0.00114848
0.000858626
0.000501323
0.000536283
0.000554892
0.000989896
0.000685193
0.00290827
0.00244037
0.0013165
0.000623536
0.000757326
0.000799173
0.000587979
0.000869317
0.000745343
0.000465528
0.000533389
0.000601716
0.000725303
0.000909616
0.00150708
0.000863693
0.000693819
0.000777655
0.000561601
0.00124337
0.000737186
0.000405459
0.00071586
0.00122813
0.00102359
0.00256882
0.0017651
0.0016117
0.000751336
0.00100154
0.00117212
0.000973079
0.000561446
0.000456465
0.000445994
0.000401096
0.000565274
0.00146492
0.00078813
0.000294211
0.000607221
0.00115801
0.000674999
0.000743051
0.00227214
0.00116335
0.00168475
0.000952498
0.000491737
0.000611905
0.00076928
0.00209174
0.00175489
0.00113349
0.000949933
0.000889626
0.00089841
0.000874809
0.000307155
0.000362455
0.000214439
0.000297527
0.000263067
0.000215002
0.000552789
0.00121199
0.00122376
0.00105031
0.00060683
0.000897999
0.00057963
0.000641125
0.000684796
0.00099275
0.000793796
0.000708178
0.000825399
0.00102121
0.00187553
0.00170374
0.00116301
0.0013216
0.000612792
0.000163335
0.000411381
0.000741898
0.000420201
0.000110671
0.000194989
0.000124556
0.000113455
0.000253616
0.000735178
0.000383345
0.000411137
0.000496977
0.000450303
0.000376129
0.000219167
0.000210098
0.000301002
0.000368508
0.000310609
0.000346292
0.000423152
0.000297207
0.0003171
0.000294679
0.000632563
0.000421951
0.000370963
0.000538189
0.000530498
0.000439071
0.000616445
0.000470868
0.000370558
0.000353381
0.000436133
0.000320544
0.0003408
8.94917e-05
0.000116418
0.000188978
0.00035657
0.000671009
0.000155827
0.000261613
0.00012061
0.000114861
0.000149707
0.000145412
0.000331355
0.000234199
0.000169927
0.000212955
0.000342622
0.00014088
0.000173908
9.88376e-05
0.000109553
0.000286415
0.000287469
0.000428778
0.000479743
0.000500631
0.00221845
0.00209991
0.000626316
0.00227034
0.00230137
0.00053862
0.000206743
0.000680998
0.00232674
0.00234031
0.000278655
0.000706855
0.000307048
0.000463689
0.000760271
0.00259836
0.00243786
0.000474232
0.000452682
0.000400315
0.000308678
0.000289847
0.000651373
0.000473432
0.00224208
0.00260882
0.000542855
0.000687742
0.000691997
0.000352033
0.000293667
0.00035975
0.000309486
0.000666227
0.000599919
0.00232383
0.00273742
0.000647639
0.000678319
0.000773074
0.000701891
0.000328241
0.000710483
0.000486486
0.000308459
0.000633824
0.000619079
0.000931517
0.00232272
0.0027924
0.000489342
0.000911428
0.000634722
0.000951947
0.000664613
0.00144956
0.00119657
0.00111959
0.000515577
0.000481267
0.000486208
0.00053693
0.000686677
0.00228366
0.00283136
0.000681694
0.000606737
0.000510906
0.000970108
0.0016544
0.0017865
0.00173503
0.00121681
0.00129946
0.000902592
0.00098446
0.00104418
0.0010278
0.000667962
0.000772427
0.00232481
0.00319715
0.00106142
0.00158852
0.00121797
0.000974402
0.00124098
0.00120898
0.00122714
0.000857336
0.0011384
0.00121215
0.00111924
0.000809402
0.00103168
0.000813782
0.000703175
0.000535343
0.000691857
0.00262301
0.00323206
0.00252676
0.00208464
0.00141772
0.000477721
0.000660654
0.000346393
0.000329559
0.000524591
0.000351511
0.00110237
0.000395528
0.000714329
0.000601006
0.000533981
0.000647647
0.000706248
0.000542836
0.000550576
0.00049861
0.00241968
0.00386987
0.00317782
0.000485486
0.000801337
0.00112285
0.000553857
0.000988829
0.0006891
0.000644832
0.0002515
0.000847773
0.000962804
0.000343657
0.000548282
0.000552304
0.000490613
0.000553362
0.000341523
0.000395734
0.000787803
0.0005832
0.000710983
0.00291089
0.0035627
0.00221378
0.000437857
0.000919106
0.000953272
0.000603901
0.000898996
0.0008007
0.000652058
0.000667982
0.000888275
0.000483513
0.000295144
0.000949761
0.000615087
0.000909853
0.00153655
0.000745244
0.000153422
0.000269967
0.000791743
0.000625224
0.000763719
0.000493719
0.00287247
0.00212878
0.00137041
0.00116953
0.000614089
0.000884558
0.000994218
0.000880252
0.000718954
0.000466396
0.000674548
0.000746767
0.000852734
0.000700343
0.000903523
0.00123006
0.000738982
0.00072301
0.000610989
0.00089134
0.000777877
0.001055
0.000581966
0.000294433
0.000657618
0.00134071
0.000754719
0.00261464
0.00187167
0.00186712
0.00117091
0.0011681
0.000933651
0.000663426
0.000472859
0.000383886
0.000421144
0.000359067
0.000368802
0.000920075
0.000868424
0.0009915
0.00026185
0.000577959
0.00142273
0.00144019
0.00146488
0.00207363
0.00151248
0.00142558
0.00173056
0.00103561
0.000318808
0.00121502
0.001304
0.0019791
0.00197373
0.00155585
0.00108635
0.000965892
0.000809414
0.000776855
0.000639633
0.00034097
0.000199052
0.000272271
0.000278618
0.000286094
0.000608992
0.000769533
0.00128587
0.000540753
0.00116615
0.000964833
0.000586687
0.000755939
0.000491645
0.000590825
0.00135046
0.000649032
0.000583805
0.000749618
0.000780136
0.00106451
0.00149376
0.00122935
0.000891385
0.00162216
0.000531165
0.000270361
0.000307621
0.000739595
0.000669096
0.000173677
0.000210872
9.44678e-05
0.00011977
0.000233496
0.000425365
0.000695228
0.000386402
0.000679496
0.000595865
0.000423635
0.000399281
0.000311835
0.000150094
0.000284491
0.00031101
0.000364452
0.000349418
0.00040025
0.000422264
0.000517047
0.000301972
0.000392742
0.000483888
0.000362246
0.000371183
0.000476496
0.00034355
0.000396386
0.000725608
0.000256451
0.000410281
0.000332068
0.000406689
0.000350835
0.00036397
8.7918e-05
6.82429e-05
0.000161508
0.000354299
0.000608295
0.000209362
0.000199846
0.000104119
0.000121254
0.000186393
0.000126754
0.000199949
0.000235873
0.000314303
0.000207017
0.000239092
0.000173231
0.000351083
0.000149946
5.95332e-05
8.09253e-05
0.000189265
0.000246449
0.000321107
0.000434438
0.000460529
0.00044226
0.00213223
0.0022116
0.000518894
0.00235057
0.00210034
0.000538174
0.000543839
0.000493865
0.00238503
0.00226397
0.00041055
0.000391262
0.000217923
0.000407071
0.000491972
0.00226795
0.00234048
0.000354197
0.0005102
0.000612103
0.000181668
0.000328015
0.000590209
0.000827341
0.00229204
0.00248493
0.00054574
0.000495865
0.000608548
0.000309742
0.000432327
0.000495208
0.000435335
0.00031975
0.000381128
0.0022476
0.00253558
0.000558071
0.000813069
0.000565835
0.000609176
0.000532536
0.000267609
0.000821299
0.000277886
0.000667911
0.000600238
0.000780304
0.00245268
0.00271841
0.000616667
0.000906443
0.000684364
0.000654314
0.000436392
0.000816229
0.00117633
0.000678693
0.000285945
0.000799688
0.000194467
0.000461481
0.000444457
0.00237159
0.00263437
0.000690537
0.000544739
0.000662543
0.000590958
0.000863144
0.000742962
0.00111
0.000745297
0.000869188
0.000598479
0.000482582
0.000396918
0.000813187
0.000597543
0.000734996
0.00217691
0.00283649
0.000503859
0.000402939
0.00154761
0.00118416
0.00137713
0.001269
0.000951229
0.000619021
0.000545957
0.000556294
0.000680498
0.000954962
0.00112725
0.000639348
0.000778008
0.000638278
0.000583913
0.00227445
0.00273893
0.000846849
0.0011014
0.00223088
0.00145179
0.00141474
0.00149635
0.00107702
0.000786091
0.000528373
0.000574876
0.000953977
0.00125222
0.00118613
0.000742365
0.000604602
0.000920522
0.00050881
0.00052761
0.000640337
0.00251984
0.00277683
0.00237426
0.00207753
0.00168614
0.00104788
0.000578888
0.000411305
0.000691576
0.000760208
0.000901897
0.000669663
0.00110274
0.000724955
0.00078663
0.000514378
0.000616079
0.00101539
0.000301188
0.000723495
0.000579679
0.000352891
0.000536658
0.00240679
0.00417846
0.00180136
0.0014449
0.000726953
0.000882295
0.000985024
0.000372032
0.000778046
0.000892733
0.000793642
0.000906982
0.00117924
0.000607537
0.000922598
0.000443484
0.000677331
0.000650259
0.00047191
0.00016173
0.000517819
0.000340119
0.000553533
0.000560607
0.000670363
0.00254288
0.00323109
0.00128352
0.000783244
0.000434987
0.000513948
0.000867832
0.00109973
0.000695294
0.000419332
0.000795778
0.000861328
0.00120521
0.000493256
0.000484331
0.000796149
0.00064199
0.00103607
0.00116389
0.000328465
0.000286013
0.000526377
0.000502166
0.000490693
0.00088049
0.000731566
0.000519244
0.00278616
0.00195346
0.0016338
0.00169445
0.00080891
0.000699419
0.000885502
0.000689179
0.000592325
0.000570375
0.000677144
0.000839721
0.000882058
0.000563897
0.000605671
0.000738871
0.00111342
0.000889398
0.000491633
0.000665649
0.000516875
0.000609742
0.00109759
0.000742465
0.000400613
0.000816079
0.000709923
0.0010391
0.000553068
0.00268566
0.00237804
0.0017177
0.00120659
0.000943784
0.000923427
0.000727182
0.000452832
0.000347398
0.000375986
0.000377323
0.000610475
0.000536795
0.000773711
0.000884866
0.000842359
0.000400499
0.000388876
0.000569539
0.00125088
0.000723499
0.00184058
0.0025189
0.00124966
0.00172797
0.00124027
0.000581934
0.000760846
0.00131808
0.00161032
0.00173891
0.00262613
0.00156467
0.0011548
0.000955972
0.000941879
0.000437959
0.000271658
0.000340742
0.000178391
0.000270914
0.000303042
0.000388519
0.000486299
0.000460721
0.000519513
0.000310699
0.00062619
0.000507662
0.00107219
0.000870876
0.000446154
0.000751044
0.000560161
0.000734607
0.000982827
0.00059245
0.000961365
0.000753269
0.00091958
0.00124018
0.00158586
0.000543592
0.00141539
0.00124802
0.000551229
0.000360362
0.000434749
0.00073631
0.000701748
0.000159827
0.000183297
0.000110252
0.000109241
0.000195124
0.000346424
0.000492661
0.000365971
0.000601258
0.000520898
0.00039436
0.000415061
0.00029737
0.00039347
0.000173369
0.000320758
0.000325174
0.000332471
0.0003664
0.000402033
0.000452091
0.000430151
0.000391343
0.000259055
0.000447264
0.000314891
0.000254564
0.000396501
0.000366881
0.000301573
0.000488383
0.000216097
0.000329171
0.000383746
0.000297005
0.000368952
0.000405261
0.000354538
0.000109699
6.93659e-05
0.000206301
0.000454966
0.000432621
0.000206844
0.000227799
0.000107685
0.000130971
0.000193319
0.000313913
0.000198613
0.00014309
0.00024214
0.000406181
0.000390354
0.000244764
0.000200554
0.000136041
0.000339676
0.00015878
0.000133996
0.000147994
0.000234976
0.000215361
0.00031093
0.000446006
0.00045572
0.000413161
0.00228216
0.00216847
0.00066037
0.00220007
0.00219904
0.000686994
0.000188377
0.000473464
0.00226375
0.00210682
0.000342442
0.00055892
0.000201642
0.000523006
0.000305319
0.0023297
0.00233106
0.000376084
0.000408884
0.000476709
0.000261094
0.000480451
0.000328201
0.000703525
0.00228644
0.00233925
0.000367635
0.000558662
0.000772222
0.000409134
0.000279485
0.000199949
0.000244124
0.000504193
0.000693359
0.0023135
0.00245045
0.000532885
0.000582787
0.000755409
0.000486483
0.000222317
0.000286694
0.000395346
0.000537264
0.000501745
0.00043992
0.000377899
0.00228248
0.00264075
0.000540507
0.000683325
0.000944878
0.000427506
0.000413177
0.000519076
0.000448391
0.000521374
0.00031213
0.000159168
0.000309757