/*--------------------------------*- C++ -*----------------------------------*\
  =========                 |
  \\      /  F ield         | OpenFOAM: The Open Source CFD Toolbox
   \\    /   O peration     | Website:  https://openfoam.org
    \\  /    A nd           | Version:  7
     \\/     M anipulation  |
\*---------------------------------------------------------------------------*/
FoamFile
{
    version     2.0;
    format      ascii;
    class       volScalarField;
    location    "6.5";
    object      p;
}
// * * * * * * * * * * * * * * * * * * * * * * * * * * * * * * * * * * * * * //

dimensions      [0 2 -2 0 0 0 0];

internalField   nonuniform List<scalar> 
150000
(
-72.0041
-68.7629
-72.34
-72.6628
-71.7008
-65.2208
-69.3075
-70.4475
-68.3114
-72.7221
-73.0359
-72.8897
-72.3892
-71.5397
-65.1085
-65.8258
-63.1656
-64.7031
-69.8783
-70.7381
-73.6751
-70.1903
-68.0458
-73.0565
-73.4464
-73.017
-73.5163
-72.7458
-72.1832
-71.4773
-66.1271
-65.0829
-67.5417
-65.7094
-66.4529
-66.7123
-74.2203
-62.122
-64.6152
-70.496
-71.1916
-73.8146
-74.6647
-73.5398
-70.0363
-68.0248
-73.3321
-73.8267
-73.1111
-73.5466
-73.1084
-73.4933
-72.6146
-72.0771
-71.4496
-65.4683
-66.0512
-66.5289
-65.8506
-65.818
-67.5512
-71.1857
-68.4351
-66.4461
-67.3145
-68.5868
-74.4633
-75.7213
-74.0402
-53.769
-65.2149
-71.2036
-71.7081
-73.9631
-74.6537
-74.2252
-74.6777
-73.4166
-70.2517
-68.346
-73.576
-74.1653
-73.178
-73.5961
-73.1091
-73.2211
-73.1266
-73.4743
-72.5117
-72.0737
-71.4389
-62.8149
-65.0801
-65.1114
-65.3993
-66.309
-66.5778
-68.221
-66.6185
-65.6655
-66.7311
-68.0625
-71.1634
-73.1844
-71.556
-70.2062
-67.0831
-68.2862
-68.9812
-74.6145
-75.8455
-74.8884
-75.5777
-74.346
-63.158
-66.0673
-71.9129
-72.2052
-74.1165
-74.6326
-74.1299
-73.4847
-74.3093
-74.7069
-73.3406
-70.4108
-68.8905
-73.802
-74.4384
-73.2627
-73.659
-73.1187
-73.203
-73.2812
-73.2416
-73.1634
-73.4599
-72.4307
-72.1848
-71.4305
-61.1651
-63.1195
-62.9973
-62.5878
-64.9643
-65.4123
-65.8717
-64.8609
-65.1185
-66.5422
-66.8567
-68.049
-69.8319
-68.5035
-66.803
-65.7756
-67.6713
-68.7967
-71.3859
-73.1201
-72.5419
-73.3994
-72.3959
-71.6895
-67.72
-69.1484
-69.7716
-74.8041
-75.9607
-74.9027
-72.4795
-74.9786
-75.4511
-74.643
-64.5471
-67.1211
-72.5238
-72.7144
-74.2775
-74.603
-74.0361
-73.4228
-73.2303
-73.5678
-74.4073
-74.7203
-73.2776
-70.5578
-69.5213
-74.0007
-74.6464
-73.4458
-73.7239
-73.137
-73.1877
-73.2676
-73.5277
-73.294
-73.2627
-73.1971
-73.4498
-72.3553
-72.3331
-71.4137
-60.0964
-61.2496
-62.2916
-61.4692
-62.9538
-63.1374
-63.5834
-62.5296
-62.4686
-64.9767
-65.6649
-66.0247
-66.9411
-65.9738
-64.7051
-64.6941
-67.1207
-67.161
-68.1822
-69.6298
-70.2994
-70.0256
-68.4847
-66.9182
-65.9013
-68.702
-69.6997
-72.2161
-73.1636
-72.3571
-71.505
-72.725
-73.7743
-73.2161
-72.5939
-68.767
-69.8993
-70.7881
-74.911
-75.9559
-74.6417
-72.5363
-72.8235
-72.5753
-74.9271
-75.4795
-75.0092
-68.4182
-68.2852
-73.0597
-73.2182
-74.4352
-74.5714
-73.949
-73.3845
-73.2313
-73.2231
-73.2492
-73.6694
-74.4793
-74.6924
-73.2037
-70.8104
-70.0669
-74.1923
-74.969
-73.7051
-73.7955
-73.1661
-73.1748
-73.254
-73.5168
-73.7777
-73.5447
-73.3019
-73.2857
-73.2251
-73.4359
-72.2817
-72.4649
-71.3801
-58.9997
-60.1121
-60.6665
-60.2043
-61.2625
-62.4753
-62.5767
-61.9886
-61.1888
-62.9116
-63.1476
-63.7368
-64.8663
-63.3496
-62.6396
-62.168
-65.289
-65.9045
-66.1396
-67.1619
-67.8744
-66.9171
-65.6442
-64.5744
-64.3095
-67.9986
-67.9364
-68.4301
-69.5464
-70.0713
-70.2126
-70.4526
-70.3613
-68.7409
-66.9555
-65.9644
-69.6706
-70.7606
-73.0557
-73.1616
-72.1527
-71.3942
-71.2803
-71.717
-72.9424
-74.3289
-73.8685
-73.712
-70.0382
-70.5154
-71.511
-74.8727
-75.8087
-74.4062
-72.6038
-72.8878
-72.8259
-72.7846
-72.7659
-74.5617
-75.7405
-75.2479
-70.9271
-69.3079
-73.6035
-73.6869
-74.5889
-74.5537
-73.8833
-73.3616
-73.2516
-73.2415
-73.4252
-73.2139
-73.2889
-73.7606
-74.5673
-74.6314
-73.1541
-71.0324
-70.5413
-74.3862
-75.4741
-73.9231
-73.8351
-73.1899
-73.1556
-73.2377
-73.5094
-73.7732
-74.3405
-73.7814
-73.5618
-73.3124
-73.3081
-73.2483
-73.416
-72.2669
-72.5756
-71.3289
-58.3117
-59.1167
-59.1965
-58.8536
-60.1556
-60.758
-61.1181
-60.5614
-59.7674
-61.2109
-62.3125
-62.6461
-63.3374
-62.2841
-61.8417
-61.3025
-62.6841
-62.8179
-64.1425
-65.064
-65.432
-64.7325
-63.2625
-62.3675
-61.8593
-66.0694
-66.7056
-66.611
-67.0923
-67.8253
-68.5102
-68.0041
-67.0743
-65.6148
-64.6081
-64.0063
-69.0175
-69.1953
-69.0079
-69.567
-69.8416
-70.0762
-70.1813
-70.2894
-70.5296
-70.6644
-69.0866
-67.776
-66.202
-70.5541
-71.7137
-73.5607
-73.1837
-72.0251
-71.3341
-71.4054
-71.2812
-71.2062
-71.795
-73.297
-74.9046
-73.8017
-74.3043
-70.9168
-71.1186
-71.9735
-74.7951
-75.5331
-74.3355
-72.7135
-73.0307
-72.8228
-72.6356
-72.8534
-72.7916
-73.0432
-74.9158
-75.9426
-75.0182
-70.9415
-70.2392
-74.1691
-74.1439
-74.7621
-74.5728
-73.86
-73.3765
-73.2886
-73.2793
-73.4499
-73.6006
-73.4065
-73.1914
-73.3379
-73.8429
-74.6296
-74.5579
-73.1775
-71.3703
-70.9004
-74.5938
-75.8277
-74.1046
-73.8399
-73.2114
-73.1509
-73.2182
-73.4966
-73.7744
-74.3396
-74.5345
-74.3423
-73.7907
-73.5771
-73.3303
-73.3282
-73.265
-73.3998
-72.2751
-72.6346
-71.2752
-57.2813
-58.123
-58.3052
-58.1851
-59.15
-59.1861
-59.4539
-59.2618
-58.7646
-60.1063
-60.6842
-61.1874
-61.4021
-60.8475
-60.0303
-59.4984
-60.9177
-62.1083
-62.8942
-63.5233
-63.4727
-62.881
-62.163
-61.8414
-61.3972
-62.4177
-63.309
-64.4181
-65.2668
-66.0346
-66.2499
-65.5072
-64.434
-63.1037
-62.3692
-61.604
-67.1507
-67.4636
-67.5221
-67.1658
-68.0968
-68.323
-68.556
-68.6069
-67.7055
-67.1579
-65.5122
-64.6821
-64.1557
-70.4524
-70.5304
-70.1479
-69.5758
-69.8323
-70.0717
-70.1538
-70.1866
-70.1983
-70.3122
-70.7126
-70.8851
-68.9779
-67.7385
-66.2468
-71.2641
-72.4282
-73.8909
-73.335
-71.9469
-71.4477
-71.5482
-71.3455
-71.3204
-71.2044
-71.2212
-71.957
-73.6562
-74.9949
-73.6153
-73.9736
-70.7215
-71.855
-72.3357
-74.697
-75.2073
-74.3028
-72.8406
-73.1389
-72.8301
-72.6775
-72.7615
-72.6139
-72.8999
-72.8738
-73.3514
-75.1156
-75.7817
-74.7825
-70.4205
-70.3642
-74.724
-74.6547
-74.9843
-74.6
-73.8371
-73.4203
-73.3315
-73.3105
-73.4837
-73.6316
-73.8373
-73.5856
-73.3855
-73.187
-73.393
-73.9269
-74.6713
-74.4774
-73.1591
-71.6942
-71.1604
-74.8053
-75.9326
-74.2117
-73.902
-73.2451
-73.1648
-73.1972
-73.484
-73.7805
-74.3397
-74.5339
-74.513
-74.5345
-74.3459
-73.8042
-73.5904
-73.3481
-73.3451
-73.2774
-73.3904
-72.3148
-72.6317
-71.2265
-56.6037
-57.2712
-57.2904
-57.4048
-58.2074
-58.0004
-58.3065
-58.0322
-57.9793
-59.1158
-59.3373
-59.5616
-59.7005
-59.29
-59.0735
-58.7213
-60.0211
-60.9088
-61.4874
-61.8166
-61.1343
-61.042
-60.6056
-59.9161
-59.6422
-60.5564
-62.0743
-62.9609
-63.8462
-63.6227
-63.4373
-63.3213
-62.6362
-61.8255
-61.6586
-61.3103
-62.7146
-63.5198
-65.6772
-65.6717
-66.0788
-66.2937
-66.9134
-66.1754
-65.2652
-64.3911
-62.8451
-62.5258
-61.5961
-68.0663
-68.8072
-68.9493
-67.6218
-67.9296
-68.3729
-68.6667
-68.7831
-68.3261
-68.4518
-67.4538
-66.8146
-65.5753
-64.7099
-64.0468
-71.1039
-71.7999
-70.8394
-69.7112
-69.7932
-70.0349
-70.234
-70.2854
-70.1972
-70.169
-70.0835
-70.2802
-70.6911
-71.1103
-69.4714
-67.777
-65.6841
-71.5592
-72.7754
-74.0034
-73.5993
-72.1195
-71.6754
-71.6553
-71.4229
-71.4092
-71.5943
-71.2872
-71.1251
-71.3733
-72.4407
-73.8013
-74.7996
-73.745
-73.6179
-70.3123
-72.5227
-72.7299
-74.6581
-74.9354
-74.3538
-73.0543
-73.2441
-72.8559
-72.7274
-72.8086
-72.7475
-72.7323
-72.6239
-72.9686
-73.0478
-73.6177
-75.162
-75.5333
-74.6184
-70.4044
-70.4001
-75.3767
-75.1009
-75.2119
-74.6246
-73.8421
-73.4811
-73.3779
-73.3449
-73.5176
-73.6514
-73.8735
-73.8714
-73.8133
-73.6176
-73.3812
-73.1942
-73.454
-73.9987
-74.6982
-74.3921
-73.1668
-71.9605
-71.4235
-75.0691
-76.2054
-74.3084
-74.0225
-73.2795
-73.1807
-73.1768
-73.466
-73.787
-74.3375
-74.5385
-74.5309
-74.4096
-74.5159
-74.5399
-74.3427
-73.8147
-73.607
-73.3659
-73.3579
-73.2818
-73.3835
-72.3771
-72.5806
-71.191
-56.3212
-56.7197
-56.5104
-56.6749
-57.5251
-57.2279
-57.3563
-57.3218
-57.2883
-58.195
-58.1556
-58.4878
-58.551
-58.1628
-57.9248
-57.9643
-59.1328
-59.4126
-60.1587
-59.998
-59.4632
-59.5922
-59.2742
-59.0087
-58.7701
-59.9953
-60.8747
-61.5666
-62.003
-61.0122
-60.9322
-61.0144
-60.8164
-60.4201
-59.7629
-59.398
-60.1836
-61.9783
-63.4198
-63.8506
-63.7368
-63.6668
-64.1719
-63.2459
-62.8318
-62.3693
-62.0628
-61.4309
-61.2294
-63.0615
-63.6507
-65.5847
-65.9674
-66.2124
-66.9384
-66.9845
-66.8362
-66.284
-65.7187
-64.8646
-63.9648
-62.8204
-62.4996
-61.696
-68.827
-70.3555
-69.4979
-68.5575
-68.214
-68.474
-68.5953
-68.9035
-68.9004
-68.4024
-68.2733
-68.1984
-67.2602
-66.7887
-65.1873
-64.8259
-64.2266
-71.6901
-72.9071
-71.4697
-69.948
-69.8014
-70.0169
-70.3577
-70.3259
-70.2215
-70.4351
-70.2831
-70.2958
-70.0895
-70.3784
-70.5318
-71.3065
-70.0133
-67.772
-65.7353
-71.8299
-72.7786
-73.9004
-73.8383
-72.2815
-71.8325
-71.7924
-71.5361
-71.4673
-71.6452
-71.8272
-71.645
-71.2578
-71.0524
-71.4599
-72.6739
-73.813
-74.2833
-74.0718
-73.3562
-69.7935
-73.1368
-73.2437
-74.6462
-74.8072
-74.3786
-73.2648
-73.3391
-72.8935
-72.7912
-72.8703
-72.8506
-72.72
-72.6605
-72.7089
-72.6768
-73.0793
-73.2554
-73.8257
-75.0983
-75.5828
-74.4241
-70.7599
-70.5369
-76.0774
-75.7227
-75.4765
-74.69
-73.911
-73.5596
-73.4224
-73.3792
-73.5556
-73.6832
-73.9224
-73.9512
-73.8391
-73.7952
-73.7944
-73.6629
-73.4092
-73.209
-73.5025
-74.0462
-74.6972
-74.3293
-73.1721
-72.1511
-71.7159
-75.4271
-76.4901
-74.4025
-74.1013
-73.3116
-73.187
-73.1532
-73.4531
-73.7957
-74.3341
-74.5415
-74.5469
-74.4527
-74.1303
-74.3674
-74.5291
-74.5562
-74.3425
-73.8223
-73.6231
-73.3788
-73.3631
-73.2882
-73.3745
-72.4436
-72.5031
-71.1729
-55.8368
-56.2971
-56.2766
-56.3674
-56.7948
-56.9642
-56.7296
-56.625
-56.7181
-57.5796
-57.5525
-57.2894
-57.6214
-57.3457
-57.2299
-57.3137
-58.1793
-58.4145
-58.4424
-58.5076
-58.5384
-58.4382
-58.1319
-57.926
-57.9699
-59.1537
-59.5187
-59.7555
-60.0481
-59.8597
-59.6105
-59.5249
-59.3614
-59.0966
-58.7481
-58.8388
-60.0413
-60.9033
-61.113
-62.213
-61.6156
-61.2148
-61.403
-61.0174
-61.0372
-60.5847
-60.0501
-59.702
-59.3652
-60.3393
-62.0546
-62.865
-63.7906
-63.9892
-63.9012
-63.933
-64.3193
-63.8817
-63.2701
-62.6602
-62.1959
-61.9254
-61.3811
-61.1627
-64.1592
-64.3009
-65.3499
-66.3759
-66.4987
-67.0559
-67.2898
-67.4501
-67.1079
-66.4089
-65.7807
-65.0383
-64.4932
-63.816
-62.9241
-62.6406
-61.6626
-69.0465
-71.8363
-70.503
-69.3947
-68.5889
-68.6231
-68.6306
-69.0494
-69.0003
-69.0041
-68.6878
-68.2146
-68.1055
-67.6707
-67.1291
-66.8392
-65.4715
-64.8633
-64.2358
-71.877
-73.779
-72.1919
-70.2878
-69.9139
-69.984
-70.45
-70.3993
-70.3009
-70.5516
-70.514
-70.5206
-70.4748
-70.381
-70.1551
-70.5157
-70.3684
-71.0229
-69.9125
-67.5317
-65.8932
-71.821
-72.5673
-73.8062
-73.9778
-72.4503
-72.0767
-71.9339
-71.6239
-71.592
-71.7251
-71.8011
-72.0065
-71.8849
-71.6208
-71.2219
-71.0176
-71.6573
-72.9989
-73.6541
-73.6643
-74.072
-72.9455
-69.3983
-73.9715
-73.8778
-74.7851
-74.795
-74.3081
-73.4671
-73.4361
-72.9488
-72.8544
-72.9394
-72.9631
-72.8311
-72.8389
-72.6508
-72.5853
-72.6971
-72.7622
-73.2351
-73.5165
-73.9647
-74.9198
-75.604
-74.1184
-71.0483
-70.991
-76.7034
-76.1765
-75.7555
-74.8028
-73.9898
-73.633
-73.4617
-73.4209
-73.5964
-73.7459
-73.9832
-74.0381
-73.9418
-74.0545
-73.7558
-73.7348
-73.7951
-73.6995
-73.4656
-73.2251
-73.5502
-74.0991
-74.6833
-74.2879
-73.1162
-72.2278
-71.9927
-75.615
-76.4603
-74.4669
-74.1504
-73.3397
-73.1819
-73.1402
-73.4548
-73.8048
-74.3348
-74.5414
-74.5677
-74.4983
-74.1848
-73.9103
-74.0748
-74.3328
-74.5275
-74.5698
-74.3489
-73.8273
-73.6302
-73.3826
-73.3662
-73.2892
-73.3592
-72.5001
-72.4185
-71.1649
-55.6705
-55.9133
-55.9004
-55.8936
-56.3748
-56.3083
-56.2531
-56.2615
-56.2762
-56.8298
-56.9187
-56.748
-56.8643
-56.6902
-56.5581
-56.8006
-57.5798
-57.6096
-57.1267
-57.5313
-57.683
-57.5287
-57.3057
-57.4336
-57.3104
-58.206
-58.4076
-58.5652
-58.5927
-58.5432
-58.5348
-58.4416
-58.1925
-57.9963
-57.8542
-58.0528
-59.1949
-59.6672
-59.8789
-60.4183
-60.0314
-59.6856
-59.9921
-59.6164
-59.5377
-59.3448
-58.9318
-58.8772
-58.8059
-60.1646
-61.187
-61.6588
-61.7466
-61.6848
-61.4289
-61.4141
-62.2547
-61.3612
-61.039
-60.8037
-60.3319
-60.0086
-59.7127
-59.4815
-60.9929
-62.0096
-63.1564
-64.2469
-64.2313
-63.9993
-64.1152
-64.2136
-64.3074
-64.3438
-63.6249
-62.9391
-62.4756
-62.0602
-61.7779
-61.2891
-61.0935
-64.3849
-65.1546
-65.5076
-66.8456
-66.7598
-67.3375
-67.6199
-67.7978
-67.4623
-66.7549
-66.3759
-65.9499
-65.2718
-64.8423
-64.446
-63.9417
-63.0734
-62.6715
-61.8996
-68.6142
-73.2706
-71.8252
-70.1256
-68.9281
-68.8706
-68.9015
-68.9218
-69.2792
-69.1649
-69.1416
-68.7329
-68.2806
-67.955
-67.9806
-67.5229
-66.9183
-66.9396
-65.7882
-64.8937
-64.0121
-71.6911
-74.1064
-72.6371
-70.3921
-70.0664
-70.0894
-70.5567
-70.4975
-70.4263
-70.667
-70.6734
-70.552
-70.4384
-70.5301
-70.4659
-70.407
-70.0642
-70.3528
-70.2344
-70.7077
-69.5055
-67.4226
-66.3775
-71.813
-72.2904
-73.7433
-73.9578
-72.651
-72.3328
-72.0994
-71.7209
-71.7512
-71.8069
-71.8791
-72.094
-72.3943
-71.8621
-71.9035
-71.6086
-71.1678
-71.1205
-71.8732
-73.2765
-73.4268
-73.335
-73.8388
-72.199
-69.3577
-74.938
-74.5
-75.0565
-74.7653
-74.2124
-73.7151
-73.5358
-73.0263
-72.9226
-73.0189
-73.0853
-72.9593
-73.0251
-73.2993
-72.6872
-72.5884
-72.5183
-72.7247
-72.8677
-73.3715
-73.7586
-74.0666
-74.7447
-75.4195
-73.8179
-71.106
-71.4322
-77.3346
-76.4705
-76.078
-74.957
-74.0659
-73.7053
-73.5009
-73.4718
-73.6337
-73.8058
-74.0598
-74.1277
-74.0681
-74.1939
-74.1687
-73.9063
-73.6665
-73.6816
-73.7991
-73.7562
-73.5409
-73.2596
-73.5809
-74.1317
-74.6393
-74.2522
-73.0092
-72.2208
-72.1584
-75.5994
-76.3609
-74.6131
-74.2007
-73.3659
-73.1783
-73.1443
-73.4606
-73.8132
-74.3385
-74.5427
-74.5926
-74.5457
-74.2314
-73.9528
-73.7043
-73.875
-74.0154
-74.306
-74.5345
-74.5832
-74.3518
-73.8294
-73.6372
-73.3853
-73.3679
-73.2844
-73.3375
-72.5362
-72.3349
-71.1503
-55.383
-55.6379
-55.6673
-55.6482
-55.9214
-55.9682
-55.8958
-55.9493
-55.8633
-56.3394
-56.2901
-56.226
-56.3686
-56.2044
-56.0781
-56.3779
-56.7943
-56.8669
-56.7016
-56.8106
-56.962
-56.9003
-56.8917
-56.7726
-56.8455
-57.5621
-57.4498
-57.6828
-57.4645
-57.5794
-57.7044
-57.5625
-57.4809
-57.3137
-57.309
-57.3229
-58.2063
-58.3433
-58.7477
-58.4552
-58.4526
-58.5078
-58.8108
-58.7039
-58.3863
-58.371
-58.0175
-58.1766
-58.035
-59.358
-59.6362
-59.9626
-60.4008
-59.9786
-59.7306
-59.9094
-60.8315
-60.0434
-59.6051
-59.2724
-59.1419
-58.9724
-58.8163
-58.9041
-60.0997
-61.1094
-61.7885
-61.8451
-61.8492
-61.541
-61.5919
-61.6869
-62.4008
-62.0463
-61.2526
-60.743
-60.6211
-60.208
-59.9596
-59.7348
-59.506
-61.539
-61.872
-63.3189
-64.3819
-64.4207
-64.1165
-64.9699
-64.5159
-64.3953
-63.8877
-63.8413
-63.8287
-63.3476
-62.803
-62.3422
-61.9081
-61.6949
-61.3606
-61.0963
-64.6315
-65.9645
-66.7081
-67.4772
-67.2227
-67.5643
-67.9553
-67.9383
-67.5667
-67.0228
-66.8345
-66.4319
-65.9348
-65.6611
-65.2144
-64.7534
-64.3813
-63.7892
-63.1874
-62.7358
-61.9548
-68.3788
-73.5723
-72.7908
-70.9895
-69.2652
-68.8558
-69.2809
-68.9593
-69.5254
-69.3717
-69.5726
-69.3213
-68.9229
-68.5617
-68.0124
-67.8094
-68.0987
-67.4765
-66.9266
-66.7442
-65.6339
-64.7535
-64.3084
-71.1352
-72.9087
-72.8134
-70.3504
-70.1973
-70.3604
-70.5312
-70.732
-70.5423
-70.8405
-70.9351
-70.8542
-70.832
-70.2787
-70.3835
-70.5727
-70.3819
-70.3528
-70.2501
-70.1986
-70.0501
-70.3486
-69.2148
-67.4629
-66.5581
-71.9216
-72.0266
-73.5476
-73.936
-72.8068
-72.553
-72.2605
-71.8369
-71.9174
-71.919
-71.9438
-72.3449
-72.6798
-73.0095
-72.1263
-71.7861
-71.9313
-71.5862
-71.1408
-71.2202
-71.9703
-73.4703
-73.1885
-73.0811
-73.4506
-71.4331
-69.3329
-76.118
-75.4975
-75.427
-74.9037
-74.2433
-73.944
-73.6251
-73.1149
-72.9947
-73.1141
-73.2179
-73.1625
-73.2506
-73.529
-73.7415
-73.0688
-72.5429
-72.5221
-72.5207
-72.7708
-73.032
-73.5164
-73.9719
-74.1711
-74.5816
-75.1099
-73.5644
-71.1269
-71.6963
-77.9752
-76.8687
-76.4074
-75.1485
-74.1472
-73.7659
-73.5402
-73.5235
-73.6724
-73.847
-74.1232
-74.2142
-74.1751
-74.3258
-74.3181
-74.034
-74.0377
-73.7456
-73.5799
-73.6399
-73.8135
-73.818
-73.616
-73.3111
-73.6045
-74.1189
-74.579
-74.2125
-72.9105
-72.197
-72.2635
-75.7051
-76.1214
-74.9117
-74.236
-73.3934
-73.1773
-73.1532
-73.4688
-73.8232
-74.3415
-74.5474
-74.6234
-74.5961
-74.2663
-73.9945
-73.7368
-73.6842
-73.657
-73.8322
-73.9594
-74.2843
-74.5426
-74.5961
-74.3572
-73.8331
-73.6508
-73.4004
-73.3635
-73.2745
-73.3129
-72.5458
-72.2579
-71.1179
-55.1654
-55.3687
-55.3109
-55.4381
-55.6042
-55.6524
-55.7867
-55.6122
-55.6796
-55.8733
-55.9586
-55.9854
-55.9829
-55.9298
-55.8792
-55.8188
-56.3133
-56.3189
-56.2586
-56.4567
-56.4425
-56.4454
-56.2772
-56.3836
-56.3308
-56.8267
-56.7928
-56.8499
-56.7533
-56.9487
-56.9823
-56.9859
-56.8763
-56.8671
-57.0758
-56.8846
-57.5708
-57.5363
-57.6822
-57.5512
-57.424
-57.6583
-57.7837
-57.6776
-57.6002
-57.5526
-57.3458
-57.3102
-57.4157
-58.2555
-58.5969
-58.7046
-58.9495
-58.5031
-58.4116
-58.6666
-59.0431
-58.6908
-58.7193
-58.2881
-58.2704
-58.1558
-58.0434
-58.1091
-59.139
-59.6386
-59.9772
-60.2119
-60.0307
-59.6443
-59.7992
-60.9627
-61.0015
-60.3615
-60.0355
-59.521
-59.4331
-58.9691
-58.8996
-58.8779
-58.9302
-59.8252
-60.7019
-61.5295
-62.3212
-61.8828
-61.8286
-61.8503
-61.9473
-62.517
-63.0312
-62.0797
-61.6233
-61.3612
-60.9207
-60.5275
-60.1538
-59.8997
-59.9027
-59.6426
-61.6187
-61.7277
-63.0331
-63.6994
-64.4868
-64.443
-65.3928
-65.1233
-64.7148
-64.1829
-63.7409
-64.6848
-64.0401
-63.5018
-63.0969
-62.7205
-62.3554
-61.8125
-61.5802
-61.3827
-60.9739
-64.4807
-66.3952
-68.2166
-68.4279
-67.9494
-67.8756
-68.1482
-68.0046
-67.9332
-67.7901
-67.2948
-66.7442
-66.4765
-66.1792
-66.0215
-65.388
-65.0543
-64.812
-64.4055
-63.5839
-63.2436
-62.6841
-62.0907
-67.9772
-73.0234
-73.6484
-71.887
-69.7769
-69.1282
-69.3211
-69.4084
-69.628
-69.7586
-69.7274
-69.9181
-69.5148
-68.9731
-68.6936
-68.2476
-67.97
-67.885
-67.7162
-67.5884
-67.1635
-66.4897
-65.6905
-64.7022
-64.2774
-70.558
-71.9444
-72.6091
-70.5424
-70.3364
-70.4593
-70.68
-70.568
-70.8179
-70.9701
-71.1859
-71.1954
-71.1654
-71.3826
-70.6204
-70.1419
-70.3065
-70.6008
-70.3708
-70.3597
-70.2468
-70.2091
-70.3663
-70.0083
-68.8468
-67.6444
-66.8536
-72.181
-71.7889
-73.1784
-74.0062
-73.0119
-72.759
-72.4056
-71.9912
-72.0701
-72.0655
-72.1511
-72.4794
-73.0003
-73.4501
-73.6791
-72.6028
-71.905
-71.7702
-71.912
-71.5605
-71.0628
-71.0001
-72.1584
-73.4858
-72.8039
-72.7333
-72.8733
-70.8687
-69.4617
-77.2956
-76.5442
-75.9538
-75.1494
-74.351
-74.1058
-73.7236
-73.2153
-73.0834
-73.2161
-73.3515
-73.4195
-73.6579
-73.8498
-74.1041
-73.8911
-73.4609
-72.8576
-72.4587
-72.4595
-72.5519
-72.8537
-73.1777
-73.6995
-73.9177
-74.2172
-74.3218
-74.9913
-73.3941
-71.3142
-72.018
-78.6238
-77.2925
-76.7565
-75.3792
-74.2382
-73.7931
-73.579
-73.5762
-73.7166
-73.9028
-74.1875
-74.3055
-74.2892
-74.4247
-74.4804
-74.2052
-73.8029
-73.8621
-73.8901
-73.5926
-73.5119
-73.6089
-73.8375
-73.8819
-73.6932
-73.3681
-73.6351
-74.1063
-74.5233
-74.1745
-72.8252
-72.1732
-72.4241
-75.8962
-75.9202
-75.2445
-74.2475
-73.4241
-73.1769
-73.162
-73.479
-73.8345
-74.3335
-74.5595
-74.6659
-74.6517
-74.3122
-74.037
-73.7709
-73.7168
-73.6757
-73.6461
-73.6148
-73.7878
-73.9086
-74.2685
-74.548
-74.6051
-74.361
-73.8425
-73.6665
-73.417
-73.3564
-73.2613
-73.2874
-72.5124
-72.17
-71.0741
-55.026
-55.1769
-55.1895
-55.1683
-55.3708
-55.3312
-55.471
-55.4076
-55.4039
-55.6171
-55.6633
-55.775
-55.6999
-55.7894
-55.7045
-55.6886
-55.893
-55.9236
-55.9621
-55.9214
-56.0264
-55.983
-55.8168
-55.9288
-56.0736
-56.3001
-56.2739
-56.3571
-56.2241
-56.4408
-56.4745
-56.4655
-56.4039
-56.3982
-56.4428
-56.4277
-56.8321
-56.8744
-56.8316
-56.8443
-56.8308
-57.0098
-57.0798
-56.8841
-57.0105
-56.8568
-56.8464
-56.6535
-56.8538
-57.6841
-57.6611
-57.6004
-57.673
-57.5255
-57.5844
-57.6742
-58.0111
-57.7387
-57.719
-57.5693
-57.5925
-57.4142
-57.5368
-57.4417
-58.3454
-58.6419
-58.6765
-58.8382
-58.6214
-58.3646
-58.399
-59.6148
-59.6305
-58.9837
-59.0038
-58.6085
-58.407
-58.1855
-58.0234
-58.1182
-58.1463
-59.3815
-59.502
-59.95
-59.9753
-59.9306
-59.9444
-59.7762
-60.3223
-61.2563
-61.4732
-60.9375
-60.4269
-59.9758
-59.6233
-59.4163
-59.0368
-58.9534
-58.9955
-58.9757
-60.2004
-60.7239
-61.2511
-62.1871
-61.9166
-61.7078
-62.1721
-62.6229
-62.6764
-62.513
-62.399
-62.717
-61.8985
-61.4538
-60.9986
-61.0499
-60.3521
-60.1962
-59.9667
-59.9555
-59.6599
-62.0104
-61.6536
-63.5044
-63.9169
-64.9549
-65.2027
-65.5117
-64.9848
-64.9538
-64.8439
-64.4588
-64.1629
-64.3025
-64.1786
-63.8358
-63.5547
-62.7627
-62.6566
-62.232
-61.8135
-61.5555
-61.3482
-60.9802
-64.9205
-67.4652
-68.3029
-69.5091
-68.314
-68.1048
-68.4409
-68.1945
-68.3832
-68.1148
-67.7045
-67.5343
-67.0086
-66.4845
-66.3359
-65.9126
-65.5054
-65.4074
-65.0445
-64.541
-64.3049
-63.642
-63.193
-62.8405
-62.3411
-67.5521
-72.0711
-73.8896
-72.673
-70.3386
-69.5147
-69.0868
-69.7392
-69.6191
-69.897
-70.2411
-70.0719
-70.1271
-69.9682
-69.0805
-68.705
-68.4468
-68.1809
-67.8212
-67.571
-67.4164
-67.1143
-67.005
-66.4234
-65.6353
-64.7267
-64.2661
-70.1325
-71.108
-71.9486
-70.3764
-70.2172
-70.5129
-70.8038
-70.7824
-71.0269
-71.0971
-71.3438
-71.3119
-71.4301
-71.7435
-71.7581
-71.0353
-70.4641
-70.059
-70.2594
-70.4151
-70.4145
-70.3017
-70.0236
-70.1805
-70.1333
-69.7545
-68.4618
-68.0038
-67.1569
-72.5967
-71.8256
-72.9989
-74.0599
-73.2586
-72.9175
-72.5906
-72.1424
-72.2283
-72.2362
-72.3815
-72.63
-73.2612
-73.8033
-74.177
-74.1903
-73.1336
-72.225
-71.7154
-71.6752
-71.9095
-71.5391
-70.9889
-71.0889
-72.3504
-73.3918
-72.5015
-72.5416
-72.5336
-70.9416
-70.0752
-78.5088
-77.3254
-76.5722
-75.4773
-74.4934
-74.2142
-73.8409
-73.3117
-73.182
-73.3309
-73.502
-73.6515
-74.0452
-74.302
-74.5372
-74.3762
-74.1058
-73.4726
-73.1765
-72.7056
-72.4019
-72.4021
-72.5561
-72.9422
-73.2804
-73.77
-74.0028
-73.9806
-74.0892
-74.9748
-73.207
-71.6838
-72.615
-79.3574
-77.7901
-77.1432
-75.6447
-74.3388
-73.8149
-73.6169
-73.6282
-73.7632
-73.966
-74.2733
-74.4365
-74.4302
-74.5451
-74.6382
-74.3765
-73.9556
-73.8772
-73.6539
-73.6975
-73.7421
-73.4527
-73.455
-73.5893
-73.8669
-73.9546
-73.7654
-73.4367
-73.6814
-74.1016
-74.4648
-74.1302
-72.7277
-72.1361
-72.5899
-75.7728
-75.7376
-75.2737
-74.2686
-73.4685
-73.1765
-73.1704
-73.4896
-73.8455
-74.3236
-74.5759
-74.712
-74.708
-74.3556
-74.0818
-73.8044
-73.7488
-73.7118
-73.7294
-73.6387
-73.6084
-73.5786
-73.7433
-73.8675
-74.2559
-74.5544
-74.6123
-74.3652
-73.8605
-73.6804
-73.4276
-73.3483
-73.2448
-73.2519
-72.4684
-72.0618
-71.0305
-54.824
-55.0128
-55.0718
-55.0651
-55.1742
-55.2373
-55.2423
-55.1737
-55.2207
-55.3742
-55.3722
-55.4425
-55.3944
-55.4558
-55.4311
-55.4152
-55.622
-55.6772
-55.7134
-55.5323
-55.7375
-55.7049
-55.7382
-55.6584
-55.7071
-55.8601
-55.9001
-55.9051
-55.8794
-55.9678
-56.0345
-56.0637
-56.0186
-55.9858
-56.0053
-56.0316
-56.2843
-56.3054
-56.2514
-56.1996
-56.3909
-56.4911
-56.5211
-56.4931
-56.4874
-56.4757
-56.4188
-56.456
-56.4356
-56.8274
-56.8607
-56.8079
-56.8521
-56.8624
-56.9822
-57.0026
-57.1357
-57.0151
-57.0969
-57.0143
-57.0206
-56.8163
-56.8914
-56.8731
-57.6991
-57.6639
-57.7208
-57.6901
-57.6279
-57.5951
-57.622
-58.1146
-58.2886
-57.8463
-57.8078
-57.5984
-57.5911
-57.5024
-57.4351
-57.4621
-57.5047
-58.4559
-58.6413
-58.7538
-58.6852
-58.5356
-58.3428
-58.6289
-59.3019
-59.7087
-59.6312
-59.465
-59.1279
-58.9208
-58.5118
-58.3065
-58.1711
-58.0749
-58.196
-58.1972
-59.664
-59.3696
-60.0269
-60.3791
-59.7388
-59.9436
-59.7505
-60.3755
-61.2857
-61.6943
-61.021
-60.2802
-60.4598
-60.3728
-59.8745
-59.7004
-59.3205
-59.0504
-59.0368
-59.042
-58.8893
-60.2589
-61.1159
-61.0814
-61.7711
-61.9838
-61.5184
-62.2763
-62.938
-62.9265
-62.7843
-62.4662
-62.3373
-62.444
-62.185
-61.7073
-61.4617
-61.0807
-60.8554
-60.4992
-60.2155
-60.0892
-59.9696
-59.6281
-62.1275
-61.8813
-64.0075
-64.314
-65.0994
-65.8829
-65.606
-65.3226
-65.3248
-64.94
-65.1263
-64.3038
-64.5087
-64.4623
-63.6987
-63.8382
-63.3708
-63.2253
-62.885
-62.4606
-62.0992
-61.7569
-61.4736
-61.3225
-60.8924
-65.2582
-67.84
-68.8061
-69.806
-68.9511
-68.4244
-68.6963
-68.8434
-68.5084
-68.2246
-68.0837
-67.6348
-67.6139
-67.4565
-66.5228
-66.5238
-66.1247
-65.811
-65.4008
-65.1588
-64.8764
-64.649
-64.0659
-63.7515
-63.2637
-62.8235
-62.3921
-67.2244
-70.9936
-73.1007
-72.3728
-70.7132
-69.5438
-69.5348
-69.3706
-69.6615
-70.0269
-70.5926
-70.368
-70.4256
-70.4034
-70.0151
-69.4402
-68.87
-68.6697
-68.2612
-68.1231
-67.5641
-67.3938
-67.2484
-66.807
-66.7758
-66.3875
-65.5424
-64.3991
-64.2872
-70.0094
-70.1207
-71.4821
-70.0358
-70.2275
-70.7244
-70.9502
-71.0584
-71.1917
-71.3594
-71.6676
-71.5998
-71.7798
-72.0011
-72.1608
-72.3213
-71.335
-70.7708
-70.2647
-70.1617
-70.3029
-70.2772
-70.25
-70.1719
-69.8357
-69.9508
-69.6409
-69.6982
-68.1549
-68.4792
-67.3928
-73.9134
-72.2783
-72.9527
-74.0353
-73.504
-73.0511
-72.7686
-72.3078
-72.3974
-72.4219
-72.4939
-72.8041
-73.4104
-74.084
-74.5732
-74.7487
-74.6828
-73.5881
-72.6632
-71.8828
-71.4877
-71.4559
-71.7388
-71.3076
-70.8972
-71.3958
-72.5185
-73.1869
-72.3242
-72.6428
-72.4599
-71.9278
-70.74
-79.7903
-78.6353
-77.2859
-75.9066
-74.6854
-74.3123
-73.9392
-73.4002
-73.2886
-73.458
-73.6578
-73.9239
-74.2474
-74.7957
-74.9226
-74.8079
-74.5117
-74.0913
-73.7039
-73.1266
-72.957
-72.5378
-72.3358
-72.353
-72.5616
-72.9991
-73.3953
-73.8907
-74.0659
-74.0168
-74.0289
-74.9847
-73.1308
-72.2661
-73.2655
-80.1664
-78.3856
-77.6029
-75.9457
-74.4511
-73.8348
-73.6496
-73.6791
-73.8131
-74.0337
-74.3513
-74.5752
-74.5831
-74.6994
-74.8153
-74.5599
-74.1151
-73.9986
-73.6724
-73.7405
-73.5096
-73.5305
-73.6018
-73.3321
-73.4077
-73.5766
-73.9053
-74.0434
-73.8199
-73.4688
-73.7288
-74.0944
-74.4189
-74.0903
-72.6283
-72.0662
-72.7285
-75.4527
-75.4554
-75.0714
-74.2647
-73.4913
-73.1746
-73.186
-73.4975
-73.8564
-74.3291
-74.5959
-74.7589
-74.7586
-74.4007
-74.1377
-73.8322
-73.7808
-73.7492
-73.7631
-73.4178
-73.6963
-73.6024
-73.5776
-73.5383
-73.7
-73.8311
-74.2531
-74.5593
-74.6161
-74.3717
-73.878
-73.6906
-73.4419
-73.3388
-73.2253
-73.1991
-72.439
-71.9556
-71.0003
-54.7031
-54.8026
-54.9415
-54.8687
-54.9888
-54.922
-55.1389
-55.0809
-55.0982
-55.15
-55.1634
-55.1862
-55.1945
-55.1923
-55.1965
-55.2169
-55.3597
-55.3464
-55.3873
-55.3502
-55.4775
-55.3281
-55.3557
-55.4176
-55.3985
-55.6455
-55.649
-55.628
-55.7369
-55.7009
-55.6844
-55.735
-55.661
-55.7585
-55.7406
-55.8685
-55.9241
-55.8786
-55.872
-55.8854
-56.0299
-55.9699
-56.0032
-56.0649
-56.0767
-56.041
-56.0065
-56.0486
-56.0309
-56.334
-56.3379
-56.3007
-56.1851
-56.3311
-56.4507
-56.4667
-56.4577
-56.5171
-56.5431
-56.5066
-56.5244
-56.5115
-56.5184
-56.4361
-56.8267
-56.8897
-56.9225
-56.724
-56.7743
-56.9248
-56.9189
-57.1031
-57.1282
-57.1199
-57.085
-57.0769
-56.9242
-57.0064
-56.8727
-56.7934
-56.9805
-57.5361
-57.5403
-57.8126
-57.6871
-57.4615
-57.5332
-57.6844
-58.0036
-58.1567
-58.1443
-58.0866
-57.8553
-57.9036
-57.6422
-57.5673
-57.4656
-57.4994
-57.5816
-57.5271
-58.4763
-58.617
-58.5944
-58.7906
-58.562
-58.5476
-58.6342
-59.2069
-59.8764
-59.7432
-59.3249
-59.4247
-59.3102
-59.5152
-58.7792
-58.6133
-58.4216
-58.1857
-58.1794
-58.289
-58.1752
-59.6742
-59.3374
-59.927
-60.0123
-59.9467
-59.6538
-60.0356
-60.7732
-61.2545
-61.2288
-61.1552
-60.4765
-60.3423
-60.4349
-60.4309
-60.2223
-59.8508
-59.6442
-59.22
-59.1472
-59.1034
-58.9531
-58.8268
-60.2718
-61.5933
-60.9881
-61.2615
-62.1355
-62.246
-62.1435
-62.7404
-63.175
-63.3129
-62.9448
-62.4212
-62.4849
-62.0184
-62.0424
-62.2027
-61.6532
-61.3555
-61.1773
-61.0111
-60.5396
-60.1896
-59.9624
-59.9396
-59.5968
-62.1288
-62.6862
-64.1177
-64.5919
-64.6496
-65.8295
-65.7565
-65.55
-65.64
-65.2886
-65.192
-65.1276
-64.4012
-64.6902
-64.0405
-64.0448
-63.3533
-63.4451
-63.3444
-63.0844
-62.7486
-62.4166
-62.0124
-61.6967
-61.3965
-61.2542
-60.841
-64.6122
-66.5695
-68.6567
-69.9662
-69.5794
-68.8213
-68.9868
-69.4387
-68.7054
-68.8358
-68.7729
-67.9806
-68.1132
-67.9956
-67.8612
-66.9489
-66.3248
-66.211
-65.7449
-65.5436
-65.4801
-65.1553
-64.8352
-64.6175
-64.1008
-63.6392
-63.1018
-62.6131
-62.508
-67.1861
-69.0794
-71.998
-71.7939
-70.6115
-69.4638
-69.8024
-69.8583
-69.7583
-70.2243
-70.7496
-70.5898
-70.7261
-70.7731
-70.4968
-70.4391
-69.5315
-68.982
-68.6314
-68.3309
-67.9977
-67.8553
-67.3127
-67.2605
-67.1565
-67.1181
-66.9831
-66.2712
-65.5748
-64.3487
-64.3161
-69.6091
-70.2643
-71.0142
-69.6852
-70.2997
-70.9989
-71.2362
-71.1053
-71.3926
-71.5676
-71.8368
-71.8601
-72.0626
-72.3168
-72.5206
-72.8726
-72.7293
-71.7601
-70.9153
-70.4689
-70.1363
-70.0685
-70.1643
-70.186
-70.0799
-69.8798
-69.7498
-70.0182
-69.4796
-69.7523
-68.4148
-68.7511
-67.3999
-75.1605
-72.7983
-72.9137
-74.204
-73.6865
-73.1319
-72.9352
-72.4674
-72.5697
-72.6326
-72.692
-73.0208
-73.8394
-74.4589
-74.9794
-75.2042
-75.1818
-74.8075
-74.0493
-73.044
-72.1779
-71.5714
-71.2697
-71.3349
-71.4145
-71.1706
-71.0317
-71.4482
-72.5931
-72.9692
-72.3807
-72.8697
-72.6079
-72.9876
-71.1022
-81.3907
-80.0798
-78.0967
-76.5444
-74.9522
-74.4143
-74.0172
-73.5001
-73.4025
-73.5896
-73.8242
-74.1894
-74.588
-75.2199
-75.2495
-75.0708
-74.8606
-74.3577
-73.9615
-73.7823
-73.351
-72.8547
-72.7861
-72.3869
-72.2673
-72.314
-72.5643
-73.0498
-73.5106
-74.0117
-74.0738
-74.0193
-74.0166
-74.9929
-73.2074
-73.0457
-73.9205
-80.9562
-79.1151
-78.1697
-76.2839
-74.5981
-73.8593
-73.6672
-73.7267
-73.8672
-74.1062
-74.4383
-74.7003
-74.7153
-74.8208
-75.0098
-74.7634
-74.2777
-74.1118
-73.7779
-73.462
-73.5785
-73.5927
-73.3856
-73.35
-73.4593
-73.2255
-73.3696
-73.5735
-73.9548
-74.1387
-73.888
-73.5178
-73.7631
-74.0862
-74.399
-74.0399
-72.527
-71.9816
-72.8295
-75.3137
-75.3346
-74.8615
-74.1959
-73.474
-73.1793
-73.1956
-73.4995
-73.8666
-74.3423
-74.6275
-74.8097
-74.8029
-74.4489
-74.1907
-73.8689
-73.8117
-73.7866
-73.7973
-73.4467
-73.3315
-73.3907
-73.6605
-73.5668
-73.5521