/*--------------------------------*- C++ -*----------------------------------*\
  =========                 |
  \\      /  F ield         | OpenFOAM: The Open Source CFD Toolbox
   \\    /   O peration     | Website:  https://openfoam.org
    \\  /    A nd           | Version:  7
     \\/     M anipulation  |
\*---------------------------------------------------------------------------*/
FoamFile
{
    version     2.0;
    format      ascii;
    class       surfaceScalarField;
    location    "4.5";
    object      phi;
}
// * * * * * * * * * * * * * * * * * * * * * * * * * * * * * * * * * * * * * //

dimensions      [0 3 -1 0 0 0 0];

internalField   nonuniform List<scalar> 
54095
(
0.00021947
-6.26006e-05
0.00133795
0.000546819
-9.009e-05
0.000874232
0.000306468
-4.23978e-05
-0.000907469
0.000219506
-5.60341e-05
0.00117447
0.000767865
3.76279e-05
-0.00284999
0.000434518
-1.20873e-05
0.00145788
0.000564287
-0.000100168
0.000629618
-3.48059e-05
-2.411e-05
0.000802914
0.000273652
-3.49659e-05
-0.00120219
0.000222783
-5.15333e-05
0.00100322
3.52349e-07
0.000425979
-0.00955192
0.000903849
0.000166857
-0.00376346
0.00066555
0.000132298
-0.00308355
-4.31287e-05
2.33749e-05
0.000426483
0.000366348
1.0068e-05
0.00125494
0.000508773
-0.000110617
0.000454245
-5.92324e-05
-2.74945e-05
0.000507992
-2.70136e-05
-2.32664e-05
0.000818228
0.000256214
-3.35843e-05
-0.00147635
0.000230062
-4.76428e-05
0.000820806
-0.000543544
0.000396113
-0.00799922
0.00144376
0.000332801
-0.00464278
-0.000316138
0.000470349
-0.00904058
0.000138343
2.24736e-05
-0.000880682
0.000993318
0.00031629
0.00215557
0.000519651
0.000181426
-0.00327585
-5.74577e-05
-1.10894e-05
0.000155504
-3.13861e-05
4.59539e-05
0.000394969
0.000596264
3.00651e-05
0.000774212
0.000428512
-0.000117909
0.000373705
-4.8036e-06
-7.23294e-05
4.69984e-05
-5.52108e-05
-2.79673e-05
0.000567904
-9.85425e-06
-2.32972e-05
0.000817796
0.000230164
-3.4704e-05
-0.00171946
0.000240112
-4.45853e-05
0.000625279
-0.000781968
0.000347939
-0.00569576
0.000760411
0.00159476
-0.00748782
-0.000642397
0.000466527
-0.00813949
0.000757543
-6.49599e-05
-0.00329606
0.00160386
0.000575145
-0.00535812
-0.000330713
0.000578787
-0.00876901
-5.62631e-05
-0.000281873
-0.000149083
0.000263411
0.000107135
-0.000966324
0.00115845
0.000232608
0.00154221
0.000501671
0.000185566
-0.00353458
1.90276e-05
-1.49134e-06
0.000241228
-6.09858e-05
-1.58099e-05
0.000223043
-2.74852e-05
6.39798e-05
0.000378686
0.000663847
3.55271e-05
0.000187094
0.000340361
-0.000129449
0.000402904
-2.02302e-05
-0.00012265
-0.000274964
-6.55373e-07
-7.19069e-05
9.15934e-05
-5.39084e-05
-2.74966e-05
0.000626012
9.03818e-06
-2.33733e-05
0.000797427
0.000207892
-3.62139e-05
-0.00193572
0.000250152
-4.17455e-05
0.000416872
-0.00125243
0.000398541
-0.00608783
-2.91146e-05
0.00112468
-0.0083707
-0.000632536
0.000325622
-0.00603125
0.000935136
0.00158822
-0.00699361
0.000787329
0.00161347
-0.00781824
-0.000561212
0.000564065
-0.00847306
2.33921e-05
-0.000255753
-0.0019576
0.00107938
0.000211375
-0.00374826
0.00154133
0.000751808
-0.00591403
-7.73693e-05
0.000636877
-0.00882684
-1.02108e-05
-0.000323543
0.000198743
-5.50092e-05
-0.000283228
0.000235304
0.00032017
7.75272e-05
-0.0011589
0.00107463
0.000281746
0.00103524
0.000342867
0.000235261
-0.00377235
-1.06698e-05
-0.000114572
0.000295909
3.21346e-05
-1.39374e-05
0.000206566
-5.78373e-05
-1.73321e-05
0.000308284
1.26247e-05
7.02959e-05
0.00034033
0.000705006
2.19521e-05
-0.000461421
0.000245932
-0.000124904
0.000532029
7.52832e-06
-0.000141448
-0.000261359
-1.62034e-05
-0.000122779
-0.000207888
2.55897e-06
-7.18058e-05
0.000133344
-5.34382e-05
-2.70304e-05
0.000683107
1.85466e-05
-2.42837e-05
0.00076695
0.000163473
-3.71228e-05
-0.00210381
0.000261204
-3.87381e-05
0.000194406
-0.00153335
0.000385007
-0.00429437
-0.000587561
0.000803936
-0.00691326
-0.000982979
0.000168588
-0.00590597
0.000286384
0.00134325
-0.00756489
1.59703e-05
0.00112426
-0.00839798
-0.000551094
0.00033769
-0.00637905
0.000283125
0.00134609
-0.00497257
0.00132055
0.00164145
-0.00726277
0.000845298
0.00152378
-0.00808192
-0.000511603
0.000489177
-0.008528
-0.00022152
8.2255e-05
-0.00228863
3.55706e-05
-0.000136825
-0.00169998
0.00118622
0.000385735
-0.00424824
0.00134788
0.000893881
-0.00644428
-0.000128211
0.000663386
-0.00901915
-0.000137962
-0.000327363
0.000360982
-1.81527e-06
-0.000373216
0.000322681
-2.22107e-05
-0.000325406
0.000602611
0.000375509
0.000113128
-0.00135316
0.000869315
0.00028975
0.000816446
3.82282e-05
0.000265804
-0.00383045
3.87496e-05
-0.000221118
0.00032601
1.08116e-06
-0.000117933
0.000382619
3.72027e-05
-2.46889e-05
0.000179278
-5.6711e-05
-1.84907e-05
0.000400344
4.86789e-05
6.69337e-05
0.000265216
0.000610929
-6.09056e-06
-0.00102769
0.000168988
-8.42255e-05
0.000708471
8.45007e-06
-0.000137928
0.000125117
9.35338e-06
-0.000144056
-0.000249435
-1.23802e-05
-0.000122741
-0.000144573
7.0764e-06
-7.17456e-05
0.000170982
-4.92628e-05
-2.7959e-05
0.000736045
1.92108e-05
-2.36249e-05
0.000734242
0.00011867
-3.76323e-05
-0.00222359
0.000274135
-3.90779e-05
-4.06512e-05
-0.00152157
9.00402e-05
-0.00414428
-0.000697752
0.000495079
-0.00600833
-0.00138579
0.00042914
-0.0043207
-0.000334745
0.00108464
-0.0073027
-0.000454858
0.000496012
-0.00676985
-0.000716295
8.85462e-05
-0.00582932
0.000184326
0.00142262
-0.00688684
0.000650607
0.00144515
-0.00721583
0.000247123
0.00107485
-0.00853696
-0.000613388
0.000211526
-0.0064888
-8.01656e-05
0.000879073
-0.00484445
0.000390828
0.00158652
-0.0052729
0.00130399
0.00162044
-0.0074772
0.00091275
0.00118536
-0.00834296
-0.00065711
0.000393867
-0.00839297
-0.000374902
0.000256516
-0.00293464
-4.92501e-05
0.000155509
-0.00253353
0.000126304
0.000131379
-0.00159413
0.0011163
0.000576703
-0.00467185
0.000917936
0.000988282
-0.0068178
-0.000446054
0.000545451
-0.00908032
-0.000115437
-0.000372038
0.000759829
-8.16683e-05
-0.000364617
0.000435132
-3.04495e-06
-0.000431682
0.000469205
3.77958e-06
-0.000349138
0.00100439
0.00041
0.000110002
-0.00153474
0.000857193
0.000337196
0.00049879
-0.000135732
0.000308697
-0.00383442
6.46082e-05
-0.000263112
-0.000378252
4.55296e-05
-0.000221087
0.000392988
1.13749e-05
-0.000121869
0.000456045
4.41221e-05
-3.82462e-05
0.000161988
-4.79327e-05
-1.81043e-05
0.000484052
0.000111365
5.27205e-05
0.000114251
0.000459064
-1.76807e-05
-0.00143463
0.000128232
-2.26672e-05
0.00087704
1.35627e-05
-0.000141422
3.58777e-05
1.11918e-05
-0.0001435
0.000113369
1.27363e-05
-0.00014635
-0.000238562
-9.1199e-06
-0.000122576
-8.4623e-05
1.19584e-05
-7.17866e-05
0.000202852
-4.45835e-05
-2.88561e-05
0.00078586
1.36801e-05
-2.21939e-05
0.000705123
8.13334e-05
-4.05749e-05
-0.00230343
0.000286956
-3.80072e-05
-0.0002896
-0.00163365
-0.000102274
-0.00406199
-0.000875075
0.000277536
-0.00518029
-0.00166299
0.000231332
-0.0040984
-0.000442899
0.000611712
-0.0064749
-0.000683724
0.00042442
-0.00577474
-0.00104756
0.000311265
-0.0043007
-7.87196e-05
0.00142009
-0.00697629
-0.00022582
0.00100416
-0.00693441
-0.000139215
0.000427375
-0.00672234
-0.000805224
3.94387e-05
-0.00567692
-8.38696e-05
0.00138785
-0.00655139
0.000324314
0.00153577
-0.00691094
0.000729749
0.00145096
-0.0070177
0.000165861
0.0010193
-0.00859784
-0.000679349
5.22878e-05
-0.00651884
-7.37979e-05
0.000662576
-0.0056823
0.000304034
0.00104266
-0.00465388
0.000482847
0.00165323
-0.00566223
0.00120319
0.0014027
-0.00778144
0.000751476
0.000857153
-0.00863979
-0.000900246
0.000408382
-0.00834716
-0.000266857
0.00021592
-0.00290516
-0.000266734
0.000388413
-0.00298248
-0.000100099
0.000280387
-0.00258548
0.000390611
0.0002709
-0.00167516
0.00101065
0.000796956
-0.00508117
0.000729102
0.000974639
-0.00711889
-0.000602992
0.000526904
-0.00913996
-7.69326e-05
-0.000459453
-0.000296977
-8.27514e-05
-0.000407942
0.000931436
-2.93506e-05
-0.000409738
0.000453913
3.70752e-06
-0.000473075
0.000633557
0.000105426
-0.000365029
0.00132606
0.000424076
9.58808e-05
-0.00160613
0.000792257
0.000424354
4.99401e-05
-0.000234713
0.000344254
-0.00381573
0.00011319
-0.000263578
-0.000646114
7.38155e-05
-0.00028198
-0.000379983
5.6998e-05
-0.000221669
0.000448526
1.68484e-05
-0.000124539
0.000516369
5.31526e-05
-4.92648e-05
0.000151954
-2.98021e-05
-1.33997e-05
0.000535391
0.000128503
3.41817e-05
-5.24349e-05
0.000309178
-9.87382e-06
-0.00167527
0.000110125
3.51908e-05
0.00101868
1.14277e-05
-0.000143532
-0.000286355
2.08576e-05
-0.000146539
1.80592e-05
1.50572e-05
-0.000149091
0.000101053
1.49087e-05
-0.000148345
-0.000227701
-5.81156e-06
-0.000122392
-2.82057e-05
1.70619e-05
-7.19376e-05
0.000228871
-4.12497e-05
-2.84818e-05
0.000833397
8.59745e-06
-2.30788e-05
0.00067903
5.55659e-05
-4.02497e-05
-0.00235675
0.000292282
-3.93288e-05
-0.000542553
-2.47327e-05
-0.00351286
-0.00114421
7.53321e-05
-0.00483043
-0.00164421
-4.20263e-05
-0.00403874
-0.000525075
0.000371022
-0.00540066
-0.000852473
0.000419057
-0.00519926
-0.00149274
0.000216584
-0.0038698
-0.000266735
0.0007771
-0.00636259
-0.000481626
0.000581193
-0.00637586
-0.000295249
0.000288523
-0.00559597
-0.00114689
0.000258577
-0.00421761
-0.000227936
0.00161591
-0.00673648
-0.000103912
0.00140301
-0.00694692
-0.000131827
0.000995221
-0.00664068
-0.000434242
0.000537601
-0.0066204
-0.000870724
-3.39837e-05
-0.00545156
0.000237667
0.00129272
-0.00683289
0.000289263
0.00140568
-0.00640653
0.000388338
0.00156573
-0.00693121
0.00101215
0.00149674
-0.0073041
-9.45305e-05
0.000845072
-0.00854462
-0.000923122
0.000118045
-0.00661401
5.29088e-05
0.000575741
-0.0058066
5.88846e-05
0.000672524
-0.00563778
0.000228281
0.00115454
-0.00448357
0.000809567
0.00150643
-0.00618491
0.00108041
0.00107319
-0.00806724
0.000480912
0.000775483
-0.0087587
-0.00108714
0.000496371
-0.00835937
-0.000259362
0.000213901
-0.00300977
-0.000209187
0.000339854
-0.00273017
-0.000120355
0.000296364
-0.00290745
-0.000153591
0.000309534
-0.00246681
0.00059071
0.000491706
-0.0018552
0.000908408
0.00095275
-0.00554362
0.000725134
0.000994918
-0.00751979
-0.000703553
0.000447882
-0.00911901
8.19244e-05
-0.000446332
-0.00153373
-7.0746e-05
-0.00049858
-6.17784e-05
-1.55637e-05
-0.000440716
0.00103498
-2.56219e-05
-0.000445727
0.000469035
5.49638e-05
-0.000494913
0.00076163
0.000280474
-0.000391409
0.00150307
0.000418512
0.00010335
-0.00157514
0.000671152
0.000487443
-0.000455223
-0.000270601
0.000356365
-0.00379137
9.77137e-05
-0.000265931
-0.000568615
0.000132838
-0.000291473
-0.000748601
8.97515e-05
-0.000301417
-0.000374929
6.606e-05
-0.000218772
0.000491608
1.5414e-05
-0.000128198
0.000574076
6.31539e-05
-5.38572e-05
0.00014632
-2.65396e-05
8.53756e-07
0.000554008
0.000142344
1.54203e-05
-0.000211476
0.000188482
3.41352e-06
-0.00177641
0.00010147
0.000122414
0.00108708
8.3653e-07
-0.000135444
0.000172217
1.92692e-05
-0.000146022
-0.000306141
2.74747e-05
-0.000151927
-6.58009e-06
1.75957e-05
-0.000154471
8.95828e-05
1.75765e-05
-0.000150079
-0.000217591
-1.61766e-06
-0.000122309
2.37834e-05
2.10021e-05
-7.21623e-05
0.00025155
-3.48699e-05
-2.92601e-05
0.000874448
2.95639e-06
-2.273e-05
0.000658554
1.48467e-05
-4.10937e-05
-0.00236983
0.000294957
-4.16797e-05
-0.00079583
8.94975e-05
-0.00437967
-0.00167812
6.29333e-05
-0.00354188
-0.000655256
0.000245091
-0.00507681
-0.00102759
0.00020201
-0.00489935
-0.00164364
6.91368e-06
-0.00389476
-0.000279572
0.000426191
-0.00543672
-0.00052177
0.000297659
-0.00523912
-0.000578396
0.000322584
-0.00502212
-0.00156105
0.000213987
-0.00366963
-0.000436312
0.000882844
-0.00670823
-0.000454781
0.000873745
-0.00630428
-0.000589811
0.000639162
-0.00626852
-0.00080138
0.000362747
-0.005333
-0.00131986
0.000329735
-0.0040982
0.000213148
0.00151082
-0.00716975
0.000150017
0.00137819
-0.00657241
4.09881e-05
0.00134623
-0.00695058
0.000252422
0.00111768
-0.00646104
-0.000556963
0.000426579
-0.00661853
-0.00114271
-3.0416e-05
-0.00520156
1.03156e-05
0.00128396
-0.00706175
-5.00072e-05
0.0011945
-0.00651282
0.00035423
0.00143717
-0.00640392
0.000575501
0.00164835
-0.00684875
0.000963673
0.00148918
-0.00783147
-0.000177269
0.000736221
-0.00850461
-0.00117505
0.000160276
-0.00668638
-0.000220391
0.000554431
-0.00577658
-0.000120094
0.000552987
-0.00577616
0.000240366
0.000754224
-0.00559819
0.000300953
0.00122971
-0.00466139
0.000990105
0.00124684
-0.00675796
0.000926467
0.00101603
-0.00832584
0.000504571
0.000818132
-0.0088599
-0.00116422
0.000550164
-0.00844887
-4.36622e-05
0.0002564
-0.00337375
-0.000102358
0.000214962
-0.00285326
-8.11071e-05
0.000275556
-0.00264381
-0.000179176
0.000205083
-0.00264944
7.19443e-05
0.000406037
-0.00239813
0.000689086
0.000719495
-0.00203055
0.000887387
0.000918637
-0.00593621
0.000649548
0.000842515
-0.00789282
-0.000722011
0.000423883
-0.00909148
0.000130073
-0.000349771
-0.00173502
0.000114186
-0.000487767
-0.00152589
-4.19555e-05
-0.000516604
0.000145816
7.42677e-06
-0.000473351
0.00112123
-2.24006e-05
-0.000468627
0.000480563
0.000107929
-0.0004949
0.000820346
0.000467919
-0.000381908
0.00149387
0.00048997
8.48762e-05
-0.0015202
0.000561572
0.000476217
-0.000948165
-0.000274851
0.000283203
-0.00369825
2.01791e-05
-0.000247827
-0.000317236
0.000130981
-0.000292424
-0.000679376
0.000152043
-0.000320984
-0.000853602
9.45617e-05
-0.000316225
-0.000354442
8.60265e-05
-0.000212248
0.000507208
2.04835e-05
-0.000133557
0.000631675
6.95932e-05
-5.21946e-05
0.000150777
-2.599e-05
2.03331e-05
0.000540216
0.000123426
1.93076e-06
-0.000330463
4.34561e-05
4.05958e-05
-0.0017232
0.000116983
0.000154417
0.00111064
-1.53592e-05
-0.000135608
0.000402796
9.39182e-06
-0.0001356
0.000152404
2.73184e-05
-0.000148741
-0.000336645
3.22876e-05
-0.000157401
-3.5937e-05
1.98969e-05
-0.00015955
7.91568e-05
2.05474e-05
-0.00015165
-0.000208798
3.19237e-06
-0.000122274
7.07025e-05
2.49322e-05
-7.25029e-05
0.00026986
-3.18354e-05
-2.92664e-05
0.00091282
-2.10266e-06
-2.12188e-05
0.000640781
-8.25719e-06
-4.19022e-05
-0.00236135
0.000279295
-4.55821e-05
-0.00102954
-0.00182729
4.05039e-05
-0.00312059
0.000275239
-0.00482427
-0.00121068
0.000189777
-0.00432343
-0.00178482
0.000101366
-0.00350207
-0.000631874
0.000458255
-0.00491994
-0.000651329
0.000348876
-0.00509412
-0.000999359
0.000255862
-0.00472734
-0.00149862
-4.70685e-05
-0.00391012
-0.00038934
0.000517852
-0.00569842
-0.000489773
0.000338029
-0.00544209
-0.000631719
0.000278893
-0.00515352
-0.000873918
0.000322528
-0.00505812
-0.0015873
0.000214665
-0.00361685
-0.000272133
0.0010448
-0.00675093
-9.16286e-05
0.00102874
-0.00662157
-0.000167802
0.000948044
-0.00640437
-4.99619e-05
0.000720967
-0.00632435
-0.000710364
0.000440424
-0.00529029
-0.00149989
0.000250942
-0.00399197
-0.000156924
0.00116816
-0.00727009
-0.000222469
0.00128827
-0.00690737
0.00033088
0.00143889
-0.00664172
0.000155852
0.00133616
-0.00674941
0.000172723
0.00113026
-0.00637377
-0.00061274
0.000445291
-0.00665877
-0.001426
-4.23024e-05
-0.00490831
-0.00029611
0.00115603
-0.00740793
-0.000324696
0.00116735
-0.00682999
0.000308278
0.00128997
-0.00643353
0.000381375
0.00145985
-0.00629584
0.000857012
0.00164764
-0.00687412
0.000842717
0.00132747
-0.00833897
-0.000275454
0.000736481
-0.00830079
-0.00129219
0.000230024
-0.00678843
-9.4327e-05
0.000700548
-0.00599107
5.53113e-05
0.000500059
-0.00588132
-4.0942e-05
0.000640974
-0.00570307
9.04714e-05
0.000774592
-0.00541272
0.000545676
0.00113268
-0.00502096
0.000780527
0.00125192
-0.00708529
0.000928987
0.000960182
-0.00850949
0.000554253
0.000861286
-0.00907572
-0.00118742
0.000553582
-0.00853704
1.60151e-05
0.000314847
-0.00369724
2.37492e-05
0.000215222
-0.00328358
-0.000155865
0.000172605
-0.0026364
-0.000157244
0.000155642
-0.0024297
-0.000121513
0.000189302
-0.0023336
0.000201491
0.00052364
-0.00229583
0.00100201
0.000772876
-0.00241888
0.000920985
0.000789245
-0.00631395
0.000590952
0.000629872
-0.00812818
-0.000675243
0.000386536
-0.00907762
-3.83625e-05
-0.000246302
-0.0019699
0.000153556
-0.00043098
-0.00181438
0.000126816
-0.000504314
-0.00151296
-2.98738e-05
-0.000496931
0.000293832
6.83018e-05
-0.000470642
0.00114097
-1.24514e-05
-0.000480393
0.00049899
7.58109e-05
-0.000460916
0.000893136
0.000458006
-0.000347236
0.00144199
0.000448403
3.31112e-05
-0.00140207
0.000404837
0.00038701
-0.00141335
-0.000283075
0.000239862
-0.00353806
-6.29679e-06
-0.000205717
2.83933e-05
9.74854e-05
-0.000267698
-0.000430056
0.000154823
-0.000320226
-0.000807638
0.000152853
-0.00034485
-0.000945542
9.40862e-05
-0.000314715
-0.000326165
7.47522e-05
-0.000204987
0.000524433
2.21609e-05
-0.000137676
0.000698188
7.13326e-05
-4.30531e-05
0.000167763
-4.03724e-05
3.93986e-05
0.000511285
7.97101e-05
-2.61412e-06
-0.000369066
-7.28135e-05
5.68489e-05
-0.00156107
0.000101572
0.00016956
0.0011188
-2.77306e-06
-0.000141906
0.000252587
-1.0387e-05
-0.000134733
0.000412316
1.63272e-05
-0.000136047
0.000123382
3.56291e-05
-0.000151738
-0.000377937
3.45299e-05
-0.000162894
-6.71231e-05
2.19072e-05
-0.000164154
6.97534e-05
2.32843e-05
-0.00015299
-0.000201366
7.71762e-06
-0.000122547
0.000113029
2.84778e-05
-7.31209e-05
0.000285237
-3.16279e-05
-2.82254e-05
0.000951455
-7.43897e-06
-2.03543e-05
0.000626673
-1.41814e-05
-4.37588e-05
-0.00234899
0.000256116
-4.63892e-05
-0.00123927
-0.00178209
-7.62089e-06
-0.00287717
-0.00153881
0.000250422
-0.00378281
-0.00184955
7.55168e-05
-0.00313138
0.000476736
-0.004897
-0.000825272
0.00028937
-0.00474992
-0.00117857
0.000179456
-0.0042223
-0.00158994
8.20154e-05
-0.00349276
-0.000645363
0.000589453
-0.00499231
-0.000462268
0.000434533
-0.0050331
-0.000578598
0.000338964
-0.00523034
-0.0010399
0.000127726
-0.00473615
-0.001426
-6.76935e-05
-0.00400374
-0.000492763
0.000723166
-0.00580343
-0.000280091
0.000525011
-0.00569694
-0.000323821
0.000420129
-0.00542731
-9.25989e-05
0.000379406
-0.00516776
-0.000960795
0.000332831
-0.00492585
-0.00158051
0.000162549
-0.00369878
-0.000257894
0.00104498
-0.0068506
-0.000213204
0.00106214
-0.00679359
2.07093e-05
0.00105945
-0.00642281
-0.000103227
0.000852662
-0.00627698
-0.000183642
0.000622867
-0.00615043
-0.000797156
0.000386388
-0.00524132
-0.0017097
0.000275572
-0.00398384
-0.000236936
0.000985791
-0.00770144
-0.000272247
0.00120267
-0.00723694
0.000155047
0.00146132
-0.00677657
0.000201244
0.00143431
-0.00655974
0.000138575
0.00143202
-0.00633274
0.000261679
0.0011776
-0.00652504
-0.000773414
0.00045015
-0.00665326
-0.00142226
4.70621e-05
-0.00482531
-0.000318876
0.00109256
-0.00743339
-0.000231304
0.00114108
-0.00709505
-0.000212639
0.00120113
-0.00656946
0.000117991
0.00137077
-0.00637197
0.000668965
0.0015183
-0.0062898
0.000905667
0.00156409
-0.00723587
0.00068136
0.00118873
-0.00854359
-0.000277589
0.00072309
-0.00796202
-0.00142574
0.000121966
-0.00667207
-7.79383e-05
0.000826551
-0.00587947
-8.1271e-05
0.000649683
-0.00603568
-0.000170259
0.000579537
-0.00580549
-1.926e-05
0.000665577
-0.00573204
0.000146589
0.000750372
-0.00529851
0.000675027
0.00112857
-0.00537115
0.000803746
0.00114902
-0.00707587
0.000912515
0.00101762
-0.00865736
0.000482029
0.000773794
-0.00918701
-0.00108734
0.000364767
-0.00848971
-3.11117e-05
0.000288475
-0.00418876
8.79705e-05
0.000238027
-0.00365446
-0.000120904
0.000161837
-0.00302509
-0.000176066
0.0001107
-0.00244527
-8.3064e-05
0.000120432
-0.00220947
5.67667e-05
0.000240244
-0.00211942
0.000192682
0.000677911
-0.00231774
0.000966292
0.00075435
-0.00289227
0.000898285
0.00068136
-0.00681532
0.00053901
0.00058678
-0.0084626
-0.000566261
0.000331814
-0.00912625
2.47308e-06
-0.000122785
-0.00216044
8.9684e-05
-0.000358099
-0.00203498
0.000172459
-0.000488076
-0.00184826
9.81202e-05
-0.00049773
-0.00145742
-1.99725e-05
-0.000470858
0.000408106
8.36347e-05
-0.000457109
0.00110881
-8.24863e-06
-0.000429488
0.000497972
0.000143998
-0.00039417
0.000867404
0.000343104
-0.000307919
0.00139954
0.000332229
-1.38926e-05
-0.00125368
0.000198359
0.000306043
-0.00175071
-0.000292156
0.000215521
-0.00335985
-4.68629e-05
-0.000189482
0.000191467
2.78731e-05
-0.000210828
-6.67371e-05
0.000125257
-0.000286341
-0.000572871
0.000172151
-0.000340497
-0.000948513
0.000123434
-0.000350365
-0.000998796
8.54901e-05
-0.000297728
-0.000297007
7.00046e-05
-0.000194654
0.000534691
1.67583e-05
-0.000135674
0.000781768
7.54493e-05
-3.11074e-05
0.000191297
-4.55495e-05
5.20893e-05
0.000470503
6.0843e-05
1.32943e-06
-0.000381828
-0.000120473
6.61812e-05
-0.0013514
8.62471e-05
0.000166481
0.00112219
1.63218e-05
-0.000138545
0.000236555
-1.09737e-06
-0.000141179
0.00026013
-4.11812e-06
-0.000134133
0.000414521
2.30963e-05
-0.000136853
8.54009e-05
4.09735e-05
-0.000155001
-0.000426803
3.44146e-05
-0.000167995
-9.76967e-05
2.38096e-05
-0.000168076
6.10298e-05
2.61592e-05
-0.000154203
-0.000195869
1.16133e-05
-0.00012342
0.000151715
3.20299e-05
-7.41129e-05
0.000299095
-3.26866e-05
-2.76938e-05
0.000991481
-1.3517e-05
-1.97757e-05
0.000616206
-1.67819e-05
-4.40966e-05
-0.0023345
0.000231743
-4.67169e-05
-0.0014243
0.000120957
-0.00289767
-0.00163625
9.20342e-05
-0.00357023
-0.00184219
-4.52613e-05
-0.00283926
-0.000907471
0.000318852
-0.00426368
-0.00136537
0.000290635
-0.00381113
-0.00182287
8.91056e-05
-0.00298756
0.00061186
-0.00495356
-0.000490478
0.000441303
-0.00502073
-0.000830274
0.000329111
-0.0046479
-0.00111432
7.63944e-05
-0.00414226
-0.00167645
3.97761e-05
-0.00328209
-0.000655935
0.000740919
-0.00493226
-0.000426837
0.000596982
-0.00500802
-0.000345541
0.000448458
-0.00512088
-0.000493226
0.000313985
-0.00501597
-0.00106729
8.52093e-05
-0.00478255
-0.0015105
-8.09468e-05
-0.0039928
-0.000405685
0.0008636
-0.00591835
-0.000469437
0.000770118
-0.0057923
-6.78991e-05
0.000550241
-0.00573844
-0.000221893
0.000446001
-0.00537524
-0.000242083
0.000391078
-0.00516757
-0.000946602
0.000284414
-0.00489827
-0.00162869
0.000152471
-0.00393225
-0.000310676
0.00109233
-0.00666169
-0.000311394
0.00105242
-0.00680174
-4.21184e-05
0.00110247
-0.00663945
9.98904e-05
0.000935003
-0.0064038
-0.000204895
0.000815564
-0.00612621
-0.000151906
0.000685166
-0.00603562
-0.000824927
0.000392555
-0.00530679
-0.00164775
0.000228569
-0.00398691
-0.000367586
0.00109357
-0.00761184
-0.000308476
0.00106232
-0.00748392
-0.000142279
0.0013374
-0.00718338
-0.000131824
0.00144171
-0.00653415
0.00034828
0.00154728
-0.00635431
0.000566116
0.00144124
-0.00625682
0.000151439
0.0011876
-0.00673258
-0.00100669
0.000470794
-0.0063479
-0.00165052
8.58033e-05
-0.00468634
-0.000237086
0.00112419
-0.00748219
-0.000304831
0.00116334
-0.00723209
-0.000351869
0.00120323
-0.00691554
-3.54163e-05
0.00130307
-0.0064856
0.000344921
0.00135127
-0.00640327
0.0007753
0.00152786
-0.00635384
0.00087987
0.00147344
-0.00759671
0.000615588
0.000931708
-0.00845528
-0.00021828
0.000541725
-0.00768147
-0.00141581
0.000143424
-0.00648703
-6.67098e-05
0.000832716
-0.00610031
9.29482e-05
0.000835761
-0.00607052
-0.000297482
0.000733489
-0.00601305
-4.68979e-05
0.000638867
-0.00590795
-2.23395e-05
0.000635183
-0.00567758
0.000337081
0.000824548
-0.0052748
0.000650018
0.00106402
-0.00574349
0.000797584
0.00113795
-0.00702748
0.000856919
0.00100412
-0.00884632
0.000277412
0.000544413
-0.00910506
-0.000955905
0.000363261
-0.00846333
-5.9427e-05
0.00026002
-0.00504143
-2.65092e-05
0.000228541
-0.00406308
2.34426e-05
0.000203664
-0.00354727
-3.63794e-05
0.000174538
-0.00295443
-0.000103358
0.000127058
-0.00236851
-1.38643e-05
0.000143697
-0.00201542
9.63358e-05
0.000313204
-0.0018593
0.000261511
0.00070878
-0.00238968
0.000844603
0.000750349
-0.00346276
0.000768869
0.000774249
-0.00743943
0.000224184
0.000457291
-0.0086139
-0.000482295
0.00030548
-0.00924159
5.55198e-05
1.33959e-05
-0.00115716
2.19667e-05
-0.000178839
-0.00233379
0.000111225
-0.000439685
-0.00206934
0.000145894
-0.000523653
-0.00179608
2.76627e-05
-0.000488003
-0.00134451
-1.76946e-05
-0.000432397
0.000486579
0.000145915
-0.000407702
0.00101111
2.10097e-05
-0.000347392
0.000446943
0.000252257
-0.000303412
0.00068609
0.000240068
-0.000264243
0.00136427
0.00031803
-2.86551e-05
-0.00117617
7.21691e-05
0.000282798
-0.00201063
-0.000287167
0.000178673
-0.00316511
1.25914e-05
-0.000201608
-6.26644e-05
-4.79818e-05
-0.000186228
0.000213752
5.72076e-05
-0.0002173
-0.000197104
0.000130018
-0.000301054
-0.000719235
0.000180972
-0.000345389
-0.00109349
9.43303e-05
-0.000331206
-0.00102523
6.55294e-05
-0.000273453
-0.000259928
5.75107e-05
-0.000180391
0.000548057
1.06171e-05
-0.000126134
0.000877791
7.38025e-05
-1.60865e-05
0.0002177
-4.92371e-05
6.13872e-05
0.000426996
5.89723e-05
9.95101e-06
-0.000398087
-0.000137632
5.72624e-05
-0.00112133
7.48161e-05
0.000149173
0.00112994
1.83602e-05
-0.000126916
0.000514759
1.88012e-05
-0.000138927
0.000215502
6.74064e-07
-0.000140435
0.000265758
4.44147e-06
-0.00013374
0.000406966
2.98613e-05
-0.000138008
3.85462e-05
4.55607e-05
-0.000158327
-0.000482031
3.17449e-05
-0.000172291
-0.000125227
2.44123e-05
-0.000171036
5.34502e-05
2.85884e-05
-0.000155357
-0.00019252
1.71501e-05
-0.000125044
0.000185495
3.46554e-05
-7.54645e-05
0.00031221
-3.2224e-05
-2.76484e-05
0.00103158
-2.7436e-05
-1.71888e-05
0.000616735
-1.92153e-05
-4.64465e-05
-0.00231556
0.000208946
-4.72325e-05
-0.00158601
0.000232241
-0.0033835
-0.00185638
5.98336e-05
-0.00294332
-0.000994482
0.000249985
-0.00391511
-0.00160151
0.000113752
-0.00349311
-0.00185287
9.09222e-07
-0.00281017
-0.000546559
0.000408853
-0.00461686
-0.000885787
0.000320366
-0.0042379
-0.00132993
0.000249452
-0.00375587
-0.00186771
0.000126493
-0.0029228
0.000670559
-0.00489046
-0.000511474
0.000643268
-0.00507089
-0.00047039
0.000452731
-0.0050195
-0.000703272
0.000273895
-0.00463536
-0.001035
3.33709e-06
-0.00413811
-0.00170875
1.01486e-05
-0.00309398
-0.000624304
0.000910845
-0.00489871
-0.000538929
0.000766659
-0.00503245
-4.75386e-05
0.000591787
-0.00517171
-0.000325871
0.000414183
-0.0051171
-0.000444851
0.000255925
-0.00498392
-0.00104088
8.10426e-05
-0.00485026
-0.00160038
-3.69319e-05
-0.00398418
-0.000485805
0.000995014
-0.00590933
-0.000424188
0.00088977
-0.00592521
-0.000263631
0.000778527
-0.00579908
-7.97905e-05
0.000566763
-0.00567952
-9.49806e-05
0.000462155
-0.00555623
-0.000197461
0.000350437
-0.00518804
-0.00093391
0.000219358
-0.00485618
-0.0016152
0.00013393
-0.00409874
-0.00046004
0.00114061
-0.00660131
-0.00036235
0.00110278
-0.00665817
-0.000178427
0.00107873
-0.00674185
-7.20854e-05
0.000985621
-0.0067498
9.46771e-05
0.000990469
-0.0063251
0.000196766
0.000988158
-0.00605985
-0.000194065
0.000614149
-0.00591171
-0.00102928
0.000354786
-0.00541041
-0.00170979
0.000186443
-0.00411409
-0.000257461
0.00116268
-0.00756641
-0.000261704
0.00107898
-0.00767163
-0.0003111
0.00121229
-0.00739957
-0.000216345
0.00133813
-0.00689887
0.000107124
0.00148791
-0.00623698
0.000423323
0.00161986
-0.00618096
0.000523681
0.00145988
-0.0061729
6.55349e-05
0.00102288
-0.00673461
-0.000763632
0.000424571
-0.00614131
-0.00170568
0.000183565
-0.00458004
-0.000254852
0.00114719
-0.00772902
-0.000158234
0.00120159
-0.00726926
-0.000387839
0.00120626
-0.00714476
-0.000138308
0.00123782
-0.00675888
-1.75803e-05
0.00130026
-0.00643934
0.000598341
0.00136542
-0.00650209
0.000735453
0.00157391
-0.00653974
0.00091174
0.00127052
-0.00804967
0.000391688
0.000871483
-0.00831981
-0.000587932
0.000564445
-0.00723714
-0.00146953
0.00020436
-0.00617777
-2.58929e-05
0.000906424
-0.00596471
-4.47962e-05
0.000868098
-0.00611436
-0.000191914
0.00086072
-0.0059824
-8.7504e-05
0.000789173
-0.00611223
4.42627e-05
0.000611271
-0.00603165
0.000134505
0.000664699
-0.0056661
0.000386953
0.000902272
-0.00540366
0.000580655
0.00103762
-0.00596231
0.000833093
0.0011084
-0.00712026
0.000663182
0.000885095
-0.00908132
2.0769e-06
0.00050089
-0.00902058
-0.000876037
0.000389339
-0.00845893
0.00013707
0.000161743
-0.00531525
-5.51919e-05
0.000218396
-0.00495413
-5.09566e-05
0.000191552
-0.00388879
-3.36424e-05
0.000209525
-0.00340273
-1.04266e-05
0.000189803
-0.00297908
4.78382e-05
0.000125503
-0.00241585
0.00026859
0.000126703
-0.0019516
4.54957e-05
0.000458378
-0.00163338
0.000520715
0.000574324
-0.00248211
0.000736419
0.000835568
-0.00402043
0.000688353
0.000653104
-0.00800557
-3.85029e-05
0.000431516
-0.00862927
-0.000526087
0.000257292
-0.00925996
0.000124261
5.08779e-05
-0.00114177
1.22019e-05
3.85716e-05
-0.00143476
3.39821e-05
-0.00022657
-0.00252368
0.000103559
-0.000487019
-0.00207951
0.000133085
-0.000532253
-0.00170394
2.25818e-05
-0.000467714
-0.00123744
8.51526e-05
-0.000371756
0.00043101
0.000192561
-0.000326823
0.000855491
0.000210064
-0.000226042
0.000170125
0.000308924
-0.000181023
0.000367748
0.000222424
-0.00019469
0.00125865
0.000379213
-3.18296e-05
-0.00118179
-3.76023e-05
0.000225079
-0.00215706
-0.000255978
0.000137924
-0.00297224
9.30999e-06
-0.000220493
6.70987e-05
2.46425e-05
-0.000194415
-6.03187e-05
-3.20638e-05
-0.000190647
0.000219837
9.56337e-05
-0.000231537
-0.000357813
0.000139388
-0.000313146
-0.000861004
0.000178849
-0.000328239
-0.00122974
6.34664e-05
-0.000302987
-0.00102742
4.24191e-05
-0.000248004
-0.000210322
5.02689e-05
-0.000161163
0.000561405
1.16546e-05
-0.00011109
0.00097829
6.21185e-05
-1.48062e-06
0.000253105
-6.97791e-05
7.3282e-05
0.00040122
9.04986e-05
7.75981e-06
-0.000466519
-0.000117977
3.50742e-05
-0.000908473
6.67403e-05
0.000136256
0.00113589
9.51206e-06
-0.000121705
0.000982419
2.45257e-05
-0.000127057
0.000478363
2.18368e-05
-0.000139276
0.000192506
5.3721e-06
-0.000140081
0.000266726
1.33167e-05
-0.000133682
0.000389324
3.89693e-05
-0.0001394
-1.935e-05
4.74603e-05
-0.000161301
-0.000540481
2.66431e-05
-0.000175271
-0.000147634
2.33039e-05
-0.000172934
4.77233e-05
3.00667e-05
-0.000156524
-0.000191107
2.37054e-05
-0.000127416
0.000213741
3.45635e-05
-7.7123e-05
0.000327121
-3.54048e-05
-2.565e-05
0.00107544
-4.08681e-05
-1.71587e-05
0.000628315
-2.0245e-05
-4.96747e-05
-0.00229287
0.00019004
-4.68914e-05
-0.00172916
-0.00203783
0.000148784
-0.00248501
0.000347901
-0.00381756
-0.00182014
0.000229017
-0.00333405
-0.00185252
2.16446e-05
-0.00296531
-0.000750313
0.000340844
-0.00400491
-0.00100645
0.00024471
-0.0039254
-0.00142162
0.000169213
-0.00356972
-0.00175535
-5.33254e-05
-0.00286921
-0.00079582
0.000645392
-0.00471462
-0.000607832
0.000405563