/*--------------------------------*- C++ -*----------------------------------*\
  =========                 |
  \\      /  F ield         | OpenFOAM: The Open Source CFD Toolbox
   \\    /   O peration     | Website:  https://openfoam.org
    \\  /    A nd           | Version:  7
     \\/     M anipulation  |
\*---------------------------------------------------------------------------*/
FoamFile
{
    version     2.0;
    format      ascii;
    class       volVectorField;
    location    "4.5";
    object      U_0;
}
// * * * * * * * * * * * * * * * * * * * * * * * * * * * * * * * * * * * * * //

dimensions      [0 1 -1 0 0 0 0];

internalField   nonuniform List<vector> 
18750
(
(2.18988 -1.08469 -1.41942)
(2.12308 -0.768185 -0.369172)
(3.06374 0.375621 -1.1693)
(2.16218 -1.14886 -1.43374)
(3.6113 1.77299 0.375498)
(3.35935 -1.22263 -0.922864)
(2.10923 -0.746335 -0.481542)
(-0.558383 -0.527371 -0.660454)
(2.4885 0.443459 -0.904979)
(2.20119 -1.13025 -1.40662)
(1.79237 6.59847 1.12464)
(1.24657 3.25805 -0.228488)
(4.0587 1.58367 1.27112)
(-0.078391 -0.28709 0.768917)
(3.31519 -1.32507 -0.962127)
(2.12407 -0.734064 -0.685032)
(-0.600477 -0.315834 -0.282369)
(-0.558667 -0.509667 -0.608752)
(1.92638 0.560337 -0.772545)
(2.23927 -1.18589 -1.30876)
(-1.1752 5.49434 -3.02479)
(5.03508 2.96144 1.10766)
(1.32933 6.13184 0.97561)
(-0.470158 0.602799 1.48957)
(0.690245 0.424836 0.0560123)
(3.70674 1.56175 1.77868)
(-0.761815 -0.0643097 -0.446776)
(0.0808854 -0.285673 1.11367)
(3.92585 -1.34886 -0.92425)
(2.17998 -0.782811 -0.837454)
(0.153212 -0.0242827 -0.823978)
(-0.607332 -0.314518 -0.312019)
(-0.4535 -0.495194 -0.651863)
(1.50742 0.735407 -0.736613)
(2.32692 -1.24427 -1.18181)
(-0.657212 3.71781 -0.594817)
(2.67449 4.73686 4.54006)
(-1.73566 5.6125 -2.87769)
(1.38532 2.11591 0.923471)
(6.07116 2.77412 1.39009)
(1.16427 5.92561 1.00394)
(0.303313 0.205571 -1.24939)
(-0.50814 0.650572 2.10362)
(1.91263 -2.68509 -0.231995)
(2.93374 1.64493 1.87205)
(-0.449301 -0.156247 0.294456)
(-0.693177 -0.0523967 -0.480031)
(0.278382 -0.323924 1.36185)
(3.99064 -1.43319 -0.890489)
(2.21029 -0.925372 -0.896119)
(-0.13284 0.216798 -2.15242)
(0.173536 -0.0717363 -0.813974)
(-0.630804 -0.328948 -0.289158)
(-0.355623 -0.486694 -0.714201)
(1.34672 0.835658 -0.762037)
(2.49532 -1.33922 -1.02728)
(-1.50829 4.15413 0.136001)
(0.978813 5.5751 1.87415)
(-0.176176 3.9495 -0.510559)
(2.6829 4.65522 3.24105)
(3.32125 4.79842 4.67953)
(-1.15398 5.85459 -2.31508)
(-0.807275 1.39393 -1.37501)
(2.55257 2.09429 2.19116)
(6.03874 2.80178 2.08734)
(2.17465 5.66117 1.22849)
(0.759447 -0.12418 -1.1709)
(0.160665 -0.0378255 -1.05745)
(-0.659315 0.822058 1.90524)
(2.83992 -1.05547 -0.199522)
(2.08222 1.92559 1.88933)
(-0.354433 -0.152061 -0.303639)
(-0.373339 -0.114258 0.259331)
(-0.690808 -0.064464 -0.479829)
(0.573037 -0.389272 1.3987)
(3.96745 -1.11451 -1.00675)
(2.06514 -1.09121 -0.747544)
(0.0187365 0.188006 -2.9955)
(-0.106073 0.17585 -2.15477)
(0.18962 -0.114832 -0.817026)
(-0.65574 -0.320879 -0.273343)
(-0.310839 -0.457992 -0.72858)
(1.40425 0.912975 -0.827446)
(2.74002 -1.48878 -0.877826)
(-2.08303 2.91052 0.190092)
(-0.808592 4.73009 1.12642)
(-1.01295 4.13778 0.0849549)
(1.38458 5.27821 2.29457)
(1.05859 5.50641 1.75863)
(0.224082 4.1958 -0.346929)
(1.11252 3.27577 3.65287)
(3.80394 4.37347 3.03107)
(3.64448 4.858 4.56153)
(-0.287814 6.04883 -1.4526)
(-0.950082 1.55508 -0.320553)
(-0.585086 1.29064 -0.953656)
(3.40958 2.12909 2.62343)
(5.079 2.99033 2.18719)
(2.85607 5.47051 1.33281)
(0.270123 -0.208062 -1.47238)
(0.801756 -0.247082 -1.37656)
(0.123205 -0.306344 -1.18564)
(-0.486383 1.01444 2.27042)
(3.18992 -1.62643 0.0229285)
(1.28711 2.29335 1.6278)
(0.182251 -0.202371 -1.30256)
(-0.289809 -0.19995 -0.427744)
(-0.328116 -0.0706531 0.243255)
(-0.699765 -0.0838947 -0.419782)
(0.695152 -0.434143 1.30671)
(3.04022 -0.62871 -1.10643)
(1.79242 -1.23199 -0.456176)
(-0.202222 -0.0821765 -2.92108)
(0.0532038 0.167535 -3.01397)
(-0.0803394 0.132274 -2.15885)
(0.198994 -0.161906 -0.820141)
(-0.630066 -0.335842 -0.317011)
(-0.347497 -0.440335 -0.6707)
(1.47924 0.897611 -0.834367)
(3.0049 -1.67167 -0.763648)
(-1.82249 2.87577 -0.0278904)
(-0.818856 4.08266 0.798025)
(-1.38356 2.98268 0.387257)
(-0.198351 4.96109 1.30713)
(-0.104214 4.61863 0.471098)
(-0.592855 4.15482 0.0301382)
(0.422718 4.51801 2.58361)
(2.61388 4.60663 2.37917)
(1.79134 5.49162 1.66644)
(0.42674 4.34835 -0.307149)
(0.12597 3.40464 2.46373)
(1.21751 3.27167 4.16529)
(4.14405 4.25754 2.82634)
(4.4542 4.63295 3.4908)
(-0.0817632 6.05937 -0.770979)
(-1.3992 1.99759 0.8436)
(-0.817258 1.63293 -0.0354727)
(-0.279373 1.15948 -0.36775)
(3.97413 2.19727 3.27537)
(3.46714 3.66784 2.43924)
(2.19369 5.77407 0.924464)
(0.195058 -0.446165 -1.20167)
(0.287275 -0.296915 -1.70646)
(0.764572 -0.385263 -1.6179)
(0.0271097 -0.565127 -1.18688)
(-0.21618 1.03382 2.237)
(3.31421 -1.75422 0.482208)
(0.746959 2.57078 1.24788)
(0.550534 0.223766 -1.80489)
(0.17522 -0.263294 -1.23642)
(-0.246916 -0.244961 -0.556901)
(-0.259894 -0.0552793 0.171305)
(-0.684425 -0.109549 -0.361289)
(0.706263 -0.42282 1.03299)
(1.94013 0.016215 -0.868967)
(1.50439 -1.3887 -0.0990719)
(-0.077102 -0.0280539 -2.82423)
(-0.145845 -0.0581526 -3.03272)
(0.106905 0.156413 -3.02569)
(-0.0605735 0.0922835 -2.16293)
(0.203922 -0.204286 -0.825866)
(-0.6228 -0.326857 -0.350082)
(-0.380913 -0.367814 -0.653383)
(1.57314 0.854028 -0.963786)
(3.22852 -1.87761 -0.704859)
(-1.40051 2.85776 -0.218741)
(-0.757834 3.53991 0.244329)
(-1.7793 2.87002 -0.0354065)
(-0.524645 4.34691 0.573859)
(-0.557891 3.94755 0.744947)
(-0.467491 3.11923 0.348086)
(0.465805 4.59184 2.10546)
(0.379116 4.74763 1.0728)
(0.642803 4.46692 0.248738)
(-0.463273 4.09192 0.0392268)
(-0.174601 4.3867 2.65651)
(1.29492 4.47443 2.87082)
(2.96633 4.32942 2.26896)
(1.94901 5.46259 1.27155)
(0.42015 4.46464 -0.153348)
(-0.200972 3.76388 1.52177)
(1.16238 3.02884 3.16335)
(1.55557 3.40694 4.28059)
(3.80342 4.3004 2.58433)
(4.49193 4.60777 2.41431)
(-0.230209 6.09602 -0.641605)
(-1.11354 2.1002 0.59492)
(-0.897251 2.08303 1.00107)
(-0.687348 1.88869 1.01859)
(0.0482191 1.10122 0.130035)
(4.25599 2.0303 3.6252)
(3.48871 3.72778 2.17364)
(2.09847 5.83456 0.689294)
(0.124625 0.269094 -1.80627)
(0.192973 -0.572777 -1.30105)
(0.295551 -0.368206 -1.95522)
(0.701688 -0.538616 -1.82234)
(-0.068585 -0.805416 -1.19156)
(0.521062 0.987452 2.21306)
(3.13051 -1.62327 1.25499)
(0.605586 2.70859 0.902357)
(0.480035 0.382896 -1.80193)
(0.538908 0.204504 -1.8716)
(0.171169 -0.31958 -1.17399)
(-0.22368 -0.286901 -0.67088)
(-0.172137 -0.0567429 0.117932)
(-0.620266 -0.141364 -0.290109)
(0.623595 -0.320981 0.618045)
(1.00952 0.690082 -0.33043)
(1.2577 -1.52514 0.226441)
(-0.00673477 0.183647 -3.09219)
(-0.0460315 -0.016674 -2.96796)
(-0.11006 -0.0525691 -3.14005)
(0.150347 0.130232 -3.03322)
(-0.0407904 0.047998 -2.16898)
(0.201427 -0.243365 -0.833386)
(-0.648906 -0.330957 -0.333432)
(-0.38341 -0.336476 -0.663692)
(1.7214 0.816689 -0.98275)
(3.35397 -2.06714 -0.72838)
(-1.74094 2.33277 -0.0231471)
(-1.02834 3.25999 0.0118267)
(-1.48264 2.80911 -0.188173)
(-0.373412 3.5647 0.389694)
(-0.578366 3.46509 0.599035)
(-1.37732 2.97769 0.0235602)
(-0.417619 4.30747 1.01132)
(-0.247525 4.3318 0.460725)
(0.258372 3.92424 0.468415)
(-0.426312 2.99313 0.266079)
(0.23102 4.45824 2.29793)
(0.60174 4.57935 2.05227)
(0.944612 4.53714 1.06124)
(0.90857 4.42573 0.0858844)
(-0.113657 4.03384 0.120473)
(0.143406 4.49981 2.42203)
(0.851631 4.24389 2.78452)
(1.87145 4.48069 2.99771)
(3.44931 4.11444 2.4569)
(2.15226 5.34894 0.422951)
(0.277141 4.62078 0.0689166)
(0.0296028 3.79888 1.39981)
(0.21134 3.74789 1.5344)
(1.14205 2.86877 3.60521)
(2.96187 3.33376 3.53833)
(3.51637 4.49116 1.90293)
(3.99057 4.798 2.31953)
(-0.174693 6.2339 -0.398662)
(-0.693324 2.11474 0.720925)
(-0.830141 1.99523 1.18493)
(-0.357548 2.12776 0.729743)
(-0.518825 1.85623 1.35563)
(0.748783 0.997183 1.0113)
(3.9805 2.3069 3.77381)
(3.63401 3.70878 2.32964)
(2.06214 5.96264 0.354693)
(0.737433 0.996879 -2.03185)
(0.2535 0.0884768 -2.02209)
(0.222645 -0.701756 -1.47977)
(0.273705 -0.382573 -2.07653)
(0.622834 -0.65446 -1.93138)
(-0.104696 -0.946052 -1.31956)
(0.923238 0.814997 2.21929)
(2.90293 -1.37774 1.94523)
(0.664659 2.72987 0.709267)
(0.328339 0.339219 -1.8201)
(0.652245 0.395828 -2.00436)
(0.593061 0.151175 -1.94745)
(0.140744 -0.364636 -1.10913)
(-0.20719 -0.319572 -0.770118)
(-0.0724716 -0.0779316 0.114478)
(-0.543917 -0.174714 -0.142176)
(0.514015 -0.184202 0.184278)
(0.451732 1.0961 0.185202)
(1.01285 -1.57549 0.661149)
(-0.0991302 -0.105541 -2.91463)
(0.0412759 0.191239 -3.18591)
(-0.0100753 -0.00516881 -3.11729)
(-0.0793783 -0.0457499 -3.23955)
(0.192296 0.0997003 -3.03848)
(-0.023869 0.00618978 -2.17844)
(0.193417 -0.277966 -0.843644)
(-0.64074 -0.330253 -0.357836)
(-0.416575 -0.297165 -0.660743)
(1.67294 0.797474 -1.01558)
(3.30251 -2.12555 -0.806981)
(-1.08065 2.91065 -0.0181781)
(-1.32103 2.59355 -0.0328566)
(-0.572288 3.3363 0.134803)
(-0.770228 3.32821 0.0990164)
(-1.13503 2.86492 -0.16995)
(0.00951551 3.59838 0.502228)
(-0.273291 3.59729 0.364538)
(0.175395 3.45187 0.518968)
(-1.34369 2.92432 0.087345)
(-0.580862 4.5288 1.05755)
(-0.102443 4.20858 1.02168)
(0.0849062 4.20454 0.371826)
(-0.319159 3.76008 0.375698)
(-0.483141 3.05999 0.208179)
(0.946573 4.61971 2.68868)
(0.892759 4.37013 2.29989)
(0.884187 4.57735 2.01144)
(1.97811 3.98727 1.55668)
(0.437912 4.40921 -0.231324)
(-0.268314 3.93832 0.141932)
(0.36665 4.67702 2.42189)
(0.828412 4.38598 2.339)
(1.11515 4.17192 2.80347)
(2.44624 4.15141 3.10297)
(3.89538 3.94787 2.6334)
(2.16982 5.32249 0.417846)
(0.113362 4.84648 0.0527865)
(-0.329471 3.80713 1.28277)
(0.441687 3.83229 1.42004)
(0.829105 3.73569 1.6133)
(0.900311 2.84224 3.84218)
(3.64399 3.46178 2.76444)
(3.80519 4.44836 1.51479)
(4.30979 4.50863 2.48032)
(0.138914 6.30753 0.0451315)
(-0.198829 2.28213 0.56831)
(-0.676125 2.0745 0.795416)
(-0.253673 1.90224 1.0123)
(-0.221664 1.95673 0.571426)
(-0.106606 1.76909 1.7113)
(1.98846 0.702488 1.85476)
(3.83644 2.53108 3.79812)
(3.57731 3.96559 2.20923)
(2.31771 5.86926 0.546841)
(0.689519 1.0815 -1.70833)
(0.855137 0.924278 -2.12848)
(0.326154 -0.0456708 -2.15552)
(0.253679 -0.786313 -1.72731)
(0.183573 -0.3564 -2.13299)
(0.501001 -0.799954 -1.99234)
(-0.306016 -1.03215 -1.24761)
(1.2552 0.5175 2.07544)
(2.54348 -1.05254 2.31593)
(0.818199 2.65822 0.564186)
(0.180179 0.200697 -1.91471)
(0.510185 0.362887 -2.01947)
(0.811773 0.416204 -2.20848)
(0.621151 0.10924 -1.98523)
(0.121417 -0.397945 -1.07254)
(-0.1735 -0.371422 -0.832472)
(-0.00119493 -0.109218 0.170191)
(-0.475304 -0.179679 0.0262017)
(0.431016 -0.060674 -0.158094)
(-0.239422 1.57517 0.961924)
(1.00052 -1.79116 0.842599)
(-0.154317 -0.261669 -2.71591)
(-0.0477008 -0.0944182 -2.94829)
(0.0827727 0.201983 -3.28756)
(0.0362775 0.00496913 -3.26611)
(-0.03847 -0.0443502 -3.32939)
(0.226775 0.0685536 -3.04381)
(-0.00849982 -0.0373251 -2.1889)
(0.181931 -0.308988 -0.856887)
(-0.653883 -0.327153 -0.335334)
(-0.443068 -0.247771 -0.663579)
(1.61354 0.757888 -1.06016)
(3.08871 -2.05861 -0.89906)
(-1.40352 2.2202 -0.0291657)
(-0.531312 3.19746 0.175509)
(-0.671177 3.01241 0.149375)
(-1.38575 2.49498 0.0572318)
(-0.425085 3.25799 0.391927)
(-0.236742 3.38157 0.316931)
(-0.42936 3.29362 0.190838)
(-0.962867 2.85781 -0.150193)
(-0.291955 3.6857 0.49347)
(-0.332831 3.61626 0.325711)
(-0.452415 3.49013 0.229358)
(-0.138187 3.45099 0.422047)
(-1.41329 2.89649 0.149433)
(-0.110169 4.56696 1.35242)
(0.30363 4.38583 1.35735)
(0.678889 4.13093 1.25144)
(0.573945 4.17711 0.675262)
(0.242227 3.63368 0.644578)
(-0.706676 3.23457 -0.0467539)
(-0.0877841 4.88802 2.08304)
(-0.087339 4.68085 2.05944)
(1.556 4.16583 2.19162)
(1.41159 4.37826 1.87155)
(2.03885 3.80707 1.5471)
(0.809221 4.49933 -0.238584)
(-0.447954 3.90384 0.150419)
(-0.28059 4.89783 2.29958)
(-0.0275953 4.57699 2.15872)
(1.57348 4.04457 2.49915)
(1.9847 3.85327 3.01574)
(3.21887 3.69378 3.03132)
(3.66866 4.43473 2.26218)
(2.40499 5.18792 0.593792)
(0.195323 5.08608 -0.0119788)
(0.210569 3.90026 1.28325)
(0.757661 3.78895 1.19529)
(0.818134 3.66957 1.67976)
(0.669979 3.574 1.78243)
(1.86873 2.83807 3.4515)
(3.28081 3.79006 2.93349)
(4.49823 4.22283 1.40952)
(4.7928 4.33553 2.28061)
(0.70007 6.34232 0.568892)
(0.197963 2.41746 0.881998)
(0.102673 2.21759 0.550423)
(-0.44622 1.87669 0.681915)
(-0.0747755 1.70894 0.634866)
(-0.0582756 1.72535 0.78506)
(0.385756 1.521 2.33266)
(3.45994 0.0504734 1.75012)
(4.16637 2.43568 3.13033)
(3.73632 4.05295 1.96423)
(2.64213 5.6911 0.409628)
(0.0146176 1.34821 -1.09984)
(0.948185 1.10441 -1.97719)
(0.951343 0.837276 -2.10139)
(0.281138 -0.301312 -2.20191)
(0.363831 -0.939596 -1.90413)
(0.11985 -0.409408 -2.08312)
(0.401761 -0.803247 -1.9599)
(-0.441008 -0.950687 -1.25072)
(1.27264 0.364364 1.59698)
(2.11313 -0.563746 1.96418)
(0.79739 2.52696 0.634749)
(-0.217012 -0.0304589 -1.51525)
(0.312053 0.207612 -2.09465)
(0.716081 0.376819 -2.24425)
(0.911883 0.396121 -2.389)
(0.619047 0.0439347 -1.95058)
(0.123557 -0.413913 -1.09607)
(-0.138597 -0.430288 -0.867205)
(0.0674739 -0.158281 0.279606)
(-0.458801 -0.134109 0.183531)
(0.382092 0.0240575 -0.339867)
(-0.500806 1.87049 1.27135)
(0.881771 -1.83226 0.9136)
(0.0544185 -0.168499 -2.92868)
(-0.142467 -0.26037 -2.7182)
(0.00671728 -0.0847058 -2.98527)
(0.118481 0.217356 -3.39539)
(0.0771419 0.00879422 -3.41467)
(0.0101832 -0.0547439 -3.41226)
(0.257885 0.0342212 -3.05093)
(0.00705397 -0.0814759 -2.20193)
(0.165933 -0.336281 -0.873513)
(-0.687129 -0.310061 -0.275509)
(-0.474908 -0.196786 -0.661357)
(1.59274 0.712591 -1.12943)
(2.87017 -1.92471 -0.894621)
(-1.32097 2.05305 0.0099612)
(-1.08014 2.62851 0.103439)
(-1.23198 2.30093 -0.0687246)
(-0.679854 3.19399 0.359532)
(-0.455621 3.22741 0.192786)
(-0.598926 2.93228 0.141947)
(-0.906524 2.64209 0.0941895)
(-0.40559 3.30413 0.551805)
(-0.149139 3.30148 0.408886)
(0.146289 3.44224 0.329525)
(-0.340483 3.28662 0.0509883)
(-0.577466 2.94293 -0.162233)
(-0.380835 3.83279 0.742808)
(0.215074 3.76798 0.489664)
(0.151774 3.62689 0.427647)
(0.970312 3.35336 0.360012)
(-0.0531412 3.50259 0.390982)
(-1.23111 3.05967 0.0916188)
(-0.110241 4.53778 1.39227)
(0.343669 4.44668 1.40416)
(0.840833 4.17775 1.36343)
(0.954705 4.07489 1.20028)
(0.830067 4.12647 0.622434)
(0.295525 3.61186 0.706587)
(-1.06435 3.29043 -0.00393322)
(-0.305481 5.11259 1.43755)
(-0.0693755 4.78892 1.99692)
(0.894435 4.45928 2.36745)
(1.16826 4.23866 2.25725)
(2.00922 3.9101 2.02239)
(2.60879 3.60689 1.6153)
(0.797736 4.59119 -0.308024)
(-0.348221 3.92654 0.164681)
(-0.261196 4.87528 1.96207)
(0.248241 4.75784 2.19734)
(0.343345 4.49042 2.31945)
(1.60171 3.94511 2.44853)
(2.53657 3.61773 3.10746)
(3.4346 3.66214 2.90454)
(3.78943 4.5229 2.02067)
(2.78909 4.67701 1.00249)
(0.319985 5.142 0.0210293)
(0.0903422 3.80402 1.86928)
(0.661648 3.95998 1.13784)
(0.685099 3.81698 1.25918)
(0.578676 3.7629 1.68695)
(1.02838 3.45552 1.74689)
(2.47705 2.71063 3.14739)
(3.60182 3.5145 2.80477)
(4.84101 3.98354 1.81003)
(4.96448 4.2579 1.95918)
(1.20984 6.18714 0.751175)
(-0.244612 2.79716 0.974374)
(0.312151 2.44265 0.689645)
(0.289667 2.07637 0.453144)
(-0.257252 1.81536 0.326572)
(0.167949 1.5889 0.286287)
(0.118954 1.55281 0.850397)
(0.319819 1.51629 2.85063)
(3.67431 -0.0181185 1.80892)
(4.30891 2.4675 1.97548)
(3.85492 4.16369 1.93335)
(2.92824 5.54623 0.419315)
(0.21729 1.38321 -0.807703)
(0.832386 1.26577 -1.53165)
(1.08399 1.05624 -2.16646)
(0.942374 0.892972 -1.8947)
(0.251879 -0.262324 -2.09542)
(0.178201 -0.848494 -2.04762)
(0.0250443 -0.39133 -1.82849)
(0.245261 -0.810941 -1.73032)
(-0.633055 -0.797527 -1.2461)
(0.945259 0.433633 1.19725)
(1.64821 0.171623 1.56206)
(0.725228 2.58577 0.552359)
(-0.200206 -0.112341 -1.26321)
(-0.122077 0.0257134 -1.63121)
(0.42577 0.262132 -2.27941)
(0.961334 0.392122 -2.42273)
(0.967362 0.391244 -2.41207)
(0.596921 -0.00768652 -1.84554)
(0.109905 -0.451878 -1.12231)
(-0.140809 -0.494012 -0.853187)
(0.119798 -0.217873 0.392708)
(-0.47019 -0.0786757 0.298283)
(0.314192 0.0721135 -0.385722)
(-0.561874 1.83954 1.43623)
(0.660105 -1.78077 0.893115)
(0.264048 -0.166166 -3.02984)
(0.0585064 -0.179599 -2.91077)
(-0.121003 -0.25942 -2.72542)
(0.0582623 -0.07611 -3.02923)
(0.149436 0.236991 -3.5062)
(0.114507 0.0110825 -3.55289)
(0.0575315 -0.0723377 -3.48447)
(0.285863 -0.00245021 -3.06703)
(0.0235863 -0.128124 -2.22355)
(0.146691 -0.359919 -0.892479)
(-0.70555 -0.290529 -0.242662)
(-0.49706 -0.141076 -0.658752)
(1.61028 0.666294 -1.19945)
(2.64423 -1.77966 -0.829186)
(-1.09405 1.98587 0.116283)
(-1.08252 2.43828 -0.0186516)
(-1.28751 2.10754 -0.0654301)
(-0.476701 2.86893 0.302441)
(-0.729323 2.65851 0.20905)
(-1.0414 2.34526 -0.0226423)
(-0.724155 3.20435 0.517828)
(-0.193319 3.28208 0.360815)
(-0.239678 3.15484 0.196313)
(-0.386407 2.89103 0.0660227)
(-0.799959 2.60809 0.0521022)
(-0.515249 3.22575 0.685053)
(-0.209308 3.25897 0.50615)
(0.217835 3.35207 0.392096)
(0.337701 3.40765 0.258012)
(-0.17449 3.33746 0.020283)
(-0.373936 2.98565 -0.178906)
(-0.247402 3.86842 0.937809)
(-0.131066 3.80295 0.761062)
(0.489526 3.71901 0.564873)
(0.513395 3.51329 0.5026)
(0.851211 3.26383 0.397948)
(0.079365 3.43133 0.324167)
(-1.06017 3.24734 0.0591338)
(-0.125216 4.34802 1.41521)
(0.149191 4.46675 1.41854)
(0.996911 4.24506 1.5047)
(1.35102 4.06048 1.15783)
(0.740177 4.12455 1.00123)
(1.0354 3.93592 0.412736)
(0.458178 3.70324 0.710591)
(-0.67088 3.45253 -0.0724365)
(-0.388679 4.88546 1.63174)
(-0.000784263 5.02346 1.66966)
(0.461214 4.78727 2.17774)
(0.752137 4.2983 2.26602)
(2.14044 3.80326 2.42478)
(2.54462 3.56679 2.11445)
(2.55651 3.68396 1.70318)
(0.744789 4.47414 -0.0283084)
(-0.445439 3.97763 0.110835)
(-0.117314 4.98083 1.98869)
(-0.0655327 4.88311 2.04149)
(0.118377 4.66252 2.1626)
(1.24738 4.12 2.66845)
(1.87943 3.822 2.59373)
(3.00923 3.26753 2.99326)
(3.65063 3.72545 2.67338)
(4.067 4.2942 1.58959)
(2.96974 4.39964 0.54234)
(0.689917 4.9965 0.120643)
(0.337558 3.97705 1.88933)
(0.807193 3.88954 1.75749)
(0.134802 3.95755 1.44784)
(0.662769 3.8061 1.38924)
(1.00443 3.70133 1.60573)
(1.9414 3.0313 1.97915)
(2.84946 2.7662 2.78649)
(3.76621 3.31908 2.7446)
(5.22101 3.63555 1.89126)
(5.39047 3.69317 0.884992)
(2.07554 5.67114 1.09448)
(-0.0826773 3.33031 0.874573)
(0.0344303 2.74206 0.726651)
(0.54988 2.30751 0.467644)
(0.324194 1.93112 0.412883)
(-0.067445 1.68908 0.423187)
(0.490009 1.32687 0.516699)
(0.245653 1.3372 1.27978)
(0.944963 1.31651 2.69798)
(3.29659 0.418511 2.28966)
(4.20646 2.69395 1.70076)
(3.83246 4.378 1.6483)
(3.52252 5.29504 0.468947)
(-0.29327 0.684139 -0.182563)
(0.580253 1.42285 -1.30913)
(1.13593 1.17027 -1.86561)
(1.11138 0.963832 -2.2994)
(0.599085 0.735594 -1.77928)
(0.0913413 -0.356048 -1.91395)
(0.0617226 -0.791182 -1.88617)
(-0.10793 -0.32046 -1.46747)
(0.178445 -0.773625 -1.45056)
(-0.638778 -0.677555 -1.27703)
(0.882542 0.388386 0.915235)
(1.38438 0.48031 1.4632)
(0.754671 2.48773 0.509178)
(-0.0161674 0.0447132 -1.40748)
(-0.18944 -0.11585 -1.23508)
(0.00494883 0.0876977 -1.72703)
(0.552466 0.309588 -2.40622)
(1.14935 0.347376 -2.50352)
(0.950365 0.357991 -2.29249)
(0.563437 -0.0463903 -1.69237)
(0.10738 -0.470127 -1.10235)
(-0.170741 -0.547566 -0.801884)
(0.16374 -0.287432 0.471945)
(-0.499782 0.00670112 0.399698)
(0.217081 0.140646 -0.381189)
(-0.546122 1.73471 1.44198)
(0.444088 -1.71743 0.788389)
(0.300288 -0.34259 -2.75598)
(0.271365 -0.171115 -3.04149)
(0.0595403 -0.186421 -2.89502)
(-0.092537 -0.257979 -2.74262)
(0.0975122 -0.0659169 -3.08383)
(0.180452 0.260157 -3.61256)
(0.146479 0.00946752 -3.67441)
(0.0979765 -0.0943862 -3.54298)
(0.308998 -0.0400234 -3.09841)
(0.040695 -0.178271 -2.2591)
(0.124105 -0.381332 -0.912319)
(-0.736608 -0.287501 -0.210933)
(-0.516839 -0.0825762 -0.652656)
(1.58842 0.607526 -1.25851)
(2.44071 -1.62766 -0.730549)
(-1.03793 2.33119 0.049012)
(-0.941685 2.10707 0.0416482)
(-0.552114 2.61031 0.151844)
(-0.78189 2.4829 0.00108936)
(-1.1659 2.16524 -0.06569)
(-0.101075 3.04354 0.263599)
(-0.351437 2.8764 0.277815)
(-0.499923 2.63608 0.18723)
(-1.05943 2.29331 -0.00093533)
(-0.628413 3.11607 0.632717)
(-0.0577409 3.28527 0.478729)
(0.165525 3.33354 0.428677)
(0.104168 3.08317 0.0879927)
(-0.194809 2.94892 0.0169726)
(-0.868238 2.57359 0.0421541)
(-0.445614 3.1608 0.857797)
(-0.288965 3.2556 0.736123)
(0.476572 3.3181 0.556295)
(0.543407 3.32744 0.384126)
(0.573747 3.2533 0.178001)
(0.13386 3.34848 0.0167841)
(-0.233961 3.03755 -0.107366)
(-0.390465 3.84522 1.09803)
(-0.133676 3.8932 1.0139)
(0.200048 3.7787 0.759736)
(0.688642 3.66147 0.586311)
(1.00304 3.45842 0.536437)
(1.21022 3.23817 0.351158)
(0.349257 3.39382 0.320167)
(-0.769879 3.36126 0.0493278)
(-0.400313 4.31059 1.48328)
(0.0200612 4.327 1.42154)
(0.637427 4.37007 1.43385)
(0.8221 4.37762 1.34638)
(1.22059 4.00859 1.24058)
(1.78899 3.66338 1.35004)
(1.30383 3.74146 0.436213)
(0.203736 3.82529 0.676864)
(-0.837091 3.63236 -0.17478)
(-0.28537 4.91742 1.77506)
(0.0878917 5.01387 1.62801)
(0.329633 4.85477 1.98474)
(0.663145 4.63466 2.21346)
(1.71901 4.05155 2.41057)
(2.41365 3.56327 2.40911)
(2.72617 3.25285 2.12778)
(2.56334 3.73362 1.47739)
(1.3195 4.15694 0.147738)
(-0.320228 4.09565 0.21231)
(-0.316648 5.10836 2.16517)
(0.497554 4.80674 2.20171)
(0.164017 4.8298 2.22094)
(1.05738 4.4626 2.17903)
(1.32012 4.05679 2.44518)
(2.2299 3.8518 2.69194)
(3.11588 3.25277 2.91316)
(4.0643 3.74472 2.13725)
(4.08047 4.08608 1.41956)
(2.14391 4.63734 0.447688)
(0.839123 4.80347 0.180099)
(0.0565503 3.81655 1.95162)
(0.521393 3.96812 2.02799)
(0.645895 3.88645 1.83496)
(0.734034 3.82125 1.63229)
(1.17367 3.659 1.35965)
(1.23719 3.55249 1.71417)
(2.33184 2.82131 2.10037)
(2.86877 2.962 2.65345)
(4.07237 3.00152 2.77022)
(5.34972 3.58414 1.87449)
(4.81961 3.94837 0.450139)
(2.75149 5.26267 1.17946)
(0.853913 3.40494 0.635082)
(-0.0115966 3.27788 0.770979)
(0.111341 2.57523 0.714475)
(0.538034 2.19465 0.589292)
(0.355497 1.92148 0.422801)
(0.148125 1.61239 0.325871)
(1.01126 1.05871 0.481728)
(0.589745 1.07724 1.70399)
(1.8077 0.854842 2.18667)
(2.95214 0.989472 3.11282)
(4.66522 3.02206 1.16263)
(3.82743 4.43346 1.47847)
(3.9434 5.00293 0.391789)
(0.145111 0.68692 0.262057)
(-0.267434 0.856626 -0.125645)
(0.864824 1.49455 -1.70415)
(1.17074 1.13025 -2.09234)
(1.10188 0.947186 -2.33583)
(0.383404 0.768956 -1.60556)
(-0.12096 -0.299257 -1.67579)
(-0.120463 -0.68053 -1.55562)
(-0.174908 -0.181282 -0.98481)
(0.139042 -0.59018 -1.05383)
(-0.654724 -0.677981 -1.11746)
(1.00554 0.242263 0.854678)
(1.33834 0.755261 1.222)
(0.841545 2.34374 0.465131)
(-0.0713713 -0.0334919 -1.41566)
(0.0217722 0.0328793 -1.38757)
(-0.167079 -0.111452 -1.24662)
(0.185698 0.148808 -1.82787)
(0.713702 0.326871 -2.42851)
(1.31902 0.318858 -2.3822)
(0.882863 0.347833 -2.11825)
(0.48885 -0.0880867 -1.52486)
(0.0858216 -0.501891 -1.00948)
(-0.186919 -0.629817 -0.673384)
(0.176225 -0.346907 0.509895)
(-0.507826 0.0857548 0.505946)
(-0.00511045 0.394033 -0.502876)
(-0.529198 1.68034 1.32811)
(0.265604 -1.66617 0.68812)
(0.161481 -0.642837 -2.54468)
(0.345692 -0.346335 -2.78013)
(0.276594 -0.176978 -3.05226)
(0.0748023 -0.201719 -2.88679)
(-0.0569904 -0.254571 -2.76367)
(0.122398 -0.0454356 -3.14759)
(0.211144 0.283939 -3.70473)
(0.17444 0.00954075 -3.77046)
(0.128145 -0.118399 -3.58393)
(0.324892 -0.0762163 -3.14796)
(0.0566581 -0.230612 -2.30999)
(0.10122 -0.402665 -0.932915)
(-0.782741 -0.242452 -0.118578)
(-0.559371 -0.0355007 -0.64663)
(1.60927 0.482717 -1.41789)
(2.2577 -1.46537 -0.643737)
(-1.19592 1.83713 0.0650644)
(-0.493831 2.5374 0.290399)
(-1.00544 2.33855 0.0470642)
(-0.805497 2.15571 -0.000624301)
(-0.259711 2.69198 0.262139)
(-0.300541 2.64027 0.165546)
(-0.66563 2.46368 0.0691227)
(-0.983691 2.23566 -0.0813502)
(-0.270834 3.09523 0.438268)
(0.00880933 3.03662 0.278943)
(-0.0623526 2.84512 0.242918)
(-0.157827 2.70414 0.208438)
(-0.749148 2.37811 -0.0231855)
(-0.611947 3.03415 0.631097)
(-0.215228 3.31155 0.705775)
(0.5021 3.2963 0.433226)
(0.299746 3.27848 0.420991)
(0.366009 3.05607 -0.00625751)
(-0.0894604 2.93472 -0.0195272)
(-0.869305 2.56993 0.000123586)
(-0.507155 3.23421 1.04863)
(-0.140834 3.24624 0.854948)
(0.293859 3.31385 0.701856)
(0.727245 3.34497 0.508167)
(0.777003 3.24117 0.354438)
(0.74213 3.2081 0.168558)
(0.315262 3.40523 0.0286552)
(-0.0926013 3.01447 0.0543267)
(-0.45341 3.9211 1.19955)
(-0.103604 3.82585 1.11719)
(0.231594 3.85581 1.05172)
(0.906067 3.7866 0.744768)
(1.3243 3.5799 0.58749)
(1.35818 3.41009 0.527513)
(1.22073 3.18493 0.205811)
(0.531533 3.39178 0.277545)
(-0.212002 3.51099 -0.123599)
(-0.14055 4.19463 1.59885)
(0.0350789 4.26262 1.51237)
(0.23443 4.36546 1.49574)
(0.773293 4.36788 1.34785)
(1.10969 4.30161 1.41568)
(1.63017 3.90532 1.3331)
(1.90216 3.48064 1.17267)
(1.60595 3.60166 0.346611)
(0.875042 3.83631 0.687997)
(-0.504184 3.81495 -0.136744)
(-0.128932 4.82049 1.82781)
(0.0130047 4.88052 1.74385)
(0.2554 5.07031 1.77477)
(0.58293 4.7813 2.00364)
(1.14968 4.25775 2.33745)
(2.69022 3.20795 2.67887)
(2.65454 3.41604 2.36424)
(3.06407 2.9483 1.93082)
(2.31672 3.83121 1.14502)
(1.29368 3.99467 0.349771)
(-0.329847 4.12154 0.251235)
(0.125159 4.94249 2.0635)
(0.186092 4.97617 2.25411)
(0.0571643 4.69416 2.31316)
(0.743011 4.32594 2.49012)
(1.36065 4.03458 2.41039)
(2.05195 3.72073 2.51407)
(2.50605 3.51527 2.96473)
(3.48761 3.33033 2.66656)
(4.34648 3.68046 1.90083)
(3.82955 3.95993 1.65716)
(2.18753 4.38745 0.605588)
(1.0467 4.62903 0.194589)
(0.16914 3.89212 2.28737)
(0.469796 3.8614 2.012)
(0.747322 3.89106 2.0747)
(0.677742 3.77147 1.92758)
(1.36824 3.9019 1.55279)
(2.15009 3.56335 1.36574)
(2.37521 2.9671 2.06189)
(1.94406 3.09326 2.2709)
(3.50397 2.62329 2.29145)
(4.62363 2.63705 2.41978)
(5.42541 3.52301 1.96216)
(4.22116 4.31678 0.482862)
(2.84541 5.2231 1.02933)
(0.738872 2.80334 0.295789)
(0.816501 3.36859 0.516812)
(0.103316 3.24191 0.560034)
(0.279393 2.51181 0.609128)
(0.686701 2.15224 0.656897)
(0.741643 1.89263 0.511546)
(1.17883 1.33284 0.251795)
(1.4834 0.597686 0.96899)
(1.78247 0.261194 1.42574)
(2.28181 0.389378 1.91912)
(3.03035 1.13186 3.0161)
(5.34081 2.79161 1.08207)
(3.79392 4.58121 1.26863)
(4.35462 4.65289 0.238418)
(0.172139 0.490663 0.153819)
(0.287836 0.774751 0.404503)
(-0.0696463 1.04386 -0.105403)
(1.211 1.47154 -1.92727)
(1.19737 1.0431 -2.17685)
(0.903453 0.777286 -2.38517)
(0.214274 0.796359 -1.3254)
(-0.272676 -0.162224 -1.31891)
(-0.165897 -0.490644 -0.996785)
(-0.0871833 0.0649541 -0.380222)
(0.13079 -0.283359 -0.610607)
(-0.71044 -0.371495 -1.09146)
(1.5346 -0.490611 0.694923)
(1.52752 0.611722 0.892916)
(0.869195 2.18974 0.357609)
(-0.0895732 -0.0980125 -1.63292)
(-0.0219109 -0.0437139 -1.34636)
(0.0786685 0.0264559 -1.43014)
(-0.108722 -0.113349 -1.35801)
(0.362395 0.197839 -1.98987)
(0.964713 0.300232 -2.36238)
(1.45102 0.292544 -2.15978)
(0.759263 0.353809 -1.93717)
(0.378726 -0.097696 -1.35907)
(0.0522895 -0.514008 -0.906237)
(-0.20149 -0.731641 -0.515271)
(0.117134 -0.364779 0.577786)
(-0.529839 0.166584 0.606721)
(-0.160056 0.711991 -0.729208)
(-0.526526 1.67917 1.2524)
(0.144027 -1.72014 0.419449)
(0.0445751 -0.636015 -2.56168)
(0.211606 -0.647323 -2.54744)
(0.387314 -0.352777 -2.80436)
(0.279555 -0.182085 -3.06288)
(0.0816553 -0.208226 -2.88812)
(-0.0182187 -0.252387 -2.78511)
(0.139481 -0.0141 -3.21294)
(0.235273 0.301255 -3.76876)
(0.194591 -0.00240758 -3.83681)
(0.146591 -0.141829 -3.60909)
(0.336194 -0.110788 -3.21634)
(0.069582 -0.284288 -2.3742)
(0.0762308 -0.42696 -0.95386)
(-0.801103 -0.23159 -0.122602)
(-0.587552 0.0210514 -0.656315)
(1.65486 0.414366 -1.47668)
(2.08343 -1.28072 -0.632422)
(-0.992044 1.80943 -0.0134108)
(-0.980225 2.18604 0.12676)
(-1.10542 1.92031 0.0059677)
(-0.423206 2.54239 0.228062)
(-0.423497 2.54993 0.279294)
(-0.519878 2.42403 0.0282834)
(-0.540797 2.21488 -0.00990393)
(-0.514954 2.79456 0.250198)
(-0.131394 2.63522 0.226472)
(-0.107926 2.64614 0.177559)
(-0.0138701 2.55157 0.00642502)
(-0.759882 2.30891 -0.134841)
(0.0635263 3.17962 0.642471)
(0.277799 3.06484 0.424106)
(0.108126 3.0088 0.336962)
(0.219872 2.81267 0.091678)
(0.0206475 2.66327 0.0621441)
(-0.707074 2.37514 -0.0284018)
(-0.447964 3.03489 0.867353)
(-0.061863 3.20767 0.695472)
(0.280533 3.30082 0.670281)
(0.52173 3.29003 0.457299)
(0.579227 3.21037 0.325787)
(0.777535 3.00329 0.0128627)
(0.0970001 2.81703 -0.097482)
(-1.04095 2.58874 -0.00354117)
(-0.355851 3.28377 1.1024)
(-0.308036 3.27937 1.03769)
(0.0961882 3.32558 0.830598)
(0.702071 3.44247 0.724968)
(1.0525 3.28462 0.444158)
(1.2301 3.1659 0.30597)
(1.02655 3.197 0.150592)
(0.376872 3.40782 0.0563279)
(-0.0159954 3.00144 0.103082)
(-0.445099 3.84397 1.30842)
(-0.21192 3.93361 1.20374)
(0.449157 3.90206 1.16563)
(0.67871 3.82784 1.02869)
(1.2684 3.7731 0.790682)
(1.68855 3.50588 0.570385)
(1.58518 3.2977 0.485152)
(1.45288 3.13231 0.227212)
(0.876009 3.31769 0.29995)
(-0.0100465 3.58081 -0.161763)
(0.116558 4.1361 1.70501)
(0.0137146 4.18351 1.56817)
(0.301684 4.22548 1.52359)
(0.761984 4.4277 1.5213)
(1.04447 4.34613 1.44456)
(1.71018 3.9088 1.51925)
(2.19495 3.38124 1.46039)
(2.20503 3.31471 1.21272)
(1.588 3.62536 0.319366)
(0.667631 3.9595 0.630695)
(-0.26759 3.88601 -0.129898)
(0.10528 4.63915 1.84606)
(0.0544109 4.86296 1.80361)
(0.241705 4.91926 1.79866)
(0.232735 4.98052 1.89063)
(0.878231 4.6623 2.13748)
(1.46077 4.16757 2.29238)
(1.92395 3.62022 2.36033)
(3.2598 2.49066 2.58093)
(2.90055 3.12626 1.8065)
(2.2098 3.7903 0.886837)
(1.58298 3.88872 0.523569)
(0.0740663 4.09379 0.280676)
(0.466861 4.58104 2.19983)
(0.503294 4.92068 2.13591)
(0.285718 4.79827 2.34821)
(0.148146 4.61262 2.52638)
(1.4026 4.37922 1.73879)
(1.8051 3.85801 2.25664)
(2.90476 3.32697 2.54278)
(2.98288 3.07137 3.19861)
(4.21806 2.90494 2.31519)
(4.31728 3.70751 2.09655)
(3.48007 4.30092 1.50557)
(1.88791 4.49607 0.584505)
(0.910906 4.60325 0.0772403)
(-0.0345572 4.21998 1.85787)
(0.240537 3.97613 1.91967)
(0.765437 3.89963 2.03087)
(1.01711 3.77732 2.07656)
(1.47069 3.65851 2.10502)
(1.35008 4.04967 1.57772)
(1.64072 3.8749 1.58809)
(1.97729 3.43486 2.2713)