/*--------------------------------*- C++ -*----------------------------------*\
  =========                 |
  \\      /  F ield         | OpenFOAM: The Open Source CFD Toolbox
   \\    /   O peration     | Website:  https://openfoam.org
    \\  /    A nd           | Version:  7
     \\/     M anipulation  |
\*---------------------------------------------------------------------------*/
FoamFile
{
    version     2.0;
    format      ascii;
    class       volScalarField;
    location    "0.5";
    object      nut;
}
// * * * * * * * * * * * * * * * * * * * * * * * * * * * * * * * * * * * * * //

dimensions      [0 2 -1 0 0 0 0];

internalField   nonuniform List<scalar> 
18630
(
3.37755e-06
5.11852e-06
2.72424e-06
3.52709e-06
6.48045e-06
5.15238e-06
5.77902e-06
2.86136e-06
3.13204e-06
3.03609e-06
7.44092e-06
6.54691e-06
6.97638e-06
5.30937e-06
5.80381e-06
6.58245e-06
3.03401e-06
3.51845e-06
3.11908e-06
4.59025e-06
1.06648e-05
7.60514e-06
1.09752e-05
6.57534e-06
6.9299e-06
7.87561e-06
5.31725e-06
5.90961e-06
6.70647e-06
8.23745e-06
2.87951e-06
3.52187e-06
3.68706e-06
4.25646e-06
6.2934e-06
1.45717e-05
1.05091e-05
1.14721e-05
8.25066e-06
1.11161e-05
1.3251e-05
6.52516e-06
6.90782e-06
7.78441e-06
1.07401e-05
5.22659e-06
6.03739e-06
6.63797e-06
8.30642e-06
9.16772e-06
2.99295e-06
3.26317e-06
2.87191e-06
5.0511e-06
4.61943e-06
5.17305e-06
3.15536e-05
1.29515e-05
1.29148e-05
1.03814e-05
1.10786e-05
1.67299e-05
8.26598e-06
1.13574e-05
1.32822e-05
1.43097e-05
6.56367e-06
6.86013e-06
7.80272e-06
1.08819e-05
1.25322e-05
5.29172e-06
6.04491e-06
6.66012e-06
8.12643e-06
9.02607e-06
9.65959e-06
3.08347e-06
3.38331e-06
3.0424e-06
3.71216e-06
4.48685e-06
5.50269e-06
6.28224e-06
3.87197e-05
3.06958e-05
1.92658e-05
1.19696e-05
1.28745e-05
2.02643e-05
1.02003e-05
1.0833e-05
1.6487e-05
1.99048e-05
8.51818e-06
1.13885e-05
1.33055e-05
1.43336e-05
1.55123e-05
6.55171e-06
6.79454e-06
7.80602e-06
1.10126e-05
1.26207e-05
1.34961e-05
5.37918e-06
6.07201e-06
6.66928e-06
8.03518e-06
8.92866e-06
9.5463e-06
1.05616e-05
3.02379e-06
3.25375e-06
2.82124e-06
4.10194e-06
4.54422e-06
5.12284e-06
5.77012e-06
5.94315e-06
4.27917e-05
4.02372e-05
3.35399e-05
3.07842e-05
1.90016e-05
2.63745e-05
1.05735e-05
1.30083e-05
2.03065e-05
2.16248e-05
1.01233e-05
1.09508e-05
1.64883e-05
1.9868e-05
2.11598e-05
8.61586e-06
1.14192e-05
1.33805e-05
1.44082e-05
1.54729e-05
1.68831e-05
6.58093e-06
6.76596e-06
7.81517e-06
1.08052e-05
1.27038e-05
1.34711e-05
1.47543e-05
5.31597e-06
5.97915e-06
6.73788e-06
8.08071e-06
8.9283e-06
9.57062e-06
1.05751e-05
1.12095e-05
2.91844e-06
3.05615e-06
3.05303e-06
3.6285e-06
4.59252e-06
5.1347e-06
5.71173e-06
5.83957e-06
5.84432e-06
3.18448e-05
4.00821e-05
4.31642e-05
4.24153e-05
3.48309e-05
3.45129e-05
3.07258e-05
1.96723e-05
2.61528e-05
2.65985e-05
9.80782e-06
1.24216e-05
2.04427e-05
2.17826e-05
2.35749e-05
1.11521e-05
1.08841e-05
1.65443e-05
1.99049e-05
2.12657e-05
2.19277e-05
8.43744e-06
1.13641e-05
1.33489e-05
1.44576e-05
1.56026e-05
1.6795e-05
1.83779e-05
6.58614e-06
6.75965e-06
7.81527e-06
1.08804e-05
1.27017e-05
1.34305e-05
1.47866e-05
1.57414e-05
5.44774e-06
5.89747e-06
6.68063e-06
8.30852e-06
8.97319e-06
9.63685e-06
1.05444e-05
1.13578e-05
1.11929e-05
3.67509e-06
3.04583e-06
2.82582e-06
4.51028e-06
4.52691e-06
5.20627e-06
5.65121e-06
5.97524e-06
5.96336e-06
5.91118e-06
7.86438e-05
3.7961e-05
4.65664e-05
4.31772e-05
3.94419e-05
4.01118e-05
3.74326e-05
3.43263e-05
3.56497e-05
3.73937e-05
3.13486e-05
2.00617e-05
2.64265e-05
2.64912e-05
2.58866e-05
1.04299e-05
1.21474e-05
2.03018e-05
2.16962e-05
2.37464e-05
2.57264e-05
1.09979e-05
1.11748e-05
1.63817e-05
1.98536e-05
2.13714e-05
2.21209e-05
2.27524e-05
8.02568e-06
1.14057e-05
1.32373e-05
1.44528e-05
1.56185e-05
1.69458e-05
1.83973e-05
1.94551e-05
6.6577e-06
6.81557e-06
7.77785e-06
1.11594e-05
1.27564e-05
1.35068e-05
1.47273e-05
1.57472e-05
1.57904e-05
5.46165e-06
6.02824e-06
6.5823e-06
8.32262e-06
9.07378e-06
9.63047e-06
1.06644e-05
1.14225e-05
1.13524e-05
1.1132e-05
4.45472e-06
3.03689e-06
2.79659e-06
3.58331e-06
5.60674e-06
5.29046e-06
5.89397e-06
5.99776e-06
5.92302e-06
5.97529e-06
6.06252e-06
5.38735e-05
6.10295e-05
6.00283e-05
3.92407e-05
4.70859e-05
5.21823e-05
4.19549e-05
4.23982e-05
3.88278e-05
3.98009e-05
3.90145e-05
3.30013e-05
3.61344e-05
3.76353e-05
3.47596e-05
3.15204e-05
2.13027e-05
2.63751e-05
2.6363e-05
2.59245e-05
2.91949e-05
1.86294e-05
1.28423e-05
2.01541e-05
2.16115e-05
2.37179e-05
2.58641e-05
2.61722e-05
1.33047e-05
1.11166e-05
1.64063e-05
1.98309e-05
2.1368e-05
2.22148e-05
2.28086e-05
2.29836e-05
7.90291e-06
1.13563e-05
1.32222e-05
1.44906e-05
1.5611e-05
1.69786e-05
1.85301e-05
1.95141e-05
1.98345e-05
6.66561e-06
6.85116e-06
7.73175e-06
1.11638e-05
1.2922e-05
1.35387e-05
1.47288e-05
1.57466e-05
1.56587e-05
1.55823e-05
5.4152e-06
6.01476e-06
6.66842e-06
8.18013e-06
9.18768e-06
9.62658e-06
1.06909e-05
1.13505e-05
1.16345e-05
1.13165e-05
1.12721e-05
3.6304e-06
4.0782e-06
2.78423e-06
3.81396e-06
4.53985e-06
5.24199e-06
6.17838e-06
6.30124e-06
6.07669e-06
5.75331e-06
5.80955e-06
6.59789e-06
0.000120112
9.90549e-05
6.27473e-05
6.14649e-05
6.20558e-05
6.01013e-05
6.1772e-05
3.86225e-05
4.91335e-05
4.90815e-05
4.77834e-05
4.41967e-05
3.9217e-05
3.94059e-05
3.93129e-05
3.91466e-05
3.74456e-05
3.40847e-05
3.63733e-05
3.82672e-05
3.45776e-05
3.27979e-05
3.40108e-05
2.12e-05
2.66949e-05
2.62132e-05
2.58014e-05
2.91209e-05
3.04003e-05
1.38045e-05
1.41367e-05
2.09769e-05
2.15408e-05
2.37826e-05
2.59165e-05
2.62878e-05
2.61695e-05
1.20236e-05
1.1861e-05
1.65446e-05
1.99069e-05
2.15339e-05
2.21961e-05
2.28844e-05
2.29698e-05
2.30664e-05
7.88159e-06
1.14042e-05
1.32446e-05
1.44528e-05
1.56616e-05
1.69359e-05
1.85212e-05
1.95353e-05
1.99034e-05
1.96747e-05
6.72307e-06
6.79682e-06
7.74035e-06
1.10047e-05
1.29514e-05
1.35821e-05
1.48503e-05
1.58814e-05
1.57673e-05
1.54183e-05
1.55215e-05
5.30256e-06
6.07286e-06
6.63947e-06
8.38841e-06
9.11763e-06
9.70057e-06
1.0661e-05
1.1354e-05
1.13867e-05
1.15832e-05
1.13833e-05
1.15545e-05
3.02701e-06
4.40656e-06
3.65966e-06
3.55522e-06
4.93262e-06
5.20448e-06
5.62666e-06
6.84254e-06
6.56467e-06
6.36358e-06
5.72142e-06
5.86502e-06
6.42755e-06
0.000151566
0.000111856
9.88063e-05
8.17411e-05
8.97185e-05
5.37523e-05
5.55074e-05
6.05299e-05
5.54565e-05
5.64969e-05
6.45396e-05
5.47491e-05
3.88193e-05
4.52212e-05
5.17203e-05
4.69299e-05
4.79358e-05
4.30444e-05
4.18081e-05
3.89333e-05
3.95834e-05
3.93687e-05
3.93744e-05
3.68951e-05
3.29977e-05
3.76064e-05
3.85181e-05
3.47146e-05
3.25758e-05
3.31211e-05
3.79839e-05
2.14006e-05
2.63352e-05
2.5986e-05
2.56617e-05
2.90112e-05
3.0367e-05
2.97646e-05
1.27495e-05
1.45194e-05
2.14331e-05
2.16189e-05
2.38165e-05
2.61304e-05
2.63831e-05
2.61756e-05
2.61614e-05
1.15351e-05
1.15066e-05
1.69165e-05
2.0354e-05
2.16694e-05
2.23717e-05
2.29428e-05
2.30626e-05
2.3159e-05
2.29938e-05
7.76285e-06
1.14001e-05
1.31959e-05
1.44735e-05
1.5606e-05
1.69644e-05
1.85631e-05
1.95936e-05
1.97765e-05
1.97613e-05
1.94324e-05
6.72744e-06
6.81076e-06
7.75001e-06
1.10832e-05
1.28971e-05
1.36733e-05
1.48845e-05
1.59172e-05
1.59674e-05
1.54647e-05
1.54373e-05
1.59386e-05
5.27651e-06
5.97795e-06
6.71247e-06
8.24614e-06
9.17891e-06
9.66526e-06
1.07205e-05
1.13921e-05
1.13298e-05
1.14345e-05
1.16813e-05
1.1439e-05
1.17875e-05
2.82341e-06
2.91023e-06
4.86283e-06
4.93654e-06
4.6852e-06
5.09057e-06
6.01239e-06
6.00048e-06
5.73482e-06
6.63685e-06
5.94038e-06
5.76654e-06
6.47619e-06
6.64441e-06
0.000484204
0.000225263
0.00016925
0.000135651
0.000123459
0.000109337
9.31426e-05
0.000100905
7.32837e-05
8.37329e-05
7.54421e-05
6.61903e-05
5.88904e-05
6.0271e-05
6.26011e-05
6.17642e-05
6.08852e-05
5.38596e-05
5.04655e-05
4.37103e-05
4.82854e-05
4.76544e-05
4.90798e-05
4.7809e-05
4.58598e-05
4.98815e-05
4.19529e-05
3.89386e-05
3.96936e-05
3.94934e-05
3.9699e-05
3.87904e-05
4.03124e-05
3.33631e-05
3.75425e-05
3.90032e-05
3.45574e-05
3.26153e-05
3.30512e-05
3.42172e-05
3.70106e-05
2.18162e-05
2.58586e-05
2.58255e-05
2.56642e-05
2.89345e-05
3.03094e-05
2.97908e-05
2.98455e-05
1.3427e-05
1.30849e-05
1.95437e-05
2.19214e-05
2.3978e-05
2.61593e-05
2.65549e-05
2.62221e-05
2.62151e-05
2.54381e-05
1.15883e-05
1.16707e-05
1.63888e-05
2.05804e-05
2.19023e-05
2.23624e-05
2.30077e-05
2.3122e-05
2.3257e-05
2.31831e-05
2.26173e-05
7.67386e-06
1.12669e-05
1.31673e-05
1.44925e-05
1.56253e-05
1.69394e-05
1.86182e-05
1.97755e-05
1.98579e-05
1.95958e-05
1.95463e-05
1.98617e-05
6.73819e-06
6.85122e-06
7.77539e-06
1.12851e-05
1.30091e-05
1.37436e-05
1.48743e-05
1.59313e-05
1.58617e-05
1.56856e-05
1.5473e-05
1.60266e-05
1.63558e-05
5.27276e-06
5.92968e-06
6.59561e-06
8.22031e-06
8.98193e-06
9.67926e-06
1.0715e-05
1.14132e-05
1.14297e-05
1.12669e-05
1.15926e-05
1.19107e-05
1.16707e-05
1.20621e-05
2.72818e-06
3.03833e-06
2.72682e-06
5.78825e-06
6.08544e-06
5.66828e-06
6.04882e-06
6.28277e-06
6.11054e-06
5.61639e-06
7.66284e-06
5.90329e-06
6.04117e-06
6.30699e-06
6.78354e-06
0.000975502
0.000617664
0.00034492
0.000175481
0.00017898
0.000144308
0.000123691
0.000138637
0.000125158
0.000103556
9.25172e-05
0.000103818
0.000103959
8.16604e-05
8.01992e-05
7.46895e-05
7.7441e-05
6.78803e-05
6.57159e-05
6.36641e-05
6.65851e-05
6.47145e-05
6.36314e-05
6.33264e-05
5.2434e-05
5.13549e-05
5.15745e-05
5.06938e-05
4.8247e-05
5.24839e-05
4.84771e-05
4.90048e-05
4.57469e-05
4.4223e-05
4.78583e-05
4.74432e-05
3.90022e-05
3.94797e-05
3.9231e-05
3.95041e-05
3.90516e-05
3.88374e-05
3.49079e-05
3.74332e-05
3.85097e-05
3.88857e-05
3.43104e-05
3.24129e-05
3.30258e-05
3.42457e-05
3.40853e-05
3.37764e-05
2.29324e-05
2.51351e-05
2.51251e-05
2.56893e-05
2.89521e-05
3.03739e-05
2.97574e-05
2.98688e-05
2.95457e-05
1.21026e-05
1.32203e-05
2.02318e-05
2.15477e-05
2.38457e-05
2.6425e-05
2.65595e-05
2.63078e-05
2.62134e-05
2.55708e-05
2.50566e-05
1.15603e-05
1.16087e-05
1.62991e-05
2.03949e-05
2.19402e-05
2.232e-05
2.29903e-05
2.31264e-05
2.31975e-05
2.32094e-05
2.27492e-05
2.3033e-05
7.23943e-06
1.13032e-05
1.30705e-05
1.45926e-05
1.5682e-05
1.6955e-05
1.87422e-05
1.98555e-05
2.01949e-05
1.96358e-05
1.94087e-05
1.99974e-05
2.03727e-05
6.73056e-06
6.84409e-06
7.80154e-06
1.13324e-05
1.31459e-05
1.3771e-05
1.50551e-05
1.58459e-05
1.59332e-05
1.55337e-05
1.56249e-05
1.60278e-05
1.66014e-05
1.66767e-05
5.30028e-06
5.96145e-06
6.59275e-06
8.18816e-06
8.9498e-06
9.53068e-06
1.08996e-05
1.15216e-05
1.13646e-05
1.14325e-05
1.13874e-05
1.19685e-05
1.19803e-05
1.20777e-05
1.25103e-05
3.28621e-06
3.26919e-06
3.09562e-06
3.46465e-06
5.7186e-06
6.05307e-06
7.00569e-06
6.11773e-06
5.67999e-06
5.6694e-06
6.82559e-06
7.99693e-06
6.55104e-06
6.34329e-06
7.01572e-06
6.94595e-06
0.000771188
0.00101318
0.000736339
0.000577307
0.000347764
0.000219404
0.000263333
0.000193939
0.000141855
0.000151015
0.000129353
0.000105194
0.000130818
0.000114142
0.000105617
8.36222e-05
8.09924e-05
0.000101814
9.16622e-05
8.96318e-05
8.07914e-05
6.59253e-05
7.86886e-05
7.13889e-05
6.40463e-05
6.02991e-05
6.1466e-05
6.93494e-05
6.4835e-05
7.30987e-05
6.52432e-05
6.36715e-05
5.10106e-05
5.02546e-05
5.09434e-05
4.92816e-05
5.3795e-05
5.20542e-05
5.04208e-05
5.03706e-05
4.94634e-05
4.56298e-05
4.43265e-05
4.17969e-05
6.62321e-05
4.22611e-05
4.07188e-05
3.95828e-05
3.93582e-05
3.94389e-05
3.91427e-05
3.92872e-05
3.96854e-05
5.53181e-05
3.92649e-05
4.0052e-05
3.95073e-05
3.41689e-05
3.22581e-05
3.29949e-05
3.41622e-05
3.41889e-05
3.26499e-05
3.4256e-05
2.25366e-05
2.47644e-05
2.48305e-05
2.54391e-05
2.8977e-05
3.03056e-05
2.99257e-05
2.98407e-05
2.96231e-05
2.90057e-05
1.0884e-05
1.27632e-05
1.97534e-05
2.18232e-05
2.38843e-05
2.61402e-05
2.67549e-05
2.63168e-05
2.62811e-05
2.56475e-05
2.52234e-05
2.57154e-05
1.14114e-05
1.16075e-05
1.61361e-05
2.02795e-05
2.19542e-05
2.23634e-05
2.27883e-05
2.32345e-05
2.32459e-05
2.30938e-05
2.28154e-05
2.31993e-05
2.38389e-05
7.62219e-06
1.12619e-05
1.30193e-05
1.45784e-05
1.57999e-05
1.70187e-05
1.87348e-05
1.9969e-05
2.02323e-05
2.00409e-05
1.94577e-05
1.99113e-05
2.04288e-05
2.07674e-05
6.76629e-06
6.79954e-06
7.81607e-06
1.13109e-05
1.31916e-05
1.37708e-05
1.50398e-05
1.58943e-05
1.58616e-05
1.56401e-05
1.53937e-05
1.61338e-05
1.66107e-05
1.69116e-05
1.74919e-05
5.28215e-06
5.96113e-06
6.63131e-06
8.18481e-06
9.01905e-06
9.46237e-06
1.0792e-05
1.17104e-05
1.16643e-05
1.13996e-05
1.15935e-05
1.1805e-05
1.21729e-05
1.21916e-05
1.26746e-05
1.34082e-05
3.84039e-06
3.69863e-06
3.11663e-06
3.60928e-06
4.35752e-06
5.43947e-06
6.48992e-06
6.88008e-06
6.36858e-06
5.57783e-06
5.59169e-06
8.48601e-06
6.4177e-06
6.1997e-06
6.58641e-06
6.92214e-06
7.67997e-06
0.000371023
0.000792546
0.000896569
0.0010664
0.000757706
0.000486139
0.000557477
0.000332702
0.000206983
0.000168071
0.000216533
0.000229881
0.000135342
0.000112126
0.000151755
0.000130114
0.000126344
0.000112219
0.0001333
0.000106015
0.000104483
8.34118e-05
9.08735e-05
8.67695e-05
8.33047e-05
0.000101822
8.82564e-05
8.21715e-05
6.8743e-05
7.65004e-05
7.79291e-05
7.24134e-05
6.11793e-05
5.40019e-05
5.87038e-05
6.41948e-05
7.03109e-05
5.94886e-05
7.78527e-05
6.89379e-05
6.47291e-05
5.40342e-05
4.98687e-05
5.13089e-05
4.96651e-05
4.97291e-05
4.86331e-05
6.03064e-05
5.83024e-05
4.9866e-05
4.98326e-05
4.60512e-05
4.36503e-05
4.15364e-05
4.14026e-05
6.25872e-05
5.0355e-05
4.00114e-05
3.92603e-05
3.90184e-05
3.93014e-05
3.92651e-05
3.9206e-05
3.98756e-05
3.67305e-05
5.27787e-05
5.96846e-05
4.16984e-05
3.87678e-05
3.40255e-05
3.20762e-05
3.28746e-05
3.41834e-05
3.42856e-05
3.2749e-05
3.09043e-05
3.54364e-05
2.50472e-05
2.43012e-05
2.44585e-05
2.55379e-05
2.8935e-05
3.03416e-05
2.98866e-05
2.99875e-05
2.95649e-05
2.90351e-05
2.96139e-05
1.0689e-05
1.17958e-05
1.95468e-05
2.16602e-05
2.41854e-05
2.61377e-05
2.66641e-05
2.64199e-05
2.62751e-05
2.56654e-05
2.53139e-05
2.60252e-05
2.64231e-05
1.11229e-05
1.15957e-05
1.61933e-05
2.02468e-05
2.20285e-05
2.2364e-05
2.29202e-05
2.32804e-05
2.34335e-05
2.32155e-05
2.27198e-05
2.33693e-05
2.39765e-05
2.40696e-05
7.27567e-06
1.12603e-05
1.29939e-05
1.45785e-05
1.57779e-05
1.71323e-05
1.88029e-05
1.99572e-05
2.02497e-05
2.00201e-05
1.97518e-05
1.99815e-05
2.04624e-05
2.08322e-05
2.16759e-05
6.78547e-06
6.76616e-06
7.81606e-06
1.13464e-05
1.31831e-05
1.37835e-05
1.49665e-05
1.61335e-05
1.58795e-05
1.57689e-05
1.54718e-05
1.58748e-05
1.67289e-05
1.68156e-05
1.762e-05
1.88913e-05
5.2585e-06
5.85937e-06
6.60437e-06
8.20216e-06
8.96517e-06
9.60891e-06
1.07009e-05
1.17518e-05
1.16662e-05
1.14866e-05
1.1514e-05
1.19646e-05
1.21793e-05
1.22702e-05
1.26429e-05
1.35299e-05
1.47365e-05
3.45872e-06
2.91017e-06
3.11928e-06
3.63388e-06
4.38191e-06
5.13354e-06
5.73138e-06
6.60756e-06
6.39405e-06
6.43401e-06
5.64798e-06
5.76074e-06
7.46137e-06
6.2001e-06
8.20812e-06
6.70674e-06
7.4101e-06
8.52249e-06
0.000427902
0.000388077
0.000604252
0.000807772
0.000936136
0.000820145
0.000930198
0.000762716
0.000465291
0.000201465
0.000656476
0.000369878
0.00023577
0.000164426
0.000158193
0.000188074
0.000185773
0.000152902
0.000129733
0.000127582
0.000145276
0.000111184
0.000131325
0.00012383
0.000109488
0.00011067
0.000117304
0.00010438
0.000102135
8.14931e-05
9.70705e-05
7.50991e-05
6.96106e-05
0.000101551
9.35642e-05
8.72495e-05
7.509e-05
7.65277e-05
7.15479e-05
6.13559e-05
6.77839e-05
6.38361e-05
5.38972e-05
5.45416e-05
6.18331e-05
6.45703e-05
5.97327e-05
5.3545e-05
6.27936e-05
7.06232e-05
6.86103e-05
5.25436e-05
5.12353e-05
5.05633e-05
5.07015e-05
5.12457e-05
4.77791e-05
5.39329e-05
4.43851e-05
5.60757e-05
5.45721e-05
5.00997e-05
4.58405e-05
4.4014e-05
4.13174e-05
4.16383e-05
3.91076e-05
7.32531e-05
4.83642e-05
4.00294e-05
4.06655e-05
3.88453e-05
3.93888e-05
3.93851e-05
3.96235e-05
3.9722e-05
3.67732e-05
3.41214e-05
4.00334e-05
5.73674e-05
4.91819e-05
3.87641e-05
3.32866e-05
3.18434e-05
3.28377e-05
3.4105e-05
3.43409e-05
3.2821e-05
3.08342e-05
3.08255e-05
3.27397e-05
2.77184e-05
2.50063e-05
2.41332e-05
2.55304e-05
2.90842e-05
3.02682e-05
2.99316e-05
2.99357e-05
2.97783e-05
2.90398e-05
2.96496e-05
2.90334e-05
1.04587e-05
1.18338e-05
1.89765e-05
2.17306e-05
2.41923e-05
2.63471e-05
2.66868e-05
2.6855e-05
2.63379e-05
2.56789e-05
2.52632e-05
2.59951e-05
2.67061e-05
2.70774e-05
1.18796e-05
1.16852e-05
1.61161e-05
2.02457e-05
2.20978e-05
2.23272e-05
2.29615e-05
2.33038e-05
2.35991e-05
2.34455e-05
2.28141e-05
2.32548e-05
2.40894e-05
2.40598e-05
2.49067e-05
7.60711e-06
1.15268e-05
1.29198e-05
1.47184e-05
1.57908e-05
1.70977e-05
1.89441e-05
2.00132e-05
2.0259e-05
2.00177e-05
1.971e-05
2.00926e-05
2.06102e-05
2.07743e-05
2.18418e-05
2.33271e-05
6.75659e-06
6.77778e-06
7.77513e-06
1.14072e-05
1.32078e-05
1.38168e-05
1.50083e-05
1.60534e-05
1.61753e-05
1.57647e-05
1.58772e-05
1.59093e-05
1.65861e-05
1.71289e-05
1.74083e-05
1.88741e-05
2.05623e-05
5.2231e-06
5.8274e-06
6.52766e-06
8.20806e-06
8.94792e-06
9.535e-06
1.0804e-05
1.17012e-05
1.17321e-05
1.14765e-05
1.13054e-05
1.17606e-05
1.20617e-05
1.23369e-05
1.27545e-05
1.34753e-05
1.50613e-05
1.65034e-05
3.36751e-06
3.14598e-06
2.75275e-06
3.64342e-06
4.52816e-06
5.2473e-06
5.66203e-06
6.01807e-06
5.77667e-06
6.15094e-06
5.85458e-06
5.95612e-06
6.01032e-06
6.05769e-06
8.83954e-06
7.23383e-06
7.65743e-06
8.51779e-06
9.49729e-06
0.000686453
0.000459884
0.000446674
0.000322674
0.000580424
0.000838103
0.000825224
0.000919432
0.000838128
0.000499465
0.00102458
0.000827064
0.000454918
0.000187314
0.000203631
0.000648094
0.000335295
0.00022414
0.000149748
0.000148901
0.000129877
0.000204231
0.000183039
0.000161469
0.000149774
0.000139358
0.000108671
0.000133123
0.000122104
0.000104806
0.000129199
0.00012172
0.000102992
7.50729e-05
0.000127891
0.000103637
0.000108171
9.60302e-05
9.26073e-05
8.33301e-05
7.00488e-05
6.29839e-05
0.000110558
0.000106616
8.67597e-05
7.75396e-05
8.2058e-05
7.27271e-05
6.44082e-05
5.69112e-05
8.18366e-05
5.82646e-05
5.55309e-05
5.6904e-05
6.0518e-05
6.57317e-05
5.73444e-05
5.49328e-05
5.60205e-05
5.55304e-05
6.528e-05
6.79466e-05
5.73702e-05
4.99046e-05
5.10132e-05
5.02513e-05
5.01304e-05
4.72585e-05
4.25113e-05
5.438e-05
5.54323e-05
4.18912e-05
5.17413e-05
5.12353e-05
4.63049e-05
4.3424e-05
4.11144e-05
4.16978e-05
3.92923e-05
3.42119e-05
6.33214e-05
6.1425e-05
3.83737e-05
3.8644e-05
3.89688e-05
3.94911e-05
3.94347e-05
3.96888e-05
3.98916e-05
3.68614e-05
3.42289e-05
3.42574e-05
3.48856e-05
3.85122e-05
4.79369e-05
3.84522e-05
3.30773e-05
3.16189e-05
3.27067e-05
3.4238e-05
3.43898e-05
3.3037e-05
3.07973e-05
3.07972e-05
3.2513e-05
3.1656e-05
2.62241e-05
2.63895e-05
2.41571e-05
2.57005e-05
2.91914e-05
3.03063e-05
2.99391e-05
2.99782e-05
2.98417e-05
2.9187e-05
2.97373e-05
2.9007e-05
2.85183e-05
1.06304e-05
1.19374e-05
1.91775e-05
2.15163e-05
2.42942e-05
2.62917e-05
2.66936e-05
2.69158e-05
2.69049e-05
2.57732e-05
2.52855e-05
2.58874e-05
2.67604e-05
2.71155e-05
2.77582e-05
1.57083e-05
1.18492e-05
1.61488e-05
2.02447e-05
2.20948e-05
2.23885e-05
2.28667e-05
2.34075e-05
2.34966e-05
2.34386e-05
2.30096e-05
2.33289e-05
2.40248e-05
2.40703e-05
2.4785e-05
2.72834e-05
8.971e-06
1.16805e-05
1.29264e-05
1.4748e-05
1.60134e-05
1.7083e-05
1.89837e-05
2.01395e-05
2.02842e-05
2.00349e-05
1.97594e-05
2.00261e-05
2.04546e-05
2.09368e-05
2.16924e-05
2.34891e-05
2.57541e-05
6.62356e-06
6.74167e-06
7.80347e-06
1.14278e-05
1.32672e-05
1.38967e-05
1.50895e-05
1.60373e-05
1.61079e-05
1.58351e-05
1.58477e-05
1.63438e-05
1.65202e-05
1.70155e-05
1.76535e-05
1.87441e-05
2.08849e-05
2.28884e-05
5.3365e-06
5.92277e-06
6.54734e-06
8.19411e-06
8.93702e-06
9.43753e-06
1.07163e-05
1.16317e-05
1.18427e-05
1.15177e-05
1.1343e-05
1.17028e-05
1.18556e-05
1.22355e-05
1.27646e-05
1.38322e-05
1.48397e-05
1.6789e-05
1.86304e-05
3.26035e-06
3.21484e-06
2.94003e-06
3.76648e-06
4.58203e-06
5.28558e-06
5.86967e-06
5.89916e-06
5.74219e-06
5.59978e-06
5.86411e-06
5.7439e-06
6.11132e-06
6.16113e-06
6.36182e-06
8.25958e-06
7.31475e-06
8.55767e-06
9.58426e-06
1.07521e-05
0.000996208
0.000571791
0.000668204
0.000442489
0.000462521
0.000560419
0.00036197
0.000616982
0.000818937
0.00081881
0.000785575
0.000912126
0.000908131
0.000462059
0.000240373
0.00102474
0.000741165
0.000463193
0.000231833
0.000216405
0.000157971
0.000612389
0.000345839
0.00021996
0.000175963
0.00015397
0.000135807
0.000111383
0.000278568
0.000212146
0.000134503
0.000126727
0.000128516
0.000107498
0.000118493
0.000162267
0.000118548
0.00010161
0.00010093
0.00012547
0.000106769
7.74849e-05
7.32019e-05
9.81631e-05
9.95872e-05
9.60394e-05
9.77286e-05
8.84383e-05
8.49368e-05
6.81628e-05
6.53628e-05
8.88573e-05
9.44153e-05
9.58248e-05
9.61815e-05
7.57936e-05
8.35646e-05
7.24351e-05
6.36102e-05
5.48385e-05
5.68053e-05
7.34797e-05
6.81992e-05
5.46276e-05
5.7576e-05
6.27912e-05
6.43379e-05
5.76907e-05
5.48449e-05
5.84381e-05
4.1451e-05
6.75012e-05
6.20601e-05
6.76694e-05
5.42683e-05
5.24363e-05
5.0324e-05
5.02849e-05
5.08934e-05
4.7523e-05
4.28678e-05
3.86533e-05
5.37239e-05
5.17719e-05
4.52818e-05
4.54665e-05
5.0897e-05
4.62734e-05
4.40449e-05
4.10957e-05
4.18726e-05
3.89511e-05
3.39819e-05
3.4417e-05
3.80887e-05
6.40186e-05
4.23762e-05
3.68515e-05
3.82617e-05
3.91682e-05
3.95756e-05
3.98772e-05
3.99376e-05
3.67875e-05
3.41686e-05
3.42346e-05
3.24074e-05
2.86868e-05
3.67976e-05
4.20023e-05
3.81491e-05
3.23839e-05
3.14905e-05
3.26715e-05
3.42152e-05
3.44513e-05
3.29938e-05
3.09388e-05
3.08726e-05
3.25548e-05
3.21286e-05
3.23869e-05
2.55513e-05
2.63913e-05
2.44509e-05
2.58248e-05
2.94187e-05
3.04427e-05
2.98672e-05
3.00571e-05
2.9853e-05
2.9338e-05
2.97507e-05
2.90607e-05
2.84713e-05
3.01066e-05
1.18076e-05
1.20427e-05
1.91019e-05
2.17551e-05
2.43035e-05
2.62916e-05
2.65935e-05
2.69044e-05
2.69579e-05
2.60554e-05
2.53922e-05
2.59404e-05
2.66777e-05
2.73712e-05
2.77074e-05
2.99174e-05
1.14617e-05
1.454e-05
1.61602e-05
2.04703e-05
2.21203e-05
2.24555e-05
2.28706e-05
2.34728e-05
2.35513e-05
2.33501e-05
2.30252e-05
2.35082e-05
2.40974e-05
2.41322e-05
2.49895e-05
2.70616e-05
3.05171e-05
9.30243e-06
1.02654e-05
1.27363e-05
1.47837e-05
1.60161e-05
1.72343e-05
1.89998e-05
2.02519e-05
2.03774e-05
2.00549e-05
1.9794e-05
2.01662e-05
2.04133e-05
2.08846e-05
2.16925e-05
2.34987e-05
2.589e-05
2.87063e-05
6.6752e-06
6.7292e-06
7.8236e-06
1.15215e-05
1.33114e-05
1.38493e-05
1.51343e-05
1.6082e-05
1.61041e-05
1.58016e-05
1.55874e-05
1.63625e-05
1.68723e-05
1.69421e-05
1.77873e-05
1.88121e-05
2.08103e-05
2.32392e-05
2.58736e-05
5.37024e-06
6.06264e-06
6.52116e-06
8.20068e-06
9.00102e-06
9.43711e-06
1.07087e-05
1.15816e-05
1.16595e-05
1.16104e-05
1.15739e-05
1.1718e-05
1.2032e-05
1.20717e-05
1.28287e-05
1.37462e-05
1.51708e-05
1.65699e-05
1.82894e-05
2.12801e-05
4.78654e-06
3.46399e-06
2.71235e-06
3.93674e-06
4.58185e-06
5.22235e-06
5.91206e-06
6.18715e-06
5.77944e-06
5.6012e-06
5.67652e-06
5.93395e-06
5.99725e-06
6.05821e-06
6.94413e-06
6.84877e-06
7.71083e-06
8.44418e-06
9.47437e-06
1.06635e-05
1.21423e-05
0.00154524
0.00109266
0.000983423
0.000723506
0.000627876
0.000612374
0.000447647
0.000476203
0.000589203
0.00069982
0.000412081
0.000579049
0.000841224
0.000751581
0.00057486
0.000773214
0.000945647
0.000875444
0.000478954
0.000252471
0.00018325
0.00104785
0.00071127
0.000444889
0.000234752
0.000204939
0.000161587
0.000109044
0.000616983
0.000386757
0.00021252
0.000184795
0.000153419
0.000134174
9.98547e-05
9.73433e-05
0.000250315
0.000211681
0.000150956
0.000138827
0.000129599
0.000101417
9.61423e-05
0.000147224
0.000166607
0.000125402
0.000105843
0.000106068
0.000122456
0.00011237
7.73032e-05
7.14771e-05
7.27575e-05
0.000122589
9.78433e-05
8.73043e-05
9.67731e-05
0.000103151
8.10117e-05
7.29685e-05
6.96147e-05
7.64488e-05
5.01558e-05
9.83534e-05
8.59419e-05
9.2263e-05
7.63624e-05
8.27517e-05
7.32482e-05
6.52044e-05
5.38224e-05
5.98248e-05
5.07596e-05
7.72791e-05
6.9097e-05
6.01613e-05
5.60021e-05
6.51412e-05
6.65808e-05
5.80657e-05
5.60414e-05
5.85304e-05
4.09397e-05
3.67154e-05
6.92168e-05
6.34569e-05
6.10937e-05
5.43693e-05
5.07682e-05
5.22157e-05
4.98788e-05
5.00006e-05
4.67281e-05
4.31965e-05
3.88282e-05
3.64581e-05
5.23142e-05
4.73143e-05
4.11219e-05
4.70966e-05
4.92829e-05
4.60303e-05
4.38204e-05
4.12427e-05
4.20123e-05
3.94502e-05
3.43268e-05
3.4595e-05
3.61835e-05
3.39824e-05
4.36755e-05
4.64331e-05
3.67093e-05
3.87487e-05
3.94463e-05
3.96461e-05
3.99489e-05
4.01111e-05
3.69067e-05
3.42684e-05
3.4222e-05
3.23922e-05
3.28715e-05
2.9471e-05
3.45912e-05
4.127e-05
3.9558e-05
3.27888e-05
3.11627e-05
3.26689e-05
3.44233e-05
3.45028e-05
3.30397e-05
3.09658e-05
3.08436e-05
3.26294e-05
3.21724e-05
3.07905e-05
3.69145e-05
2.56935e-05
2.59471e-05
2.45131e-05
2.58265e-05
2.95944e-05
3.05773e-05
2.99921e-05
3.00014e-05
2.98919e-05
2.94411e-05
2.98192e-05
2.90322e-05
2.84236e-05
3.02187e-05
3.28305e-05
1.03933e-05
1.36313e-05
1.94769e-05
2.17947e-05
2.45268e-05
2.63259e-05
2.66551e-05
2.69039e-05
2.69435e-05
2.60794e-05
2.54462e-05
2.61074e-05
2.67167e-05
2.73867e-05
2.78739e-05
2.98907e-05
3.37715e-05
1.1786e-05
1.43356e-05
1.77289e-05
2.04644e-05
2.22384e-05
2.24564e-05
2.29956e-05
2.34271e-05
2.37595e-05
2.34021e-05
2.29665e-05
2.34771e-05
2.42078e-05
2.41222e-05
2.51294e-05
2.72554e-05
3.03912e-05
3.4084e-05
8.488e-06
9.92598e-06
1.20211e-05
1.46914e-05
1.60633e-05
1.71947e-05
1.90817e-05
2.02996e-05
2.04762e-05
2.01409e-05
1.98048e-05
2.02425e-05
2.06053e-05
2.07972e-05
2.18315e-05
2.33906e-05
2.59793e-05
2.88438e-05
3.21215e-05
6.67194e-06
6.72914e-06
7.86486e-06
1.15542e-05
1.33891e-05
1.38845e-05
1.51329e-05
1.61083e-05
1.60918e-05
1.59077e-05
1.56404e-05
1.60245e-05
1.69334e-05
1.71696e-05
1.77525e-05
1.92427e-05
2.07803e-05
2.34326e-05
2.57402e-05
2.94021e-05
5.50791e-06
5.91125e-06
6.54433e-06
8.20632e-06
8.9908e-06
9.50976e-06
1.06366e-05
1.17098e-05
1.16793e-05
1.1534e-05
1.14569e-05
1.18609e-05
1.21538e-05
1.2194e-05
1.27461e-05
1.38301e-05
1.52688e-05
1.66616e-05
1.84051e-05
2.06605e-05
2.3655e-05
5.63824e-06
5.06938e-06
3.46832e-06
3.58182e-06
4.7002e-06
5.25578e-06
5.8687e-06
6.27366e-06
6.14216e-06
5.59645e-06
5.5698e-06
5.89402e-06
5.99411e-06
6.0469e-06
6.32294e-06
6.96856e-06
7.77615e-06
8.43247e-06
9.71763e-06
1.0951e-05
1.22739e-05
1.37938e-05
2.88343e-06
0.00247251
0.00150107
0.00142288
0.00106008
0.00103483
0.000894974
0.0006806
0.000673542
0.000581433
0.000668584
0.000472709
0.000475283
0.00060798
0.000722082
0.000736096
0.000367756
0.000651663
0.000857526
0.000802539
0.000593626
0.00031045
0.00074722
0.000864831
0.000867283
0.000523729
0.00027774
0.000163583
0.000120026
0.00104921
0.000823094
0.000480405
0.000224895
0.000206605
0.000181201
0.000166255
0.00012554
0.000659184
0.000407268
0.000213644
0.000167389
0.000156928
0.000140578
0.000100386
0.000135902
0.000167192
0.000211364
0.000175393
0.000177575
0.000176421
0.000126726
0.000104112
0.000113981
9.50126e-05
0.000284936
0.000169926
0.000121279
0.00011216
0.00012283
0.000120754
0.000106257
7.4597e-05
6.38626e-05
9.49272e-05
6.41095e-05
0.00014198
0.000109027
8.86943e-05
8.42554e-05
9.72417e-05
8.34893e-05
6.66532e-05
6.82972e-05
7.12828e-05
3.96364e-05
8.11843e-05
9.77022e-05
8.9771e-05
9.26053e-05
7.39731e-05
8.57201e-05
7.14512e-05
6.43663e-05
5.36425e-05
6.03549e-05
5.17772e-05
3.79573e-05
7.49584e-05
7.44085e-05
6.46232e-05
5.67975e-05
6.30168e-05
6.62308e-05
5.83937e-05
5.79487e-05
5.93674e-05
4.08358e-05
3.61448e-05
3.7511e-05
6.76146e-05
7.01315e-05
6.30308e-05
4.95291e-05
5.02692e-05
5.18176e-05
4.9059e-05
5.09799e-05
4.73985e-05
4.29707e-05
3.79973e-05
3.57894e-05
3.33125e-05
4.90349e-05
5.01225e-05
4.20997e-05
4.53612e-05
5.35549e-05
4.48859e-05
4.32784e-05
4.12164e-05
4.20173e-05
3.91282e-05
3.4311e-05
3.46774e-05
3.64165e-05
3.23449e-05
3.79417e-05
4.10089e-05
4.34166e-05
4.05207e-05
3.83435e-05
4.05541e-05
4.00656e-05
4.02142e-05
4.03073e-05
3.6825e-05
3.4131e-05
3.42934e-05
3.24334e-05
3.30486e-05
3.5685e-05
2.921e-05
3.74516e-05
4.1196e-05
3.92296e-05
3.38944e-05
3.14037e-05
3.25576e-05
3.4638e-05
3.46779e-05
3.31294e-05
3.10176e-05
3.09209e-05
3.26948e-05
3.2149e-05
3.08101e-05
3.46059e-05
3.48559e-05
2.48302e-05
2.60641e-05
2.44966e-05
2.60444e-05
2.95328e-05
3.05868e-05
3.00709e-05
3.01707e-05
2.98857e-05
2.95224e-05
2.99144e-05
2.90796e-05
2.84768e-05
3.0226e-05
3.29418e-05
3.63609e-05
1.1248e-05
1.63855e-05
2.01007e-05
2.20914e-05
2.45372e-05
2.64081e-05
2.6703e-05
2.7047e-05
2.70226e-05
2.60712e-05
2.54682e-05
2.61566e-05
2.68738e-05
2.74349e-05
2.79503e-05
2.99728e-05
3.37927e-05
3.81627e-05
1.26379e-05
1.14638e-05
1.6174e-05
2.10143e-05
2.21817e-05
2.24597e-05
2.30215e-05
2.3481e-05
2.38182e-05
2.36528e-05
2.30977e-05
2.36099e-05
2.41541e-05
2.42426e-05
2.51109e-05
2.74669e-05
3.03874e-05
3.41451e-05
3.80434e-05
8.67519e-06
1.00263e-05
1.18348e-05
1.46133e-05
1.60776e-05
1.72823e-05
1.90839e-05
2.03474e-05
2.05037e-05
2.01625e-05
1.98953e-05
2.02335e-05
2.07372e-05
2.0974e-05
2.1817e-05
2.34673e-05
2.59056e-05
2.89881e-05
3.22716e-05
3.62357e-05
6.6904e-06
6.75709e-06
7.85054e-06
1.1587e-05
1.3411e-05
1.39246e-05
1.51688e-05
1.6185e-05
1.61044e-05
1.59309e-05
1.58987e-05
1.60905e-05
1.66936e-05
1.72558e-05
1.7688e-05
1.92823e-05
2.13043e-05
2.34497e-05
2.60543e-05
2.8936e-05
3.31368e-05
5.84432e-06
5.98876e-06
6.50284e-06
8.30597e-06
9.02989e-06
9.52477e-06
1.06748e-05
1.15701e-05
1.18607e-05
1.15841e-05
1.148e-05
1.17088e-05
1.21605e-05
1.2403e-05
1.28524e-05
1.37952e-05
1.51323e-05
1.6929e-05
1.85642e-05
2.05588e-05
2.37657e-05
2.69598e-05
5.35614e-06
3.85604e-06
5.56495e-06
5.2204e-06
4.98224e-06
4.67109e-06
5.3395e-06
5.87478e-06
6.23318e-06
6.32077e-06
5.98108e-06
5.56195e-06
5.66851e-06
6.68902e-06
5.91258e-06
6.71001e-06
7.11383e-06
7.52358e-06
8.6121e-06
9.72396e-06
1.07262e-05
1.23223e-05
1.38624e-05
1.60018e-05
2.95901e-06
0.00248128
0.00238892
0.00144207
0.00129007
0.00130062
0.000955516
0.000917632
0.000765249
0.000736724
0.000569879
0.000600598
0.00060274
0.000672439
0.000757326
0.000440466
0.00046256
0.000628233
0.000645567
0.000723959
0.000519177
0.000358913
0.000600266
0.000829786
0.000862421
0.000609994
0.000335635
0.000160316
0.000738195
0.000875598
0.000841946
0.000495751
0.000239938
0.000158163
0.000153269
0.000174317
0.00104717
0.000825129
0.000544118
0.000217417
0.000200138
0.00016608
0.000117936
0.000172112
0.000132337
0.000610245
0.000416752
0.000210741
0.000188717
0.000170927
0.000142187