/*--------------------------------*- C++ -*----------------------------------*\
  =========                 |
  \\      /  F ield         | OpenFOAM: The Open Source CFD Toolbox
   \\    /   O peration     | Website:  https://openfoam.org
    \\  /    A nd           | Version:  7
     \\/     M anipulation  |
\*---------------------------------------------------------------------------*/
FoamFile
{
    version     2.0;
    format      ascii;
    class       volScalarField;
    location    "0.5";
    object      p;
}
// * * * * * * * * * * * * * * * * * * * * * * * * * * * * * * * * * * * * * //

dimensions      [0 2 -2 0 0 0 0];

internalField   nonuniform List<scalar> 
18630
(
-100.84
-100.844
-100.84
-100.865
-100.854
-100.844
-100.872
-100.839
-100.865
-100.881
-100.865
-100.853
-100.881
-100.844
-100.872
-100.888
-100.839
-100.865
-100.881
-100.884
-100.881
-100.865
-100.897
-100.853
-100.881
-100.896
-100.843
-100.871
-100.887
-100.89
-100.839
-100.865
-100.881
-100.884
-100.877
-100.907
-100.881
-100.911
-100.864
-100.897
-100.908
-100.852
-100.881
-100.896
-100.898
-100.843
-100.871
-100.887
-100.889
-100.882
-100.839
-100.865
-100.881
-100.884
-100.877
-100.863
-100.937
-100.907
-100.935
-100.88
-100.911
-100.923
-100.863
-100.896
-100.908
-100.908
-100.852
-100.88
-100.896
-100.897
-100.89
-100.843
-100.871
-100.887
-100.889
-100.882
-100.869
-100.839
-100.865
-100.881
-100.884
-100.876
-100.863
-100.843
-100.974
-100.937
-100.961
-100.906
-100.934
-100.942
-100.879
-100.91
-100.922
-100.921
-100.863
-100.896
-100.908
-100.908
-100.9
-100.852
-100.88
-100.895
-100.897
-100.89
-100.876
-100.843
-100.871
-100.887
-100.889
-100.882
-100.869
-100.85
-100.839
-100.865
-100.881
-100.884
-100.876
-100.863
-100.843
-100.819
-101.017
-100.974
-100.99
-100.937
-100.96
-100.965
-100.906
-100.933
-100.942
-100.938
-100.879
-100.91
-100.922
-100.921
-100.912
-100.862
-100.895
-100.907
-100.907
-100.899
-100.885
-100.851
-100.88
-100.895
-100.896
-100.889
-100.876
-100.857
-100.842
-100.87
-100.886
-100.889
-100.882
-100.868
-100.849
-100.825
-100.839
-100.865
-100.881
-100.884
-100.876
-100.863
-100.843
-100.819
-100.79
-101.064
-101.017
-101.025
-100.973
-100.989
-100.99
-100.936
-100.959
-100.964
-100.956
-100.904
-100.932
-100.941
-100.937
-100.927
-100.879
-100.91
-100.921
-100.92
-100.911
-100.896
-100.862
-100.895
-100.907
-100.907
-100.899
-100.885
-100.865
-100.851
-100.879
-100.894
-100.896
-100.889
-100.875
-100.856
-100.832
-100.842
-100.87
-100.886
-100.888
-100.881
-100.868
-100.849
-100.825
-100.798
-100.839
-100.865
-100.88
-100.883
-100.876
-100.862
-100.843
-100.818
-100.79
-100.759
-101.114
-101.063
-101.068
-101.016
-101.025
-101.017
-100.974
-100.989
-100.989
-100.978
-100.936
-100.959
-100.963
-100.955
-100.942
-100.904
-100.931
-100.94
-100.936
-100.926
-100.908
-100.879
-100.909
-100.921
-100.919
-100.911
-100.895
-100.875
-100.862
-100.894
-100.906
-100.906
-100.898
-100.884
-100.865
-100.841
-100.85
-100.879
-100.894
-100.896
-100.888
-100.875
-100.856
-100.832
-100.805
-100.842
-100.87
-100.886
-100.888
-100.881
-100.868
-100.849
-100.825
-100.797
-100.767
-100.838
-100.865
-100.88
-100.883
-100.876
-100.862
-100.843
-100.818
-100.79
-100.759
-100.725
-101.176
-101.117
-101.112
-101.063
-101.066
-101.05
-101.016
-101.024
-101.017
-101.001
-100.973
-100.988
-100.988
-100.977
-100.96
-100.935
-100.958
-100.962
-100.954
-100.941
-100.922
-100.904
-100.931
-100.939
-100.935
-100.925
-100.908
-100.886
-100.879
-100.908
-100.92
-100.918
-100.91
-100.894
-100.874
-100.85
-100.861
-100.894
-100.905
-100.905
-100.898
-100.883
-100.864
-100.84
-100.814
-100.85
-100.878
-100.894
-100.895
-100.888
-100.874
-100.855
-100.831
-100.804
-100.775
-100.842
-100.869
-100.885
-100.888
-100.881
-100.867
-100.849
-100.824
-100.797
-100.767
-100.734
-100.838
-100.864
-100.88
-100.883
-100.876
-100.862
-100.843
-100.818
-100.79
-100.759
-100.725
-100.689
-101.317
-101.244
-101.171
-101.159
-101.114
-101.112
-101.087
-101.061
-101.065
-101.049
-101.028
-101.015
-101.023
-101.015
-101.001
-100.98
-100.973
-100.987
-100.987
-100.976
-100.959
-100.937
-100.935
-100.957
-100.961
-100.953
-100.94
-100.921
-100.898
-100.905
-100.93
-100.938
-100.934
-100.924
-100.907
-100.885
-100.861
-100.878
-100.907
-100.919
-100.918
-100.909
-100.894
-100.873
-100.849
-100.823
-100.861
-100.893
-100.905
-100.905
-100.897
-100.883
-100.863
-100.84
-100.813
-100.784
-100.85
-100.878
-100.893
-100.895
-100.887
-100.874
-100.855
-100.831
-100.804
-100.774
-100.742
-100.841
-100.869
-100.885
-100.888
-100.88
-100.867
-100.848
-100.824
-100.797
-100.766
-100.734
-100.698
-100.838
-100.864
-100.88
-100.883
-100.876
-100.862
-100.843
-100.818
-100.79
-100.759
-100.725
-100.689
-100.649
-101.41
-101.323
-101.273
-101.236
-101.215
-101.171
-101.158
-101.125
-101.115
-101.11
-101.086
-101.056
-101.061
-101.063
-101.048
-101.027
-101.001
-101.014
-101.022
-101.015
-100.999
-100.979
-100.953
-100.973
-100.986
-100.986
-100.975
-100.958
-100.936
-100.911
-100.934
-100.956
-100.96
-100.952
-100.939
-100.92
-100.897
-100.872
-100.904
-100.929
-100.938
-100.934
-100.923
-100.906
-100.884
-100.86
-100.833
-100.878
-100.906
-100.918
-100.917
-100.908
-100.893
-100.872
-100.849
-100.822
-100.794
-100.861
-100.892
-100.904
-100.904
-100.896
-100.882
-100.863
-100.839
-100.812
-100.783
-100.752
-100.849
-100.877
-100.893
-100.894
-100.887
-100.873
-100.854
-100.83
-100.803
-100.774
-100.742
-100.707
-100.841
-100.869
-100.885
-100.887
-100.88
-100.867
-100.848
-100.824
-100.796
-100.766
-100.733
-100.698
-100.659
-100.838
-100.864
-100.88
-100.883
-100.876
-100.862
-100.843
-100.818
-100.79
-100.759
-100.725
-100.688
-100.648
-100.604
-101.629
-101.516
-101.41
-101.34
-101.318
-101.275
-101.213
-101.238
-101.214
-101.168
-101.167
-101.157
-101.123
-101.089
-101.112
-101.11
-101.085
-101.055
-101.023
-101.059
-101.062
-101.047
-101.026
-101
-100.97
-101.014
-101.022
-101.013
-100.998
-100.977
-100.952
-100.924
-100.969
-100.985
-100.985
-100.974
-100.957
-100.935
-100.91
-100.884
-100.934
-100.955
-100.959
-100.951
-100.938
-100.919
-100.896
-100.871
-100.844
-100.904
-100.929
-100.937
-100.933
-100.922
-100.905
-100.883
-100.859
-100.832
-100.804
-100.877
-100.906
-100.918
-100.916
-100.907
-100.892
-100.872
-100.848
-100.821
-100.793
-100.762
-100.86
-100.892
-100.904
-100.903
-100.896
-100.881
-100.862
-100.838
-100.811
-100.782
-100.751
-100.718
-100.849
-100.877
-100.892
-100.894
-100.886
-100.873
-100.854
-100.83
-100.803
-100.773
-100.741
-100.707
-100.669
-100.841
-100.869
-100.884
-100.887
-100.88
-100.866
-100.847
-100.823
-100.796
-100.766
-100.733
-100.697
-100.659
-100.616
-100.838
-100.864
-100.88
-100.883
-100.876
-100.862
-100.842
-100.818
-100.79
-100.759
-100.725
-100.688
-100.648
-100.604
-100.555
-101.694
-101.592
-101.505
-101.526
-101.42
-101.409
-101.34
-101.266
-101.316
-101.27
-101.214
-101.154
-101.235
-101.214
-101.167
-101.121
-101.164
-101.156
-101.122
-101.086
-101.048
-101.113
-101.108
-101.084
-101.054
-101.023
-100.988
-101.062
-101.06
-101.045
-101.025
-100.999
-100.969
-100.938
-101.012
-101.021
-101.012
-100.997
-100.976
-100.951
-100.923
-100.896
-100.971
-100.984
-100.984
-100.972
-100.955
-100.934
-100.909
-100.883
-100.856
-100.933
-100.954
-100.958
-100.95
-100.937
-100.918
-100.895
-100.87
-100.843
-100.815
-100.903
-100.928
-100.936
-100.932
-100.921
-100.904
-100.882
-100.858
-100.831
-100.803
-100.774
-100.876
-100.905
-100.917
-100.915
-100.906
-100.891
-100.871
-100.847
-100.82
-100.792
-100.761
-100.729
-100.86
-100.891
-100.903
-100.903
-100.895
-100.881
-100.861
-100.837
-100.811
-100.781
-100.75
-100.717
-100.681
-100.849
-100.876
-100.892
-100.893
-100.886
-100.872
-100.853
-100.829
-100.802
-100.772
-100.74
-100.706
-100.669
-100.627
-100.841
-100.868
-100.884
-100.887
-100.879
-100.866
-100.847
-100.823
-100.795
-100.765
-100.732
-100.697
-100.658
-100.615
-100.568
-100.838
-100.864
-100.88
-100.883
-100.876
-100.862
-100.842
-100.818
-100.789
-100.758
-100.725
-100.688
-100.648
-100.604
-100.555
-100.501
-101.727
-101.698
-101.567
-101.603
-101.484
-101.373
-101.525
-101.419
-101.318
-101.408
-101.337
-101.267
-101.189
-101.316
-101.27
-101.212
-101.154
-101.094
-101.235
-101.211
-101.167
-101.12
-101.072
-101.161
-101.154
-101.121
-101.086
-101.046
-101.005
-101.11
-101.107
-101.082
-101.053
-101.021
-100.987
-100.951
-101.062
-101.06
-101.044
-101.024
-100.997
-100.967
-100.936
-100.907
-101.011
-101.02
-101.011
-100.996
-100.975
-100.949
-100.922
-100.894
-100.867
-100.965
-100.983
-100.982
-100.971
-100.954
-100.933
-100.908
-100.881
-100.854
-100.827
-100.933
-100.953
-100.957
-100.949
-100.936
-100.917
-100.893
-100.868
-100.842
-100.814
-100.785
-100.902
-100.928
-100.935
-100.931
-100.92
-100.903
-100.881
-100.856
-100.83
-100.802
-100.772
-100.742
-100.876
-100.905
-100.916
-100.914
-100.905
-100.89
-100.87
-100.846
-100.819
-100.791
-100.76
-100.728
-100.694
-100.86
-100.89
-100.902
-100.902
-100.894
-100.88
-100.86
-100.836
-100.81
-100.78
-100.749
-100.716
-100.68
-100.64
-100.848
-100.876
-100.891
-100.893
-100.885
-100.871
-100.852
-100.828
-100.801
-100.772
-100.74
-100.705
-100.668
-100.627
-100.581
-100.84
-100.868
-100.884
-100.886
-100.879
-100.866
-100.847
-100.822
-100.795
-100.765
-100.732
-100.696
-100.658
-100.615
-100.568
-100.515
-100.838
-100.864
-100.88
-100.883
-100.875
-100.862
-100.842
-100.818
-100.789
-100.758
-100.724
-100.688
-100.648
-100.604
-100.555
-100.501
-100.439
-101.702
-101.718
-101.602
-101.663
-101.549
-101.419
-101.65
-101.491
-101.368
-101.249
-101.516
-101.414
-101.316
-101.229
-101.402
-101.336
-101.263
-101.187
-101.116
-101.313
-101.271
-101.21
-101.154
-101.094
-101.038
-101.232
-101.208
-101.164
-101.119
-101.07
-101.021
-101.152
-101.151
-101.12
-101.084
-101.045
-101.004
-100.963
-101.113
-101.105
-101.081
-101.051
-101.02
-100.985
-100.95
-100.919
-101.053
-101.059
-101.042
-101.022
-100.996
-100.966
-100.935
-100.906
-100.878
-101.007
-101.019
-101.01
-100.994
-100.973
-100.948
-100.92
-100.893
-100.865
-100.837
-100.961
-100.982
-100.981
-100.97
-100.953
-100.931
-100.906
-100.88
-100.853
-100.825
-100.797
-100.932
-100.952
-100.955
-100.948
-100.935
-100.916
-100.892
-100.867
-100.841
-100.812
-100.784
-100.755
-100.901
-100.927
-100.934
-100.93
-100.919
-100.901
-100.879
-100.855
-100.829
-100.8
-100.771
-100.741
-100.708
-100.875
-100.904
-100.915
-100.913
-100.904
-100.889
-100.869
-100.845
-100.818
-100.789
-100.759
-100.727
-100.693
-100.655
-100.86
-100.889
-100.902
-100.901
-100.893
-100.879
-100.859
-100.835
-100.809
-100.779
-100.748
-100.715
-100.679
-100.639
-100.596
-100.848
-100.875
-100.891
-100.892
-100.884
-100.871
-100.852
-100.828
-100.801
-100.771
-100.739
-100.705
-100.667
-100.626
-100.58
-100.529
-100.84
-100.868
-100.883
-100.886
-100.879
-100.865
-100.846
-100.822
-100.794
-100.764
-100.731
-100.696
-100.657
-100.614
-100.567
-100.514
-100.455
-100.838
-100.864
-100.88
-100.883
-100.875
-100.862
-100.842
-100.817
-100.789
-100.758
-100.724
-100.688
-100.648
-100.604
-100.555
-100.5
-100.439
-100.37
-101.644
-101.682
-101.569
-101.713
-101.58
-101.427
-101.706
-101.559
-101.398
-101.287
-101.634
-101.492
-101.371
-101.253
-101.147
-101.521
-101.417
-101.313
-101.227
-101.135
-101.402
-101.339
-101.266
-101.187
-101.114
-101.05
-101.312
-101.269
-101.211
-101.152
-101.092
-101.038
-100.985
-101.23
-101.205
-101.162
-101.118
-101.069
-101.02
-100.974
-101.157
-101.148
-101.118
-101.082
-101.043
-101.002
-100.961
-100.931
-101.1
-101.104
-101.079
-101.05
-101.018
-100.984
-100.948
-100.917
-100.888
-101.057
-101.057
-101.041
-101.021
-100.994
-100.964
-100.933
-100.904
-100.877
-100.848
-101.005
-101.018
-101.009
-100.993
-100.972
-100.946
-100.919
-100.891
-100.864
-100.836
-100.81
-100.96
-100.981
-100.98
-100.968
-100.951
-100.93
-100.905
-100.878
-100.851
-100.823
-100.796
-100.769
-100.931
-100.951
-100.954
-100.947
-100.933
-100.914
-100.891
-100.866
-100.839
-100.811
-100.783
-100.754
-100.723
-100.9
-100.926
-100.933
-100.929
-100.918
-100.9
-100.878
-100.854
-100.827
-100.799
-100.77
-100.739
-100.707
-100.671
-100.874
-100.904
-100.914
-100.913
-100.903
-100.888
-100.867
-100.843
-100.817
-100.788
-100.758
-100.726
-100.691
-100.654
-100.613
-100.86
-100.888
-100.901
-100.901
-100.892
-100.878
-100.858
-100.834
-100.808
-100.778
-100.747
-100.714
-100.678
-100.638
-100.595
-100.546
-100.848
-100.875
-100.89
-100.891
-100.884
-100.87
-100.851
-100.827
-100.8
-100.77
-100.738
-100.704
-100.666
-100.625
-100.579
-100.528
-100.471
-100.84
-100.867
-100.883
-100.886
-100.878
-100.865
-100.846
-100.821
-100.794
-100.764
-100.731
-100.695
-100.656
-100.614
-100.567
-100.514
-100.454
-100.387
-100.837
-100.864
-100.88
-100.882
-100.875
-100.861
-100.842
-100.817
-100.789
-100.758
-100.724
-100.688
-100.647
-100.603
-100.555
-100.5
-100.439
-100.369
-100.291
-101.644
-101.655
-101.471
-101.704
-101.556
-101.437
-101.715
-101.588
-101.426
-101.273
-101.751
-101.553
-101.399
-101.287
-101.167
-101.596
-101.49
-101.368
-101.256
-101.146
-101.069
-101.528
-101.428
-101.317
-101.223
-101.133
-101.064
-101.396
-101.337
-101.265
-101.184
-101.114
-101.049
-100.988
-101.306
-101.266
-101.209
-101.149
-101.091
-101.035
-100.984
-100.95
-101.228
-101.203
-101.16
-101.115
-101.067
-101.018
-100.972
-100.939
-101.15
-101.148
-101.116
-101.08
-101.042
-101.001
-100.96
-100.93
-100.899
-101.106
-101.103
-101.077
-101.048
-101.017
-100.982
-100.947
-100.915
-100.886
-100.859
-101.056
-101.056
-101.04
-101.019
-100.993
-100.963
-100.931
-100.903
-100.875
-100.846
-100.821
-101.01
-101.016
-101.007
-100.991
-100.97
-100.945
-100.917
-100.89
-100.862
-100.834
-100.808
-100.783
-100.958
-100.979
-100.978
-100.967
-100.95
-100.928
-100.903
-100.877
-100.85
-100.822
-100.794
-100.767
-100.739
-100.93
-100.95
-100.953
-100.945
-100.932
-100.913
-100.889
-100.864
-100.837
-100.809
-100.781
-100.752
-100.721
-100.688
-100.899
-100.926
-100.932
-100.928
-100.916
-100.899
-100.877
-100.853
-100.826
-100.797
-100.768
-100.738
-100.705
-100.669
-100.631
-100.874
-100.903
-100.913
-100.912
-100.902
-100.887
-100.866
-100.842
-100.816
-100.787
-100.756
-100.724
-100.69
-100.652
-100.611
-100.565
-100.859
-100.888
-100.9
-100.9
-100.892
-100.877
-100.857
-100.833
-100.806
-100.777
-100.746
-100.713
-100.676
-100.637
-100.593
-100.545
-100.489
-100.847
-100.874
-100.889
-100.891
-100.883
-100.869
-100.85
-100.826
-100.799
-100.769
-100.737
-100.703
-100.665
-100.624
-100.578
-100.527
-100.47
-100.404
-100.84
-100.867
-100.883
-100.885
-100.878
-100.864
-100.845
-100.821
-100.793
-100.763
-100.73
-100.695
-100.656
-100.613
-100.566
-100.513
-100.454
-100.386
-100.31
-100.837
-100.864
-100.879
-100.882
-100.875
-100.861
-100.842
-100.817
-100.789
-100.758
-100.724
-100.687
-100.647
-100.603
-100.554
-100.5
-100.438
-100.369
-100.29
-100.203
-101.534
-101.654
-101.407
-101.666
-101.49
-101.343
-101.7
-101.552
-101.426
-101.249
-101.763
-101.586
-101.411
-101.266
-101.154
-101.709
-101.558
-101.403
-101.279
-101.167
-101.063
-101.609
-101.51
-101.38
-101.254
-101.147
-101.066
-100.988
-101.525
-101.424
-101.316
-101.226
-101.13
-101.061
-100.991
-101.39
-101.33
-101.262
-101.188
-101.113
-101.048
-100.985
-100.954
-101.303
-101.263
-101.207
-101.147
-101.089
-101.037
-100.982
-100.949
-100.909
-101.225
-101.2
-101.159
-101.114
-101.064
-101.017
-100.97
-100.938
-100.909
-101.156
-101.145
-101.114
-101.079
-101.04
-100.999
-100.958
-100.928
-100.897
-100.868
-101.102
-101.101
-101.075
-101.046
-101.015
-100.98
-100.945
-100.913
-100.885
-100.857
-100.833
-101.053
-101.054
-101.038
-101.017
-100.991
-100.961
-100.929
-100.901
-100.873
-100.845
-100.819
-100.797
-101.007
-101.017
-101.006
-100.99
-100.968
-100.943
-100.915
-100.888
-100.86
-100.832
-100.806
-100.781
-100.755
-100.957
-100.978
-100.977
-100.965
-100.948
-100.926
-100.901
-100.875
-100.848
-100.82
-100.792
-100.765
-100.737
-100.706
-100.93
-100.949
-100.952
-100.944
-100.931
-100.911
-100.888
-100.862
-100.836
-100.808
-100.779
-100.75
-100.719
-100.686
-100.651
-100.897
-100.925
-100.931
-100.926
-100.915
-100.897
-100.875
-100.851
-100.824
-100.796
-100.766
-100.736
-100.703
-100.668
-100.629
-100.586
-100.874
-100.902
-100.913
-100.911
-100.901
-100.886
-100.865
-100.841
-100.814
-100.785
-100.755
-100.723
-100.688
-100.651
-100.609
-100.563
-100.511
-100.859
-100.887
-100.899
-100.899
-100.891
-100.876
-100.856
-100.832
-100.805
-100.776
-100.745
-100.711
-100.675
-100.636
-100.592
-100.543
-100.488
-100.425
-100.847
-100.874
-100.889
-100.89
-100.882
-100.869
-100.849
-100.825
-100.798
-100.768
-100.736
-100.702
-100.664
-100.623
-100.577
-100.526
-100.469
-100.403
-100.329
-100.84
-100.867
-100.883
-100.885
-100.877
-100.864
-100.845
-100.82
-100.793
-100.762
-100.729
-100.694
-100.655
-100.612
-100.565
-100.512
-100.453
-100.385
-100.309
-100.223
-100.837
-100.864
-100.879
-100.882
-100.875
-100.861
-100.842
-100.817
-100.789
-100.758
-100.724
-100.687
-100.647
-100.603
-100.554
-100.5
-100.438
-100.369
-100.29
-100.202
-100.104
-101.364
-101.557
-101.271
-101.621
-101.376
-101.215
-101.628
-101.481
-101.34
-101.188
-101.696
-101.58
-101.408
-101.264
-101.141
-101.755
-101.592
-101.416
-101.261
-101.15
-101.061
-101.691
-101.583
-101.42
-101.282
-101.165
-101.064
-100.991
-101.622
-101.516
-101.382
-101.251
-101.146
-101.066
-100.984
-100.959
-101.513
-101.415
-101.312
-101.225
-101.129
-101.063
-100.992
-100.955
-101.384
-101.324
-101.259
-101.186
-101.112
-101.046
-100.984
-100.952
-100.92
-101.298
-101.26
-101.205
-101.145
-101.087
-101.033
-100.979
-100.947
-100.909
-100.892
-101.221
-101.199
-101.156
-101.111
-101.062
-101.015
-100.968
-100.936
-100.908
-100.878
-101.155
-101.144
-101.111
-101.077
-101.037
-100.997
-100.956
-100.926
-100.895
-100.866
-100.843
-101.096
-101.1
-101.073
-101.044
-101.013
-100.978
-100.943
-100.912
-100.883
-100.855
-100.831
-100.81
-101.049
-101.053
-101.037
-101.016
-100.989
-100.959
-100.928
-100.898
-100.871
-100.842
-100.817
-100.795
-100.771
-101.005
-101.015
-101.005
-100.988
-100.967
-100.941
-100.913
-100.886
-100.858
-100.83
-100.804
-100.779
-100.753
-100.726
-100.955
-100.976
-100.975
-100.964
-100.947
-100.925
-100.899
-100.873
-100.846
-100.818
-100.79
-100.763
-100.735
-100.704
-100.672
-100.929
-100.948
-100.95
-100.943
-100.929
-100.91
-100.886
-100.861
-100.834
-100.806
-100.777
-100.748
-100.717
-100.684
-100.649
-100.608
-100.897
-100.924
-100.93
-100.925
-100.914
-100.896
-100.874
-100.85
-100.823
-100.794
-100.765
-100.734
-100.702
-100.666
-100.627
-100.584
-100.534
-100.873
-100.901
-100.912
-100.91
-100.9
-100.884
-100.864
-100.84
-100.813
-100.784
-100.753
-100.721
-100.687
-100.649
-100.608
-100.561
-100.509
-100.449
-100.859
-100.886
-100.899
-100.898
-100.89
-100.875
-100.855
-100.831
-100.804
-100.775
-100.743
-100.71
-100.674
-100.634
-100.591
-100.542
-100.486
-100.424
-100.352
-100.847
-100.873
-100.889
-100.89
-100.882
-100.868
-100.849
-100.824
-100.797
-100.767
-100.735
-100.701
-100.663
-100.622
-100.576
-100.525
-100.467
-100.402
-100.328
-100.244
-100.839
-100.866
-100.882
-100.884
-100.877
-100.863
-100.844
-100.82
-100.792
-100.762
-100.729
-100.693
-100.654
-100.612
-100.564
-100.511
-100.452
-100.384
-100.308
-100.222
-100.126
-100.837
-100.864
-100.879
-100.882
-100.875
-100.861
-100.841
-100.817
-100.788
-100.757
-100.724
-100.687
-100.647
-100.603
-100.554
-100.499
-100.438
-100.368
-100.29
-100.202
-100.103
-99.995
-100.837
-101.244
-101.353
-101.093
-101.536
-101.274
-101.084
-101.628
-101.374
-101.213
-101.089
-101.64
-101.464
-101.319
-101.188
-101.085
-101.715
-101.555
-101.406
-101.254
-101.142
-101.019
-101.739
-101.635
-101.419
-101.268
-101.144
-101.065
-100.981
-101.704
-101.572
-101.428
-101.283
-101.158
-101.058
-100.992
-100.95
-101.591
-101.487
-101.374
-101.25
-101.142
-101.063
-100.982
-100.952
-100.916
-101.502
-101.408
-101.31
-101.223
-101.131
-101.064
-100.988
-100.952
-100.905
-101.386
-101.323
-101.256
-101.184
-101.111
-101.043
-100.979
-100.95
-100.921
-100.888
-101.298
-101.256
-101.202
-101.144
-101.084
-101.031
-100.977
-100.945
-100.907
-100.887
-100.861
-101.224
-101.196
-101.154
-101.109
-101.06
-101.012
-100.965
-100.933
-100.905
-100.875
-100.853
-101.152
-101.143
-101.109
-101.074
-101.035
-100.995
-100.954
-100.924
-100.893
-100.864
-100.841
-100.823
-101.093
-101.096
-101.072
-101.041
-101.011
-100.976
-100.941
-100.91
-100.881
-100.853
-100.829
-100.807
-100.787
-101.046
-101.051
-101.034
-101.014
-100.987
-100.957
-100.925
-100.896
-100.869
-100.84
-100.815
-100.793
-100.769
-100.744
-101.001
-101.014
-101.003
-100.986
-100.965
-100.939
-100.911
-100.884
-100.856
-100.828
-100.802
-100.777
-100.75
-100.723
-100.694
-100.957
-100.975
-100.974
-100.962
-100.945
-100.923
-100.898
-100.871
-100.844
-100.816
-100.788
-100.761
-100.732
-100.702
-100.669
-100.633
-100.929
-100.947
-100.949
-100.941
-100.928
-100.908
-100.884
-100.859
-100.832
-100.804
-100.775
-100.746
-100.715
-100.682
-100.646
-100.606
-100.56
-100.896
-100.924
-100.929
-100.924
-100.912
-100.894
-100.872
-100.848
-100.821
-100.792
-100.763
-100.732
-100.7
-100.664
-100.625
-100.582
-100.532
-100.476
-100.872
-100.9
-100.911
-100.909
-100.899
-100.883
-100.862
-100.838
-100.811
-100.782
-100.752
-100.72
-100.685
-100.647
-100.606
-100.56
-100.507
-100.447
-100.379
-100.858
-100.885
-100.898
-100.897
-100.889
-100.874
-100.854
-100.83
-100.803
-100.773
-100.742
-100.709
-100.672
-100.633
-100.589
-100.54
-100.485
-100.422
-100.351
-100.27
-100.846
-100.873
-100.888
-100.889
-100.881
-100.867
-100.848
-100.824
-100.796
-100.766
-100.734
-100.7
-100.662
-100.62
-100.575
-100.524
-100.466
-100.401
-100.327
-100.243
-100.149
-100.839
-100.866
-100.882
-100.884
-100.877
-100.863
-100.844
-100.819
-100.792
-100.761
-100.728
-100.693
-100.654
-100.611
-100.564
-100.511
-100.451
-100.383
-100.307
-100.221
-100.125
-100.019
-100.839
-100.837
-100.863
-100.879
-100.882
-100.875
-100.861
-100.841
-100.817
-100.788
-100.757
-100.723
-100.687
-100.647
-100.602
-100.554
-100.499
-100.438
-100.368
-100.289
-100.202
-100.103
-99.9946
-99.8769
-100.863
-101.246
-101.013
-101.403
-101.123
-100.946
-101.61
-101.263
-101.08
-100.954
-101.634
-101.408
-101.22
-101.101
-100.969
-101.691
-101.488
-101.322
-101.192
-101.078
-100.969
-101.684
-101.571
-101.43
-101.232
-101.128
-101.012
-100.954
-101.72
-101.614
-101.457
-101.271
-101.143
-101.047
-100.978
-100.929
-101.706
-101.553
-101.39
-101.289
-101.159
-101.054
-100.99
-100.945
-100.905
-101.596
-101.477
-101.369
-101.244
-101.139
-101.061
-100.983
-100.957
-100.911
-100.886
-101.488
-101.403
-101.309
-101.224
-101.127
-101.063
-100.982
-100.952
-100.9
-100.9
-101.384
-101.32
-101.254
-101.178
-101.107
-101.04
-100.98
-100.948
-100.919
-100.887
-100.868
-101.299
-101.255
-101.199
-101.142
-101.082
-101.028
-100.973
-100.943
-100.903
-100.885
-100.861
-100.85
-101.221
-101.196
-101.152
-101.106
-101.058
-101.008
-100.964
-100.931
-100.904
-100.873
-100.85
-100.833
-101.15
-101.141
-101.107
-101.072
-101.033
-100.992
-100.952
-100.922
-100.89
-100.861
-100.838
-100.821
-100.802
-101.091
-101.094
-101.069
-101.039
-101.009
-100.974
-100.939
-100.908
-100.878
-100.85
-100.826
-100.805
-100.785
-100.765
-101.046
-101.05
-101.032
-101.011
-100.985
-100.954
-100.923
-100.894
-100.866
-100.838
-100.812
-100.79
-100.766
-100.742
-100.718
-101.001
-101.011
-101.001
-100.984
-100.963
-100.937
-100.909
-100.882
-100.854
-100.825
-100.799
-100.774
-100.748
-100.721
-100.691
-100.658
-100.967
-100.973
-100.972
-100.96
-100.943
-100.921
-100.896
-100.869
-100.842
-100.814
-100.786
-100.759
-100.73
-100.699
-100.667
-100.63
-100.588
-100.928
-100.946
-100.948
-100.94
-100.926
-100.906
-100.882
-100.857
-100.83
-100.802
-100.773
-100.744
-100.713
-100.68
-100.644
-100.603
-100.558
-100.505
-100.894
-100.923
-100.928
-100.923
-100.911
-100.893
-100.871
-100.846
-100.819
-100.79
-100.761
-100.73
-100.697
-100.662
-100.623
-100.579
-100.53
-100.473
-100.408
-100.871
-100.899
-100.91
-100.908
-100.898
-100.882
-100.861
-100.837
-100.81
-100.781
-100.75
-100.718
-100.683
-100.645
-100.604
-100.557
-100.505
-100.445
-100.377
-100.299
-100.858
-100.884
-100.897
-100.897
-100.888
-100.873
-100.853
-100.829
-100.802
-100.772
-100.74
-100.707
-100.671
-100.631
-100.587
-100.538
-100.483
-100.42
-100.349
-100.268
-100.177
-100.846
-100.872
-100.887
-100.889
-100.88
-100.866
-100.847
-100.823
-100.795
-100.765
-100.733
-100.698
-100.661
-100.619
-100.573
-100.522
-100.465
-100.399
-100.325
-100.242
-100.148
-100.044
-100.845
-100.839
-100.866
-100.882
-100.884
-100.876
-100.862
-100.843
-100.819
-100.791
-100.761
-100.727
-100.692
-100.653
-100.61
-100.563
-100.51
-100.45
-100.383
-100.306
-100.22
-100.124
-100.018
-99.9024
-100.865
-100.863
-100.879
-100.882
-100.875
-100.861
-100.841
-100.816
-100.788
-100.757
-100.723
-100.686
-100.646
-100.602
-100.553
-100.499
-100.437
-100.368
-100.289
-100.201
-100.103
-99.9942
-99.8765
-99.7508
-100.879
-101.266
-101.036
-100.866
-101.4
-101.136
-100.968
-100.833
-101.565
-101.312
-101.102
-100.98
-100.882
-101.629
-101.377
-101.232
-101.096
-100.971
-100.927
-101.616
-101.48
-101.345
-101.183
-101.067
-101.005
-100.942
-101.667
-101.587
-101.451
-101.241
-101.113
-101.007
-100.948
-100.9
-101.715
-101.606
-101.424
-101.266
-101.144
-101.046
-100.982
-100.926
-100.888
-101.696
-101.558
-101.395
-101.296
-101.158
-101.05
-100.988
-100.945
-100.898
-100.881
-101.602
-101.477
-101.366
-101.246
-101.137
-101.059
-100.982
-100.952
-100.904
-100.895
-100.878
-101.488
-101.397
-101.305
-101.218
-101.126
-101.061
-100.98
-100.951
-100.894
-100.9
-100.845
-101.391
-101.318
-101.25
-101.176
-101.105
-101.038
-100.975
-100.946
-100.922
-100.884
-100.866
-100.86
-101.299
-101.254
-101.196
-101.14
-101.08
-101.027
-100.973
-100.94
-100.902
-100.883
-100.858
-100.847
-100.831
-101.218
-101.194
-101.15
-101.103
-101.056
-101.007
-100.961
-100.928
-100.9
-100.87
-100.847
-100.83
-100.818
-101.147
-101.139
-101.105
-101.07
-101.03
-100.99
-100.95
-100.919
-100.888
-100.859
-100.836
-100.818
-100.799
-100.784
-101.088
-101.091
-101.067
-101.037
-101.006
-100.971
-100.937
-100.905
-100.875
-100.848
-100.823
-100.802
-100.782
-100.762
-100.741
-101.043
-101.046
-101.03
-101.009
-100.983
-100.952
-100.921
-100.891
-100.864
-100.835
-100.81
-100.787
-100.763
-100.739
-100.716
-100.686
-100.997
-101.009
-100.999
-100.982
-100.961
-100.935
-100.907
-100.879
-100.851
-100.823
-100.797
-100.771
-100.745
-100.718
-100.688
-100.655
-100.619
-100.963
-100.974
-100.97
-100.959
-100.941
-100.919
-100.893
-100.867
-100.839
-100.811
-100.783
-100.756
-100.727
-100.696
-100.664
-100.628
-100.585
-100.537
-100.927
-100.945
-100.947
-100.938
-100.925
-100.905
-100.88
-100.855
-100.828
-100.799
-100.771
-100.741
-100.71
-100.677
-100.641
-100.601
-100.555
-100.502
-100.441
-100.893
-100.922
-100.927
-100.921
-100.91
-100.891
-100.869
-100.844
-100.817
-100.788
-100.759
-100.728
-100.695
-100.659
-100.62
-100.577
-100.527
-100.471
-100.406
-100.332
-100.871
-100.898
-100.909
-100.907
-100.897
-100.881
-100.86
-100.835
-100.808
-100.779
-100.748
-100.716
-100.681
-100.643
-100.602
-100.555
-100.503
-100.443
-100.374
-100.297
-100.209
-100.857
-100.884
-100.896
-100.896
-100.887
-100.872
-100.852
-100.828
-100.8
-100.771
-100.739
-100.705
-100.669
-100.629
-100.586
-100.536
-100.481
-100.418
-100.347
-100.266
-100.175
-100.074
-100.857
-100.845
-100.872
-100.887
-100.888
-100.88
-100.866
-100.846
-100.822
-100.794
-100.764
-100.732
-100.697
-100.659
-100.618
-100.572
-100.521
-100.463
-100.398
-100.323
-100.24
-100.146
-100.042
-99.9294
-100.871
-100.865
-100.881
-100.883
-100.876
-100.862
-100.843
-100.818
-100.79
-100.76
-100.727
-100.691
-100.652
-100.609
-100.562
-100.509
-100.449
-100.381
-100.305
-100.219
-100.123
-100.017
-99.9013
-99.7777
-100.881
-100.879
-100.882
-100.874
-100.86
-100.841
-100.816
-100.788
-100.757
-100.723
-100.686
-100.646
-100.602
-100.553
-100.498
-100.437
-100.367
-100.289
-100.201
-100.102
-99.9938
-99.8761
-99.7503
-99.6192
-100.882
-101.21
-101.011
-100.872
-100.77
-101.387
-101.109
-100.954
-100.847
-100.785
-101.523
-101.28
-101.089
-100.954
-100.878
-100.857
-101.657
-101.367
-101.218
-101.083
-100.977
-100.922
-100.874
-101.664
-101.492
-101.351
-101.188
-101.063
-100.957
-100.909
-100.884
-101.68
-101.563
-101.424
-101.237
-101.126
-101.008
-100.95
-100.901
-100.867
-101.723
-101.593
-101.417
-101.262
-101.141
-101.054
-100.976
-100.924
-100.881
-100.883
-101.661
-101.555
-101.408
-101.3
-101.155
-101.049
-100.994
-100.947
-100.893
-100.892
-100.882
-101.573
-101.464
-101.357
-101.242
-101.134
-101.057
-100.982
-100.952
-100.902
-100.887
-100.879
-100.883
-101.492
-101.393
-101.301
-101.213
-101.124
-101.054
-100.974
-100.949
-100.882
-100.908
-100.871
-100.885
-101.393
-101.319
-101.247
-101.172
-101.101
-101.037
-100.974
-100.943
-100.92
-100.884
-100.862
-100.858
-100.85
-101.295
-101.253
-101.194
-101.136
-101.077
-101.021
-100.971
-100.938
-100.899
-100.879
-100.852
-100.842
-100.82
-100.828
-101.215
-101.192
-101.148
-101.101
-101.053
-101.001
-100.959
-100.925
-100.898
-100.867
-100.844
-100.827
-100.814
-100.805
-101.143
-101.136
-101.103
-101.066
-101.028
-100.988
-100.948
-100.916
-100.885
-100.856
-100.832
-100.815
-100.795
-100.782
-100.768
-101.085
-101.089
-101.065
-101.034
-101.004
-100.969
-100.934
-100.903
-100.873
-100.845
-100.821
-100.799
-100.779
-100.759
-100.738
-100.715
-101.032
-101.047
-101.028
-101.007
-100.981
-100.95
-100.918
-100.889
-100.861
-100.833
-100.807
-100.785
-100.76
-100.736
-100.713
-100.683
-100.65
-100.997
-101.007
-100.997
-100.98
-100.959
-100.933
-100.905
-100.877
-100.849
-100.82
-100.794
-100.769
-100.742
-100.715
-100.685
-100.652
-100.616
-100.572
-100.962
-100.972
-100.969
-100.957
-100.939
-100.917
-100.891
-100.865
-100.837
-100.809
-100.781
-100.753
-100.725
-100.694
-100.661
-100.625
-100.582
-100.534
-100.478