/*--------------------------------*- C++ -*----------------------------------*\
  =========                 |
  \\      /  F ield         | OpenFOAM: The Open Source CFD Toolbox
   \\    /   O peration     | Website:  https://openfoam.org
    \\  /    A nd           | Version:  7
     \\/     M anipulation  |
\*---------------------------------------------------------------------------*/
FoamFile
{
    version     2.0;
    format      ascii;
    class       surfaceScalarField;
    location    "0.5";
    object      phi;
}
// * * * * * * * * * * * * * * * * * * * * * * * * * * * * * * * * * * * * * //

dimensions      [0 3 -1 0 0 0 0];

internalField   nonuniform List<scalar> 
53739
(
5.75946e-07
1.24699e-05
9.36379e-05
1.51199e-06
2.00718e-05
0.000285902
6.26874e-07
1.19179e-05
9.40152e-05
7.81645e-07
1.42867e-05
9.33749e-05
2.54259e-06
1.78186e-05
0.000481167
1.66454e-06
1.95035e-05
0.000286979
2.9045e-06
2.19292e-05
0.000284581
6.90601e-07
1.13007e-05
9.43833e-05
8.43207e-07
1.37179e-05
9.37408e-05
1.24005e-06
1.48344e-05
9.27931e-05
4.19551e-06
2.61303e-05
0.000680018
2.7247e-06
1.74639e-05
0.000483071
6.14089e-06
1.83324e-05
0.000478546
1.80427e-06
1.88614e-05
0.000288117
3.06651e-06
2.10594e-05
0.000285625
4.45604e-06
2.16961e-05
0.000282345
7.35645e-07
1.06441e-05
9.47453e-05
8.9584e-07
1.30635e-05
9.41419e-05
1.29454e-06
1.41381e-05
9.31426e-05
1.49874e-06
1.49039e-05
9.20063e-05
6.19933e-06
2.44657e-05
0.00088578
4.66995e-06
2.49991e-05
0.000682737
1.08887e-05
2.20319e-05
0.000676082
2.91361e-06
1.705e-05
0.000484968
6.34466e-06
1.7649e-05
0.000480476
9.06209e-06
1.9599e-05
0.000474829
1.92425e-06
1.80777e-05
0.00028933
3.21567e-06
2.01114e-05
0.000286745
4.6198e-06
2.05926e-05
0.000283404
5.15833e-06
2.1699e-05
0.000279634
7.80568e-07
9.94506e-06
9.51203e-05
9.4646e-07
1.23621e-05
9.45002e-05
1.3487e-06
1.33694e-05
9.35619e-05
1.55415e-06
1.41209e-05
9.23714e-05
1.74149e-06
1.2647e-05
9.09798e-05
1.11045e-05
2.40155e-05
0.00108969
7.18305e-06
2.3714e-05
0.000889366
1.73334e-05
2.01963e-05
0.000880636
5.00917e-06
2.35916e-05
0.000685488
1.12312e-05
2.11282e-05
0.000678754
1.58777e-05
1.92319e-05
0.000670418
3.07587e-06
1.65732e-05
0.00048689
6.55467e-06
1.69112e-05
0.000482367
9.32697e-06
1.85849e-05
0.000476783
1.06313e-05
2.07433e-05
0.000470331
2.05174e-06
1.72037e-05
0.000290485
3.33805e-06
1.91103e-05
0.000287939
4.76412e-06
1.94443e-05
0.000284478
5.28662e-06
2.06498e-05
0.00028072
5.72605e-06
1.99648e-05
0.000276456
8.34392e-07
9.19155e-06
9.54994e-05
1.00059e-06
1.1615e-05
9.48669e-05
1.40013e-06
1.25321e-05
9.39374e-05
1.61021e-06
1.32968e-05
9.27758e-05
1.79835e-06
1.18559e-05
9.13642e-05
2.06071e-06
1.2409e-05
8.9727e-05
1.67116e-05
1.66105e-05
0.00130402
1.25131e-05
2.20803e-05
0.00109449
2.46944e-05
2.0855e-05
0.00108283
7.89857e-06
2.24371e-05
0.000893017
1.75751e-05
1.90246e-05
0.000884194
2.52119e-05
2.1023e-05
0.00087294
5.20012e-06
2.20513e-05
0.00068824
1.16524e-05
2.0054e-05
0.000681464
1.6133e-05
1.8094e-05
0.000673086
1.8349e-05
1.83596e-05
0.000663732
3.26714e-06
1.60056e-05
0.000488818
6.74719e-06
1.61484e-05
0.000484243
9.55801e-06
1.74857e-05
0.000478672
1.08895e-05
1.9688e-05
0.000472235
1.19691e-05
1.97606e-05
0.000464979
2.17616e-06
1.6299e-05
0.000291581
3.47537e-06
1.80146e-05
0.000289106
4.87975e-06
1.8284e-05
0.00028562
5.4178e-06
1.95312e-05
0.000281789
5.84676e-06
1.90674e-05
0.000277569
6.52259e-06
1.93256e-05
0.000272884
8.79061e-07
8.37449e-06
9.5885e-05
1.04218e-06
1.08263e-05
9.52459e-05
1.44777e-06
1.16612e-05
9.42899e-05
1.66372e-06
1.24226e-05
9.31479e-05
1.85476e-06
1.10353e-05
9.17416e-05
2.12422e-06
1.15475e-05
9.01015e-05
2.32728e-06
1.42246e-05
8.8351e-05
2.64228e-05
1.87462e-05
0.00152544
1.78442e-05
1.57849e-05
0.00130896
3.74415e-05
1.84612e-05
0.00129056
1.29843e-05
2.04979e-05
0.00109866
2.55113e-05
2.00898e-05
0.00108732
3.50406e-05
1.89862e-05
0.00107362
8.43998e-06
2.07592e-05
0.000896566
1.74268e-05
1.84876e-05
0.000887779
2.54693e-05
1.93469e-05
0.000876533
3.0412e-05
2.09446e-05
0.00086224
5.54412e-06
2.03138e-05
0.00069098
1.19705e-05
1.88961e-05
0.000684175
1.64472e-05
1.68836e-05
0.000675786
1.85371e-05
1.7403e-05
0.000666395
2.04463e-05
1.86672e-05
0.000656143
3.4897e-06
1.5342e-05
0.000490758
6.92672e-06
1.53384e-05
0.000486176
9.75832e-06
1.63223e-05
0.000480528
1.11116e-05
1.8567e-05
0.000474099
1.22236e-05
1.88036e-05
0.000466815
1.35582e-05
1.95599e-05
0.00045881
2.26955e-06
1.53294e-05
0.000292746
3.58288e-06
1.68563e-05
0.000290198
5.00931e-06
1.70557e-05
0.000286772
5.54681e-06
1.8321e-05
0.000282947
5.97754e-06
1.80492e-05
0.000278684
6.66642e-06
1.83479e-05
0.000274005
7.27037e-06
2.04029e-05
0.000268963
9.23451e-07
7.52053e-06
9.62705e-05
1.08009e-06
9.99124e-06
9.56401e-05
1.48976e-06
1.07641e-05
9.46532e-05
1.71034e-06
1.15001e-05
9.35021e-05
1.91233e-06
1.01732e-05
9.20977e-05
2.18593e-06
1.06261e-05
9.04771e-05
2.40162e-06
1.32163e-05
8.87083e-05
2.46698e-06
1.61463e-05
8.6955e-05
4.13045e-05
2.87872e-05
0.00175407
3.07446e-05
1.53694e-05
0.00153195
5.56122e-05
2.51616e-05
0.00150873
1.85042e-05
1.54177e-05
0.00131382
3.88183e-05
1.87439e-05
0.00129537
4.78544e-05
1.76605e-05
0.00127739
1.36516e-05
1.89239e-05
0.00110296
2.52177e-05
1.95376e-05
0.00109142
3.57055e-05
1.80805e-05
0.00107799
4.39427e-05
1.74014e-05
0.00106048
9.18298e-06
1.87114e-05
0.000900002
1.72567e-05
1.84715e-05
0.000891295
2.51526e-05
1.82753e-05
0.000880146
3.07185e-05
1.95239e-05
0.000865773
3.3227e-05
2.02122e-05
0.000850484
5.93897e-06
1.84e-05
0.000693757
1.22397e-05
1.7695e-05
0.000686868
1.67156e-05
1.5628e-05
0.000678473
1.87985e-05
1.64263e-05
0.000669075
2.06734e-05
1.78085e-05
0.000658804
2.28744e-05
1.98196e-05
0.000647542
3.68261e-06
1.45773e-05
0.000492694
7.11748e-06
1.44072e-05
0.000488155
9.94083e-06
1.51169e-05
0.00048245
1.13244e-05
1.73065e-05
0.000476011
1.24672e-05
1.7755e-05
0.000468658
1.38136e-05
1.85928e-05
0.000460635
1.49118e-05
2.07525e-05
0.000452141
2.36859e-06
1.43025e-05
0.000293898
3.67028e-06
1.56202e-05
0.000291392
5.13592e-06
1.57141e-05
0.000287894
5.65356e-06
1.70599e-05
0.00028409
6.11298e-06
1.69228e-05
0.000279873
6.81533e-06
1.72678e-05
0.000275135
7.44335e-06
1.92852e-05
0.000270081
7.7269e-06
2.14235e-05
0.000264853
9.68379e-07
6.64938e-06
9.66361e-05
1.1192e-06
9.11141e-06
9.60311e-05
1.53052e-06
9.82254e-06
9.50511e-05
1.7599e-06
1.05374e-05
9.38561e-05
1.9593e-06
9.2503e-06
9.24657e-05
2.24695e-06
9.649e-06
9.08278e-05
2.46885e-06
1.21524e-05
8.90721e-05
2.54328e-06
1.5015e-05
8.72963e-05
2.59002e-06
1.8082e-05
8.55581e-05
5.32364e-05
1.72816e-05
0.00198504
4.83443e-05
2.59329e-05
0.0017615
7.36065e-05
2.48811e-05
0.00173699
3.0765e-05
1.24735e-05
0.00153846
5.93003e-05
2.21551e-05
0.00151447
6.80362e-05
2.43097e-05
0.00149008
1.98038e-05
1.49125e-05
0.00131857
3.90376e-05
1.83178e-05
0.00130043
4.89557e-05
1.76104e-05
0.00128217
5.96737e-05
1.74492e-05
0.00126196
1.43063e-05
1.79779e-05
0.00110734
2.51047e-05
1.9101e-05
0.00109555
3.52649e-05
1.7204e-05
0.00108219
4.45978e-05
1.66782e-05
0.00106483
4.83772e-05
1.74217e-05
0.00104583
9.35971e-06
1.68369e-05
0.000903474
1.71861e-05
1.87261e-05
0.000894801
2.49419e-05
1.76882e-05
0.000883656
3.06791e-05
1.84776e-05
0.000869311
3.35932e-05
1.91206e-05
0.000853945
3.59641e-05
2.03248e-05
0.000838387
5.76943e-06
1.68689e-05
0.000696509
1.2505e-05
1.64415e-05
0.000689623
1.69686e-05
1.43011e-05
0.000681167
1.91415e-05
1.53089e-05
0.000671773
2.09736e-05
1.69489e-05
0.000661429
2.32995e-05
1.89482e-05
0.000650189
2.51073e-05
2.14607e-05
0.000638269
3.88487e-06
1.37078e-05
0.000494652
7.34388e-06
1.33324e-05
0.000490095
1.01297e-05
1.38533e-05
0.000484425
1.15128e-05
1.5988e-05
0.000477909
1.26895e-05
1.66185e-05
0.000470571
1.40775e-05
1.75146e-05
0.000462474
1.51719e-05
1.97076e-05
0.000453952
1.58176e-05
2.17042e-05
0.000445149
2.47479e-06
1.32207e-05
0.000295038
3.75915e-06
1.43198e-05
0.000292558
5.24381e-06
1.42735e-05
0.000289119
5.77574e-06
1.57716e-05
0.000285166
6.22321e-06
1.57488e-05
0.000281
6.96287e-06
1.61395e-05
0.000276285
7.61198e-06
1.80736e-05
0.000271203
7.91828e-06
2.02016e-05
0.000265928
8.13647e-06
2.28958e-05
0.000260614
1.00738e-06
5.73885e-06
9.70253e-05
1.16541e-06
8.17947e-06
9.64026e-05
1.56507e-06
8.83541e-06
9.54532e-05
1.81034e-06
9.51073e-06
9.42674e-05
2.0121e-06
8.26735e-06
9.28269e-05
2.29918e-06
8.62282e-06
9.11927e-05
2.53237e-06
1.10344e-05
8.94136e-05
2.61565e-06
1.38324e-05
8.76391e-05
2.67292e-06
1.68202e-05
8.58852e-05
2.68808e-06
2.02572e-05
8.41723e-05
8.20672e-05
2.61057e-05
0.00222979
6.08275e-05
1.61222e-05
0.00199096
9.90536e-05
1.59682e-05
0.00196486
4.60908e-05
2.5395e-05
0.00176827
7.98418e-05
2.16842e-05
0.00174415
9.32905e-05
1.91315e-05
0.001712
2.95337e-05
1.19074e-05
0.00154455
5.91834e-05
1.96565e-05
0.00152081
7.00017e-05
2.21872e-05
0.00149555
8.2108e-05
2.01727e-05
0.00146921
1.98715e-05
1.54919e-05
0.00132342
3.97994e-05
1.67491e-05
0.00130544
4.91159e-05
1.70219e-05
0.00128716
6.04771e-05
1.70369e-05
0.0012667
6.63433e-05
1.878e-05
0.00124482
1.44893e-05
1.71164e-05
0.0011117
2.5097e-05
1.87996e-05
0.00109973
3.50334e-05
1.62704e-05
0.00108639
4.46563e-05
1.57627e-05
0.00106912
4.90838e-05
1.6647e-05
0.00105012
5.20853e-05
1.80644e-05
0.00103076
7.82911e-06
1.61263e-05
0.000906915
1.71875e-05
1.91321e-05
0.000898386
2.47736e-05
1.74823e-05
0.000887202
3.09737e-05
1.74965e-05
0.000872805
3.39079e-05
1.80684e-05
0.000857429
3.65559e-05
1.92577e-05
0.000841755
3.84136e-05
2.11069e-05
0.000826029
5.72353e-06
1.56116e-05
0.000699247
1.27312e-05
1.51916e-05
0.000692372
1.70995e-05
1.30334e-05
0.000683921
1.93638e-05
1.41574e-05
0.000674468
2.13721e-05
1.59454e-05
0.000664094
2.36904e-05
1.8008e-05
0.000652756
2.56216e-05
2.03415e-05
0.000640859
2.6896e-05
2.23534e-05
0.000628276
4.04067e-06
1.27919e-05
0.000496602
7.52222e-06
1.21972e-05
0.000492024
1.03273e-05
1.25105e-05
0.000486354
1.17014e-05
1.4701e-05
0.000479786
1.2902e-05
1.54018e-05
0.000472447
1.4326e-05
1.63801e-05
0.000464343
1.54501e-05
1.85374e-05
0.000455806
1.611e-05
2.05136e-05
0.000446951
1.66172e-05
2.30004e-05
0.000437921
2.57729e-06
1.208e-05
0.000296195
3.8879e-06
1.29292e-05
0.000293706
5.33222e-06
1.27818e-05
0.000290283
5.89555e-06
1.43996e-05
0.000286406
6.35299e-06
1.45539e-05
0.00028202
7.09485e-06
1.49501e-05
0.000277394
7.77659e-06
1.68149e-05
0.0002723
8.0945e-06
1.89082e-05
0.000267018
8.34295e-06
2.15286e-05
0.000261625
8.3581e-06
2.4991e-05
0.000256384
1.0414e-06
4.78459e-06
9.74319e-05
1.20982e-06
7.20421e-06
9.67907e-05
1.60328e-06
7.81715e-06
9.58176e-05
1.85338e-06
8.43624e-06
9.46743e-05
2.06189e-06
7.23811e-06
9.32348e-05
2.35378e-06
7.52329e-06
9.15727e-05
2.59228e-06
9.86914e-06
8.97657e-05
2.6858e-06
1.25875e-05
8.79726e-05
2.7518e-06
1.54956e-05
8.62119e-05
2.7779e-06
1.88694e-05
8.44951e-05
2.8415e-06
2.2315e-05
8.27714e-05
0.000101455
3.80088e-05
0.0024753
9.1223e-05
1.71247e-05
0.00223945
0.000136279
2.26626e-05
0.00219312
6.53714e-05
7.1125e-06
0.00199991
9.89338e-05
1.64837e-05
0.00197135
0.000126754
1.45293e-05
0.00193376
4.64309e-05
2.22397e-05
0.00177398
7.74604e-05
2.05983e-05
0.00175108
9.71019e-05
1.70422e-05
0.00171914
0.000107608
1.75258e-05
0.00168682
3.1242e-05
9.58362e-06
0.00155111
5.78497e-05
1.94162e-05
0.00152674
7.06223e-05
1.98184e-05
0.00150168
8.27861e-05
1.88492e-05
0.00147456
9.0062e-05
1.88725e-05
0.0014472
2.12766e-05
1.49663e-05
0.00132855
4.00191e-05
1.47994e-05
0.00131045
4.98492e-05
1.55812e-05
0.00129207
6.10012e-05
1.61999e-05
0.00127166
6.69016e-05
1.80638e-05
0.0012496
7.10068e-05
1.93236e-05
0.00122689
1.23357e-05
1.60751e-05
0.00111676
2.50878e-05
1.85147e-05
0.00110409
3.49469e-05
1.52336e-05
0.00109059
4.49209e-05
1.4805e-05
0.0010734
4.9613e-05
1.56587e-05
0.00105441
5.27653e-05
1.70351e-05
0.00103494
5.51069e-05
1.95897e-05
0.0010153
5.21776e-06
1.75956e-05
0.000910513
2.01559e-05
1.65721e-05
0.000902051
2.48044e-05
1.73888e-05
0.000890774
3.11218e-05
1.65959e-05
0.000876344
3.44952e-05
1.68746e-05
0.000860876
3.70573e-05
1.81192e-05
0.000845201
3.91908e-05
1.99564e-05
0.000829336
4.08235e-05
2.19766e-05
0.000813131
5.90971e-06
1.43813e-05
0.000702002
1.29967e-05
1.38384e-05
0.000695126
1.73034e-05
1.17906e-05
0.000686638
1.94909e-05
1.30684e-05
0.000677221
2.16296e-05
1.48865e-05
0.000666799
2.40108e-05
1.70245e-05
0.000655393
2.60802e-05
1.91031e-05
0.000643364
2.74013e-05
2.10986e-05
0.000630822
2.81636e-05
2.33018e-05
0.000617954
4.18569e-06
1.18442e-05
0.000498552
7.66786e-06
1.10423e-05
0.000493977
1.04763e-05
1.11187e-05
0.000488272
1.18805e-05
1.33764e-05
0.000481694
1.31048e-05
1.41721e-05
0.000474264
1.4586e-05
1.51504e-05
0.000466186
1.57375e-05
1.72637e-05
0.000457655
1.63918e-05
1.92396e-05
0.000448783
1.69304e-05
2.16164e-05
0.000439747
1.68482e-05
2.47152e-05
0.00043079
2.66665e-06
1.08852e-05
0.000297355
4.0303e-06
1.1426e-05
0.000294878
5.43556e-06
1.12583e-05
0.000291398
6.0103e-06
1.29563e-05
0.000287569
6.4787e-06
1.33278e-05
0.000283215
7.23127e-06
1.36849e-05
0.000278408
7.92443e-06
1.5488e-05
0.000273389
8.26771e-06
1.74894e-05
0.000268137
8.52869e-06
2.0095e-05
0.000262675
8.57355e-06
2.3481e-05
0.000257339
8.66528e-06
2.7308e-05
0.000252119
1.0628e-06
3.78893e-06
9.7862e-05
1.24583e-06
6.21919e-06
9.71711e-05
1.63248e-06
6.77658e-06
9.61988e-05
1.88436e-06
7.35447e-06
9.5015e-05
2.10755e-06
6.18137e-06
9.36235e-05
2.40446e-06
6.38834e-06
9.19653e-05
2.64939e-06
8.63097e-06
9.01614e-05
2.75204e-06
1.12625e-05
8.83386e-05
2.82466e-06
1.40935e-05
8.65501e-05
2.8634e-06
1.7398e-05
8.48199e-05
2.94062e-06
2.07781e-05
8.30914e-05
3.04779e-06
2.45378e-05
8.13347e-05
0.000181088
6.32126e-05
0.00298666
0.000149103
2.42181e-05
0.00272647
0.000121325
3.26759e-05
0.00248545
0.000169666
2.47861e-05
0.00243789
8.26056e-05
2.27498e-05
0.00225195
0.000139869
1.9522e-05
0.00220165
0.000165364
1.51014e-05
0.0021575
5.48394e-05
7.05253e-06
0.00200466
0.000103787
9.66186e-06
0.0019804
0.000125663
1.68399e-05
0.00194048
0.000141348
1.86529e-05
0.00189974
4.73058e-05
2.02411e-05
0.00178111
7.67857e-05
1.84655e-05
0.00175718
9.64725e-05
1.60655e-05
0.00172621
0.000109273
1.61801e-05
0.001694
0.000117093
1.6971e-05
0.00166009
3.22312e-05
7.2475e-06
0.00155691
6.01783e-05
1.72185e-05
0.00153315
7.02185e-05
1.89365e-05
0.00150725
8.41684e-05
1.69004e-05
0.00148046
9.00605e-05
1.75808e-05
0.0014527
9.40965e-05
1.99152e-05
0.00142565
2.0663e-05
1.23174e-05
0.00133362
4.0782e-05
1.21495e-05
0.00131551
5.03861e-05
1.34816e-05
0.00129711
6.16211e-05
1.50781e-05
0.00127649
6.77188e-05
1.70219e-05
0.00125459
7.15166e-05
1.84785e-05
0.00123169
7.49582e-05
2.10089e-05
0.00120832
9.9352e-06
1.44669e-05
0.00111992
2.84403e-05
1.72535e-05
0.00110974
3.51652e-05
1.39601e-05
0.001095
4.53199e-05
1.3512e-05
0.00107769
5.02884e-05
1.45829e-05
0.00105869
5.34745e-05
1.58757e-05
0.00103915
5.58703e-05
1.84089e-05
0.00101944
5.78619e-05
2.11708e-05
0.000999389
6.87954e-06
1.75075e-05
0.00091413
1.99192e-05
1.45193e-05
0.000905644
2.77209e-05
1.475e-05
0.000894272
3.1374e-05
1.56181e-05
0.000879869
3.49155e-05
1.55812e-05
0.000864352
3.75803e-05
1.68199e-05
0.000848606
3.98003e-05
1.87164e-05
0.00083272
4.15835e-05
2.07048e-05
0.000816426
4.25482e-05
2.3124e-05
0.000799963
6.21199e-06
1.30528e-05
0.000704761
1.32224e-05
1.23842e-05
0.000697902
1.75349e-05
1.04988e-05
0.000689359
1.97309e-05
1.1918e-05
0.000679938
2.18573e-05
1.38095e-05
0.000669545
2.44016e-05
1.5907e-05
0.000658101
2.63976e-05
1.78635e-05
0.000645972
2.78529e-05
1.96772e-05
0.000633325
2.86529e-05
2.19489e-05
0.000620453
2.83034e-05
2.51004e-05
0.000607831
4.34265e-06
1.08393e-05
0.000500524
7.80873e-06
9.85322e-06
0.000495962
1.06043e-05
9.71065e-06
0.000490216
1.2046e-05
1.19555e-05
0.000483657
1.32966e-05
1.29e-05
0.000476148
1.48129e-05
1.38347e-05
0.000467998
1.60176e-05
1.58971e-05
0.000459459
1.66793e-05
1.79034e-05
0.00045058
1.72164e-05
2.01852e-05
0.000441526
1.71676e-05
2.32239e-05
0.000432644
1.72393e-05
2.65316e-05
0.000423692
2.73221e-06
9.65811e-06
0.00029851
4.12674e-06
9.87143e-06
0.000296029
5.53542e-06
9.69179e-06
0.000292542
6.08044e-06
1.15139e-05
0.000288644
6.60019e-06
1.20366e-05
0.000284368
7.36221e-06
1.23948e-05
0.000279547
8.06533e-06
1.40781e-05
0.000274402
8.42823e-06
1.59854e-05
0.000269217
8.70552e-06
1.8505e-05
0.000263846
8.77835e-06
2.18679e-05
0.000258373
8.88576e-06
2.5637e-05
0.000253065
9.14035e-06
2.98099e-05
0.000247764
1.08096e-06
2.77782e-06
9.82694e-05
1.26272e-06
5.19763e-06
9.76208e-05
1.65868e-06
5.71237e-06
9.65767e-05
1.90602e-06
6.25361e-06
9.53936e-05
2.14155e-06
5.09153e-06
9.39633e-05
2.45241e-06
5.24406e-06
9.23154e-05
2.70141e-06
7.34832e-06
9.05465e-05
2.8116e-06
9.88511e-06
8.87272e-05
2.89091e-06
1.26028e-05
8.69385e-05
2.94132e-06
1.58528e-05
8.5154e-05
3.03414e-06
1.91351e-05
8.34288e-05
3.16115e-06
2.28075e-05
8.16605e-05
3.25039e-06
2.68476e-05
7.9889e-05
0.000237203
9.51102e-05
0.00328916
0.000216005
6.40151e-05
0.00300104
0.000269393
1.7309e-05
0.00293071
0.00015469
3.26443e-05
0.00273895
0.000228255
3.28681e-05
0.00267917
0.000109973
2.50861e-05
0.00248687
0.000167006
2.69254e-05
0.00245617
0.000200945
1.93138e-05
0.00240036
7.37435e-05
2.38014e-05
0.00225752
0.000136498
2.49971e-05
0.00221377
0.00016348
1.4032e-05
0.0021649
0.000182106
1.8233e-05
0.00211966
5.61425e-05
3.99347e-06
0.00201588
9.44138e-05
9.86002e-06
0.00198683
0.000130307
1.47224e-05
0.00194868
0.000141096
2.02467e-05
0.00190707
0.000151004
1.81458e-05
0.00186636
4.70518e-05
1.94999e-05
0.00178745
7.79056e-05
1.7643e-05
0.00176421
9.57975e-05
1.51276e-05
0.00173254
0.000110214
1.54293e-05
0.00170091
0.000117717
1.60454e-05
0.00166727
0.000121296
1.81036e-05
0.00163301
2.40918e-05
1.22683e-05
0.00156384
5.88939e-05
1.71145e-05
0.0015389
7.26704e-05
1.66529e-05
0.00151315
8.45652e-05
1.53221e-05
0.00148589
9.16497e-05
1.56468e-05
0.00145846
9.4309e-05
1.85515e-05
0.00143127
9.80208e-05
2.125e-05
0.00140411
2.20723e-05
6.52135e-06
0.00133875
4.04345e-05
1.36808e-05
0.00132009
5.11499e-05
1.09212e-05
0.00130209
6.24115e-05
1.35879e-05
0.00128151
6.83479e-05
1.59346e-05
0.00125952
7.25126e-05
1.73577e-05
0.00123668
7.56343e-05
1.97869e-05
0.00121315
7.81606e-05
2.19408e-05
0.00118927
1.18013e-05
1.28954e-05
0.00112423
2.80493e-05
1.50785e-05
0.00111396
3.88383e-05
1.23996e-05
0.00110018
4.58067e-05
1.19743e-05
0.00108211
5.09796e-05
1.32372e-05
0.00106297
5.42499e-05
1.45554e-05
0.00104334
5.65799e-05
1.72197e-05
0.00102356
5.86762e-05
2.00158e-05
0.0010035
5.9601e-05
2.30928e-05
0.000983558
8.02593e-06
1.66433e-05
0.000917673
1.98138e-05
1.28121e-05
0.000909246
2.82686e-05
1.18775e-05
0.000897783
3.26986e-05
1.36656e-05
0.000883257
3.53477e-05
1.41184e-05
0.000867841
3.8163e-05
1.54073e-05
0.000852003
4.023e-05
1.74234e-05
0.000836066
4.22131e-05
1.93229e-05
0.000819742
4.32316e-05
2.17939e-05
0.000803178
4.2513e-05
2.46034e-05
0.00078704
6.43133e-06
1.17081e-05
0.000707522
1.33566e-05
1.08966e-05
0.000700701
1.77571e-05
9.13128e-06
0.000692117
1.99348e-05
1.07396e-05
0.000682649
2.21787e-05
1.26027e-05
0.000672263
2.47829e-05
1.46515e-05
0.000660831
2.68505e-05
1.64748e-05
0.000648657
2.82642e-05
1.81798e-05
0.000635885
2.90949e-05
2.04082e-05
0.000622987
2.88369e-05
2.35931e-05
0.000610291
2.86706e-05
2.69472e-05
0.000597763
4.48282e-06
9.77235e-06
0.000502491
7.90217e-06
8.66343e-06
0.000497938
1.07347e-05
8.27909e-06
0.000492195
1.21821e-05
1.04883e-05
0.000485582
1.34898e-05
1.15397e-05
0.000478128
1.50295e-05
1.24716e-05
0.000469844
1.6259e-05
1.44392e-05
0.000461262
1.69699e-05
1.64506e-05
0.00045237
1.75149e-05
1.87119e-05
0.000443244
1.74808e-05
2.16565e-05
0.000434391
1.75635e-05
2.49638e-05
0.000425534
1.80315e-05
2.88837e-05
0.000416461
2.79224e-06
8.37694e-06
0.000299697
4.18307e-06
8.27099e-06
0.00029719
5.59705e-06
8.10559e-06
0.000293676
6.13081e-06
1.00295e-05
0.000289801
6.67123e-06
1.06987e-05
0.000285452
7.48448e-06
1.10409e-05
0.000280689
8.19889e-06
1.26226e-05
0.000275505
8.57673e-06
1.4415e-05
0.000270207
8.87963e-06
1.68134e-05
0.00026492
8.96476e-06
2.01197e-05
0.000259571
9.1077e-06
2.38577e-05
0.000254079
9.38439e-06
2.79e-05
0.000248752
9.62489e-06
3.23768e-05
0.000243335
1.1224e-06
1.74866e-06
9.86467e-05
1.27149e-06
4.15806e-06
9.80375e-05
1.67863e-06
4.62819e-06
9.70263e-05
1.9325e-06
5.11028e-06
9.57875e-05
2.16739e-06
3.96795e-06
9.43498e-05
2.49216e-06
4.04301e-06
9.26722e-05
2.75432e-06
6.04397e-06
9.08654e-05
2.86469e-06
8.48487e-06
8.90821e-05
2.95453e-06
1.10714e-05
8.7304e-05
3.01479e-06
1.42427e-05
8.55338e-05
3.11791e-06
1.74295e-05
8.37416e-05
3.26344e-06
2.09587e-05
8.20142e-05
3.36541e-06
2.49447e-05
8.0198e-05
3.47696e-06
2.95348e-05
7.83954e-05
0.000371456
0.000666815
0.00379513
0.000322546
0.000315307
0.00356578
0.000266502
9.78855e-05
0.00328838
0.000356346
2.45833e-05
0.00322711
0.000223296
5.2309e-05
0.00300192
0.000295246
1.99772e-05
0.00293139
0.000316506
1.02693e-05
0.00286697
0.000165958
1.87569e-05
0.00275178
0.000217418
3.42395e-05
0.00268716
0.000266525
1.08004e-05
0.00263016
0.000120782
1.70596e-05
0.00249127
0.000178265
1.9166e-05
0.00245286
0.000199167
2.05887e-05
0.00241921
0.000229015
7.91043e-06
0.00235256
7.70108e-05
2.0091e-05
0.00226939
0.000133545
2.34747e-05
0.00221991
0.000165488
1.66495e-05
0.00217597
0.000182417
1.4654e-05
0.00212716
0.000190431
2.00671e-05
0.002082
5.24284e-05
6.41617e-06
0.00202235
0.00010074
5.76853e-06
0.00199714
0.000126569
1.43333e-05
0.00195645
0.000145749
1.8889e-05
0.00191451
0.000150953
1.82464e-05
0.00187373
0.000155667
1.99183e-05
0.00183272
3.68491e-05
1.79179e-05
0.00179267
7.71034e-05
1.65411e-05
0.00177034
9.77267e-05
1.47068e-05
0.00173957
0.000110339
1.47488e-05
0.00170745
0.000118973
1.57142e-05
0.00167392
0.000121917
1.77269e-05
0.00164004
0.000124591
2.07474e-05
0.00160691
2.76329e-05
1.44253e-05
0.0015717
5.4802e-05
2.11131e-05
0.00154548
7.20931e-05
1.59424e-05
0.00151867
8.6256e-05
1.31452e-05
0.00149149
9.17904e-05
1.40528e-05
0.00146404
9.55404e-05
1.70057e-05
0.00143698
9.86504e-05
1.9691e-05
0.00140981
0.000101993
2.18733e-05
0.00138156
2.27907e-05
2.24919e-06
0.00134345
4.17368e-05
1.35294e-05
0.00132522
5.12316e-05
1.16028e-05
0.00130702
6.29909e-05
1.20779e-05
0.00128641
6.91384e-05
1.4779e-05
0.0012645
7.31451e-05
1.63188e-05
0.00124166
7.65418e-05
1.83843e-05
0.00121812
7.89063e-05
2.07642e-05
0.0011941
7.99955e-05
2.34598e-05
0.0011701
1.42873e-05
1.05397e-05
0.00112904
2.76577e-05
1.32266e-05
0.00111824
3.94777e-05
1.04673e-05
0.00110469
4.74593e-05
1.05532e-05
0.00108684
5.16263e-05
1.17603e-05
0.00106731
5.50021e-05
1.31448e-05
0.00104754
5.72872e-05
1.58598e-05
0.00102764
5.93683e-05
1.88491e-05
0.00100757
6.04274e-05
2.17846e-05
0.000987614
5.92945e-05
2.50949e-05
0.000968129
8.40886e-06
1.56522e-05
0.000921241
1.97158e-05
1.13236e-05
0.000912802
2.7639e-05
9.85509e-06
0.000901387
3.32488e-05
1.14502e-05
0.000886684
3.57745e-05
1.26181e-05
0.000871161
3.87664e-05
1.38044e-05
0.000855461
4.08407e-05
1.6027e-05
0.000839409
4.27149e-05
1.78958e-05
0.000823043
4.38722e-05
2.0333e-05
0.000806426
4.31925e-05
2.3283e-05
0.000790142
4.28579e-05
2.65415e-05
0.000774235
6.42933e-06
1.05823e-05
0.000710238
1.3429e-05
9.39986e-06
0.000703492
1.78929e-05
7.78531e-06
0.000694889
2.01457e-05
9.49896e-06
0.000685394
2.24385e-05
1.13508e-05
0.000674952
2.5198e-05
1.32242e-05
0.000663522
2.73045e-05
1.49196e-05
0.00065134
2.86997e-05
1.66234e-05
0.000638483
2.95498e-05
1.8769e-05
0.000625489
2.93076e-05
2.18923e-05
0.000612861
2.92438e-05
2.53699e-05
0.000600188
2.95831e-05
2.90766e-05
0.000587639
4.61814e-06
8.64493e-06
0.00050447
8.00547e-06
7.4298e-06
0.000499902
1.07673e-05
6.88841e-06
0.000494159
1.23163e-05
9.02226e-06
0.000487475
1.36515e-05
1.01178e-05
0.000480024
1.52441e-05
1.10738e-05
0.000471766
1.64879e-05
1.29088e-05
0.000463085
1.72288e-05
1.48858e-05
0.000454175
1.78181e-05
1.71212e-05
0.000445023
1.78103e-05
2.00152e-05
0.00043604
1.79062e-05
2.33047e-05
0.000427252
1.83874e-05
2.71828e-05
0.000418232
1.88794e-05
3.13986e-05
0.000409046
2.8706e-06
7.04654e-06
0.000300889
4.21612e-06
6.64543e-06
0.000298378
5.66315e-06
6.48265e-06
0.000294828
6.18735e-06
8.51211e-06
0.000290939
6.72198e-06
9.28161e-06
0.000286664
7.57726e-06
9.5989e-06
0.000281809
8.3231e-06
1.10972e-05
0.000276646
8.7156e-06
1.27836e-05
0.000271286
9.03914e-06
1.50457e-05
0.00026589
9.14685e-06
1.82785e-05
0.000260629
9.30881e-06
2.19594e-05
0.000255278
9.62576e-06
2.59041e-05
0.000249712
9.88443e-06
3.02735e-05
0.000244336
1.0212e-05
3.51976e-05
0.000238722
1.13164e-06
7.02836e-07
9.90347e-05
1.30536e-06
3.11362e-06
9.83858e-05
1.69063e-06
3.5306e-06
9.74444e-05
1.96317e-06
3.93829e-06
9.62351e-05
2.19509e-06
2.80425e-06
9.47561e-05
2.52418e-06
2.79457e-06
9.30741e-05
2.80097e-06
4.69397e-06
9.12212e-05
2.91933e-06
7.02398e-06
8.9407e-05
3.01736e-06
9.50448e-06
8.76317e-05
3.08694e-06
1.25435e-05
8.59163e-05
3.19764e-06
1.56685e-05
8.40972e-05
3.35578e-06
1.90444e-05
8.23001e-05
3.47281e-06
2.2939e-05
8.0547e-05
3.61039e-06
2.74418e-05
7.86807e-05
3.75779e-06
3.24119e-05
7.67958e-05
0.00040987
0.00203414
0.00390775
0.000378957
0.000693242
0.00378594
0.000541594
0.000415164
0.00368838
0.000357031
0.000285748
0.00357774
0.000441822
0.000251899
0.00347092
0.000272992
9.55289e-05
0.00331402
0.00033582
5.42586e-05
0.00321813
0.000435486
3.04314e-05
0.00314074
0.000240097
5.11992e-05
0.00300656
0.000263671
2.37643e-05
0.00295188
0.000320827
2.01462e-05
0.00286721
0.000387671
-1.83666e-05
0.00279246
0.0001623
1.85005e-05
0.00276593
0.000241622
2.16359e-05
0.00270103
0.000237934
1.97434e-05
0.00263945
0.000299186
2.52907e-05
0.00257164
0.000126992
7.01522e-06
0.00249878
0.00017925
6.24088e-06
0.00245849
0.000209601
1.42622e-05
0.00241507
0.000226298
1.18388e-05
0.0023714
0.000239585
1.0277e-05
0.00230451
7.48147e-05
1.73241e-05
0.00227704
0.000143692
1.60948e-05
0.00223382
0.000164828
1.59928e-05
0.0021823
0.000183799
1.54985e-05
0.00213707
0.000190609
1.67698e-05
0.0020908
0.000193737
2.08157e-05
0.0020451
3.05628e-05
1.78053e-05
0.00204122
9.92751e-05
2.90912e-06
0.00200304
0.000132829
1.17116e-05
0.00196466
0.000145081
1.77023e-05
0.00192289
0.000153632
1.74477e-05
0.00188065
0.000157301
1.83767e-05
0.00183989
0.000156765
1.99149e-05
0.00180239
3.28197e-05
2.34863e-05
0.00180544
7.01377e-05
1.78764e-05
0.001776
9.68537e-05
1.4519e-05
0.00174577
0.0001124
1.36577e-05
0.00171452
0.000119518
1.47223e-05
0.00168071
0.000123399
1.73384e-05
0.00164645
0.000125819
1.9832e-05
0.00161379
0.00013063
2.17883e-05
0.00157905
2.83165e-05
1.63615e-05
0.00157785
5.90026e-05
2.42694e-05
0.00155128
7.26442e-05
1.545e-05
0.00152456
8.6529e-05
1.13296e-05
0.00149695
9.30421e-05
1.19986e-05
0.00146964
9.60989e-05
1.53694e-05
0.00144272
9.95536e-05
1.81049e-05
0.00141555
0.000102843
2.05167e-05
0.00138723
0.000104497
2.40824e-05
0.00135833
1.8254e-05
6.6959e-06
0.00134869
4.16915e-05
1.25276e-05
0.00133041
5.26806e-05
1.15965e-05
0.00131202
6.34216e-05
1.1554e-05
0.00129158
6.96956e-05
1.36815e-05
0.00126944
7.39222e-05
1.53241e-05
0.00124658
7.72924e-05
1.6975e-05
0.00122306
7.97539e-05
1.94506e-05
0.00119904
8.09208e-05
2.21943e-05
0.00117487
7.9188e-05
2.52177e-05
0.00115144
1.44385e-05
8.34036e-06
0.00113308
2.85163e-05
1.08671e-05
0.0011226
3.83538e-05
9.02719e-06
0.00110896
4.81342e-05
9.07576e-06
0.00109128
5.20178e-05
1.03214e-05
0.00107204
5.56678e-05
1.17875e-05
0.00105176
5.80035e-05
1.44697e-05
0.00103177
6.00778e-05
1.75331e-05
0.00101159
6.12032e-05
2.03911e-05
0.000991633
6.01405e-05
2.36326e-05
0.000972128
5.96369e-05
2.70768e-05
0.000952785
8.74425e-06
1.43487e-05
0.000924876
1.95926e-05
1.0061e-05
0.00091634
2.72651e-05
8.29491e-06
0.00090499
3.31567e-05
9.57817e-06
0.000890248
3.62454e-05
1.09245e-05
0.000874571
3.90216e-05
1.2355e-05
0.000858787
4.14534e-05
1.4501e-05
0.000842838
4.32634e-05
1.63787e-05
0.000826363
4.44848e-05
1.87213e-05
0.000809719
4.38502e-05
2.18008e-05
0.000793365
4.35976e-05
2.5102e-05
0.000777228
4.41786e-05
2.93928e-05
0.000761354
6.52921e-06
9.57235e-06
0.000713001
1.34921e-05
7.89631e-06
0.000706255
1.79259e-05
6.45352e-06
0.000697665
2.02768e-05
8.28684e-06
0.00068814
2.2687e-05
1.00392e-05
0.00067767
2.55087e-05
1.17386e-05
0.000666173
2.75703e-05
1.33808e-05
0.000653978
2.9137e-05
1.49494e-05
0.000641106
2.99894e-05
1.71463e-05
0.000627935
2.97336e-05
2.01434e-05
0.000615315
2.97615e-05
2.36027e-05
0.000602773
3.02383e-05
2.73927e-05
0.000590021
3.08053e-05
3.14563e-05
0.000577275
4.76414e-06
7.46937e-06
0.000506447
8.08598e-06
6.14195e-06
0.000501888
1.08638e-05
5.51009e-06
0.00049608
1.23851e-05
7.57171e-06
0.000489412
1.37976e-05
8.67611e-06
0.000481841
1.54354e-05
9.58812e-06
0.000473651
1.66963e-05
1.13588e-05
0.000464943
1.74613e-05
1.32102e-05
0.000456015
1.80864e-05
1.54202e-05
0.000446829
1.81239e-05
1.82472e-05
0.000437814
1.82741e-05
2.15144e-05
0.000428865
1.8758e-05
2.53808e-05
0.000419922
1.92818e-05
2.95059e-05
0.000410728
1.9902e-05
3.42016e-05
0.00040132
2.93956e-06
5.6514e-06
0.000302067
4.2783e-06
4.9855e-06
0.000299576
5.70851e-06
4.84495e-06
0.000295997
6.27063e-06
6.97338e-06
0.00029206
6.78868e-06
7.81082e-06
0.000287816
7.65724e-06
8.07442e-06
0.000283055
8.43874e-06
9.49532e-06
0.000277773
8.84669e-06
1.11181e-05
0.000272384
9.1851e-06
1.32169e-05
0.000266947
9.32274e-06
1.6366e-05
0.000261567
9.50216e-06
1.99624e-05
0.000256321
9.83692e-06
2.38384e-05
0.000250862
1.01451e-05
2.80749e-05
0.000245238
1.04983e-05
3.29551e-05
0.000239691
1.09122e-05
3.84792e-05
0.00023388
1.12053e-06
-3.44542e-07
9.94458e-05
1.31402e-06
2.05432e-06
9.878e-05
1.70945e-06
2.41933e-06
9.77876e-05
1.98891e-06
2.74646e-06
9.66474e-05
2.22712e-06
1.6275e-06
9.51848e-05
2.55314e-06
1.5183e-06
9.34792e-05
2.8399e-06
3.29961e-06
9.16285e-05
2.96874e-06
5.51235e-06
8.97641e-05
3.07034e-06
7.86968e-06
8.79714e-05
3.1563e-06
1.07622e-05
8.62567e-05
3.27408e-06
1.37979e-05
8.45128e-05
3.44706e-06
1.70638e-05
8.26307e-05
3.5863e-06
2.08081e-05
8.08448e-05
3.7297e-06
2.52733e-05
7.89858e-05
3.90047e-06
3.01069e-05
7.70853e-05
4.08025e-06
3.54172e-05
7.50951e-05
0.000604526
0.00362079
0.00398403