/*--------------------------------*- C++ -*----------------------------------*\
  =========                 |
  \\      /  F ield         | OpenFOAM: The Open Source CFD Toolbox
   \\    /   O peration     | Website:  https://openfoam.org
    \\  /    A nd           | Version:  7
     \\/     M anipulation  |
\*---------------------------------------------------------------------------*/
FoamFile
{
    version     2.0;
    format      ascii;
    class       volVectorField;
    location    "0.5";
    object      U_0;
}
// * * * * * * * * * * * * * * * * * * * * * * * * * * * * * * * * * * * * * //

dimensions      [0 1 -1 0 0 0 0];

internalField   nonuniform List<vector> 
18630
(
(-0.00691264 0.00245363 2.13278)
(-0.0112959 0.0036175 2.15676)
(-0.0068838 0.00244956 2.13272)
(-0.00803923 0.00288185 2.12447)
(-0.0102645 0.00472653 2.16484)
(-0.0114863 0.00341777 2.15662)
(-0.0129343 0.00647465 2.1495)
(-0.00698173 0.00263335 2.13234)
(-0.00806345 0.002806 2.12484)
(-0.00890987 0.00528324 2.11694)
(-0.0144214 0.00417143 2.17152)
(-0.0107558 0.00492085 2.16474)
(-0.0126132 0.0141309 2.15669)
(-0.0114078 0.00322268 2.1566)
(-0.0131874 0.00641344 2.14874)
(-0.0140075 0.0120095 2.13837)
(-0.00692985 0.00267569 2.13238)
(-0.00802734 0.00272174 2.12481)
(-0.00895284 0.00511489 2.11638)
(-0.00919861 0.00664856 2.10217)
(-0.014573 0.00883616 2.18332)
(-0.0144645 0.00336066 2.17146)
(-0.014408 0.0139751 2.16562)
(-0.0109735 0.00512536 2.16465)
(-0.0133892 0.0139425 2.15662)
(-0.014659 0.0204133 2.14535)
(-0.0114738 0.00291116 2.15691)
(-0.0131789 0.00628667 2.14875)
(-0.0144471 0.0118401 2.13776)
(-0.0146526 0.0152368 2.11979)
(-0.00690734 0.00268837 2.13239)
(-0.0079873 0.00279287 2.12414)
(-0.00896008 0.00499687 2.11743)
(-0.00927312 0.00656359 2.10182)
(-0.00839908 0.00857046 2.0804)
(-0.0134995 0.005306 2.18696)
(-0.015152 0.0100058 2.18334)
(-0.0165252 0.0273367 2.183)
(-0.0139163 0.00285218 2.17149)
(-0.0150686 0.01358 2.16553)
(-0.0154028 0.0247817 2.15104)
(-0.01144 0.00512197 2.16455)
(-0.0139733 0.0138334 2.15654)
(-0.0156484 0.0201482 2.14577)
(-0.0156294 0.0223946 2.12665)
(-0.0112843 0.00279843 2.15697)
(-0.013286 0.00588719 2.14941)
(-0.0146941 0.011657 2.13742)
(-0.0152488 0.0148664 2.11944)
(-0.0142141 0.0176093 2.09562)
(-0.00697534 0.00279522 2.13232)
(-0.0079939 0.00279961 2.12416)
(-0.0090136 0.00495712 2.11748)
(-0.00935555 0.00643549 2.1032)
(-0.00860765 0.00854403 2.08089)
(-0.00879146 0.0109071 2.05363)
(-0.0133666 0.0223061 2.202)
(-0.0135551 0.00560086 2.18822)
(-0.0153697 0.0228799 2.18523)
(-0.0161107 0.0103447 2.18331)
(-0.0175892 0.0271748 2.18316)
(-0.0187403 0.0359542 2.16715)
(-0.0134641 0.00233141 2.17154)
(-0.0154336 0.0132372 2.16552)
(-0.0165456 0.0246322 2.15107)
(-0.0162402 0.0308236 2.13089)
(-0.0116873 0.0051825 2.16447)
(-0.014769 0.0136658 2.15655)
(-0.0164383 0.0198177 2.14579)
(-0.0167166 0.0219681 2.12694)
(-0.0156765 0.0251313 2.10295)
(-0.0113632 0.00259138 2.1568)
(-0.0132477 0.00575936 2.14949)
(-0.0150429 0.0112696 2.13751)
(-0.0157221 0.0146062 2.11888)
(-0.0149902 0.0172235 2.09565)
(-0.0144975 0.0203483 2.07015)
(-0.00701652 0.00289696 2.13199)
(-0.00795535 0.00278856 2.12439)
(-0.00901101 0.00485286 2.11709)
(-0.00944762 0.00631663 2.10342)
(-0.00885328 0.00847381 2.08111)
(-0.00910848 0.010864 2.05423)
(-0.0100524 0.0123706 2.02367)
(-0.0104502 0.0121642 2.2239)
(-0.0150967 0.0243235 2.20175)
(-0.0178971 0.0413161 2.19265)
(-0.013286 0.00584859 2.18792)
(-0.0167735 0.0217906 2.18557)
(-0.0183848 0.0406326 2.16751)
(-0.0157921 0.0104546 2.18325)
(-0.019196 0.0270995 2.18339)
(-0.020186 0.0350044 2.16745)
(-0.019392 0.0396096 2.14237)
(-0.0129637 0.00209721 2.17161)
(-0.0158598 0.0127117 2.1655)
(-0.0176329 0.0243327 2.15119)
(-0.0177608 0.0305961 2.13094)
(-0.0172298 0.0350822 2.10754)
(-0.0120937 0.00508894 2.16438)
(-0.0153995 0.0134535 2.15664)
(-0.0173256 0.019369 2.1454)
(-0.017542 0.0215077 2.12696)
(-0.016935 0.0246628 2.10289)
(-0.0163459 0.0287631 2.07684)
(-0.0111224 0.00243361 2.15673)
(-0.013303 0.005408 2.1488)
(-0.0153047 0.0110252 2.13773)
(-0.0162706 0.0142871 2.11912)
(-0.0157036 0.0169035 2.09557)
(-0.0153988 0.0200592 2.07034)
(-0.0155946 0.0228189 2.04235)
(-0.0070411 0.00299487 2.13199)
(-0.00796855 0.00280675 2.1247)
(-0.00901656 0.00472438 2.11695)
(-0.00952832 0.00621553 2.10284)
(-0.00904825 0.00839911 2.08104)
(-0.00947073 0.0107975 2.05454)
(-0.0103964 0.0123195 2.02392)
(-0.01117 0.0129391 1.99169)
(-0.0224059 0.0381123 2.24861)
(-0.0136554 0.0101103 2.2236)
(-0.0213207 0.0407211 2.2071)
(-0.0161381 0.0236094 2.2016)
(-0.0213627 0.0420067 2.19223)
(-0.01971 0.0505665 2.17127)
(-0.013209 0.00625665 2.18799)
(-0.0170521 0.0192295 2.18491)
(-0.02073 0.0399164 2.16775)
(-0.0204226 0.0537553 2.14253)
(-0.0165944 0.0105559 2.1831)
(-0.0209323 0.0266215 2.18339)
(-0.0216701 0.0343889 2.16773)
(-0.0211379 0.0382945 2.14264)
(-0.0197184 0.0433215 2.11434)
(-0.0125159 0.0022161 2.17169)
(-0.0161817 0.0122374 2.16544)
(-0.0187242 0.0238483 2.15124)
(-0.0193715 0.030124 2.13106)
(-0.0191143 0.0347334 2.10765)
(-0.0187489 0.0399161 2.08156)
(-0.0122749 0.00497827 2.16433)
(-0.0161405 0.0130903 2.15656)
(-0.0180561 0.0189595 2.14555)
(-0.0185076 0.0209789 2.12697)
(-0.0180219 0.0241823 2.1028)
(-0.0178005 0.0282884 2.07682)
(-0.0176336 0.0318372 2.04815)
(-0.0111212 0.00222292 2.15652)
(-0.0130998 0.00508487 2.1488)
(-0.0156599 0.0106906 2.13758)
(-0.0166932 0.0138713 2.11934)
(-0.0164228 0.0166274 2.09615)
(-0.016289 0.0197259 2.07063)
(-0.0165999 0.0226005 2.04276)
(-0.0163887 0.0240685 2.01113)
(-0.0071001 0.00303484 2.13173)
(-0.00797339 0.00284274 2.12484)
(-0.00905738 0.00465137 2.1172)
(-0.00962799 0.00608231 2.10252)
(-0.00929931 0.00830065 2.08098)
(-0.00976952 0.0107237 2.05429)
(-0.0107849 0.0122029 2.0243)
(-0.011487 0.012842 1.99177)
(-0.0122755 0.0134783 1.95965)
(-0.0141664 0.0315896 2.26466)
(-0.0268988 0.0462335 2.24997)
(-0.0262995 0.0676884 2.23146)
(-0.0103331 0.0122413 2.22389)
(-0.0241434 0.0398878 2.20721)
(-0.0239082 0.0540767 2.18415)
(-0.017796 0.023125 2.20136)
(-0.023987 0.0411635 2.19208)
(-0.0230758 0.0503581 2.17068)
(-0.0220535 0.0610993 2.14394)
(-0.0136398 0.0067302 2.18816)
(-0.0173945 0.0168193 2.18446)
(-0.0219693 0.0369509 2.1674)
(-0.0236398 0.0532878 2.14283)
(-0.0216282 0.0590608 2.11538)
(-0.016249 0.011167 2.183)
(-0.0228106 0.025762 2.18315)
(-0.0236244 0.0334848 2.16774)
(-0.0228161 0.0374033 2.14288)
(-0.0218693 0.0420711 2.1146)
(-0.0206945 0.0474937 2.08483)
(-0.0121292 0.00240921 2.17177)
(-0.0165687 0.0118361 2.16534)
(-0.0197068 0.0232676 2.15129)
(-0.0208753 0.0295374 2.13116)
(-0.0210199 0.0342237 2.10768)
(-0.021027 0.0393623 2.08182)
(-0.0203377 0.0434885 2.05271)
(-0.0125608 0.00477839 2.16434)
(-0.0166989 0.0127935 2.15656)
(-0.0189578 0.018475 2.14593)
(-0.0193055 0.0204582 2.12708)
(-0.01915 0.0235963 2.10311)
(-0.0191515 0.027828 2.07683)
(-0.0192232 0.0313924 2.04823)
(-0.0186138 0.0341016 2.01651)
(-0.0110185 0.00225486 2.15646)
(-0.0130593 0.00475945 2.1488)
(-0.0157833 0.0103933 2.13811)
(-0.0172388 0.0135375 2.11907)
(-0.0170397 0.0161405 2.09626)
(-0.0171333 0.0194407 2.0713)
(-0.0176086 0.0222763 2.04315)
(-0.0174251 0.0238325 2.01151)
(-0.0173189 0.0248775 1.97917)
(-0.00709647 0.0030524 2.13183)
(-0.00794783 0.00280369 2.12466)
(-0.00909176 0.00457358 2.11755)
(-0.00970691 0.00599654 2.10316)
(-0.00952068 0.00820705 2.08055)
(-0.0101139 0.0106045 2.05448)
(-0.0110799 0.0120937 2.02424)
(-0.0118137 0.0127158 1.99177)
(-0.0125631 0.0133881 1.95939)
(-0.013462 0.0139101 1.9279)
(-0.0262455 0.0523981 2.28765)
(-0.0197355 0.0336311 2.26368)
(-0.0190458 0.058491 2.25057)
(-0.0280043 0.0426022 2.24968)
(-0.0323744 0.0719638 2.23212)
(-0.026579 0.0798284 2.20191)
(-0.0121101 0.0134314 2.2241)
(-0.0235181 0.0388226 2.20796)
(-0.027122 0.0535063 2.18363)
(-0.0255029 0.0710524 2.15352)
(-0.0189257 0.0222996 2.20126)
(-0.0264037 0.0406378 2.19179)
(-0.0262238 0.0493394 2.17037)
(-0.0255519 0.060207 2.14347)
(-0.0238368 0.0659979 2.11763)
(-0.0133871 0.00572424 2.18819)
(-0.017759 0.0148743 2.18414)
(-0.0233124 0.034287 2.16706)
(-0.0260975 0.051129 2.14287)
(-0.0250767 0.0586157 2.11563)
(-0.0230452 0.0636516 2.08504)
(-0.0154042 0.00941416 2.18302)
(-0.0251401 0.0245213 2.18293)
(-0.0254859 0.0325106 2.16773)
(-0.0249589 0.0366871 2.14298)
(-0.0239368 0.0411134 2.11479)
(-0.0232843 0.047064 2.08493)
(-0.0221454 0.0525925 2.05392)
(-0.0120549 0.0024706 2.17179)
(-0.0170389 0.0116292 2.16534)
(-0.0207085 0.0226186 2.15135)
(-0.0222861 0.0287955 2.13129)
(-0.022839 0.0335484 2.10782)
(-0.0231084 0.0387472 2.08181)
(-0.0227691 0.0427269 2.05293)
(-0.021241 0.0453504 2.02112)
(-0.0126967 0.0046347 2.16435)
(-0.0173143 0.0123782 2.15656)
(-0.0196829 0.0180044 2.14597)
(-0.0201874 0.0198475 2.12702)
(-0.0201892 0.0230192 2.10316)
(-0.0205204 0.0272127 2.07691)
(-0.020757 0.0309047 2.04842)
(-0.0202842 0.0337253 2.01657)
(-0.0197259 0.0362207 1.98393)
(-0.0110857 0.0021961 2.15633)
(-0.0130871 0.00483148 2.14867)
(-0.0160115 0.00995271 2.13816)
(-0.0176646 0.0132656 2.12)
(-0.0177479 0.0157948 2.09555)
(-0.0179872 0.0189608 2.07144)
(-0.0185631 0.0219183 2.04337)
(-0.0184665 0.0235218 2.01191)
(-0.0183731 0.024642 1.97908)
(-0.0184898 0.0253001 1.94712)
(-0.0071194 0.0030622 2.13269)
(-0.00785264 0.00273286 2.1246)
(-0.00911269 0.00448666 2.11745)
(-0.00979564 0.0058706 2.10387)
(-0.00971853 0.00808689 2.08156)
(-0.0104242 0.0104924 2.05472)
(-0.0114913 0.0119396 2.02426)
(-0.0121471 0.0125992 1.9913)
(-0.0128739 0.0132853 1.95904)
(-0.0137226 0.0138089 1.92759)
(-0.0146525 0.0147152 1.89638)
(-0.0344861 0.0616923 2.30911)
(-0.025264 0.0569233 2.29203)
(-0.0336498 0.0975564 2.26315)
(-0.0168974 0.0311116 2.2649)
(-0.0269905 0.0614733 2.24794)
(-0.0235378 0.0826312 2.21356)
(-0.0280753 0.0359914 2.24731)
(-0.0347405 0.0705724 2.23192)
(-0.031796 0.0804772 2.20217)
(-0.0283883 0.0894564 2.16944)
(-0.0131735 0.0125013 2.22478)
(-0.0263981 0.0377344 2.20812)
(-0.028333 0.0517289 2.18407)
(-0.0295752 0.0703214 2.15271)
(-0.0273019 0.0819785 2.12133)
(-0.021369 0.0213827 2.2014)
(-0.028452 0.0399865 2.19134)
(-0.0288503 0.0484373 2.16997)
(-0.0291887 0.0591669 2.14328)
(-0.027487 0.065013 2.11721)
(-0.0251026 0.0708504 2.08789)
(-0.0116244 0.00238301 2.18902)
(-0.0180956 0.0130113 2.18399)
(-0.0242637 0.0318303 2.16666)
(-0.028822 0.0494702 2.14289)
(-0.0282611 0.0574421 2.11582)
(-0.0264391 0.0629317 2.08526)
(-0.0242107 0.0654235 2.0533)
(-0.0163822 0.00714238 2.18303)
(-0.0263861 0.0233521 2.18305)
(-0.027663 0.0306787 2.16772)
(-0.0267687 0.0355401 2.14321)
(-0.0262345 0.0404933 2.11489)
(-0.0257651 0.0463258 2.08515)
(-0.0251479 0.0525071 2.05394)
(-0.0235926 0.0573654 2.0221)
(-0.0119277 0.00233379 2.1718)
(-0.0174326 0.0111825 2.16535)
(-0.0218042 0.0219967 2.15138)
(-0.023743 0.0279691 2.13142)
(-0.0245903 0.0327158 2.10802)
(-0.0252311 0.0379877 2.08191)
(-0.0248173 0.0420614 2.05281)
(-0.0236409 0.0446262 2.02127)
(-0.0220762 0.0468776 1.98824)
(-0.0129096 0.00437746 2.16428)
(-0.0178169 0.0119802 2.15652)
(-0.0204531 0.0174014 2.14575)
(-0.0209684 0.0192371 2.12709)
(-0.0212474 0.0223113 2.1027)
(-0.0217792 0.0266162 2.07699)
(-0.0222776 0.0303341 2.04863)
(-0.0219097 0.0331826 2.01693)
(-0.0214351 0.0358275 1.98417)
(-0.0207351 0.0368851 1.95152)
(-0.0109829 0.00222123 2.15622)
(-0.0133204 0.0049382 2.14864)
(-0.0161673 0.00976163 2.13805)
(-0.0182237 0.0128245 2.12015)
(-0.0183976 0.0154599 2.09625)
(-0.0188212 0.0185568 2.07063)
(-0.019503 0.0214634 2.04341)
(-0.0194726 0.0231564 2.01204)
(-0.0193911 0.0243265 1.97918)
(-0.0195 0.0250834 1.94681)
(-0.0198861 0.0262601 1.91528)
(-0.00709643 0.00305351 2.13334)
(-0.00783849 0.00274088 2.1248)
(-0.00909458 0.00435893 2.11748)
(-0.00986811 0.00578933 2.10336)
(-0.00993282 0.00795181 2.0822)
(-0.0107445 0.0103562 2.05529)
(-0.0117974 0.0118105 2.02495)
(-0.0125075 0.0124716 1.99123)
(-0.0132134 0.0131594 1.95888)
(-0.0140273 0.013713 1.92716)
(-0.0149093 0.0146181 1.89618)
(-0.0159889 0.0157786 1.86417)
(-0.0353137 0.100493 2.36489)
(-0.0257873 0.06575 2.33224)
(-0.0371642 0.0701906 2.30652)
(-0.0334318 0.0978263 2.28149)
(-0.032384 0.0667929 2.29563)
(-0.0344184 0.0889284 2.26359)
(-0.0336635 0.117588 2.22214)
(-0.0173029 0.0383957 2.26018)
(-0.0260569 0.0557756 2.24922)
(-0.0321235 0.0839611 2.21218)
(-0.0292511 0.0966949 2.17595)
(-0.0295603 0.0378501 2.24782)
(-0.0374525 0.0642876 2.23055)
(-0.0359115 0.0802819 2.20242)
(-0.0327003 0.0875461 2.17003)
(-0.0291214 0.0932265 2.13603)
(-0.0122888 0.01517 2.2246)
(-0.027825 0.0355766 2.20893)
(-0.031505 0.0506074 2.18373)
(-0.0329901 0.0688089 2.15278)
(-0.0316733 0.0804214 2.12078)
(-0.028712 0.0861228 2.08988)
(-0.0204853 0.0185741 2.20073)
(-0.0298267 0.0395289 2.19107)
(-0.031578 0.0476548 2.16959)
(-0.0323389 0.0578153 2.14287)
(-0.0312239 0.0639125 2.11717)
(-0.0290689 0.0699414 2.08772)
(-0.0272298 0.0765876 2.05555)
(-0.0062799 -0.00412323 2.18591)
(-0.0236699 0.0200426 2.18664)
(-0.0255875 0.0304031 2.16665)
(-0.0311777 0.047738 2.14288)
(-0.0315672 0.0564279 2.11604)
(-0.0300065 0.0618753 2.08547)
(-0.0276414 0.0647594 2.05346)
(-0.0253861 0.0675171 2.02148)
(-0.0169097 0.00656662 2.18292)
(-0.0268123 0.0233187 2.18306)
(-0.0291458 0.0292954 2.16777)
(-0.0285387 0.0338419 2.14329)
(-0.0282197 0.0393368 2.1151)
(-0.0281523 0.0451556 2.08531)
(-0.0279984 0.0518959 2.05414)
(-0.0268105 0.0570287 2.02222)
(-0.0246879 0.0598912 1.98989)
(-0.0117936 0.00224745 2.17177)
(-0.0177162 0.0107158 2.16526)
(-0.0227562 0.0211539 2.15138)
(-0.0251638 0.0270492 2.1315)
(-0.0263366 0.031793 2.10818)
(-0.0273223 0.0371462 2.08225)
(-0.0270922 0.0412646 2.053)
(-0.0258114 0.0439011 2.02116)
(-0.024489 0.0461994 1.98837)
(-0.0229911 0.0469713 1.95528)
(-0.013047 0.00418363 2.16423)
(-0.0183766 0.011483 2.15649)
(-0.0211203 0.0168004 2.14581)
(-0.021822 0.0185674 2.12725)
(-0.022197 0.0215974 2.1027)
(-0.0230944 0.0258413 2.07668)
(-0.0237515 0.0296331 2.04865)
(-0.0235772 0.0325642 2.01707)
(-0.0231785 0.0352328 1.98437)
(-0.0223861 0.0364247 1.95208)
(-0.0217773 0.0375726 1.9197)
(-0.0108957 0.00206029 2.15609)
(-0.0132907 0.004932 2.14854)
(-0.0164389 0.00942309 2.13801)
(-0.0184447 0.0123037 2.11966)
(-0.0191632 0.0149717 2.09644)
(-0.0196047 0.0181147 2.07096)
(-0.0204639 0.0209796 2.04283)
(-0.020425 0.0227284 2.01212)
(-0.020301 0.0239371 1.97997)
(-0.0205011 0.0247704 1.94685)
(-0.0208746 0.026048 1.91466)
(-0.0214142 0.0278564 1.88261)
(-0.00707246 0.00307882 2.13363)
(-0.00778188 0.00268817 2.12589)
(-0.00914167 0.00428454 2.11735)
(-0.00997754 0.0056656 2.10326)
(-0.0101882 0.00786892 2.08122)
(-0.0110743 0.0102065 2.05537)
(-0.0121738 0.0116119 2.02549)
(-0.012811 0.0123101 1.99241)
(-0.0134602 0.0129901 1.95982)
(-0.0143259 0.013609 1.92722)
(-0.0152094 0.014528 1.89604)
(-0.0162259 0.0157181 1.86401)
(-0.0173895 0.0168033 1.83129)
(-0.0616408 0.100078 2.4106)
(-0.0617469 0.11129 2.37232)
(-0.0235207 0.144579 2.32127)
(-0.0362979 0.0799329 2.33121)
(-0.0433134 0.120461 2.29703)
(-0.0296624 0.0424022 2.30123)
(-0.0417519 0.107972 2.28703)
(-0.0358445 0.117526 2.24201)
(-0.0292811 0.0366311 2.29361)
(-0.0447103 0.0989872 2.26705)
(-0.0373327 0.109211 2.22036)
(-0.0368225 0.127088 2.18187)
(-0.0225386 0.0335965 2.26411)
(-0.0282272 0.0589362 2.24584)
(-0.0356218 0.0785983 2.21312)
(-0.0372216 0.0970848 2.17567)
(-0.0323359 0.109837 2.13774)
(-0.031902 0.0348661 2.24631)
(-0.0421892 0.0673261 2.2305)
(-0.0398927 0.0758364 2.20168)
(-0.0383593 0.0874523 2.17048)
(-0.0332372 0.090937 2.13668)
(-0.0302542 0.0970084 2.10108)
(-0.0147686 0.0144777 2.22695)
(-0.0290199 0.0353822 2.20871)
(-0.0336848 0.0488271 2.18378)
(-0.0366236 0.0676009 2.15205)
(-0.0359973 0.0792094 2.12077)
(-0.0331899 0.0842458 2.08972)
(-0.0297493 0.0879652 2.05831)
(-0.020969 0.0196276 2.20154)
(-0.0315322 0.0374628 2.18957)
(-0.0332631 0.0467882 2.16924)
(-0.0356877 0.0566591 2.1428)
(-0.0347626 0.0626294 2.11698)
(-0.0331214 0.0689148 2.08782)
(-0.0313664 0.0756366 2.05556)
(-0.0285203 0.08078 2.02348)
(-0.00871564 -0.000438772 2.18595)
(-0.0230992 0.0173785 2.18564)
(-0.0317167 0.0369001 2.16889)
(-0.0337272 0.0466151 2.14311)
(-0.034718 0.0552641 2.11623)
(-0.033497 0.0610703 2.08564)
(-0.0313162 0.0636801 2.05358)
(-0.0290264 0.0668314 2.02169)
(-0.0268301 0.0698273 1.98939)
(-0.0177765 0.00616858 2.18292)
(-0.0278918 0.0224702 2.18284)
(-0.0296548 0.0290112 2.16778)
(-0.0301781 0.0326601 2.14311)
(-0.0301012 0.0379574 2.11514)
(-0.0305265 0.044174 2.0854)
(-0.0306519 0.0504956 2.0543)
(-0.0298331 0.056267 2.02241)
(-0.0279876 0.0593104 1.9901)
(-0.0253674 0.0595188 1.95728)
(-0.0117128 0.0022598 2.17175)
(-0.0179967 0.0102884 2.16522)
(-0.0236311 0.0202398 2.15138)
(-0.02649 0.0259901 2.13156)
(-0.0280073 0.0307594 2.10833)
(-0.029314 0.0361049 2.08251)
(-0.0292794 0.040428 2.05346)
(-0.0280438 0.0430489 2.02135)
(-0.0267107 0.045412 1.98847)
(-0.0253918 0.046304 1.95542)
(-0.0240752 0.0477965 1.92312)
(-0.0132104 0.0039177 2.16421)
(-0.0188592 0.0109707 2.15644)
(-0.0218671 0.0161554 2.14605)
(-0.0225467 0.0178502 2.12731)
(-0.0232003 0.0208135 2.10306)
(-0.0242402 0.0251059 2.07668)
(-0.0250917 0.0288293 2.04841)
(-0.0250962 0.0318483 2.01702)
(-0.0248395 0.0346375 1.98432)
(-0.0242028 0.0358598 1.95223)
(-0.0234118 0.0370112 1.92042)
(-0.0232946 0.0389041 1.88751)
(-0.0107091 0.00201143 2.15606)
(-0.0131664 0.00473286 2.14835)
(-0.0165286 0.0091068 2.13773)
(-0.0186905 0.011589 2.11961)
(-0.0195906 0.0143224 2.09595)
(-0.0204578 0.0175657 2.07114)
(-0.0213137 0.0204674 2.04295)
(-0.0214015 0.0222225 2.01152)
(-0.0213759 0.023469 1.98015)
(-0.0213476 0.0243412 1.94799)
(-0.0218524 0.0257254 1.91477)
(-0.0225128 0.0276787 1.88243)
(-0.0230008 0.0294034 1.84913)
(-0.00726876 0.0031902 2.13369)
(-0.00768209 0.00265454 2.12632)
(-0.0091355 0.00416625 2.11872)
(-0.010093 0.00557087 2.10344)
(-0.0104331 0.00776081 2.08124)
(-0.0114239 0.0100632 2.05514)
(-0.0125345 0.0114794 2.02455)
(-0.0131464 0.0120984 1.99288)
(-0.0138032 0.0127913 1.96037)
(-0.0145737 0.0134505 1.92833)
(-0.0154732 0.0144526 1.89595)
(-0.0165361 0.0156198 1.86443)
(-0.0175384 0.0167004 1.83161)
(-0.0189123 0.0178635 1.79816)
(-0.322338 0.174373 2.44444)
(-0.164579 0.121633 2.44288)
(-0.0711709 0.123709 2.40329)
(-0.0226914 0.166476 2.36524)
(-0.0540511 0.0967759 2.36215)
(-0.0465612 0.155704 2.31619)
(-0.0186577 0.163883 2.27034)
(-0.047416 0.0889674 2.33405)
(-0.0435985 0.0997035 2.2968)
(-0.0357689 0.147094 2.24848)
(-0.0359653 0.0589765 2.29919)
(-0.0455577 0.0852757 2.27704)
(-0.0417912 0.118961 2.25198)
(-0.0306426 0.130372 2.20349)
(-0.0318674 0.0390839 2.29555)
(-0.046296 0.0744605 2.26419)
(-0.0472867 0.117058 2.22343)
(-0.0416208 0.119596 2.18096)
(-0.0370481 0.12513 2.1457)
(-0.01917 0.0358797 2.26157)
(-0.0325537 0.0523149 2.2497)
(-0.0392957 0.0774255 2.21266)
(-0.0426622 0.0935386 2.17603)
(-0.0396349 0.108677 2.13748)
(-0.0339426 0.111979 2.09878)
(-0.0221853 0.0182527 2.24341)
(-0.04454 0.0603987 2.2292)
(-0.0459019 0.077677 2.20179)
(-0.0430882 0.0844812 2.16992)
(-0.0396515 0.0904264 2.13669)
(-0.0352534 0.0951772 2.10177)
(-0.0324327 0.101943 2.06646)
(-0.0193993 0.0125479 2.23166)
(-0.0321276 0.0317715 2.2096)
(-0.0361398 0.048089 2.18316)
(-0.0401401 0.0661335 2.15151)
(-0.040004 0.0774626 2.12031)
(-0.0379074 0.0831136 2.08974)
(-0.0343808 0.0863806 2.05842)
(-0.030591 0.0908803 2.02569)
(-0.0192488 0.0205521 2.2012)
(-0.0355779 0.0353209 2.18934)
(-0.0355931 0.0450196 2.16833)
(-0.0384334 0.0549058 2.14252)
(-0.0383662 0.0611708 2.11697)
(-0.036923 0.0674553 2.08785)
(-0.0356027 0.0743889 2.05575)
(-0.0330037 0.0797794 2.02359)
(-0.029523 0.0820762 1.99112)
(-0.0098952 0.00163133 2.18739)
(-0.0224646 0.015675 2.18534)
(-0.0339576 0.0359437 2.16905)
(-0.0378371 0.0478268 2.14409)
(-0.0378672 0.0541087 2.11649)
(-0.0369182 0.0599416 2.08579)
(-0.0348064 0.0625686 2.05365)
(-0.0328359 0.0657668 2.02178)
(-0.0305463 0.0689901 1.98971)
(-0.0276447 0.0690842 1.95762)
(-0.0181537 0.0055848 2.18287)
(-0.0287164 0.0212318 2.18258)
(-0.0308989 0.0281613 2.1677)
(-0.0313646 0.0316487 2.14305)
(-0.0320339 0.0369365 2.11488)
(-0.0328528 0.0431543 2.08544)
(-0.0334151 0.0494512 2.05437)
(-0.0328469 0.0551519 2.02251)
(-0.0311177 0.0584634 1.9902)
(-0.0285814 0.0590471 1.95728)
(-0.0262937 0.0593814 1.92551)
(-0.0116629 0.00221582 2.17174)
(-0.0181259 0.00971517 2.16513)
(-0.0244467 0.0192905 2.15141)
(-0.0277309 0.0248278 2.13162)
(-0.029617 0.0296578 2.10841)
(-0.0311495 0.0349606 2.08277)
(-0.0313846 0.0393796 2.05376)
(-0.0302545 0.0422166 2.02176)
(-0.0290098 0.044506 1.98859)
(-0.0274773 0.0455267 1.9558)
(-0.0265113 0.047149 1.92329)
(-0.025581 0.0498962 1.89091)
(-0.0133343 0.00372906 2.16418)
(-0.0193384 0.0103621 2.15643)
(-0.0224522 0.0154079 2.14608)
(-0.023287 0.0170908 2.12728)
(-0.0240842 0.0199758 2.10308)
(-0.0254502 0.0242094 2.07707)
(-0.0264378 0.0279535 2.04832)
(-0.0266168 0.0309612 2.0169)
(-0.0264653 0.0338816 1.98442)
(-0.0258331 0.0353197 1.95193)
(-0.0252795 0.0364668 1.92057)
(-0.0248731 0.038337 1.88819)
(-0.0248887 0.0404629 1.85393)
(-0.0107392 0.0020083 2.15604)
(-0.0129541 0.00459422 2.14839)
(-0.0167216 0.00874325 2.13762)
(-0.0189229 0.0110614 2.11942)
(-0.0199697 0.0135446 2.0963)
(-0.0211244 0.0169083 2.07107)
(-0.0222261 0.0198596 2.04323)
(-0.0222452 0.021711 2.01154)
(-0.0221937 0.023072 1.97952)
(-0.0223867 0.0238534 1.94821)
(-0.0227289 0.0252378 1.91617)
(-0.0235422 0.0273602 1.88244)
(-0.0241703 0.0291122 1.8494)
(-0.0247504 0.0311169 1.81503)
(-0.00720624 0.00314963 2.13363)
(-0.00775049 0.00269622 2.12578)
(-0.00910734 0.00405283 2.11938)
(-0.0101741 0.00545214 2.10499)
(-0.0106712 0.00761553 2.08203)
(-0.0117575 0.00988138 2.05554)
(-0.0129256 0.0112863 2.02456)
(-0.0135152 0.0119442 1.99185)
(-0.014111 0.0126777 1.95977)
(-0.0149151 0.013258 1.92872)
(-0.0158049 0.014277 1.89669)
(-0.0168128 0.0155849 1.86377)
(-0.017922 0.0164791 1.83242)
(-0.0191956 0.0178785 1.79761)
(-0.0206403 0.0193669 1.76333)
(-0.958695 0.0724446 2.34351)
(-0.367443 0.140095 2.41766)
(-0.199024 0.246734 2.37097)
(-0.176577 0.110734 2.4404)
(-0.147091 0.196352 2.37501)
(-0.0884423 0.138725 2.40942)
(-0.0626466 0.174215 2.3517)
(-0.0369158 0.200058 2.31151)
(-0.0589873 0.098101 2.35759)
(-0.0515773 0.160828 2.31384)
(-0.0524387 0.175279 2.25989)
(-0.0173133 0.178326 2.219)
(-0.0396979 0.0861224 2.33681)
(-0.0618222 0.130464 2.29845)
(-0.0451679 0.13697 2.2465)
(-0.0512636 0.169837 2.20494)
(-0.0348849 0.0592211 2.29728)
(-0.0458093 0.103815 2.27171)
(-0.0489132 0.106731 2.23809)
(-0.0428788 0.134785 2.21222)
(-0.0360969 0.145395 2.15936)
(-0.0270099 0.0325709 2.29544)
(-0.0518993 0.0865639 2.26936)
(-0.054637 0.105872 2.22014)
(-0.0498675 0.12521 2.18291)
(-0.0432321 0.120567 2.1457)
(-0.0378922 0.130238 2.10628)
(-0.0272346 0.0300423 2.27353)
(-0.0314952 0.0561635 2.24677)
(-0.0440323 0.0727062 2.21399)
(-0.0473954 0.0913912 2.17687)
(-0.0457027 0.105908 2.1368)
(-0.0403964 0.110112 2.09872)
(-0.0341126 0.11247 2.0618)
(-0.0288534 0.0223235 2.25078)
(-0.0430148 0.0516542 2.22679)
(-0.049159 0.0719492 2.20095)
(-0.0487617 0.0838405 2.17039)
(-0.0442677 0.0874113 2.13665)
(-0.0415125 0.0934869 2.1017)
(-0.0380125 0.10023 2.06717)
(-0.0337123 0.105459 2.03217)
(-0.0197258 0.0138682 2.23293)
(-0.0364739 0.0300136 2.21004)
(-0.0391526 0.0453516 2.18302)
(-0.0436127 0.064718 2.15082)
(-0.0441593 0.0756524 2.11982)
(-0.0422941 0.0811991 2.08974)
(-0.03911 0.0850952 2.05851)
(-0.0355618 0.0892205 2.02595)
(-0.032019 0.0925568 1.99177)
(-0.0229049 0.0221855 2.20258)
(-0.0367569 0.0337316 2.18874)
(-0.039432 0.0425086 2.16796)
(-0.0413033 0.0528085 2.1424)
(-0.0417396 0.059205 2.11677)
(-0.0408595 0.0658179 2.08778)
(-0.0395911 0.0728633 2.05596)
(-0.0374111 0.0782919 2.02386)
(-0.0340746 0.0810711 1.99136)
(-0.0302173 0.0814457 1.95862)
(-0.00946754 0.00256488 2.18661)
(-0.0223505 0.0143799 2.18552)
(-0.0335183 0.0320544 2.16853)
(-0.040858 0.0466567 2.14441)
(-0.0406904 0.0523191 2.11736)
(-0.0404219 0.058574 2.08586)
(-0.0382726 0.0612793 2.05375)
(-0.0363892 0.0643306 2.02183)
(-0.034376 0.0678985 1.98987)
(-0.0312508 0.0680577 1.95791)
(-0.0286265 0.0694162 1.92702)
(-0.0177723 0.00458737 2.18286)
(-0.0295582 0.0199062 2.18226)
(-0.0320982 0.0268674 2.16764)
(-0.0327083 0.0305578 2.14303)
(-0.0338631 0.0355259 2.11481)
(-0.0352796 0.0421845 2.08512)
(-0.0361638 0.0483698 2.05453)
(-0.0357596 0.0538538 2.02263)
(-0.0342582 0.0574262 1.99036)
(-0.0318056 0.0582142 1.95741)
(-0.0294557 0.05893 1.92538)
(-0.0279125 0.0599108 1.89396)
(-0.0116772 0.00208295 2.17172)
(-0.0183726 0.00922042 2.16498)
(-0.0249897 0.0180371 2.15144)
(-0.0289134 0.0236064 2.13168)
(-0.0311384 0.0284034 2.10845)
(-0.0329767 0.0337634 2.08286)
(-0.033359 0.0382231 2.05398)
(-0.0324299 0.0411809 2.02197)
(-0.0312462 0.0436848 1.98872)
(-0.0298236 0.0446163 1.95588)
(-0.0286177 0.0463752 1.92387)
(-0.0281188 0.0492455 1.89106)
(-0.0272437 0.0518156 1.85758)
(-0.0134849 0.00349072 2.1641)
(-0.0196757 0.00973111 2.15637)
(-0.0231132 0.0145848 2.14592)
(-0.0239132 0.0162787 2.1273)
(-0.0249351 0.0190947 2.10274)
(-0.0265415 0.0232707 2.07705)
(-0.0277279 0.0269896 2.04839)
(-0.0279759 0.0300782 2.01698)
(-0.0281045 0.0329399 1.98446)
(-0.0274304 0.0345714 1.95209)
(-0.026909 0.0359776 1.92017)
(-0.0268132 0.037746 1.88833)
(-0.0265747 0.0399599 1.85428)
(-0.0269054 0.0426257 1.81977)
(-0.0106463 0.00204218 2.15598)
(-0.0130475 0.00459952 2.14851)
(-0.0168033 0.00841703 2.13758)
(-0.019353 0.0105968 2.11919)
(-0.0203967 0.0128824 2.09633)
(-0.0216851 0.0162126 2.0719)
(-0.0230534 0.0192047 2.04349)
(-0.0231678 0.0210691 2.01191)
(-0.0231222 0.0225161 1.9795)
(-0.0232128 0.0234993 1.94762)
(-0.0237461 0.0247643 1.91638)
(-0.0243363 0.0268523 1.88382)
(-0.0251523 0.0288219 1.84905)
(-0.0260079 0.0307714 1.81535)
(-0.0269558 0.0331214 1.77961)
(-0.00697075 0.002998 2.13369)
(-0.00767632 0.00265216 2.12585)
(-0.00918835 0.00398505 2.11835)
(-0.0102584 0.00532786 2.10567)
(-0.0108797 0.00746316 2.08331)
(-0.0120398 0.00966972 2.0564)
(-0.0132675 0.0110685 2.02554)
(-0.0138602 0.0117537 1.9918)
(-0.0144385 0.0124612 1.9595)
(-0.0151739 0.0131554 1.9283)
(-0.0160092 0.0140586 1.89821)
(-0.0171352 0.0154535 1.86407)
(-0.0180714 0.0165613 1.83136)
(-0.0193824 0.0177651 1.79798)
(-0.0208748 0.0193032 1.76286)
(-0.0225603 0.0210617 1.72558)
(-1.72451 0.0473083 2.24221)
(-0.984341 0.0103565 2.32933)
(-0.616401 0.196555 2.29186)
(-0.340076 0.151777 2.41305)
(-0.251633 0.196024 2.35573)
(-0.105879 0.29801 2.29098)
(-0.154769 0.095704 2.45037)
(-0.15632 0.145852 2.37402)
(-0.0907121 0.258735 2.30406)
(-0.0948963 0.14797 2.41008)
(-0.0638669 0.119898 2.36258)
(-0.0608984 0.177582 2.29275)
(-0.0311162 0.271205 2.24247)
(-0.0633798 0.0896034 2.36945)
(-0.0671061 0.147887 2.30576)
(-0.0464028 0.144721 2.26912)
(-0.0320888 0.192224 2.21178)
(-0.0303931 0.191655 2.15859)
(-0.0565145 0.0853101 2.34548)
(-0.0536281 0.113847 2.3)
(-0.0641593 0.153049 2.24882)
(-0.0534981 0.15319 2.20386)
(-0.0476105 0.166617 2.1577)
(-0.0372273 0.0630435 2.29547)
(-0.0528646 0.100112 2.26801)
(-0.0485119 0.111958 2.23506)
(-0.0489649 0.12363 2.20028)
(-0.0458216 0.144162 2.16567)
(-0.0396665 0.142342 2.10997)
(-0.0137335 -0.000403423 2.2966)
(-0.052553 0.0781809 2.26763)
(-0.0618373 0.114748 2.2245)
(-0.0584657 0.118556 2.18105)
(-0.0493501 0.121814 2.14677)
(-0.0463534 0.128533 2.1071)
(-0.0394025 0.129539 2.06782)
(-0.0260057 0.014602 2.2592)
(-0.035366 0.0479397 2.25667)
(-0.0458435 0.0726801 2.21287)
(-0.0527839 0.0888524 2.17665)
(-0.0522036 0.104043 2.13769)
(-0.0464636 0.108858 2.09799)
(-0.0407644 0.111392 2.06185)
(-0.0366093 0.118445 2.0266)
(-0.0316731 0.0176216 2.24702)
(-0.0513068 0.0529055 2.2324)
(-0.0538771 0.0694967 2.19977)
(-0.052899 0.0800052 2.16961)
(-0.0498971 0.0859308 2.13691)
(-0.0466525 0.0910155 2.10206)
(-0.0438778 0.0980075 2.06708)
(-0.0395542 0.104158 2.03269)
(-0.034994 0.108294 1.996)
(-0.0141578 -0.000990932 2.22541)
(-0.039215 0.0261216 2.21064)
(-0.0425792 0.0454275 2.18152)
(-0.0471023 0.0627189 2.15016)
(-0.0481067 0.0735898 2.11945)
(-0.0466727 0.0792398 2.08953)
(-0.0437312 0.0833053 2.05876)
(-0.040442 0.0878128 2.0262)
(-0.0371332 0.0911723 1.99205)
(-0.0320909 0.0902712 1.95823)
(-0.026416 0.0169846 2.20241)
(-0.0408623 0.03323 2.1893)
(-0.0411404 0.0402421 2.16748)
(-0.0445896 0.0502198 2.14228)
(-0.0448385 0.056921 2.11706)
(-0.0446131 0.0636889 2.08772)
(-0.0436666 0.0710839 2.05594)
(-0.0418551 0.0768419 2.02402)
(-0.0385697 0.0796764 1.99171)
(-0.0347953 0.0805894 1.95887)
(-0.0312446 0.0811373 1.92727)
(-0.010357 0.00332138 2.18562)
(-0.021734 0.0135739 2.18487)
(-0.0336907 0.0290954 2.16815)
(-0.0425495 0.0436027 2.14422)
(-0.0437852 0.0507643 2.11756)
(-0.0430067 0.0558629 2.08708)
(-0.0417759 0.0596296 2.05377)
(-0.0399664 0.062866 2.02197)
(-0.0380587 0.0665727 1.98996)
(-0.034913 0.0669376 1.9581)
(-0.0323605 0.0684346 1.92728)
(-0.0304652 0.0719845 1.89596)
(-0.0175531 0.00417626 2.18272)
(-0.0302984 0.0183537 2.18201)
(-0.0333072 0.0254267 2.16755)
(-0.0340026 0.0290211 2.14321)
(-0.0355092 0.0341613 2.11481)
(-0.0375238 0.0405969 2.08511)
(-0.0385092 0.0465172 2.05463)
(-0.0387085 0.0524961 2.02282)
(-0.0372061 0.056037 1.99055)
(-0.0347757 0.0570026 1.95776)
(-0.0326759 0.0581637 1.9256)
(-0.0309358 0.0596458 1.89368)
(-0.0296155 0.0621564 1.86123)
(-0.011939 0.00177567 2.17166)
(-0.0185825 0.00879313 2.16486)
(-0.0257349 0.0169998 2.1514)
(-0.0298786 0.0221391 2.13181)
(-0.032553 0.0270397 2.10848)
(-0.0347108 0.0324373 2.0829)
(-0.0353115 0.0368556 2.05407)
(-0.0344739 0.0399568 2.02213)
(-0.0334835 0.0425818 1.98887)
(-0.0320139 0.0438072 1.95558)
(-0.0310567 0.0454713 1.92393)
(-0.0302908 0.0484879 1.89176)
(-0.0296795 0.0511536 1.85777)
(-0.0292026 0.0539752 1.82362)
(-0.013695 0.00334964 2.16403)
(-0.0199476 0.00902135 2.15627)
(-0.0236592 0.0137519 2.1459)
(-0.0246069 0.0153788 2.12721)
(-0.0257449 0.0181739 2.10268)
(-0.0276121 0.0222843 2.0766)
(-0.0289479 0.0260003 2.04858)
(-0.0294267 0.0290573 2.01701)
(-0.0294932 0.03205 1.98478)