/*--------------------------------*- C++ -*----------------------------------*\
  =========                 |
  \\      /  F ield         | OpenFOAM: The Open Source CFD Toolbox
   \\    /   O peration     | Website:  https://openfoam.org
    \\  /    A nd           | Version:  7
     \\/     M anipulation  |
\*---------------------------------------------------------------------------*/
FoamFile
{
    version     2.0;
    format      ascii;
    class       volScalarField;
    location    "7";
    object      nut;
}
// * * * * * * * * * * * * * * * * * * * * * * * * * * * * * * * * * * * * * //

dimensions      [0 2 -1 0 0 0 0];

internalField   nonuniform List<scalar> 
18720
(
0.000108707
0.000371347
6.60964e-05
0.000173416
0.000122814
0.0005372
0.000189284
0.000245676
0.000641433
0.000135049
0.000173832
0.000111169
7.88346e-05
0.0009537
0.000630873
0.000570859
0.000179468
0.00041852
0.000562506
0.000101628
0.000191717
8.08595e-05
0.000134599
0.00016342
0.000183982
9.97364e-05
0.000768894
0.000758901
0.000758025
0.000494024
0.000313713
0.000478602
0.000492562
0.000264024
0.000171971
0.00092967
0.000354573
0.000270363
0.000342564
0.000152385
0.00010693
0.000128881
7.66564e-05
0.000173732
0.000105705
0.000806343
0.000680747
0.000572439
0.000709313
0.000438205
0.000839249
0.000734361
0.000538219
0.000401878
0.000606443
0.000612853
0.000188001
0.000333519
0.000195053
0.000355785
0.000257354
0.000232023
0.000216254
0.000264684
6.8992e-05
0.000136753
0.000146529
0.000299351
0.000119336
7.18254e-05
0.000389127
0.000547769
0.0006866
0.000855355
0.000467774
0.000421341
0.00103074
0.000691084
0.000737603
0.00043807
0.00112484
0.000673465
0.000692639
0.000785426
0.000245456
0.000731985
0.000269327
0.000469299
0.000404033
0.000503743
0.000196517
0.000804322
0.000430715
0.000237581
0.000137192
0.000240496
0.000360969
8.85277e-05
0.000233758
0.000148927
0.00022119
0.000109827
9.67042e-05
0.00021917
0.000163702
0.000154161
0.000337113
0.000761941
0.000418124
0.000668725
0.000967647
0.000533905
0.000543191
0.000631603
0.000749125
0.000600381
0.000940547
0.000852765
0.000824456
0.000601715
0.000965379
0.000487399
0.000678773
0.00107812
0.000394298
0.000544319
0.000300924
0.000207414
0.000457885
0.000461128
0.000414662
0.000470373
0.000480917
0.000238141
0.000261735
0.000156795
0.000245062
0.000261406
0.000199997
0.0001395
0.000157342
0.000127662
0.000236722
0.000115222
8.57289e-05
0.000312759
0.000154326
0.000365639
0.000273924
0.000585108
0.000576966
0.000455596
0.000272157
0.000413193
0.000466024
0.000387611
0.000428085
0.000885178
0.000653964
0.000709049
0.000807968
0.000881114
0.000971637
0.000874774
0.000688815
0.00110286
0.000950042
0.000956791
0.000786043
0.000794385
0.000287805
0.000669761
0.000605879
0.000760037
0.000381257
0.000497497
0.0004829
0.000330504
0.000352782
0.000232558
0.000496605
0.00115374
0.000211747
0.00060302
0.000177842
0.000491104
0.000251651
0.000188078
0.000263489
0.000288877
0.00039067
0.000243032
0.000111867
9.50104e-05
0.000152211
0.00022588
0.000126985
0.000223012
0.000122979
0.000340344
0.000189305
0.000479977
0.000311629
0.000339883
0.000529596
0.000420803
0.00029377
0.000246405
0.000246159
0.000310992
0.000493684
0.000778347
0.000274182
0.000615713
0.000718261
0.000701234
0.000603232
0.000514152
0.00101803
0.00063128
0.00090572
0.000808872
0.00067224
0.000763295
0.00109273
0.000946016
0.00114133
0.000678705
0.00101467
0.000825604
0.000908011
0.000571275
0.000541937
0.00101555
0.00105517
9.85801e-05
0.000569902
0.000487876
0.00018073
0.000372187
0.000232971
0.000448799
0.000917648
0.000713175
0.00043075
0.000622963
0.000125177
0.000170146
0.000280908
0.000180958
0.000258093
0.000566784
0.000327003
0.000554713
0.00029308
0.000105119
8.38498e-05
0.000217063
0.000137485
0.000115873
0.000204368
0.000251392
0.00035757
0.000164222
0.000544627
0.000288776
0.000494913
0.000157141
0.000199983
0.000192549
0.000328422
0.000431424
0.000428283
0.000328608
0.000457364
0.000466712
0.000317534
0.000268673
0.00054666
0.000531444
0.000927853
0.000693998
0.000664577
0.000495033
0.000814415
0.000622514
0.000718782
0.000451961
0.000737448
0.000769473
0.000954102
0.00110358
0.000863807
0.000815078
0.00072153
0.000751127
0.00124829
0.00105186
0.00069314
0.00144881
0.000722453
0.000948311
0.00043183
0.000617694
0.000811641
0.00108891
0.000504567
0.00183804
0.000608095
0.000769284
0.000343837
0.000386629
0.00062697
0.000604448
0.000582456
0.000774165
0.000751069
0.00115965
0.00061239
0.000471372
0.000225759
0.000478269
0.000249841
0.000163095
0.00022957
0.000408248
0.000301254
0.000492371
0.000652412
0.000193829
0.000104467
8.13722e-05
0.000250056
0.000203492
6.91526e-05
0.000176148
0.000179135
0.000418868
0.000359155
0.000252678
0.000302656
0.000298732
0.000405238
0.000462789
0.000168424
0.000456223
0.000305135
0.00044631
0.000312891
0.000325418
0.000339797
0.000479282
0.000383555
0.000146307
0.00029262
0.000432055
0.00044467
0.000212479
0.000363185
0.000799776
0.00048776
0.000472138
0.000776907
0.000718601
0.000710756
0.000681732
0.000564291
0.000852457
0.000676273
0.000672371
0.000739562
0.000625074
0.000749648
0.000947545
0.000963913
0.00121207
0.000633448
0.000780433
0.000604311
0.000878673
0.00110823
0.000922884
0.00118019
0.000680863
0.00103079
0.000562666
0.000952064
0.000830656
0.000666118
0.000660169
0.00090109
0.000931842
0.00142799
0.00199286
0.00114188
0.000879843
0.000535035
0.000418408
0.000293946
0.000357799
0.000610717
0.000595557
0.000780352
0.000870006
0.000757318
0.00120387
0.000279855
0.000262106
0.000271788
0.000247693
0.000335087
0.000248847
0.000445372
0.000372215
0.000480277
0.00100765
0.000268056
0.000393083
0.000110064
0.000108007
4.77457e-05
0.000170529
7.13782e-05
0.000218606
0.000285682
0.000390736
0.000454889
0.000270407
0.000364656
0.000364819
0.000216865
0.000423005
0.000366095
0.000330676
0.000372672
0.00063849
0.000363812
0.000305345
0.000420875
0.000694179
0.000228643
0.000307107
0.000382705
0.00027147
0.000730285
0.000591558
0.000275279
0.000323223
0.000407715
0.000527395
0.000929538
0.00067056
0.000611257
0.000302644
0.000435744
0.000400874
0.00050444
0.0006151
0.000704685
0.000602168
0.000624323
0.000542337
0.000521911
0.000397869
0.000977461
0.000424292
0.000817494
0.000706051
0.000667711
0.000557107
0.000578502
0.000856576
0.000865601
0.00169059
0.000999392
0.000978486
0.000823769
0.000799531
0.000535927
0.000963585
0.00101956
0.000668707
0.00087036
0.000784286
0.00119352
0.000885094
0.000691472
0.000733861
0.00079703
0.00078576
0.00127276
0.000672179
0.00203428
0.00114679
0.000904515
0.000301938
0.000364386
0.00030524
0.000683468
0.000332031
0.0005544
0.000654999
0.000560122
0.000493302
0.000844748
0.000642846
0.000212034
0.000369358
0.000228997
0.000147635
0.000234127
0.000137109
0.000337361
0.000332202
0.000372564
0.000397144
0.000278637
0.000436636
0.000409007
0.000315653
0.000136194
0.000147745
0.000137174
6.09545e-05
0.000172129
0.000264625
0.000245909
0.000237026
0.000344912
0.000143943
0.000212468
0.000196802
0.000440171
0.00034697
0.000326595
0.000383365
0.000360965
0.000395394
0.000518466
0.000433712
0.000301808
0.000296469
0.000660314
0.000560876
0.000351614
0.000287173
0.000319154
0.000634183
0.000572498
0.000377538
0.000322014
0.000331443
0.000425733
0.000768364
0.000389521
0.00078504
0.000373862
0.000566705
0.000435844
0.000607827
0.00103767
0.000656368
0.000719868
0.000265221
0.00051345
0.00045052
0.000627968
0.000586864
0.0010373
0.000699595
0.000351162
0.000603971
0.000602745
0.000593471
0.000677005
0.000374823
0.000637145
0.000577079
0.000789823
0.000370291
0.00047266
0.00054948
0.000608273
0.000679367
0.000816108
0.00070467
0.00110711
0.00105131
0.000838354
0.00052785
0.000696224
0.000675739
0.000930474
0.000839518
0.00111028
0.000546136
0.000603634
0.00184726
0.000769626
0.000675511
0.000441107
0.000899377
0.000877746
0.000859069
0.00088321
0.00108213
0.00104557
0.000383899
0.000573845
0.000967047
0.000726858
0.000358471
0.000297305
0.000395447
0.000559138
0.000569164
0.0011217
0.00047705
0.000368716
0.00102513
0.000742375
0.000469326
0.000218945
0.000310604
0.000417441
0.000149365
0.00014824
0.000181819
0.000287699
0.000390947
0.000249406
0.000203098
0.000342977
0.000546419
0.00052214
0.0002525
0.000462044
0.000122188
4.743e-05
8.03877e-05
0.000340619
0.000140466
9.71e-05
0.000192294
0.000184586
0.00031568
0.000367654
0.000186788
0.00014337
0.000161387
0.000188452
0.000259948
0.000348028
0.000346436
0.000380867
0.000270866
0.000395333
0.000430431
0.000398941
0.000299326
0.000417229
0.000697552
0.000331036
0.000250698
0.000194283
0.000724594
0.000730735
0.000467733
0.000339007
0.000438943
0.00025902
0.000442324
0.000744732
0.000392828
0.000382877
0.000298955
0.000484874
0.000449435
0.000655472
0.000692967
0.000717575
0.000386846
0.000272298
0.000501945
0.000510508
0.000472906
0.000611194
0.000626395
0.000515015
0.000569169
0.00047515
0.000616968
0.000468271
0.000377487
0.000313175
0.000809353
0.000705468
0.000512596
0.000278219
0.00048654
0.000688691
0.000417148
0.000607703
0.000579398
0.000532108
0.000909325
0.000773235
0.000900943
0.000480304
0.000436505
0.000577981
0.000627356
0.000653773
0.000429615
0.00059024
0.000759212
0.000750763
0.000892498
0.000533384
0.000769069
0.000803725
0.000688997
0.000888718
0.00113867
0.000903052
0.000557288
0.000948255
0.00105443
0.000319348
0.000652677
0.000698402
0.000823212
0.000977318
0.000764439
0.00083914
0.00142143
0.000757589
0.00124752
0.000651117
0.00118761
0.000379165
0.000446685
0.000586574
0.000308456
0.000278815
0.00045004
0.00062165
0.000513918
0.000582976
0.000466232
0.00081044
0.000636115
0.000827758
0.000688753
0.000498017
0.000400826
0.000207307
0.000215982
9.97353e-05
0.000306773
0.000371652
0.000392038
0.000390953
0.000437046
0.000193054
0.00039971
0.000295159
0.000319353
0.000256605
0.000209419
7.41891e-05
7.63174e-05
0.000102501
5.5457e-05
6.03384e-05
0.000126029
0.000153753
0.000188331
0.000128194
0.000332477
0.000393735
0.000179782
0.000326959
0.000239392
0.000354891
0.000247491
0.000313083
0.000387842
0.000268342
0.000234915
0.000326417
0.000481182
0.000343595
0.000350129
0.000418883
0.000698544
0.000313391
0.00026117
0.000286713
0.000565906
0.000571443
0.000500795
0.000277434
0.000276964
0.000116259
0.000482894
0.000667694
0.000694568
0.000411219
0.000285001
0.000581826
0.000483113
0.000623692
0.000593162
0.00072025
0.00033503
0.000304172
0.000579736
0.000513375
0.000538363
0.000539472
0.000592863
0.000770838
0.000417383
0.000367766
0.000414371
0.000553785
0.000555838
0.000542678
0.00069411
0.000898809
0.000445297
0.000576906
0.000419545
0.000528818
0.000692334
0.00067041
0.000482899
0.000463176
0.000584698
0.000772689
0.000599867
0.000348798
0.000425426
0.000412754
0.000427912
0.000579099
0.00052971
0.000670536
0.000659069
0.000824407
0.000735055
0.000653308
0.000571782
0.000888855
0.000535893
0.00053333
0.000366493
0.000895097
0.000950288
0.00111956
0.00059498
0.000704493
0.00103007
0.000508829
0.000652984
0.000500814
0.000787105
0.000792272
0.000811381
0.000887266
0.00141628
0.000940062
0.000919851
0.001179
0.00125843
0.000787141
0.000437014
0.000738338
0.000830013
0.000588172
0.00092626
0.00101022
0.00124585
0.00182431
0.000960236
0.000917726
0.000433619
0.000510424
0.000364595
0.00038681
0.000303857
0.000345937
0.000580367
0.000540656
0.000877885
0.000698393
0.000499917
0.000486216
0.000443853
0.000524279
0.000710625
0.00044266
0.000231243
0.00037946
0.000246501
0.000215251
0.000258617
0.00056669
0.000303524
0.000335939
0.000327927
0.000388095
0.000436808
0.000363956
0.000385398
0.000421617
0.000243306
0.000402773
0.000187574
6.59742e-05
9.61027e-05
5.24971e-05
6.69521e-05
0.000122497
5.84622e-05
6.81134e-05
0.000178223
9.27974e-05
9.21655e-05
0.000324886
0.000333999
0.000152029
0.000365105
0.000202033
0.000206688
0.000173952
0.000338328
0.00043311
0.00040847
0.000222921
0.00033956
0.00027737
0.000289936
0.000237639
0.000380492
0.00032904
0.00043189
0.00045133
0.000307908
0.000405337
0.000632948
0.000483845
0.000384409
0.000267397
0.00038746
0.000615898
0.000665266
0.000634831
0.000463295
0.000338773
0.000222937
0.000410199
0.000489849
0.000294034
0.000803223
0.000504146
0.000360178
0.000484066
0.000375507
0.000280764
0.000406721
0.000555669
0.0007223
0.00064098
0.000548045
0.000538747
0.000640224
0.000660243
0.000469118
0.000828458
0.000476499
0.000620489
0.000737062
0.00054993
0.000418501
0.000508343
0.000267367
0.000456661
0.000548968
0.000733591
0.00082299
0.000535856
0.000494813
0.00030079
0.000359953
0.000406884
0.000424325
0.000663776
0.0003699
0.000554047
0.000721348
0.00109064
0.000911888
0.000517079
0.000445337
0.00048057
0.000378148
0.000391997
0.000450669
0.000658985
0.000773608
0.00080321
0.00104286
0.000633181
0.000680607
0.000325851
0.000689934
0.000496672
0.000411289
0.000480366
0.000818054
0.00143814
0.000580934
0.000949471
0.00131683
0.000387891
0.000783487
0.000575436
0.000773311
0.000321296
0.000536095
0.000548128
0.000717682
0.000856273
0.0009158
0.00044766
0.000504505
0.000470321
0.00043252
0.000310288
0.000641213
0.00069917
0.000625306
0.000599402
0.000743702
0.000658724
0.000633991
0.000847663
0.00117815
0.000564184
0.00121559
0.000549443
0.000617019
0.000667504
0.000402575
0.00054499
0.000339764
0.000310353
0.000475841
0.00062863
0.000545533
0.000639473
0.000620979
0.000635514
0.000625942
0.000392248
0.000542485
0.000267445
0.000289347
0.000358991
0.00028811
0.000201479
0.000222124
0.000419304
0.000165269
0.000284813
0.000367129
0.000416192
0.000309516
0.00016146
0.00042229
0.000227613
0.000377681
0.000232045
0.000447119
0.000173172
0.000246907
5.6838e-05
4.2824e-05
7.10354e-05
0.000143249
0.00015638
9.68657e-05
0.000106115
0.000248962
0.000412403
0.000151981
0.000177151
0.000352593
0.000140296
0.000453491
0.000116914
0.000191659
0.000187073
0.000214238
0.000329263
0.000248768
0.000212307
0.00024266
0.000347462
0.000253666
0.000334675
0.000371446
0.000425383
0.000434801
0.000368379
0.000417832
0.000356549
0.000412901
0.000600601
0.000373655
0.000442458
0.000225189
0.000332348
0.000545208
0.000405787
0.000488637
0.000348782
0.000561134
0.000283861
0.000319235
0.000541623
0.000636339
0.000622943
0.000648432
0.000236547
0.000271865
0.000458127
0.000332414
0.000425628
0.000437497
0.000632382
0.000963872
0.00031571
0.000650345
0.000629041
0.00034169
0.000269066
0.000481448
0.000327669
0.000602029
0.00102842
0.000600992
0.000445408
0.000275689
0.000179457
0.000422065
0.00037421
0.000626005
0.000576438
0.000328517
0.00106334
0.00063201
0.000380111
0.000445016
0.000656783
0.000446367
0.000541188
0.000562477
0.000471485
0.000568042
0.000630844
0.000864453
0.000496859
0.000490854
0.000456425
0.000485308
0.000601268
0.00043894
0.000454192
0.000930478
0.000689683
0.00119255
0.000474318
0.000404283
0.000417567
0.00036444
0.00044354
0.00032043
0.000418022
0.000645676
0.000471697
0.000686771
0.000893364
0.000771731
0.000907241
0.000748403
0.000825567
0.000215781
0.000516475
0.000480208
0.000439797
0.000650359
0.000835828
0.000504781
0.000424076
0.000591125
0.000611514
0.000497314
0.000906715
0.000761934
0.000842995
0.000560973
0.000643393
0.000473144
0.000564349
0.0007604
0.000445801
0.000640961
0.000462418
0.000592951
0.000754203
0.000653858
0.000639745
0.000664005
0.000563375
0.000600629
0.000499723
0.000710879
0.000489274
0.000678012
0.000817545
0.000567936
0.00040305
0.000735996
0.000359944
0.000546414
0.000273005
0.00029507
0.000607088
0.000504878
0.000424549
0.000497394
0.000344819
0.000749534
0.00049004
0.000612161
0.000735338
0.00109118
0.000347728
0.000577149
0.000413302
0.000506202
0.000291036
0.000278255
0.000344648
0.00027731
0.000234585
8.76857e-05
0.000263547
0.000381026
0.000312801
0.000360795
0.000714806
0.000445415
0.000191334
0.000443954
0.000491469
0.000242498
0.000238531
0.000359777
0.000224269
0.000206391
0.000120327
6.5282e-05
4.47309e-05
5.41524e-05
6.85431e-05
0.000139323
0.000157491
0.000120332
0.000343554
0.000479483
0.000699424
0.000168373
0.000280752
9.42353e-05
0.000261993
0.000211811
8.24174e-05
0.000247733
0.000404778
0.00055564
0.000310002
0.000175077
0.000255929
0.00028676
0.000310136
0.000437524
0.000302427
0.000253641
0.000302402
0.000288792
0.000346225
0.000303035
0.000272918
0.000362644
0.00044058
0.000341351
0.000471508
0.000335964
0.00040805
0.000464304
0.00051962
0.000515754
0.00059474
0.000240698
0.000287717
0.000292621
0.000496801
0.000478693
0.000616587
0.000502632
0.000457738
0.000365208
0.00035091
0.000373602
0.000600699
0.000575262
0.000657002
0.000631429
0.000437203
0.000488809
0.000380542
0.000500213
0.000315623
0.000380065
0.000379454
0.000307078
0.0008207
0.000396554
0.000502369
0.000480665
0.000848744
0.000409126
0.000380481
0.000544555
0.000428986
0.000392694
0.000938538
0.000463514
0.000306817
0.000539122
0.00047369
0.000241635
0.000500387
0.000454006
0.00049665
0.000531974
0.000237082
0.000994859
0.000759674
0.0004055
0.000273533
0.000250559
0.000683281
0.000477442
0.00060896
0.0006321
0.000753879
0.000947316
0.000612275
0.000770818
0.000590789
0.000731354
0.000729044
0.000576556
0.000687576
0.000701663
0.000646508
0.000502606
0.000529376
0.00073265
0.000845147
0.0009478
0.000850768
0.000600568
0.000407964
0.000288396
0.000400756
0.000576699
0.000765655
0.000520194
0.0006651
0.000679617
0.000626118
0.00104629
0.000875448
0.000535536
0.000803797
0.00090062
0.000453068
0.00039357
0.000315565
0.000619894
0.000407726
0.0006798
0.000623381
0.000672961
0.000985676
0.00100282
0.000582084
0.000836745
0.000673431
0.000423059
0.000556465
0.00059563
0.000511317
0.000548268
0.000794003
0.000545397
0.000743796
0.00069972
0.000468889
0.000830744
0.000626765
0.000274478
0.000660656
0.000459551
0.000769583
0.000539657
0.000363463
0.000831631
0.000585995
0.000743021
0.00123528
0.000559029
0.000784594
0.000621904
0.000359986
0.000512316
0.000376026
0.000351516
0.000239617
0.000708284
0.000444466
0.000289407
0.000431288
0.000464864
0.000510864
0.000427101
0.000766906
0.000784808
0.000808042
0.000902869
0.000442212
0.000402461
0.000290589
0.000252943
0.000391391
0.000203256
0.000295875
0.000192266
0.00018746
0.000130509
0.0001143
0.000250683
0.000338041
0.000406225
0.000444897
0.000165659
0.000285482
0.000304844
0.000415683
0.000569637
0.000364968
0.000344875
0.000348347
0.00011569
0.000135664
0.000423136
6.9207e-05
7.67141e-05
0.000177474
8.48304e-05
0.000159014
0.000100704
0.000239914
0.000352095
0.000471862
0.000489085
0.000168087
0.000264344
5.85348e-05
0.000271898
0.000177772
0.000210608
0.000309254
0.000329671
6.98887e-05
0.000473783
0.000566449
0.000431071
0.000357877
0.000210063
0.000362613
0.000174065
0.000244175
0.000251862
0.000219094
0.000260928
0.000305552
0.00035686
0.00032086
0.000239363
0.000434014
0.000246716
0.000355186
0.000316864
0.000207845
0.000427122
0.000369863
0.00030821
0.000460707
0.000286893
0.000269552
0.000166403
0.000413887
0.000459038
0.000570103
0.000502201
0.000340976
0.000360836
0.000350863
0.000432575
0.000449183
0.000467597
0.000683024
0.000613187
0.000359806
0.000380018
0.000434999
0.000372455
0.000325597
0.000522803
0.000664743
0.000592092
0.000760807
0.000598364
0.000376402
0.000386031
0.000458463
0.00033844
0.000504224
0.000636393
0.000293537
0.000335077
0.000568386
0.000754086
0.000400362
0.000365765
0.000359348
0.000333779
0.000520825
0.000518246
0.000344771
0.000740234
0.00022731
0.000612549
0.000630438
0.000217051
0.000467988
0.000549078
0.000365105
0.000533107
0.000624562
0.000668293
0.000568351
0.000392574
0.000436205
0.000521828
0.000747951
0.000475493
0.000365026
0.000333026
0.00061372
0.000746973
0.000719322
0.000569803
0.000703581
0.000826174
0.000618497
0.000309004
0.000391783
0.000772677
0.000642906
0.000639576
0.000843519
0.000714118
0.00054611
0.000465784
0.000448916
0.000681084
0.000636386
0.000547239
0.000865491
0.00141482
0.000739446
0.0006817
0.000448898
0.000433072
0.000315638
0.000482784
0.000499446
0.000663061
0.000796496
0.000615275
0.000647088
0.00072736
0.00111239
0.000990519
0.000609335
0.000837737
0.000501879
0.000484881
0.000557257
0.000403538
0.000651429
0.000640246
0.000565231
0.000673398
0.000560631
0.000888808
0.000694137
0.000541435
0.000504677
0.000996242
0.000813999
0.00069909
0.000714245
0.000461016
0.000464432
0.000441672
0.000653689
0.000554779
0.000959688
0.000556515
0.000734206
0.000605606
0.00071942
0.000315362
0.000367421
0.000502094
0.000476778
0.000647909
0.00056244
0.000342981
0.000800979
0.000508364
0.000773913
0.000804516
0.00102938
0.000692855
0.000616452
0.000560224
0.000481396
0.00052004
0.000278658
0.000377358
0.000252734
0.000523955
0.000487629
0.000316652
0.000425477
0.000488664
0.00040959
0.000512503
0.000784444
0.000510015
0.000539075
0.00120167
0.000554771
0.000241671
0.000235529
0.000259665
0.000291671
0.000131975
0.000294417
0.000165199
0.000189703
0.000109008
0.000108666
0.000209114
0.000367941
0.00044412
0.000433546
0.000613682
0.000219286
0.000202459
0.000297209
0.000216133
0.000317509
0.000292284
0.000408945
0.000371038
0.000107916
0.000208425
0.000193604
4.81292e-05
7.10994e-05
5.96173e-05
0.000117856
4.79899e-05
0.000216978
0.000319979
0.000337818
0.000356326
0.000310203
0.000379717
0.000341226
0.000167409
0.000146043
0.000402843
0.000112093
0.00011585
0.000286619
0.000168303
0.000152053
0.000138259
0.000417282
0.000292056
0.000506181
0.000301776
0.000241609
0.000490293
0.000384172
0.000204248
0.00026036
0.000227249
0.000297383
0.000241497
0.000334589
0.000270667
0.000324856
0.000337497
0.000201758
0.000334397
0.000300976
0.000404301
0.000342492
0.000364348
0.000286014
0.000313469
0.0003853
0.000262932
0.000299076
0.000399969
0.000437865
0.000492635
0.000600754
0.000404337
0.000303468
0.000434161
0.000403753
0.000334804
0.00035627
0.000583442
0.000549428
0.000291383
0.000572705
0.000377984
0.000249217
0.000285602
0.000569586
0.000546082
0.000608163
0.000473415
0.000645376
0.000466512
0.000383156
0.000368557
0.000318777
0.000484769
0.000440755
0.000497511
0.000450305
0.000761695
0.000499768
0.000362697
0.000290532
0.000291555
0.000380666
0.000502294
0.00044931
0.000397559
0.000814629
0.000388777
0.000451342
0.00075008
0.000361004
0.00042338
0.000401298
0.000264668
0.000540541
0.000490782
0.00085592
0.000620406
0.000301712
0.000354781
0.00047457
0.000746963
0.000553813
0.000478722
0.000392611
0.000461556
0.000679282
0.000786471
0.00077667
0.00059662
0.000511804
0.000544895
0.000300728
0.000181316
0.000591061
0.000671878
0.000511268
0.000561736
0.000488458
0.00064982
0.000560658
0.00049919
0.000601167
0.00059278
0.000564987
0.000618523
0.000980671
0.000505548
0.00064239
0.000678014
0.000431341
0.000425917
0.00055143
0.000737922
0.000338606
0.000576329
0.000635895
0.000525988
0.000565522
0.0008155
0.000763882
0.000901537
0.000260263
0.000484406
0.000579249
0.000403511
0.000362903
0.000478552
0.00034079
0.000811024
0.000712647
0.000618274
0.000593235
0.000559834
0.000539567
0.00112803
0.000993901
0.000719004
0.000512984
0.000353325
0.00030085
0.000484131
0.000254508
0.000525729
0.000741025
0.000850584
0.000682502
0.00071655
0.000799461
0.000862798
0.000573975
0.000594214
0.000500756
0.00062301
0.000714265
0.000584614
0.000377827
0.0006243
0.000599105
0.000285565
0.000686537
0.000719511
0.00105899
0.000462119
0.000700397
0.000722562
0.000643159
0.00057768
0.000346599
7.94573e-05
0.000922926
0.00050703
0.000655017
0.000507796
0.000445823
0.000599705
0.00068763
0.000347753
0.000762982
0.00143769
0.00131839
0.000576307
0.000510138
0.000514475
0.000521844
0.000288403
0.000218917
0.000466222
0.000284059
0.000286631
0.000427381
0.000325214
0.000447877
0.000342288
0.000443195
0.000541378
0.000667491
0.000620889
0.000827643
0.000625609
0.00044283
0.000237607
0.000391591
0.000286952
0.000205451
8.45736e-05
0.000280748
0.000142854
0.000235808
0.000295591
0.000158568
0.000120065
0.000139406
0.000159024
0.000417783
0.000440606
0.000674513
0.000350651
0.00021736
0.000372476
0.000306827
0.000173224
0.000320814
0.000362249
0.000256008
9.48548e-05
0.000210176
0.00016854
0.000271048
0.000135551
6.30969e-05
8.69935e-05
0.00012125
7.97581e-05
0.000193312
0.000248003
0.000331
0.000332493
0.000202234
0.000305424
0.000472155
0.000392777
0.000289424
0.000197524
0.000185332
4.98396e-05
0.000184326
6.2416e-05
0.0001231
0.000147744
0.000140918
0.000671933
0.000360971
0.000514975
0.000474025
0.000375497
0.000417414
0.000280819
0.000381915
0.000311113
0.000385286
0.000408398
0.00029781
0.000143763
0.000220068
0.000521114
0.000409866
0.000296839
0.00037313
0.000173283
0.000433247
0.000198336
0.000233384
0.000418828
0.000289444
0.000356616
0.000333709
0.000159853
0.000313083
0.000295462
0.000315346
0.000439684
0.00041011
0.000315032
0.000350222
0.000262553
0.000416132
0.000390161
0.000518617
0.000488409
0.00044203
0.000187661
0.000444584
0.000209436
0.000383745
0.000301752
0.000368
0.000520361
0.000641114
0.000783267
0.000585702
0.000487947
0.000342369
0.000375589
0.000532417
0.000482371
0.000544178
0.000470796
0.000500207
0.000693139
0.000461437
0.000405956
0.000308395
0.000492477
0.00036856
0.000581834
0.00062119
0.000488664
0.000489838
0.000750509
0.000534843
0.000494299
0.00046429
0.000324292
0.000356154
0.000529131
0.000499072
0.000359661
0.000550898
0.0005357
0.000381054
0.00038899
0.000498772
0.000629484
0.000367918
0.000340399
0.000551145
0.000471897
0.000533936
0.000618047
0.000502252
0.000679931
0.000339507
0.000474715
0.00029656
0.000715225
0.000814392
0.000525146
0.00047927
0.000405313
0.000676476
0.000374189
0.000586912
0.000580254
0.000779466
0.000732912
0.00063464
0.000331453
0.000302476
0.000605317
0.000853835
0.000551328
0.000584717
0.000366255
0.000426559
0.000357061
0.000673904
0.000668691
0.00050209
0.000355174
0.000772442
0.000804269
0.000754805
0.000524711
0.000528795
0.000571492
0.000746295
0.000425835
0.000429895
0.000622504
0.000606171
0.000542968
0.000767096
0.00046487
0.00034131
0.000417663
0.000950058
0.000719147
0.000647482
0.00120182
0.000444902
0.000491959
0.000359954
0.000442205
0.000611722
0.000627877
0.000517907
0.000596851
0.000771201
0.000599695
0.000419644
0.000561951
0.000909104
0.000594583
0.000875842
0.000883199
0.000828085
0.000561843
0.000336738
0.000532104
0.000292559
0.000611884
0.000470755
0.000930791
0.00102535
0.000427201
0.00104617
0.00063124
0.000411804
0.000704528
0.000720811
0.000608437
0.000497418
0.000678683
0.000628026
0.000174243
0.000589629
0.000566097
0.000216281
0.000602462
0.00110356
0.00120368
0.000364302
0.000448055
0.000974131
0.000612642
0.000425939
0.000341908
0.00037082
0.000406744
0.000482757
0.000852873
0.0007731
0.000507297
0.000780838
0.000769363
0.000770617
0.000452467
0.00107836
0.000780138
0.00118704
0.000924269
0.000488361
0.000541916
0.000513135
0.00054323
0.000456887
0.000470743
0.000384342
0.000173019
0.000495867
0.000313572
0.000260588
0.000328894
0.000429026
0.000638085
0.000450666
0.000616246
0.000613641
0.000612142
0.0010848
0.000570925
0.000464359
0.000210526
0.00025034
0.000256379
0.000120086
0.000440259
0.000269134
0.000350947
0.000270061
0.000258892
0.000209245
0.000169142
0.000143409
0.000307096
0.000329141
0.000449481
0.000507674
0.000753726
0.000154217
0.00045792
0.00030867
0.00079514
0.000694441
0.000269255
0.00026697
0.000110335
0.000266592
0.000181891
0.000172548
0.000121505
0.000106543
4.56194e-05
4.85581e-05
0.000207891
3.03925e-05
0.000236421
0.000231697
0.000271143
0.00025025
0.00019668
0.000231558
0.000432962
0.000143019
0.000633341
0.000214614
0.000125048
6.69541e-05
0.000112187
0.000172858
0.000101934
0.00010879
9.89486e-05
0.000143353
0.00115148
0.000637744
0.000849014
0.00052909
0.000421844
0.000463634
0.000498713
0.000458526
0.000326892
0.000417633
0.000538556
0.000435055
0.000323358
0.000278204
0.000587202
0.000632205
0.000268076
0.000404109
0.000295577
0.000281499
0.00036867
0.000170693
0.000371673
0.00015573
0.00024059
0.000207919
0.000340517
0.000226513
0.000319119
0.000270716
0.000288325
0.000411966
0.000466472
0.000413608
0.000386006
0.000211443
0.000169622
0.00049029
0.000461266
0.000479878
0.000370272
0.00042099
0.000322588
0.000216951
0.000349892
0.000330921
0.000294807
0.000563614
0.000460685
0.0006238
0.000493588
0.000211881
0.00040069
0.000428645
0.000369913
0.000376559
0.000481877
0.000475142
0.000600718
0.000477271
0.000214169
0.000390058
0.000522092
0.000287437
0.000484246
0.000391471
0.000455677
0.000314896
0.000579286
0.000730654
0.00066075
0.000465023
0.000251602
0.000296464
0.000425603
0.000434187
0.000379361
0.000537887
0.000876786
0.000413992
0.00055477
0.000439233
0.000573562
0.000323604
0.000302344
0.000376376
0.000394568
0.00053142
0.000646259
0.00104966
0.000453793
0.000324519
0.00035432
0.000371637
0.000397691
0.000612399
0.000714752
0.000658017
0.00076996
0.000577895
0.000908915
0.000623496
0.000416313
0.000624491
0.0008514
0.000613813
0.000440414
0.000350716
0.000546357
0.000752353
0.000496301
0.000396761
0.000281718
0.00027615
0.000784456
0.000763638
0.000530391
0.000883205
0.000320208
0.000601697
0.000987398
0.00109089
0.00033465
0.000451774
0.000723912
0.000581356
0.000570344
0.000484735
0.000570353
0.000690821
0.000647856
0.000543447
0.000540173
0.000117652
0.000645681
0.000949024
0.000848222
0.000573396
0.000524846
0.000472274
0.000498272
0.000499954
0.00062102
0.000421093
0.000522545
0.000516164
0.000479112
0.000673695
0.000528748
0.00049074
0.000491702
0.000652123
0.0014746
0.000977817
0.00071787
0.000890667
0.00071409
0.000477849
0.000486217
0.000332439
0.000354888
0.000521145
0.000563208
0.000437394
0.000877799
0.000701618
0.00045324
0.000539678
0.000630722
0.000624736
0.00105435
0.000868501
0.00077649
0.000888583
0.000652774
0.000379563
0.000571046
0.000368241
0.000560549
0.000655961
0.000477628
0.000765431
0.000550328
0.000879877
0.000785096
0.000647217
0.000408448
0.000438824
0.000766556
0.000582066
0.000874024
0.00126904
0.000646423
0.000470515
0.000680749
0.000646049
0.000445978
0.000429838
0.000608336
0.000582963
0.000483788
0.00042476
0.000912583
0.000903418
0.000603048
0.000347419
0.000310819
0.000246499
0.000658737
0.000248749
0.000277867
0.000604494
0.00051172
0.000712124
0.00093014
0.000658116
0.000221042
0.000722986
0.000827309
0.00114005