/*--------------------------------*- C++ -*----------------------------------*\
  =========                 |
  \\      /  F ield         | OpenFOAM: The Open Source CFD Toolbox
   \\    /   O peration     | Website:  https://openfoam.org
    \\  /    A nd           | Version:  7
     \\/     M anipulation  |
\*---------------------------------------------------------------------------*/
FoamFile
{
    version     2.0;
    format      ascii;
    class       surfaceScalarField;
    location    "7";
    object      phi;
}
// * * * * * * * * * * * * * * * * * * * * * * * * * * * * * * * * * * * * * //

dimensions      [0 3 -1 0 0 0 0];

internalField   nonuniform List<scalar> 
54006
(
-8.62209e-06
0.00163624
-0.00162094
-7.48072e-05
1.52224e-05
0.00293054
-0.00292573
-0.000204371
-8.89182e-06
-7.54463e-05
-1.0108e-05
-0.00160302
-8.18403e-05
-5.89807e-06
0.00140738
-0.00141114
-6.51506e-05
7.25223e-05
0.00414373
-0.00412989
-0.000218361
7.97255e-06
-0.000211237
2.31764e-05
-0.00292021
-0.000224961
-5.26279e-05
0.00261007
-0.00258418
-0.00018353
-3.08715e-07
-6.52477e-05
-2.43373e-05
-0.00157066
-8.09091e-05
8.44265e-06
-0.00142991
-7.15092e-05
1.24942e-05
0.00173316
-0.00175499
-5.58133e-05
0.000125247
0.00501908
-0.00487913
-5.25345e-05
9.00227e-05
-0.000243216
-1.05109e-05
-0.00398086
-0.000224725
1.88087e-05
0.00353536
-0.00356753
-0.00025762
-3.21927e-05
-0.000187478
-1.69902e-05
-0.00289025
-0.000209377
-2.31913e-06
-0.00259345
-0.000204929
-7.15038e-05
0.00253321
-0.00248628
-0.000146467
1.75194e-05
-5.56117e-05
-4.03203e-05
-0.00152248
-7.99274e-05
-1.99893e-05
-0.00142016
-7.06745e-05
1.0082e-05
-0.00177555
-6.10339e-05
2.34078e-05
0.00217981
-0.00220176
-5.72628e-05
0.000208233
0.00531593
-0.00527583
0.000308769
0.0002102
-8.79057e-05
2.24202e-05
-0.00467184
-1.39316e-05
4.72677e-05
0.00444947
-0.00436222
-0.000168243
3.33495e-05
-0.000269837
-6.23931e-05
-0.00384179
-0.000195621
3.58763e-06
-0.00349603
-0.000302132
-8.85159e-05
0.00295345
-0.00291762
-0.000276434
-6.1523e-05
-0.000148942
-6.74205e-05
-0.00282025
-0.000204328
-7.74549e-05
-0.00255081
-0.00019455
-5.92282e-05
-0.00246707
-0.000154829
-3.52477e-05
0.002768
-0.0027194
-0.000136411
2.91038e-05
-5.73107e-05
-6.7543e-05
-0.00144723
-7.89775e-05
-1.41784e-05
-0.0014154
-7.04998e-05
1.53408e-05
-0.00180167
-5.98924e-05
2.38306e-05
-0.00222369
-6.29372e-05
2.3499e-06
0.00219669
-0.00218843
-6.78677e-05
0.000198687
0.00617265
-0.00606633
0.000857374
0.000275462
0.000339778
0.000230076
-0.00540289
0.000235893
4.78872e-05
0.0050572
-0.00504608
0.000297035
2.36314e-05
-0.000125356
-6.99955e-05
-0.00440247
-3.74867e-05
8.60876e-05
-0.00422602
-0.000232632
-0.000128235
0.00371555
-0.00360841
-0.00023566
-6.67022e-05
-0.000276451
-0.000132529
-0.00368736
-0.000170656
-8.43594e-07
-0.00351849
-0.000249778
-4.92159e-05
-0.00289567
-0.000334098
-7.47127e-05
0.00284358
-0.00275756
-0.000322996
-4.18766e-05
-0.000136696
-0.000151188
-0.00269447
-0.000188033
-6.26658e-05
-0.00251468
-0.000191972
-7.26018e-05
-0.00242122
-0.000152456
-3.59439e-05
-0.00266537
-0.000149082
1.72712e-05
0.00249617
-0.00244931
-0.000198186
9.25993e-06
-6.81856e-05
-4.25939e-05
-0.00139627
-7.84904e-05
-3.59565e-05
-0.00138856
-6.98619e-05
2.10516e-06
-0.00181492
-5.93555e-05
1.41725e-05
-0.00223526
-6.24977e-05
-5.86606e-06
-0.00217066
-7.4848e-05
4.5031e-06
0.00241873
-0.00241562
-7.54818e-05
6.5675e-05
0.00606436
-0.00593589
0.00137321
0.000410281
0.000881649
0.000392541
-0.00609553
0.000902561
1.31824e-05
0.00612976
-0.00614464
0.000906953
1.66003e-05
0.000331788
-6.66869e-05
-0.00521929
0.000351831
0.000143964
-0.00514437
0.000276307
-0.000230886
0.00486145
-0.00468551
0.000223746
-0.000107007
-0.000175269
-0.000145444
-0.00406659
-6.48418e-05
0.000135248
-0.00414608
-0.000253514
-0.000113547
-0.00340863
-0.000368078
-3.50276e-05
0.00305052
-0.00304394
-0.000281925
-9.26512e-05
-0.000303393
-0.000189943
-0.00355428
-0.000144968
2.8323e-05
-0.00354061
-0.000239525
-0.00011264
-0.00279802
-0.000307387
-9.855e-05
-0.00266071
-0.000368332
-1.24723e-05
0.00270294
-0.00265251
-0.000343676
2.7518e-05
-0.000186613
-9.63933e-05
-0.00259274
-0.000189959
-0.000109271
-0.00244725
-0.000182149
-9.85319e-05
-0.00236266
-0.000149892
-4.21171e-05
-0.00261079
-0.000150748
5.46297e-05
-0.00243588
-0.000223006
8.71273e-05
0.00245731
-0.00250107
-0.000237051
1.78307e-05
-7.56185e-05
-5.45284e-05
-0.00133329
-7.70131e-05
-3.99115e-05
-0.00135757
-6.95756e-05
-1.37308e-05
-0.0018122
-5.88483e-05
5.86527e-06
-0.0022384
-6.20785e-05
-1.37893e-05
-0.00214479
-7.45809e-05
-1.73093e-06
-0.0024067
-8.204e-05
2.56784e-05
0.00235381
-0.0023792
-7.57724e-05
2.95344e-05
0.00598587
-0.00595462
0.00172007
0.000345861
0.00137733
0.000178268
-0.00580197
0.00156711
-0.000193734
0.00632006
-0.00614093
0.001401
0.000116693
0.000914373
-4.71297e-05
-0.00597952
0.000976086
5.07377e-05
-0.0061261
0.000977252
-0.000283918
0.00575821
-0.00556843
0.000770212
-0.000184116
0.000266681
-0.00010447
-0.00516332
0.000335523
0.000190315
-0.00511555
0.000267947
-0.000298492
-0.00446481
0.000240558
-0.000113467
0.00482498
-0.00462967
0.000106881
-8.41171e-05
-0.00020371
-0.000226712
-0.00387737
4.95692e-05
0.000188087
-0.00401411
-0.000356578
-0.000123427
-0.00327423
-0.000377133
-9.3377e-05
-0.00301143
-0.000405764
-8.9432e-06
0.00367601
-0.00362608
-0.000335386
-4.18544e-05
-0.000330153
-0.000244774
-0.00333035
-9.9666e-05
-0.000134205
-0.00343831
-0.000222332
-0.000117399
-0.00271687
-0.000301805
-9.24204e-05
-0.00255317
-0.000364625
0.000103457
-0.00267343
-0.000396239
0.000207459
0.00326623
-0.00342446
-0.00030577
0.000124927
-0.000232333
-0.000120984
-0.00248128
-0.000183795
-0.000118289
-0.00238268
-0.000176146
-0.000128089
-0.00228219
-0.000148264
-4.09999e-05
-0.00256287
-0.00015094
3.61506e-05
-0.00241256
-0.000224008
0.000141614
-0.0026116
-0.000255824
7.74437e-05
0.00327171
-0.00331534
-0.000245184
3.78189e-05
-7.69847e-05
-6.88008e-05
-0.00125586
-7.61576e-05
-4.34362e-05
-0.00132215
-6.89924e-05
-2.48415e-05
-0.00179809
-5.88512e-05
5.83267e-07
-0.00223593
-6.19091e-05
-2.46053e-05
-0.0021078
-7.4461e-05
-9.04569e-06
-0.00239085
-8.13826e-05
1.57068e-05
-0.00239489
-8.20546e-05
7.1791e-05
0.00194338
-0.00201312
-7.78207e-05
-0.000110847
0.00636439
-0.00623323
0.00194336
3.21105e-05
0.0017756
-0.000129759
-0.00575522
0.00196391
-0.000304804
0.0062927
-0.00618038
0.00171882
3.44861e-05
0.00140718
-0.000152368
-0.00575124
0.00151823
-0.000169422
-0.00595344
0.00159978
-0.00033877
0.00608629
-0.00596503
0.00133459
-0.000168506
0.000879115
-6.52362e-05
-0.0059063
0.00105369
4.92089e-05
-0.00604756
0.00103865
-0.000461843
-0.00529696
0.000869129
-0.000149468
0.00549889
-0.00535094
0.000658259
-4.38624e-05
0.000155017
-0.000402622
-0.00484827
0.000396906
0.000111378
-0.00497149
0.000268163
-0.000138451
-0.00446817
0.000286327
-0.000104706
-0.00442573
4.79502e-05
2.80173e-05
0.00510502
-0.00503623
1.13427e-06
-5.99283e-05
-0.000298376
-0.000280781
-0.00358313
1.71327e-05
-6.12147e-05
-0.00385213
-0.000185394
-8.47271e-05
-0.00323683
-0.000426649
-0.000224985
-0.00289183
-0.000364164
9.40088e-05
-0.00367545
-0.000346948
0.000386686
0.00477198
-0.00494746
-0.000339137
0.000280694
-0.00032514
-0.000282889
-0.00311538
-8.59345e-05
-4.98364e-05
-0.00339116
-0.000215268
-0.000165038
-0.0026271
-0.000275156
-9.57627e-05
-0.00245556
-0.000344652
8.26809e-05
-0.00268439
-0.000400197
0.000213132
-0.00358242
-0.000309799
0.000256993
0.00347851
-0.00372707
-0.000236761
0.000161996
-0.0002544
-0.000157606
-0.00235291
-0.000181623
-0.000116702
-0.00232744
-0.000165767
-0.000149748
-0.00218659
-0.00014684
-5.33154e-05
-0.00250548
-0.000151761
3.02285e-05
-0.00239717
-0.00022117
0.000117651
-0.00271625
-0.000246053
0.000103177
-0.00340079
-0.000257843
0.000118138
0.00352528
-0.00354755
-0.00026926
9.21469e-05
-7.89423e-05
-8.3319e-05
-0.00116319
-7.60496e-05
-4.5741e-05
-0.00128345
-6.91154e-05
-4.79321e-05
-0.00176103
-5.81173e-05
-9.08158e-06
-0.00222383
-6.18615e-05
-2.71161e-05
-0.00206821
-7.43799e-05
-1.7426e-05
-0.00236717
-8.07216e-05
1.30916e-05
-0.00240901
-8.03517e-05
6.8607e-05
-0.00207968
-8.41009e-05
0.000129185
0.00234091
-0.00246817
-7.97434e-05
-3.27232e-05
0.00615454
-0.00624245
0.00216395
-0.000117926
0.00194129
-0.000229155
-0.00610819
0.00211868
-0.000223431
0.00634249
-0.006364
0.0018835
-0.000183298
0.00177937
-0.000151489
-0.0058396
0.00197764
-0.000130798
-0.00617208
0.00191698
-0.000309333
0.00623956
-0.00620591
0.00165573
-0.000244873
0.00133367
-0.000174803
-0.00564903
0.00147668
-0.000205673
-0.00576305
0.00158272
-0.000482497
-0.00587898
0.00153439
-2.37888e-06
0.00627377
-0.00619973
0.00111346
3.75891e-05
0.000728167
-0.000402468
-0.00577156
0.00108329
0.000126607
-0.00595729
0.000948186
-0.000267031
-0.00512
0.000990276
-0.000266679
-0.0050542
0.000734359
3.54266e-05
0.0055202
-0.00544186
0.000572508
6.01353e-05
-3.01423e-05
-0.000406673
-0.00461118
0.000414208
6.99446e-05
-0.00497021
0.000264475
-0.000202058
-0.00435581
0.000273132
-0.000198065
-0.00425676
9.04357e-05
9.30679e-05
-0.00492514
-6.22005e-05
0.000321096
0.00575675
-0.00553411
-0.000155909
0.000421882
-0.000320733
-0.000356502
-0.00323395
6.12958e-05
6.01537e-05
-0.00367838
-0.000266613
-0.000109714
-0.0031446
-0.000332951
-0.000250019
-0.00284774
-0.000316481
2.72121e-05
-0.00373705
-0.000247097
0.000308616
-0.00504352
-0.000346376
0.000607434
0.00411729
-0.00462019
-0.000186679
0.000282622
-0.000282144
-0.0003459
-0.00287885
-6.60437e-05
-0.000101619
-0.00329945
-0.000192727
-0.000167268
-0.00256009
-0.000264754
-9.22483e-05
-0.00235973
-0.000332054
0.000100087
-0.00271562
-0.000383279
0.00015085
-0.00372774
-0.00028807
0.000362954
-0.00408726
-0.000209392
0.000294866
0.0037845
-0.00396123
-0.000236752
0.000112876
-0.000285394
-0.000209254
-0.00218274
-0.000168911
-0.00011171
-0.00227259
-0.000170511
-0.000181635
-0.00208045
-0.000138202
-7.86312e-05
-0.00242932
-0.000153446
-1.85459e-06
-0.00235854
-0.000215649
8.68921e-05
-0.00281087
-0.00023087
0.000108289
-0.0034967
-0.000245344
0.000119102
-0.00357774
-0.000278143
0.000209422
0.00356619
-0.00367996
-0.000235725
0.000140073
-8.06575e-05
-8.66749e-05
-0.00106746
-7.57502e-05
-4.97979e-05
-0.00124026
-6.94406e-05
-4.07446e-05
-0.0017307
-5.87004e-05
-1.92433e-05
-0.00220125
-6.14609e-05
-3.34901e-05
-0.00202238
-7.42007e-05
-2.56084e-05
-0.00233518
-8.07584e-05
1.52131e-05
-0.00242633
-7.86148e-05
5.35751e-05
-0.00213231
-8.13038e-05
0.000130337
-0.00259832
-8.42855e-05
0.000174673
0.00287827
-0.0030536
-7.90871e-05
5.6237e-05
0.0057967
-0.00580891
0.00233167
-4.7616e-05
0.00219483
-0.000177855
-0.00625581
0.00238622
-0.000181768
0.00608653
-0.00608639
0.00212215
-8.03037e-05
0.00187928
-0.000276856
-0.00596098
0.00219527
-0.000120077
-0.00632118
0.00206513
-0.000172685
0.00613507
-0.00608622
0.001698
-0.000235782
0.00162735
-0.000268407
-0.00587243
0.00198473
-0.000336356
-0.00598726
0.0019235
-0.000335898
-0.00621814
0.00178261
9.23683e-05
0.00603817
-0.00598714
0.00150995
0.000147001
0.001148
-0.000293158
-0.0056783
0.00138341
-3.25171e-05
-0.00565891
0.00153167
-0.000464932
-0.00558004
0.00148169
-0.00031259
-0.0059318
0.00131237
0.000160838
0.00595529
-0.00598213
0.00101489
0.000159685
0.000489954
-0.000390927
-0.00566463
0.00104053
0.000183931
-0.00596083
0.000972839
-0.000235865
-0.00499436
0.000856349
-0.00017163
-0.00486669
0.000776335
1.04204e-05
-0.00526995
0.000645101
0.000264446
0.00581241
-0.00565677
0.000473523
0.000393677
-0.000177342
-0.000542866
-0.00435544
0.000456151
3.47202e-05
-0.00478933
0.000258755
-0.000166672
-0.00431636
0.000281987
-0.00017256
-0.00430848
0.00024739
-6.72105e-06
-0.004836
3.52353e-05
0.000243761
-0.00548692
-4.454e-05
0.000703019
0.00577299
-0.00588724
-0.000137243
0.000460026
-0.000121226
-0.000441714
-0.00301871
7.40006e-05
7.04253e-06
-0.00349492
-0.000230822
-0.000116133
-0.00311183
-0.000350511
-0.000215835
-0.00277132
-0.000285791
-0.000164829
-0.00364364
-0.000144974
0.000160004
-0.00503124
-0.000268525
0.000665909
-0.00487047
-0.000399053
0.000521086
0.00412759
-0.004525
-1.54951e-05
9.89496e-05
-0.000237088
-0.000432156
-0.00255904
-3.5198e-05
-0.000128529
-0.00316612
-0.00018255
-0.000105114
-0.00258402
-0.000245315
-0.000134067
-0.00225124
-0.00031781
3.80742e-05
-0.00272598
-0.000361621
7.81156e-05
-0.00384819
-0.000254061
0.000315645
-0.00442784
-0.000154845
0.000339446
-0.00412847
-0.000262502
0.00019009
0.00413368
-0.00410599
-0.000245113
0.000182477
-0.000276044
-0.000194066
-0.00203981
-0.000157771
-0.000129909
-0.00218765
-0.00017374
-0.000149262
-0.00200373
-0.000138711
-0.00011316
-0.0023217
-0.000151909
-4.31128e-05
-0.00229236
-0.000209999
4.46928e-05
-0.00288115
-0.000215663
0.000122794
-0.00360772
-0.000227427
0.000126401
-0.0036367
-0.000259218
0.000256531
-0.00383431
-0.000249991
0.000294406
0.00436098
-0.00449851
-0.000217936
0.00016348
-8.13708e-05
-9.71092e-05
-0.000961218
-7.53536e-05
-5.87846e-05
-0.00118785
-6.93772e-05
-3.66264e-05
-0.00170547
-5.80489e-05
-1.95279e-05
-0.00217859
-6.18315e-05
-4.22191e-05
-0.00196742
-7.42076e-05
-3.2619e-05
-0.00229633
-8.04371e-05
9.81414e-06
-0.00243896
-7.79486e-05
4.06486e-05
-0.00217336
-7.82129e-05
0.000122797
-0.00271978
-8.26392e-05
0.000171207
-0.0032252
-8.38936e-05
0.000155295
0.00277405
-0.00293201
-7.64207e-05
0.000178737
0.00559868
-0.00560803
0.00262437
9.30303e-05
0.00241333
-0.000176209
-0.00580659
0.00271796
-0.000147949
0.00587368
-0.00586853
0.0022927
0.000169274
0.00207109
-0.000340592
-0.00619601
0.0024439
-0.000119148
-0.00599665
0.00229555
-7.69968e-06
0.00606766
-0.00610678
0.00199628
-5.21019e-05
0.0017045
-0.000331518
-0.00601312
0.00227984
-0.000428446
-0.00612587
0.00209205
-0.00022303
-0.00603135
0.00189739
0.000155857
0.00600384
-0.00598275
0.00161342
0.000312772
0.00146071
-0.000239213
-0.00607042
0.00206407
-0.000132581
-0.00580447
0.00190202
-0.00047268
-0.0060894
0.00180251
-0.000167173
-0.00604161
0.00169166
0.000150844
0.00591717
-0.00575393
0.00135671
0.000199439
0.00101512
-0.000355864
-0.00561744
0.0013618
0.000142722
-0.005655
0.00142071
-0.000372212
-0.00542004
0.00150801
-0.000357364
-0.0055303
0.00126593
0.000241449
-0.00600934
0.00110855
0.000347132
0.00611905
-0.00611981
0.000932961
0.000325652
0.000455418
-0.000620755
-0.00544827
0.00101568
0.000130739
-0.00592402
0.000907705
-0.000101552
-0.00501297
0.000926333
-0.000163779
-0.0048135
0.000794378
-0.00013117
-0.00508939
0.000720222
0.000116339
-0.00540497
0.000520717
0.000556229
0.00622219
-0.00611009
0.000508211
0.000655619
-8.01539e-05
-0.000634039
-0.00414348
0.000495632
-1.5384e-05
-0.00458787
0.000277125
-0.000101905
-0.00437204
0.000300208
-0.000206421
-0.00427042
0.000234508
-0.000281109
-0.00466954
0.000197202
7.09612e-05
-0.00551852
0.000155884
0.000704929
-0.00596956
-1.24152e-06
0.000569413
0.00599067
-0.00628264
0.000106405
0.000243107
3.07968e-05
-0.000536726
-0.00279678
0.000143151
-9.31053e-05
-0.00333192
-0.000124427
-2.39898e-05
-0.00310477
-0.000319011
-0.000286641
-0.00274883
-0.000220422
-0.000140287
-0.00364665
-0.000104422
3.18641e-05
-0.00502352
-0.000106443
0.000557519
-0.00499858
-0.000382287
0.000564498
-0.00490074
-0.000248361
0.000284897
0.00445254
-0.00471322
0.000150382
-2.68092e-06
-0.000215948
-0.000388204
-0.00230851
-0.000101807
-0.000239568
-0.00291253
-0.000179132
-0.000144878
-0.00253713
-0.000233831
-0.000160083
-0.0021603
-0.000289329
-3.7249e-05
-0.00269467
-0.000354987
-2.53488e-05
-0.00388488
-0.000254881
0.000253326
-0.00468787
-0.000124556
0.000527444
-0.00445049
-0.000233866
0.000445814
-0.0042672
-0.000290566
0.000201593
0.00434053
-0.00427518
-0.000217657
0.000225854
-0.000246055
-0.000215661
-0.0018828
-0.000146423
-0.000148612
-0.00208274
-0.000172847
-0.000127659
-0.00194539
-0.000141046
-9.82774e-05
-0.00222881
-0.000152847
-5.48021e-05
-0.00222486
-0.000206826
1.89704e-05
-0.00293857
-0.000204176
5.36766e-05
-0.00365417
-0.000213081
0.000114556
-0.00370081
-0.000237224
0.000240234
-0.00396354
-0.000247427
0.000251919
-0.00458842
-0.000240786
0.000181309
0.00475289
-0.00478885
-0.000207987
0.000166724
-7.97785e-05
-9.81347e-05
-0.000854923
-7.53707e-05
-6.39385e-05
-0.00113028
-6.8991e-05
-3.59088e-05
-0.00168055
-5.8382e-05
-2.60738e-05
-0.00214931
-6.12515e-05
-3.93216e-05
-0.00191617
-7.37614e-05
-4.21604e-05
-0.00224838
-7.99883e-05
-5.05961e-06
-0.00243705
-7.72871e-05
2.88696e-05
-0.00220534
-7.48343e-05
0.000117234
-0.00283362
-8.16065e-05
0.000136683
-0.00336273
-8.17994e-05
0.000153707
-0.00308668
-8.29363e-05
0.000147475
0.00269211
-0.00284306
-7.2946e-05
0.000262379
0.00534381
-0.00541036
0.00295647
0.000315526
0.00260702
3.01737e-05
-0.00567654
0.00290719
7.49573e-05
0.00554342
-0.00574587
0.00260392
0.000307608
0.00230693
-8.97516e-05
-0.00603673
0.00275608
-5.24902e-05
-0.00585592
0.00263869
2.62981e-05
0.00584483
-0.00585543
0.00226931
0.000118787
0.00195027
-0.000211616
-0.00629562
0.00248449
-0.000345738
-0.00595924
0.00232378
-0.000118178
-0.0061058
0.00218972
0.000220743
0.00572515
-0.00566773
0.00187398
0.000422041
0.00164377
-3.75872e-05
-0.00628939
0.00228181
-0.000260542
-0.00590375
0.00218568
-0.000374854
-0.00594061
0.00190349
-0.000129305
-0.00595149
0.00182827
0.000236307
0.00576217
-0.0057208
0.00148658
8.04277e-05
0.00137473
-9.89308e-05
-0.00638385
0.00200951
-0.000198575
-0.00551223
0.00211313
-0.000633348
-0.00571666
0.0017904
-0.00029603
-0.00596938
0.00166895
0.0003553
-0.00574903
0.00157291
0.000436381
0.0058517
-0.00577608
0.00119185
0.000375648
0.000960031
-0.000386051
-0.00572253
0.00139161
3.2863e-05
-0.00562419
0.00142887
-0.000165145
-0.0053313
0.00139556
-0.000399537
-0.00516731
0.00138079
-0.000131046
-0.00584041
0.00109687
0.00025424
-0.0061457
0.000996536
0.000624744
0.00628372
-0.00638769
0.000968416
0.000542719
0.000515947
-0.000582948
-0.00536534
0.0010347
-6.33567e-05
-0.00578721
0.000926839
7.40722e-05
-0.00519568
0.000914437
-0.000186315
-0.00472794
0.000820672
-0.000157037
-0.00512106
0.000701975
0.000118984
-0.00535836
0.000625594
0.000567944
-0.00594972
0.000497334
0.000423077
0.00622608
-0.00610854
0.000537002
0.000444135
0.000178471
-0.000674409
-0.00412137
0.000501786
-0.000179683
-0.00428971
0.00028405
-0.000147318
-0.00437363
0.000402039
-0.000412304
-0.0041548
0.000310249
-0.000254499
-0.00459431
0.000273498
-4.6975e-05
-0.00544622
0.000203733
0.000563874
-0.00598929
0.000169255
0.000611422
-0.00641589
8.50827e-05
0.000503826
0.00586181
-0.00624033
0.000265997
7.39366e-06
-3.81517e-05
-0.000555267
-0.00255709
6.86763e-05
-0.000233555
-0.00308995
-0.000104828
-7.158e-05
-0.00313494
-0.000167552
-0.000161106
-0.00288799
-0.000178828
-0.000237989
-0.00363664
-2.96911e-05
-0.000179562
-0.00495356
-2.01748e-05
0.000399817
-0.00498403
-0.000267481
0.000743199
-0.00512167
-0.000377113
0.000564051
-0.00506419
-1.56247e-05
0.000142604
0.00422556
-0.00412566
0.000109471
2.11518e-05
-0.000211977
-0.000387268
-0.00208482
-8.90248e-05
-0.000214272
-0.00276628
-0.000182395
-0.000103744
-0.00249903
-0.00024114
-0.000116433
-0.00209369
-0.000282292
-8.16318e-05
-0.00261619
-0.000340984
-8.82572e-05
-0.00394285
-0.000189793
0.000112399
-0.00485802
-0.000143458
0.000453742
-0.00467694
-0.000237285
0.000561159
-0.00449963
-0.000322364
0.000101173
-0.00415985
-0.000255145
0.000110375
0.00455189
-0.00444182
-0.000256791
0.000214345
-0.000206947
-0.000225714
-0.00171552
-0.000151211
-0.000159945
-0.00196244
-0.000170724
-0.000127348
-0.00188581
-0.000140997
-6.96119e-05
-0.00218166
-0.000144659
-4.55435e-05
-0.00216124
-0.000210248
-2.18248e-05
-0.00297225
-0.000193477
2.13642e-05
-0.00368303
-0.000201743
0.000122686
-0.00378446
-0.000223245
0.000229018
-0.00409021
-0.000222336
0.000184215
-0.00463424
-0.000249146
0.000150745
-0.00481319
-0.000213481
0.000239863
0.00394974
-0.00405194
-0.000198171
0.000155031
-7.57539e-05
-9.86402e-05
-0.000747806
-7.58079e-05
-6.85562e-05
-0.00106832
-6.87673e-05
-4.99467e-05
-0.00164182
-5.77727e-05
-3.65377e-05
-0.00210939
-6.17708e-05
-6.27519e-05
-0.00184119
-7.34707e-05
-4.87404e-05
-0.00219344
-7.99615e-05
-2.00388e-05
-0.00242009
-7.69065e-05
1.70858e-05
-0.00222269
-7.70237e-05
0.000108423
-0.00293847
-7.84112e-05
0.000125379
-0.00348811
-8.16003e-05
0.000145606
-0.00323408
-8.00093e-05
0.000165257
-0.0030149
-7.63544e-05
0.00015395
0.002789
-0.00294053
-7.53651e-05
0.000325212
0.00506286
-0.00522347
0.00327567
0.00044636
0.00289684
0.000221536
-0.00552969
0.00326906
0.000232939
0.00521923
-0.00534112
0.00292038
0.000366191
0.00257192
9.97834e-05
-0.00577473
0.00298829
-3.092e-05
-0.0057512
0.00289095
0.000268931
0.00545929
-0.00561026
0.00251227
0.000200073
0.00215789
-1.93984e-05
-0.00629184
0.00284689
-0.000161689
-0.00591108
0.00262719
-5.33746e-05
-0.0058035
0.00252195
0.000269843
0.00566606
-0.00562547
0.00217962
0.000502058
0.00188716
0.000106408
-0.0064292
0.00254624
-0.000276691
-0.00582754
0.00236894
-0.000286102
-0.00605946
0.00218868
-5.09905e-05
-0.00565074
0.00209441
0.000412499
0.00564957
-0.00571226
0.00176048
0.000261001
0.00152807
6.92732e-05
-0.00657358
0.00240144
-0.000240687
-0.00576398
0.00218416
-0.000470052
-0.0058599
0.00194167
-0.000194575
-0.00597806
0.0018286
0.000222571
-0.00545286
0.00169306
0.000528819
0.00583063
-0.00584418
0.0014077
0.000471952
0.00120739
6.74994e-05
-0.00686594
0.00196323
-5.43674e-05
-0.00550816
0.00209267
-0.000254494
-0.0053766
0.00186243
-0.000440117
-0.00580998
0.00167158
7.07492e-05
-0.00577534
0.00149347
0.000492759
-0.00578605
0.00134435
0.000892566
0.00585848
-0.00603983
0.00110538
0.00052356
0.000983472
-0.000151672
-0.00599105
0.00142948
-4.267e-05
-0.00566425
0.00141098
2.81383e-05
-0.00527322
0.00141672
-0.000346647
-0.00491298
0.00130156
-0.000164895
-0.00554767
0.0010959
0.000270717
-0.00619965
0.000999094
0.000541531
-0.00632467
0.000959936
0.000540115
0.00587213
-0.00599164
0.000970893
0.000491734
0.000510075
-0.000589807
-0.00533252
0.00107384
-0.000167316
-0.00568837
0.000923498
-7.31143e-05
-0.00529073
0.000947691
-0.000286407
-0.00484069
0.000901284
-0.000177507
-0.00517781
0.00080043
-5.62641e-06
-0.00529279
0.000595058
0.00058015
-0.00590782
0.000567415
0.000540587
-0.00605113
0.000510762
0.000542993
0.00606887
-0.00606641
0.00049537
0.000333561
0.000254108
-0.000690286
-0.00407155
0.000346946
-0.000249605
-0.00408221
0.000310332
-1.41631e-05
-0.00443245
0.000285455
-0.000312266
-0.00404424
0.000442641
-0.00042173
-0.00444675
0.000346424
-0.000288008
-0.00543029
0.000366018
0.000402238
-0.00605096
0.000262985
0.0006029
-0.0062401
0.000133764
0.000600526
-0.00638547
0.000193745
0.000125159
0.00505079
-0.00487576
0.000108408
-0.000167192
-9.00497e-05
-0.000580911
-0.0022428
5.26743e-05
-0.000219854
-0.00294309
-7.26012e-05
-5.4272e-05
-0.00315329
-0.000135952
-0.000227561
-0.00289802
-4.63933e-05
-0.000316199
-0.00360332
2.24182e-05
-0.000293389
-0.00480315
2.50343e-05
0.000223208
-0.00501484
-0.000100175
0.00059856
-0.00520294
-0.000331026
0.000716769
-0.00551906
-7.78534e-05
-5.47969e-05
-0.00401636
3.10495e-05
-4.29399e-05
0.00472321
-0.00448034
1.99232e-05
0.000179322
-0.000264053
-0.00036411
-0.0018975
-9.57477e-05
-0.000221852
-0.00261235
-0.000181051
-0.00012444
-0.00244197
-0.000242364
-0.000111317
-0.00200366
-0.000289457
-0.000161116
-0.00245806
-0.000324845
-0.000158813
-0.00400896
-0.000137889
6.27149e-05
-0.00500625
-8.29171e-05
0.000406318
-0.0048666
-0.000237431
0.00054977
-0.00469112
-0.00036655
0.000162951
-0.00417853
-0.000282425
1.39391e-05
-0.00429629
-0.000263865
0.000352929
0.00452404
-0.00459177
-0.00030213
0.000274398
-0.000203482
-0.000208915
-0.00156181
-0.000163698
-0.00016763
-0.00184147
-0.000173102
-0.000133318
-0.00183294
-0.000140215
-7.54385e-05
-0.00213371
-0.000150049
-0.000102458
-0.00206744
-0.000198755
-5.26493e-05
-0.00299429
-0.000184303
-8.87432e-06
-0.00369584
-0.000191823
9.8933e-05
-0.00385384
-0.000214209
0.000194954
-0.00418482
-0.000215163
0.000215801
-0.00471432
-0.000232676
0.000118553
-0.00482346
-0.000211823
0.000268284
-0.00415955
-0.000208898
0.00017459
0.00382659
-0.00386617
-0.000179225
0.00015688
-7.6046e-05
-9.95101e-05
-0.000639706
-7.61577e-05
-6.13696e-05
-0.00101418
-6.85812e-05
-4.85288e-05
-0.00160391
-5.81559e-05
-4.01201e-05
-0.00206524
-6.17948e-05
-4.76218e-05
-0.00178148
-7.38661e-05
-5.52612e-05
-0.00213213
-7.95258e-05
-3.17474e-05
-0.00239136
-7.69459e-05
5.29746e-06
-0.00222925
-7.56427e-05
7.95617e-05
-0.00301587
-7.91905e-05
0.000111711
-0.00359942
-7.88174e-05
0.000137184
-0.00337278
-8.00847e-05
0.000150135
-0.00316789
-7.71599e-05
0.000152758
-0.00308935
-8.02911e-05
5.00336e-05
0.00297392
-0.00302858
-7.07403e-05
0.000307079
0.00511062
-0.00509497
0.0036317
0.000396399
0.0032188
0.000299615
-0.00532946
0.00356789
0.000295295
0.00488133
-0.00497153
0.00330351
0.000364554
0.00284643
0.000173622
-0.00561417
0.00325458
0.000175493
-0.00548473
0.00320625
0.000456446
0.00538077
-0.00543288
0.00278497
0.000277341
0.00249133
9.19835e-05
-0.00585345
0.00303973
6.90188e-05
-0.00591485
0.00292124
-2.80913e-05
-0.00557642
0.00283182
0.000332677
0.00558104
-0.00558454
0.00245293
0.000536515
0.00212214
0.000112969
-0.00634652
0.00282689
9.1985e-05
-0.00619044
0.00275758
-0.000228916
-0.00577641
0.00254291
0.000148384
-0.00568282
0.00237992
0.00047442
0.00548786
-0.00551855
0.00214839
0.000400707
0.00181524
7.30664e-05
-0.00644351
0.00262216
0.000107036
-0.00599821
0.00236918
-0.000269097
-0.00609128
0.00219981
-8.48033e-05
-0.0056048
0.00203296
0.000363707
-0.00570207
0.00194309
0.000504625
0.00562457
-0.00557101
0.00173111
0.000499076
0.00144002
0.000232748
-0.00689342
0.00240567
3.9724e-05
-0.00579596
0.00233933
-0.000153243
-0.00576999
0.001993
-0.000425289
-0.0058436
0.00179238
0.000190051
-0.00545625
0.00171268
0.000532952
-0.0056833
0.00149198
0.000790723
0.00531941
-0.00528677
0.0014769
0.000634448
0.00113462
0.00011887
-0.00711713
0.00194598
9.85182e-05
-0.00578125
0.00209513
-0.000128478
-0.00502424
0.00189693
-0.000475086
-0.00547416
0.00165505
-3.00118e-05
-0.00573962
0.00150097
0.000411903
-0.00574701
0.00131325
0.000630825
-0.0059959
0.00121112
0.000751535
0.00562472
-0.00575226
0.0010215
0.000700878
0.000947462
-0.000121626
-0.00624847
0.00137584
5.70385e-05
-0.00585287
0.00139375
-0.000163865
-0.00519734
0.00142584
-0.000259305
-0.00486824
0.00134488
-0.000121167
-0.00539417
0.00109173
0.000175644
-0.00622179
0.000936765
0.00063547
-0.00632201
0.000941112
0.000665163
-0.00615355
0.000997272
0.000570453
0.00587757
-0.00583459
0.000900444
0.00042656
0.000523218
-0.000507831
-0.00539886
0.00106474
-0.000262365
-0.00549754
0.000895772
-0.000202213
-0.0051174
0.000938217
-0.000323222
-0.00483863
0.000956587
-0.000325426
-0.00521353
0.000840703
-8.07903e-05
-0.00543046
0.000730874
0.000348265
-0.00589865
0.000639865
0.000555104
-0.00597504
0.000539124
0.000664506
-0.00617376
0.000554136
0.000197317
0.00521512
-0.0052724
0.000480492
-0.000105786
0.000325671
-0.000696401
-0.00410538
0.000301773
-0.000311379
-0.00395907
0.000315331
-5.97036e-05
-0.00442915
0.000312464
-0.000358278
-0.00407701
0.000448941
-0.000410769
-0.00426253
0.000352997
-0.000339117
-0.00544932
0.000411185
0.000200739
-0.00607013
0.000407659
0.000489724
-0.00605238
0.000184099
0.000565129
-0.00630861
0.000208539
4.62401e-06
-0.00507449
0.000333055
6.55733e-05
0.00464567
-0.0046777
3.19275e-05
-0.00010711
-9.27871e-05
-0.000480616
-0.00209067
0.000233705
-0.000290517
-0.00276208
-5.96724e-05
-6.64861e-05
-0.00324826
-3.55835e-05
-0.000261467
-0.00293024
4.64115e-05
-0.000352041
-0.00359496
0.000136174
-0.000382377
-0.00468783
0.000130664
0.00011716
-0.00504326
-9.95677e-07
0.000540766
-0.00528562
-0.00015194
0.000754256
-0.00589542
-0.000159155
0.000199994
-0.00424249
0.000111227
-0.000172717
-0.00434271
8.00667e-05
0.000417932
0.00534118
-0.00530484
-8.14147e-05
0.000362209
-0.000336081
-0.000348048
-0.00169552
-0.000151435
-0.000283959
-0.00240868
-0.000183091
-0.000126203
-0.00238261
-0.000247532
-0.000129457
-0.00191659
-0.000275423
-0.000216925
-0.00232213
-0.000310925
-0.000211431
-0.00402067
-0.000154352
-3.38101e-05
-0.00509424
-2.4958e-05
0.00030094
-0.00491432
-0.000237207
0.000467213
-0.00481842
-0.000382385
0.000321864
-0.00432342
-0.000327716
-2.42362e-05
-0.00420919
-0.000226737
0.000296723
-0.0046049
-0.000279172
0.000140926
0.00418262
-0.00420491
-0.000246176
0.000160779
-0.000181487
-0.000210892
-0.00141575
-0.000162882
-0.000130539
-0.00175604
-0.000179961
-0.000120299
-0.00179288
-0.000141393
-7.89265e-05
-0.00209117
-0.000143951
-7.53678e-05
-0.00198805
-0.000201691
-8.27133e-05
-0.00298722
-0.000178367
-3.61194e-05
-0.00369782
-0.000177957
6.7213e-05
-0.00390834
-0.000199241
0.00015207
-0.00426379
-0.000207749
0.000189102
-0.00477053
-0.000236339
0.00012919
-0.00484241
-0.000205732
0.000225015
-0.00424627
-0.000199993
0.000168742
-0.00388699
-0.000204066
-2.16283e-05
0.0041374
-0.00409469
-0.000150272
5.9927e-05
-7.10944e-05
-9.4988e-05
-0.000536477
-7.64078e-05
-7.20929e-05
-0.000949882
-6.83633e-05
-5.18838e-05
-0.00156304
-5.75607e-05
-3.91532e-05
-0.00202261
-6.16327e-05
-6.23956e-05
-0.00170721
-7.36649e-05
-7.04831e-05
-0.00205681
-7.86962e-05
-4.86645e-05
-0.00234557
-7.66467e-05
2.23352e-06
-0.00223256
-7.58699e-05
8.4586e-05
-0.00310021
-7.58848e-05
0.000104962
-0.00370679
-7.67792e-05
0.000127506
-0.00350077
-7.83324e-05
0.0001287
-0.0032987
-7.79751e-05
0.000135073
-0.00321949
-8.20968e-05
4.83181e-05
-0.00308012
-7.70714e-05
9.6095e-05
0.00287456
-0.00297798
-6.34089e-05
0.000297167
0.00487106
-0.00481814
0.00388757
0.000403585
0.00360623
0.000155353
-0.00497513
0.00403551
0.00026752
0.00482607
-0.00480775
0.00364116
0.000401192
0.00315739
0.000120663
-0.00530424
0.0035583
0.000317383
-0.00515644
0.00361091
0.000474674
0.00512741
-0.00502998
0.00318785
0.000482182
0.00274579
6.73068e-05
-0.00552276
0.00322724
0.000122711
-0.00558741
0.00330357
0.000190789
-0.00549756
0.00305205
0.000409137
0.00549912
-0.00554145
0.00275084
0.000528236
0.00246369
7.08221e-05
-0.00583872
0.00304994
0.000379274
-0.00612751
0.0029651