/*--------------------------------*- C++ -*----------------------------------*\
  =========                 |
  \\      /  F ield         | OpenFOAM: The Open Source CFD Toolbox
   \\    /   O peration     | Website:  https://openfoam.org
    \\  /    A nd           | Version:  7
     \\/     M anipulation  |
\*---------------------------------------------------------------------------*/
FoamFile
{
    version     2.0;
    format      ascii;
    class       surfaceScalarField;
    location    "7";
    object      phi_0;
}
// * * * * * * * * * * * * * * * * * * * * * * * * * * * * * * * * * * * * * //

dimensions      [0 3 -1 0 0 0 0];

internalField   nonuniform List<scalar> 
54006
(
-9.04845e-06
0.00163673
-0.00162105
-7.48035e-05
1.33994e-05
0.00292981
-0.00292441
-0.000204034
-8.71536e-06
-7.54501e-05
-9.65196e-06
-0.00160357
-8.18746e-05
-8.28791e-06
0.00140821
-0.00140957
-6.51516e-05
7.58453e-05
0.0041419
-0.0041354
-0.00021966
9.02085e-06
-0.000211772
2.37314e-05
-0.00291891
-0.000225825
-5.97767e-05
0.00261313
-0.00258281
-0.00018287
2.66448e-07
-6.52589e-05
-2.28568e-05
-0.00157263
-8.09431e-05
1.07652e-05
-0.00143066
-7.15482e-05
1.27275e-05
0.00173485
-0.001757
-5.57217e-05
0.000131027
0.00502817
-0.00489312
-5.59142e-05
9.25855e-05
-0.000244608
-5.03539e-06
-0.00399209
-0.000225974
1.88421e-05
0.00353214
-0.00357325
-0.000257172
-3.02038e-05
-0.000187924
-1.26258e-05
-0.00289206
-0.000209962
3.05123e-06
-0.00259548
-0.000205439
-7.10434e-05
0.0025364
-0.00248886
-0.000146636
1.79515e-05
-5.54848e-05
-3.85801e-05
-0.00152612
-7.99706e-05
-1.94179e-05
-0.00142145
-7.07382e-05
1.00979e-05
-0.00177758
-6.1072e-05
2.38991e-05
0.00218293
-0.00220548
-5.7063e-05
0.000208817
0.0053203
-0.00527087
0.000311613
0.000216052
-9.02005e-05
3.06821e-05
-0.00469125
-1.42426e-05
4.59959e-05
0.00445456
-0.00437248
-0.000165149
3.34812e-05
-0.000269565
-5.73253e-05
-0.00385369
-0.000197007
2.59841e-06
-0.00349699
-0.000301776
-8.72253e-05
0.00295433
-0.00291994
-0.000275372
-6.08315e-05
-0.000148557
-6.21328e-05
-0.00282575
-0.000204922
-7.5718e-05
-0.00255423
-0.000194911
-6.06264e-05
-0.00246861
-0.000154967
-3.62528e-05
0.00277447
-0.00272503
-0.00013592
3.04884e-05
-5.70673e-05
-6.75858e-05
-0.00145082
-7.90175e-05
-1.3417e-05
-0.00141745
-7.05496e-05
1.44928e-05
-0.00180282
-5.99875e-05
2.3648e-05
-0.00222742
-6.27852e-05
3.1707e-06
0.00220179
-0.00219436
-6.76628e-05
0.00019851
0.00617356
-0.00606933
0.000860985
0.000275133
0.000340919
0.000241461
-0.00540846
0.000236905
4.28675e-05
0.00505651
-0.00504057
0.0002988
2.22762e-05
-0.000121761
-6.39286e-05
-0.00442498
-3.59474e-05
7.60426e-05
-0.0042309
-0.000229266
-0.00012772
0.00372415
-0.00361925
-0.000229553
-6.56078e-05
-0.000275817
-0.000127638
-0.00369928
-0.000171999
-1.2594e-06
-0.00351743
-0.000251033
-5.03224e-05
-0.00289944
-0.000332587
-7.47931e-05
0.00284993
-0.00276575
-0.000321016
-4.04158e-05
-0.000135984
-0.000150748
-0.00270092
-0.00018883
-6.11122e-05
-0.00251908
-0.000192378
-7.15901e-05
-0.00242504
-0.000152404
-3.48801e-05
-0.00267307
-0.000148399
1.53542e-05
0.0025054
-0.00245695
-0.000196558
1.02015e-05
-6.79547e-05
-4.29435e-05
-0.00139954
-7.85597e-05
-3.51301e-05
-0.00139147
-6.98729e-05
3.72294e-06
-0.00181768
-5.94138e-05
1.46573e-05
-0.0022397
-6.2359e-05
-4.85142e-06
-0.00217764
-7.46496e-05
6.82972e-06
0.00241855
-0.00241754
-7.54993e-05
7.00044e-05
0.00607322
-0.0059508
0.00137415
0.000405802
0.000885969
0.000403639
-0.00610071
0.000903029
1.0812e-05
0.00612611
-0.00614179
0.000908724
9.91169e-06
0.000334225
-5.23951e-05
-0.00522908
0.000347879
0.000132428
-0.00514068
0.000280634
-0.000228848
0.00487078
-0.00469689
0.000226048
-0.000106245
-0.000169655
-0.000139413
-0.00408724
-6.70089e-05
0.000134685
-0.00415423
-0.00024856
-0.00011348
-0.00342151
-0.000363852
-3.40785e-05
0.00305108
-0.00304785
-0.000273495
-9.16575e-05
-0.000302135
-0.000185619
-0.00356968
-0.000147014
3.36404e-05
-0.00354422
-0.00023996
-0.000110765
-0.00280431
-0.000306982
-9.62651e-05
-0.00266946
-0.000367489
-2.13396e-05
0.00271195
-0.00265474
-0.000341539
2.82578e-05
-0.00018459
-9.70248e-05
-0.00259902
-0.000190297
-0.000107054
-0.00245318
-0.000182801
-9.61765e-05
-0.00236774
-0.000149774
-4.22317e-05
-0.00261859
-0.000149993
5.42938e-05
-0.00244283
-0.000221666
8.62177e-05
0.00245415
-0.00249331
-0.000236793
1.74975e-05
-7.56032e-05
-5.34291e-05
-0.00133765
-7.71105e-05
-3.95137e-05
-0.00136091
-6.96045e-05
-1.21311e-05
-0.00181663
-5.8792e-05
6.35689e-06
-0.00224352
-6.19538e-05
-1.31063e-05
-0.00215253
-7.43622e-05
-7.54549e-07
-0.0024094
-8.20359e-05
2.69836e-05
0.00235564
-0.0023821
-7.60235e-05
3.15532e-05
0.00599776
-0.00596386
0.00172137
0.000348125
0.00138094
0.000184495
-0.00580988
0.00156674
-0.00018745
0.00632864
-0.00615806
0.00140183
0.000115952
0.000917768
-2.8875e-05
-0.00598785
0.000968968
4.59078e-05
-0.00613025
0.000978008
-0.000278367
0.00576102
-0.00557525
0.000772475
-0.000180568
0.000269914
-9.05831e-05
-0.00517911
0.000332596
0.000194208
-0.00511959
0.000267267
-0.000298184
-0.0044713
0.000239739
-0.0001119
0.00483238
-0.0046398
0.000111284
-8.50014e-05
-0.000199004
-0.000221661
-0.00389724
4.62065e-05
0.000194005
-0.00402213
-0.000359468
-0.000125574
-0.00328128
-0.000373979
-8.52574e-05
-0.00301861
-0.000404102
-1.69474e-05
0.00368241
-0.00362804
-0.000332259
-4.14168e-05
-0.000328843
-0.000240822
-0.00334924
-0.000101184
-0.000132071
-0.0034437
-0.000222513
-0.000114494
-0.00272415
-0.000301802
-9.26663e-05
-0.0025617
-0.000364314
0.000101763
-0.00267517
-0.000394524
0.000211163
0.00325461
-0.00341569
-0.000305403
0.000126184
-0.000230951
-0.000117891
-0.00248931
-0.000184165
-0.00011787
-0.00238849
-0.000176632
-0.000125819
-0.00228859
-0.000148259
-4.06675e-05
-0.00257114
-0.000150202
3.65747e-05
-0.00241915
-0.000223354
0.000141143
-0.00260077
-0.000256097
8.1371e-05
0.00326085
-0.00330584
-0.000246186
3.83598e-05
-7.73934e-05
-6.75804e-05
-0.00126152
-7.6145e-05
-4.29454e-05
-0.00132602
-6.90531e-05
-2.28242e-05
-0.00180459
-5.88206e-05
1.50111e-06
-0.00224211
-6.17048e-05
-2.40682e-05
-0.00211622
-7.42015e-05
-9.43439e-06
-0.00239297
-8.1358e-05
1.63195e-05
-0.0023981
-8.2357e-05
7.31861e-05
0.00193749
-0.00200864
-7.80583e-05
-0.000110449
0.00637379
-0.00624065
0.00194284
3.05293e-05
0.00177842
-0.000125062
-0.00575922
0.00196222
-0.000300265
0.00630003
-0.00618715
0.00172131
4.3171e-05
0.00140788
-0.000141408
-0.00575566
0.0015225
-0.000179935
-0.00596325
0.00159777
-0.000334099
0.00609532
-0.00597252
0.00133476
-0.000162993
0.000884524
-5.10394e-05
-0.00591516
0.00104914
4.31669e-05
-0.0060477
0.00103746
-0.00045891
-0.00530405
0.000867531
-0.000143572
0.00550652
-0.00536454
0.000662161
-4.57417e-05
0.000160049
-0.000394766
-0.004866
0.000394692
0.000111433
-0.00497282
0.000268399
-0.000146792
-0.00446846
0.000285651
-9.91353e-05
-0.00443801
5.18354e-05
2.87494e-05
0.00510962
-0.00504754
3.50939e-06
-5.93884e-05
-0.000293688
-0.000274913
-0.00360875
1.65149e-05
-5.72534e-05
-0.00386473
-0.000186018
-8.39825e-05
-0.0032425
-0.000428761
-0.000220733
-0.00289833
-0.00036619
9.34938e-05
-0.00367206
-0.000351816
0.000391058
0.00476656
-0.00493998
-0.000338736
0.000280614
-0.000324195
-0.000278809
-0.00313437
-8.71722e-05
-5.02995e-05
-0.00339685
-0.000215604
-0.000164059
-0.00263336
-0.000275064
-9.52567e-05
-0.00246425
-0.000344655
8.21798e-05
-0.00268556
-0.000399534
0.00021532
-0.00357175
-0.000312642
0.000256797
0.00346107
-0.00370415
-0.000237757
0.000162925
-0.000254716
-0.00015336
-0.00236391
-0.000182113
-0.000116814
-0.00233283
-0.000165957
-0.000147636
-0.00219376
-0.000146659
-5.16719e-05
-0.00251511
-0.000151115
3.15146e-05
-0.00240427
-0.000220666
0.000120004
-0.00270647
-0.000247094
0.000100372
-0.00338706
-0.000258929
0.000118725
0.00353008
-0.00355029
-0.000271517
9.32608e-05
-7.9344e-05
-8.27182e-05
-0.00116948
-7.60146e-05
-4.55389e-05
-0.00128757
-6.90559e-05
-4.68693e-05
-0.00176872
-5.8056e-05
-7.9239e-06
-0.00223132
-6.16812e-05
-2.72336e-05
-0.00207658
-7.41066e-05
-1.79715e-05
-0.00236863
-8.05706e-05
1.23722e-05
-0.00241113
-8.06965e-05
6.94746e-05
-0.00207582
-8.46473e-05
0.000129748
0.002335
-0.00246272
-8.00849e-05
-3.0961e-05
0.00615151
-0.00624065
0.00216425
-0.000117602
0.00194076
-0.000225625
-0.00611443
0.00211865
-0.000217831
0.00634153
-0.00636363
0.00188251
-0.000181434
0.00178275
-0.00014815
-0.00583543
0.0019783
-0.000141374
-0.00617861
0.00191513
-0.000308192
0.00624342
-0.00620492
0.0016569
-0.000241763
0.00133408
-0.000168932
-0.0056504
0.00148168
-0.000213702
-0.00576876
0.00158488
-0.000479578
-0.00588589
0.00153182
8.62502e-06
0.0062788
-0.00621031
0.00111406
4.09957e-05
0.000730287
-0.000391232
-0.00578317
0.00108317
0.000121755
-0.00595708
0.000948189
-0.000279978
-0.00512266
0.000989256
-0.00026155
-0.00506846
0.000733871
3.95334e-05
0.00553131
-0.00545331
0.000573377
6.18257e-05
-2.9351e-05
-0.00039899
-0.0046285
0.000412263
7.55471e-05
-0.00497496
0.000264032
-0.000203139
-0.00435425
0.000273346
-0.000197508
-0.00425822
8.26306e-05
9.27392e-05
-0.00493837
-5.65797e-05
0.000324571
0.00577996
-0.00555298
-0.000156989
0.000423158
-0.000314797
-0.000350486
-0.00325304
5.92184e-05
5.82488e-05
-0.00369084
-0.000265923
-0.000109627
-0.00315021
-0.000332745
-0.000247725
-0.00285583
-0.000318792
3.77934e-05
-0.00374054
-0.00025332
0.000315331
-0.00504225
-0.000349553
0.000601013
0.00408767
-0.00459518
-0.000175447
0.000273446
-0.000282255
-0.00034178
-0.00289829
-6.69093e-05
-9.90543e-05
-0.00330837
-0.000193414
-0.000167788
-0.00256437
-0.00026444
-9.05803e-05
-0.00236856
-0.000331855
0.000101963
-0.00271615
-0.000384509
0.000154989
-0.00371573
-0.00029053
0.000358424
-0.00405904
-0.000215797
0.000287123
0.00377316
-0.00394606
-0.000233251
0.000115244
-0.000287072
-0.000207996
-0.00219455
-0.000169598
-0.000111064
-0.00227923
-0.000170193
-0.000181561
-0.0020867
-0.000138326
-7.80953e-05
-0.00243895
-0.000152653
-6.26544e-07
-0.00236646
-0.000215527
8.98096e-05
-0.00280259
-0.000232332
0.000106069
-0.003481
-0.000246858
0.000117609
-0.0035768
-0.00028055
0.000202348
0.00356449
-0.00366731
-0.000241292
0.000139924
-8.09117e-05
-8.59747e-05
-0.0010744
-7.57439e-05
-4.92712e-05
-0.00124493
-6.93897e-05
-4.17167e-05
-0.00173741
-5.86417e-05
-1.90173e-05
-0.00220907
-6.12896e-05
-3.30635e-05
-0.00203126
-7.39419e-05
-2.51361e-05
-0.00233703
-8.05654e-05
1.39853e-05
-0.00242685
-7.88397e-05
5.46286e-05
-0.00212926
-8.18906e-05
0.000129682
-0.00259184
-8.52024e-05
0.000171909
0.00287442
-0.00304695
-7.94607e-05
6.05347e-05
0.00579464
-0.00580872
0.00233064
-4.74761e-05
0.00219508
-0.00017275
-0.00625503
0.00238478
-0.000176037
0.00608475
-0.00608483
0.00212253
-7.6758e-05
0.00187867
-0.00027182
-0.00596443
0.00219037
-0.000123837
-0.00632739
0.00206487
-0.000170468
0.00613561
-0.00608708
0.00169626
-0.000229282
0.00162846
-0.00026462
-0.00586556
0.00198643
-0.00034242
-0.0059945
0.0019229
-0.000331644
-0.00621962
0.0017819
0.000106004
0.00603847
-0.00598775
0.0015088
0.000153416
0.00114914
-0.000279643
-0.00568351
0.00138536
-3.62828e-05
-0.00566603
0.001537
-0.000471933
-0.00559053
0.00148147
-0.000297838
-0.00595139
0.00130919
0.000162607
0.0059604
-0.00598551
0.0010161
0.000162655
0.00048729
-0.00038067
-0.0056778
0.00104156
0.000186912
-0.00595873
0.000973465
-0.000242712
-0.00499106
0.000856168
-0.000173988
-0.00487811
0.000775381
1.62632e-05
-0.00528577
0.000642809
0.000272035
0.00582354
-0.00567407
0.000476443
0.000400981
-0.000170852
-0.000533926
-0.00437069
0.000452471
3.80121e-05
-0.00480022
0.000257754
-0.000167792
-0.00431308
0.000281024
-0.000168129
-0.00431078
0.000246305
8.44635e-06
-0.00484929
2.2896e-05
0.000249132
-0.00549124
-5.21205e-05
0.000700467
0.00577001
-0.00588801
-0.000138439
0.000442965
-0.000115493
-0.000435915
-0.00303995
7.28878e-05
1.30715e-05
-0.00350846
-0.000235282
-0.000118025
-0.00311424
-0.000351652
-0.000212788
-0.00277767
-0.00028869
-0.000162458
-0.003646
-0.00014891
0.000170692
-0.00503466
-0.000276614
0.000668935
-0.0048633
-0.000391945
0.000511019
0.00410505
-0.00450053
-3.86165e-06
9.34528e-05
-0.000235987
-0.000429648
-0.00257961
-3.42408e-05
-0.00012478
-0.00317927
-0.000182297
-0.00010538
-0.00258848
-0.000245485
-0.000131415
-0.00226126
-0.000318415
4.17837e-05
-0.00272829
-0.000362123
8.47004e-05
-0.00383984
-0.000255291
0.000318111
-0.00440299
-0.000158628
0.000325478
-0.00410773
-0.000262004
0.000164338
0.00415475
-0.00411137
-0.000238619
0.00017701
-0.000278062
-0.000192885
-0.00205186
-0.000158347
-0.000128203
-0.00219619
-0.000173701
-0.000151235
-0.00200915
-0.000138223
-0.000112568
-0.00233226
-0.000151457
-4.10284e-05
-0.00230123
-0.000209917
4.7109e-05
-0.00287343
-0.000216926
0.000125117
-0.00359512
-0.000229341
0.000126077
-0.00363344
-0.000261668
0.000254884
-0.00382299
-0.000250074
0.000285651
0.00435913
-0.00449241
-0.000221755
0.000162811
-8.20551e-05
-9.65975e-05
-0.000968618
-7.5328e-05
-5.81748e-05
-0.00119308
-6.94175e-05
-3.72681e-05
-0.00171151
-5.80239e-05
-1.99911e-05
-0.00218602
-6.17049e-05
-4.13632e-05
-0.00197725
-7.39353e-05
-3.20407e-05
-0.00229857
-8.03646e-05
8.9497e-06
-0.00243835
-7.80183e-05
4.22073e-05
-0.00217125
-7.906e-05
0.000121789
-0.00271286
-8.26598e-05
0.000172849
-0.00322027
-8.47314e-05
0.000156109
0.00278034
-0.00293901
-7.69068e-05
0.000181923
0.00559849
-0.00560718
0.00262341
9.32792e-05
0.00241266
-0.000174121
-0.00580239
0.00271419
-0.000141749
0.00587492
-0.00587033
0.00229176
0.000174668
0.00206945
-0.000337665
-0.00619141
0.00244164
-0.000119542
-0.00599887
0.00229453
-3.35522e-06
0.00606447
-0.00610427
0.00199522
-4.61534e-05
0.00170487
-0.000341149
-0.00600098
0.00227999
-0.000431665
-0.00613552
0.00208775
-0.000218795
-0.00603198
0.00189692
0.000168372
0.00600406
-0.00598262
0.00161245
0.000317924
0.00146056
-0.000240652
-0.00605074
0.0020622
-0.000128475
-0.00581719
0.00190132
-0.000468698
-0.00610143
0.00180147
-0.000155807
-0.00603878
0.00169089
0.000150871
0.00592441
-0.00575951
0.00135563
0.000200965
0.00101558
-0.000352098
-0.00561849
0.00136229
0.000138329
-0.00565574
0.00142366
-0.000378964
-0.00542822
0.00151094
-0.000354586
-0.00555317
0.00126385
0.000249533
-0.00601812
0.00110853
0.000352991
0.00612193
-0.0061235
0.000936713
0.000330047
0.000456476
-0.000612966
-0.00545994
0.00101473
0.00013897
-0.00592638
0.000908255
-0.000111939
-0.0049998
0.000926346
-0.000161284
-0.00482128
0.0007925
-0.000125094
-0.00509919
0.000722344
0.000119733
-0.00542131
0.000519457
0.000551825
0.00623293
-0.00612264
0.000514793
0.00064902
-6.28807e-05
-0.000627641
-0.00415491
0.000494548
-6.92377e-06
-0.00460318
0.000275426
-0.000103422
-0.00436928
0.000299351
-0.000198577
-0.00427582
0.000231853
-0.000278266
-0.00468051
0.000193329
8.20582e-05
-0.00552542
0.000145717
0.000709591
-0.00596958
-1.12063e-05
0.000562347
0.00596623
-0.00626824
0.000112244
0.00022073
3.4568e-05
-0.00053158
-0.00281798
0.000142667
-8.58665e-05
-0.00334779
-0.000126701
-2.39325e-05
-0.00310647
-0.000324503
-0.000284493
-0.00275251
-0.000223736
-0.000136014
-0.00364863
-0.00010826
4.28039e-05
-0.00502759
-0.000114085
0.000565441
-0.00500283
-0.000384415
0.000552603
-0.00488802
-0.000231583
0.000257003
0.00444358
-0.00470117
0.000161058
-3.33568e-06
-0.00021277
-0.00038749
-0.00232761
-0.000100659
-0.000235533
-0.00292714
-0.000179034
-0.000145752
-0.002543
-0.00023326
-0.000160375
-0.00216905
-0.000289892
-3.12271e-05
-0.00270081
-0.000355695
-1.937e-05
-0.00388048
-0.000255008
0.000261567
-0.00467087
-0.000123859
0.00052342
-0.00443042
-0.000233276
0.000426715
-0.00425932
-0.000285884
0.000203026
0.00435467
-0.00429716
-0.0002135
0.000223609
-0.00024626
-0.000214503
-0.0018956
-0.000146603
-0.000147184
-0.0020926
-0.000172928
-0.000127761
-0.00195161
-0.000140748
-9.92456e-05
-0.00223888
-0.00015235
-5.39589e-05
-0.00223349
-0.000206607
2.17042e-05
-0.00293181
-0.000205286
5.86751e-05
-0.00364759
-0.000214182
0.000113105
-0.00369431
-0.00023937
0.000239953
-0.00395356
-0.000249266
0.000261021
-0.00459153
-0.000239124
0.000182119
0.00476179
-0.00480199
-0.000207565
0.000165559
-8.07046e-05
-9.79665e-05
-0.000862446
-7.52866e-05
-6.34508e-05
-0.00113592
-6.90391e-05
-3.54734e-05
-0.00168715
-5.83067e-05
-2.52393e-05
-0.00215771
-6.10917e-05
-3.88873e-05
-0.00192662
-7.34501e-05
-4.2667e-05
-0.00224994
-7.9896e-05
-3.05014e-06
-0.00243834
-7.7323e-05
3.0275e-05
-0.00220484
-7.46939e-05
0.000115273
-0.00282496
-8.22341e-05
0.000139262
-0.0033603
-8.18962e-05
0.000155003
-0.00309526
-8.34802e-05
0.00014648
0.00269927
-0.00284888
-7.37725e-05
0.000263319
0.0053429
-0.00540742
0.00295502
0.000315941
0.00260494
2.97001e-05
-0.00567405
0.00290522
8.10259e-05
0.00553969
-0.00574175
0.0026027
0.000313107
0.00230526
-9.44171e-05
-0.00602405
0.00275323
-5.46372e-05
-0.00585687
0.00263583
3.10698e-05
0.00584578
-0.00585486
0.00226641
0.000124658
0.00194895
-0.000226209
-0.00628581
0.00248174
-0.000344593
-0.00596471
0.00232041
-0.000113603
-0.00610486
0.00218993
0.000231142
0.00572549
-0.00566654
0.00187349
0.000428073
0.00164557
-4.89676e-05
-0.00626616
0.00227971
-0.000257657
-0.00590892
0.00218257
-0.000370204
-0.00594486
0.00190213
-0.000121378
-0.00594805
0.00182792
0.000241624
0.00576435
-0.00572919
0.00148654
8.40112e-05
0.00137501
-0.000110048
-0.0063528
0.00201349
-0.00020361
-0.00551875
0.0021057
-0.000641704
-0.00572855
0.00179119
-0.000287492
-0.00597355
0.00166915
0.000357491
-0.00574932
0.00157275
0.000439416
0.00585742
-0.00578019
0.00119197
0.000376452
0.000963495
-0.000390997
-0.00571318
0.00138928
3.96114e-05
-0.00562555
0.00143146
-0.00018474
-0.00532987
0.00139811
-0.00039947
-0.00518233
0.00137829
-0.00012048
-0.00585863
0.00109975
0.000254759
-0.0061476
0.000997613
0.000624178
0.00627825
-0.00638866
0.000974767
0.000540674
0.000520107
-0.000583606
-0.0053689
0.00103182
-5.01094e-05
-0.00579461
0.00092614
7.68876e-05
-0.00518581
0.000913961
-0.000181033
-0.00473079
0.000818309
-0.000157089
-0.00512651
0.000698638
0.000123313
-0.00536798
0.000627752
0.000567536
-0.00596176
0.000500639
0.000417486
0.00623369
-0.00611805
0.000544015
0.000425178
0.000187801
-0.000670727
-0.00412516
0.000504985
-0.000170383
-0.00430606
0.000281943
-0.00014895
-0.00436983
0.000400998
-0.000406915
-0.00416028
0.000306235
-0.000248414
-0.00460521
0.000268956
-3.57894e-05
-0.00545299
0.000199493
0.000571992
-0.00599167
0.000161256
0.000611096
-0.00642474
8.68004e-05
0.000492292
0.00582642
-0.00622215
0.000272687
1.88235e-07
-5.36749e-05
-0.00055287
-0.00257924
7.03299e-05
-0.000227395
-0.00310708
-0.000106182
-7.24115e-05
-0.00313459
-0.000171921
-0.000163998
-0.00289006
-0.000183335
-0.000230596
-0.00363948
-3.35229e-05
-0.000167884
-0.00496235
-2.49901e-05
0.000409242
-0.00498702
-0.000277568
0.000741841
-0.00512015
-0.000370706
0.000540528
-0.00504217
-4.39937e-06
0.000149439
0.00424299
-0.00414436
0.000116022
7.92092e-06
-0.000210006
-0.000386014
-0.00210365
-8.85116e-05
-0.000213786
-0.00277926
-0.000181939
-0.000103478
-0.00250571
-0.000240612
-0.000116475
-0.00210358
-0.000281497
-7.74204e-05
-0.00262515
-0.000342097
-8.29947e-05
-0.00393178
-0.000199696
0.00011924
-0.00484408
-0.000142357
0.00045566
-0.00466139
-0.000235448
0.000555283
-0.00449239
-0.000315539
0.000101261
-0.00417105
-0.000252233
0.000116013
0.00456259
-0.00445429
-0.000255695
0.000217427
-0.000206024
-0.000225172
-0.00172871
-0.000150835
-0.000159068
-0.00197289
-0.000170701
-0.000126963
-0.00189231
-0.000140734
-6.9963e-05
-0.00219063
-0.000144276
-4.51856e-05
-0.00216953
-0.000210009
-1.90495e-05
-0.00296746
-0.000194572
2.31717e-05
-0.00367628
-0.000202812
0.000122007
-0.00377608
-0.000224146
0.000229871
-0.00408366
-0.000223872
0.000183372
-0.00463575
-0.000249156
0.000154088
-0.00482542
-0.000214781
0.000241186
0.00395001
-0.00405393
-0.000198355
0.000154269
-7.64321e-05
-9.85421e-05
-0.000755458
-7.57121e-05
-6.82386e-05
-0.00107418
-6.87788e-05
-4.90657e-05
-0.00164941
-5.77141e-05
-3.55126e-05
-0.002119
-6.15084e-05
-6.24126e-05
-0.00185205
-7.32473e-05
-4.93427e-05
-0.00219419
-7.98615e-05
-1.8732e-05
-0.00242269
-7.6815e-05
1.77677e-05
-0.00222298
-7.69559e-05
0.000111527
-0.00293248
-7.87035e-05
0.000126179
-0.00348672
-8.1994e-05
0.000144838
-0.00324195
-8.00476e-05
0.000163275
-0.00301892
-7.67154e-05
0.000152802
0.00279011
-0.00294101
-7.56728e-05
0.000324864
0.0050582
-0.0052175
0.0032758
0.000445399
0.00289518
0.000220832
-0.00552626
0.00326829
0.000235582
0.00521954
-0.00533758
0.0029185
0.000369286
0.00257048
9.67315e-05
-0.00577183
0.00298493
-3.35395e-05
-0.00574743
0.00288981
0.000272498
0.0054587
-0.00560813
0.0025107
0.000209043
0.00215608
-2.27968e-05
-0.00628752
0.00284437
-0.000168167
-0.00590408
0.00262401
-4.8641e-05
-0.00580482
0.00252083
0.000277879
0.00566514
-0.00562376
0.0021783
0.000508639
0.00188842
0.000100102
-0.00642172
0.00254195
-0.000283652
-0.00582478
0.0023678
-0.000284016
-0.00605771
0.00218707
-4.21674e-05
-0.00565081
0.00209499
0.000416697
0.00564852
-0.00571266
0.00176256
0.000267388
0.00152928
6.03696e-05
-0.00655009
0.00239936
-0.000249671
-0.0057648
0.00218165
-0.000484458
-0.00585789
0.00193836
-0.00018509
-0.00597798
0.00182965
0.000223817
-0.00545799
0.00169039
0.000530808
0.00583196
-0.00584632
0.00140951
0.000473536
0.00120787
5.94341e-05
-0.00683755
0.00196731
-6.1025e-05
-0.00549611
0.00209148
-0.000266159
-0.00539711
0.00185568
-0.00043425
-0.0058205
0.00167291
7.98028e-05
-0.00577489
0.00149444
0.000493791
-0.00579062
0.00134415
0.000890428
0.0058554
-0.00603659
0.00110691
0.000521089
0.000986193
-0.000156933
-0.0059788
0.00142894
-3.89689e-05
-0.00565982
0.00141241
3.44298e-05
-0.00527294
0.00141698
-0.000347567
-0.0049192
0.00130151
-0.000163236
-0.00556803
0.00109383
0.000273573
-0.00620145
0.00100334
0.00054249
-0.00633168
0.000965685
0.000539322
0.00586312
-0.00598444
0.000974258
0.000494987
0.000513662
-0.000591585
-0.00532999
0.00107232
-0.00016123
-0.00569524
0.000923306
-6.54951e-05
-0.00529091
0.000947784
-0.000285176
-0.00483711
0.000898549
-0.000172175
-0.00518155
0.000797112
-1.26937e-06
-0.00529654
0.00059268
0.000585308
-0.00591298
0.000565654
0.000535453
-0.00605689
0.000515113
0.000534256
0.006064
-0.0060621
0.00050016
0.000317527
0.000253418
-0.000690101
-0.00407251
0.000353864
-0.000241937
-0.0040954
0.000308866
-1.73198e-05
-0.00442947
0.000286484
-0.000316963
-0.00404394
0.000437629
-0.000415961
-0.00445919
0.000345575
-0.000278875
-0.00543275
0.000359705
0.000411674
-0.00605351
0.000258899
0.000602508
-0.00625597
0.000131819
0.00059711
-0.00638869
0.00019676
0.000120426
0.00507034
-0.00487341
0.000104769
-0.000191316
-0.000104805
-0.000580685
-0.00226276
5.26234e-05
-0.000215986
-0.00295951
-7.50337e-05
-5.38295e-05
-0.00315255
-0.000137872
-0.000222964
-0.00290164
-5.38477e-05
-0.000311985
-0.00360752
1.92704e-05
-0.000286768
-0.00481407
2.19764e-05
0.000232557
-0.0050151
-0.000110222
0.000604533
-0.0052066
-0.000339985
0.000711344
-0.00549609
-7.28367e-05
-6.00102e-05
-0.00401966
3.21694e-05
-3.82486e-05
0.00475752
-0.00449539
8.1549e-06
0.000187196
-0.000264776
-0.000365467
-0.00191434
-9.49498e-05
-0.000219918
-0.00262642
-0.000180503
-0.0001236
-0.00244966
-0.000241346
-0.000110233
-0.00201475
-0.000289167
-0.000156076
-0.00246994
-0.000325813
-0.000154164
-0.00399895
-0.000139812
6.59817e-05
-0.00499451
-9.2077e-05
0.000411474
-0.00485764
-0.00023557
0.000553651
-0.00469022
-0.000361389
0.000155421
-0.0041819
-0.000276743
1.83181e-05
-0.004305
-0.000265754
0.00035405
0.00452862
-0.00459232
-0.000304865
0.000274637
-0.000203417
-0.000209362
-0.00157433
-0.000163066
-0.000167297
-0.00185179
-0.00017287
-0.00013316
-0.00183886
-0.000140063
-7.51e-05
-0.00214224
-0.000149538
-0.000100836
-0.00207669
-0.000198696
-5.01677e-05
-0.00299149
-0.000185156
-7.08072e-06
-0.0036896
-0.000192909
0.000100145
-0.00384676
-0.000214506
0.000197842
-0.00417889
-0.000215227
0.000214444
-0.0047147
-0.000233189
0.00011723
-0.00483534
-0.000211622
0.00026555
-0.00416062
-0.000210366
0.00017211
0.00383322
-0.00387224
-0.000178651
0.000155894
-7.60922e-05
-9.93815e-05
-0.000647477
-7.60676e-05
-6.14299e-05
-0.00101987
-6.85931e-05
-4.86832e-05
-0.00161146
-5.80413e-05
-4.07223e-05
-0.00207437
-6.16209e-05
-4.80323e-05
-0.0017918
-7.37184e-05
-5.47953e-05
-0.00213311
-7.95281e-05
-3.03466e-05
-0.00239537
-7.68341e-05
5.66249e-06
-0.00222987
-7.55842e-05
8.10642e-05
-0.00301111
-7.93925e-05
0.000109971
-0.00359584
-7.95504e-05
0.000135721
-0.00337955
-8.01182e-05
0.000152296
-0.00317481
-7.64545e-05
0.000154049
-0.00309158
-8.01867e-05
5.0592e-05
0.00298681
-0.00304231
-7.07685e-05
0.000308493
0.00510846
-0.00509487
0.00363137
0.000394448
0.00321732
0.000301303
-0.00532747
0.00356919
0.000295475
0.00488205
-0.00496757
0.00330144
0.000368755
0.00284485
0.000172846
-0.0056141
0.00325536
0.000175028
-0.00548157
0.00320372
0.000459463
0.00538137
-0.00543315
0.00278331
0.000281523
0.00249095
9.44206e-05
-0.00585426
0.00303805
5.84526e-05
-0.00590843
0.00291931
-2.30492e-05
-0.00557359
0.00282967
0.00033548
0.00558205
-0.0055839
0.00245495
0.000542955
0.00212325
0.000110723
-0.00634537
0.00282746
8.05823e-05
-0.00617872
0.00275478
-0.000230585
-0.00577408
0.00253984
0.000155991
-0.0056824
0.00238131
0.000473728
0.00548708
-0.00551409
0.00214828
0.000401923
0.00181826
7.06133e-05
-0.00644066
0.00261944
9.3709e-05
-0.00598993
0.00236372
-0.000276589
-0.00609633
0.00219855
-7.83501e-05
-0.0056026
0.00203212
0.000367236
-0.0057056
0.00194452
0.000506505
0.00562565
-0.00557211
0.00173332
0.000500267
0.00144138
0.000227964
-0.00687621
0.00240871
2.87426e-05
-0.00578431
0.0023291
-0.000154276
-0.00577809
0.00198996
-0.000417136
-0.00584848
0.00179175
0.00019531
-0.00545654
0.00171269
0.00053421
-0.00568827
0.00149193
0.00078691
0.00531895
-0.00528464
0.00147871
0.000634525
0.00113539
0.000121917
-0.00710635
0.0019514
9.16126e-05
-0.00575537
0.00209599
-0.000134934
-0.00502823
0.00189197
-0.000473947
-0.00549314
0.00165469
-2.21813e-05
-0.00574438
0.00150134
0.000414267
-0.00575044
0.00131356
0.000636887
-0.00599936
0.00121251
0.000749178
0.00562187
-0.00574667
0.00102185
0.000704668
0.000947191
-0.000120556
-0.00624116
0.00137887
4.88185e-05
-0.005835
0.00139408
-0.000156655
-0.00519668
0.00142731
-0.000257584
-0.00487228
0.00134247
-0.000115593
-0.00541341
0.00109032
0.00017972
-0.00622612
0.000937502
0.000638915
-0.00632645
0.000944506
0.000660641
-0.00614899
0.00100504
0.000565123
0.00587807
-0.00583634
0.000901661
0.000418688
0.000525288
-0.000508979
-0.00539274
0.00106426
-0.000252387
-0.00550933
0.000896853
-0.000212353
-0.00511335
0.000940777
-0.000321878
-0.00484099
0.000956571
-0.000321814
-0.00521571
0.000838559
-7.8003e-05
-0.00542556
0.000725259
0.000357929
-0.00590521
0.000638658
0.000551878
-0.00597974
0.000539138
0.000664328
-0.00617471
0.000560501
0.000187818
0.00521419
-0.00525951
0.000478092
-0.000111734
0.000328119
-0.000696565
-0.00410355
0.000307174
-0.000305245
-0.00396722
0.000314948
-5.91486e-05
-0.00442911
0.00031383
-0.000355361
-0.00407206
0.000446999
-0.000415027
-0.00426884
0.000350322
-0.000334393
-0.00545286
0.000413308
0.000211655
-0.00607497
0.000402069
0.000493239
-0.00606895
0.000183171
0.00056595
-0.00632542
0.000213943
-8.68656e-06
-0.00506163
0.00033365
6.98696e-05
0.00465076
-0.00467404
1.99294e-05
-9.80668e-05
-9.0778e-05
-0.000485689
-0.00210559
0.000233582
-0.000285391
-0.00278078
-6.06383e-05
-6.42139e-05
-0.00324544
-4.15289e-05
-0.000261396
-0.00292982
4.14685e-05
-0.000346651
-0.00360233
0.000131537
-0.000376514
-0.00469555
0.000123095
0.0001228
-0.00504385
-6.09993e-06
0.000545022
-0.00528538
-0.00016499
0.000752294
-0.00588075
-0.000153973
0.000182031
-0.00423331
0.000114205
-0.000172083
-0.00436067
8.78484e-05
0.000423168
0.00534977
-0.00531732
-9.34147e-05
0.000364864
-0.000338877
-0.000349977
-0.00171129
-0.0001492
-0.000283537
-0.00242241
-0.000182721
-0.000125746
-0.00239066
-0.000246915
-0.00012856
-0.0019265
-0.000276141
-0.000212176
-0.00233623
-0.000311537
-0.000208237
-0.0040154
-0.000151292
-2.74013e-05
-0.00508793
-2.60756e-05
0.00030609
-0.00491898
-0.000236685
0.000472131
-0.00481896
-0.000381121
0.000306443
-0.00431174
-0.000323539
-2.62663e-05
-0.00421075
-0.000227496
0.000301836
-0.0046113
-0.000283055
0.000139955
0.0041838
-0.00420769
-0.000248822
0.000161307
-0.000181002
-0.000211071
-0.00142793
-0.000162626
-0.000131424
-0.0017653
-0.000179561
-0.000120754
-0.00179885
-0.000140803
-7.85119e-05
-0.00210062
-0.000143895
-7.53317e-05
-0.00199729
-0.000201639
-7.99899e-05
-0.00298584
-0.00017915
-3.37691e-05
-0.00369232
-0.000179007
6.77101e-05
-0.00390053
-0.000201191
0.000155308
-0.00425948
-0.000208162
0.000190304
-0.00477444
-0.000235822
0.000124838
-0.0048524
-0.000205251
0.000227788
-0.00424725
-0.000200485
0.000168675
-0.0038941
-0.000203134
-2.19294e-05
0.00414115
-0.00409735
-0.00014993
6.08016e-05
-7.07963e-05
-9.52002e-05
-0.000543997
-7.63469e-05
-7.18761e-05
-0.000955676
-6.83896e-05
-5.21054e-05
-0.00157039
-5.75558e-05
-3.97189e-05
-0.00203124
-6.14543e-05
-6.10925e-05
-0.00171874
-7.35891e-05
-6.92426e-05
-0.00205884
-7.87496e-05
-4.75117e-05
-0.00235083
-7.65588e-05
2.49585e-06
-0.00223343
-7.5776e-05
8.25811e-05
-0.00309319
-7.60864e-05
0.000102671
-0.00370104
-7.68694e-05
0.000126766
-0.00350698
-7.88782e-05
0.000130497
-0.00330796
-7.74685e-05
0.000136734
-0.00322316
-8.16104e-05
4.74568e-05
-0.00309307
-7.68826e-05
9.44726e-05
0.00287891
-0.0029806
-6.3553e-05
0.000296944
0.00487289
-0.00481884
0.00388659
0.000402267
0.00360458
0.000159834
-0.0049763
0.00403408
0.000271214
0.00482324
-0.0048071
0.00363949
0.000405525
0.00315536
0.000122993
-0.00530585
0.00355973
0.000318444
-0.00515271
0.00361092
0.00047572
0.00512863
-0.0050303
0.00318685
0.000484852
0.00274516
7.12272e-05
-0.00552483
0.00322663
0.000115208
-0.00558632
0.00330335
0.000194155
-0.00549596
0.00304933
0.000409677
0.00549724
-0.00554013
0.002752
0.000532706
0.00246579
6.94965e-05
-0.00583916
0.00304946
0.000376031
-0.00612863
0.00296281
-4.88615e-05
-0.0057316
0.00289559