/*--------------------------------*- C++ -*----------------------------------*\
  =========                 |
  \\      /  F ield         | OpenFOAM: The Open Source CFD Toolbox
   \\    /   O peration     | Website:  https://openfoam.org
    \\  /    A nd           | Version:  7
     \\/     M anipulation  |
\*---------------------------------------------------------------------------*/
FoamFile
{
    version     2.0;
    format      ascii;
    class       volVectorField;
    location    "7";
    object      U_0;
}
// * * * * * * * * * * * * * * * * * * * * * * * * * * * * * * * * * * * * * //

dimensions      [0 1 -1 0 0 0 0];

internalField   nonuniform List<vector> 
18720
(
(-0.208432 0.804949 -1.72532)
(0.0725797 1.5064 -1.54741)
(-0.223631 0.805415 -1.73974)
(-0.22407 0.807155 -1.70646)
(0.0827675 0.71218 -1.68699)
(-0.0741817 2.10294 -0.733402)
(-0.070289 1.48502 -1.59848)
(0.283711 1.46568 -1.49195)
(-0.382058 1.31959 -1.51153)
(0.0938978 0.721385 -1.68793)
(-0.239716 0.81448 -1.6827)
(0.0717757 0.704897 -1.68644)
(0.259266 0.887386 -1.31622)
(0.403054 2.51757 0.133191)
(-0.169065 2.07186 -0.939117)
(-0.0102094 2.0555 -0.612116)
(-0.177166 1.79501 -1.2444)
(-0.367036 1.27586 -1.56969)
(0.223347 1.4469 -1.41491)
(0.203462 1.29564 -1.59585)
(-0.200048 1.25157 -1.25947)
(0.256823 0.89526 -1.31063)
(-0.244961 0.822235 -1.65829)
(0.0437852 0.710225 -1.68104)
(0.272463 0.879791 -1.31699)
(0.343436 1.11465 -1.24863)
(-0.0126471 2.61774 0.708868)
(0.310484 2.57579 -0.240466)
(0.142441 2.42292 0.393737)
(0.177958 2.17268 -0.518279)
(-0.129166 1.77297 -1.25459)
(-0.00874223 1.98293 -0.547909)
(-0.100634 1.73175 -1.22848)
(-0.496685 1.50914 -1.08366)
(-0.241441 1.27647 -1.26352)
(0.0930814 1.46981 -1.35621)
(-0.20399 1.3221 -1.47182)
(-0.128218 1.24062 -1.23914)
(-0.100357 1.36105 -0.972492)
(0.375701 1.12375 -1.23601)
(-0.255177 0.814582 -1.63819)
(0.0366729 0.70768 -1.68407)
(0.358054 0.844211 -1.3119)
(0.370735 1.11302 -1.24182)
(-0.00831031 1.08848 -1.37165)
(0.558188 3.04662 1.63795)
(0.127501 2.65413 0.689736)
(0.133939 2.72797 0.446207)
(-0.144879 2.49856 0.794646)
(-0.0528933 2.2655 -0.365468)
(0.161082 2.24314 0.366055)
(0.26103 2.16173 -0.493182)
(-0.0885702 1.82384 -0.533602)
(-0.524711 1.40799 -1.17395)
(-0.0380233 1.9252 -0.480826)
(-0.0406072 1.79598 -1.06236)
(-0.249939 1.41173 -1.27152)
(-0.319251 1.38505 -1.4083)
(-0.189254 1.40058 -0.995766)
(-0.313505 1.49709 -1.24236)
(0.0833278 1.28044 -1.46475)
(0.0027007 1.24569 -1.2272)
(0.0121352 1.36264 -0.901022)
(0.0120988 1.23579 -1.12418)
(0.00540648 1.10222 -1.37207)
(-0.236249 0.79684 -1.62718)
(0.0157308 0.719563 -1.68034)
(0.332709 0.831878 -1.30761)
(0.427815 1.07465 -1.22695)
(-0.040587 1.08356 -1.378)
(-0.219849 1.1812 -1.76104)
(-0.187692 2.96357 2.31049)
(0.289223 3.11892 1.70365)
(0.821449 3.02191 1.53034)
(0.139078 3.04247 1.81919)
(-0.288664 2.49602 0.95685)
(0.0484233 2.60918 1.09826)
(0.171322 2.56047 0.584473)
(-0.575 2.32862 0.740121)
(-0.134241 1.86931 -0.401305)
(0.0854923 2.14936 0.434954)
(0.447718 2.13657 -0.603017)
(0.101321 1.74578 -0.841816)
(-0.188851 1.51651 -0.924397)
(-0.434552 1.40853 -1.32091)
(-0.0883565 1.9137 -0.28472)
(-0.0552563 1.83005 -0.9377)
(-0.296934 1.50525 -1.02993)
(-0.224041 1.37514 -1.45667)
(0.0373235 1.32962 -1.55083)
(-0.0299644 1.25793 -1.0824)
(0.292594 1.31265 -1.31637)
(-0.15837 1.32822 -1.36853)
(-0.0207043 1.23754 -1.21026)
(-0.0622825 1.33277 -0.88176)
(0.0821835 1.21662 -1.1875)
(0.451303 1.25057 -1.87124)
(-0.19694 1.17478 -1.74882)
(-0.242801 0.823123 -1.59383)
(-0.000302202 0.704141 -1.68006)
(0.280312 0.864334 -1.28851)
(0.407532 1.07183 -1.20951)
(-0.00761912 1.08651 -1.38534)
(-0.356279 1.19639 -1.75354)
(0.139465 1.16791 -1.66932)
(0.176586 2.95225 2.56629)
(0.323934 3.06806 2.30453)
(0.404348 2.90272 2.26742)
(-0.301914 3.13132 2.35761)
(-0.171488 3.0389 1.84525)
(0.354889 2.95897 1.88509)
(0.443121 3.05704 1.75345)
(-0.346105 2.74731 1.88756)
(-0.696948 2.41011 0.757445)
(0.134055 2.67437 0.996559)
(0.545597 2.52841 0.440388)
(-0.408617 2.30153 0.722733)
(-0.06753 2.3626 0.376006)
(-0.340413 1.49001 -0.667784)
(0.0858426 2.08612 0.573199)
(0.876678 1.78083 -0.86436)
(0.0419193 1.76211 -0.838057)
(-0.179758 1.52167 -1.26213)
(-0.257759 1.79473 -0.835792)
(0.022586 1.3702 -1.45472)
(-0.195221 1.86557 0.0433386)
(0.0510094 1.77625 -0.931933)
(-0.303297 1.42173 -1.06387)
(-0.0117428 1.31155 -1.49536)
(0.438967 1.31074 -1.62548)
(0.168639 1.66822 -1.55652)
(0.4599 1.25741 -1.72606)
(0.246893 1.29745 -1.25861)
(-0.0777328 1.28781 -1.33622)
(-0.0839558 1.20192 -1.18679)
(-0.00886653 1.31201 -0.86812)
(0.0682619 1.21155 -1.2405)
(0.691952 1.23367 -1.87879)
(0.295093 1.638 -1.71352)
(0.159306 1.17945 -1.68215)
(-0.288211 0.824267 -1.56759)
(-0.0356638 0.718334 -1.67164)
(0.266268 0.851232 -1.28961)
(0.444379 1.04972 -1.20333)
(-0.00590242 1.07222 -1.3974)
(-0.311369 1.22375 -1.74453)
(0.106339 1.17287 -1.65688)
(0.783456 1.03823 -1.83499)
(-0.294089 3.08305 2.51931)
(-0.0741616 3.00095 2.58255)
(0.185307 2.88243 2.58738)
(-0.352673 3.11916 2.52817)
(-0.0330163 3.11606 2.3858)
(0.136749 2.88502 2.25487)
(-0.141026 2.99343 2.53648)
(-0.580147 2.93379 2.46739)
(-0.389902 2.84143 1.87361)
(0.537633 2.91688 2.14884)
(0.611988 2.97934 1.6425)
(-0.353724 2.78607 1.88104)
(-0.446332 2.70617 1.30559)
(-0.37356 2.38353 0.563734)
(0.0735791 2.54851 1.27917)
(0.555211 2.42346 0.486203)
(-0.113182 2.26024 0.788395)
(-0.00589408 2.24071 0.372675)
(0.0727883 2.53385 0.173207)
(-0.560365 1.80013 -0.601353)
(0.0947074 1.89804 0.732926)
(0.156145 2.05965 -0.314668)
(0.187505 1.46161 -1.24234)
(-0.215489 1.49095 -1.31214)
(0.153173 1.81014 -1.11675)
(0.876918 2.40608 -1.32797)
(0.348788 1.57595 -1.52939)
(-0.148214 1.78511 -0.00369873)
(0.053822 1.7539 -0.879773)
(-0.317649 1.45251 -0.936181)
(0.11865 1.24572 -1.42862)
(0.493518 1.29585 -1.58258)
(0.452102 1.71631 -1.63525)
(0.324906 1.81271 -1.16248)
(0.302713 1.63374 -1.75549)
(0.160332 1.27803 -1.22964)
(0.0533258 1.2573 -1.31797)
(-0.112712 1.20472 -1.13985)
(0.0210066 1.31197 -0.878499)
(0.0390568 1.21303 -1.2639)
(0.678597 1.26179 -1.85364)
(0.296052 1.65724 -1.65011)
(0.265762 1.76657 -2.08983)
(0.839093 1.05759 -1.87332)
(-0.277592 0.834848 -1.5461)
(-0.0161883 0.722963 -1.67436)
(0.177889 0.883881 -1.28007)
(0.387287 1.0415 -1.21566)
(0.0190693 1.05048 -1.40477)
(-0.261069 1.23429 -1.7392)
(0.0921566 1.17688 -1.65159)
(0.723387 1.01864 -1.7931)
(1.14652 1.24786 -1.81004)
(-0.102022 3.05163 2.45339)
(-0.415213 3.13425 2.48539)
(-0.236144 3.06772 2.55849)
(-0.435931 3.0617 2.49111)
(-0.443538 3.0372 2.65429)
(0.127357 2.84501 2.68273)
(-0.0586433 3.0377 2.63078)
(-0.408501 3.01866 2.51969)
(-0.565501 2.9948 2.43368)
(0.258491 2.78651 2.24257)
(0.0689873 2.92413 2.4406)
(-0.58101 2.97904 2.45992)
(-0.129249 3.12908 2.06117)
(-0.206585 2.64152 1.77976)
(-0.012424 2.97707 2.36063)
(0.683514 2.85557 1.70229)
(0.127214 2.5253 2.21662)
(-0.129919 2.57652 1.39747)
(-0.131087 2.70249 1.34109)
(-0.0588555 2.53341 0.242256)
(0.0445983 2.43126 1.36312)
(0.665885 2.40603 0.488814)
(0.0944522 2.18272 0.73243)
(-0.257624 2.14634 0.552008)
(0.365161 2.47176 -0.15423)
(0.642699 2.76082 -0.148352)
(0.832984 2.38876 -1.31751)
(0.00121857 1.80779 0.782198)
(0.784908 1.72187 -0.647829)
(0.188265 1.65606 -0.79803)
(-0.206723 1.47496 -1.23393)
(0.194686 1.83717 -0.889339)
(0.754836 2.46975 -0.95495)
(0.963203 2.18807 -0.823138)
(0.845617 1.59937 -1.35589)
(-0.166329 1.81277 0.141085)
(0.112094 1.78012 -0.72064)
(-0.295838 1.4468 -0.950587)
(0.16714 1.19181 -1.34367)
(0.66901 1.24177 -1.50083)
(0.504321 1.77534 -1.72734)
(0.657229 1.89521 -0.88909)
(0.687009 1.90781 -1.04898)
(0.414357 1.76798 -2.16244)
(-0.0422481 1.29376 -1.06655)
(0.103677 1.22431 -1.32958)
(-0.266702 1.26646 -1.0199)
(0.119471 1.27683 -0.907607)
(0.11418 1.19147 -1.27733)
(0.656898 1.28203 -1.79331)
(0.477252 1.66574 -1.56848)
(0.352647 1.76672 -1.99225)
(0.916196 1.81018 -2.02968)
(1.21508 1.25641 -1.81301)
(-0.297421 0.822537 -1.5414)
(-0.0140371 0.707037 -1.70164)
(0.212324 0.857297 -1.28885)
(0.331838 1.06042 -1.20431)
(0.0503294 1.0501 -1.40444)
(-0.201709 1.24037 -1.74044)
(0.135666 1.19194 -1.64116)
(0.682956 1.00149 -1.73523)
(1.123 1.24274 -1.80042)
(1.28302 1.53444 -1.83331)
(-0.122005 2.82916 2.53182)
(-0.364028 2.95421 2.51523)
(0.0557987 3.07164 2.48767)
(-0.159532 2.9418 2.50499)
(-0.475608 3.07926 2.49396)
(0.175897 2.95926 2.64684)
(0.010205 3.15929 2.4232)
(-0.389924 2.9825 2.36738)
(-0.581544 3.0745 2.58666)
(0.312196 2.88769 2.68763)
(0.0584809 2.96986 2.62893)
(-0.263935 3.07008 2.50797)
(-0.0207815 2.88441 2.37953)
(-0.201029 3.07734 2.08649)
(0.321216 2.80945 2.17643)
(0.563342 2.72574 2.35498)
(-0.273174 2.88676 2.53023)
(-0.360334 2.92381 2.30336)
(0.081563 2.92336 1.77953)
(-0.202855 2.77955 1.15127)
(0.320324 2.89293 2.27059)
(0.824445 2.87339 1.63402)
(0.0531869 2.58285 1.81207)
(0.133928 2.4224 1.54209)
(0.0866335 2.63206 1.27996)
(0.226779 2.80875 1.00486)
(0.485994 2.96096 -0.375824)
(0.0494736 2.40339 1.48469)
(0.660593 2.371 0.487189)
(0.248926 2.14054 0.705374)
(-0.12688 2.1493 0.557289)
(0.393058 2.34707 -0.185718)
(0.656105 2.67497 -0.0882996)
(1.36907 2.90244 -0.673937)
(0.292753 1.94294 -0.663705)
(-0.0589538 1.88665 0.77287)
(0.695503 1.68482 -0.446862)
(0.312254 1.56691 -0.975921)
(-0.0686796 1.45609 -1.15073)
(0.308119 1.80853 -0.705216)
(0.68885 2.41428 -0.579637)
(1.26881 2.31279 -1.0655)
(0.721791 2.15228 -0.350158)
(0.237927 1.90508 -1.25228)
(-0.318804 1.66743 0.384352)
(0.261812 1.69317 -0.689858)
(-0.221924 1.45273 -0.940468)
(-0.00112269 1.20384 -1.24234)
(0.488735 1.26741 -1.48799)
(0.506252 1.7993 -1.69061)
(0.756712 2.02548 -0.634206)
(0.732475 1.94627 -0.945598)
(0.604068 2.04538 -1.10418)
(0.790774 1.80216 -2.1753)
(0.0247801 1.25578 -0.932137)
(0.14822 1.20192 -1.33306)
(-0.0966298 1.16225 -1.08162)
(0.177853 1.18885 -0.913257)
(0.123829 1.18042 -1.28248)
(0.638626 1.30154 -1.71319)
(0.693615 1.67073 -1.43556)
(0.342378 1.76121 -1.91502)
(0.932029 1.82539 -1.87085)
(1.5713 2.23528 -1.65843)
(1.27461 1.51305 -1.86385)
(-0.301426 0.8307 -1.53083)
(-0.0144097 0.710208 -1.70458)
(0.254911 0.828126 -1.29191)
(0.414098 0.990062 -1.22651)
(0.0651018 1.04387 -1.41168)
(-0.164954 1.24684 -1.74702)
(0.227758 1.16398 -1.65217)
(0.626676 0.987108 -1.67765)
(1.20713 1.20861 -1.74556)
(1.39341 1.56763 -1.71249)
(1.53018 1.47976 -1.81592)
(0.0426423 2.73983 2.51355)
(-0.2282 2.80098 2.53408)
(-0.118694 2.83578 2.53173)
(-0.301539 2.95254 2.28951)
(-0.216863 2.98734 2.47935)
(-0.0531364 3.0511 2.54055)
(-0.0270596 2.9609 2.50905)
(-0.11155 2.93685 2.37078)
(-0.418998 2.97326 2.34755)
(0.140188 2.92092 2.642)
(-0.135 3.12867 2.49334)
(-0.14886 2.97907 2.40092)
(0.0658986 2.92425 2.01835)
(0.0207468 3.06261 2.19088)
(0.391545 2.90714 2.6344)
(0.286504 3.01753 2.62045)
(-0.174421 3.04349 2.53335)
(-0.0857863 2.94284 2.28146)
(0.112589 2.90912 2.06353)
(0.137928 2.91294 1.82379)
(0.365559 2.84425 2.13402)
(0.979842 2.66763 2.14388)
(0.219248 2.6549 2.46634)
(-0.0545679 2.95149 2.11764)
(0.131964 2.95974 1.77971)
(0.348309 2.99251 1.68929)
(0.295952 2.90636 0.801023)
(0.201292 2.88096 2.27316)
(1.04377 2.76819 1.57771)
(0.283963 2.32743 1.98491)
(0.382708 2.37487 1.43483)
(0.11434 2.53595 1.30371)
(0.224388 2.77778 1.10654)
(0.80587 3.0603 0.896663)
(1.10615 2.90366 -0.507647)
(0.0254031 2.34659 1.57696)
(0.804226 2.20813 0.578586)
(0.344292 2.15859 0.675367)
(0.107972 2.20071 0.6221)
(-0.230339 2.4164 0.547953)
(0.496293 2.68842 0.291865)
(1.40437 2.86722 -0.174003)
(1.25691 3.05578 -0.0243897)
(-0.120826 1.90773 -0.116333)
(-0.373654 1.69742 0.95342)
(0.558698 1.61852 -0.334084)
(0.710064 1.2795 -0.99057)
(0.0565454 1.41261 -1.07536)
(0.40027 1.73857 -0.61302)
(0.618363 2.42508 -0.140428)
(1.27792 2.32107 -1.02114)
(0.996981 2.31759 -1.2904)
(0.113637 2.28196 0.336584)
(0.264978 2.12532 -0.913825)
(-0.16061 1.55314 -0.182986)
(0.198157 1.60677 -0.660921)
(-0.0369938 1.4335 -0.886359)
(-0.229115 1.24393 -1.09577)
(0.317849 1.31644 -1.49277)
(0.421062 1.87689 -1.52366)
(0.953568 2.1171 -0.393304)
(1.1051 2.01428 -0.73144)
(1.11747 1.99089 -1.26427)
(0.651871 2.12819 -1.00767)
(1.06051 2.24165 -2.04736)
(-0.0822737 1.27916 -0.796647)
(0.0884937 1.19762 -1.3238)
(0.0548691 1.08614 -1.13413)
(0.170113 1.16338 -0.860166)
(0.107558 1.17895 -1.28398)
(0.659978 1.30256 -1.63899)
(0.676391 1.69656 -1.31378)
(0.409123 1.77192 -1.81552)
(0.891001 1.84122 -1.71274)
(1.40889 2.19264 -1.60939)
(0.779987 2.37243 -1.69172)
(1.49035 1.49498 -1.89083)
(-0.299877 0.816447 -1.54158)
(-0.0182879 0.69895 -1.7117)
(0.330568 0.772556 -1.30147)
(0.42141 1.00368 -1.20197)
(0.0354531 1.01949 -1.41546)
(-0.128398 1.23908 -1.75177)
(0.271614 1.17379 -1.64911)
(0.533007 0.994269 -1.64223)
(1.27628 1.20418 -1.70554)
(1.40515 1.5195 -1.68835)
(1.44517 1.47676 -1.82775)
(1.31518 1.41836 -1.73)
(0.0551465 2.59907 2.49852)
(-0.129383 2.70993 2.50021)
(0.0594392 2.70982 2.55561)
(-0.0856654 2.76055 2.41573)
(0.00797237 2.77657 2.46236)
(0.118292 2.86259 2.68632)
(0.0339957 2.78167 2.54089)
(-0.065006 2.82093 2.41175)
(-0.20369 2.962 2.27388)
(0.259208 3.03359 2.59348)
(0.0213218 2.95779 2.56972)
(-0.0258245 2.98371 2.26899)
(0.074026 2.76575 2.22311)
(0.0864959 2.96312 2.04378)
(0.522492 2.97921 2.70081)
(0.463072 2.87219 2.73606)
(-0.128605 2.95896 2.43003)
(-0.0155523 2.86957 2.07214)
(0.0217223 2.81857 2.15034)
(-0.200385 2.90902 2.08858)
(0.601544 2.94303 2.57776)
(0.550009 2.6533 2.90872)
(-0.142564 3.02142 2.53884)
(-0.122393 2.98925 2.32744)
(0.601503 2.71129 2.22908)
(0.316748 2.87488 1.92028)
(0.0743794 2.98197 1.64028)
(0.227742 2.83738 2.27128)
(0.971309 2.6089 2.12871)
(0.590589 2.60161 2.31001)
(0.0183261 2.6121 2.28205)
(0.0983035 2.96578 1.79575)
(0.264503 3.03365 1.66128)
(0.493607 3.10202 1.4872)
(0.532316 3.13218 1.02516)
(0.215654 2.86254 2.29123)
(1.02321 2.71549 1.51663)
(0.758338 2.50796 1.79209)
(0.335777 2.31777 1.52962)
(0.199369 2.48355 1.4931)
(0.237561 2.565 1.36788)
(0.954952 2.89898 0.796664)
(0.438368 3.01509 1.18615)
(0.638657 2.89686 0.194346)
(-0.0130916 2.19826 1.56825)
(0.723056 2.06728 0.714508)
(0.444 2.13027 0.663093)
(-0.0860793 2.24278 0.727207)
(0.0325357 2.37187 0.420971)
(0.400855 2.65571 0.364759)
(1.36439 2.79278 0.355559)
(1.28937 3.09465 0.113678)
(0.818315 2.98866 0.60996)
(-0.724627 2.08261 0.354338)
(-0.163819 1.71566 0.557459)
(0.183993 1.70295 -0.0952567)
(0.56148 1.52224 -0.459628)
(0.316086 1.37006 -0.917756)
(0.439164 1.76571 -0.302418)
(0.47658 2.41073 0.00671836)
(1.10123 2.29743 -0.507064)
(1.93599 2.28794 -1.29993)
(1.09785 2.35495 -0.0620751)
(0.262042 2.1279 0.737129)
(0.393094 2.22755 -0.963012)
(-0.107579 1.46139 -0.132244)
(0.237797 1.53096 -0.652926)
(0.101047 1.38285 -0.895715)
(0.0233235 1.17434 -1.05427)
(0.393333 1.27431 -1.41138)
(0.426642 1.8944 -1.47254)
(0.725332 2.24893 -0.568407)
(1.21384 2.08499 -0.675389)
(1.35211 2.03231 -1.25123)
(0.696429 2.05291 -1.03734)
(0.609436 2.23794 -0.95313)
(0.755735 2.39265 -1.66691)
(-0.0527833 1.2123 -0.853069)
(0.090474 1.19185 -1.30264)
(0.0878412 1.08603 -1.14383)
(0.23702 1.13061 -0.849096)
(0.331334 1.0191 -1.36849)
(0.614942 1.34249 -1.58716)
(0.601893 1.71928 -1.23737)
(0.557089 1.7739 -1.73923)
(0.947967 1.85382 -1.52769)
(1.01871 2.17909 -1.75267)
(0.903727 2.34079 -1.67628)
(0.935225 1.98985 -1.48282)
(1.23448 1.41955 -1.81085)
(-0.295582 0.795914 -1.57212)
(-0.0188753 0.713903 -1.7127)
(0.275461 0.806228 -1.28498)
(0.357048 1.01023 -1.21276)
(0.0150275 1.02322 -1.42435)
(-0.0458048 1.1977 -1.76296)
(0.210091 1.20311 -1.64124)
(0.455078 1.00872 -1.62984)
(1.40139 1.1889 -1.57763)
(1.30851 1.51312 -1.71883)
(1.46046 1.48603 -1.75142)
(1.36733 1.40831 -1.66994)
(1.3598 1.47427 -1.65025)
(0.129292 2.47227 2.52309)
(0.0996607 2.59505 2.45215)
(0.154189 2.62511 2.57045)
(0.0451877 2.51939 2.56622)
(-0.0337156 2.67592 2.39955)
(0.313975 2.77047 2.6376)
(0.0754687 2.75634 2.42777)
(-0.0592793 2.69 2.44442)
(-0.106127 2.89862 2.26187)
(0.402912 2.99752 2.68497)
(0.0280281 2.88336 2.49476)
(0.0477623 2.82196 2.42169)
(0.145853 2.71292 2.29561)
(0.179695 2.79339 2.18009)
(0.792129 3.03513 2.70734)
(0.0477151 2.85865 2.65306)
(0.0929659 2.96541 2.30126)
(0.000197487 2.74293 2.30829)
(0.272052 2.77021 2.06718)
(-0.145961 2.79266 2.16597)
(0.975738 2.97138 2.82157)
(0.353226 2.84451 2.71221)
(-0.0989769 2.90671 2.45483)
(0.160232 2.92957 2.07104)
(0.229563 2.71109 2.21355)
(0.389503 2.85364 1.67127)
(0.285827 2.89083 1.93574)
(1.1009 3.13907 2.50246)
(0.67964 2.57363 2.85126)
(0.225773 2.78265 2.77367)
(0.036085 2.92203 2.32288)
(0.226024 2.82793 2.13498)
(0.500837 2.74893 1.99351)
(0.803283 2.93565 1.57831)
(0.355001 3.07169 1.61113)
(0.705997 2.86111 2.41867)
(0.847776 2.6561 2.09096)
(0.969224 2.47617 2.32154)
(0.314445 2.43972 2.13618)
(0.245926 2.75468 2.0047)
(0.641259 2.90122 1.66719)
(0.615226 3.11415 1.41787)
(0.505942 2.85618 1.84975)
(0.25489 3.14668 1.07836)
(0.348744 2.76634 2.32429)
(0.864331 2.75776 1.58)
(0.788965 2.48456 1.88981)
(0.217989 2.39706 1.69211)
(0.33511 2.56028 1.50728)
(0.353748 2.59698 1.1115)
(0.94783 2.78895 0.965315)
(0.761742 2.90698 1.03373)
(0.660426 2.94231 1.01719)
(0.331815 2.76865 0.767961)
(0.0657912 2.49514 0.892814)
(0.751616 1.98255 0.780372)
(0.745633 2.09356 0.544839)
(0.278303 1.98628 1.20875)
(-0.116723 2.34563 0.680123)
(0.058613 2.7196 0.848464)
(1.30213 2.76644 0.530831)
(1.40571 2.94152 0.372813)
(1.13746 3.08038 0.297794)
(0.198367 2.36743 0.759569)
(-0.806624 1.92248 -0.679965)
(-0.0984924 1.74069 0.497914)
(0.385507 1.57384 -0.141403)
(0.765397 1.32301 -0.576724)
(0.456057 1.39082 -0.565661)
(0.295339 1.7942 -0.216786)
(0.434213 2.38951 0.125718)
(0.962089 2.29262 -0.142126)
(1.81012 2.25321 -1.19038)
(1.8434 2.39844 -0.888267)
(-0.150944 1.94097 0.0466594)
(-0.188351 2.22313 0.0191583)
(0.639347 2.35444 -0.95939)
(-0.194658 1.41586 -0.165195)
(0.269283 1.47783 -0.600676)
(0.204949 1.33185 -0.936157)
(0.290107 1.01685 -1.11482)
(0.291022 1.24759 -1.38872)
(0.409637 1.94163 -1.44723)
(0.82101 2.29096 -0.16365)
(1.41582 2.08075 -0.655413)
(1.52077 2.04364 -1.32771)
(0.815124 1.96452 -1.30972)
(0.401884 2.08627 -1.05788)
(0.927991 2.22772 -1.41103)
(0.97036 1.9954 -1.47298)
(-0.025076 1.1543 -0.937015)
(0.0843293 1.15169 -1.31484)
(0.0496672 1.09604 -1.14711)
(0.294898 1.09111 -0.842596)
(0.0907145 1.1588 -1.26952)
(0.559577 1.3678 -1.55341)
(0.654179 1.69768 -1.14789)
(0.673507 1.77189 -1.66636)
(0.980541 1.86477 -1.40491)
(1.23668 2.12761 -1.58946)
(1.02121 2.274 -1.69966)
(1.18042 1.96999 -1.30724)
(0.965089 1.91064 -1.58045)
(1.35052 1.45851 -1.68094)
(-0.287324 0.788635 -1.59811)
(-0.0164256 0.718028 -1.71433)
(0.285229 0.796427 -1.28504)
(0.383557 0.990599 -1.21098)
(0.0628033 1.02227 -1.44519)
(0.0288087 1.16762 -1.7694)
(0.195251 1.21458 -1.63285)
(0.435992 1.00945 -1.63202)
(1.17148 1.19759 -1.67762)
(1.32503 1.52241 -1.68592)
(1.45309 1.40222 -1.73251)
(1.41841 1.40314 -1.60719)
(1.46305 1.48234 -1.52268)
(0.732237 1.49353 -1.83077)
(0.100901 2.46955 2.63352)
(0.00288771 2.42697 2.50991)
(0.272941 2.56197 2.53339)
(0.106935 2.32179 2.63459)
(0.0598994 2.55273 2.48193)
(0.352265 2.69565 2.54716)
(0.0566788 2.6451 2.51914)
(0.291165 2.57128 2.4459)
(-0.0746274 2.63118 2.37875)
(0.522924 2.80239 2.6948)
(0.304971 2.77956 2.49446)
(0.0661259 2.6885 2.48644)
(0.0974279 2.69346 2.27994)
(0.158822 2.7892 2.17697)
(0.779085 2.98423 2.69041)
(0.450354 2.88091 2.67049)
(0.0523352 2.80914 2.45821)
(0.121089 2.73396 2.32378)
(0.257863 2.64926 2.20949)
(0.156182 2.72288 2.13475)
(0.947134 3.03215 2.80284)
(0.52634 2.86751 2.67159)
(0.235394 2.95765 2.30262)
(0.0941593 2.75143 2.27575)
(0.343205 2.7473 2.07873)
(0.441317 2.71251 1.98186)
(0.154042 2.88164 1.791)
(1.36258 3.05105 2.73943)
(0.804798 2.69732 2.90322)
(0.59639 2.81988 2.47335)
(0.0806329 2.93049 2.11408)
(0.457455 2.60551 2.21972)
(0.575686 2.76169 1.7328)
(0.845248 2.47532 1.98712)
(0.363062 2.89006 1.62202)
(1.60443 3.1113 2.51267)
(1.03782 2.60663 2.81073)
(0.602753 2.46002 2.79887)
(0.110683 2.82383 2.32582)
(0.336375 2.79396 2.16351)
(0.529993 2.76167 1.90686)
(0.757805 2.90012 1.5932)
(0.569292 2.78228 1.66266)
(0.528444 2.8806 1.74501)
(0.914105 2.98957 2.50102)
(1.10026 2.58425 2.08906)
(0.860287 2.35215 2.31538)
(0.488845 2.37673 2.21144)
(0.434945 2.64589 1.91595)
(0.577986 3.00639 1.47534)
(1.05613 2.95372 1.43949)
(0.740142 2.93936 1.58555)
(0.592665 2.86927 1.47717)
(0.226221 2.99846 0.986208)
(0.708725 2.71863 2.2719)
(0.858792 2.64767 1.72043)
(1.17312 2.24933 1.84566)
(0.349572 2.41887 1.74754)
(0.267142 2.59907 1.66045)
(0.283908 2.58468 1.48067)
(0.902112 2.78071 1.11767)
(0.994771 2.84707 1.10869)
(0.866383 2.93128 0.868801)
(0.0734297 2.55453 1.0485)
(-0.358803 2.45099 0.503883)
(0.0498567 2.35119 0.833647)
(0.732733 1.89432 0.781583)
(0.757317 2.06074 0.606883)
(0.180141 2.12485 0.813444)
(-0.0231836 2.30091 0.825108)
(-0.0129941 2.79917 0.940537)
(1.12419 2.79589 0.78934)
(1.37486 2.89287 0.624753)
(1.40638 3.00442 0.242633)
(0.0775297 2.40412 0.589284)
(-0.0994805 2.29814 -0.21807)
(-0.112703 2.3345 0.0229401)
(-0.107825 1.22286 1.254)
(0.434856 1.48642 -0.156234)
(0.760956 1.41388 -0.335118)
(0.323388 1.4509 -0.262008)
(0.182355 1.87296 0.217705)
(0.379643 2.39873 0.338956)
(0.928315 2.30731 0.0122734)
(1.69995 2.23306 -0.549361)
(2.01778 2.49859 -0.832523)
(0.271255 2.00859 0.47165)
(-0.228843 2.22557 0.139019)
(0.873464 2.68424 0.0291861)
(0.88661 2.3071 -1.47942)
(-0.0577291 1.30097 -0.547792)
(0.274482 1.38632 -0.62133)
(0.317568 1.2485 -0.982169)
(0.281683 0.978541 -1.08753)
(0.280507 1.22748 -1.41503)
(0.460971 1.96503 -1.3351)
(0.803574 2.36014 0.304348)
(1.41006 2.10715 -0.642404)
(1.53571 2.03812 -1.34955)
(1.11184 1.90278 -1.63631)
(0.279743 2.06731 -0.980385)
(0.93911 2.18874 -1.17001)
(0.274664 2.05483 -1.36331)
(0.770848 1.95032 -1.64075)
(-0.0148572 1.1059 -0.988291)
(0.271475 0.988334 -1.41454)
(0.170166 1.04459 -1.17654)
(0.304426 1.07191 -0.838274)
(0.39802 0.94183 -1.35987)
(0.527747 1.39775 -1.5119)
(0.702971 1.69788 -1.05372)
(0.695648 1.76742 -1.62921)
(1.01128 1.86364 -1.35431)
(1.23427 2.10552 -1.60151)
(1.1591 2.23225 -1.65832)
(1.19273 1.95208 -1.24829)
(0.811437 1.86656 -1.65076)
(-0.2254 1.99461 -1.08647)
(0.7567 1.53324 -1.80569)
(-0.286841 0.779156 -1.61725)
(-0.0191872 0.713636 -1.71575)
(0.293696 0.781507 -1.2887)
(0.467263 0.923246 -1.23165)
(0.0690648 0.994984 -1.46703)
(0.0176323 1.18264 -1.75432)
(0.172184 1.23922 -1.62488)
(0.405919 1.0145 -1.65442)
(1.22472 1.16594 -1.62405)
(1.40935 1.51626 -1.63376)
(1.4865 1.39124 -1.66964)
(1.34965 1.40445 -1.65448)
(1.37424 1.42517 -1.58481)
(0.765623 1.47918 -1.83016)
(0.72478 1.44022 -1.42535)
(0.0951833 2.29502 2.64578)
(0.0170838 2.46454 2.61065)
(0.218163 2.40766 2.65488)
(0.109902 2.30137 2.69466)
(-0.0330857 2.38999 2.54278)
(0.362676 2.55187 2.55389)
(0.326248 2.44593 2.58929)
(0.133829 2.39354 2.56829)
(-0.0200813 2.60842 2.37919)
(0.507067 2.66594 2.59222)
(0.307178 2.62526 2.56005)
(0.0808605 2.66196 2.46971)
(0.202106 2.62753 2.31297)
(0.155007 2.69865 2.27028)
(0.70527 2.73206 2.69435)
(0.632127 2.90975 2.53376)
(0.172602 2.69946 2.48087)
(0.256928 2.70889 2.33396)
(0.276016 2.61981 2.31408)
(0.0287785 2.65147 2.20016)
(0.99728 2.9896 2.69112)
(0.984229 2.93113 2.6427)
(0.305465 2.80696 2.56782)
(0.336741 2.72823 2.33159)
(0.368027 2.70055 2.13196)
(0.206129 2.59843 2.2042)
(0.248403 2.76278 2.0344)
(1.266 2.8831 2.87561)
(0.915166 2.80538 2.78528)
(0.454709 2.92343 2.31433)
(0.158206 2.69772 2.34311)
(0.412711 2.72683 2.00701)
(0.506207 2.65575 1.98252)
(0.436855 2.63743 2.02162)
(0.3908 2.69327 1.87363)
(1.48229 3.11822 2.71491)
(1.12958 2.66004 3.01019)
(0.681611 2.67973 2.64812)
(0.274353 2.7872 2.25616)
(0.512057 2.56456 2.1455)
(0.760409 2.67492 1.83108)
(0.622437 2.54974 1.81369)
(0.847645 2.42536 1.85391)
(0.594267 2.75562 1.66409)
(1.95036 2.89801 2.57076)
(1.33065 2.51779 2.81594)
(0.512612 2.34103 2.89688)
(0.426826 2.60995 2.39936)
(0.566455 2.69495 2.12356)
(0.785441 2.73063 1.91818)
(0.927778 2.73297 1.62495)
(0.872691 2.73976 1.6387)
(0.566682 2.80628 1.36692)
(0.369266 2.86965 1.48826)
(1.1762 2.9403 2.53668)
(1.243 2.72313 1.88855)
(0.416446 2.61592 2.30147)
(0.569658 2.31692 2.26859)
(0.470851 2.58779 1.99004)
(0.834864 2.94267 1.54831)
(0.938368 2.9582 1.43691)
(0.947894 2.91355 1.49636)
(0.945016 2.74812 1.53525)
(0.274797 2.48139 1.64002)
(-0.41335 2.43986 1.1861)
(0.91583 2.6691 2.11089)
(0.916209 2.61004 1.77045)
(1.3256 2.19508 1.63013)
(0.647147 2.33995 1.74967)
(0.44281 2.47969 1.83608)
(0.598551 2.7005 1.48564)
(0.849399 2.75759 1.26602)
(1.09392 2.80803 1.20869)
(0.904067 2.92533 0.888723)
(0.0734834 2.52822 1.23446)
(0.21249 2.33542 0.902753)
(-0.719391 2.06063 1.15021)
(0.398919 2.3826 0.154958)
(0.58513 1.93415 0.649628)
(1.00668 1.97078 0.639679)
(0.420082 2.07393 0.883882)
(0.24003 2.24474 1.23643)
(0.0573469 2.82778 0.828128)
(1.09396 2.76986 0.957043)
(1.57959 2.61304 1.01237)
(1.78185 2.785 0.24531)
(0.883966 2.43355 0.716521)
(-0.240571 2.29101 0.958866)
(0.691897 2.52561 0.315706)
(0.669035 2.66671 -0.617087)
(0.100854 1.42274 0.301776)
(0.13864 1.48808 0.224425)
(0.803398 1.44448 -0.234429)
(0.388459 1.47633 0.0703254)
(0.0899379 1.93691 0.503717)
(0.30678 2.34334 0.6083)
(0.820117 2.35315 0.419155)
(1.50371 2.30696 -0.0629734)
(1.94091 2.5551 -0.435732)
(1.01634 1.98725 -0.0701311)
(-0.0495648 2.01541 0.205688)
(0.711555 2.49435 0.392507)
(0.377905 2.38945 -0.642867)
(0.143727 2.03537 -1.58558)
(-0.0484742 1.24413 -0.286669)
(0.386447 1.27429 -0.701854)
(0.399024 1.19407 -0.982097)
(0.338895 0.903193 -1.09545)
(0.152869 1.17688 -1.34579)
(0.500767 1.98379 -1.17793)
(0.838689 2.38188 0.0890524)
(1.39359 2.04864 -0.542668)
(1.47476 2.05104 -1.37788)
(1.23005 1.9415 -1.80254)
(0.503615 1.98773 -1.04343)
(0.921919 2.18261 -0.932985)
(0.547653 2.03275 -1.18929)
(-0.0606692 2.02101 -0.839058)
(-0.321282 1.99813 -1.05731)
(0.0561524 0.97691 -1.11399)
(0.166024 1.05515 -1.36159)
(0.190668 1.01112 -1.18065)
(0.326818 1.07808 -0.822083)
(0.257824 1.00132 -1.28306)
(0.465653 1.45147 -1.47305)
(0.647763 1.71682 -1.01528)
(0.928454 1.73328 -1.53976)
(1.2284 1.82164 -1.21948)
(1.33369 2.08132 -1.5575)
(1.25014 2.13041 -1.69624)
(1.18171 1.93794 -1.21002)
(0.901161 1.82913 -1.58444)
(-0.163969 1.9841 -1.11671)
(0.815205 1.54119 -1.21028)
(0.677644 1.43329 -1.43568)
(-0.280905 0.769204 -1.62703)
(-0.0124206 0.711985 -1.72188)
(0.321318 0.75734 -1.29208)
(0.374472 0.976981 -1.2165)
(0.0391933 1.01901 -1.45235)
(0.0182838 1.19048 -1.74238)
(0.170742 1.24011 -1.62417)
(0.382093 1.02398 -1.66507)
(1.21147 1.16746 -1.62796)
(1.47418 1.46618 -1.5802)
(1.54206 1.43586 -1.6193)
(1.33326 1.38794 -1.68656)
(1.33829 1.41151 -1.59084)
(0.792543 1.47106 -1.84314)
(0.847126 1.43237 -1.38865)
(1.0794 1.0821 -1.48337)
(0.069874 2.1742 2.64222)
(-0.016662 2.38432 2.59768)
(0.0970096 2.2822 2.62367)
(0.0379957 2.25863 2.64748)
(0.0867733 2.31299 2.64084)
(0.260165 2.35449 2.66495)
(0.152683 2.33458 2.69359)
(0.274923 2.31426 2.59326)
(0.169146 2.52053 2.3953)
(0.433851 2.49386 2.54848)
(0.328459 2.49775 2.58188)
(0.316008 2.45361 2.56717)
(0.169039 2.44831 2.47795)
(0.0769997 2.65792 2.29012)
(0.620606 2.57717 2.64147)
(0.778048 2.64817 2.49048)
(0.29103 2.6199 2.58545)
(0.250789 2.66094 2.30185)
(0.198063 2.47962 2.40865)
(0.247829 2.61257 2.33729)
(0.946056 2.69535 2.65143)
(0.887276 2.82046 2.57351)
(0.53184 2.79279 2.55576)
(0.24313 2.57437 2.4925)
(0.429429 2.64799 2.2579)
(0.182352 2.4446 2.45922)
(0.109441 2.61765 2.16698)
(1.21476 2.91422 2.68662)
(1.24283 2.92125 2.65523)
(0.761572 2.78281 2.63592)
(0.209614 2.72171 2.44825)
(0.498672 2.6523 2.2118)
(0.420506 2.32978 2.43913)
(0.360175 2.62918 2.05392)
(0.351569 2.69121 2.05802)
(1.5451 2.70222 2.92598)
(1.33418 2.72955 2.80199)
(0.929891 2.7887 2.54814)
(0.118628 2.73801 2.30707)
(0.474121 2.64303 2.10215)
(0.586437 2.61082 1.97306)
(0.578817 2.55744 2.02827)
(0.487052 2.62858 1.92183)
(0.285211 2.55149 1.76009)
(1.68713 2.98876 2.7482)
(1.5229 2.64765 2.98687)
(1.25808 2.50541 2.95991)
(0.269321 2.73971 2.31341)
(0.573322 2.63674 2.07582)
(0.81177 2.54862 1.90918)
(0.614748 2.61877 1.75967)
(0.656502 2.55727 1.7483)
(0.594592 2.45964 1.64919)
(0.432581 2.77154 1.47451)
(1.91113 3.14104 2.48225)
(1.9499 2.56844 2.51607)
(0.970939 2.42566 2.86779)
(0.16251 2.45088 2.48465)
(0.560967 2.72777 2.11334)
(0.663476 2.72852 1.91345)
(0.850884 2.76224 1.66234)
(1.08573 2.70036 1.567)
(0.77241 2.74611 1.41329)
(0.523672 2.60022 1.50949)
(0.0171341 2.4885 1.4898)
(1.19533 2.85913 2.55735)
(1.70746 2.59821 1.70415)
(1.17841 2.17364 2.52789)
(0.50415 2.26896 2.22747)
(0.669039 2.48513 2.10412)
(0.88128 2.89385 1.56639)
(1.05042 2.8987 1.48817)
(1.25642 2.93309 1.31018)
(1.04336 2.77841 1.41213)
(0.578366 2.68132 1.41958)
(0.260476 2.31739 1.25112)
(0.143149 2.36534 0.486663)
(1.14589 2.6305 1.92796)
(1.13668 2.56218 1.84459)
(1.36959 2.18684 1.49036)
(0.795957 2.2794 1.74933)
(1.03259 2.5521 1.67972)
(0.519863 2.71367 1.64058)
(0.893102 2.73898 1.4676)
(1.159 2.66146 1.3313)
(1.31951 2.683 1.09435)
(0.932104 2.78344 0.481839)
(0.120268 2.37505 1.19013)
(0.760212 2.50507 0.0492669)
(0.844221 2.50072 -0.236103)
(0.599614 2.20215 0.3426)
(0.778682 1.92218 0.510195)
(1.023 1.93296 0.744881)
(0.653202 2.10084 0.650965)
(0.255533 2.25763 1.37661)
(0.280676 2.84833 0.856036)
(1.13167 2.72268 1.00264)
(1.54974 2.48723 0.843247)
(1.68254 2.67424 0.399411)
(1.56563 2.52749 0.214003)
(-0.119296 2.35403 0.64147)
(0.48517 2.51235 0.648522)
(0.721265 2.28839 0.162697)
(0.39639 2.3982 -0.709338)
(0.173754 1.09226 0.504179)
(0.501563 1.25044 -0.22689)
(0.977399 1.34334 -0.264195)
(0.505154 1.46078 0.298516)
(0.0340145 1.97666 0.624293)
(0.363033 2.31437 0.383318)
(0.726444 2.39669 0.783867)
(1.4578 2.25492 0.3589)
(1.96778 2.50604 0.169978)
(1.88467 1.94204 -0.394794)
(0.402167 1.90736 -0.0671528)
(0.665818 2.37089 -0.363037)
(0.449639 2.30023 -0.556948)
(0.0877869 1.9206 -0.876155)
(-0.0506065 1.92657 -1.02825)
(-0.00587904 1.13063 -0.346281)