/*--------------------------------*- C++ -*----------------------------------*\
  =========                 |
  \\      /  F ield         | OpenFOAM: The Open Source CFD Toolbox
   \\    /   O peration     | Website:  https://openfoam.org
    \\  /    A nd           | Version:  7
     \\/     M anipulation  |
\*---------------------------------------------------------------------------*/
FoamFile
{
    version     2.0;
    format      ascii;
    class       volScalarField;
    location    "0.5";
    object      p;
}
// * * * * * * * * * * * * * * * * * * * * * * * * * * * * * * * * * * * * * //

dimensions      [0 2 -2 0 0 0 0];

internalField   nonuniform List<scalar> 
18750
(
-99.0546
-97.8636
-97.8886
-98.835
-97.777
-97.6866
-97.8679
-97.1999
-97.8094
-98.6488
-97.7269
-97.7987
-97.7852
-97.7126
-97.6869
-97.8664
-97.574
-97.0435
-97.805
-98.5787
-97.7661
-97.7383
-97.7287
-97.739
-97.808
-97.7946
-97.8588
-97.7061
-97.6976
-97.873
-97.7838
-97.5938
-97.0288
-97.6838
-98.5431
-97.7601
-97.7837
-97.7686
-97.7622
-97.7371
-97.7305
-97.7523
-97.745
-97.8148
-97.8097
-97.8492
-97.8507
-97.6955
-97.7099
-97.8921
-97.8563
-97.8033
-97.6307
-97.1427
-97.5506
-98.5827
-97.7727
-97.7801
-97.7598
-97.7829
-97.785
-97.7711
-97.8164
-97.7609
-97.736
-97.732
-97.8229
-97.7532
-97.7508
-97.8197
-97.8213
-97.8828
-97.8479
-97.8411
-97.6971
-97.7287
-97.8941
-97.9186
-97.8677
-97.8336
-97.6554
-97.2069
-97.5749
-98.6255
-97.7741
-97.791
-97.7741
-97.7867
-97.7795
-97.7598
-97.8141
-97.7843
-97.7864
-97.7728
-97.8494
-97.8156
-97.7597
-97.7367
-97.7335
-97.883
-97.8238
-97.7568
-97.7566
-97.8241
-97.8279
-97.9257
-97.8827
-97.8423
-97.8326
-97.6984
-97.734
-97.8863
-97.9904
-97.9205
-97.8823
-97.8503
-97.6715
-97.2148
-97.6492
-98.5613
-97.7762
-97.7964
-97.7761
-97.791
-97.7921
-97.7756
-97.8296
-97.7863
-97.7788
-97.7595
-97.86
-97.8132
-97.7851
-97.7872
-97.7739
-97.901
-97.849
-97.8124
-97.7581
-97.7335
-97.7346
-97.9512
-97.8837
-97.8244
-97.7631
-97.7615
-97.8286
-97.8388
-98.0115
-97.9256
-97.8823
-97.8336
-97.8208
-97.6935
-97.7308
-97.873
-98.1026
-97.9911
-97.9223
-97.8963
-97.8666
-97.703
-97.2579
-97.5989
-98.5179
-97.7778
-97.7983
-97.7772
-97.7993
-97.797
-97.7768
-97.8343
-97.7938
-97.7943
-97.7765
-97.8696
-97.829
-97.7859
-97.778
-97.7595
-97.914
-97.8604
-97.8194
-97.7856
-97.788
-97.7758
-97.9645
-97.9012
-97.8491
-97.8101
-97.7556
-97.7337
-97.7361
-98.027
-97.9512
-97.8829
-97.826
-97.767
-97.7664
-97.8343
-97.8507
-98.1098
-98.0118
-97.9254
-97.8814
-97.8287
-97.8045
-97.6964
-97.7253
-97.8598
-98.2036
-98.103
-97.9917
-97.9237
-97.9089
-97.8915
-97.7408
-97.3189
-97.5535
-98.476
-97.779
-97.8024
-97.7788
-97.8043
-97.7992
-97.7781
-97.8428
-97.8008
-97.7975
-97.7772
-97.8784
-97.8351
-97.7947
-97.7961
-97.7775
-97.9244
-97.8697
-97.8279
-97.7844
-97.7782
-97.7598
-97.98
-97.914
-97.8606
-97.8206
-97.7867
-97.7894
-97.7778
-98.0433
-97.9648
-97.9015
-97.8493
-97.8081
-97.7533
-97.731
-97.7369
-98.121
-98.0275
-97.9501
-97.8849
-97.8276
-97.7712
-97.7706
-97.8445
-97.8591
-98.2133
-98.11
-98.0122
-97.9249
-97.8788
-97.8265
-97.7923
-97.6851
-97.7223
-97.8431
-98.3198
-98.204
-98.1033
-97.9924
-97.9249
-97.9143
-97.9072
-97.7499
-97.3493
-97.6174
-98.3618
-97.7793
-97.8062
-97.7799
-97.8114
-97.8032
-97.7797
-97.8489
-97.8053
-97.8
-97.7789
-97.8894
-97.844
-97.8009
-97.7982
-97.7777
-97.9348
-97.8791
-97.8353
-97.7965
-97.7971
-97.7789
-97.9928
-97.9246
-97.87
-97.8288
-97.7836
-97.7784
-97.76
-98.0581
-97.9801
-97.9137
-97.8603
-97.8219
-97.7879
-97.7907
-97.7799
-98.1343
-98.0435
-97.9655
-97.9017
-97.8501
-97.8072
-97.7514
-97.7319
-97.7367
-98.2244
-98.1209
-98.0277
-97.9499
-97.8854
-97.8292
-97.7755
-97.773
-97.8515
-97.8615
-98.3274
-98.2137
-98.1102
-98.0125
-97.9244
-97.8766
-97.8202
-97.778
-97.6659
-97.7023
-97.8259
-98.4459
-98.32
-98.204
-98.1036
-97.993
-97.9257
-97.9091
-97.9035
-97.7447
-97.395
-97.6929
-98.3204
-97.7798
-97.8119
-97.7803
-97.8187
-97.8071
-97.7809
-97.8568
-97.8122
-97.804
-97.7806
-97.8994
-97.8498
-97.8061
-97.8009
-97.7796
-97.9477
-97.8902
-97.8446
-97.8013
-97.7996
-97.7785
-98.0055
-97.9352
-97.8793
-97.8378
-97.798
-97.7981
-97.7798
-98.0732
-97.9932
-97.9247
-97.8707
-97.8299
-97.7831
-97.7784
-97.7603
-98.1488
-98.0585
-97.9802
-97.913
-97.8608
-97.8231
-97.7892
-97.7918
-97.7819
-98.2371
-98.1349
-98.0437
-97.9655
-97.9025
-97.8523
-97.8061
-97.7499
-97.7307
-97.7356
-98.3367
-98.2248
-98.1216
-98.0281
-97.95
-97.8861
-97.8299
-97.7796
-97.7763
-97.8504
-97.8599
-98.4518
-98.3277
-98.214
-98.1104
-98.0128
-97.9241
-97.8755
-97.8117
-97.7629
-97.6601
-97.6791
-97.8142
-98.5772
-98.4462
-98.3202
-98.2043
-98.1039
-97.9937
-97.9263
-97.9029
-97.887
-97.7303
-97.462
-97.7226
-98.3676
-97.7681
-97.8195
-97.7805
-97.8286
-97.8121
-97.7813
-97.8651
-97.8196
-97.808
-97.7818
-97.9116
-97.8577
-97.8131
-97.8049
-97.7813
-97.9609
-97.9002
-97.8507
-97.8071
-97.8017
-97.7803
-98.0205
-97.9483
-97.891
-97.8456
-97.8027
-97.8001
-97.7793
-98.0881
-98.0059
-97.9355
-97.8793
-97.8396
-97.7991
-97.7991
-97.7806
-98.1649
-98.0736
-97.9935
-97.9245
-97.871
-97.8312
-97.7828
-97.7785
-97.7605
-98.2521
-98.1493
-98.0589
-97.9803
-97.9127
-97.8574
-97.8235
-97.7905
-97.7931
-97.7835
-98.3491
-98.2377
-98.1354
-98.044
-97.9653
-97.901
-97.8515
-97.8056
-97.7485
-97.7307
-97.7349
-98.4601
-98.3372
-98.2255
-98.1221
-98.0286
-97.9506
-97.8868
-97.8308
-97.7844
-97.7807
-97.852
-97.8598
-98.5829
-98.4521
-98.3281
-98.2143
-98.1107
-98.0132
-97.9239
-97.8745
-97.8056
-97.7547
-97.6569
-97.6683
-97.7987
-98.7152
-98.5773
-98.4464
-98.3204
-98.2049
-98.1042
-97.9943
-97.927
-97.9047
-97.8787
-97.7072
-97.527
-97.7462
-98.3605
-97.751
-97.8104
-97.7695
-97.8405
-97.8194
-97.7819
-97.8768
-97.8292
-97.8143
-97.7821
-97.9242
-97.866
-97.8206
-97.8086
-97.7825
-97.9761
-97.9123
-97.8584
-97.814
-97.8057
-97.782
-98.0363
-97.9615
-97.9009
-97.8516
-97.8078
-97.8024
-97.781
-98.1052
-98.0211
-97.9489
-97.8916
-97.8467
-97.8033
-97.8005
-97.7797
-98.1813
-98.0885
-98.0063
-97.9358
-97.8794
-97.8409
-97.8001
-97.8
-97.7814
-98.2686
-98.1654
-98.0741
-97.9937
-97.9244
-97.8716
-97.8321
-97.7827
-97.7787
-97.7607
-98.364
-98.2524
-98.1497
-98.0591
-97.9804
-97.9127
-97.8575
-97.8241
-97.7923
-97.7942
-97.785
-98.4723
-98.3497
-98.2382
-98.1358
-98.0442
-97.965
-97.901
-97.8491
-97.8054
-97.7471
-97.7277
-97.7352
-98.5908
-98.4603
-98.3378
-98.2258
-98.1225
-98.0292
-97.9515
-97.8872
-97.8318
-97.7895
-97.7847
-97.856
-97.8607
-98.7203
-98.5832
-98.4523
-98.3285
-98.2146
-98.111
-98.0136
-97.9234
-97.8752
-97.8012
-97.7455
-97.641
-97.6597
-97.7791
-98.8601
-98.7155
-98.5774
-98.4465
-98.3207
-98.2055
-98.1045
-97.995
-97.9279
-97.9106
-97.871
-97.7105
-97.5845
-97.797
-98.3154
-97.7414
-97.8052
-97.7526
-97.8393
-97.8106
-97.7709
-97.8906
-97.8411
-97.8222
-97.782
-97.94
-97.8779
-97.8308
-97.8145
-97.7832
-97.9924
-97.925
-97.8668
-97.8212
-97.8096
-97.7831
-98.0542
-97.9767
-97.913
-97.8592
-97.8148
-97.8062
-97.7827
-98.1234
-98.0368
-97.9621
-97.9016
-97.8521
-97.8086
-97.8031
-97.7816
-98.2001
-98.1057
-98.0216
-97.9494
-97.8922
-97.847
-97.8035
-97.8008
-97.7801
-98.2863
-98.1817
-98.0889
-98.0068
-97.9361
-97.8796
-97.8419
-97.8009
-97.8007
-97.7822
-98.3809
-98.2691
-98.1658
-98.0743
-97.9939
-97.9243
-97.8721
-97.8329
-97.7827
-97.7789
-97.7608
-98.4874
-98.3642
-98.2528
-98.1499
-98.0594
-97.9807
-97.9132
-97.8611
-97.8249
-97.7937
-97.7952
-97.7863
-98.6025
-98.4727
-98.3502
-98.2387
-98.1363
-98.0444
-97.9649
-97.9004
-97.8484
-97.8053
-97.7456
-97.727
-97.7358
-98.7278
-98.591
-98.4608
-98.3381
-98.2261
-98.1232
-98.0298
-97.9522
-97.8879
-97.8328
-97.7933
-97.7864
-97.8575
-97.8625
-98.8647
-98.7205
-98.5834
-98.4526
-98.3288
-98.2149
-98.1113
-98.0142
-97.9224
-97.875
-97.7973
-97.7397
-97.62
-97.6436
-97.7613
-99.0074
-98.8602
-98.7158
-98.5775
-98.4467
-98.3209
-98.206
-98.1049
-97.9957
-97.9287
-97.9152
-97.8575
-97.7408
-97.634
-97.858
-98.2633
-97.6878
-97.8012
-97.7398
-97.8411
-97.8054
-97.7564
-97.8942
-97.8395
-97.8141
-97.7702
-97.9578
-97.8919
-97.8433
-97.8215
-97.7838
-98.0121
-97.941
-97.8783
-97.8312
-97.8156
-97.7833
-98.0734
-97.9931
-97.9256
-97.8674
-97.8225
-97.81
-97.7841
-98.1438
-98.0547
-97.9773
-97.9137
-97.8599
-97.8154
-97.8071
-97.7833
-98.2207
-98.1239
-98.0374
-97.9627
-97.9022
-97.8529
-97.8093
-97.8034
-97.7821
-98.3064
-98.2006
-98.1061
-98.022
-97.9499
-97.8928
-97.8477
-97.8038
-97.8012
-97.7805
-98.3989
-98.2866
-98.1821
-98.0894
-98.0072
-97.9364
-97.8799
-97.8429
-97.8017
-97.8014
-97.7829
-98.5057
-98.3811
-98.2694
-98.1661
-98.0746
-97.9941
-97.9246
-97.8726
-97.834
-97.7827
-97.7791
-97.7609
-98.6169
-98.4877
-98.3645
-98.2531
-98.1505
-98.0599
-97.9811
-97.9137
-97.863
-97.8256
-97.795
-97.7962
-97.7876
-98.7396
-98.6028
-98.4732
-98.3507
-98.2392
-98.1366
-98.0447
-97.9647
-97.9006
-97.8476
-97.8053
-97.7443
-97.7254
-97.7358
-98.872
-98.728
-98.5914
-98.461
-98.3384
-98.2268
-98.1236
-98.0303
-97.9537
-97.8885
-97.834
-97.7962
-97.7876
-97.8559
-97.8626
-99.0122
-98.8649
-98.7207
-98.5836
-98.4528
-98.3291
-98.2153
-98.1119
-98.0147
-97.922
-97.8724
-97.7942
-97.7329
-97.6054
-97.614
-97.745
-99.1598
-99.0074
-98.8602
-98.7159
-98.5777
-98.4468
-98.3212
-98.2063
-98.1053
-97.9964
-97.9296
-97.9122
-97.8492
-97.7553
-97.6483
-97.8932
-98.2255
-97.5693
-97.7498
-97.7088
-97.8546
-97.8005
-97.7449
-97.8999
-97.8464
-97.8119
-97.7538
-97.9655
-97.8958
-97.8427
-97.8122
-97.7721
-98.0332
-97.9589
-97.8924
-97.8432
-97.8232
-97.7827
-98.0962
-98.0131
-97.9417
-97.8789
-97.8323
-97.8158
-97.7844
-98.1657
-98.074
-97.9936
-97.9262
-97.8683
-97.8229
-97.8113
-97.7848
-98.244
-98.1443
-98.0552
-97.978
-97.9143
-97.8605
-97.8163
-97.8077
-97.784
-98.3285
-98.2211
-98.1244
-98.0379
-97.9632
-97.9029
-97.8537
-97.8096
-97.8038
-97.7826
-98.4195
-98.3067
-98.2009
-98.1066
-98.0225
-97.9504
-97.8933
-97.8485
-97.8042
-97.8016
-97.7809
-98.5266
-98.3991
-98.287
-98.1826
-98.0898
-98.0076
-97.9369
-97.8804
-97.844
-97.8025
-97.802
-97.7835
-98.6343
-98.5059
-98.3815
-98.2697
-98.1664
-98.075
-97.9944
-97.9248
-97.8728
-97.8347
-97.7827
-97.7795
-97.761
-98.7545
-98.6173
-98.488
-98.3651
-98.2535
-98.1512
-98.0604
-97.9814
-97.914
-97.8644
-97.8264
-97.7962
-97.7969
-97.7886
-98.884
-98.7399
-98.6032
-98.4735
-98.3512
-98.2396
-98.137
-98.0449
-97.965
-97.9006
-97.8471
-97.8048
-97.7429
-97.7256
-97.7345
-99.0199
-98.8723
-98.7282
-98.5917
-98.4614
-98.3391
-98.2272
-98.1237
-98.0307
-97.9545
-97.8891
-97.8354
-97.7985
-97.7904
-97.849
-97.8599
-99.1644
-99.0123
-98.865
-98.7209
-98.5837
-98.453
-98.3295
-98.2158
-98.1125
-98.0152
-97.9229
-97.8689
-97.7917
-97.7274
-97.5895
-97.587
-97.7324
-99.3114
-99.1598
-99.0075
-98.8603
-98.7161
-98.5779
-98.447
-98.3214
-98.2067
-98.1057
-97.9972
-97.9303
-97.9093
-97.8459
-97.7568
-97.6431
-97.9176
-98.2026
-97.4249
-97.6154
-97.5844
-97.768
-97.7357
-97.7133
-97.9197
-97.8444
-97.8161
-97.7394
-97.9761
-97.9113
-97.8476
-97.8136
-97.7562
-98.044
-97.968
-97.8972
-97.8422
-97.8144
-97.7701
-98.1198
-98.0342
-97.9601
-97.8928
-97.8437
-97.8227
-97.7849
-98.1915
-98.0971
-98.0136
-97.9419
-97.8797
-97.8325
-97.8173
-97.7852
-98.2695
-98.1663
-98.0745
-97.9943
-97.927
-97.8689
-97.824
-97.8122
-97.7854
-98.3533
-98.2443
-98.1447
-98.0558
-97.9785
-97.9149
-97.8613
-97.8168
-97.8082
-97.7845
-98.4428
-98.3288
-98.2215
-98.1248
-98.0384
-97.9638
-97.9034
-97.8541
-97.8101
-97.8045
-97.7831
-98.5512
-98.4197
-98.307
-98.2013
-98.107
-98.0229
-97.9508
-97.8939
-97.8486
-97.8046
-97.8021
-97.7813
-98.6536
-98.5267
-98.3995
-98.2873
-98.1829
-98.0902
-98.008
-97.9374
-97.8809
-97.8445
-97.8031
-97.8025
-97.7841
-98.7734
-98.6345
-98.5062
-98.3818
-98.2701
-98.1668
-98.0754
-97.9946
-97.9249
-97.873
-97.8353
-97.7829
-97.7796
-97.7612
-98.8993
-98.7548
-98.6177
-98.4886
-98.3656
-98.2539
-98.1515
-98.0608
-97.9818
-97.9144
-97.8656
-97.8273
-97.7974
-97.7976
-97.7896
-99.0316
-98.8842
-98.7402
-98.6035
-98.4739
-98.3516
-98.24
-98.1373
-98.0453
-97.9658
-97.9009
-97.8466
-97.8041
-97.7416
-97.725
-97.7322
-99.1719
-99.0198
-98.8725
-98.7283
-98.5918
-98.4618
-98.3394
-98.2273
-98.1238
-98.0317
-97.955
-97.89
-97.8368
-97.8001
-97.7936
-97.8442
-97.8567
-99.3162
-99.1644
-99.0123
-98.865
-98.721
-98.5839
-98.4532
-98.3298
-98.2163
-98.1129
-98.0158
-97.9237
-97.8669
-97.7896
-97.7255
-97.575
-97.5724
-97.7219
-99.4706
-99.3115
-99.1599
-99.0075
-98.8605
-98.7164
-98.5781
-98.4472
-98.3217
-98.207
-98.1061
-97.998
-97.9312
-97.9118
-97.8477
-97.7515
-97.6466
-97.9209
-98.1897
-97.2893
-97.4504
-97.4208
-97.6065
-97.6048
-97.5942
-97.8473
-97.7849
-97.7701
-97.6969
-97.9687
-97.9203
-97.8688
-97.8091
-97.7486
-98.0642
-97.9903
-97.9136
-97.8535
-97.8119
-97.7489
-98.1321
-98.0456
-97.9706
-97.8981
-97.842
-97.8122
-97.7718
-98.2175
-98.1209
-98.035
-97.9601
-97.8927
-97.8437
-97.8247
-97.7843
-98.2997
-98.1924
-98.0976
-98.0142
-97.9427
-97.8805
-97.8339
-97.8181
-97.7864
-98.3806
-98.2699
-98.1667
-98.0751
-97.9948
-97.9276
-97.8698
-97.825
-97.8126
-97.786
-98.4703
-98.3534
-98.2447
-98.1452
-98.0562
-97.979
-97.9157
-97.8616
-97.8173
-97.8087
-97.7851
-98.5793
-98.443
-98.3291
-98.2218
-98.1252
-98.0389
-97.9643
-97.9038
-97.8547
-97.8108
-97.805
-97.7837
-98.6753
-98.5512
-98.4199
-98.3074
-98.2017
-98.1074
-98.0233
-97.9513
-97.8944
-97.8493
-97.805
-97.8025
-97.7818
-98.7958
-98.6537
-98.5269
-98.3997
-98.2876
-98.1833
-98.0906
-98.0085
-97.9378
-97.8815
-97.845
-97.8036
-97.8031
-97.7846
-98.9187
-98.7735
-98.6348
-98.5065
-98.3822
-98.2704
-98.1672
-98.0757
-97.995
-97.925
-97.8735
-97.8358
-97.7829
-97.7798
-97.7613
-99.0472
-98.8997
-98.7551
-98.6179
-98.489
-98.3659
-98.2544
-98.1518
-98.0613
-97.9824
-97.9144
-97.8665
-97.8282
-97.7985
-97.7982
-97.7903
-99.1838
-99.0317
-98.8845
-98.7404
-98.6038
-98.4743
-98.352
-98.2403
-98.1376
-98.0459
-97.9664
-97.9016
-97.8459
-97.8031
-97.7405
-97.7242
-97.7298
-99.3242
-99.1719
-99.0199
-98.8726
-98.7286
-98.592
-98.4621
-98.3396
-98.2273
-98.1244
-98.0328
-97.9556
-97.8912
-97.8382
-97.8016
-97.7962
-97.8423
-97.8533
-99.475
-99.3162
-99.1644
-99.0123
-98.8652
-98.7211
-98.5842
-98.4534
-98.3301
-98.2166
-98.1131
-98.0163
-97.9241
-97.8656
-97.7862
-97.7139
-97.5636
-97.5544
-97.715
-99.6193
-99.4706
-99.3115
-99.1599
-99.0076
-98.8607
-98.7165
-98.5783
-98.4473
-98.3219
-98.2073
-98.1065
-97.9989
-97.9322
-97.9152
-97.8523
-97.7491
-97.6601
-97.8995
-98.1762
-97.1722
-97.3137
-97.2911
-97.4547
-97.4411
-97.4154
-97.6416
-97.624
-97.6128
-97.6053
-97.8853
-97.8508
-97.8069
-97.7605
-97.6956
-98.0666
-97.9931
-97.9274
-97.8625
-97.8189
-97.7336
-98.1494
-98.07
-98.0003
-97.9119
-97.8405
-97.8102
-97.7512
-98.2336
-98.1341
-98.0468
-97.9704
-97.8953
-97.8406
-97.815
-97.7728
-98.3287
-98.2187
-98.1218
-98.0365
-97.9601
-97.8939
-97.8456
-97.8254
-97.7876
-98.4125
-98.3002
-98.1929
-98.0986
-98.0144
-97.9434
-97.8814
-97.8352
-97.8189
-97.7865
-98.5019
-98.3805
-98.2703
-98.1673
-98.0755
-97.9955
-97.9284
-97.8704
-97.8252
-97.8131
-97.7867
-98.6111
-98.4701
-98.3537
-98.2451
-98.1455
-98.0567
-97.9797
-97.916
-97.8624
-97.818
-97.8093
-97.7857
-98.6991
-98.5791
-98.4431
-98.3294
-98.2222
-98.1257
-98.0393
-97.9647
-97.9045
-97.8553
-97.8114
-97.8054
-97.7842
-98.8233
-98.6753
-98.5513
-98.4203
-98.3076
-98.202
-98.1077
-98.0238
-97.9517
-97.8948
-97.85
-97.8056
-97.8029
-97.7823
-98.9414
-98.7959
-98.654
-98.5271
-98.4
-98.2881
-98.1837
-98.0911
-98.009
-97.9381
-97.8823
-97.8456
-97.8041
-97.8036
-97.7851
-99.0665
-98.9189
-98.7735
-98.635
-98.5068
-98.3825
-98.2708
-98.1675
-98.0761
-97.9954
-97.9251
-97.8738
-97.8364
-97.783
-97.7801
-97.7615
-99.1992
-99.0472
-98.9001
-98.7552
-98.6181
-98.4892
-98.3661
-98.2548
-98.1522
-98.0619
-97.983
-97.9138
-97.8674
-97.8291
-97.7995
-97.7988
-97.791
-99.3365
-99.1837
-99.0318
-98.8847
-98.7406
-98.6041
-98.4746
-98.3524
-98.2407
-98.138
-98.0465
-97.967
-97.9019
-97.8453
-97.8022
-97.7396
-97.7233
-97.7269
-99.484
-99.3241
-99.1719
-99.02
-98.8728
-98.7288
-98.5924
-98.4624
-98.3399
-98.2277
-98.1253
-98.0338
-97.9564
-97.8916
-97.8393
-97.8025
-97.7975
-97.841
-97.8479
-99.6245
-99.4749
-99.3162
-99.1644
-99.0124
-98.8653
-98.7212
-98.5843
-98.4537
-98.3303
-98.2167
-98.1133
-98.0169
-97.9245
-97.8641
-97.7826
-97.7006
-97.5491
-97.5377
-97.7058
-99.7711
-99.6193
-99.4706
-99.3115
-99.16
-99.0076
-98.8609
-98.7166
-98.5786
-98.4475
-98.3221
-98.2075
-98.107
-97.9997
-97.9331
-97.9175
-97.8477
-97.751
-97.6809
-97.8875
-98.1583
-97.0543
-97.2023
-97.1696
-97.311
-97.2955
-97.2762
-97.4491
-97.441
-97.433
-97.4495
-97.6906
-97.6497
-97.6219
-97.6265
-97.5758
-97.9429
-97.8959
-97.8584
-97.8018
-97.7552
-97.7056
-98.1413
-98.0738
-98.0315
-97.9293
-97.8299
-97.8008
-97.7386
-98.2549
-98.159
-98.0743
-97.9863
-97.8979
-97.843
-97.8122
-97.7544
-98.3498
-98.233
-98.1356
-98.0527
-97.9675
-97.8957
-97.8432
-97.8166
-97.7766
-98.4438
-98.3301
-98.22
-98.1245
-98.0345
-97.9611
-97.8955
-97.8472
-97.8265
-97.7866
-98.5407
-98.4121
-98.3013
-98.194
-98.0982
-98.0155
-97.9445
-97.8828
-97.8354
-97.8194
-97.7873
-98.6446
-98.5011
-98.3809
-98.2707
-98.1675
-98.076
-97.9961
-97.9289
-97.8713
-97.8259
-97.8137
-97.7872
-98.7275
-98.6102
-98.4704
-98.3542
-98.2453
-98.1459
-98.0573
-97.98
-97.9166
-97.863
-97.8187
-97.8098
-97.7862
-98.8577
-98.6992
-98.5792
-98.4435
-98.3298
-98.2226
-98.1259
-98.0397
-97.9653
-97.905
-97.8558
-97.812
-97.806
-97.7848
-98.9681
-98.8234
-98.6754
-98.5514
-98.4205
-98.3079
-98.2023
-98.1082
-98.0242
-97.9521
-97.8954
-97.8503
-97.8061
-97.8033
-97.7827
-99.0902
-98.9417
-98.7958
-98.6542
-98.5273
-98.4004
-98.2883
-98.184
-98.0914
-98.0094
-97.9386
-97.8829
-97.8463
-97.8046
-97.804
-97.7856
-99.2179
-99.0663
-98.9191
-98.7736
-98.6353
-98.5069
-98.3827
-98.2711
-98.1679
-98.0766
-97.9956
-97.9253
-97.874
-97.8369
-97.7831
-97.7805
-97.7616
-99.3523
-99.1991
-99.0473
-98.9003
-98.7554
-98.6185
-98.4894
-98.3665
-98.255
-98.1526
-98.0624
-97.9836
-97.9143
-97.8684
-97.83
-97.8004
-97.7994
-97.7916
-99.4988
-99.3363
-99.1837
-99.0318
-98.8849
-98.7408
-98.6044
-98.4749
-98.3527
-98.241
-98.1385
-98.0471
-97.9678
-97.9008
-97.8448
-97.8013
-97.7389
-97.7223
-97.7237
-99.6338
-99.4838
-99.3241
-99.172
-99.02
-98.873
-98.729
-98.5926
-98.4625
-98.3403
-98.2284
-98.1262
-98.0348
-97.9571
-97.8918
-97.8402
-97.8032
-97.7969
-97.8387
-97.8469
-99.7749
-99.6244
-99.4748
-99.3162
-99.1645
-99.0125
-98.8654
-98.7213
-98.5845
-98.4538
-98.3305
-98.2167
-98.1136
-98.0175
-97.9252
-97.8635
-97.7807
-97.693
-97.5387
-97.5279
-97.696
-99.9152
-99.7711
-99.6193
-99.4706
-99.3116
-99.1601
-99.0077
-98.8609
-98.7167
-98.5789
-98.4476
-98.3222
-98.2078
-98.1075
-98.0005
-97.9339
-97.9227
-97.8431
-97.7554
-97.6992
-97.8848
-98.1481
-96.9522
-97.0743
-97.0621
-97.1839
-97.1699
-97.1567
-97.3164
-97.2926
-97.2817
-97.2816
-97.4931
-97.4645
-97.4348
-97.4337
-97.4319
-97.7264
-97.667
-97.6679
-97.6283
-97.6117
-97.5918
-98.0069
-97.9676
-97.903
-97.8457
-97.79
-97.7587
-97.7115
-98.2397
-98.1884
-98.0819
-98.0035
-97.9004
-97.8443
-97.8175
-97.7343
-98.3744
-98.2548
-98.166
-98.0783
-97.9762
-97.9023
-97.8448
-97.8172
-97.7638
-98.4633
-98.3492
-98.2382
-98.1477
-98.0417
-97.9674
-97.8983
-97.847
-97.8178
-97.7756
-98.5784
-98.443
-98.3332
-98.2227
-98.1205
-98.0364
-97.9627
-97.8976
-97.8477
-97.827
-97.7877
-98.6786
-98.5381
-98.4139
-98.3019
-98.1931
-98.0993
-98.0161
-97.9457
-97.8833
-97.8363
-97.8198
-97.7877
-98.7629
-98.6432
-98.5024
-98.3818
-98.2708
-98.1679
-98.0767
-97.9968
-97.9296
-97.872
-97.8268
-97.8142
-97.7878
-98.9004
-98.7282
-98.61
-98.4711
-98.3545
-98.2457
-98.1464
-98.0575
-97.9806
-97.9174
-97.8634
-97.8195
-97.8105
-97.7868
-98.9984
-98.8582
-98.6989
-98.5793
-98.4438
-98.3301
-98.2228
-98.1263
-98.0402
-97.9657
-97.9058
-97.8563
-97.8125
-97.8066
-97.7854
-99.1168
-98.9683
-98.8234
-98.6757
-98.5516
-98.4208
-98.3083
-98.2027
-98.1085
-98.0246
-97.9528
-97.8959
-97.8507
-97.8065
-97.8037
-97.7831
-99.24
-99.0899
-98.9418
-98.7956
-98.6544
-98.5274
-98.4005
-98.2886
-98.1844
-98.0919
-98.0099
-97.939
-97.8835
-97.8468
-97.8052
-97.8044
-97.7861
-99.3723
-99.2178
-99.0663
-98.9194
-98.7737
-98.6355
-98.5072
-98.3831
-98.2714
-98.1683
-98.077
-97.9961
-97.9255
-97.8744
-97.8373
-97.7833
-97.7808
-97.7616
-99.5202
-99.3519
-99.199
-99.0472
-98.9005
-98.7555
-98.6187
-98.4895
-98.3671
-98.2554
-98.153
-98.0629
-97.9844
-97.9163
-97.8693
-97.8309
-97.8013
-97.8001
-97.7923
-99.6479
-99.4984
-99.3363
-99.1838
-99.0318
-98.8851
-98.7409
-98.6047
-98.4752
-98.353
-98.2413
-98.1389
-98.0476
-97.9685
-97.8993
-97.8444
-97.8007
-97.7385
-97.7213
-97.719
-99.7825
-99.6336
-99.4836
-99.3241
-99.1719
-99.0201
-98.873
-98.7291
-98.5928
-98.4628
-98.3408
-98.229
-98.127
-98.0357
-97.9579
-97.8922
-97.8412
-97.8044
-97.796
-97.8353
-97.8468
-99.92
-99.7748
-99.6243
-99.4748
-99.3162
-99.1645
-99.0126
-98.8654
-98.7214
-98.5845
-98.454
-98.3307
-98.2169
-98.1139
-98.0182
-97.926
-97.8602
-97.7793
-97.6858
-97.5342
-97.5223
-97.6923
-98.1334
-100.062
-99.9151
-99.7711
-99.6193
-99.4706
-99.3116
-99.1602
-99.0077
-98.861
-98.7169
-98.5791
-98.4477
-98.3224
-98.2081
-98.1079
-98.0013
-97.935
-97.9316
-97.8464
-97.763
-97.7111
-97.8876
-98.1429
-96.8572
-96.9815
-96.9681
-97.0736
-97.0561
-97.0452
-97.2097
-97.1839
-97.165
-97.1458
-97.3404
-97.2964
-97.2892
-97.2858
-97.3022
-97.5233
-97.4595
-97.4452
-97.4392
-97.4452
-97.4337
-97.7854
-97.71
-97.6895
-97.6388
-97.6266
-97.6191
-97.6039
-98.0836
-98.0414
-97.9616
-97.912
-97.8339
-97.7875
-97.7653
-97.6821
-98.3508
-98.278
-98.1824
-98.0876
-97.9798
-97.8947
-97.8407
-97.8117
-97.7633
-98.485
-98.384
-98.2715
-98.189
-98.0501
-97.976
-97.9132
-97.8568
-97.8193
-97.7587
-98.6113
-98.4608
-98.361
-98.2487
-98.13
-98.0467
-97.9707
-97.9058
-97.8469
-97.8189
-97.7764
-98.7114
-98.574
-98.4489
-98.3339
-98.2176
-98.1226
-98.0379
-97.9648
-97.898
-97.849
-97.8272
-97.7874
-98.8042
-98.6765
-98.5441
-98.4142
-98.3007
-98.194
-98.0998
-98.0178
-97.9458
-97.8836
-97.8367
-97.8204
-97.7882
-98.9462
-98.7635
-98.6419
-98.5033
-98.3819
-98.271
-98.1684
-98.0771
-97.9971
-97.9304
-97.8721
-97.8275
-97.8151
-97.7885
-99.0321
-98.9023
-98.7257
-98.6107
-98.4712
-98.3548
-98.2459
-98.1466
-98.058
-97.9812
-97.9181
-97.8641
-97.82
-97.8114
-97.7874
-99.1443
-98.9987
-98.8595
-98.6997
-98.5796
-98.4441
-98.3303
-98.2231
-98.1267
-98.0406
-97.9665
-97.9063
-97.8569
-97.8132
-97.8072
-97.786
-99.2683
-99.1166
-98.9683
-98.8222
-98.6758
-98.5517
-98.4211
-98.3085
-98.203
-98.1088
-98.0251
-97.9534
-97.8962
-97.8512
-97.8069
-97.8042
-97.7836
-99.3994
-99.2403
-99.0898
-98.9422
-98.7956
-98.6546
-98.5276
-98.4009
-98.289
-98.1848
-98.0924
-98.0103
-97.9394
-97.8839
-97.8472
-97.8057
-97.8049
-97.7867
-99.5482
-99.3712
-99.2176
-99.0661
-98.9195
-98.7737
-98.6357
-98.5074
-98.3834
-98.2717
-98.1686
-98.0775
-97.9966
-97.9261
-97.8743
-97.8377
-97.7835
-97.7812
-97.7616
-99.6654
-99.5195
-99.3516
-99.199
-99.0472
-98.9005
-98.7555
-98.6189
-98.49
-98.3673
-98.2557
-98.1534
-98.0635
-97.9851
-97.9182
-97.8702
-97.8319
-97.8022
-97.8009
-97.7931
-99.7948
-99.6476
-99.498
-99.3362
-99.1837
-99.0319
-98.8853
-98.7411
-98.6049
-98.4755
-98.3533
-98.2417
-98.1393
-98.0482
-97.9691
-97.8989
-97.844
-97.8002
-97.7381
-97.72
-97.7143
-99.9303
-99.7823
-99.6334
-99.4834
-99.324
-99.172
-99.0202
-98.8731
-98.7293
-98.5929
-98.4632
-98.3414
-98.2297
-98.1277
-98.0366
-97.9587
-97.8922
-97.842
-97.8049
-97.796
-97.832
-97.8428
-97.6995
-100.067
-99.9198
-99.7747
-99.6243
-99.4747
-99.3162
-99.1645
-99.0126
-98.8655
-98.7215
-98.5846
-98.4541
-98.331
-98.2172
-98.1143
-98.0191
-97.9265
-97.8525
-97.7773
-97.6796
-97.5315
-97.5212
-97.6923
-97.9102
-98.1388
-100.184
-100.062
-99.9151
-99.7711
-99.6193
-99.4706
-99.3116
-99.1602
-99.0077
-98.861
-98.717
-98.5794
-98.4479
-98.3226
-98.2084
-98.1083
-98.0022
-97.9361
-97.9424
-97.8542
-97.772
-97.7249
-97.8957
-96.7642
-96.8516
-96.8708
-96.9456
-96.9714
-96.9608
-97.0789
-97.0778
-97.0488
-97.0381
-97.2354
-97.1606
-97.156
-97.1592
-97.1578
-97.3693
-97.3413
-97.2706
-97.2896
-97.2864
-97.2887
-97.5334
-97.5099
-97.4829
-97.4715
-97.4497
-97.4405
-97.4406
-97.8368
-97.7584
-97.7498
-97.6719
-97.6367
-97.6304
-97.6191
-97.5912
-98.1806
-98.1392
-98.0639
-97.9451
-97.8893
-97.8518
-97.7912
-97.7464
-97.7054
-98.4556
-98.4276
-98.2802
-98.1699
-98.0641
-97.9702
-97.9064
-97.8619
-97.8359
-97.7464
-98.6279
-98.4951
-98.4005
-98.2968
-98.1386
-98.0648
-97.9909
-97.9277
-97.8598
-97.8183
-97.7606
-98.722
-98.6092
-98.4822
-98.362
-98.2295
-98.1339
-98.0506
-97.9771
-97.9042
-97.851
-97.8171
-97.7757
-98.8403
-98.7064
-98.5919
-98.4469
-98.3283
-98.2193
-98.124
-98.0408
-97.9643
-97.8976
-97.8482
-97.8275
-97.7882
-99.0016
-98.8057
-98.6734
-98.5423
-98.4134
-98.3011
-98.1945
-98.1014
-98.0172
-97.9464
-97.8837
-97.8373
-97.8213
-97.7889
-99.0731
-98.9567
-98.7616
-98.6448
-98.5032
-98.382
-98.2715
-98.1688
-98.0774
-97.9978
-97.9306
-97.8728
-97.8278
-97.8159
-97.7892
-99.176
-99.0296
-98.9053
-98.7294
-98.6114
-98.4715
-98.355
-98.2461
-98.1469
-98.0584
-97.9818
-97.9183
-97.8648
-97.8206
-97.8119
-97.7881
-99.2883
-99.1447
-98.9988
-98.854
-98.6994
-98.5796
-98.4442
-98.3305
-98.2234
-98.127
-98.0411
-97.9671
-97.9066
-97.8575
-97.8138
-97.8078
-97.7865
-99.4362
-99.2698
-99.1172
-98.9691
-98.8221
-98.6762
-98.5518
-98.4212
-98.3087
-98.2033
-98.1094
-98.0256
-97.9538
-97.8967
-97.8517
-97.8073
-97.8049
-97.784
-99.584
-99.3972
-99.2399
-99.0892
-98.9423
-98.7952
-98.6548
-98.5278
-98.4012
-98.2893
-98.1851
-98.0927
-98.0107
-97.94
-97.8845
-97.8478
-97.8062
-97.8054
-97.7872
-99.6863
-99.5472
-99.3705
-99.2178
-99.066
-98.9198
-98.7736
-98.6359
-98.5076
-98.3836
-98.2721
-98.169
-98.0781
-97.997
-97.9265
-97.8749
-97.8381
-97.7837
-97.7815
-97.7615
-99.8134
-99.6647
-99.5187
-99.3514
-99.1989
-99.0471
-98.9007
-98.7555
-98.6192
-98.4904
-98.3675
-98.2561
-98.1538
-98.064
-97.9857
-97.9198
-97.8711
-97.8327
-97.803
-97.8018
-97.7942
-99.9463
-99.7945
-99.6473
-99.4975
-99.3362
-99.1837
-99.0321
-98.8854
-98.7413
-98.6051
-98.4758
-98.3536
-98.242
-98.1397
-98.0488
-97.97
-97.8984
-97.8436
-97.7998
-97.7379
-97.7185
-97.7086
-97.8523
-100.077
-99.93
-99.7821
-99.6332
-99.4833
-99.3241
-99.172
-99.0203
-98.8734
-98.7293
-98.5931
-98.4635
-98.3418
-98.2304
-98.1286
-98.0375
-97.9596
-97.8918
-97.8424
-97.8049
-97.7962
-97.8307
-97.842
-97.5577
-97.6945
-100.189
-100.067
-99.9197
-99.7747
-99.6242
-99.4746
-99.3163
-99.1645
-99.0127
-98.8656
-98.7216
-98.5848
-98.4543
-98.331
-98.2174
-98.1147
-98.0199
-97.9266
-97.8461
-97.7726
-97.675
-97.5352
-97.5265
-97.7725
-97.904
-100.306
-100.184
-100.062
-99.9151
-99.7711
-99.6193
-99.4706
-99.3116
-99.1602
-99.0078
-98.8611
-98.717
-98.5796
-98.4481
-98.3228
-98.2087
-98.1088
-98.0031
-97.937
-97.9468
-97.864
-97.7842
-97.7398
-96.7331
-96.7644
-96.8365
-96.8784
-96.8815
-96.9686
-96.9843
-96.956
-96.9464
-97.1093
-97.1061
-97.0494
-97.0536
-97.0453
-97.265
-97.2169
-97.1075
-97.1881
-97.1606
-97.1535
-97.3863
-97.3677
-97.3147
-97.3249
-97.2905
-97.2885
-97.2918
-97.6099
-97.5751
-97.5155
-97.4839
-97.4602
-97.4652
-97.4454
-97.4432
-97.9261
-97.8273
-97.7948
-97.7075
-97.6694
-97.6784
-97.6181
-97.6283
-97.5736
-98.2989
-98.2274
-98.1462
-98.0132
-97.9517
-97.881
-97.8297
-97.7937
-97.7677
-97.7175
-98.6219
-98.4952
-98.3998
-98.2604
-98.1504
-98.0521
-97.9805
-97.9746
-97.8577
-97.8188
-97.7455
-98.74
-98.6312
-98.5439
-98.4205
-98.24
-98.1507
-98.0841
-98.0053
-97.9231
-97.863
-97.8121
-97.761
-98.8872
-98.7159
-98.6565
-98.4694
-98.3463
-98.2321
-98.1374
-98.058
-97.9746
-97.9035
-97.8452
-97.8178
-97.7769
-99.0365
-98.8452
-98.7036
-98.581
-98.4426
-98.3292
-98.2211
-98.1276
-98.0392
-97.9644
-97.8971
-97.8486
-97.8286
-97.7884
-99.1176
-98.9945
-98.8122
-98.6799
-98.5417
-98.4134
-98.3019
-98.1961
-98.1008
-98.0177
-97.9462
-97.8844
-97.8378
-97.8217
-97.7898
-99.2133
-99.0582
-98.9597
-98.7683
-98.6451
-98.503
-98.3823
-98.2717
-98.169
-98.0779
-97.9982
-97.9311
-97.8734
-97.8286
-97.8163
-97.79
-99.2952
-99.1775
-99.0306
-98.8963
-98.7279
-98.6109
-98.4712
-98.355
-98.2463
-98.1472
-98.0589
-97.9823
-97.919
-97.8652
-97.8212
-97.8125
-97.7887
-99.5077
-99.2955
-99.1468
-99.0004
-98.8543
-98.7
-98.5796
-98.4444
-98.3307
-98.2236
-98.1274
-98.0416
-97.9673
-97.9072
-97.858
-97.8143
-97.8086
-97.7873
-99.6292
-99.4362
-99.2695
-99.1163
-98.9688
-98.8211
-98.6762
-98.5517
-98.4214
-98.309
-98.2037
-98.1097
-98.0261
-97.9542
-97.8972
-97.8522
-97.8079
-97.8052
-97.7845
-99.7058
-99.5826
-99.3956
-99.2407
-99.0893
-98.9426
-98.795
-98.6551
-98.5279
-98.4014
-98.2895
-98.1855
-98.0933
-98.0113
-97.9407
-97.8851
-97.8483
-97.8068
-97.8059
-97.7879
-99.8371
-99.6844
-99.5454
-99.37
-99.2176
-99.0659
-98.9199
-98.7735
-98.6362
-98.5078
-98.3839
-98.2724
-98.1695
-98.0785
-97.9974
-97.9269
-97.8756
-97.8387
-97.784
-97.7817
-97.7614
-99.9701
-99.813
-99.6641
-99.5179
-99.3514
-99.199
-99.0471
-98.9009
-98.7558
-98.6194
-98.4905
-98.3679
-98.2564
-98.1542
-98.0645
-97.9862
-97.9214
-97.872
-97.8336
-97.804
-97.803
-97.7957
-97.6815
-100.095
-99.9461
-99.7941
-99.647
-99.4971
-99.3362
-99.1838
-99.0321
-98.8856
-98.7414
-98.6054
-98.4761
-98.3539
-98.2423
-98.14
-98.0493
-97.9709
-97.8981
-97.8432
-97.7994
-97.7377
-97.7168
-97.702
-97.8392
-97.844
-100.199
-100.077
-99.9298
-99.782
-99.6331
-99.4831
-99.3242
-99.172
-99.0204
-98.8735
-98.7294
-98.5934
-98.4638
-98.3423
-98.231
-98.1293
-98.0383
-97.9603
-97.8925
-97.8423
-97.8051
-97.797
-97.8309
-97.5685
-97.5392
-100.31
-100.189
-100.067
-99.9196
-99.7745
-99.6241
-99.4745
-99.3163
-99.1645
-99.0127
-98.8657
-98.7216
-98.5849
-98.4545
-98.3312
-98.2176
-98.1151
-98.0205
-97.9272
-97.8447
-97.7629
-97.6708
-97.5405
-97.8036
-97.7553
-100.306
-100.439
-100.184
-100.062
-99.915
-99.7711
-99.6193
-99.4706
-99.3117
-99.1603
-99.0079
-98.8612
-98.7171
-98.5798
-98.4482
-98.3232
-98.209
-98.1093
-98.0039
-97.9377
-97.9445
-97.8683
-97.7949
-96.7472
-96.7565
-96.7798
-96.8534
-96.8766
-96.8727
-96.8646
-96.9843
-97.0098
-96.9689
-96.943
-96.9519
-97.1433
-97.1093
-97.0322
-97.0505
-97.0473