/*--------------------------------*- C++ -*----------------------------------*\
  =========                 |
  \\      /  F ield         | OpenFOAM: The Open Source CFD Toolbox
   \\    /   O peration     | Website:  https://openfoam.org
    \\  /    A nd           | Version:  7
     \\/     M anipulation  |
\*---------------------------------------------------------------------------*/
FoamFile
{
    version     2.0;
    format      ascii;
    class       volVectorField;
    location    "0.5";
    object      U;
}
// * * * * * * * * * * * * * * * * * * * * * * * * * * * * * * * * * * * * * //

dimensions      [0 1 -1 0 0 0 0];

internalField   nonuniform List<vector> 
18750
(
(1.40584 -0.0164629 -0.0676627)
(0.0272265 0.911911 0.0960039)
(1.30652 0.161067 -0.221617)
(1.40356 -0.0270182 -0.0742018)
(0.0220926 0.133858 0.0706419)
(-0.295826 0.770649 0.127387)
(0.0569935 0.909122 0.101423)
(1.06028 0.17551 -0.299607)
(1.29843 0.128109 -0.210956)
(1.37604 -0.0237739 -0.0872835)
(0.0492677 0.35598 0.023441)
(0.182313 0.129068 0.0828492)
(0.073928 0.180573 0.0662395)
(-0.258118 0.594019 0.128694)
(-0.253818 0.778192 0.133118)
(0.0829908 0.907215 0.100302)
(0.846326 0.172676 -0.390069)
(1.02746 0.184273 -0.277277)
(1.285 0.084915 -0.191296)
(1.33184 -0.111438 -0.0474898)
(-0.0144432 0.301385 0.0207294)
(0.0315628 0.365656 0.180263)
(0.0707265 0.37226 0.0277747)
(0.151555 0.291555 0.0322594)
(0.171329 0.112629 0.084906)
(0.107 0.183907 0.0542716)
(-0.0970713 0.497184 0.205013)
(-0.248022 0.619152 0.124916)
(-0.232332 0.785309 0.139096)
(0.128485 0.907838 0.0984586)
(0.68401 0.248726 -0.128079)
(0.840366 0.192792 -0.461284)
(1.01 0.186672 -0.297159)
(1.26091 0.052017 -0.193892)
(1.28658 -0.0984984 -0.0631862)
(0.0253133 0.367221 0.00550176)
(-0.0210614 0.27031 0.143273)
(0.00832414 0.300369 0.0342086)
(0.0220721 0.323875 0.250437)
(0.0504235 0.37338 0.17362)
(0.0872741 0.365235 0.0204289)
(-0.00521973 0.364695 0.237324)
(0.179882 0.254173 0.0591081)
(0.192861 0.0629311 0.0904132)
(0.158577 0.146661 0.0440377)
(-0.00344898 0.395756 0.300517)
(-0.101858 0.50704 0.22544)
(-0.250137 0.62043 0.137936)
(-0.197391 0.800164 0.136231)
(0.159494 0.902691 0.0961265)
(0.528826 0.205386 -0.127173)
(0.70786 0.247019 -0.112163)
(0.878065 0.194019 -0.457074)
(1.00075 0.184995 -0.278462)
(1.24341 0.078118 -0.210403)
(1.25821 -0.0227077 -0.0868985)
(-0.00228091 0.357539 0.00539489)
(0.0173485 0.36145 0.158857)
(0.0524146 0.364269 0.00173221)
(0.00250424 0.312591 0.182447)
(-0.00343 0.267523 0.125395)
(0.0232742 0.287298 0.0298179)
(0.0423147 0.261994 0.34554)
(0.0450801 0.335191 0.242793)
(0.0701393 0.374852 0.174872)
(0.112163 0.366381 0.012217)
(0.0171701 0.344666 0.360373)
(0.0431281 0.376751 0.214462)
(0.197992 0.228252 0.0711336)
(0.184161 0.0820255 0.0871932)
(0.173636 0.128379 0.0416786)
(0.00413017 0.296425 0.405324)
(0.0125707 0.393374 0.313725)
(-0.0846523 0.518726 0.23294)
(-0.214258 0.623479 0.142495)
(-0.157614 0.803709 0.132525)
(0.179812 0.876455 0.097202)
(0.253493 0.147457 0.306423)
(0.541534 0.20824 -0.136942)
(0.715644 0.244965 -0.11116)
(0.868589 0.184283 -0.381124)
(0.986003 0.189581 -0.293128)
(1.21928 0.0843192 -0.216905)
(1.24772 -0.0576424 -0.0516422)
(0.00205594 0.395644 0.00322527)
(-0.0126032 0.351817 0.15438)
(0.0242581 0.354415 0.00431822)
(0.0100621 0.373306 0.208186)
(0.0406126 0.348893 0.168016)
(0.0792878 0.358701 -0.000426182)
(-0.0208358 0.307947 0.304419)
(0.0158685 0.306162 0.174602)
(0.00747723 0.250912 0.127935)
(0.0359837 0.269553 0.0107596)
(0.0320989 0.234044 0.404536)
(0.0550618 0.263626 0.348787)
(0.0685185 0.339085 0.248257)
(0.0961496 0.381359 0.177858)
(0.134798 0.374647 0.0147019)
(0.0189125 0.295204 0.463264)
(0.0476657 0.32936 0.37183)
(0.0974523 0.365431 0.212166)
(0.212493 0.204596 0.0827584)
(0.206298 0.01012 0.0786632)
(0.214854 0.119737 0.0279288)
(0.0122777 0.251375 0.466809)
(0.0150122 0.314449 0.403964)
(0.0118702 0.39399 0.333558)
(-0.0825931 0.527238 0.238814)
(-0.186195 0.641099 0.132477)
(-0.129602 0.806113 0.136194)
(0.212992 0.843363 0.0958447)
(0.198913 0.107236 0.433529)
(0.261044 0.14677 0.30757)
(0.549622 0.205586 -0.119723)
(0.695793 0.242176 -0.0665593)
(0.860194 0.182885 -0.337177)
(0.977719 0.181984 -0.273379)
(1.19648 0.0805352 -0.223078)
(1.21502 -0.045764 -0.0884786)
(0.0112309 0.429355 0.0090635)
(-0.00550559 0.403893 0.170316)
(0.0280367 0.398153 0.00283255)
(-0.00911626 0.362942 0.203373)
(0.0145228 0.345131 0.157118)
(0.0491067 0.347181 0.00481323)
(-0.0209919 0.323436 0.347286)
(0.0409486 0.373477 0.20363)
(0.0646039 0.347776 0.16908)
(0.102106 0.350949 0.00288942)
(-0.0355302 0.31676 0.395955)
(0.0173698 0.305047 0.304288)
(0.0358484 0.294123 0.175211)
(0.0201101 0.238427 0.144784)
(0.0541645 0.264547 0.0102484)
(0.0239247 0.230146 0.471886)
(0.0469176 0.233298 0.405704)
(0.0790188 0.274207 0.340154)
(0.0892805 0.344995 0.257862)
(0.123128 0.382929 0.17556)
(0.15831 0.37356 0.0202095)
(-0.015588 0.231375 0.567607)
(0.0427 0.286362 0.460964)
(0.0775125 0.303202 0.394456)
(0.138837 0.35091 0.214808)
(0.225473 0.180961 0.0853014)
(0.195315 0.0457805 0.0829527)
(0.265171 0.13658 0.0153122)
(0.0133181 0.188234 0.587906)
(0.0225371 0.255248 0.476213)
(0.0222 0.32469 0.411679)
(0.036048 0.395286 0.33379)
(-0.0690326 0.517703 0.287282)
(-0.143167 0.659849 0.116548)
(-0.078634 0.817713 0.13468)
(0.236408 0.806512 0.0938307)
(0.17271 0.0865786 0.596981)
(0.202299 0.107157 0.434773)
(0.269395 0.145076 0.307643)
(0.55641 0.201212 -0.0803652)
(0.72079 0.232852 -0.0643955)
(0.865961 0.177742 -0.306661)
(0.970847 0.175607 -0.264819)
(1.16576 0.0488124 -0.211707)
(1.21068 -0.0577024 -0.0898499)
(0.018603 0.46989 0.0106057)
(0.00760174 0.450634 0.15931)
(0.0417142 0.424585 0.00856371)
(0.00197423 0.402562 0.228842)
(0.0247097 0.404048 0.169042)
(0.0567501 0.394799 0.00266302)
(2.0715e-05 0.370842 0.316507)
(0.0167222 0.361313 0.205706)
(0.0406437 0.341924 0.156949)
(0.0698303 0.337431 0.00532362)
(-0.00474574 0.310181 0.436314)
(-0.000340938 0.318065 0.352054)
(0.0712451 0.367309 0.204452)
(0.0874549 0.346687 0.164865)
(0.125343 0.342293 0.00101373)
(-0.0316435 0.306452 0.491292)
(-0.0144841 0.316605 0.393048)
(0.0417159 0.303487 0.304435)
(0.0547043 0.293364 0.175371)
(0.0383478 0.232996 0.144327)
(0.0756423 0.257995 0.0218665)
(0.0303091 0.21652 0.5685)
(0.0391224 0.230734 0.472692)
(0.0605861 0.237925 0.405757)
(0.104488 0.300992 0.319407)
(0.110008 0.350024 0.255174)
(0.145262 0.37549 0.165053)
(0.18138 0.366881 0.0138306)
(-0.0386465 0.192631 0.651135)
(-0.000121263 0.221867 0.566979)
(0.0618571 0.274921 0.464817)
(0.110562 0.304625 0.373341)
(0.167965 0.326386 0.216527)
(0.234347 0.15916 0.0876893)
(0.203851 -0.0442346 0.0623083)
(0.277396 0.1159 0.0102082)
(0.00693324 0.160545 0.709175)
(0.022461 0.191533 0.594434)
(0.0329897 0.258372 0.484707)
(0.0387252 0.341524 0.407349)
(0.0512847 0.398144 0.328996)
(-0.0795797 0.514009 0.300191)
(-0.138446 0.640943 0.124964)
(-0.0376811 0.808092 0.134599)
(0.255459 0.764603 0.0916938)
(0.13688 0.06527 0.706829)
(0.17499 0.0865689 0.598591)
(0.206653 0.106298 0.435643)
(0.275711 0.142479 0.309649)
(0.562688 0.196172 -0.0643767)
(0.728515 0.229223 -0.0631342)
(0.877445 0.168481 -0.290212)
(0.979762 0.167161 -0.257883)
(1.16265 0.0276756 -0.206244)
(1.18542 -0.0576663 -0.0828594)
(0.0226728 0.511398 0.0170773)
(0.0131509 0.50023 0.165436)
(0.0494231 0.466585 0.0105641)
(0.00479029 0.446985 0.229313)
(0.0362654 0.445646 0.161422)
(0.0702382 0.419691 0.00744544)
(0.00914107 0.409395 0.33943)
(0.0295384 0.405216 0.226847)
(0.0475419 0.400483 0.168529)
(0.0838305 0.388586 0.00254359)
(-0.00368263 0.368557 0.419961)
(0.0249516 0.371475 0.309918)
(0.0451936 0.3546 0.206982)
(0.0647399 0.338638 0.157527)
(0.0958081 0.330551 0.00528218)
(0.0078921 0.30426 0.522542)
(0.0185648 0.305699 0.437419)
(0.0258386 0.31407 0.356242)
(0.0964063 0.355059 0.21223)
(0.109147 0.339494 0.166083)
(0.147132 0.334149 -0.00240106)
(-0.0308418 0.290577 0.587905)
(-0.011452 0.305743 0.487944)
(-0.000292895 0.302794 0.399906)
(0.0735043 0.315476 0.295751)
(0.0709115 0.287577 0.175415)
(0.058692 0.227691 0.131254)
(0.089268 0.245289 0.0190824)
(0.0281026 0.205468 0.669122)
(0.0460144 0.218559 0.569357)
(0.055586 0.23716 0.469965)
(0.0805605 0.251376 0.397092)
(0.115674 0.294513 0.330395)
(0.128612 0.340306 0.256893)
(0.16542 0.365102 0.165754)
(0.209415 0.355043 0.00765982)
(-0.0422191 0.175278 0.749165)
(-0.0239658 0.188012 0.652306)
(0.0149499 0.209245 0.565921)
(0.0826101 0.264246 0.462621)
(0.140568 0.300013 0.35316)
(0.201191 0.29817 0.215477)
(0.246196 0.136763 0.082831)
(0.203399 -0.000564224 0.0622799)
(0.278851 0.0796379 0.00571016)
(-0.00137385 0.133552 0.818994)
(0.0152243 0.162917 0.714104)
(0.0325747 0.194072 0.599844)
(0.0481433 0.266285 0.483718)
(0.0499856 0.35257 0.405642)
(0.067424 0.390631 0.334833)
(-0.0418112 0.505951 0.320243)
(-0.101091 0.604488 0.151853)
(-0.0332934 0.760071 0.152532)
(0.27466 0.718197 0.08889)
(0.112423 0.0580794 0.810019)
(0.13968 0.0652991 0.708738)
(0.178458 0.0862802 0.599642)
(0.210059 0.105051 0.437143)
(0.282376 0.138762 0.311364)
(0.563557 0.187204 -0.0337232)
(0.720423 0.219371 -0.0278267)
(0.879 0.161717 -0.280616)
(0.966596 0.164186 -0.249411)
(1.14572 0.00383221 -0.202314)
(1.17013 -0.0673839 -0.0974833)
(0.0338333 0.557007 0.0238542)
(0.0218573 0.553665 0.162067)
(0.0579063 0.506885 0.0168783)
(0.016014 0.494608 0.238014)
(0.0500775 0.49742 0.163701)
(0.0821087 0.461221 0.0114636)
(0.00555784 0.452938 0.340492)
(0.0353217 0.443225 0.229355)
(0.068576 0.439789 0.162853)
(0.0992567 0.41289 0.00786911)
(0.0118833 0.403527 0.440694)
(0.0356321 0.408701 0.339289)
(0.0519622 0.400426 0.227268)
(0.0803595 0.394989 0.16854)
(0.109206 0.381083 0.0030507)
(-0.004777 0.361779 0.516518)
(0.0203258 0.367341 0.416169)
(0.0441787 0.368993 0.302885)
(0.0724291 0.350008 0.206419)
(0.0885812 0.330742 0.159072)
(0.118495 0.324856 0.00484272)
(0.0136702 0.300773 0.614589)
(0.0292735 0.298149 0.52373)
(0.0361392 0.305413 0.436869)
(0.0673612 0.352718 0.324793)
(0.119552 0.344204 0.21743)
(0.130442 0.328508 0.169589)
(0.168389 0.323495 -3.96826e-05)
(-0.0286437 0.271883 0.68526)
(-0.0125587 0.289269 0.587587)
(0.00613927 0.29316 0.491518)
(0.0226778 0.293942 0.404546)
(0.0987059 0.311426 0.292912)
(0.0879307 0.274083 0.175032)
(0.0670167 0.209817 0.13245)
(0.108011 0.23235 0.0142815)
(0.0195336 0.198882 0.770847)
(0.0409954 0.20629 0.668305)
(0.0611895 0.22669 0.564527)
(0.0722945 0.237261 0.47093)
(0.103518 0.252287 0.397593)
(0.129274 0.282049 0.338848)
(0.149664 0.330366 0.259786)
(0.190954 0.354867 0.156902)
(0.230771 0.346068 -0.00110107)
(-0.0347968 0.164002 0.845581)
(-0.0284583 0.172746 0.751956)
(-0.0108501 0.181713 0.651566)
(0.0299411 0.201135 0.562026)
(0.0990905 0.246883 0.467547)
(0.168291 0.287537 0.342838)
(0.22184 0.275439 0.208601)
(0.249971 0.112505 0.0816598)
(0.190116 -0.0900978 0.0694557)
(0.297542 0.0690703 0.00356012)
(-0.0100004 0.116119 0.922969)
(0.00544582 0.135116 0.823262)
(0.0244654 0.164145 0.717941)
(0.043844 0.197158 0.602657)
(0.0635003 0.26998 0.482967)
(0.0707231 0.359195 0.395773)
(0.0611887 0.377938 0.366443)
(-0.0225733 0.511956 0.334419)
(-0.0702863 0.59769 0.165343)
(-0.00978512 0.719686 0.162285)
(0.290913 0.669463 0.0855573)
(0.0917238 0.0545868 0.911259)
(0.114526 0.0580805 0.811066)
(0.141448 0.0654033 0.712403)
(0.181246 0.0853965 0.600968)
(0.214256 0.102945 0.438433)
(0.287872 0.134166 0.31435)
(0.569544 0.178906 -0.0151706)
(0.731256 0.207776 -0.0180219)
(0.889952 0.154386 -0.276643)
(0.965486 0.1591 -0.241516)
(1.13748 -0.0119725 -0.215717)
(1.17018 -0.0709809 -0.0972559)
(0.0477962 0.614795 0.0331261)
(0.0268823 0.606571 0.167804)
(0.0704088 0.552034 0.0228497)
(0.0193128 0.543254 0.248531)
(0.0578201 0.549705 0.162909)
(0.0926225 0.500751 0.0162254)
(0.020677 0.499757 0.346325)
(0.0514976 0.491053 0.238192)
(0.0832322 0.492951 0.162452)
(0.112427 0.454114 0.0112242)
(0.00659883 0.449104 0.444902)
(0.0367023 0.449319 0.340249)
(0.0688842 0.438188 0.228829)
(0.0978475 0.433837 0.161812)
(0.126158 0.404249 0.00816373)
(0.0142737 0.397226 0.532466)
(0.0399364 0.401484 0.439931)
(0.0620707 0.401988 0.341382)
(0.0829668 0.393923 0.228248)
(0.106842 0.392094 0.167757)
(0.136148 0.372347 0.00313417)
(-0.00454399 0.353712 0.616162)
(0.0184333 0.359416 0.514846)
(0.0447604 0.363149 0.41329)
(0.0684198 0.357102 0.315644)
(0.0974565 0.343 0.207142)
(0.110947 0.321583 0.159016)
(0.139433 0.312913 0.00451607)
(0.0148467 0.294544 0.708958)
(0.0339255 0.295511 0.615133)
(0.0480442 0.298329 0.521272)
(0.055302 0.310115 0.434201)
(0.100131 0.35291 0.320082)
(0.141004 0.33291 0.220748)
(0.152973 0.318155 0.167729)
(0.18775 0.311906 0.00134228)
(-0.0229738 0.257025 0.784506)
(-0.0103176 0.270098 0.686256)
(0.00536266 0.280406 0.590704)
(0.0241308 0.285296 0.493082)
(0.0511584 0.290131 0.401711)
(0.116737 0.296079 0.291639)
(0.0987159 0.254039 0.177809)
(0.0818911 0.195892 0.137586)
(0.125197 0.22394 0.0177697)
(0.0119115 0.192187 0.871794)
(0.0320135 0.197934 0.77128)
(0.0549911 0.210108 0.665681)
(0.075028 0.22328 0.565719)
(0.0881057 0.225228 0.480939)
(0.114448 0.229872 0.419703)
(0.1416 0.268189 0.351243)
(0.168801 0.312246 0.271612)
(0.213593 0.338506 0.165805)
(0.251836 0.329177 -0.00574711)
(-0.0300311 0.154092 0.941491)
(-0.0226805 0.163476 0.847958)
(-0.0149544 0.171795 0.745952)
(-0.00301754 0.175457 0.652302)
(0.0426338 0.193437 0.560102)
(0.121009 0.220755 0.468259)
(0.185526 0.258618 0.346243)
(0.248355 0.243882 0.206523)
(0.247257 0.0877285 0.0805052)
(0.202017 -0.0458832 0.0517097)
(0.297583 0.0464759 0.00450412)
(-0.0152128 0.104362 1.02582)
(-0.00399364 0.117323 0.926751)
(0.0131389 0.135762 0.826847)
(0.0336647 0.164737 0.722282)
(0.0565777 0.198266 0.60544)
(0.0802381 0.271967 0.481885)
(0.0824645 0.355149 0.394129)
(0.0854499 0.367882 0.373223)
(0.0122347 0.51066 0.340295)
(-0.00938323 0.60751 0.164113)
(0.0612855 0.713198 0.14698)
(0.299129 0.618064 0.0841482)
(0.0723621 0.0513004 1.02531)
(0.0943214 0.0546961 0.914828)
(0.116521 0.0579369 0.812812)
(0.145706 0.0642636 0.711935)
(0.184586 0.0841043 0.602065)
(0.217366 0.100491 0.440405)
(0.292342 0.128663 0.318172)
(0.574557 0.171406 -0.00403552)
(0.735064 0.185853 0.0139008)
(0.893493 0.150779 -0.273707)
(0.987143 0.15888 -0.254903)
(1.12733 -0.0150477 -0.21926)
(1.16432 -0.0788025 -0.10038)
(0.0714285 0.676538 0.0376119)
(0.0360373 0.66834 0.175078)
(0.0898006 0.608637 0.0306753)
(0.0280675 0.595098 0.259265)
(0.0737518 0.602582 0.16771)
(0.109037 0.545001 0.0240717)
(0.0206301 0.546059 0.353117)
(0.0580003 0.540551 0.247207)
(0.0952609 0.542515 0.163615)
(0.126202 0.492579 0.0161533)
(0.021867 0.495672 0.452935)
(0.0552077 0.495621 0.346277)
(0.0830038 0.485875 0.238431)
(0.116682 0.485823 0.162797)
(0.143229 0.444642 0.010798)
(0.00790223 0.441899 0.539872)
(0.0372313 0.445466 0.444621)
(0.0690859 0.444605 0.339021)
(0.0972104 0.431809 0.228338)
(0.127166 0.425386 0.16118)
(0.152769 0.393754 0.00830525)
(0.0152464 0.391216 0.62869)
(0.0414599 0.394496 0.531572)
(0.065674 0.39605 0.440508)
(0.0907358 0.398114 0.339238)
(0.108893 0.39101 0.227248)
(0.133932 0.383867 0.167047)
(0.161641 0.362535 0.00302886)
(-0.00351283 0.343535 0.716077)
(0.0182734 0.350899 0.615734)
(0.0429311 0.35423 0.514386)
(0.0719727 0.356226 0.413334)
(0.0958129 0.349355 0.31722)
(0.120285 0.331813 0.208364)
(0.131188 0.310349 0.159253)
(0.159088 0.300028 0.00434716)
(0.0140522 0.287925 0.804586)
(0.0340054 0.290142 0.709397)
(0.0530756 0.294487 0.613187)
(0.0659942 0.297191 0.518527)
(0.076482 0.304354 0.435428)
(0.130292 0.344612 0.319766)
(0.161937 0.321934 0.22152)
(0.171044 0.307898 0.166065)
(0.206815 0.298708 0.000506096)
(-0.0180026 0.244068 0.882791)
(-0.00820714 0.255071 0.786111)
(0.00673839 0.2648 0.687843)
(0.024335 0.274382 0.591659)
(0.0462538 0.283843 0.490667)
(0.0687213 0.288463 0.394276)
(0.12581 0.277893 0.293858)
(0.115145 0.241915 0.177439)
(0.0995769 0.187886 0.131897)
(0.139669 0.208739 0.0219032)
(0.00569671 0.186877 0.969368)
(0.0235811 0.190084 0.873138)
(0.0448222 0.198843 0.770812)
(0.0685266 0.208031 0.666186)
(0.0881895 0.216332 0.567262)
(0.100489 0.226633 0.480306)
(0.140624 0.255253 0.394273)
(0.154071 0.26086 0.359163)
(0.197082 0.306061 0.265476)
(0.230691 0.32143 0.171554)
(0.271662 0.310319 -0.0099406)
(-0.0265959 0.143157 1.04237)
(-0.0181535 0.154365 0.943414)
(-0.0113929 0.162978 0.845153)
(-0.00895438 0.167723 0.747496)
(0.0129153 0.168834 0.652118)
(0.0566792 0.179355 0.5602)
(0.153745 0.244633 0.426294)
(0.197121 0.239045 0.343359)
(0.260809 0.216688 0.205576)
(0.24375 0.0620724 0.0807284)
(0.174747 -0.107719 0.0576402)
(0.283841 0.0128046 0.00800332)
(-0.0186088 0.095099 1.12493)
(-0.00957501 0.105833 1.02918)
(0.00269554 0.117509 0.930406)
(0.0206181 0.136372 0.831582)
(0.0443765 0.163938 0.726535)
(0.0698381 0.198329 0.608509)
(0.0981895 0.271861 0.47601)
(0.0931272 0.345568 0.39914)
(0.102498 0.363379 0.36488)
(0.00218474 0.507468 0.334702)
(0.0106668 0.591677 0.152746)
(0.105041 0.697362 0.136584)
(0.308004 0.566297 0.0807849)
(0.0582111 0.0465801 1.12708)
(0.0753074 0.0514378 1.02567)
(0.0966321 0.0545627 0.91668)
(0.11932 0.0573605 0.814054)
(0.147119 0.0639619 0.713166)
(0.187313 0.0822801 0.603425)
(0.220931 0.097114 0.442271)
(0.296113 0.122358 0.322675)
(0.579888 0.162975 0.0100095)
(0.732866 0.169118 0.0377411)
(0.895429 0.148267 -0.265753)
(0.981802 0.163557 -0.252245)
(1.10736 -0.0200901 -0.221622)
(1.13668 -0.0890351 -0.109092)
(0.121594 0.728353 0.0394661)
(0.0427625 0.716304 0.181803)
(0.115998 0.669147 0.0330038)
(0.0356676 0.653194 0.274042)
(0.0854053 0.665314 0.177451)
(0.131454 0.600489 0.032575)
(0.0287591 0.594853 0.361087)
(0.071276 0.593943 0.257264)
(0.111472 0.595652 0.167099)
(0.145057 0.536379 0.0234062)
(0.02114 0.542098 0.461031)
(0.0590535 0.542214 0.352787)
(0.0929737 0.533128 0.247964)
(0.133306 0.534131 0.163074)
(0.158857 0.482043 0.0167584)
(0.0216869 0.487942 0.548528)
(0.05562 0.491591 0.452485)
(0.0873429 0.490029 0.345977)
(0.117791 0.478645 0.238102)
(0.147652 0.476312 0.163351)
(0.172805 0.433474 0.0106823)
(0.009237 0.43506 0.637083)
(0.0382649 0.438238 0.539581)
(0.0686178 0.4407 0.443667)
(0.0985487 0.437691 0.33857)
(0.12696 0.421963 0.22911)
(0.157807 0.414798 0.161659)
(0.178708 0.382006 0.00837109)
(0.0153116 0.383377 0.727253)
(0.0416039 0.388088 0.628)
(0.0673128 0.38901 0.531589)
(0.0908142 0.389454 0.440545)
(0.115747 0.39443 0.337632)
(0.135946 0.38264 0.226598)
(0.159709 0.37247 0.166516)
(0.185517 0.350067 0.00263558)
(-0.00246359 0.335137 0.814246)
(0.0191017 0.340721 0.715933)
(0.0419737 0.346369 0.615721)
(0.0682209 0.348319 0.513651)
(0.0968388 0.350277 0.411093)
(0.122203 0.339575 0.317355)
(0.141592 0.31954 0.209091)
(0.151511 0.298363 0.159399)
(0.178679 0.28713 0.00433285)
(0.0105581 0.276913 0.900704)
(0.0324854 0.284625 0.804681)
(0.0529248 0.287572 0.70843)
(0.0708116 0.291395 0.611476)
(0.0840869 0.291667 0.517902)
(0.0940825 0.294205 0.437019)
(0.153577 0.331103 0.321505)
(0.18036 0.309357 0.223544)
(0.190762 0.294961 0.166763)
(0.225523 0.28491 -0.000711437)
(-0.0146416 0.237493 0.979291)
(-0.00308994 0.241947 0.88475)
(0.0097787 0.250651 0.787566)
(0.0239576 0.258977 0.689197)
(0.0431979 0.271203 0.590984)
(0.0651399 0.280847 0.488786)
(0.104772 0.27196 0.389596)
(0.14254 0.265587 0.294513)
(0.12918 0.231817 0.175486)
(0.110553 0.17671 0.128189)
(0.152699 0.193885 0.0206638)
(0.00101458 0.177208 1.0659)
(0.0171752 0.184859 0.97108)
(0.0367567 0.189732 0.873306)
(0.0586138 0.197133 0.770695)
(0.0797808 0.202866 0.666861)
(0.0996081 0.213447 0.566914)
(0.115143 0.220976 0.479652)
(0.153235 0.24223 0.400098)
(0.168178 0.254934 0.364582)
(0.218375 0.294598 0.263229)
(0.252605 0.301095 0.172712)
(0.290051 0.291788 -0.0123547)
(-0.0238328 0.135085 1.14127)
(-0.0163078 0.143126 1.04428)
(-0.0074697 0.154556 0.943002)
(-0.00478988 0.15839 0.849728)
(0.0064424 0.160722 0.750923)
(0.0228902 0.164192 0.650525)
(0.0753243 0.182937 0.544584)
(0.175531 0.23268 0.421986)
(0.213708 0.223004 0.335636)
(0.27955 0.181805 0.202552)
(0.237585 0.0413652 0.0797661)
(0.170494 -0.0966772 0.0602938)
(0.278873 -0.00392393 0.0110974)
(-0.0209831 0.0873769 1.22194)
(-0.0123433 0.0971147 1.12683)
(-0.0030264 0.106409 1.03158)
(0.0091682 0.118246 0.934825)
(0.0293824 0.135529 0.836011)
(0.054934 0.16248 0.730783)
(0.0835576 0.196957 0.611892)
(0.113351 0.265554 0.478804)
(0.100134 0.336826 0.406942)
(0.114334 0.355974 0.364416)
(0.0261366 0.455049 0.393887)
(0.0236254 0.535388 0.183743)
(0.109648 0.635578 0.144261)
(0.316765 0.513227 0.0731182)
(0.0463729 0.0417098 1.22208)
(0.0603192 0.0469091 1.12689)
(0.0776889 0.0513628 1.02643)
(0.0994777 0.0541322 0.918204)
(0.121979 0.0565594 0.815553)
(0.150101 0.06296 0.708938)
(0.190543 0.0798823 0.604652)
(0.22343 0.0934592 0.444776)
(0.299073 0.115481 0.327946)
(0.579481 0.152917 0.0389076)
(0.730298 0.149955 0.058942)
(0.925077 0.135205 -0.282558)
(0.996631 0.15653 -0.259484)
(1.13625 -0.00165691 -0.249812)
(1.11737 -0.114432 -0.112123)
(0.440162 0.802027 0.0444939)
(0.135143 0.76484 0.195547)
(0.163067 0.718463 0.0293118)
(0.0420016 0.697848 0.286372)
(0.0981437 0.716616 0.184753)
(0.162442 0.658598 0.0363063)
(0.0360046 0.65086 0.370044)
(0.080739 0.655262 0.268747)
(0.127828 0.65667 0.175637)
(0.170831 0.590768 0.031104)
(0.0285875 0.589653 0.469973)
(0.072703 0.590817 0.361844)
(0.109054 0.583983 0.259004)
(0.152993 0.587047 0.167046)
(0.18083 0.524082 0.0237054)
(0.0217042 0.533619 0.557961)
(0.0595326 0.538221 0.460291)
(0.0947979 0.535327 0.352506)
(0.13134 0.525223 0.247273)
(0.169149 0.523408 0.162564)
(0.19128 0.469952 0.0170193)
(0.0212779 0.480566 0.645288)
(0.0547813 0.483866 0.548054)
(0.0876997 0.485576 0.452211)
(0.121163 0.482117 0.345822)
(0.14709 0.469397 0.238093)
(0.180759 0.464323 0.162886)
(0.200694 0.420407 0.0110685)
(0.0104682 0.427077 0.736566)
(0.0394859 0.431399 0.636802)
(0.0685513 0.433532 0.538896)
(0.0988456 0.434223 0.442765)
(0.129074 0.428179 0.338748)
(0.157886 0.411526 0.229067)
(0.184251 0.402943 0.161818)
(0.203798 0.368434 0.00832304)
(0.0151999 0.378262 0.824267)
(0.0405736 0.380055 0.726839)
(0.0669664 0.382373 0.62791)
(0.0925658 0.382 0.531353)
(0.115989 0.382411 0.439979)
(0.141776 0.385436 0.337253)
(0.160251 0.370926 0.226931)
(0.184239 0.359869 0.166769)
(0.208064 0.336047 0.00241582)
(-0.00150321 0.319492 0.91127)
(0.0202407 0.33233 0.81413)
(0.0424998 0.337016 0.715716)
(0.0656185 0.340885 0.615396)
(0.0917109 0.340964 0.51275)
(0.123541 0.342075 0.409058)
(0.143871 0.327707 0.318098)
(0.161892 0.307142 0.209892)
(0.171601 0.2859 0.159291)
(0.196866 0.273242 0.00431395)
(0.00865388 0.276752 0.995682)
(0.0294105 0.273832 0.900964)
(0.0509888 0.280986 0.804349)
(0.0705637 0.283494 0.707689)
(0.088944 0.285406 0.611095)
(0.100605 0.283631 0.517999)
(0.112909 0.285051 0.437265)
(0.178067 0.317011 0.322155)
(0.200479 0.296326 0.225275)
(0.207761 0.281562 0.167835)
(0.242231 0.270174 -0.000107508)
(-0.0122176 0.221443 1.07688)
(0.00102325 0.234872 0.98152)
(0.0135979 0.238047 0.885918)
(0.0255593 0.246184 0.788201)
(0.040804 0.253666 0.690154)
(0.0626716 0.266589 0.590219)
(0.0879514 0.274925 0.485979)
(0.122487 0.258272 0.392697)
(0.156287 0.255973 0.292498)
(0.142178 0.216836 0.17457)
(0.122056 0.162598 0.129736)
(0.165323 0.179118 0.018347)
(-0.00201615 0.171501 1.15995)
(0.0121735 0.175996 1.0672)
(0.0297215 0.18368 0.971546)
(0.0498559 0.188521 0.872371)
(0.069491 0.192741 0.771228)
(0.0912989 0.197388 0.667658)
(0.110869 0.205047 0.568647)
(0.132158 0.207371 0.482943)
(0.163908 0.232665 0.40485)
(0.181949 0.246667 0.369787)
(0.23985 0.279094 0.264242)
(0.269914 0.284051 0.173659)
(0.305448 0.273288 -0.0140711)
(-0.0215895 0.127246 1.23781)
(-0.0132727 0.134393 1.14297)
(-0.00522497 0.144095 1.04281)
(-0.000168963 0.151241 0.948351)
(0.00860169 0.153513 0.853253)
(0.0149366 0.15883 0.750451)
(0.0376291 0.158207 0.646958)
(0.0896702 0.163515 0.54647)
(0.184458 0.206021 0.428842)
(0.225348 0.203417 0.333463)
(0.282091 0.157889 0.196646)
(0.227405 0.0191976 0.0787832)
(0.14884 -0.128685 0.0592744)
(0.279997 -0.0132553 0.0139566)
(-0.0219626 0.0797362 1.31567)
(-0.0141428 0.0893146 1.22319)
(-0.0061688 0.0985463 1.12586)
(0.00264899 0.106821 1.03403)
(0.0164481 0.117876 0.938409)
(0.0372101 0.132678 0.839858)
(0.0663984 0.159237 0.737613)
(0.0980246 0.190723 0.619067)
(0.120385 0.250293 0.492577)
(0.109837 0.326051 0.424297)
(0.139466 0.345168 0.362679)
(0.0346901 0.443288 0.399861)
(0.0775453 0.504322 0.206383)
(0.0573281 0.538415 0.177745)
(0.320458 0.458406 0.0595598)
(0.035618 0.0382707 1.31813)
(0.0485983 0.0420558 1.22193)
(0.0634758 0.0469475 1.1266)
(0.0806721 0.0510445 1.02684)
(0.102404 0.0531558 0.919426)
(0.124547 0.0554511 0.817118)
(0.154449 0.0616559 0.701707)
(0.192713 0.0772589 0.606059)
(0.226029 0.0890311 0.447195)
(0.301956 0.108115 0.333148)
(0.582901 0.138287 0.0660803)
(0.732065 0.13098 0.0770525)
(0.935503 0.119403 -0.273864)
(1.00666 0.138225 -0.255014)
(1.13757 -0.0144736 -0.250605)
(1.11281 -0.116221 -0.117008)
(0.967884 0.828807 0.0489188)
(0.775883 0.806299 0.223332)
(0.463416 0.777399 0.0314783)
(0.139607 0.733414 0.30734)
(0.184431 0.7605 0.209)
(0.219045 0.703926 0.0366099)
(0.0421338 0.693813 0.376202)
(0.0897455 0.70257 0.280015)
(0.141012 0.705422 0.181434)
(0.203295 0.648429 0.0343088)
(0.0336157 0.642731 0.478836)
(0.0797064 0.646691 0.371428)
(0.12275 0.641234 0.273656)
(0.173308 0.648169 0.176281)
(0.209848 0.575378 0.0327192)
(0.0293102 0.581185 0.567731)
(0.0725166 0.585579 0.469444)
(0.109521 0.583403 0.36072)
(0.150027 0.577038 0.257737)
(0.190162 0.573942 0.167217)
(0.21555 0.51141 0.0239328)
(0.0219052 0.525527 0.65395)
(0.0597003 0.529574 0.557333)
(0.0948095 0.531041 0.460346)
(0.132962 0.526647 0.352391)
(0.16543 0.514336 0.247662)
(0.204104 0.511002 0.161995)
(0.221645 0.455707 0.0176876)
(0.020876 0.472328 0.745521)
(0.053891 0.476402 0.644867)
(0.0865199 0.477738 0.547761)
(0.120813 0.477534 0.451945)
(0.1513 0.472368 0.345532)
(0.179884 0.45751 0.237943)
(0.211 0.450934 0.162762)
(0.22884 0.405553 0.0109452)
(0.0120703 0.423407 0.833531)
(0.0404866 0.423594 0.736245)
(0.0687509 0.426803 0.636216)
(0.0978523 0.426872 0.538243)
(0.128348 0.425423 0.442482)
(0.15944 0.417615 0.338497)
(0.184482 0.399761 0.228444)
(0.210707 0.388706 0.161239)
(0.22695 0.353412 0.00853802)
(0.013603 0.359869 0.921114)
(0.0393986 0.374776 0.824004)
(0.0653678 0.374116 0.726831)
(0.0923624 0.375589 0.627638)
(0.117249 0.374601 0.530554)
(0.140457 0.372896 0.440001)
(0.168224 0.373888 0.337203)
(0.185677 0.357899 0.227067)
(0.207912 0.346453 0.166923)
(0.230116 0.320988 0.00265944)
(0.000966805 0.323762 1.00601)
(0.0205814 0.316988 0.911092)
(0.0432289 0.32919 0.813749)
(0.0649429 0.331792 0.715313)
(0.0882853 0.333058 0.615211)
(0.115828 0.331896 0.512061)
(0.146035 0.332258 0.407986)
(0.168495 0.315428 0.317945)
(0.181809 0.293923 0.210473)
(0.189941 0.272464 0.159278)
(0.213818 0.258186 0.00420624)
(0.00613564 0.257875 1.0929)
(0.0279182 0.273671 0.996018)
(0.0467169 0.269989 0.900844)
(0.0687148 0.276338 0.804064)
(0.0887264 0.277528 0.70753)
(0.106001 0.277653 0.611298)
(0.119847 0.275663 0.517431)
(0.130812 0.278714 0.437304)
(0.199987 0.305889 0.321652)
(0.217924 0.283239 0.226206)
(0.226549 0.2671 0.166897)
(0.257898 0.254198 0.000534793)
(-0.00859474 0.215943 1.17061)
(0.00269941 0.219129 1.07927)
(0.0171524 0.231356 0.98262)
(0.0283381 0.234023 0.886381)
(0.0424835 0.241231 0.788798)
(0.0589396 0.248481 0.690156)
(0.0821981 0.261474 0.588265)
(0.104889 0.266645 0.484362)
(0.145643 0.244756 0.392438)
(0.16964 0.241578 0.291665)
(0.154602 0.201106 0.175417)
(0.133738 0.15305 0.131168)
(0.176609 0.16399 0.0177809)
(-0.00368117 0.164318 1.25375)
(0.00894549 0.170662 1.16023)
(0.0240892 0.174319 1.06811)
(0.0426664 0.18232 0.970039)
(0.0605621 0.184227 0.872848)
(0.0810141 0.186581 0.772423)
(0.101676 0.190247 0.669115)
(0.122276 0.196495 0.570595)
(0.146563 0.198804 0.484018)
(0.175374 0.221454 0.410045)
(0.197482 0.238519 0.373859)
(0.25901 0.264416 0.264138)
(0.285494 0.261678 0.17384)
(0.317819 0.251681 -0.0150163)
(-0.0191423 0.118081 1.33075)
(-0.0101181 0.126768 1.23886)
(-0.00521898 0.13491 1.14194)
(0.00298606 0.142354 1.04502)
(0.0113726 0.147434 0.950792)
(0.0192375 0.15398 0.849339)
(0.0276391 0.154076 0.751034)
(0.0447914 0.144796 0.647043)
(0.109713 0.159401 0.53924)
(0.192216 0.182692 0.43118)
(0.23573 0.182535 0.331717)
(0.287903 0.125957 0.195979)
(0.213233 0.0020857 0.080558)
(0.142004 -0.121619 0.0583303)
(0.280247 -0.0196931 0.0163135)
(-0.0226435 0.0750771 1.40525)
(-0.0154041 0.0812778 1.3167)
(-0.0089822 0.0908512 1.22106)
(-0.000732495 0.0986684 1.12691)
(0.00867662 0.106679 1.03751)
(0.0229771 0.115076 0.941361)
(0.0448605 0.128207 0.846397)
(0.0779001 0.155511 0.742102)
(0.101513 0.172756 0.625817)
(0.124193 0.222464 0.508267)
(0.120952 0.314686 0.442233)
(0.14783 0.336679 0.362653)
(0.0414083 0.423323 0.426905)
(0.119851 0.490398 0.20075)
(0.0360628 0.459012 0.195315)
(0.314424 0.402368 0.0406814)
(0.0287165 0.0339103 1.40919)
(0.0381448 0.03864 1.31814)
(0.0510843 0.0422702 1.22196)
(0.0648661 0.0470063 1.12836)
(0.0831545 0.0505223 1.02743)
(0.105076 0.0521045 0.920978)
(0.12733 0.0541617 0.818159)
(0.157273 0.060578 0.704615)
(0.195164 0.073815 0.607221)
(0.228971 0.084891 0.449308)
(0.30517 0.101528 0.338009)
(0.578468 0.132659 0.0846568)
(0.733175 0.114624 0.0923861)
(0.923259 0.103833 -0.236865)
(0.970234 0.114835 -0.221797)
(1.09868 -0.0434764 -0.241339)
(1.09837 -0.129061 -0.120248)
(1.29407 0.80541 0.021319)
(1.3958 0.779802 0.175231)
(0.992566 0.792597 0.0407785)
(0.943645 0.742158 0.282757)
(0.829627 0.758413 0.237776)
(0.548201 0.734183 0.0387186)
(0.144209 0.725141 0.389268)
(0.201667 0.746069 0.30016)
(0.251829 0.746314 0.200565)
(0.257535 0.693794 0.0331708)
(0.0395302 0.68156 0.485704)
(0.0866995 0.687824 0.379108)
(0.133236 0.68484 0.288096)
(0.189688 0.69865 0.181878)
(0.24626 0.62669 0.0362058)