/*--------------------------------*- C++ -*----------------------------------*\
  =========                 |
  \\      /  F ield         | OpenFOAM: The Open Source CFD Toolbox
   \\    /   O peration     | Website:  https://openfoam.org
    \\  /    A nd           | Version:  7
     \\/     M anipulation  |
\*---------------------------------------------------------------------------*/
FoamFile
{
    version     2.0;
    format      ascii;
    class       volVectorField;
    location    "0.5";
    object      U_0;
}
// * * * * * * * * * * * * * * * * * * * * * * * * * * * * * * * * * * * * * //

dimensions      [0 1 -1 0 0 0 0];

internalField   nonuniform List<vector> 
18750
(
(1.36725 -0.0385469 -0.0554961)
(0.0274472 0.906927 0.0972262)
(1.34806 0.189814 -0.23409)
(1.38272 -0.0321601 -0.0592645)
(0.0218318 0.133002 0.0707131)
(-0.297888 0.770591 0.128597)
(0.0564199 0.90536 0.102641)
(1.04685 0.195564 -0.322178)
(1.29285 0.144214 -0.209984)
(1.34312 -0.01288 -0.0850399)
(0.0494091 0.355716 0.0236208)
(0.182954 0.130218 0.0825493)
(0.0737753 0.179745 0.0663928)
(-0.258295 0.596633 0.128053)
(-0.256256 0.777416 0.135315)
(0.0825855 0.904403 0.101255)
(0.856096 0.170399 -0.381349)
(1.03707 0.202136 -0.311032)
(1.27748 0.0951548 -0.186546)
(1.32944 -0.0705809 -0.0578592)
(-0.0144547 0.301106 0.020641)
(0.0316741 0.365415 0.180114)
(0.0708854 0.37197 0.0279723)
(0.151049 0.291793 0.0324253)
(0.172086 0.113184 0.0847246)
(0.106201 0.18328 0.0545644)
(-0.0973119 0.497524 0.204033)
(-0.24694 0.623065 0.123959)
(-0.232279 0.785357 0.140552)
(0.12823 0.90484 0.0996065)
(0.685692 0.248817 -0.131281)
(0.839057 0.18887 -0.443864)
(1.01243 0.189015 -0.296265)
(1.2651 0.078729 -0.192556)
(1.27679 -0.131793 -0.0470164)
(0.0253527 0.367071 0.00556525)
(-0.0210562 0.270184 0.143317)
(0.0083262 0.300157 0.0342337)
(0.022005 0.323496 0.250397)
(0.0505416 0.37315 0.173531)
(0.0874432 0.36496 0.0206113)
(-0.00581889 0.364882 0.237011)
(0.179609 0.254886 0.0589318)
(0.193529 0.0638157 0.0901073)
(0.157835 0.145326 0.0442933)
(-0.0034777 0.395584 0.300328)
(-0.102095 0.50749 0.224356)
(-0.249048 0.623605 0.137394)
(-0.199186 0.799993 0.137805)
(0.159542 0.899663 0.0971891)
(0.527808 0.204727 -0.122195)
(0.705384 0.247698 -0.110318)
(0.878412 0.196077 -0.465991)
(1.01064 0.176839 -0.262703)
(1.24674 0.0913984 -0.205059)
(1.2359 -0.037155 -0.0977389)
(-0.00221736 0.357374 0.00543393)
(0.0174097 0.361287 0.158749)
(0.0524481 0.364116 0.00183122)
(0.00248887 0.312363 0.182471)
(-0.00344839 0.267398 0.125312)
(0.0231914 0.287018 0.0298015)
(0.0421555 0.262226 0.345062)
(0.0450353 0.334861 0.242765)
(0.0703053 0.374629 0.174813)
(0.112362 0.366112 0.0124416)
(0.0168679 0.344759 0.360125)
(0.0426649 0.376668 0.214669)
(0.197846 0.228845 0.0709766)
(0.184706 0.0821515 0.0871767)
(0.172857 0.12719 0.042046)
(0.00412704 0.295815 0.405209)
(0.0123999 0.393331 0.313383)
(-0.084793 0.519313 0.231584)
(-0.214522 0.625826 0.142815)
(-0.157886 0.803879 0.134313)
(0.178966 0.873446 0.0981439)
(0.253503 0.147258 0.306006)
(0.539645 0.208756 -0.135241)
(0.713725 0.245368 -0.108953)
(0.877332 0.18773 -0.410325)
(0.99998 0.186424 -0.290431)
(1.20851 0.0807577 -0.199833)
(1.22559 -0.0757794 -0.0428206)
(0.00209809 0.395491 0.00326079)
(-0.0124965 0.351621 0.154265)
(0.0242963 0.354242 0.00436373)
(0.0100983 0.373096 0.208131)
(0.0406514 0.348728 0.167881)
(0.0793033 0.358558 -0.000344582)
(-0.0205177 0.307754 0.304286)
(0.0158379 0.305893 0.174657)
(0.00746999 0.250778 0.12792)
(0.0359368 0.269318 0.0107917)
(0.0320464 0.233901 0.404336)
(0.0551071 0.26387 0.348119)
(0.0684913 0.338795 0.248277)
(0.0963845 0.381231 0.177972)
(0.134952 0.374362 0.014972)
(0.018645 0.295116 0.463123)
(0.0473644 0.329376 0.371621)
(0.0968476 0.36572 0.211909)
(0.212354 0.205058 0.0826017)
(0.206633 0.0105058 0.0786813)
(0.213797 0.118351 0.0283933)
(0.0125423 0.251113 0.466335)
(0.0150296 0.313821 0.40384)
(0.0119715 0.3936 0.333159)
(-0.0830706 0.527725 0.238294)
(-0.182781 0.645512 0.130527)
(-0.128179 0.807691 0.137497)
(0.210908 0.840508 0.0970028)
(0.198783 0.107015 0.433162)
(0.260984 0.146591 0.30723)
(0.549821 0.205338 -0.119637)
(0.694823 0.242857 -0.0664806)
(0.862794 0.18529 -0.35361)
(0.999164 0.185567 -0.284173)
(1.19461 0.0746178 -0.213428)
(1.22036 -0.0480019 -0.0689753)
(0.0112468 0.429178 0.00906178)
(-0.00542096 0.403667 0.170201)
(0.0280643 0.397989 0.0028751)
(-0.00905017 0.362758 0.203286)
(0.0145968 0.344953 0.156993)
(0.0491277 0.347005 0.00485678)
(-0.0210079 0.323316 0.347106)
(0.040935 0.373243 0.20357)
(0.0646223 0.347619 0.168959)
(0.102106 0.350817 0.00294991)
(-0.0354435 0.316663 0.395642)
(0.0174449 0.304852 0.304127)
(0.0357705 0.293905 0.17525)
(0.0201404 0.238442 0.144673)
(0.0540754 0.264385 0.0101701)
(0.0239709 0.229951 0.471695)
(0.0469358 0.233157 0.405489)
(0.0787898 0.273809 0.340332)
(0.08947 0.345034 0.257592)
(0.123305 0.382797 0.175705)
(0.158455 0.373282 0.020435)
(-0.0160308 0.231184 0.567353)
(0.0423591 0.286311 0.460733)
(0.077245 0.303529 0.393898)
(0.138419 0.351075 0.214773)
(0.225273 0.181332 0.085237)
(0.195429 0.0456334 0.0832358)
(0.264033 0.135044 0.0157467)
(0.0135363 0.18795 0.587579)
(0.0227765 0.254966 0.475795)
(0.0222078 0.324084 0.411464)
(0.0360997 0.395118 0.332987)
(-0.0684425 0.518388 0.286528)
(-0.141028 0.662851 0.115545)
(-0.0782055 0.819596 0.135855)
(0.233925 0.804124 0.0947534)
(0.172552 0.0863218 0.596429)
(0.202158 0.106962 0.434407)
(0.269341 0.144886 0.307308)
(0.55569 0.201336 -0.0800879)
(0.718637 0.232101 -0.0572467)
(0.86751 0.179669 -0.31648)
(0.97095 0.170512 -0.256456)
(1.19043 0.0636021 -0.212453)
(1.18949 -0.0477354 -0.0874793)
(0.0186297 0.469679 0.0105939)
(0.00763642 0.450347 0.159224)
(0.0417183 0.424416 0.00856482)
(0.00204097 0.402386 0.228651)
(0.0247366 0.403841 0.168922)
(0.0567639 0.394628 0.00271258)
(9.36956e-06 0.370631 0.316355)
(0.0167681 0.361138 0.205584)
(0.0406853 0.341749 0.156835)
(0.0698547 0.337271 0.00536517)
(-0.00469005 0.310073 0.436081)
(-0.000326726 0.317977 0.351855)
(0.0711867 0.3671 0.20439)
(0.0874677 0.346533 0.16477)
(0.125326 0.342158 0.00106478)
(-0.031585 0.306305 0.490952)
(-0.0144481 0.316499 0.392709)
(0.0418109 0.303321 0.304263)
(0.0546692 0.293263 0.175352)
(0.0383088 0.232911 0.144393)
(0.075543 0.257795 0.0218652)
(0.0304171 0.21633 0.568378)
(0.0391801 0.230548 0.472509)
(0.0606067 0.237821 0.405539)
(0.10442 0.300885 0.319161)
(0.110154 0.350053 0.254918)
(0.145388 0.37535 0.165264)
(0.181457 0.366665 0.014055)
(-0.0387535 0.192544 0.650636)
(-0.000407026 0.221683 0.566669)
(0.0615157 0.274847 0.464554)
(0.110336 0.304829 0.372976)
(0.167528 0.326762 0.216398)
(0.234478 0.159586 0.0874758)
(0.203817 -0.0444969 0.0627334)
(0.276226 0.114489 0.0106143)
(0.00702519 0.160254 0.708889)
(0.0226731 0.191248 0.594099)
(0.0332126 0.258088 0.484306)
(0.0386584 0.341143 0.406876)
(0.0510309 0.397805 0.328617)
(-0.0784458 0.515134 0.298439)
(-0.139138 0.641534 0.126396)
(-0.0378371 0.807935 0.136342)
(0.253026 0.762552 0.0924975)
(0.136756 0.0651148 0.706006)
(0.174834 0.0863034 0.598043)
(0.206511 0.106106 0.435275)
(0.275629 0.142283 0.309328)
(0.561791 0.196112 -0.0610486)
(0.728324 0.228676 -0.0602652)
(0.87855 0.167249 -0.287746)
(0.989134 0.158047 -0.251868)
(1.1665 0.0348428 -0.202535)
(1.17806 -0.0519929 -0.0791464)
(0.0226757 0.511162 0.0170162)
(0.0131847 0.499896 0.165308)
(0.0494335 0.466373 0.0105493)
(0.00483261 0.446748 0.229147)
(0.0362739 0.445362 0.161339)
(0.0702252 0.419526 0.00744499)
(0.00921939 0.409203 0.339196)
(0.0295803 0.405036 0.226675)
(0.0475889 0.40026 0.168411)
(0.0838217 0.388423 0.00259247)
(-0.00366284 0.368351 0.419744)
(0.0249291 0.371204 0.309803)
(0.0452501 0.35446 0.206839)
(0.0647686 0.338456 0.157418)
(0.0958136 0.330398 0.00532483)
(0.00794001 0.30417 0.522237)
(0.0186183 0.305595 0.437181)
(0.0258626 0.314005 0.356012)
(0.0963526 0.354936 0.212109)
(0.109167 0.339341 0.166001)
(0.14711 0.334 -0.00233998)
(-0.0307869 0.290402 0.587567)
(-0.0114204 0.305593 0.48761)
(-0.000219114 0.302652 0.399602)
(0.0734496 0.315259 0.295642)
(0.0709089 0.287543 0.175353)
(0.0586661 0.227603 0.131228)
(0.0891473 0.245062 0.0190346)
(0.0280441 0.205391 0.668836)
(0.0460597 0.218434 0.569082)
(0.0556559 0.237066 0.469722)
(0.0805623 0.251223 0.396876)
(0.115646 0.294395 0.33015)
(0.128718 0.34029 0.256686)
(0.165512 0.364953 0.16595)
(0.209407 0.354813 0.00786756)
(-0.0421701 0.175184 0.748777)
(-0.0240783 0.187911 0.651932)
(0.0146218 0.209114 0.565579)
(0.0822999 0.264104 0.462407)
(0.140354 0.300248 0.352763)
(0.200879 0.298627 0.215327)
(0.246243 0.137356 0.0826066)
(0.203144 -0.000613099 0.0625516)
(0.277328 0.0783265 0.00611322)
(-0.00134109 0.133335 0.818703)
(0.0153025 0.162615 0.713812)
(0.0327851 0.193779 0.599505)
(0.0483553 0.266034 0.483262)
(0.0503364 0.352107 0.404819)
(0.0670445 0.390057 0.334835)
(-0.0423151 0.506816 0.320206)
(-0.0964996 0.606491 0.152879)
(-0.0340662 0.759443 0.15469)
(0.272055 0.716425 0.0898115)
(0.112268 0.0580177 0.809209)
(0.139429 0.0651671 0.708004)
(0.178283 0.0860275 0.599107)
(0.209909 0.104865 0.436773)
(0.282245 0.138603 0.311046)
(0.562047 0.187655 -0.03387)
(0.716941 0.22065 -0.0248834)
(0.884703 0.160341 -0.285587)
(0.979587 0.161497 -0.251999)
(1.14382 -0.00405516 -0.188379)
(1.18143 -0.0597489 -0.0907716)
(0.0337663 0.556662 0.0237415)
(0.0218824 0.553291 0.161943)
(0.0578872 0.506651 0.0168247)
(0.0160594 0.494352 0.237766)
(0.0500921 0.497079 0.163581)
(0.0820958 0.461012 0.011447)
(0.00560047 0.452692 0.340273)
(0.0353431 0.443003 0.229178)
(0.0685531 0.439506 0.162766)
(0.0992279 0.412725 0.007866)
(0.0119556 0.403365 0.440385)
(0.0357099 0.408509 0.339046)
(0.0520089 0.400247 0.227105)
(0.0803611 0.394764 0.168433)
(0.109213 0.380932 0.00309069)
(-0.00473629 0.361582 0.516257)
(0.0203233 0.367108 0.415977)
(0.0441643 0.368715 0.3028)
(0.0724527 0.349885 0.206279)
(0.0885906 0.330562 0.158959)
(0.118484 0.324693 0.00488549)
(0.0136856 0.300689 0.614242)
(0.0293122 0.298074 0.523417)
(0.0361932 0.305333 0.436608)
(0.0673384 0.35251 0.324682)
(0.119509 0.344096 0.217305)
(0.130449 0.328356 0.169511)
(0.168354 0.323356 3.12684e-05)
(-0.0285047 0.271716 0.684901)
(-0.0125019 0.289094 0.587268)
(0.00617393 0.293018 0.491191)
(0.0227138 0.293796 0.404219)
(0.0986275 0.311207 0.292812)
(0.0879285 0.274034 0.174965)
(0.0669737 0.209723 0.132465)
(0.107877 0.23212 0.0142091)
(0.0194493 0.198819 0.770519)
(0.0409185 0.206186 0.668017)
(0.061206 0.226546 0.564235)
(0.0723551 0.237103 0.470724)
(0.103531 0.252096 0.397378)
(0.129261 0.281894 0.338655)
(0.14976 0.330309 0.259668)
(0.190995 0.354697 0.15703)
(0.230667 0.34584 -0.000928677)
(-0.0346959 0.16393 0.845166)
(-0.0284334 0.172691 0.751539)
(-0.0109409 0.181652 0.651117)
(0.0295821 0.201026 0.561689)
(0.0986787 0.246924 0.46714)
(0.168077 0.287819 0.342405)
(0.221635 0.275933 0.208387)
(0.249922 0.11286 0.0815866)
(0.189425 -0.0906625 0.0699436)
(0.297073 0.0683061 0.00386649)
(-0.00996655 0.115965 0.922646)
(0.0054659 0.134886 0.822966)
(0.0245281 0.163835 0.717662)
(0.0440414 0.196836 0.602347)
(0.0637447 0.269722 0.482487)
(0.070618 0.359265 0.394838)
(0.0609397 0.377558 0.365995)
(-0.0202986 0.513567 0.33295)
(-0.0671995 0.601369 0.164599)
(-0.00303338 0.722544 0.161582)
(0.288584 0.667938 0.0864987)
(0.0914716 0.0545482 0.910969)
(0.114356 0.0580313 0.810261)
(0.141442 0.0652109 0.711366)
(0.181079 0.0851575 0.600428)
(0.214108 0.102767 0.438053)
(0.287711 0.134049 0.313985)
(0.569641 0.179059 -0.0180703)
(0.732481 0.209244 -0.0240037)
(0.889437 0.156002 -0.280176)
(0.970524 0.152411 -0.237539)
(1.13816 -0.0252628 -0.20729)
(1.14804 -0.0688414 -0.0948555)
(0.0476146 0.614194 0.0329802)
(0.0268931 0.606093 0.167579)
(0.0703241 0.551694 0.0227556)
(0.0193607 0.542972 0.248227)
(0.0577966 0.549327 0.162773)
(0.0925809 0.50052 0.0161714)
(0.0207072 0.499499 0.346055)
(0.0515037 0.49079 0.237954)
(0.0832196 0.492617 0.162338)
(0.112399 0.453907 0.01121)
(0.00664811 0.448877 0.444601)
(0.0367216 0.449076 0.340028)
(0.0688731 0.43797 0.228651)
(0.0978088 0.433555 0.161722)
(0.126111 0.404086 0.00816286)
(0.0143167 0.397089 0.532121)
(0.0399847 0.401323 0.439615)
(0.0620908 0.401805 0.341127)
(0.0829878 0.393753 0.228077)
(0.106822 0.391852 0.167657)
(0.13611 0.372203 0.0031725)
(-0.00448582 0.35353 0.615855)
(0.0184552 0.359202 0.514607)
(0.0447501 0.362914 0.413115)
(0.0684085 0.356905 0.315468)
(0.0974697 0.342856 0.207011)
(0.110938 0.3214 0.158907)
(0.139403 0.31275 0.00455914)
(0.0148447 0.294476 0.708583)
(0.0339272 0.295444 0.614782)
(0.0480711 0.29825 0.52096)
(0.0553438 0.30997 0.43396)
(0.100089 0.352712 0.319968)
(0.140968 0.332807 0.22062)
(0.152965 0.318008 0.167646)
(0.187703 0.311774 0.00141107)
(-0.0228546 0.256858 0.78416)
(-0.0102314 0.269944 0.68589)
(0.00541313 0.280266 0.590377)
(0.0241673 0.285192 0.492739)
(0.0511482 0.290007 0.401383)
(0.116616 0.295882 0.291553)
(0.0987165 0.253985 0.177758)
(0.0818604 0.195816 0.137616)
(0.125061 0.223734 0.0177187)
(0.0118538 0.192149 0.871441)
(0.0319382 0.197851 0.770968)
(0.0549216 0.20998 0.665403)
(0.0750292 0.223139 0.565453)
(0.0881947 0.22517 0.480595)
(0.114545 0.229928 0.419232)
(0.141656 0.268111 0.350977)
(0.168834 0.312131 0.271633)
(0.213584 0.338304 0.165996)
(0.251689 0.329028 -0.00560419)
(-0.0299256 0.153988 0.941141)
(-0.0225827 0.163424 0.847522)
(-0.0149331 0.171741 0.745567)
(-0.00317563 0.175433 0.651878)
(0.0423134 0.193392 0.559713)
(0.120505 0.220313 0.468391)
(0.185331 0.25889 0.345868)
(0.248257 0.244475 0.206269)
(0.247319 0.0880432 0.080489)
(0.201811 -0.0464271 0.0520988)
(0.297493 0.0467351 0.00469976)
(-0.0151778 0.104233 1.02546)
(-0.00396509 0.117167 0.926425)
(0.0131452 0.135527 0.826563)
(0.0337125 0.164416 0.722029)
(0.0567671 0.197907 0.60517)
(0.0804304 0.27168 0.481542)
(0.0826826 0.354816 0.393273)
(0.0851586 0.367801 0.372304)
(0.0130556 0.512097 0.338021)
(-0.00705429 0.609796 0.164279)
(0.0643544 0.716765 0.146584)
(0.296651 0.616865 0.0851107)
(0.0721133 0.0512428 1.02488)
(0.0940953 0.0546511 0.91427)
(0.116354 0.0578885 0.812065)
(0.145454 0.0641552 0.711239)
(0.184422 0.0838863 0.601518)
(0.217214 0.100325 0.440016)
(0.292206 0.128549 0.317738)
(0.573185 0.173241 -0.0074882)
(0.738715 0.193263 -0.00374524)
(0.89829 0.151668 -0.282882)
(0.9869 0.146352 -0.243466)
(1.1296 -0.0186557 -0.212538)
(1.14805 -0.0870723 -0.096925)
(0.0711719 0.676028 0.0375324)
(0.0359881 0.667716 0.174821)
(0.0895779 0.608056 0.030562)
(0.0280533 0.594722 0.258877)
(0.0736824 0.602097 0.167467)
(0.108916 0.544674 0.0239539)
(0.0206806 0.545797 0.352799)
(0.057993 0.540249 0.246915)
(0.0952318 0.542149 0.163475)
(0.126139 0.492348 0.0161027)
(0.0218866 0.495437 0.452581)
(0.0552072 0.495362 0.346008)
(0.0830166 0.485618 0.238186)
(0.116628 0.485488 0.162683)
(0.143182 0.444439 0.0107829)
(0.00795737 0.441711 0.53952)
(0.0372645 0.445241 0.44432)
(0.0690789 0.444356 0.33881)
(0.0971805 0.431588 0.228166)
(0.127119 0.425113 0.16109)
(0.152722 0.393594 0.00830631)
(0.0152712 0.391092 0.628321)
(0.0414829 0.39436 0.531228)
(0.0657078 0.395892 0.440189)
(0.0907515 0.397901 0.339013)
(0.108903 0.390827 0.227081)
(0.1339 0.38362 0.166945)
(0.16161 0.362367 0.00306836)
(-0.00344687 0.343393 0.715729)
(0.0183205 0.35071 0.615436)
(0.0429383 0.35403 0.514149)
(0.0719373 0.356039 0.413127)
(0.0958101 0.349168 0.31703)
(0.120286 0.331663 0.208238)
(0.131164 0.310167 0.159146)
(0.159052 0.299873 0.00439209)
(0.0140375 0.287836 0.804194)
(0.0339916 0.290088 0.709022)
(0.0530682 0.294404 0.612845)
(0.0660091 0.297082 0.518231)
(0.0764832 0.304223 0.435175)
(0.130201 0.3444 0.319655)
(0.161893 0.321824 0.221398)
(0.171024 0.307756 0.165989)
(0.206753 0.298582 0.000578042)
(-0.0178956 0.243968 0.882416)
(-0.00810203 0.254906 0.78577)
(0.00684406 0.264664 0.687477)
(0.024399 0.274257 0.591324)
(0.0462748 0.283723 0.490351)
(0.0687651 0.28828 0.394016)
(0.125722 0.277733 0.293775)
(0.115166 0.241881 0.177383)
(0.0995433 0.187817 0.131912)
(0.139531 0.208555 0.0218658)
(0.00566246 0.186822 0.968987)
(0.0235198 0.190036 0.872796)
(0.044744 0.198742 0.770507)
(0.0684578 0.207918 0.66589)
(0.0881614 0.216222 0.566957)
(0.100546 0.226574 0.479915)
(0.140634 0.255107 0.393964)
(0.15415 0.260752 0.358909)
(0.197128 0.305965 0.265496)
(0.230668 0.321302 0.171725)
(0.271572 0.310164 -0.00979203)
(-0.0265074 0.143053 1.04205)
(-0.0180673 0.154261 0.943063)
(-0.0113045 0.16292 0.844776)
(-0.0089447 0.167647 0.747173)
(0.0128091 0.168787 0.651762)
(0.0563467 0.179363 0.559827)
(0.153362 0.244629 0.425975)
(0.196978 0.239347 0.342978)
(0.260932 0.217276 0.205271)
(0.243937 0.062303 0.0806636)
(0.174603 -0.107746 0.0578223)
(0.282785 0.0122557 0.00822264)
(-0.018574 0.094996 1.12457)
(-0.00953608 0.10571 1.02881)
(0.0027193 0.117353 0.930082)
(0.0206127 0.13614 0.831309)
(0.0444064 0.163604 0.726299)
(0.0700143 0.197938 0.608278)
(0.0984128 0.271492 0.475764)
(0.0932342 0.345305 0.398238)
(0.102343 0.363237 0.364076)
(0.00132518 0.507573 0.334725)
(0.0106897 0.592348 0.153105)
(0.106229 0.697466 0.137134)
(0.305356 0.565461 0.081507)
(0.0580472 0.0464968 1.12666)
(0.0750329 0.0513911 1.02523)
(0.0963731 0.0545301 0.916112)
(0.119175 0.0573107 0.813275)
(0.146981 0.0637951 0.713066)
(0.187163 0.0820734 0.602872)
(0.22079 0.0969579 0.441863)
(0.296015 0.122236 0.322192)
(0.578995 0.163099 0.0110153)
(0.73127 0.174213 0.0336641)
(0.900678 0.14907 -0.274906)
(0.980322 0.149427 -0.239715)
(1.10403 -0.0306667 -0.213096)
(1.13768 -0.0859132 -0.105298)
(0.119979 0.727625 0.0393691)
(0.0427548 0.715918 0.1815)
(0.115715 0.668645 0.0329616)
(0.0356471 0.652715 0.273575)
(0.0853324 0.66467 0.177152)
(0.131171 0.599937 0.0324356)
(0.0287415 0.594506 0.360706)
(0.0712641 0.593524 0.2569)
(0.111378 0.595171 0.166881)
(0.144913 0.536048 0.0232994)
(0.0211916 0.541866 0.460628)
(0.0590577 0.541945 0.352464)
(0.0929686 0.532844 0.247667)
(0.13323 0.533764 0.162937)
(0.158783 0.481822 0.0167018)
(0.0217024 0.487751 0.548128)
(0.0556115 0.491356 0.452135)
(0.0873373 0.489773 0.345706)
(0.117751 0.478386 0.237861)
(0.147581 0.475977 0.163236)
(0.172734 0.433273 0.0106675)
(0.0092948 0.434903 0.6367)
(0.0383096 0.438053 0.53923)
(0.0686268 0.440474 0.443373)
(0.0985258 0.437451 0.338354)
(0.126931 0.421755 0.228933)
(0.15772 0.414538 0.161569)
(0.178647 0.381855 0.00836996)
(0.0153288 0.383285 0.726858)
(0.0416067 0.387962 0.627635)
(0.0673226 0.388872 0.531246)
(0.0908409 0.389287 0.440233)
(0.115743 0.394215 0.337416)
(0.135937 0.382448 0.226438)
(0.159656 0.372237 0.166417)
(0.185464 0.349915 0.00267681)
(-0.00239787 0.334978 0.813868)
(0.0191671 0.340577 0.715587)
(0.0420104 0.3462 0.615417)
(0.0681982 0.348143 0.513407)
(0.0967879 0.350078 0.410901)
(0.122179 0.339409 0.317155)
(0.141588 0.319397 0.208965)
(0.151475 0.298189 0.159292)
(0.178633 0.286983 0.0043787)
(0.01054 0.276901 0.900281)
(0.0324595 0.284544 0.804289)
(0.052904 0.287498 0.708066)
(0.0708009 0.291301 0.611144)
(0.0840929 0.291577 0.5176)
(0.0940725 0.294092 0.436761)
(0.153464 0.330882 0.321395)
(0.180311 0.309242 0.223426)
(0.190735 0.294825 0.166686)
(0.225449 0.284788 -0.000637003)
(-0.0145549 0.237347 0.97892)
(-0.00297082 0.241846 0.884373)
(0.00987984 0.250502 0.787219)
(0.0240583 0.25886 0.688811)
(0.0432393 0.271062 0.590656)
(0.065178 0.280722 0.488477)
(0.104795 0.271861 0.389329)
(0.142447 0.265455 0.294431)
(0.129191 0.231789 0.175423)
(0.110502 0.176636 0.128194)
(0.152559 0.193713 0.0206104)
(0.000996758 0.177173 1.06549)
(0.0171373 0.184805 0.9707)
(0.0366943 0.189671 0.872964)
(0.0585319 0.197037 0.770376)
(0.0797075 0.202762 0.66656)
(0.0995816 0.213291 0.566612)
(0.115146 0.22084 0.479321)
(0.153263 0.242103 0.399761)
(0.168238 0.25479 0.364356)
(0.21839 0.294524 0.263267)
(0.25256 0.300999 0.172885)
(0.29 0.291589 -0.0121877)
(-0.023749 0.134992 1.14095)
(-0.0162286 0.143014 1.04395)
(-0.00736656 0.154459 0.942657)
(-0.00470676 0.158321 0.849419)
(0.00646061 0.160665 0.750629)
(0.0227611 0.164214 0.650148)
(0.0749676 0.182903 0.544247)
(0.175193 0.232696 0.421664)
(0.213623 0.223311 0.33524)
(0.27971 0.182421 0.202239)
(0.237707 0.0416657 0.0796512)
(0.170718 -0.0971113 0.0603332)
(0.277429 -0.00476877 0.0113309)
(-0.020944 0.0872753 1.22158)
(-0.0123065 0.0970126 1.12646)
(-0.00298697 0.106298 1.03117)
(0.00918213 0.118083 0.934489)
(0.0293604 0.135291 0.835735)
(0.054931 0.16212 0.730564)
(0.0836913 0.196524 0.61175)
(0.11355 0.265155 0.478619)
(0.100147 0.33642 0.406551)
(0.114662 0.355902 0.363493)
(0.0270278 0.45465 0.394346)
(0.0265327 0.535899 0.184655)
(0.107372 0.632936 0.146431)
(0.314151 0.512808 0.0735754)
(0.0461637 0.0416461 1.22174)
(0.0600783 0.0468297 1.12664)
(0.0774497 0.0513188 1.02599)
(0.0992454 0.0541064 0.917606)
(0.121819 0.0565114 0.814847)
(0.149849 0.0628277 0.709004)
(0.190411 0.0796832 0.604083)
(0.223293 0.0933164 0.444355)
(0.299 0.115343 0.327434)
(0.579124 0.153959 0.0364568)
(0.73208 0.153535 0.051463)
(0.922299 0.135916 -0.278515)
(0.996369 0.145064 -0.250737)
(1.1276 -0.0088659 -0.239869)
(1.12247 -0.103593 -0.109929)
(0.433289 0.801078 0.0443854)
(0.130578 0.764041 0.194897)
(0.16161 0.717823 0.029308)
(0.0420166 0.697628 0.285851)
(0.0981108 0.716217 0.184457)
(0.162098 0.658155 0.036227)
(0.0359739 0.650427 0.369632)
(0.0807207 0.654762 0.268313)
(0.127702 0.656061 0.175391)
(0.170537 0.590206 0.0309793)
(0.0286097 0.58936 0.469511)
(0.0726972 0.590456 0.361451)
(0.108994 0.583615 0.258619)
(0.152875 0.58655 0.166819)
(0.18065 0.523776 0.0235933)
(0.0217515 0.533435 0.557506)
(0.0595449 0.537982 0.45989)
(0.0948008 0.535058 0.352192)
(0.131295 0.52493 0.246982)
(0.169052 0.523052 0.162428)
(0.19118 0.469729 0.0169609)
(0.0212931 0.48041 0.644873)
(0.0547735 0.483674 0.547658)
(0.087686 0.485346 0.451858)
(0.121112 0.481861 0.345551)
(0.14705 0.469135 0.237853)
(0.180663 0.463992 0.162775)
(0.200619 0.420211 0.0110507)
(0.0105301 0.426972 0.736145)
(0.0395354 0.431246 0.636419)
(0.0685744 0.433347 0.538548)
(0.0988307 0.433999 0.442475)
(0.129042 0.427959 0.338525)
(0.157819 0.411331 0.228886)
(0.184146 0.402685 0.161725)
(0.203719 0.368288 0.00832223)
(0.0152036 0.378113 0.823861)
(0.040568 0.37996 0.726447)
(0.0669587 0.382244 0.627548)
(0.0925746 0.381863 0.531012)
(0.116001 0.382243 0.439665)
(0.141759 0.385217 0.33704)
(0.160232 0.370745 0.226771)
(0.184176 0.359645 0.166672)
(0.208012 0.3359 0.00245794)
(-0.00143004 0.319475 0.910856)
(0.0203084 0.332172 0.813752)
(0.0425544 0.336887 0.715364)
(0.0656309 0.340726 0.615088)
(0.0916724 0.34078 0.512512)
(0.123456 0.341866 0.408879)
(0.143841 0.32755 0.317896)
(0.161877 0.307008 0.209764)
(0.171549 0.285731 0.159183)
(0.196808 0.273099 0.00435872)
(0.00864822 0.27663 0.995276)
(0.0293941 0.27382 0.900553)
(0.0509518 0.280892 0.803966)
(0.0705432 0.283415 0.707331)
(0.0889352 0.285328 0.610761)
(0.100624 0.283563 0.517696)
(0.112894 0.284951 0.437003)
(0.17793 0.316818 0.322036)
(0.200428 0.296217 0.225151)
(0.207722 0.281431 0.167758)
(0.242147 0.270058 -3.3908e-05)
(-0.012138 0.221371 1.07645)
(0.00111066 0.234726 0.981146)
(0.013694 0.237958 0.885536)
(0.0256807 0.246048 0.787824)
(0.0408718 0.253538 0.689782)
(0.0627139 0.266438 0.589891)
(0.08796 0.274819 0.485679)
(0.122513 0.258192 0.392425)
(0.156202 0.255837 0.292425)
(0.142187 0.216806 0.174504)
(0.122 0.162527 0.129761)
(0.165175 0.178952 0.018282)
(-0.00202715 0.171461 1.15954)
(0.0121565 0.175966 1.06677)
(0.0296729 0.183615 0.971169)
(0.0497853 0.18846 0.87202)
(0.0694046 0.192647 0.770909)
(0.091228 0.197266 0.667362)
(0.110836 0.204893 0.568344)
(0.132165 0.20724 0.482605)
(0.163946 0.232536 0.404497)
(0.181995 0.246483 0.369591)
(0.239852 0.27903 0.264277)
(0.269871 0.283931 0.173833)
(0.305379 0.273116 -0.0138894)
(-0.0215086 0.127142 1.23747)
(-0.0131796 0.134297 1.14263)
(-0.00515655 0.143986 1.04246)
(-6.89418e-05 0.151165 0.947985)
(0.00868449 0.153476 0.852929)
(0.0149657 0.158823 0.750128)
(0.037511 0.158184 0.646632)
(0.0892755 0.163444 0.546159)
(0.184124 0.206043 0.428535)
(0.225289 0.203725 0.333079)
(0.282269 0.158373 0.196344)
(0.227472 0.0193563 0.0787178)
(0.149424 -0.128299 0.0593183)
(0.27793 -0.0142574 0.0142607)
(-0.0219206 0.0796599 1.31528)
(-0.0140986 0.0892042 1.22282)
(-0.00612683 0.098454 1.12545)
(0.00268119 0.1067 1.0336)
(0.0164482 0.117712 0.938059)
(0.0371561 0.132427 0.839577)
(0.0663647 0.15883 0.737435)
(0.0981333 0.19022 0.618966)
(0.120537 0.24963 0.49251)
(0.109817 0.32565 0.424152)
(0.139943 0.345213 0.361722)
(0.0342883 0.443772 0.40019)
(0.0807776 0.507421 0.204834)
(0.0526142 0.535351 0.180648)
(0.318161 0.458029 0.0598921)
(0.0354662 0.0382101 1.3177)
(0.0484376 0.0419907 1.22147)
(0.0633008 0.0468725 1.12633)
(0.0804256 0.0510066 1.02638)
(0.102177 0.0531365 0.918811)
(0.124384 0.0554021 0.816498)
(0.154339 0.0614709 0.701205)
(0.192586 0.0770898 0.605511)
(0.225907 0.0889035 0.44675)
(0.301889 0.107987 0.332598)
(0.581611 0.138845 0.0667154)
(0.734956 0.136792 0.0659888)
(0.93616 0.117274 -0.270813)
(1.00605 0.131681 -0.24992)
(1.13472 -0.0188705 -0.24785)
(1.1198 -0.104608 -0.1142)
(0.960417 0.82914 0.0489221)
(0.766027 0.805639 0.222818)
(0.456748 0.77667 0.0313156)
(0.134323 0.733199 0.306577)
(0.18009 0.759997 0.208074)
(0.217336 0.703427 0.0365346)
(0.0421629 0.693621 0.37576)
(0.0897742 0.702332 0.279472)
(0.140945 0.705026 0.181189)
(0.202928 0.647956 0.0342423)
(0.0336175 0.642406 0.478348)
(0.0797101 0.646283 0.37101)
(0.122693 0.640778 0.273169)
(0.173147 0.647538 0.176013)
(0.209502 0.574877 0.0325827)
(0.0293202 0.580935 0.567223)
(0.072496 0.585287 0.468981)
(0.109468 0.583058 0.360342)
(0.149947 0.576635 0.257365)
(0.190002 0.57348 0.167001)
(0.215356 0.511094 0.0238215)
(0.0219505 0.525386 0.653492)
(0.0597167 0.529386 0.556883)
(0.0948197 0.530809 0.459946)
(0.132922 0.526381 0.352071)
(0.165352 0.514057 0.247368)
(0.203977 0.510641 0.161863)
(0.22152 0.455493 0.0176243)
(0.0208978 0.472234 0.745065)
(0.0538883 0.476247 0.644454)
(0.0865103 0.477551 0.547365)
(0.120768 0.477304 0.451593)
(0.151251 0.47211 0.345266)
(0.179817 0.457252 0.237706)
(0.210877 0.45061 0.162652)
(0.228746 0.405366 0.0109275)
(0.012123 0.423223 0.833112)
(0.040536 0.423491 0.735826)
(0.0687777 0.426648 0.635834)
(0.0978524 0.426685 0.537898)
(0.128315 0.425206 0.44219)
(0.159364 0.417407 0.338271)
(0.184402 0.399565 0.228265)
(0.210589 0.388452 0.16115)
(0.226864 0.353269 0.00853725)
(0.0136159 0.359925 0.920667)
(0.0393817 0.374624 0.8236)
(0.0653648 0.374021 0.726442)
(0.092353 0.375466 0.627277)
(0.117248 0.374468 0.530214)
(0.140461 0.372732 0.439684)
(0.168173 0.373675 0.336997)
(0.185646 0.357731 0.226904)
(0.207831 0.346239 0.166823)
(0.230053 0.320853 0.00270068)
(0.00102678 0.323562 1.00562)
(0.0206616 0.316972 0.910678)
(0.0432757 0.329039 0.813367)
(0.0649785 0.331663 0.71496)
(0.0882834 0.332894 0.614908)
(0.115766 0.331712 0.511829)
(0.145939 0.332054 0.407812)
(0.168445 0.315278 0.317742)
(0.181783 0.293794 0.210345)
(0.189869 0.272297 0.159175)
(0.213749 0.258048 0.00425165)
(0.00613069 0.257871 1.09244)
(0.0278833 0.273556 0.995612)
(0.0466957 0.26997 0.900437)
(0.068679 0.276245 0.803684)
(0.0887042 0.277458 0.707171)
(0.106 0.277588 0.610961)
(0.119852 0.275599 0.517135)
(0.130801 0.27862 0.437038)
(0.19983 0.305707 0.32153)
(0.217868 0.28313 0.226082)
(0.226493 0.266976 0.166822)
(0.257805 0.254086 0.000605064)
(-0.00852139 0.215885 1.1702)
(0.00278292 0.219061 1.07886)
(0.0172275 0.231223 0.982242)
(0.0284651 0.233939 0.885978)
(0.04254 0.241102 0.788436)
(0.0589919 0.248334 0.689813)
(0.0822151 0.261324 0.587936)
(0.104912 0.266541 0.484062)
(0.145635 0.244673 0.392183)
(0.169556 0.241456 0.291597)
(0.154622 0.201089 0.175345)
(0.133683 0.152986 0.131207)
(0.176445 0.163828 0.0177185)
(-0.00367322 0.164251 1.25334)
(0.00895103 0.170623 1.15982)
(0.0240617 0.174286 1.06769)
(0.0426051 0.182247 0.969667)
(0.060491 0.184167 0.872498)
(0.080926 0.186481 0.772111)
(0.101607 0.19013 0.668816)
(0.12222 0.196345 0.570295)
(0.146557 0.198657 0.483687)
(0.175404 0.221338 0.409684)
(0.197498 0.238324 0.373675)
(0.259009 0.264388 0.264167)
(0.285453 0.261534 0.174023)
(0.317692 0.251572 -0.0148407)
(-0.0190646 0.118011 1.33036)
(-0.0100623 0.126668 1.2385)
(-0.00517817 0.134808 1.14162)
(0.00307735 0.142255 1.04463)
(0.0114509 0.147365 0.950418)
(0.0193189 0.153963 0.848981)
(0.0276663 0.154105 0.750695)
(0.0446631 0.144883 0.646672)
(0.10944 0.159553 0.538783)
(0.191908 0.18278 0.430828)
(0.235737 0.182812 0.331355)
(0.288125 0.126434 0.195633)
(0.21344 0.00224377 0.0805219)
(0.141457 -0.121869 0.058498)
(0.278432 -0.0205817 0.0166632)
(-0.0225744 0.0750007 1.40483)
(-0.0153724 0.0811949 1.31631)
(-0.00896312 0.0907303 1.22071)
(-0.00068846 0.098572 1.12648)
(0.00869305 0.106552 1.0371)
(0.0229713 0.114929 0.941014)
(0.0447889 0.127945 0.846104)
(0.0778125 0.155115 0.741916)
(0.101565 0.172257 0.625611)
(0.124319 0.221988 0.508153)
(0.121342 0.314134 0.441772)
(0.148339 0.336639 0.361861)
(0.0415602 0.423247 0.428143)
(0.121604 0.492868 0.199887)
(0.0399041 0.459189 0.194853)
(0.312389 0.401932 0.0408962)
(0.028521 0.03389 1.40882)
(0.0379555 0.0385762 1.31774)
(0.0508854 0.0421995 1.22142)
(0.0646707 0.0469271 1.12794)
(0.0829103 0.0504959 1.02707)
(0.104857 0.0520902 0.9204)
(0.127154 0.0541137 0.817592)
(0.157134 0.060427 0.703624)
(0.195053 0.0736585 0.606666)
(0.228863 0.0847745 0.448841)
(0.305103 0.101395 0.337445)
(0.579081 0.132823 0.0819908)
(0.733534 0.118081 0.0894208)
(0.92223 0.102445 -0.232722)
(0.983084 0.112374 -0.22952)
(1.10638 -0.0456166 -0.239308)
(1.10013 -0.121368 -0.11845)
(1.29053 0.805315 0.0215061)
(1.38966 0.778888 0.175874)
(0.985698 0.792285 0.0409071)
(0.932197 0.742549 0.28301)
(0.819043 0.758938 0.237306)
(0.54124 0.734084 0.038563)
(0.138515 0.725164 0.388694)
(0.196182 0.746033 0.299366)
(0.247043 0.746235 0.199353)
(0.255871 0.693313 0.0330976)
(0.039568 0.681408 0.485183)
(0.086734 0.68766 0.378642)
(0.133248 0.684639 0.287513)
(0.189603 0.698264 0.181635)