/*--------------------------------*- C++ -*----------------------------------*\
  =========                 |
  \\      /  F ield         | OpenFOAM: The Open Source CFD Toolbox
   \\    /   O peration     | Website:  https://openfoam.org
    \\  /    A nd           | Version:  7
     \\/     M anipulation  |
\*---------------------------------------------------------------------------*/
FoamFile
{
    version     2.0;
    format      ascii;
    class       surfaceScalarField;
    location    "8.5";
    object      phi;
}
// * * * * * * * * * * * * * * * * * * * * * * * * * * * * * * * * * * * * * //

dimensions      [0 3 -1 0 0 0 0];

internalField   nonuniform List<scalar> 
54095
(
0.000242199
-8.16708e-06
-0.00058272
0.000300207
6.63928e-05
-6.99746e-05
0.000253653
-3.49988e-05
-0.00150064
0.000221524
-3.53562e-06
-0.000800708
0.000128051
1.03552e-05
-0.000104749
0.000392674
-3.13831e-05
-0.00119058
0.00026709
8.27408e-05
-0.000198282
0.000209881
-5.7316e-05
-0.00125417
0.000190774
-2.16943e-05
-0.00167326
0.000189782
5.85542e-07
-0.000991076
-0.000409459
0.000546829
-0.00615998
0.000477149
0.000477715
-0.00273459
0.000102109
-0.000148092
0.000208324
0.000302514
-0.000140525
-0.00201634
0.000180679
-7.50285e-06
-0.00109024
0.000210525
9.58011e-05
-0.000314825
0.000161607
-6.36345e-05
-0.00102123
0.000178675
-4.68511e-05
-0.00140769
0.000133013
-1.18096e-05
-0.00179387
0.000151606
3.29434e-06
-0.00114598
-0.00111777
0.000538617
-0.00661769
0.000301465
0.000974312
-0.00452714
-0.00046677
0.000522627
-0.00611373
0.000205989
0.000504166
-0.000749729
0.000367934
0.0004369
0.00362604
3.0197e-06
4.4571e-05
0.000371258
0.000120454
-0.000112994
-0.00216471
0.000303561
-0.000131102
-0.00201763
0.000136768
1.32504e-05
-0.00101144
0.000137434
0.000111704
-0.000412358
5.45944e-05
-6.82886e-05
-0.00112059
0.000150273
-6.16277e-05
-0.00115673
0.000146415
-3.91606e-05
-0.00152676
8.35741e-05
-5.03547e-06
-0.00186912
0.000113743
5.28929e-06
-0.00126501
-0.00128203
0.000111252
-0.00472129
-0.000698638
0.00127057
-0.0077171
-0.00119528
0.00051795
-0.00640713
0.000467744
0.000936992
-0.00393248
0.000224205
0.00078772
-0.00464851
-0.000571577
0.000469366
-0.0060085
6.34931e-05
0.000392275
-0.00175354
0.000457427
0.00045251
-0.000919205
0.000294409
0.000365497
0.00314747
-2.65166e-05
0.000127393
0.000407816
-2.74456e-05
-5.47799e-05
-0.00228238
0.000138113
-0.000114624
-0.00216903
0.000264082
-0.00011355
-0.0020085
6.59137e-05
4.26796e-05
-0.000924758
4.72897e-05
0.000121953
-0.000467857
-3.83741e-05
-5.12396e-05
-0.00137872
5.57133e-05
-6.92152e-05
-0.00116872
0.000146578
-6.05877e-05
-0.00128188
0.000121645
-3.31732e-05
-0.00162026
5.11164e-05
-3.0392e-07
-0.00191464
8.0476e-05
6.77764e-06
-0.00135226
-0.00148177
0.000168217
-0.00506403
-0.00100715
0.000318641
-0.00675619
-0.00140056
0.00015724
-0.00467326
0.000149392
0.0013909
-0.00772847
-0.000751174
0.00124866
-0.00747243
-0.00126865
0.000526908
-0.00623696
0.000242395
0.000640364
-0.00396862
0.000339589
0.000746218
-0.00377314
6.09014e-05
0.000749315
-0.00469495
-0.000616401
0.000446383
-0.005865
-0.0001701
0.000388355
-0.00213677
0.000135801
0.000386969
-0.00168569
0.000293319
0.000353405
-0.000936349
0.00027114
0.000381824
0.00268782
-6.37473e-05
0.000216819
0.000302035
-0.000140625
-1.68167e-05
-0.00197469
2.98108e-05
-5.42826e-05
-0.00231682
0.000158253
-0.000110922
-0.00218334
0.000228637
-0.000103734
-0.00196908
3.9936e-05
4.71999e-05
-0.000838824
-5.01761e-05
0.000123148
-0.000460353
6.43472e-06
-3.75715e-05
-0.00101448
-4.02744e-05
-5.07965e-05
-0.00135686
5.11377e-05
-6.99705e-05
-0.00121048
0.000140526
-5.8355e-05
-0.00139722
9.57697e-05
-2.90898e-05
-0.00168725
3.41758e-05
3.06716e-06
-0.00194511
5.94448e-05
7.56225e-06
-0.00141927
-0.00167424
0.000107099
-0.00358274
-0.00100311
0.0001832
-0.00553897
-0.00158323
5.13932e-05
-0.00493275
-0.000857784
0.000754885
-0.00668219
-0.000873369
0.000334461
-0.00681122
-0.00142757
8.09613e-05
-0.0045953
7.53778e-05
0.0012627
-0.0070581
-0.000377583
0.0014019
-0.00716453
-0.000882524
0.00129299
-0.00729509
-0.00135185
0.000559535
-0.00606104
-0.000114907
0.000492747
-0.00329644
0.000141441
0.000523388
-0.00375143
2.61526e-05
0.000741089
-0.00349775
1.71701e-05
0.000723128
-0.00471772
-0.000562561
0.000446181
-0.00581237
-0.000201471
0.000276636
-0.00212257
-0.000124233
0.000415106
-0.00201086
0.000136273
0.000325336
-0.00163564
0.000307528
0.000307473
-0.000940889
0.000226402
0.000369527
0.00234864
-8.32509e-05
0.00031755
1.7559e-05
-0.000126858
8.29126e-06
-0.00130738
-0.000139756
-1.37199e-05
-0.00191577
2.50038e-05
-6.43875e-05
-0.00233722
0.000176732
-0.000114385
-0.00220889
0.000191782
-0.000108934
-0.00190895
3.90071e-05
4.56541e-05
-0.000766161
-0.000154814
0.000124137
-0.000370231
5.58238e-06
-3.1749e-05
-0.00085566
6.13991e-06
-3.85605e-05
-0.00103285
-3.63558e-05
-5.04252e-05
-0.00134005
4.76891e-05
-6.98336e-05
-0.00124669
0.000137898
-5.61018e-05
-0.00150811
7.76099e-05
-2.69905e-05
-0.0017348
2.51067e-05
4.60203e-06
-0.00196725
4.6376e-05
8.11465e-06
-0.00147376
-0.0014352
-0.000181395
-0.00344894
-0.00115634
0.00022787
-0.00438529
-0.00173968
0.00014318
-0.00356948
-0.000795365
0.000144158
-0.00589877
-0.000872696
-0.000117695
-0.00537055
-0.00154689
1.06848e-05
-0.00482412
-0.000472836
0.00107244
-0.00701808
-0.000905104
0.000761443
-0.00658165
-0.00118089
0.000329862
-0.00676176
-0.00138147
-0.0001663
-0.00439938
-8.61981e-05
0.00113501
-0.00650253
-0.000138379
0.00122662
-0.00660301
-0.000529772
0.00145406
-0.00676968
-0.00102123
0.00138076
-0.00707792
-0.00129618
0.000648199
-0.00597563
-0.000228154
0.000424565
-0.00250757
-0.000183732
0.000424531
-0.00313809
3.67761e-05
0.000466715
-0.00337756
0.000110483
0.00073653
-0.00331411
-2.14226e-05
0.000619977
-0.00464369
-0.000427606
0.000445053
-0.00591307
-0.000179672
4.43403e-05
-0.00169547
-0.000190976
0.000344299
-0.00200054
-0.000129716
0.000376309
-0.00190711
0.000183023
0.000273311
-0.00160777
0.000360339
0.000281694
-0.00102161
0.000165751
0.00040932
0.00213013
-0.000157572
0.00040523
-0.000384914
8.56549e-06
1.43001e-05
-0.00135138
-0.000110654
7.29959e-06
-0.00121161
-7.68181e-06
-2.6496e-05
-0.00198234
4.33638e-05
-5.09376e-05
-0.00239634
0.000187315
-0.000110765
-0.00225647
0.000150768
-0.000107138
-0.00182932
3.15285e-05
4.63826e-05
-0.000694829
-0.000198675
0.000128758
-0.000253938
1.43497e-05
-3.31762e-05
-0.000609009
2.60337e-06
-3.29027e-05
-0.000863921
7.91609e-06
-3.90891e-05
-0.00105211
-3.69185e-05
-5.0557e-05
-0.00132241
4.99313e-05
-7.03434e-05
-0.00128238
0.000132941
-5.46178e-05
-0.00161342
6.38622e-05
-2.61054e-05
-0.00176795
1.81458e-05
5.03906e-06
-0.00198232
4.08511e-05
1.01895e-05
-0.0015248
-0.00141915
0.00020005
-0.00370558
-0.00132614
2.25615e-05
-0.00475561
-0.0014925
-0.000101124
-0.00359499
-0.000655427
0.00034691
-0.00548289
-0.00124935
0.000191687
-0.00405714
-0.0016249
0.000116683
-0.00360815
-0.000446193
0.00026324
-0.00665227
-0.000666486
-0.000125908
-0.00612917
-0.00121358
-0.000175908
-0.00515127
-0.00141658
7.46023e-05
-0.00486361
-0.000481375
0.00121859
-0.00692132
-0.000473473
0.00109036
-0.0070119
-0.000945156
0.000865267
-0.00670167
-0.00137939
0.000235278
-0.00680517
-0.0013261
-0.00021592
-0.00415354
-0.000124759
0.00112295
-0.00560367
-0.000212571
0.000994098
-0.00624117
-0.000218489
0.0012585
-0.00615218
-0.000273238
0.00147123
-0.00647643
-0.00108839
0.00165007
-0.00701282
-0.00112963
0.000690208
-0.00596381
-0.000260034
0.000473541
-0.00291621
-0.000272029
0.000413228
-0.00241521
-0.000258097
0.000380517
-0.00292351
7.63715e-05
0.000447837
-0.00298221
0.000274378
0.000620127
-0.0032283
-0.00018699
0.000556483
-0.00440238
-0.000356957
0.00043355
-0.00614723
-4.65501e-05
-4.25657e-05
-0.00214693
-0.000147024
0.000111222
-0.00142603
5.05943e-05
0.000214933
-0.00189744
-7.23305e-05
0.000286898
-0.001805
0.000218719
0.000255039
-0.00161252
0.000288567
0.000310171
-0.00106026
0.000166524
0.000474488
0.00192588
-0.000280078
0.000467254
-0.000770764
2.00432e-05
-9.33379e-06
-0.00132109
-1.11302e-05
1.75795e-05
-0.00134792
-0.000101837
2.12159e-07
-0.00112856
-0.000142172
-1.00259e-05
-0.001918
4.47765e-05
-5.49318e-05
-0.00244702
0.000200697
-0.000112304
-0.00231906
0.000130994
-9.69035e-05
-0.00175317
6.70552e-06
5.62742e-05
-0.000610905
-0.000192113
0.000127793
-0.000148768
1.411e-05
-4.17664e-05
-0.000541991
1.17539e-05
-3.31211e-05
-0.000620545
7.3978e-07
-3.37683e-05
-0.000869981
1.02646e-05
-3.87439e-05
-0.00107418
-3.48517e-05
-5.20132e-05
-0.00130589
5.32911e-05
-7.13437e-05
-0.00131894
0.000127783
-5.37175e-05
-0.00171359
5.32409e-05
-2.54e-05
-0.00179076
8.16949e-06
6.53582e-06
-0.00198684
3.97223e-05
1.13331e-05
-0.00157586
0.000160937
-0.00282188
-0.00146058
0.000194965
-0.00397759
-0.0014968
8.57208e-05
-0.003787
-0.000673725
0.000166542
-0.00492138
-0.00149531
0.000135642
-0.00474642
-0.0013378
-0.000128654
-0.00375344
-0.00057686
0.000396718
-0.00528119
-0.000497863
0.000305502
-0.00576532
-0.00123017
0.000157978
-0.00408185
-0.0015206
0.000105821
-0.00360995
-0.000675076
0.000423308
-0.00679592
-0.000253392
6.89755e-05
-0.00706724
-0.000668297
0.000115643
-0.00669758
-0.00118753
-7.1352e-05
-0.00519717
-0.00137054
0.00029268
-0.00511184
-0.000188304
0.00142486
-0.00692431
-0.000476622
0.00120271
-0.00676961
-0.000475986
0.0011722
-0.00706134
-0.00048953
0.00101474
-0.00726485
-0.00147635
0.000189462
-0.00682259
-0.00125316
5.78107e-05
-0.00408783
-0.000194553
0.00109331
-0.00514317
-0.000220443
0.000979279
-0.00564043
-0.000377357
0.000957732
-0.00582114
-0.000185496
0.00124969
-0.00566878
-0.000104684
0.00165642
-0.00610371
-0.00123728
0.00134662
-0.00661894
-0.00105263
0.00058888
-0.00585701
-0.000173288
0.000590527
-0.0035447
-0.000289976
0.000509728
-0.00286975
-0.000298407
0.000436532
-0.00212223
-0.000254857
0.000358915
-0.00265206
0.000225164
0.000391465
-0.00275999
0.000322755
0.000509814
-0.00321581
-0.00030222
0.000550953
-0.00405104
-0.000568883
0.000394642
-0.00625307
4.28755e-05
-7.18181e-05
-0.00281453
-0.00010754
-2.72486e-05
-0.00191205
-0.000139967
6.63467e-06
-0.0011796
-0.000147349
0.000150964
-0.00175633
-6.15937e-05
0.000248122
-0.00169172
0.000249532
0.000245665
-0.00159685
0.000236778
0.000330928
-0.00102249
0.000118025
0.000487918
0.00179389
-0.000217992
0.000468096
-0.00121298
3.89339e-06
-3.37998e-05
-0.00150628
9.18611e-06
-1.3618e-05
-0.00128733
-2.3675e-05
1.24839e-05
-0.00133578
-0.000109704
4.64035e-06
-0.00102326
-0.000104184
-1.92947e-05
-0.0018843
5.49508e-05
-6.20857e-05
-0.0024989
0.000195986
-0.000101449
-0.00238272
0.000112714
-7.13226e-05
-0.00168504
-2.09954e-05
6.07469e-05
-0.000514694
-0.000124782
0.000120721
-0.000104985
2.37168e-05
-4.20809e-05
-0.000278262
1.40537e-05
-4.24565e-05
-0.000546709
1.18229e-05
-3.2708e-05
-0.000633428
-1.65769e-08
-3.39323e-05
-0.000874776
1.26947e-05
-3.84735e-05
-0.00110042
-3.37642e-05
-5.41148e-05
-0.00128935
5.59465e-05
-7.17821e-05
-0.00135682
0.000124075
-5.33997e-05
-0.00180967
4.06604e-05
-2.39348e-05
-0.00180095
9.84414e-07
2.4288e-06
-0.00197892
3.57376e-05
1.34018e-05
-0.001625
0.000155888
-0.00347945
-0.00177021
0.000166245
-0.00271472
-0.000887109
0.000356428
-0.00426814
-0.00161442
0.000144612
-0.00391737
-0.00152974
0.000176133
-0.0037712
-0.000736101
0.000326791
-0.00498962
-0.000652686
0.000184142
-0.00481506
-0.00137987
8.64844e-05
-0.00481186
-0.00126753
-5.63189e-05
-0.00395019
-0.000581803
0.000354805
-0.00575373
-0.000444761
0.0004674
-0.00525172
-0.000566552
2.75751e-05
-0.00573667
-0.00113601
0.000179726
-0.00420728
-0.00146031
0.00016381
-0.00368399
-0.000441732
0.000623266
-0.0067113
-0.000496056
0.000361183
-0.00706869
-0.000457121
0.000221733
-0.00719219
-0.000611808
0.000260421
-0.00690708
-0.00119301
4.96101e-05
-0.00523744
-0.00137963
0.000407724
-0.0053931
-0.00011988
0.00150668
-0.00672855
-0.000387104
0.00129112
-0.00684606
-0.000588147
0.00124151
-0.00662814
-0.000500527
0.00131679
-0.00704835
-0.000455449
0.00107717
-0.00780179
-0.00158401
0.000305848
-0.0067239
-0.00117924
0.000459236
-0.00442046
-8.63594e-05
0.00116629
-0.00561268
-0.000207359
0.00101936
-0.00526587
-0.000350843
0.00088666
-0.00551693
-0.000320571
0.000937469
-0.0054432
0.000100763
0.00122107
-0.00510904
-9.85716e-05
0.00129785
-0.00563361
-0.00130665
0.00112844
-0.00615407
-0.00111508
0.000489488
-0.0058003
-0.00025141
0.000585621
-0.00402779
-0.000266797
0.000482071
-0.00335779
-0.000335361
0.000478465
-0.00271629
-0.000312661
0.000419067
-0.00201707
-0.000162373
0.000285767
-0.00244558
0.00036369
0.000324343
-0.00268868
0.000193372
0.00048365
-0.00310511
-0.000299002
0.000581977
-0.00382135
-0.000552658
0.000365722
-0.00628413
1.82847e-05
-5.37836e-05
-0.00332092
7.42194e-07
-5.09921e-05
-0.00278234
-0.000126343
-2.22352e-05
-0.00178051
-0.000164881
1.8183e-05
-0.000991641
-0.000104936
9.88501e-05
-0.00160631
-5.38109e-05
0.0001919
-0.00152919
0.000228932
0.000227613
-0.00152648
0.000102241
0.000314726
-0.000838821
9.19815e-05
0.000512717
0.00163629
-0.000114551
0.000406964
-0.00163018
4.4154e-05
-2.15583e-05
-0.00158562
-4.93841e-07
-4.73802e-05
-0.00145797
-1.73231e-06
-2.2945e-05
-0.00123835
-2.81276e-05
3.78905e-06
-0.00130682
-9.57103e-05
-2.0851e-06
-0.000932065
-0.000117917
-2.75271e-05
-0.00183471
6.6075e-05
-6.39418e-05
-0.00254654
0.000198471
-8.05246e-05
-0.00244792
7.65903e-05
-4.80004e-05
-0.00161222
-4.06664e-05
7.1365e-05
-0.000423687
-7.47942e-05
0.00011788
-0.000112333
-1.89357e-06
-4.33387e-05
-0.000128471
2.55191e-05
-4.34626e-05
-0.000302775
1.27229e-05
-4.3045e-05
-0.000549095
1.21043e-05
-3.18871e-05
-0.000647578
-7.25932e-07
-3.34932e-05
-0.000879031
1.28952e-05
-3.77754e-05
-0.00112965
-3.14641e-05
-5.5116e-05
-0.00127455
5.25101e-05
-7.15623e-05
-0.00139117
0.000119097
-5.28393e-05
-0.00189986
3.08808e-05
-2.71785e-05
-0.00180222
-1.05219e-05
3.09349e-06
-0.00195809
2.78644e-05
1.49719e-05
-0.00166783
-0.00188517
0.000113816
-0.002744
0.000378006
-0.0039478
-0.00166026
0.000195422
-0.00346279
-0.00177825
0.000129263
-0.00259547
-0.000884879
0.000524442
-0.00433299
-0.000880998
0.000366913
-0.00426213
-0.0015578
0.00025039
-0.0038137
-0.00156565
0.000120257
-0.00359334
-0.000450163
0.000405884
-0.00517679
-0.000703886
0.000339644
-0.00488599
-0.000742228
0.000183003
-0.0047359
-0.0012984
8.02348e-05
-0.00478602
-0.00127916
4.1937e-06
-0.00413554
-0.00068908
0.000490219
-0.00553098
-0.000532593
0.000343095
-0.00559289
-0.000664135
0.00021718
-0.00523431
-0.000725184
0.000163497
-0.00560706
-0.00120803
0.000165728
-0.00419417
-0.0014086
0.000173524
-0.00382854
-0.000320753
0.000788548
-0.00664588
-0.000661504
0.000631223
-0.00670694
-0.000546177
0.000302857
-0.00719179
-0.000543594
0.000265619
-0.00715432
-0.00078666
0.000390933
-0.00691719
-0.00119245
4.17065e-05
-0.00526298
-0.00123108
0.000623644
-0.0059649
2.16245e-05
0.00140161
-0.00696651
-7.95567e-05
0.00128748
-0.00685271
-0.00042348
0.00123382
-0.00676574
-0.000521043
0.00137937
-0.00649025
-0.000371413
0.00142061
-0.00691961
-0.00081747
0.00105363
-0.00783067
-0.00159784
0.000756995
-0.00673047
-0.00126116
0.000384365
-0.00465874
-0.000327963
0.001177
-0.00574488
-0.000134082
0.00110842
-0.00583446
-0.000340767
0.000931793
-0.0053056
-0.000414609
0.000845989
-0.0053235
-0.000231244
0.000892822
-0.00504608
0.000350384
0.00103998
-0.00483786
-0.000169227
0.00116228
-0.00530485
-0.00120128
0.000981809
-0.00574412
-0.00119787
0.000518118
-0.00567321
4.16959e-05
0.000450518
-0.00449891
-0.000214273
0.0004925
-0.00382321
-0.000353595
0.000531938
-0.00318401
-0.000359848
0.000535226
-0.00263748
-0.000362002
0.000382224
-0.00185646
-0.000152944
0.000226735
-0.00224884
0.000292126
0.000208138
-0.00247636
-3.55065e-05
0.000501823
-0.0028872
-0.000165314
0.000455108
-0.00365344
-0.000538022
0.000335621
-0.00619628
-2.08853e-05
1.69163e-05
-0.00329106
-4.39973e-06
-5.581e-05
-0.0033122
-3.94159e-05
-2.37771e-05
-0.00274312
-0.000148338
7.72952e-07
-0.00164289
-0.000159237
-3.96849e-06
-0.000825295
-0.000131275
3.21936e-05
-0.00143324
-6.70238e-05
0.000144314
-0.00131279
0.000214783
0.000193983
-0.00142205
0.000185501
0.000310435
-0.000745449
0.000164956
0.000502412
0.00133522
-4.40886e-05
0.000367368
-0.00202825
4.62925e-05
2.7413e-05
-0.00135103
6.6041e-05
-3.84348e-05
-0.00163509
-1.25244e-06
-5.47555e-05
-0.00141219
-3.17461e-06
-3.48704e-05
-0.00118441
-2.68502e-05
-8.57194e-06
-0.00127421
-8.67957e-05
-1.04909e-05
-0.000849411
-0.000109435
-3.57522e-05
-0.00178493
8.20117e-05
-7.42914e-05
-0.00258227
0.000190155
-5.40166e-05
-0.00251296
5.0505e-05
-1.57796e-05
-0.0015447
-3.72675e-05
7.94387e-05
-0.000358499
-9.89988e-05
0.000118116
-0.000103586
-2.02031e-05
-3.79866e-05
-3.00865e-05
6.53545e-06
-4.32428e-05
-0.000135226
2.39446e-05
-4.42544e-05
-0.00032551
1.18109e-05
-4.36508e-05
-0.000549142
1.46626e-05
-3.12161e-05
-0.000664517
-3.09331e-07
-3.31255e-05
-0.000883371
1.7406e-05
-3.62103e-05
-0.00116596
-2.07177e-05
-5.59281e-05
-0.00126947
4.9234e-05
-7.06025e-05
-0.00142264
0.000109349
-5.18342e-05
-0.00198455
1.85686e-05
-2.77395e-05
-0.00178996
-1.91736e-05
3.18541e-06
-0.00192713
1.93573e-05
1.61049e-05
-0.00170329
-0.0018565
0.000149425
-0.00263428
-0.00183929
0.000206651
-0.00339648
-0.00181911
8.74807e-05
-0.00279061
0.000520631
-0.00408711
-0.0011177
0.00040416
-0.00391983
-0.00166254
0.000222832
-0.00345162
-0.00186603
0.000140587
-0.00243568
-0.000565264
0.000677635
-0.0044463
-0.000908642
0.000523596
-0.00428491
-0.000891837
0.000366964
-0.00422909
-0.00146576
0.000198786
-0.00372488
-0.00166316
0.000104684
-0.00331402
-0.000813068
0.000551775
-0.00502628
-0.000652544
0.000407134
-0.00512433
-0.000813114
0.000351689
-0.0049057
-0.000766577
9.7781e-05
-0.00471206
-0.00129907
9.99354e-05
-0.00479073
-0.00136373
3.64437e-06
-0.00418405
-0.000575814
0.000638981
-0.00577339
-0.000750628
0.000440456
-0.00553921
-0.000666597
0.00036124
-0.00561653
-0.000748272
0.000428105
-0.00529424
-0.000794855
1.65348e-05
-0.00544967
-0.00117003
0.000137958
-0.00418103
-0.00134591
0.000117501
-0.0038312
-0.000125317
0.000846819
-0.00654675
-0.000247708
0.0008351
-0.0066816
-0.000567077
0.000581637
-0.00684212
-0.00057883
0.000431742
-0.00730012
-0.000599569
0.000424659
-0.00695989
-0.00107315
0.000314916
-0.00693472
-0.00124606
0.000212963
-0.00520409
-0.00130689
-0.000116027
-0.00580315
7.34897e-05
0.00119115
-0.00729731
4.32195e-06
0.00128837
-0.00710581
-0.000246906
0.00119314
-0.00690589
-0.000526526
0.00122645
-0.0065009
-0.00061418
0.00145061
-0.00613731
-0.000316134
0.00160881
-0.00680826
-0.000829851
0.00111762
-0.00753068
-0.0016436
0.000977635
-0.00688141
-0.00124891
0.000400318
-0.00500802
0.000135168
0.00103789
-0.00643816
-0.000184205
0.00117661
-0.00584314
-0.000316388
0.0010381
-0.00597797
-0.000414808
0.000818132
-0.00522278
-0.000515973
0.000812779
-0.00508948
-6.75195e-05
0.000824628
-0.00491615
9.66158e-05
0.00092405
-0.00440412
-0.000209654
0.000998351
-0.00514725
-0.000918522
0.00103021
-0.005503
-0.00126701
0.000544939
-0.00548916
5.5249e-05
0.000443408
-0.00478259
-0.000150962
0.000500345
-0.00436019
-0.000230848
0.000572443
-0.00367228
-0.000391701
0.000620192
-0.00302561
-0.000411564
0.000504317
-0.00250725
-0.00037143
0.000342349
-0.00173192
-0.000305763
0.000183793
-0.00198576
0.000330887
0.000211519
-0.00230216
5.02472e-05
0.000339207
-0.00263605
6.77687e-07
0.000406084
-0.00355962
-0.000527654
0.000311347
-0.00602406
-6.09301e-06
3.77412e-05
-0.00282473
-1.20681e-05
-4.53857e-07
-0.00326831
-3.83901e-05
-3.94646e-05
-0.00325937
-7.36066e-05
1.89878e-06
-0.00267381
-0.000143814
1.15462e-05
-0.00154144
-0.000148849
-1.00509e-05
-0.000720997
-7.18332e-05
-2.24799e-05
-0.00130405
-9.28457e-06
9.1871e-05
-0.00111939
0.000225245
0.000156024
-0.00130273
0.000170236
0.000302149
-0.000664918
0.000183107
0.000476468
0.00100575
-0.000257969
0.000323876
-0.00219316
-1.37155e-05
-3.84537e-06
-0.00123944
6.6515e-05
-1.50998e-06
-0.00144793
6.10786e-05
-4.52159e-05
-0.00168176
-2.43505e-06
-5.86794e-05
-0.00137413
-1.63214e-05
-4.37425e-05
-0.00111825
-3.34615e-05
-2.14836e-05
-0.00123006
-6.77443e-05
-3.28949e-05
-0.000767118
-8.34176e-05
-5.20196e-05
-0.0017445
9.11357e-05
-5.5399e-05
-0.00262279
0.000177161
-2.9713e-05
-0.00256684
3.68209e-05
8.15941e-06
-0.00149168
-4.39606e-05
8.96305e-05
-0.000305227
-0.00014556
0.000119113
-5.77815e-05
3.1166e-05
-1.668e-05
0.000867271
-1.88237e-05
-3.69331e-05
-1.75724e-05
6.04494e-06
-4.30745e-05
-0.000142451
1.78192e-05
-4.42931e-05
-0.000342687
1.26814e-05
-4.35441e-05
-0.000549496
1.38089e-05
-3.13904e-05
-0.000680061
5.65813e-06
-3.2267e-05
-0.000892973
1.92009e-05
-3.60014e-05
-0.00120509
-1.95593e-05
-5.7021e-05
-0.00126349
4.76109e-05
-6.97339e-05
-0.00145235
9.69978e-05
-5.16908e-05
-0.0020576
6.18311e-06
-2.72708e-05
-0.00176568
-2.89357e-05
1.01083e-06
-0.0018831
8.63315e-06
1.63571e-05
-0.00172829
-1.04066e-05
-0.00301378
-0.00185785
0.000151982
-0.0033601
-0.00190026
0.000155096
-0.00270824
-0.00122236
0.000376237
-0.00378132
-0.00170469
0.00017662
-0.00344347
-0.00184449
3.11512e-05
-0.0028433
0.000644041
-0.00413633
-0.00104397
0.000516444
-0.00406408
-0.00111582
0.000405772
-0.00387879
-0.00151675
0.000284047
-0.00354409
-0.00183984
0.000206949
-0.00246595
-0.000798454
0.000669272
-0.00441367
-0.000891855
0.000666298
-0.00434969
-0.00096276
0.000497493
-0.0042658
-0.00092884
0.000378306
-0.00424635
-0.00140041
0.000201562
-0.00372041
-0.0017523
0.000132833
-0.00305828
-0.000690783
0.000674645
-0.00530254
-0.000867554
0.000561842
-0.00506407
-0.00079416
0.000458311
-0.00510339
-0.000892825
0.000294002
-0.00495737
-0.000740008
0.000107495
-0.00477446
-0.00112007
0.000119909
-0.00495695
-0.00149736
-2.34801e-05
-0.00400913
-0.00035987
0.000795262
-0.00596461
-0.000496036
0.0006249
-0.0057095
-0.00069978
0.000467655
-0.00551293
-0.000607857
0.000399316
-0.00555871
-0.000734132
0.000303415
-0.00544655
-0.000860616
1.20788e-05
-0.00553633
-0.00117319
0.000159071
-0.00429546
-0.00150832
0.000177361
-0.00380713
-4.16334e-05
0.000951682
-0.00666255
-5.23649e-05
0.000882473
-0.00653743
-0.00036184
0.000781066
-0.0067661
-0.000697968
0.000585692
-0.00682463
-0.000727734
0.000431105
-0.00719301
-0.000576554
0.000490043
-0.0068746
-0.00107129
0.000254688
-0.006735
-0.00129098
-0.000415305
-0.00525744
-0.00119319
-0.000379328
-0.00547954
0.000214689
0.0010807
-0.00731738
8.81273e-05
0.00119766
-0.00747893
-0.000180136
0.00104464
-0.00709356
-0.000462743
0.00112159
-0.00675309
-0.000662378
0.00137058
-0.00627447
-0.000429197
0.00176205
-0.00592888
-0.000617564
0.00152481
-0.00650127
-0.000714548
0.00136874
-0.00741689
-0.00159555
0.00126302
-0.00706709
-0.00118285
0.000270603
-0.00536278
0.000210681
0.000881827
-0.00631569
-0.000107895
0.00107969
-0.0063843
-0.000130379
0.00102417
-0.00592968
-0.0003931
0.000849202
-0.00600764
-0.000500903
0.000869437
-0.0051901
-0.00041775
0.000773039
-0.00499158
-0.000372552
0.000791617
-0.00471693
0.000366442
0.000824649
-0.00426597
-0.000208863
0.00100925
-0.00486717
-0.000961959
0.00102025
-0.00501567
-0.0011691
0.000556889
-0.00540461
-9.50168e-05
0.000364132
-0.0042232
-2.04082e-05
0.000358301
-0.0046322
-3.53669e-05
0.000507005
-0.00429777
-0.000241511
0.000612527
-0.00349671
-0.000433989
0.000594561
-0.00282568
-0.000380197
0.000539114
-0.00247267
-0.000293912
0.000388293
-0.00171434
-0.000243677
0.000191021
-0.00173087
0.000148007
0.000153175
-0.00203889
0.000202534
0.00033046
-0.00259272
2.11319e-05
0.000280447
-0.00336675
-0.00081034
8.28192e-05
-0.0055545
9.81932e-05
2.50838e-05
-0.00242531
8.57505e-05
2.78425e-05
-0.00287226
-1.30738e-05
-1.33596e-05
-0.00322026
-8.27899e-05
-3.01925e-05
-0.00314693
-0.000119596
-3.83449e-06
-0.00255516
-0.000138107
3.34011e-05
-0.00148025
-0.000105241
-2.86448e-05
-0.000677336
-9.4795e-05
-8.68561e-05
-0.00111395
-2.08091e-05
6.72044e-05
-0.000918621
0.000215292
0.000119177
-0.00115789
0.000233078
0.000288107
-0.000672815
0.000239502
0.00045577
0.000590394
-0.000213646
0.000286008
-0.00241108
4.47571e-05
-2.96422e-05
-0.000566626
-1.92463e-05
-2.44558e-05
-0.00121607
5.60859e-05
-1.85359e-05
-0.00152465
3.81242e-05
-4.44359e-05
-0.00171631
-8.73223e-06
-5.68263e-05
-0.00133963
-1.84559e-05
-4.89721e-05
-0.0010585
-2.74087e-05
-5.04391e-05
-0.00117945
-3.88714e-05
-2.74237e-05
-0.000733641
-8.47088e-05
-4.3295e-05
-0.00169145
9.31413e-05
-6.11724e-05
-0.00263686
0.000154607
-5.72783e-06
-0.00261056
1.3664e-05
1.83337e-05
-0.00142786
-5.46079e-05
9.93641e-05
-0.000259806
-0.000161014
0.000118746
-6.88052e-06
5.06068e-05
-6.669e-06
0.001119
3.28986e-05
-1.62003e-05
0.000813639
-1.85696e-05
-3.72015e-05
-4.87579e-06
-2.72021e-07
-4.24375e-05
-0.000144035
9.99744e-06
-4.38028e-05
-0.000352425
9.98213e-06
-4.30409e-05
-0.000547828
1.5814e-05
-3.09819e-05
-0.00069716
1.18062e-05
-3.12012e-05
-0.000909579
1.81915e-05
-3.67784e-05
-0.00124353
-1.02572e-05
-5.77854e-05
-0.00126518
4.68728e-05
-6.86012e-05
-0.00148231
8.15047e-05
-5.05632e-05
-0.00211581
5.73356e-06
-2.8178e-05
-0.00174223
-3.79833e-05
1.40881e-06
-0.00183017
1.97571e-06
1.361e-05
-0.00174387
-0.000120162
-0.0034878
-0.00184616
-0.000133831
-0.00293404
-0.00119727
0.000254211
-0.00370431
-0.0016449
0.000232446
-0.00349723
-0.00195522
0.000143964
-0.00274147
-0.0011027
0.000435506
-0.00388878
-0.00128829
0.000352782
-0.00378502
-0.00160082
0.00019187
-0.00352012
-0.00186708
5.67365e-05
-0.00287279
0.00057132
-0.00413042
-0.000951856
0.000560981
-0.00412087
-0.00111853
0.000530065
-0.0040326
-0.00105056
0.000439976
-0.003913
-0.001413
0.000290411
-0.00361496
-0.00181677
0.000124268
-0.00252575
-0.00068937
0.000683745
-0.00457554
-0.000893673
0.000664535
-0.00438579
-0.00086312
0.00062188
-0.00440511
-0.000957766
0.000488735
-0.00431128
-0.000805118
0.000374536
-0.00435421
-0.00115621
0.000202638
-0.00375408
-0.00181088
0.000217978
-0.00296274
-0.000357327
0.000775885
-0.00546519
-0.000669367
0.000673648
-0.00524101
-0.000870376
0.000623194
-0.00505835
-0.000787612
0.000444694
-0.00507432
-0.000782349
0.000292836
-0.00509449
-0.000690799
9.39736e-05
-0.00491834
-0.00106513
7.50678e-05
-0.00516356
-0.00153649
-2.79794e-05
-0.00395298
-0.000342164
0.000964643
-0.00605833
-0.000313437
0.000825826
-0.00590446
-0.000576674
0.000614424
-0.00564144
-0.00070388
0.00048271
-0.00559041
-0.000738171
0.000389499
-0.00563436
-0.000775059
0.00030835
-0.00554432
-0.0009305
6.38353e-05
-0.00558188
-0.00108161
0.000258302
-0.00458577
-0.00154102
0.000283803
-0.0037431
0.000242974
0.00103165
-0.00674407
-9.38594e-05
0.000962848
-0.00656094
-0.00032303
0.000887611
-0.00650108
-0.000548437
0.000714669
-0.00680938
-0.000719843
0.00055172
-0.00688778
-0.00069051
0.000525179
-0.00696684
-0.000679397
0.0006046
-0.00716268
-0.00107958
0.00042024
-0.00720552
-0.0013366
-0.000504939
-0.00539077
-0.00103009
-0.000202177
-0.00543013
0.000300174
0.00101342
-0.00744969
0.000140711
0.00108578
-0.0074541
0.000109916
0.000919255
-0.00759384
-0.000313454
0.00115877
-0.00721039
-0.000524843
0.00120014
-0.00655871
-0.000505885
0.00159082
-0.0060151
-0.000555186
0.00164468
-0.00586612
-0.000374287
0.00175418
-0.00614598
-0.000324951
0.00134338
-0.00738116
-0.00175168
0.00124976
-0.00725652
-0.00113824
0.000327265
-0.0057209
0.000196476
0.00086681
-0.00583233
0.000102621
0.000830702
-0.00618973
5.08485e-05
0.000894881
-0.00634123
-0.000225076
0.000996824
-0.00609374
-0.000475105
0.000882174
-0.00597927
-0.000412981
0.000776124
-0.0051604
-0.00052503
0.000836191
-0.00480503
-0.000304191
0.000714007
-0.00454577
6.41488e-05
0.000852845
-0.00402571
0.000269596
0.000928254
-0.00484224
-0.000603053
0.000908837
-0.00474343
-0.0012438
0.000477682
-0.00544883
0.000144521
0.000230831
-0.00435153
0.000142577
0.000276478
-0.0041982
-6.59279e-06
0.000382426
-0.0045141
-0.00019369
0.000532299
-0.00410665
-0.000276293
0.000631316
-0.00337677
-0.000340888
0.000633135
-0.00271692
-0.000357129
0.000546641
-0.00237913
-0.000359398
0.000286215
-0.00154493
-0.000287417
0.00019919
-0.00151027
-5.03659e-05
0.000161498
-0.00160428
0.000403488
0.000253021
-0.00273571
0.000213561
3.30863e-05
-0.00329108
-0.000559859
0.000273545
-0.00548184
5.40706e-05
-1.89325e-05
-0.00211352
0.000108064
5.41434e-06
-0.00253019
5.87637e-05
6.44791e-06
-0.00289475
-5.54882e-05
-3.81208e-05
-0.00311872
-0.000107344
-3.90196e-05
-0.00301313
-0.000139739
-6.17651e-06
-0.00239429
-0.000143656
4.38321e-05
-0.00143648
-8.83149e-05
-5.99978e-05
-0.00065475
-8.97659e-05
-8.82676e-05
-0.000953418
-2.35508e-05
3.45245e-05
-0.000717276
0.000223057
8.3089e-05
-0.00102132
0.000190694
0.000240513
-0.000634587
3.55144e-05
0.000418299
0.00036798
-0.000206799
0.000261426
-0.00262672
6.46322e-05
2.49671e-05
0.000496216
3.60022e-05
-4.38058e-05
-0.00055038
-2.93159e-05
-3.86896e-05
-0.00118517
2.62091e-05
-2.87311e-05
-0.00156684
1.14719e-05
-4.11124e-05
-0.0017335
-1.51184e-05
-5.41374e-05
-0.00130937
-1.17317e-05
-6.1565e-05
-0.00101983
-2.26564e-05
-4.59644e-05
-0.00112645
-1.60314e-05
-4.39117e-05
-0.000698802
-6.1949e-05
-5.55283e-05
-0.0016454
9.97442e-05
-5.42527e-05
-0.00264121
0.000124819
1.07716e-06
-0.00263662
1.28253e-05
2.76965e-05
-0.00136329
-8.45713e-05
0.000107553
-0.000202025
-0.000148224
0.0001153
2.80193e-05
4.5142e-05
-9.32896e-06
0.000594028
6.12162e-05
-6.43193e-06
0.00104801
3.57754e-05
-1.67146e-05
0.000757377
-1.85864e-05
-3.76409e-05
8.91392e-06
-4.11242e-06
-4.15355e-05
-0.000142189
2.56862e-06
-4.32508e-05
-0.000354784
1.60254e-05
-4.29893e-05
-0.000551846
1.7486e-05
-3.07219e-05
-0.000715126
1.89902e-05
-3.04719e-05
-0.000934876
1.54777e-05
-3.70779e-05
-0.00127971
-6.36874e-06
-5.74984e-05
-0.00126992
4.43465e-05
-6.72958e-05
-0.00150993
6.76343e-05
-4.93932e-05
-0.00216223
-3.45784e-06
-2.75165e-05
-0.00170984
-4.21077e-05
-7.80555e-07
-0.00177367
-3.21546e-06
1.44742e-05
-0.00175513
-0.001577
-0.00017216
-0.0028198
-7.64935e-05
-0.00376498
-0.00144374
-0.000196949
-0.00362585
-0.00183475
-0.000107722
-0.00294679
-0.00108101
0.000327055
-0.00381379
-0.00114743
0.000228819
-0.00384154
-0.00150913
0.000184275
-0.00362923
-0.00194814