/*--------------------------------*- C++ -*----------------------------------*\
  =========                 |
  \\      /  F ield         | OpenFOAM: The Open Source CFD Toolbox
   \\    /   O peration     | Website:  https://openfoam.org
    \\  /    A nd           | Version:  7
     \\/     M anipulation  |
\*---------------------------------------------------------------------------*/
FoamFile
{
    version     2.0;
    format      ascii;
    class       surfaceScalarField;
    location    "8.5";
    object      phi_0;
}
// * * * * * * * * * * * * * * * * * * * * * * * * * * * * * * * * * * * * * //

dimensions      [0 3 -1 0 0 0 0];

internalField   nonuniform List<scalar> 
54095
(
0.00024433
-8.34483e-06
-0.000554713
0.000301095
6.47386e-05
-7.23916e-05
0.000257464
-3.62083e-05
-0.00147979
0.00022434
-3.86351e-06
-0.000775189
0.000121675
9.59647e-06
-7.96976e-05
0.000396062
-3.30811e-05
-0.00118991
0.000269175
8.11953e-05
-0.000198423
0.000211676
-5.80659e-05
-0.0012373
0.000194369
-2.26781e-05
-0.00165534
0.000193
4.04974e-07
-0.000968594
-0.000413447
0.000552454
-0.0061589
0.000481544
0.000477807
-0.00272894
0.000108741
-0.000147906
0.000228643
0.000301742
-0.000140599
-0.00200336
0.000183791
-6.70559e-06
-0.00109143
0.000213561
9.41448e-05
-0.000313129
0.00016155
-6.35123e-05
-0.00101751
0.000180515
-4.75165e-05
-0.00139298
0.000136184
-1.24911e-05
-0.00177863
0.000154628
3.10413e-06
-0.00112633
-0.0011069
0.000543291
-0.00664878
0.000327634
0.000980779
-0.00452928
-0.000456738
0.00053261
-0.00612603
0.00019616
0.000504066
-0.000734966
0.000374549
0.00043299
0.00363276
1.11508e-05
4.3744e-05
0.00038731
0.000117873
-0.000111304
-0.0021568
0.000305249
-0.000129985
-0.00200482
0.000140373
1.00438e-05
-0.00101152
0.000140982
0.000110368
-0.000409851
5.51675e-05
-6.81866e-05
-0.00111197
0.000149669
-6.11944e-05
-0.0011535
0.000148119
-3.97556e-05
-0.00151383
8.62871e-05
-5.48435e-06
-0.00185633
0.000116289
5.15011e-06
-0.00124776
-0.0012753
0.000105955
-0.00470914
-0.000673297
0.00127378
-0.00774207
-0.00119015
0.000520597
-0.00643596
0.000458703
0.000941141
-0.00392521
0.000236712
0.000798994
-0.00465783
-0.000559634
0.000478069
-0.00603332
5.26658e-05
0.000392056
-0.00174415
0.000456458
0.000451437
-0.000904622
0.000302321
0.000366239
0.00314831
-2.53247e-05
0.000126314
0.000427302
-3.00402e-05
-5.42377e-05
-0.0022752
0.00013477
-0.000114164
-0.00215772
0.000266094
-0.000115678
-0.00199707
6.97057e-05
4.08475e-05
-0.000925413
5.12151e-05
0.000120732
-0.000465509
-3.90917e-05
-5.13556e-05
-0.00137662
5.68264e-05
-6.88012e-05
-0.00116119
0.00014552
-6.06029e-05
-0.00127817
0.000123282
-3.36714e-05
-0.00160892
5.32304e-05
-5.78544e-07
-0.00190383
8.22458e-05
6.63283e-06
-0.00133664
-0.00147379
0.000172942
-0.00506958
-0.00101075
0.000322017
-0.00675618
-0.00139586
0.000158162
-0.00466159
0.000153508
0.00139343
-0.00776632
-0.000741624
0.00125078
-0.00749392
-0.00125778
0.000528572
-0.00626638
0.000226054
0.000649024
-0.00397217
0.000370887
0.000755811
-0.00379646
7.25907e-05
0.000750472
-0.0047005
-0.000614484
0.000448054
-0.00589221
-0.000171886
0.000388127
-0.00213464
0.000125566
0.000390699
-0.00167421
0.000296642
0.000357766
-0.000926696
0.000280859
0.00038197
0.00268151
-5.98288e-05
0.000215064
0.000323282
-0.000140794
-1.73799e-05
-0.00196816
2.44464e-05
-5.23692e-05
-0.00230462
0.000153644
-0.000110826
-0.00217069
0.000231042
-0.000104097
-0.00195989
4.35525e-05
4.57542e-05
-0.000840757
-4.50313e-05
0.000122442
-0.000460674
5.98863e-06
-3.75511e-05
-0.00101032
-4.07631e-05
-5.08753e-05
-0.00135378
5.22125e-05
-7.0008e-05
-0.00120399
0.000140014
-5.87859e-05
-0.00139307
9.70005e-05
-2.93939e-05
-0.00167711
3.54718e-05
2.8072e-06
-0.00193548
6.03261e-05
7.32626e-06
-0.0014043
-0.00167123
0.000104984
-0.00358319
-0.00100634
0.000195936
-0.00555462
-0.00158103
5.84963e-05
-0.00494291
-0.000849363
0.000765696
-0.00673791
-0.000866011
0.000334379
-0.00680801
-0.00143302
0.000102745
-0.0045891
6.88131e-05
0.00126917
-0.00709677
-0.000328153
0.00139407
-0.00721057
-0.000873253
0.00129651
-0.00731601
-0.00134472
0.000546634
-0.00608279
-0.000115754
0.00049968
-0.00327517
0.000150319
0.00052921
-0.00377032
3.28745e-05
0.000738254
-0.00352047
2.02571e-05
0.000725487
-0.00471733
-0.000567542
0.000445372
-0.00582987
-0.000201482
0.000273332
-0.00212965
-0.000130756
0.000417561
-0.0020063
0.000130034
0.000332123
-0.00162496
0.000309296
0.000310783
-0.000933763
0.000232307
0.000368399
0.00233942
-9.47393e-05
0.000315614
5.73751e-05
-0.000125914
7.78355e-06
-0.00130857
-0.000141998
-1.27517e-05
-0.00190654
2.49747e-05
-6.38528e-05
-0.00232435
0.000173892
-0.000114638
-0.00219403
0.000194005
-0.000109056
-0.00190208
4.08139e-05
4.54304e-05
-0.000769088
-0.000149779
0.000123211
-0.00037378
6.14469e-06
-3.16709e-05
-0.000852735
5.89873e-06
-3.8311e-05
-0.00102878
-3.6488e-05
-5.06247e-05
-0.00133668
4.77874e-05
-6.99183e-05
-0.00124065
0.000137447
-5.63493e-05
-0.00150356
7.82325e-05
-2.7181e-05
-0.00172535
2.59145e-05
4.26456e-06
-0.00195833
4.77528e-05
7.9693e-06
-0.00146002
-0.00144144
-0.000182266
-0.00343667
-0.0011556
0.000230242
-0.00438909
-0.0017429
0.000144059
-0.00356538
-0.000799089
0.000158673
-0.00587982
-0.000864167
-0.000103948
-0.00539402
-0.00155677
6.34282e-06
-0.0048255
-0.000480974
0.0010801
-0.00704267
-0.000899576
0.000764259
-0.00659637
-0.00116925
0.00034901
-0.00675828
-0.0013873
-0.00014239
-0.00440413
-8.37091e-05
0.00115338
-0.00649939
-0.000113769
0.00121909
-0.0066577
-0.000523629
0.00144743
-0.00680499
-0.00102061
0.00136133
-0.00708984
-0.00131371
0.000641827
-0.00597844
-0.000222333
0.000424088
-0.00250325
-0.000179238
0.000429696
-0.00312718
3.97382e-05
0.000466636
-0.00340841
0.000113227
0.000736956
-0.00333587
-1.11137e-05
0.000625369
-0.00465391
-0.000456697
0.000442377
-0.00591029
-0.000177688
4.13476e-05
-0.00171385
-0.000194935
0.000345493
-0.00200464
-0.000132712
0.000383497
-0.00189999
0.000176162
0.000278431
-0.00159488
0.000360011
0.000283135
-0.00101451
0.000169706
0.000405872
0.00212027
-0.000146283
0.000403826
-0.000349946
1.0443e-05
1.37044e-05
-0.00134501
-0.000111211
7.10592e-06
-0.00121131
-7.4975e-06
-2.62321e-05
-0.00197316
4.12441e-05
-5.18856e-05
-0.00238056
0.000184131
-0.000110523
-0.00223925
0.000152937
-0.000107293
-0.00182406
3.31667e-05
4.48615e-05
-0.00069799
-0.000196427
0.000127652
-0.000257252
1.43257e-05
-3.31771e-05
-0.000605984
2.63333e-06
-3.26857e-05
-0.000860994
7.75204e-06
-3.89685e-05
-0.00104819
-3.72869e-05
-5.05004e-05
-0.00131881
4.93622e-05
-6.99375e-05
-0.00127642
0.000132943
-5.4815e-05
-0.00160887
6.42609e-05
-2.61156e-05
-0.00175923
1.87163e-05
4.68448e-06
-0.00197376
4.18255e-05
9.6782e-06
-0.00151152
-0.00142109
0.000201129
-0.00370144
-0.00131883
2.00664e-05
-0.00474798
-0.00149814
-0.000102629
-0.00357879
-0.000664657
0.000349171
-0.00546173
-0.00124637
0.00019322
-0.00405605
-0.00163563
0.000117167
-0.00360369
-0.000467779
0.000272832
-0.0066228
-0.000674225
-0.000123984
-0.00608513
-0.00120316
-0.000181405
-0.00517236
-0.00142151
5.8441e-05
-0.00484974
-0.00047053
0.00123147
-0.00694612
-0.000473056
0.00109141
-0.00701053
-0.000953908
0.00086334
-0.00668042
-0.00136901
0.000252387
-0.00680466
-0.00133772
-0.000218165
-0.00416196
-0.000114627
0.00113342
-0.00556678
-0.000199371
0.00100156
-0.00626173
-0.000213291
0.00124883
-0.00620606
-0.000294312
0.00146627
-0.00650239
-0.00107677
0.00163589
-0.00701825
-0.00114865
0.000694793
-0.00598128
-0.000254612
0.000469846
-0.00291825
-0.000268488
0.000413132
-0.00241314
-0.000254943
0.000383247
-0.00292156
6.48348e-05
0.000447081
-0.0030072
0.000252446
0.000628539
-0.00323148
-0.000167792
0.000554542
-0.00442857
-0.000346143
0.000434543
-0.00614498
-4.13503e-05
-4.49609e-05
-0.00215973
-0.000146672
0.000110327
-0.00144322
4.9196e-05
0.000219173
-0.00189701
-7.55028e-05
0.000291196
-0.00179601
0.000212221
0.000258792
-0.00159862
0.000297842
0.000307689
-0.00106123
0.000170035
0.000473789
0.00191343
-0.000275727
0.000466192
-0.00073684
2.04506e-05
-8.88931e-06
-0.00131987
-9.05144e-06
1.68769e-05
-0.0013431
-0.000102001
6.67859e-08
-0.00112786
-0.000141627
-1.05311e-05
-0.00191017
4.27429e-05
-5.42686e-05
-0.0024302
0.000200368
-0.000112697
-0.00230127
0.000132827
-0.00010035
-0.00174742
1.0249e-05
5.46875e-05
-0.000616559
-0.000191109
0.000126925
-0.000151243
1.37202e-05
-4.1628e-05
-0.000541626
1.1622e-05
-3.31227e-05
-0.000617169
7.07867e-07
-3.36596e-05
-0.000867011
9.5856e-06
-3.87283e-05
-0.00106955
-3.54528e-05
-5.14202e-05
-0.00130187
5.2484e-05
-7.09285e-05
-0.00131279
0.000127093
-5.36029e-05
-0.00170848
5.35961e-05
-2.51646e-05
-0.00178298
8.82939e-06
6.12745e-06
-0.00197904
4.0083e-05
1.09323e-05
-0.00156254
0.000159758
-0.00282743
-0.00145533
0.000197006
-0.00398527
-0.00149481
8.31314e-05
-0.00378791
-0.000674856
0.000167
-0.00492103
-0.00149314
0.000135913
-0.00473976
-0.00134537
-0.000133042
-0.003736
-0.000574734
0.000389391
-0.00528834
-0.000501422
0.000319374
-0.00576068
-0.00123422
0.000158902
-0.00406673
-0.00152873
0.00010564
-0.00360211
-0.000662077
0.000424778
-0.00678073
-0.00025567
7.39313e-05
-0.0070381
-0.000673109
0.000102595
-0.00664993
-0.00119327
-9.08634e-05
-0.0051988
-0.00137522
0.000267516
-0.00507975
-0.000170056
0.00145006
-0.00692098
-0.000478498
0.00120387
-0.00677945
-0.000476816
0.00116851
-0.00705218
-0.000527839
0.0010039
-0.00719841
-0.00146689
0.000205387
-0.00683809
-0.0012625
2.38985e-05
-0.004072
-0.000193326
0.00109643
-0.0051254
-0.000208884
0.000994672
-0.0056195
-0.000370267
0.000956414
-0.00585399
-0.000198816
0.00124464
-0.00572078
-0.000121433
0.00164611
-0.00613873
-0.00122397
0.0013773
-0.00664457
-0.0010556
0.00059987
-0.00587168
-0.000173365
0.000578215
-0.0035518
-0.00028492
0.000510135
-0.00287701
-0.000295645
0.000435546
-0.00212059
-0.000262079
0.000363052
-0.00265095
0.000205751
0.000394061
-0.00276626
0.00033602
0.000511652
-0.00322676
-0.000291252
0.000547641
-0.00408038
-0.000558534
0.000399964
-0.00626213
4.52666e-05
-7.54772e-05
-0.00281764
-0.000103466
-2.97744e-05
-0.00192521
-0.000139407
5.46001e-06
-0.0011921
-0.000144448
0.000153409
-0.0017564
-6.37965e-05
0.000251716
-0.00168239
0.000247181
0.000247404
-0.00158515
0.000241381
0.000330419
-0.00102641
0.000123796
0.000486364
0.00177972
-0.000226663
0.000469724
-0.00117101
3.86875e-06
-3.21209e-05
-0.0015077
1.01009e-05
-1.35012e-05
-0.00128798
-2.21883e-05
1.25054e-05
-0.00133264
-0.000109691
4.44636e-06
-0.00102356
-0.000104578
-1.8432e-05
-0.00187688
5.27499e-05
-6.11901e-05
-0.00248197
0.000194826
-0.000104293
-0.00236506
0.000115113
-7.48822e-05
-0.00167937
-2.02191e-05
5.85241e-05
-0.000519109
-0.000127095
0.000120392
-0.000104457
2.30637e-05
-4.1895e-05
-0.000278021
1.3823e-05
-4.23217e-05
-0.00054625
1.15381e-05
-3.27025e-05
-0.000629665
-1.42953e-07
-3.38923e-05
-0.000871704
1.24012e-05
-3.84268e-05
-0.00109494
-3.42208e-05
-5.35182e-05
-0.00128506
5.60543e-05
-7.15375e-05
-0.00135091
0.000123309
-5.28336e-05
-0.00180412
4.15401e-05
-2.38048e-05
-0.00179459
1.41216e-06
3.09012e-06
-0.00197261
3.66693e-05
1.30147e-05
-0.00161222
0.000154691
-0.00347816
-0.00176682
0.000166281
-0.0027217
-0.000888385
0.00035436
-0.00427019
-0.00161168
0.000141364
-0.00392496
-0.00152585
0.00017321
-0.00378064
-0.000729366
0.000325236
-0.0049913
-0.00064658
0.000182712
-0.00482267
-0.00138505
8.61643e-05
-0.00480814
-0.0012687
-6.02626e-05
-0.00393577
-0.000574982
0.000353074
-0.00575223
-0.000442963
0.000476244
-0.00525792
-0.000556371
2.89709e-05
-0.00574749
-0.00113303
0.000176573
-0.0041979
-0.00146797
0.000166164
-0.00367553
-0.000422677
0.000624066
-0.00671481
-0.000519609
0.000372463
-0.00703815
-0.000447663
0.000215771
-0.00718043
-0.000611934
0.000245322
-0.00690202
-0.00119332
3.99514e-05
-0.0052448
-0.00138656
0.00039518
-0.00535087
-0.000121118
0.00152843
-0.00671309
-0.000368584
0.00130346
-0.00686088
-0.00058649
0.00123571
-0.00663043
-0.000503402
0.00131013
-0.00705382
-0.000426634
0.00108098
-0.0077688
-0.00158708
0.000286525
-0.0067376
-0.00117972
0.000425976
-0.00437386
-9.58237e-05
0.00117148
-0.00558961
-0.000201302
0.00102883
-0.00524318
-0.000343425
0.000892664
-0.00550797
-0.000331501
0.000934697
-0.00547463
6.74631e-05
0.00121987
-0.00515626
-7.86809e-05
0.00131903
-0.00566576
-0.00130965
0.00114814
-0.00617445
-0.00111571
0.000492823
-0.00580734
-0.000248421
0.000571054
-0.00406094
-0.000258191
0.00048345
-0.00337039
-0.000331883
0.000471245
-0.00272023
-0.000308416
0.00042123
-0.0020148
-0.000173332
0.000289715
-0.00243707
0.000356555
0.000328632
-0.00269261
0.000212192
0.000481385
-0.00313132
-0.000302683
0.0005814
-0.00383534
-0.000563603
0.000367684
-0.00629288
2.08567e-05
-5.47898e-05
-0.00331613
4.39177e-06
-5.48684e-05
-0.00278684
-0.000123117
-2.51386e-05
-0.00179368
-0.000163417
1.70082e-05
-0.00100198
-0.000103395
0.00010133
-0.0016072
-5.47729e-05
0.000194522
-0.00152199
0.000228105
0.000228591
-0.0015166
0.000107402
0.000314723
-0.000847058
8.89512e-05
0.000509714
0.00163055
-0.000113748
0.000407347
-0.0015917
4.16836e-05
-1.87687e-05
-0.00158241
-1.1039e-06
-4.628e-05
-0.00145999
-1.57327e-06
-2.21117e-05
-0.00124025
-2.71937e-05
4.06593e-06
-0.00130521
-9.59755e-05
-1.62965e-06
-0.000931987
-0.000118175
-2.64092e-05
-0.00182771
6.3709e-05
-6.31768e-05
-0.00253074
0.000197437
-8.39892e-05
-0.00243008
7.99823e-05
-5.29073e-05
-0.00160638
-3.99564e-05
6.90739e-05
-0.000426423
-7.36765e-05
0.000117483
-0.000111594
-3.18589e-06
-4.33641e-05
-0.00012773
2.51988e-05
-4.33088e-05
-0.000302233
1.24414e-05
-4.29239e-05
-0.00054847
1.19036e-05
-3.19211e-05
-0.000643539
-6.51283e-07
-3.35807e-05
-0.000875899
1.26662e-05
-3.78761e-05
-0.00112325
-3.27922e-05
-5.47773e-05
-0.00126903
5.35504e-05
-7.14186e-05
-0.00138588
0.000118994
-5.24149e-05
-0.0018945
3.25129e-05
-2.66198e-05
-0.00179739
-1.01283e-05
3.08899e-06
-0.00195256
2.92189e-05
1.43596e-05
-0.0016558
-0.00188484
0.000113169
-0.00274277
0.000376369
-0.00394716
-0.00165562
0.000193668
-0.00346161
-0.0017747
0.000129725
-0.00260257
-0.000882387
0.000523837
-0.00433249
-0.000878378
0.000365942
-0.00426298
-0.00156081
0.000247439
-0.00382342
-0.00155944
0.000119204
-0.0036091
-0.00044669
0.000405567
-0.00517011
-0.000703526
0.000338793
-0.00488682
-0.000738354
0.000183318
-0.00473785
-0.00129425
8.02563e-05
-0.00478743
-0.00127778
1.69864e-06
-0.00412765
-0.000681919
0.000495045
-0.00553584
-0.000537452
0.00034003
-0.00559818
-0.000654706
0.000212953
-0.00523486
-0.000720327
0.000163085
-0.00562561
-0.00120058
0.000165801
-0.00419028
-0.00141314
0.000177945
-0.0038269
-0.000317467
0.000788418
-0.00664889
-0.000650996
0.000636492
-0.00669643
-0.000542435
0.000303663
-0.0071701
-0.000536918
0.000257903
-0.00715949
-0.000759951
0.000395076
-0.00692383
-0.00119586
3.48422e-05
-0.00527569
-0.00123257
0.000638447
-0.00593646
2.55821e-05
0.00141678
-0.00696828
-7.21771e-05
0.00130595
-0.0068447
-0.000416312
0.00123753
-0.00678981
-0.000521911
0.00136681
-0.0064967
-0.000390337
0.00141862
-0.00693366
-0.000785811
0.00106527
-0.00784041
-0.00160804
0.000716451
-0.00672969
-0.0012613
0.000394422
-0.0046227
-0.000329545
0.00117452
-0.00573991
-0.000123336
0.00111373
-0.00580936
-0.000330585
0.000944541
-0.00529635
-0.00040377
0.000847739
-0.00532565
-0.000242521
0.00089052
-0.00507609
0.000357842
0.00104904
-0.00488756
-0.000158164
0.0011753
-0.00532257
-0.00121139
0.000984055
-0.00575697
-0.00118954
0.000513888
-0.00569529
5.3726e-05
0.000442935
-0.00451514
-0.000216762
0.000491006
-0.00384734
-0.000345496
0.000518518
-0.00319528
-0.000355405
0.000535071
-0.00264208
-0.000357943
0.000383859
-0.0018544
-0.000148242
0.000228115
-0.00224309
0.000288566
0.000209512
-0.0024812
-1.88307e-05
0.000499048
-0.00292274
-0.000172957
0.000459009
-0.00366476
-0.000530812
0.000335443
-0.00621126
-2.18092e-05
1.89879e-05
-0.00328697
-2.11055e-06
-5.67704e-05
-0.00331322
-3.56184e-05
-2.8063e-05
-0.00274987
-0.000146884
-1.45644e-06
-0.00165553
-0.00015793
-5.32617e-06
-0.000833366
-0.000131893
3.34465e-05
-0.00143241
-6.91317e-05
0.000146499
-0.00130705
0.000214607
0.000196003
-0.00141505
0.000185738
0.000308899
-0.000751999
0.000163385
0.000500048
0.00133451
-3.38227e-05
0.000367513
-0.00199907
4.26243e-05
3.09568e-05
-0.00134344
6.36271e-05
-3.70883e-05
-0.00163003
-2.40238e-06
-5.40802e-05
-0.00141318
-2.70494e-06
-3.45395e-05
-0.00118703
-2.59767e-05
-8.01331e-06
-0.0012735
-8.70473e-05
-9.68278e-06
-0.000849
-0.000110469
-3.44816e-05
-0.00177873
7.9815e-05
-7.43492e-05
-0.00256664
0.000190238
-5.79633e-05
-0.00249627
5.40624e-05
-2.07641e-05
-0.00153809
-3.57265e-05
7.72617e-05
-0.000360603
-9.33358e-05
0.000117614
-0.000106654
-2.06333e-05
-3.79565e-05
-3.23546e-05
6.09795e-06
-4.32156e-05
-0.000133921
2.42085e-05
-4.4132e-05
-0.000325233
1.18362e-05
-4.35713e-05
-0.000548656
1.42308e-05
-3.13134e-05
-0.000660037
-1.03348e-06
-3.32666e-05
-0.000879475
1.63547e-05
-3.63333e-05
-0.00115805
-2.22532e-05
-5.55452e-05
-0.00126265
4.98421e-05
-7.05773e-05
-0.00141756
0.00011038
-5.1919e-05
-0.00197958
2.05011e-05
-2.75658e-05
-0.00178724
-1.89772e-05
3.06935e-06
-0.00192229
2.04423e-05
1.58106e-05
-0.00169205
-0.00185773
0.000148393
-0.00262827
-0.00183512
0.000206472
-0.00339278
-0.00181878
8.81217e-05
-0.00278681
0.000520272
-0.00408406
-0.00111536
0.00040414
-0.00392065
-0.00166615
0.000221631
-0.00344818
-0.00186404
0.000140082
-0.00243805
-0.000558311
0.000676743
-0.00444848
-0.000908298
0.000523924
-0.0042857
-0.000888392
0.000364812
-0.00423031
-0.00146699
0.000197992
-0.00372947
-0.00165686
0.000102294
-0.00333233
-0.000810393
0.000552064
-0.00502561
-0.000645219
0.000403802
-0.00512735
-0.000807652
0.000351973
-0.00490253
-0.000762617
9.85253e-05
-0.00471382
-0.00129754
9.68464e-05
-0.00478563
-0.00135632
3.21305e-06
-0.00418769
-0.000571766
0.000641754
-0.00578084
-0.000747939
0.000441217
-0.00554008
-0.000662798
0.000358639
-0.0056235
-0.000744109
0.000422816
-0.0052874
-0.000786967
2.0501e-05
-0.00545329
-0.00117557
0.000137972
-0.00417059
-0.00134461
0.000123456
-0.00383832
-0.000124691
0.000849215
-0.00654976
-0.000244741
0.000835868
-0.0066757
-0.000559476
0.000587511
-0.00683711
-0.000572028
0.000432446
-0.00729452
-0.000602606
0.000419187
-0.00697133
-0.00106298
0.000327266
-0.00693908
-0.00124281
0.000217768
-0.00522024
-0.00130791
-6.87705e-05
-0.00582108
7.58327e-05
0.001197
-0.00727898
1.04648e-05
0.00130611
-0.00710224
-0.000228069
0.00120045
-0.00691014
-0.000510574
0.00121699
-0.00653319
-0.000607083
0.001437
-0.00615052
-0.000287766
0.0016065
-0.00682928
-0.000841606
0.00109462
-0.00753513
-0.00164135
0.000964955
-0.00687026
-0.00124948
0.000409239
-0.00497199
0.000154017
0.00103136
-0.00645208
-0.000195294
0.00118689
-0.00583454
-0.000302998
0.0010545
-0.00596182
-0.000406899
0.000823137
-0.00522026
-0.000519522
0.000813347
-0.0050869
-7.30569e-05
0.000822672
-0.00492491
8.70367e-05
0.000928684
-0.00443941
-0.00019364
0.00100177
-0.00516548
-0.000922333
0.00102222
-0.00551593
-0.0012701
0.000541831
-0.00549783
5.99022e-05
0.000438769
-0.0047806
-0.00015112
0.000496688
-0.00437181
-0.000230375
0.000562438
-0.0036965
-0.000387415
0.000618211
-0.00303789
-0.000406656
0.000502347
-0.00251184
-0.000375412
0.000341366
-0.00172413
-0.000302098
0.000184752
-0.00198536
0.000337896
0.000210083
-0.00231552
4.84328e-05
0.000340271
-0.00266669
1.06652e-06
0.000412016
-0.00357901
-0.000506821
0.000324768
-0.00606303
-2.84137e-06
3.95862e-05
-0.00281889
-1.59424e-05
1.57129e-06
-0.00326574
-3.53712e-05
-4.11158e-05
-0.0032672
-6.96764e-05
-1.05932e-06
-0.0026833
-0.000143306
8.13481e-06
-0.00155166
-0.000149439
-1.18867e-05
-0.000725641
-7.10637e-05
-2.06515e-05
-0.00130466
-1.0314e-05
9.32906e-05
-0.00111421
0.000224292
0.000157541
-0.00129775
0.000168717
0.000300354
-0.000666958
0.000183166
0.000475127
0.00100801
-0.00024185
0.000329906
-0.00218046
-1.38499e-05
-1.85105e-06
-0.00123909
6.63071e-05
6.59971e-07
-0.0014414
6.1791e-05
-4.4707e-05
-0.00167698
-2.44078e-06
-5.89219e-05
-0.00137452
-1.57818e-05
-4.35037e-05
-0.00112153
-3.30625e-05
-2.06128e-05
-0.00123054
-6.89287e-05
-3.23528e-05
-0.000765846
-8.47204e-05
-5.1486e-05
-0.00173912
8.99219e-05
-5.52314e-05
-0.00260946
0.000178922
-3.34594e-05
-0.00255212
4.04067e-05
4.87015e-06
-0.0014856
-4.18863e-05
8.75558e-05
-0.000307635
-0.000142762
0.000118567
-6.20174e-05
3.10786e-05
-1.64297e-05
0.000868207
-1.91827e-05
-3.69125e-05
-1.94751e-05
6.24582e-06
-4.30625e-05
-0.000141236
1.84127e-05
-4.42072e-05
-0.00034301
1.24248e-05
-4.34922e-05
-0.000548902
1.35468e-05
-3.13604e-05
-0.00067549
4.73579e-06
-3.24191e-05
-0.000888125
1.91801e-05
-3.58119e-05
-0.00119696
-2.08841e-05
-5.6653e-05
-0.00125569
4.7733e-05
-6.97129e-05
-0.0014475
9.82409e-05
-5.16817e-05
-0.00205371
7.08942e-06
-2.72207e-05
-0.00176404
-2.8758e-05
1.24933e-06
-0.00187897
9.67561e-06
1.66967e-05
-0.00171842
-6.49058e-06
-0.00300837
-0.00185878
0.000152714
-0.00335387
-0.00189877
0.000156167
-0.00270445
-0.00122257
0.000377931
-0.00377894
-0.00171067
0.000177161
-0.0034373
-0.00184395
3.08913e-05
-0.0028378
0.000645766
-0.00413564
-0.0010412
0.000516726
-0.00406374
-0.00111299
0.000405547
-0.00387996
-0.00151791
0.000282491
-0.00353966
-0.00183866
0.000208199
-0.00246444
-0.000795727
0.000668733
-0.00441437
-0.000886881
0.000666898
-0.00434979
-0.000960543
0.000497024
-0.00426502
-0.000924134
0.000375668
-0.00424647
-0.0014043
0.000200115
-0.00372053
-0.00174543
0.00012947
-0.00307269
-0.000685164
0.000675063
-0.00530535
-0.000864901
0.00055931
-0.00506416
-0.000789504
0.000455414
-0.00510408
-0.000891276
0.000294746
-0.00495158
-0.000742837
0.000106549
-0.00476766
-0.00113016
0.000118322
-0.00494615
-0.00149213
-2.63344e-05
-0.00401383
-0.000364404
0.000793304
-0.00597005
-0.000495511
0.000626865
-0.00571572
-0.00069579
0.000466913
-0.00551204
-0.000607135
0.000395005
-0.00556058
-0.000736415
0.000306467
-0.00543956
-0.000859039
1.01214e-05
-0.00552939
-0.00117127
0.000159145
-0.00427782
-0.00150659
0.00017141
-0.00381105
-3.62491e-05
0.000952298
-0.00666437
-4.15818e-05
0.000880145
-0.00654199
-0.000346248
0.000789266
-0.00675928
-0.000693022
0.000593192
-0.00681541
-0.000722093
0.000432177
-0.0071925
-0.000568181
0.000489408
-0.00685306
-0.00107727
0.000249007
-0.00673466
-0.00129135
-0.000380347
-0.00525867
-0.00120541
-0.000367479
-0.00549766
0.000226853
0.00107257
-0.00731514
8.4536e-05
0.00120773
-0.00746043
-0.000161812
0.00105458
-0.00709756
-0.000450193
0.00112271
-0.00677257
-0.000670458
0.00135284
-0.00629809
-0.000442481
0.00175284
-0.00592743
-0.000626377
0.00151346
-0.00653471
-0.000726324
0.00137523
-0.00741272
-0.00158819
0.00124738
-0.00704254
-0.00119135
0.000266644
-0.00531739
0.000214255
0.000886539
-0.00631932
-0.000110365
0.00108796
-0.00639391
-0.000134828
0.0010327
-0.00590828
-0.000385829
0.000860141
-0.00600041
-0.000492799
0.000865757
-0.00518652
-0.000419063
0.000768311
-0.00498889
-0.00036515
0.00079058
-0.00472375
0.000375237
0.000821096
-0.00429607
-0.000237505
0.00100739
-0.00486471
-0.000963207
0.00102388
-0.00503371
-0.00117393
0.000561063
-0.00539179
-9.55847e-05
0.000361718
-0.00423785
-1.973e-05
0.000359211
-0.00463933
-3.18606e-05
0.000502577
-0.00431546
-0.000242645
0.00060796
-0.00351328
-0.000438076
0.000592571
-0.00283334
-0.000384024
0.000536892
-0.00247279
-0.000291875
0.000390475
-0.00170904
-0.000241305
0.000188899
-0.00173318
0.000160523
0.000150911
-0.00206239
0.000175311
0.000333297
-0.00259457
1.22664e-05
0.000296443
-0.00337979
-0.000798879
8.14649e-05
-0.00558746
9.87009e-05
2.66877e-05
-0.00241679
8.27429e-05
2.89577e-05
-0.00286272
-1.13751e-05
-1.10738e-05
-0.00322262
-8.05696e-05
-3.07817e-05
-0.00315934
-0.000116358
-4.75598e-06
-0.00256983
-0.000138485
3.04998e-05
-0.00148863
-0.000106183
-2.88654e-05
-0.000680172
-9.38614e-05
-8.66653e-05
-0.00111556
-2.07994e-05
6.79999e-05
-0.000913951
0.000214753
0.000119822
-0.00115305
0.0002369
0.00028619
-0.000674515
0.000255025
0.000454885
0.000586115
-0.000221214
0.000289194
-0.0023912
4.5718e-05
-2.9414e-05
-0.000570903
-1.86023e-05
-2.27055e-05
-0.0012163
5.80809e-05
-1.76224e-05
-0.00152032
4.03535e-05
-4.44251e-05
-0.00171342
-8.93846e-06
-5.71007e-05
-0.00133956
-1.88488e-05
-4.86819e-05
-0.00106107
-2.79133e-05
-5.01304e-05
-0.00118011
-3.99048e-05
-2.68935e-05
-0.000731353
-8.52977e-05
-4.27899e-05
-0.00168715
9.28907e-05
-6.05803e-05
-0.00262749
0.000158184
-8.41473e-06
-0.00259877
1.64515e-05
1.65672e-05
-0.00142398
-5.28735e-05
9.74296e-05
-0.000262382
-0.000161284
0.000118329
-9.38694e-06
5.03261e-05
-6.56594e-06
0.00111798
3.29017e-05
-1.61098e-05
0.000814503
-1.88004e-05
-3.72626e-05
-6.47468e-06
2.22607e-07
-4.24296e-05
-0.000143236
1.05835e-05
-4.37401e-05
-0.000353346
9.82079e-06
-4.2967e-05
-0.000547116
1.55179e-05
-3.10058e-05
-0.000692421
1.08422e-05
-3.13936e-05
-0.000903385
1.87149e-05
-3.65368e-05
-0.00123579
-1.17501e-05
-5.76505e-05
-0.001256
4.72194e-05
-6.86171e-05
-0.00147778
8.27949e-05
-5.09079e-05
-0.00211281
4.58435e-06
-2.80571e-05
-0.00173932
-3.82866e-05
1.67308e-06
-0.00182566
2.08088e-06
1.3481e-05
-0.00173399
-0.000114963
-0.00347919
-0.00184756
-0.000130054
-0.00292954
-0.00120262
0.000254894
-0.00369661
-0.00165136
0.000233245
-0.00349025
-0.00195499
0.000145161
-0.00273856
-0.00109925
0.000436137
-0.00388684
-0.00128859
0.000354062
-0.00378023
-0.00160429
0.000192055
-0.00351209
-0.00186533
5.7367e-05
-0.0028685
0.000572602
-0.00412874
-0.000947617
0.000562259
-0.00412044
-0.00111529
0.000529043
-0.00403249
-0.00105376
0.000440073
-0.00390792
-0.00141717
0.000291109
-0.0036097
-0.00181703
0.000126226
-0.00251907
-0.000687108
0.000683412
-0.00457461
-0.000892263
0.000664938
-0.00438505
-0.000862365
0.000622766
-0.00440267
-0.000957523
0.000487282
-0.00431039
-0.000814706
0.000374042
-0.00434853
-0.00116168
0.000199058
-0.00375861
-0.00180953
0.000215104
-0.00297039
-0.000351622
0.000774573
-0.00547085
-0.000670079
0.000672261
-0.00524374
-0.000867562
0.000620604
-0.00505758
-0.00078618
0.000444184
-0.00507447
-0.000782233
0.000292551
-0.00509176
-0.000688127
9.17971e-05
-0.00491204
-0.00106453
7.19913e-05
-0.00515122
-0.00153432
-3.22394e-05
-0.00395386
-0.00034283
0.000966539
-0.00606674
-0.000301501
0.000827368
-0.00591064
-0.000571051
0.000616334
-0.00564034
-0.000705512
0.000479598
-0.00558415
-0.000735911
0.000391127
-0.00563143
-0.000768902
0.000310278
-0.00553899
-0.000930491
6.06137e-05
-0.00557764
-0.00109188
0.000250916
-0.00455679
-0.00153994
0.000281228
-0.00375775
0.000253055
0.00103099
-0.00673899
-9.09442e-05
0.000961499
-0.00657025
-0.000304509
0.000891118
-0.00650114
-0.000535381
0.000719202
-0.0068001
-0.000716362
0.000547442
-0.00688477
-0.000686246
0.000513868
-0.0069732
-0.000678101
0.000596285
-0.00714861
-0.00108635
0.00040938
-0.00716435
-0.00134054
-0.000496282
-0.00537751
-0.00102708
-0.00020718
-0.00545475
0.000298251
0.00100181
-0.00745044
0.000147364
0.00108316
-0.0074483
0.000115976
0.000931643
-0.0075883
-0.000306971
0.00115501
-0.00720871
-0.000525644
0.00119423
-0.00658111
-0.000508778
0.00157739
-0.00603293
-0.000556928
0.00165065
-0.00587285
-0.000379269
0.00175311
-0.00615809
-0.000375443
0.00134114
-0.00736854
-0.0017618
0.00124931
-0.00722662
-0.0011376
0.000323969
-0.00567769
0.000189419
0.000870103
-0.00580168
0.000110563
0.000827099
-0.00618876
5.29338e-05
0.000897795
-0.0063438
-0.000220825
0.00100533
-0.00607529
-0.000476643
0.000882282
-0.00597837
-0.000420737
0.00077717
-0.00515867
-0.000521721
0.000832098
-0.00480056
-0.000302184
0.000713746
-0.00455552
7.9528e-05
0.00084615
-0.00405383
0.000239674
0.000940027
-0.00484522
-0.000650737
0.000918228
-0.00472787
-0.00124508
0.000484508
-0.0054301
0.00015303
0.00023502
-0.00436705
0.000132113
0.000281131
-0.00420914
-1.98214e-06
0.000380477
-0.00452663
-0.000185882
0.000527128
-0.00412931
-0.000270896
0.000627923
-0.0033941
-0.00034711
0.000631088
-0.00271891
-0.000357145
0.000548803
-0.00238015
-0.000355771
0.00028752
-0.00154576
-0.000288971
0.000196953
-0.00151105
-4.60216e-05
0.000158114
-0.00162644
0.000404299
0.000257073
-0.0027226
0.000226941
2.4719e-05
-0.00329496
-0.000583588
0.000267425
-0.00549251
5.50446e-05
-1.86539e-05
-0.00211953
0.000108178
7.08087e-06
-0.0025217
5.6394e-05
1.07043e-05
-0.00288281
-5.08638e-05
-3.51504e-05
-0.00312703
-0.000106325
-3.69255e-05
-0.00302979
-0.000138928
-7.89448e-06
-0.00241136
-0.000143211
4.13298e-05
-0.00144352
-9.04012e-05
-6.11319e-05
-0.000655209
-8.97772e-05
-8.91216e-05
-0.000953962
-2.41227e-05
3.48093e-05
-0.000711925
0.000221923
8.30925e-05
-0.00101369
0.00019898
0.00023913
-0.000641288
4.42012e-05
0.00041748
0.000360754
-0.000198364
0.000263793
-0.00261792
6.54324e-05
2.5071e-05
0.000492535
3.66318e-05
-4.36699e-05
-0.000553669
-2.82996e-05
-3.78018e-05
-0.00118662
2.88535e-05
-2.73117e-05
-0.00156606
1.24212e-05
-4.09646e-05
-0.00173139
-1.60009e-05
-5.43112e-05
-0.00130811
-1.28927e-05
-6.10755e-05
-0.00102171
-2.33722e-05
-4.55024e-05
-0.00112729
-1.69244e-05
-4.34271e-05
-0.000695077
-6.33912e-05
-5.45124e-05
-0.00164158
9.84351e-05
-5.4874e-05
-0.00263225
0.000128357
6.24097e-07
-0.00262839
1.5254e-05
2.57725e-05
-0.00136299
-8.26705e-05
0.000106059
-0.000205727
-0.00015024
0.000115126
2.78071e-05
4.49324e-05
-9.2286e-06
0.000598635
6.09174e-05
-6.37917e-06
0.00104733
3.57516e-05
-1.67258e-05
0.000758214
-1.90435e-05
-3.77348e-05
7.87407e-06
-3.89938e-06
-4.14851e-05
-0.000141592
3.04995e-06
-4.31847e-05
-0.000356178
1.53205e-05
-4.29006e-05
-0.000550542
1.70183e-05
-3.07128e-05
-0.000710121
1.83178e-05
-3.0661e-05
-0.000927579
1.57787e-05
-3.70794e-05
-0.00127214
-7.39599e-06
-5.74894e-05
-0.00125973
4.52567e-05
-6.75825e-05
-0.00150636
6.88863e-05
-4.94376e-05
-0.00216032
-2.15477e-06
-2.71494e-05
-0.00170834
-4.14915e-05
-7.11274e-07
-0.00176998
-3.63243e-06
1.36653e-05
-0.00174402
-0.00157922
-0.000172371
-0.00281746
-7.30193e-05
-0.0037613
-0.00144812
-0.00019363
-0.00361885
-0.00183839
-0.000106443
-0.00293969
-0.00108055
0.00032861
-0.00380976
-0.00115047
0.000231932
-0.00383343
-0.00151569