/*--------------------------------*- C++ -*----------------------------------*\
  =========                 |
  \\      /  F ield         | OpenFOAM: The Open Source CFD Toolbox
   \\    /   O peration     | Website:  https://openfoam.org
    \\  /    A nd           | Version:  7
     \\/     M anipulation  |
\*---------------------------------------------------------------------------*/
FoamFile
{
    version     2.0;
    format      ascii;
    class       volVectorField;
    location    "8.5";
    object      U_0;
}
// * * * * * * * * * * * * * * * * * * * * * * * * * * * * * * * * * * * * * //

dimensions      [0 1 -1 0 0 0 0];

internalField   nonuniform List<vector> 
18750
(
(2.56479 0.228707 -0.128322)
(2.61553 -0.0779311 0.361898)
(2.39755 0.876613 -0.209664)
(2.36718 0.227005 -0.192616)
(0.438779 0.132482 -0.446632)
(3.13224 0.657015 0.557796)
(2.42518 -0.166735 0.333747)
(2.24489 0.727934 -1.31356)
(2.02148 0.888285 0.0415039)
(2.11023 0.252345 -0.190346)
(0.499099 4.19197 1.23057)
(1.30013 2.60337 0.598625)
(0.331497 -0.105436 -1.12222)
(2.17575 1.3095 -1.07738)
(2.05034 0.601781 0.818468)
(2.04851 -0.161278 0.321559)
(2.07056 0.596001 -1.1248)
(1.96601 0.719499 -1.00278)
(1.6437 0.918697 0.211592)
(1.84889 0.29774 -0.164112)
(-2.40292 4.71741 -0.470857)
(1.93749 2.98031 2.03446)
(0.731567 4.12165 1.18523)
(0.816553 0.497283 2.86757)
(0.182086 -0.19049 0.268129)
(0.125666 -0.240899 -0.223291)
(1.01193 1.43829 -0.86011)
(1.98238 1.19251 -0.938887)
(1.36228 0.520149 0.986949)
(1.51291 -0.0932554 0.352164)
(0.811638 0.738098 -1.54864)
(1.93116 0.573131 -1.00436)
(1.68588 0.730779 -0.747704)
(1.30516 0.966348 0.307208)
(1.61593 0.350306 -0.138149)
(-2.04464 3.25288 0.564745)
(-0.0329328 5.23842 2.77579)
(-2.30485 4.63727 -0.642378)
(0.600555 2.61921 3.42612)
(2.27748 2.93274 1.92007)
(0.530538 4.10319 0.90215)
(0.298273 1.21814 1.62243)
(1.19388 0.469716 2.67074)
(-0.160849 -3.37287 0.707229)
(-0.0921201 -0.298602 0.19359)
(0.20916 1.54344 -0.652328)
(1.08366 1.38955 -0.864955)
(1.74553 1.10007 -0.867377)
(0.699461 0.493944 1.16716)
(0.953928 0.0151089 0.346943)
(-0.187264 0.947401 -1.26083)
(0.766335 0.724658 -1.58254)
(1.81687 0.561961 -0.94177)
(1.43616 0.76092 -0.54956)
(1.04551 1.02036 0.370562)
(1.44285 0.393334 -0.122017)
(-2.00161 3.53829 0.239636)
(-2.33103 4.60302 -0.152027)
(-2.00752 3.38932 0.603193)
(2.12023 5.08937 3.15657)
(-0.173696 5.15602 2.85846)
(-2.06634 4.72572 -0.599842)
(0.128056 2.72056 2.21438)
(2.29027 2.36043 2.58882)
(2.02418 2.91897 1.83733)
(0.711489 3.99187 0.748738)
(-0.429342 1.51394 1.69541)
(0.631201 1.08998 1.51676)
(1.16599 0.337285 1.95978)
(-0.0872276 -1.79366 1.03607)
(-0.466829 -0.16707 0.647817)
(-0.643672 1.35234 -0.0586056)
(0.517988 1.50752 -0.688334)
(1.33664 1.27213 -0.766162)
(1.67671 0.997754 -0.629994)
(0.435083 0.461241 1.31465)
(0.439105 0.175597 0.421565)
(0.500994 0.67454 -0.870524)
(-0.119185 0.9394 -1.26673)
(0.702909 0.717862 -1.63027)
(1.75206 0.551707 -0.890141)
(1.24227 0.795621 -0.402901)
(0.871412 1.04842 0.422299)
(1.35986 0.402614 -0.108554)
(-2.18896 2.44646 0.20512)
(-0.928741 3.65271 0.278852)
(-2.02435 3.57679 0.401078)
(-1.25112 4.69126 1.26065)
(-1.8521 4.78149 0.011009)
(-2.01244 3.5129 0.503495)
(1.38899 4.85164 3.10432)
(0.390602 4.89883 3.00697)
(-0.359652 5.13026 2.89717)
(-2.00907 4.74594 -0.686294)
(-0.741295 2.26606 1.75935)
(0.492485 2.61906 1.9083)
(1.29864 2.25488 2.53319)
(2.12178 2.79458 1.7928)
(1.07002 3.81886 0.798434)
(-0.667286 1.53963 1.5633)
(-0.00825044 1.40026 1.77725)
(0.725887 1.0302 1.28817)
(1.01307 0.4916 1.80033)
(-0.155064 -1.48622 1.2516)
(-0.87244 0.155922 1.07411)
(-0.578559 0.940942 -0.154505)
(-0.611062 1.36381 -0.000152728)
(0.689232 1.47183 -0.744452)
(1.48621 1.1878 -0.867212)
(1.48068 0.933164 -0.701533)
(0.443726 0.409668 1.26834)
(0.0979196 0.273017 0.458165)
(0.0726143 0.583889 -0.718894)
(0.569698 0.646356 -0.850929)
(0.0177344 0.937118 -1.27862)
(0.68933 0.717356 -1.61881)
(1.714 0.546212 -0.86195)
(1.11358 0.823334 -0.314588)
(0.834611 1.0493 0.440406)
(1.36099 0.379351 -0.0799141)
(-1.94801 2.44868 -0.515951)
(-1.74956 3.03557 0.101258)
(-2.09737 2.63617 0.0417012)
(-1.31768 3.86015 0.330216)
(-0.30216 3.7945 -0.22261)
(-1.70561 3.57362 0.634775)
(-0.830362 4.81567 1.66858)
(-0.936264 4.57696 1.13538)
(-1.61295 4.90968 -0.0938628)
(-1.95377 3.58568 0.397295)
(0.411474 4.32854 2.7352)
(1.08371 4.48895 3.18636)
(0.0109566 4.75625 3.16877)
(-0.262749 5.04316 3.08975)
(-1.59815 4.7507 -0.758821)
(-0.653844 1.72975 1.24775)
(-0.68349 2.22917 1.3648)
(0.623678 2.34964 1.7676)
(1.77789 1.99826 2.53102)
(2.08337 2.66097 1.74452)
(1.53898 3.67219 0.848173)
(-0.691061 1.40227 0.665106)
(-0.530883 1.48805 1.68974)
(0.0231467 1.32497 1.53395)
(0.925864 0.895182 1.03)
(0.915411 0.414344 1.58)
(-0.419441 -1.73235 1.49261)
(-1.42092 0.738946 1.3219)
(0.0919241 0.895116 0.242399)
(-0.567365 0.910895 -0.156655)
(-0.521276 1.42487 -0.107326)
(0.782591 1.45691 -0.704407)
(1.67015 1.07112 -0.879182)
(1.36384 0.846799 -0.6502)
(0.399264 0.380247 1.24349)
(-0.160882 0.32195 0.495698)
(0.307369 0.406109 -0.600153)
(0.103613 0.587421 -0.776752)
(0.634518 0.616659 -0.826214)
(0.0647277 0.912848 -1.29991)
(0.720118 0.706675 -1.56098)
(1.68622 0.537221 -0.862241)
(1.04984 0.834396 -0.271323)
(0.835268 1.02118 0.43837)
(1.37196 0.357909 -0.040903)
(-1.13996 2.5068 0.351216)
(-1.11423 3.21002 0.049789)
(-1.93466 2.45483 -0.568601)
(-0.863355 3.57201 0.461807)
(-1.56704 2.95355 0.370646)
(-2.00561 2.69885 -0.117979)
(-0.517357 4.38971 0.187024)
(-1.15998 4.13548 -0.106186)
(-1.04425 3.70704 -0.620586)
(-1.17194 3.62325 0.965681)
(-0.440986 4.69051 2.23281)
(-0.690518 4.74085 1.78555)
(-0.838191 4.52977 1.27396)
(-1.78958 5.01015 -0.942322)
(-1.83623 3.52072 0.476512)
(-0.270653 3.65149 2.6347)
(0.471973 4.26575 2.50127)
(0.709291 4.23301 3.2802)
(0.387236 4.78916 3.23355)
(0.054906 4.95924 3.56955)
(-0.940745 4.69486 -0.38175)
(-0.420913 1.96618 1.2103)
(-0.558798 1.67713 1.23829)
(-0.520745 2.13978 1.11996)
(0.864391 1.96808 1.74469)
(2.38772 1.64099 2.03044)
(1.94621 2.57757 1.6998)
(2.19237 3.51748 0.93515)
(0.114872 1.466 -0.298584)
(-0.435771 0.892147 1.2072)
(1.02127 1.07926 1.61607)
(0.304275 1.19533 1.34132)
(0.980328 0.841309 0.984779)
(0.700986 0.429254 1.75094)
(-0.401373 -1.35236 1.96923)
(-1.44413 1.1164 1.58568)
(-0.0918908 0.887013 -0.0416022)
(0.0780857 0.899949 0.235977)
(-0.500624 0.877609 -0.222955)
(-0.44042 1.43606 0.018362)
(0.971793 1.42004 -0.644568)
(1.7962 0.976305 -0.912138)
(1.25611 0.770532 -0.620341)
(0.321457 0.336237 1.26821)
(-0.251632 0.306078 0.471627)
(0.328427 0.360726 -0.819611)
(0.336758 0.390226 -0.588033)
(0.165834 0.571682 -0.835774)
(0.697423 0.588749 -0.797173)
(0.123313 0.906932 -1.36874)
(0.788492 0.674894 -1.51115)
(1.67764 0.513015 -0.86573)
(1.03401 0.841666 -0.24772)
(0.800572 1.07592 0.465703)
(1.36011 0.33647 -0.00760214)
(-1.66793 1.96482 0.240888)
(-1.60008 2.74144 0.0555201)
(-0.991801 2.61717 0.312848)
(-0.560931 3.26331 0.00784194)
(-1.13894 3.253 0.306699)
(-1.39917 2.74753 -0.524178)
(-0.634225 3.56656 0.539745)
(-0.129406 3.7903 0.104408)
(-1.45201 2.92667 0.429421)
(-1.71052 2.93404 -0.413616)
(-0.85988 4.47758 0.593579)
(0.0666026 4.54636 -0.260979)
(-0.807148 4.42457 0.0419135)
(-0.975013 3.7926 -0.802224)
(-0.694234 3.65948 1.43666)
(0.109132 4.58568 2.40989)
(-0.390993 4.60872 2.22926)
(-0.128571 4.78825 2.02106)
(0.409267 4.64472 1.76149)
(-1.71732 5.36369 -1.31552)
(-1.37172 3.46732 1.05635)
(-0.656992 3.39284 2.49371)
(-0.272191 3.80671 2.17411)
(0.28532 4.04822 2.5824)
(0.868464 3.90693 3.35461)
(0.694171 3.97556 4.07643)
(-0.114398 5.04383 3.43242)
(-0.492631 4.60522 7.69054e-05)
(-0.327789 2.46217 1.46786)
(-0.319681 2.00105 1.15902)
(-0.353044 1.62006 1.22635)
(-0.231219 1.98073 1.01435)
(1.19482 1.68426 1.60627)
(2.2479 1.41627 1.64972)
(2.04178 2.19906 1.59143)
(1.72023 3.85174 0.955716)
(0.416058 1.85578 -0.116587)
(0.0594248 1.34787 -0.248351)
(-0.258113 1.0339 0.249234)
(-0.347032 1.35424 1.07073)
(0.292528 1.17033 1.22179)
(1.15836 0.715922 0.993105)
(0.747682 0.462888 1.89898)
(-0.561398 -1.04654 2.20655)
(-1.02176 1.49799 1.41002)
(-0.160101 1.01894 -0.0939707)
(-0.11028 0.885342 0.0121216)
(0.0483722 0.901222 0.220304)
(-0.430815 0.842187 -0.139699)
(-0.303155 1.4357 -0.0812704)
(1.13787 1.36032 -0.656089)
(1.85434 0.91392 -0.855272)
(1.16612 0.718037 -0.496644)
(0.263855 0.274738 1.28648)
(-0.189384 0.23258 0.411724)
(0.0670715 0.17319 -0.902142)
(0.312973 0.335593 -0.828334)
(0.365524 0.371912 -0.573938)
(0.228185 0.55955 -0.86507)
(0.761922 0.541319 -0.773055)
(0.188412 0.880751 -1.47564)
(0.8347 0.646951 -1.46891)
(1.68498 0.51042 -0.857475)
(1.02302 0.862678 -0.200933)
(0.791935 1.09281 0.476264)
(1.3649 0.32856 0.0289289)
(-1.2697 2.36291 0.0360668)
(-1.62804 1.99555 0.20026)
(-0.790095 2.84146 0.354375)
(-1.59469 2.75449 -0.125057)
(-0.841294 2.68894 0.297582)
(-0.649097 3.2903 0.367978)
(-0.417002 3.29279 0.0384384)
(-0.810537 3.35262 0.184394)
(-1.06858 2.83606 -0.389392)
(-0.821338 3.7576 0.441251)
(-0.0777565 3.50128 0.818865)
(0.0908675 3.89783 -0.0251402)
(-1.05356 3.11369 0.678414)
(-1.65104 3.04248 -0.403144)
(-0.370373 4.4454 0.781802)
(-0.308606 4.58907 0.462314)
(0.151136 4.77635 0.288889)
(0.106764 4.63605 0.545726)
(-0.715585 3.90726 -0.626925)
(-0.460516 3.8012 1.5651)
(0.109405 4.35685 2.87123)
(0.279613 4.57563 2.27985)
(-0.357572 4.54559 2.33178)
(0.311256 4.79104 2.14144)
(1.37093 4.94881 1.97971)
(-1.57579 5.49138 -0.973133)
(-1.0109 3.52488 1.22286)
(-0.292406 3.63427 2.40065)
(-0.576918 3.51833 2.33561)
(-0.310889 3.86609 1.8772)
(0.274044 3.83201 2.48864)
(1.51642 3.3863 3.31248)
(1.65037 3.73137 3.08369)
(-0.576628 5.00785 2.60717)
(-0.418482 4.66844 0.0497943)
(0.025724 2.51848 2.02074)
(-0.509448 2.16561 1.79067)
(-0.276546 1.91521 1.29816)
(-0.0777966 1.43768 1.17679)
(0.0319786 1.81029 0.832094)
(1.33802 1.45223 1.31318)
(1.96678 1.46788 1.70673)
(1.9944 1.92973 1.39766)
(2.21293 3.73064 0.908096)
(0.345031 2.16884 -0.497092)
(0.51416 1.81233 -0.037199)
(0.100895 1.23821 -0.197069)
(-0.392031 0.805054 0.202869)
(0.0568698 1.15661 0.870511)
(0.359445 1.0053 1.13777)
(1.17871 0.634804 1.01485)
(0.722814 0.339921 1.85524)
(-0.90857 -0.831227 2.40169)
(-0.292629 1.41948 0.990824)
(0.506043 1.02334 -0.348062)
(-0.0267712 0.990227 -0.21614)
(-0.061743 0.866933 -0.0341827)
(0.0430603 0.895682 0.187071)
(-0.358025 0.799562 -0.148159)
(-0.213503 1.41728 -0.175686)
(1.34733 1.26431 -0.599849)
(1.9458 0.813329 -0.624976)
(1.04281 0.663157 -0.452734)
(0.205218 0.239211 1.26205)
(-0.171451 0.217713 0.396973)
(-0.163955 0.0896066 -0.851585)
(0.0655387 0.189976 -0.93574)
(0.295535 0.329785 -0.831302)
(0.391991 0.364847 -0.557091)
(0.290081 0.535239 -0.880507)
(0.785827 0.52029 -0.762338)
(0.23657 0.850995 -1.56368)
(0.800055 0.652285 -1.45611)
(1.7007 0.481197 -0.867905)
(1.01717 0.821891 -0.331054)
(0.696053 1.0819 0.514512)
(1.36825 0.339381 0.06126)
(-1.34093 1.92626 0.0826714)
(-0.870576 2.62949 0.274836)
(-1.29291 2.42206 0.0900813)
(-1.55684 2.07002 0.133836)
(-0.777545 2.86768 0.395363)
(-0.484902 2.88746 0.403008)
(-1.28684 2.82795 0.0898341)
(-0.615841 2.69652 0.246204)
(-0.359726 3.35792 0.396507)
(-0.417596 3.32215 0.38429)
(-0.325554 3.25683 0.0372963)
(-0.486755 3.41323 0.234069)
(-0.545112 3.0393 -0.207717)
(-0.62238 3.65681 0.54104)
(-0.395965 3.81821 0.405197)
(-0.168904 3.54005 0.116983)
(-0.111613 3.90627 -0.20774)
(-0.870311 3.19259 0.825231)
(-1.46988 3.09382 -0.411921)
(-0.183831 4.3837 1.12582)
(-0.60519 4.44419 0.752556)
(-0.0748004 4.79777 0.355221)
(0.280519 4.94702 0.208792)
(0.19222 4.84471 0.745595)
(-0.609588 3.93461 -0.345697)
(0.157588 4.27809 1.54077)
(0.164621 4.50895 2.79636)
(0.556573 4.44374 2.5026)
(0.326118 4.5237 2.28002)
(0.309128 4.41551 2.7469)
(1.14649 4.50725 2.33006)
(1.23027 5.20916 1.92758)
(-0.99074 5.39462 0.398725)
(-0.78482 3.84042 0.343535)
(-1.13007 3.79744 2.90065)
(-0.158841 3.79751 2.31554)
(-0.510975 3.61509 2.20444)
(-0.353173 3.71277 1.87138)
(0.708324 3.41688 2.46024)
(2.33721 2.7193 2.83013)
(1.48114 3.31698 2.8709)
(-0.40053 4.66316 2.1081)
(-0.311816 4.84518 0.1141)
(-0.0520355 2.99813 1.27105)
(-0.0663408 2.68373 1.12705)
(-0.450538 2.3773 1.49092)
(-0.181827 1.84493 1.29307)
(-0.139039 1.30886 0.956281)
(0.0900967 1.57716 0.743157)
(1.28368 1.30405 1.08541)
(1.15132 1.71544 2.07799)
(2.17889 1.629 1.28522)
(2.67408 3.45736 0.952834)
(-0.0254955 2.17003 0.0594405)
(0.352019 2.16221 -0.399558)
(0.518585 1.77372 -0.0472608)
(0.177702 1.13285 -0.0420019)
(-0.261859 0.721639 -0.0518854)
(-0.0558055 1.10809 0.480889)
(0.36763 0.875475 0.979061)
(1.19822 0.465068 0.903444)
(0.527556 0.325863 1.94382)
(-1.0338 -0.555256 2.34221)
(0.348856 1.2074 0.744866)
(0.196341 0.851734 0.09625)
(0.656957 0.998617 -0.418081)
(0.0644952 0.954381 -0.295226)
(-0.002158 0.829867 -0.124431)
(0.0415154 0.894354 0.116979)
(-0.285739 0.744213 -0.161312)
(-0.106804 1.37988 -0.269473)
(1.52808 1.14323 -0.5447)
(2.00749 0.737043 -0.352739)
(0.927885 0.659612 -0.271542)
(0.149218 0.230184 1.23862)
(-0.218557 0.296968 0.393487)
(-0.12522 0.0285039 -0.968404)
(-0.158992 0.100186 -0.884996)
(0.0729984 0.204358 -0.964659)
(0.276418 0.334679 -0.835357)
(0.442034 0.338468 -0.53349)
(0.336479 0.514892 -0.875679)
(0.861737 0.47546 -0.735843)
(0.33051 0.807407 -1.5866)
(0.778374 0.677568 -1.44423)
(1.68815 0.441165 -0.867867)
(0.981267 0.840704 -0.363667)
(0.715168 1.13587 0.533669)
(1.34354 0.334479 0.110186)
(-1.54935 1.80567 0.0861427)
(-1.31973 2.36151 0.0989999)
(-1.16996 2.05607 0.0562585)
(-0.858866 2.69605 0.414248)
(-0.787569 2.66555 0.296602)
(-1.18522 2.47129 0.0982124)
(-1.60478 2.04417 0.0784294)
(-0.476959 2.9507 0.680871)
(-0.594335 2.90522 0.380877)
(-0.396878 2.90481 0.402172)
(-1.0585 2.80542 0.0131479)
(-0.779679 2.63261 0.183232)
(-0.856078 3.31348 0.565508)
(-0.275131 3.44721 0.383909)
(-0.41232 3.31961 0.397579)
(-0.095628 3.21897 -0.0315289)
(-0.415666 3.40513 0.214957)
(-0.268195 3.08978 -0.176751)
(-0.515452 3.82076 0.761308)
(-0.532657 3.70667 0.530733)
(-0.144995 3.76192 0.428277)
(0.010022 3.54695 0.671656)
(-0.0363031 3.83792 -0.366274)
(-0.643502 3.21207 0.850195)
(-0.839728 3.36988 -0.477618)
(0.239481 4.3358 1.31282)
(0.0924086 4.38403 1.19869)
(-0.197292 4.60114 0.631538)
(0.0850981 4.95809 0.578461)
(0.346967 4.7228 0.579467)
(-0.113864 4.98709 0.438569)
(-0.593058 4.13312 0.493328)
(0.372154 4.30278 1.51227)
(0.135645 4.75479 2.4314)
(0.495239 4.60112 2.36764)
(0.494732 4.52599 2.28164)
(0.59502 4.40558 2.36562)
(0.598175 4.38865 2.85167)
(1.79655 4.22615 2.34494)
(1.40294 5.03618 2.13198)
(-0.356109 5.22556 1.19938)
(-0.481219 4.26376 -0.686548)
(0.560984 4.34219 2.43462)
(-0.467203 3.91161 2.71788)
(-0.260046 3.93292 2.09808)
(-0.398693 3.67782 2.03352)
(-0.277653 3.71222 1.70676)
(0.963799 3.22417 2.17468)
(2.17235 2.43552 2.46295)
(1.35797 3.27324 2.55773)
(0.314758 4.30311 2.13568)
(-0.199686 4.78212 0.1998)
(0.0665015 3.12061 1.35725)
(0.118228 2.91626 1.69514)
(-0.0762459 2.52242 1.59768)
(-0.55673 2.17811 1.87483)
(-0.149389 1.83877 1.29886)
(-0.0735622 1.40518 0.684726)
(0.0748436 1.58385 0.230537)
(1.223 1.20668 0.826602)
(1.84702 1.02247 1.4705)
(2.88308 1.04309 1.04415)
(2.77604 3.03243 1.03601)
(0.341675 1.84952 0.113765)
(0.261643 2.14175 -0.059082)
(0.445099 2.13963 -0.168973)
(0.598085 1.70604 0.0172685)
(0.30541 1.01913 0.0218618)
(-0.211037 0.621905 -0.22503)
(0.0255826 1.00301 0.237628)
(0.429364 0.706713 0.822971)
(1.14899 0.388468 0.742445)
(0.475205 0.280886 1.99588)
(-0.798739 -0.366283 2.25261)
(0.45675 1.46963 0.334961)
(-0.348406 0.835248 0.341586)
(0.510675 0.874381 -0.0884428)
(0.714336 0.986586 -0.443282)
(0.175154 0.906744 -0.385414)
(0.0590642 0.783037 -0.224153)
(0.0658988 0.881401 0.00606895)
(-0.214531 0.686911 -0.177389)
(0.162752 1.27467 -0.500897)
(1.67948 1.03334 -0.453266)
(1.9953 0.692805 -0.0629677)
(0.807792 0.674038 -0.120672)
(0.0733321 0.238197 1.24202)
(-0.284948 0.382195 0.389658)
(0.20884 -0.563874 -0.591693)
(-0.12465 0.0322948 -0.935589)
(-0.161443 0.119767 -0.897221)
(0.0777907 0.214666 -0.984992)
(0.314625 0.28933 -0.83649)
(0.445371 0.319322 -0.531727)
(0.428395 0.474368 -0.851683)
(0.919891 0.434331 -0.755185)
(0.437422 0.746493 -1.57181)
(0.805508 0.653977 -1.42892)
(1.70055 0.427749 -0.867378)
(0.91924 0.880141 -0.3772)
(0.71914 1.14676 0.535428)
(1.29146 0.37436 0.131572)
(-0.999614 2.12345 0.0462053)
(-1.40105 2.22195 0.131902)
(-1.32106 2.02751 0.116881)
(-0.799483 2.5464 0.267108)
(-1.15415 2.447 0.0850784)
(-1.06254 2.13784 -0.0357317)
(-0.443216 2.75019 0.58122)
(-0.725741 2.75567 0.450771)
(-0.540517 2.6821 0.333367)
(-0.874198 2.57863 0.178408)
(-1.42268 2.13608 0.220696)
(-0.79411 2.91653 0.741734)
(-0.590711 2.9042 0.693621)
(-0.450462 2.91438 0.379986)
(-0.300722 2.91638 0.391696)
(-0.801598 2.78425 0.0375176)
(-0.895362 2.59794 0.184735)
(-0.681994 3.48324 0.717843)
(-0.642716 3.38091 0.594345)
(-0.393631 3.44262 0.404442)
(-0.355299 3.38244 0.269344)
(0.0499778 3.21971 0.00277463)
(-0.0783838 3.46154 0.189574)
(-0.227597 3.08368 -0.143196)
(-0.368239 3.91487 0.958062)
(-0.0333952 3.79689 0.647877)
(-0.12418 3.70401 0.558861)
(0.21552 3.74232 0.451649)
(0.214727 3.65043 0.431655)
(-0.0622264 3.88582 -0.452052)
(-0.396752 3.21612 0.774742)
(-0.983241 3.38285 -0.580965)
(0.468498 4.26833 1.3555)
(0.435735 4.25685 1.38159)
(0.255315 4.42141 1.17676)
(-0.233826 4.6449 0.813746)
(0.149203 4.92848 0.67872)
(0.522041 4.61658 0.702223)
(0.0810442 4.85329 0.158632)
(-0.809144 4.40997 -1.76012)
(0.757681 3.91239 1.45047)
(0.422674 4.75516 2.05079)
(0.615822 4.6771 2.48674)
(0.450372 4.63735 2.24561)
(0.610875 4.53603 2.15355)
(0.505637 4.3427 2.6146)
(1.28753 3.64615 3.52314)
(1.22987 4.47486 2.23971)
(1.78265 4.6255 2.26879)
(0.732718 5.18016 2.28177)
(-0.503566 4.37835 -1.09086)
(0.461244 4.09517 2.25982)
(-0.249963 4.06427 2.67341)
(-0.129062 3.863 2.66298)
(0.0256626 4.14548 1.71672)
(-0.385155 3.66768 2.04439)
(-0.129839 3.66351 1.68242)
(0.444899 3.28514 1.94903)
(2.56101 1.83978 2.06798)
(1.03678 3.3112 2.6611)
(0.53487 4.05182 2.17511)
(0.027894 4.63737 0.197611)
(-0.247686 2.7711 1.23703)
(0.148804 3.09078 1.27588)
(0.11463 2.88123 1.6653)
(-0.144489 2.48173 1.80626)
(-0.480164 2.25708 1.67817)
(-0.0385761 1.82894 1.31692)
(0.295994 1.03635 0.926866)
(0.416289 1.14632 0.480417)
(1.34947 0.911458 0.517555)
(1.80973 0.931516 1.45588)
(2.96304 0.910138 0.823248)
(1.68865 3.69983 0.794988)
(0.341587 1.53453 0.190124)
(0.424683 1.82579 0.0803186)
(0.395643 2.08286 -0.160808)
(0.506809 2.07592 -0.0194972)
(0.524929 1.66946 0.0366855)
(0.308602 0.954338 0.147756)
(-0.0536183 0.542861 -0.431592)
(0.063083 0.8777 -0.0451994)
(0.427617 0.534939 0.653465)
(1.09645 0.236368 0.599808)
(0.457556 0.0989076 1.95781)
(-0.674543 -0.140323 2.34758)
(0.33428 2.01761 0.0290395)
(0.40978 0.359882 -0.367825)
(-0.25558 0.831133 0.0997798)
(0.593382 0.884526 -0.173012)
(0.654218 0.987672 -0.416685)
(0.204085 0.871155 -0.414169)
(0.112063 0.735454 -0.287878)
(0.154998 0.805054 -0.321159)
(-0.141975 0.641077 -0.178969)
(0.153618 1.25708 -0.330314)
(1.76737 0.925966 -0.398856)
(1.89869 0.71347 0.186307)
(0.712726 0.682633 0.0399298)
(-0.0251852 0.300718 1.26388)
(-0.357095 0.459421 0.372348)
(0.569912 -0.766803 -0.105865)
(0.227395 -0.565957 -0.58861)
(-0.125462 0.0255821 -0.925868)
(-0.166245 0.140012 -0.886575)
(0.0812292 0.223209 -0.991189)
(0.315634 0.285739 -0.832181)
(0.456469 0.316467 -0.521213)
(0.527219 0.419567 -0.81944)
(0.910574 0.424374 -0.826466)
(0.533239 0.681409 -1.56029)
(0.843668 0.613927 -1.41511)
(1.71546 0.433649 -0.86789)
(0.953472 0.769059 -0.461308)
(0.644869 1.08946 0.53182)
(1.23884 0.359514 0.117354)
(-1.03235 2.32248 -0.0552918)
(-1.0501 2.13802 -0.0563432)
(-0.778698 2.47573 0.123575)
(-1.0221 2.47824 0.118819)
(-1.21182 2.12931 0.0889517)
(-0.684754 2.61596 0.370428)
(-0.699108 2.59646 0.233136)
(-0.851119 2.528 0.0925548)
(-0.905115 2.23793 0.0588545)
(-0.603529 2.70653 0.61954)
(-0.675561 2.76013 0.511254)
(-0.612492 2.7694 0.426949)
(-0.359853 2.70033 0.364134)
(-0.664179 2.63441 0.174577)
(-1.25138 2.18415 0.133594)
(-0.66681 2.9628 0.658951)
(-0.732599 2.93683 0.717636)
(-0.383285 2.941 0.657362)
(-0.310854 2.93597 0.416276)
(-0.00198261 2.942 0.369857)
(-0.365148 2.8165 0.0884481)
(-0.987792 2.63386 0.28581)
(-0.296925 3.54978 0.887965)
(-0.481203 3.48517 0.725487)
(-0.45874 3.40028 0.710157)
(-0.153694 3.47323 0.401469)
(-0.00172111 3.49651 0.263194)
(0.369458 3.32381 0.0662212)
(0.211779 3.60963 0.0903223)
(-0.0851086 3.06031 -0.12256)
(-0.336927 3.95862 1.17674)
(0.229477 3.92284 1.01413)
(0.0271388 3.71037 0.697974)
(0.0631818 3.70327 0.618912)
(0.211013 3.75207 0.398081)
(0.663443 3.66664 0.48379)
(0.215725 4.01261 -0.31738)
(0.229866 3.21184 1.00377)
(-0.89393 3.42934 -0.554306)
(0.652433 4.31029 1.5742)
(0.596026 4.26588 1.42577)
(0.498876 4.16174 1.34046)
(-0.00245735 4.5441 1.0205)
(-0.0522131 4.75528 0.704451)
(0.384392 4.84393 0.750492)
(0.738517 4.79123 0.690489)
(0.537891 4.80389 0.527802)
(-0.979551 4.75844 -2.71072)
(1.42044 3.52699 1.63736)
(0.756847 4.79136 1.85606)
(0.756211 4.75412 2.02526)
(1.14782 4.96876 1.64072)
(0.476664 4.71844 2.0926)
(0.717705 4.35578 2.42609)
(1.1928 3.76298 3.20375)
(1.08031 3.70423 3.38626)
(1.95729 3.5648 3.15701)
(2.41001 4.31608 2.31373)
(0.762764 5.31487 2.03447)
(0.373517 4.52355 -0.968426)
(0.00807542 3.60041 1.84473)
(0.447732 3.99701 2.32024)
(0.907125 4.20152 2.06358)
(0.343444 3.99196 2.20713)
(0.0492641 4.05071 1.8986)
(0.00292708 3.77899 1.85478)
(0.0336176 3.5113 1.77523)
(0.485124 3.23108 1.79883)
(1.65706 2.2572 2.12359)
(1.91114 2.78136 2.62737)
(0.607411 3.63457 2.2522)
(0.334681 4.61906 -0.0691389)
(0.455242 2.88016 0.83463)
(0.593245 2.6902 0.860066)
(0.358569 2.967 1.35569)
(0.0424139 2.84079 1.75198)
(-0.156143 2.44665 1.84294)
(-0.336055 2.06677 1.88595)
(0.153907 1.60596 1.38013)
(0.195972 1.17837 0.716449)
(0.30634 1.07502 0.414149)
(1.2165 0.615725 0.523024)
(2.18381 0.582341 1.0633)
(2.88381 -0.287593 -0.36113)
(2.44671 2.95194 0.842353)
(0.0496605 1.381 0.0597459)
(0.345721 1.59136 0.138937)
(0.44591 1.80566 0.077436)
(0.449112 2.0397 -0.224143)
(0.573942 1.9561 -0.0698097)
(0.549238 1.5599 0.0823553)
(0.335743 0.900569 0.219832)
(0.217322 0.386165 -0.735853)
(0.124818 0.730143 -0.0825616)
(0.392327 0.385122 0.471652)
(1.04583 0.0866551 0.436389)
(0.458706 0.250193 1.74144)
(-0.474774 0.0826004 2.36227)
(0.422999 2.18487 -0.0289805)
(0.319073 -0.340224 -0.0509882)
(0.396284 0.341726 -0.409208)
(-0.1956 0.828667 -0.076577)
(0.544083 0.916598 -0.201956)
(0.554207 1.02088 -0.365721)
(0.227666 0.854489 -0.429956)
(0.220095 0.655075 -0.378093)
(0.249329 0.75359 -0.239056)
(-0.0407391 0.587502 -0.235518)
(0.347498 1.1354 -0.469242)
(1.84136 0.806019 -0.296049)
(1.75128 0.809976 0.18226)
(0.640452 0.697472 0.172387)
(-0.0911514 0.353079 1.29131)
(-0.414093 0.536373 0.341452)
(0.278982 -0.400899 -0.167786)
(0.554136 -0.749203 -0.101093)
(0.252601 -0.541835 -0.61254)
(-0.124615 0.0336302 -0.920634)
(-0.170399 0.15421 -0.866995)
(0.0805918 0.223658 -0.989716)
(0.303802 0.269708 -0.838227)
(0.477639 0.300612 -0.512436)
(0.595565 0.371971 -0.784017)
(0.880212 0.432803 -0.889799)
(0.602132 0.626689 -1.54224)
(0.871636 0.599417 -1.40243)
(1.6474 0.370313 -0.824328)
(0.936821 0.740197 -0.433967)
(0.727028 1.07777 0.423612)
(1.22557 0.329464 0.104718)
(-0.963117 1.99141 -0.0279998)
(-0.633175 2.49332 -0.111912)
(-0.768815 2.48482 -0.134207)
(-0.980275 2.18761 -0.0532426)
(-0.67967 2.52221 0.264619)
(-0.684869 2.56947 0.256273)
(-0.824408 2.52043 0.142636)
(-1.13033 2.16881 0.0379356)
(-0.534461 2.60875 0.3728)
(-0.606601 2.64942 0.367236)
(-0.413003 2.66556 0.233461)
(-0.556208 2.64409 0.0360948)
(-0.753761 2.33126 0.0560715)
(-0.525645 2.80768 0.449628)
(-0.515312 2.76117 0.56176)
(-0.468429 2.78021 0.570857)
(-0.388808 2.81086 0.459936)
(-0.064944 2.71685 0.369682)
(-0.188037 2.69825 0.113762)
(-0.958773 2.33786 0.107851)
(-0.285465 3.05494 0.782479)
(-0.4277 3.04562 0.682009)
(-0.530679 2.97612 0.665701)
(-0.200026 3.02784 0.600186)
(0.036771 2.95345 0.448854)
(0.286561 3.01675 0.328816)
(-0.082031 2.77542 0.179145)
(-0.906819 2.7009 0.320973)
(-0.273955 3.6851 0.898601)
(-0.227485 3.56298 0.868286)
(-0.272906 3.49678 0.749875)
(-0.202378 3.47533 0.677907)
(0.00369711 3.49227 0.410815)
(-0.00878621 3.61691 0.168164)
(0.465519 3.38722 0.0642398)
(0.348469 3.72046 0.0628217)
(0.0794673 3.01571 0.0674152)
(0.321025 3.87602 1.40309)
(-0.0931451 3.98161 1.23394)
(-0.125155 3.87767 0.93638)
(0.29764 3.78489 0.670363)
(0.409978 3.75835 0.655345)
(0.595901 3.76671 0.372305)
(0.709603 3.63725 0.49678)
(0.29579 4.01515 -0.257638)
(0.905688 3.18975 1.23885)
(-0.634114 3.55408 -0.605032)
(0.577017 4.37557 1.63366)
(0.662237 4.30741 1.53183)
(0.820026 4.33583 1.40519)
(0.624842 4.30601 1.26147)
(0.212699 4.64938 1.02613)
(0.194336 4.71074 0.913183)
(0.732177 4.78285 1.1124)
(1.15307 4.88656 0.861997)
(1.83985 4.94125 1.03139)
(-0.757142 4.99603 -2.32864)
(1.4281 3.58043 0.967945)
(1.01151 4.50458 1.78357)
(0.924997 4.79721 1.95331)
(0.828857 4.82583 1.88503)
(0.860204 4.82545 2.17009)
(0.672315 4.76803 2.08922)
(1.2122 4.08513 2.68058)
(1.03857 3.88261 2.90168)
(1.72752 3.52355 3.41276)
(2.18521 3.45359 2.94939)
(3.78839 3.44174 2.68741)
(2.16051 4.57217 2.09861)
(0.600136 4.86954 -0.578669)
(0.552433 3.17681 2.01531)
(0.693178 3.87579 1.47745)
(0.792752 4.00244 2.06996)
(0.573241 4.04157 2.39315)
(0.623107 3.97185 2.16693)
(0.727422 3.99348 1.70579)
(0.0561061 3.57254 2.06078)
(0.0955976 3.48408 1.58796)
(0.56445 3.20117 1.81944)
(0.761895 2.71198 1.94584)
(2.67679 1.90073 2.17126)
(1.2615 3.14029 2.15292)
(0.889665 4.46542 0.0339599)
(0.482401 2.74046 0.579214)
(0.833731 2.70082 0.764902)
(0.690116 2.66954 0.895907)
(0.346083 2.93357 1.43423)
(0.0274583 2.74626 1.84812)
(-0.173941 2.35265 1.89686)
(-0.27379 1.97018 1.90279)
(0.111946 1.75967 0.979175)
(0.131682 1.06288 0.835836)
(0.255577 0.967896 0.418507)
(1.19427 0.389058 0.434055)
(2.09982 0.541569 0.532799)
(2.38709 1.27941 0.690531)
(2.82042 2.32399 0.658608)
(0.29418 1.65257 -0.243105)
(0.087988 1.35768 -0.0640858)
(0.334282 1.6176 -0.00799925)
(0.398062 1.85262 -0.0492649)
(0.475028 2.01566 -0.229619)
(0.62562 1.81534 -0.140066)
(0.577445 1.42464 0.0989056)
(0.374109 0.884712 0.262349)
(0.39021 0.271534 -0.725786)
(0.160061 0.606831 -0.177677)
(0.379365 0.240002 0.32008)
(0.994705 -0.0137293 0.219788)
(0.49373 0.0540844 1.41378)
(-0.561403 0.376661 2.26253)
(0.714585 2.00116 -0.0145913)
(0.661324 -0.717021 0.411679)
(0.528471 -0.352213 -0.211905)
(0.393544 0.290679 -0.438213)
(-0.155178 0.820129 -0.189288)
(0.511907 0.927632 -0.21167)
(0.470596 1.05755 -0.310152)
(0.453561 0.746369 -0.521011)
(0.298911 0.602253 -0.40132)
(0.400102 0.624693 -0.430134)
(0.0337926 0.544422 -0.26509)
(0.448148 1.04238 -0.497318)
(1.90806 0.675341 -0.17442)
(1.64934 0.869186 0.175613)
(0.601648 0.698164 0.272072)
(-0.152734 0.397445 1.29118)
(-0.430197 0.603709 0.270337)
(0.142865 -0.223004 -0.216428)
(0.243285 -0.38815 -0.165329)
(0.544921 -0.737188 -0.110782)
(0.293846 -0.547874 -0.638852)
(-0.0776 0.0106472 -0.909627)
(-0.17917 0.169108 -0.850951)
(0.0803487 0.225111 -0.987235)
(0.29962 0.275029 -0.846475)
(0.451646 0.29854 -0.526146)
(0.64042 0.34089 -0.748488)
(0.885902 0.427979 -0.905255)
(0.66782 0.576465 -1.51685)
(0.896189 0.57742 -1.40104)
(1.64432 0.384314 -0.788906)
(0.874111 0.779494 -0.44282)
(0.681439 1.09097 0.46393)
(1.22465 0.297149 0.112874)
(-0.590646 1.86439 -0.0165235)
(-0.569363 2.34106 -0.210734)
(-0.756743 2.09239 -0.0584691)
(-0.506857 2.54287 0.00265539)
(-0.298814 2.57916 -0.147974)
(-0.46438 2.60153 -0.109092)
(-0.793444 2.24551 0.00218485)
(-0.760309 2.53812 0.236715)
(-0.56891 2.57276 0.125397)
(-0.275105 2.72509 0.148112)
(-0.337432 2.68937 0.0862707)
(-0.836418 2.30736 0.0444561)
(-0.452808 2.61583 0.524875)
(-0.391153 2.6458 0.388404)
(-0.340892 2.70848 0.35351)
(-0.0957292 2.73518 0.297859)
(-0.348544 2.73272 0.00730271)
(-0.596255 2.42123 0.127205)
(-0.440461 2.86744 0.731935)
(-0.314515 2.85566 0.464487)
(-0.297995 2.81555 0.536713)
(-0.283733 2.78593 0.579646)
(-0.294796 2.83048 0.437505)
(0.150415 2.69525 0.38121)
(-0.14788 2.65516 0.121718)
(-0.72841 2.44829 0.0296843)
(-0.240124 3.205 0.832196)
(-0.19035 3.08631 0.788785)
(-0.152739 3.0832 0.715483)
(-0.262791 3.04218 0.66526)
(-0.0922573 3.07612 0.633126)
(0.132345 3.02029 0.369158)
(0.214121 3.09522 0.368624)
(5.89962e-05 2.72512 0.196266)
(-0.822619 2.68274 0.29708)
(-0.263711 3.66712 1.1204)
(-0.174088 3.68251 0.925089)
(-0.0244152 3.60201 0.838299)
(-0.100947 3.53799 0.731507)
(-0.143351 3.54059 0.645066)
(0.08715 3.48484 0.420472)
(-0.0342039 3.62894 0.17713)
(0.704778 3.3746 0.190755)
(0.596199 3.78421 0.00403671)
(0.348703 3.00544 0.00509997)
(0.153043 3.79689 1.60876)
(0.437692 3.79511 1.32349)
(1.5024 3.6056 1.40622)
(0.719031 3.74008 1.1571)
(0.516688 3.80579 0.71489)
(0.501733 3.79909 0.604506)
(0.632022 3.80038 0.261037)
(0.997565 3.66033 0.531416)
(0.486575 3.89729 -0.164428)
(1.59889 3.17675 1.12751)
(-1.09891 3.68387 -0.632321)
(0.32882 4.29819 1.83463)
(0.693543 4.31892 1.61003)
(0.771881 4.38483 1.48974)
(0.878576 4.29006 1.25946)
(0.867756 4.45583 1.35167)
(0.927331 4.59855 1.37752)
(1.24076 4.44442 1.71731)
(1.01802 4.73861 1.38279)
(1.52976 4.64743 1.13501)
(2.06672 5.04684 1.08867)
(-0.0538637 5.081 -0.843244)
(1.0035 3.75428 0.174494)
(0.385667 3.76696 2.03804)
(1.07158 4.50368 1.9986)
(0.949058 4.77493 2.04499)
(0.965349 4.81178 1.99917)
(1.06425 4.91653 1.98553)
(0.847576 4.69974 2.17135)
(1.04836 4.1178 2.63927)
(1.29258 3.85372 2.88194)
(1.81184 3.30874 3.52725)
(2.92115 3.13599 2.87601)
(3.50452 3.32728 2.61369)
(4.0908 3.2397 1.85601)
(0.860002 4.80981 -0.536159)
(0.218254 3.15216 1.71165)
(0.0175813 2.97977 2.32379)
(0.728026 3.78118 2.04994)
(0.775522 3.97935 2.0979)
(0.811179 4.12014 2.09143)
(0.839975 4.04265 2.03403)
(0.922922 3.83821 1.7786)
(0.410679 3.47664 1.91397)