/*--------------------------------*- C++ -*----------------------------------*\
  =========                 |
  \\      /  F ield         | OpenFOAM: The Open Source CFD Toolbox
   \\    /   O peration     | Website:  https://openfoam.org
    \\  /    A nd           | Version:  7
     \\/     M anipulation  |
\*---------------------------------------------------------------------------*/
FoamFile
{
    version     2.0;
    format      ascii;
    class       volScalarField;
    location    "8.5";
    object      nut;
}
// * * * * * * * * * * * * * * * * * * * * * * * * * * * * * * * * * * * * * //

dimensions      [0 2 -1 0 0 0 0];

internalField   nonuniform List<scalar> 
18870
(
0.000703587
0.000329494
0.000647828
0.00021015
0.00116272
0.000412321
0.000359541
0.000649275
0.000243012
0.000109303
0.000937258
0.0011992
0.00114326
0.000293689
0.000464964
0.000588783
0.000597719
0.00029114
0.000123447
0.00036928
0.00108751
0.00116587
0.000645302
0.00100336
0.00110444
0.000749215
0.000502143
0.00053474
0.00068969
0.000256771
0.000572573
0.000285468
0.000163814
0.000327483
0.000338625
0.00165674
0.00110674
0.00103602
0.000537933
0.00156389
0.00134891
0.000566696
0.000773338
0.000782382
0.000736744
0.000627007
0.000818609
0.000737955
0.000349482
0.000516129
0.000484155
0.000235771
0.000145416
0.000290853
0.000329985
0.000298992
0.00109475
0.00102775
0.00155353
0.000697674
0.0012921
0.000705925
0.000860028
0.00207176
0.000704453
0.000636109
0.000320865
0.000652933
0.000590912
0.000603642
0.00063181
0.000737504
0.00102109
0.000653215
0.000444091
0.000430954
0.000481217
0.000290519
0.000229812
0.000146063
0.000267255
0.000328849
0.000261585
0.000157695
0.00137519
0.00139175
0.00128058
0.000577113
0.000959318
0.00095986
0.00159179
0.00124939
0.00096424
0.000578424
0.0009657
0.00129172
0.000486914
0.000276707
0.000302572
0.000261637
0.000669104
0.000365519
0.000518908
0.000527562
0.000228876
0.000657315
0.000962929
0.000516228
0.000501259
0.000437102
0.000470841
0.00050412
0.000241265
0.000315795
0.00015556
0.000258638
0.000323606
0.000326638
0.000216472
0.000405277
0.00105167
0.000921507
0.00167551
0.000926836
0.00106776
0.000507749
0.00124229
0.000840197
0.00100135
0.000980952
0.00148898
0.00104824
0.000546945
0.000601424
0.000375884
0.000836487
0.000596577
0.000545414
0.000152147
0.000350198
0.000247013
0.000248106
0.000491326
0.00036323
0.000517936
0.000388539
0.00029017
0.000369928
0.000526933
0.000717596
0.000384467
0.000556267
0.000339614
0.000482694
0.000501915
0.000476853
0.000288453
0.000362313
0.00016136
0.000256976
0.000317838
0.000328674
0.000242784
0.000347108
0.000622908
0.00124854
0.00103447
0.00159663
0.00125309
0.00152996
0.001646
0.00106874
0.000876494
0.00107129
0.00139258
0.00136925
0.000659308
0.000562973
0.000941079
0.000826186
0.00143379
0.000514713
0.000378955
0.000689324
0.000300277
0.000302793
0.000930178
0.000648514
0.000293734
0.000183164
0.000461892
0.000266826
0.000343372
0.000981629
0.000454623
0.000360191
0.000396527
0.000351211
0.000227289
0.000187033
0.000295476
0.000346888
0.000344511
0.000238739
0.000438927
0.000319644
0.000475948
0.000477713
0.000510731
0.000465916
0.000292542
0.000229349
0.000172616
0.000248422
0.000314783
0.000292447
0.000256722
0.000222733
0.000639498
0.000601828
0.00110138
0.00144883
0.000989063
0.00172928
0.00114794
0.00270514
0.001201
0.001925
0.00143912
0.000649217
0.000981747
0.000626179
0.000764497
0.000729913
0.000885171
0.000209192
0.000355008
0.00081798
0.000891903
0.000868328
0.000889933
0.0012904
0.000569731
0.000788402
0.000485097
0.000330599
0.000292675
0.00026178
0.000901271
0.000581619
0.000578724
0.000479719
0.000579188
0.000277468
0.000378349
0.000289154
0.0003631
0.000257982
0.00022401
0.000198824
0.000318203
0.000131126
0.000320721
0.000232152
0.000311241
0.000247328
0.000319916
0.000309271
0.00026525
0.000300489
0.000457893
0.000444651
0.000526492
0.000547956
0.000488965
0.000296757
8.62397e-05
0.000200549
0.000236214
0.000304964
0.000325119
0.000300626
0.000211365
0.000277533
0.000643258
0.000118523
0.00064127
0.000766704
0.000730871
0.00129586
0.0010784
0.0026177
0.00112804
0.00128064
0.00174652
0.00168597
0.000835312
0.00111506
0.000913848
0.000863971
0.00124216
0.0013741
0.000674321
0.000409547
0.000709321
0.000850206
0.000658684
0.000611075
0.000552904
0.000772731
0.000804563
0.00106826
0.000929467
0.000626248
0.00112022
0.000645055
0.000825614
0.000527401
0.000352664
0.000369622
0.000178589
0.000350258
0.000611609
0.000315008
0.000480225
0.000239139
0.000474105
0.000412239
0.000310694
0.000315355
0.000490058
0.000122081
0.000391469
0.000239659
0.000202251
0.000272401
9.54254e-05
0.000359032
0.000216722
0.000397411
0.000559572
0.000297779
0.000277927
0.000335794
0.000203877
0.000269119
0.000426505
0.000413352
0.000481713
0.000629019
0.00051466
0.000388661
0.000291653
8.49827e-05
0.000166455
0.000228437
0.000298429
0.0003166
0.000278254
0.000314247
0.000432964
0.000601741
0.000107421
0.000225794
0.000142449
0.000665687
0.000760366
0.000951861
0.000702435
0.00189093
0.00106807
0.00180565
0.00151952
0.00203026
0.00100744
0.00132385
0.00146161
0.00161518
0.000954442
0.00148793
0.000782109
0.00103263
0.00117028
0.00046201
0.00126528
0.00115613
0.000707181
0.0003557
0.000905358
0.000894458
0.000628993
0.000813088
0.0010903
0.000458247
0.000656595
0.000668006
0.000926012
0.00111548
0.000590747
0.000872321
0.000677817
0.000647228
0.000624895
0.000542676
0.000776689
0.000466573
0.000164621
0.000300816
0.000429196
0.00085527
0.000300576
0.000428489
0.000361655
0.000502927
0.000391936
0.000234069
0.0003604
0.000525904
0.00046664
0.000535247
0.000532151
0.000268733
0.000224683
0.000184249
9.89396e-05
0.000283575
0.000469626
0.00045858
0.00041334
0.000553463
0.000282967
0.000263782
0.000131894
0.000181186
0.000313058
0.000420333
0.000402214
0.000482163
0.000685151
0.000529068
0.00040151
0.000331813
0.000264157
0.000165607
0.000140605
0.000223029
0.000292854
0.000334078
0.000287802
0.000421778
0.000763767
0.000514825
0.000106096
0.000190684
0.000595238
0.000360995
0.00106236
0.000297909
0.000822009
0.000349536
0.00112708
0.000838566
0.00126603
0.00160248
0.00174257
0.00138012
0.00177472
0.00154428
0.00129088
0.0014158
0.00132469
0.00134249
0.00100332
0.000732493
0.00166025
0.000508151
0.00108077
0.0012332
0.00191133
0.0010344
0.000654911
0.000803157
0.00157751
0.00106651
0.000576541
0.000942861
0.000902322
0.000836065
0.000668079
0.00123932
0.001449
0.000457868
0.000474144
0.000723346
0.000685773
0.000964745
0.000917818
0.000581298
0.000788467
0.00100115
0.000394393
0.000501794
0.000506667
0.000780779
0.000792618
0.000567764
0.000346499
0.000462107
0.000488518
0.000697923
0.000614872
0.000410415
0.000314994
0.000369995
0.000450091
0.000433093
0.000330583
0.000372931
0.00045834
0.00052637
0.000535184
0.000364819
0.000275003
0.000124521
0.000257567
0.000270757
0.000208611
0.000245448
0.00032851
0.000392635
0.000396185
0.000531756
0.000541015
0.000221503
0.00028559
0.000444276
0.000166767
0.000284398
0.000409857
0.000382677
0.000452749
0.000693512
0.000526348
0.00040187
0.00030626
0.00043286
0.000246839
0.000317621
0.000169784
0.000212634
0.000287236
0.000340526
0.00028787
0.000447507
0.000867177
0.000410971
0.000168098
0.000170881
0.000608032
0.000303253
0.000548039
0.0012138
0.000420554
0.00061816
0.000614694
0.000509549
0.000635275
0.00096557
0.000835797
0.00119003
0.00071228
0.00139004
0.00212325
0.00177058
0.0019255
0.00140679
0.00216645
0.00168425
0.00103576
0.0016841
0.000714072
0.00108628
0.00114686
0.000889614
0.00171766
0.000783726
0.00107897
0.00149485
0.00104645
0.0013046
0.000435544
0.000759755
0.000399846
0.000939943
0.00100468
0.000946119
0.000632327
0.000901358
0.000620965
0.00103417
0.000652859
0.000878132
0.00122888
0.00106947
0.00152959
0.000571991
0.000522338
0.000883698
0.000912601
0.00133503
0.000986166
0.000656895
0.00117537
0.000908767
0.000383746
0.000459311
0.000382033
0.000359611
0.00038586
0.000776489
0.000717649
0.000390204
0.000626331
0.000528221
0.000509713
0.000822812
0.000611071
0.000244668
0.000294358
0.000383207
0.000353561
0.000542939
0.000401623
0.00033906
0.000503333
0.000536481
0.000597998
0.000576126
0.000190297
0.000373617
0.000368912
0.000308492
0.000343242
0.000275181
0.00012206
0.000294454
0.000300069
0.000478034
0.000584335
0.000571574
0.000446162
0.000210715
0.000287232
0.00033861
5.20633e-05
0.000257549
0.000378561
0.000352436
0.000448282
0.000673634
0.000520808
0.000418887
0.000279814
0.000454276
0.000375027
0.000347598
0.000300691
0.000159448
0.000205812
0.000281509
0.000349311
0.000299847
0.000435541
0.000849008
0.000293854
0.000105587
0.000191262
0.000509704
0.000307815
0.000169646
0.00130864
0.000795322
0.00061048
0.000575515
0.000558178
0.000522982
0.000638995
0.000499201
0.000367769
0.000897508
0.000681941
0.000785807
0.0012798
0.00258303
0.000739316
0.00091767
0.00159586
0.00173206
0.00121318
0.0013452
0.00197381
0.00170813
0.00185552
0.00192731
0.00100723
0.00182263
0.00118856
0.00104254
0.00182495
0.00158489
0.00144565
0.00052314
0.00122167
0.000590007
0.000848614
0.0010882
0.00165123
0.000901215
0.00106111
0.0012974
0.000249124
0.00115248
0.000777911
0.00114647
0.00127143
0.00122415
0.000798004
0.00056514
0.00106387
0.000801957
0.000894299
0.000921549
0.00102735
0.00155252
0.00087463
0.00087082
0.000747619
0.000817137
0.00112332
0.00129291
0.00110309
0.000884663
0.00104235
0.00090852
0.000893791
0.000666592
0.000334714
0.000364901
0.000447573
0.000459828
0.000865597
0.000761931
0.000370175
0.000531235
0.000608266
0.000514349
0.000807049
0.000950437
0.000299418
0.000228104
0.000338763
0.000407938
0.00040393
0.000451471
0.000329441
0.000478764
0.000477169
0.000531033
0.000535567
0.000655615
0.000882592
0.000198398
0.000415738
0.000227483
0.000286585
0.000214385
0.000182214
0.000268655
0.00035936
0.000290851
0.000308596
0.000551788
0.000603959
0.00050172
0.000542478
0.000160053
0.000342868
0.00018152
8.63958e-05
0.000250745
0.000396111
0.000338594
0.00042396
0.000629408
0.000479726
0.00042522
0.000265419
0.000455832
0.000342724
0.000332603
0.000368189
0.000103116
0.000147266
0.000203544
0.000273833
0.000352705
0.000314339
0.000414667
0.00075023
0.000185921
0.000129679
0.000204821
0.000264505
0.000298046
0.000319512
0.000191229
0.000695188
0.000514812
0.000687181
0.00076097
0.000637673
0.000791615
0.000461501
0.000420412
0.000426315
0.000727904
0.000673662
0.000367253
0.000491422
0.000885881
0.00018604
0.00072837
0.000632397
0.00147527
0.000938888
0.00176299
0.00169303
0.00164666
0.00193619
0.0018531
0.00196952
0.00244097
0.00123511
0.00106709
0.00205708
0.00152425
0.00156787
0.00260719
0.00130157
0.00112289
0.000527591
0.000885361
0.000987946
0.00115602
0.0011057
0.00206166
0.000918135
0.000594086
0.000618786
0.00103449
0.00113093
0.000856314
0.000442242
0.00139411
0.000825608
0.000612664
0.00109786
0.000797639
0.000613374
0.00136237
0.0009214
0.000687737
0.00089216
0.000843875
0.00089763
0.000821872
0.000828401
0.000879272
0.000435661
0.00132964
0.000958209
0.000963016
0.000939406
0.000794324
0.000965246
0.00117686
0.00107114
0.00105458
0.00112357
0.000933511
0.000952493
0.00067428
0.000582938
0.00104482
0.000374122
0.000495564
0.000455995
0.00078767
0.00078731
0.000800643
0.000437141
0.000473926
0.000426599
0.000688768
0.000663129
0.00101693
0.00109076
0.000363369
0.000227728
0.000394035
0.000434885
0.00033496
0.000520548
0.000426843
0.000388383
0.000524261
0.000554984
0.000566552
0.000571683
0.000837584
0.000611495
0.000309937
0.000193035
0.00013327
0.000210542
0.000214475
0.000343672
0.000240877
0.000251438
0.000424415
0.000249896
0.000479616
0.000654423
0.000461308
0.000487695
0.00039711
0.000197632
0.000297043
0.0003099
9.97258e-05
0.000216234
0.000472579
0.000332718
0.000382599
0.000615
0.0004595
0.000425676
0.000239703
0.000430168
0.000354532
0.000514465
0.000478538
0.000256572
5.2127e-05
0.000131209
0.000203962
0.000266772
0.00035332
0.000327758
0.000394262
0.000620678
0.000128411
0.000136847
0.000179713
0.000311949
0.000274818
0.000225108
0.000226335
0.000107759
0.000586632
0.00061367
0.000426973
0.000648968
0.000874144
0.000590616
0.000747942
0.000841674
0.00068319
0.000626957
0.000566611
0.00050368
0.00046535
0.000456029
0.000536301
0.000825618
0.000403262
0.000540931
0.00128613
0.00251153
0.000694189
0.000740948
0.000638326
0.000724129
0.00178938
0.00277528
0.00136353
0.00135386
0.000992689
0.00147534
0.00104139
0.00243631
0.00111978
0.00159786
0.00166627
0.00119263
0.00126244
0.0017898
0.00190973
0.00104808
0.00105481
0.000615927
0.00154019
0.000842724
0.000794065
0.00113524
0.00175878
0.00159662
0.000919105
0.00169951
0.000724158
0.000773027
0.0010792
0.00120291
0.0010566
0.000647233
0.000794385
0.000680164
0.000479144
0.000515103
0.00137472
0.000717925
0.000997184
0.0011933
0.000792543
0.000632421
0.000800711
0.000898582
0.000748302
0.000809371
0.000576953
0.00092771
0.00094128
0.000342951
0.000862887
0.000504353
0.00112062
0.000957576
0.00098457
0.000912277
0.00127396
0.000959805
0.00093455
0.00105922
0.00115847
0.00122211
0.000734617
0.00045928
0.000737842
0.00117483
0.00130736
0.000417658
0.000557311
0.000583287
0.000777058
0.000724899
0.000683174
0.000734991
0.000554396
0.000627791
0.000892481
0.000803684
0.000971249
0.00108079
0.000981723
0.000342813
0.000135103
0.000523168
0.000489738
0.000395272
0.000616315
0.000521804
0.000439837
0.000632539
0.000607803
0.000530655
0.000522091
0.000738116
0.000796304
0.000711127
0.000392165
0.000158915
0.000235745
0.000292228
0.000272128
0.000197043
0.00022333
0.000461391
0.000573054
0.000361404
0.000423886
0.000638245
0.000625755
0.000451968
0.000454015
0.000412317
0.000261831
0.000209331
0.000191013
8.30382e-05
0.000193301
0.000453044
0.000308406
0.000329109
0.000574492
0.000441587
0.000433755
0.00023622
0.000443334
0.000318886
0.000550099
0.000455004
0.000485634
0.000415807
0.000102139
0.000157163
0.000176335
0.000257779
0.000349849
0.000335749
0.000384576
0.000495187
0.000133298
0.000150646
0.000128733
0.000300468
0.000272644
0.000184502
0.00013359
0.000230534
0.000557495
0.000476108
0.000425126
0.000609238
0.000654906
0.000702909
0.000528245
0.000589179
0.00067432
0.000649528
0.000461916
0.000710118
0.000559529
0.000630284
0.000693379
0.000631905
0.00059531
0.000468906
0.000553433
0.0010025
0.000819747
0.000483895
0.000474021
0.000241027
0.000382733
0.00179709
0.000554375
0.00133833
0.000912896
0.000274742
0.000714644
0.00170125
0.00137398
0.000432572
0.00239269
0.00113284
0.00119306
0.000742632
0.00150677
0.00203228
0.0011083
0.00207342
0.00106827
0.00151182
0.000907828
0.000553754
0.00100664
0.00211305
0.00143534
0.00124364
0.00167431
0.000855321
0.000954324
0.000708089
0.0005169
0.000587475
0.00142781
0.00120249
0.00102027
0.00148553
0.000845782
0.000852913
0.000737826
0.000567858
0.000678017
0.000998974
0.000994656
0.000909137
0.000793413
0.000812365
0.000388778
0.000811971
0.00103141
0.000893479
0.0012172
0.000860473
0.000834478
0.000781757
0.000947999
0.000966094
0.0009836
0.000805327
0.000758942
0.000368629
0.0010345
0.00111501
0.000673876
0.000978531
0.000520513
0.000985737
0.00119466
0.000731784
0.000978036
0.000886446
0.00130679
0.00103217
0.000781142
0.000987261
0.000858573
0.00164247
0.00115575
0.000595168
0.00112297
0.000860892
0.000894
0.000893455
0.000452324
0.000555639
0.000959281
0.000710027
0.00121306
0.000633275
0.00049845
0.000900761
0.000565191
0.000729166
0.000697533
0.00101754
0.000978653
0.00111919
0.000969601
0.000247105
0.00016945
0.000636459
0.000519748
0.000495703
0.000338297
0.00037356
0.000488698
0.000525895
0.000715537
0.000593104
0.000563934
0.000762307
0.000893139
0.000905028
0.000455606
0.000274526
0.000237177
0.000244324
0.000285968
0.000249556
0.000275945
0.000283082
0.000454728
0.000491172
0.000451235
0.0003763
0.000696894
0.00039862
0.000591287
0.000427573
0.000406172
0.000587386
0.000184866
0.000234152
0.000218351
8.58754e-05
0.000139974
0.000462143
0.000291885
0.000350301
0.000520238
0.000424581
0.00045727
0.000257088
0.000363715
0.000426846
0.000677336
0.000470361
0.000509338
0.000285662
0.000408148
0.000121452
0.000143617
0.00014426
0.000250864
0.000343413
0.000336664
0.000389904
0.000414817
0.000152579
0.000161356
0.000116795
0.000268243
0.00026639
0.000158151
0.000226635
0.000176588
0.000449969
0.000242463
0.000463167
0.000460664
0.000619757
0.000461888
0.000551435
0.000538581
0.000655251
0.000663393
0.000674691
0.000644668
0.000635598
0.000635304
0.000702973
0.000546072
0.000534247
0.000868893
0.000625413
0.000508241
0.000789346
0.000664185
0.000828689
0.000513266
0.000564471
0.000507125
0.000632122
0.000678679
0.000630309
0.000715497
0.000377192
0.000126521
0.000492331
0.000626395
0.000770994
0.000595924
0.00106275
0.00132713
0.00055719
0.000592129
0.00106768
0.0013371
0.0016137
0.00187262
0.00133834
0.0012339
0.00131
0.000904761
0.00148927
0.00157563
0.000971839
0.00234413
0.00183883
0.000954961
0.00105014
0.00101448
0.00163509
0.00130926
0.00118217
0.000953828
0.000799032
0.00243174
0.00044337
0.000580588
0.000460813
0.00052678
0.000775765
0.000535949
0.00131831
0.0010676
0.000894212
0.00128665
0.00168426
0.000822387
0.000422223
0.00074453
0.000722541
0.00107101
0.000900426
0.000857104
0.00119911
0.000720229
0.000943251
0.000796513
0.00112287
0.00109317
0.000891071
0.000881867
0.00128765
0.000605176
0.000658677
0.000575525
0.00117769
0.000552945
0.00103754
0.000842511
0.000730036
0.000270158
0.000876973
0.00133922
0.000979576
0.000818832
0.000221808
0.000616068
0.00138708
0.00057155
0.000540542
0.000997062
0.000826225
0.00115774
0.00125479
0.000962077
0.00103669
0.000923288
0.000962712
0.000848991
0.000636854
0.00107594
0.00097947
0.000996555
0.000812629
0.00103116
0.000470055
0.000586186
0.00119549
0.000892574
0.00121215
0.000641281
0.00104911
0.000883543
0.000549176
0.000629551
0.000814877
0.00120969
0.000907537
0.000930008
0.00164139
0.000394216
0.000349469
0.000240565
0.000441846
0.000520234
0.000408144
0.000622436
0.000518559
0.000471789
0.000487608
0.000668991
0.000675976
0.000680644
0.000634582
0.000762262
0.00115017
0.00037853
0.00107196
0.000345003
0.000199379
0.000251127
0.000259893
0.000252142
0.000441935
0.000389087
0.000374773
0.000419298
0.000502822
0.000304735
0.000694867
0.000415397
0.000571172
0.000618894
0.000275186
0.000606788
0.000381653
0.00023837
0.000163133
0.000128284
0.000145641
0.000147766
0.000440034
0.0003145
0.00037146
0.000471901
0.000398357
0.000453749
0.000276458
0.000392101
0.000341042
0.000554867
0.000478416
0.000507067
0.000348693
0.000247386
0.000179233
5.31749e-05
0.000149186
0.000129314
0.000253997
0.00033839
0.000334027
0.000396596
0.000387895
0.000172489
0.000172138
0.000124183
0.000213491
0.000240401
0.000129032
0.000126899
0.000108922
6.33631e-05
0.00015016
0.000218129
0.000849579
0.00046887
0.000471919
0.000488036
0.000566166
0.000593915
0.00049503
0.000518941
0.000675533
0.000448287
0.000752553
0.000722886
0.000774804
0.000803743
0.000661787
0.000590426
0.000781503
0.000775791
0.000753116
0.000515344
0.000554494
0.000736162
0.000653313
0.000498924
0.000557108
0.000534865
0.000525043
0.000762679
0.00075244
0.000410952
0.000408075
0.000239985
0.000835197
0.000773687
0.000936482
0.000634148
0.00070699
0.000457147
0.000411279
0.000567794
0.000889225
0.000903846
0.00109428
0.00100014
0.0008616
0.00082755
0.00053233
0.000670451
0.00110059
0.000816655
0.00112496
0.00126
0.00167594
0.00164187
0.00135153
0.00168151
0.00087561
0.000869056
0.00155629
0.0012988
0.00185562
0.00143246
0.00140973
0.00136892
0.001253
0.00175627
0.00105599
0.00179321
0.000917498
0.00123082
0.00100442
0.00133243
0.00110506
0.000729966
0.000666497
0.000756963
0.000663255
0.000506976
0.00084118
0.000801403
0.000811093
0.000908878
0.000801585
0.000862309
0.000584691
0.000516948
0.000724709
0.000883725
0.000718097
0.000853102
0.00161318
0.000932281
0.00127768
0.000799036
0.00071841
0.000715376
0.000682203
0.00059017
0.000801071
0.00104654
0.00105136
0.00100774
0.00100956
0.00173957
0.000916836
0.00057351
0.000464117
0.000921419
0.000894168
0.000583844
0.000830227
0.00148199
0.000862466
0.00043624
0.000287024
0.000575343
0.00115514
0.00100241
0.00044646
0.000680524
0.00101394
0.000823369
0.000987088
0.00102754
0.000897255
0.000881162
0.00153503
0.00078982
0.000536165
0.000754679
0.00109225
0.001082
0.000925442
0.00091862
0.00103524
0.000732492
0.000676775
0.000626351
0.00077952
0.00105334
0.0010258
0.00084127
0.000878878
0.000746904
0.000671609
0.000481603
0.00086129
0.00104015
0.000975242
0.000879297
0.000605958
0.000581168
0.00044201
0.000332035
0.000263355
0.000224733
0.000497314
0.000533328
0.00057929
0.000597335
0.000780708
0.000465053
0.000603962
0.000759161
0.00079552
0.00047204
0.000767678
0.000855905
0.000575487
0.000698103
0.000499283
0.000274246
0.000348739
0.0002853
0.00028703
0.000295236
0.000308532
0.000436369
0.000420743
0.000359529
0.000439079
0.000471079
0.000723394
0.000533541
0.000392975
0.000550411
0.000487886
0.000609396
0.000596284
0.000474925
0.000231296
0.000147089
0.00010101
0.000206146
0.000149265
0.000411484
0.000333874
0.000372181
0.000454363
0.000371787
0.000502096
0.000287536
0.000345989
0.000367563
0.000632781
0.000439892
0.000481687
0.00027565
0.000262678
0.000366592
0.00012811
0.000115245
0.000140297
0.000119362
0.000256064
0.000336792
0.000327549
0.00039225
0.000392107
0.00019168
0.0001807
0.000123029
0.000193028
0.000273741
0.00015805
0.000144454
0.000167628
0.000102708
8.52125e-05
0.000202819
7.22986e-05
0.000919923
0.000839069
0.000610243
0.000501728
0.000358992
0.00030182
0.000777583
0.000584575
0.000728017
0.000691055
0.000636954
0.000558354
0.000663362
0.000844014
0.000514677
0.000774655
0.000786597
0.000754069
0.000850113
0.000660279
0.000583556
0.000690402
0.000873668
0.00091099
0.000868601
0.000826674
0.000625289
0.000575259
0.000870793
0.000579999
0.000539741
0.000781432
0.000773701
0.000664273
0.000560356
0.000786732
0.000704789
0.000492569
0.000754957
0.000732169
0.000771113
0.000833459
0.000739977
0.000738748
0.000943687
0.000515869
0.000351708
0.000854207
0.000797851
0.000785608
0.000827062
0.000863125
0.000751681
0.00114208
0.00114496
0.00100719
0.00057333
0.00104003
0.00177132
0.00130082
0.000879476
0.000940839
0.00128612
0.0013625
0.00126284
0.00178744
0.00160374
0.00117425
0.00132653
0.00235404
0.00141746
0.0011992
0.00124953
0.00168968
0.00141414
0.00152439
0.00196262
0.0014491
0.00121994
0.000956212
0.00155604
0.00187119
0.000959685
0.00105545
0.00114241
0.000991745
0.000843377
0.00122441
0.00104695
0.00134082
0.00112613
0.000985735
0.000709194
0.00108921
0.000845738
0.000360916
0.000619833
0.000969525
0.00106721
0.000619258
0.00103688
0.00114781
0.000930347
0.00113284
0.00152022
0.000990938
0.00117297
0.00103567
0.000809621
0.000501587
0.000678795
0.000371063
0.000879484
0.000899107
0.0014787
0.00119261
0.000989151
0.000830646
0.00139089
0.000987387
0.000568335
0.000948773
0.00106635
0.000898324
0.000470924
0.00131515
0.00140886
0.00117683
0.000915935
0.000741638
0.000371188
0.000820046
0.000698332
0.000661646
0.000624505
0.00075674
0.000833118
0.000871057
0.00073957
0.000848205
0.0012175
0.00105337
0.00137025
0.000871337
0.000656707
0.000481277
0.000966705
0.000613538
0.000878399
0.00103644
0.00124433
0.000899695
0.000822811
0.000724353
0.000714873
0.00066919
0.00100955
0.00104016
0.00027979
0.00151148
0.00135854
0.000448892
0.0005538
0.000760636
0.000711692
0.00138101
0.000879121
0.000620676
0.000941578
0.000708234
0.000845593
0.000428655
0.000337276
0.000322902
0.000530848
0.000495274
0.000369975
0.000651088
0.000659639
0.00039398
0.000546228
0.000880576
0.000841829
0.000551663
0.000787726
0.000795954
0.000518339
0.000605202
0.000574899
0.000341175
0.000341597
0.000300123
0.000247737
0.000392161
0.000309456
0.00029602
0.000467505
0.000446726
0.000370702
0.000402042
0.000519098
0.00071447
0.000429069
0.000645157
0.000470093
0.000182165
0.000460827
0.00028056
0.000450055
0.000369167
0.000211154
0.000160035
0.000171403
0.000249084
0.000121611
0.000401302
0.000264451
0.000357673
0.000443186
0.000387246
0.000383801
0.000309086
0.000366368
0.000421524
0.00060719
0.000428191
0.000508412
0.000268998
0.000261346
0.000342907
0.000352576
0.000904608
0.000450582
0.000145582
0.000119085
0.000247205
0.000339102
0.00031253
0.000379181
0.000395965
0.000208612
0.000175946
0.00013034
0.000199703
0.00022278
0.000126964
0.000166639
0.000112471
0.000412649
0.000100003
0.000196098
8.21945e-05
0.00021562
0.00134983
0.000962507
0.000847246
0.00102613
0.00077277
0.000681779
0.000798515
0.00044099
0.000367901
0.000682263
0.000711393
0.000619239
0.000520779
0.000854011
0.000671129
0.000441462
0.000622607
0.000504844
0.000673399
0.000553623
0.000505875
0.000835825
0.000735456
0.000562575
0.000496135
0.000507951
0.000511129
0.00059313
0.000754411
0.000590176
0.000758564
0.00068089
0.000625483
0.000709671
0.000616252
0.000589073
0.000606438
0.000532321
0.000518198
0.00117107
0.000664458
0.000735118
0.000659804
0.000465666
0.000534143
0.00067942
0.000459922
0.00073089
0.00105117
0.000836368
0.000802021
0.00099963
0.000815627
0.000485053
0.000305944
0.000640315
0.000452502
0.000551776
0.000674807
0.000667786
0.000863263
0.00108227
0.000754877
0.000411669
0.000491481
0.000605706
0.000550682
0.000604433
0.000903253
0.000546725
0.000493922
0.00105591
0.000898346
0.00123405
0.000800065
0.000935665
0.00125505
0.00122505
0.001346
0.00119868
0.00152363
0.000839636
0.0012881
0.000988292
0.00115525
0.001608
0.00169331
0.00144032
0.00134923
0.00186931
0.00169951
0.00141191
0.00139248
0.00122298
0.00166548
0.00211479
0.000707863
0.0010393
0.000737754
0.000860184
0.00151695
0.00126734
0.00134688
0.00106816
0.00128976
0.000891202
0.00096048
0.00104862
0.00085308
0.000261636
0.000397559
0.000309055
0.000628613
0.000666406
0.00125395
0.000793355
0.00103292
0.00130136
0.00130415
0.000993536
0.000997563
0.00110284
0.00162836
0.000724357
0.000567239
0.000691756
0.000644525
0.000980802
0.00122336
0.00106381
0.000981423
0.00128868
0.00101252
0.001075
0.00120627
0.00126905
0.000197909
0.00121755
0.0012406
0.000991158
0.000734975
0.000921431
0.000852685
0.00105251
0.000844297
0.000536091
0.000427141
0.00124008
0.000905461
0.00062697
0.000757164
0.000805476
0.000923037
0.000812753
0.000844161
0.000735928
0.000874971
0.00059595
0.000949292
0.000754959
0.000478455
0.000861369
0.000614347
0.0010506
0.000768779
0.0010012
0.00104778
0.00120739
0.00106841
0.0009247
0.000936916
0.000743319
0.000828372
0.000670911
0.00100551
0.000969617
0.0010451
0.00105741
0.000921905
0.000605026
0.00059787
0.000682079
0.00070383
0.00137848
0.000864044
0.0007705
0.000662892
0.000622885
0.000649622
0.000560445
0.000418826
0.000450042
0.000389323
0.000615595
0.000414423
0.000379255
0.000645711
0.000635665
0.000410173
0.0005388
0.000704042
0.000920177
0.000814733
0.00062401
0.000570879
0.000205363
0.000507247
0.000581925
0.000505961
0.00058944
0.000416689
0.000396798
0.000298444
0.000272961
0.000218218
0.000322029
0.000524026
0.000452442
0.000366329
0.000359935
0.000657802
0.000641479
0.000511378
0.000572655
0.000521769
0.000320573
0.000436727
0.000533534
0.000405432
0.000476715
0.000467666
0.000217958
0.00016873
0.000221959
0.000131291
0.000124305
0.000470637
0.000302301
0.000350989
0.000434654
0.000402705
0.000417391
0.000361545
0.000292713
0.000473084
0.000518858
0.00045455
0.000516886
0.000350963
0.000251843
0.00037455
0.000289956
0.000377067
0.000281223
0.000375888
0.000147584
0.000116069
0.000254631
0.000344003
0.00029835
0.000369762
0.000378743
0.000226955
0.000174017
0.000146245
0.000229778
0.000212318
0.000119668
0.000142792
0.000137817
0.000251266
0.000145228
0.000253845
0.000555307
0.000209977
9.74766e-05
0.00124722
0.00146179
0.00121618
0.00109809
0.00104825
0.000941623
0.000880099
0.000907127
0.000767606
0.000889167
0.000589671
0.000655658
0.00049461
0.000508098
0.000709396
0.000680423
0.000801336
0.000668076
0.000521757
0.000519868
0.000654329
0.000481478
0.000561352
0.000512081
0.000574549
0.000502799
0.000606753
0.000535968
0.000788619
0.000520633
0.000380748
0.000487598
0.000420794
0.000437827
0.00057064
0.000723473
0.000704228
0.000853189
0.000619386
0.000606246
0.000428874
0.000429153
0.000590664
0.000773675
0.000849279
0.000725194
0.000512977
0.000505535
0.000605358
0.000538472
0.000633224
0.000413747
0.000805169
0.000757776
0.000641433
0.000828267
0.000589556
0.000523597
0.000637523
0.000745035
0.00081385
0.000564249
0.00112146
0.000727047
0.000627858
0.000803885
0.000912869
0.000664601
0.00079139
0.000834935
0.000786052
0.000806484
0.000887431
0.00107109
0.000685813
0.000919542
0.000640506
0.000621151
0.000803018
0.000937507
0.00134405
0.00124785
0.000630386
0.000926248
0.000913153
0.00118785
0.00105349
0.0012139
0.00137688
0.000720575
0.000823693
0.000704165
0.00178111
0.0015368
0.00136078
0.0010665
0.000965567
0.00127579
0.00115326
0.00102879
0.00107085
0.0011877
0.00082213
0.00174876
0.000613811
0.000964607
0.0019524
0.00147153
0.00143387
0.00199276
0.00133719
0.00113356
0.00120214
0.000883912
0.00158219
0.00101778
0.00125295
0.000788457
0.000652417
0.000929917
0.000580677
0.000308202
0.0013862
0.000916231
0.000617374
0.000733233
0.000937326
0.000600967
0.00098847
0.000658511
0.000804019
0.000919808
0.000938084
0.0011438
0.000962654
0.000850275
0.000804134
0.00112463
0.000990287
0.000488827
0.000549196
0.000642413
0.000952511
0.000971492
0.000733816
0.000933423
0.00100453
0.00081472
0.000986975
0.000946712
0.00113072
0.00107739
0.000762019
0.000448598
0.000976371
0.00102197
0.000772896
0.00074374
0.00147756
0.000808205
0.000723094
0.000837803
0.000391
0.000300861
0.000994911
0.00103483
0.000753824
0.000755661
0.000793973
0.000541268
0.000938602
0.000899296
0.000809108
0.000759556
0.000768864
0.000953996
0.00141328
0.000752866
0.00085168
0.000792434
0.000675416
0.000996226
0.000995254
0.000688547
0.00102676
0.00109995
0.00104629
0.00107697
0.00090515
0.000800459
0.000833301
0.000907117
0.000841352
0.00103766
0.00101232
0.000596615
0.00100221
0.000636721
0.00064618
0.000577291
0.000645965
0.000732297
0.000993034
0.00101944
0.000636074
0.000920692
0.0013699
0.0006036
0.000654964
0.000276188