/*--------------------------------*- C++ -*----------------------------------*\
  =========                 |
  \\      /  F ield         | OpenFOAM: The Open Source CFD Toolbox
   \\    /   O peration     | Website:  https://openfoam.org
    \\  /    A nd           | Version:  7
     \\/     M anipulation  |
\*---------------------------------------------------------------------------*/
FoamFile
{
    version     2.0;
    format      ascii;
    class       surfaceScalarField;
    location    "8.5";
    object      phi;
}
// * * * * * * * * * * * * * * * * * * * * * * * * * * * * * * * * * * * * * //

dimensions      [0 3 -1 0 0 0 0];

internalField   nonuniform List<scalar> 
54451
(
9.8358e-05
0.000348125
-0.000115467
0.000180821
0.00128883
-0.00034902
0.000105209
0.000224044
-0.00011542
9.89955e-05
-0.000837836
-0.00010358
0.000353258
0.00136439
-0.000520046
0.00019359
0.00118708
-0.00034604
0.000152498
0.000504254
-0.000325677
0.000112417
9.58747e-05
-0.000116017
9.38419e-05
-0.000943341
-0.000103757
8.04955e-05
-0.000982168
-0.000102363
0.000632336
0.00355829
-0.000817869
0.000396731
0.00107847
-0.000437679
0.00021625
0.00172265
-0.000491389
0.000214917
0.00105467
-0.000343512
0.000173717
0.000384086
-0.000305748
0.000197311
0.000124361
-0.000307149
0.000128149
-4.43709e-05
-0.000117401
8.98687e-05
-0.00104544
-0.000103785
8.0591e-05
-0.00106606
-0.000100458
9.20443e-05
-0.00106348
-0.000113906
0.000919725
0.00539937
-0.00043309
0.000676711
0.00338337
-0.000786214
0.000488211
0.00249116
-0.000681941
0.000454137
0.000755401
-0.000372511
0.000337653
0.0015476
-0.000426565
0.000488362
0.000961556
-0.000443169
0.000252163
0.00087725
-0.000332328
0.00018415
0.000229997
-0.000283704
0.000211477
-2.64132e-05
-0.00028586
0.000229944
-0.000722819
-0.000302583
0.000144245
-0.000196449
-0.000119117
9.35022e-05
-0.00115268
-0.000103661
8.2929e-05
-0.00115404
-9.87371e-05
8.63803e-05
-0.00113927
-0.000111042
5.46239e-05
-0.00130585
-0.000130591
0.00138498
0.00545767
-0.000719198
0.00110743
0.00514736
-0.000514424
0.0010816
0.00491562
-0.000772864
0.000774463
0.00304478
-0.00072618
0.000578794
0.00206815
-0.000604345
0.000810288
0.00217536
-0.000475167
0.000541331
0.000409788
-0.000345682
0.000488926
0.00124072
-0.000370409
0.000495112
0.000653073
-0.000401717
0.000517802
0.000764432
-0.000415349
0.000281339
0.000663346
-0.000314871
0.00019796
5.05262e-05
-0.000257314
0.000234615
-0.000199914
-0.00026189
0.000224757
-0.00085941
-0.000287646
0.000235205
-0.00169596
-0.000327329
0.000164528
-0.000364459
-0.000120208
0.000102865
-0.00127108
-0.00010359
8.26886e-05
-0.00124311
-9.72733e-05
7.86872e-05
-0.00120828
-0.00010842
5.15931e-05
-0.00134029
-0.000128194
6.59389e-05
-0.000853634
-0.000136044
0.00168902
0.00617315
-0.000607348
0.001598
0.0052389
-0.000898893
0.00157891
0.00451002
-0.00059249
0.00133432
0.00466257
-0.000553174
0.00136072
0.0042389
-0.00061963
0.00135447
0.00362334
-0.000962154
0.000810281
0.00270165
-0.00058254
0.000778666
0.00155938
-0.00050715
0.000857932
0.00165073
-0.000442528
0.000840537
0.00149457
-0.000507983
0.00055381
8.80624e-05
-0.000321997
0.000590463
0.00083818
-0.000335644
0.000499998
0.000382733
-0.000365452
0.000546088
0.000417164
-0.00037578
0.000598908
-0.000498882
-0.000446844
0.000308664
0.000428236
-0.000294238
0.000226262
-0.000157836
-0.000229907
0.000244262
-0.000382169
-0.000236632
0.000216193
-0.000986188
-0.000272618
0.000231542
-0.00184832
-0.000315238
0.000276717
-0.00131678
-0.000366229
0.000179304
-0.000542961
-0.000121086
0.000113094
-0.00140086
-0.000103517
7.87758e-05
-0.00132956
-9.5921e-05
7.07992e-05
-0.00127035
-0.000105996
4.94139e-05
-0.0013722
-0.000125927
6.26005e-05
-0.000909
-0.000135428
7.08947e-05
-0.000121883
-0.000126561
0.00146485
0.00712596
-0.000491663
0.00175917
0.00620584
-0.000724398
0.00188338
0.00594147
-0.000970524
0.00165169
0.00492196
-0.000822716
0.00188975
0.00375212
-0.000670024
0.00195017
0.00398614
-0.000498304
0.00145496
0.00389877
-0.0004614
0.00152019
0.0035514
-0.000607205
0.00135574
0.0032802
-0.000774301
0.00130499
0.00268496
-0.000917194
0.000828427
0.00230377
-0.000455983
0.0010176
0.000996232
-0.000446524
0.000833094
0.00127324
-0.000462761
0.000847107
0.00123861
-0.00048759
0.000973082
0.000742407
-0.000562005
0.000552478
-0.000213327
-0.000307861
0.00062423
0.000423857
-0.000305642
0.000479147
0.000145268
-0.000333063
0.000548597
7.38793e-05
-0.000354571
0.000578611
-0.000805251
-0.00041648
0.000540559
-0.00113122
-0.000443622
0.00032524
0.000184535
-0.000275707
0.000248739
-0.000381154
-0.000206565
0.000245344
-0.000568114
-0.000210531
0.000211967
-0.00110785
-0.00025614
0.000225382
-0.00199218
-0.000304724
0.000263342
-0.00147776
-0.000354997
0.000261821
-0.000754885
-0.000340971
0.000187961
-0.000726327
-0.000121239
0.00012278
-0.0015413
-0.000103425
7.29594e-05
-0.00141142
-9.46152e-05
6.83378e-05
-0.00133092
-0.000103691
4.57758e-05
-0.00140036
-0.000123609
5.93159e-05
-0.000960443
-0.0001338
6.64515e-05
-0.00019472
-0.000129043
6.36555e-05
0.000313443
-0.000109894
0.00121296
0.00728715
2.60728e-05
0.00169146
0.0074514
-0.000590759
0.00139087
0.00716251
-0.000495549
0.00182331
0.00598522
-0.000714948
0.00206232
0.00564444
-0.000599941
0.00246872
0.0047425
-0.000718363
0.00188223
0.00434328
-0.000593944
0.0020347
0.00291912
-0.000504221
0.00195712
0.00317577
-0.000461035
0.00205669
0.0038908
-0.000696662
0.00161075
0.00293784
-0.000500659
0.00165095
0.00297474
-0.000518096
0.00131599
0.00286528
-0.000675185
0.00129278
0.00232845
-0.000863458
0.00123759
0.00167398
-0.000819517
0.000855184
0.00181257
-0.000431177
0.00108681
0.000525314
-0.00044764
0.00080621
0.00098714
-0.000487484
0.000833803
0.00098101
-0.000490369
0.000913397
0.000484394
-0.000564364
0.000723293
-0.000764549
-0.000602914
0.000573692
-0.000517565
-0.000306967
0.000600331
4.69619e-05
-0.000282558
0.000455585
-6.24751e-05
-0.000308139
0.000550499
-0.000260128
-0.000337587
0.000544522
-0.00108091
-0.000398053
0.000492442
-0.00135038
-0.00042642
0.000447099
-0.00161623
-0.000431955
0.000327228
-5.11704e-05
-0.000263547
0.000262495
-0.000606485
-0.00019009
0.00024089
-0.0007517
-0.00019091
0.000216991
-0.00122914
-0.000237888
0.000207708
-0.00211605
-0.000294202
0.00024617
-0.0016257
-0.000343636
0.00024342
-0.000953765
-0.000333084
0.000180495
-0.000773035
-0.000295352
0.000197715
-0.000916291
-0.000120293
0.000129856
-0.00168917
-0.000103225
6.68194e-05
-0.00148827
-9.33883e-05
6.67698e-05
-0.00139084
-0.000101468
3.82239e-05
-0.00142102
-0.00012125
5.3843e-05
-0.00100608
-0.00013182
6.17964e-05
-0.000260454
-0.000129863
5.81606e-05
0.000238967
-0.000112728
0.000129192
0.000802878
-9.97757e-05
0.00152859
0.0058716
0.000975457
0.00168989
0.00743518
-0.000219025
0.000771102
0.00790849
0.000183824
0.00151354
0.00748998
-0.000115766
0.00180192
0.00731812
-0.000485964
0.00241663
0.00707201
-0.000483596
0.00194806
0.00568351
-0.000573526
0.00223272
0.00513944
-0.000407952
0.00226069
0.00418916
-0.000350172
0.0026278
0.00395975
-0.000401194
0.00204785
0.00367686
-0.000210343
0.00207969
0.00230407
-0.000407626
0.00180953
0.00254223
-0.000364213
0.00202842
0.00331111
-0.000616983
0.00185911
0.00279657
-0.000639186
0.00173082
0.00191104
-0.000440521
0.00162352
0.00235375
-0.000416384
0.00127695
0.00249073
-0.000614282
0.00126026
0.00202267
-0.00079586
0.00116971
0.00133406
-0.000779853
0.000945535
0.0010697
-0.000757477
0.000909955
0.00126312
-0.000403701
0.00103268
7.79332e-05
-0.000416147
0.000733273
0.000774251
-0.000512439
0.000779702
0.000762126
-0.000497802
0.0008305
0.000257812
-0.000549764
0.000621661
-0.000857802
-0.000600329
0.000418703
-0.000984776
-0.000545901
0.000596066
-0.000842523
-0.000319096
0.000562581
-0.000285245
-0.000274846
0.00047079
-0.000286163
-0.000288769
0.000516768
-0.000542704
-0.000325341
0.000483207
-0.00130766
-0.000386339
0.000465118
-0.00155419
-0.000413192
0.000415566
-0.00179119
-0.000423606
0.000219864
-0.00161627
-0.000372828
0.000327266
-0.00026849
-0.000259348
0.000269689
-0.000827317
-0.000182549
0.000231648
-0.000928041
-0.000178579
0.000215534
-0.00134727
-0.000221551
0.000172539
-0.00220433
-0.000283921
0.000233286
-0.00176668
-0.00033267
0.000219102
-0.00113024
-0.000324464
0.000146602
-0.000904347
-0.000290213
0.000223558
-0.000966718
-0.000267265
0.00019873
-0.00110494
-0.000119368
0.000128086
-0.00183444
-0.000103108
6.15629e-05
-0.00156082
-9.22421e-05
6.17012e-05
-0.00144661
-9.9316e-05
2.79712e-05
-0.0014315
-0.000118965
4.77155e-05
-0.00104528
-0.000129765
5.7902e-05
-0.000321268
-0.000128907
5.0683e-05
0.000173351
-0.00011493
0.000138246
0.000651587
-9.96824e-05
9.42888e-05
-0.000124618
-8.27302e-05
0.0015323
0.00552473
0.00222202
0.00162516
0.00602784
0.00090407
0.000976382
0.00633294
0.000788955
0.00122965
0.00775764
-2.30292e-05
0.00120233
0.00819255
9.65097e-05
0.00105936
0.00861983
0.000463716
0.00155423
0.00748805
7.00149e-05
0.00188928
0.00753063
1.51567e-05
0.00183839
0.0072397
-0.000231352
0.00279251
0.00601403
-0.000323265
0.00191542
0.00546634
-0.000392015
0.00208941
0.0046841
-0.000127913
0.00222995
0.00355939
-0.000198605
0.00260071
0.00313126
-9.39796e-05
0.00249245
0.00290455
-0.000276287
0.00204582
0.0032232
-0.00019538
0.00188197
0.00202817
-0.000192898
0.00176644
0.00204849
-0.000403382
0.00192065
0.00275402
-0.000467518
0.00177267
0.00207595
-0.00049932
0.0013511
0.00188525
-0.000599191
0.00160486
0.0011214
-0.000545593
0.00149153
0.00187589
-0.000421513
0.00131221
0.00206333
-0.000567924
0.00118498
0.00174656
-0.000743449
0.00105388
0.00110732
-0.000792489
0.000800962
0.000832595
-0.000722051
0.000592872
0.00102466
-0.000729463
0.00101507
0.000652657
-0.00037938
0.000967151
-0.000303209
-0.000427129
0.000712429
0.000599424
-0.000482959
0.000693842
0.000583131
-0.000510517
0.000705344
0.000104838
-0.000566966
0.000557703
-0.000909112
-0.000591039
0.000390075
-0.00101176
-0.00054786
0.000123974
-0.00063494
-0.000432657
0.000567201
-0.00113279
-0.00035364
0.000527534
-0.00058639
-0.000275797
0.000456354
-0.000511346
-0.000274369
0.00044222
-0.000738272
-0.000319887
0.000399177
-0.00147693
-0.000382709
0.000412423
-0.00171674
-0.000402928
0.000332401
-0.00190931
-0.000408374
0.000161545
-0.0016849
-0.000369926
0.000240856
-0.0019818
-0.000323988
0.00036141
-0.00050678
-0.000264281
0.000262834
-0.00103836
-0.000183051
0.000217854
-0.00109459
-0.000172293
0.00020572
-0.001461
-0.000208866
0.000129027
-0.00225342
-0.000273517
0.000207921
-0.00188875
-0.00032205
0.000187075
-0.00127726
-0.000314826
0.000124448
-0.00101902
-0.000283555
0.000189126
-0.00104898
-0.000258832
0.00013857
-0.00104708
-0.000246844
0.000201627
-0.00129512
-0.000117969
0.000119314
-0.00197002
-0.000103103
5.49298e-05
-0.0016276
-9.12555e-05
5.36443e-05
-0.00149523
-9.72705e-05
1.949e-05
-0.00143354
-0.000116761
3.94419e-05
-0.00107609
-0.000127593
5.2967e-05
-0.000376947
-0.000127054
4.3447e-05
0.000116506
-0.000115509
0.00014671
0.000489649
-9.97026e-05
7.78188e-05
-0.00021974
-8.23789e-05
1.49816e-05
-0.000503194
-6.15458e-05
0.00132131
0.00583542
0.00342639
0.00191372
0.005449
0.00199904
0.00113383
0.00550665
0.00205855
0.00148453
0.00605775
0.000763497
0.00109021
0.00654685
0.000802268
0.000524666
0.00774806
0.000668483
0.00135214
0.00797555
0.000155938
0.00129022
0.00843064
0.000337945
0.000899798
0.00906505
0.000589885
0.00238374
0.00811908
0.000338797
0.0018596
0.00711645
0.0001006
0.00172656
0.00764289
0.00032061
0.00220742
0.00708204
0.000195346
0.0026158
0.00570823
5.93606e-05
0.0024634
0.00424934
0.000219282
0.00189682
0.00512078
-8.28361e-05
0.00185005
0.00446208
-0.000138078
0.0017655
0.00335605
7.63726e-05
0.00230716
0.00258847
-4.23269e-05
0.0022058
0.00236095
1.64951e-05
0.00171649
0.00229658
-0.000207237
0.001833
0.00288799
5.64494e-05
0.00175141
0.00170582
-0.000132895
0.00168847
0.00168069
-0.000201364
0.00177899
0.00215083
-0.000394206
0.00160362
0.00151495
-0.000456263
0.00124192
0.00137771
-0.000432739
0.00108224
0.00160159
-0.000697094
0.00141086
0.000738281
-0.000446322
0.00136863
0.00123201
-0.000303192
0.00123854
0.00158978
-0.000474078
0.00110618
0.00147152
-0.000705222
0.000931133
0.000931759
-0.000793678
0.000641707
0.000688903
-0.0007328
0.000512091
0.000911999
-0.000731403
7.65538e-05
0.000698824
-0.000681042
0.00104403
0.000115215
-0.000332518
0.000866623
-0.000614245
-0.000407433
0.000707632
0.000344881
-0.000423865
0.000657718
0.000418022
-0.000533348
0.000590503
-2.37926e-05
-0.000573212
0.000403145
-0.000876337
-0.000590463
0.000287574
-0.00100637
-0.000551597
3.98714e-05
-0.000611729
-0.000449397
8.24634e-05
-0.001051
-0.000388279
0.000565247
-0.00136915
-0.000355298
0.000499475
-0.000906655
-0.000270016
0.000432326
-0.000742149
-0.000259466
0.000419472
-0.000911315
-0.000315078
0.000305719
-0.00159524
-0.000378269
0.000363898
-0.00185531
-0.000400115
0.000272958
-0.00200473
-0.000393393
0.000133204
-0.00174442
-0.000357606
0.000172809
-0.00202182
-0.00031359
0.000172296
-0.00210717
-0.000324204
0.000345071
-0.000717459
-0.000263906
0.000226368
-0.00122081
-0.000188887
0.000200091
-0.00125307
-0.00016973
0.000190926
-0.00157109
-0.000199482
9.62052e-05
-0.00227539
-0.000263609
0.00018023
-0.00199011
-0.000312949
0.000151894
-0.00139259
-0.000305644
8.98226e-05
-0.00110531
-0.000274913
0.000146475
-0.0010828
-0.000249499
9.92321e-05
-0.00108909
-0.00023824
3.63752e-05
-0.000709262
-0.000234914
0.000203908
-0.00148658
-0.000116553
0.000113628
-0.00209833
-0.000103287
4.74683e-05
-0.00168775
-9.0427e-05
4.45974e-05
-0.0015357
-9.53855e-05
8.66333e-06
-0.00142491
-0.000114563
3.08159e-05
-0.00109828
-0.000125391
4.79774e-05
-0.00042782
-0.000124696
4.01909e-05
6.40281e-05
-0.000114766
0.000139848
0.000333914
-9.96219e-05
6.03822e-05
-0.000297818
-8.20074e-05
1.13188e-05
-0.000534952
-6.194e-05
8.46044e-07
-0.00026111
-3.97915e-05
0.00147879
0.00575116
0.00411249
0.00199215
0.00580981
0.00328414
0.00101188
0.00586218
0.00338031
0.00140989
0.00561505
0.00203948
0.00126873
0.00529664
0.00203053
0.000862083
0.00564083
0.00176286
0.00145526
0.0061866
0.000643999
0.0011706
0.00704056
0.000389401
0.000419376
0.0082433
0.000787445
0.00159742
0.00900219
0.000812007
0.00169791
0.0081315
0.000258034
0.00124493
0.00860154
0.000466663
0.00161225
0.00918957
0.000808592
0.00208774
0.00853405
0.000702981
0.00220875
0.00685605
0.000573199
0.00174124
0.00679124
0.00030885
0.00177978
0.00724818
0.000565578
0.00184058
0.00666731
0.000660245
0.00227663
0.00528957
0.000644534
0.002415
0.00360158
0.000497923
0.00213134
0.00302869
0.000609903
0.00195169
0.00469783
0.000245023
0.00170881
0.00413457
0.000287273
0.00179381
0.00305112
6.15178e-05
0.00212309
0.00216111
0.000159639
0.00201609
0.00200751
-0.000101357
0.00172783
0.00184846
-2.12968e-05
0.0013071
0.00218709
-6.62436e-05
0.00180965
0.00243251
0.000131281
0.00164981
0.00152142
-4.03352e-05
0.00162665
0.00135688
-0.000197194
0.00169381
0.0015828
-0.000220967
0.00148494
0.000978183
-0.000411254
0.00118781
0.000857192
-0.000481849
0.000871596
0.00144471
-0.000635364
9.55908e-05
0.00100745
-0.00058045
0.00136088
0.00038564
-0.000265425
0.00127873
0.000744651
-0.000371072
0.00118845
0.00122378
-0.000418003
0.00117553
0.00108926
-0.000609631
0.000804601
0.000753987
-0.000741548
0.000490664
0.000545139
-0.000737432
0.000447958
0.000755166
-0.000736352
-1.8502e-05
0.000701579
-0.000675784
-0.000145569
0.000328518
-0.000615211
0.000975856
-0.000397128
-0.000303889
0.000778883
-0.000828357
-0.000397814
0.000647782
0.000104042
-0.000382049
0.000579805
0.00033215
-0.000498326
0.000385557
-6.84414e-05
-0.000568537
0.000308266
-0.000812167
-0.00058175
0.000217834
-0.000994793
-0.000546916
-2.93507e-05
-0.000544394
-0.000456377
-3.42877e-05
-0.000895692
-0.000397613
-1.7734e-05
-0.00154465
-0.000346576
0.000495492
-0.00157851
-0.000368377
0.000463601
-0.00121567
-0.00028352
0.000396445
-0.000957869
-0.00025065
0.000380717
-0.00105392
-0.000306648
0.000206094
-0.00165173
-0.000368471
0.000317895
-0.00197619
-0.000395061
0.000190226
-0.00206274
-0.000380436
7.03815e-05
-0.00177667
-0.000341703
8.23011e-05
-0.00201585
-0.0002994
7.86018e-05
-0.00209389
-0.000306236
0.000102569
-0.00180273
-0.000376583
0.000366929
-0.000942847
-0.000264936
0.000224983
-0.00140348
-0.00019259
0.000176939
-0.00140232
-0.000169109
0.000160698
-0.00166424
-0.000192676
6.57088e-05
-0.00227824
-0.000253678
0.000155646
-0.00207397
-0.000304577
0.000126979
-0.00148623
-0.000298314
4.01492e-05
-0.00114512
-0.000265792
0.000104845
-0.00108334
-0.000239366
6.30828e-05
-0.00111152
-0.000229766
9.80544e-06
-0.000715356
-0.000230633
-1.40145e-06
0.000542519
-0.000231352
0.000202291
-0.00167593
-0.000115155
0.00010681
-0.00221825
-0.000103441
3.97213e-05
-0.00174086
-8.98947e-05
3.86795e-05
-0.00157116
-9.36443e-05
-2.25289e-06
-0.0014056
-0.000112446
2.16309e-05
-0.00111123
-0.000123245
4.32214e-05
-0.000474292
-0.000122142
3.93905e-05
1.33615e-05
-0.00011342
0.00012236
0.000196017
-9.92288e-05
4.3829e-05
-0.000360048
-8.12205e-05
3.3713e-06
-0.000558007
-6.23236e-05
-6.88578e-06
-0.000277915
-3.82495e-05
9.59556e-05
-0.000827401
-1.07454e-05
0.00163986
0.00562823
0.00436189
0.00148413
0.00610068
0.00416893
0.000935806
0.00608955
0.00418136
0.00119273
0.00603342
0.0033679
0.00137363
0.00563196
0.00340945
0.00120118
0.00539437
0.0029971
0.00136313
0.00576317
0.00187394
0.00103849
0.00549225
0.00197598
0.000488247
0.00574172
0.00186077
0.00144716
0.0072169
0.00159289
0.00145924
0.00643523
0.000802398
0.000987094
0.00725185
0.000690547
0.00111041
0.00856677
0.000567776
0.00172847
0.00918835
0.00096055
0.00187669
0.00860557
0.00132872
0.00144383
0.008279
0.00048273
0.00126727
0.00868137
0.000690717
0.00151705
0.00893012
0.00104964
0.00214062
0.00843231
0.00104635
0.00244136
0.00645751
0.00107517
0.00206757
0.00542103
0.00108912
0.00175467
0.00665247
0.000363586
0.00153469
0.00697149
0.000759666
0.00191685
0.0061377
0.000972154
0.00174193
0.00526975
0.00106122
0.00207213
0.00336107
0.000828995
0.00217234
0.00229387
0.000788236
0.00177509
0.00261163
0.00061864
0.00209078
0.00416019
0.000326686
0.00186227
0.00380632
0.000360807
0.00195978
0.00258838
0.000416886
0.00179938
0.00184616
0.000270902
0.00184202
0.00173653
7.35329e-05
0.00158947
0.00137804
-3.25996e-05
0.00110558
0.00167945
0.00025236
0.000265439
0.00115877
0.000121412
0.00189069
0.00191525
0.000108887
0.00165355
0.00128396
-6.07969e-06
0.00154296
0.00122886
-0.00026683
0.00147574
0.00117243
-8.70356e-05
0.00117737
0.000626923
-0.000242472
0.00110113
0.000387946
-0.00055247
0.000599729
0.00132926
-0.00051817
0.000144204
0.000744251
-0.000534875
-3.9609e-05
0.00178222
-0.000611447
0.00127122
0.000103012
-0.00025017
0.00119018
0.000385054
-0.000317122
0.00106957
0.000889318
-0.000458405
0.00101345
0.000817651
-0.000580032
0.000550369
0.000669687
-0.000690142
0.000352545
0.000484742
-0.00072543
0.000323197
0.000585
-0.000672629
-0.000159757
0.000753646
-0.000658012
-0.000326333
0.000509156
-0.000564376
-0.000221395
0.000309175
-0.000528127
0.000887571
-0.000906866
-0.000311435
0.000737321
-0.0010462
-0.00035977
0.000597951
-0.00012568
-0.000369598
0.000504534
0.000315025
-0.000488741
0.000274168
-6.42887e-05
-0.000570552
0.000216852
-0.000713006
-0.000566655
0.000124545
-0.000968146
-0.000542716
-0.000123346
-0.000437229
-0.000460353
-0.000153088
-0.000717115
-0.000399565
-0.000187571
-0.00133215
-0.000343936
-7.3999e-05
-0.00172463
-0.000380221
0.000502966
-0.0017919
-0.000368362
0.000444384
-0.00151525
-0.000288196
0.000348761
-0.00116238
-0.000250833
0.000308016
-0.00114719
-0.000304703
0.000136444
-0.00165957
-0.000369542
0.000244753
-0.00204914
-0.000384627
0.000135276
-0.00209749
-0.000368604
-4.66527e-06
-0.00178637
-0.000325926
1.80309e-05
-0.00198627
-0.000284469
-4.24469e-07
-0.00204256
-0.000287224
3.7076e-05
-0.00177874
-0.000357499
9.66506e-05
-0.000614507
-0.000430232
0.000381972
-0.00118178
-0.000270967
0.000208051
-0.00157547
-0.000194189
0.000155126
-0.00154308
-0.000167235
0.000137355
-0.00174595
-0.000186081
5.51285e-05
-0.00228393
-0.000244376
0.000113468
-0.00212296
-0.000296526
9.95584e-05
-0.00155547
-0.000291674
1.41789e-05
-0.00116116
-0.00025706
6.68926e-05
-0.00106441
-0.000229254
2.03052e-05
-0.00110629
-0.000221078
-2.12593e-05
-0.000694786
-0.000225704
-2.00545e-05
0.000555018
-0.000229963
-4.8099e-05
0.000419024
-0.000174237
0.000202521
-0.00186555
-0.000113923
0.000102604
-0.00233254
-0.000103475
2.7826e-05
-0.0017827
-8.94269e-05
3.11779e-05
-0.00160018
-9.20527e-05
-1.13981e-05
-0.00137747
-0.000110374
1.11985e-05
-0.0011137
-0.000121165
3.73984e-05
-0.000515329
-0.000119606
4.03784e-05
-3.73343e-05
-0.000111824
0.000101348
8.00391e-05
-9.87901e-05
2.87791e-05
-0.000407393
-8.06628e-05
3.48483e-06
-0.000580535
-6.21778e-05
-1.39031e-05
-0.000290966
-3.53693e-05
9.57468e-05
-0.000952075
-9.32302e-06
8.93733e-05
-0.00242427
-1.74784e-06
0.00140557
0.0063618
0.00416613
0.000806413
0.00599878
0.00448735
0.000876011
0.006179
0.00447428
0.000982073
0.00614292
0.00420958
0.00114891
0.00619566
0.00428753
0.00109813
0.0061772
0.00413932
0.00130496
0.00608822
0.003313
0.000842303
0.005837
0.00335905
0.000604366
0.00547031
0.00321739
0.00171876
0.00602564
0.00289001
0.00132643
0.00553686
0.00218544
0.00094478
0.00543527
0.00197324
0.000759057
0.00632264
0.00174641
0.00145583
0.00773396
0.00161634
0.00122395
0.00839752
0.00166967
0.00137409
0.00671492
0.000860775
0.000857778
0.00766717
0.000796576
0.00104193
0.0087699
0.000962539
0.00197789
0.00880986
0.001109
0.00187283
0.00852021
0.00161444
0.00180131
0.00853373
0.00161406
0.00152134
0.00824353
0.000562871
0.00116326
0.00869704
0.000838488
0.00160318
0.0089947
0.000939802
0.00146673
0.00833881
0.00141834
0.00172759
0.00630644
0.00154196
0.00174568
0.00538576
0.0015371
0.00188071
0.00440291
0.00103472
0.00173895
0.00658391
0.000607384
0.00161236
0.00662301
0.000961975
0.00206186
0.00578193
0.00101335
0.0022383
0.00448297
0.00132003
0.00183468
0.00338207
0.00104757
0.00162658
0.00203081
0.00105494
0.00141186
0.00225307
0.000840519
0.000813657
0.00232738
0.00032509
0.00198742
0.00370655
0.000562031
0.0019513
0.0032902
0.000545056
0.00161962
0.00231403
0.000558494
0.00171552
0.0015782
0.000445061
0.0013432
0.00159639
0.000245214
0.00117048
0.00121866
0.000163556
0.000784861
0.00115122
0.000310504
0.00018574
0.000775527
0.000594068
-6.24236e-07
0.0022668
2.88975e-05
0.00155291
0.00160989
0.000213562
0.00145492
0.00114871
-2.05999e-05
0.00129449
0.00120251
-0.000204635
0.00118617
0.000744657
-1.17789e-05
0.00108961
6.23661e-05
-6.17207e-05
0.000755282
0.000215237
-0.000472501
0.000475249
0.00110245
-0.000477715
-0.00038378
0.000872504
-0.000422399
-0.000261056
0.00168025
-0.000498186
-0.000310169
0.00171722
-0.000520732
0.00112591
-0.000115
-0.000158428
0.00107375
0.000114949
-0.000316494
0.000940411
0.000649577
-0.000419841
0.000837953
0.000559555
-0.000533729
0.000404117
0.00051729
-0.000557585
0.000186406
0.000463271
-0.000638225
0.00022274
0.000406252
-0.000644877
-0.000312915
0.000813495
-0.00054291
-0.000431232
0.000682795
-0.000553508
-0.000465222
0.000484639
-0.000462189
-0.000521441
2.92124e-05
-0.000477755
0.000806228
-0.00130838
-0.000297768
0.000663711
-0.00123783
-0.000339133
0.00051551
-0.000297835
-0.000354364
0.000417328
0.000319511
-0.000483396
0.000171816
-1.70379e-05
-0.000571364
7.6794e-05
-0.000557818
-0.000557781
-1.16721e-05
-0.000861953
-0.0005259
-0.000197915
-0.000326175
-0.00046052
-0.000267189
-0.000497934
-0.000394314
-0.000308316
-0.00107565
-0.00034817
-0.00020273
-0.00146859
-0.000360172
0.000208918
-0.00193069
-0.000504623
0.000494659
-0.00198468
-0.000370124
0.000407706
-0.00178178
-0.000301479
0.000310138
-0.00135143
-0.00025416
0.0002341
-0.00119105
-0.000303716
0.000102498
-0.00164406
-0.000367587
0.000155358
-0.00207561
-0.000384954
0.000124226
-0.0021483
-0.000358487
-5.58813e-05
-0.00176895
-0.000315964
-3.07256e-05
-0.0019439
-0.00027068
-7.10219e-05
-0.00196729
-0.000268411
-4.37391e-05
-0.00170596
-0.000337528
4.32309e-05
-0.000621693
-0.000413597
-0.000142512
0.000525483
-0.00037782
0.000375728
-0.00141338
-0.000273645
0.000176535
-0.00171639
-0.000203973
0.000103672
-0.00164617
-0.000166944
0.000109123
-0.00181031
-0.00018082
3.03652e-05
-0.00227643
-0.000235342
7.55411e-05
-0.00214253
-0.000289145
8.08796e-05
-0.00160902
-0.000286462
-2.51813e-05
-0.00113908
-0.000248195
2.12388e-05
-0.00102197
-0.000219399
-2.59923e-05
-0.00106817
-0.000212595
-5.36006e-05
-0.000638266
-0.000220513
-4.06401e-05
0.000583518
-0.000227467
-6.68006e-05
0.000523976
-0.000172368
-1.64919e-05
0.000269768
-0.000121952
0.00019899
-0.00205079
-0.000113364
0.000102692
-0.00244573
-0.000103421
2.70561e-05
-0.00182407
-8.91606e-05
1.91266e-05
-0.00161812
-9.06144e-05
-2.23349e-05
-0.0013388
-0.000108392
-3.51033e-07
-0.00110459
-0.000119135
3.06032e-05
-0.000550009
-0.000117088
4.0584e-05
-8.75487e-05
-0.000109976
7.945e-05
-1.28669e-05
-9.83683e-05
1.60824e-05
-0.000442198
-8.00673e-05
-1.95966e-06
-0.000596699
-6.25387e-05
-1.94173e-05
-0.000299952
-3.37747e-05
9.41399e-05
-0.00107497
-6.61564e-06
8.09242e-05
-0.00251169
-2.82496e-06
0.000115548
-0.00368015
-3.02974e-06
0.000722592
0.00580522
0.0045137
0.000631819
0.00636457
0.00422822
0.00068038
0.00630173
0.00440733
0.00080584
0.00602755
0.00454351
0.000985327
0.00628977
0.00454017
0.000918327
0.00637452
0.00451725
0.00106037
0.0062724
0.00423324
0.00065896
0.00633931
0.00424928
0.000583406
0.00629413
0.00419156
0.00146016
0.00604239
0.00420578
0.00118008
0.00607309
0.00353312
0.00087288
0.00590286
0.00331904
0.000668379
0.00588433
0.00303571
0.00129906
0.00693813
0.00246166
0.00086876
0.00703795
0.00301625
0.00122966
0.00550648
0.00254842
0.000664214
0.00534998
0.00246429
0.00102259
0.00638284
0.00193238
0.00190936
0.00778098
0.00176793
0.00255313
0.0076803
0.00165327
0.00108392
0.00925733
0.00191765
0.00142279
0.00667622
0.00104517
0.000719927
0.0078341
0.00113718
0.00107712
0.00913446
0.000958078
0.00143818
0.00842945
0.00137149
0.000923036
0.00858277
0.00185098
0.0011945
0.00875423
0.00194511
0.00135491
0.00718771
0.00195444
0.00104479
0.00856198
0.000724584
0.00100193
0.00891556
0.000954779
0.00130417
0.00893026
0.00166062
0.0025244
0.00772637
0.00126614
0.00141006
0.00644078
0.00170863
0.00120737
0.00542226
0.00192467
0.00158078
0.00419972
0.00157136
0.00103919
0.00409657
0.000817744
0.0013395
0.00680855
0.000887964
0.00186937
0.00629601
0.00101632
0.00166505
0.00528264
0.00141584
0.0016189
0.00416238
0.00143056
0.00165715
0.00313261
0.00125554
0.000797262
0.0022713
0.00118031
0.00110602
0.00186319
0.00112367
0.00018672
0.00277279
0.000394124
-0.000341243
0.00280748
0.000238256
0.00152069
0.00338069
0.000923314
0.00186497
0.0025944
0.000847774
0.00162475
0.00176744
0.000761383
0.00123241
0.00135796
0.000732496
0.00142193
0.00131263
0.000396509
0.000624448
0.00120876
0.000385949
0.000492896
0.000855474
0.00044165
-0.000493491
0.000687287
0.000508455
-0.000436149
0.00253742
0.000498549
-0.000313388
0.00295126
-0.000218334
0.00117167
0.00148026
0.000292076
0.00126096
0.00112295
5.21051e-05
0.00114949
0.00109865
-0.000125818
0.000862306
0.000424109
9.15596e-05
0.000743882
-0.000416043
0.000126865
0.000572932
0.000129811
-0.000362821
0.000194863
0.00108149
-0.000423662
-0.0005872
0.000910744
-0.000241671
-0.000544392
0.00171401
-0.000342995
-0.000530953
0.00171501
-0.000430241
-0.0008673
0.000807285
-0.000343277
0.000954746
-0.000291942
-0.000140914
0.000929012
-2.50215e-05
-0.000283758
0.000815193
0.00047288
-0.00043948
0.0006294
0.000400938
-0.000473296
0.000171403
0.00044336
-0.000459385
5.23154e-05
0.000503413
-0.000573248
-1.45992e-05
0.000369891
-0.000598938
-0.000441225
0.000906921
-0.000494993
-0.000594415
0.000954794
-0.000487683
-0.000661744
0.000759208
-0.000474649
-0.000726125
0.000481834
-0.000391415
-0.000201068
-0.00104095
-0.000499524
0.000682848
-0.00158809
-0.000314566
0.000576132
-0.00138545
-0.000318573
0.000428858
-0.000414919
-0.000340769
0.000314565
0.000344156
-0.000459474
5.94956e-05
0.000102758
-0.000560189
-3.54272e-05
-0.000390068
-0.000548328
-3.24045e-05
-0.000749064
-0.000514039
-0.000307085
-0.000166167
-0.000434703
-0.000340641
-0.000260344
-0.000388196
-0.000419979
-0.000797814
-0.000323198
-0.000315092
-0.00120206
-0.000343344
4.40985e-05
-0.00185382
-0.000437916
-0.000115649
-0.00100191
-0.000464308
0.000462651
-0.00215006
-0.000371779
0.000326343
-0.00200079
-0.000300924
0.000237063
-0.00151882
-0.000267477
0.000152877
-0.00118271
-0.000306257
3.98266e-05
-0.00159106
-0.000366172
8.18879e-05
-0.00206976
-0.000379788
5.77871e-05
-0.0021571
-0.000353056
-0.000135588
-0.00171271
-0.00030432
-0.000102225
-0.00186823
-0.000268166
-0.000142183
-0.00187109
-0.000250683
-0.000102405
-0.00161046
-0.000315109
-1.59477e-05
-0.000588247
-0.000395666
-0.000174034
0.000582922
-0.000363803
-0.000192798
0.00121972
-0.000294399
0.000371443
-0.00164344
-0.000274436
0.000162738
-0.00184025
-0.000209836
0.000120857
-0.00177087
-0.000173075
7.52777e-05
-0.00185619
-0.000177217
-1.39035e-05
-0.00223939
-0.000226283
4.21144e-05
-0.00213839
-0.000281951
6.0392e-05
-0.00164591
-0.000282039
-5.52026e-05
-0.00109056
-0.000239198
-1.32561e-05
-0.00096763
-0.000209826
-5.42145e-05
-0.00101243
-0.000204845
-8.479e-05
-0.000553173
-0.000214857
-5.96285e-05
0.000627334
-0.000224118
-8.08808e-05
0.00064187
-0.000170341
-3.86202e-05
0.000331051
-0.000114107
7.51081e-05
-0.0012209
-6.1019e-05
0.00019714
-0.00223295
-0.000112566
0.000102073
-0.00255721
-0.000103964
1.44319e-05
-0.00185315
-8.87734e-05
8.04298e-06
-0.001626
-8.93225e-05
-3.24604e-05
-0.00129043
-0.000106523
-1.25681e-05
-0.00108322
-0.000117194
2.28374e-05
-0.000577352
-0.00011463
4.04412e-05
-0.000137253
-0.000107825
5.907e-05
-8.40154e-05
-9.78971e-05
6.2663e-06
-0.000467267
-7.95657e-05
-6.70624e-06
-0.000607422
-6.26379e-05
-2.62773e-05
-0.000301475
-3.47384e-05
8.87835e-05
-0.00119201
-5.52123e-06
7.14812e-05
-0.00258424
-5.54924e-06
0.000103234
-0.00378131
-4.8991e-06
7.78282e-05
-0.00392894
-5.64129e-06
0.000193683
0.00541151
0.00473949
0.000576413
0.00575258