/*--------------------------------*- C++ -*----------------------------------*\
  =========                 |
  \\      /  F ield         | OpenFOAM: The Open Source CFD Toolbox
   \\    /   O peration     | Website:  https://openfoam.org
    \\  /    A nd           | Version:  7
     \\/     M anipulation  |
\*---------------------------------------------------------------------------*/
FoamFile
{
    version     2.0;
    format      ascii;
    class       surfaceScalarField;
    location    "8.5";
    object      phi_0;
}
// * * * * * * * * * * * * * * * * * * * * * * * * * * * * * * * * * * * * * //

dimensions      [0 3 -1 0 0 0 0];

internalField   nonuniform List<scalar> 
54451
(
9.9492e-05
0.000340938
-0.00011554
0.000183419
0.00128061
-0.000349229
0.00010591
0.000216435
-0.000115474
9.87297e-05
-0.000840896
-0.000103716
0.000359717
0.00134778
-0.000517066
0.000194832
0.00117848
-0.000346609
0.000154337
0.000504461
-0.00032597
0.000113552
8.73447e-05
-0.000116071
9.33792e-05
-0.000945865
-0.000103884
8.02566e-05
-0.000988758
-0.000102555
0.000638899
0.00356407
-0.000818395
0.000399423
0.00105946
-0.000435021
0.000218793
0.00171349
-0.000489377
0.000217756
0.00104424
-0.000344076
0.000175506
0.000381904
-0.000306179
0.000197118
0.000121333
-0.000307245
0.00012919
-5.37551e-05
-0.000117473
8.93897e-05
-0.00104741
-0.000103913
8.01899e-05
-0.00107218
-0.000100656
9.1902e-05
-0.00106225
-0.000114078
0.000930378
0.00540113
-0.000439751
0.000683866
0.00338081
-0.000787534
0.000487812
0.00246718
-0.000680674
0.000458632
0.000735468
-0.000371546
0.000344581
0.00153377
-0.000424375
0.000490046
0.000946368
-0.000442269
0.000255022
0.000865492
-0.000333323
0.000185355
0.000226011
-0.000284148
0.00021161
-3.0175e-05
-0.000286091
0.000229773
-0.000726386
-0.000302607
0.00014514
-0.000206484
-0.000119203
9.26179e-05
-0.00115372
-0.000103781
8.2633e-05
-0.00115979
-9.89323e-05
8.63165e-05
-0.00113801
-0.000111212
5.42304e-05
-0.00130796
-0.000130679
0.00140259
0.00543914
-0.000738241
0.00112234
0.00513165
-0.000518514
0.00109921
0.00488462
-0.000768374
0.000780816
0.00303762
-0.00072473
0.000588829
0.0020388
-0.000603403
0.000814015
0.00213833
-0.0004724
0.000546321
0.000388545
-0.000345121
0.000495345
0.00122129
-0.000369053
0.000495535
0.000639123
-0.000401055
0.000518952
0.000753177
-0.000413991
0.00028411
0.000650292
-0.000315732
0.000197821
4.5779e-05
-0.000258294
0.000234907
-0.000204379
-0.000262219
0.000224704
-0.000863241
-0.000287623
0.000234688
-0.00170006
-0.000326865
0.000165317
-0.000375115
-0.000120259
0.000102281
-0.00127151
-0.0001037
8.25491e-05
-0.00124866
-9.74584e-05
7.86776e-05
-0.00120703
-0.000108585
5.10126e-05
-0.0013419
-0.000128282
6.55481e-05
-0.000859376
-0.000136197
0.00169349
0.0061887
-0.000611099
0.00159989
0.00522204
-0.000909404
0.00159583
0.00446117
-0.000596908
0.00134364
0.00463445
-0.000551171
0.00137848
0.00419169
-0.000615225
0.00135647
0.00359533
-0.000955051
0.000811466
0.0026981
-0.000575535
0.000790475
0.00152446
-0.000505519
0.000856891
0.00161855
-0.000444976
0.000840114
0.00147914
-0.000508704
0.000554617
6.83465e-05
-0.000320936
0.000596083
0.000813023
-0.000335119
0.000501465
0.000368345
-0.000364833
0.000545971
0.000405963
-0.000375108
0.000597903
-0.000499998
-0.000446151
0.000310956
0.000414312
-0.000294849
0.000226418
-0.000163252
-0.000230839
0.000243832
-0.000386915
-0.000237041
0.00021626
-0.000990363
-0.000272679
0.000230435
-0.00185248
-0.000314622
0.000275624
-0.0013298
-0.000365811
0.000179672
-0.000553843
-0.000121121
0.000112684
-0.00140083
-0.000103619
7.86456e-05
-0.0013349
-9.61022e-05
7.07012e-05
-0.00126904
-0.000106155
4.86947e-05
-0.00137315
-0.000126031
6.20486e-05
-0.000914195
-0.000135512
7.06427e-05
-0.000125792
-0.000126873
0.00145136
0.00716524
-0.000494355
0.0017502
0.00621281
-0.000724763
0.00188736
0.00594998
-0.00096226
0.00165545
0.00489903
-0.000818232
0.00190181
0.00369853
-0.0006701
0.00195265
0.00393431
-0.000491377
0.00146185
0.00385575
-0.000460652
0.00152881
0.00350935
-0.000607166
0.00135441
0.00324846
-0.000765877
0.00130729
0.0026734
-0.000915079
0.000830904
0.00229311
-0.000453181
0.00102713
0.000964927
-0.000447052
0.000832234
0.00124707
-0.000464811
0.000846409
0.00122317
-0.000489448
0.000971409
0.000734258
-0.000562401
0.000553054
-0.000231601
-0.000307368
0.000627554
0.000396339
-0.000305389
0.000478382
0.00013207
-0.000333394
0.000547746
6.39039e-05
-0.00035426
0.000577295
-0.000805893
-0.000416073
0.000539465
-0.00114002
-0.000443316
0.000326552
0.000170297
-0.000276127
0.00024872
-0.000386834
-0.000207302
0.000244708
-0.000572713
-0.000211104
0.000211584
-0.00111202
-0.000256266
0.000223875
-0.00199619
-0.000304153
0.000261811
-0.0014896
-0.000354578
0.000261149
-0.000772089
-0.00034093
0.000187936
-0.000737091
-0.000121248
0.000121762
-0.00154017
-0.000103542
7.277e-05
-0.0014165
-9.47983e-05
6.77326e-05
-0.00132903
-0.000103846
4.51509e-05
-0.00140074
-0.000123719
5.86199e-05
-0.000964974
-0.000133871
6.61614e-05
-0.000198177
-0.000129288
6.3105e-05
0.000307393
-0.000110155
0.00119381
0.00729429
3.39239e-05
0.00168733
0.00745708
-0.000563811
0.00138685
0.00718694
-0.000486737
0.00182751
0.00597562
-0.000704578
0.00207036
0.00563791
-0.000581239
0.00246174
0.00472112
-0.000705001
0.00189556
0.00430898
-0.000579411
0.00203766
0.00286815
-0.000496715
0.00195529
0.00312084
-0.000457507
0.00206304
0.00384534
-0.000693099
0.00162118
0.00288562
-0.000500558
0.00165687
0.00293272
-0.000513767
0.00131447
0.00283262
-0.000673557
0.00129568
0.00231793
-0.00085968
0.00123547
0.00165457
-0.000819789
0.000859567
0.00179562
-0.000431139
0.00108814
0.000499145
-0.000447988
0.00080416
0.000964318
-0.000490076
0.000830289
0.000968098
-0.000492283
0.000910323
0.000476429
-0.000564647
0.000722076
-0.00077023
-0.000603387
0.000574227
-0.000534718
-0.000306768
0.000601591
1.89589e-05
-0.000282859
0.000454927
-7.48419e-05
-0.000308697
0.000548256
-0.000268659
-0.000337502
0.000542913
-0.00108161
-0.000397584
0.000490878
-0.00135895
-0.000426209
0.000444801
-0.00162849
-0.000431596
0.000328091
-6.59491e-05
-0.000263853
0.000262335
-0.00061296
-0.000190574
0.000240106
-0.000756071
-0.00019128
0.000215314
-0.00123253
-0.000238175
0.000206547
-0.0021201
-0.000293749
0.000244405
-0.00163629
-0.000343245
0.0002426
-0.000970009
-0.000333097
0.000178998
-0.000779347
-0.000295371
0.000197497
-0.00092681
-0.0001203
0.000128892
-0.00168697
-0.000103344
6.65626e-05
-0.00149302
-9.35774e-05
6.62311e-05
-0.00138843
-0.000101622
3.78214e-05
-0.00142104
-0.000121364
5.30771e-05
-0.00100987
-0.000131903
6.16074e-05
-0.00026372
-0.000129935
5.74442e-05
0.000233632
-0.000112971
0.000129903
0.000802082
-9.98401e-05
0.00152041
0.00586015
0.000979567
0.00168897
0.00743869
-0.000216405
0.000764279
0.00792775
0.000194774
0.00150815
0.00750072
-0.000113922
0.00180383
0.00734736
-0.0004577
0.00239046
0.00709582
-0.00045883
0.00194265
0.00568312
-0.000566989
0.00222989
0.00513883
-0.000397731
0.00225528
0.00417559
-0.000335697
0.00263054
0.00390694
-0.000382475
0.0020456
0.00365498
-0.000202597
0.00207285
0.00227023
-0.000397464
0.00180698
0.00249239
-0.000360775
0.00202852
0.00326786
-0.000612868
0.00185583
0.00276118
-0.000635964
0.00173181
0.00186722
-0.000436872
0.00161914
0.0023117
-0.000410535
0.00127896
0.00245647
-0.000612416
0.00125902
0.00200846
-0.000792813
0.00116689
0.00131837
-0.000780052
0.000941391
0.00105709
-0.000757455
0.000915388
0.00123872
-0.000403992
0.00103146
5.39411e-05
-0.000415803
0.000733932
0.000750978
-0.000513652
0.000774976
0.000750721
-0.000499419
0.000826511
0.000250514
-0.000549966
0.000619773
-0.000863194
-0.000600578
0.000415301
-0.000993061
-0.000546384
0.000596373
-0.000858785
-0.000317897
0.000563085
-0.00031286
-0.000275699
0.000470243
-0.000298471
-0.000289367
0.000514608
-0.000551481
-0.000325168
0.000481827
-0.00130867
-0.000385721
0.00046353
-0.00156275
-0.000412907
0.000413232
-0.00180187
-0.00042346
0.00021657
-0.0016243
-0.000372299
0.000327268
-0.00028339
-0.000259599
0.000269372
-0.000834556
-0.000182738
0.000230589
-0.00093191
-0.000178761
0.000213844
-0.00134974
-0.000221685
0.000172154
-0.00220904
-0.000283569
0.000231214
-0.00177585
-0.000332328
0.000218226
-0.0011453
-0.000324572
0.000144972
-0.000909649
-0.000290322
0.000221585
-0.000972378
-0.000267065
0.000198549
-0.00111526
-0.000119467
0.000128036
-0.0018321
-0.000103204
6.1228e-05
-0.00156516
-9.24371e-05
6.12621e-05
-0.0014438
-9.94681e-05
2.74755e-05
-0.00143105
-0.000119086
4.70619e-05
-0.00104842
-0.000129872
5.77886e-05
-0.000324497
-0.000128915
5.03772e-05
0.000168433
-0.000115113
0.000139026
0.000649817
-9.9732e-05
9.51113e-05
-0.000122753
-8.28212e-05
0.00153098
0.00552325
0.0022246
0.00162627
0.00601996
0.000901975
0.000973823
0.00632049
0.000799696
0.00121651
0.00777095
-1.49595e-05
0.0012057
0.00820587
0.000103592
0.00103357
0.00866334
0.000467035
0.00155
0.00749166
8.51945e-05
0.00188106
0.00755853
2.37394e-05
0.0018344
0.00727292
-0.00021392
0.00279146
0.00601829
-0.000304266
0.0019068
0.00546452
-0.000381425
0.00206516
0.00469838
-0.000118844
0.00221819
0.00355438
-0.000187734
0.00258957
0.00308877
-7.85794e-05
0.00248516
0.00286047
-0.000261672
0.00203347
0.00321634
-0.000189525
0.00186864
0.00201008
-0.000191948
0.00176341
0.00200747
-0.000396994
0.00191568
0.00271124
-0.000460808
0.001768
0.0020425
-0.000495292
0.00134431
0.00186008
-0.00059411
0.00160134
0.00109239
-0.000542055
0.00148579
0.00183888
-0.000418389
0.001314
0.00202668
-0.000560809
0.00118304
0.00172916
-0.000741183
0.00105103
0.00109368
-0.000792641
0.000795833
0.000821334
-0.000720359
0.000590013
0.00101226
-0.000729526
0.00101584
0.000630526
-0.000380455
0.000965765
-0.000325844
-0.000426887
0.00071269
0.000574965
-0.000482237
0.00069003
0.000573387
-0.00051174
0.000701062
9.88817e-05
-0.000567021
0.000555076
-0.000913513
-0.000591193
0.000387582
-0.00101978
-0.000548206
0.000118158
-0.000641491
-0.000432064
0.000568023
-0.00114972
-0.000352263
0.000527445
-0.000612125
-0.000276705
0.000455317
-0.000524063
-0.000274835
0.000440306
-0.000747502
-0.000319809
0.000398164
-0.00147805
-0.000381798
0.000409885
-0.00172465
-0.00040249
0.00033014
-0.0019181
-0.000408595
0.000157818
-0.00169077
-0.000369832
0.000236192
-0.00198808
-0.000323363
0.000360258
-0.000520633
-0.000264447
0.000262717
-0.0010458
-0.000183037
0.000216585
-0.00109773
-0.000172271
0.000204285
-0.00146263
-0.000208892
0.000128217
-0.0022582
-0.000273262
0.000206235
-0.00189688
-0.000321716
0.000186647
-0.00129144
-0.000315046
0.000122886
-0.00102299
-0.000283738
0.000187605
-0.00105256
-0.000258723
0.000138583
-0.00104988
-0.000246738
0.000201339
-0.00130511
-0.000118169
0.000119841
-0.00196822
-0.000103184
5.45929e-05
-0.00163152
-9.14392e-05
5.32674e-05
-0.00149209
-9.74167e-05
1.89568e-05
-0.00143259
-0.000116893
3.86672e-05
-0.00107845
-0.000127722
5.2647e-05
-0.000379939
-0.000127077
4.29547e-05
0.000112162
-0.000115599
0.000146733
0.000487821
-9.98495e-05
7.86654e-05
-0.000218696
-8.2455e-05
1.52348e-05
-0.000507533
-6.16098e-05
0.00132757
0.00584127
0.0034272
0.00191118
0.00544325
0.00200383
0.00113511
0.00549313
0.00206383
0.00147319
0.00605248
0.000761288
0.00108562
0.00655127
0.000791278
0.000510185
0.0077566
0.000679866
0.00136345
0.00797477
0.000166027
0.00128879
0.00844317
0.000340017
0.000913864
0.00908572
0.00060175
0.00237227
0.00814652
0.000338358
0.00185865
0.00710752
0.000106132
0.0017045
0.00765812
0.000346258
0.00219988
0.00708565
0.000229319
0.00259296
0.00571165
8.93353e-05
0.00243477
0.00422469
0.00023656
0.00189332
0.00511194
-6.9461e-05
0.00183349
0.0044787
-0.000126604
0.00175343
0.00335679
8.87127e-05
0.0022829
0.0025633
-2.94885e-05
0.00219285
0.0023274
2.96486e-05
0.00170918
0.00226481
-0.000195313
0.00182444
0.00288524
6.37642e-05
0.00174223
0.00168868
-0.000124558
0.00168189
0.00164498
-0.00019734
0.00177419
0.00211224
-0.000389147
0.00159846
0.00148441
-0.000450144
0.00123709
0.00135114
-0.000427608
0.00107866
0.00158382
-0.000693743
0.0014068
0.00071499
-0.000436331
0.00136416
0.00120006
-0.000301632
0.0012352
0.00155584
-0.000470057
0.00110669
0.00145302
-0.000701331
0.000927448
0.000919371
-0.000793261
0.000636496
0.000679412
-0.00073214
0.000507506
0.000902782
-0.000730808
7.0651e-05
0.000698063
-0.000680943
0.00104298
9.92118e-05
-0.000332966
0.000865289
-0.000637
-0.000407143
0.000706401
0.000320578
-0.000423584
0.000654452
0.000409982
-0.000532977
0.000586596
-2.79199e-05
-0.00057337
0.000400463
-0.00088044
-0.000590673
0.000285581
-0.00101475
-0.000551665
3.43757e-05
-0.000617382
-0.000448872
7.64828e-05
-0.00105243
-0.000387322
0.000563386
-0.00138602
-0.000354532
0.0004981
-0.000928852
-0.000270919
0.000430657
-0.000755098
-0.000259742
0.000416966
-0.000920109
-0.000314908
0.000304748
-0.00159685
-0.000377539
0.000361146
-0.0018618
-0.00039956
0.000271571
-0.00201198
-0.000393527
0.000129684
-0.00174814
-0.00035802
0.000169418
-0.00202647
-0.000313256
0.000170375
-0.00211203
-0.000323181
0.000343962
-0.000730499
-0.000264205
0.0002259
-0.00122752
-0.000188782
0.000199141
-0.00125573
-0.000169584
0.000189881
-0.00157215
-0.000199365
9.48091e-05
-0.0022796
-0.000263346
0.000178181
-0.00199706
-0.000312591
0.000150831
-0.00140545
-0.000305895
8.90549e-05
-0.001109
-0.000275143
0.00014488
-0.00108498
-0.000249462
9.8906e-05
-0.00109071
-0.000238142
3.57191e-05
-0.000714818
-0.000234903
0.00020382
-0.00149644
-0.000116766
0.00011411
-0.00209713
-0.000103369
4.71649e-05
-0.00169129
-9.05766e-05
4.41779e-05
-0.00153219
-9.55236e-05
8.16611e-06
-0.00142347
-0.000114699
3.00134e-05
-0.00109982
-0.000125541
4.75888e-05
-0.000430514
-0.000124736
3.96731e-05
6.02521e-05
-0.00011484
0.000139333
0.000332637
-9.97484e-05
6.12323e-05
-0.000297682
-8.20954e-05
1.18302e-05
-0.00053983
-6.19876e-05
8.56065e-07
-0.000258796
-4.0167e-05
0.00147802
0.00575522
0.00411244
0.00198918
0.00581112
0.00329148
0.00102184
0.00584931
0.00338501
0.00139791
0.00560955
0.00204139
0.00124955
0.00529658
0.00203645
0.000854859
0.00564147
0.00176688
0.00145367
0.00618375
0.000648836
0.00116637
0.00704212
0.00039286
0.000432414
0.00824969
0.000779643
0.00159143
0.00903018
0.000816461
0.00168422
0.00814007
0.000270733
0.00123527
0.00860225
0.000476169
0.00161694
0.00919519
0.000813484
0.0020724
0.00854971
0.000719127
0.00217479
0.00686492
0.000577817
0.00173943
0.00678768
0.000312699
0.0017705
0.00725351
0.000573736
0.00183449
0.00666791
0.000682944
0.0022527
0.00529617
0.000674998
0.002405
0.00358409
0.000517784
0.00213023
0.00299721
0.000630134
0.00195273
0.00468792
0.000249341
0.0017055
0.00414995
0.000296025
0.00179639
0.00304544
7.02409e-05
0.00210933
0.00214106
0.00017581
0.00200938
0.00197556
-8.85674e-05
0.00172507
0.00181868
-1.21962e-05
0.00129878
0.0021647
-5.75792e-05
0.0018138
0.00242182
0.000132092
0.00164736
0.00150356
-3.43042e-05
0.00161984
0.0013281
-0.000192324
0.00168769
0.00154609
-0.000212186
0.00147822
0.000949175
-0.000404684
0.00118259
0.000835014
-0.00048011
0.000862728
0.00143322
-0.00063223
8.55652e-05
0.000997728
-0.000576613
0.00135891
0.000363442
-0.000263992
0.00127597
0.00072089
-0.000367842
0.00118355
0.00119258
-0.000415522
0.00117178
0.00107168
-0.000606044
0.000798285
0.000745828
-0.000739477
0.000486786
0.000537027
-0.000737199
0.000442894
0.000748902
-0.000735573
-2.46138e-05
0.000702164
-0.000675919
-0.000152756
0.000337688
-0.000614273
0.000974091
-0.000413665
-0.000303902
0.000776795
-0.000850737
-0.000397924
0.000645413
8.06866e-05
-0.000382007
0.000576151
0.000324925
-0.000497712
0.000382706
-7.04424e-05
-0.000568413
0.000304441
-0.000815141
-0.000581963
0.000213983
-0.00100108
-0.000546753
-3.40468e-05
-0.000549686
-0.000455631
-3.87291e-05
-0.000896404
-0.00039675
-2.2746e-05
-0.00154569
-0.000343755
0.000494333
-0.00159554
-0.00036734
0.000462398
-0.00123603
-0.000283851
0.000394363
-0.000970592
-0.000250648
0.000378223
-0.00106185
-0.000306343
0.000204315
-0.00165365
-0.000367614
0.000314519
-0.00198102
-0.000394663
0.000188242
-0.00206843
-0.000380522
6.84497e-05
-0.00177891
-0.000342158
7.92274e-05
-0.00201955
-0.000299289
7.62193e-05
-0.00209729
-0.000305314
9.95743e-05
-0.00180907
-0.000375282
0.000364396
-0.00095369
-0.000264989
0.000223894
-0.00140894
-0.000192574
0.000175988
-0.00140446
-0.000168878
0.000159655
-0.00166477
-0.00019244
6.37668e-05
-0.00228113
-0.000253441
0.000153813
-0.00207999
-0.000304222
0.000125524
-0.00149739
-0.000298587
3.88181e-05
-0.001148
-0.000266038
0.000102938
-0.00108436
-0.000239371
6.28447e-05
-0.00111209
-0.000229689
9.15897e-06
-0.000719717
-0.000230572
-2.26341e-06
0.000544691
-0.000231672
0.000202024
-0.00168536
-0.000115471
0.000107232
-0.00221763
-0.000103501
3.93522e-05
-0.001744
-9.00085e-05
3.80347e-05
-0.00156702
-9.37755e-05
-2.73248e-06
-0.00140368
-0.000112584
2.07924e-05
-0.00111189
-0.000123413
4.27299e-05
-0.000476587
-0.000122198
3.88688e-05
1.0114e-05
-0.000113467
0.000121726
0.000195422
-9.93503e-05
4.4633e-05
-0.000360749
-8.13147e-05
3.50863e-06
-0.00056304
-6.2394e-05
-6.89527e-06
-0.000275282
-3.86067e-05
9.45381e-05
-0.000819123
-1.09543e-05
0.00162929
0.00563683
0.00436359
0.00148079
0.00610627
0.0041703
0.000938045
0.00609832
0.0041818
0.00117632
0.00603713
0.00337272
0.0013409
0.0056346
0.00341484
0.00119696
0.00540282
0.00300073
0.00135674
0.00575459
0.00188216
0.00103676
0.0054913
0.00197628
0.000488881
0.00576106
0.00186039
0.0014564
0.00722744
0.00159162
0.00144262
0.00643557
0.00080953
0.000975279
0.00725371
0.000697232
0.00111953
0.00856685
0.000573104
0.00174022
0.00917662
0.000965382
0.00186431
0.00860538
0.00133268
0.00144223
0.00828357
0.000485338
0.00126234
0.00868261
0.000698532
0.00152903
0.00892197
0.00105484
0.00213777
0.00842313
0.001055
0.00242826
0.00645977
0.00110102
0.00207283
0.00541606
0.00110907
0.00174249
0.00667
0.000366293
0.00153652
0.0069699
0.000765281
0.00192331
0.0061388
0.000975939
0.00172965
0.00528191
0.00107688
0.00207054
0.00336103
0.000836899
0.00216805
0.00226998
0.000802029
0.00176357
0.00259148
0.000631708
0.00209355
0.00414979
0.000328539
0.0018748
0.00380661
0.000365242
0.00196191
0.00257237
0.000427019
0.00179173
0.001827
0.000280265
0.00182656
0.00171825
8.47775e-05
0.00157694
0.00135817
-2.23995e-05
0.00109427
0.00165623
0.000264738
0.000253517
0.00113576
0.000130577
0.00188875
0.00190245
0.000116463
0.00164945
0.00126419
-2.0207e-06
0.0015346
0.00120606
-0.000263315
0.00146511
0.00114281
-8.23709e-05
0.00116646
0.000605064
-0.000236254
0.00109479
0.000372006
-0.000549675
0.000590652
0.00132024
-0.000514895
0.000134322
0.000742068
-0.000535506
-4.90721e-05
0.00177872
-0.000609222
0.00126699
8.5573e-05
-0.000247417
0.00118602
0.000362433
-0.000314756
0.00106299
0.000864163
-0.000456999
0.00100678
0.000803228
-0.000577701
0.000545424
0.000663939
-0.000686873
0.000346698
0.000480038
-0.000724746
0.000317231
0.000580758
-0.000672303
-0.00016737
0.000757963
-0.000658048
-0.000330148
0.000516613
-0.000563425
-0.000228432
0.000314286
-0.000525349
0.000883959
-0.000920899
-0.000311715
0.000733993
-0.0010668
-0.000359439
0.00059431
-0.000147765
-0.000369418
0.000500324
0.000308784
-0.000487966
0.000270935
-6.45496e-05
-0.000570224
0.000212586
-0.000715044
-0.000566576
0.000121003
-0.000973275
-0.000542532
-0.000127734
-0.000440477
-0.000459778
-0.000156974
-0.000717234
-0.0003986
-0.000192777
-0.00133214
-0.000341307
-7.92008e-05
-0.00172726
-0.000377076
0.000499626
-0.00180813
-0.00036787
0.000441725
-0.00153264
-0.000288561
0.000346197
-0.00117397
-0.000250676
0.000305556
-0.0011542
-0.000304194
0.000133326
-0.00166117
-0.000368377
0.000241617
-0.00205246
-0.000383976
0.000132527
-0.00210147
-0.000368631
-6.96177e-06
-0.00178752
-0.000326134
1.44934e-05
-0.00198895
-0.000284311
-1.86437e-06
-0.00204544
-0.000286425
3.40902e-05
-0.00178309
-0.000356224
9.53297e-05
-0.000617841
-0.000429639
0.000380141
-0.00119135
-0.00027103
0.000207975
-0.00158073
-0.000193945
0.00015396
-0.00154461
-0.000167033
0.000135562
-0.00174528
-0.000185893
5.28166e-05
-0.00228497
-0.000244142
0.000111713
-0.00212813
-0.000296216
9.78942e-05
-0.00156473
-0.000292042
1.28809e-05
-0.00116326
-0.000257339
6.5081e-05
-0.00106447
-0.000229282
2.03856e-05
-0.00110619
-0.00022102
-2.1877e-05
-0.000698409
-0.000225611
-2.06237e-05
0.00055811
-0.000230263
-4.91295e-05
0.000422688
-0.00017493
0.000201997
-0.00187443
-0.000114108
0.000101412
-0.00233089
-0.000103619
2.71559e-05
-0.0017851
-8.95533e-05
3.06558e-05
-0.00159551
-9.21757e-05
-1.18509e-05
-0.00137509
-0.000110513
1.03797e-05
-0.00111351
-0.00012135
3.69089e-05
-0.000517222
-0.000119687
3.98785e-05
-4.01037e-05
-0.000111859
0.000100741
8.01089e-05
-9.88953e-05
2.95024e-05
-0.000408835
-8.07668e-05
3.65316e-06
-0.000585677
-6.23318e-05
-1.37949e-05
-0.000287951
-3.593e-05
9.45756e-05
-0.000942776
-9.52904e-06
8.91396e-05
-0.00241738
-1.48233e-06
0.00139646
0.00637606
0.00416646
0.000802892
0.00600995
0.00448882
0.000879149
0.00618988
0.0044709
0.000965238
0.00615082
0.00421125
0.00111915
0.00620333
0.00428704
0.00109564
0.00617782
0.00414138
0.00129683
0.00608868
0.00332153
0.000842419
0.00584185
0.00335982
0.000606679
0.00548725
0.00321262
0.00172931
0.00603959
0.00288462
0.00130962
0.00552174
0.0022085
0.000934022
0.00542872
0.00198599
0.000775133
0.00633633
0.00174541
0.00147944
0.00773764
0.00161098
0.00122906
0.00839358
0.00166517
0.00136787
0.00671314
0.000869665
0.000850387
0.00766695
0.000808252
0.00105846
0.00877485
0.000959804
0.00198422
0.00879154
0.00111174
0.0018538
0.00851849
0.00162674
0.00178049
0.00855779
0.00162662
0.00148318
0.00826408
0.000569776
0.00115719
0.00870523
0.000842054
0.00160285
0.00897864
0.000962325
0.00145675
0.00832173
0.00142914
0.00171663
0.00631032
0.00155835
0.00172496
0.0054031
0.00155707
0.00186143
0.00440376
0.00106727
0.00173048
0.00660919
0.000616653
0.00162091
0.00662312
0.000966975
0.00205913
0.0057837
0.00102315
0.00223452
0.00448567
0.0013294
0.00182132
0.00338179
0.00106136
0.00159411
0.00202449
0.00106521
0.00139454
0.00223906
0.000854183
0.00079513
0.00232531
0.000331643
0.00197768
0.00369532
0.000575229
0.00195739
0.00327382
0.000553385
0.00160795
0.00229616
0.000568108
0.00171033
0.00155215
0.000456641
0.00132834
0.00157998
0.000256662
0.00115421
0.00120887
0.000174652
0.000773817
0.00113514
0.000315524
0.000167604
0.000760496
0.000606721
-1.64614e-05
0.00227009
4.3644e-05
0.00153078
0.00161147
0.000219339
0.00144231
0.0011381
-1.37464e-05
0.00128347
0.00118086
-0.000197302
0.00117387
0.00072016
-7.75538e-06
0.00108053
4.37701e-05
-5.61781e-05
0.000742952
0.000209091
-0.000469593
0.000468067
0.00109573
-0.000475997
-0.000394745
0.000874405
-0.000419857
-0.000269869
0.00168024
-0.000497306
-0.000315211
0.0017167
-0.000518701
0.00112046
-0.000129998
-0.000155565
0.00106794
9.53275e-05
-0.000314257
0.000932284
0.000630383
-0.000418951
0.000829321
0.000549393
-0.000532161
0.000398176
0.000513203
-0.000554207
0.000180031
0.000462778
-0.000637058
0.000216869
0.000405761
-0.000645616
-0.000318989
0.000819659
-0.000542744
-0.000435272
0.000691203
-0.000554341
-0.000473781
0.000491357
-0.000459491
-0.000528149
4.457e-05
-0.000475588
0.000802885
-0.00132202
-0.000296493
0.000659332
-0.00125751
-0.000338607
0.000511736
-0.000318802
-0.00035394
0.00041263
0.000314795
-0.000482503
0.00016816
-1.63052e-05
-0.000571045
7.20416e-05
-0.000558242
-0.000557451
-1.62559e-05
-0.000865604
-0.000525464
-0.000201129
-0.000328661
-0.000460181
-0.000270868
-0.000498144
-0.000393507
-0.000312201
-0.00107438
-0.00034602
-0.000206825
-0.00146989
-0.000357763
0.000206976
-0.00193063
-0.000503602
0.000492023
-0.00199994
-0.000369699
0.000406412
-0.0017974
-0.000301545
0.000307727
-0.00136256
-0.000253738
0.0002314
-0.00119759
-0.000303132
9.87351e-05
-0.00164471
-0.000366574
0.000152987
-0.00207803
-0.000384088
0.00012145
-0.00215062
-0.000358378
-5.81053e-05
-0.00176919
-0.000315973
-3.32168e-05
-0.00194664
-0.000270146
-7.24638e-05
-0.00196929
-0.000267618
-4.55393e-05
-0.00170943
-0.000336431
4.19334e-05
-0.000623628
-0.000412994
-0.000143799
0.000529419
-0.000377824
0.000373477
-0.0014216
-0.000273753
0.000175353
-0.00172209
-0.000203604
0.000101962
-0.00164673
-0.000166629
0.000107579
-0.00180866
-0.000180574
2.88035e-05
-0.00227638
-0.000235143
7.34565e-05
-0.00214647
-0.000288885
7.89104e-05
-0.00161613
-0.000286822
-2.61095e-05
-0.00114079
-0.000248521
1.94845e-05
-0.0010211
-0.000219454
-2.61968e-05
-0.00106725
-0.000212525
-5.43094e-05
-0.000641081
-0.000220385
-4.10988e-05
0.000587557
-0.000227754
-6.77912e-05
0.000527809
-0.000173017
-1.73322e-05
0.000281777
-0.000122748
0.000197915
-0.00205879
-0.000113445
0.000101024
-0.00244252
-0.000103508
2.65902e-05
-0.00182602
-8.92894e-05
1.8683e-05
-0.00161302
-9.07299e-05
-2.27876e-05
-0.00133595
-0.000108531
-1.01986e-06
-0.00110367
-0.000119333
3.01208e-05
-0.000551496
-0.000117197
4.00858e-05
-8.98702e-05
-0.000110006
7.89363e-05
-1.22202e-05
-9.84661e-05
1.67075e-05
-0.000444253
-8.0185e-05
-1.67404e-06
-0.00060207
-6.26989e-05
-1.97211e-05
-0.000296649
-3.39127e-05
9.3025e-05
-0.0010647
-7.03398e-06
8.07297e-05
-0.00250512
-2.52038e-06
0.000115994
-0.00368185
-2.28091e-06
0.000716251
0.00580687
0.00451585
0.000632613
0.00636902
0.00423364
0.000685219
0.00629638
0.00441072
0.000800601
0.00603526
0.00454026
0.000973945
0.00628769
0.00453621
0.000916028
0.00637436
0.004516
0.00105135
0.00627967
0.00423644
0.000664096
0.00634382
0.00424908
0.000578141
0.00629908
0.00419432
0.00146694
0.00604962
0.00420579
0.00115819
0.00607479
0.00355024
0.000865469
0.00590272
0.00332922
0.000675402
0.0059044
0.0030424
0.00130581
0.00695428
0.00247156
0.000877034
0.0070412
0.00300933
0.0012112
0.00551156
0.0025671
0.00064942
0.00535925
0.00247893
0.00102592
0.00640095
0.00195391
0.00191864
0.00777156
0.00177707
0.00252924
0.00767078
0.00165834
0.00106846
0.00926387
0.00191809
0.00138668
0.0066712
0.00106522
0.000709001
0.00782855
0.00115626
0.00108213
0.00913063
0.000973185
0.00141105
0.00842368
0.00137336
0.000900823
0.0085891
0.00185693
0.00117421
0.00878121
0.00195408
0.00134318
0.00720572
0.00196965
0.00104396
0.00856962
0.000728264
0.0010005
0.00892929
0.000966121
0.00129606
0.00892379
0.00165998
0.00250526
0.00772019
0.00129311
0.00140402
0.00644265
0.00171411
0.0011715
0.0054453
0.00193876
0.00155587
0.00420972
0.00158978
0.00100366
0.00411916
0.00084381
0.00132832
0.00684183
0.000896693
0.00188567
0.00628978
0.00102171
0.00164936
0.00527502
0.00143425
0.00162009
0.00415948
0.00143959
0.00164209
0.00313213
0.0012653
0.000759175
0.00229032
0.00119057
0.00108265
0.00186428
0.00113116
0.000155631
0.0027872
0.000404263
-0.00035931
0.00282572
0.000244115
0.0014944
0.00337709
0.00094075
0.00185583
0.00257101
0.000864529
0.00162041
0.00174447
0.000768132
0.00121259
0.00134146
0.000740075
0.00140841
0.00130341
0.000405317
0.000604123
0.00120877
0.000395591
0.000477748
0.000852688
0.00044742
-0.000513868
0.000684757
0.000510385
-0.000456552
0.00255383
0.00050967
-0.000320482
0.00295812
-0.000205207
0.0011656
0.00148137
0.000299042
0.00125262
0.00111347
5.9292e-05
0.00114064
0.00107892
-0.000120159
0.000850902
0.000403746
9.75321e-05
0.000730834
-0.000426897
0.000130253
0.000564945
0.000127232
-0.000359233
0.000185137
0.00107934
-0.000421468
-0.000597633
0.00091741
-0.000240359
-0.000555804
0.00171948
-0.000338563
-0.000542405
0.00171447
-0.000426457
-0.000874496
0.000821638
-0.000338978
0.000949635
-0.000303722
-0.000139819
0.00092214
-4.19049e-05
-0.00028114
0.000806862
0.000458779
-0.000437779
0.000620396
0.0003951
-0.000472424
0.000163225
0.000443222
-0.000457245
4.56193e-05
0.000507098
-0.000572104
-2.24163e-05
0.000373421
-0.000598557
-0.000446713
0.000916338
-0.000496711
-0.000598614
0.000962099
-0.000485894
-0.000671104
0.000769477
-0.000473557
-0.000731017
0.00049922
-0.00038995
-0.000203951
-0.00103586
-0.000499864
0.000678881
-0.00160004
-0.000313508
0.000572312
-0.00140204
-0.000317865
0.000424573
-0.000434325
-0.000339931
0.000309504
0.000341037
-0.000458286
5.59025e-05
0.000103845
-0.00055982
-4.0065e-05
-0.000388278
-0.000547957
-3.61666e-05
-0.000751797
-0.000513641
-0.000310866
-0.000167494
-0.00043387
-0.000343488
-0.000260453
-0.0003876
-0.000424567
-0.000794665
-0.000321123
-0.000318036
-0.00120164
-0.000341771
4.29119e-05
-0.00185178
-0.000437594
-0.000117675
-0.000995591
-0.000463871
0.000459177
-0.00216386
-0.000371667
0.00032453
-0.00201518
-0.000301101
0.000234117
-0.00152929
-0.000266977
0.00015004
-0.00118814
-0.000305644
3.69151e-05
-0.00159089
-0.00036507
7.87112e-05
-0.0020709
-0.000378951
5.45125e-05
-0.00215741
-0.000352904
-0.000137033
-0.00171216
-0.000304478
-0.000104787
-0.00187108
-0.000267259
-0.000143856
-0.00187203
-0.000249741
-0.000104637
-0.00161251
-0.000314212
-1.72725e-05
-0.000588819
-0.000395067
-0.00017523
0.000587757
-0.000363893
-0.000194266
0.00122711
-0.000294583
0.000369715
-0.00165137
-0.000274702
0.000160351
-0.00184554
-0.000209633
0.00011935
-0.00177034
-0.00017276
7.38117e-05
-0.0018535
-0.000176919
-1.50955e-05
-0.00223856
-0.000226079
4.02994e-05
-0.00214117
-0.000281754
5.88236e-05
-0.00165132
-0.00028239
-5.62669e-05
-0.0010917
-0.000239558
-1.44591e-05
-0.000966287
-0.000209935
-5.49215e-05
-0.00101032
-0.000204761
-8.56953e-05
-0.000554875
-0.000214709
-5.99959e-05
0.000631823
-0.000224377
-8.16889e-05
0.000645725
-0.000170956
-3.89542e-05
0.000343442
-0.000114999
7.558e-05
-0.0012147
-6.15264e-05
0.000195646
-0.00223973
-0.000112778
0.000102249
-0.00255427
-0.000103942
1.39584e-05
-0.00185457
-8.89233e-05
7.62804e-06
-0.00162049
-8.94418e-05
-3.2943e-05
-0.00128707
-0.000106659
-1.3252e-05
-0.00108155
-0.000117399
2.23649e-05
-0.000578429
-0.000114765
3.99459e-05
-0.000139156
-0.000107857
5.87105e-05
-8.29471e-05
-9.79899e-05
6.79009e-06
-0.000469814
-7.96949e-05
-6.46736e-06
-0.000613001
-6.27866e-05
-2.65022e-05
-0.000298056
-3.47903e-05
8.8702e-05
-0.00118188
-5.4268e-06
7.13048e-05
-0.00257878
-4.67099e-06
0.000103218
-0.00378304
-4.54616e-06
7.61767e-05
-0.00393488
-5.14298e-06
0.000188616
0.00541344
0.00474182