/*--------------------------------*- C++ -*----------------------------------*\
  =========                 |
  \\      /  F ield         | OpenFOAM: The Open Source CFD Toolbox
   \\    /   O peration     | Website:  https://openfoam.org
    \\  /    A nd           | Version:  7
     \\/     M anipulation  |
\*---------------------------------------------------------------------------*/
FoamFile
{
    version     2.0;
    format      ascii;
    class       volVectorField;
    location    "8.5";
    object      U;
}
// * * * * * * * * * * * * * * * * * * * * * * * * * * * * * * * * * * * * * //

dimensions      [0 1 -1 0 0 0 0];

internalField   nonuniform List<vector> 
18870
(
(0.91908 0.360066 -2.86132)
(0.501667 0.764541 -2.67801)
(1.05376 0.384154 -2.82942)
(1.10458 -0.211608 -2.41586)
(0.765876 0.877975 -2.41156)
(0.362659 0.724636 -2.7229)
(0.401385 0.353147 -2.58773)
(1.19097 0.424783 -2.82863)
(1.12775 -0.196609 -2.42583)
(0.716031 -0.352028 -2.29451)
(0.898802 2.07947 -2.32024)
(0.963729 0.852287 -2.00239)
(0.691551 0.986402 -2.24692)
(0.235347 0.680257 -2.78594)
(0.262542 0.300246 -2.47595)
(0.610401 0.193226 -2.35846)
(1.30837 0.472586 -2.86269)
(1.16333 -0.172229 -2.43374)
(0.713841 -0.347539 -2.26965)
(0.814552 -0.389339 -2.38148)
(0.915339 2.87052 -0.741788)
(0.799848 1.94127 -2.54329)
(0.225497 1.31238 -2.96437)
(1.24621 0.819729 -1.6488)
(1.00002 1.09248 -1.88538)
(1.00027 0.742222 -2.19291)
(0.345411 0.635666 -2.79349)
(0.141862 0.203516 -2.3568)
(0.654533 0.169385 -2.14846)
(0.784517 -0.200146 -2.31917)
(1.40675 0.528722 -2.91163)
(1.2021 -0.148571 -2.44041)
(0.718973 -0.357948 -2.24236)
(0.790378 -0.390959 -2.30302)
(0.396268 -0.593931 -2.81975)
(1.35131 2.89755 -1.19348)
(0.939742 2.97271 -1.11694)
(1.15756 2.86158 -1.41764)
(0.69511 1.82665 -2.79223)
(0.40866 1.30343 -2.52935)
(1.44093 1.47481 -1.41076)
(1.4285 0.784129 -1.50734)
(1.22729 1.08106 -1.63289)
(1.06301 0.626086 -1.97673)
(1.16726 0.652271 -1.83497)
(0.487492 0.63573 -2.74244)
(0.196839 0.146901 -2.16961)
(0.756712 0.154365 -1.91485)
(0.76336 -0.226533 -2.1896)
(0.803955 -0.692765 -2.21385)
(1.51255 0.600878 -2.93603)
(1.23422 -0.127765 -2.44666)
(0.714008 -0.372164 -2.21542)
(0.767155 -0.394275 -2.23512)
(0.410748 -0.592814 -2.74702)
(0.422957 -0.35663 -3.12783)
(1.58722 3.38849 -0.467685)
(1.4871 3.06586 -1.81447)
(1.6527 2.68245 -1.67513)
(1.35439 2.87518 -1.29075)
(1.23886 2.60515 -1.42176)
(1.47066 2.11868 -2.35573)
(0.862071 1.82752 -2.42153)
(0.929377 1.21401 -1.83117)
(1.34262 1.2183 -1.31289)
(1.52293 1.03194 -1.67421)
(1.49913 0.757589 -1.44233)
(1.29382 1.01166 -1.51305)
(1.1452 0.576631 -1.7262)
(1.17153 0.55022 -1.64922)
(1.27535 0.031617 -1.93998)
(0.70943 0.658586 -2.63673)
(0.404842 0.141112 -1.94429)
(0.837974 0.139504 -1.68459)
(0.712429 -0.267929 -2.04338)
(0.822075 -0.724689 -2.10167)
(0.921752 -0.474912 -2.745)
(1.57446 0.650301 -2.95641)
(1.26207 -0.107877 -2.44978)
(0.703262 -0.387969 -2.19075)
(0.747129 -0.398881 -2.17604)
(0.417353 -0.593178 -2.67642)
(0.435096 -0.361652 -3.07037)
(0.511055 0.0284322 -3.08179)
(1.49155 3.42572 -0.549762)
(1.72172 3.54602 -1.25274)
(1.88856 3.33953 -1.5152)
(1.46218 3.09371 -2.01849)
(2.2011 2.47455 -1.82361)
(2.28181 2.55963 -0.784384)
(1.16102 2.88859 -1.28199)
(1.45712 2.39836 -1.44628)
(1.63083 2.13301 -1.60409)
(1.5109 1.67181 -2.5111)
(0.762213 1.77539 -1.80272)
(1.39332 1.12465 -1.25577)
(1.23393 1.0875 -1.40708)
(1.59512 1.03749 -1.55025)
(2.07484 0.733794 -1.55194)
(1.48962 0.69227 -1.41259)
(1.3342 0.890727 -1.36015)
(1.14125 0.526738 -1.53136)
(1.20088 0.448611 -1.5478)
(1.31841 -0.0501029 -1.76422)
(1.53141 -0.272835 -2.03924)
(0.89887 0.694741 -2.51832)
(0.646455 0.168385 -1.72529)
(0.859811 0.103643 -1.48153)
(0.671206 -0.326044 -1.88216)
(0.881325 -0.746203 -2.01087)
(0.91276 -0.507551 -2.6466)
(0.787803 -0.205307 -2.77741)
(1.59556 0.682587 -2.94929)
(1.30597 -0.0810332 -2.44741)
(0.703166 -0.403626 -2.16686)
(0.723895 -0.405106 -2.12167)
(0.418028 -0.597463 -2.60705)
(0.452077 -0.354312 -3.01613)
(0.482899 0.0201982 -3.08286)
(0.467106 0.243906 -2.69929)
(0.523328 3.65788 -0.167767)
(0.847274 4.03361 -0.44025)
(1.51028 3.7708 -0.855469)
(1.48811 3.59613 -1.52566)
(1.99925 3.31021 -1.0912)
(2.23679 2.98001 -1.8582)
(1.72488 2.97835 -1.64309)
(2.2592 2.37204 -1.34808)
(1.9346 2.21481 -0.847549)
(2.30745 2.42302 -1.18642)
(1.39487 2.20828 -1.85659)
(1.88113 2.32401 -1.03039)
(1.50977 1.97553 -1.51165)
(1.35384 1.56211 -2.30424)
(1.58033 1.17068 -2.04005)
(0.814863 1.4628 -1.57243)
(1.54648 1.04595 -1.08594)
(1.09926 0.981846 -1.5828)
(1.53103 1.00404 -1.55885)
(1.88223 0.71883 -1.55034)
(1.50621 -0.0647432 -2.05491)
(1.4534 0.613609 -1.3918)
(1.29321 0.753757 -1.26949)
(1.1499 0.5114 -1.39662)
(1.27856 0.405946 -1.43782)
(1.30433 -0.11416 -1.66702)
(1.49815 -0.29255 -1.92583)
(1.50395 -0.544085 -2.00476)
(1.04877 0.711932 -2.41539)
(0.854938 0.202845 -1.55078)
(0.844298 0.0482575 -1.33956)
(0.750332 -0.319472 -1.68522)
(0.932273 -0.765834 -1.91515)
(0.903428 -0.546136 -2.54705)
(0.770308 -0.272616 -2.68692)
(0.64634 -0.250668 -2.38289)
(1.62426 0.732036 -2.89306)
(1.37635 -0.0425492 -2.44064)
(0.704373 -0.419061 -2.14614)
(0.702106 -0.418921 -2.06942)
(0.413667 -0.601324 -2.53956)
(0.466071 -0.379667 -2.9573)
(0.473463 -0.00484468 -3.03907)
(0.449014 0.232634 -2.79384)
(1.07977 0.592989 -2.31346)
(0.731804 3.00439 1.21689)
(1.10552 3.84966 -0.279264)
(0.276009 3.81127 0.240347)
(0.861474 4.06879 -0.51578)
(1.45581 3.93005 -1.20065)
(2.83595 3.46721 -0.561383)
(1.61417 3.54683 -1.41455)
(2.0594 3.28821 -0.877723)
(2.42101 2.69524 -1.00611)
(2.51417 2.57242 -0.57697)
(1.93188 3.07998 -0.353518)
(2.18834 2.08588 -0.785598)
(1.83088 1.93451 -0.593614)
(2.24442 2.28052 -1.01973)
(2.13662 1.88407 -1.66499)
(1.37802 2.22993 -1.56427)
(1.89968 2.23442 -0.66574)
(1.41891 1.87777 -1.47114)
(1.29107 1.47365 -1.87132)
(1.47705 1.07308 -1.96403)
(1.31605 0.795674 -1.97936)
(0.923407 1.47506 -1.2121)
(1.50991 0.921444 -1.1591)
(0.938232 0.843282 -1.72878)
(1.42173 0.941451 -1.52449)
(1.70172 0.662884 -1.54965)
(1.31804 -0.175351 -2.05439)
(1.04411 -0.30965 -1.87838)
(1.36221 0.549094 -1.47392)
(1.22645 0.633574 -1.29215)
(1.1827 0.479474 -1.25704)
(1.31271 0.315008 -1.34356)
(1.22586 -0.209161 -1.61925)
(1.45655 -0.352562 -1.84632)
(1.44085 -0.552038 -1.93887)
(0.949512 -0.621371 -1.86426)
(1.18353 0.797018 -2.32771)
(0.978114 0.209443 -1.45601)
(0.837807 -0.0080037 -1.25932)
(0.854687 -0.291301 -1.52544)
(0.911909 -0.779116 -1.83153)
(0.875471 -0.588683 -2.45385)
(0.73667 -0.330204 -2.59948)
(0.572328 -0.301967 -2.3375)
(0.970703 -0.30825 -2.10006)
(1.63877 0.750506 -2.83448)
(1.43047 -0.0251656 -2.43669)
(0.713067 -0.433477 -2.12614)
(0.686412 -0.433392 -2.01849)
(0.404583 -0.607708 -2.47463)
(0.466936 -0.370143 -2.89682)
(0.468105 0.0107428 -2.98403)
(0.423485 0.222064 -2.85173)
(1.24371 0.623466 -2.32494)
(0.897341 0.106463 -2.23099)
(0.90578 2.75171 2.29241)
(0.613159 3.12933 1.11642)
(0.125438 3.21148 0.995609)
(0.105298 4.02777 0.0184074)
(0.567334 4.09704 -0.253156)
(1.0292 3.97119 0.261314)
(0.605786 4.08296 -0.347583)
(1.43883 4.15422 0.214242)
(1.65551 4.1936 -0.256757)
(2.78098 3.40095 -0.860797)
(1.48169 3.62183 -0.984297)
(1.93901 3.22846 -0.556599)
(1.88838 2.63537 -0.533591)
(2.36481 2.26701 -0.164757)
(2.39468 1.99979 -0.802527)
(2.28033 2.75702 -0.451937)
(1.99444 2.02068 -0.485487)
(1.70452 1.84951 -0.758561)
(2.02683 2.13327 -0.914353)
(1.93143 1.61593 -1.49018)
(1.59025 1.28204 -0.871815)
(1.64047 1.55625 -2.14682)
(1.71213 1.99602 -0.650681)
(1.22433 1.8047 -1.3053)
(1.13305 1.37666 -1.58549)
(1.29936 0.966632 -2.04928)
(1.10467 0.707588 -1.84653)
(0.59002 0.647228 -1.84744)
(1.26407 1.30202 -0.995494)
(1.46713 0.742882 -1.33761)
(0.957152 0.871791 -1.43135)
(1.19525 0.868197 -1.52532)
(1.45223 0.595411 -1.63321)
(1.24773 -0.0874439 -1.96209)
(0.98972 -0.258056 -1.84017)
(0.342529 -0.260504 -1.55094)
(1.32669 0.208009 -1.72281)
(1.23851 0.522685 -1.33726)
(1.17926 0.440181 -1.14525)
(1.25015 0.243484 -1.30244)
(1.0838 -0.304778 -1.59745)
(1.47509 -0.350389 -1.77725)
(1.36596 -0.571353 -1.86987)
(0.822365 -0.666916 -1.84577)
(1.00811 -0.820793 -1.49051)
(1.22446 0.777869 -2.32871)
(0.981051 0.158245 -1.46256)
(0.837971 -0.0363607 -1.23141)
(0.892426 -0.295421 -1.41393)
(0.859209 -0.818918 -1.74295)
(0.849376 -0.632696 -2.35973)
(0.709657 -0.387546 -2.51317)
(0.476577 -0.362405 -2.28064)
(0.874793 -0.322776 -2.04218)
(0.629299 -0.412906 -1.94859)
(1.64275 0.776384 -2.76282)
(1.43983 -0.023469 -2.43396)
(0.726685 -0.445323 -2.1088)
(0.671511 -0.449895 -1.97088)
(0.392254 -0.614212 -2.41246)
(0.452949 -0.385699 -2.83678)
(0.458258 -0.00786364 -2.92872)
(0.395028 0.209529 -2.84075)
(1.4047 0.680014 -2.34461)
(0.760503 0.0825121 -2.19867)
(0.23628 -0.199001 -1.53738)
(0.545054 2.93792 3.17134)
(0.73525 2.95828 2.12667)
(0.520247 2.82803 2.19638)
(0.286782 3.11452 1.26746)
(0.192875 3.14973 0.919462)
(-0.171486 3.56542 0.888531)
(-0.0209115 4.08901 0.349414)
(0.186227 4.42825 -0.0721528)
(0.324781 4.59635 0.502984)
(2.04167 3.96071 0.953509)
(0.210697 4.11778 -0.362169)
(0.761387 4.27914 0.576698)
(1.8186 4.0384 -0.179506)
(2.49334 3.5305 -0.429327)
(2.62679 2.45819 -0.162971)
(0.994055 3.49146 -0.546454)
(1.30882 3.04434 -0.366534)
(1.79442 2.2306 0.147172)
(2.16626 2.04435 -0.127117)
(2.27737 1.74164 -0.157275)
(1.6327 1.55183 -0.128859)
(1.656 2.87503 0.0474309)
(1.76733 1.86218 -0.279805)
(1.94057 1.7027 -0.228815)
(1.83857 1.89227 -0.915312)
(1.68476 1.41378 -0.971891)
(1.26939 1.11453 -0.465682)
(1.17003 1.07079 -1.62112)
(1.6292 1.65496 -1.43858)
(1.54869 1.80316 -0.565304)
(1.12943 1.52398 -1.32416)
(0.986727 1.24928 -1.52913)
(1.05297 0.919934 -2.05693)
(0.901594 0.643275 -1.81064)
(0.524416 0.569257 -1.78985)
(0.12041 0.370398 -1.69033)
(1.3757 1.33344 -0.708596)
(1.35929 0.621275 -1.38877)
(0.90964 0.793365 -1.29991)
(0.888711 0.691533 -1.63555)
(1.18006 0.506914 -1.72124)
(0.99244 -0.127638 -1.9694)
(0.687697 -0.392354 -1.85129)
(0.221894 -0.257761 -1.58472)
(0.435611 -0.479443 -1.24005)
(1.43563 0.483085 -1.56787)
(1.25395 0.514459 -1.3505)
(1.13367 0.385212 -1.08016)
(1.19249 0.218405 -1.27784)
(0.913321 -0.397104 -1.57769)
(1.41241 -0.389655 -1.76013)
(1.2266 -0.596673 -1.80845)
(0.829976 -0.64242 -1.77446)
(0.895962 -0.807797 -1.46698)
(0.720044 -0.938664 -1.47475)
(1.28568 0.816417 -2.2972)
(0.949349 0.0580102 -1.51397)
(0.852857 -0.121288 -1.22003)
(0.881882 -0.320375 -1.34472)
(0.839393 -0.81282 -1.65748)
(0.821234 -0.67203 -2.27463)
(0.6887 -0.430022 -2.43393)
(0.398138 -0.421563 -2.20773)
(0.766527 -0.334765 -1.97029)
(0.536932 -0.425451 -1.86678)
(0.0608697 -0.33949 -1.72654)
(1.64021 0.785718 -2.69082)
(1.43294 -0.0307481 -2.42554)
(0.751276 -0.455396 -2.09479)
(0.657058 -0.467393 -1.92829)
(0.377841 -0.621715 -2.35233)
(0.437802 -0.392062 -2.77845)
(0.458644 -0.00396389 -2.87013)
(0.407571 0.21565 -2.7885)
(1.38118 0.693671 -2.36079)
(0.62912 0.0488096 -2.16324)
(0.249594 -0.19735 -1.53626)
(0.0232693 -0.118182 -1.3124)
(0.462566 2.91958 3.47458)
(0.949101 3.05032 3.03674)
(0.366908 2.90928 3.20396)
(0.496829 2.88869 2.19061)
(0.298432 2.7801 1.96554)
(0.034276 2.78751 2.16239)
(0.142547 3.2798 1.05815)
(0.0994159 3.52731 0.491694)
(-0.390178 3.86447 0.944251)
(1.08134 4.36032 0.585972)
(0.404282 4.30102 0.387509)
(0.025789 4.39408 0.0855626)
(0.407031 4.84266 0.912397)
(1.39997 4.47869 0.96962)
(1.63658 4.11281 -0.139869)
(0.373584 3.97336 -0.156872)
(0.509005 4.19596 0.674354)
(0.56159 3.99544 0.342279)
(1.7465 3.31382 0.678572)
(1.8424 2.42107 0.556658)
(1.83119 1.98509 0.866758)
(0.69271 3.18748 0.365057)
(1.04787 2.80879 0.257243)
(1.10638 2.36167 -0.0689311)
(1.89259 1.87634 0.0990844)
(1.90162 1.69635 -0.0133177)
(1.58361 1.33533 0.223562)
(1.36193 1.40028 -0.599387)
(1.2386 2.44752 0.268507)
(1.52562 1.8073 0.210568)
(1.71962 1.69712 -0.235738)
(1.69288 1.70376 -0.619973)
(1.50519 1.10552 -0.667446)
(0.938761 0.822717 -0.805708)
(0.90895 0.898371 -1.35145)
(0.0130738 0.571526 -1.09123)
(1.61729 1.58279 -0.776564)
(1.41109 1.47708 -0.71523)
(1.1501 1.45771 -0.839118)
(1.15481 1.32133 -1.04457)
(0.89069 0.816142 -1.88892)
(0.569453 0.525555 -1.80591)
(0.46217 0.584838 -1.87097)
(-0.0919294 0.332831 -1.73887)
(-0.0841901 0.119158 -1.72326)
(1.40674 1.04777 -0.762995)
(1.27206 0.489463 -1.38778)
(0.889655 0.706953 -1.11041)
(0.822369 0.693333 -1.37606)
(0.913744 0.419826 -1.7397)
(0.857433 -0.107941 -1.8947)
(0.548787 -0.280097 -1.8194)
(0.114742 -0.271004 -1.57367)
(0.253514 -0.463101 -1.31773)
(0.394715 -0.717293 -1.31199)
(1.36459 0.289827 -1.70002)
(1.20821 0.310626 -1.4664)
(1.11928 0.299676 -1.01292)
(1.1769 0.176829 -1.20624)
(0.78915 -0.484763 -1.54814)
(1.33012 -0.390317 -1.73407)
(1.06176 -0.638901 -1.76227)
(0.72419 -0.659357 -1.69584)
(0.732961 -0.816883 -1.41062)
(0.556557 -0.939836 -1.39486)
(0.45568 -0.826506 -1.38827)
(1.36833 0.893468 -2.27684)
(0.984622 0.0492075 -1.52846)
(0.829498 -0.175923 -1.24014)
(0.869674 -0.363086 -1.31097)
(0.787066 -0.830745 -1.57667)
(0.791035 -0.71061 -2.19628)
(0.649738 -0.4771 -2.36974)
(0.337437 -0.466648 -2.13369)
(0.640738 -0.347182 -1.88871)
(0.427976 -0.446765 -1.78909)
(0.00769085 -0.360937 -1.663)
(-0.0284708 0.263944 -1.90355)
(1.63913 0.791349 -2.62274)
(1.4402 -0.0340315 -2.41719)
(0.76323 -0.460182 -2.09064)
(0.643497 -0.488568 -1.89018)
(0.361182 -0.629706 -2.29521)
(0.41465 -0.406102 -2.71908)
(0.46271 -0.00118642 -2.80948)
(0.46167 0.245378 -2.71709)
(1.24464 0.662089 -2.35989)
(0.5163 0.0136184 -2.12693)
(0.206659 -0.210577 -1.53766)
(-0.0214502 -0.13768 -1.32979)
(1.26967 -0.185883 -0.476522)
(0.485233 2.91764 3.35598)
(0.60606 2.98441 3.45833)
(0.170054 2.99111 3.54749)
(0.0507791 3.04371 3.21391)
(0.423886 2.94848 3.08528)
(0.416458 2.73936 3.20553)
(0.0978656 3.00442 1.84852)
(0.088987 2.691 2.00856)
(-0.329806 2.66501 2.28794)
(0.374965 3.57465 1.39923)
(-0.100906 3.24392 1.07065)
(-0.410692 3.64733 0.428806)
(0.127113 4.42173 0.378563)
(0.597659 4.66371 0.80206)
(1.24516 4.4954 1.28346)
(-0.546984 4.37767 0.588705)
(-0.115073 4.45747 0.324586)
(0.419492 4.79372 1.04348)
(1.00613 4.67948 1.10823)
(2.15286 3.52222 0.826429)
(1.62037 3.06204 1.51899)
(0.470898 3.97953 0.0796933)
(0.180097 4.0177 1.05764)
(1.07695 3.65788 0.947755)
(1.38936 3.12666 1.43368)
(1.68339 2.18129 1.13946)
(1.80688 1.5837 0.980676)
(1.30463 1.56117 0.960434)
(0.849601 3.13906 0.496814)
(0.815846 2.75892 0.393905)
(1.20102 2.00608 0.753636)
(1.73063 1.73573 0.259738)
(1.75567 1.44582 0.390471)
(1.7321 1.31421 -0.327218)
(0.999981 1.20067 -0.296709)
(0.0202643 0.79994 0.36396)
(1.15314 2.06138 0.26066)
(1.43097 1.72039 0.228341)
(1.51735 1.5719 -0.377362)
(1.69112 1.5677 -0.572976)
(1.24684 0.983928 -0.269689)
(0.8106 0.572771 -0.919112)
(0.648043 0.923548 -1.21552)
(-0.0989876 0.361524 -1.09616)
(-0.54336 0.820945 -1.27486)
(1.51806 1.40833 -0.752326)
(1.27702 1.29744 -0.526704)
(0.99158 1.2514 -1.02369)
(0.949312 1.04798 -1.23568)
(0.364664 0.557167 -1.89527)
(0.331438 0.39907 -1.72021)
(0.337133 0.464659 -1.87328)
(-0.265306 0.266405 -1.6667)
(-0.359772 0.121539 -1.63351)
(-0.386516 0.0822175 -1.37431)
(1.3508 0.863349 -0.903607)
(1.29533 0.495623 -1.17161)
(0.807816 0.600382 -1.03658)
(0.672478 0.619058 -1.28477)
(0.585343 0.29134 -1.7747)
(0.725363 -0.0442087 -1.81446)
(0.390524 -0.36695 -1.80697)
(-0.0596515 -0.27817 -1.56175)
(-0.00672902 -0.388373 -1.37352)
(0.163036 -0.67932 -1.27594)
(0.304333 -0.85863 -0.835311)
(1.51108 0.328877 -1.69031)
(1.28682 0.272231 -1.46183)
(1.0829 0.216596 -1.01199)
(1.05484 0.0973456 -1.19132)
(0.726133 -0.533824 -1.53618)
(1.3007 -0.411655 -1.65934)
(1.01812 -0.649417 -1.72099)
(0.497447 -0.762249 -1.62294)
(0.605928 -0.838698 -1.33579)
(0.455118 -0.920403 -1.30983)
(0.354583 -0.819453 -1.29378)
(0.0274664 -0.289454 -2.03446)
(1.42144 0.909177 -2.28114)
(1.01506 -0.00833005 -1.55151)
(0.783976 -0.201714 -1.25202)
(0.915189 -0.349923 -1.27346)
(0.746356 -0.863726 -1.49777)
(0.775767 -0.746217 -2.11326)
(0.616594 -0.521693 -2.31196)
(0.254402 -0.513602 -2.07052)
(0.498082 -0.36828 -1.80474)
(0.317552 -0.472224 -1.71002)
(-0.0500923 -0.378633 -1.59782)
(-0.113613 0.244482 -1.89013)
(-0.00821438 0.182034 -1.5225)
(1.63869 0.805028 -2.56304)
(1.46831 -0.0109039 -2.40367)
(0.788102 -0.458931 -2.08541)
(0.632173 -0.511718 -1.85546)
(0.342477 -0.639771 -2.24082)
(0.386234 -0.422586 -2.66149)
(0.460104 -0.000437179 -2.75286)
(0.523894 0.288205 -2.64046)
(1.07264 0.604944 -2.35219)
(0.425565 -0.0203998 -2.09303)
(0.272203 -0.195708 -1.52243)
(-0.0596743 -0.158377 -1.33808)
(1.32211 -0.163806 -0.379119)
(1.16156 -0.993578 -0.0286425)
(0.58717 3.10019 2.82368)
(0.0505061 2.82967 3.42462)
(0.0917926 3.01924 3.51178)
(-0.0547962 3.11437 3.54342)
(0.261521 3.02964 3.62628)
(0.345342 2.96045 3.60541)
(-0.0118121 3.10688 3.08788)
(-0.0203066 2.85941 3.07589)
(-0.0739658 2.62517 3.35712)
(0.733511 3.10852 2.36823)
(-0.0416463 2.97388 2.06454)
(-0.186056 2.81089 2.01518)
(-0.283626 2.97021 2.11085)
(0.491093 3.66624 1.4569)
(0.561339 4.09075 1.80345)
(-0.276187 3.41362 1.06223)
(-0.667641 3.5604 0.777255)
(-0.578182 4.27481 1.07681)
(0.49237 4.75018 0.852377)
(0.831405 4.43005 1.43369)
(1.21848 4.34713 1.6518)
(-0.941099 4.17252 0.637188)
(-0.797492 4.45143 0.701666)
(-0.268827 4.61678 1.36353)
(-0.0986459 4.38491 1.64477)
(1.16112 3.55665 1.50086)
(1.5932 2.954 1.79177)
(1.61128 2.41398 1.39229)
(0.253776 4.03687 0.464291)
(0.385502 4.02045 0.949581)
(1.0758 3.71952 1.05443)
(0.605835 3.06336 1.70842)
(1.35597 2.17164 1.58282)
(1.23671 1.39628 1.34133)
(1.04394 1.45543 1.30075)
(0.26727 1.23247 0.71365)
(1.12672 3.21289 0.490631)
(0.842697 2.6804 0.528481)
(1.04413 2.04488 0.848292)
(1.0697 1.48712 0.590771)
(1.04352 1.46132 0.58747)
(1.65031 1.13573 -0.115584)
(0.494243 0.836762 0.220576)
(0.314747 0.352734 1.09809)
(0.183498 1.16092 0.109038)
(0.994982 2.03799 0.54419)
(1.25645 1.70972 0.137383)
(1.27155 1.5539 -0.252604)
(1.41335 1.34781 -0.703089)
(1.03358 0.728195 0.213005)
(0.64648 0.405894 -0.641413)
(0.342508 0.736407 -1.38179)
(-0.376975 0.312459 -0.748)
(-0.914658 0.642391 -1.07656)
(-0.510953 0.778429 -1.28604)
(1.34842 1.29403 -0.400175)
(1.17595 1.13445 -0.45499)
(0.917572 1.1516 -0.952239)
(0.806175 0.935015 -1.22691)
(0.270066 0.51034 -1.56097)
(0.0745394 0.294732 -1.47294)
(0.182437 0.313149 -1.89735)
(-0.500672 0.267053 -1.33864)
(-0.576167 0.14302 -1.59352)
(-0.792137 0.020201 -1.20987)
(-0.49843 -0.155628 -1.15229)
(1.44228 0.712147 -0.898488)
(1.27431 0.41416 -1.07259)
(0.725921 0.468735 -0.997986)
(0.45153 0.536812 -1.268)
(0.345251 0.205766 -1.79889)
(0.437492 -0.114526 -1.76059)
(0.234388 -0.417546 -1.78143)
(-0.131062 -0.269686 -1.54504)
(-0.13588 -0.362973 -1.39073)
(-0.0560862 -0.635212 -1.22113)
(0.15129 -0.782947 -0.84881)
(0.657731 -0.836488 -1.6354)
(1.58985 0.480119 -1.68683)
(1.30036 0.218836 -1.45472)
(1.05507 0.171684 -1.03461)
(0.903481 0.0124388 -1.18045)
(0.775266 -0.421659 -1.51832)
(1.12153 -0.494212 -1.66632)
(0.967219 -0.68541 -1.69233)
(0.477918 -0.739568 -1.55287)
(0.538351 -0.85115 -1.26511)
(0.313075 -0.938264 -1.23906)
(0.228431 -0.825928 -1.1987)
(-0.00797829 -0.320459 -1.94729)
(-0.447146 0.171278 -1.84726)
(1.47669 0.974533 -2.23838)
(1.03129 -0.0279555 -1.61925)
(0.777795 -0.396955 -1.2311)
(0.934449 -0.341128 -1.2485)
(0.724216 -0.883386 -1.42538)
(0.744995 -0.776163 -2.03761)
(0.574706 -0.564435 -2.26637)
(0.190498 -0.551621 -2.00791)
(0.361702 -0.398885 -1.71825)
(0.207461 -0.496866 -1.63357)
(-0.110815 -0.389496 -1.5324)
(-0.194039 0.236186 -1.86889)
(-0.0975346 0.212799 -1.50168)
(0.200974 0.138656 -1.17664)
(1.6496 0.834404 -2.50665)
(1.52212 0.048892 -2.39156)
(0.805092 -0.463061 -2.08435)
(0.622754 -0.535314 -1.82452)
(0.32266 -0.651508 -2.18975)
(0.354428 -0.44361 -2.60434)
(0.44642 -0.00528977 -2.69822)
(0.574207 0.334408 -2.56195)
(0.896983 0.53165 -2.33915)
(0.361066 -0.0479129 -2.063)
(0.266704 -0.193868 -1.51404)
(-0.0852997 -0.184127 -1.3298)
(1.35331 -0.13943 -0.227205)
(1.15281 -0.986175 -0.061713)
(1.38464 -1.56175 -0.0464109)
(0.132077 2.68428 2.89601)
(-0.38872 3.11286 2.84916)
(0.00536564 3.05228 3.15258)
(-0.343322 2.93434 3.52595)
(-0.101036 3.0423 3.54658)
(0.149104 3.08556 3.50223)
(-0.237684 3.10703 3.54968)
(-0.466879 3.05769 3.60165)
(-0.341498 3.02915 3.65344)
(0.682794 2.9856 3.46037)
(-0.291225 3.1059 3.15322)
(-0.287571 2.92399 3.05282)
(-0.199253 2.76488 3.20158)
(0.256309 3.07765 2.59752)
(0.0516808 3.19399 2.87064)
(-0.401817 2.79852 2.44393)
(-0.486584 2.60698 2.44779)
(-0.234813 3.27384 2.05945)
(0.340944 4.11376 1.30634)
(0.36584 4.18973 1.81356)
(0.493684 4.47286 1.60588)
(-0.404548 3.62087 1.12623)
(-0.864117 3.82003 0.942042)
(-0.293133 4.50104 0.946168)
(-0.0546135 4.4312 1.10407)
(0.0513598 4.22461 1.7309)
(0.214282 4.30146 2.10589)
(0.961628 3.63637 2.02803)
(-1.19094 4.05232 0.678252)
(-1.24155 4.28182 0.837212)
(-0.435638 4.62082 1.32871)
(1.31307 4.57633 0.946873)
(0.665187 3.54851 1.8762)
(0.832921 2.91673 2.31512)
(0.938172 2.34176 2.22989)
(0.899502 2.10745 1.14669)
(-0.553238 3.76724 1.00931)
(0.1848 3.88194 1.22359)
(0.141559 3.44346 1.75698)
(1.20314 2.71467 1.81029)
(0.727626 2.09714 2.016)
(0.387568 1.2414 1.54048)
(0.793623 1.16453 1.67812)
(-0.207713 1.14947 1.01512)
(-0.546996 1.12773 0.340888)
(0.324152 2.6378 1.32356)
(0.559264 2.16243 1.2948)
(0.636617 1.60831 1.31576)
(0.643675 1.19901 0.984759)
(1.12488 1.20615 0.808613)
(0.815324 1.06899 0.282653)
(0.506955 0.61553 0.632325)
(-0.965752 0.229311 0.768264)
(-0.135857 1.03412 1.0429)
(-0.670689 1.2696 -0.0452928)
(0.766936 1.78261 0.624347)
(0.996348 1.57773 0.25575)
(0.897134 1.41377 -0.215749)
(1.07875 1.02991 -0.579675)
(0.773714 0.290517 0.655882)
(0.371568 0.296187 -0.427128)
(0.186271 0.641735 -1.33457)
(-0.665937 0.210801 -0.417824)
(-1.09368 0.54155 -0.980612)
(-0.95548 0.642194 -1.01971)
(-1.14498 0.245904 -0.694713)
(1.13807 1.11263 -0.304638)
(1.03832 1.01501 -0.34491)
(0.756962 1.01061 -1.01802)
(0.714248 0.812444 -1.07438)
(0.148852 0.363589 -1.31593)
(-0.15767 0.185609 -1.16061)
(-0.147195 0.143878 -1.70043)
(-0.686045 0.155958 -1.1523)
(-0.914185 0.108296 -1.33436)
(-1.03784 0.00905822 -1.18913)
(-0.854801 -0.055905 -0.977213)
(0.355572 -0.629171 -1.28972)
(1.39315 0.552153 -1.0339)
(1.1922 0.356063 -0.989751)
(0.639533 0.383962 -0.958499)
(0.270774 0.446021 -1.21138)
(0.111953 0.0939167 -1.76925)
(0.220345 -0.148353 -1.72884)
(0.283502 -0.290841 -1.77404)
(-0.372146 -0.297024 -1.44904)
(-0.287761 -0.328029 -1.39267)
(-0.266652 -0.5606 -1.15454)
(-0.113931 -0.660212 -0.924152)
(0.489487 -0.85166 -1.48029)
(-0.275873 -0.540295 -1.5587)
(1.57054 0.415801 -1.71458)
(1.26502 0.0409622 -1.45296)
(0.983023 -0.0286507 -1.15153)
(0.76448 -0.106114 -1.18512)
(0.735673 -0.441783 -1.50728)
(0.974863 -0.523457 -1.66338)
(0.957051 -0.610697 -1.67799)
(0.328832 -0.822831 -1.47509)
(0.39082 -0.834373 -1.24381)
(0.137555 -0.981712 -1.17269)
(0.0839602 -0.841445 -1.09264)
(-0.0822746 -0.330771 -1.85101)
(-0.533141 0.163519 -1.76776)
(-0.468993 0.504408 -1.5515)
(1.49823 0.957838 -2.21645)
(1.07872 -0.0246408 -1.68742)
(0.840225 -0.297669 -1.29944)
(0.886866 -0.385246 -1.24994)
(0.675228 -0.918025 -1.35901)
(0.700546 -0.803546 -1.96117)
(0.54008 -0.60875 -2.2241)
(0.121247 -0.583177 -1.95272)
(0.232512 -0.434443 -1.63419)
(0.102557 -0.522251 -1.56401)
(-0.180257 -0.395118 -1.46878)
(-0.255078 0.218138 -1.84271)
(-0.18729 0.24374 -1.4733)
(0.118604 0.170833 -1.16004)
(0.660225 -0.47417 -0.63947)
(1.68617 0.865746 -2.44305)
(1.54186 0.0568134 -2.39859)
(0.832657 -0.454103 -2.07889)
(0.612057 -0.561347 -1.79677)
(0.302252 -0.664798 -2.14254)
(0.320674 -0.467878 -2.54841)
(0.423491 -0.0169107 -2.64617)
(0.606613 0.378943 -2.48343)
(0.738596 0.456899 -2.31687)
(0.322766 -0.0646945 -2.03835)
(0.27674 -0.187169 -1.49994)
(-0.130838 -0.213601 -1.34458)
(1.32294 -0.130382 -0.154135)
(1.1463 -0.977775 -0.0922446)
(1.37384 -1.5561 -0.058253)
(1.0676 -1.73717 -0.0924512)
(-0.218559 2.51432 2.83051)
(-0.202889 2.82301 2.8605)
(-0.101345 2.68261 3.10586)
(-0.331391 3.02886 3.01196)
(-0.0458847 3.06304 3.19703)
(0.00752814 3.01311 3.28946)
(-0.470472 2.94231 3.51712)
(-0.355247 3.03801 3.55095)
(-0.192502 3.06088 3.52952)
(0.274319 2.92982 3.59513)
(-0.537833 3.05582 3.61116)
(-0.540982 3.06491 3.60765)
(-0.510381 3.04422 3.59269)
(0.169432 3.06787 3.45592)
(0.257943 2.98159 3.63991)
(-0.39312 3.06418 3.39737)
(-0.675235 2.81508 3.37523)
(-0.401514 3.00903 3.11416)
(0.328749 3.75522 2.29391)
(1.62093 4.15049 1.86026)
(-0.110352 3.37007 2.89978)
(-0.610239 2.82039 2.86422)
(-0.989698 2.42743 2.78536)
(-0.91906 2.95211 2.54099)
(-0.393733 3.80507 1.74613)
(-0.637718 3.6095 2.40964)
(-0.0610175 4.58131 1.51407)
(0.16858 4.37007 2.29782)
(-1.35488 3.12697 1.75263)
(-1.2991 3.73728 1.28048)
(-1.2571 4.31999 1.53719)
(0.0130268 4.41301 1.2236)
(-0.558448 4.22995 1.96168)
(-0.466941 4.2916 2.30729)
(0.759446 3.65804 2.33224)
(0.186731 3.19111 2.32139)
(-1.76951 3.97083 0.831044)
(-0.96982 4.44837 1.12465)
(-0.764412 4.60165 1.44598)
(-0.699511 3.93386 2.76078)
(0.631604 3.51959 2.16144)
(-0.20782 2.84142 2.40903)
(0.485731 2.18094 2.6637)
(-0.0971637 2.03007 1.74546)
(-0.694379 1.93056 1.032)
(-0.928493 3.57726 1.49276)
(0.206664 3.88622 1.43208)
(0.722441 3.19314 1.71517)
(0.352143 2.63644 2.24009)
(0.825547 2.07834 2.16318)
(-0.16376 1.20931 1.73772)
(0.0766129 1.03924 1.77064)
(-0.6123 1.27089 1.4508)
(-1.36712 1.27591 0.242308)
(-0.512446 2.0012 0.314372)
(-0.256963 2.00794 1.94937)
(0.318233 1.89089 1.69318)
(0.653306 1.45067 1.53022)
(0.279865 0.888017 1.17245)
(0.605329 1.10845 1.33649)
(0.622741 0.913198 0.583456)
(-0.090387 0.426906 0.972081)
(-1.16743 -0.146194 0.826719)
(-0.937097 1.1938 1.0651)
(-0.963524 1.35832 0.527926)
(-1.47545 0.554301 -0.717506)
(0.426721 1.57359 0.699935)
(0.684368 1.4026 0.452476)
(0.701972 1.22459 -0.0387325)
(0.610582 0.671996 -0.300477)
(0.301217 -0.0891916 0.919938)
(0.208382 0.137322 -0.101355)
(-0.222952 0.476701 -1.10906)
(-0.904988 0.136894 -0.250057)
(-1.34255 0.452444 -0.569209)
(-1.40154 0.496179 -0.469809)
(-1.44738 0.0642424 -0.591937)
(-1.08314 0.673658 -0.740567)
(0.96338 0.902778 -0.356056)
(0.859195 0.904237 -0.359479)
(0.591641 0.835395 -0.974996)
(0.51605 0.677239 -1.06965)
(-0.0400122 0.245778 -1.17077)
(-0.363873 0.0735434 -0.934639)
(-0.295002 0.0583477 -1.66529)
(-0.876089 0.105946 -1.11636)
(-1.09503 0.135255 -1.28907)
(-1.30523 0.0181527 -1.12053)
(-1.07065 0.0723139 -1.04394)
(-0.0946326 -0.375073 -1.03494)
(0.0184803 -0.969749 -1.14207)
(1.39538 0.53061 -0.991037)
(1.09394 0.192538 -0.943395)
(0.57242 0.255427 -0.908566)
(0.0843499 0.324268 -1.16243)
(-0.141941 0.014486 -1.66215)
(0.0179838 -0.163406 -1.68197)
(-0.00997866 -0.395258 -1.71708)
(-0.567332 -0.379776 -1.3674)
(-0.527612 -0.300789 -1.32228)
(-0.412612 -0.524332 -1.10042)
(-0.215553 -0.663251 -0.834226)
(0.313043 -0.836584 -1.29003)
(-0.350032 -0.560863 -1.28331)
(-0.621693 -0.0538188 -1.43941)
(1.58608 0.485567 -1.70041)
(1.28395 -0.0213507 -1.43276)
(1.06178 0.0546035 -1.14812)
(0.640849 -0.165699 -1.17448)
(0.575371 -0.534557 -1.51015)
(0.914522 -0.583603 -1.64427)
(0.976605 -0.614217 -1.63285)
(0.231948 -0.825802 -1.41296)
(0.321857 -0.815346 -1.2114)
(0.0797745 -0.928062 -1.15231)
(-0.0528723 -0.826315 -0.993682)
(-0.16979 -0.341305 -1.74279)
(-0.582292 0.13463 -1.68762)
(-0.608347 0.499293 -1.48852)
(-0.188109 0.756267 -1.14425)
(1.50707 0.989449 -2.16997)
(1.17026 0.0886467 -1.70983)
(0.80445 -0.456673 -1.30104)
(0.871072 -0.411575 -1.24438)
(0.646227 -0.943321 -1.29864)
(0.642186 -0.845057 -1.8804)
(0.507126 -0.648 -2.18483)
(0.0673938 -0.606996 -1.90598)
(0.119777 -0.475449 -1.5451)
(0.00972414 -0.549926 -1.49573)
(-0.248361 -0.400336 -1.40987)
(-0.315066 0.213424 -1.80752)
(-0.254561 0.273429 -1.43936)
(0.014293 0.194292 -1.14523)
(0.615861 -0.480142 -0.532622)
(0.501065 -0.705779 -0.258176)
(1.69466 0.9235 -2.37862)
(1.53722 0.0459774 -2.40505)
(0.844532 -0.453783 -2.07921)
(0.600925 -0.589644 -1.76956)
(0.281606 -0.6795 -2.09854)
(0.28519 -0.495239 -2.49473)
(0.393633 -0.0353198 -2.59686)
(0.61922 0.415717 -2.40628)
(0.607241 0.390763 -2.28232)
(0.307915 -0.0684999 -2.02035)
(0.279294 -0.179739 -1.48509)
(-0.166202 -0.244864 -1.35396)
(1.271 -0.13391 -0.175251)
(1.14033 -0.962352 -0.111935)
(1.39177 -1.53864 -0.145464)
(1.12395 -1.69234 -0.166946)
(0.931188 -1.63469 -0.159259)
(-0.329379 2.3927 2.67744)
(-0.33119 2.59054 2.79201)
(-0.286854 2.47681 3.09094)
(-0.395113 2.76818 2.8836)
(-0.328502 2.71569 3.11042)
(-0.129051 2.60327 3.32874)
(-0.47635 2.9517 3.2105)
(-0.48116 2.93678 3.32304)
(-0.221525 2.94952 3.34137)
(0.100238 2.85037 3.46299)
(-0.653453 2.91138 3.57942)
(-0.55037 3.015 3.51041)
(-0.433302 2.98538 3.4905)
(0.124058 2.97325 3.55944)
(0.0398686 2.91996 3.76591)
(-0.853487 2.99172 3.69021)
(-0.940104 2.97995 3.69177)
(-0.67573 3.03389 3.59607)
(0.206853 3.0908 3.61175)
(0.214211 3.15836 3.52509)
(-0.191899 2.92078 3.77013)
(-1.16123 2.77344 3.68242)
(-0.854971 2.76399 3.58073)
(-0.79832 2.83117 3.42423)
(0.316403 3.69898 2.8723)
(-0.961931 3.182 3.51925)
(0.387164 3.79189 2.54487)
(0.0683678 3.74063 2.89454)
(-1.16517 2.88002 3.15354)
(-1.15194 2.83364 2.70386)
(-0.26341 3.75962 1.9598)
(-1.07135 3.49097 2.43544)
(-0.846681 3.67561 2.42635)
(-0.722097 4.07812 2.01744)
(-0.0636713 4.34892 2.33518)
(-0.169514 4.2282 2.4909)
(-1.44871 3.16691 1.78233)
(-1.39246 3.58257 1.43328)
(-1.50331 3.97708 1.82618)
(-1.07236 4.47651 1.77195)
(-0.81265 4.15642 2.07583)
(-1.42373 4.23954 2.34731)
(-0.297208 3.69212 2.50798)
(-0.746855 3.39476 2.42088)
(-1.03433 3.058 1.79487)
(-1.78429 4.00751 0.783375)
(-1.57431 4.4432 1.30608)
(-1.26715 4.10525 1.80443)
(-1.35669 3.64043 2.99445)
(-0.615354 3.16361 2.26249)
(-1.13861 2.48918 2.41467)
(-0.488534 2.33112 2.56872)
(-1.14483 2.04581 1.91216)
(-0.777767 2.09858 1.60962)
(-1.17342 2.23511 0.811736)
(-1.16802 3.3628 1.7123)
(-0.676338 3.30521 1.94099)
(0.0846059 2.80672 2.21049)
(0.40319 2.43416 2.43581)
(-0.201101 1.75223 2.24032)
(-0.727457 1.2564 1.92932)