/*--------------------------------*- C++ -*----------------------------------*\
  =========                 |
  \\      /  F ield         | OpenFOAM: The Open Source CFD Toolbox
   \\    /   O peration     | Website:  https://openfoam.org
    \\  /    A nd           | Version:  7
     \\/     M anipulation  |
\*---------------------------------------------------------------------------*/
FoamFile
{
    version     2.0;
    format      ascii;
    class       volVectorField;
    location    "8.5";
    object      U_0;
}
// * * * * * * * * * * * * * * * * * * * * * * * * * * * * * * * * * * * * * //

dimensions      [0 1 -1 0 0 0 0];

internalField   nonuniform List<vector> 
18870
(
(0.931985 0.358639 -2.86122)
(0.506539 0.761651 -2.67934)
(1.06623 0.383114 -2.82921)
(1.10319 -0.213706 -2.41944)
(0.785241 0.874042 -2.39894)
(0.359157 0.720298 -2.72857)
(0.398079 0.353444 -2.58973)
(1.20131 0.423138 -2.82905)
(1.12369 -0.199091 -2.42871)
(0.714368 -0.356385 -2.29754)
(0.915765 2.09124 -2.31488)
(0.98092 0.846105 -1.99296)
(0.713909 0.984528 -2.23225)
(0.24629 0.676773 -2.79128)
(0.260145 0.29882 -2.47889)
(0.609058 0.191739 -2.3603)
(1.31606 0.47067 -2.86411)
(1.15709 -0.174224 -2.43614)
(0.71189 -0.350634 -2.27303)
(0.813024 -0.389094 -2.38706)
(0.920776 2.87819 -0.769647)
(0.800804 1.93479 -2.56551)
(0.216606 1.29962 -2.9738)
(1.26291 0.813632 -1.64629)
(1.0208 1.09283 -1.87034)
(1.00175 0.734613 -2.19033)
(0.3586 0.635185 -2.797)
(0.142535 0.203349 -2.35994)
(0.650742 0.166872 -2.15136)
(0.783281 -0.202791 -2.31975)
(1.41179 0.526442 -2.91352)
(1.19727 -0.150368 -2.4425)
(0.718639 -0.361295 -2.24581)
(0.788958 -0.390726 -2.30844)
(0.393075 -0.595583 -2.82211)
(1.38169 2.89269 -1.24231)
(0.971434 2.97177 -1.13486)
(1.16871 2.86203 -1.42145)
(0.704851 1.82581 -2.7994)
(0.425973 1.29619 -2.51524)
(1.45222 1.456 -1.39155)
(1.44202 0.776952 -1.50779)
(1.23975 1.0744 -1.6264)
(1.07117 0.619147 -1.97251)
(1.17047 0.645585 -1.82789)
(0.502983 0.63516 -2.74485)
(0.187313 0.140219 -2.18076)
(0.753194 0.151121 -1.91801)
(0.763533 -0.228117 -2.19149)
(0.80153 -0.694925 -2.21292)
(1.51716 0.597631 -2.93643)
(1.23167 -0.129521 -2.4486)
(0.715268 -0.374946 -2.21876)
(0.765477 -0.394213 -2.24027)
(0.407522 -0.594491 -2.74946)
(0.419583 -0.360295 -3.12932)
(1.60399 3.40198 -0.496922)
(1.50695 3.06253 -1.85561)
(1.69996 2.65896 -1.70533)
(1.37638 2.87476 -1.28756)
(1.27587 2.57565 -1.42384)
(1.48105 2.10528 -2.33003)
(0.87689 1.83635 -2.38719)
(0.958144 1.20332 -1.81316)
(1.34048 1.20054 -1.32018)
(1.52442 1.02563 -1.67548)
(1.5091 0.751427 -1.44005)
(1.30878 1.00622 -1.50642)
(1.15444 0.573516 -1.72026)
(1.17405 0.545196 -1.64659)
(1.27398 0.0324463 -1.93562)
(0.724351 0.658048 -2.63757)
(0.398235 0.135735 -1.95466)
(0.835397 0.136201 -1.68793)
(0.714568 -0.269495 -2.0463)
(0.816281 -0.728588 -2.0982)
(0.919952 -0.481969 -2.73971)
(1.5775 0.645963 -2.95611)
(1.2605 -0.110463 -2.45146)
(0.704683 -0.390634 -2.19412)
(0.745516 -0.399077 -2.18081)
(0.414142 -0.594732 -2.6789)
(0.430165 -0.36478 -3.07174)
(0.508544 0.0256882 -3.08731)
(1.48273 3.44622 -0.549405)
(1.70462 3.55168 -1.28549)
(1.89396 3.34809 -1.496)
(1.47249 3.08847 -2.02244)
(2.23085 2.45973 -1.82644)
(2.28135 2.53531 -0.771106)
(1.15656 2.8705 -1.30345)
(1.48265 2.39082 -1.44105)
(1.63614 2.118 -1.58147)
(1.51318 1.66543 -2.50056)
(0.762004 1.7689 -1.78692)
(1.41599 1.11444 -1.24582)
(1.23643 1.07369 -1.41373)
(1.59168 1.02887 -1.55814)
(2.07088 0.729179 -1.5555)
(1.49784 0.684536 -1.41052)
(1.35024 0.882028 -1.35235)
(1.14461 0.520138 -1.53317)
(1.20241 0.44394 -1.54796)
(1.31651 -0.0512589 -1.76137)
(1.52651 -0.276595 -2.03774)
(0.908895 0.692255 -2.5187)
(0.64333 0.163782 -1.73346)
(0.857581 0.100061 -1.48476)
(0.67143 -0.326577 -1.88566)
(0.872605 -0.75059 -2.00757)
(0.91037 -0.514385 -2.64175)
(0.788388 -0.214189 -2.77582)
(1.59739 0.677332 -2.94908)
(1.29567 -0.0872662 -2.44919)
(0.704354 -0.406374 -2.17033)
(0.722396 -0.404949 -2.12623)
(0.414861 -0.598912 -2.60954)
(0.445398 -0.357832 -3.01804)
(0.479847 0.017544 -3.08546)
(0.463942 0.240527 -2.708)
(0.496788 3.6598 -0.158174)
(0.83838 4.04532 -0.443071)
(1.51144 3.77098 -0.864729)
(1.49007 3.59466 -1.51038)
(2.01249 3.30817 -1.06078)
(2.2477 2.96599 -1.8512)
(1.7565 2.97025 -1.60078)
(2.27138 2.34763 -1.32687)
(1.93331 2.18499 -0.842821)
(2.31619 2.40336 -1.17168)
(1.42036 2.1819 -1.86328)
(1.90715 2.30908 -1.00772)
(1.5114 1.9593 -1.51645)
(1.36144 1.56104 -2.28256)
(1.57945 1.1603 -2.0424)
(0.817221 1.45595 -1.57132)
(1.55731 1.0365 -1.08374)
(1.0963 0.967799 -1.59477)
(1.52591 0.993827 -1.5654)
(1.87713 0.713139 -1.5545)
(1.50602 -0.0674416 -2.0547)
(1.4606 0.60479 -1.38807)
(1.30408 0.744259 -1.26691)
(1.15156 0.504997 -1.40112)
(1.27811 0.399852 -1.43982)
(1.30251 -0.115015 -1.66453)
(1.49137 -0.298571 -1.92515)
(1.49983 -0.551766 -2.00278)
(1.05363 0.706787 -2.41677)
(0.854208 0.199334 -1.55644)
(0.841657 0.0445603 -1.34202)
(0.741094 -0.326645 -1.69113)
(0.925856 -0.770919 -1.9126)
(0.901398 -0.552721 -2.54267)
(0.771479 -0.280976 -2.68523)
(0.641195 -0.25494 -2.3839)
(1.62536 0.726785 -2.89443)
(1.36452 -0.0472607 -2.44142)
(0.705419 -0.421903 -2.14997)
(0.70011 -0.418801 -2.07397)
(0.410556 -0.60271 -2.54204)
(0.459454 -0.385603 -2.95953)
(0.472241 -0.00762631 -3.04062)
(0.443485 0.228416 -2.80231)
(1.09266 0.594837 -2.31672)
(0.724078 2.99984 1.22964)
(1.10253 3.85059 -0.267097)
(0.263184 3.81855 0.252194)
(0.867761 4.06183 -0.517955)
(1.45316 3.95275 -1.12347)
(2.80761 3.48963 -0.527874)
(1.63283 3.54081 -1.41074)
(2.06471 3.28638 -0.86097)
(2.42321 2.68819 -0.973097)
(2.52729 2.54684 -0.540627)
(1.95584 3.06902 -0.324488)
(2.19264 2.06437 -0.769826)
(1.83514 1.91068 -0.583634)
(2.24849 2.25889 -1.00976)
(2.13343 1.86643 -1.66633)
(1.40051 2.22358 -1.54684)
(1.90496 2.21414 -0.660138)
(1.42332 1.86395 -1.47171)
(1.29145 1.46424 -1.85605)
(1.47323 1.06229 -1.97029)
(1.31265 0.787821 -1.97764)
(0.929467 1.46935 -1.21556)
(1.51601 0.911533 -1.15887)
(0.938567 0.831392 -1.73266)
(1.41224 0.932312 -1.52956)
(1.69476 0.657526 -1.55475)
(1.31749 -0.178677 -2.053)
(1.03771 -0.315198 -1.88093)
(1.3696 0.549426 -1.46024)
(1.23435 0.622353 -1.29417)
(1.18392 0.473168 -1.26101)
(1.3132 0.312004 -1.34519)
(1.2252 -0.209528 -1.61643)
(1.44796 -0.358419 -1.84453)
(1.43567 -0.55901 -1.9372)
(0.943532 -0.626653 -1.86304)
(1.18591 0.789811 -2.3302)
(0.979859 0.204996 -1.45894)
(0.83438 -0.0119173 -1.26054)
(0.847227 -0.296469 -1.52889)
(0.909914 -0.782284 -1.82932)
(0.873808 -0.594558 -2.45006)
(0.738001 -0.337769 -2.59812)
(0.568362 -0.305848 -2.33908)
(0.965524 -0.312441 -2.09865)
(1.6403 0.744997 -2.83847)
(1.42623 -0.0239756 -2.43627)
(0.713415 -0.436343 -2.13046)
(0.683998 -0.433354 -2.02297)
(0.401485 -0.609096 -2.47705)
(0.461823 -0.372833 -2.89941)
(0.468055 0.0102168 -2.98555)
(0.422908 0.219754 -2.8533)
(1.25796 0.625958 -2.3275)
(0.906472 0.10888 -2.23064)
(0.900455 2.75725 2.29661)
(0.614437 3.12406 1.12072)
(0.126475 3.20418 0.994769)
(0.0883333 4.02839 0.0362224)
(0.568421 4.10776 -0.25905)
(0.996036 3.99107 0.276758)
(0.572141 4.08883 -0.322546)
(1.42069 4.15707 0.218269)
(1.64216 4.19878 -0.248263)
(2.77947 3.40088 -0.822922)
(1.45492 3.62354 -0.96955)
(1.92262 3.23044 -0.539588)
(1.88486 2.63055 -0.51541)
(2.36837 2.2445 -0.149605)
(2.39308 1.9735 -0.77381)
(2.2646 2.75351 -0.444528)
(1.98851 2.00633 -0.480998)
(1.71825 1.82915 -0.734096)
(2.02775 2.11199 -0.910418)
(1.93124 1.59752 -1.48457)
(1.58333 1.26868 -0.856646)
(1.66772 1.54005 -2.12604)
(1.71372 1.97537 -0.651245)
(1.24012 1.78961 -1.28194)
(1.13188 1.36834 -1.57471)
(1.29415 0.960104 -2.0518)
(1.0999 0.701045 -1.84036)
(0.583979 0.639825 -1.84917)
(1.26919 1.28668 -1.00673)
(1.47488 0.730945 -1.33561)
(0.960334 0.860276 -1.42947)
(1.18524 0.858383 -1.52927)
(1.44582 0.589771 -1.63717)
(1.24865 -0.0897442 -1.95981)
(0.984822 -0.26317 -1.84224)
(0.331995 -0.265991 -1.55134)
(1.33658 0.203475 -1.70894)
(1.24418 0.510439 -1.34098)
(1.1792 0.43424 -1.14916)
(1.24857 0.237944 -1.30475)
(1.0851 -0.304871 -1.59385)
(1.46437 -0.359657 -1.77501)
(1.36098 -0.578544 -1.86903)
(0.814321 -0.672048 -1.84613)
(0.997634 -0.826009 -1.48675)
(1.22796 0.771407 -2.32944)
(0.984211 0.157274 -1.46332)
(0.834954 -0.0421219 -1.23112)
(0.887686 -0.299491 -1.41571)
(0.855784 -0.823356 -1.74148)
(0.846971 -0.638543 -2.35657)
(0.709896 -0.395048 -2.51236)
(0.47301 -0.36575 -2.28303)
(0.869213 -0.326074 -2.04166)
(0.631662 -0.414305 -1.94796)
(1.64556 0.772258 -2.76894)
(1.4446 -0.018559 -2.43427)
(0.725241 -0.4493 -2.11294)
(0.66899 -0.449919 -1.97516)
(0.389152 -0.615547 -2.41479)
(0.447699 -0.389895 -2.83981)
(0.456559 -0.0114148 -2.9307)
(0.392533 0.206287 -2.83963)
(1.4093 0.681048 -2.35153)
(0.769615 0.0851352 -2.19825)
(0.240151 -0.200098 -1.54179)
(0.547549 2.94173 3.17198)
(0.73896 2.95394 2.13402)
(0.517034 2.82253 2.2)
(0.279044 3.10941 1.27264)
(0.197514 3.14588 0.911014)
(-0.18986 3.56661 0.911301)
(-0.00133678 4.09456 0.36791)
(0.188107 4.43602 -0.0727159)
(0.321228 4.61803 0.527045)
(2.0389 3.97196 0.947225)
(0.218797 4.11332 -0.360409)
(0.713137 4.28385 0.595646)
(1.79059 4.04341 -0.160887)
(2.46742 3.5326 -0.387386)
(2.6188 2.44105 -0.141214)
(0.98055 3.47342 -0.518666)
(1.28226 3.04222 -0.344377)
(1.78052 2.22527 0.159815)
(2.1607 2.02609 -0.108159)
(2.27039 1.7217 -0.119169)
(1.62565 1.53473 -0.107876)
(1.63437 2.86124 0.0583453)
(1.76056 1.84865 -0.264677)
(1.94308 1.68146 -0.230874)
(1.84182 1.87143 -0.91394)
(1.68562 1.3989 -0.949348)
(1.26119 1.09975 -0.454776)
(1.17078 1.06056 -1.61583)
(1.63576 1.6552 -1.39854)
(1.55164 1.7841 -0.569294)
(1.14012 1.50961 -1.30826)
(0.990341 1.24253 -1.51656)
(1.04763 0.910145 -2.05744)
(0.893246 0.635553 -1.80875)
(0.520835 0.563497 -1.78786)
(0.108779 0.367699 -1.68892)
(1.37854 1.32475 -0.713071)
(1.36472 0.614103 -1.38459)
(0.913106 0.780397 -1.2997)
(0.883704 0.684456 -1.63248)
(1.17391 0.502042 -1.72428)
(0.991932 -0.129455 -1.96788)
(0.683682 -0.397274 -1.85285)
(0.211577 -0.262391 -1.58482)
(0.421682 -0.48241 -1.2362)
(1.43813 0.47029 -1.56256)
(1.25844 0.501648 -1.35472)
(1.13441 0.376677 -1.08299)
(1.19078 0.210896 -1.27927)
(0.913812 -0.397771 -1.57423)
(1.40534 -0.396578 -1.75653)
(1.22715 -0.599667 -1.80679)
(0.822456 -0.64744 -1.77712)
(0.889972 -0.811879 -1.46556)
(0.717821 -0.941422 -1.4728)
(1.28565 0.806534 -2.29944)
(0.951129 0.0541782 -1.51507)
(0.851007 -0.123058 -1.21914)
(0.87851 -0.323653 -1.34445)
(0.835712 -0.817935 -1.65639)
(0.817615 -0.676975 -2.27189)
(0.688694 -0.437281 -2.433)
(0.394049 -0.425006 -2.21098)
(0.760005 -0.338258 -1.97022)
(0.539632 -0.426046 -1.86661)
(0.060842 -0.342631 -1.72547)
(1.64424 0.783038 -2.69785)
(1.43832 -0.0260606 -2.42776)
(0.748888 -0.459757 -2.0979)
(0.654453 -0.467428 -1.93229)
(0.374701 -0.623 -2.35455)
(0.432693 -0.39614 -2.782)
(0.455759 -0.00690056 -2.87266)
(0.404348 0.212294 -2.78761)
(1.37904 0.691853 -2.3662)
(0.638 0.0515522 -2.16296)
(0.257153 -0.197721 -1.53998)
(0.0245988 -0.116667 -1.31188)
(0.467812 2.91879 3.47513)
(0.941606 3.05053 3.04371)
(0.37404 2.90598 3.20668)
(0.487868 2.88376 2.1938)
(0.288311 2.77118 1.96974)
(0.0296337 2.7854 2.17083)
(0.146228 3.27927 1.05085)
(0.0908447 3.53271 0.480752)
(-0.365359 3.87897 0.926426)
(1.05741 4.37571 0.590097)
(0.39312 4.30349 0.402943)
(0.0260868 4.39564 0.0957652)
(0.422063 4.84944 0.918759)
(1.37481 4.49096 0.974511)
(1.58407 4.12578 -0.135725)
(0.388014 3.97356 -0.150407)
(0.498743 4.19084 0.688713)
(0.550435 3.98685 0.395731)
(1.70485 3.29959 0.75703)
(1.8262 2.4053 0.596347)
(1.82415 1.96708 0.89568)
(0.690189 3.18327 0.37889)
(1.03479 2.81042 0.277507)
(1.0957 2.35878 -0.0535813)
(1.88444 1.8614 0.127249)
(1.89339 1.67682 0.0105557)
(1.58599 1.3192 0.232084)
(1.35348 1.38687 -0.579385)
(1.23056 2.43123 0.266656)
(1.52177 1.79493 0.227562)
(1.71172 1.67824 -0.2191)
(1.69987 1.68606 -0.600566)
(1.50543 1.08905 -0.648771)
(0.935067 0.808513 -0.803988)
(0.901199 0.89017 -1.34173)
(0.00616705 0.563761 -1.08283)
(1.62664 1.56751 -0.780534)
(1.41467 1.46265 -0.706556)
(1.15611 1.44234 -0.827696)
(1.15577 1.30988 -1.03956)
(0.885345 0.80693 -1.8839)
(0.562998 0.518487 -1.80374)
(0.459622 0.579963 -1.87005)
(-0.101723 0.330704 -1.73778)
(-0.0933124 0.123216 -1.72327)
(1.40848 1.03876 -0.767118)
(1.27676 0.47767 -1.38648)
(0.890973 0.694398 -1.11171)
(0.816526 0.685883 -1.37383)
(0.908735 0.414929 -1.7406)
(0.852319 -0.112089 -1.89447)
(0.543232 -0.286634 -1.82032)
(0.105831 -0.276911 -1.57272)
(0.241999 -0.465774 -1.31448)
(0.387112 -0.718965 -1.30933)
(1.36775 0.286269 -1.69024)
(1.21168 0.301764 -1.467)
(1.11875 0.291988 -1.01489)
(1.17567 0.172 -1.20705)
(0.785975 -0.487151 -1.54455)
(1.32116 -0.397825 -1.73207)
(1.05852 -0.644244 -1.76053)
(0.723879 -0.660487 -1.69855)
(0.72787 -0.820454 -1.41135)
(0.551163 -0.943468 -1.39353)
(0.450747 -0.830872 -1.38111)
(1.36914 0.885883 -2.27782)
(0.985488 0.0453845 -1.52995)
(0.829555 -0.177413 -1.23761)
(0.865386 -0.366301 -1.30918)
(0.784122 -0.834715 -1.57567)
(0.787763 -0.71715 -2.19259)
(0.650193 -0.484598 -2.36846)
(0.334229 -0.469814 -2.13721)
(0.634504 -0.350239 -1.88865)
(0.430874 -0.446543 -1.78947)
(0.00755024 -0.36344 -1.66162)
(-0.0305382 0.264282 -1.90384)
(1.64282 0.787715 -2.63009)
(1.44379 -0.0288587 -2.41848)
(0.762905 -0.464416 -2.09241)
(0.64077 -0.488481 -1.89389)
(0.358015 -0.630983 -2.29731)
(0.409854 -0.410009 -2.72284)
(0.459501 -0.00436072 -2.81239)
(0.458539 0.24215 -2.71647)
(1.24093 0.660468 -2.36422)
(0.524698 0.0163653 -2.12718)
(0.209728 -0.212327 -1.54196)
(-0.0204837 -0.135994 -1.32954)
(1.25388 -0.184578 -0.493548)
(0.479505 2.91818 3.35771)
(0.608672 2.98768 3.46093)
(0.175171 2.99275 3.54743)
(0.0436598 3.04305 3.2182)
(0.408815 2.94167 3.09555)
(0.409764 2.73972 3.20842)
(0.0910165 3.00127 1.85097)
(0.0894257 2.69226 2.01)
(-0.33749 2.66532 2.29525)
(0.384419 3.58079 1.39677)
(-0.113992 3.23607 1.0747)
(-0.425136 3.64043 0.447986)
(0.118815 4.41961 0.396993)
(0.587504 4.67227 0.802416)
(1.23545 4.49891 1.28876)
(-0.560463 4.37346 0.592434)
(-0.124443 4.45363 0.342695)
(0.422875 4.7912 1.05464)
(0.998883 4.67642 1.11334)
(2.15581 3.51452 0.865669)
(1.62724 3.06214 1.52472)
(0.476597 3.98615 0.0975029)
(0.182913 4.02141 1.06208)
(1.09334 3.66194 0.952924)
(1.37339 3.13029 1.4472)
(1.68441 2.1773 1.14828)
(1.80146 1.56851 0.998951)
(1.29538 1.54805 0.991083)
(0.876279 3.1436 0.491371)
(0.818822 2.76525 0.394037)
(1.20608 1.99867 0.763056)
(1.71762 1.72165 0.271534)
(1.74602 1.43001 0.414621)
(1.72951 1.30168 -0.307524)
(0.987053 1.18566 -0.275799)
(0.00329709 0.788337 0.374595)
(1.15064 2.05848 0.279226)
(1.4314 1.70955 0.231764)
(1.5135 1.55438 -0.36964)
(1.6911 1.54999 -0.568606)
(1.24125 0.968803 -0.253642)
(0.809217 0.562186 -0.912295)
(0.637912 0.915441 -1.21056)
(-0.105577 0.357425 -1.09283)
(-0.557671 0.815715 -1.26784)
(1.51969 1.40019 -0.743192)
(1.27981 1.2863 -0.516138)
(0.995457 1.23789 -1.01764)
(0.948169 1.03864 -1.23376)
(0.361361 0.553771 -1.88447)
(0.325095 0.392745 -1.71549)
(0.328826 0.459185 -1.87456)
(-0.275103 0.264764 -1.66381)
(-0.366307 0.123665 -1.63496)
(-0.398045 0.0823766 -1.36953)
(1.3522 0.849423 -0.908561)
(1.29901 0.484871 -1.16832)
(0.809544 0.587218 -1.03776)
(0.666114 0.610606 -1.28256)
(0.579259 0.287942 -1.774)
(0.719471 -0.0482746 -1.81363)
(0.385728 -0.37132 -1.80696)
(-0.0686995 -0.28315 -1.56)
(-0.0167727 -0.391853 -1.36964)
(0.157087 -0.681535 -1.27351)
(0.294667 -0.862514 -0.820405)
(1.50916 0.309881 -1.68659)
(1.28915 0.258552 -1.4647)
(1.08181 0.207368 -1.01268)
(1.05486 0.0923403 -1.19022)
(0.718102 -0.540734 -1.53206)
(1.29369 -0.417289 -1.6562)
(1.01204 -0.654909 -1.71897)
(0.49221 -0.765766 -1.62547)
(0.598283 -0.842975 -1.33667)
(0.450188 -0.923348 -1.30844)
(0.350009 -0.823135 -1.28679)
(0.0244916 -0.291883 -2.02986)
(1.42123 0.900535 -2.2844)
(1.01673 -0.0101311 -1.55059)
(0.782247 -0.204976 -1.25067)
(0.907609 -0.356584 -1.27256)
(0.741998 -0.867923 -1.49674)
(0.771166 -0.752607 -2.10998)
(0.614937 -0.527503 -2.31185)
(0.251125 -0.516528 -2.07436)
(0.492281 -0.371 -1.80483)
(0.320035 -0.47152 -1.71089)
(-0.0505328 -0.380817 -1.59619)
(-0.115586 0.245575 -1.89009)
(-0.0138115 0.182976 -1.52745)
(1.63959 0.797711 -2.57077)
(1.4623 -0.019682 -2.4088)
(0.786038 -0.46351 -2.0879)
(0.629188 -0.511642 -1.85887)
(0.339259 -0.641038 -2.24286)
(0.381587 -0.42626 -2.66545)
(0.456928 -0.00369137 -2.75637)
(0.521093 0.285066 -2.64023)
(1.06899 0.603171 -2.35503)
(0.433274 -0.0177731 -2.09404)
(0.275927 -0.197065 -1.52649)
(-0.0574666 -0.156455 -1.33735)
(1.30939 -0.161829 -0.395677)
(1.1591 -0.990142 -0.0217559)
(0.578271 3.10781 2.82008)
(0.0422072 2.83351 3.42899)
(0.0884351 3.02354 3.51079)
(-0.0713834 3.11444 3.54701)
(0.229672 3.03181 3.62725)
(0.346043 2.9608 3.60638)
(-0.0135493 3.10775 3.09257)
(-0.0244644 2.86005 3.08049)
(-0.0670424 2.63261 3.35182)
(0.739324 3.10832 2.37083)
(-0.0488636 2.96095 2.09154)
(-0.190575 2.80892 2.02941)
(-0.26866 2.98799 2.10706)
(0.516235 3.67587 1.44609)
(0.546812 4.09661 1.80497)
(-0.27047 3.41782 1.06159)
(-0.664422 3.55822 0.790456)
(-0.555899 4.27892 1.07133)
(0.498575 4.73786 0.847173)
(0.806726 4.42293 1.44503)
(1.22502 4.35379 1.65597)
(-0.970618 4.16191 0.641325)
(-0.798929 4.45506 0.704024)
(-0.26753 4.611 1.36393)
(-0.109774 4.37552 1.64999)
(1.15516 3.55808 1.51706)
(1.59433 2.95458 1.81364)
(1.59851 2.41553 1.43869)
(0.231682 4.03844 0.482833)
(0.407498 4.02911 0.938606)
(1.07567 3.7255 1.06493)
(0.608667 3.06682 1.71513)
(1.33479 2.16738 1.61125)
(1.21482 1.38285 1.35591)
(1.03488 1.44342 1.32201)
(0.259462 1.22817 0.719067)
(1.12429 3.21281 0.499739)
(0.842072 2.67704 0.539888)
(1.03881 2.03495 0.862551)
(1.05432 1.46595 0.613229)
(1.0283 1.44499 0.606769)
(1.64126 1.12394 -0.098779)
(0.484004 0.82397 0.234059)
(0.29918 0.336127 1.11813)
(0.174835 1.1613 0.131897)
(0.992127 2.02973 0.551868)
(1.25286 1.69829 0.147068)
(1.26402 1.53607 -0.239509)
(1.40654 1.32841 -0.69621)
(1.02742 0.713399 0.227581)
(0.638155 0.396827 -0.634054)
(0.335964 0.730066 -1.37733)
(-0.389915 0.309154 -0.739386)
(-0.921524 0.640188 -1.08346)
(-0.522902 0.777066 -1.28392)
(1.3504 1.28521 -0.392106)
(1.17719 1.12135 -0.449548)
(0.916989 1.13697 -0.951609)
(0.803646 0.926123 -1.22454)
(0.267007 0.504968 -1.55258)
(0.0665264 0.289548 -1.46832)
(0.175009 0.308443 -1.89891)
(-0.509365 0.267022 -1.33537)
(-0.580713 0.145723 -1.59622)
(-0.806422 0.0219424 -1.20348)
(-0.511401 -0.149238 -1.14393)
(1.44205 0.706106 -0.89337)
(1.27717 0.402865 -1.06951)
(0.727303 0.456239 -0.998328)
(0.444738 0.528305 -1.26526)
(0.33957 0.202071 -1.79736)
(0.430648 -0.11919 -1.75913)
(0.229116 -0.422951 -1.78061)
(-0.137405 -0.274424 -1.54406)
(-0.143928 -0.36538 -1.38859)
(-0.0612555 -0.636084 -1.21871)
(0.141815 -0.78542 -0.834669)
(0.654431 -0.837465 -1.62933)
(1.5901 0.470409 -1.68276)
(1.30472 0.213346 -1.45579)
(1.05495 0.164022 -1.03344)
(0.902547 0.00739768 -1.17919)
(0.766054 -0.429801 -1.51445)
(1.11743 -0.499646 -1.66088)
(0.961112 -0.690986 -1.6894)
(0.47314 -0.742014 -1.55522)
(0.531449 -0.855438 -1.26388)
(0.311072 -0.939883 -1.23704)
(0.22465 -0.828865 -1.19283)
(-0.0104107 -0.322664 -1.9428)
(-0.449533 0.172739 -1.84672)
(1.47773 0.968194 -2.24165)
(1.03085 -0.0325467 -1.61602)
(0.773848 -0.401323 -1.22891)
(0.928866 -0.345834 -1.24713)
(0.720708 -0.886636 -1.42426)
(0.740663 -0.782299 -2.0346)
(0.573502 -0.570161 -2.2663)
(0.187416 -0.554522 -2.01194)
(0.356408 -0.401257 -1.71865)
(0.209252 -0.49587 -1.6345)
(-0.111581 -0.391463 -1.53057)
(-0.195668 0.237464 -1.86866)
(-0.103181 0.213341 -1.50647)
(0.198126 0.144073 -1.18236)
(1.64628 0.822936 -2.51595)
(1.51164 0.0377494 -2.39264)
(0.803936 -0.467166 -2.08673)
(0.619864 -0.53497 -1.82765)
(0.319391 -0.652788 -2.19169)
(0.34998 -0.447068 -2.60841)
(0.443505 -0.00847146 -2.70228)
(0.571656 0.331277 -2.56221)
(0.893973 0.530231 -2.34102)
(0.367925 -0.0454994 -2.06474)
(0.271406 -0.194826 -1.51783)
(-0.0886695 -0.183379 -1.33305)
(1.34107 -0.137831 -0.25332)
(1.15033 -0.982715 -0.0547893)
(1.38678 -1.5593 -0.0410609)
(0.129128 2.68508 2.89672)
(-0.386102 3.11712 2.84997)
(0.0131477 3.05128 3.15623)
(-0.350266 2.93779 3.52714)
(-0.108032 3.0446 3.54465)
(0.144991 3.08651 3.49895)
(-0.247889 3.10662 3.55231)
(-0.462311 3.05883 3.60118)
(-0.346293 3.03063 3.65207)
(0.689781 2.988 3.4608)
(-0.303401 3.10055 3.16915)
(-0.29785 2.92405 3.06377)
(-0.196461 2.77646 3.19728)
(0.263679 3.09029 2.59135)
(0.0722579 3.20432 2.86056)
(-0.414046 2.78846 2.47367)
(-0.498756 2.59835 2.46864)
(-0.235124 3.27904 2.0687)
(0.344775 4.11667 1.30793)
(0.361364 4.18436 1.81686)
(0.44953 4.48292 1.59875)
(-0.440999 3.59831 1.16221)
(-0.877516 3.81896 0.964873)
(-0.293734 4.50262 0.956094)
(-0.0549964 4.4207 1.10365)
(0.0411219 4.2191 1.74066)
(0.173384 4.30742 2.1188)
(0.939863 3.64241 2.05042)
(-1.19435 4.05589 0.676653)
(-1.24935 4.28389 0.84597)
(-0.437195 4.61479 1.33605)
(1.30756 4.55771 1.00375)
(0.659572 3.54781 1.89427)
(0.790408 2.92232 2.34148)
(0.915896 2.337 2.26033)
(0.872155 2.10956 1.18373)
(-0.576538 3.7664 1.02185)
(0.197831 3.88688 1.22975)
(0.128212 3.43262 1.78324)
(1.21541 2.71689 1.82468)
(0.718492 2.09073 2.03523)
(0.362474 1.23695 1.5563)
(0.782341 1.15856 1.69205)
(-0.231106 1.14613 1.03261)
(-0.575007 1.13295 0.357002)
(0.288607 2.60023 1.3703)
(0.549364 2.13815 1.32972)
(0.631882 1.59105 1.33177)
(0.632721 1.18088 1.00169)
(1.11599 1.19556 0.826109)
(0.795328 1.05995 0.303479)
(0.49755 0.605687 0.649866)
(-0.983313 0.222428 0.771685)
(-0.155103 1.03537 1.06754)
(-0.673392 1.27397 -0.0236391)
(0.754867 1.77228 0.635392)
(0.988963 1.56482 0.26869)
(0.890383 1.39645 -0.199808)
(1.06783 1.00986 -0.563086)
(0.764214 0.277021 0.665744)
(0.361733 0.28875 -0.421878)
(0.178391 0.636214 -1.33011)
(-0.676093 0.209057 -0.415022)
(-1.10443 0.539845 -0.980436)
(-0.97064 0.63735 -1.00952)
(-1.15386 0.250418 -0.688281)
(1.13795 1.10201 -0.306145)
(1.03697 1.00254 -0.33994)
(0.755067 0.998144 -1.01369)
(0.709845 0.803977 -1.0689)
(0.142885 0.358341 -1.31177)
(-0.167119 0.181157 -1.15328)
(-0.157129 0.140362 -1.6992)
(-0.692304 0.157328 -1.15386)
(-0.920488 0.110449 -1.33676)
(-1.04721 0.00728067 -1.19024)
(-0.863726 -0.0496659 -0.970972)
(0.351118 -0.627944 -1.28699)
(1.39449 0.541406 -1.03118)
(1.19543 0.346004 -0.987124)
(0.641001 0.371328 -0.957718)
(0.26393 0.437326 -1.20841)
(0.105182 0.0899056 -1.76746)
(0.214854 -0.15181 -1.72791)
(0.278123 -0.29566 -1.77333)
(-0.37868 -0.301367 -1.44726)
(-0.29335 -0.330524 -1.39131)
(-0.272725 -0.561412 -1.15131)
(-0.119555 -0.662697 -0.913115)
(0.48581 -0.851835 -1.47828)
(-0.281736 -0.53823 -1.55851)
(1.56955 0.39942 -1.71288)
(1.26744 0.031413 -1.45348)
(0.981963 -0.037857 -1.14956)
(0.762941 -0.111635 -1.18338)
(0.730061 -0.446049 -1.50314)
(0.967795 -0.529353 -1.65891)
(0.948343 -0.617148 -1.67557)
(0.325682 -0.824062 -1.47714)
(0.384713 -0.838973 -1.24092)
(0.133973 -0.984281 -1.16936)
(0.0797335 -0.844394 -1.08745)
(-0.0848961 -0.331747 -1.84698)
(-0.535327 0.164968 -1.76714)
(-0.473957 0.507143 -1.55206)
(1.49859 0.950648 -2.22127)
(1.07524 -0.0349908 -1.68485)
(0.838491 -0.300508 -1.29743)
(0.882076 -0.389096 -1.24791)
(0.671966 -0.921317 -1.35745)
(0.696795 -0.808972 -1.95882)
(0.538526 -0.61385 -2.22431)
(0.118089 -0.586164 -1.95671)
(0.227887 -0.436446 -1.63521)
(0.103626 -0.520932 -1.56487)
(-0.181318 -0.396776 -1.46678)
(-0.256377 0.219697 -1.84229)
(-0.192467 0.244219 -1.47797)
(0.116236 0.176246 -1.1653)
(0.66347 -0.470688 -0.646067)
(1.68143 0.849513 -2.45518)
(1.5446 0.0600179 -2.39429)
(0.830985 -0.457627 -2.08169)
(0.609488 -0.560382 -1.80013)
(0.29891 -0.666087 -2.14437)
(0.316328 -0.471187 -2.55253)
(0.420903 -0.0199114 -2.65065)
(0.604404 0.376038 -2.48436)
(0.736747 0.456235 -2.31805)
(0.328716 -0.0625957 -2.04071)
(0.281338 -0.187998 -1.50363)
(-0.133787 -0.213129 -1.34806)
(1.32228 -0.124882 -0.156269)
(1.14367 -0.974983 -0.0855698)
(1.37292 -1.55583 -0.0515869)
(1.05152 -1.74399 -0.0647993)
(-0.2222 2.5162 2.83174)
(-0.205405 2.82413 2.86096)
(-0.103337 2.6806 3.10911)
(-0.331608 3.03008 3.01577)
(-0.0510545 3.05807 3.20356)
(0.00918632 3.01008 3.2912)
(-0.472953 2.94442 3.51674)
(-0.352762 3.03734 3.54703)
(-0.194884 3.05876 3.52694)
(0.276365 2.92819 3.5966)
(-0.554838 3.05319 3.61514)
(-0.542306 3.06571 3.6094)
(-0.507627 3.04615 3.5914)
(0.165949 3.07078 3.45942)
(0.25027 2.98102 3.64264)
(-0.404889 3.05972 3.41195)
(-0.68112 2.81175 3.39007)
(-0.401054 3.01485 3.12068)
(0.338099 3.76676 2.31121)
(1.59625 4.14706 1.88881)
(-0.0949672 3.37823 2.89572)
(-0.621498 2.81791 2.89086)
(-0.998107 2.43359 2.79403)
(-0.915215 2.96204 2.54551)
(-0.429955 3.78762 1.78066)
(-0.663079 3.5897 2.42676)
(-0.0524218 4.57486 1.52369)
(0.171259 4.37426 2.30315)
(-1.35339 3.12347 1.76002)
(-1.29307 3.73278 1.29247)
(-1.26796 4.31132 1.55356)
(-0.00647803 4.40456 1.24725)
(-0.563199 4.23216 1.96494)
(-0.494404 4.29737 2.30841)
(0.736332 3.66684 2.3427)
(0.146209 3.21496 2.33476)
(-1.77786 3.97277 0.82751)
(-0.953528 4.46315 1.13276)
(-0.773526 4.59225 1.4655)
(-0.70882 3.93679 2.75157)
(0.608378 3.52066 2.17065)
(-0.258612 2.83418 2.41139)
(0.451465 2.18466 2.67336)
(-0.136233 2.03775 1.76605)
(-0.70734 1.93976 1.06307)
(-0.944891 3.57919 1.5062)
(0.205464 3.89182 1.44312)
(0.73262 3.18762 1.72625)
(0.324268 2.62746 2.26275)
(0.813495 2.07213 2.17674)
(-0.190832 1.2093 1.74928)
(0.0542434 1.03695 1.78157)
(-0.641078 1.27508 1.45995)
(-1.39571 1.28025 0.25668)
(-0.529132 2.01347 0.313677)
(-0.255771 2.00769 1.95904)
(0.31847 1.88473 1.7048)
(0.652571 1.43779 1.5489)
(0.274415 0.875596 1.17911)
(0.587802 1.10015 1.34593)
(0.614618 0.910446 0.595491)
(-0.107827 0.423739 0.981545)
(-1.18641 -0.152362 0.831064)
(-0.960152 1.1978 1.06872)
(-0.979504 1.35915 0.538928)
(-1.48809 0.552444 -0.69314)
(0.417804 1.5664 0.710567)
(0.677411 1.38937 0.4669)
(0.696188 1.20646 -0.0224228)
(0.600795 0.653534 -0.293072)
(0.287283 -0.100283 0.926406)
(0.197024 0.131304 -0.0966609)
(-0.238376 0.469081 -1.09952)
(-0.91771 0.136525 -0.245581)
(-1.35289 0.453591 -0.568003)
(-1.42343 0.493494 -0.45235)
(-1.45625 0.0712065 -0.586676)
(-1.08929 0.676972 -0.730017)
(0.96245 0.893331 -0.355494)
(0.858845 0.892144 -0.3539)
(0.587473 0.823889 -0.968134)
(0.509591 0.669813 -1.06409)
(-0.0465629 0.242633 -1.17328)
(-0.375007 0.0695153 -0.928797)
(-0.302294 0.0570114 -1.6664)
(-0.884848 0.108111 -1.11567)
(-1.10035 0.137001 -1.29604)
(-1.32003 0.0216703 -1.10914)
(-1.07998 0.0789619 -1.03771)
(-0.0959018 -0.372393 -1.0337)
(0.0169748 -0.967515 -1.1458)
(1.39647 0.52523 -0.985526)
(1.09724 0.184632 -0.940083)
(0.573795 0.243221 -0.906364)
(0.077603 0.316212 -1.15826)
(-0.148368 0.0094557 -1.65841)
(0.0111654 -0.166846 -1.68103)
(-0.0144793 -0.399394 -1.71565)
(-0.572158 -0.382118 -1.36563)
(-0.533526 -0.304408 -1.31871)
(-0.418133 -0.524299 -1.09781)
(-0.2232 -0.664093 -0.82477)
(0.307767 -0.836607 -1.29053)
(-0.35559 -0.558826 -1.2834)
(-0.626174 -0.0500022 -1.43728)
(1.58683 0.476756 -1.69815)
(1.28464 -0.0329765 -1.43387)
(1.06004 0.0442268 -1.14794)
(0.639008 -0.17169 -1.17291)
(0.572144 -0.538181 -1.50639)
(0.908648 -0.588111 -1.63912)
(0.970538 -0.617933 -1.62963)
(0.228639 -0.827933 -1.41434)
(0.317575 -0.818809 -1.2101)
(0.0725504 -0.931719 -1.14735)
(-0.058358 -0.829642 -0.988493)
(-0.172578 -0.341692 -1.73983)
(-0.584076 0.137323 -1.68659)
(-0.610414 0.502715 -1.48982)
(-0.189058 0.760445 -1.1455)
(1.50797 0.981995 -2.1744)
(1.16838 0.0811289 -1.70807)
(0.802302 -0.458756 -1.30068)
(0.865709 -0.415666 -1.24218)
(0.642044 -0.946586 -1.29681)
(0.639104 -0.849875 -1.87846)
(0.505266 -0.652708 -2.18512)
(0.0637086 -0.61008 -1.90973)
(0.116046 -0.477122 -1.5467)
(0.0102514 -0.548176 -1.4967)
(-0.249701 -0.401674 -1.40777)
(-0.315813 0.215687 -1.80707)
(-0.258856 0.273997 -1.44362)
(0.0120626 0.200007 -1.15007)
(0.615096 -0.477211 -0.541233)
(0.502523 -0.704183 -0.259166)
(1.69357 0.908308 -2.39059)
(1.54153 0.0538597 -2.40251)
(0.843382 -0.45721 -2.08186)
(0.598002 -0.588848 -1.77341)
(0.278193 -0.680818 -2.10028)
(0.280914 -0.49841 -2.49884)
(0.39137 -0.0380712 -2.60163)
(0.617781 0.413412 -2.40794)
(0.606937 0.391287 -2.28286)
(0.313012 -0.0667719 -2.02315)
(0.284494 -0.180183 -1.48867)
(-0.168498 -0.244356 -1.357)
(1.2732 -0.127772 -0.173672)
(1.13783 -0.959978 -0.106133)
(1.38305 -1.54429 -0.114423)
(1.13054 -1.68675 -0.15855)
(0.939571 -1.63672 -0.162878)
(-0.330942 2.39209 2.6789)
(-0.334463 2.59004 2.79381)
(-0.282436 2.47644 3.09284)
(-0.400426 2.76674 2.88472)
(-0.329525 2.71327 3.11317)
(-0.123844 2.60186 3.32959)
(-0.483248 2.95221 3.21388)
(-0.484732 2.9331 3.32618)
(-0.221936 2.94575 3.34257)
(0.0979634 2.84913 3.46368)
(-0.661737 2.91155 3.57809)
(-0.551116 3.01571 3.50765)
(-0.431896 2.98397 3.48838)
(0.124998 2.97528 3.55747)
(0.0357854 2.92626 3.76295)
(-0.859197 2.98935 3.6904)
(-0.944687 2.97908 3.69291)
(-0.68268 3.03142 3.60017)
(0.209422 3.09231 3.62412)
(0.185678 3.15242 3.55032)
(-0.203927 2.9218 3.77088)
(-1.16774 2.77051 3.68678)
(-0.864059 2.76383 3.5853)
(-0.800455 2.84204 3.41967)
(0.282823 3.68027 2.91839)
(-0.971968 3.1729 3.53259)
(0.367571 3.77605 2.57292)
(0.0570546 3.74731 2.89745)
(-1.16815 2.88183 3.16192)
(-1.14967 2.85521 2.69848)
(-0.241074 3.78506 1.95057)
(-1.08929 3.49703 2.45419)
(-0.834034 3.69184 2.41943)
(-0.725145 4.06994 2.03033)
(-0.0988786 4.3456 2.34042)
(-0.207583 4.24412 2.47945)
(-1.44665 3.17283 1.77999)
(-1.39879 3.57559 1.45105)
(-1.49675 3.96954 1.83192)
(-1.08397 4.47131 1.78918)
(-0.83372 4.15363 2.07972)
(-1.43671 4.24131 2.34234)
(-0.335538 3.69842 2.50499)
(-0.798256 3.40228 2.42138)
(-1.05072 3.06714 1.82407)
(-1.77482 4.00609 0.777756)
(-1.62316 4.42887 1.31505)
(-1.27288 4.09733 1.81587)
(-1.36071 3.64196 2.98599)
(-0.643316 3.16178 2.26476)
(-1.1609 2.48833 2.41494)
(-0.517742 2.33925 2.5687)
(-1.18287 2.05621 1.91686)
(-0.797887 2.1128 1.63055)
(-1.18036 2.25486 0.817898)
(-1.17911 3.36286 1.70004)
(-0.71506 3.27781 1.97333)
(0.0767666 2.79908 2.22438)
(0.385126 2.42556 2.44706)
(-0.256035 1.73637 2.23711)
(-0.756128 1.25823 1.93296)