/*--------------------------------*- C++ -*----------------------------------*\
  =========                 |
  \\      /  F ield         | OpenFOAM: The Open Source CFD Toolbox
   \\    /   O peration     | Website:  https://openfoam.org
    \\  /    A nd           | Version:  7
     \\/     M anipulation  |
\*---------------------------------------------------------------------------*/
FoamFile
{
    version     2.0;
    format      ascii;
    class       volScalarField;
    location    "8";
    object      nut;
}
// * * * * * * * * * * * * * * * * * * * * * * * * * * * * * * * * * * * * * //

dimensions      [0 2 -1 0 0 0 0];

internalField   nonuniform List<scalar> 
18750
(
0.000841825
0.0016082
0.00115947
0.00126652
0.00212875
0.00267189
0.00156737
9.18677e-05
0.000979946
0.00147314
0.00209223
0.000568244
0.00163994
0.000591926
0.00243233
0.0015118
0.000167031
9.55733e-05
0.000832939
0.0015312
0.00269666
0.00116961
0.00207268
0.000683467
0.00200229
0.000853824
0.000474408
0.000742313
0.00124037
0.00142299
0.000211228
0.00011655
0.000144532
0.00061984
0.00146936
0.00258737
0.00166439
0.00237534
0.000481369
0.000861543
0.00185089
0.000942946
0.000631794
0.000678679
0.000681753
0.000279958
0.000341527
0.000821906
0.000245589
0.0013326
0.000133393
0.000139489
0.000208979
0.000203148
0.000469334
0.00130241
0.00313573
0.000497391
0.00194041
0.000816126
0.00154124
0.00249164
0.000672967
0.000720599
0.00108438
0.00192692
0.000918434
0.00102587
0.00148491
0.00327523
0.0010316
0.000514802
0.000511553
0.000316463
0.000677072
0.000671859
0.00111542
9.0304e-05
0.000172554
0.000126703
0.000125863
0.000207905
0.00043066
0.00105204
0.00217398
0.00101526
0.00282768
0.00143325
0.000941249
0.00237518
0.00178771
0.0019863
0.00148798
0.00232624
0.000620581
0.000569643
0.000541421
0.000791297
0.00193199
0.000595705
0.00047334
0.0014316
0.000987036
0.00104347
0.000961962
0.000171719
0.000684625
0.000569158
0.000743193
0.000653116
0.000560439
0.000873655
0.000279917
9.339e-05
0.000122066
0.000202913
0.000124966
0.000216479
0.000426643
0.000740962
0.00205937
0.00122429
0.00275752
0.00090039
0.00138668
0.00255331
0.000819825
0.000259628
0.000708245
0.00280284
0.000797622
0.000564749
0.000327755
0.00121601
0.00220015
0.00111036
0.000515493
0.00108385
0.000954887
0.00071016
0.00199335
0.000691236
0.000486804
0.00111212
0.00178911
0.000815375
0.00222997
0.000695999
0.000659956
0.000264693
0.000683972
0.000278867
0.000476341
0.000658043
0.000469878
0.000720405
0.00024469
0.000249219
0.000134448
9.57401e-05
0.000279137
0.000107835
0.000211479
0.000452639
0.000463822
0.00255353
0.00105768
0.00303623
0.000689055
0.00109785
0.0023525
0.000832829
0.00102404
0.00121475
0.00318885
0.000434812
0.000686225
0.000775029
0.000822165
0.00238652
0.000201862
0.000736015
0.00132769
0.00101116
0.001748
0.00243576
0.000574757
0.000761353
0.000686977
0.00144459
0.00159572
0.000902717
0.00220463
0.000461474
0.000619408
0.000635418
0.00132525
0.00094022
0.00121801
0.00179107
0.000811974
0.000451639
0.000697236
0.000306345
0.000638691
0.000379053
0.000535771
0.000568655
0.000473571
0.000617923
0.000248419
0.000267153
0.000283318
0.000155095
0.00013283
0.000174986
0.0001987
0.000194506
0.000430376
0.000425039
0.00223344
0.000519053
0.00258292
0.000607538
0.00129453
0.00252284
0.000358297
0.000916069
0.00103478
0.00297663
0.000976968
0.00074938
0.000994593
0.000903095
0.00271182
0.0010644
0.000442883
0.000875949
0.000335294
0.00101181
0.00273193
0.000820274
0.000740568
0.000684925
0.0011557
0.00214706
0.00182332
0.00212764
0.000563067
0.00094731
0.000541407
0.00155075
0.000687027
0.000192439
0.00215423
0.0021486
0.000518033
0.000451592
0.00068176
0.000842946
0.000442663
0.000898865
0.00110957
0.0017699
0.00104877
0.000406279
0.000522341
0.000660237
0.00030464
0.000381437
0.000597881
0.000800384
0.000616508
0.000432443
0.000510857
0.000138156
0.000185182
0.000329515
0.000405037
8.65006e-05
0.000142412
0.000171132
0.000136745
0.000215734
0.000384993
0.000440843
0.000871833
0.00252899
0.000595813
0.000685403
0.00271027
0.000468816
0.000611845
0.00101623
0.00253663
0.000462147
0.000537828
0.000895138
0.00106403
0.00261978
0.000313614
0.000603961
0.000826736
0.000864121
0.00126699
0.00290435
0.00084121
0.000508765
0.000504653
0.000776556
0.00048212
0.000613439
0.0026168
0.000572211
0.000459838
0.000488906
0.000953714
0.00204705
0.000939928
0.00122978
0.00223251
0.00118871
0.000337341
0.000636907
0.000621271
0.000260689
0.00195524
0.00161856
0.00101368
0.00268388
0.000345385
0.000653356
0.000577479
0.000597176
0.000690189
0.000734534
0.000656911
0.00100553
0.00094463
0.000876225
0.000348231
0.000455257
0.000504944
0.000772516
0.000374457
0.000538572
0.000672349
0.000605681
0.000635481
0.000612917
0.000462217
0.00023241
0.00014603
0.000311528
0.000410912
0.000379436
0.000165394
0.000100579
0.000239859
0.000116259
0.00022996
0.000364812
0.000426323
0.00250221
0.000816851
0.000909132
0.00230305
0.000521186
0.000834259
0.00075371
0.00241244
0.000503015
0.00046195
0.000592591
0.000514368
0.00264616
0.000469614
0.000720636
0.000611014
0.000399657
0.000683022
0.00238141
0.000389465
0.000728787
0.000260649
0.00084188
0.000647499
0.00106875
0.00276506
0.000790382
0.000673273
0.00030324
0.000527766
0.00113183
0.000806095
0.000841442
0.00296211
0.000368713
0.000409084
0.00037783
0.000692159
0.00148111
0.00153413
0.000779815
0.00146508
0.00226042
0.000667861
0.000628981
0.000638918
0.000456155
0.000517761
0.00140103
0.00106677
0.00106401
0.00121052
0.00312914
0.00038652
0.000475546
0.000677933
0.000752165
0.000543061
0.000634103
0.000734857
0.000600791
0.000437729
0.00094098
0.000827505
0.000281988
0.000345479
0.000398564
0.000536534
0.000787098
0.000458824
0.000231369
0.000910942
0.000392372
0.000379314
0.000436211
0.000368423
0.000371939
0.000223855
0.000164311
0.000377784
0.000364062
0.000351802
0.00022107
0.00014681
0.000187444
0.000143688
0.000225398
0.000306493
0.000386318
0.00243815
0.000548376
0.00245162
0.000569622
0.000727374
0.00068972
0.00237177
0.000419103
0.000538946
0.000712285
0.000838259
0.00266027
0.000424433
0.000508837
0.00060969
0.000755785
0.00107865
0.0025629
0.000518567
0.00042899
0.000276025
0.000605402
0.000667559
0.000850154
0.00289068
0.000353904
0.000612443
0.000540469
0.000909296
0.000540192
0.000634975
0.000781502
0.00280585
0.00102996
0.000585341
0.00116846
0.000645108
0.000961679
0.00046927
0.000621049
0.000847417
0.00280734
0.000337369
0.000545247
0.000459262
0.000567198
0.000985009
0.000911032
0.000796115
0.000923021
0.000827599
0.0025367
0.00115627
0.00103397
0.000617433
0.000727805
0.000766564
0.000757811
0.00139756
0.0012454
0.000600128
0.000789706
0.00222663
0.000563085
0.000465716
0.00076413
0.000499719
0.000797642
0.000559808
0.00176169
0.00119892
0.00087
0.00100877
0.00114554
0.00106011
0.000386412
0.000230749
0.000255785
0.000453839
0.000464443
0.000781028
0.000330925
0.000231371
0.000878359
0.000371074
0.000334213
0.000624201
0.000317312
0.000186486
0.0002299
0.00023002
0.000193421
0.000515528
0.000258636
0.000532324
0.000173672
0.000145704
0.000176855
0.000116374
0.000205663
0.000269451
0.000356822
0.00257147
0.000292
0.00248016
0.000552903
0.000527457
0.00249895
0.00058488
0.000526468
0.000745218
0.000838982
0.00235143
0.000700745
0.000601106
0.000730932
0.000535215
0.00082893
0.00248554
0.000514502
0.00036982
0.000258235
0.000560894
0.000799333
0.000803092
0.00262811
0.000361391
0.000451601
0.00051393
0.000501142
0.00071694
0.000774832
0.000840723
0.00240123
0.000233183
0.000875258
0.00087254
0.000877003
0.000888153
0.000664624
0.000749734
0.00100621
0.00304835
0.000599048
0.000724915
0.000664301
0.000534387
0.000426321
0.00157413
0.00137085
0.000624567
0.000782382
0.00259119
0.000332099
0.000368631
0.00064922
0.000517189
0.000752718
0.00117116
0.00247182
0.00114715
0.000538876
0.00115473
0.00290964
0.000735437
0.000857864
0.000668319
0.000645646
0.00058368
0.000523871
0.0009726
0.00162276
0.000698093
0.000656035
0.000801634
0.00199656
0.000635702
0.0004569
0.000577799
0.000823187
0.000394031
0.000432473
0.000615387
0.00140564
0.00101702
0.000756961
0.000549443
0.00117747
0.000731457
0.000349915
0.000546752
0.000254495
0.000447271
0.000509152
0.000386105
0.000791087
0.000262032
0.000402832
0.000478086
0.000328487
0.000299427
0.000604651
0.000371719
0.000369584
0.00033375
0.000221635
0.000211175
0.000161874
0.000538008
0.000351904
0.000201695
0.000162264
0.000206643
0.000198477
0.000136114
0.000172516
0.000231052
0.000337327
0.000510218
0.00233164
0.000381068
0.000640972
0.00241373
0.000475689
0.000551825
0.000744864
0.00226588
0.000537059
0.000471782
0.000594225
0.000689998
0.000641489
0.00242167
0.000595678
0.000426878
0.000495196
0.00062235
0.00062642
0.00113797
0.00248127
0.000447871
0.000360532
0.000603798
0.000539438
0.000724872
0.000837375
0.000554065
0.00257467
0.000592858
0.000684645
0.000725689
0.000561457
0.000834357
0.000487719
0.000825994
0.001115
0.00254751
0.000482338
0.000675343
0.000673891
0.000829743
0.000932461
0.000692558
0.000583269
0.000470163
0.00139368
0.00284143
0.000621321
0.0010861
0.000822427
0.00101121
0.000373493
0.00104372
0.000551823
0.00057522
0.000608943
0.00159879
0.00261966
0.000598278
0.000260142
0.00029326
0.000696593
0.00070769
0.00104612
0.00151117
0.000572098
0.00147944
0.000982991
0.00136029
0.00294333
0.000563056
0.000403548
0.00057121
0.000552029
0.000826269
0.000761391
0.000568278
0.00126623
0.000499628
0.000652228
0.00073458
0.00126943
0.00215432
0.000663338
0.000763864
0.000451667
0.000551676
0.00136217
0.000582116
0.000419613
0.0007136
0.000679927
0.00104014
0.00052622
0.000719109
0.000776212
0.000781932
0.000364125
0.000581001
0.000505183
0.000344252
0.000310947
0.000620478
0.000562618
0.000482833
0.000317459
0.000478798
0.000454692
0.000240883
0.000318445
0.0005547
0.000348236
0.000145087
0.000487828
0.000293925
0.000393679
0.000290083
0.00019078
0.000255695
0.000199198
0.000132068
0.000205761
0.000307287
0.000215465
0.000137563
0.000142708
0.000223034
0.000323709
0.00229981
0.000479606
0.000405313
0.00239352
0.000390009
0.000622194
0.000560669
0.00241539
0.000486543
0.0003924
0.000563578
0.000746401
0.00229166
0.00050615
0.000670563
0.000609566
0.000892878
0.000702119
0.0005303
0.00238433
0.000460185
0.000498323
0.000315649
0.000414366
0.000534564
0.000814949
0.000847286
0.00247959
0.00042736
0.000474255
0.000693473
0.000470961
0.000702419
0.000644804
0.000659144
0.00105105
0.00250994
0.000429921
0.000654833
0.000642285
0.00052638
0.000765469
0.000774713
0.000580085
0.000789552
0.00119023
0.0024459
0.000803981
0.000691351
0.000760105
0.00065511
0.00086436
0.00109066
0.00113519
0.000759514
0.000741296
0.00120179
0.00295341
0.000400622
0.000665436
0.000821686
0.000695333
0.000969687
0.00066007
0.00112505
0.00172766
0.000533576
0.000475252
0.00201756
0.00259475
0.000609368
0.000427546
0.000284322
0.000386122
0.000662742
0.00078897
0.000737798
0.000655542
0.0015004
0.000721669
0.00179258
0.00172171
0.00235339
0.00110048
0.00123602
0.000321868
0.000937547
0.000636696
0.000729786
0.00105927
0.000814096
0.00129673
0.000922074
0.000822577
0.000844367
0.00106183
0.00233735
0.000523504
0.000967638
0.000734592
0.00075816
0.000653092
0.00110975
0.000526263
0.000600569
0.00122262
0.00128755
0.00105346
0.000608627
0.000781323
0.000707809
0.00130719
0.000488975
0.000398707
0.000978657
0.000356571
0.00025159
0.000306457
0.000652944
0.000610889
0.000372187
0.000491075
0.000648409
0.000524947
0.000256704
0.000389371
0.000571214
0.000281773
0.000631001
0.000130757
0.000155201
0.000268096
0.000337755
0.000341944
0.0001413
0.000194218
0.000581703
0.000146043
0.000262586
0.000380102
0.000234684
0.000134682
0.000156114
0.000251144
0.000305988
0.00221815
0.000472461
0.00224604
0.000438804
0.00049739
0.000407016
0.00228089
0.000369063
0.000668284
0.000627538
0.000672294
0.00223564
0.000467239
0.000420976
0.000355157
0.000631879
0.000657331
0.00228769
0.000455467
0.000429802
0.000612332
0.00068237
0.000619051
0.000671397
0.00087489
0.0023386
0.000638381
0.000519374
0.000412087
0.00041351
0.000391142
0.00079827
0.000801457
0.0011917
0.00239757
0.000368452
0.000438847
0.000756898
0.000870746
0.000686151
0.000556432
0.000644255
0.000580683
0.000548646
0.0023886
0.000540708
0.000517582
0.000590481
0.000320439
0.000661883
0.000610201
0.000454658
0.000729461
0.000277943
0.000744496
0.00247669
0.000860212
0.000721183
0.00114344
0.000728541
0.00107781
0.000724683
0.000909491
0.000874567
0.000747916
0.000717513
0.00100141
0.00264836
0.000619684
0.000422306
0.000670593
0.000690614
0.000464112
0.00053344
0.000948096
0.00127405
0.000742912
0.000928661
0.00153355
0.00115775
0.002153
0.000613543
0.000766963
0.000963724
0.000583288
0.000679698
0.000600094
0.00149302
0.000643798
0.000196596
0.00100051
0.000593463
0.000951921
0.000951979
0.00250348
0.000597099
0.000899407
0.000961224
0.0012654
0.00122452
0.000820401
0.000878515
0.00103229
0.000664381
0.000789446
0.00069273
0.000669911
0.000912901
0.000875808
0.00218636
0.000663701
0.00113823
0.000745014
0.000649791
0.000524808
0.000872435
0.000582317
0.000940401
0.00107901
0.00168302
0.0012499
0.000965624
0.000539805
0.000506069
0.000551481
0.000966434
0.000288979
0.000597174
0.000452392
0.000559012
0.000447257
0.000178941
0.00031629
0.000599018
0.000669083
0.000622283
0.000640422
0.000481224
0.000589849
0.00033836
0.000348597
0.000560483
0.00032067
0.000207595
0.000568911
0.000156968
0.000244516
0.000202548
0.000267376
0.000296739
0.000101866
0.000528921
0.000465691
0.000187811
0.000330862
0.000334263
0.000215848
0.000103296
0.000169715
0.000187334
0.000289813
0.00211212
0.000624256
0.00224685
0.000560922
0.000400359
0.00225204
0.000447689
0.00043849
0.000497965
0.000603296
0.00226638
0.000278628
0.000639783
0.000477655
0.000528463
0.000603218
0.00233448
0.000488051
0.000543055
0.000343945
0.000674711
0.000665527
0.000640044
0.00220187
0.000509942
0.00069073
0.000639844
0.000596192
0.000619081
0.000532354
0.000669309
0.000834126
0.00234286
0.00050766
0.00061111
0.000385315
0.000451478
0.000510308
0.000653841
0.000483822
0.000788678
0.00106246
0.00223069
0.000740869
0.000525548
0.000473835
0.000228375
0.000402369
0.00052124
0.000466454
0.000900631
0.000296157
0.000854732
0.00252141
0.00046463
0.000536233
0.000673568
0.000391038
0.000603078
0.000872095
0.000673084
0.000444224
0.000607088
0.000665111
0.000674547
0.0024838
0.000711258
0.000768518
0.00069301
0.000788988
0.000704363
0.00104044
0.00111715
0.000470358
0.000601882
0.000535405
0.000303887
0.00119077
0.00258759
0.000374723
0.000614785
0.000513592
0.00106023
0.00130169
0.000755328
0.000602034
0.000651786
0.000762567
0.00131531
0.00125603
0.00163332
0.000965462
0.00220408
0.000899458
0.000727266
0.000900584
0.000436309
0.000382931
0.000524117
0.000742971
0.00110747
0.000473264
0.00069281
0.000950603
0.000798468
0.00110717
0.000943275
0.00230064
0.00108399
0.000711571
0.000830534
0.00117574
0.00104101
0.000720224
0.00132034
0.00140268
0.00158324
0.000928162
0.000719805
0.00037303
0.000458988
0.000501612
0.000929628
0.00239714
0.00110479
0.000449372
0.000854272
0.000477634
0.000414102
0.000553504
0.000960805
0.0011191
0.00149543
0.00170998
0.000774981
0.0010054
0.000748823
0.000569689
0.000325199
0.000585408
0.00111252
0.000329866
0.00025518
0.000633107
0.000485505
0.000707947
0.000383351
0.000328673
0.000368267
0.000509923
0.000938595
0.000789507
0.000568508
0.000330858
0.000604888
0.000284118
0.000297345
0.000538984
0.000396207
0.000484141
0.000419347
0.000383626
0.000138024
0.000218488
0.000321817
0.000310028
0.000250494
0.000190779
0.000479566
0.000271281
0.000219719
0.000385553
0.000218948
0.000193825
0.000151901
0.000153189
0.000178315
0.000281864
0.00208925
0.000372507
0.00215652
0.000525082
0.00059479
0.00226713
0.000635988
0.000658271
0.000622304
0.0023465
0.00041532
0.000307102
0.000308176
0.000424896
0.000416056
0.00227528
0.000339886
0.000456356
0.000527784
0.000500988
0.00063872
0.000669364
0.00221292
0.000403897
0.000408466
0.000464472
0.000496403
0.000572152
0.000436744
0.000561667
0.00210537
0.000388162
0.000560621
0.000759202
0.000808159
0.000569211
0.000515965
0.000724088
0.000725935
0.000962671
0.00228029
0.000653838
0.000496292
0.000475665
0.000548104
0.00064096
0.000581661
0.000592826
0.000657674
0.000575644
0.00054258
0.00234893
0.000673497
0.000287379
0.000733202
0.000392676
0.000534118
0.000409061
0.000498526
0.000733884
0.000428648
0.000779914
0.000715681
0.00247396
0.000677917
0.000604395
0.000570182
0.000754281
0.000761469
0.00101145
0.000491707
0.000767441
0.000878881
0.000555373
0.000580179
0.00100052
0.00244428
0.00083192
0.00101482
0.000820995
0.000700706
0.000430145
0.000701188
0.00057106
0.000947119
0.000818502
0.000706494
0.00067912
0.000875862
0.00104852
0.00256205
0.00121416
0.000803685
0.000607541
0.0005423
0.000947471
0.000327801
0.000458274
0.00144763
0.00084097
0.00132059
0.000779489
0.00138855
0.00110237
0.000952762
0.00266147
0.00105074
0.000785359
0.000978515
0.000755874
0.00142668
0.000595191
0.000657756
0.000660913
0.00099502
0.000745257
0.00100962
0.000531079
0.000941366
0.00140817
0.000570891
0.00251923
0.000208429
0.00113271
0.000593768
0.00073776
0.000758717
0.00103736
0.000652584
0.0010419
0.00164267
0.00052409
0.000885054
0.000866071
0.000185917
0.00051479
0.000703515
0.00107829
0.0024544
0.000776757
0.000940039
0.000648869
0.000688032
0.000524483
0.000607691
0.000740947
0.00176045
0.00124473
0.000811132
0.00108935
0.000854883
0.000832998
0.000617857
0.000544921
0.00054277
0.000413317
0.00155111
0.00048487
0.000246338
0.000352857
0.000663127
0.000403476
0.000612605
0.000245865
0.000305273
0.000539692
0.000486378
0.000722592
0.000871254
0.000490823
0.000415784
0.000547548
0.000237832
0.000239863
0.000639596
0.00046519
0.000192835
0.000552695
0.000520534
0.000205779
0.000161536
0.000225374
0.000263301
0.000271427
0.000263834
0.000334206
0.00020622
0.000448632
0.000245155
0.000332044
0.000212605
0.000178634
0.000208263
8.87643e-05
0.000222131
0.000279511
0.00209431
0.000483613
0.00209468
0.000418011
0.000424894
0.00218297
0.000372768
0.000487886
0.000499792
0.00226363
0.000392066
0.000608777
0.00047775
0.000562768
0.0023738
0.000300926
0.000194497
0.00052958
0.000467893
0.000540768
0.000402325
0.00215554
0.000464586
0.000459632
0.000454501
0.000366319
0.000411413
0.000550747
0.000601532
0.0022449
0.000569717
0.000539296
0.000499139
0.000601482
0.000647386
0.00082123
0.00065874
0.000611266
0.00230308
0.000598585
0.000476965
0.000629123
0.000442091
0.00054502
0.000598436
0.000579195
0.00050431
0.00048787
0.000799458
0.00216177
0.000457829
0.000757815
0.000441892
0.000405815
0.000384592
0.000485787
0.000627602
0.000424575
0.000670158
0.000538045
0.000762196
0.00237739
0.000556978
0.000461477
0.000520859
0.000796334
0.000695151
0.000744452
0.000749145
0.000554153
0.000578889
0.00060522
0.000669861
0.000821592
0.00244248
0.000640986
0.000646695
0.000742382
0.000605568
0.000538984
0.000874993
0.00109485
0.000831872
0.000601389
0.000774794
0.000689852
0.000591658
0.000782454
0.00246893
0.000619616
0.000852472
0.000514016
0.000675869
0.000727318
0.000725566
0.000743885
0.00133535
0.000354726
0.00139194
0.00112365
0.00061626
0.000882688
0.00107144
0.0027044
0.000887598
0.000417732
0.000726149
0.000682413
0.000547156
0.000496407
0.00031072
0.000456556
0.000524609
0.00120923
0.000722318
0.00041782
0.00030464
0.000386148
0.000834095
0.00255622
0.00148131
0.00131891
0.000540618
0.000704038
0.00211701
0.000971061
0.000618851
0.000722318
0.00196886
0.00138464
0.00129541
0.000955945
0.000624867
0.00127011
0.000476059
0.000726648
0.00292155
0.0005226
0.000256307
0.00146927
0.000696659
0.000639302
0.00150747
0.00173355
0.000788576
0.000620059
0.000930138
0.000724192
0.000560842
0.000386754
0.00025954
0.000801991
0.000661247
0.00101765
0.00254377
0.000907848
0.000734161
0.000639883
0.000519686
0.000896144
0.000377334
0.000900741
0.00104781
0.00174873
0.00127258
0.000474214
0.000597544
0.000958583
0.000764651
0.000663434
0.00123031
0.00071336
0.000407509
0.00152431
0.000591632
0.000425842
0.000218852
0.000393522
0.000493975
0.000504681
0.000596907
0.000305797
0.000344851
0.000691136
0.000481652
0.000524296
0.000796301
0.000347793
0.000415701
0.000479907
0.000478569
0.000262998
0.000728102
0.000538963
0.000209915
0.000195914
0.00055343
0.000558337
0.000285255
0.000166553
0.000147608
0.000285293
0.000291107
0.000284377
0.000274878
0.00015736
0.00066032
0.000255007
0.000320211
0.000147812
0.000164413
9.93788e-05
6.82151e-05
0.000200368
0.00029198
0.00221102
0.000282801
0.00207896
0.000351209
0.000377231
0.00209868
0.000299548
0.000392487
0.000427343
0.00215874
0.000362395
0.00042455
0.000425014
0.000628547
0.00228725
0.000281712
0.000250118
0.000249988
0.000417718
0.000401763
0.00236786
0.00041495
0.000343334
0.000248849
0.000569443
0.000679059
0.000229425
0.000406963
0.00233762
0.000516054
0.00039472
0.000501215
0.000459737
0.000428674
0.000362675
0.000590311
0.000588164
0.00212593
0.000458931
0.0004706
0.00050975
0.0005849
0.00058812
0.000534518
0.000410979
0.000555226
0.00084468
0.00214597
0.000628647
0.000772733
0.000532055
0.000608042
0.000496916
0.00057097
0.000513495
0.000498366
0.000629493
0.000678025
0.000894638
0.00234485
0.000684064
0.000550282
0.000510232
0.000487644
0.000433972
0.000637603
0.000648515
0.000568186
0.000729983
0.000583306
0.00063487
0.000790091
0.00232919
0.000466654
0.000549989
0.000469389
0.000684486
0.000388343
0.0010448
0.000499409
0.000454865
0.000730685
0.000465604
0.000686009
0.000334801
0.000935058
0.00248568
0.000550752
0.000572377
0.00063936
0.000575095
0.000652582
0.000653062
0.000580961
0.00044351
0.000714194
0.000543556
0.000654589
0.000800259
0.00076685
0.0014645
0.00237701
0.000503024
0.000876937
0.000642457
0.000946949
0.000622704
0.000607281
0.000608908
0.000869958
0.00110136
0.00134909
0.000756364
0.000999011
0.00142537
0.000754785
0.000909748
0.00275064
0.00119055
0.000897863
0.000654936
0.00041666
0.000147689
0.00130913
0.000525983
0.000595532
0.000612376
0.00148602
0.00108483
0.000500185
0.0008041
0.000774765
0.000910391
0.0007422
0.00272106
0.000644754
0.000807336
0.00104521
0.00133552
0.00103945
0.00173648
0.000753544
0.000524601
0.00103608
0.000494473
0.00127882
0.000775038
0.00073186
0.000544525
0.00111916
0.000985979
0.00086948
0.00291735
0.000706929
0.000643241
0.000531974
0.00185816
0.000400762
0.000623987
0.00165767
0.000890223
0.000727554
0.00105248
0.00151908
0.000230861
0.00055792
0.000534652
0.000700019
0.000501129
0.000534571
0.00113075
0.00248884
0.000511644
0.000724964
0.000871135
0.00065701
0.00132807
0.000894181
0.000563953
0.000748131
0.00146042
0.000771211
0.00108632
0.00111992
0.000921557
0.000584251
0.000623438
0.000541857
0.000549025
0.000770389
0.000659532
0.00128587
0.000478313
0.000497484
0.000355431
0.000401929
0.000641924
0.00049215
0.000506804
0.000588919
0.000337054
0.000509398
0.000617222
0.000528336
0.000678113
0.000561502
0.000343511
0.000302425
0.000444544
0.000487056
0.000274188
0.000620882
0.00057409
0.000127392
0.000180305
0.000263407
0.000513251
0.000553234
0.000256753
0.000195439
0.000161881
0.000286245
0.000373221
0.000309608
0.000214744
0.000183298
0.00055536
0.000211678
0.000330776
0.000186726
0.000138672
0.000178214
0.000203417
0.000197018
0.000289839
0.00226112
0.000362733
0.00216816
0.000331468
0.000346132
0.00211105
0.000327071
0.000400354
0.00037731
0.00205918
0.000281778
0.000331554
0.000400052
0.00047192
0.00214865
0.000233579
0.000370087
0.000466154
0.000280062
0.000386913
0.00227161
0.000491931
0.000346318
0.000342853
0.000427128
0.000323386
0.000352779
0.00224972
0.000580313
0.000234838
0.000421519
0.000276022
0.000545291
0.000303233
0.000514669
0.000388299
0.00229752
0.000352323
0.000482033
0.000389685
0.000384587
0.00049981
0.00036961
0.000665198
0.000586865
0.000431694
0.00221156
0.00050142
0.00046476
0.000351408
0.000547473
0.00052605
0.00065704
0.000426617
0.000267844
0.000563587
0.000626974
0.00201372
0.000493561
0.000576875
0.000682196
0.000520041
0.000655338
0.000466669
0.000466259
0.000594567
0.000527134
0.000540659
0.000573523
0.00089435
0.00225647
0.000456856
0.000637619
0.000583761
0.00036871
0.000732501
0.000461918
0.000656024
0.000609642
0.000503331
0.00059232
0.000929205
0.000685404
0.000835834
0.0023253
0.0002811
0.000316982
0.00039959
0.000611408
0.00053505
0.000469794
0.000275987
0.000649258
0.000621548
0.000577675
0.000692916
0.000661436
0.000790217
0.000755106
0.00248413
0.000670988
0.000685053
0.00104386
0.000659254
0.000665332
0.00054415
0.000598422
0.000672345
0.000676447
0.000553518
0.00119019
0.000984518
0.000180983
0.000703969
0.00103869
0.00231121
0.000221127
0.000537114
0.000343744
0.00078789
0.000547698
0.000686895
0.000660437
0.000763131
0.00089232
0.000390925
0.000923373
0.00103516
0.000610514
0.0010269
0.000802575
0.00118138
0.00288789
0.000945693
0.00103463
0.000632404
0.000790229
0.000595449
0.00109424
0.000971049
0.000433787
0.000520381
0.00134116
0.000538036
0.000724925
0.000691095
0.000910412
0.000699571
0.000930305
0.0010481
0.00242248
0.000553676
0.000794092
0.00115759
0.000802351
0.00110526
0.00110876
0.000543845
0.000598602
0.000727859
0.000613848
0.000875203
0.000147863
0.00118195
0.000661921
0.00112942
0.000727256
0.000806509
0.000793568
0.00258025
0.000781796
0.0004305
0.000577921
0.000802298
0.00121496
0.000522051
0.000770965
0.00136999
0.000950909
0.00156599
0.000909963
0.000542812
0.000701989
0.000364445
0.000593868
0.000596256
0.000600017
0.00050716
0.00109237
0.00232278
0.000415139
0.000551224
0.000164056
0.000714169
0.000511494
0.000879455
0.000669384
0.000464658
0.00117205
0.00099277
0.00106883
0.000852866
0.00149798
0.00099537
0.000505986
0.000662369
0.000477988
0.000592897
0.000889261
0.000521051
0.00126196
0.000174399
0.000570719
0.000554307
0.00041064
0.000478725
0.000744828
0.000637501
0.00048468
0.000614064
0.000281193
0.000438166
0.000536995
0.000551795
0.000898053
0.000440996
0.000575333
0.000343479
0.000418113
0.000488693
0.000255763
0.000588903
0.000591891
0.000129947
0.000112226
0.000110987
0.000268209
0.000428295
0.000531552
0.000165978
0.000216418
0.00019359
0.000233792
0.000281092
0.000359572
0.000185799
0.000137375
0.000179129
0.000190121
0.000327583
0.000223732
0.000141649
0.000236559
6.69643e-05
0.000210419
0.00028011
0.00210395
0.000441374
0.00231248
0.000340179
0.000445702
0.0021879
0.000268659
0.000333735
0.000376726
0.002063
0.000205479
0.000349662
0.000295024
0.000465899
0.00204099
0.000303722
0.0003739
0.000235598
0.000281621
0.000439384
0.00216105
0.000285551
0.000368578
0.0003433
0.000521997
0.000605219
0.00029511
0.00233038
0.000401408
0.000392962
0.000350553
0.000421885
0.000556974
0.00014173
0.000319602
0.0023015
0.000367065
0.000474748
0.00038806
0.000408549
0.000358159
0.000377316
0.000201836
0.000507542
0.000290457
0.00220704
0.00034855
0.000472021
0.00042713
0.000396912
0.000393577
0.00051194
0.000337686
0.000325168
0.000559951
0.000760112
0.00203683
0.000444431
0.000849863
0.000371265
0.000443018
0.00049229
0.000471497
0.000389168
0.000362844
0.000505044
0.000407585
0.000691328
0.00215575
0.00043728
0.000555314
0.000596442
0.000393966
0.000426572
0.000470336
0.000593129
0.000677623
0.000555741
0.000565865
0.000592328
0.000485024
0.00063444
0.00234283
0.000512429
0.000435981
0.000521742
0.000503704
0.00052836
0.000583538
0.000902438
0.00051904
0.00051032
0.000715695
0.000987466
0.00075842
0.000682414
0.000797506
0.00232099
0.000568144
0.000525006
0.00100895
0.000612291
0.000615008
0.000399501
0.000695842
0.000303363
0.000578787
0.000639758
0.000744578
0.000609338
0.000727193
0.000648867
0.0012335
0.00233843
0.000829841
0.000824077
0.000495228
0.000581505
0.000680434
0.000564142
0.000659552
0.000582092
0.000568866
0.00069495
0.00102644
0.000483804
0.00043628
0.000437931
0.000518928
0.000517594
0.00231902
0.000622295
0.00118674
0.000341259
0.00036316
0.000501303
0.000617812
0.000871689
0.000782194
0.000792785
0.000671448
0.000841468
0.00161317
0.001155
0.0016989
0.000932037
0.000623229
0.00106709
0.00306881
0.000969407
0.000567806
0.000912503
0.000520068
0.000877004
0.000649011
0.000854019
0.000549739
0.000551046
0.000518496
0.000307789
0.000856146
0.00139306
0.000797986
0.00104975
0.00119773
0.000768671
0.000965798
0.00234113
0.00108924
0.000805552
0.000797392
0.00104611
0.000405195
0.00121955
0.00116742
0.000605349
0.000730277
0.000925697
0.000844633
0.000520683
0.000244724
0.00112975
0.000780338
0.000808387
0.000570413
0.000751222
0.000825796
0.00232556
0.000566079
0.000805257
0.000405214
0.000526774
0.0013263
0.00179299
0.000503516
0.000895138
0.00125611
0.00110445
0.00133624
0.00135084
0.00149037
0.000355742
0.000445455
0.000452856
0.000627123
0.000764463
0.00043026
0.00113646
0.00241315
0.000502283
0.000129408
0.000367697
0.000259623
0.000505342
0.000600069
0.00130192
0.00131388
0.000435664
0.00158524
0.000664595
0.00139295
0.000867013
0.000843654
0.000875077
0.000489704
0.000548221
0.000367992
0.00111177
0.000464229
0.000677519
0.00156198
0.000234347
0.000250346
0.0007852
0.000484395
0.000553189
0.000386226
0.000618398
0.000621885
0.00036804
0.000730484
0.000334267
0.000418911
0.000459017
0.000557853
0.000724398
0.00030715
0.000267728
0.000418468
0.000381866
0.000507077
0.00031372
0.000755509
0.000651276
0.000231196
0.000118915
0.000160391
0.000193699
0.000219545
0.000405023
0.000440056
0.000107404
0.000230369
0.000158779
0.000286698
0.000234992
0.000386545
0.000156272
6.75974e-05
0.000149548
0.000211912
0.000283784
0.000189683
0.000133906
0.00017464
0.000142526
0.000198436
0.000293491
0.00206987
0.000420091
0.00208064
0.000449125
0.000434839
0.00232716
0.000279051
0.000510298
0.00047788
0.00219624
0.000356037
0.000219477
0.000369656
0.000381184
0.00210875
0.000384358
0.000346769
0.00027595
0.000280247
0.0004915
0.00202916
0.000408057
0.000480963
0.000507395
0.00027631
0.000237216
0.000382857
0.00214636
0.000568103
0.000418955
0.000328025
0.000407748
0.000592371
0.000409966
0.000374481
0.00229446
0.000450627
0.000282321
0.000437479
0.000433866
0.000400034
0.000371992
0.00048517
0.000323673
0.00231685
0.000250086