/*--------------------------------*- C++ -*----------------------------------*\
  =========                 |
  \\      /  F ield         | OpenFOAM: The Open Source CFD Toolbox
   \\    /   O peration     | Website:  https://openfoam.org
    \\  /    A nd           | Version:  7
     \\/     M anipulation  |
\*---------------------------------------------------------------------------*/
FoamFile
{
    version     2.0;
    format      ascii;
    class       volScalarField;
    location    "8";
    object      p;
}
// * * * * * * * * * * * * * * * * * * * * * * * * * * * * * * * * * * * * * //

dimensions      [0 2 -2 0 0 0 0];

internalField   nonuniform List<scalar> 
18750
(
-67.9677
-65.2994
-68.8247
-67.8845
-61.0066
-66.0209
-65.3701
-70.0558
-68.841
-67.9115
-59.0378
-60.801
-61.2465
-68.4952
-66.1183
-65.6262
-70.8111
-70.0756
-68.887
-68.0617
-56.1757
-61.7844
-59.222
-66.7586
-52.1381
-62.1212
-69.315
-68.4516
-66.4538
-66.0481
-70.8083
-70.8072
-70.0912
-68.9602
-68.2935
-55.6583
-59.5492
-56.3627
-63.457
-62.6694
-59.3635
-67.9655
-66.8603
-58.8792
-63.3039
-69.7046
-69.2751
-68.4627
-66.8649
-66.5523
-71.0355
-70.8268
-70.8124
-70.1015
-69.0342
-68.563
-52.9061
-56.3853
-56.2284
-59.6981
-59.7152
-56.4438
-65.9337
-63.3588
-63.2693
-59.7315
-68.8585
-67.7233
-66.926
-58.7815
-64.4333
-70.1634
-69.7347
-69.2335
-68.477
-67.2171
-67.1187
-71.2335
-71.0705
-70.8415
-70.8213
-70.1168
-69.0882
-68.8242
-51.8798
-53.2093
-52.7723
-56.628
-56.1729
-56.1161
-60.194
-59.1597
-60.2733
-56.413
-66.9902
-65.5997
-63.3037
-63.6072
-60.0346
-68.9992
-68.9942
-67.4895
-67.2459
-62.5616
-65.5062
-70.5569
-70.1367
-69.7608
-69.2463
-68.5214
-67.5405
-67.707
-70.8819
-71.2906
-71.1101
-70.8587
-70.8237
-70.1372
-69.1539
-69.0349
-50.6749
-51.864
-51.5065
-53.3264
-53.0906
-52.8113
-57.0432
-56.7068
-56.3624
-56.1167
-61.7028
-60.2962
-58.9873
-60.0219
-56.4052
-66.7711
-66.5475
-65.2919
-63.092
-63.5719
-60.0877
-70.5792
-69.148
-69.0156
-67.4563
-67.7069
-63.4657
-66.5978
-70.9779
-70.6195
-70.1523
-69.7816
-69.3152
-68.6686
-68.0267
-68.2445
-70.4872
-70.936
-71.353
-71.1557
-70.8807
-70.8513
-70.1597
-69.2301
-69.1754
-49.3162
-50.1944
-50.2368
-51.916
-51.8704
-51.645
-53.8163
-53.4752
-53.0716
-52.5223
-57.7032
-56.9365
-56.4868
-56.1978
-56.192
-62.4426
-61.6594
-60.0393
-58.353
-60.0436
-56.5447
-67.6041
-66.6477
-66.4195
-65.3511
-62.8284
-63.0289
-60.6428
-71.1737
-70.5833
-69.1692
-68.9639
-67.6073
-67.6801
-63.8205
-67.7485
-70.6974
-71.0619
-70.6763
-70.255
-69.7722
-69.4062
-68.9343
-68.6579
-68.7067
-69.9985
-70.4997
-70.995
-71.4101
-71.1954
-70.9003
-70.8906
-70.1792
-69.3236
-69.2609
-48.5994
-49.28
-49.0777
-50.5945
-50.1655
-50.3779
-52.4839
-51.8638
-51.6339
-51.4724
-54.1995
-53.7789
-53.5273
-53.3039
-52.3194
-58.0261
-57.8251
-57.2585
-56.7423
-56.1356
-56.35
-62.6302
-62.5226
-62.1588
-59.8754
-58.3721
-59.7807
-56.8535
-66.3805
-67.3316
-66.6696
-66.5163
-64.5616
-62.8969
-62.864
-61.373
-70.4033
-71.1889
-70.5943
-69.3333
-68.9771
-67.6498
-67.6768
-64.9356
-68.908
-69.8322
-70.8044
-71.0948
-70.7179
-70.2918
-69.7606
-69.5188
-69.1471
-69.0404
-69.1059
-69.1801
-70.0475
-70.5452
-71.0703
-71.4714
-71.2303
-70.9112
-70.9117
-70.1938
-69.4384
-69.3241
-48.3709
-48.453
-49.4709
-49.2596
-49.0304
-50.7899
-50.5983
-50.1683
-50.3058
-52.6332
-52.3916
-51.816
-51.6981
-51.5863
-54.5231
-54.3832
-53.7832
-53.6518
-52.9296
-52.3054
-58.3892
-58.272
-58.0038
-57.4166
-56.7901
-56.3531
-56.3139
-62.7467
-62.4664
-62.7397
-61.9702
-59.4569
-58.8312
-59.8642
-57.1052
-65.7222
-66.3856
-67.0371
-66.7425
-66.286
-63.6474
-62.6002
-62.9729
-61.6011
-69.3318
-70.6452
-71.1753
-70.6372
-69.4836
-68.8515
-67.7706
-67.9896
-66.7075
-70.2293
-68.8961
-69.9747
-70.8976
-71.125
-70.7874
-70.2894
-69.7342
-69.6169
-69.3192
-69.1932
-69.4346
-68.6251
-69.2193
-70.0886
-70.5818
-71.1466
-71.5329
-71.2662
-70.9144
-70.8992
-70.2077
-69.5094
-69.3588
-47.7925
-48.4834
-48.3798
-48.3588
-49.5269
-49.256
-49.1484
-49.1046
-50.8938
-50.8181
-50.4564
-50.264
-50.2676
-52.8956
-52.5472
-52.159
-51.8016
-51.7697
-51.4607
-54.8048
-54.5718
-54.4946
-53.8657
-53.7704
-53.1738
-52.2066
-58.2592
-58.3683
-58.4393
-57.7808
-57.6087
-56.4528
-56.3377
-56.1823
-62.353
-62.9158
-62.7585
-62.6517
-61.3555
-60.5741
-59.2071
-59.7528
-57.3999
-65.6377
-66.2222
-66.2069
-66.8243
-66.5542
-65.3889
-63.7976
-62.7558
-63.3225
-61.7174
-67.7901
-69.8563
-70.9564
-71.1807
-70.679
-69.6033
-68.7623
-67.8114
-68.1223
-67.9506
-70.9406
-67.9097
-69.068
-70.0998
-70.958
-71.2513
-70.8767
-70.3308
-69.7369
-69.6828
-69.4723
-69.452
-69.725
-68.1286
-68.6449
-69.2464
-70.1274
-70.6132
-71.1957
-71.6034
-71.2973
-70.9359
-70.8702
-70.2224
-69.533
-69.3595
-47.4429
-47.8586
-47.7638
-48.5709
-48.3077
-48.3569
-48.2753
-49.796
-49.4051
-49.286
-49.1241
-49.0394
-51.156
-50.9038
-50.6605
-50.4355
-50.0896
-50.2114
-53.0531
-52.8012
-52.5644
-52.1849
-51.7802
-51.5771
-51.5838
-55.0128
-54.8266
-54.6358
-54.3492
-53.8927
-53.7073
-53.5493
-51.9224
-58.0789
-58.2354
-58.4254
-58.4859
-58.1038
-57.7261
-56.7036
-56.5156
-56.2251
-62.744
-62.2847
-63.0082
-62.9857
-62.7055
-61.4822
-60.7368
-59.7216
-59.566
-57.1776
-65.3077
-65.903
-66.1456
-66.4026
-66.7762
-66.1801
-64.9372
-63.6276
-62.8934
-63.8103
-62.227
-66.2677
-68.2968
-70.32
-71.2563
-71.2413
-70.559
-69.5998
-68.6629
-67.9843
-68.2605
-68.8339
-71.242
-66.8314
-68.1051
-69.224
-70.2144
-71.0216
-71.4062
-70.9405
-70.3608
-69.7348
-69.7672
-69.5672
-69.6334
-69.8487
-67.7346
-68.1438
-68.6924
-69.2801
-70.1684
-70.6677
-71.2675
-71.6571
-71.3351
-70.9776
-70.8464
-70.2431
-69.5453
-69.3745
-46.9596
-47.4746
-47.3756
-47.7648
-47.805
-47.6927
-48.59
-48.4415
-48.2751
-48.2382
-48.3385
-49.8191
-49.7419
-49.369
-49.225
-49.0555
-48.9794
-51.1088
-51.0471
-50.8826
-50.5971
-50.5
-50.2006
-50.0724
-53.0146
-52.8728
-52.7089
-52.4468
-52.2018
-51.6743
-51.7577
-51.6881
-54.9184
-54.7096
-54.551
-54.5727
-54.5632
-54.2266
-53.8168
-53.4145
-52.2892
-58.1585
-58.1051
-58.1922
-58.6725
-58.7932
-58.8586
-57.4384
-56.7697
-56.7201
-56.0031
-62.6945
-62.4278
-62.2784
-63.1589
-62.9133
-62.6241
-62.1947
-60.468
-59.6752
-59.4054
-57.6371
-64.4294
-65.9818
-66.1802
-66.1139
-66.4334
-66.6611
-66.1076
-65.1079
-63.7496
-63.0562
-63.63
-62.3738
-65.397
-66.6075
-68.7956
-70.7379
-71.4237
-71.2704
-70.578
-69.4471
-68.6615
-68.2991
-68.6422
-69.695
-71.6402
-66.1215
-66.9124
-68.2753
-69.434
-70.2936
-71.1171
-71.521
-71.0023
-70.3461
-69.7468
-69.8688
-69.6813
-69.8487
-69.8896
-67.1547
-67.7225
-68.1613
-68.7221
-69.3207
-70.2036
-70.7135
-71.3794
-71.7314
-71.3695
-71.0185
-70.8393
-70.2678
-69.5692
-69.4165
-47.0246
-47.0176
-47.3289
-47.3791
-47.3243
-47.8784
-47.8757
-47.7133
-47.7722
-48.5635
-48.5551
-48.3562
-48.2668
-48.5339
-48.3166
-49.8502
-49.7825
-49.6686
-49.3224
-49.1495
-49.0035
-48.9197
-51.2474
-51.1134
-51.0072
-50.9093
-50.4793
-50.5093
-49.9927
-50.1828
-53.0472
-52.8518
-52.7006
-52.6143
-52.329
-52.1628
-51.6955
-51.7028
-51.6011
-55.2012
-54.9461
-54.9218
-54.6771
-54.7217
-54.7707
-54.3339
-53.7543
-53.519
-52.988
-58.3841
-58.1513
-58.1842
-57.9821
-58.5995
-59.1139
-58.7647
-57.5404
-57.0232
-56.7599
-55.9006
-62.187
-62.5624
-62.4001
-62.2657
-63.2085
-63.0454
-62.7945
-61.9417
-60.4061
-59.5297
-59.8449
-58.2696
-63.3726
-64.8965
-66.4002
-66.2014
-66.1475
-66.3202
-66.4891
-66.1452
-65.0901
-63.4458
-63.2427
-63.9874
-62.3867
-64.9831
-65.7036
-66.9721
-69.2428
-71.0609
-71.5584
-71.2311
-70.6579
-69.386
-68.7088
-68.4972
-69.1976
-70.4735
-71.704
-65.9775
-66.1599
-67.0018
-68.4665
-69.6481
-70.3505
-71.2305
-71.5666
-71.0431
-70.3521
-69.7855
-69.9655
-69.8132
-70.0167
-69.9213
-67.6151
-67.1594
-67.7114
-68.1713
-68.7759
-69.3662
-70.2328
-70.7441
-71.4516
-71.8024
-71.432
-71.0589
-70.8518
-70.2966
-69.6196
-69.453
-46.5817
-47.007
-46.9947
-47.0095
-47.4169
-47.2955
-47.3642
-47.2463
-47.9193
-47.8536
-47.8057
-47.7268
-47.7486
-48.7459
-48.6669
-48.5608
-48.3776
-48.2923
-48.4049
-48.3256
-49.8933
-49.8665
-49.7361
-49.6137
-49.383
-49.0424
-48.9052
-48.9606
-51.3096
-51.2235
-51.0328
-50.9392
-50.7056
-50.3985
-50.5567
-49.8782
-50.2652
-53.1454
-52.9324
-52.8222
-52.6543
-52.4719
-52.2849
-52.0934
-51.7182
-51.5677
-51.7081
-55.3094
-55.0997
-54.9971
-54.7979
-54.8265
-54.6191
-54.5028
-54.3981
-54.0354
-53.7518
-53.2459
-58.5849
-58.3726
-58.2654
-58.1479
-58.0846
-58.5099
-58.9451
-57.6035
-57.5467
-57.1466
-56.7271
-55.7848
-61.3188
-62.2611
-62.533
-62.2308
-62.3479
-63.3753
-62.7169
-62.716
-60.964
-60.349
-59.6362
-59.8425
-58.4358
-62.3961
-63.2704
-65.3091
-66.5084
-66.0324
-66.185
-66.4102
-66.2929
-65.92
-65.128
-63.7353
-63.6126
-64.8036
-62.3949
-64.252
-64.9954
-65.9474
-67.3252
-69.6115
-71.1678
-71.5791
-71.2477
-70.6163
-69.2552
-68.6999
-68.7903
-69.592
-71.1992
-71.7768
-66.3536
-65.876
-66.2594
-67.1432
-68.703
-69.7491
-70.4462
-71.3284
-71.5939
-71.1039
-70.3773
-69.8327
-70.0227
-69.9634
-70.1179
-70.0144
-68.2727
-67.5317
-67.2032
-67.6922
-68.1861
-68.8314
-69.4046
-70.2504
-70.7717
-71.5551
-71.895
-71.4673
-71.1008
-70.9013
-70.3344
-69.6786
-69.4792
-46.3566
-46.6335
-46.5889
-47.0194
-46.9409
-46.9612
-46.952
-47.4382
-47.3257
-47.2897
-47.187
-47.327
-48.0043
-47.907
-47.8706
-47.7051
-47.9023
-47.7502
-48.8945
-48.7887
-48.659
-48.5117
-48.3891
-48.2996
-48.3175
-48.3417
-50.0214
-49.8747
-49.8234
-49.5898
-49.4636
-49.238
-49.09
-48.9464
-49.0609
-51.4675
-51.2794
-51.2151
-51.0623
-50.875
-50.6622
-50.4505
-50.5629
-50.2265
-50.2829
-53.2609
-52.9868
-52.8736
-52.7912
-52.5323
-52.4152
-52.135
-52.154
-51.7264
-51.6946
-51.7959
-55.2628
-55.352
-55.2008
-54.9794
-54.6255
-54.7287
-54.7392
-54.6825
-54.5224
-54.1642
-53.3504
-53.4028
-58.433
-58.5313
-58.3828
-58.2637
-58.0621
-58.4854
-58.6587
-58.3609
-57.9671
-57.7243
-57.1594
-56.9109
-55.9618
-60.6723
-61.3753
-62.6236
-62.5078
-62.2044
-62.3819
-63.2905
-62.6613
-62.1348
-60.9076
-60.2591
-59.6124
-60.0891
-58.51
-62.6407
-62.5
-63.643
-65.4775
-66.7633
-66.1332
-66.1191
-66.4276
-66.2293
-65.9303
-65.2739
-64.1461
-64.1659
-65.1441
-62.4743
-64.202
-64.057
-65.0356
-66.221
-67.6944
-69.9847
-71.1433
-71.5061
-71.2574
-70.5258
-69.23
-68.7503
-69.0192
-69.9237
-71.5351
-71.83
-67.365
-66.122
-65.8
-66.2542
-67.3029
-68.9511
-69.8315
-70.5554
-71.4289
-71.6235
-71.0958
-70.4242
-69.8886
-70.0992
-70.1128
-70.1965
-70.0843
-68.5441
-68.1351
-67.4546
-67.2208
-67.6908
-68.2062
-68.8703
-69.4405
-70.2693
-70.8117
-71.6643
-71.9478
-71.4685
-71.139
-71.0004
-70.3964
-69.7607
-69.5
-46.1582
-46.3574
-46.3463
-46.6529
-46.5917
-46.638
-47.0257
-46.9593
-46.8877
-46.9433
-46.9688
-47.5194
-47.3785
-47.2987
-47.2072
-47.3004
-47.2799
-48.1219
-47.956
-47.8953
-47.7712
-47.7796
-47.8982
-47.7883
-48.9703
-48.9028
-48.7225
-48.5966
-48.5115
-48.3039
-48.3362
-48.3286
-48.3246
-50.1974
-50.0461
-49.9308
-49.7279
-49.6008
-49.345
-49.2433
-49.1434
-49.0494
-49.1448
-51.5166
-51.4507
-51.2534
-51.1974
-51.0121
-50.8443
-50.7184
-50.4063
-50.5628
-50.3496
-50.2913
-53.2786
-53.1975
-52.8941
-52.8297
-52.6901
-52.6032
-52.362
-52.1663
-51.9984
-51.8324
-51.8013
-51.8345
-55.4617
-55.2061
-55.3614
-55.2054
-54.947
-54.7392
-54.7135
-54.7646
-54.9844
-54.7834
-54.3072
-53.5731
-53.4798
-58.2314
-58.5653
-58.3427
-58.4016
-58.0572
-58.0524
-58.1349
-58.6489
-58.0443
-58.0603
-57.8845
-57.4885
-56.9888
-55.9581
-60.657
-60.8723
-61.8512
-62.9255
-62.7095
-62.1065
-62.3241
-63.2084
-62.4222
-62.0362
-60.8153
-60.4196
-59.8412
-60.1938
-58.725
-62.7161
-62.529
-62.6524
-63.9461
-65.9005
-66.8941
-66.1649
-65.9715
-66.5561
-65.8697
-65.9468
-65.4227
-64.4624
-64.6813
-64.9793
-62.8698
-64.8854
-64.1584
-64.0177
-65.2252
-66.5744
-68.0536
-70.2033
-71.0708
-71.5619
-71.0943
-70.4462
-69.2201
-68.7979
-69.1039
-70.1899
-71.7497
-71.8058
-68.0683
-67.124
-65.8242
-65.7193
-66.2324
-67.4891
-69.2166
-69.9188
-70.6948
-71.552
-71.6175
-71.1072
-70.5124
-69.9681
-70.1613
-70.2567
-70.2685
-70.0963
-68.2395
-68.4682
-68.0168
-67.3698
-67.1973
-67.6947
-68.2317
-68.9213
-69.4744
-70.3088
-70.8513
-71.7393
-71.9535
-71.5011
-71.1748
-71.0793
-70.4992
-69.8653
-69.5175
-45.986
-46.1747
-46.1493
-46.3353
-46.3704
-46.3054
-46.6454
-46.621
-46.5815
-46.5859
-47.0907
-46.989
-46.9772
-46.9227
-46.9786
-46.9591
-47.5785
-47.4991
-47.3816
-47.2374
-47.2936
-47.2823
-47.3317
-48.2754
-48.0757
-47.9915
-47.9238
-47.7629
-47.6671
-47.7049
-47.7699
-49.1261
-48.9549
-48.8048
-48.6991
-48.5458
-48.4109
-48.3151
-48.346
-48.1605
-48.2977
-50.1289
-50.1868
-49.9776
-49.9143
-49.699
-49.5499
-49.3476
-49.1384
-49.2438
-49.2061
-49.2235
-51.6198
-51.5158
-51.2846
-51.2683
-51.1088
-50.8816
-50.6731
-50.6772
-50.5221
-50.556
-50.4038
-50.357
-53.3995
-53.311
-53.0623
-52.9075
-52.7342
-52.4308
-52.4981
-52.404
-52.1635
-52.1341
-52.0619
-51.6754
-51.8111
-55.7241
-55.4644
-55.418
-55.3999
-55.1258
-55.0209
-54.8425
-54.6774
-54.8698
-54.9913
-54.9726
-54.0444
-53.7441
-53.5598
-57.96
-58.4114
-58.4288
-58.4249
-58.3533
-58.1054
-58.2077
-58.0232
-58.0939
-58.1285
-58.0873
-58.2763
-57.6734
-57.137
-55.9725
-60.6259
-60.6023
-61.1425
-62.0272
-62.8836
-62.4835
-62.0719
-62.4922
-62.5838
-61.9605
-61.7807
-60.834
-60.6232
-59.9386
-60.2848
-58.6545
-64.2733
-62.4656
-62.4615
-62.877
-64.5277
-66.0161
-66.9119
-66.0124
-65.8465
-65.9908
-65.771
-66.0342
-65.6972
-64.7616
-64.9639
-64.8169
-63.2407
-66.6592
-64.6101
-64.1725
-63.9686
-65.4527
-66.9464
-68.4579
-70.5121
-70.859
-71.6007
-70.8229
-70.1705
-69.2503
-68.8468
-69.3086
-70.3729
-71.9141
-71.6595
-68.107
-67.9109
-66.8881
-65.6283
-65.6649
-66.3087
-67.6384
-69.407
-69.9619
-70.8338
-71.6579
-71.6129
-71.1762
-70.5831
-70.0604
-70.2116
-70.4012
-70.2936
-70.0506
-67.9826
-68.164
-68.3813
-67.9278
-67.2864
-67.1934
-67.6987
-68.2585
-68.97
-69.511
-70.3608
-70.8851
-71.7595
-71.961
-71.562
-71.2103
-71.1355
-70.6179
-69.9246
-69.528
-45.855
-45.9794
-45.9712
-46.1887
-46.1734
-46.1337
-46.3776
-46.3811
-46.3034
-46.33
-46.7145
-46.6817
-46.5556
-46.6497
-46.5751
-47.1527
-47.1107
-46.995
-46.9466
-46.9164
-46.9593
-47.0306
-47.6639
-47.5737
-47.4803
-47.364
-47.3348
-47.2269
-47.275
-47.3262
-48.2842
-48.0384
-48.0275
-47.8883
-47.8542
-47.7253
-47.7235
-47.7586
-47.6708
-49.2527
-49.1349
-48.9687
-48.8814
-48.6629
-48.5545
-48.5317
-48.4032
-48.3979
-48.2314
-48.4356
-50.3777
-50.1362
-50.0205
-49.9636
-49.8505
-49.7164
-49.4669
-49.3561
-49.2551
-49.1662
-49.2346
-49.2724
-51.7711
-51.6436
-51.4589
-51.313
-51.2934
-50.9749
-50.8299
-50.7311
-50.6837
-50.4205
-50.5664
-50.2919
-50.2957
-53.5557
-53.3051
-53.1905
-53.0666
-52.9041
-52.6341
-52.5254
-52.4191
-52.5243
-52.4667
-52.0525
-52.0256
-51.6543
-51.7867
-55.9183
-55.7296
-55.5355
-55.5144
-55.1511
-55.2945
-55.0357
-54.847
-54.8654
-55.1944
-55.0255
-55.1455
-54.1912
-53.7539
-53.7612
-58.386
-58.2452
-58.4868
-58.6147
-58.2187
-58.4304
-58.0399
-58.3957
-57.8546
-57.9485
-58.4362
-57.9816
-58.1732
-57.6606
-57.0685
-56.1719
-61.9309
-60.2762
-60.6083
-61.2125
-62.208
-62.6733
-62.4204
-61.9851
-62.8203
-62.145
-61.8756
-61.5258
-60.9869
-61.0117
-60.3059
-60.7039
-58.5955
-65.5725
-63.8171
-62.1567
-62.5146
-63.2393
-64.7537
-66.302
-66.9855
-65.708
-66.1262
-65.9186
-65.9077
-66.0993
-65.7392
-65.3058
-65.4945
-64.8929
-63.3545
-67.1443
-66.2176
-64.4144
-64.1083
-63.9631
-65.7217
-67.4293
-68.7633
-70.7945
-70.7647
-71.7395
-70.5844
-70.0081
-69.3115
-68.9308
-69.6764
-70.6319
-71.9246
-71.4309
-67.9507
-67.9863
-67.7489
-66.6635
-65.537
-65.6239
-66.3968
-67.7642
-69.5174
-70.0069
-70.9403
-71.7345
-71.6875
-71.2706
-70.643
-70.1566
-70.2725
-70.5462
-70.2798
-69.9839
-67.9035
-67.9227
-68.0945
-68.3004
-67.859
-67.2194
-67.1881
-67.7174
-68.283
-69.016
-69.5509
-70.4051
-70.9347
-71.7748
-71.9657
-71.6175
-71.2536
-71.1988
-70.6735
-69.9605
-69.5389
-45.7404
-45.8614
-45.853
-46.0229
-45.99
-45.9572
-46.2018
-46.1637
-46.1539
-46.1029
-46.4444
-46.403
-46.3045
-46.322
-46.3426
-46.7927
-46.7232
-46.6426
-46.5818
-46.6373
-46.6405
-47.2299
-47.1657
-47.0901
-46.9816
-46.9256
-46.9946
-47.0103
-46.9808
-47.7209
-47.6535
-47.5052
-47.4131
-47.3991
-47.2884
-47.2383
-47.3415
-47.3857
-48.4569
-48.2538
-48.122
-47.9921
-47.8817
-47.8184
-47.8051
-47.7658
-47.6562
-47.6856
-49.3849
-49.2434
-49.1401
-48.9723
-48.8634
-48.6694
-48.5336
-48.5155
-48.3845
-48.3837
-48.3218
-48.3696
-50.4872
-50.3855
-50.3473
-49.9807
-49.9522
-49.8423
-49.5802
-49.3886
-49.3084
-49.2151
-49.1707
-49.3001
-49.2566
-51.9782
-51.8334
-51.612
-51.4535
-51.2939
-51.0771
-50.8582
-50.8743
-50.7229
-50.5268
-50.4616
-50.5296
-50.3416
-50.3061
-53.7294
-53.2755
-53.3308
-53.1759
-53.1321
-52.8245
-52.7036
-52.4883
-52.6501
-52.2489
-52.1538
-52.0517
-51.9038
-51.5804
-51.7768
-56.2314
-55.9841
-55.6782
-55.5441
-55.4246
-55.254
-55.2775
-55.1037
-54.947
-55.1957
-55.1557
-54.659
-54.5878
-54.2006
-54.1834
-53.8413
-59.4788
-58.2453
-58.2786
-58.6437
-58.5513
-58.3153
-58.3065
-58.144
-58.4393
-58.8795
-59.2606
-58.1115
-57.6459
-57.5785
-57.5323
-57.1807
-56.2267
-63.8494
-62.0888
-60.1081
-60.5678
-61.2332
-62.8447
-62.5502
-62.3563
-61.9301
-62.9209
-62.2038
-62.4006
-61.7338
-61.1881
-61.3854
-60.734
-61.1119
-58.5547
-66.2089
-65.3965
-63.3717
-62.5305
-62.7562
-63.6513
-64.9019
-66.4818
-66.8478
-65.4295
-66.031
-65.6588
-66.0293
-66.1651
-65.828
-65.5964
-66.0781
-65.0093
-63.6245
-67.5737
-66.926
-65.8784
-64.2693
-64.0284
-64.2534
-66.0694
-67.9534
-69.1321
-70.7103
-70.6647
-71.9163
-70.3323
-69.886
-69.381
-69.048
-69.7911
-70.9897
-71.8266
-71.2584
-68.0499
-67.8173
-67.8807
-67.5864
-66.4777
-65.4017
-65.605
-66.5079
-67.8751
-69.6174
-70.0906
-71.0381
-71.8318
-71.7723
-71.3557
-70.7097
-70.2559
-70.3657
-70.7082
-70.2657
-69.9227
-67.6372
-67.8647
-67.8687
-68.0244
-68.2113
-67.793
-67.158
-67.1816
-67.7476
-68.342
-69.0658
-69.5706
-70.4469
-70.9909
-71.791
-71.9675
-71.6567
-71.3045
-71.2181
-70.6981
-69.9939
-69.5618
-45.5606
-45.7773
-45.7629
-45.8828
-45.8486
-45.8292
-46.0296
-45.9963
-45.9799
-45.9398
-46.2251
-46.2003
-46.1591
-46.0783
-46.1258
-46.5079
-46.4214
-46.3853
-46.306
-46.3997
-46.3546
-46.8238
-46.8094
-46.6631
-46.6034
-46.6195
-46.6607
-46.6746
-47.3177
-47.2621
-47.1512
-47.0731
-46.9951
-46.9694
-46.9802
-47.0259
-46.9948
-47.8792
-47.7219
-47.6106
-47.5118
-47.4181
-47.3006
-47.2292
-47.2645
-47.3536
-47.2136
-48.5668
-48.365
-48.2673
-48.1422
-47.9845
-47.8792
-47.8769
-47.7945
-47.7723
-47.6719
-47.77
-49.5776
-49.3964
-49.2285
-49.0743
-48.9215
-48.7769
-48.6589
-48.5231
-48.4765
-48.3901
-48.3794
-48.3354
-48.3731
-50.7514
-50.5905
-50.4011
-50.2011
-50.0319
-50.0618
-49.7347
-49.5601
-49.4016
-49.3258
-49.1544
-49.319
-49.3237
-49.2814
-52.1117
-51.9385
-51.7565
-51.5886
-51.4166
-51.2306
-51.0936
-50.9036
-50.7936
-50.6338
-50.4583
-50.319
-50.4252
-50.3885
-50.3257
-53.7263
-53.6576
-53.2258
-53.3651
-53.1962
-53.04
-52.8827
-52.6509
-52.4597
-52.653
-51.8746
-52.0218
-52.1839
-52.1561
-51.5746
-51.862
-57.1697
-56.1841
-55.9405
-55.6028
-55.659
-55.4326
-55.373
-55.325
-55.0442
-54.9604
-55.169
-54.5665
-54.5425
-54.541
-54.4152
-54.1208
-53.5384
-59.853
-59.3537
-58.3602
-58.4243
-58.6777
-58.5378
-58.3708
-58.2652
-58.228
-58.153
-58.8127
-58.7572
-57.8572
-57.2699
-57.4783
-57.6099
-56.9763
-56.3773
-64.3342
-63.2524
-61.6092
-60.1003
-60.7404
-61.6223
-62.634
-62.5823
-62.203
-61.9579
-62.4493
-62.3027
-62.0895
-61.696
-61.3864
-61.7213
-61.0575
-61.4809
-58.6353
-66.4659
-66.0764
-65.1019
-62.851
-62.1281
-62.963
-64.0519
-65.1091
-66.5334
-66.6486
-65.2293
-66.0485
-65.5062
-66.1358
-66.1932
-65.8606
-65.9531
-66.4808
-65.139
-63.7888
-68.1854
-67.298
-66.7255
-65.5912
-64.1448
-63.9179
-64.3389
-66.4078
-68.3092
-69.5345
-70.5987
-70.5676
-72.0402
-70.1096
-69.7764
-69.3991
-69.1882
-69.8496
-71.5024
-71.7268
-70.9475
-67.9469
-67.9742
-67.6958
-67.7646
-67.4257
-66.2231
-65.2498
-65.6091
-66.6165
-67.9976
-69.6885
-70.1963
-71.138
-71.8092
-71.8969
-71.4834
-70.7741
-70.3684
-70.4516
-70.8685
-70.2466
-69.8691
-67.7091
-67.6167
-67.828
-67.8178
-67.973
-68.1112
-67.7199
-67.1011
-67.1707
-67.7865
-68.4018
-69.1199
-69.6024
-70.4867
-71.0367
-71.8038
-71.9578
-71.6817
-71.3527
-71.2057
-70.76
-70.0288
-69.5923
-45.4355
-45.6048
-45.5254
-45.7155
-45.794
-45.7457
-45.9463
-45.8865
-45.8575
-45.8085
-46.0597
-46.0251
-46.0042
-45.9361
-45.9404
-46.2682
-46.2586
-46.2127
-46.1345
-46.1313
-46.1248
-46.5466
-46.4842
-46.4173
-46.3632
-46.2685
-46.3592
-46.3585
-46.8977
-46.8902
-46.7768
-46.6496
-46.6313
-46.6907
-46.6958
-46.65
-47.4735
-47.3048
-47.191
-47.1375
-47.1027
-47.031
-46.9768
-46.9276
-47.0107
-46.9753
-48.0284
-47.7815
-47.7512
-47.5889
-47.4968
-47.4357
-47.3361
-47.2981
-47.2855
-47.1734
-47.3177
-48.7132
-48.3995
-48.3338
-48.247
-48.1363
-48.0359
-47.9419
-47.8322
-47.8003
-47.7423
-47.682
-47.697
-49.8019
-49.5652
-49.346
-49.2361
-49.0468
-48.941
-48.7396
-48.601
-48.5164
-48.5143
-48.2718
-48.4018
-48.426
-48.3641
-50.955
-50.818
-50.5767
-50.3531
-50.195
-50.0492
-49.8989
-49.7364
-49.548
-49.393
-49.235
-49.2391
-49.3514
-49.3303
-49.3001
-52.2649
-52.2072
-51.9045
-51.7944
-51.5756
-51.3951
-51.2783
-51.0234
-50.9528
-50.7856
-50.5966
-50.6151
-50.3603
-50.4738
-50.0263
-50.2424
-54.1389
-53.8869
-53.7616
-53.6792
-53.4204
-53.2466
-53.0519
-52.7957
-52.598
-52.4796
-51.8886
-52.1021
-52.2324
-52.1439
-52.2576
-51.6549
-51.8878
-57.2019
-56.1252
-56.3515
-55.9896
-55.8347
-55.3379
-55.4866
-55.3998
-55.3107
-55.0859
-54.7811
-54.4539
-54.7088
-54.8966
-54.4811
-54.3285
-53.9738
-53.522
-60.8098
-59.573
-58.7446
-58.2883
-58.5746
-58.8307
-58.4219
-58.2631
-58.1993
-58.3208
-58.1217
-58.5606
-57.9056
-58.0714
-57.593
-57.2067
-57.7377
-56.9104
-56.3074
-64.9561
-64.4029
-62.9343
-61.2873
-60.4234
-61.0021
-61.8176
-62.4256
-62.5588
-62.1744
-61.8944
-62.0995
-62.0443
-62.0957
-62.0104
-62.0013
-62.1132
-61.371
-61.6933
-58.6973
-67.1946
-66.3765
-65.819
-64.7003
-62.4019
-61.3082
-63.1635
-64.4399
-65.349
-66.4648
-66.3953
-65.0758
-65.7227
-65.7056
-66.2232
-66.1938
-66.0149
-66.3476
-66.918
-65.271
-63.8446
-67.9214
-68.0813
-67.1176
-66.5017
-65.2694
-64.0831
-63.8175
-64.4567
-66.7128
-68.6403
-69.7931
-70.5263
-70.6856
-71.9407
-70.0156
-69.6684
-69.4652
-69.4052
-70.1751
-71.9181
-71.4977
-70.7542
-68.3021
-67.9189
-67.8861
-67.6074
-67.6568
-67.2688
-65.9898
-65.1762
-65.6256
-66.7252
-68.1018
-69.7369
-70.3295
-71.2429
-71.7168
-72.0207
-71.6035
-70.8474
-70.4876
-70.5494
-70.9991
-70.232
-69.8359
-67.3948
-67.7084
-67.5823
-67.7787
-67.771
-67.9289
-68.0196
-67.6221
-67.0335
-67.1696
-67.8202
-68.439
-69.176
-69.6323
-70.5349
-71.0739
-71.8134
-71.9416
-71.7162
-71.4016
-71.2286
-70.8362
-70.0703
-69.6228
-45.361
-45.4304
-45.4271
-45.5961
-45.6079
-45.544
-45.7603
-45.6213
-45.7504
-45.696
-45.9183
-45.9916
-45.9044
-45.8254
-45.8072
-46.0963
-46.0143
-46.0091
-46.0007
-45.9518
-45.9476
-46.3303
-46.2868
-46.2069
-46.1314
-46.1295
-46.13
-46.1272
-46.6259
-46.5478
-46.5069
-46.3812
-46.4082
-46.3246
-46.3793
-46.3578
-46.9925
-46.9403
-46.8454
-46.7326
-46.6803
-46.6716
-46.6034
-46.718
-46.6913
-47.6081
-47.4215
-47.3677
-47.194
-47.1939
-47.108
-47.0349
-46.9996
-46.9718
-46.9399
-46.9498
-48.2153
-47.9295
-47.7603
-47.712
-47.5903
-47.489
-47.4118
-47.3756
-47.3379
-47.2727
-47.2919
-47.2887
-48.8796
-48.6585
-48.5689
-48.3771
-48.2543
-48.1513
-47.9661
-47.9201
-47.8501
-47.7864
-47.7523
-47.6778
-47.7312
-50.0658
-49.7861
-49.6139
-49.4011
-49.2247
-49.0677
-48.8993
-48.7089
-48.6151
-48.5571
-48.4823
-48.3001
-48.4563
-48.3801
-48.3788
-51.1136
-50.9965
-50.8627
-50.4969
-50.3429
-50.2049
-50.0332
-49.8935
-49.6467
-49.5403
-49.3322
-49.2366
-49.231
-49.1148
-49.2487
-49.2396
-52.5854
-52.457
-52.2091
-52.0031
-51.7572
-51.6071
-51.5113
-51.2413
-51.0724
-50.9591
-50.7043
-50.6407
-50.4851
-50.4342
-50.4742
-50.1211
-50.2249
-54.322
-54.0556
-53.9107
-53.7652
-53.5771
-53.3373
-53.1379
-52.945
-52.7607
-52.6275
-52.328
-52.31
-52.2474
-52.3876
-52.14
-52.3432
-51.6399
-51.6768
-57.8106
-57.1754
-56.2839
-56.2963
-55.9312
-55.6581
-55.527
-55.3926
-55.4355
-55.2529
-54.9264
-54.721
-54.9602
-54.9611
-54.8499
-54.3267
-54.0231
-53.9235
-53.5677
-61.3904
-60.6458
-59.4274
-58.7263
-58.2847
-58.6741
-58.9272
-58.3514
-58.0064
-58.2761
-58.1795
-58.0949
-58.2526
-58.1269
-57.8006
-57.3177
-57.2575
-58.0575
-57.0093
-56.1942
-65.4394
-64.9066
-64.232
-62.7374
-60.8372
-60.3767
-61.2122
-61.9677
-62.202
-62.1894
-61.9416
-61.9329
-61.9755
-62.1243
-62.2723
-62.3582
-62.3385
-62.4643
-61.7955
-61.8985
-58.54
-66.7649
-67.1963
-66.2247
-65.5822
-64.2546
-62.2252
-61.9633
-63.3726
-64.6892
-65.4486
-66.4924
-66.0316
-65.0202
-65.847
-65.6717
-66.3651
-66.233
-66.3266
-67.1846
-67.6331
-65.4092
-64.0648
-68.2925
-67.8423
-67.8967
-66.9434
-66.2949
-64.9629
-63.9985
-63.8325
-65.0956
-67.1087
-69.1171
-70.1323
-70.612
-70.7486
-71.8438
-69.9789
-69.6451
-69.5737
-69.628
-70.5133
-72.2651
-71.2185
-70.7896
-67.6297
-68.2638
-67.8849
-67.779
-67.5236
-67.5539
-67.0973
-65.8816
-65.1272
-65.6555
-66.8463
-68.2396
-69.8282
-70.4807
-71.2562
-71.6513
-72.0964
-71.6683
-70.9334
-70.5972
-70.6545
-71.0866
-70.2507
-69.7861
-66.9842
-67.4087
-67.7014
-67.5535
-67.724
-67.7253
-67.8809
-67.9396
-67.5476
-66.9964
-67.1759
-67.85
-68.5107
-69.2201
-69.6824
-70.5883
-71.113
-71.8232
-71.9193
-71.7579
-71.449
-71.3085
-70.8788
-70.1123
-69.6549
-45.2933
-45.3575
-45.3389
-45.4513
-45.4189
-45.4282
-45.5644
-45.6669
-45.6017
-45.5476
-45.803
-45.7632
-45.6386
-45.7067
-45.7015
-45.9663
-45.8936
-45.9377
-45.9397
-45.8149
-45.8184
-46.1388
-46.039
-46.0664
-45.9438
-45.9645
-45.9708
-45.9405
-46.3952
-46.3223
-46.2737
-46.144
-46.1588
-46.126
-46.1243
-46.1159
-46.7794
-46.6392
-46.5515
-46.49
-46.3393
-46.3856
-46.3975
-46.4106
-46.3832
-47.113
-46.9257
-46.8921
-46.8526
-46.7247
-46.7037
-46.7334
-46.6859
-46.6895
-46.6627
-47.7581
-47.5635
-47.4364
-47.3858
-47.2586
-47.1399
-47.0942
-47.0222
-47.0292
-46.9534
-46.9719
-46.989
-48.2465
-48.1043
-48.0433
-47.8175
-47.7519
-47.606
-47.5192
-47.4478
-47.3991
-47.3323
-47.3195
-47.2459
-47.3003
-49.0698
-48.8622
-48.695
-48.523
-48.3415
-48.286
-48.0992
-47.9781
-47.9067
-47.8544
-47.7588
-47.7741
-47.7412
-47.6853
-50.3277
-49.9865
-49.7795
-49.5783
-49.3462
-49.2612
-49.0118
-48.8843
-48.7038
-48.6306
-48.4078
-48.296
-48.3965
-48.3555
-48.3494
-48.3615
-51.3028
-51.052
-50.9766
-50.5205
-50.5113
-50.3585
-50.1432
-50.044
-49.8314
-49.6865
-49.4239
-49.3473
-49.2407
-49.1682
-49.2665
-49.2542
-49.1572
-52.9833
-52.7369
-52.2643
-52.1911
-52.054
-51.7438
-51.5979
-51.4608
-51.2058
-51.0837
-50.9026
-50.7827
-50.6138
-50.5337
-50.4563
-50.4297
-50.047
-50.2517
-54.6207
-54.3102
-54.1059
-54.0132
-53.7379
-53.6206
-53.3266
-53.1073
-52.9156
-52.7994
-52.6747
-52.4136
-52.444
-52.0254
-51.8992
-52.304
-52.3477
-51.7847
-51.3597
-57.9887
-57.1587
-56.9559
-56.5345
-56.3954
-55.9413
-55.6359
-55.6235
-55.5137
-55.4671
-55.1279
-54.9088
-54.9376
-54.9847
-54.5506
-54.4523
-54.7109
-53.8994
-53.9534
-53.517
-61.037
-61.4871
-60.2645
-59.3701
-58.5939
-58.2404
-58.5835
-58.7484
-58.2156
-58.2112
-58.1754
-58.0707
-58.3288
-57.8954
-57.6357
-57.0488
-56.9259
-57.4165
-57.9994
-57.1221
-56.097
-65.1368
-65.28
-64.9091
-63.5201
-62.2856
-60.6422
-60.5704
-61.1256
-62.0658
-62.1776
-62.1971
-61.8975
-61.8518
-62.0014
-62.3208
-62.3343
-62.0841
-62.3613
-62.7417
-62.1393
-62.2533
-58.5836
-66.0526
-66.7703
-67.1571
-66.0543
-65.349
-64.0273
-61.8101
-62.2263
-63.7454
-64.755
-65.4064
-66.495
-65.684
-64.845
-65.4961
-65.7982
-66.4595
-66.4037
-66.6314
-67.8278
-68.4342
-66.0163
-64.4385
-67.1401
-68.1221
-67.7782
-67.7882
-66.7077
-66.0622
-64.7804
-63.9278
-63.8642
-65.3482
-67.3352
-69.3328
-70.5207
-70.6281
-70.843
-71.6199
-69.9887
-69.7419
-69.7539
-69.9089
-70.9367
-72.6734
-71.0644
-70.3365
-67.396
-67.5801
-68.1496
-67.8442
-67.6651
-67.4427
-67.439
-66.9378
-65.8049
-65.0748
-65.6846
-66.9638
-68.3719
-69.9383
-70.6067
-71.2437
-71.6368
-72.2425
-71.7698
-71.0219
-70.7145
-70.7627
-71.1386
-70.2908
-69.7206
-66.9968
-66.859
-67.4206
-67.6877
-67.5336
-67.6762
-67.6818
-67.8419
-67.8764
-67.5242
-66.9659
-67.1974
-67.8589
-68.5796
-69.2643
-69.7649
-70.6458
-71.1515
-71.8259
-71.9006
-71.795
-71.4853
-71.377
-70.8973
-70.1574
-69.6929
-45.1612
-45.2579
-45.285
-45.3957
-45.3645
-45.3232
-45.5136
-45.4428
-45.397
-45.4251
-45.6079
-45.5709
-45.6335
-45.5946
-45.5585
-45.8286
-45.7926
-45.775
-45.6232
-45.7002
-45.6918
-46.0239
-45.9082
-45.8898
-45.9515
-45.9206
-45.8046
-45.7879
-46.1915
-46.124
-46.0971
-46.0115
-45.9982
-45.9559
-45.9477
-45.9469
-46.5225
-46.3753
-46.3137
-46.2429
-46.0709
-46.1626
-46.1194
-46.1691
-46.1133
-46.8069
-46.7
-46.6036
-46.5256
-46.4655
-46.3893
-46.3991
-46.3507
-46.3964
-46.3923
-47.2452
-47.0545
-47.082
-46.884
-46.8045
-46.7735
-46.6954
-46.7199
-46.7303
-46.6509
-46.6548
-47.8306
-47.671
-47.5564
-47.4063
-47.3193
-47.2236
-47.198
-47.089
-47.0321
-47.0196
-46.9867
-46.9963
-46.9537
-48.5298
-48.247
-48.1988
-48.133
-47.8007
-47.7246
-47.6227
-47.4748
-47.4488
-47.3941
-47.3255
-47.3023
-47.2812
-47.2903
-49.2353
-49.0294
-48.8807
-48.7535
-48.5431
-48.3586
-48.2294
-48.0632
-48.0006
-47.896
-47.7945
-47.7699
-47.73
-47.7068
-47.6601
-50.5114
-50.1853
-50.0225
-49.7464
-49.6036
-49.3488
-49.0969
-49.0177
-48.9177
-48.7093
-48.5987
-48.4128
-48.2893
-48.3891
-48.3678
-48.3239
-48.3357
-51.6376
-51.4386
-51.1544
-50.9272
-50.6847
-50.5573
-50.3084
-50.147
-49.9848
-49.8319
-49.6227
-49.4402
-49.3152
-49.2727
-49.208
-49.1971
-49.2797
-49.1834
-53.2062
-53.1256
-52.7648
-52.2926
-52.1093
-52.0428
-51.7023
-51.5146
-51.4655
-51.2283
-51.0471
-50.9018
-50.7305
-50.5183
-50.4666
-50.4272
-50.2985
-50.2377
-50.1373
-55.0088
-54.6397
-54.5489
-54.2467
-54.1129
-53.827
-53.5788
-53.3711
-53.2056
-52.942
-52.8593
-52.6555
-52.5319
-51.7566
-51.9798
-52.054
-52.4107
-52.2739
-51.5711
-51.2868
-58.0688
-57.9225
-57.0719
-57.1799
-56.541
-56.4454
-56.0476
-55.7057
-55.6618
-55.6063
-55.2646
-55.0675
-54.9166
-54.8368
-54.6695
-54.3752
-54.4176
-54.2916
-53.8105
-54.0415
-53.266
-60.5485
-61.1096
-61.3576
-60.1862