/*--------------------------------*- C++ -*----------------------------------*\
  =========                 |
  \\      /  F ield         | OpenFOAM: The Open Source CFD Toolbox
   \\    /   O peration     | Website:  https://openfoam.org
    \\  /    A nd           | Version:  7
     \\/     M anipulation  |
\*---------------------------------------------------------------------------*/
FoamFile
{
    version     2.0;
    format      ascii;
    class       surfaceScalarField;
    location    "8";
    object      phi;
}
// * * * * * * * * * * * * * * * * * * * * * * * * * * * * * * * * * * * * * //

dimensions      [0 3 -1 0 0 0 0];

internalField   nonuniform List<scalar> 
54095
(
0.000247388
-3.9856e-05
-0.000269354
1.98732e-05
7.92493e-05
-0.00139776
9.94054e-05
-2.41393e-05
-0.000990042
0.000216368
-3.18582e-05
-0.000453863
-0.0002117
0.000129135
-0.00490003
2.79406e-05
7.44279e-05
-0.00170085
-5.20101e-05
9.68321e-05
-0.00122621
1.34469e-05
-3.36029e-05
-0.00126263
4.62284e-05
-2.05565e-05
-0.00104757
0.000177575
-2.67972e-05
-0.000604641
-0.000585986
0.000375395
-0.00738211
0.00021221
0.000378842
-0.00398296
-0.000249332
3.19754e-05
-0.00473468
9.53192e-05
-1.86383e-05
-0.00229767
-0.000102423
7.90565e-05
-0.00153442
-0.000136695
0.000116386
-0.00102833
2.34825e-06
-4.4728e-05
-0.00178781
3.95378e-06
-3.53104e-05
-0.00125183
-1.71931e-05
-1.88462e-05
-0.00103833
0.00013776
-2.40941e-05
-0.000718308
-0.00105024
0.000418081
-0.00544064
1.97499e-05
0.00058434
-0.00561632
-0.000600998
0.000345739
-0.00737618
0.000266421
0.000203443
-0.00399117
0.000265585
0.000393482
0.00126022
-0.000340312
0.00011783
-0.0046489
1.12789e-05
1.52393e-05
-0.00154714
6.39714e-05
-1.53077e-05
-0.00226332
-0.00020971
9.55788e-05
-0.0013211
-0.000182045
0.000120035
-0.000828554
-3.86881e-05
-4.62118e-05
-0.000824015
-1.20654e-05
-4.53956e-05
-0.00176566
-5.62711e-06
-3.29592e-05
-0.00123209
-3.80903e-05
-1.93531e-05
-0.00100498
9.60063e-05
-2.33726e-05
-0.000790941
-0.00111813
0.000219936
-0.00509915
-0.000675852
0.00138258
-0.00620038
-0.00108657
0.000483014
-0.00543808
0.000322884
0.000700733
-0.00617882
0.000140435
0.000574746
-0.00572017
-0.000654988
0.000328852
-0.00739036
0.000273347
-3.73803e-05
-0.00358401
0.000257979
0.000238536
-0.00403023
0.000236442
0.00043297
0.000498926
-0.000382066
0.000154512
-0.00460339
-9.18948e-05
1.36593e-05
-0.0012489
7.09875e-07
2.83872e-05
-0.00160361
2.37343e-05
-6.09454e-06
-0.00219101
-0.000253383
9.53047e-05
-0.00108107
-0.000227709
0.000111327
-0.000616165
-3.59522e-05
-5.22816e-05
-0.0004384
-4.18012e-05
-4.55678e-05
-0.000782042
-1.16048e-05
-4.26645e-05
-0.00174435
-1.61612e-05
-3.54138e-05
-0.00119987
-3.94349e-05
-2.03103e-05
-0.000968608
6.02599e-05
-2.41497e-05
-0.000827051
-0.00146169
0.000178561
-0.00534974
-0.000845681
0.000436813
-0.00689421
-0.00110426
0.000260972
-0.00534244
0.000270334
0.00143738
-0.00642974
-0.00046161
0.000963794
-0.00607912
-0.00114429
0.000432414
-0.00538119
0.00017572
0.000711182
-0.00572487
6.77813e-05
0.000686127
-0.00610001
0.000119092
0.000543397
-0.00581737
-0.000686026
0.000312931
-0.00739933
-2.55298e-05
6.01686e-05
-0.00262216
0.00020997
-4.15933e-05
-0.00351314
0.000193135
0.000204052
-0.00397071
0.000221154
0.000408947
-0.000230046
-0.000471243
0.000151637
-0.00451149
-6.05789e-05
-4.99245e-05
-0.00174279
-6.11749e-05
4.3765e-06
-0.00120552
-2.12145e-05
5.58896e-05
-0.00165599
-3.22028e-05
-2.56279e-05
-0.00205403
-0.000225378
7.48287e-05
-0.000858634
-0.000254616
9.831e-05
-0.000399599
-8.23072e-05
-6.10574e-05
-0.000470956
-3.68875e-05
-5.22123e-05
-0.000394868
-4.11e-05
-4.47151e-05
-0.000738891
-1.10566e-05
-4.51433e-05
-0.00172357
-1.15785e-05
-3.42309e-05
-0.00117437
-3.7077e-05
-2.24199e-05
-0.000933261
3.27572e-05
-2.43914e-05
-0.000835417
-0.00194439
0.00028963
-0.00376926
-0.000869199
0.000392514
-0.00596635
-0.001347
4.49357e-05
-0.00515193
-0.000250961
0.000681969
-0.00650652
-0.000735279
0.000468
-0.00682757
-0.00137308
0.000365434
-0.00547907
-0.000122853
0.00117805
-0.00695027
-0.0001289
0.000936825
-0.00620609
-0.000381529
0.00116884
-0.00631492
-0.00108473
0.000417785
-0.00540027
6.53871e-05
0.000527994
-0.00503796
0.00026136
0.000646435
-0.00573657
7.30457e-05
0.000660665
-0.00609718
0.000154491
0.000479061
-0.00591683
-0.000810073
0.000355757
-0.00741626
-9.95327e-05
0.000185526
-0.00212672
-1.4761e-05
2.10584e-05
-0.00273123
0.000279596
-1.53188e-05
-0.00359458
0.000108948
0.000261216
-0.00396413
0.000159833
0.00034529
-0.00080891
-0.000492668
0.000100109
-0.00437355
-0.000122492
-4.42881e-05
-0.00138393
-5.49893e-05
-6.7681e-05
-0.00165263
-3.96547e-05
1.99045e-05
-0.00117098
-2.21705e-05
4.62003e-05
-0.0017167
-2.06063e-05
-5.68423e-05
-0.00191333
-0.00022893
5.90568e-05
-0.000627528
-0.000247213
8.82896e-05
-0.000207919
-0.000133868
-6.28331e-05
-0.000813283
-7.99437e-05
-6.04841e-05
-0.00038274
-5.09792e-05
-5.19369e-05
-0.000336667
-3.94333e-05
-4.52861e-05
-0.000699315
-1.0918e-05
-4.61986e-05
-0.00170068
-1.2853e-05
-3.53157e-05
-0.00114862
-3.85796e-05
-2.30868e-05
-0.000895985
1.34871e-05
-2.57564e-05
-0.000823148
-0.00176618
4.21126e-05
-0.00406032
-0.0010472
0.000594457
-0.005295
-0.00173989
0.000227951
-0.00360432
-0.000619109
0.000665245
-0.00628019
-0.000877692
0.000353643
-0.00613265
-0.00156247
0.000174258
-0.0051368
-0.000213993
0.000657787
-0.00680624
-0.000226353
0.000590826
-0.00653189
-0.000589264
0.000485039
-0.00673944
-0.00127156
0.000366376
-0.00565862
-0.000108905
0.00122549
-0.00697704
-2.13824e-05
0.00113788
-0.00686858
-8.22755e-05
0.00126161
-0.00614354
-0.000270525
0.000907583
-0.0063797
-0.00116081
0.000411414
-0.00546095
5.9963e-05
0.000315002
-0.00480916
4.11664e-05
0.000555377
-0.00500283
0.00019904
0.000633236
-0.00562858
-0.00012962
0.000621612
-0.00600117
9.87983e-05
0.000488497
-0.00598854
-0.000812421
0.000266379
-0.00736288
3.14996e-05
0.0002093
-0.00297849
-0.000105297
0.000177301
-0.00223265
5.84542e-05
2.44915e-05
-0.00286915
0.000248592
0.000106894
-0.00371102
0.000177227
0.000266287
-0.00408296
0.000223136
0.000320451
-0.00148132
-0.000443602
6.81331e-05
-0.00424529
-0.000194557
-2.02671e-05
-0.00117261
-0.000109574
-3.88101e-05
-0.00138317
-9.16764e-05
-7.6039e-05
-0.00151599
4.80192e-05
2.24274e-05
-0.00123466
-3.62464e-05
2.52749e-05
-0.00177349
-3.27769e-05
-5.63802e-05
-0.00177797
-0.000258746
4.89097e-05
-0.000367981
-0.000231719
8.34812e-05
-4.61943e-05
-0.00011271
-5.3642e-05
-0.00128263
-0.000135558
-6.21549e-05
-0.000676055
-7.44009e-05
-6.10899e-05
-0.000299186
-5.00443e-05
-5.30433e-05
-0.000278865
-3.59619e-05
-4.77592e-05
-0.000661793
-1.82099e-05
-4.81756e-05
-0.00166961
-1.56594e-05
-3.50647e-05
-0.00112098
-4.02715e-05
-2.48223e-05
-0.000856648
3.49499e-06
-2.62712e-05
-0.000800371
-0.00159468
-5.92873e-05
-0.00364582
-0.00110799
0.000196222
-0.00500631
-0.00164383
4.26932e-06
-0.00416066
-0.000633675
0.000597154
-0.0057407
-0.00101452
0.000475454
-0.00540567
-0.00167054
0.0002668
-0.00376306
-0.00034981
0.000719107
-0.00622589
-0.000507118
0.000674456
-0.00632023
-0.000662963
0.000372821
-0.00625751
-0.00149706
0.000155546
-0.00506685
-5.68775e-05
0.000665889
-0.00712505
-0.000313326
0.000662817
-0.00658629
-0.000234712
0.000646199
-0.00654062
-0.000495489
0.000588513
-0.00673661
-0.00132919
0.000335173
-0.00582541
1.23541e-05
0.00122588
-0.00649421
-0.000152996
0.00115254
-0.00679754
-0.000303339
0.00117255
-0.00627715
-0.000317783
0.000950894
-0.00599868
-0.000260016
0.00101524
-0.00662471
-0.00112832
0.000378053
-0.0055231
0.000123798
0.000190709
-0.00580889
-2.40687e-05
0.000396358
-0.00473137
3.57564e-05
0.000583171
-0.00493006
0.000161041
0.000549524
-0.00546894
0.000204837
0.000446951
-0.00598723
0.000432087
0.00035794
-0.00628905
-0.000782913
0.000301464
-0.00732504
-3.88887e-05
0.000198387
-0.00373502
-2.43367e-05
0.000200148
-0.00308658
-0.000111866
0.000163582
-0.00235155
0.000236897
5.098e-05
-0.00300211
0.000387499
0.000189527
-0.00405801
0.000217071
0.000261185
-0.00427354
1.97205e-05
0.000195038
-0.00188669
-0.000396925
7.61676e-05
-0.00415625
-0.000240572
-2.1027e-05
-0.000952235
-0.000173858
9.22445e-07
-0.00117404
-9.83258e-05
-3.70864e-05
-0.0013982
-6.15796e-05
-8.45741e-05
-0.00139745
6.75534e-05
2.02696e-06
-0.00131492
-3.03265e-05
1.99784e-05
-0.00183773
1.0046e-05
-4.33528e-05
-0.00171142
-0.000279085
4.71199e-05
-9.2806e-05
-0.000205669
7.59222e-05
8.7047e-05
-0.000147287
-3.81871e-05
-0.00143431
-0.000117609
-5.43092e-05
-0.00117287
-0.000135926
-6.2984e-05
-0.000538235
-6.86549e-05
-6.27076e-05
-0.000220867
-4.26335e-05
-5.41248e-05
-0.000229866
-3.3992e-05
-4.83282e-05
-0.000627648
-2.37021e-05
-4.90764e-05
-0.0016319
-2.07115e-05
-3.63376e-05
-0.00108876
-4.20174e-05
-2.57022e-05
-0.0008152
2.60484e-06
-2.6824e-05
-0.000776152
-8.13601e-05
-0.00352156
-0.00115832
4.33218e-05
-0.00474814
-0.00162574
5.34409e-05
-0.00371734
-0.000764953
0.000359175
-0.00539072
-0.00102658
0.000254619
-0.0052446
-0.00142761
-0.000102532
-0.00430105
-0.000328845
0.000656576
-0.00581694
-0.000565681
0.000574906
-0.00578159
-0.000729783
0.000451516
-0.00552357
-0.00159461
0.00026773
-0.00393324
-0.000178121
0.000823479
-0.00620543
-0.000358475
0.000714622
-0.00622091
-0.000356218
0.000619835
-0.00644574
-0.000661981
0.000351791
-0.00628726
-0.001385
0.000152182
-0.00516323
9.25336e-06
0.000768373
-0.00704432
-0.000144143
0.000532452
-0.00700354
-0.000342192
0.000651327
-0.00655256
-0.000194944
0.000591112
-0.00666606
-0.000443708
0.000616796
-0.00683455
-0.00128774
0.000349775
-0.00601577
-0.000108234
0.00102906
-0.00649616
-7.53457e-05
0.00106792
-0.00635831
-0.000280252
0.00121423
-0.00652322
-0.000300394
0.00119586
-0.00606068
-6.35733e-05
0.00113082
-0.00584586
6.70029e-05
0.000927048
-0.00680862
-0.00106219
0.000406794
-0.00565062
-0.000113079
0.000320289
-0.00615081
-9.55422e-06
0.000219114
-0.00564643
-0.00014221
0.000484352
-0.00460221
0.000123671
0.000542913
-0.00481023
0.000592876
0.000280347
-0.00550772
0.000437786
0.000518497
-0.0063685
0.000199814
0.000410774
-0.00657846
-0.000713721
0.000389297
-0.00739754
-0.000147152
0.000241776
-0.00362743
4.92917e-06
0.000165907
-0.00387956
-9.40137e-05
0.000177048
-0.00310436
-4.76892e-05
0.000144537
-0.002459
0.000418749
0.000141913
-0.00330569
0.000163763
0.00016749
-0.0041584
0.000248673
0.00018108
-0.00449821
-0.000103127
0.000210582
-0.00219706
-0.000364002
7.22748e-05
-0.00407019
-0.000282602
-2.56761e-05
-0.00127534
-0.00021037
-3.75283e-05
-0.000821023
-0.000175182
7.21806e-06
-0.00117909
-8.13072e-05
-2.94398e-05
-0.00144068
-2.87528e-05
-0.000104705
-0.0013046
9.27162e-05
8.62313e-06
-0.00143028
-4.8457e-05
1.05386e-05
-0.00186687
-2.3226e-05
-1.59622e-05
-0.00164582
-0.000265205
5.30929e-05
0.000153211
-0.000172667
6.64703e-05
0.000195848
-0.000146596
-3.12789e-05
-0.00140733
-0.000148271
-3.91691e-05
-0.00130118
-0.000118546
-5.54884e-05
-0.00106182
-0.00013106
-6.50577e-05
-0.000404825
-6.4689e-05
-6.52505e-05
-0.000145052
-5.1181e-05
-5.32738e-05
-0.00017374
-3.06965e-05
-4.88441e-05
-0.000597184
-2.75871e-05
-5.14976e-05
-0.00158915
-2.69945e-05
-3.63938e-05
-0.00105107
-3.58336e-05
-2.64893e-05
-0.000779701
5.0559e-06
-2.71501e-05
-0.000754058
0.000126481
-0.00395037
-0.00154465
-9.23257e-05
-0.00351033
-0.000839275
0.000178691
-0.00494489
-0.00117969
6.6487e-05
-0.00460807
-0.00142252
1.95417e-05
-0.00374198
-0.000430004
0.000502024
-0.0054835
-0.00066975
0.000326822
-0.00535885
-0.000840107
0.000157205
-0.00539401
-0.00151405
-8.58067e-05
-0.00429581
-0.000234835
0.000774573
-0.00545342
-0.000483967
0.000677019
-0.00579357
-0.000429045
0.000549708
-0.00580696
-0.00081584
0.000431931
-0.00553391
-0.00152742
0.000253772
-0.00404459
2.65203e-05
0.000897595
-0.00629861
-4.48315e-05
0.000748587
-0.00633871
-0.000287305
0.000699227
-0.00635519
-0.000254962
0.000539578
-0.00657351
-0.000563666
0.000397196
-0.00641232
-0.00154593
0.000270299
-0.00517534
-9.48323e-05
0.000775853
-0.00699377
-5.30927e-05
0.000599533
-0.00713365
-0.000283564
0.00069293
-0.00704183
-0.000217495
0.000574308
-0.00661866
-0.000271155
0.00069596
-0.00653764
-0.000191234
0.000691452
-0.00691799
-0.0011133
0.000318328
-0.00628299
-0.000131563
0.000918679
-0.00688792
-0.000196101
0.000996868
-0.00623856
-0.000314193
0.00116122
-0.00613332
-0.000239068
0.00122278
-0.0061874
-2.22094e-05
0.0012837
-0.00559847
0.000135399
0.00110486
-0.00572128
-0.00010647
0.000911185
-0.00700673
-0.000915356
0.000361999
-0.00581098
5.16161e-05
0.00047504
-0.00584239
-0.000158626
0.000272976
-0.00604112
-0.000159337
0.00032346
-0.00542021
-3.88759e-05
0.00051139
-0.0045795
0.000431514
0.000418205
-0.00496085
0.000250694
0.000549568
-0.00562572
0.000204402
0.000557878
-0.00647134
-6.00254e-05
0.000646445
-0.00687871
-0.000644226
0.000381243
-0.00749856
-0.00026926
0.000266625
-0.0030083
-0.000133931
0.000216298
-0.00375426
-1.68498e-05
0.000103249
-0.0039641
-8.07774e-05
0.000149
-0.00310935
3.2345e-05
0.000197667
-0.00257585
0.000214588
0.000131479
-0.00339155
0.000194701
0.000144783
-0.00436526
9.64391e-05
0.000195963
-0.00460326
-7.30457e-05
0.000262823
-0.00257977
-0.000203316
4.0957e-05
-0.0040805
-0.000350379
-4.64017e-05
-0.00145999
-0.00025437
-5.88558e-05
-0.00114791
-0.00019792
-2.37375e-05
-0.000710694
-0.000178182
2.84158e-05
-0.00118982
-7.8585e-05
-1.78203e-05
-0.00151367
-4.43177e-05
-7.97542e-05
-0.00122308
6.1992e-05
-1.8461e-05
-0.00149397
-4.78295e-05
1.5987e-05
-0.00187858
-7.08829e-05
-1.49542e-06
-0.00154734
-0.000216845
5.47343e-05
0.000345958
-0.000143008
5.84948e-05
0.000285417
-0.000106953
-2.95216e-05
-0.00164411
-0.000151967
-3.36449e-05
-0.00126089
-0.000150027
-3.86531e-05
-0.00116799
-0.000117733
-5.90032e-05
-0.00095014
-0.00011586
-6.88384e-05
-0.000285377
-6.3491e-05
-6.58566e-05
-6.89786e-05
-5.00145e-05
-5.18378e-05
-0.000120731
-2.89411e-05
-4.98345e-05
-0.000569906
-3.31122e-05
-5.19163e-05
-0.00154052
-2.87723e-05
-3.62729e-05
-0.00101251
-3.06062e-05
-2.71151e-05
-0.00074913
9.99613e-06
-2.71897e-05
-0.000736864
-0.00169179
0.000108175
-0.00317244
0.000273092
-0.00443917
-0.00142395
0.000139252
-0.00393769
-0.00148932
-6.01399e-05
-0.00338338
-0.000632537
0.000285699
-0.00515595
-0.000723244
0.000193922
-0.00501883
-0.0010769
0.000126669
-0.00447841
-0.00152513
9.1056e-05
-0.00382195
-0.000294842
0.000558623
-0.00524381
-0.0005796
0.000480744
-0.00554179
-0.000574579
0.000349779
-0.00540589
-0.00101973
0.000147783
-0.00542371
-0.00140923
-0.000110747
-0.00430324
-4.98764e-07
0.000908725
-0.00538752
-5.98768e-05
0.000734666
-0.00549602
-0.000369085
0.000657886
-0.00581996
-0.000334483
0.000501133
-0.00579664
-0.00076496
0.000472508
-0.00555135
-0.00163855
0.000242366
-0.00419434
7.01314e-05
0.000893574
-0.00630892
-0.000151876
0.000874675
-0.00632591
-0.000258592
0.00071782
-0.00638228
-0.000234874
0.000665454
-0.00646369
-0.000424594
0.0005254
-0.00654828
-0.000411825
0.000496149
-0.00641758
-0.00124058
0.000209742
-0.0052578
-0.000172905
0.000849016
-0.00681913
-0.00023227
0.000778404
-0.00713647
-0.000259985
0.000771852
-0.00726678
-0.000360047
0.000537154
-0.0068837
-0.000200611
0.00069667
-0.00644097
-0.000240547
0.000784238
-0.00625448
-0.000577727
0.00067513
-0.00680353
-0.00100084
0.000255941
-0.00645345
0.000156486
0.000813633
-0.0066931
-9.86072e-05
0.000889036
-0.00684011
-0.000166963
0.00103399
-0.0061037
-0.000166003
0.00117703
-0.00596044
-0.000173012
0.00129991
-0.00559908
4.81059e-05
0.00125456
-0.00554559
-6.29431e-05
0.00104276
-0.00558551
-0.000367304
0.000750058
-0.00708751
-0.000591355
0.000327264
-0.00619111
-6.66792e-06
0.000367469
-0.00517779
-0.000121549
0.000381077
-0.00596288
-0.000229096
0.000278883
-0.00578429
-8.65985e-05
0.00035878
-0.00526178
0.000120797
0.000590009
-0.00483976
0.000118421
0.000500134
-0.00481525
0.000663692
0.000592791
-0.00612962
9.43841e-05
0.000868375
-0.00669121
-8.73287e-05
0.000591956
-0.00707514
-0.000384072
0.000362228
-0.00768003
-0.000383075
0.000192496
-0.00229587
-0.000185298
0.000255439
-0.00311651
-0.0001412
0.000132906
-0.00384064
-4.5919e-05
6.11133e-05
-0.00400847
-7.69664e-05
0.000175794
-0.00308909
6.68297e-05
0.000226978
-0.0027825
0.00029757
5.26882e-05
-0.00353504
5.2872e-05
0.000214251
-0.00448425
0.000100123
0.000226426
-0.00473787
4.04124e-05
0.00020093
-0.002997
-0.000112412
3.22771e-05
-0.00414338
-0.000259838
-3.11527e-05
-0.00199567
-0.000347739
-5.31653e-05
-0.00126991
-0.000240535
-4.93998e-05
-0.00103174
-0.000208266
-1.91679e-05
-0.000572578
-0.000185063
4.70114e-05
-0.00118545
-8.71545e-05
-1.28162e-05
-0.00155694
-1.17808e-05
-7.58611e-05
-0.00120392
6.1572e-05
-3.54723e-05
-0.00153302
-6.51511e-05
-2.13989e-05
-0.00182663
-4.57464e-05
1.54142e-05
-0.00149105
-0.00011707
4.75792e-05
0.000443337
-7.38981e-05
4.90712e-05
0.00032024
-2.78694e-05
-2.50846e-05
-0.00233707
-0.000107699
-3.21353e-05
-0.00153792
-0.000156869
-3.06801e-05
-0.001112
-0.000147594
-4.0287e-05
-0.00103911
-0.000114917
-6.19914e-05
-0.00084207
-0.000102191
-7.02837e-05
-0.000178759
-6.41356e-05
-5.9506e-05
2.82518e-06
-4.8178e-05
-5.08307e-05
-7.15573e-05
-2.63587e-05
-5.07407e-05
-0.000544723
-3.25937e-05
-5.23003e-05
-0.00149189
-2.66611e-05
-3.6518e-05
-0.00097645
-2.53934e-05
-2.70063e-05
-0.00072392
1.52076e-05
-2.7114e-05
-0.000724958
-0.00176847
1.86194e-05
-0.0027793
-0.00143575
5.83967e-05
-0.00373234
-0.00161323
0.00011433
-0.00316286
0.000301335
-0.00460704
-0.000796222
0.000274218
-0.00450115
-0.00122986
0.000103057
-0.00394792
-0.00156114
-2.2786e-05
-0.00332459
-0.000373076
0.000384942
-0.00516448
-0.000669794
0.000291222
-0.00516306
-0.000545107
0.000206399
-0.00512803
-0.00115096
0.000156912
-0.00441303
-0.00141828
6.64954e-05
-0.0038794
-0.000119943
0.000695836
-0.0052321
-0.000176104
0.000607377
-0.00525422
-0.000500426
0.000500571
-0.00556124
-0.000521545
0.000316176
-0.00538722
-0.00103944
0.000102004
-0.00536198
-0.00135605
-8.30967e-05
-0.00450264
6.74419e-05
0.000957516
-0.00539736
-0.000170595
0.000784473
-0.00541861
-0.000195282
0.000733309
-0.00563476
-0.000361321
0.000596816
-0.0057892
-0.00045238
0.000521361
-0.0058177
-0.000755721
0.000512241
-0.00547733
-0.0013161
0.000279893
-0.00439871
-0.000112507
0.000930301
-0.00617314
-0.00015406
0.000889485
-0.00640194
-0.000182049
0.000841047
-0.00652708
-0.000364348
0.000726317
-0.00643884
-0.000249633
0.000617976
-0.00650724
-0.000274917
0.000521809
-0.00653957
-0.0006869
0.000346762
-0.00644542
-0.00118063
0.000157992
-0.005236
-0.000152123
0.00102874
-0.0068512
-0.000108206
0.000862086
-0.00689321
-6.91407e-05
0.00073494
-0.00719738
-0.000233277
0.000583834
-0.00724619
-0.000359569
0.000648473
-0.00664894
-2.08096e-05
0.000832394
-0.00642021
-0.000243536
0.000778238
-0.00617699
-0.000772653
0.000618979
-0.00676122
-0.000590632
0.000211266
-0.00666544
5.55468e-05
0.000765262
-0.00649956
5.39386e-05
0.000758963
-0.00673852
-0.000316995
0.000904327
-0.00662254
-6.005e-06
0.00111295
-0.00612021
-0.000116447
0.00118884
-0.00561212
-9.5689e-05
0.0013224
-0.00545281
0.000373847
0.00127017
-0.00548315
6.4574e-05
0.000930688
-0.00573633
-0.000465403
0.000570521
-0.00695269
-0.000582365
0.000433391
-0.00642621
-5.58378e-05
0.000276866
-0.00467067
9.56383e-05
0.000367941
-0.00544559
-0.000176419
0.000307183
-0.00595596
-0.000211818
0.000281002
-0.00554061
-2.15089e-05
0.000465252
-0.00519248
0.000253208
0.000521778
-0.00504778
0.000482481
0.00052404
-0.00493141
9.76341e-05
0.000907143
-0.00621315
0.000216329
0.000762793
-0.00697825
8.7776e-05
0.000685768
-0.00744604
-0.000253181
0.000408395
-0.00794765
-0.000307037
7.23103e-05
-0.00252462
-0.000287214
0.000190405
-0.00229136
-0.000154618
0.000210451
-0.00327998
-0.000112921
5.60025e-05
-0.00393087
-0.000146514
5.59018e-05
-0.00392713
3.62102e-06
0.000197815
-0.00315071
0.000138849
0.000196407
-0.00307685
0.000143665
-1.84542e-06
-0.00340103
8.19201e-05
0.000221607
-0.00462651
5.04049e-05
0.000141851
-0.00477494
5.16825e-05
0.00016426
-0.00329774
-3.15976e-05
6.50954e-05
-0.00425077
-0.000118365
-5.33245e-05
-0.00261639
-0.00027671
-2.45027e-05
-0.00185532
-0.000335653
-5.48741e-05
-0.00108565
-0.000214182
-5.23276e-05
-0.000931993
-0.000175854
-1.48543e-05
-0.000449775
-0.000170465
4.44999e-05
-0.00117449
-9.78185e-05
-2.95885e-05
-0.00156953
2.74351e-05
-7.54304e-05
-0.00123957
6.47826e-05
-7.17808e-05
-0.00157378
-7.2386e-05
-2.66289e-05
-0.0017448
-4.61828e-05
1.59658e-05
-0.00143991
-0.000122898
4.05623e-05
0.000549351
1.25709e-06
3.89242e-05
0.000295267
3.86889e-05
-1.36787e-05
-0.00244103
-4.50913e-05
-2.71559e-05
-0.00229696
-0.000113308
-2.9746e-05
-0.00142555
-0.000155488
-3.07246e-05
-0.00096607
-0.000146758
-4.04844e-05
-0.000913862
-0.000112186
-6.62965e-05
-0.000733871
-9.44354e-05
-6.46778e-05
-7.9152e-05
-6.10869e-05
-5.67264e-05
6.98078e-05
-4.96969e-05
-4.97742e-05
-2.28269e-05
-2.96057e-05
-5.10851e-05
-0.000516333
-3.21276e-05
-5.27294e-05
-0.00144355
-2.31117e-05
-3.56434e-05
-0.000944702
-1.99379e-05
-2.65425e-05
-0.000704553
1.78893e-05
-2.7071e-05
-0.000715776
-0.000347731
-0.00264573
-0.00140585
-7.66933e-06
-0.0036299
-0.00178455
3.02882e-05
-0.00263827
-0.000959228
0.000171658
-0.00404788
-0.00129591
8.05543e-05
-0.00363252
-0.00175647
4.55208e-05
-0.00301305
0.000364582
-0.00472817
-0.000673616
0.000310771
-0.00463977
-0.000708032
0.000245849
-0.00448102
-0.00132832
0.000107996
-0.00390134
-0.00148423
-1.15887e-06
-0.00325748
-0.000264102
0.0005357
-0.00516546
-0.000375466
0.000435553
-0.00510945
-0.000629402
0.000304206
-0.00513189
-0.000591678
0.000219748
-0.00512073
-0.0010649
0.000144188
-0.00446526
-0.00146127
3.2586e-05
-0.00380676
-0.0001227
0.000845252
-0.00536344
-0.000112258
0.000653789
-0.00533685
-0.000199884
0.000590883
-0.00533993
-0.000438311
0.000402055
-0.00557013
-0.000505776
0.000283892
-0.00551572
-0.000895963
5.33287e-05
-0.00535816
-0.00130382
-9.78961e-05
-0.00441703
-0.000167457
0.000980206
-0.00541322
-0.00020667
0.000892296
-0.00545257
-0.000153833
0.000822277
-0.0055358
-0.000400123
0.000645427
-0.00564759
-0.000362725
0.000597708
-0.00575246
-0.00018646
0.00051675
-0.00591067
-0.000805336
0.000470399
-0.0055494
-0.00122964
0.000248998
-0.00459869
-0.000165993
0.00100185
-0.00625152
-0.000205279
0.000934635
-0.00612122
-7.74706e-05
0.000941092
-0.00649365
-0.000314862
0.000797908
-0.00651708
-0.000241762
0.000686508
-0.00662518
-0.000174727
0.000587224
-0.00641874
-0.000297055
0.000435414
-0.0065747
-0.000757532
0.000249933
-0.00655249
-0.00102655
0.000132203
-0.00493228
-0.000266291
0.00128164
-0.00705326
-0.00021375
0.00100254
-0.00672396
-0.000269845
0.000813922
-0.00701934
4.11183e-05
0.00074186
-0.00740253
-0.00027438
0.000669947
-0.00710973
-0.000294128
0.000758498
-0.00637661
-0.000263832
0.00101517
-0.00601945
-0.000145298
0.000848664
-0.0061968
-0.000761305
0.000560076
-0.00681413
-0.000791846
0.0001203
-0.00657626
0.00013669
0.000754424
-0.00638747
0.000129505
0.00074468
-0.00651914
-2.55688e-05
0.000737818
-0.00672286
-0.000173356
0.000969267
-0.00651733
-9.07084e-05
0.00110227
-0.00596444
1.12222e-05
0.00120439
-0.00525213
0.000204464
0.0013133
-0.00521793
-0.000175469
0.00106203
-0.00534139
0.000126546
0.000856412
-0.00593244
-0.000379899
0.000579873
-0.0066315
-0.000655695
0.000472112
-0.00649581
-0.000253617
0.000438717
-0.00402887
-8.51169e-06
0.000323326
-0.00490476
6.09452e-05
0.000283914
-0.00563789
-0.000165014
0.000268541
-0.0058914
-0.000219173
0.000318092
-0.0053208
0.000234701
0.000431619
-0.0053334
0.000380404
0.000437723
-0.00520302
0.000698999
0.00075068
-0.00533028
0.000306031
0.000939892
-0.00661436
-4.285e-05
0.000821913
-0.00702114
-9.2102e-05
0.000776308
-0.00767017
-0.000364734
0.000411498
-0.00802602
-0.000126251
3.59555e-05
-0.00280909
-0.000341786
0.000105965
-0.0023751
-0.000307241
0.000189715
-0.00229903
-0.000142326
0.000139634
-0.00343546
-6.1846e-05
-2.75392e-05
-0.00396144
-0.000137222
6.26395e-05
-0.0038252
-9.03321e-05
0.000232359
-0.00319414
7.69127e-05
7.4324e-05
-0.00320249
0.000117976
2.54591e-05
-0.00325808
2.98946e-06
0.000183903
-0.00474393
7.704e-05
0.000101269
-0.00483517
7.92813e-05
0.000202718
-0.00363754
1.06492e-05
0.000108956
-0.00436912
8.59012e-06
-4.54608e-05
-0.00318266
-0.000164552
-4.45454e-05
-0.00247689
-0.000286769
-6.5183e-06
-0.00173022
-0.00031639
-4.82389e-05
-0.000928837
-0.00018004
-4.80123e-05
-0.000865553
-0.00018033
-1.51691e-05
-0.000321963
-0.000143615
1.51092e-05
-0.00117001
-8.96114e-05
-4.76647e-05
-0.00156877
7.13006e-05
-7.32952e-05
-0.00135906
4.82073e-05
-8.1263e-05
-0.00159696
-6.16543e-05
-3.16887e-05
-0.00166762
-5.35922e-05
2.19222e-05
-0.00139079
-0.000105179
3.46623e-05
0.000638854
4.60095e-05
2.95821e-05
0.000237564
8.22709e-05
-2.43744e-05
-0.00238192
2.41062e-05
-1.48838e-05
-0.00247741
-6.29717e-05
-2.7315e-05
-0.00223642
-0.000119616
-3.09476e-05
-0.00130571
-0.000150592
-3.0011e-05
-0.000825951
-0.000139784
-4.50668e-05
-0.000795308
-0.000108532
-6.73231e-05
-0.000622694
-8.90175e-05
-5.98159e-05
1.29549e-05
-6.27417e-05
-5.47509e-05
0.000137526
-5.17178e-05
-4.85876e-05
2.63933e-05
-3.38888e-05
-5.16149e-05
-0.000483558
-3.21183e-05
-5.20107e-05
-0.00139507
-1.93498e-05
-3.55583e-05
-0.000916336
-1.40204e-05
-2.60826e-05
-0.000691521
2.044e-05
-2.70567e-05
-0.00070916
-0.000216303
-0.00330387
-0.00160237
-0.000173927
-0.00265399
-0.00111979
0.000119702
-0.00377783
-0.00143479
5.86581e-05
-0.00351938
-0.00182325
0.000102412
-0.0026739
-0.000744868
0.000263315
-0.0041634
-0.000855571
0.000232905
-0.00405269
-0.00130581
8.73693e-05
-0.00369688
-0.00161965
9.15975e-05
-0.00296922
0.000514297
-0.00478359
-0.000462581
0.000402957
-0.00473324
-0.000673797
0.000297281
-0.0046468
-0.000710906
0.000197686
-0.00445148
-0.000962268
6.73173e-05
-0.00407245
-0.00161657
6.38528e-05
-0.00316604
-0.000305305
0.00066258
-0.00515629
-0.000287662
0.000553449
-0.00510795
-0.000306804
0.000425512
-0.00512384
-0.00052234
0.00028792
-0.00511603
-0.000589282
0.000213621
-0.00510666
-0.00102484
0.000123735
-0.00442753
-0.00143274
5.30845e-05
-0.00373094
-0.000252189
0.00086567
-0.00544375
-0.00028501
0.000791056
-0.00542237
-0.000251198
0.000628386
-0.00527699
-0.000366866
0.000512123
-0.00548325
-0.000428084
0.000415915
-0.00563679
-0.000301843
0.000233972
-0.00558098
-0.000909557
1.66313e-05
-0.00536847
-0.00120497
-8.51242e-05
-0.00435658
-0.0001571
0.00102469
-0.0056044
-0.000256923
0.000978353
-0.00544764
-0.000233081
0.000938142
-0.00541283
-0.000269068
0.000756457
-0.00569262
-0.000215164
0.000616059
-0.00569254
-0.000190445
0.000585367
-0.00580535
-0.000218415
0.000458706
-0.00597762
-0.000702216
0.000443842
-0.00579956
-0.00119783
0.000135354
-0.00456277
-0.000184764
0.00105465
-0.00628424
-0.000231865
0.000945249
-0.00624402
-7.49761e-05
0.000981672
-0.00635667
-7.05149e-05
0.000909452
-0.00649356
-0.000244311
0.000787726
-0.00664837
-0.000245258
0.000631145
-0.00671797
-0.000292916
0.000503975
-0.00645822
-0.000169984
0.000410274
-0.00671035
-0.000662549
0.000175238
-0.00669428
-0.00116207
0.000291626
-0.00485368
-0.000152329
0.00144443
-0.00683376
-0.000312366
0.00127744
-0.00688628
-0.000232768
0.000976984
-0.00667983
-0.000138695
0.00090275
-0.0072149
-0.000163872
0.000749949
-0.00740937
-0.000243901
0.00071408
-0.00681019
6.25376e-05
0.0010201
-0.00623961
-0.000363872
0.000903584
-0.00588597
-0.000128044
0.000806907
-0.00618905
-0.00057757
0.000421846
-0.006918
-0.000983113
0.000268887
-0.00651773
-1.98885e-05
0.000715533
-0.00583364
3.43768e-06
0.000769569
-0.00642431
0.000118721
0.000713727
-0.00655283
-1.0183e-05
0.000753969
-0.00666239
-0.000143346
0.00096493
-0.00645581
6.31096e-05
0.00113069
-0.00571916
0.000283619
0.00116812
-0.00501016
0.000648711
0.00114143
-0.00524703
0.000129812
0.00100821
-0.00531697
-0.000152713
0.000840906
-0.00608361
-0.000113254
0.000599355
-0.00673759
-0.000788255
0.000416743
-0.00648903
-0.000204464
0.000469782
-0.00347493
-0.00033427
0.000307984
-0.00402104
-7.81045e-05
0.000246326
-0.00509631
-2.02717e-05
0.000240695
-0.00573209
-0.000220803
0.000209703
-0.00562406
-0.000110378
0.000361215
-0.00527724
0.000183782
0.000301717
-0.00547151
0.000405619
0.000517488
-0.00529853
0.000186209
0.000955354
-0.00541398
0.000325553
0.000869176
-0.00698419
0.000168308
0.000761458
-0.00709756
0.000221603
0.000745557
-0.00814655
-0.0005143
0.000437963
-0.00793903
5.41509e-05
-1.87839e-05
-0.00353069
-0.000212127
0.000121526
-0.00277707
-0.000346787
0.000152242
-0.00227761
-0.000311918
0.00011253
-0.0022764
1.33044e-05
5.649e-05
-0.00371284
-8.06367e-05
-0.000113133
-0.00388536
-0.00012701
9.08162e-05
-0.00370026
-4.31839e-05
0.000252293
-0.00341854
0.000147116
7.35976e-05
-0.00332645
7.84402e-05
9.26929e-05
-0.0031971
-4.50495e-07
0.000198859
-0.00490273
4.29289e-05
8.48286e-05
-0.0048138
-1.76376e-05
0.000187944
-0.00380407
5.40341e-05
0.000112618
-0.00448976
0.000143839
-3.01017e-05
-0.00319605
-4.71458e-05
-3.83989e-05
-0.00311756
-0.000226909
-1.78916e-05
-0.00230158
-0.000304068
-4.0261e-07
-0.0015936
-0.000296851
-4.31285e-05
-0.000787462
-0.000111049
-5.68014e-05
-0.000852656
-0.000154699
-1.41468e-05
-0.000246539
-0.000130192
-2.47623e-05
-0.00115174
-5.68207e-05
-5.58623e-05
-0.00159213
4.93395e-05
-7.55092e-05
-0.00146587
1.74126e-05
-9.55077e-05
-0.00158444
-2.70987e-05
-2.76429e-05
-0.00162307
-6.05901e-05
2.93724e-05
-0.00134426
-9.31284e-06
2.50889e-05
0.00063864
2.403e-05
1.84862e-05
0.000215488
0.000129071
-5.83515e-05
-0.00185253
6.82404e-05
-2.38053e-05
-0.00244124
9.32081e-06
-1.16214e-05
-0.00250242
-7.26052e-05
-2.96343e-05
-0.00216512
-0.000126467
-3.23824e-05
-0.00117687
-0.00014951
-3.27867e-05
-0.000688721
-0.000135659
-4.75435e-05
-0.000679428
-0.000106996
-6.4201e-05
-0.000511312
-8.57118e-05
-6.15764e-05
0.000105492
-6.31455e-05
-5.33544e-05
0.000205439
-4.76109e-05
-4.87068e-05
7.1096e-05
-3.65547e-05
-5.23252e-05
-0.000446689
-3.06455e-05
-5.16237e-05
-0.00134836
-1.3449e-05
-3.49272e-05
-0.000894042
-9.33899e-06
-2.56153e-05
-0.000683624
2.26953e-05
-2.79876e-05
-0.000703867
-0.00154648
-0.000155302
-0.00244269
8.68929e-05
-0.0035065
-0.00154828