/*--------------------------------*- C++ -*----------------------------------*\
  =========                 |
  \\      /  F ield         | OpenFOAM: The Open Source CFD Toolbox
   \\    /   O peration     | Website:  https://openfoam.org
    \\  /    A nd           | Version:  7
     \\/     M anipulation  |
\*---------------------------------------------------------------------------*/
FoamFile
{
    version     2.0;
    format      ascii;
    class       volScalarField;
    location    "7";
    object      nut;
}
// * * * * * * * * * * * * * * * * * * * * * * * * * * * * * * * * * * * * * //

dimensions      [0 2 -1 0 0 0 0];

internalField   nonuniform List<scalar> 
18630
(
0.000179887
0.00016242
0.000158784
0.000238493
0.000329251
0.000287611
0.000151968
0.000130407
0.000151176
7.16818e-05
0.000785154
0.000577147
0.000387998
0.000326737
0.000138723
0.000187217
8.14447e-05
6.5306e-05
4.4319e-05
0.000213035
0.00108207
0.000971196
0.00109405
0.000319265
0.000265824
0.000171135
0.000205479
0.000100807
0.000169846
0.000160792
4.93885e-05
5.74761e-05
5.95849e-05
0.000162096
0.000263152
0.00160439
0.000960013
0.00038292
0.000849537
0.00078704
0.000346226
0.000286341
0.000370547
0.000212404
0.000211587
0.000108631
0.000191206
0.000140704
0.000119624
0.000267175
4.44851e-05
7.16253e-05
3.78997e-05
0.000147147
0.000174897
0.000545268
0.000950416
0.00137519
0.00189142
0.000532987
0.000831404
0.000503118
0.000340243
0.000532691
0.000296933
0.000251585
0.000505785
0.000262431
0.000188879
0.000138072
0.000246336
9.78974e-05
0.000234864
0.000111212
0.000164951
0.000248994
0.00025535
6.43034e-05
3.50376e-05
6.07688e-05
0.00013669
0.000100639
0.000522926
0.000435976
0.00049957
0.000927585
0.000822609
0.00169917
0.00196888
0.000820654
0.000776474
0.00102899
0.000525049
0.000421298
0.000735155
0.00024149
0.000543777
0.000314319
0.000307916
0.000412106
0.000181548
0.000334543
0.0002722
0.000401722
0.000559585
0.000231454
0.000239729
0.000155334
0.000285687
0.000208249
0.000440623
0.000291658
7.49941e-05
5.81602e-05
8.04248e-05
8.21875e-05
0.000126503
0.000337112
0.000426653
0.000391675
0.000494461
0.000542613
0.000816388
0.00107271
0.00103284
0.000980946
0.00155892
0.00158838
0.00128283
0.000670133
0.00104977
0.000926678
0.000351661
0.000492279
0.000479919
0.000446298
0.000335036
0.00041874
0.000472724
0.000254481
0.000285106
0.000302402
0.00022688
0.000343421
0.000399851
0.000294035
0.000406057
0.000578885
0.000221462
0.00016088
0.000193987
0.000377945
0.000118966
0.00043597
0.000322658
0.000614408
6.83454e-05
8.44118e-05
7.15232e-05
4.9621e-05
0.000143711
9.99251e-05
0.000283342
0.000511272
0.000131763
0.000885296
0.000700653
0.000645788
0.000867138
0.00104423
0.00063178
0.00125246
0.00146198
0.000749399
0.000855646
0.000886487
0.000534677
0.00127209
0.000650456
0.00103963
0.000689768
0.000421463
0.000486902
0.000458363
0.000582549
0.000592977
0.000238116
0.000255758
0.000373743
0.000315654
0.000276536
0.000367573
0.000384513
0.000329099
0.000280247
0.000230724
0.000536693
0.000332371
0.000716767
0.000723007
0.000856925
0.000243453
0.000137311
0.000144029
0.000367619
9.29425e-05
0.000411929
0.000443794
0.000430176
9.60851e-05
6.62556e-05
7.37001e-05
0.000153828
9.63084e-05
0.000132103
0.000198894
0.000153758
0.000539359
0.000194129
0.000105273
0.000873081
0.000532163
0.000626608
0.000622902
0.000542973
0.000781405
0.000650107
0.000570832
0.000836166
0.00107397
0.00111798
0.00146625
0.00112478
0.000806735
0.00108953
0.000797306
0.00139701
0.000884257
0.000838917
0.00123472
0.00100683
0.000528733
0.000478117
0.000537901
0.000671466
0.000800189
0.000689122
0.000493425
0.000332911
0.000486624
0.000398178
0.000324333
0.000331724
0.000669394
0.00039557
0.000419463
0.00019756
0.000309301
8.19589e-05
0.000161674
0.000165959
0.000344277
0.000811363
0.00045902
0.000513081
0.000108682
8.64377e-05
0.000153229
0.0002932
0.000174287
0.000237417
0.00078175
0.000252102
0.00013333
0.000180657
6.77689e-05
9.09494e-05
0.000175221
7.84947e-05
0.000110731
0.000234087
0.000125004
0.000520823
0.000276385
0.000132623
0.000173881
0.000533119
0.000902661
0.000588136
0.00086861
0.000507616
0.000580081
0.000771474
0.000561424
0.000686572
0.00105702
0.00084125
0.000703625
0.00133651
0.00111625
0.00097197
0.00105519
0.000810061
0.00139443
0.00135987
0.00084927
0.000616616
0.00113767
0.00126316
0.00054705
0.00113454
0.00119634
0.000922071
0.000917598
0.00058989
0.000595161
0.000498543
0.000499492
0.000753579
0.000626768
0.000627264
0.000535554
0.000659825
0.000388438
0.000315247
0.000359275
0.000300896
0.000234753
0.000401606
0.000326299
0.000491758
0.000160289
0.00028625
0.000175691
0.000507926
0.000313868
0.000431141
0.00057175
0.000333151
0.00041118
0.00049584
0.000104952
8.81299e-05
0.00021725
0.000151964
0.000192773
0.000182047
0.000702277
0.000296234
0.000285599
0.000303206
0.000257856
8.32408e-05
8.02748e-05
0.0001222
5.98724e-05
8.18958e-05
0.000199297
0.000138269
0.000387918
0.000276193
0.000132203
0.000283068
0.000258655
0.000445885
0.000223898
0.0010913
0.000694038
0.000742097
0.000599758
0.000927742
0.000985655
0.000817082
0.000456463
0.000670044
0.000882986
0.000624128
0.000785184
0.00103346
0.00129957
0.000726068
0.000895182
0.00141797
0.00127199
0.000976737
0.000583471
0.00104928
0.00116111
0.00101574
0.00122855
0.00049616
0.000934986
0.00111528
0.00188631
0.000522808
0.000878499
0.000862534
0.00101484
0.00099291
0.000776175
0.000667929
0.000734452
0.000568756
0.000890169
0.000651365
0.00104385
0.000702486
0.000463095
0.000515594
0.000723048
0.000726351
0.000334589
0.00044003
0.00019958
0.000394544
0.000512361
0.00027731
0.000383327
0.00045165
0.000262124
0.000225442
0.000236203
0.000294811
0.000270109
0.000450288
0.000521339
0.000314576
0.000355514
0.000283901
0.000365807
0.000664888
0.000148571
0.000145018
0.000277782
0.00010128
0.000272075
0.000360584
0.000535628
0.000311871
0.000378248
0.000366168
0.00031246
0.000351759
0.000105835
4.94066e-05
9.89745e-05
0.000104539
9.72162e-05
0.000146657
0.000155608
0.000268495
0.000210752
0.00012729
0.000328741
0.000247433
0.000150178
0.000351199
0.000266195
0.000830723
0.000908607
0.000486503
0.000498026
0.000662436
0.000432027
0.000606797
0.000816902
0.00073747
0.000800468
0.000668076
0.000534878
0.00091922
0.00093703
0.00121951
0.000504462
0.000657451
0.00112397
0.00130223
0.00131404
0.000966833
0.000616337
0.00133435
0.00122233
0.00134571
0.00109439
0.000727346
0.000497194
0.000951202
0.00139997
0.00097041
0.000582839
0.00054862
0.000772513
0.000657245
0.00106466
0.00134529
0.000612983
0.00112582
0.000900153
0.000897822
0.000986781
0.000784875
0.000897756
0.000678342
0.000631102
0.000801811
0.000949392
0.000833666
0.000974903
0.000763603
0.000548401
0.000590946
0.000732087
0.000528417
0.000490614
0.000477215
0.000461224
0.000392577
0.000291888
0.00058395
0.000312315
0.000448209
0.000447075
0.000210092
0.000336903
0.000328761
0.000371062
0.000228158
0.00022733
0.000255669
0.000651509
0.000504996
0.000543449
0.0003316
0.000391511
0.000389934
0.000439402
0.000307052
0.000254361
0.000246004
4.95536e-05
0.000319529
0.00043431
0.000419284
0.000280319
0.000281568
0.000215185
0.00037633
0.000420577
0.000193019
0.000104368
0.000144526
4.79038e-05
0.000139934
8.31211e-05
0.000122724
0.000173876
0.000199238
0.000130388
0.000169111
0.000228679
0.000174511
0.000188521
0.000162068
0.000519973
0.000559296
0.000846164
0.000556458
0.000497604
0.000629859
0.00063981
0.00077304
0.000749517
0.000333234
0.000984434
0.000512713
0.00107437
0.000738
0.000551274
0.00064621
0.000613079
0.000852098
0.00115664
0.000993639
0.000497551
0.000875295
0.00097373
0.00155354
0.00148711
0.000873202
0.000944347
0.00105329
0.0014089
0.00131108
0.00110978
0.000805124
0.00116599
0.00115175
0.00117289
0.00129909
0.000818531
0.000512625
0.000604849
0.00118085
0.00140167
0.00088278
0.000728576
0.000735958
0.000826163
0.000664034
0.000794746
0.00100086
0.00102336
0.000631465
0.000739667
0.000704649
0.000849413
0.000688839
0.00116247
0.000734496
0.000850242
0.00089798
0.000692956
0.000772892
0.000672633
0.000756504
0.00128191
0.000906052
0.000784208
0.000694391
0.000646207
0.000687955
0.000451805
0.000539723
0.000614989
0.000531243
0.00046144
0.00044097
0.000337275
0.000346418
0.000253829
0.000496857
0.000372953
0.000248641
0.000712857
0.00024043
0.000314396
0.000217233
0.000226172
0.000305218
0.000282893
0.000347541
0.000574923
0.000613572
0.000515003
0.000487774
0.000419486
0.000394368
0.000598821
0.000224013
0.000275018
0.000220532
4.50292e-05
0.000124064
0.000259876
0.000438485
0.000315512
0.000517592
0.000222997
0.00041636
0.000463889
0.000123245
0.000153108
0.00013562
0.000187578
3.87837e-05
0.000124782
7.13531e-05
0.000146464
0.00019917
0.000209845
0.00013233
0.000226055
0.000197895
0.000171764
0.000186913
0.000155867
9.79944e-05
0.000838829
0.000799572
0.000661922
0.000311058
0.000462703
0.000298752
0.00126782
0.00068594
0.000352018
0.000932709
0.00115116
0.00105625
0.000901186
0.000586155
0.00105714
0.000285898
0.000685191
0.000690942
0.000969583
0.000450765
0.00121969
0.000990113
0.000695366
0.000689196
0.000842967
0.00154683
0.00106282
0.000805482
0.00110493
0.000553102
0.00145641
0.00134768
0.00133022
0.00123008
0.000869095
0.000988498
0.00113903
0.00153795
0.00132414
0.00111241
0.000840373
0.000520318
0.00127221
0.00134132
0.00142702
0.00115528
0.000928178
0.000484958
0.000563701
0.00112821
0.00138761
0.00176945
0.000498628
0.00063108
0.00065693
0.000946326
0.000775941
0.000810552
0.00110182
0.00115262
0.00101021
0.000576821
0.000566204
0.000710197
0.000720247
0.000723542
0.00116431
0.00087158
0.000946014
0.000957816
0.00065717
0.000353518
0.000352299
0.000684241
0.000788024
0.00097372
0.00108741
0.000811168
0.000754485
0.000767902
0.000508646
0.00032677
0.00048298
0.000199297
0.000604965
0.000638755
0.000637465
0.000629906
0.000331737
0.000389536
0.000257229
0.000340453
0.000382571
0.000276997
0.000447394
0.000187238
0.000178637
0.000236381
0.000183736
0.000188271
0.000280445
0.000305518
0.000189773
0.000702807
0.000489453
0.000617481
0.00045504
0.000363031
0.000418464
0.000401514
0.000221952
0.000201928
0.000188856
0.000141085
0.000117413
0.00025062
0.000199451
0.000319938
0.000339149
0.000646178
0.000377996
0.000261798
0.00038627
0.0002339
0.000131713
0.00020543
0.000120571
0.000280709
0.000162099
0.000127322
6.59515e-05
7.76582e-05
0.000223954
0.000200052
0.000130288
0.000105124
0.000473174
0.000318616
0.000177845
0.000178594
8.49364e-05
0.000109159
0.00027207
0.000549235
0.000580655
0.000500962
0.000903982
0.000523194
0.000518178
0.000989589
0.000821489
0.000904574
0.000417758
0.000570167
0.00091042
0.000474886
0.000689795
0.000745906
0.000902046
0.000760454
0.000714593
0.000505782
0.00098592
0.00141702
0.00054372
0.000931244
0.000969091
0.000957581
0.000739462
0.000870266
0.00109668
0.00103555
0.00102428
0.000606224
0.00195937
0.00168861
0.00134032
0.000982197
0.000912855
0.00100455
0.000980153
0.00139929
0.00129492
0.000766532
0.000769363
0.00129269
0.000717771
0.00103002
0.00146142
0.00131503
0.000948034
0.000834411
0.000634268
0.000738483
0.00089352
0.00122566
0.00125602
0.00143966
0.00125258
0.000950861
0.000672579
0.000812322
0.000906472
0.00116337
0.00120874
0.00110741
0.000878416
0.00100983
0.000607574
0.000417295
0.000852727
0.000703186
0.000898878
0.00104743
0.000665788
0.000958074
0.00140057
0.00111142
0.000769535
0.000530789
0.000996222
0.000923259
0.000891219
0.000957069
0.000891358
0.000900745
0.000424978
0.000886813
0.000311367
0.000668689
0.000777778
0.000751856
0.000942555
0.000817971
0.000588397
0.000558486
0.000473716
0.000464892
0.000274563
0.000277712
0.000444002
0.00081384
0.000798113
0.000615267
0.000634509
0.000615281
0.000461457
0.000408787
0.000327702
0.000333916
0.000640665
0.000504924
0.000437081
0.000273006
0.000800007
0.000365883
0.000177442
0.000268316
0.000240864
0.000327995
0.000239784
0.000695031
0.000400899
0.000403603
0.000435021
0.000364147
0.000477625
0.000363845
0.00022215
0.000293478
0.000187265
0.000163959
8.32213e-05
0.000128548
0.000278148
0.000325225
0.000245987
0.000386032
0.000627959
0.000350001
0.000480102
0.00037003
0.000153571
0.000189075
0.000173842
0.00022944
0.000104057
5.13342e-05
7.5399e-05
0.000115902
5.46911e-05
0.000128122
0.000211777
0.000168172
0.000205899
0.000127559
0.000359694
0.000127108
0.000188982
0.000230013
9.51036e-05
0.000130783
0.000149701
0.000478466
0.000176044
0.000352373
0.000862716
0.000453054
0.000455638
0.000852739
0.000473331
0.000372778
0.0003502
0.000598039
0.000330422
0.000706649
0.000326829
0.000579401
0.000533163
0.000713256
0.000665057
0.000879985
0.00121153
0.000646589
0.000413345
0.00109337
0.000518331
0.000735917
0.00101656
0.000985156
0.00117673
0.000697519
0.00109424
0.000851266
0.000787
0.000925674
0.000924759
0.000720714
0.0008843
0.000885223
0.00107721
0.000812043
0.000673748
0.000958471
0.00155555
0.00142513
0.00139557
0.00145845
0.00118142
0.000508811
0.00073291
0.00139444
0.00139937
0.00145306
0.00115065
0.00076211
0.000625987
0.000713979
0.00106855
0.00116521
0.00139868
0.00133248
0.00104631
0.000639028
0.000409572
0.000736633
0.00084877
0.000722449
0.00129811
0.000946947
0.0014807
0.00130335
0.000658838
0.000620352
0.000852621
0.000920629
0.00100084
0.00120053
0.000562951
0.000784363
0.000891703
0.00113851
0.000745746
0.000541981
0.000580909
0.000572822
0.00104202
0.0011482
0.00069328
0.000847918
0.000566709
0.000937767
0.000879332
0.000367831
0.000777916
0.000910419
0.000837433
0.000927644
0.000812644
0.000701534
0.000660545
0.00065507
0.000794909
0.000729099
0.000241124
0.000281238
0.000598632
0.000694866
0.000787942
0.000679544
0.000446235
0.000375004
0.000350668
0.000361246
0.000147767
0.000261288
0.000453409
0.00100626
0.000301594
0.000621141
0.000576474
0.000380776
0.000345668
0.000216288
0.000429969
0.000308974
0.000309999
0.000642661
0.000451064
0.000433516
0.000361804
0.00048419
0.000489172
0.000591105
0.00042072
0.000368279
0.00032046
0.000391091
0.00025738
0.000434534
0.000445938
0.000566284
0.000567676
0.000249766
0.000343822
0.000353343
0.000240619
0.000430443
0.000367721
0.000197343
0.00012434
2.75236e-05
0.000199437
6.08608e-05
0.000302992
0.000290677
0.000434181
0.000528297
0.000311863
0.000258004
0.000373811
0.000171266
7.93315e-05
0.000220259
0.000195406
0.000159888
0.000108816
7.89871e-05
0.000175387
7.13718e-05
0.000103906
0.000101174
0.000207674
0.000249414
0.000245879
0.000290068
0.000127695
0.000122652
0.000105497
0.000158003
0.000177637
0.00011702
0.000185191
8.12777e-05
0.000528385
0.000564221
0.000413493
0.000433913
0.00037566
0.000486027
0.000905398
0.000265572
0.000653959
0.000361807
0.000714319
0.000694936
0.000900834
0.000600242
0.000381231
0.000589763
0.000731284
0.000708981
0.000661916
0.000685242
0.000817668
0.000728444
0.000526744
0.000550494
0.000437637
0.000726631
0.0008527
0.00107744
0.000390252
0.000441777
0.000443716
0.000806752
0.000723014
0.001048
0.00086049
0.000521574
0.000439372
0.000726413
0.000697655
0.00109367
0.000846382
0.000681374
0.000413569
0.00159984
0.00178676
0.00110241
0.00138317
0.00113117
0.00070244
0.000425897
0.00087295
0.00150659
0.00111678
0.000845382
0.00104471
0.00151136
0.0012517
0.000711449
0.000946598
0.001432
0.00161924
0.00123054
0.00118236
0.00114599
0.00107623
0.000720283
0.000748108
0.000847119
0.00114566
0.00139718
0.00124481
0.000770507
0.000313587
0.000639925
0.000958958
0.000732904
0.000587427
0.000480799
0.00131604
0.0013855
0.00158164
0.00101177
0.000428788
0.000635636
0.000679074
0.000740636
0.000932774
0.00086945
0.000614191
0.000882311
0.00112537
0.000879156
0.00114241
0.000608257
0.000636767
0.000643241
0.000729651
0.000887521
0.00102354
0.000805203
0.000935776
0.000636458
0.000288799
0.000930252
0.000926874
0.00078726
0.000681664
0.0007481
0.000750333
0.000690892
0.000889559
0.00120341
0.000510152
0.000883253
0.000559644
0.000533646
0.000244282
0.000735706
0.000464574
0.000478961
0.000842429
0.000927484
0.000663354
0.000569525
0.000439936
0.00023577
0.000478663
0.000120099
0.000375025
0.000357983
0.00108276
0.000700456
0.0003335
0.000481296
0.000558878
0.000427992
0.000244287
0.000470703
0.00035024
0.000239749
0.000246831
0.000309861
0.000312848
0.000791183
0.000424392
0.000378858
0.0005339
0.000778066
0.000455645
0.00035369
0.000479323
0.000357302
0.000291098
0.000384244
0.000288215
0.000340757
0.000648039
0.000344139
0.000371266
0.000380434
0.000421852
0.000308814
0.000224882
0.000417563
0.000271748
0.000219669
9.49801e-05
8.28617e-05
0.000128541
9.30377e-05
0.000278138
0.000278213
0.000472652
0.000469604
0.000262021
0.00037008
0.000373184
0.000303258
0.000186607
0.000228761
0.000259836
0.000201982
0.000170948
8.40975e-05
0.000382504
0.000150975
0.000109037
4.29565e-05
0.00011892
0.000228606
0.000418692
0.000148585
7.03493e-05
0.00027212
0.000417615
0.000106283
0.000148577
0.000116275
0.000162312
0.000210693
9.07668e-05
0.000132029
0.000755217
0.000446656
0.000494094
0.000374416
0.000354105
0.000347537
0.000214029
0.000302826
0.000318658
0.000342506
0.0005944
0.000541956
0.000382532
0.000347576
0.000224579
0.000999046
0.000959946
0.00028169
0.000567792
0.000355558
0.000490173
0.00103327
0.000997068
0.000204745
0.000871003
0.000692439
0.000667483
0.000914782
0.000631844
0.000401495
0.000750024
0.000676828
0.00067007
0.00116712
0.000794513
0.000567328
0.000345702
0.000700653
0.000425776
0.000725246
0.000800751
0.00223102
0.000853374
0.000562484
0.000417505
0.000455512
0.00094422
0.000871195
0.00108655
0.0016211
0.000859411
0.000466759
0.000650512
0.00111087
0.00126508
0.00107532
0.0011934
0.00135028
0.00108759
0.00121054
0.000428197
0.00129412
0.00155705
0.00114291
0.00119854
0.00124624
0.0014331
0.0011867
0.000891927
0.000971303
0.000932382
0.00177278
0.00134778
0.00131051
0.000874538
0.00130558
0.00103367
0.000728803
0.000622003
0.000711286
0.00123231
0.00147988
0.00164097
0.000979048
0.000719445
0.000534661
0.000764138
0.000649909
0.000651952
0.000472226
0.000925095
0.000725208
0.00149953
0.00135797
0.00135884
0.000378983
0.000481775
0.000660866
0.000597072
0.000806335
0.00108756
0.00074129
0.000931009
0.000801882
0.000668576
0.00150818
0.00116141
0.00100592
0.000715503
0.000573698
0.000441477
0.000770702
0.000843001
0.000735286
0.000922994
0.000739824
0.000686337
0.000449053
0.000486102
0.000859036
0.000736636
0.00118473
0.000620467
0.000729013
0.000788463
0.000750504
0.000670659
0.000600423
0.000558561
0.000941209
0.000744906
0.000561379
0.000395472
0.000600998
0.000868113
0.000472881
0.000465178
0.000686893
0.000694743
0.000743242
0.000582681
0.000467172
0.000281588
0.000461885
0.0005543
0.000351584
0.00038923
0.000526547
0.000656787
0.000509349
0.000339156
0.000637559
0.00059798
0.000549467
0.000590107
0.000717318
0.000247527
0.000314087
0.00038888
0.000846741
0.000284232
0.000858893
0.000465371
0.000502357
0.000601709
0.000765227
0.000610551
0.000398136
0.000388884
0.000336722
0.000410046
0.000241952
0.000151087
0.000346968
0.000319969
0.000405968
0.000401804
0.000402019
0.000388812
0.000262966
0.000290769
0.000270014
0.000282139
0.00030144
0.00030489
0.00017597
0.000108741
9.14787e-05
4.67375e-05
8.70026e-05
0.000184833
0.000244165
0.00047904
0.000432492
0.000188846
0.000530372
0.000336005
0.000298815
0.000224215
0.000197174
0.00023811
0.000168828
0.000245879
0.000129684
0.000139934
5.81705e-05
6.80884e-05
0.000193791
0.000132754
0.000196226
0.000209466
0.000371363
0.000235495
6.05414e-05
0.000513522
0.000175685
0.00033889
0.00023899
0.000180371
0.00013693
0.00017381
0.000110159
0.00010046
4.69371e-05
0.00123436
0.000690814
0.000774495
0.000387581
0.000441107
0.0006029
0.000482361
0.0003613
0.000381673
0.000554566
0.000442603
0.000518211
0.000392064
0.000434545
0.000853353
0.000596322
0.000637204
0.000538861
0.000522472
0.000362826
0.000851104
0.000880233
0.00079866
0.000504497
0.000328245
0.00035079
0.000795419
0.000635438
0.00095862
0.00083421
0.000633746
0.000467521
0.00105293
0.00094063
0.000609788
0.000508739
0.000697501
0.000681229
0.00063649
0.000863161
0.000869434
0.000644543
0.00072323
0.000636233
0.000571861
0.000646585
0.000503345
0.000609736
0.000877004
0.000564069
0.000926322
0.00170835
0.000763297
0.000712188
0.000655506
0.000345257
0.000466744
0.000934994
0.0011642
0.00138637
0.00184032
0.000811647
0.000559459
0.000770452
0.00103505
0.00108187
0.000670931
0.00183813
0.00109125
0.00121794
0.000931333
0.000370523
0.00121766
0.00152895
0.0012708
0.00120605
0.00132833
0.00176335
0.00133525
0.00146539
0.000683708
0.000880825
0.000548094
0.001366
0.000958018
0.0010266
0.0012314
0.000911471
0.000948953
0.00116198
0.00101676
0.00063548
0.00055349
0.000236105
0.00143876
0.00146001
0.00146977
0.00125499
0.000737275
0.000670018
0.000951717
0.00093551
0.000723203
0.000699016
0.000639816
0.000891922
0.000952607
0.00149271
0.00140544
0.00110712
0.000295487
0.000671867
0.000633013
0.000523855
0.000703919
0.000977355
0.00060663
0.000851058
0.000746829
0.000705584
0.000835376
0.00151736
0.00152676
0.000564132
0.000503054
0.000428486
0.00055224
0.000673433
0.00079442
0.000835956
0.000870318
0.000718747
0.000788235
0.000625078
0.000610884
0.000934592
0.000881501
0.000667307
0.00111725
0.000537093
0.000731879
0.000691683
0.000625451
0.000777444
0.00059978
0.000946349
0.00118499
0.00067294
0.000675034
0.000437762
0.000630014
0.000456192
0.000777482
0.000303521
0.000588039
0.000853864
0.00125891
0.000709152
0.000543866
0.000504767
0.000278357
0.000391813
0.00101769
0.000272832
0.000448878
0.00067721
0.000701931
0.000588775
0.000675529
0.000424554
0.000889054
0.000827346
0.000788486
0.000727157
0.000545689
0.000232917
0.000263442
0.000739744
0.00107462
0.000414904
0.000508058
0.000403442
0.000450347
0.00065392
0.000770308
0.00050123
0.000726695
0.000386758
0.000493956
0.00044863
0.000316175
0.000376746
0.000199936
0.00042441
0.000236159
0.000516391
0.000367335
0.000194049
0.000373037
0.000265673
0.000257117
0.000535944
0.000367354
0.00025633
0.00048525
0.000309212
0.000175116
0.000133017
0.000153317
3.59774e-05
0.000115908
0.000110324
0.000230186
0.000385579
0.000431911
0.000209045
0.000459224
0.000303662
0.000258303
0.000239807
0.000221861
0.000181924
0.000287777
0.000212889
0.000197427
0.000272297
8.37443e-05
0.000129265
7.1222e-05
0.000100031
0.000115111
8.11872e-05
0.000214158
0.000222599
0.000287664
0.000220452
9.98788e-05
8.1425e-05
0.000296161
0.000117447
0.000273025
0.000189341
9.13736e-05
0.000154947
0.000226264
0.000339269
0.000463875
0.00118022
0.00105349
0.00113164
0.000785512
0.000718072
0.000755111
0.000693764
0.000661247
0.000564783
0.000496828
0.000632775
0.000516501
0.000420232
0.000459304
0.00054334
0.000484111
0.00043788
0.000482182
0.000595325
0.000703703
0.00082245
0.000385606
0.000492657
0.000616236
0.000569446
0.000622948
0.000692164
0.000481621
0.000401329
0.000819896
0.000931443
0.000675744
0.000788523
0.000937481
0.000559236
0.000521897
0.000711469
0.000931943
0.000910826
0.000813174
0.000974708
0.000908527
0.000527653
0.000657954
0.000922044
0.000481549
0.000663094
0.000926577
0.00108476
0.000862096
0.000694864
0.000515235
0.0024203
0.000649961
0.000482431
0.000795519
0.000554586
0.000854072
0.000942025
0.000975096
0.00111154
0.00267913
0.000383757
0.000830133
0.000621665
0.000823222
0.000628738
0.00116893
0.000705092
0.00137939
0.00130215
0.0012517
0.0010905
0.00066928
0.000748542
0.000598263
0.00101101
0.00120575
0.00074225
0.00152184
0.0017183
0.00135277
0.00116072
0.00105555
0.000435969
0.000735707
0.00123227
0.00135528
0.00116833
0.00136373
0.00181947
0.00213825
0.00107195
0.000569993
0.000720071
0.000734234
0.000725126
0.00170024
0.00203317
0.00113985
0.00119148
0.00119022
0.0014038
0.0010366
0.00114597
0.000549575
0.000464277
0.000834142
0.00049942
0.00143638
0.00161835
0.00140512
0.000715058
0.000754293
0.000752939
0.000974972
0.000867597
0.000884915
0.000657535
0.000721562
0.000622187
0.000946331
0.000974097
0.00121809
0.00128756
0.000414972
0.000564984
0.000725078
0.0006748
0.00038078
0.000736306
0.000645677
0.000558987
0.000866289
0.000842072
0.000794202
0.00080467
0.00142446
0.00149608
0.00120838
0.000403877
0.000753885
0.000418574
0.000634744
0.000747906
0.000789377
0.00070721
0.000603031
0.000804061
0.00074928
0.000734702
0.000642378
0.00102543
0.000684154
0.000538316
0.000784891
0.00034681
0.00039305
0.000558108
0.000790303
0.00075906
0.00104793
0.000928764
0.00175447
0.000674641
0.000533955
0.000602547
0.000328965
0.000665352
0.000635156
0.00035183
0.000502696
0.000286821
0.000692438
0.000685245
0.000967967
0.000697493
0.000600458
0.000403379
0.000379126
0.000561335
0.000611506
0.000262438
0.000651914
0.00080425
0.000699761
0.000668144
0.000621608
0.000869946
0.000625302
0.000531987
0.000622488
0.000719012
0.000749616
0.00058667
0.000272934
0.000147844
0.000267922
0.000543526
0.000475706
0.000382176
0.000429964
0.000458093
0.000792537
0.000689872
0.000484989
0.000464553
0.000643237
0.000204188
0.000453655
0.000504036
0.000240609
0.000603228
0.000436425
0.000273695
0.000317194
0.000591417
0.000315114
0.000234234
0.000282895
0.000301084
0.000307727
0.000438841
0.000455472
0.000309035
0.000414998
0.000385437
0.000401585
0.000133528
0.000124862
0.000229724
0.000111788
0.000233269
0.000183399
0.000218154
0.000360939
0.000409128
0.000278087
0.000407824
0.000247486
0.000207337
0.000280419
0.000173708
0.000153773
0.000254004
0.000104725
0.000365294
0.000136384
0.000223942
8.71102e-05
0.00026197
0.000152502
0.000343759
8.55123e-05
0.000112095
0.000217257
0.000274246
0.000148565
0.000153895
0.000127519
0.000272288
8.37744e-05
0.000214248
0.000174837
0.000129288
0.000135088
0.000126917
0.000250975
0.000206901
0.000142332
9.45992e-05
0.000134619
0.00255249
0.00119175
0.00100181
0.00116195
0.000951303
0.00108183
0.000730607
0.000679018
0.000694611
0.000683647
0.000574361
0.000574415
0.000602153
0.000500679
0.000657081
0.000520843
0.000412277
0.000417588
0.000349421
0.000428896
0.00041289
0.000452082
0.000341295
0.000344047
0.000427356
0.00110295
0.000388537
0.00058722
0.000413522
0.000436895
0.000569943
0.000436004
0.000742261
0.000762977
0.000590602
0.000567294
0.000806569
0.000526245
0.00042946
0.000604246
0.000540453
0.000632353
0.000633777
0.000636683
0.00057138
0.00104235
0.000849796
0.000658676
0.000674048
0.00102282
0.000943497
0.000587529
0.000612391
0.000828849
0.000981241
0.00073342
0.000442658
0.00113369
0.00116431
0.000989159
0.000722961
0.000750559
0.00101767
0.00139127
0.000689701
0.000654963
0.000410612
0.000850262
0.00105976
0.000798081
0.000716023
0.00100644
0.00158968
0.00152379
0.000859211
0.0007098
0.00057023
0.000716175
0.000692419
0.000472749
0.000858479
0.000668691
0.00145258
0.000821367
0.000766588
0.000895241
0.000857441
0.000584038
0.00147813
0.00134964
0.000840677
0.000832189
0.00125797
0.00146294
0.00122925
0.00141821
0.000653131
0.000988406
0.000739515
0.000953273
0.00149989
0.00108062
0.00119429
0.00144747
0.00223767
0.00139431
0.00151683
0.000881407
0.000768064
0.000743119
0.000432843
0.0010877
0.00156998
0.00134783
0.00127411
0.00152147
0.00130704
0.00156382
0.00134766
0.00116859
0.000733022
0.000813853
0.000590968
0.000540505
0.000602881
0.00163995
0.00161262
0.0014666
0.00093463
0.000757893
0.00113508
0.000965897
0.000827075
0.000717473
0.000958801
0.000547136
0.0010088
0.000818713
0.000775008
0.0012971
0.00154503
0.00105072
0.000920661
0.000445617
0.000638365
0.000722442
0.000585163
0.000753954
0.000461857
0.000944798
0.000732807
0.00106198
0.00102742
0.000768996
0.00140581
0.0012994
0.000925089
0.000362098
0.000662652
0.000349539
0.000663109
0.000914152
0.000606786
0.00064233
0.000571056
0.000455233
0.000818002
0.000749589
0.000912303
0.000739877
0.000905429
0.00117565
0.000453969
0.000779571
0.000440112
0.000251601
0.000496406
0.000896102
0.000544656
0.000825717
0.000969056
0.000636029
0.000793077
0.00047735
0.000792887
0.000634824
0.000504368
0.000659006
0.000555895
0.00030371
0.00108371
0.000582367
0.000419928
0.000606048
0.00117216
0.000742312
0.000702153
0.000653808
0.000350599
0.000426039
0.000430432
0.00044145
0.000586594
0.000613709
0.000515554
0.000712747
0.000714297
0.0006879
0.00072913
0.000949544
0.00036145
0.00059193
0.000456559
0.000426457
0.000563106
0.000570012
0.000351316
0.000290015
0.000896836
0.00032851
0.000438062
0.000294744
0.000423526
0.000373508
0.000688016
0.00068954
0.000415368
0.000367678
0.000720376
0.000674303
0.000341172
0.000396756
0.000516879
0.000420873
0.00069788
0.00045983
0.00029621
0.000505142
0.000826459
0.000326365
0.000278192
0.000266335
0.000271705
0.000234872
0.000425526
0.00050515
0.00034133
0.000359256
0.000378926
0.000216952
0.000325031
0.000114569
0.000213178
0.000233225
0.000175301
0.000187749
0.000241836
0.000261694
0.000467813
0.000384417
0.000329756
0.000412675
0.000229209
0.000138284
0.000160134
0.0002234
0.000117512
0.000142247
0.000176217
0.000265036
0.000153944
0.000269058
0.00035889
0.000228919
0.000155618
0.000122431
0.000109996
5.54783e-05
0.000128545
0.000141552
0.000178713
0.000223357
0.000271575
8.35433e-05
0.000903998
0.000179681
6.57945e-05
0.000483359
7.65833e-05
0.000415865
0.000237416
0.000178333
0.000158675
6.82913e-05
0.000106943
0.000127016
5.84249e-05
0.000148177
0.00261316
0.00251984
0.00131283
0.00113952
0.00106853
0.00115781
0.00101644
0.000974266
0.00100955
0.000719063
0.000631331
0.000620834
0.00065716
0.000782681
0.000515401
0.000554563
0.000486161
0.000517634
0.000697431
0.000685562
0.000503865
0.000440051
0.00037547
0.000386624
0.000515582
0.000727389
0.000545794
0.000424746
0.000505307
0.000456655
0.000401513
0.00037272
0.000602466
0.000561133
0.000578452
0.000492368
0.000588504
0.000502571
0.000483712
0.000481144
0.000531933
0.000450805
0.000546544
0.00083503
0.00058796
0.000801444
0.000530174
0.000495512
0.000801898
0.000737244
0.000541921
0.000544647
0.00123627
0.00120818
0.000690185
0.00107789
0.000714027
0.000856188
0.000841441
0.000710083
0.000554063
0.00044531
0.000998573
0.000940409
0.000826324
0.000832562
0.000560905
0.00106735
0.000788608
0.000654373
0.000511457
0.000856302
0.000630397
0.00150306
0.00156171
0.000673584
0.00069327
0.000348279
0.000707456
0.000551293
0.000777996
0.00085525