/*--------------------------------*- C++ -*----------------------------------*\
  =========                 |
  \\      /  F ield         | OpenFOAM: The Open Source CFD Toolbox
   \\    /   O peration     | Website:  https://openfoam.org
    \\  /    A nd           | Version:  7
     \\/     M anipulation  |
\*---------------------------------------------------------------------------*/
FoamFile
{
    version     2.0;
    format      ascii;
    class       volScalarField;
    location    "7";
    object      p;
}
// * * * * * * * * * * * * * * * * * * * * * * * * * * * * * * * * * * * * * //

dimensions      [0 2 -2 0 0 0 0];

internalField   nonuniform List<scalar> 
18630
(
-60.737
-60.759
-60.7685
-60.4941
-60.2586
-60.8122
-60.8174
-60.8001
-60.5414
-60.1525
-59.3981
-60.3789
-60.2076
-60.8742
-60.9434
-60.5589
-60.8314
-60.5871
-60.1805
-59.7367
-57.7966
-59.7415
-59.2906
-60.5243
-60.3544
-60.189
-60.9416
-61.0373
-60.638
-60.2549
-60.8619
-60.6338
-60.2066
-59.7688
-59.3924
-55.9313
-58.3479
-58.3623
-60.0863
-59.5515
-59.4281
-60.666
-60.5363
-60.3471
-60.1216
-61.0078
-61.113
-60.7212
-60.3217
-59.706
-60.8915
-60.6745
-60.2306
-59.798
-59.44
-59.0073
-54.5407
-56.1534
-56.769
-58.9304
-58.982
-58.9487
-60.2834
-59.8405
-59.6884
-59.2618
-60.7967
-60.6975
-60.5009
-60.2483
-59.3495
-61.0613
-61.1805
-60.808
-60.4084
-59.8084
-59.1567
-60.9179
-60.7084
-60.2511
-59.8255
-59.4796
-59.0818
-58.9152
-53.0206
-54.8911
-55.3427
-56.8081
-57.1344
-57.7928
-59.4322
-59.4228
-59.2792
-58.4994
-60.4549
-60.0469
-59.9111
-59.4135
-58.6719
-60.8937
-60.8751
-60.6442
-60.3573
-59.5223
-58.6765
-61.1097
-61.246
-60.8861
-60.4987
-59.8959
-59.285
-58.8637
-60.9424
-60.7326
-60.2722
-59.8517
-59.5156
-59.1424
-58.9602
-59.2586
-51.6511
-53.3649
-53.6001
-55.2005
-55.7142
-56.1029
-57.3849
-57.8317
-58.4317
-57.986
-59.7328
-59.7343
-59.4444
-58.6187
-57.9013
-60.6305
-60.2076
-60.0833
-59.6082
-58.8651
-57.9873
-60.9744
-61.0461
-60.8023
-60.4863
-59.6649
-58.8472
-58.5816
-61.1641
-61.3044
-60.9749
-60.5997
-59.9798
-59.4182
-58.9511
-58.9584
-60.966
-60.7537
-60.2899
-59.8764
-59.5501
-59.1878
-58.9954
-59.313
-58.9949
-50.36
-51.905
-52.1213
-53.5218
-53.8251
-54.1004
-55.7253
-56.1528
-56.4875
-56.1539
-57.9566
-58.7943
-58.8083
-58.1177
-57.1337
-60.0495
-59.9584
-59.6039
-58.6886
-58.0241
-57.1972
-60.7942
-60.3646
-60.1519
-59.8491
-59.092
-58.1718
-58.1259
-61.0486
-61.1751
-60.9554
-60.5719
-59.8078
-58.9865
-58.7087
-59.0501
-61.2161
-61.3532
-61.0653
-60.7091
-60.0699
-59.5629
-59.0495
-59.1123
-59.3047
-60.9879
-60.7737
-60.3052
-59.903
-59.5859
-59.2367
-59.0341
-59.3721
-59.0266
-58.3031
-49.6012
-50.5566
-50.8448
-52.1451
-52.3679
-52.4138
-53.8631
-54.17
-54.3461
-54.1321
-56.1968
-56.5603
-56.7314
-56.3637
-55.9141
-58.6833
-59.4876
-58.9924
-58.1762
-57.2206
-56.2969
-60.4093
-60.1154
-59.7297
-58.7421
-58.104
-57.2675
-56.8208
-60.9365
-60.5282
-60.2474
-60.0179
-59.2576
-58.3416
-58.4172
-57.8968
-61.1235
-61.2774
-61.0786
-60.707
-59.9824
-59.0834
-58.8591
-59.1547
-58.7661
-61.2664
-61.3992
-61.137
-60.81
-60.1571
-59.699
-59.1629
-59.2614
-59.4283
-58.6641
-61.0052
-60.793
-60.3249
-59.941
-59.6197
-59.2903
-59.079
-59.4254
-59.0547
-58.3238
-57.1285
-48.9659
-49.6717
-49.8365
-50.7631
-51.0929
-51.233
-52.29
-52.5098
-52.5906
-52.5788
-54.3298
-54.4972
-54.5095
-54.3003
-54.2496
-56.7887
-57.0383
-56.9567
-56.5239
-55.9154
-55.3629
-59.3341
-59.653
-58.8849
-58.0081
-57.2447
-56.2876
-55.9175
-60.6525
-60.1047
-59.7722
-59.0055
-58.1781
-57.4112
-56.9919
-56.7674
-61.0069
-60.6932
-60.5151
-60.1023
-59.4314
-58.4906
-58.602
-58.1107
-57.8257
-61.1979
-61.356
-61.1804
-60.8443
-60.1494
-59.2479
-59.065
-59.276
-59.0548
-58.0234
-61.3028
-61.4391
-61.1923
-60.8835
-60.2146
-59.8315
-59.2694
-59.3991
-59.5462
-58.8074
-57.5316
-61.0198
-60.816
-60.3455
-59.9834
-59.6502
-59.3389
-59.1296
-59.471
-59.0742
-58.3444
-57.1359
-56.0506
-47.9149
-48.7258
-48.6811
-49.0215
-49.8686
-50.0559
-49.9617
-50.8565
-51.1324
-51.5092
-51.3544
-52.672
-52.8434
-52.7474
-52.6972
-52.7332
-54.6682
-54.8573
-54.5541
-54.48
-54.2173
-53.99
-57.1726
-57.4012
-57.0696
-56.595
-56.016
-55.5093
-54.6209
-59.6586
-59.6157
-58.8399
-58.0596
-57.2152
-56.3216
-56.0711
-55.7359
-60.5618
-60.2227
-59.7972
-59.1297
-58.169
-57.5634
-57.2342
-56.9871
-56.8798
-61.0824
-60.7896
-60.6545
-60.2687
-59.6013
-58.5718
-58.7234
-58.3321
-58.1237
-57.9535
-61.2448
-61.4288
-61.2834
-60.9473
-60.2782
-59.4117
-59.2887
-59.3688
-59.278
-58.1615
-57.8312
-61.3251
-61.4752
-61.2514
-60.9492
-60.2826
-59.9673
-59.389
-59.5434
-59.6646
-58.9523
-57.6329
-56.4015
-61.037
-60.8367
-60.3669
-60.0189
-59.6758
-59.3935
-59.1863
-59.5094
-59.0815
-58.3623
-57.1445
-56.0713
-55.1962
-47.3646
-48.0229
-47.8538
-48.2361
-48.5319
-49.0824
-49.1714
-48.9703
-49.7909
-50.1954
-50.3071
-50.566
-51.2293
-51.5223
-51.5062
-51.4556
-51.5592
-52.9404
-53.1828
-52.7394
-52.8749
-52.6991
-52.9543
-54.915
-55.0254
-54.7487
-54.5384
-54.4051
-54.3023
-54.1924
-57.4992
-57.6892
-57.0804
-56.4469
-56.0415
-55.3584
-55.0326
-54.5818
-59.7389
-59.4985
-58.8382
-58.1264
-57.2595
-56.4214
-56.2674
-55.9441
-55.7775
-60.5723
-60.3283
-59.8302
-59.1776
-58.2274
-57.6715
-57.3761
-57.2514
-57.2678
-57.4485
-61.0935
-60.8893
-60.6727
-60.3964
-59.7583
-58.7456
-58.8652
-58.5454
-58.4034
-58.218
-57.4912
-61.2912
-61.5018
-61.3914
-61.0318
-60.3931
-59.5594
-59.4646
-59.4081
-59.3988
-58.4093
-58.0453
-56.8645
-61.354
-61.5155
-61.3073
-61.0112
-60.3634
-60.0829
-59.5239
-59.6916
-59.7673
-59.0875
-57.7272
-56.4855
-55.7811
-61.0551
-60.847
-60.3874
-60.0546
-59.6973
-59.4415
-59.2428
-59.5372
-59.0821
-58.3727
-57.1546
-56.0871
-55.2074
-54.0644
-47.0009
-47.0439
-47.3186
-47.4928
-47.9584
-48.0675
-48.2315
-48.2905
-48.4433
-48.8682
-49.2994
-49.3405
-49.1677
-49.4241
-50.0973
-50.377
-50.4364
-50.6786
-50.8289
-51.4872
-51.7895
-51.55
-51.6718
-51.5214
-51.8803
-53.1825
-53.3386
-53.0405
-52.9263
-52.8295
-53.0614
-53.2598
-55.0342
-55.0835
-54.9244
-54.4858
-54.5894
-54.4269
-54.3775
-53.9631
-57.819
-57.6365
-56.9711
-56.4387
-56.136
-55.536
-55.2701
-55.0263
-55.0079
-59.5891
-59.3805
-58.8025
-58.1132
-57.2025
-56.5852
-56.496
-56.2342
-56.1756
-56.6522
-60.5566
-60.2875
-59.8627
-59.2582
-58.3961
-57.8508
-57.6161
-57.5469
-57.6898
-57.7253
-57.1995
-61.0725
-60.9912
-60.785
-60.4282
-59.8775
-58.9932
-59.0211
-58.7728
-58.7551
-58.4657
-57.7992
-57.1536
-61.3138
-61.6
-61.499
-61.1287
-60.5086
-59.7034
-59.5638
-59.4798
-59.5047
-58.7762
-58.2389
-57.065
-56.2491
-61.3819
-61.5381
-61.353
-61.0634
-60.4491
-60.1702
-59.6621
-59.8416
-59.9076
-59.2003
-57.825
-56.5654
-55.8592
-54.852
-61.0737
-60.8461
-60.4077
-60.0777
-59.7192
-59.4787
-59.2942
-59.5568
-59.083
-58.3832
-57.1499
-56.0839
-55.2196
-54.075
-53.5418
-46.8784
-46.943
-47.1118
-47.0449
-47.2877
-47.6776
-47.4025
-47.7407
-47.8058
-47.9518
-48.3998
-47.9949
-48.3426
-48.7417
-48.7396
-48.8151
-49.1644
-49.471
-49.4542
-49.7901
-49.6763
-50.4023
-50.5825
-50.8327
-50.7364
-50.8355
-51.0096
-51.7261
-51.7951
-51.9473
-51.8001
-51.7456
-51.9586
-52.197
-53.3187
-53.4589
-53.2868
-52.8837
-53.0204
-53.2134
-53.5703
-53.6778
-55.1937
-55.3161
-54.7513
-54.5741
-54.6533
-54.6676
-54.6239
-54.2955
-54.8195
-57.583
-57.5636
-57.0233
-56.4725
-56.1896
-55.7162
-55.5176
-55.4051
-55.5548
-56.5578
-59.2809
-59.1764
-58.6691
-58.0488
-57.2185
-56.7477
-56.7836
-56.5448
-56.6191
-57.2783
-57.2877
-60.4596
-60.2324
-59.8825
-59.3272
-58.535
-58.0442
-57.8335
-57.8396
-58.1803
-58.0431
-57.7905
-57.4219
-61.1
-61.1457
-60.9349
-60.5158
-60.0003
-59.2856
-59.168
-59.0288
-59.0967
-58.6419
-58.2283
-57.4199
-56.7464
-61.3456
-61.6643
-61.597
-61.2357
-60.597
-59.8601
-59.6834
-59.6217
-59.6131
-59.136
-58.4576
-57.2587
-56.3992
-55.4329
-61.4105
-61.5648
-61.3936
-61.1058
-60.5251
-60.2396
-59.8043
-59.9516
-60.0257
-59.3071
-57.9326
-56.6424
-55.9212
-54.9432
-54.2486
-61.0891
-60.852
-60.4275
-60.0908
-59.7458
-59.5167
-59.3402
-59.5693
-59.0898
-58.3901
-57.1392
-56.0661
-55.2315
-54.0903
-53.5534
-53.2557
-46.8133
-46.9442
-46.9348
-47.0901
-47.0652
-47.3331
-47.123
-47.0475
-47.3935
-47.4247
-47.835
-47.7877
-48.0375
-47.7943
-48.0156
-48.1511
-48.3366
-48.5126
-48.445
-48.8383
-48.7419
-48.7452
-49.3147
-49.2766
-49.5953
-49.8369
-50.0083
-50.0827
-50.3159
-50.3543
-50.6486
-50.7337
-50.4186
-50.8335
-51.4043
-51.3227
-51.9666
-52.0936
-52.019
-51.9437
-52.0066
-52.2675
-52.5381
-52.6321
-53.5656
-53.5244
-53.2563
-53.0427
-53.4155
-53.5396
-53.7828
-54.0516
-54.7821
-55.2843
-55.273
-54.7466
-54.7168
-54.7174
-54.8178
-54.8861
-54.8878
-55.5473
-56.8063
-57.421
-57.3477
-57.0472
-56.5118
-56.254
-55.8904
-55.7678
-55.8258
-56.1117
-57.261
-57.4306
-59.1631
-58.9739
-58.5769
-58.0451
-57.33
-56.982
-57.024
-56.8841
-57.2009
-57.8121
-57.7134
-57.2921
-60.3747
-60.2351
-59.9147
-59.3765
-58.8189
-58.1992
-58.1326
-58.1693
-58.6126
-58.2705
-58.3458
-57.7995
-56.9635
-61.1013
-61.2451
-61.0248
-60.6515
-60.1448
-59.6214
-59.3019
-59.2809
-59.3726
-58.8868
-58.7153
-57.7162
-56.9698
-55.7347
-61.3823
-61.7189
-61.684
-61.341
-60.6573
-60.0118
-59.8487
-59.7922
-59.7468
-59.4643
-58.6606
-57.4308
-56.5404
-55.5884
-54.7215
-61.4374
-61.5874
-61.4252
-61.1404
-60.5787
-60.3057
-59.9419
-60.0361
-60.153
-59.4187
-58.0312
-56.7148
-55.9904
-55.0326
-54.3028
-53.7861
-61.1015
-60.86
-60.4459
-60.104
-59.7705
-59.5492
-59.3828
-59.5649
-59.102
-58.3889
-57.1423
-56.0406
-55.2395
-54.1054
-53.5645
-53.2446
-53.0733
-46.714
-46.8798
-46.9013
-47.0248
-46.9258
-47.2605
-46.8864
-47.1262
-47.2419
-47.4911
-47.058
-47.2643
-47.4188
-47.7829
-47.4119
-47.6404
-47.8015
-47.8121
-48.0858
-47.7354
-48.2599
-48.2961
-48.522
-48.8852
-48.9351
-48.5123
-48.8515
-48.8199
-49.1433
-49.1558
-49.6705
-49.419
-49.5812
-49.9594
-50.0684
-50.4414
-50.7584
-50.6038
-50.5405
-50.8292
-50.7514
-50.8837
-51.3029
-51.5677
-51.6111
-52.0791
-52.0687
-52.2163
-52.0719
-52.0315
-52.1521
-52.6078
-52.8533
-53.0827
-54.0867
-53.3718
-53.7979
-53.238
-53.4421
-53.6736
-53.7728
-54.1552
-54.4195
-55.3988
-56.7991
-55.5891
-55.2711
-55.0959
-54.8974
-54.9968
-55.0429
-55.0339
-55.4358
-56.2733
-57.631
-58.6021
-57.3054
-57.3289
-57.0475
-56.5491
-56.382
-56.1833
-56.1922
-56.2575
-56.7692
-57.9406
-58.0104
-58.1086
-58.949
-59.0012
-58.4955
-58.0389
-57.457
-57.2059
-57.2349
-57.3099
-57.8298
-58.3276
-58.0337
-57.6791
-57.0858
-60.2822
-60.254
-60.0215
-59.601
-59.0917
-58.3653
-58.4691
-58.5482
-58.9175
-58.7212
-58.8388
-58.1287
-57.1475
-56.3364
-61.1259
-61.2219
-61.2289
-60.7769
-60.3959
-59.9042
-59.4385
-59.5387
-59.6115
-59.3287
-59.1091
-58.0638
-57.171
-55.9434
-55.0979
-61.43
-61.7333
-61.7239
-61.4126
-60.7075
-60.1784
-60.0034
-59.9827
-59.9273
-59.745
-58.8708
-57.5923
-56.6705
-55.7291
-54.8402
-54.33
-61.464
-61.5955
-61.4422
-61.1654
-60.6205
-60.381
-60.072
-60.1402
-60.2815
-59.5172
-58.1129
-56.7826
-56.0458
-55.1001
-54.3594
-53.8392
-53.5813
-61.1137
-60.8602
-60.4586
-60.1145
-59.7824
-59.5869
-59.4288
-59.5621
-59.1143
-58.3823
-57.1395
-56.0132
-55.2403
-54.1172
-53.583
-53.2359
-53.0753
-52.6948
-46.6846
-46.741
-46.7529
-46.7225
-46.8516
-46.8587
-46.8154
-47.0202
-47.2228
-47.0762
-46.8974
-47.0471
-47.0622
-47.4364
-47.456
-47.102
-47.2239
-47.562
-47.6898
-47.715
-47.3639
-47.5866
-47.7866
-48.0318
-48.243
-48.3371
-48.0222
-48.0632
-48.4126
-48.6241
-48.7868
-49.2043
-49.1801
-48.4768
-48.8074
-49.1852
-49.4007
-49.6324
-49.8313
-49.9512
-49.5624
-49.6856
-49.963
-49.8314
-50.3156
-51.1611
-50.7797
-51.2196
-50.7061
-50.9894
-51.0198
-51.3514
-51.7015
-51.9281
-51.9491
-52.1006
-53.2821
-52.2046
-52.3623
-52.1155
-52.1152
-52.542
-52.8248
-53.0717
-53.5908
-54.7016
-56.2815
-53.7152
-53.7473
-53.6471
-53.8822
-53.895
-54.0626
-54.5171
-54.8027
-56.1363
-57.6621
-59.0187
-55.4163
-55.3728
-55.3665
-55.2117
-55.3161
-55.2314
-55.3767
-55.9568
-56.9394
-58.47
-59.3125
-59.2889
-57.2942
-57.3327
-57.0827
-56.8413
-56.5375
-56.4635
-56.544
-56.8097
-57.5968
-58.7349
-58.6002
-58.4576
-58.0105
-58.9032
-59.0502
-58.5198
-58.0674
-57.6324
-57.4607
-57.4911
-57.7498
-58.3978
-58.828
-58.5345
-58.1653
-57.3509
-57.1562
-60.2413
-60.2514
-60.0721
-59.7589
-59.1493
-58.6272
-58.7824
-58.8847
-59.2457
-59.4081
-59.312
-58.4668
-57.3763
-56.4658
-55.58
-61.1737
-61.2933
-61.4099
-60.9232
-60.6237
-60.0271
-59.6154
-59.8469
-59.8754
-59.8205
-59.4327
-58.3027
-57.3872
-56.1448
-55.2116
-54.6623
-61.4857
-61.7059
-61.7399
-61.4538
-60.7619
-60.3625
-60.1786
-60.2388
-60.1152
-60.0614
-59.0272
-57.7189
-56.7977
-55.87
-54.9685
-54.3803
-54.1297
-61.4925
-61.6092
-61.4406
-61.1863
-60.6549
-60.4547
-60.1883
-60.2511
-60.3797
-59.6173
-58.1661
-56.8384
-56.0752
-55.1507
-54.4151
-53.8865
-53.6156
-53.3577
-61.1234
-60.8584
-60.4706
-60.1231
-59.794
-59.636
-59.4752
-59.5648
-59.1252
-58.3885
-57.1343
-55.9918
-55.2299
-54.1259
-53.5993
-53.2379
-53.0741
-52.7016
-52.7254
-46.5888
-46.6341
-46.637
-46.7398
-46.7335
-46.7605
-46.7805
-46.8207
-46.8792
-46.9157
-46.7159
-46.911
-47.075
-47.048
-47.3054
-46.9046
-46.962
-47.3768
-47.3992
-47.514
-47.6255
-47.0247
-47.134
-47.4611
-47.5883
-47.7957
-47.8891
-47.4045
-47.6938
-47.9889
-48.0124
-48.1986
-48.65
-48.5676
-47.9759
-48.3189
-48.5558
-48.6698
-48.915
-49.0572
-49.3383
-48.9222
-48.6211
-48.8695
-49.2006
-49.3902
-49.6987
-50.2308
-50.2154
-50.2451
-49.5452
-49.8979
-50.0203
-50.1817
-50.6963
-51.3847
-51.1629
-51.6185
-52.3244
-50.919
-51.119
-51.0179
-51.5021
-52.0551
-52.1428
-52.245
-52.6369
-53.7486
-55.4621
-52.2868
-52.5131
-52.1761
-52.8439
-52.7747
-52.9462
-53.3672
-54.0043
-55.4673
-57.0113
-58.388
-54.0683
-53.6279
-53.7065
-54.1484
-54.2806
-54.4137
-54.8093
-55.2971
-56.8342
-58.5698
-59.5387
-59.1112
-55.2522
-55.4994
-55.9402
-55.6566
-55.6349
-55.4857
-55.7736
-56.5475
-57.7086
-59.2514
-59.9892
-59.6705
-58.8947
-57.2552
-57.4267
-57.2677
-57.058
-56.742
-56.7429
-56.8388
-57.3803
-58.4926
-59.2986
-59.1564
-58.7704
-58.1085
-57.4256
-59.0073
-59.0248
-58.5895
-58.2498
-57.8137
-57.7187
-57.8498
-58.2555
-59.182
-59.199
-59.1229
-58.5296
-57.6078
-57.1482
-55.8709
-60.2542
-60.2816
-60.1076
-59.7626
-59.3622
-58.9693
-59.0467
-59.2499
-59.6519
-60.011
-59.7322
-58.8333
-57.6764
-56.6576
-55.6695
-55.1186
-61.235
-61.3654
-61.4475
-61.0316
-60.7839
-60.1953
-59.8538
-60.1634
-60.1775
-60.097
-59.7086
-58.5172
-57.5705
-56.3151
-55.3252
-54.7522
-54.7179
-61.5276
-61.6695
-61.7349
-61.4951
-60.8176
-60.5533
-60.332
-60.5234
-60.3084
-60.3141
-59.1571
-57.8069
-56.9077
-56.0016
-55.078
-54.4515
-54.2054
-53.769
-61.5213
-61.6172
-61.428
-61.2049
-60.6866
-60.532
-60.2996
-60.3597
-60.4705
-59.6957
-58.1938
-56.8811
-56.1159
-55.2077
-54.4586
-53.9301
-53.6484
-53.3454
-53.1691
-61.1344
-60.862
-60.4801
-60.1274
-59.8186
-59.6871
-59.5178
-59.5572
-59.141
-58.3888
-57.1328
-55.9855
-55.2215
-54.1321
-53.6127
-53.2399
-53.0761
-52.7041
-52.7119
-52.4186
-46.4386
-46.5386
-46.5483
-46.644
-46.6435
-46.6122
-46.6341
-46.7205
-46.7761
-46.768
-46.7156
-46.8242
-46.8645
-46.9158
-46.9586
-46.7624
-46.8773
-47.0086
-47.1439
-47.186
-47.2108
-46.7794
-47.0124
-47.276
-47.3978
-47.7045
-47.497
-47.6069
-47.0313
-47.28
-47.4888
-47.5931
-47.7011
-48.0135
-48.1862
-47.7397
-47.7368
-47.7279
-48.0729
-48.326
-48.556
-48.7309
-48.5188
-47.9653
-48.4145
-48.6388
-48.7588
-49.2642
-49.2156
-49.4962
-49.3992
-50.5566
-48.8293
-49.0912
-49.2819
-49.5875
-49.784
-50.3878
-50.5091
-50.6673
-51.148
-49.6989
-50.0225
-50.0206
-50.6214
-51.143
-51.6307
-51.3051
-51.7727
-53.01
-54.1732
-50.9272
-51.0035
-51.0807
-51.6738
-51.9668
-52.3216
-52.3672
-53.0281
-54.5105
-56.2238
-57.5626
-52.4582
-52.4186
-52.799
-53.4161
-53.1213
-53.3249
-53.8343
-54.6417
-56.0704
-57.818
-58.9938
-59.2021
-53.8441
-53.7485
-54.5024
-54.5971
-54.6386
-54.5469
-55.0461
-55.8735
-57.5639
-59.3961
-59.9269
-59.2314
-58.5992
-55.5668
-55.7375
-55.9806
-56.1444
-55.9018
-55.7376
-56.2893
-57.0513
-58.4515
-60.0164
-60.6992
-60.0441
-59.1142
-57.4365
-57.535
-57.6598
-57.594
-57.3678
-56.9647
-57.0335
-57.2209
-58.0197
-59.1916
-59.7182
-59.7462
-59.0138
-58.2005
-57.4994
-56.2889
-59.1291
-59.186
-58.7929
-58.3912
-57.9872
-58.0078
-58.2232
-58.7378
-59.7001
-59.6803
-59.7105
-58.7839
-57.7756
-57.1163
-55.8599
-55.456
-60.3608
-60.3782
-60.1063
-59.8605
-59.6371
-59.2639
-59.2754
-59.6462
-60.1038
-60.6425
-60.0676
-59.1436
-58.0161
-56.7567
-55.7459
-55.1389
-55.1558
-61.3464
-61.4159
-61.4966
-61.1726
-60.925
-60.402
-60.096
-60.4236
-60.4441
-60.4151
-59.9161
-58.7027
-57.7429
-56.5285
-55.4538
-54.8447
-54.7997
-54.2077
-61.5535
-61.661
-61.7278
-61.5355
-60.8429
-60.7259
-60.4709
-60.7199
-60.4525
-60.4307
-59.2753
-57.8752
-56.9829
-56.0927
-55.1798
-54.5381
-54.2841
-53.8069
-53.6976
-61.5389
-61.6019
-61.3998
-61.2145
-60.7163
-60.6013
-60.3949
-60.4366
-60.536
-59.7476
-58.2359
-56.9125
-56.1624
-55.2523
-54.4936
-53.9643
-53.6745
-53.3436
-53.1533
-52.8373
-61.1475
-60.8606
-60.4865
-60.1214
-59.8447
-59.7356
-59.555
-59.5477
-59.166
-58.3985
-57.1074
-55.976
-55.2289
-54.1271
-53.6224
-53.2432
-53.0845
-52.7027
-52.6855
-52.3817
-52.2866
-46.3661
-46.4697
-46.4165
-46.5364
-46.5283
-46.5189
-46.5726
-46.5789
-46.5972
-46.6107
-46.6372
-46.7091
-46.7454
-46.7746
-46.7131
-46.6704
-46.789
-46.8269
-46.8932
-46.8912
-46.856
-46.7439
-46.8961
-47.0691
-47.2546
-47.274
-47.2489
-47.3491
-46.9128
-46.9434
-47.1104
-47.2671
-47.3527
-47.5118
-47.7517
-47.9369
-47.2864
-47.3871
-47.4769
-47.6245
-47.8164
-48.0161
-48.2819
-48.5651
-47.4557
-47.8015
-47.8865
-48.085
-48.5945
-48.6169
-48.8473
-49.0087
-49.7041
-48.225
-48.4837
-48.6548
-48.8629
-49.226
-49.3968
-49.6847
-49.7859
-50.4966
-51.9775
-48.7492
-49.1116
-49.4078
-49.8177
-50.0948
-50.4011
-50.5504
-50.8847
-51.6978
-53.3095
-49.8579
-49.9915
-50.0938
-50.6294
-51.2442
-51.7407
-51.6923
-51.8905
-53.5559
-54.904
-56.4815
-51.054
-51.3388
-51.5844
-52.2008
-52.297
-52.5722
-52.5031
-53.4241
-55.2773
-57.1812
-57.9811
-57.7471
-52.4668
-52.3894
-52.2801
-53.5064
-53.6839
-53.5199
-54.0021
-55.1565
-56.8275
-58.6181
-59.5887
-58.9785
-58.2927
-53.7578
-54.1006
-55.0983
-55.133
-54.9483
-54.8651
-55.2803
-56.5147
-58.2829
-60.0499
-60.2701
-59.5304
-58.7071
-57.3909
-55.9162
-56.249
-56.5994
-56.6442
-56.1457
-55.9775
-56.8246
-57.5857
-59.2267
-60.7995
-61.2817
-60.2756
-59.2288
-57.4973
-56.0751
-57.8128
-58.1183
-58.0383
-57.6482
-57.2739
-57.2148
-57.6663
-58.5802
-59.7918
-60.4399
-60.3905
-59.2691
-58.2554
-57.5912
-56.1318
-55.3721
-59.3295
-59.3963
-59.1215
-58.5631
-58.2017
-58.3609
-58.6077
-59.2728
-59.9853
-60.3146
-60.2831
-59.0403
-57.9847
-57.1484
-55.9095
-55.4265
-55.3849
-60.5576
-60.495
-60.1782
-59.9863
-59.8647
-59.5238
-59.5459
-60.0421
-60.6019
-61.0867
-60.3851
-59.3847
-58.1527
-56.8848
-55.8486
-55.1878
-55.2226
-54.7934
-61.4374
-61.4696
-61.5138
-61.3145
-60.9767
-60.5486
-60.3174
-60.6455
-60.8166
-60.9017
-60.051
-58.8374
-57.8535
-56.7668
-55.5877
-54.9442
-54.8795
-54.2496
-54.1436
-61.5812
-61.6627
-61.7193
-61.5308
-60.8393
-60.8644
-60.6086
-60.8235
-60.6682
-60.5556
-59.3546
-57.9233
-57.0445
-56.1796
-55.2929
-54.6453
-54.3449
-53.8468
-53.6816
-53.2584
-61.5531
-61.5657
-61.361
-61.2117
-60.7461
-60.66
-60.4773
-60.5586
-60.5719
-59.7874
-58.2655
-56.9345
-56.1996
-55.2835
-54.5229
-53.9954
-53.6976
-53.353
-53.134
-52.8177
-52.6472
-61.1507
-60.8596
-60.4948
-60.1114
-59.8653
-59.7677
-59.5872
-59.5406
-59.1986
-58.4005
-57.0377
-55.958
-55.236
-54.1183
-53.6272
-53.2451
-53.0881
-52.7004
-52.6563
-52.3772
-52.2668
-52.2051
-61.1335
-46.2555
-46.3867
-46.3292
-46.4391
-46.3969
-46.3843
-46.5216
-46.537
-46.5348
-46.5228
-46.568
-46.6334
-46.6015
-46.6445
-46.5792
-46.6207
-46.6905
-46.7468
-46.7669
-46.7716
-46.7498
-46.7073
-46.7907
-46.918
-46.9623
-46.7054
-46.9878
-47.0446
-46.861
-46.9323
-46.9975
-47.1569
-47.262
-47.2524
-47.3597
-47.4511
-46.7959
-47.1345
-47.3293
-47.2836
-47.418
-47.6848
-47.806
-48.059
-48.2389
-47.2487
-47.3937
-47.528
-47.6733
-47.9386
-48.0651
-48.4036
-48.6523
-48.824
-47.579
-47.8482
-48.0855
-48.208
-48.5366
-48.7422
-49.0346
-49.3825
-49.7752
-50.4871
-48.2067
-48.3631
-48.8246
-49.0908
-49.2686
-49.6232
-49.7678
-50.0318
-50.4411
-52.2604
-53.9047
-48.9719
-49.2507
-49.5303
-49.9186
-50.5104
-50.5471
-50.9154
-51.117
-52.3344
-53.9717
-55.3141
-49.8336
-50.1407
-50.2877
-50.8566
-51.4176
-51.741
-52.105
-52.2457
-54.0544
-55.9749
-56.9501
-56.1103
-51.0851
-51.377
-51.6347
-52.5101
-52.8078
-52.6568
-52.5565
-54.014
-55.8039
-57.7039
-58.6654
-57.9222
-57.2833
-52.4056
-52.6826
-53.6686
-54.0334
-53.9213
-53.7453
-54.1509
-55.5319
-57.4188
-59.4628
-59.9736
-59.1743
-58.4639
-56.9957
-53.9308
-54.5228
-55.0113
-55.7328
-55.2751
-55.0848
-55.8407
-57.1068
-59.0644
-60.5673
-60.6896
-59.62
-58.8524
-57.5818
-56.0905
-56.0622
-56.9477
-57.301
-57.0585
-56.3649
-56.312
-57.2374
-58.2223
-59.9438
-61.462
-61.5917
-60.269
-59.2
-57.5366
-55.9091
-55.0884
-58.3031
-58.7672
-58.3518
-57.8683
-57.524
-57.4463
-58.2087
-59.1589
-60.5125
-61.2919
-60.9329
-59.4925
-58.2634
-57.6039
-56.0146
-55.2426
-55.0669
-59.722
-59.6665
-59.3579
-58.8605
-58.5331
-58.7009
-58.9765
-59.8763
-60.5147
-60.9233
-60.6745
-59.3184
-58.1795
-57.1225
-55.9411
-55.3856
-55.3953
-55.4393
-60.7242
-60.6428
-60.2564
-60.0704
-60.0118
-59.6654
-59.8469
-60.416
-61.0148
-61.3096
-60.6439
-59.5423
-58.2756
-57.1675
-55.9445
-55.2581
-55.2831
-54.8626
-54.7201
-61.5131
-61.5502
-61.5388
-61.3216
-60.9792
-60.7198
-60.5459
-60.8366
-61.2121
-61.2685
-60.1515
-58.9321
-57.9111
-56.95
-55.751
-55.0568
-54.9815
-54.3386
-54.1648
-53.805
-61.6101
-61.6655
-61.7238
-61.5131
-60.8983
-60.9969
-60.7462
-60.8983
-60.9258
-60.6653
-59.4144
-57.9515
-57.0768
-56.2632
-55.3881
-54.7402
-54.4093
-53.8887
-53.6731
-53.2357
-53.0141
-61.5627
-61.5335
-61.326
-61.1958
-60.7784
-60.7141
-60.5573
-60.6769
-60.5733
-59.8153
-58.2817
-56.9498
-56.218
-55.3037
-54.5393
-54.0309
-53.7118
-53.3482
-53.1211
-52.7965
-52.6011
-52.5025
-61.5647
-61.144
-60.8553
-60.5132
-60.1121
-59.8844
-59.7919
-59.6137
-59.5371
-59.221
-58.3954
-56.9706
-55.9511
-55.2142
-54.1254
-53.6376
-53.2472
-53.0848
-52.6953
-52.6428
-52.3557
-52.2472
-52.1869
-52.188
-60.8375
-46.2659
-46.2465
-46.3267
-46.3522
-46.2942
-46.3825
-46.4432
-46.3814
-46.3476
-46.5288
-46.5733
-46.5395
-46.5669
-46.4335
-46.575
-46.6127
-46.6641
-46.6543
-46.624
-46.585
-46.6694
-46.7561
-46.8277
-46.8356
-46.7464
-46.7496
-46.7602
-46.6773
-46.7891
-46.9134
-47.0095
-47.1286
-47.0448
-47.0972
-47.0801
-46.8815
-46.9288
-47.0873
-47.1464
-47.2518
-47.4217
-47.4844
-47.514
-47.6159
-47.0925
-47.0675
-47.3261
-47.4412
-47.4604
-47.6234
-47.9308
-48.0309
-48.1569
-48.8294
-47.2626
-47.4023
-47.5483
-47.7332
-47.9302
-48.2456
-48.5304
-48.9681
-49.0037
-49.8122
-47.7785
-47.9408
-48.1845
-48.3675
-48.5897
-49.0227
-49.1938
-49.4929
-50.2708
-50.8053
-51.8047
-48.3312
-48.6658
-48.8575
-49.2027
-49.8644
-49.7348
-50.0123
-50.4122
-50.786
-52.2364
-53.9964
-54.7847
-49.074
-49.2537
-49.6814
-50.0088
-50.3953
-50.8131
-51.1516
-51.4117
-52.659
-54.4662
-55.8167
-55.7609
-49.9274
-50.3464
-50.7408
-51.1298
-51.5989
-52.0619
-51.8021
-52.7349
-54.4891
-57.2132
-57.3851
-56.8956
-55.9454
-51.1797
-51.3628
-51.8464
-52.5542
-52.9419
-52.7376
-52.8629
-54.5379
-56.9302
-58.5544
-58.8071
-57.8152
-57.3821
-56.0775
-52.5526
-52.8956
-54.1097
-54.645
-54.0096
-53.9678
-54.6299
-56.4157
-58.051
-60.1513
-60.1208
-59.2151
-58.512
-57.0919
-55.6332
-54.2305
-55.0745
-55.5985
-56.1629
-55.4411
-55.0924
-56.0874
-57.602
-59.8182
-60.9724
-61.0429
-59.8095
-58.9213
-57.6425
-56.2073
-55.0919
-56.2015
-57.4691
-57.7765
-57.2791
-56.5146
-56.6858
-57.8187
-58.9123
-60.7959
-62.0646
-61.8066
-60.274
-59.1849
-57.5791
-55.9307
-54.8939
-54.7507
-58.8201
-59.2783
-58.6382
-58.1443
-57.8053
-57.8253
-58.7656
-59.7291
-61.14
-61.9181
-61.275
-59.7139
-58.2992
-57.5494
-56.0301
-55.1141
-55.0314
-55.4831
-59.9061
-59.8213
-59.5623
-59.0807
-58.9724
-59.0873
-59.4271
-60.3645
-60.9403
-61.3407
-60.9467
-59.5662
-58.3181
-57.0924
-55.9805
-55.3311
-55.4061
-55.4253
-55.402
-60.8696
-60.7916
-60.4389
-60.2112
-60.0969
-59.825
-60.1599
-60.8467
-61.372
-61.5179
-60.834
-59.6455
-58.3537
-57.3475
-56.0568
-55.3354
-55.3964
-54.9951
-54.7169
-54.4423
-61.5715
-61.6195
-61.6164
-61.3196
-60.9784
-60.8508
-60.74
-61.0334
-61.614
-61.4484
-60.2122
-58.9763
-57.9345
-57.0481
-55.9553
-55.2023
-55.0896
-54.4359
-54.1829
-53.746
-53.2817
-61.6236
-61.6569
-61.7245
-61.5229
-60.9755
-61.0365
-60.9046
-61.0218
-61.2171
-60.7739
-59.4619
-57.9658
-57.081
-56.308
-55.4631
-54.823
-54.4851
-53.9323
-53.6758
-53.2117
-52.9324
-52.7358
-61.6471
-61.5647
-61.5094
-61.2958
-61.1873
-60.8071
-60.7505
-60.6374
-60.7778
-60.5572
-59.8361
-58.2916
-56.9536
-56.2237
-55.3138
-54.5539
-54.0644
-53.7238
-53.338
-53.0923
-52.7796
-52.5567
-52.4607
-52.2902
-61.459
-60.8471
-60.5374
-60.1162
-59.8982
-59.8109
-59.6319
-59.5359
-59.2268
-58.3965
-56.991
-55.9411
-55.1708
-54.1227
-53.6467
-53.2485
-53.0795
-52.6869
-52.6358
-52.3263
-52.23
-52.1701
-52.176
-52.0807
-60.5596
-46.1861
-46.227
-46.1587
-46.3517
-46.3305
-46.273
-46.27
-46.3888
-46.4003
-46.4246
-46.382
-46.3058
-46.5202
-46.5519
-46.574
-46.5449
-46.5297
-46.4351
-46.578
-46.6617
-46.6387
-46.6618
-46.6074
-46.5544
-46.5619
-46.6189
-46.7192
-46.7607
-46.8509
-46.8753
-46.8463
-46.8704
-46.8437
-46.7554
-46.7494
-46.872
-46.9641
-46.9848
-47.0932
-47.1533
-47.1724
-47.1883
-46.9773
-46.9729
-47.0589
-47.1883
-47.2308
-47.3335
-47.5001
-47.592
-47.5592
-47.8686
-47.2042
-47.1694
-47.2502
-47.3817
-47.5558
-47.8313
-48.0358
-48.1676
-48.1313
-48.7396
-49.213
-47.4245
-47.6292
-47.6229
-47.8402
-48.1131
-48.4576
-48.654
-49.0076
-49.1978
-49.8662
-50.2826
-47.9294
-48.1012
-48.2619
-48.3391
-48.9875
-49.1485
-49.3683
-49.5962
-50.4301
-50.8516
-51.9544
-52.5252
-48.51
-48.7334
-48.9673
-49.2425
-49.6512
-49.9935
-50.1544
-50.6163
-51.3129
-52.6006
-54.2463
-54.7226
-54.414
-49.2068
-49.4504
-49.6958
-50.2756
-50.5313
-50.8681
-51.1963
-51.7641
-53.0072
-55.2025
-55.9431
-56.027
-55.0643
-50.0079
-50.3908
-50.87
-51.3141
-51.6396
-51.9673
-51.995
-53.1711
-55.0906
-57.1781
-58.1438
-56.8948
-55.8608
-54.6732
-51.1979
-51.5478
-52.3068
-53.0227
-53.0551
-52.7751
-53.2033
-55.0034
-57.0805
-59.625
-59.1959
-57.8242
-57.5477
-56.0693
-55.0863
-52.902
-53.2035
-54.08
-54.8315
-53.9836
-54.0636
-55.1036
-57.3239
-59.1814
-60.7221
-60.4126
-59.0533
-58.3339
-57.0175
-55.7697
-55.3455
-54.4093
-55.4632
-56.5598
-56.4842
-55.6046
-55.3331
-56.9932
-58.3951
-60.4502
-61.3559
-61.235
-59.5662
-58.7516
-57.5798
-56.0957
-54.8478
-54.9013
-56.4735
-58.2533
-58.2879
-57.4062
-56.6654
-56.903
-58.156
-59.5222
-61.5691
-62.522
-61.8882
-60.2842
-59.1462
-57.5617
-55.9755
-54.6998
-54.6626
-55.1078
-59.2107
-59.469
-58.8206
-58.3159
-58.0745
-58.312
-59.231
-60.3597
-61.7399
-62.3872
-61.548
-59.899
-58.3266
-57.4287
-56.1161
-55.0221
-55.0024
-55.5885
-55.6108
-60.1013
-60.0499
-59.8028
-59.4716
-59.3168
-59.425
-59.8291
-60.675
-61.4471
-61.8591
-61.1619
-59.755
-58.4243
-57.1
-56.0572
-55.2785
-55.4049
-55.4562
-55.4144
-54.9317
-61.0759
-60.8873
-60.5687
-60.3627
-60.2864
-60.1566
-60.5568
-61.2097
-61.6352
-61.7519
-60.9765
-59.6712
-58.3818
-57.3762
-56.2988
-55.4516
-55.5614
-55.1699
-54.7695
-54.4
-53.4546
-61.6258
-61.6692
-61.6578
-61.3792
-61.1276
-60.9896
-60.9025
-61.3137
-61.9329
-61.5186
-60.3
-58.9727
-57.9179
-57.1248
-56.1842
-55.3716
-55.2098
-54.5896
-54.2449
-53.7125
-53.1779
-53.0662
-61.6761
-61.6366
-61.6434
-61.7021
-61.5415
-61.0361
-61.095
-61.0662
-61.2002
-61.3972
-60.8552
-59.507
-57.971
-57.0589
-56.3234
-55.5444
-54.9278
-54.5479
-53.9876
-53.6758
-53.1906
-52.8463
-52.5869
-52.5708
-61.6291
-61.4862
-61.2728
-61.177
-60.827
-60.7686
-60.7107
-60.8334
-60.534
-59.8417
-58.2909
-56.9423
-56.2162
-55.3152
-54.5676
-54.0776
-53.7372
-53.3249
-53.0532
-52.7602
-52.5053
-52.4072
-52.2122
-52.042
-61.2613
-60.5583
-60.1107
-59.9061
-59.8245
-59.6445
-59.5315
-59.2187
-58.3935
-57.0291
-55.9296
-55.1863
-54.1153
-53.6532
-53.2525
-53.073
-52.677
-52.6088
-52.3105
-52.2166
-52.1526
-52.161
-52.0599
-52.0102
-60.0906
-46.229
-46.2303
-46.1555
-46.1188
-46.3449
-46.3571
-46.2951
-46.2636
-46.2073
-46.3869
-46.4266
-46.4146
-46.3544
-46.3277
-46.2751
-46.4781
-46.5317
-46.5541
-46.5175
-46.5047
-46.4587
-46.4558
-46.538
-46.5844
-46.6538
-46.6571
-46.6097
-46.6519
-46.6519
-46.6362
-46.6015
-46.7193
-46.7928
-46.8264
-46.8068
-46.866
-46.9345
-46.9387
-46.9214
-46.7471
-46.8073
-46.8858
-46.9568
-47.0865
-47.1236
-47.115
-47.2114
-47.2291
-47.3888
-46.8089
-47.0045
-47.1281
-47.1307
-47.3618
-47.5185
-47.634
-47.6187
-47.6648
-47.9799
-48.3587
-47.1551
-47.277
-47.3439
-47.5108
-47.678
-47.9322
-48.1177
-48.2742
-48.3958
-48.7736
-49.3985
-49.6834
-47.6216
-47.656
-47.7464
-47.8663
-48.2952
-48.5211
-48.7269
-48.954
-49.2856
-49.8661
-50.5164
-50.8647
-48.0283
-48.2111
-48.2379
-48.5692
-48.8849
-49.2222
-49.5417
-49.8068
-50.4659
-51.0242
-51.9848
-52.5729
-52.7617
-48.5644
-48.8215
-48.9875
-49.3786
-49.5595
-49.9775
-50.4945
-50.9901
-51.6009
-52.7052
-54.0145
-54.5284
-54.3133
-53.1799
-49.2446
-49.5897
-49.9042
-50.4184
-50.7668
-50.8906
-51.4004
-52.0283
-52.891
-55.1945
-56.7296
-56.1085
-55.0144
-53.6169
-50.0585
-50.5595
-50.9415
-51.3109
-51.7505
-51.8913
-52.3389
-53.4227
-55.7497
-57.9447
-58.6077
-56.9656
-55.783
-54.5945
-53.7717
-51.3929
-51.718
-52.3571
-53.2756
-53.05
-52.9591
-53.6197
-55.9717
-58.7066
-60.4677
-59.503
-57.91
-57.0367
-56.0067
-54.9342
-54.8223
-52.6888
-53.6076
-54.4523
-55.0767
-54.0014
-54.2649
-55.4851
-57.9006
-60.1544
-60.8602
-60.5046
-58.8741
-57.8078
-56.7241
-55.6251
-55.181
-54.8742
-54.6516
-55.901
-56.8494
-56.6201
-55.5665
-55.6324
-57.8066
-59.2483
-61.3558
-61.9546
-61.3066
-59.3705
-58.5496
-57.3897
-56.2836
-54.8792
-54.6441
-54.8337
-57.2872
-59.0239
-58.4891
-57.4566
-56.7962
-57.2622
-58.703
-60.0937
-62.2542
-62.7238
-61.8582
-60.1698
-59.1144
-57.5298
-55.9711
-54.4532
-54.576
-55.1792
-55.7887
-59.7512
-59.6403
-58.821
-58.4816