/*--------------------------------*- C++ -*----------------------------------*\
  =========                 |
  \\      /  F ield         | OpenFOAM: The Open Source CFD Toolbox
   \\    /   O peration     | Website:  https://openfoam.org
    \\  /    A nd           | Version:  7
     \\/     M anipulation  |
\*---------------------------------------------------------------------------*/
FoamFile
{
    version     2.0;
    format      ascii;
    class       surfaceScalarField;
    location    "7";
    object      phi;
}
// * * * * * * * * * * * * * * * * * * * * * * * * * * * * * * * * * * * * * //

dimensions      [0 3 -1 0 0 0 0];

internalField   nonuniform List<scalar> 
53739
(
9.07188e-05
-0.000180864
-7.56397e-05
0.000201548
0.00104067
-0.000235651
8.81573e-05
-0.000266313
-7.49502e-05
9.3294e-05
-0.00104267
-7.04512e-05
0.000359568
0.00219984
-0.000309566
0.000196401
0.000935559
-0.000225607
0.000224063
0.000738336
-0.000233184
9.01076e-05
-0.000353605
-7.46298e-05
9.1225e-05
-0.00113823
-7.06142e-05
7.62814e-05
-0.0011045
-6.65441e-05
0.000699228
0.00389433
-0.000543819
0.000404957
0.00201079
-0.00033259
0.000365761
0.00245853
-0.000377548
0.000202657
0.000828577
-0.000214846
0.00022798
0.000606256
-0.000230282
0.000130881
0.000187851
-0.000212749
9.24966e-05
-0.000443549
-7.43581e-05
8.48803e-05
-0.00122687
-7.08655e-05
6.84715e-05
-0.00117713
-6.64481e-05
9.73603e-05
-0.000854832
-6.31686e-05
0.00103938
0.00599101
-0.000755627
0.000750807
0.00341216
-0.0005803
0.000688224
0.00362635
-0.000459911
0.00039987
0.00183519
-0.000374265
0.000320418
0.00241528
-0.000381773
0.000241745
0.00218966
-0.00044363
0.000207424
0.000718428
-0.000212561
0.000211275
0.000494906
-0.000229889
0.00011678
0.000122392
-0.000213131
0.000167361
9.88037e-06
-0.000187041
9.23974e-05
-0.000533665
-7.43756e-05
7.589e-05
-0.00130606
-7.1064e-05
5.96907e-05
-0.00124125
-6.64409e-05
9.03814e-05
-0.000948386
-6.32763e-05
0.000162146
-0.00040018
-6.56132e-05
0.00117355
0.0070674
0.000138671
0.00107478
0.00592584
-0.000686023
0.00111068
0.00524558
-0.000780816
0.000677256
0.00302929
-0.000519685
0.000569472
0.00331237
-0.000515378
0.000500982
0.00324393
-0.000619715
0.00030362
0.00176857
-0.000393582
0.000305854
0.00234396
-0.00039753
0.000249533
0.00211328
-0.000438138
0.000252955
0.00203625
-0.000424326
0.000191033
0.000622619
-0.000216196
0.000185475
0.000405052
-0.000232292
0.000105513
6.14863e-05
-0.000214806
0.000144284
-7.41769e-05
-0.000182977
0.000335026
0.000695443
-0.000199055
9.10767e-05
-0.000622608
-7.44971e-05
6.69858e-05
-0.0013762
-7.12212e-05
5.04636e-05
-0.00129624
-6.65328e-05
8.44632e-05
-0.00103621
-6.3079e-05
0.000153488
-0.000549039
-6.79048e-05
0.000180205
0.000113605
-7.52788e-05
0.00143525
0.00721345
0.000756223
0.00132331
0.00717193
-2.66278e-05
0.00156586
0.00687369
-0.000343713
0.00103893
0.00566076
-0.000621633
0.00105822
0.00480249
-0.000731683
0.000927911
0.00438854
-0.000766335
0.000516787
0.00282948
-0.000503677
0.000534055
0.00309131
-0.000526824
0.000464962
0.00313276
-0.000619636
0.000320938
0.00334032
-0.000655078
0.000309117
0.00168665
-0.000390729
0.000324766
0.00223586
-0.000424767
0.000226374
0.0020303
-0.000435419
0.000240735
0.00192426
-0.000422595
0.000425382
0.0019358
-0.000344963
0.000168607
0.000544491
-0.00021899
0.000168033
0.000321747
-0.000233939
9.19141e-05
4.78619e-06
-0.000217042
0.000135584
-0.000159148
-0.000180955
0.000310699
0.000547769
-0.000192513
0.000336949
0.00167036
-0.000248295
8.52896e-05
-0.000705704
-7.46901e-05
5.60075e-05
-0.00143521
-7.14939e-05
4.39283e-05
-0.00134478
-6.66116e-05
7.92453e-05
-0.00111922
-6.27674e-05
0.000147763
-0.000690215
-6.96671e-05
0.000179086
-5.73416e-05
-7.60441e-05
0.000113941
-0.000444522
-8.31426e-05
0.00167496
0.00729867
0.00126732
0.00166622
0.00710709
0.0006667
0.00184795
0.00691772
0.000517741
0.00139544
0.00725183
-0.000275569
0.00165941
0.00659401
-0.000348131
0.00127926
0.00595745
-0.000625013
0.00103166
0.00507246
-0.000489384
0.0010867
0.00426108
-0.000632866
0.000771956
0.00408428
-0.000734415
0.000519385
0.00411146
-0.000871585
0.000529785
0.00263796
-0.000487978
0.000507257
0.00293642
-0.00053128
0.000385337
0.00308316
-0.000636186
0.00030698
0.00331659
-0.000662154
0.000397884
0.00332805
-0.000648623
0.000296802
0.00159617
-0.000381481
0.000296198
0.00215508
-0.000438112
0.000175786
0.00196622
-0.000444556
0.000249815
0.00180385
-0.000429242
0.000401459
0.00177103
-0.000348584
0.000467268
0.00223952
-0.000335137
0.000148682
0.000478939
-0.000221364
0.000134984
0.000257894
-0.000234114
9.45446e-05
-6.14981e-05
-0.000218271
0.000141538
-0.0002565
-0.000181983
0.000281768
0.000413753
-0.000180943
0.000395302
0.00151631
-0.000254684
0.000249793
0.00146498
-0.000326274
7.90025e-05
-0.00078267
-7.46952e-05
4.58053e-05
-0.00148387
-7.18302e-05
3.59083e-05
-0.00138558
-6.65991e-05
7.57645e-05
-0.00119909
-6.25075e-05
0.000145063
-0.000827606
-7.04398e-05
0.000176652
-0.000226936
-7.67247e-05
0.000113251
-0.000552496
-8.13211e-05
7.87066e-05
-0.00095373
-8.61172e-05
0.00172733
0.00725981
0.00160974
0.00183493
0.00716435
0.00127137
0.00190207
0.0070664
0.00120863
0.00159507
0.00715417
0.000748806
0.00191705
0.00691945
0.000407329
0.0014977
0.00706758
0.000338726
0.00147586
0.00734092
-0.000587312
0.00159057
0.00624053
-0.000425969
0.00113936
0.00569189
-0.000449974
0.000661027
0.00515427
-0.000530257
0.000983925
0.00454222
-0.00049033
0.00088732
0.00396518
-0.000573545
0.000574255
0.00396912
-0.000706627
0.00042862
0.0040671
-0.000811699
0.000432504
0.00377041
-0.000799494
0.000487377
0.00248299
-0.000481142
0.000367512
0.00293422
-0.000557088
0.000332652
0.00305203
-0.000657025
0.000295499
0.00333197
-0.000697242
0.000383636
0.00327811
-0.000594393
0.000512147
0.00311686
-0.000555729
0.000286006
0.00149351
-0.000367476
0.000272691
0.00207972
-0.000443828
0.00019795
0.00187788
-0.000453172
0.000297872
0.00163995
-0.000436993
0.000349036
0.00167867
-0.000404155
0.000563778
0.00207144
-0.000348976
0.000437567
0.00227849
-0.000436959
0.0001406
0.000413584
-0.000220353
0.000107929
0.000207002
-0.000232596
9.5145e-05
-0.000136274
-0.000218574
0.000158443
-0.00037069
-0.000186759
0.000280753
0.00026855
-0.00017247
0.000366831
0.00139241
-0.000247222
0.000254432
0.00140176
-0.000332648
0.000196876
0.000724319
-0.000391079
7.21451e-05
-0.000852863
-7.49032e-05
3.54713e-05
-0.00152224
-7.17993e-05
2.80791e-05
-0.00141883
-6.66641e-05
7.47078e-05
-0.00127808
-6.23165e-05
0.000140709
-0.000961022
-6.98008e-05
0.000172678
-0.000392717
-7.73373e-05
0.000118624
-0.000668216
-7.96283e-05
8.89043e-05
-0.00103854
-8.54185e-05
0.000109794
-0.00170364
-8.59968e-05
0.00161277
0.00698752
0.00202932
0.0018337
0.00730465
0.00150914
0.0018609
0.00717274
0.00156834
0.0017033
0.00726607
0.00112262
0.00189243
0.00725956
0.00110283
0.0019082
0.00673141
0.00114615
0.00165793
0.00726203
0.000637382
0.00172253
0.00711797
0.000418325
0.00154486
0.00671362
0.000355788
0.000911482
0.00598562
0.000250738
0.00150769
0.00700063
-0.000303302
0.00131343
0.00575864
-0.000531522
0.000975631
0.00512804
-0.000263498
0.000629126
0.00494801
-0.000444221
0.000371648
0.00496742
-0.000437955
0.000901873
0.00416244
-0.000558255
0.000674803
0.00376638
-0.000598821
0.000433425
0.00399922
-0.000704418
0.000364674
0.00406637
-0.000775071
0.000344904
0.00375996
-0.000762516
0.000383759
0.00418213
-0.000653078
0.000479936
0.00233552
-0.000473013
0.000403375
0.00288096
-0.000558562
0.000332459
0.00304924
-0.000688807
0.000361318
0.00332401
-0.000712512
0.000344722
0.00324589
-0.000660708
0.000559013
0.00306208
-0.000534846
0.000463043
0.00350024
-0.000614003
0.000273287
0.00139049
-0.00035447
0.00023689
0.00201787
-0.00043459
0.000152355
0.00183171
-0.000454874
0.000259011
0.00152475
-0.000438535
0.000370427
0.00156776
-0.000415758
0.000442124
0.00201676
-0.000424775
0.000461954
0.00218601
-0.000464021
0.000254588
0.00328153
-0.000607368
0.000132882
0.000351904
-0.00021979
8.11688e-05
0.000170828
-0.000229876
8.61758e-05
-0.000207889
-0.000219078
0.000173812
-0.000494792
-0.000193576
0.00028771
0.000100163
-0.000165373
0.000360509
0.00126572
-0.000233605
0.000269916
0.00133388
-0.00033063
0.000199738
0.00066676
-0.000385923
0.000255254
0.00044687
-0.000402031
6.49439e-05
-0.000916116
-7.5039e-05
2.69425e-05
-0.0015527
-7.13815e-05
1.69661e-05
-0.00144111
-6.64844e-05
7.37175e-05
-0.00135635
-6.21148e-05
0.000131809
-0.00108681
-6.83418e-05
0.000174029
-0.000559792
-7.67547e-05
0.000126037
-0.000793261
-7.8329e-05
9.52373e-05
-0.00112865
-8.47518e-05
0.000102826
-0.00180644
-8.54431e-05
0.000141676
-0.00243212
-8.51682e-05
0.00123871
0.00652555
0.00251795
0.00207788
0.00686788
0.00189244
0.00200517
0.00699244
0.00180076
0.00183697
0.00725804
0.00150863
0.00199841
0.00718945
0.00138646
0.00213007
0.00661765
0.00141636
0.00177115
0.00723951
0.00121081
0.00196408
0.00715772
0.00098292
0.00187006
0.00642038
0.00108867
0.00131623
0.00586961
0.0010002
0.00176713
0.00724374
0.000378255
0.00157402
0.00714428
0.000350484
0.00142858
0.00629925
0.000379755
0.000795374
0.00578182
0.000393335
0.00019644
0.00570305
0.000508281
0.00159613
0.00636704
-0.00028333
0.00123924
0.00523181
-0.000340918
0.000477864
0.00473896
-0.000186878
0.000500588
0.00481102
-0.00026242
0.000205807
0.00499313
-0.000330831
0.000300162
0.00486431
-0.000296608
0.000881892
0.00381387
-0.000579668
0.000487168
0.00373387
-0.000609544
0.00039206
0.00404897
-0.000708169
0.00028945
0.00419516
-0.000761338
0.000240596
0.00383357
-0.000744558
0.000389136
0.00423659
-0.000647107
0.000439248
0.00469578
-0.000639666
0.00038869
0.00227303
-0.000465909
0.000389024
0.00285099
-0.000595177
0.000252448
0.00307467
-0.00068408
0.000264692
0.00333704
-0.000707523
0.000383349
0.00318079
-0.000660331
0.000494281
0.00293276
-0.000583552
0.000465188
0.00360238
-0.000640216
0.000378144
0.00442725
-0.000774562
0.000251149
0.00129103
-0.000340595
0.000176843
0.00199804
-0.000430312
0.000178987
0.00176373
-0.000459422
0.000295251
0.00138354
-0.000435104
0.000417692
0.00141758
-0.000418335
0.000456953
0.00197039
-0.000465824
0.000456597
0.00207366
-0.00049911
0.00025539
0.00336938
-0.000607525
0.000397886
0.00316173
-0.000684641
0.00012087
0.000301989
-0.000220353
6.669e-05
0.000139559
-0.000228268
5.72285e-05
-0.000256236
-0.000221792
0.000141755
-0.00058294
-0.000198968
0.000267278
-5.70545e-05
-0.000171827
0.000367348
0.00112367
-0.000216646
0.000267033
0.00128343
-0.000324156
0.000188689
0.000627757
-0.00038508
0.000267823
0.000294795
-0.000398846
0.000297468
-0.00060362
-0.000371177
5.9871e-05
-0.000974693
-7.52011e-05
1.74471e-05
-0.00157419
-7.10029e-05
8.21509e-06
-0.00145478
-6.59308e-05
6.77505e-05
-0.00142851
-6.20747e-05
0.000121951
-0.00120374
-6.71312e-05
0.000171375
-0.000724314
-7.51949e-05
0.000133657
-0.000926169
-7.7504e-05
9.69832e-05
-0.00122004
-8.39247e-05
9.14496e-05
-0.00189784
-8.48094e-05
0.000132744
-0.00256588
-8.44287e-05
0.000131929
-0.00270933
-8.85977e-05
0.00125714
0.00612905
0.00300479
0.00185931
0.006804
0.00232393
0.00205787
0.00658641
0.00235096
0.00183874
0.0069244
0.0018914
0.00221069
0.00691631
0.0017563
0.00217312
0.00663305
0.00171876
0.00184755
0.00734549
0.00145202
0.00222881
0.00703365
0.0013997
0.00206872
0.00645063
0.00135481
0.00161961
0.00599371
0.00113462
0.00181556
0.00728316
0.00100986
0.00200947
0.00692978
0.00100329
0.00163718
0.00616549
0.0010292
0.000876915
0.00587119
0.00100556
0.000404427
0.0057083
0.000685171
0.00177223
0.00712424
0.000320247
0.00152477
0.00692635
0.000310655
0.000787744
0.0060763
0.000263551
0.000458135
0.00565669
0.000547345
8.48355e-05
0.00584208
0.000375276
0.000302278
0.00560627
0.000440324
0.00146076
0.00560401
-7.06982e-05
0.000775147
0.00486026
-0.000199753
0.000271553
0.00472705
-0.000208503
4.39288e-05
0.00496777
-9.81109e-05
8.4272e-05
0.00504582
-0.000158787
0.000216567
0.00488633
-0.000180277
0.000424601
0.00558632
-0.000406804
0.000517059
0.00370131
-0.000545832
0.000325471
0.00381518
-0.000597425
0.000369298
0.00403428
-0.0007117
0.000272575
0.00421132
-0.000732216
0.000334723
0.00384482
-0.000723962
0.000382025
0.00425063
-0.000646341
0.000421202
0.0047456
-0.000652932
0.000543215
0.00456625
-0.000801692
0.000262703
0.00233697
-0.00044755
0.000338275
0.0027916
-0.000567959
0.000272912
0.00309365
-0.000708081
0.000303457
0.00337654
-0.000731785
0.000401298
0.00312595
-0.000636291
0.000483344
0.00284234
-0.000596296
0.000425776
0.00369187
-0.000642224
0.000403902
0.0044134
-0.000774883
0.000582431
0.00350064
-0.000885507
0.000189947
0.00123644
-0.000336221
0.000166086
0.0019742
-0.000416151
0.000153839
0.00170764
-0.000470829
0.000220695
0.00129698
-0.000451808
0.000358821
0.00129574
-0.000404807
0.000459028
0.00193365
-0.000473283
0.000391092
0.00202068
-0.0005369
0.000238234
0.00341898
-0.000598247
0.000434344
0.00306774
-0.000680055
0.000554
0.00187212
-0.000674888
0.000110807
0.000266108
-0.000218043
5.49966e-05
0.000108882
-0.000227225
5.49834e-05
-0.000306484
-0.000224788
0.000113941
-0.000647183
-0.00020374
0.000215726
-0.000168748
-0.000181049
0.000372973
0.000965934
-0.000215688
0.000287195
0.00123048
-0.000317235
0.000175347
0.000615785
-0.000390547
0.000255083
0.000141678
-0.000395595
0.00029611
-0.000796173
-0.000369659
0.00034923
-0.000950808
-0.000332331
5.3749e-05
-0.00102748
-7.52716e-05
9.64007e-06
-0.00158833
-7.07026e-05
7.55386e-06
-0.0014671
-6.62353e-05
6.03102e-05
-0.00149234
-6.24085e-05
0.000114624
-0.00131414
-6.62984e-05
0.000163222
-0.000880513
-7.41543e-05
0.000137084
-0.00106119
-7.72586e-05
9.80443e-05
-0.00131202
-8.35639e-05
8.26984e-05
-0.00198041
-8.40444e-05
0.000126682
-0.00269346
-8.39047e-05
0.000124116
-0.00283038
-8.74929e-05
0.000129218
-0.00228838
-8.50776e-05
0.000838267
0.00584278
0.00359607
0.00164767
0.0056063
0.00337996
0.00149495
0.00643454
0.00297834
0.00204243
0.00625486
0.00290855
0.00186278
0.00680001
0.00241498
0.00225094
0.00667182
0.00219827
0.00206754
0.00653343
0.00228007
0.00185036
0.00717522
0.001834
0.00223557
0.00712159
0.00167934
0.00226524
0.00643547
0.00175736
0.00200302
0.00582441
0.0014646
0.00181879
0.00754676
0.00137739
0.00223598
0.00699729
0.00126188
0.00186557
0.0062164
0.00140553
0.00123875
0.00595366
0.00103302
0.000889609
0.00560182
0.000674849
0.00182651
0.00722774
0.00107898
0.00182119
0.00665659
0.00098663
0.00110262
0.00601996
0.000833947
0.00051489
0.00610211
0.000741526
0.00026665
0.00600772
0.00052433
0.000389744
0.00623867
0.000449685
0.00161513
0.00702619
0.000251109
0.00110389
0.00661225
0.000305602
0.000371236
0.00592058
0.000366694
-6.4853e-05
0.00563222
0.0003968
3.77493e-05
0.00605789
0.000378054
0.000190054
0.00582447
0.000183598
0.000589337
0.00626973
-6.8043e-05
0.00095611
0.00504481
-0.00016196
0.000299856
0.0048983
-8.31252e-05
5.69527e-05
0.00498321
-0.000143568
-2.76048e-05
0.00513864
-7.91913e-05
0.000129029
0.00518493
-3.15211e-05
0.000230865
0.00504655
-0.000167844
0.000485667
0.0056709
-0.000329324
0.00076651
0.00522009
-0.000598976
9.31212e-05
0.00383959
-0.000434597
0.000322638
0.00381418
-0.000529193
0.000282484
0.00412273
-0.00069545
0.000251544
0.00426869
-0.000717159
0.000157133
0.00406458
-0.000707812
0.000376338
0.00427591
-0.000642236
0.000497324
0.00469081
-0.000663103
0.000589804
0.00455755
-0.000830132
0.00077657
0.00417997
-0.000977577
0.000145572
0.0024811
-0.000416126
0.000238175
0.00284056
-0.000568592
0.000160324
0.00319779
-0.000678591
0.000319347
0.00329445
-0.000724638
0.000335447
0.00312477
-0.000707226
0.000505564
0.00275747
-0.000597961
0.000428822
0.00371659
-0.000658751
0.000442799
0.00433959
-0.000772976
0.000590416
0.00346844
-0.000898751
0.000709118
0.00296928
-0.000927812
0.000153334
0.00121359
-0.000345101
0.000171765
0.00194104
-0.000419833
0.000182309
0.0016403
-0.000476137
0.000143803
0.00126546
-0.000469165
0.000298808
0.00116551
-0.000404655
0.000485965
0.00186824
-0.000452389
0.000371432
0.0020145
-0.000551344
0.000258277
0.00338989
-0.000590747
0.000465682
0.00293883
-0.000679936
0.000580802
0.00159071
-0.00068334
0.000604684
0.000325487
-0.000630388
8.74693e-05
0.000257004
-0.000216935
5.36563e-05
7.34858e-05
-0.000226663
4.61136e-05
-0.000346523
-0.000225747
9.22163e-05
-0.000690411
-0.000213467
0.00018258
-0.000251096
-0.000189348
0.000375947
0.000793415
-0.000221254
0.000305974
0.00116099
-0.000315089
0.000177447
0.000614958
-0.000395811
0.000239924
-1.18222e-05
-0.000394273
0.000295376
-0.000997867
-0.000362595
0.000310903
-0.00117433
-0.000332928
0.000364377
-0.000839679
-0.000287378
5.37216e-05
-0.00108005
-7.57678e-05
-2.00596e-06
-0.00159064
-7.09471e-05
-2.53269e-07
-0.00147167
-6.58735e-05
5.29603e-05
-0.00154869
-6.285e-05
0.000101221
-0.00141166
-6.61095e-05
0.000149688
-0.00102289
-7.36079e-05
0.000139259
-0.00119721
-7.73957e-05
9.55099e-05
-0.00140112
-8.36715e-05
7.04315e-05
-0.00205087
-8.35435e-05
0.00011783
-0.00281214
-8.31954e-05
0.000118322
-0.00294618
-8.64284e-05
0.000117569
-0.00240927
-8.41666e-05
0.000134335
-0.00254675
-7.63248e-05
0.0011166
0.00544453
0.00366476
0.00180913
0.00589451
0.00334483
0.00159236
0.00581462
0.00367797
0.00113148
0.00592996
0.00348501
0.00207967
0.0059555
0.00333883
0.00195558
0.00645003
0.00294521
0.00219862
0.00635971
0.00292581
0.00228081
0.00606127
0.0029639
0.00195619
0.00680896
0.00244594
0.00220193
0.006796
0.00232444
0.00198794
0.00656539
0.00244361
0.00198649
0.00614007
0.0021329
0.00214518
0.00703781
0.00188759
0.00227105
0.00711874
0.00180179
0.0020848
0.00635109
0.0015445
0.00142612
0.00595319
0.00144122
0.00150874
0.0056476
0.000912465
0.00216625
0.00725933
0.00135376
0.00219343
0.00670869
0.00129376
0.00144741
0.00608191
0.00105158
0.00101827
0.00597189
0.00088392
0.000788252
0.00577938
0.000333864
0.000895537
0.00584824
0.000235033
0.00190209
0.00683392
0.00119536
0.00148694
0.0064028
0.000949724
0.000673377
0.00608556
0.000618889
0.000294172
0.00610249
0.000474544
0.000257553
0.00629586
0.000233581
0.000476872
0.00623512
0.00024107
0.000785885
0.00631229
0.000236134
0.00139753
0.00658805
0.000268507
0.000632033
0.0062582
0.000272988
2.65848e-05
0.00605964
0.000196909
-0.000169243
0.00586373
0.000276818
-1.73667e-05
0.00629795
0.000303134
0.000308654
0.00603908
8.56514e-05
0.000786018
0.00618365
-3.06749e-05
0.00119134
0.00612927
-0.000589986
0.000405117
0.00489792
-5.33411e-05
7.48689e-05
0.0049943
-1.0189e-05
-9.49499e-05
0.00532101
-4.34911e-05
-7.48886e-05
0.00536668
-4.51705e-05
-4.70172e-06
0.00527915
-1.15844e-05
0.000287052
0.00534399
-0.000239681
0.000697943
0.0056429
-0.000340465
0.000868733
0.00524648
-0.000634648
0.00111101
0.00457922
-0.000852295
-2.70423e-05
0.00406693
-0.000401583
0.000103854
0.00397511
-0.000461201
2.6923e-05
0.00429761
-0.000570674
0.000216733
0.0043772
-0.000701337
0.00011975
0.00425032
-0.000687204
0.000458605
0.00430589
-0.000690835
0.000523328
0.00462404
-0.000669968
0.000645424
0.00456243
-0.000870604
0.00081982
0.00413484
-0.00101441
0.000911463
0.0035179
-0.00114867
6.13777e-05
0.00264538
-0.000359635
0.000246442
0.00290495
-0.000555193
0.000181887
0.00329719
-0.00066757
0.000220998
0.00325774
-0.000719079
0.000341965
0.00309116
-0.000734185
0.000531051
0.00267621
-0.000671054
0.000453151
0.00373137
-0.000694455
0.000514073
0.00420545
-0.000780411
0.000586547
0.00347639
-0.000901798
0.000743018
0.00284319
-0.000934872
0.000850056
0.00167104
-0.0008688
9.33439e-05
0.00123598
-0.00035971
0.000141675
0.0019368
-0.000428882
0.000162348
0.00158467
-0.000480437
9.66819e-05
0.0012582
-0.000473342
0.00026416
0.00101461
-0.000399853
0.000511562
0.00177025
-0.000442276
0.000354634
0.00206477
-0.000551318
0.000323512
0.00328171
-0.000589221
0.000490204
0.00278135
-0.000683544
0.000576681
0.00130849
-0.000679015
0.000536814
5.82025e-05
-0.000641966
0.000618081
-4.54148e-07
-0.000558839
8.09142e-05
0.000265388
-0.000217003
5.29816e-05
2.844e-05
-0.000226877
2.81353e-05
-0.000374742
-0.000226833
7.99275e-05
-0.000723906
-0.000219218
0.000158916
-0.000325191
-0.000197066
0.000368598
0.00062002
-0.000234863
0.000321915
0.00107154
-0.000314458
0.0001858
0.000599735
-0.000390155
0.00021828
-0.000160448
-0.000395034
0.000284416
-0.0012029
-0.000355827
0.000300055
-0.00138648
-0.000332179
0.000333155
-0.00109841
-0.000289781
0.000333386
-0.00166294
-0.000259271
5.41488e-05
-0.00113277
-7.61518e-05
-1.49172e-05
-0.00158089
-7.0601e-05
-5.90964e-06
-0.00147113
-6.55842e-05
4.47441e-05
-0.00159661
-6.26916e-05
9.01321e-05
-0.00149852
-6.61218e-05
0.000136027
-0.00115176
-7.32724e-05
0.000136374
-0.00132965
-7.75375e-05
9.22015e-05
-0.00148666
-8.40607e-05
6.46737e-05
-0.00211609
-8.31165e-05
0.000103933
-0.00291745
-8.21644e-05
0.000113077
-0.00305686
-8.55864e-05
0.000102232
-0.00251454
-8.33931e-05
0.0001215
-0.00267681
-7.56039e-05
0.000157529
-0.00221206
-6.65579e-05
0.000545739
0.00455746
0.00411944
0.000952525
0.00516025
0.00393758
0.00154294
0.00567267
0.00376404
0.00126276
0.00540604
0.0038816
0.00123683
0.00591766
0.00358724
0.00185998
0.00596524
0.00341389
0.00131571
0.0059819
0.0036826
0.00184953
0.00608268
0.0034521
0.00182466
0.00635467
0.0034598
0.00223868
0.00600318
0.00342428
0.0016845
0.00672373
0.00292342
0.00215266
0.00645774
0.00289646
0.00172566
0.00621715
0.00303221
0.00189643
0.00597786
0.00301942
0.0023305
0.00676815
0.0023902
0.00230093
0.00676138
0.00245067
0.00216866
0.00644841
0.00235755
0.00189872
0.00595772
0.00215336
0.00178294
0.00599716
0.00160489
0.0022846
0.00717315
0.00189133
0.00252874
0.00673525
0.00193576
0.00172777
0.00610039
0.00177212
0.00130813
0.00611691
0.00109091
0.00142526
0.00602778
0.000424028
0.0015245
0.00580507
0.000354098
0.00227354
0.00683435
0.00146944
0.00189989
0.00627296
0.00137653
0.00109455
0.0060388
0.00091569
0.000891722
0.00591846
0.00050746
0.00087344
0.0059811
6.63049e-05
0.000963419
0.00582287
-0.000127317
0.00123348
0.00592391
6.39311e-05
0.00156128
0.00655542
0.00113039
0.00113423
0.00618996
0.000906009
0.000428479
0.00618734
0.000446047
0.0003125
0.00614109
9.85439e-05
0.00043455
0.00620694
0.000111541
0.000601769
0.00612335
5.22355e-05
0.0011247
0.00612436
9.03226e-05
0.00180223
0.00613333
-0.000177557
0.000966805
0.00605788
0.00042793
0.000240954
0.00611865
0.000241971
-0.000105099
0.0063073
3.54711e-05
-9.79477e-05
0.00610592
-2.22222e-05
0.000145518
0.00621794
0.000206612
0.000436343
0.00617594
1.69815e-05
0.00105327
0.00609146
-0.000177484
0.00141412
0.00603214
-0.000478932
0.0016836
0.00461339
-0.00108911
-1.44561e-05
0.00501153
-0.000149929
-5.89289e-05
0.00523353
-0.000129795
-0.00025793
0.00554926
4.64111e-05
-0.000102255
0.00563228
9.8973e-06
-3.95662e-06
0.00547562
-0.000117931
0.000446137
0.00548959
-0.000144718
0.000773671
0.00562645
-0.000473573
0.000947924
0.00526459
-0.000661068
0.00119657
0.00444925
-0.000881433
0.0012597
0.00353266
-0.00117291
-9.94208e-05
0.004313
-0.000370736
6.48475e-05
0.00415152
-0.000396397
-4.17422e-05
0.00453028
-0.000470243
7.20639e-05
0.00459533
-0.000639876
0.000160546
0.0044006
-0.000670196
0.000572434
0.00431229
-0.000734986
0.000725097
0.00440339
-0.000742139
0.000780669
0.00450374
-0.000877879
0.000820432
0.00408128
-0.00105092
0.000993523
0.00341179
-0.0011588
0.00108398
0.00221174
-0.00111032
-1.09848e-05
0.00287016
-0.000378643
0.000165769
0.00302874
-0.000507522
0.00017732
0.00338528
-0.000658248
8.98437e-05
0.00332343
-0.000726417
0.000362737
0.00304289
-0.000769387
0.000558262
0.00264205
-0.000746719
0.000471915
0.0036755
-0.000732461
0.000563623
0.00405182
-0.000780936
0.000666501
0.00342965
-0.000909968
0.000764701
0.00268747
-0.000934094
0.000872893
0.00127044
-0.000870344
0.000928908
0.000874832
-0.00085983
7.11846e-05
0.00128294
-0.00038452
0.000208206
0.0018561
-0.000434229
0.00013768
0.0015237
-0.000477459
0.000110978
0.00120833
-0.000461621
0.000253139
0.000854023
-0.000406975
0.000537575
0.00162955
-0.000428128
0.000359723
0.00214247
-0.000557787
0.000388282
0.00311323
-0.000585322
0.000541249
0.00255532
-0.000686167
0.000548076
0.00102485
-0.000663569
0.000529012
-0.000226043
-0.000623728
0.000596137
-0.00033694
-0.000568463
0.000557332
-0.000596399
-0.000492824
7.87667e-05
0.000285023
-0.000218406
5.36241e-06
1.99338e-05
-0.000228777
1.37382e-06
-0.000380923
-0.000227979
6.582e-05
-0.000749271
-0.000222543
0.000136536
-0.000389361
-0.000201452
0.000337668
0.000464964
-0.000243651
0.000328351
0.000964098
-0.000319396
0.00019816
0.000558778
-0.00037946
0.000232544
-0.000336044
-0.000382429
0.000242994
-0.00138668
-0.000350315
0.000309902
-0.00161059
-0.000328532
0.000303378
-0.00134124
-0.000290491
0.000285366
-0.00185625
-0.000260334
0.000354618
-0.00195437
-0.000224691
4.83647e-05
-0.00117972
-7.61815e-05
-2.292e-05
-0.00156354
-7.05863e-05
-9.68748e-06
-0.00146668
-6.53604e-05
3.26278e-05
-0.00163217
-6.26558e-05
8.40982e-05
-0.00157922
-6.60912e-05
0.000127916
-0.00127285
-7.29488e-05
0.000130673
-0.00145617
-7.74278e-05
8.96799e-05
-0.00156966
-8.42156e-05
5.96986e-05
-0.00217723
-8.26199e-05
9.30523e-05
-0.00301224
-8.13791e-05
0.000107595
-0.00316168
-8.49464e-05
8.76032e-05
-0.00260468
-8.30457e-05
0.000110636
-0.0027955
-7.53416e-05
0.000146028
-0.00236736
-6.63362e-05
0.000140432
-0.00233573
-5.9816e-05
0.000331244
0.00402555
0.00456255
0.000408944
0.00490886
0.00417376
0.000356259
0.00487417
0.00439919
0.00150689
0.00515554
0.00395437
0.0010681
0.00517702
0.00409172
0.00147249
0.00543887
0.00388203
0.00107591
0.00595329
0.00400087
0.00103354
0.00585851
0.00409766
0.00192279
0.00585729
0.00369619
0.00147331
0.00621712
0.00368671
0.00150315
0.00627044
0.00386087
0.0015081
0.00564943
0.00392738
0.00146542
0.00628359
0.00342859
0.00196254
0.0065869
0.00340999
0.00137246
0.00627238
0.0035438
0.00205232
0.00579916
0.00370649
0.00233166
0.00677665
0.00292982
0.00211894
0.00657814
0.00298501
0.00180812
0.00638296
0.00309118
0.00243584
0.00569013
0.00278282
0.00183961
0.0057245
0.00273899
0.00205267
0.00706425
0.0025035
0.00252429
0.00658725
0.00256878
0.0020972
0.00604889
0.00248077
0.00198823
0.00562195
0.00201322
0.00213977
0.00620531
0.0012307
0.00182911
0.00608266
0.00117011
0.00213095
0.00729307
0.00187161
0.00206484
0.00665044
0.00181118
0.00126483
0.00616459
0.00170128
0.00118382
0.0065828
0.00101414
0.00143297
0.00633701
0.000222153
0.00144375
0.00589517
-0.000146406
0.00156268
0.005896
9.39213e-05
0.00170358
0.00675664
0.00147338
0.00144837
0.00615491
0.00127335
0.00109496
0.00602082
0.000728035
0.000926519
0.0061327
8.74336e-05
0.000965885
0.00620461
-0.000247376
0.00115812
0.00565296
-0.00032014
0.00165286
0.00542076
-0.000152328
0.00211181
0.00565933
0.000127885
0.00124641
0.00648015
0.000896004
0.00072111
0.00608472
0.000755479
0.000381838
0.00644287
0.000163542
0.000483303
0.0061431
-0.000137214
0.000510407
0.00595851
-1.79094e-05
0.000820885
0.00582502
2.53233e-05
0.00150203
0.00580325
-7.54246e-05
0.0020843
0.00590444
-0.000350967
0.002388
0.00509189
-0.000627559
0.000484088
0.00574505
0.000284009
2.65856e-05
0.00621858
0.000242487
-0.000143824
0.00651632
-8.11531e-05
3.15776e-05
0.00621377
-0.000206204
0.000211849
0.00610697
-0.000127059
0.000609041
0.00625716
-3.75167e-05
0.0012379
0.00590709
-0.000262872
0.0015551
0.00582587
-0.000578388
0.00173854
0.00466052
-0.00106803
0.00178783
0.0030776
-0.00143639
-0.000329686
0.00532909
9.58991e-05
-0.000173949
0.00545934
-0.000136939
-0.000317996
0.00577937
-8.36523e-05
-0.00014364
0.00591795
-2.35545e-05
0.000174522
0.00562102
-0.00014948
0.000738682
0.00554362
-0.000338203
0.00106036
0.005625
-0.000478527
0.00107768
0.00519121
-0.000697208
0.00128849
0.00430046
-0.000980334
0.00138291
0.00341612
-0.00115428
0.00127179
0.00255272
-0.00136593
-0.000125372
0.00449043
-0.000347619
-8.74808e-06
0.0043068
-0.000351501
-1.84159e-05
0.00477352
-0.000443896
-4.47774e-05
0.00482299
-0.000563278
0.000257398
0.00453232
-0.000666255
0.000682279
0.00428448
-0.000766404
0.000752504
0.00421955
-0.000831737
0.000811398
0.00443929
-0.000925459
0.000938306
0.00400405
-0.00107245
0.0010341
0.00324754
-0.00115607
0.00114836
0.0018934
-0.00111593
0.0010824
0.00112577
-0.00112776
-2.92802e-05
0.00301123
-0.000346022
0.00011045
0.00324883
-0.000500975
0.000128484
0.0035227
-0.00063575
0.000141104
0.00337427
-0.000739217
0.000434079
0.00290067
-0.000765137
0.000561587
0.00262288
-0.00077423
0.000497726
0.00355592
-0.000765152
0.000588362
0.00390918
-0.000789898
0.000707813
0.00339242
-0.000910269
0.000749934
0.00250605
-0.000930409
0.000894849
0.000838813
-0.000868308
0.000931054
0.000519241
-0.00084967
0.000766738
0.000283375
-0.000828558
0.000102547
0.00129583
-0.000396224
0.000116315
0.00180104
-0.000440414
0.000108643
0.0014541
-0.00047189
0.000142329
0.00110125
-0.000446883
0.000243471
0.000696472
-0.000411005
0.000556076
0.00142763
-0.000423467
0.000407239
0.00219631
-0.00056085
0.000447892
0.00289935
-0.000593642
0.000606998
0.00227301
-0.000677461
0.000492587
0.000754144
-0.00066505
0.000529154
-0.000512187
-0.000596676
0.000561478
-0.00067015
-0.000548618
0.000493754
-0.000869353
-0.000503897
0.000544186
-0.00113348
-0.000463189
7.26249e-05
0.000308556
-0.000219182
-1.09344e-05
2.15812e-05
-0.000232039
-7.49434e-06
-0.000383169
-0.000228724
1.50533e-05
-0.000736326
-0.00022335
0.000122314
-0.000442889
-0.000207231
0.000326118
0.000309643
-0.000244333
0.000343122
0.000832323
-0.000324325
0.000205276
0.000490742
-0.000366956
0.000240975
-0.000530845
-0.000365936
0.000213083
-0.00154381
-0.000345328
0.000303978
-0.00183538
-0.000321911
0.000272624
-0.00156611
-0.000288691
0.00026821
-0.0020458
-0.000258512
0.00031921
-0.00216215
-0.00022573
0.000294332
-0.00168547
-0.000200374
4.55162e-05
-0.00122383
-7.6158e-05
-2.81809e-05
-0.0015406
-7.09365e-05
-1.87372e-05
-0.00145279
-6.57381e-05
2.08211e-05
-0.00165555
-6.27983e-05
8.181e-05
-0.00165751
-6.61764e-05
0.000123477
-0.00138983
-7.25833e-05
0.000125321
-0.00157731
-7.71288e-05
8.79624e-05
-0.00165129
-8.376e-05
5.21005e-05
-0.00223077
-8.27806e-05
8.44518e-05
-0.00309782
-8.14954e-05
9.40951e-05
-0.00325296
-8.41921e-05
7.52826e-05
-0.00268258
-8.2333e-05
9.76095e-05
-0.00290111
-7.50432e-05
0.000135029
-0.00251166