/*--------------------------------*- C++ -*----------------------------------*\
  =========                 |
  \\      /  F ield         | OpenFOAM: The Open Source CFD Toolbox
   \\    /   O peration     | Website:  https://openfoam.org
    \\  /    A nd           | Version:  7
     \\/     M anipulation  |
\*---------------------------------------------------------------------------*/
FoamFile
{
    version     2.0;
    format      ascii;
    class       surfaceScalarField;
    location    "7";
    object      phi_0;
}
// * * * * * * * * * * * * * * * * * * * * * * * * * * * * * * * * * * * * * //

dimensions      [0 3 -1 0 0 0 0];

internalField   nonuniform List<scalar> 
53739
(
9.05425e-05
-0.000185027
-7.56002e-05
0.000201686
0.00103841
-0.000235308
8.80651e-05
-0.000270288
-7.49154e-05
9.31032e-05
-0.00104981
-7.04544e-05
0.000360719
0.0021936
-0.000309306
0.000196632
0.00093331
-0.000225075
0.000225221
0.00073522
-0.000233007
9.01385e-05
-0.000357509
-7.46049e-05
9.10431e-05
-0.00114516
-7.06079e-05
7.59529e-05
-0.00111692
-6.65368e-05
0.000700862
0.00387101
-0.000554299
0.000408858
0.00200081
-0.000334259
0.000363385
0.00245444
-0.000376787
0.000203282
0.000825911
-0.000214417
0.000228148
0.000603125
-0.000230086
0.000131353
0.000185906
-0.000212836
9.25465e-05
-0.000447406
-7.43297e-05
8.48624e-05
-0.00123378
-7.0853e-05
6.82717e-05
-0.00118935
-6.64478e-05
9.69592e-05
-0.000865046
-6.30548e-05
0.00104297
0.0059992
-0.000745337
0.000751585
0.00338923
-0.000577541
0.000679657
0.00360735
-0.000464266
0.000398391
0.0018276
-0.000375911
0.000322375
0.00240753
-0.000381573
0.000243583
0.0021836
-0.000443068
0.000207042
0.000716242
-0.000212486
0.00021072
0.000492602
-0.000229752
0.000117271
0.000119994
-0.000213173
0.000165193
-1.20388e-06
-0.000186806
9.24261e-05
-0.000537459
-7.43482e-05
7.58244e-05
-0.00131288
-7.10521e-05
5.96422e-05
-0.00125342
-6.64262e-05
8.99646e-05
-0.000958279
-6.31798e-05
0.000161608
-0.000414917
-6.54974e-05
0.00118205
0.00708021
0.000131444
0.0010734
0.00593109
-0.000672356
0.00111131
0.00522751
-0.000777783
0.000670784
0.0030176
-0.000517352
0.000570392
0.00329641
-0.000514615
0.000502043
0.00323393
-0.000618302
0.000302696
0.00176216
-0.000393867
0.000305719
0.00233481
-0.000398194
0.000249383
0.00210756
-0.000437644
0.000251034
0.00203557
-0.000424373
0.000190233
0.00062129
-0.000216206
0.000185079
0.00040309
-0.000232228
0.000106274
5.83911e-05
-0.000214781
0.000142557
-8.42546e-05
-0.000182715
0.000333304
0.000682895
-0.000198558
9.10059e-05
-0.000626249
-7.44739e-05
6.68629e-05
-0.00138289
-7.12046e-05
5.03064e-05
-0.00130827
-6.65089e-05
8.40665e-05
-0.0010458
-6.29737e-05
0.000152885
-0.000563184
-6.77983e-05
0.000180192
0.000107627
-7.533e-05
0.00145098
0.00720811
0.0007528
0.00132988
0.00718562
-3.68866e-05
0.00157311
0.00686317
-0.000335191
0.00103767
0.00565105
-0.000611948
0.00106238
0.00478586
-0.000722696
0.000924101
0.00437113
-0.000762402
0.000515364
0.00282322
-0.00050182
0.000533348
0.00307774
-0.000526315
0.000462071
0.00312504
-0.000618411
0.000320214
0.00333358
-0.000655058
0.00030869
0.00167974
-0.000389669
0.000324632
0.00222686
-0.00042547
0.000223869
0.0020269
-0.000435125
0.000239998
0.0019236
-0.000423118
0.000423439
0.00192922
-0.000344968
0.00016795
0.000543834
-0.000219015
0.000168017
0.000319659
-0.000233929
9.24244e-05
1.04047e-06
-0.000216995
0.000134727
-0.000168889
-0.000180808
0.000308095
0.000536476
-0.000191506
0.000338787
0.00166115
-0.000247512
8.51036e-05
-0.000709076
-7.46772e-05
5.60104e-05
-0.00144191
-7.14618e-05
4.37495e-05
-0.00135662
-6.66031e-05
7.88208e-05
-0.00112845
-6.26792e-05
0.00014709
-0.000703714
-6.95335e-05
0.000179155
-6.32045e-05
-7.61224e-05
0.000114399
-0.000446279
-8.33295e-05
0.00168644
0.00729301
0.00126591
0.00167098
0.00710526
0.000672674
0.00185556
0.00691492
0.00051496
0.00139938
0.00726092
-0.000287912
0.0016613
0.00657354
-0.000346175
0.00126934
0.00595761
-0.000608602
0.00103503
0.00505574
-0.000483819
0.00108927
0.0042437
-0.000625704
0.000761776
0.00407834
-0.000729603
0.000513574
0.00411282
-0.000867213
0.000527971
0.00263296
-0.000486545
0.00050136
0.00292927
-0.00053007
0.00038096
0.00307687
-0.000635237
0.000305995
0.00331184
-0.000662665
0.000396287
0.00332852
-0.000649672
0.000296371
0.00158871
-0.000380214
0.000295876
0.00214729
-0.000437952
0.000176446
0.00196217
-0.000444765
0.000250454
0.00180222
-0.000429471
0.00039735
0.00176781
-0.000350966
0.000469756
0.00223052
-0.000334802
0.000148457
0.00047847
-0.000221405
0.00013442
0.000256308
-0.000234073
9.48488e-05
-6.57459e-05
-0.000218242
0.000141062
-0.00026615
-0.000181975
0.000280252
0.000402549
-0.000180042
0.000395303
0.00150708
-0.000253584
0.000251759
0.00146804
-0.000325304
7.88598e-05
-0.000785807
-7.46914e-05
4.58152e-05
-0.00149059
-7.18142e-05
3.57364e-05
-0.00139723
-6.65877e-05
7.51983e-05
-0.00120781
-6.24418e-05
0.0001444
-0.000840494
-7.03003e-05
0.000176489
-0.000232446
-7.67807e-05
0.000113306
-0.000554139
-8.15682e-05
7.8142e-05
-0.000954885
-8.63429e-05
0.00173193
0.00725991
0.00160697
0.00183025
0.00717046
0.0012687
0.0019006
0.00707295
0.00120686
0.00159906
0.00715492
0.000748592
0.00191249
0.00692595
0.000410465
0.00149671
0.00705586
0.000347807
0.001482
0.00733632
-0.000576916
0.00158266
0.00621755
-0.000425322
0.00113143
0.00567287
-0.000431086
0.000654815
0.00514862
-0.000520463
0.000981068
0.00453031
-0.00049061
0.000873564
0.00395842
-0.000570739
0.000565384
0.00397061
-0.000702401
0.00042423
0.0040712
-0.000806216
0.000426386
0.00376837
-0.000797048
0.000487736
0.00247736
-0.000479929
0.000365856
0.00292889
-0.000556148
0.000333667
0.00304637
-0.000656791
0.000296967
0.00332793
-0.000697845
0.000379525
0.00327795
-0.000594266
0.000512408
0.00311753
-0.000557454
0.000285438
0.00148591
-0.000366218
0.000271391
0.00207331
-0.000443211
0.000198815
0.00187366
-0.000453404
0.000294902
0.00164099
-0.000437377
0.000347614
0.0016755
-0.000404526
0.000561163
0.0020649
-0.000351215
0.000438449
0.0022715
-0.00043648
0.000140862
0.00041283
-0.000220312
0.000107202
0.000206035
-0.000232519
9.49686e-05
-0.000140508
-0.000218543
0.000158093
-0.000380452
-0.000186834
0.000279813
0.000256897
-0.000171736
0.000366499
0.00138268
-0.000245653
0.000256279
0.00140332
-0.000331834
0.000194324
0.000733558
-0.000390792
7.20437e-05
-0.000855801
-7.4897e-05
3.55418e-05
-0.00152897
-7.18537e-05
2.7932e-05
-0.00143033
-6.66524e-05
7.40754e-05
-0.0012862
-6.22755e-05
0.000140179
-0.00097343
-6.96849e-05
0.000172489
-0.00039786
-7.7375e-05
0.000119278
-0.000670318
-7.98796e-05
8.80617e-05
-0.00103883
-8.56847e-05
0.00010969
-0.00169456
-8.62258e-05
0.0016191
0.00699162
0.00202554
0.00183264
0.00730313
0.0015088
0.00186224
0.00717727
0.00155977
0.00171066
0.00727172
0.00111946
0.00189042
0.00726549
0.00109823
0.00191551
0.00670809
0.00114582
0.00166171
0.00726689
0.000624292
0.00170938
0.00712773
0.000420092
0.00154395
0.00669122
0.000362587
0.000902383
0.00597463
0.000264951
0.00151086
0.00697462
-0.000283337
0.00130114
0.00573736
-0.000524295
0.000960095
0.00510412
-0.000251284
0.000626835
0.00494682
-0.000431886
0.000362165
0.00497121
-0.000429639
0.00090536
0.00415339
-0.000558877
0.000666473
0.00376404
-0.00059685
0.000427419
0.00400623
-0.000700113
0.000361966
0.0040748
-0.000771004
0.000338149
0.00376273
-0.00075919
0.000384588
0.00418157
-0.000652078
0.000478599
0.00233062
-0.0004713
0.000403023
0.0028746
-0.000557275
0.000331994
0.00304515
-0.000688112
0.000356633
0.00332231
-0.000712899
0.000343186
0.00324719
-0.000662659
0.000557451
0.00306126
-0.000534284
0.000461642
0.00349919
-0.000613552
0.000272446
0.00138329
-0.000353246
0.000234929
0.00201297
-0.0004336
0.000150073
0.00183025
-0.000454912
0.000260131
0.00152421
-0.000438664
0.000371032
0.00156277
-0.000415867
0.000439931
0.00201352
-0.000426573
0.000463255
0.00217728
-0.000463972
0.000250285
0.00328386
-0.000605929
0.000133121
0.000351041
-0.000219753
8.08396e-05
0.000170161
-0.000229736
8.55896e-05
-0.000211678
-0.000219006
0.000172782
-0.00050406
-0.000193642
0.000286874
8.83729e-05
-0.000165006
0.000359774
0.00125529
-0.000231634
0.000271196
0.00133517
-0.000329421
0.000197718
0.000677547
-0.000385479
0.00025539
0.000459021
-0.000402418
6.48892e-05
-0.000918895
-7.50383e-05
2.6928e-05
-0.00155934
-7.1446e-05
1.66175e-05
-0.00145229
-6.65062e-05
7.31597e-05
-0.00136392
-6.2084e-05
0.00013119
-0.00109863
-6.82683e-05
0.000174006
-0.000564754
-7.67963e-05
0.000126989
-0.000796114
-7.85677e-05
9.41377e-05
-0.00112782
-8.50284e-05
0.000102391
-0.00179695
-8.56913e-05
0.000141654
-0.00242803
-8.54114e-05
0.00124881
0.00653561
0.00251309
0.0020797
0.00686414
0.0018907
0.00201434
0.00698767
0.00179451
0.00184503
0.0072573
0.00150504
0.00200933
0.00718224
0.00138492
0.00212878
0.00660693
0.00141147
0.00177323
0.00724082
0.00121037
0.00196836
0.00714446
0.00098151
0.00186115
0.00640222
0.0010869
0.00129816
0.00585876
0.00100073
0.00177024
0.00723725
0.000372373
0.00156824
0.00713384
0.000351078
0.0014108
0.00627581
0.000384801
0.000783408
0.00577369
0.000406953
0.000191977
0.00570617
0.000513196
0.00159928
0.00632677
-0.000272608
0.00122604
0.00521806
-0.000323609
0.000450532
0.00474058
-0.00018387
0.000486806
0.00482113
-0.000250435
0.000196537
0.00499938
-0.000318441
0.000295272
0.00486825
-0.000287762
0.000876262
0.00380806
-0.000577154
0.000474001
0.00374112
-0.000606938
0.000392302
0.00405398
-0.000704909
0.000287962
0.00419985
-0.000756494
0.000238757
0.00383773
-0.000741582
0.000386634
0.00423811
-0.000644913
0.000439137
0.00469965
-0.000637207
0.000381307
0.00227463
-0.000464085
0.000387722
0.00284408
-0.00059357
0.000249672
0.00307082
-0.000682546
0.000265921
0.00333552
-0.000707116
0.000383943
0.00318172
-0.000660344
0.000491386
0.0029316
-0.000584458
0.000462252
0.00360399
-0.000638081
0.000378186
0.00442706
-0.000771977
0.000249096
0.00128528
-0.000339596
0.000174767
0.00199487
-0.000429073
0.000179194
0.00176266
-0.000459612
0.00029455
0.00138291
-0.000435381
0.000416622
0.00141218
-0.000417816
0.000457
0.00196695
-0.000466525
0.000455755
0.00206587
-0.000499717
0.000252467
0.00337074
-0.000605596
0.000398107
0.00316688
-0.00068256
0.000121034
0.000301178
-0.000220293
6.65873e-05
0.00013885
-0.000228101
5.65059e-05
-0.000259537
-0.000221766
0.000139336
-0.00059031
-0.000198932
0.000265253
-6.75929e-05
-0.000171739
0.000367185
0.00111249
-0.000215378
0.000268057
0.00128504
-0.00032258
0.000187105
0.000639906
-0.000384747
0.000267912
0.000307236
-0.000399215
0.000298438
-0.000591887
-0.000371564
5.98721e-05
-0.000977369
-7.51873e-05
1.75612e-05
-0.00158087
-7.10766e-05
7.08965e-06
-0.0014649
-6.59226e-05
6.70198e-05
-0.00143543
-6.20233e-05
0.000121176
-0.00121481
-6.70817e-05
0.000171402
-0.000729179
-7.52456e-05
0.000134345
-0.000929562
-7.76938e-05
9.60288e-05
-0.00121827
-8.41449e-05
9.03954e-05
-0.00188731
-8.50629e-05
0.00013273
-0.00256176
-8.46917e-05
0.000131964
-0.00270002
-8.88712e-05
0.00126233
0.00613835
0.00300402
0.00186653
0.0068094
0.00232123
0.00206649
0.00658946
0.0023496
0.00183506
0.00693326
0.00189105
0.00221841
0.00691236
0.00175692
0.00216609
0.00662579
0.00171775
0.00184624
0.00735357
0.00144512
0.00223461
0.00702526
0.00139577
0.0020591
0.00643971
0.0013542
0.00160213
0.00599067
0.00112359
0.00181486
0.007286
0.00100717
0.0020068
0.00690966
0.00100662
0.00161612
0.00615487
0.00102354
0.000856226
0.00587303
0.000999803
0.00039363
0.00571879
0.000677766
0.0017658
0.00712114
0.000318022
0.00151066
0.00691128
0.000310314
0.000741749
0.00606575
0.000269922
0.000437047
0.00565597
0.000552286
7.86519e-05
0.0058502
0.000380804
0.000298139
0.00561345
0.000441068
0.00144288
0.00557113
-6.23706e-05
0.000744897
0.00486202
-0.000187459
0.000270365
0.00474108
-0.000202165
3.38213e-05
0.00497884
-8.74354e-05
8.04854e-05
0.00505658
-0.000149367
0.000215771
0.00489263
-0.000171959
0.000425934
0.00559412
-0.000398655
0.000487003
0.00371481
-0.000539162
0.00032533
0.00381967
-0.000593307
0.000367331
0.00403746
-0.000708074
0.000270761
0.00421837
-0.000728272
0.000332574
0.00385309
-0.000720485
0.000381011
0.00425168
-0.000644774
0.000418793
0.00474834
-0.000650145
0.000544079
0.00456507
-0.000798346
0.000258113
0.00234143
-0.000444926
0.000333768
0.00278679
-0.000565802
0.000271059
0.00309162
-0.000706227
0.000304563
0.00337468
-0.000731716
0.00039866
0.00312899
-0.000636418
0.00048317
0.00284157
-0.000596476
0.000426688
0.00368906
-0.00064046
0.000404983
0.00440846
-0.000772002
0.00058128
0.00350022
-0.000883987
0.000186249
0.00123409
-0.000335577
0.000166736
0.00197
-0.000414877
0.000154311
0.0017064
-0.000470621
0.000216113
0.0012991
-0.000452572
0.000355813
0.00129032
-0.000404086
0.000459156
0.00192946
-0.000472292
0.000387917
0.00201662
-0.000537137
0.00023665
0.00341768
-0.000596203
0.000434472
0.00307236
-0.000677635
0.000554377
0.0018898
-0.000675166
0.000110757
0.000265631
-0.00021797
5.52066e-05
0.000108001
-0.00022709
5.47634e-05
-0.000310569
-0.000224743
0.000112877
-0.000654336
-0.000203597
0.00021307
-0.000177444
-0.000180976
0.000373264
0.000953666
-0.000214781
0.000288697
0.00123135
-0.000316035
0.00017497
0.000628695
-0.000390311
0.000254778
0.000154191
-0.000396084
0.000297267
-0.000785365
-0.000370275
0.000349009
-0.000947195
-0.000332623
5.37536e-05
-0.00103007
-7.52544e-05
9.82034e-06
-0.00159515
-7.07219e-05
6.5202e-06
-0.00147625
-6.62473e-05
5.9145e-05
-0.00149816
-6.23331e-05
0.000114167
-0.00132477
-6.62273e-05
0.000163203
-0.000885274
-7.41897e-05
0.000137801
-0.00106522
-7.73902e-05
9.76337e-05
-0.00130989
-8.37041e-05
8.16311e-05
-0.0019688
-8.42837e-05
0.000126604
-0.00268923
-8.41891e-05
0.000123735
-0.00282066
-8.77855e-05
0.000129406
-0.00227843
-8.53303e-05
0.000845279
0.00584972
0.00359377
0.00165161
0.00561107
0.00337804
0.00150475
0.00644311
0.00297916
0.00205017
0.00625824
0.00290923
0.0018615
0.00680208
0.00241933
0.00225326
0.00667414
0.00220169
0.00206404
0.00653214
0.00228147
0.00185723
0.00718051
0.00183397
0.00223395
0.00712061
0.00168346
0.00225605
0.00642902
0.00175674
0.00199327
0.00582257
0.0014526
0.00182496
0.00754514
0.0013753
0.00223124
0.00698707
0.00125887
0.00184325
0.00620967
0.00139868
0.00122398
0.00594866
0.00102846
0.000878397
0.00560528
0.000659219
0.00182823
0.00721922
0.0010885
0.00180607
0.00663974
0.000981681
0.0010649
0.00601256
0.000825779
0.000501521
0.00610886
0.00072323
0.000268232
0.00602004
0.000508974
0.000396185
0.00623845
0.000442425
0.00160175
0.00701592
0.000254688
0.001074
0.00658934
0.000310853
0.000362585
0.00592131
0.000362535
-7.61806e-05
0.00564137
0.000394518
3.41905e-05
0.00607164
0.000377142
0.000194888
0.00583507
0.00018006
0.000595016
0.00627182
-5.86997e-05
0.000918834
0.0050328
-0.000158659
0.000285413
0.00491421
-7.46491e-05
5.03316e-05
0.00500508
-0.000134466
-3.28642e-05
0.00515372
-7.34228e-05
0.000127071
0.00519508
-2.04295e-05
0.000232379
0.00505885
-0.000166957
0.000491456
0.0056726
-0.0003231
0.000771013
0.00522528
-0.000595445
8.99957e-05
0.0038522
-0.000429343
0.00031585
0.00382105
-0.000522625
0.000272354
0.00413214
-0.000689285
0.000250013
0.00427753
-0.000712674
0.000149957
0.00407925
-0.000705727
0.000376721
0.00427904
-0.000641394
0.000501071
0.00468937
-0.000660188
0.000591106
0.0045568
-0.000828
0.000777871
0.00417738
-0.000975438
0.000136996
0.00248936
-0.000411909
0.000235328
0.00283965
-0.000566371
0.000158214
0.00319814
-0.000676225
0.000317574
0.0032903
-0.000723312
0.000332007
0.00313079
-0.000709708
0.000505963
0.00275656
-0.000598221
0.00042889
0.00371033
-0.000658723
0.000445506
0.00433011
-0.000770961
0.00058841
0.00347114
-0.00089686
0.000708555
0.00296606
-0.00092786
0.000152341
0.00121185
-0.000344897
0.000171863
0.00193707
-0.000419299
0.000183431
0.00163871
-0.000475847
0.000140724
0.00126984
-0.000469208
0.00029608
0.00115964
-0.000404896
0.000487067
0.00186259
-0.000451022
0.000370682
0.00201324
-0.000550896
0.000259371
0.00338504
-0.000588902
0.000465123
0.00294367
-0.00067786
0.000580982
0.00161199
-0.000683546
0.000603607
0.000334284
-0.000630758
8.74231e-05
0.00025687
-0.000216836
5.39475e-05
7.24316e-05
-0.000226528
4.46136e-05
-0.000350098
-0.000225654
9.07871e-05
-0.000697292
-0.000213428
0.000181873
-0.000259798
-0.000188948
0.000375439
0.000781206
-0.000220752
0.000307263
0.00116125
-0.000314142
0.000178724
0.000627134
-0.000395563
0.000239946
3.64675e-07
-0.000394799
0.00029587
-0.000987473
-0.000363241
0.000310097
-0.00117049
-0.000333342
0.000364701
-0.000833953
-0.000287551
5.38478e-05
-0.00108268
-7.57539e-05
-1.94362e-06
-0.00159751
-7.09531e-05
-4.82511e-07
-0.00148062
-6.5875e-05
5.19967e-05
-0.00155359
-6.28129e-05
0.000100813
-0.00142189
-6.60272e-05
0.000149623
-0.00102749
-7.36371e-05
0.000139694
-0.0012016
-7.75057e-05
9.53287e-05
-0.00139888
-8.37328e-05
6.96152e-05
-0.00203837
-8.3746e-05
0.000117696
-0.00280779
-8.34222e-05
0.000117579
-0.00293574
-8.66903e-05
0.000117827
-0.00239962
-8.44245e-05
0.00013467
-0.00254021
-7.64364e-05
0.00112455
0.00544617
0.0036651
0.00181581
0.00590046
0.00334155
0.00160513
0.00582252
0.00367606
0.00113722
0.00594199
0.00348371
0.00207724
0.00596817
0.00333577
0.001962
0.00645502
0.00294255
0.00219846
0.00636428
0.00292792
0.0022907
0.00605319
0.00296498
0.00197078
0.00680697
0.00244282
0.00219988
0.0067968
0.00233074
0.00198077
0.00655737
0.00245175
0.00197821
0.00614215
0.00212435
0.00215564
0.00703351
0.00189019
0.00227251
0.00710791
0.00180541
0.00206698
0.00634424
0.00154451
0.00141006
0.00595911
0.00143412
0.00150181
0.00565911
0.000888288
0.00218621
0.00723417
0.00135835
0.0021856
0.00668739
0.00129545
0.00142989
0.0060687
0.00103484
0.00100569
0.00597496
0.000868198
0.000795836
0.00578452
0.000321615
0.000909743
0.0058408
0.000220204
0.00189856
0.00681583
0.00119743
0.00146499
0.00638848
0.00094876
0.000664987
0.00608598
0.000605855
0.000293821
0.00610373
0.000460913
0.000260992
0.00629835
0.000218116
0.000483555
0.00623185
0.000226907
0.000795707
0.00630336
0.000230457
0.00137937
0.00655869
0.000278068
0.000610102
0.00624573
0.000273606
2.06862e-05
0.00607255
0.000189254
-0.00016973
0.00587685
0.000263921
-1.15205e-05
0.00630289
0.000301865
0.00031344
0.00604841
8.27396e-05
0.000797589
0.00617968
-3.39336e-05
0.00120184
0.00613285
-0.000578561
0.000392224
0.00490512
-4.93527e-05
6.81334e-05
0.00501332
-1.00499e-05
-0.000104093
0.00534094
-3.40572e-05
-7.63507e-05
0.00538395
-3.83338e-05
-9.49021e-06
0.00529128
-1.01824e-05
0.000290166
0.00536108
-0.000236104
0.000704943
0.00564247
-0.000340699
0.000873534
0.00525249
-0.00063274
0.00111637
0.00457448
-0.000849767
-3.74883e-05
0.00408494
-0.00039895
9.49122e-05
0.00398708
-0.000454963
1.67318e-05
0.0043111
-0.000560101
0.000212905
0.00438957
-0.000696656
0.000117376
0.00426437
-0.000683159
0.000462704
0.00430865
-0.000692082
0.000528651
0.00461671
-0.000668494
0.000649827
0.00456106
-0.00086877
0.000819798
0.00413006
-0.00101208
0.000912532
0.00351238
-0.00114745
5.80807e-05
0.00265494
-0.000357292
0.000245177
0.00290571
-0.00055128
0.000181931
0.00329898
-0.000665718
0.000210812
0.00326123
-0.00071724
0.000341777
0.0030962
-0.000734426
0.000532263
0.00267637
-0.000674708
0.000454189
0.00372395
-0.000695344
0.000516618
0.00419313
-0.000778988
0.00058545
0.00347986
-0.000900004
0.000742721
0.00284197
-0.000934505
0.000846972
0.00167186
-0.00086863
9.0925e-05
0.00123648
-0.00035987
0.000141442
0.00193295
-0.000428281
0.000160792
0.0015835
-0.000480266
9.60362e-05
0.00126196
-0.000473215
0.000263863
0.00100827
-0.000399831
0.000511011
0.00176404
-0.000441917
0.000353543
0.00206671
-0.000550776
0.00032605
0.00327466
-0.000587846
0.00049016
0.00278655
-0.000681999
0.000575401
0.00133373
-0.000679123
0.000537221
6.58534e-05
-0.000642239
0.000618732
-3.32645e-06
-0.000559603
8.15298e-05
0.000265049
-0.00021685
5.30672e-05
2.73139e-05
-0.00022673
2.72743e-05
-0.000377681
-0.000226701
7.90575e-05
-0.000730937
-0.000219071
0.000158002
-0.000333775
-0.000196641
0.000367669
0.000608812
-0.0002346
0.000322897
0.00107132
-0.000314031
0.000187442
0.000610948
-0.00039007
0.00021861
-0.00014842
-0.000395773
0.000284655
-0.00119279
-0.00035644
0.000299185
-0.00138277
-0.000332567
0.000333877
-0.00109334
-0.000290001
0.000334009
-0.0016583
-0.000259378
5.40477e-05
-0.00113525
-7.61131e-05
-1.5394e-05
-0.00158727
-7.06026e-05
-6.71424e-06
-0.00147926
-6.56008e-05
4.39439e-05
-0.00160074
-6.26689e-05
8.96358e-05
-0.00150828
-6.60552e-05
0.000135864
-0.00115604
-7.33344e-05
0.000136378
-0.00133394
-7.76668e-05
9.21694e-05
-0.00148446
-8.40949e-05
6.44321e-05
-0.00210324
-8.32958e-05
0.000103758
-0.00291289
-8.2409e-05
0.000112088
-0.00304551
-8.57389e-05
0.00010254
-0.00250527
-8.35821e-05
0.000121782
-0.00267066
-7.57573e-05
0.000157447
-0.00221233
-6.66431e-05
0.000543383
0.00456075
0.00412212
0.000958462
0.00516224
0.00393802
0.00154632
0.00567485
0.00376769
0.00126118
0.005416
0.00388624
0.00124488
0.00591924
0.00358907
0.00184887
0.00597609
0.00341634
0.00130876
0.00598784
0.00368529
0.00186352
0.00609049
0.00344954
0.00181861
0.00636882
0.00346291
0.00223927
0.0060084
0.00342747
0.00169475
0.00672889
0.00292447
0.00214441
0.00646288
0.00289942
0.00171077
0.00621856
0.00303255
0.0018887
0.00597584
0.00302196
0.00233577
0.00676764
0.0023928
0.00230317
0.00675554
0.00245343
0.00216614
0.00642962
0.00235934
0.00189914
0.00595095
0.00215386
0.00177897
0.00600746
0.00158696
0.002294
0.00717396
0.00188752
0.00252009
0.00672227
0.00194133
0.00171954
0.0060887
0.0017713
0.00130189
0.00612922
0.0010782
0.00143666
0.00604221
0.000410203
0.00153756
0.00580596
0.000335571
0.00226071
0.00681915
0.00147221
0.00187869
0.00625655
0.0013755
0.00108147
0.00603462
0.000913055
0.000893867
0.00592656
0.000483203
0.000875812
0.00599158
4.63238e-05
0.000971398
0.0058166
-0.000142021
0.00124901
0.0059055
5.25329e-05
0.0015437
0.00654474
0.00112384
0.00111738
0.00617714
0.000901489
0.000423304
0.00619793
0.000434189
0.000319547
0.00613959
8.07138e-05
0.00044553
0.0061956
0.000106612
0.000610783
0.0061068
4.58278e-05
0.00113986
0.00610735
8.06385e-05
0.00181595
0.00611796
-0.00018147
0.000943313
0.00604342
0.000432123
0.000228793
0.00612136
0.000241777
-0.000107052
0.00631923
2.98827e-05
-8.92907e-05
0.00611537
-3.63273e-05
0.000153013
0.00621078
0.000193527
0.000442893
0.00618348
1.40742e-05
0.00106238
0.0060842
-0.000179227
0.00142403
0.00602463
-0.000476214
0.00168935
0.00461378
-0.00108615
-4.62731e-05
0.00503597
-0.00015155
-6.63891e-05
0.00525743
-0.000132157
-0.000264845
0.00556526
4.72085e-05
-0.000103054
0.00565167
1.4185e-05
2.30135e-07
0.00548751
-0.00011741
0.000456592
0.0055026
-0.000145596
0.000782513
0.00562727
-0.000474766
0.000952521
0.0052678
-0.0006587
0.001201
0.00444206
-0.000881519
0.00126328
0.00352332
-0.00117001
-0.000102841
0.00433027
-0.000368144
6.25738e-05
0.00416394
-0.000393202
-4.37048e-05
0.00454554
-0.00046377
6.13885e-05
0.00461023
-0.000631343
0.000162608
0.00441361
-0.000666731
0.000576907
0.00431605
-0.000735205
0.000728979
0.00439356
-0.000743722
0.000784183
0.00450102
-0.000876013
0.000822019
0.00407368
-0.00104895
0.000994959
0.00340567
-0.0011576
0.00108206
0.00221087
-0.00111018
-1.53702e-05
0.00288042
-0.000377139
0.000158675
0.00303548
-0.000504299
0.000178459
0.00338496
-0.000654928
8.76333e-05
0.00332941
-0.000725494
0.000364943
0.00304619
-0.000768306
0.00055752
0.0026444
-0.000748965
0.000472794
0.00366394
-0.000733947
0.000564565
0.00403928
-0.00078001
0.000667534
0.00343144
-0.000907946
0.00076346
0.00268786
-0.000933949
0.000871546
0.00127274
-0.000869713
0.000929412
0.000869462
-0.00085979
7.25532e-05
0.00128247
-0.000384756
0.000207209
0.00185271
-0.000433768
0.00013799
0.00152146
-0.00047696
0.000112445
0.00120949
-0.000461188
0.000251322
0.000849202
-0.000407467
0.000538092
0.00162085
-0.00042707
0.000360867
0.00214402
-0.000557196
0.000389956
0.00310589
-0.000584519
0.000542718
0.002559
-0.000684405
0.000546885
0.00105336
-0.000663864
0.000529536
-0.000219526
-0.000624094
0.000596712
-0.00033913
-0.00056927
0.000557632
-0.00059362
-0.000493238
7.92076e-05
0.000284401
-0.000218239
4.48261e-06
1.92339e-05
-0.000228647
3.24874e-07
-0.000383659
-0.000227791
6.42334e-05
-0.000755525
-0.000222402
0.000135515
-0.000397681
-0.000201045
0.000335998
0.000455029
-0.000242992
0.000329413
0.000963128
-0.000319441
0.000199422
0.000569188
-0.000379524
0.000233011
-0.000323621
-0.000383447
0.000243287
-0.00137716
-0.000350937
0.000308838
-0.00160697
-0.00032899
0.000304202
-0.00133685
-0.000290721
0.00028516
-0.00185113
-0.000260546
0.000354467
-0.00195867
-0.000225096
4.83445e-05
-0.00118213
-7.61341e-05
-2.32403e-05
-0.00156953
-7.06104e-05
-1.04557e-05
-0.00147404
-6.53611e-05
3.25698e-05
-0.0016363
-6.26173e-05
8.34401e-05
-0.00158837
-6.60238e-05
0.000127931
-0.001277
-7.30302e-05
0.000130622
-0.00146028
-7.76157e-05
8.93859e-05
-0.00156718
-8.43319e-05
6.01354e-05
-0.00216474
-8.27316e-05
9.2437e-05
-0.00300695
-8.16661e-05
0.000106506
-0.00314935
-8.50752e-05
8.78111e-05
-0.00259564
-8.31721e-05
0.000110952
-0.00278974
-7.54622e-05
0.000146034
-0.00236766
-6.64632e-05
0.000140439
-0.00233615
-5.99323e-05
0.00032353
0.00402116
0.00456749
0.000409794
0.00491291
0.00417871
0.000351162
0.00487722
0.00440296
0.0015103
0.00515788
0.00395528
0.0010577
0.00518659
0.00409533
0.00147735
0.00544229
0.00388312
0.00106817
0.00596035
0.00400404
0.00103157
0.0058621
0.00410143
0.00193349
0.00586053
0.00369606
0.00146624
0.00622591
0.00369162
0.00149012
0.00628146
0.00387187
0.00151521
0.00565106
0.0039308
0.00146928
0.00629312
0.00342919
0.00195176
0.00659747
0.00341354
0.00134835
0.00628261
0.00355113
0.00204187
0.00580175
0.00370743
0.00233309
0.00678317
0.00293269
0.00211427
0.00658441
0.00299184
0.00180192
0.0063846
0.0030976
0.00244391
0.00568617
0.00277744
0.00184216
0.00572247
0.00273668
0.00204402
0.00707149
0.00251121
0.00250889
0.00657911
0.00258043
0.00208038
0.00604121
0.002481
0.00198625
0.00562085
0.00200508
0.00216006
0.00621207
0.00122586
0.00183231
0.00608299
0.0011656
0.00211653
0.00728446
0.00188169
0.00203899
0.00663556
0.00181395
0.00124733
0.00616868
0.00169548
0.00119477
0.00659064
0.00100899
0.00143629
0.00634479
0.00021514
0.00144838
0.00589519
-0.000156014
0.0015729
0.0058861
8.62039e-05
0.00168131
0.00674975
0.00146959
0.00142129
0.00615607
0.00126879
0.00108785
0.00603108
0.00071449
0.000938603
0.00614076
7.97944e-05
0.000975211
0.00620543
-0.00026033
0.00116853
0.00563984
-0.000334663
0.00166816
0.00539909
-0.000163906
0.00212158
0.00563617
0.000125076
0.00122525
0.00647699
0.000886088
0.000702978
0.00608606
0.000740734
0.000386171
0.00645467
0.000151528
0.000493208
0.00614115
-0.000149868
0.000517942
0.00594409
-3.27017e-05
0.000831398
0.00580637
1.85384e-05
0.00151717
0.00577942
-8.10253e-05
0.00209305
0.0058802
-0.000350615
0.00239228
0.00507978
-0.000628016
0.0004472
0.00574061
0.000275144
2.1405e-05
0.00623571
0.00022998
-0.000139391
0.00652276
-8.72048e-05
4.01148e-05
0.00621093
-0.000208839
0.000220965
0.00609397
-0.000140254
0.000623823
0.00625266
-4.28875e-05
0.00124867
0.00589913
-0.000267006
0.00156273
0.00581317
-0.000577977
0.00174454
0.0046604
-0.00106637
0.00179063
0.00307368
-0.00143575
-0.000327749
0.0053488
9.08817e-05
-0.000175552
0.00548458
-0.000140578
-0.0003143
0.00579177
-8.80804e-05
-0.000142404
0.00592913
-2.6463e-05
0.000181822
0.00563003
-0.000147551
0.000750246
0.00555126
-0.000339405
0.00106613
0.0056253
-0.000480781
0.00108311
0.00519034
-0.000696236
0.00129272
0.0042942
-0.00098154
0.00138465
0.00340448
-0.00115237
0.00127017
0.00254251
-0.00136548
-0.000125128
0.00450133
-0.000347447
-1.78046e-05
0.00431741
-0.000345133
-1.53992e-05
0.00478709
-0.000440887
-4.58497e-05
0.00483536
-0.000555414
0.000263358
0.00454721
-0.000663357
0.000684381
0.00428664
-0.000764178
0.000756532
0.00420812
-0.000833508
0.000812425
0.00443512
-0.000925689
0.000939869
0.00399532
-0.00106998
0.00103354
0.00324162
-0.00115498
0.00114732
0.00189309
-0.00111559
0.00108077
0.00111882
-0.00112708
-2.81471e-05
0.00301828
-0.000344119
0.000105543
0.00325757
-0.000497563
0.000124448
0.0035274
-0.000633198
0.000144782
0.00337942
-0.00073727
0.000430787
0.00290492
-0.000763689
0.000562615
0.0026253
-0.00077373
0.000501516
0.00354023
-0.000765907
0.000588264
0.00389689
-0.000789865
0.00070954
0.00339225
-0.000907644
0.000750802
0.00250701
-0.00093102
0.000893528
0.000842961
-0.000868157
0.000930364
0.000515817
-0.000849719
0.000767413
0.00028459
-0.000828698
0.000104079
0.00129397
-0.000396153
0.000114357
0.00179793
-0.000439849
0.000108396
0.00145104
-0.000471422
0.000141555
0.00110164
-0.000446432
0.000242045
0.000693135
-0.00041165
0.000556037
0.00141649
-0.000423144
0.000410164
0.00219576
-0.000559558
0.000448096
0.00289318
-0.000593155
0.000607464
0.00227598
-0.000675948
0.000493451
0.000784078
-0.000665284
0.000528506
-0.000505961
-0.000597097
0.00056141
-0.000670965
-0.000549467
0.000494016
-0.000867431
-0.000504314
0.000543951
-0.00113582
-0.000463571
7.3197e-05
0.000307576
-0.000218984
-1.16026e-05
2.12626e-05
-0.000231905
-8.34898e-06
-0.000385884
-0.000228529
1.37997e-05
-0.000741383
-0.000223163
0.000120767
-0.000450466
-0.000206944
0.000324695
0.000300789
-0.000243569
0.000344235
0.000830752
-0.00032423
0.000206175
0.000500244
-0.000367285
0.000240525
-0.000516775
-0.000366761
0.000212917
-0.00153528
-0.0003458
0.000302925
-0.00183189
-0.000322435
0.000273305
-0.00156225
-0.000289087
0.00026754
-0.00203972
-0.000258723
0.000318972
-0.0021661
-0.000226049
0.000293974
-0.00168556
-0.000200907
4.53432e-05
-0.00122593
-7.6208e-05
-2.86197e-05
-0.00154607
-7.09794e-05
-1.91442e-05
-0.00145975
-6.57611e-05
2.06268e-05
-0.00165952
-6.27588e-05
8.09731e-05
-0.00166585
-6.6102e-05
0.000123446
-0.0013938
-7.26685e-05
0.000125134
-0.00158108
-7.73656e-05
8.77274e-05
-0.00164859
-8.39334e-05
5.26935e-05
-0.00221888
-8.28856e-05
8.40029e-05
-0.0030918
-8.18926e-05
9.37497e-05
-0.00324036
-8.44067e-05
7.53213e-05
-0.00267361
-8.24343e-05
9.77161e-05
-0.00289546
-7.51676e-05
0.000135206
-0.00251212
-6.62042e-05