/*--------------------------------*- C++ -*----------------------------------*\
  =========                 |
  \\      /  F ield         | OpenFOAM: The Open Source CFD Toolbox
   \\    /   O peration     | Website:  https://openfoam.org
    \\  /    A nd           | Version:  7
     \\/     M anipulation  |
\*---------------------------------------------------------------------------*/
FoamFile
{
    version     2.0;
    format      ascii;
    class       volVectorField;
    location    "7";
    object      U_0;
}
// * * * * * * * * * * * * * * * * * * * * * * * * * * * * * * * * * * * * * //

dimensions      [0 1 -1 0 0 0 0];

internalField   nonuniform List<vector> 
18630
(
(-0.0879572 0.710453 -1.8028)
(-0.718386 0.665277 -1.84004)
(-0.0904451 0.714818 -1.76043)
(0.346516 0.673858 -1.63167)
(-1.31183 0.664011 -1.31532)
(-0.679915 0.574203 -1.77157)
(-0.617366 0.905534 -1.74749)
(-0.0962151 0.731758 -1.73621)
(0.362433 0.701876 -1.63186)
(0.376564 0.706768 -1.56933)
(-2.20845 0.591764 -2.48068)
(-1.28075 0.636714 -1.50091)
(-1.40935 0.626694 -1.48015)
(-0.673243 0.56576 -1.63991)
(-0.600419 0.857874 -1.65912)
(-0.23866 0.548331 -1.74713)
(-0.102871 0.741815 -1.72113)
(0.3706 0.69748 -1.63112)
(0.37971 0.701381 -1.55999)
(0.190616 0.987168 -1.43981)
(-3.34272 1.28847 -1.37238)
(-2.10177 0.725015 -2.18626)
(-2.08156 0.689413 -1.00582)
(-1.21922 0.624902 -1.73598)
(-1.43078 0.601682 -1.51371)
(-1.19866 0.286431 -1.9255)
(-0.667866 0.585227 -1.57342)
(-0.562754 0.767265 -1.62261)
(-0.205139 0.436507 -1.76721)
(-0.133501 0.512786 -1.47841)
(-0.100403 0.74204 -1.71685)
(0.387052 0.678897 -1.62349)
(0.386809 0.683389 -1.55689)
(0.193115 0.942361 -1.4284)
(-0.111363 1.2492 -1.42802)
(-3.79146 0.787152 0.417011)
(-3.37777 1.04729 -1.31903)
(-2.98852 1.08285 -2.35498)
(-1.88154 0.5746 -1.68896)
(-1.86344 0.33162 -1.43186)
(-1.77714 0.509284 -2.0131)
(-1.20357 0.536957 -1.73798)
(-1.4131 0.445807 -1.64755)
(-1.1824 0.219506 -1.92074)
(-1.21002 0.626299 -2.10423)
(-0.657477 0.580304 -1.58001)
(-0.518406 0.645863 -1.64355)
(-0.166349 0.335241 -1.7797)
(-0.110071 0.468385 -1.45027)
(-0.675262 1.31481 -1.31019)
(-0.0953829 0.734915 -1.71895)
(0.393937 0.674705 -1.61733)
(0.397813 0.6586 -1.55618)
(0.197532 0.90719 -1.4141)
(-0.0922678 1.18377 -1.43464)
(-0.416328 1.4312 -1.54417)
(-3.86865 0.880874 1.63614)
(-3.77217 0.734166 0.46648)
(-3.83444 1.27822 0.0950768)
(-3.28771 0.571016 -1.47063)
(-2.84521 0.76397 -2.04449)
(-2.49246 0.648162 -1.52929)
(-1.61634 0.0166917 -1.58979)
(-1.80853 0.257377 -1.52812)
(-1.78121 0.44128 -1.89194)
(-1.75281 0.180469 -1.93025)
(-1.13062 0.313374 -1.6423)
(-1.36031 0.262566 -1.79798)
(-1.16085 0.178206 -1.90981)
(-1.16249 0.421702 -2.03966)
(-1.28219 1.09741 -1.64782)
(-0.661386 0.552277 -1.58994)
(-0.461402 0.520401 -1.67354)
(-0.118633 0.244587 -1.78054)
(-0.092933 0.439772 -1.45119)
(-0.662386 1.21231 -1.263)
(-1.156 1.23731 -1.67778)
(-0.092919 0.731917 -1.71946)
(0.407638 0.669042 -1.61119)
(0.393286 0.652518 -1.55145)
(0.206737 0.87065 -1.40685)
(-0.0825951 1.14724 -1.42788)
(-0.387743 1.3202 -1.63034)
(-0.009974 0.923209 -1.87499)
(-3.9541 0.940963 1.8384)
(-3.92487 0.908154 1.48557)
(-3.89424 1.53338 0.844618)
(-4.05715 0.613811 0.232445)
(-3.78205 1.0864 -0.635901)
(-3.29784 1.2429 -1.47961)
(-3.10971 0.30352 -1.10016)
(-2.56485 0.502183 -1.57748)
(-2.27253 0.35102 -1.519)
(-2.16601 0.349503 -2.16961)
(-1.59994 0.186891 -1.49304)
(-1.75516 0.441214 -1.51345)
(-1.68437 0.185508 -1.86197)
(-1.74528 0.174672 -2.03456)
(-1.77202 0.624587 -2.22969)
(-1.00959 0.0921165 -1.55036)
(-1.31295 0.18138 -1.84685)
(-1.13565 0.107032 -1.96959)
(-1.10153 0.350158 -2.00171)
(-1.19981 0.901429 -1.69505)
(-1.44715 1.07923 -1.41349)
(-0.604077 0.447386 -1.62346)
(-0.385615 0.371825 -1.69536)
(-0.0772102 0.182933 -1.76206)
(-0.0717853 0.442724 -1.47426)
(-0.646187 1.13325 -1.21668)
(-1.19017 1.32071 -1.61855)
(-0.946692 0.798337 -2.03506)
(-0.0934675 0.733966 -1.71755)
(0.406627 0.658986 -1.61051)
(0.416776 0.622464 -1.54873)
(0.220544 0.837249 -1.40342)
(-0.077949 1.13611 -1.40967)
(-0.354803 1.22472 -1.70374)
(-0.0272797 0.983176 -1.80923)
(0.311435 0.629373 -1.93189)
(-3.83869 0.979722 1.89051)
(-3.91578 0.982321 1.80635)
(-3.82745 1.32838 1.80911)
(-3.96838 0.705609 1.44872)
(-3.91351 1.55625 0.72757)
(-3.80454 0.852492 0.861549)
(-4.13124 0.452385 -0.615338)
(-3.70856 1.13381 -1.43504)
(-3.26373 0.678627 -0.783233)
(-2.72639 0.260453 -0.937198)
(-2.6668 0.107751 -1.05721)
(-2.22169 0.0570847 -1.30481)
(-2.12395 0.117547 -1.48367)
(-2.13129 0.0717386 -2.00617)
(-1.96326 0.263099 -2.08639)
(-1.61133 0.263357 -1.40398)
(-1.73791 0.183857 -1.52473)
(-1.61316 -0.174259 -1.8766)
(-1.80474 0.12594 -2.15719)
(-1.89372 0.492806 -2.16593)
(-1.70197 0.89066 -1.84655)
(-0.942654 0.00584384 -1.46727)
(-1.229 0.00401101 -1.85097)
(-1.13147 0.152735 -2.01924)
(-1.08422 0.372878 -2.01012)
(-1.14401 0.651301 -1.79337)
(-1.4172 1.36496 -1.3951)
(-1.34371 0.866935 -1.57575)
(-0.542222 0.338287 -1.64231)
(-0.30015 0.252893 -1.68237)
(-0.0297555 0.158829 -1.73185)
(-0.0586298 0.488394 -1.50154)
(-0.639585 1.08905 -1.19409)
(-1.23284 1.34513 -1.49265)
(-0.917863 0.636725 -2.16398)
(-0.510474 0.725094 -2.87199)
(-0.0938875 0.732772 -1.71717)
(0.432096 0.650688 -1.60238)
(0.420235 0.606356 -1.54261)
(0.223522 0.823722 -1.39396)
(-0.0703496 1.12394 -1.38638)
(-0.34056 1.17117 -1.74638)
(-0.0573524 1.03432 -1.74644)
(0.29019 0.723908 -1.90539)
(0.608937 0.897453 -1.99659)
(-3.55992 0.705567 2.2859)
(-3.96097 0.748242 1.87232)
(-3.77026 1.02361 2.16166)
(-3.96564 0.506646 1.76415)
(-3.89573 0.955392 1.81241)
(-3.74587 1.20007 1.67815)
(-4.07343 0.573312 1.25824)
(-3.99783 0.858148 0.995476)
(-3.73427 0.668711 0.641939)
(-3.15632 0.387413 0.348488)
(-4.11293 0.16004 -0.399588)
(-3.48284 0.618651 -1.76304)
(-2.86744 0.0656672 -0.253127)
(-2.56578 -0.0052121 -0.896916)
(-2.54081 0.156716 -1.11944)
(-2.31552 -0.250551 -1.29762)
(-1.94581 -0.387064 -1.35977)
(-2.15961 0.0722239 -1.48603)
(-2.08537 -0.158974 -1.9134)
(-1.94093 0.0751398 -1.94374)
(-2.20062 0.427915 -1.80799)
(-1.56986 0.196863 -1.27579)
(-1.71929 0.0881458 -1.57355)
(-1.52896 -0.218473 -1.99784)
(-1.83024 0.182891 -2.27386)
(-1.79763 0.338169 -2.24288)
(-1.9506 0.900071 -1.52696)
(-1.99562 0.788046 -1.80858)
(-0.92054 0.0344789 -1.41509)
(-1.1518 -0.127164 -1.79839)
(-1.13225 0.133936 -2.05355)
(-1.10033 0.443304 -2.01338)
(-1.12262 0.615874 -1.85264)
(-1.42155 0.909167 -1.76226)
(-1.42701 0.953479 -1.72963)
(-1.79353 0.328714 -2.43074)
(-0.462348 0.240915 -1.65906)
(-0.242823 0.15427 -1.63148)
(0.0284219 0.116719 -1.71195)
(-0.0536693 0.554989 -1.52497)
(-0.603876 1.05174 -1.22472)
(-1.24302 1.25977 -1.39279)
(-0.940165 0.629493 -2.15337)
(-0.574576 0.775887 -2.82195)
(-0.479045 0.973404 -3.1015)
(-0.0927364 0.727736 -1.7188)
(0.429061 0.650242 -1.59741)
(0.440065 0.569875 -1.53443)
(0.234529 0.814001 -1.38985)
(-0.0480283 1.09301 -1.37362)
(-0.325422 1.17734 -1.73542)
(-0.0549546 1.03151 -1.7092)
(0.273612 0.810061 -1.88191)
(0.628232 0.876071 -1.97677)
(0.873159 1.31619 -1.92027)
(-3.41549 0.472146 2.5249)
(-3.72233 0.595102 2.1935)
(-3.63979 0.86943 2.26755)
(-3.95153 0.44221 2.00581)
(-3.94127 0.862428 1.91871)
(-3.52988 1.26541 1.84074)
(-3.99829 0.301044 1.76914)
(-4.06302 0.623345 1.39632)
(-3.63447 1.11672 1.38392)
(-3.07119 0.510499 1.70762)
(-4.23186 0.407675 1.01241)
(-3.99464 0.235019 0.773195)
(-3.56456 0.586355 0.42206)
(-3.06399 0.283051 0.611283)
(-2.83165 -0.284801 0.54119)
(-3.86071 0.1291 -0.732002)
(-3.19161 0.238362 -0.78088)
(-2.3799 -0.512944 -0.264549)
(-2.47809 -0.226557 -0.710265)
(-2.47479 -0.204549 -0.815715)
(-2.41679 -0.154549 -0.568447)
(-2.1582 -0.354868 -1.3633)
(-1.935 -0.332179 -1.39858)
(-2.18392 -0.114123 -1.54378)
(-2.09806 -0.213489 -1.89509)
(-1.94109 -0.117519 -1.84929)
(-2.23526 0.287689 -1.7504)
(-2.41367 0.267791 -1.42656)
(-1.44201 0.0193183 -1.24148)
(-1.63874 -0.110817 -1.62849)
(-1.47734 -0.678384 -1.92646)
(-1.75638 -0.280825 -2.34533)
(-1.85129 0.322613 -2.19879)
(-1.70076 0.56377 -1.85875)
(-1.95453 0.621882 -1.96858)
(-2.25661 0.246575 -2.06416)
(-0.913559 0.0567629 -1.40835)
(-1.05098 -0.271425 -1.72317)
(-1.13916 0.0658948 -2.01189)
(-1.09178 0.478607 -1.96981)
(-1.13592 0.656861 -1.85742)
(-1.42405 0.826808 -1.78536)
(-1.40421 0.955325 -2.04942)
(-1.73659 0.16965 -2.48745)
(-1.7743 0.710589 -2.98682)
(-0.370753 0.158721 -1.67251)
(-0.165301 0.0751862 -1.59445)
(0.0952113 0.0608364 -1.71092)
(-0.0894171 0.624003 -1.53587)
(-0.562487 0.970495 -1.28503)
(-1.27156 1.21883 -1.26235)
(-1.02099 0.753717 -2.0189)
(-0.615772 0.761948 -2.77742)
(-0.464933 0.919287 -3.05536)
(-0.00193968 1.15954 -2.92638)
(-0.0904756 0.714711 -1.72409)
(0.448701 0.643812 -1.58786)
(0.468128 0.566982 -1.50927)
(0.257276 0.798251 -1.39268)
(-0.0353965 1.07204 -1.35691)
(-0.324118 1.17631 -1.67627)
(-0.0512369 1.02562 -1.6765)
(0.229954 0.919486 -1.84929)
(0.637125 0.888495 -1.95271)
(0.880921 1.30547 -1.90464)
(1.05787 1.15651 -1.91988)
(-3.08856 0.0859406 2.8662)
(-3.53789 0.897068 2.40004)
(-3.36418 0.974671 2.58577)
(-3.7364 0.504048 2.18332)
(-3.78747 0.792969 2.06218)
(-3.59953 1.11502 1.81401)
(-3.9796 0.27839 1.96874)
(-3.95761 0.832637 1.75622)
(-3.60309 0.795428 1.63608)
(-3.14268 0.85479 1.77201)
(-4.06817 0.167264 1.52117)
(-3.88828 0.493802 1.64563)
(-3.44711 0.541774 1.47875)
(-2.92574 -0.000359461 1.80961)
(-2.7417 -0.430059 1.18403)
(-4.27229 0.342183 0.491744)
(-3.89073 0.145847 0.198694)
(-3.12584 -0.387957 0.408681)
(-2.90667 -0.187015 0.901709)
(-2.73834 -0.690684 0.777684)
(-2.64024 -0.120974 1.21786)
(-3.59587 -0.0116539 -0.142344)
(-2.57271 -0.527532 -0.375908)
(-2.24827 -0.681345 -0.444555)
(-2.33333 -0.669755 -0.434488)
(-2.40634 -0.608697 -0.27555)
(-2.40829 -0.282869 -0.425173)
(-2.77201 0.0376423 -0.605641)
(-1.86169 -0.599824 -1.24184)
(-1.9752 -0.417878 -1.39968)
(-2.18162 -0.236289 -1.55298)
(-2.136 -0.386988 -1.86949)
(-1.97108 -0.181853 -1.77754)
(-2.24338 0.183366 -1.75543)
(-2.43016 0.180388 -1.43872)
(-2.36382 0.361096 -1.72843)
(-1.32323 -0.232106 -1.13002)
(-1.4758 -0.384123 -1.60794)
(-1.3376 -0.51448 -2.10476)
(-1.72557 -0.258279 -2.3669)
(-1.92422 0.33896 -2.1034)
(-1.71796 0.512141 -1.88882)
(-2.05431 0.364789 -1.93407)
(-2.30158 0.173601 -2.03458)
(-1.9241 0.736187 -2.83976)
(-0.914404 0.0238635 -1.39373)
(-1.03462 -0.346593 -1.59232)
(-1.01543 -0.103022 -2.0352)
(-0.882239 0.107503 -2.02728)
(-1.07631 0.522651 -1.8613)
(-1.42707 0.812138 -1.76958)
(-1.35293 0.608391 -2.39168)
(-1.75251 -0.0704714 -2.45388)
(-1.77271 0.781698 -2.94397)
(-1.26073 1.15392 -3.13794)
(-0.343143 0.103072 -1.63602)
(-0.10657 0.0101387 -1.57534)
(0.163287 0.0216141 -1.71145)
(-0.0828764 0.623826 -1.56157)
(-0.490796 0.866499 -1.33975)
(-1.2512 1.15052 -1.29484)
(-1.12823 0.872953 -1.88639)
(-0.610102 0.614689 -2.79334)
(-0.383763 0.740305 -3.06777)
(0.0290503 1.10679 -2.90289)
(0.116256 1.32544 -2.62768)
(-0.0885881 0.707004 -1.72593)
(0.467362 0.633009 -1.58138)
(0.425357 0.59181 -1.49471)
(0.270674 0.789042 -1.39319)
(-0.0269928 1.06365 -1.33642)
(-0.300127 1.15864 -1.63085)
(-0.0374304 1.01983 -1.65415)
(0.194616 0.994584 -1.83137)
(0.634167 0.922839 -1.92758)
(0.892704 1.29339 -1.89152)
(1.06903 1.15382 -1.88737)
(0.883475 0.973923 -2.11132)
(-2.66964 -0.154698 2.95856)
(-2.9761 0.320296 3.01636)
(-3.16445 0.156536 2.76542)
(-3.246 0.800727 2.68817)
(-3.63419 0.0549778 2.49181)
(-3.64299 0.861433 2.28464)
(-3.42102 1.00996 2.25339)
(-3.75959 0.156856 2.35695)
(-3.79132 0.786806 2.03432)
(-3.53842 1.04013 1.90515)
(-3.11017 0.769805 2.0897)
(-4.01488 -0.0609802 1.9614)
(-3.94118 0.635432 1.61233)
(-3.41296 0.544374 1.82612)
(-3.08397 0.117415 1.81276)
(-2.81092 0.0683202 1.1146)
(-3.99878 -0.264491 1.54809)
(-3.82895 0.0450857 1.31778)
(-3.14263 -0.285151 1.30243)
(-2.87687 -0.709676 1.5069)
(-2.74333 -0.629943 1.08754)
(-2.98112 -0.348276 0.792628)
(-4.07724 -0.245454 0.295065)
(-3.55142 -0.538785 0.547946)
(-2.80727 -0.951314 0.855196)
(-2.50055 -1.25169 0.526593)
(-2.73233 -0.935353 0.950776)
(-2.82789 -0.595928 0.51778)
(-3.01826 -0.0500465 0.304462)
(-2.63865 -0.815858 -0.398962)
(-2.15383 -1.10019 -0.103314)
(-2.22051 -0.936978 -0.320559)
(-2.32036 -0.86511 -0.342673)
(-2.5024 -0.544259 0.086815)
(-2.38303 -0.471716 -0.295572)
(-2.81287 -0.275263 -0.28397)
(-2.68282 0.380877 -0.979922)
(-1.66381 -0.974544 -0.983035)
(-1.9662 -0.539287 -1.34969)
(-2.11322 -0.441147 -1.47713)
(-2.15159 -0.501443 -1.86291)
(-1.98557 -0.424125 -1.62068)
(-2.29915 -0.0472674 -1.70939)
(-2.46077 -0.0327986 -1.41633)
(-2.37455 0.256951 -1.76435)
(-2.25956 0.788319 -2.18296)
(-1.08586 -0.625322 -0.95879)
(-1.39954 -0.498498 -1.61091)
(-1.48328 -0.725821 -1.94882)
(-1.73853 -0.423501 -2.29121)
(-1.78296 0.0323247 -2.20338)
(-1.83749 0.353611 -1.80656)
(-2.06996 0.176815 -1.93818)
(-2.29651 0.0787434 -2.06486)
(-1.9472 0.643621 -2.86547)
(-1.75373 1.21508 -2.92024)
(-0.855647 -0.0329369 -1.44155)
(-0.984642 -0.391071 -1.55184)
(-1.0208 -0.0838457 -2.03476)
(-0.723297 -0.101522 -2.08208)
(-0.895807 0.210032 -1.9413)
(-1.55555 0.769203 -1.63839)
(-1.33489 0.486941 -2.44589)
(-1.78757 -0.143905 -2.38634)
(-1.83065 0.760586 -2.90591)
(-1.20692 1.19262 -3.09864)
(-0.528081 1.50245 -2.93736)
(-0.271932 0.058024 -1.61299)
(-0.0604831 -0.00669334 -1.56351)
(0.191622 0.0406729 -1.70304)
(-0.0481627 0.57972 -1.5928)
(-0.454381 0.79704 -1.37165)
(-1.19257 1.0267 -1.36453)
(-1.21183 0.921062 -1.83107)
(-0.602019 0.525581 -2.80788)
(-0.302622 0.603493 -3.10317)
(0.0676195 1.13562 -2.8238)
(0.170112 1.32252 -2.60688)
(0.0250887 1.5175 -2.31292)
(-0.0895809 0.703411 -1.72644)
(0.496466 0.619332 -1.57525)
(0.452766 0.582206 -1.47207)
(0.252205 0.806914 -1.39939)
(-0.011627 1.03859 -1.33313)
(-0.27054 1.1253 -1.60535)
(-0.0223963 1.01931 -1.6398)
(0.165378 1.03861 -1.82784)
(0.621931 0.952939 -1.90881)
(0.902269 1.28875 -1.87322)
(1.09154 1.16516 -1.85091)
(0.901894 0.975559 -2.08024)
(0.962795 1.16571 -1.79543)
(-2.73689 0.334544 2.6183)
(-3.05511 0.58302 2.63015)
(-2.77721 0.774328 2.74618)
(-2.91734 0.243607 3.02975)
(-3.10252 0.65306 2.78779)
(-3.44608 0.440114 2.71187)
(-3.30743 0.711071 2.66215)
(-3.20331 0.730448 2.6943)
(-3.60072 0.0305843 2.56515)
(-3.61096 0.493294 2.40325)
(-3.53251 0.772506 2.2375)
(-3.19027 1.15226 2.37426)
(-3.93746 -0.129145 2.28557)
(-4.05514 0.399778 1.70447)
(-3.57736 0.535351 1.78171)
(-3.06541 0.507804 2.11338)
(-2.89191 0.373613 1.24009)
(-4.21688 -0.219005 1.57924)
(-3.93322 0.172777 1.44261)
(-3.27516 -0.0396907 1.63834)
(-2.98017 -0.238432 1.72856)
(-2.76339 -0.322584 0.828244)
(-2.9383 -0.087544 0.558215)
(-3.88296 -0.456635 1.5866)
(-3.41809 -0.472218 1.54574)
(-2.82688 -0.805804 1.55299)
(-2.81802 -1.11572 1.08399)
(-2.89224 -0.91118 0.572162)
(-3.00927 -0.542095 0.373084)
(-3.16801 0.0817659 0.474083)
(-3.70549 -0.742544 0.277447)
(-3.01833 -1.31319 0.551927)
(-2.50461 -1.60147 0.521952)
(-2.36159 -1.53355 0.390534)
(-2.76431 -1.29458 0.782566)
(-2.8247 -0.678158 0.339817)
(-3.18396 0.0156942 0.0955261)
(-3.16497 0.512134 -0.505637)
(-1.84578 -1.66251 0.175594)
(-2.10275 -1.28205 -0.205354)
(-2.16861 -1.36051 -0.171704)
(-2.33293 -1.17362 -0.2137)
(-2.32761 -1.19303 0.0547859)
(-2.47551 -0.618364 -0.16618)
(-2.83616 -0.112112 -0.399136)
(-2.72513 0.340196 -0.988441)
(-2.49729 0.825235 -1.39854)
(-1.57612 -1.1885 -0.950124)
(-1.74632 -0.968804 -1.0666)
(-1.89874 -1.00224 -1.16015)
(-2.17044 -0.559574 -1.83208)
(-2.00321 -0.609049 -1.53817)
(-2.26059 -0.0826229 -1.81505)
(-2.42915 -0.109639 -1.43848)
(-2.42881 0.232997 -1.82099)
(-2.27559 0.650164 -2.28818)
(-1.98084 0.947112 -2.73391)
(-0.995038 -0.850649 -0.799041)
(-1.40614 -0.60226 -1.57313)
(-1.49951 -0.74852 -1.90762)
(-1.55857 -0.641356 -2.21927)
(-1.80909 -0.0808957 -2.20326)
(-1.58865 0.400564 -2.15726)
(-2.01476 0.0455646 -2.03417)
(-2.2728 -0.00747054 -2.17211)
(-2.00942 0.585053 -2.83075)
(-1.7887 1.16285 -2.91915)
(-1.2998 1.4962 -2.9024)
(-0.770305 -0.183471 -1.52719)
(-0.969276 -0.424718 -1.57369)
(-0.93453 -0.184311 -2.1045)
(-0.634129 -0.228051 -2.10488)
(-0.719242 0.0686997 -2.0105)
(-1.60863 0.826625 -1.55248)
(-1.41775 0.400102 -2.35549)
(-1.77096 -0.108883 -2.42411)
(-1.83454 0.712295 -2.9076)
(-1.18468 1.13511 -3.09029)
(-0.472629 1.16991 -3.03246)
(-0.402399 1.36973 -2.6833)
(-0.32149 0.0628347 -1.58301)
(0.0301251 -0.0561909 -1.55848)
(0.210964 0.0527471 -1.6954)
(0.0130223 0.51306 -1.60344)
(-0.368209 0.641838 -1.46858)
(-1.07327 0.846527 -1.44075)
(-1.28302 0.935132 -1.83681)
(-0.599861 0.39948 -2.81274)
(-0.165218 0.422305 -3.14215)
(0.107923 1.11554 -2.75503)
(0.177931 1.34654 -2.5568)
(0.0824261 1.40633 -2.33517)
(0.473877 1.3792 -2.08384)
(-0.100362 0.708466 -1.72339)
(0.499005 0.6146 -1.57395)
(0.46787 0.549132 -1.46822)
(0.27447 0.808896 -1.4004)
(0.0110284 1.00989 -1.33281)
(-0.241084 1.09152 -1.59193)
(-0.012592 1.02558 -1.62707)
(0.149909 1.04929 -1.83489)
(0.620812 0.957325 -1.89729)
(0.906515 1.28776 -1.85436)
(1.10459 1.18704 -1.81528)
(0.929405 0.973615 -2.05021)
(0.98246 1.14731 -1.76928)
(0.755778 1.336 -1.63144)
(-2.16367 0.216859 2.57361)
(-2.47667 0.129556 2.60561)
(-2.76481 0.384327 2.66054)
(-2.60858 0.296595 2.7349)
(-2.93656 -0.422045 2.8732)
(-3.07883 0.6767 2.62581)
(-2.83849 0.475808 2.91841)
(-3.09454 0.127576 2.98211)
(-3.17729 0.541469 2.7996)
(-3.19511 1.02555 2.81812)
(-3.56053 0.104216 2.64238)
(-3.47156 0.488166 2.65862)
(-3.14832 0.459836 2.82746)
(-3.14016 0.538695 2.81171)
(-3.72641 0.24982 2.5429)
(-3.75564 0.361962 2.35611)
(-3.53622 0.513142 2.30156)
(-3.12014 0.0796537 2.69921)
(-3.02633 0.794121 1.97509)
(-3.90162 0.155609 2.27045)
(-3.90955 0.378892 1.90239)
(-3.20103 0.0829774 2.37837)
(-3.15623 0.0205044 1.73797)
(-2.91608 0.252422 1.1198)
(-2.97551 0.554891 0.751811)
(-3.96631 -0.129965 1.65301)
(-3.55397 -0.160519 1.81263)
(-2.97731 -0.545315 1.8797)
(-2.90232 -0.595094 0.981225)
(-2.85558 -0.480397 0.478962)
(-2.8986 -0.0549005 -0.0231437)
(-3.08617 0.252753 0.00749216)
(-3.62126 -0.654767 1.57924)
(-3.06224 -0.883128 1.7814)
(-2.76329 -1.31888 1.20114)
(-2.66849 -1.33095 0.19839)
(-2.90906 -1.08252 0.235993)
(-3.0008 -0.581481 0.0528591)
(-3.15715 0.097866 0.282133)
(-3.289 0.937176 0.234344)
(-3.16402 -1.1347 0.732269)
(-2.39464 -1.83739 0.666798)
(-2.37182 -1.92664 0.395997)
(-2.39384 -1.74451 0.124027)
(-2.7872 -1.34012 0.472849)
(-2.87938 -0.783336 0.247794)
(-3.19541 0.0787761 -0.0713036)
(-3.22633 0.457615 -0.201584)
(-2.53581 1.16002 -1.42755)
(-1.4771 -1.95185 -0.481105)
(-1.86314 -1.73643 -0.363774)
(-2.01435 -1.87975 0.172455)
(-2.24517 -1.56536 0.0369429)
(-2.23455 -1.40507 0.0703111)
(-2.69325 -0.675439 -0.0881657)
(-2.89176 -0.296609 -0.807863)
(-2.805 0.217884 -0.928159)
(-2.51832 0.836219 -1.51584)
(-1.99411 1.3125 -2.0686)
(-1.47495 -1.52085 -0.76994)
(-1.73734 -1.09011 -0.938899)
(-1.84708 -1.15753 -1.1179)
(-2.05029 -0.968793 -1.52226)
(-2.0578 -0.767597 -1.48445)
(-2.36782 -0.153996 -1.786)
(-2.41225 -0.108437 -1.56999)
(-2.55324 0.311998 -1.81098)
(-2.28258 0.410386 -2.43276)
(-1.9992 0.9274 -2.76018)
(-1.47375 1.43979 -2.81306)
(-0.824781 -1.10043 -0.867333)
(-1.27006 -0.892478 -1.38546)
(-1.43398 -0.878919 -1.82987)
(-1.426 -0.825091 -2.19466)
(-1.78845 -0.158902 -2.24443)
(-1.74993 0.137662 -2.32912)
(-2.01399 -0.232982 -2.1425)
(-2.28709 0.0721031 -2.2717)
(-2.05557 0.533363 -2.7871)
(-1.81435 1.04809 -2.91895)
(-1.15629 1.46761 -2.93832)
(-0.850881 1.78141 -2.69706)
(-0.671412 -0.309417 -1.63492)
(-1.00342 -0.397283 -1.6169)
(-0.808472 -0.321309 -2.14712)
(-0.631749 -0.239095 -2.05207)
(-0.668395 0.0818759 -1.99919)
(-1.7121 0.879988 -1.42455)
(-1.45373 0.348263 -2.33956)
(-1.81005 -0.014188 -2.49938)
(-1.8392 0.708778 -2.85484)
(-1.07242 1.08979 -3.09052)
(-0.321694 1.13507 -2.98281)
(-0.24728 1.28981 -2.67907)
(-0.0977235 1.49664 -2.358)
(-0.361718 0.0608496 -1.5677)
(0.216851 -0.169961 -1.57687)
(0.22987 0.0591494 -1.69066)
(0.0251196 0.462658 -1.61025)
(-0.287822 0.573377 -1.52573)
(-0.942381 0.691867 -1.44795)
(-1.2813 0.855331 -1.94962)
(-0.573605 0.338783 -2.78566)
(-0.108663 0.420612 -3.02766)
(0.191026 1.0252 -2.70897)
(0.209566 1.39639 -2.49505)
(0.190023 1.25687 -2.36146)
(0.506468 1.31019 -2.07718)
(0.583116 1.53312 -1.77967)
(-0.102208 0.70697 -1.72138)
(0.499545 0.629259 -1.56954)
(0.462654 0.567627 -1.4561)
(0.30567 0.782426 -1.39052)
(0.0202923 1.00188 -1.31938)
(-0.211855 1.06161 -1.58373)
(-0.00743545 1.0352 -1.61303)
(0.142062 1.04685 -1.84291)
(0.63242 0.935985 -1.8902)
(0.928638 1.28289 -1.83242)
(1.09326 1.20872 -1.79631)
(0.937208 0.968512 -2.03055)
(1.00652 1.12414 -1.74792)
(0.774496 1.31681 -1.61669)
(0.844645 1.18792 -1.41512)
(-2.0045 -0.0752255 2.52505)
(-2.24626 0.121496 2.54868)
(-2.30201 0.0818773 2.59807)
(-2.55019 0.160638 2.61815)
(-2.52608 0.286439 2.67116)
(-2.87425 0.277283 2.73811)
(-2.8125 0.306727 2.77805)
(-2.80457 0.217582 2.849)
(-3.00542 0.204861 2.86337)
(-3.13193 0.0944139 2.7269)
(-3.19462 0.495883 2.71134)
(-2.91586 0.635234 2.95173)
(-3.17686 -0.384238 2.88076)
(-3.38978 0.163572 2.74789)
(-3.10427 0.143745 3.07002)
(-3.08153 0.687704 3.01882)
(-3.60243 -0.0406899 2.67174)
(-3.56791 0.266924 2.66021)
(-3.38128 0.519772 2.75218)
(-3.08651 1.12767 2.67879)
(-2.91484 0.692863 2.80126)
(-3.78549 -0.269647 2.46694)
(-3.81815 0.401017 2.27695)
(-3.36194 0.192475 2.5481)
(-3.01881 0.104661 2.52304)
(-3.19199 0.413121 1.70564)
(-3.07258 0.640475 1.23327)
(-4.09871 -0.37543 1.84214)
(-3.75012 -0.088971 1.98818)
(-3.14474 -0.344953 2.47599)
(-3.17938 -0.246286 1.63275)
(-3.22793 0.0211558 0.671993)
(-2.99789 0.269861 -0.202317)
(-3.13846 0.735555 0.0165481)
(-3.50394 -0.852734 1.88335)
(-3.18236 -0.566928 1.96243)
(-2.87054 -0.911053 1.67259)
(-2.93555 -0.64003 0.443477)
(-3.02738 -0.374349 0.231253)
(-2.91686 -0.110873 -0.367489)
(-2.98501 0.577481 -0.341137)
(-3.17987 1.35795 0.129325)
(-3.12165 -1.26155 1.60827)
(-2.78812 -1.31656 1.54955)
(-2.67104 -1.61906 0.83298)
(-2.68959 -1.35449 0.0577837)
(-2.82613 -0.97523 0.0276301)
(-2.93146 -0.514566 0.0709963)
(-3.12925 0.28236 0.0803605)
(-3.29419 1.11391 -0.0305841)
(-2.89547 1.61859 -0.764203)
(-2.32137 -1.81178 0.590687)
(-2.27894 -1.9812 0.715288)
(-2.31327 -2.20467 0.145848)
(-2.4637 -1.82509 -0.298285)
(-2.69363 -1.39038 -0.255692)
(-3.01679 -0.793082 0.182707)
(-3.179 0.0993547 -0.20293)
(-3.16889 0.428188 -0.51012)
(-2.63763 1.04058 -1.40351)
(-1.77648 1.29894 -2.33566)
(-1.48938 -2.21153 0.69524)
(-1.76817 -2.04889 -0.111722)
(-1.84406 -2.19025 -0.127404)
(-2.13241 -1.94435 0.0167786)
(-2.29229 -1.46728 0.0300935)
(-2.78056 -0.607673 -0.536724)
(-3.06153 0.0129985 -0.521884)
(-2.84627 0.222983 -1.03027)
(-2.50081 0.825035 -1.68722)
(-2.12612 1.31756 -2.09107)
(-1.49025 1.42702 -2.68954)
(-1.38902 -1.7533 -0.753783)
(-1.64984 -1.38479 -0.957421)
(-1.91611 -1.38372 -0.946379)
(-1.84946 -1.48927 -1.08079)
(-2.11793 -0.888173 -1.46856)
(-2.45322 -0.135507 -1.73323)
(-2.41801 -0.0103179 -1.79046)
(-2.51985 0.154003 -2.01208)
(-2.28425 0.547664 -2.51528)
(-2.02764 0.909537 -2.74205)
(-1.42687 1.42652 -2.85559)
(-0.899078 1.62981 -2.76265)
(-0.839915 -1.24208 -0.863461)
(-1.38302 -0.799714 -1.43317)
(-1.44051 -1.0139 -1.71953)
(-1.44481 -0.900887 -2.19495)
(-1.696 -0.308234 -2.29705)
(-1.65006 0.0507008 -2.47871)
(-1.90555 -0.306173 -2.34333)
(-2.2737 0.0708815 -2.39261)
(-2.11908 0.583247 -2.70837)
(-1.77198 0.881757 -2.93396)
(-1.01406 1.49076 -2.94057)
(-0.868793 1.74162 -2.65712)
(-0.513671 1.3742 -2.77623)
(-0.598036 -0.40911 -1.69827)
(-0.839938 -0.546737 -1.71364)
(-0.604564 -0.475648 -2.1345)
(-0.55181 -0.292167 -1.96173)
(-0.590197 0.0437896 -1.92126)
(-1.65799 0.771847 -1.49784)
(-1.56431 0.309038 -2.32521)
(-1.8083 0.0723489 -2.55721)
(-1.83512 0.816301 -2.73322)
(-0.93107 0.889993 -3.14791)
(-0.337154 1.23053 -2.83411)
(-0.203837 1.2821 -2.55212)
(0.00980345 1.23395 -2.41438)
(0.183483 1.55838 -2.08151)
(-0.306663 -0.00658371 -1.55697)
(0.309126 -0.198779 -1.60382)
(0.256664 0.0575686 -1.68554)
(0.079795 0.42105 -1.61309)
(-0.284731 0.540537 -1.55862)
(-0.895612 0.643577 -1.44019)
(-1.22958 0.746342 -2.05439)
(-0.571061 0.309833 -2.73112)
(-0.0846624 0.487684 -2.86913)
(0.232109 1.00971 -2.61515)
(0.210855 1.45273 -2.43182)
(0.282647 1.13693 -2.35327)
(0.532773 1.31001 -2.04578)
(0.610878 1.48471 -1.79214)
(0.48233 1.402 -1.61751)
(-0.132413 0.711142 -1.71663)
(0.514387 0.634619 -1.56736)
(0.479568 0.542377 -1.45582)
(0.329676 0.75685 -1.38119)
(0.0419605 0.985085 -1.32106)
(-0.169274 1.03156 -1.58431)
(-0.00725606 1.0499 -1.59366)
(0.133711 1.06168 -1.84116)
(0.660135 0.89656 -1.87828)
(0.946104 1.29118 -1.80608)
(1.10746 1.22431 -1.77339)
(0.962225 0.973534 -2.00763)
(1.03404 1.09813 -1.73092)
(0.787557 1.28746 -1.60557)
(0.863365 1.17795 -1.40713)
(0.918885 1.15075 -1.3293)
(-2.13145 -0.0110634 2.49991)
(-1.74273 -0.341981 2.79138)
(-1.9214 -0.125267 2.84923)
(-2.54514 0.29242 2.45763)
(-2.44184 0.0411951 2.68213)
(-2.30278 -0.465947 2.95403)
(-2.54018 -0.0875923 2.61435)
(-2.57384 -0.269799 2.73645)
(-2.60213 0.0808788 2.85891)
(-2.85191 0.153472 2.76704)
(-2.98683 -0.0978128 2.80561)
(-2.87736 -0.0170051 2.95751)
(-2.7881 0.196608 3.07879)
(-2.9452 -0.223029 2.96156)
(-3.18569 0.183622 2.80879)
(-3.09091 -0.136791 2.97431)
(-2.69239 0.695397 3.3349)
(-2.88954 0.971735 3.12255)
(-3.39 0.13814 2.82749)
(-3.46234 -0.156679 2.76102)
(-3.17396 -0.241612 3.08747)
(-3.10544 0.65871 2.98942)
(-3.03318 0.502979 3.20617)
(-3.59755 -0.498003 2.74734)
(-3.59081 0.0479195 2.69223)
(-3.51546 0.283979 2.86115)
(-3.21371 0.77515 2.85005)
(-3.08065 1.15187 2.48988)
(-2.9905 0.818051 2.20347)
(-3.71641 -0.622196 2.52752)
(-3.49765 -0.263279 2.54727)
(-2.99574 -0.386613 2.95445)
(-2.94052 -0.121034 2.58651)
(-3.3188 0.193976 1.50434)
(-3.17756 0.382734 0.752048)
(-3.12866 0.531404 1.20474)
(-3.7957 -0.877394 2.05624)
(-3.34478 -0.649078 2.36629)
(-3.32722 -0.400592 2.07877)
(-3.27653 -0.612196 1.25879)
(-3.2478 -0.329297 0.608306)
(-3.04895 0.276809 -0.192959)
(-3.06751 0.866413 -0.150574)
(-3.05791 1.2686 0.191099)
(-3.37765 -1.08809 2.05348)
(-2.90344 -1.18824 1.74773)
(-2.91592 -1.11325 1.27388)
(-3.04606 -0.758384 0.131195)
(-3.04933 -0.766858 -0.257697)
(-2.85867 -0.0493769 -0.877729)
(-2.91858 0.848049 -0.480737)
(-3.11772 1.44113 -0.049311)
(-2.93771 1.98026 0.19665)
(-2.8258 -1.65812 1.20469)
(-2.3956 -1.89986 0.881939)
(-2.62146 -1.82367 0.603819)
(-2.67575 -1.39049 -0.402497)
(-2.65165 -1.0164 -0.504832)
(-2.8501 -0.448347 -0.111599)
(-3.12801 0.368619 -0.0155728)
(-3.31326 1.09145 -0.293078)
(-2.90646 1.52171 -1.00431)
(-2.26974 1.98446 -1.1303)
(-1.59165 -2.38548 0.336266)
(-2.14196 -2.33284 0.320345)
(-2.26201 -2.37769 0.0462515)
(-2.3918 -1.88761 -0.427211)
(-2.66395 -1.21093 -0.386709)
(-3.16874 -0.522475 -0.199744)
(-3.21152 0.0854063 -0.325601)
(-3.15304 0.41011 -0.671408)
(-2.68602 0.996268 -1.43916)
(-1.91738 1.36113 -2.28095)
(-1.34758 1.54062 -2.47345)
(-1.44299 -2.39244 -0.424402)
(-1.65705 -2.32462 -0.345636)
(-1.82261 -2.31333 -0.413669)
(-2.11728 -2.07329 -0.214626)
(-2.43091 -1.44239 -0.107187)
(-2.80206 -0.674924 -0.619551)
(-2.99439 -0.265996 -0.828805)
(-2.8509 0.157232 -1.3328)
(-2.5472 0.80251 -1.75481)
(-2.11234 1.21563 -2.32329)
(-1.76522 1.50568 -2.53076)
(-1.20442 1.57004 -2.71154)
(-1.24022 -1.90768 -0.934871)
(-1.25382 -1.85007 -0.862456)
(-1.72933 -1.74193 -0.681763)
(-1.89616 -1.4988 -1.12052)
(-2.27791 -0.749804 -1.55655)
(-2.46031 -0.222356 -1.70592)
(-2.38399 -0.0217033 -1.97636)
(-2.45246 0.00883098 -2.21151)
(-2.3728 0.36027 -2.56222)
(-2.06849 0.823813 -2.67712)
(-1.34983 1.42863 -2.89043)
(-0.980731 1.56265 -2.70745)
(-0.91015 1.51881 -2.72328)
(-0.990895 -1.17985 -0.826248)
(-1.19069 -1.30256 -1.24088)
(-1.46917 -1.12787 -1.62045)
(-1.56425 -0.849404 -2.14449)
(-1.61243 -0.362569 -2.34563)
(-1.72857 0.0935529 -2.39858)
(-1.94172 -0.259298 -2.3247)
(-2.31269 0.066253 -2.41359)
(-2.22829 0.558209 -2.62706)
(-1.72621 0.79209 -2.91644)
(-0.92298 1.35526 -2.94727)
(-0.71607 1.6076 -2.59875)
(-0.442682 1.33993 -2.71424)
(-0.259797 1.43988 -2.45265)
(-0.581904 -0.406483 -1.69004)
(-0.751164 -0.576931 -1.72912)
(-0.515277 -0.498114 -2.06549)
(-0.230852 -0.485685 -1.91287)
(-0.486087 0.0345088 -1.85504)
(-1.59156 0.707182 -1.60454)
(-1.74738 0.362824 -2.20308)
(-1.77742 0.0739969 -2.57278)
(-1.74858 0.811598 -2.71922)
(-0.792664 0.708799 -3.17372)
(-0.250633 1.22402 -2.75876)
(-0.0860779 1.28764 -2.42923)
(0.105954 1.19538 -2.33321)
(0.230227 1.40121 -2.11695)
(0.237583 1.16269 -2.0427)
(-0.263993 -0.0692751 -1.54624)
(0.337846 -0.196063 -1.61327)
(0.313112 0.0345104 -1.68772)
(0.125735 0.359233 -1.61108)
(-0.358976 0.591215 -1.5549)
(-0.911132 0.688174 -1.47413)
(-1.16553 0.65707 -2.06357)
(-0.566957 0.303935 -2.67429)
(-0.0453953 0.559736 -2.72304)
(0.256964 1.04513 -2.50995)
(0.28832 1.40535 -2.42559)
(0.376307 1.07775 -2.29823)
(0.591386 1.29578 -2.02023)
(0.64469 1.46368 -1.78023)
(0.489934 1.38774 -1.60144)
(0.783866 0.993958 -1.39003)
(-0.120111 0.707038 -1.71582)
(0.437788 0.674798 -1.56859)
(0.533545 0.539008 -1.43387)
(0.371946 0.735766 -1.37297)
(0.0596974 0.9819 -1.32206)
(-0.154377 1.01586 -1.5768)
(-0.00933196 1.06813 -1.56839)
(0.124868 1.06233 -1.83985)
(0.681749 0.880908 -1.85014)
(0.946301 1.27688 -1.80173)
(1.14259 1.26728 -1.72028)
(0.99476 0.982352 -1.98561)
(1.05902 1.09281 -1.71184)
(0.816101 1.25442 -1.59629)
(0.870496 1.17687 -1.40001)
(0.928473 1.12282 -1.34327)
(1.14434 0.595316 -1.50927)
(-1.96881 -0.100265 2.3191)
(-2.09742 -0.200826 2.53119)
(-2.09339 0.0318195 2.54758)
(-1.9305 -0.0976224 2.75014)
(-2.03015 -0.180693 2.81781)
(-2.2895 0.11698 2.63363)
(-2.55121 0.0978153 2.43483)
(-2.33235 -0.292731 2.83134)
(-2.26512 -0.398482 2.98292)
(-2.39215 0.372536 2.90258)
(-2.5724 -0.186678 2.60674)
(-2.76687 0.209661 2.73244)
(-2.87044 0.134074 2.75831)
(-2.54985 0.0864199 3.04624)
(-2.89178 -0.251604 2.76034)
(-2.90851 -0.245277 2.83968)
(-2.90787 -0.163561 2.93675)
(-2.78874 -0.0362024 3.16438)
(-2.86573 0.706317 3.0911)
(-3.0635 -0.285341 2.90422)
(-3.33581 -0.148074 2.7537)
(-3.14255 -0.260427 3.03089)