/*--------------------------------*- C++ -*----------------------------------*\
  =========                 |
  \\      /  F ield         | OpenFOAM: The Open Source CFD Toolbox
   \\    /   O peration     | Website:  https://openfoam.org
    \\  /    A nd           | Version:  7
     \\/     M anipulation  |
\*---------------------------------------------------------------------------*/
FoamFile
{
    version     2.0;
    format      ascii;
    class       volScalarField;
    location    "4.5";
    object      nut;
}
// * * * * * * * * * * * * * * * * * * * * * * * * * * * * * * * * * * * * * //

dimensions      [0 2 -1 0 0 0 0];

internalField   nonuniform List<scalar> 
18750
(
0.000453489
0.000876666
0.000297072
0.000419856
0.00129458
0.000792424
0.000683167
0.000505796
0.000300584
0.000429096
0.00269514
0.00085633
0.00111077
0.00081986
0.000650493
0.000653362
0.000875434
0.000442701
0.000305151
0.000438787
0.00272826
0.000963296
0.00266315
0.00204112
0.001304
0.00130078
0.000638979
0.000524716
0.000620355
0.000645116
0.000249688
0.000847105
0.000387918
0.000312178
0.000449093
0.0030025
0.00184297
0.00280752
0.00125353
0.00173173
0.00250661
0.00167436
0.0020395
0.00209472
0.00143239
0.000513299
0.000683913
0.000479131
0.000640844
0.000600653
0.000325067
0.000221299
0.000826644
0.000347907
0.00030837
0.000451538
0.00260976
0.000605121
0.00298271
0.00157844
0.000842844
0.00333945
0.0029734
0.00082783
0.00136148
0.00252701
0.00099143
0.00161239
0.00140048
0.0012225
0.00154402
0.000414694
0.000570245
0.000448007
0.00046971
0.000676058
0.000600272
0.000171354
0.000220208
0.000293107
0.000799092
0.000347433
0.000305274
0.000438282
0.00228952
0.000974185
0.00218193
0.000836044
0.000982143
0.0031163
0.00159772
0.00202126
0.00102331
0.0034533
0.00160372
0.00143875
0.00129768
0.00031915
0.00265368
0.000828729
0.000680713
0.00134369
0.00138546
0.00152867
0.00137517
0.000687733
0.000455438
0.000517088
0.000516772
0.00045526
0.000550099
0.000631241
0.000287076
0.000146441
0.000272743
0.000196389
0.000755415
0.000321144
0.000290969
0.000426214
0.00240592
0.000520466
0.00237374
0.000757169
0.000831489
0.002246
0.00086078
0.000522172
0.00132002
0.00246887
0.000338865
0.00123363
0.00115333
0.00148927
0.00340399
0.00173496
0.00293924
0.00163562
0.00179818
0.000385917
0.00279484
0.000839087
0.000865406
0.000805261
0.000960929
0.00166462
0.002508
0.000998233
0.000494264
0.000648641
0.000500862
0.000292007
0.000459231
0.000448475
0.000476355
0.000625217
0.00023288
0.000307452
0.00024882
0.00025308
0.000245403
0.000708755
0.000309599
0.00029043
0.000437835
0.00247018
0.000689374
0.00228981
0.000841001
0.000341305
0.002478
0.000533416
0.000654692
0.000769561
0.00218306
0.00109274
0.00118511
0.00087942
0.00133421
0.0017457
0.00116328
0.000826974
0.000805924
0.0018995
0.00164444
0.0035149
0.0010973
0.0012882
0.00272706
0.0029049
0.00161443
0.00111674
0.00235147
0.00100069
0.000903028
0.000847248
0.000863243
0.000803542
0.00174778
0.00179008
0.00108602
0.000531956
0.000555791
0.000745278
0.00042763
0.000252754
0.000390613
0.000344696
0.000466026
0.000604698
0.000228134
0.000243498
0.000201152
0.00019904
0.000136966
0.000229365
0.000621027
0.000369655
0.000291492
0.000473816
0.00230025
0.000731122
0.00235306
0.000282143
0.000623119
0.00220859
0.000567884
0.000405216
0.00061587
0.00212182
0.00107875
0.000935147
0.00054106
0.00136172
0.0025419
0.00136799
0.00121077
0.00131728
0.00169185
0.0018615
0.00164944
0.000948876
0.00129601
0.00217894
0.00106676
0.00155679
0.00176214
0.00340686
0.000902665
0.000991477
0.00137366
0.00205892
0.00291157
0.00125305
0.00138435
0.00304165
0.00117696
0.00105749
0.00104137
0.00102346
0.000732716
0.000913483
0.00145611
0.00165523
0.00147738
0.000379645
0.000539833
0.000460225
0.000690535
0.000691217
0.000368926
0.00033615
0.00037666
0.000448253
0.000658947
0.000179689
0.000212232
0.000167823
0.000152422
0.00016643
0.000127722
0.000219171
0.000362215
0.000393429
0.000294481
0.000418616
0.00235153
0.000735242
0.00227226
0.000576876
0.000481117
0.00235366
0.000325996
0.000194991
0.000459234
0.00231476
0.000807672
0.000482151
0.00126905
0.000768094
0.00224013
0.0013038
0.0011975
0.00135309
0.00191102
0.00168151
0.00242602
0.00125485
0.00117963
0.00122552
0.000910171
0.00122009
0.00237936
0.00270389
0.000982946
0.00103425
0.00110807
0.00270192
0.00178794
0.00102882
0.00212892
0.00306212
0.000951501
0.000911144
0.00102596
0.00132567
0.00196107
0.00217536
0.00209053
0.00090082
0.00307417
0.00122448
0.00117975
0.00114119
0.00124731
0.000913643
0.000586721
0.00085256
0.000995143
0.00143469
0.00130789
0.00048765
0.000395595
0.000546531
0.000605466
0.000672939
0.000637588
0.000318364
0.000332173
0.000473846
0.000458111
0.00082407
0.000145005
0.000173345
0.000212891
0.000214565
0.000234666
0.000215926
0.000253983
0.000260263
0.00038733
0.000411889
0.000314843
0.000415725
0.0022467
0.000930763
0.00224262
0.00064516
0.000864951
0.00236226
0.000509371
0.000674161
0.000762519
0.00240587
0.00080831
0.000393162
0.000484483
0.000936391
0.00237927
0.00086494
0.00065015
0.000466841
0.000592646
0.00072401
0.00234019
0.00139369
0.00144217
0.00142006
0.00119103
0.00176017
0.00185788
0.00217382
0.00105844
0.000764233
0.00144731
0.00117429
0.00145848
0.00165209
0.00236665
0.00254698
0.000573865
0.000819452
0.0011023
0.00165811
0.00202712
0.00145429
0.000923767
0.00212589
0.00330084
0.000961263
0.000729964
0.000839538
0.00105496
0.00122541
0.0014808
0.0017458
0.00285425
0.00235861
0.00251724
0.00100455
0.00123733
0.00133239
0.00125577
0.00133812
0.00114644
0.000794335
0.000860908
0.00100069
0.000636908
0.00104307
0.000529889
0.000461045
0.000396144
0.000405526
0.000402844
0.000580836
0.000529187
0.000220795
0.000356695
0.000519062
0.000340428
0.000709372
0.000176337
0.00013352
0.00017093
0.000210919
0.000199675
0.000154735
0.000142419
0.000204435
0.000286748
0.000462819
0.000460396
0.000349163
0.000469655
0.00218105
0.000595644
0.00204571
0.000855075
0.00072005
0.00232113
0.000613215
0.000640298
0.000812292
0.00239015
0.000675496
0.000445603
0.00051329
0.000642769
0.00239407
0.000806171
0.000325486
0.000411207
0.000538689
0.00100592
0.00239311
0.000586644
0.000696478
0.000561227
0.00111491
0.000574848
0.000879933
0.00236035
0.000895446
0.00107856
0.00106647
0.00143022
0.0022023
0.00164403
0.00140066
0.00219942
0.000958769
0.000806434
0.000634612
0.000930618
0.00167619
0.00187766
0.00187381
0.00223514
0.00228924
0.000741762
0.00120823
0.0011812
0.00128186
0.00202767
0.00327422
0.00122635
0.0006768
0.00225999
0.00341725
0.000886726
0.000946933
0.000672737
0.00122556
0.00124012
0.00131365
0.00113057
0.00116987
0.00198551
0.00190984
0.0023791
0.000911235
0.000977091
0.00137128
0.00147977
0.00130707
0.00148839
0.00133184
0.000605361
0.000781363
0.000683337
0.000402928
0.00163287
0.000462485
0.000718965
0.000550393
0.000459622
0.000198501
0.000261215
0.000565084
0.000370428
0.000615
0.000341594
0.000474469
0.000305666
0.000713361
0.000175076
0.000177732
0.000158377
0.000192007
0.000225971
4.34404e-05
0.000220327
0.000123801
4.69221e-05
0.000227614
0.000425514
0.00037659
0.000389511
0.000430581
0.00232823
0.000474179
0.00198287
0.000832376
0.000481167
0.00205717
0.000601849
0.000900279
0.000599007
0.00232206
0.000319178
0.000469946
0.000508968
0.000706014
0.00238857
0.000676985
0.000294071
0.000503221
0.000797766
0.000697674
0.00232631
0.000718581
0.000648137
0.000922311
0.000812554
0.000845826
0.0010454
0.00241724
0.000582413
0.000558536
0.000729769
0.00163133
0.000915973
0.000767862
0.00102499
0.00233272
0.000606529
0.000959393
0.00095738
0.00136466
0.00178035
0.00175233
0.00140071
0.00131518
0.0024119
0.000683699
0.000854063
0.000432341
0.000469263
0.000424018
0.000914083
0.00189741
0.00190282
0.0023156
0.0026241
0.000728493
0.00126123
0.0012841
0.00119058
0.00118919
0.00180891
0.00247606
0.00199261
0.00272135
0.00192157
0.00368376
0.000835198
0.000940523
0.00117424
0.000958233
0.00158467
0.00160962
0.000935745
0.000852547
0.00115341
0.000900678
0.00112379
0.00266739
0.000918549
0.000863534
0.00101299
0.00136238
0.0014905
0.00112291
0.0013849
0.00131838
0.000579234
0.000779144
0.000487199
0.000577522
0.00147568
0.000239304
0.000675865
0.000552685
0.000671726
0.000493559
0.000338376
0.000126752
0.000476766
0.00103499
0.000312226
0.00061891
0.000372097
0.000276876
0.000838856
0.000109237
0.000196292
0.000238649
0.000180826
0.000201089
0.000280355
0.000276601
0.000117754
0.0001984
0.000202891
0.000263778
0.00030825
0.000285493
0.000424831
0.000406216
0.00243961
0.000457036
0.0021571
0.000417501
0.000529377
0.00208079
0.000577563
0.000649748
0.000670896
0.0021265
0.000417343
0.000444286
0.000941175
0.000482139
0.00227961
0.000370864
0.000340946
0.000512383
0.000420034
0.00070365
0.00247611
0.000517348
0.000332396
0.000646593
0.000762451
0.00059358
0.00127814
0.00248008
0.000734431
0.000736004
0.000714038
0.000786868
0.000558493
0.000863203
0.000905502
0.00250759
0.000552828
0.000932338
0.000655432
0.000879845
0.000549344
0.000732421
0.000840563
0.00101871
0.00230994
0.000692343
0.000721167
0.000773727
0.000938586
0.00117581
0.001241
0.00178819
0.00184879
0.00190651
0.0025431
0.000286022
0.000719052
0.00042743
0.00108189
0.000874415
0.000828251
0.000430452
0.00156687
0.00203217
0.0018329
0.00275461
0.000601009
0.000694914
0.0014392
0.00120294
0.0011815
0.000866582
0.00128408
0.00146092
0.00223086
0.0023176
0.00134527
0.00323844
0.000636705
0.000789015
0.000939161
0.00131042
0.00134084
0.00166013
0.00126001
0.00113187
0.00111788
0.00125427
0.000952097
0.00102206
0.00247622
0.00114777
0.000929207
0.000902493
0.00114329
0.00140033
0.00143227
0.00102632
0.00119555
0.00104809
0.000819946
0.000763208
0.000525358
0.00045377
0.00146105
0.000527196
5.99017e-05
0.00105469
0.000445412
0.000716283
0.000365217
0.000374748
0.000136898
0.000430194
0.000459053
0.000241992
0.000712906
0.000339641
0.000234156
0.000785425
0.000182726
0.000103504
0.000203397
0.000275984
0.000102244
0.000250635
0.000310512
0.000178534
5.48007e-05
6.92637e-05
6.67072e-05
0.000217785
0.000303573
0.000334326
0.000456576
0.000455492
0.00227601
0.000478086
0.00226928
0.000408859
0.000479088
0.00222831
0.000322403
0.000302498
0.000471127
0.00208036
0.00045563
0.000699328
0.000492209
0.000491007
0.00210815
0.000436455
0.000479587
0.000850306
0.000757311
0.000680503
0.00231926
0.000525889
0.000402618
0.000452016
0.000659897
0.000554371
0.00061859
0.00243973
0.000472285
0.000400431
0.00035001
0.000315638
0.000382652
0.000525469
0.00100586
0.00257978
0.0006168
0.000391328
0.000492192
0.000600697
0.000309741
0.000766583
0.000336877
0.000812589
0.00252977
0.000654808
0.000509518
0.000739743
0.000883175
0.000651213
0.00117009
0.000941371
0.000776968
0.000981294
0.00245709
0.000751817
0.000808655
0.000833377
0.000777665
0.000933718
0.000968245
0.00135729
0.00113952
0.00174079
0.00165375
0.00269719
0.000363159
0.000392668
0.000708741
0.00104033
0.000724402
0.00109011
0.00125507
0.000918746
0.000494378
0.00103063
0.00215675
0.00284016
0.000725136
0.000459829
0.00061558
0.000862156
0.00113651
0.00150238
0.00105481
0.00111213
0.00118921
0.00133992
0.0010802
0.00114526
0.00315546
0.000808969
0.000469233
0.000723451
0.000959608
0.00132465
0.0017363
0.001051
0.00122469
0.00108403
0.000761771
0.00123838
0.00133904
0.00112783
0.00236975
0.000792975
0.0010292
0.000972791
0.00097594
0.00134083
0.00132463
0.00122826
0.000846798
0.000884071
0.00125083
0.00051875
0.000566937
0.000653142
0.000748335
0.00179626
0.000484957
0.000359786
0.000369937
0.000385752
0.000410009
0.00069687
0.000295689
0.000190817
0.000811516
0.000287794
0.000666338
0.000527046
0.000777162
0.000317793
0.000213758
0.00079976
0.000113795
0.000173454
0.000102042
0.000210814
0.000268662
0.000162442
0.00017146
0.000331693
0.000133114
2.90386e-05
0.000110593
3.69558e-05
0.000229213
0.000322464
0.000456653
0.000466806
0.000444327
0.0022534
0.000596908
0.00209897
0.000497303
0.000425598
0.00224689
0.000343992
0.000373015
0.000432794
0.00217781
0.000560319
0.000327946
0.000345265
0.00031339
0.00212184
0.000289818
0.000433614
0.000720159
0.000437798
0.000651745
0.00223877
0.000540512
0.000332444
0.00046906
0.000976616
0.000659469
0.000910562
0.00240701
0.000407624
0.000552044
0.000474741
0.000411892
0.000657894
0.000456162
0.000532143
0.00244213
0.000484161
0.000818809
0.000615007
0.000533881
0.000669583
0.000786719
0.000697471
0.000689918
0.00245872
0.000678897
0.000445369
0.000773059
0.000498401
0.000574277
0.00106288
0.000803315
0.000305141
0.000810013
0.00251365
0.000487951
0.000691049
0.000321803
0.000457469
0.000576961
0.000775848
0.00118214
0.000797877
0.00113328
0.000939471
0.00258981
0.000785715
0.000621558
0.000577161
0.000756489
0.000554153
0.000746925
0.000887085
0.00137981
0.00171326
0.00169144
0.00105356
0.00246927
0.000811986
0.000337893
0.000407777
0.000844191
0.000867767
0.000868919
0.00121627
0.000866411
0.000964145
0.0014665
0.0017544
0.00189827
0.00272028
0.000713554
0.000592796
0.000490342
0.000597678
0.000966123
0.000857067
0.00172197
0.00105127
0.00121003
0.00121647
0.0011242
0.00110399
0.00106787
0.00233039
0.00131087
0.00130579
0.00070711
0.000661334
0.00109185
0.0016497
0.00209391
0.00131766
0.00095327
0.00100314
0.000939319
0.000968518
0.00114617
0.000882301
0.00214964
0.000331438
0.000713274
0.00102824
0.00104154
0.00106886
0.00124294
0.00112044
0.000966697
0.000769165
0.000623024
0.000994706
0.000818761
0.000585181
0.000605069
0.000406687
0.00160647
0.000219124
0.000374158
0.000210461
0.000258009
0.000650933
0.00040428
0.000535906
0.000306827
0.000251831
0.000174908
0.00057308
0.000591255
0.000252175
0.00060461
0.000397984
0.000248144
0.000785426
0.000115413
0.000106013
0.000163316
0.000104591
0.000170021
0.00022047
0.00027264
0.000371765
0.000311709
0.000120005
6.68105e-05
0.000129447
0.000153214
0.000285135
0.000477449
0.000527976
0.000451309
0.000420882
0.00232908
0.000459821
0.00217726
0.000449839
0.000580534
0.00214527
0.000396597
0.000409208
0.000464989
0.00212661
0.000570134
0.000338876
0.000328804
0.000437804
0.00216461
0.000276733
0.000523421
0.000433725
0.000282353
0.000430001
0.00213207
0.00039123
0.000278189
0.000291031
0.000457221
0.000392217
0.000657976
0.00227091
0.000441158
0.000521313
0.000471248
0.000392066
0.00064556
0.000405058
0.000742402
0.00243355
0.000475918
0.000545402
0.000693507
0.000409737
0.00031813
0.000708386
0.000194233
0.00108553
0.00278292
0.000678834
0.000529476
0.000663626
0.00042258
0.000518532
0.000474881
0.000436282
0.000756295
0.000910556
0.00222582
0.00069236
0.000594478
0.000510833
0.000244463
0.000363587
0.000856812
0.00085694
0.000460996
0.000743247
0.000685724
0.00258321
0.000507518
0.000222437
0.000422198
0.000709594
0.000709581
0.000866805
0.00133311
0.000864742
0.00157676
0.00100634
0.000950439
0.00247458
0.000973474
0.000439669
0.000600318
0.000480275
0.000896416
0.000917495
0.000798328
0.00082139
0.00120867
0.00273891
0.00140343
0.00181622
0.0024915
0.00117303
0.000696862
0.0002941
0.000302002
0.00131653
0.00100824
0.00134582
0.00113045
0.000746961
0.000513479
0.00115025
0.00134648
0.00173761
0.00285861
0.00124879
0.000704375
0.000544132
0.00107189
0.000416595
0.000533818
0.00130568
0.00132153
0.000975969
0.00126718
0.0012572
0.000954884
0.000293042
0.00107583
0.00208436
0.00143326
0.00153129
0.000952986
0.000740145
0.000907095
0.00136969
0.00222241
0.0017896
0.00109179
0.00119367
0.000751665
0.000710081
0.00140213
0.00149182
0.00122427
0.00196734
0.000522442
0.000479416
0.000664923
0.000995796
0.000986958
0.00105382
0.000924354
0.000843753
0.00079781
0.000589254
0.000821014
0.000767888
0.000405335
0.000520843
0.000361338
0.000660201
0.00146415
0.000222208
0.000228552
0.00025518
0.000410667
0.000383543
0.000489368
0.000463726
0.000327917
0.000316268
0.000356596
5.9264e-05
0.000317612
0.000333011
0.000416247
0.000327462
0.000427272
0.000276888
0.000841855
4.11279e-05
0.000117329
0.000109529
0.000135973
8.94765e-05
0.000146404
0.000175434
0.00023603
0.000185347
0.000326354
0.00012492
9.85166e-05
2.52849e-05
0.000201683
0.000345959
0.000600325
0.000607997
0.000453311
0.000481034
0.00215561
0.000213767
0.00217205
0.000676442
0.000462298
0.00221628
0.000333638
0.000500917
0.00059375
0.00216536
0.000493446
0.000370489
0.000496381
0.000433367
0.00216531
0.000395139
0.000394996
0.000209887
0.000331941
0.000412957
0.00226918
0.000444791
0.000507711
0.000337331
0.000532516
0.0003142
0.000446123
0.0022089
0.000422085
0.000336001
0.000516886
0.000320007
0.000728359
0.000332665
0.000718238
0.00224931
0.00051894
0.000514162
0.000404589
0.000474087
0.00048928
0.000572412
0.000452705
0.000627288
0.00226997
0.000725412
0.000481519
0.000408123
0.000247252
0.000407783
0.000516817
0.000510369
0.000649183
0.00104787
0.00245191
0.000556382
0.000653245
0.000527289
0.0004774
0.000475186
0.000482793
0.00042667
0.000598821
0.000957916
0.000840566
0.00230462
0.000588983
0.000327066
0.000485247
0.000712595
0.000809755
0.000956708
0.000853095
0.00066911
0.000739223
0.000795083
0.000545185
0.00264538
0.000773509
0.000543497
0.00108647
0.000607677
0.000638489
0.000865402
0.000895692
0.00104639
0.0010047
0.000637496
0.00077454
0.00072958
0.00247753
0.000289347
0.000261189
0.000363521
0.000713456
0.000865367
0.000650365
0.000577246
0.000741951
0.000927921
0.000775447
0.000639939
0.00165943
0.00172838
0.00255698
0.000600595
0.000328683
0.000544137
0.000557099
0.000639716
0.000706389
0.00109939
0.000364682
0.000706589
0.000696491
0.000221114
0.00077499
0.00142251
0.00193418
0.00256745
0.00165388
0.00113996
0.00105427
0.000423629
0.00106355
0.000688941
0.000575075
0.00219321
0.00104503
0.000942244
0.0013879
0.00121681
0.00321934
0.00105414
0.00149619
0.00246994
0.00143857
0.00133701
0.00136559
0.000999275
0.0010425
0.00102876
0.00225665
0.00189557
0.000992959
0.00126867
0.000894791
0.000792341
0.000989412
0.00110481
0.00140511
0.000811687
0.00249701
0.00057632
0.000318226
0.000522723
0.000626721
0.000950441
0.000930721
0.00103659
0.000582651
0.000658531
0.000643422
0.000791941
0.00102187
0.000658585
0.00045763
0.000661255
0.000746674
0.000475138
0.00172229
0.000199247
0.000243765
0.000262982
0.000137124
0.000535007
0.000671252
0.000460191
0.000272393
0.000317527
0.000212361
0.000299871
0.000246428
0.000301403
0.000284582
0.000448345
0.000355516
0.000505428
0.000345647
0.000957168
0.000126903
3.92005e-05
0.000126256
0.000113912
0.000135922
6.85741e-05
0.000164639
0.000183454
0.000259177
0.000361102
0.000301901
0.000137578
7.94918e-05
0.00019944
0.000227064
0.000452982
0.000679809
0.000649998
0.000452805
0.000513849
0.00220705
0.000464608
0.0021202
0.000427806
0.000234276
0.00218166
0.000361989
0.000809063
0.00045437
0.0021782
0.000338135
0.000379712
0.000573903
0.000485566
0.00214033
0.000476957
0.000379175
0.000513723
0.000388276
0.000482316
0.0021766
0.000408087
0.000462005
0.000329805
0.000458846
0.000344447
0.000562104
0.00230328
0.000465139
0.000250646
0.00044962
0.000485676
0.000256879
0.0003071
0.000490971
0.00221221
0.000329447
0.000292444
0.000254249
0.000398579
0.000648111
0.00064697
0.000381987
0.0006576
0.00232465
0.000541253
0.000348686
0.000521871
0.00035786
0.000369498
0.000602493
0.000847924
0.000520385
0.000430958
0.00240505
0.000592993
0.000320349
0.00049051
0.000556224
0.000841589
0.000624912
0.000641789
0.000684392
0.000787892
0.000614322
0.00229188
0.000533665
0.000549955
0.000441062
0.000572447
0.000677506
0.00103906
0.000599348
0.000675469
0.000874417
0.000512472
0.000588644
0.00249441
0.000570436
0.000443921
0.000775449
0.000692565
0.000535101
0.000931836
0.000621882
0.000704032
0.000539289
0.000565556
0.000405417
0.000361884
0.00257301
0.000623102
0.000631501
0.000583846
0.0013179
0.00125971
0.000764012
0.000807372
0.000675155
0.000843652
0.00100751
0.000689801
0.000664255
0.00112644
0.00230656
0.000394766
0.000587436
0.000496377
0.000364461
0.000564748
0.000852634
0.00059214
0.000391086
0.000361211
0.000359675
0.000887658
0.000695838
0.00178363
0.00120887
0.00254924
0.000667967
0.000478823
0.000457101
0.000606523
0.000698622
0.00063442
0.000923333
0.00067362
0.000617248
0.000422773
0.00064196
0.000491393
0.000588007
0.00103803
0.00124254
0.00263584
0.00244787
0.00173549
0.00096299
0.000477485
0.000427999
0.000802039
0.000536287
0.000997525
0.00212513
0.00127433
0.00107202
0.000808912
0.00125852
0.00108813
0.00113129
0.00149086
0.00275552
0.00161561
0.00125981
0.00113364
0.00138935
0.00134076
0.00160388
0.00140187
0.00202002
0.00152541
0.0010609
0.000869655
0.000780337
0.00110476
0.000826881
0.00118259
0.000877101
0.00112077
0.00263736
0.000589844
0.000412035
0.000305826
0.000534822
0.000572806
0.000866731
0.000776963
0.000847426
0.000500803
0.000648969
0.000886011
0.000850602
0.00122355
0.000614435
0.0005959
0.000807504
0.000401952
0.000677882
0.00202962
0.0002243
0.000233634
0.000253165
0.000244399
0.000151513
0.000365579
0.000336202
0.000222402
0.000152823
0.00039266
0.000175184
0.000328773
0.000214706
0.000339303
0.000440611
0.000816076
0.000503296
0.000301984
0.000397269
0.000674202
0.000230781
0.000111704
5.18417e-05
0.000134094
0.00011399
0.000120537
5.90485e-05
8.85573e-05
0.000196234
0.000269726
0.000126724
0.000266271
0.000168154
0.000108713
9.71144e-05
9.07759e-05
0.000446835
0.000800995
0.000656693
0.000436385
0.000554288
0.0021131
0.000312685
0.00208845
4.69568e-05
0.000455928
0.00210168
0.000354558
0.000440546
0.000305958
0.00221541
0.000396539
0.000413328
0.000749172
0.000436032
0.0021537
0.000482256
0.000202792
0.00037205
0.000529615
0.00051061
0.00215512
0.000309119
0.000365921
0.000620374
0.000445178
0.000278808
0.000477072
0.0022035
0.000307688
0.000240289
0.000294495
0.000608501
0.000498657
0.00034698
0.000516915
0.00225238
0.000402049
0.000337318
0.000354191
0.000410917
0.000404203
0.000623137
0.000350453
0.000417013
0.00223623
0.000552423
0.000332476
0.000393801
0.000458927
0.000338294
0.000592561
0.000537742
0.000525367
0.000737181
0.00240232
0.000337496
0.000457444
0.00035652
0.000157436
0.000588446
0.000351951
0.000513552
0.000393869
0.000311441
0.000528213
0.00253613
0.000485809
0.000380335
0.000348595
0.00042173
0.000380717
0.00047891
0.000604753
0.000687093
0.000697309
0.000571477
0.000753709
0.00226628
0.000444323
0.000454467
0.000605142
0.000499204
0.00053261
0.000499928
0.000243859
0.000525964
0.000588742
0.000476195
0.000417727
0.000727724
0.00221358
0.000438389
0.000905185
0.00068685
0.000355248
0.000618083
0.000894476
0.00042913
0.000604064
0.000684389
0.00060294
0.000527826
0.000843562
0.000400672
0.00248055
0.000597318
0.000360668
0.00101123
0.00101122
0.000369638
0.000499127
0.000978541
0.000658795
0.000827241
0.000950519
0.000900548
0.000783945
0.000381846
0.000998798
0.00242925
0.000161286
0.000216595
0.000517152
0.000757684
0.000935785
0.000890815
0.000278469
0.000490596
0.000784781
0.000587756
0.000658973
0.000910664
0.000761132
0.00093501
0.00104837
0.00254372
0.00118032
0.000792362
0.00126545
0.000583821
0.000788043
0.00106048
0.00138398
0.000998456
0.000909773
0.00078172
0.000677008
0.000574178
0.000247046
0.00220877
0.000617338
0.000940073
0.00269734
0.00112838
0.00106468
0.00206414
0.00171464
0.00109385
0.000467706
0.000516638
0.000728264
0.00157362
0.00105137
0.00136079
0.000847935
0.000882222
0.000803732
0.00304985
0.000586853
0.00158224
0.00334552
0.00157378
0.00102964
0.000881112
0.00114213
0.00121843
0.00166688
0.00161934
0.00168862
0.00162521
0.00149848
0.0011068
0.000924606
0.00075995
0.00112368
0.00115269
0.00155472
0.0017341
0.00126398
0.002577
0.000650936
0.00056812
0.000421549
0.000306208
0.000531867
0.000495723
0.000821312
0.00081887
0.00074082
0.00050527
0.000762477
0.000938426
0.000903126
0.00119765
0.000934764
0.000780279
0.000718571
0.000652856
0.000587091
0.00160676
0.000392407
0.000160496
0.000236763
0.000256403
0.000304611
0.000136322
0.000232527
0.000293188
0.00041522
0.000385951
0.000408407
0.000198301
0.000276447
0.000176776
0.000291392
0.000420752
0.000649538
0.000567287
0.000463154
0.000437371
0.000563448
0.000216257
0.000195652
8.04258e-05
6.69141e-05
0.000146031
0.000109508
9.81244e-05
5.86147e-05
5.89683e-05
0.000192641
0.000266763
0.000253793
0.000327186
0.000177787
0.000102721
0.000125856
0.000134775
0.000502132
0.000947467
0.00062022
0.000417834
0.000686375
0.00212976
0.000443526
0.00195264
0.000298994
0.000236561
0.00200394
0.000342825
0.000322766
0.000335535
0.00207109
0.000205
0.000210251
0.000552276
0.000352111
0.00225725
0.000326839
0.000304119
0.000308767
0.000631953
0.000545052
0.00214328
0.000427552
0.000300533
0.000216433
0.000476922
0.000394229
0.000563911
0.00219804
0.000289284
0.000447076
0.000442142
0.000722517
0.000238101
0.000436455
0.000335917
0.00227726
0.00027415
0.000238072
0.000491459
0.000398239
0.000689859
0.000475489
0.000342416
0.000470761
0.00226448
0.000355772
0.000363426
0.000472006
0.000480729
0.000225603
0.000444828
0.000898008
0.000368655
0.000417687
0.00223837
0.000325063
0.000361208
0.000386051
0.000425235
0.000330458
0.00042531
0.000532635
0.000742144
0.000399751
0.000766822
0.00233051
0.000471221
0.000473747
0.000766033
0.000477781
0.000517565
0.000250768
0.000497505
0.000506236
0.000762885
0.000663493
0.000672587
0.00235294
0.000428873
0.000593537
0.000541976
0.0006297
0.00024353
0.00064462
0.000287614
0.000470505
0.000673577
0.00039981
0.00063117
0.00100027
0.00227133
0.000493104
0.000521653
0.000731803
0.000719738
0.000515573
0.000493527
0.000508136
0.000621728
0.000599262
0.000675559
0.000455174
0.000752584
0.00078135
0.00220837
0.000465928
0.000721977
0.000442077
0.000803726
0.000542791
0.000297391
0.000550273
0.000638639
0.000859576
0.000590607
0.000674513
0.00081918
0.000963973
0.00125716
0.00258027
0.000415582
0.000397579
0.000928429
7.91866e-05
0.00106608
0.000410734
0.000141219
0.000653733
0.000666243
0.000863886
0.000850983
0.000705995
0.000751794
0.000725526
0.00047984
0.00222109
0.00058876
0.000329189
0.000368364
0.000461157
0.000492157
0.00129282
0.000562264
0.000550816
0.000777621
0.000528637
0.000750958
0.000779866
0.000724579
0.00124521
0.00107187
0.000964259
0.00244018
0.00153979
0.0014982
0.000923334
0.00111308
0.000453671
0.000385619
0.00108386
0.000533406
0.000587627
0.00108574
0.000747044
0.000540188
0.000426216
0.000446145
0.000648762
0.00107999
0.00094784
0.0028232
0.0013698
0.00268243
0.00248613
0.00133624
0.00134929
0.000576543
0.000685155
0.000559598
0.000850591
0.00154088
0.000912901
0.00116431
0.000960371
0.00211493
0.00172516
0.00117956
0.00104055
0.00131607
0.00348144
0.000668603
0.000559866
0.000645379
0.000787506
0.00114914
0.00122799
0.001431
0.00126676
0.00195274
0.00168754
0.00131361
0.00100656
0.0011174
0.000908292
0.000937574
0.00100252
0.000577137
0.00209311
0.00174269
0.00305754
0.000711825
0.000679947
0.00058554
0.000452049
0.000379875
0.000414264
0.00045359
0.000771345
0.000873079
0.000790412
0.000674915
0.000788621
0.00106851
0.000806141
0.000993461
0.00116813
0.000898333
0.000745164
0.000945455
0.000558665
0.00230792
0.00037023
0.000207562
0.000164931
0.000227857
0.000291667
0.000286735
0.00019105
0.000254422
0.000348303
0.000426584
0.000524768
0.000428096
0.000221542
0.00028678
0.000101894
0.000299661
0.000338094
0.000645806
0.00073819
0.000682558
0.000541117
0.0006323
9.25244e-05
0.000206813
0.000175686
3.96196e-05
7.3494e-05
0.000152077
0.000104458
0.000108134
8.55572e-05
9.87606e-05
0.000200545
0.000299134
0.000430075
0.000261464
0.000186435
0.000151987
0.000127528
0.000200389
0.000502925
0.00111919
0.000616114
0.000418685
0.00059132
0.00202422
0.000337547
0.0019942
0.000426739
0.00039752
0.00201774
0.000282672
0.000380962
0.000289216
0.00205536
0.000457296
0.000473755
0.000342864
0.000377035
0.00206575
0.000453756
0.000360151
0.000341473
0.000420287
0.000372294
0.00224934
0.000360343
0.000272519
0.00046919
0.000381858
0.000554838
0.000559235
0.00208751
0.000475021
0.000482755
0.000224306
0.000228002
0.000510973
0.000382253
0.000546268
0.00221274
0.000365556
0.000386198
0.000285367
0.000414341
0.00044738
0.000384788
0.000337465
0.000377801
0.00226691
0.000347437
0.000325219
0.000421955
0.000224125
0.000428113
0.000702798
0.000128334
0.000205387
0.000619325
0.00225282
0.000438185
0.000199243
0.000290375
0.000509239
0.000285761
0.000531594
0.000647879
0.000464843
0.000268284
0.00049556
0.00224094
0.000355125
0.000481095
0.000235013
0.000449845
0.000743667
0.000487659
0.000525124
0.000570487
0.00115848
0.000489239
0.000601441
0.00235187
0.000604235
0.000538842
0.000524131
0.000516513
0.000594756
0.000715646
0.000620095
0.000346986
0.000532732
0.000539169
0.000653125
0.000444308
0.00224555
0.000710911
0.00055555
0.000616364
0.000534915
0.000598947
0.000580226
0.000412436
0.000654741
0.000434224
0.000576237
0.000674804
0.000714441
0.000756698
0.00244333
0.000512088
0.00073039
0.000441799
0.000544503
0.000435466
0.000496756
0.000724197
0.000477345
0.000565748
0.000738667
0.000731316
0.000586667
0.000608568
0.00093318
0.00240042
0.0006548
0.000572129
0.0009684
0.000137213
0.000614311
0.000561375
0.000916227
0.000904356
0.000634969
0.000650703
0.000693873
0.000509007
0.000515463
0.000586079
0.00104886
0.00244536
0.000551736
0.000439501
0.000379499
0.000485424
0.000866651
0.000703782
0.000712414
0.0015882
0.000859439
0.0004784
0.000803384
0.0008175
0.000712902
0.00056678
0.000609313
0.000427168
0.0022766
0.000644031
0.000571604
0.000390448
0.000204665
0.00012606
0.000640549
0.00033412
0.000775727
0.000910258
0.000514654
0.00035958
0.000278408
0.000558475
0.000600498
0.00105984
0.00102379
0.00104387
0.00293147
0.00206605
0.00117004
0.0012526
0.00119824
0.00108115
0.000466214
0.000455018
0.000502372
0.000546436
0.000940846
0.000601892
0.000328181
0.000510492
0.000479078
0.000651319
0.000852574
0.000784559
0.00081766
0.00255735
0.00156531
0.00260334
0.00221304
0.0024748
0.00125923
0.00144043
0.00101754
0.00137071
0.00155121
0.0011489
0.00123966
0.00125965
0.00118388
0.00177525
0.00123766
0.000892491
0.00099623
0.000707981
0.00118906
0.00334298
0.000672197
0.000624825
0.00089875
0.000896586
0.000759736
0.000808987
0.00105356
0.00141218
0.00114653
0.00207028
0.00147106
0.000800731
0.000788284
0.000862938
0.00113188
0.00116536
0.00100324