/*--------------------------------*- C++ -*----------------------------------*\
  =========                 |
  \\      /  F ield         | OpenFOAM: The Open Source CFD Toolbox
   \\    /   O peration     | Website:  https://openfoam.org
    \\  /    A nd           | Version:  7
     \\/     M anipulation  |
\*---------------------------------------------------------------------------*/
FoamFile
{
    version     2.0;
    format      ascii;
    class       volScalarField;
    location    "4.5";
    object      p;
}
// * * * * * * * * * * * * * * * * * * * * * * * * * * * * * * * * * * * * * //

dimensions      [0 2 -2 0 0 0 0];

internalField   nonuniform List<scalar> 
18750
(
-59.7049
-59.3265
-62.0177
-59.7931
-57.8765
-60.9685
-59.4147
-62.9253
-62.0477
-59.8961
-52.7554
-58.3083
-57.9629
-61.6518
-61.0591
-59.5031
-62.6573
-62.9086
-62.1222
-60.0099
-54.8007
-57.517
-51.9735
-59.1651
-58.2573
-57.8097
-61.5779
-61.6779
-61.1743
-59.5771
-62.5911
-62.6882
-62.8955
-62.2279
-60.1176
-51.4993
-55.5932
-54.3091
-58.0485
-56.6713
-51.8521
-59.841
-59.3555
-58.5708
-57.6728
-61.9246
-61.6222
-61.7289
-61.4064
-59.7155
-62.7033
-62.5836
-62.7186
-62.8796
-62.2849
-60.2107
-48.9025
-52.8847
-51.9504
-55.7529
-55.7081
-53.4222
-58.7828
-58.0851
-56.5678
-51.9786
-61.9816
-60.2859
-59.5513
-58.985
-57.7209
-62.0053
-61.9661
-61.6491
-61.778
-61.656
-59.9244
-62.9684
-62.7122
-62.5742
-62.7331
-62.8555
-62.3029
-60.3323
-47.2644
-49.3929
-48.6948
-53.1069
-52.7154
-51.5433
-57.4265
-55.915
-55.2363
-52.123
-61.4275
-59.3164
-57.8927
-57.2663
-53.0903
-61.8502
-62.0049
-60.8056
-59.8065
-59.6058
-57.8157
-62.0671
-61.9847
-61.9975
-61.6506
-61.7651
-61.8552
-60.1312
-63.0606
-62.9514
-62.7101
-62.5658
-62.7343
-62.832
-62.3356
-60.4856
-45.8686
-47.5698
-46.8314
-50.1969
-49.4073
-48.3954
-54.2594
-52.8964
-52.6167
-50.5979
-60.1982
-58.0378
-55.9176
-55.2197
-51.2705
-61.9525
-61.2393
-60.1315
-58.0269
-57.6509
-54.1446
-61.9933
-61.5158
-61.7354
-61.1492
-60.0314
-59.968
-58.075
-62.5565
-62.0323
-61.952
-62.0205
-61.659
-61.7775
-61.9393
-60.3639
-63.2193
-63.0398
-62.9353
-62.6977
-62.5375
-62.7209
-62.8131
-62.3846
-60.6165
-44.6696
-46.1004
-45.6585
-47.7382
-47.5656
-46.7772
-50.0948
-50.4545
-49.4468
-48.8614
-53.8606
-54.3432
-53.249
-52.7834
-49.8034
-60.2119
-60.4437
-59.2882
-55.3127
-55.0764
-51.2752
-61.8882
-61.691
-60.6687
-60.4685
-59.1979
-57.8
-55.1549
-62.5162
-61.7073
-61.2391
-61.4408
-61.228
-60.385
-60.2152
-58.3791
-62.5868
-62.5007
-62.005
-61.9238
-62.0174
-61.6592
-61.8123
-62.0365
-60.6055
-63.4423
-63.2145
-63.0257
-62.9269
-62.6877
-62.4978
-62.6885
-62.805
-62.4418
-60.7118
-43.8295
-44.8216
-44.5714
-46.1291
-45.9573
-45.8466
-48.2174
-48.1809
-47.4777
-46.9546
-50.4596
-50.3032
-50.4021
-48.7104
-48.7453
-54.3926
-53.6055
-53.8523
-52.8327
-53.0575
-49.6776
-60.3677
-60.1136
-60.0335
-59.7509
-55.1821
-54.7743
-50.3852
-61.8097
-61.5624
-61.4952
-60.4241
-60.2965
-60.0988
-58.7504
-56.0595
-61.9295
-62.332
-61.432
-61.0185
-61.1895
-61.11
-60.8888
-60.5192
-58.7792
-62.6547
-62.5352
-62.4422
-61.981
-61.8647
-61.9954
-61.653
-61.8519
-62.161
-60.8743
-63.3725
-63.459
-63.2151
-63.0118
-62.9104
-62.6697
-62.4736
-62.6387
-62.8298
-62.5079
-60.8438
-43.0031
-43.8336
-43.8249
-44.8797
-44.7521
-44.4631
-46.2007
-46.1432
-45.8892
-45.558
-48.1892
-48.0627
-47.6796
-47.2548
-46.6312
-50.7103
-50.2478
-50.1628
-49.8908
-47.9863
-48.2958
-54.5587
-54.656
-53.9259
-53.8666
-52.0491
-52.8466
-49.2289
-59.7177
-60.1642
-60.0487
-59.0371
-59.7141
-55.8373
-55.3186
-50.4241
-61.4625
-61.5505
-61.1955
-61.3734
-60.724
-60.2872
-61.0388
-59.3878
-55.8552
-61.1393
-61.771
-62.2124
-61.1976
-60.796
-61.0086
-61.022
-61.2375
-60.863
-59.0172
-62.3103
-62.5405
-62.5159
-62.3941
-61.9866
-61.8045
-62.0073
-61.64
-61.8662
-62.3292
-61.1795
-62.8802
-63.3745
-63.4752
-63.2133
-63.0052
-62.8773
-62.6362
-62.4521
-62.5842
-62.871
-62.5813
-61.0127
-42.5108
-43.0145
-42.9835
-43.8171
-43.7592
-43.7487
-44.931
-44.6487
-44.6428
-44.2759
-46.2196
-46.1472
-46.064
-45.7201
-45.2634
-48.3492
-47.928
-47.7977
-47.1814
-46.8334
-46.412
-50.5418
-50.1625
-49.9821
-50.0386
-49.2227
-47.6406
-48.1662
-54.7521
-55.0341
-55.1067
-54.3745
-53.4609
-52.1862
-52.5738
-49.0482
-59.9761
-59.5919
-59.7587
-59.7605
-58.7498
-59.7287
-56.6224
-55.9342
-50.4751
-61.0709
-61.4939
-61.295
-60.9819
-61.1301
-60.9342
-60.5558
-61.5205
-60.0451
-56.2287
-61.1141
-60.9867
-61.6449
-62.0926
-61.0258
-60.5984
-60.8051
-60.9616
-61.4492
-61.2265
-59.6391
-62.3283
-62.2867
-62.4546
-62.5292
-62.4127
-62.0057
-61.7463
-62.0239
-61.6239
-61.8743
-62.5341
-61.5363
-62.9227
-62.8715
-63.3842
-63.4922
-63.2121
-63.0021
-62.8557
-62.5982
-62.4213
-62.5435
-62.872
-62.6614
-61.1288
-42.1842
-42.4889
-42.4604
-43.0397
-42.9603
-42.8961
-43.8423
-43.8217
-43.6657
-43.6426
-44.9552
-44.8158
-44.5639
-44.4062
-44.2204
-46.2062
-46.1223
-46.0282
-45.8084
-45.5774
-45.2251
-48.5092
-48.1696
-47.5781
-47.311
-47.0448
-46.5789
-46.3723
-51.085
-50.4562
-50.0118
-50.1213
-49.5099
-48.4969
-47.2748
-48.0304
-54.7734
-54.8519
-55.4683
-55.4344
-53.9266
-53.5938
-52.0822
-52.6265
-49.2421
-59.3363
-59.871
-59.1649
-59.2801
-59.3565
-58.8966
-59.5119
-57.6864
-55.8273
-50.8189
-60.6838
-61.1481
-61.3109
-60.9354
-60.7013
-60.7264
-60.5109
-60.6764
-61.9496
-60.4062
-56.7236
-61.2365
-61.0226
-60.8796
-61.5838
-62.001
-60.912
-60.4417
-60.5586
-60.9446
-61.8269
-61.773
-59.972
-62.461
-62.3172
-62.2649
-62.3865
-62.5786
-62.3995
-62.0371
-61.7305
-61.9494
-61.5938
-61.8704
-62.7499
-61.9321
-62.9534
-62.9312
-62.8621
-63.4008
-63.5086
-63.211
-62.9958
-62.8475
-62.5585
-62.3804
-62.4999
-62.8525
-62.7489
-61.2566
-41.9615
-42.1743
-42.1534
-42.4962
-42.4715
-42.3841
-43.0705
-42.952
-42.8636
-42.8125
-44.0512
-43.804
-43.7103
-43.5784
-43.5131
-44.9984
-44.9972
-44.7392
-44.4803
-44.2691
-44.1286
-46.4661
-46.2362
-46.0799
-45.6966
-45.7869
-45.3469
-45.1983
-48.6412
-48.4515
-47.9468
-47.1364
-47.2366
-46.5989
-46.5922
-46.22
-51.2169
-51.0098
-50.5029
-50.2166
-49.8552
-48.9387
-48.5998
-47.2824
-47.6892
-54.9041
-54.7683
-54.9556
-55.6578
-55.4446
-54.316
-53.3205
-51.7927
-52.1604
-49.5378
-58.7358
-59.3691
-59.4643
-58.7717
-58.7036
-58.8168
-58.4701
-59.487
-58.5494
-55.7819
-50.8358
-60.692
-60.5518
-60.9386
-61.0544
-60.6722
-60.3404
-60.2563
-60.0383
-60.5876
-61.8465
-60.4197
-57.1729
-61.4626
-61.1924
-60.9676
-60.8371
-61.5811
-62.0151
-60.8404
-60.2635
-60.3877
-60.883
-62.1727
-62.1908
-60.5331
-62.7874
-62.4477
-62.3237
-62.2541
-62.3411
-62.6192
-62.3561
-62.067
-61.6838
-61.9112
-61.6017
-61.8807
-62.9489
-62.3647
-62.6678
-62.9631
-62.945
-62.852
-63.4271
-63.525
-63.2066
-62.9849
-62.8377
-62.5137
-62.3331
-62.4408
-62.8426
-62.8377
-61.4489
-41.4572
-41.9352
-41.8884
-42.2289
-42.088
-42.0957
-42.6396
-42.4025
-42.3726
-42.3753
-43.2307
-43.0136
-42.8255
-42.8411
-42.7293
-44.0792
-43.9793
-43.6755
-43.634
-43.4594
-43.438
-45.0741
-45.0128
-44.9531
-44.5614
-44.2944
-44.0663
-44.0749
-46.5729
-46.3926
-46.1642
-45.8667
-45.8052
-45.551
-45.1578
-45.1058
-48.7272
-48.6704
-48.5028
-47.8135
-47.8019
-46.8817
-46.3131
-46.5046
-46.168
-51.7011
-51.3004
-50.672
-50.246
-50.0599
-49.4091
-48.8608
-48.1846
-47.0891
-47.329
-54.5967
-54.8496
-55.1636
-54.9531
-55.6553
-55.8175
-55.1125
-53.3183
-51.6878
-52.0491
-49.5994
-58.4577
-58.6425
-59.1283
-59.0194
-58.4411
-58.1521
-58.2632
-57.9091
-59.1054
-57.9684
-55.2677
-51.2389
-60.5687
-60.612
-60.4911
-60.633
-60.829
-60.4606
-59.9503
-59.7999
-59.6232
-60.0114
-61.2835
-60.2349
-57.1238
-61.4475
-61.4109
-61.1818
-60.9554
-60.8305
-61.5167
-61.9763
-60.8149
-60.138
-60.2816
-60.8394
-62.5114
-62.6176
-61.3673
-62.6642
-62.7598
-62.4542
-62.3557
-62.2627
-62.3391
-62.6521
-62.3982
-62.1532
-61.6745
-61.8137
-61.6158
-61.9219
-63.1342
-62.7776
-62.4018
-62.6645
-62.9708
-62.9669
-62.8413
-63.4261
-63.5417
-63.2069
-62.9709
-62.833
-62.4719
-62.2934
-62.3623
-62.8059
-62.922
-61.6103
-41.1711
-41.4939
-41.4283
-41.9107
-41.8591
-41.7679
-42.2464
-42.1689
-42.0463
-42.0246
-42.6832
-42.5335
-42.373
-42.3878
-42.3221
-43.2854
-43.1412
-42.956
-42.801
-42.748
-42.7486
-44.0963
-44.0277
-43.871
-43.6006
-43.5911
-43.4023
-43.392
-45.2288
-45.1218
-44.9322
-44.7117
-44.534
-44.2109
-44.0681
-43.9637
-46.7432
-46.5243
-46.3239
-46.0799
-45.8505
-45.6266
-45.4242
-45.0642
-44.9558
-48.6591
-48.7136
-48.6518
-48.2897
-47.9548
-47.4917
-46.7336
-46.2768
-46.3603
-46.0069
-51.8956
-51.585
-51.3164
-50.7164
-50.227
-49.9084
-49.287
-48.4129
-48.0112
-47.0826
-46.8933
-54.5384
-54.5706
-54.5994
-55.2129
-55.0046
-55.1939
-55.2869
-54.836
-53.744
-52.1944
-51.6816
-49.569
-58.4391
-58.3817
-58.5634
-58.7133
-58.6604
-57.9723
-57.58
-57.5237
-57.3566
-58.3246
-57.6818
-54.8653
-51.3502
-60.3607
-60.5357
-60.5504
-60.3946
-60.286
-60.5934
-60.1986
-59.6098
-59.4573
-59.1984
-59.6786
-60.8595
-59.8812
-57.1582
-62.3565
-61.4481
-61.3864
-61.1845
-60.9661
-60.8791
-61.5313
-61.8205
-60.8078
-60.1093
-60.2168
-60.8911
-62.762
-63.0776
-62.0669
-62.3261
-62.6685
-62.728
-62.4864
-62.4089
-62.3001
-62.3823
-62.7071
-62.3426
-62.1628
-61.6885
-61.6606
-61.5944
-61.985
-63.2534
-63.1902
-62.3405
-62.4064
-62.6561
-62.9811
-62.98
-62.8603
-63.4009
-63.5566
-63.2157
-62.964
-62.8327
-62.4443
-62.2453
-62.3117
-62.7482
-63.0058
-61.7386
-40.9599
-41.211
-41.1745
-41.4877
-41.4991
-41.3944
-41.8841
-41.8408
-41.8581
-41.684
-42.2041
-42.1449
-42.1554
-42.0465
-41.9587
-42.7077
-42.601
-42.476
-42.3696
-42.3035
-42.2992
-43.3085
-43.2213
-43.0895
-42.875
-42.8197
-42.7054
-42.7505
-44.1857
-44.1028
-43.9485
-43.8066
-43.5314
-43.6219
-43.5472
-43.4039
-45.3682
-45.2198
-45.1613
-44.9119
-44.7909
-44.3729
-44.1264
-44.1106
-43.9613
-46.9268
-46.7496
-46.3729
-46.2761
-45.9926
-45.6917
-45.3633
-45.4244
-45.0891
-44.9705
-48.628
-48.5727
-48.7159
-48.6193
-48.234
-47.7873
-47.016
-46.5558
-46.2815
-46.3929
-45.9386
-52.0056
-51.8608
-51.6193
-51.124
-50.9112
-50.4272
-49.7657
-49.2354
-48.1761
-47.8559
-47.0966
-46.6578
-54.9441
-54.6238
-54.516
-54.6679
-55.0707
-55.2321
-54.8688
-54.7377
-54.4626
-53.26
-52.5383
-51.3463
-49.3946
-58.4214
-58.2672
-58.4145
-58.4902
-58.3517
-58.3645
-57.7116
-57.2378
-57.1756
-56.9418
-57.5533
-57.3149
-54.477
-51.2315
-60.3441
-59.9295
-60.3536
-60.5161
-60.3643
-60.0745
-60.4209
-59.9696
-59.3784
-59.1766
-58.8978
-59.5251
-60.3139
-59.8659
-57.2402
-62.6041
-62.3984
-61.5049
-61.4517
-61.2203
-61.0522
-60.9857
-61.6558
-61.7116
-60.7691
-60.0166
-59.9967
-60.9031
-62.9519
-63.3663
-62.2588
-62.4845
-62.3328
-62.669
-62.716
-62.5568
-62.4987
-62.3485
-62.456
-62.7623
-62.42
-62.0285
-61.4856
-61.5802
-61.5568
-62.0478
-63.3753
-63.588
-62.2976
-62.3249
-62.401
-62.6417
-62.9912
-62.9873
-62.9089
-63.3748
-63.5706
-63.2272
-62.9464
-62.8269
-62.4285
-62.2038
-62.2929
-62.7111
-63.0714
-61.8748
-40.8149
-40.9493
-40.9136
-41.2973
-41.1631
-41.1414
-41.5306
-41.4713
-41.4339
-41.4147
-41.7833
-41.875
-41.8058
-41.7387
-41.6707
-42.2534
-42.1548
-42.098
-42.0929
-41.9731
-41.9182
-42.7752
-42.6705
-42.5452
-42.3095
-42.3888
-42.2748
-42.2735
-43.4727
-43.2812
-43.2213
-43.069
-42.817
-42.8461
-42.6511
-42.7281
-44.4011
-44.0285
-43.9587
-43.8313
-43.7513
-43.5081
-43.6534
-43.392
-43.3208
-45.4349
-45.3441
-45.1435
-45.0893
-44.874
-44.5487
-44.3454
-44.0365
-44.0251
-44.0457
-47.2025
-46.9371
-46.8143
-46.4264
-46.3408
-45.9496
-45.634
-45.2958
-45.1729
-45.0677
-45.0112
-48.8247
-48.6309
-48.7357
-48.5875
-48.3739
-48.1749
-47.751
-47.195
-46.211
-46.1408
-46.4067
-45.9211
-51.8594
-51.9202
-51.6856
-51.6339
-51.2367
-51.0222
-50.5134
-49.9338
-49.0316
-48.0649
-47.8095
-46.9383
-46.6554
-54.5749
-54.8597
-54.7224
-54.6988
-54.654
-54.8492
-54.8058
-54.6567
-54.8325
-53.9686
-53.0017
-52.4434
-50.7234
-49.1029
-57.9073
-58.4362
-58.1032
-58.2564
-58.4079
-58.0418
-58.057
-57.4645
-56.9947
-56.8044
-56.7052
-57.0011
-57.0565
-54.2159
-51.0409
-60.2399
-60.4106
-59.8832
-60.2048
-60.4461
-60.32
-60.0435
-60.2419
-59.797
-59.2002
-59.0135
-58.7533
-59.373
-60.3891
-59.607
-56.972
-62.0885
-62.6016
-62.476
-61.5718
-61.5678
-61.298
-61.2497
-61.1715
-61.7096
-61.6842
-60.7949
-59.8269
-59.7282
-60.9286
-63.2057
-63.5653
-62.9827
-62.2809
-62.4847
-62.3567
-62.6658
-62.7265
-62.6166
-62.5757
-62.435
-62.5564
-62.8208
-62.6018
-61.9943
-61.4063
-61.5288
-61.5095
-62.095
-63.4994
-63.9653
-62.2155
-62.2822
-62.3135
-62.3958
-62.6258
-62.9946
-62.9862
-62.9678
-63.3476
-63.5818
-63.2434
-62.9224
-62.8131
-62.4206
-62.1604
-62.2604
-62.694
-63.1392
-62.0204
-40.6773
-40.7728
-40.7583
-40.9124
-40.9543
-40.9024
-41.2636
-41.285
-41.1012
-41.1355
-41.4697
-41.5157
-41.4114
-41.4002
-41.3713
-41.9045
-41.7934
-41.8435
-41.7189
-41.6443
-41.609
-42.3465
-42.2052
-42.2359
-42.1091
-42.0439
-41.86
-41.912
-42.8642
-42.7047
-42.581
-42.5316
-42.3835
-42.3852
-42.2487
-42.2663
-43.5948
-43.3947
-43.224
-43.1362
-43.0254
-42.8431
-42.8169
-42.7129
-42.8527
-44.4733
-44.2885
-44.2026
-43.9634
-43.7765
-43.6448
-43.4804
-43.563
-43.3025
-43.5659
-45.4753
-45.4816
-45.3453
-45.2116
-45.0792
-44.7657
-44.4898
-44.3201
-43.745
-43.9334
-43.8709
-47.3345
-47.144
-46.9426
-46.7813
-46.4798
-46.0209
-45.8093
-45.6046
-45.1398
-45.0992
-45.0625
-45.05
-49.1284
-48.8853
-48.7048
-48.6013
-48.3923
-48.1208
-48.0641
-47.6479
-47.1739
-47.0467
-46.2428
-46.2858
-45.9118
-52.1059
-51.7554
-51.8418
-51.614
-51.2992
-51.3092
-50.8784
-50.382
-49.8608
-49.5085
-48.1953
-47.9204
-46.8469
-46.7877
-54.7144
-55.0794
-54.8876
-54.7102
-54.7027
-54.514
-54.6376
-54.4641
-54.5471
-54.5245
-53.6331
-52.8563
-52.1991
-50.2719
-48.8014
-58.3961
-58.1603
-57.9046
-58.0364
-58.0254
-58.2392
-57.7499
-57.7678
-57.3006
-56.8496
-56.4206
-56.56
-56.6696
-56.2832
-54.0836
-50.4414
-60.5787
-60.4075
-60.185
-60.0117
-60.1299
-60.4585
-60.2876
-59.953
-60.1465
-59.7074
-59.0769
-58.8412
-58.645
-59.492
-60.1082
-58.9511
-56.1107
-62.3151
-62.1767
-62.5619
-62.5731
-61.6983
-61.6658
-61.4272
-61.4954
-61.4134
-61.8068
-61.6904
-60.9187
-59.7629
-59.5591
-60.9804
-63.3194
-63.8737
-63.599
-62.1618
-62.2735
-62.475
-62.3828
-62.6698
-62.7261
-62.6446
-62.6304
-62.5492
-62.6393
-62.8966
-62.7389
-62.0604
-61.4443
-61.4325
-61.4572
-62.1346
-63.6087
-64.303
-62.2987
-62.2091
-62.2693
-62.3082
-62.3888
-62.6127
-62.9905
-62.9864
-63.0255
-63.3179
-63.5894
-63.2645
-62.9152
-62.7969
-62.395
-62.1103
-62.2266
-62.6897
-63.1953
-62.1577
-40.4853
-40.6683
-40.6008
-40.6951
-40.7645
-40.7562
-41.0046
-40.8489
-40.9554
-40.9183
-41.2558
-41.1695
-41.2093
-41.1233
-41.1206
-41.5342
-41.51
-41.4484
-41.3903
-41.3536
-41.3445
-41.9001
-41.8404
-41.7842
-41.7279
-41.6721
-41.5439
-41.6106
-42.3851
-42.2689
-42.1657
-42.1912
-42.0514
-42.0325
-41.8665
-41.8678
-42.9669
-42.8188
-42.6893
-42.5379
-42.4789
-42.4111
-42.3545
-42.2063
-42.2198
-43.6703
-43.5617
-43.4128
-43.2912
-43.1245
-42.9387
-42.7912
-42.7361
-42.8289
-42.7639
-44.5872
-44.4209
-44.2918
-44.1892
-43.7648
-43.7415
-43.6323
-43.4026
-43.4545
-43.3979
-43.4076
-45.7302
-45.6232
-45.5424
-45.3183
-45.0849
-44.868
-44.6262
-44.4888
-44.2079
-43.8672
-43.9843
-43.7062
-47.4396
-47.3131
-47.2676
-46.7134
-46.5611
-46.3499
-46.0798
-45.8699
-45.5748
-45.2716
-45.2194
-45.1032
-44.962
-49.3162
-49.1683
-48.7918
-48.7033
-48.4562
-48.5897
-48.2636
-47.9911
-47.5667
-47.2475
-47.041
-46.1827
-46.1515
-45.9768
-52.6148
-52.2303
-51.8497
-51.8007
-51.697
-51.4829
-51.1998
-51.1001
-50.6968
-50.0757
-49.4731
-48.3522
-47.6495
-47.2498
-46.943
-55.7013
-55.0924
-54.9033
-54.8234
-54.9038
-54.7058
-54.4503
-54.5943
-54.6574
-54.6102
-54.1355
-53.4053
-52.7087
-51.9034
-50.115
-48.3673
-58.9182
-58.8452
-58.2677
-57.5733
-57.9144
-58.1642
-58.0202
-57.5895
-57.5852
-56.947
-56.727
-56.3903
-56.2783
-56.969
-55.4782
-54.1718
-50.4569
-61.2338
-60.6823
-60.5133
-60.388
-60.1402
-60.1782
-60.4753
-60.4805
-59.9748
-60.1579
-59.578
-59.0025
-58.6538
-58.5353
-59.3625
-60.1711
-58.6212
-55.6554
-62.3712
-62.2985
-62.2243
-62.5598
-62.6851
-61.9051
-61.8234
-61.6292
-61.7193
-61.6515
-61.9241
-61.6484
-60.933
-59.7267
-59.4003
-60.9168
-63.6414
-64.1727
-63.8233
-61.9438
-62.1614
-62.2641
-62.4561
-62.4029
-62.6742
-62.7372
-62.6833
-62.7073
-62.6421
-62.7027
-62.9323
-62.8597
-62.1111
-61.4566
-61.354
-61.4094
-62.14
-63.6952
-64.6265
-62.3068
-62.2928
-62.2019
-62.2591
-62.3072
-62.3789
-62.601
-62.9831
-62.9968
-63.0784
-63.3047
-63.5962
-63.2855
-62.9162
-62.7854
-62.3664
-62.0826
-62.2037
-62.6803
-63.2469
-62.3157
-40.3676
-40.5251
-40.492
-40.8186
-40.6422
-40.6027
-40.7904
-40.652
-40.7418
-40.7257
-41.0438
-40.9688
-40.8448
-40.9618
-40.8988
-41.2866
-41.2434
-41.1306
-41.2555
-41.087
-41.0813
-41.5886
-41.5429
-41.4212
-41.3553
-41.3671
-41.3511
-41.3457
-41.9924
-41.8926
-41.8012
-41.6726
-41.6496
-41.6505
-41.5607
-41.603
-42.5117
-42.3539
-42.2393
-42.2196
-42.1381
-41.8692
-41.909
-41.8435
-41.8299
-43.1068
-42.9294
-42.8068
-42.6633
-42.5603
-42.5071
-42.1738
-42.3195
-42.1045
-42.1215
-43.8291
-43.682
-43.5658
-43.3236
-43.1537
-43.1032
-42.9735
-42.9122
-42.8452
-42.8421
-42.6467
-44.7021
-44.6488
-44.437
-44.2618
-44.2005
-44.0131
-43.7703
-43.5873
-43.335
-43.4211
-43.4693
-43.1234
-45.8824
-45.6663
-45.6285
-45.4885
-45.3083
-45.0475
-44.88
-44.6728
-44.2658
-44.2197
-44.0448
-43.9797
-43.8262
-47.6378
-47.4698
-47.2529
-46.9995
-46.7569
-46.4313
-46.4736
-46.1775
-45.8721
-45.505
-45.3197
-45.1291
-45.2842
-44.9739
-49.7725
-49.3817
-49.0612
-48.8063
-48.8256
-48.6005
-48.5126
-48.2187
-47.9737
-47.5881
-47.1863
-46.8334
-46.1791
-46.2385
-45.9054
-52.9755
-52.6012
-52.1849
-51.8349
-51.8086
-51.7256
-51.5644
-51.247
-51.0306
-50.626
-49.9836
-49.2321
-48.3375
-47.8524
-47.5778
-47.0723
-56.2793
-55.7389
-55.1272
-54.8039
-54.7882
-54.8704
-54.9145
-54.3469
-54.6503
-54.3575
-54.4926
-53.8526
-53.1712
-51.8825
-52.0517
-50.1518
-48.5466
-59.7337
-59.3895
-59.4348
-58.3699
-57.6171
-58.0002
-57.8902
-57.9719
-57.5769
-57.4345
-56.8093
-56.6098
-56.3588
-56.194
-57.1113
-55.1857
-54.3305
-50.7983
-61.2756
-61.135
-60.782
-60.6836
-60.8165
-60.4204
-60.189
-60.6022
-60.5795
-60.1748
-60.1666
-59.6443
-58.9304
-58.5318
-58.3924
-59.117
-60.3677
-58.5511
-55.4873
-62.1589
-62.2777
-62.3048
-62.2957
-62.6067
-62.7734
-62.171
-62.0318
-61.8663
-61.9542
-61.8575
-61.998
-61.7317
-60.8903
-59.6746
-59.2908
-60.86
-63.8203
-64.3699
-64.9445
-61.7195
-61.9427
-62.1571
-62.2587
-62.4307
-62.424
-62.6755
-62.7622
-62.7265
-62.7878
-62.7404
-62.7804
-62.9632
-62.9642
-62.1878
-61.4223
-61.3101
-61.3746
-62.1311
-63.7793
-64.8208
-62.2976
-62.2935
-62.2829
-62.1954
-62.2496
-62.2901
-62.3694
-62.5904
-62.9748
-63.008
-63.1261
-63.3089
-63.6009
-63.3079
-62.9183
-62.7718
-62.3307
-62.0425
-62.1906
-62.6589
-63.2935
-62.4627
-40.259
-40.3744
-40.4169
-40.6309
-40.5056
-40.5026
-40.7046
-40.7482
-40.5994
-40.5915
-40.8323
-40.8047
-40.6814
-40.7268
-40.7129
-41.0828
-41.0024
-40.958
-40.8933
-40.9243
-40.8801
-41.3197
-41.2952
-41.1749
-41.1985
-41.1996
-41.069
-41.0788
-41.6964
-41.5519
-41.4927
-41.34
-41.3874
-41.3346
-41.343
-41.3167
-42.0869
-41.9919
-41.8543
-41.7632
-41.6375
-41.5455
-41.6462
-41.6126
-41.5596
-42.617
-42.4703
-42.3319
-42.2018
-42.1682
-41.9921
-41.8631
-41.9127
-41.9089
-41.824
-43.2033
-43.0865
-42.915
-42.6966
-42.6035
-42.5573
-42.5419
-42.217
-42.3494
-42.0655
-42.1371
-43.9576
-43.8091
-43.6442
-43.4464
-43.2624
-43.2508
-43.04
-42.9704
-42.8401
-42.8415
-42.6705
-42.7368
-44.9376
-44.6425
-44.4783
-44.3474
-44.2088
-43.985
-43.9491
-43.697
-43.5735
-43.4162
-43.3534
-43.3263
-43.1669
-46.0917
-45.8384
-45.6365
-45.6263
-45.3873
-45.2637
-45.0513
-44.8469
-44.601
-44.3057
-44.1858
-43.8797
-43.869
-43.865
-47.9501
-47.6497
-47.4097
-47.0792
-47.0559
-46.7543
-46.7074
-46.4025
-46.1437
-45.8367
-45.4952
-45.1959
-44.9381
-45.0441
-44.9311
-49.9507
-49.76
-49.3171
-49.3754
-48.7206
-48.7887
-48.6685
-48.3821
-48.1163
-47.8686
-47.5864
-47.1243
-46.5226
-46.3938
-46.2739
-45.7666
-53.2905
-53.0297
-52.6156
-52.0476
-51.9179
-51.5834
-51.6457
-51.5634
-51.1669
-50.865
-50.4036
-49.8646
-49.2262
-48.345
-47.8871
-47.8824
-46.8248
-56.4734
-56.743
-55.9214
-54.7477
-54.8252
-54.8413
-54.7838
-54.8866
-54.4872
-54.237
-54.2657
-54.2333
-53.8343
-52.7234
-52.8338
-51.4176
-49.7362
-49.0046
-59.7763
-59.9893
-60.0013
-59.9926
-58.8182
-58.151
-57.9477
-57.7335
-57.9778
-57.6803
-57.3052
-56.9541
-56.7445
-56.2226
-55.9788
-55.8841
-54.3279
-54.1235
-50.8128
-60.8666
-61.3516
-61.0062
-60.944
-60.8469
-61.0928
-60.7427
-60.3391
-60.7682
-60.8034
-60.3437
-60.2325
-59.6108
-59.0797
-58.4872
-58.4517
-59.4769
-59.4409
-58.5525
-55.1904
-61.6679
-62.0934
-62.1507
-62.3033
-62.4094
-62.6817
-62.8382
-62.4024
-62.2287
-62.1482
-62.2583
-62.141
-62.0676
-61.8419
-60.9107
-59.6788
-59.2218
-60.6834
-63.9651
-64.7463
-65.7473
-61.5742
-61.7372
-61.951
-62.153
-62.2552
-62.4108
-62.4521
-62.6868
-62.7693
-62.7643
-62.8562
-62.8244
-62.8635
-62.9985
-63.0462
-62.2719
-61.5314
-61.2859
-61.3531
-62.0841
-63.8116
-64.9779
-62.298
-62.2866
-62.2872
-62.2729
-62.1894
-62.2361
-62.2529
-62.3579
-62.5892
-62.9691
-63.0132
-63.1614
-63.2956
-63.6053
-63.3334
-62.9252
-62.7533
-62.2825
-62.0092
-62.1886
-62.6299
-63.3327
-62.5682
-40.206
-40.2849
-40.2637
-40.3939
-40.3733
-40.4024
-40.5766
-40.5163
-40.5116
-40.4719
-40.6851
-40.6802
-40.6804
-40.5986
-40.5749
-40.8705
-40.7818
-40.8638
-40.6968
-40.7005
-40.7088
-41.1178
-41.0693
-40.9816
-40.92
-40.8943
-40.8904
-40.8988
-41.3779
-41.3028
-41.2428
-41.2108
-41.1719
-41.1536
-41.0412
-41.0843
-41.7517
-41.633
-41.5237
-41.4482
-41.295
-41.3716
-41.3416
-41.3508
-41.2908
-42.189
-42.0586
-41.9395
-41.7654
-41.6984
-41.6115
-41.8305
-41.6615
-41.5755
-41.5298
-42.6601
-42.5894
-42.4031
-42.2502
-42.1359
-42.0201
-42.0352
-42.1336
-41.9307
-41.8672
-41.7668
-43.3777
-43.1201
-43.029
-42.8416
-42.5016
-42.6295
-42.4827
-42.3792
-42.3262
-42.2653
-42.0822
-42.1592
-44.0758
-43.9339
-43.7926
-43.5567
-43.3481
-43.2137
-43.1697
-43.0789
-43.0396
-42.8217
-42.6978
-42.7292
-42.7704
-45.0341
-44.9097
-44.6357
-44.468
-44.3485
-44.1429
-43.9042
-43.8232
-43.6738
-43.6187
-43.3991
-43.1689
-43.1751
-43.1374
-46.4
-46.0357
-46.0697
-45.6825
-45.5718
-45.3146
-44.9512
-44.9706
-44.7199
-44.4977
-44.3046
-44.0671
-43.8073
-43.6347
-43.8667
-48.3477
-47.9328
-47.6053
-47.3909
-46.9382
-46.9972
-46.6028
-46.7404
-46.3861
-46.0852
-45.7472
-45.4797
-45.1279
-44.9823
-44.8377
-44.9831
-50.3342
-50.0346
-49.6963
-49.3084
-49.0182
-48.8857
-48.7762
-48.6201
-48.2608
-48.262
-47.867
-47.4999
-47.047
-46.4394
-46.4754
-46.3143
-45.6203
-53.4896
-53.3287
-53.0095
-52.5058
-52.1401
-51.982
-51.5824
-51.4801
-51.1163
-51.142
-51.0273
-50.4257
-49.7364
-49.1525
-48.3752
-47.567
-47.7832
-46.0286
-56.6207
-56.9875
-57.3766
-56.4002
-54.9866
-54.9655
-55.0291
-54.9282
-54.7276
-54.4167
-54.2751
-54.3809
-54.2401
-53.4622
-52.6702
-52.3914
-50.7987
-49.224
-49.3816
-59.5383
-59.9944
-60.2632
-60.21
-60.5975
-59.1027
-58.3907
-57.8792
-57.8622
-57.9587
-57.6058
-57.2702
-56.9532
-56.7924
-56.3881
-56.0991
-54.8714
-53.9078
-54.5165
-50.8545
-60.8146
-60.7397
-61.0437
-60.7667
-60.886
-61.0738
-61.3896
-61.0761
-60.6781
-61.1151
-61.0898
-60.4832
-60.3724
-59.7631
-59.0826
-58.4375
-58.1484
-59.3689
-59.387
-58.8207
-55.6034
-61.5746
-61.7186
-62.0171
-62.0852
-62.3576
-62.5057
-62.7767
-62.9363
-62.6122
-62.472
-62.4624
-62.6032
-62.4587
-62.1706
-61.8841
-60.9405
-59.6433
-59.139
-60.4889
-63.4226
-64.7551
-65.5229
-61.6137
-61.5936
-61.761
-61.9655
-62.1567
-62.2584
-62.3968
-62.4777
-62.6996
-62.7798
-62.8193
-62.9143
-62.8938
-62.9598
-63.0359
-63.1117
-62.355
-61.6165
-61.2367
-61.3337
-62.0464
-63.8106
-65.0894
-62.3584
-62.2867
-62.2704
-62.2824
-62.2637
-62.1837
-62.2187
-62.2201
-62.3418
-62.5772
-62.9654
-63.0189
-63.1935
-63.3144
-63.6063
-63.3598
-62.947
-62.7392
-62.2397
-61.9875
-62.2063
-62.5971
-63.3678
-62.6752
-40.0976
-40.2195
-40.2165
-40.2508
-40.2767
-40.2448
-40.3681
-40.4106
-40.3943
-40.3763
-40.5859
-40.533
-40.4478
-40.5066
-40.449
-40.7952
-40.6524
-40.6288
-40.6048
-40.5508
-40.5297
-40.9217
-40.9419
-40.8057
-40.805
-40.6876
-40.7202
-40.6835
-41.1754
-41.0725
-41.0478
-40.9736
-40.9168
-40.8868
-40.881
-40.8815
-41.4906
-41.3267
-41.2835
-41.23
-41.1743
-41.1522
-41.0619
-41.1002
-41.0817
-41.8746
-41.6615
-41.6043
-41.4718
-41.4096
-41.3825
-41.3314
-41.3307
-41.3171
-41.2536
-42.2619
-42.198
-42.0143
-41.8711
-41.7222
-41.7002
-41.5604
-41.7611
-41.6349
-41.5421
-41.4971
-42.7989
-42.6686
-42.541
-42.3653
-42.159
-42.1145
-42.0783
-42.0193
-41.9479
-41.8308
-41.8159
-41.7952
-43.4329
-43.2894
-43.1901
-42.9891
-42.7799
-42.7375
-42.6057
-42.5004
-42.3964
-42.2275
-42.2467
-42.082
-42.1368
-44.2579
-44.0331
-43.8698
-43.7646
-43.5094
-43.2972
-43.258
-43.2239
-43.0475
-42.9468
-42.7906
-42.7062
-42.6479
-42.703
-45.3187
-45.065
-44.8942
-44.684
-44.5346
-44.243
-44.12
-43.9649
-43.8839
-43.5881
-43.5508
-43.2513
-43.1512
-42.9268
-43.1602
-46.7312
-46.3525
-46.1422
-45.8424
-45.6784
-45.5356
-45.2839
-44.8175
-44.9534
-44.767
-44.4904
-44.3966
-44.0549
-43.9662
-43.8403
-43.9569
-48.5008
-48.2667
-47.9007
-47.7162
-47.3236
-47.0843
-46.9407
-46.3499
-46.5203
-46.3596
-46.0659
-45.7201
-45.432
-45.0958
-44.9046
-45.0544
-44.9244
-50.7076
-50.3273
-50.103
-49.7474
-49.3784
-48.8683
-48.9637
-48.7182
-48.4286
-48.5013
-48.1605
-47.948
-47.4526
-46.9212
-46.3
-46.3816
-46.1873
-45.4886
-53.6372
-53.4984
-53.4314
-53.002
-52.5385
-52.3034
-51.965
-51.6889
-51.3939
-51.1702
-51.2211
-50.8797
-50.2844
-49.5705
-48.9493
-47.9618
-47.3182
-47.6511
-45.2214
-57.2976
-56.7329
-57.3735
-57.9701
-56.7575
-55.4197
-55.1458
-54.8529
-54.894
-54.7486
-54.387
-54.37
-54.311
-53.7361
-52.9615
-52.0074
-51.2026
-50.5906
-49.0138
-49.1573
-60.4054
-59.5885
-60.0021
-60.3007
-60.2874
-60.6582
-59.4462
-58.451
-58.1025
-57.949
-58.1803
-57.4594
-57.2316
-56.9272
-57.0318
-56.4082
-55.8858
-55.6048
-53.0759
-54.5894
-50.8501
-60.738
-60.6459
-60.7101
-60.9008
-60.6362
-60.9071
-61.3472
-61.7087
-61.3953
-61.0542
-61.4619
-61.4175
-60.7512
-60.4326
-59.8884
-58.9756
-58.2877
-57.8792
-58.4985
-59.6641
-59.0588
-55.4166
-61.3725
-61.6209
-61.797
-61.9759
-62.0501
-62.4394
-62.577
-62.8515
-63.0893
-62.8292
-62.7301
-62.7255
-62.9325
-62.6923
-62.272
-61.9653
-60.9472
-59.601
-59.115
-60.3128
-63.2829
-64.8915
-65.6649
-61.8859
-61.6429
-61.6193
-61.7804
-61.9808
-62.1783
-62.2797
-62.3733
-62.4977
-62.7099
-62.8001
-62.866
-62.9593
-62.9673
-63.0647
-63.0827
-63.179
-62.4164
-61.4151
-61.167
-61.2968
-62.0425
-63.7793
-65.1227
-62.5085
-62.3729
-62.2872
-62.2573
-62.279
-62.2565
-62.1775
-62.2011
-62.1895
-62.3239
-62.5666
-62.9628
-63.0219
-63.2193
-63.3341
-63.6058
-63.3871
-62.9855
-62.7451
-62.2076
-61.9728
-62.2354
-62.5511
-63.3999
-62.7828
-40.0874
-40.0808
-40.1929
-40.2095
-40.1911
-40.3411
-40.2713
-40.2311
-40.2228
-40.4451
-40.3644
-40.4863
-40.3768
-40.3412
-40.5462
-40.6
-40.4645
-40.4814
-40.486
-40.4168
-40.8536
-40.6864
-40.6272
-40.5785
-40.5965
-40.533
-40.5448
-41.0134
-40.8807
-40.8497
-40.7466
-40.7604
-40.6958
-40.6796
-40.6799
-41.196
-41.1141
-41.1017
-41.0246
-40.895
-40.8939
-40.8822
-40.814
-40.8494
-41.5479
-41.3318
-41.3327
-41.2431
-41.2251
-41.1387
-41.0889
-41.0808
-41.0744
-41.0178
-41.9231
-41.8608
-41.652
-41.5619
-41.4589
-41.4617
-41.3169
-41.2986
-41.2839
-41.2694
-41.2316
-42.3565
-42.2719
-42.1095
-41.9789
-41.7974
-41.7229
-41.7076
-41.6645
-41.4778
-41.539
-41.5456
-41.5176
-42.9362
-42.8242
-42.6623
-42.4566
-42.3315
-42.1634
-42.1183
-42.0494
-41.9323
-41.8759
-41.8022
-41.7998
-41.7875
-43.5449
-43.3676
-43.3123
-43.1293
-42.8937
-42.764
-42.687
-42.5113
-42.5036
-42.4839
-42.1859
-42.3374
-42.0663
-42.1401
-44.4524
-44.3082
-44.11
-43.8382
-43.7238
-43.4855
-43.3662
-43.2832
-43.1965
-43.0081
-42.9594
-42.7481
-42.6801
-42.6261
-42.7089
-45.6115
-45.3069
-45.0875
-44.9636
-44.6386
-44.3709
-44.2368
-44.0852
-43.9528
-43.822
-43.7112
-43.4644
-43.1612
-43.1579
-43.0861
-43.0343
-46.8874
-46.605
-46.3067
-46.1406
-46.0071
-45.6304
-45.4444
-45.0761
-45.1012
-44.8955
-44.6674
-44.5453
-44.3013
-44.0184
-43.7967
-43.9717
-43.912
-48.6301
-48.578
-48.1355
-47.8852
-47.5596
-47.1612
-46.9549
-46.6704
-46.8918
-46.5741
-46.1871
-45.8742
-45.7432
-45.3083
-44.9219
-44.7329
-44.9241
-44.8809
-50.7609
-50.6968
-50.3187
-50.0798
-49.7982
-49.4843
-49.0215
-49.0455
-48.7928
-48.6553
-48.3837
-48.0339
-47.8068
-47.2921
-46.7622
-45.9529
-46.3078
-46.1693
-45.7226
-53.9918
-53.8596
-53.3709
-53.4607
-53.0043
-52.4094
-52.3887
-51.7689
-51.7022
-51.4912
-51.3571
-51.1917
-50.732
-50.0689
-49.4394
-48.6331
-47.7896
-47.2874
-47.8652
-45.2158
-57.8509
-57.446
-57.1336
-57.3972
-58.0839
-56.8057
-55.7777
-55.3201
-54.9389
-54.8823
-54.8811
-54.2407
-54.2232
-54.0406
-53.6657
-53.0182
-52.2077
-51.1131
-50.4619
-48.8034
-49.0664
-60.0979
-60.2568
-59.2524
-60.0245
-60.1637
-60.3361
-60.584
-59.6994
-58.8997
-58.6012
-58.2007
-58.359
-57.634
-57.2632
-56.9603
-56.9423
-56.584
-55.0479
-55.5267
-53.2784
-55.2305
-50.3874
-60.5364
-60.5013
-60.4999
-60.6701
-60.8341
-60.6073
-60.9037
-61.6639
-62.1549
-61.664
-61.4073
-61.8284
-61.7956
-61.0168
-60.57
-59.8758
-59.0194
-58.0334
-57.5828
-58.2065
-59.3494
-59.1834
-54.8306
-61.295
-61.4539
-61.6597
-61.8787
-61.9522
-62.0787
-62.5061
-62.6555
-62.9193
-63.267
-63.0722
-62.9251
-62.9203
-63.1947
-62.89
-62.3944
-62.0443
-60.9967
-59.6022
-59.057
-59.8549
-62.4895
-64.9938
-65.802
-62.2599
-61.9214
-61.6728
-61.6489
-61.7859
-61.9898
-62.2146
-62.3119
-62.3568
-62.5122
-62.7276
-62.8214
-62.909
-62.9917
-63.0421
-63.1608
-63.1387
-63.2369
-62.477
-61.4954
-61.1388
-61.2633
-62.0378
-63.7092
-65.0135
-62.5301
-63.1018
-62.392
-62.2881
-62.2464
-62.2764
-62.2512
-62.171
-62.1842
-62.1633
-62.3047
-62.5574
-62.9606
-63.0258
-63.2403
-63.3502
-63.6073
-63.4168
-63.0272
-62.7533
-62.1856
-61.9737
-62.2633
-62.4857
-63.4214
-40.0675
-40.0672
-40.0621
-40.2146
-40.2147
-40.2096
-40.1828
-40.3215
-40.2575
-40.2469
-40.1817
-40.2081
-40.4095
-40.3879
-40.3671
-40.3666
-40.3199
-40.3223
-40.6812
-40.5377
-40.5134