/*--------------------------------*- C++ -*----------------------------------*\
  =========                 |
  \\      /  F ield         | OpenFOAM: The Open Source CFD Toolbox
   \\    /   O peration     | Website:  https://openfoam.org
    \\  /    A nd           | Version:  7
     \\/     M anipulation  |
\*---------------------------------------------------------------------------*/
FoamFile
{
    version     2.0;
    format      ascii;
    class       surfaceScalarField;
    location    "4.5";
    object      phi;
}
// * * * * * * * * * * * * * * * * * * * * * * * * * * * * * * * * * * * * * //

dimensions      [0 3 -1 0 0 0 0];

internalField   nonuniform List<scalar> 
54125
(
-2.65263e-05
-0.000103977
6.54075e-05
1.25607e-05
-0.000174324
0.0014623
1.68548e-06
-0.000157017
-0.00108736
-2.11446e-05
-9.52073e-05
0.00018176
-0.000105098
0.00017422
0.00595682
-1.18152e-05
-0.000216521
0.00120473
4.89371e-05
-0.000167523
0.00155974
-8.14798e-06
-0.000128632
-0.000974053
-2.66237e-06
-0.000145319
-0.00103459
-2.13831e-05
-9.59575e-05
0.0002991
9.28088e-05
0.000290913
0.00609933
-7.76016e-05
0.000342649
0.00604706
0.000132524
0.000136628
0.0057366
2.56293e-06
-0.000136832
0.000837625
-2.42681e-06
-0.000206795
0.00124376
6.28585e-05
-0.000163722
0.00163922
-2.18063e-06
-0.000117428
0.000457063
-7.67302e-06
-0.000124568
-0.00098713
-6.46363e-06
-0.000148153
-0.00097593
-2.03961e-05
-9.61569e-05
0.000415653
2.77244e-05
0.000546874
0.00281429
-0.000207886
0.000528016
0.00837565
0.0002748
0.000309649
0.00564741
0.00030792
0.00019084
0.00367925
4.22275e-05
0.000204544
0.00593449
0.000229465
9.99707e-05
0.00547003
-0.000123538
-9.97065e-05
0.00172879
-2.27716e-05
-0.000119722
0.000765651
4.20316e-05
-0.000202523
0.00123407
7.32726e-05
-0.000155201
0.00170075
2.22398e-05
-0.000121619
0.000706711
1.26025e-05
-0.000113209
0.000433102
-1.00023e-05
-0.000132099
-0.000993183
-8.91676e-06
-0.000150824
-0.000912347
-1.68942e-05
-9.611e-05
0.000528657
-0.000852754
0.000775367
0.00524275
-0.000448999
0.000716593
0.00599156
-0.0003588
0.000574105
0.00287378
0.00055554
0.000728919
0.00769327
8.75604e-05
0.000568593
0.00807137
0.000202614
0.00035887
0.00531539
0.000177802
0.000109803
0.00107837
0.000214069
5.2016e-05
0.00359494
0.000340198
0.000117782
0.00561851
0.000317554
6.82961e-05
0.00515745
-0.000106985
-9.03875e-05
0.00132373
-5.99337e-05
-7.40963e-05
0.0017557
-4.99609e-05
-0.000122817
0.000725904
0.000113411
-0.00019568
0.00115222
8.95433e-05
-0.000149768
0.00174408
-4.57107e-05
-0.000104058
0.00113961
2.06791e-05
-0.000111209
0.000684032
2.42689e-05
-0.000119652
0.000396386
-1.40726e-05
-0.000139198
-0.000990736
-9.4803e-06
-0.000153428
-0.000845549
-1.22444e-05
-9.64953e-05
0.000637397
-0.00131581
0.000352456
0.00527992
-0.000690483
0.000848719
0.00550097
-0.00098343
0.000672005
0.00519538
-0.000198283
0.0010583
0.00901878
-7.37371e-05
0.000575556
0.00615141
-0.000724837
0.000618206
0.00318303
0.0007102
0.00101778
0.00547492
0.000309339
0.00073404
0.00743256
0.000448541
0.000598912
0.00772298
-2.8702e-05
0.000349708
0.00531194
8.20981e-05
6.40838e-05
0.000405459
0.000260963
5.13454e-05
0.000758145
0.000151402
-1.74012e-05
0.00352876
0.000503903
6.91867e-05
0.00522713
0.00037658
9.10936e-05
0.00477932
-0.00016108
-0.000130481
0.00141558
-0.000103892
-8.75615e-05
0.00146177
-1.48856e-05
-7.14944e-05
0.00174353
-6.54506e-05
-0.000134341
0.000715943
0.00011245
-0.000189955
0.00107048
0.000122769
-0.000150979
0.00176005
-7.51964e-05
-0.000102379
0.000979669
-4.05965e-05
-9.55463e-05
0.00116455
1.63864e-05
-0.000111764
0.000659758
2.93886e-05
-0.000125767
0.000353567
-1.96721e-05
-0.000145899
-0.000978593
-1.00119e-05
-0.000155518
-0.000776515
-7.85481e-06
-9.67446e-05
0.000741996
-0.00148732
0.000159794
0.0042374
-0.000655032
0.00069935
0.00585907
-0.00105689
0.000265108
0.00508826
-0.000393889
0.000684376
0.00784583
-0.000472954
0.000730813
0.00584138
-0.001257
0.000722083
0.00500546
0.00016077
0.00136274
0.00847358
-0.000285719
0.000923587
0.00926581
0.000201757
0.000520693
0.00649571
-0.00131698
0.000468858
0.00400245
0.000642896
0.000956828
0.00285233
0.000904556
0.000832842
0.00473253
0.000202703
0.000717356
0.00726281
0.000589563
0.000515204
0.00747183
-0.000161415
0.000349819
0.00550011
-0.000294382
-6.74055e-05
0.000616799
-0.000124547
3.03589e-05
0.0004471
0.000259184
1.2939e-05
0.000453734
0.000245308
-4.91231e-05
0.00333631
0.000514457
4.45938e-05
0.00487162
0.00035438
-1.56799e-05
0.00456339
-0.000126902
-0.000263043
0.00132769
-0.000142854
-0.000139418
0.0015697
-0.000114387
-7.39075e-05
0.00159495
3.03275e-06
-8.08982e-05
0.00171645
-0.000104367
-0.00014118
0.000751863
4.13622e-05
-0.000190936
0.00105906
0.000111775
-0.000155815
0.00179623
-6.35643e-05
-0.000108908
0.000910869
-6.55267e-05
-9.55052e-05
0.00104516
-4.69682e-05
-9.60975e-05
0.00119585
1.36487e-05
-0.000112431
0.000632774
3.39524e-05
-0.00013072
0.000304435
-2.16971e-05
-0.000151769
-0.000960645
-1.01033e-05
-0.000156741
-0.000706415
-3.11654e-06
-9.64101e-05
0.000841523
-0.00161221
0.000119055
0.00408422
-0.000707026
0.000223988
0.00489529
-0.00118415
0.000193895
0.00417077
-0.000282918
0.000739803
0.00579129
-0.000661783
0.000546304
0.00576671
-0.00137054
0.00015431
0.00504749
-9.18247e-05
0.00103531
0.00778734
-0.000516585
0.000689921
0.00811759
-0.000142204
0.000551499
0.00635592
-0.00140598
0.000610289
0.00448416
0.000548151
0.00142438
0.0082264
0.000438343
0.0012152
0.00864819
-0.000144431
0.000967496
0.00916614
0.000538256
0.000480019
0.00653585
-0.00160086
0.000395106
0.00504678
8.95807e-05
0.00076261
0.00214146
0.000320418
0.000773934
0.00246627
0.000929253
0.000659367
0.00412045
0.000580606
0.000625559
0.00681716
0.000808232
0.000481224
0.00704665
-0.000324966
0.000366538
0.00581292
-0.000299406
-0.000149477
0.000801452
-0.000308933
-8.59075e-05
0.000899144
-0.000331878
-5.565e-06
0.000683095
8.39229e-05
-2.35767e-05
0.000347298
0.000277915
-0.000109316
0.00310794
0.000413478
-8.2607e-05
0.00456643
0.000529165
-7.36931e-05
0.00421969
-9.01757e-05
-0.000344662
0.00119355
-0.000115279
-0.000260528
0.00149855
-0.000146607
-0.000143511
0.00173894
-0.000100811
-7.23619e-05
0.00170088
1.09307e-05
-9.25188e-05
0.00169081
-0.000116283
-0.000145902
0.000801413
-5.53619e-06
-0.000196161
0.00109484
0.000127926
-0.000165135
0.00183032
-4.78365e-05
-0.000111967
0.000988764
-4.9008e-05
-0.000101814
0.000966186
-6.42993e-05
-9.7735e-05
0.00111109
-4.8889e-05
-9.74594e-05
0.00122977
1.9665e-05
-0.000112339
0.000594728
3.93623e-05
-0.000135137
0.00024844
-2.46922e-05
-0.000156383
-0.00093631
-1.22885e-05
-0.000157203
-0.000633334
5.03343e-06
-9.59261e-05
0.000932416
-0.00170499
2.13165e-05
0.00342751
-0.000627192
0.000135989
0.00493594
-0.00142198
5.39666e-05
0.00426808
-0.000685079
0.000427735
0.00543099
-0.000633891
0.000234924
0.00482637
-0.0013236
9.7376e-05
0.00402646
-0.000166748
0.00104112
0.00590337
-0.000535882
0.000740348
0.00561654
-0.000417077
0.000609601
0.00558629
-0.00133041
9.78137e-05
0.00487412
0.000487032
0.00149615
0.00686632
0.00027822
0.00113718
0.0075002
0.00035014
0.000702537
0.00747198
0.000143616
0.000629486
0.00673136
-0.00148784
0.000293459
0.00407769
0.00069751
0.00141349
0.00509114
0.000618513
0.00138467
0.00775883
0.000739886
0.00129888
0.00850617
0.000418021
0.00100004
0.0088087
0.000895358
0.000531001
0.00631283
-0.00160697
0.000606818
0.00572197
-0.000129028
0.000862371
0.00221536
5.70033e-05
0.000624615
0.00192484
7.28151e-05
0.000604111
0.00211683
0.000673887
0.000541385
0.00361466
0.000865938
0.000439378
0.00627098
0.000883266
0.000431487
0.00651191
1.68e-05
0.000284275
0.00604101
-0.000304196
-0.00013401
0.00144058
-0.000322658
-0.000163444
0.00108637
-0.000287791
-0.000129671
0.00116443
-0.000368474
-5.74929e-05
0.000984673
-0.000110183
-4.39551e-05
0.00040305
0.000291971
-0.000152662
0.00276974
0.000390425
-0.000196411
0.00429319
0.000388766
-0.000134841
0.00409369
-0.000103995
-0.000323301
0.000942855
-7.12085e-05
-0.000336373
0.00129159
-0.000107052
-0.000285962
0.00168375
-0.000147796
-0.000159089
0.00192457
-7.95256e-05
-8.52022e-05
0.00179275
1.3295e-05
-0.000100154
0.00167113
-0.000107197
-0.000151114
0.00083887
-2.56375e-05
-0.000204967
0.00114802
0.000134672
-0.000176886
0.00187757
-7.3112e-06
-0.000127842
0.00116485
-4.19415e-05
-0.000103609
0.0010325
-4.68249e-05
-0.000104724
0.00102
-6.05821e-05
-0.000100359
0.00117457
-4.91168e-05
-9.86814e-05
0.00126523
2.46991e-05
-0.000113106
0.000547999
4.77374e-05
-0.000138261
0.000182581
-2.94035e-05
-0.00015999
-0.000904119
-1.26883e-05
-0.000157541
-0.000559031
1.01516e-05
-9.49404e-05
0.0010172
-0.00154001
-0.00012399
0.00315682
-0.000696196
0.000141996
0.00445167
-0.00153711
2.61786e-05
0.00351647
-0.00065555
0.000125595
0.00478031
-0.000520637
-1.09627e-05
0.00488762
-0.00130393
5.78318e-05
0.00419058
-0.000292437
0.000575103
0.00528037
-0.000190042
0.000378874
0.0049412
-0.00037404
0.000212027
0.00466868
-0.00140127
2.66572e-05
0.00407065
0.000158813
0.00140026
0.00547563
0.000143198
0.0010923
0.00568644
0.000255468
0.000836436
0.00548437
-0.000372807
0.000574011
0.00562651
-0.00130109
9.2249e-05
0.00459513
0.000432094
0.00179384
0.00623779
0.000462775
0.00151601
0.00664324
0.000560674
0.00134274
0.0070392
0.000507182
0.000922989
0.00708932
0.000230137
0.000705972
0.00698407
-0.00157944
5.2081e-05
0.00399807
0.000352518
0.0013569
0.00484352
0.000813374
0.00133428
0.00438516
0.000874934
0.00148318
0.00677242
0.000953755
0.00126336
0.00796297
0.000773867
0.000971456
0.00846032
0.000894378
0.00063855
0.00626999
-0.00143178
0.00068341
0.00648714
-0.000258272
0.00101937
0.00217555
-0.000375163
0.000775447
0.00211704
1.17932e-05
0.000575809
0.00165356
0.000116827
0.000476947
0.00169597
0.000446277
0.000374062
0.00312351
0.00106549
0.000300241
0.00562871
0.00094112
0.00044981
0.00579568
-0.000205222
0.000279025
0.00635597
-0.000336751
-0.000149329
0.00202592
-0.000290865
-0.000158644
0.00165543
-0.000334021
-0.000209875
0.00139354
-0.000269764
-0.000191483
0.00142039
-0.000311675
-9.58445e-05
0.00126871
-0.000206578
-7.27391e-05
0.000543
0.00024674
-0.000225292
0.00244468
0.000455729
-0.000258364
0.00393535
0.000331614
-0.000158666
0.00405541
-9.49264e-05
-0.000305629
0.00146663
-8.09037e-05
-0.000317484
0.000962928
-6.8759e-05
-0.000359746
0.00138731
-8.64443e-05
-0.000308708
0.00185923
-9.01088e-05
-0.00017851
0.00205887
-9.44707e-05
-0.000112735
0.0019245
3.03237e-05
-0.000109624
0.00164705
-0.000123206
-0.000158671
0.000886376
3.5033e-05
-0.000218627
0.00114204
0.000206725
-0.000187819
0.00186882
-5.55812e-05
-0.000146362
0.00118422
-2.59265e-06
-0.000118169
0.001182
-3.83677e-05
-0.000105569
0.00107171
-4.04145e-05
-0.000107877
0.00106793
-5.38952e-05
-0.00010267
0.00123246
-3.8577e-05
-0.00010029
0.00129099
2.47505e-05
-0.000113267
0.000498254
5.53826e-05
-0.000140804
0.000108012
-2.90279e-05
-0.000162724
-0.000869908
-1.12462e-05
-0.000157285
-0.00048544
1.80772e-05
-9.38882e-05
0.00109302
-0.00143442
-0.000212222
0.00328753
-0.000951143
6.71848e-05
0.00413568
-0.00139706
-0.000144801
0.00316157
-0.000441632
0.000161578
0.00446763
-0.000540468
9.46769e-05
0.00440301
-0.0014616
2.29343e-05
0.0036512
-0.000345075
0.000179208
0.00513701
-0.000207186
1.39738e-05
0.00477252
-0.000437845
7.98651e-05
0.00492939
-0.00129938
6.45895e-05
0.0040241
-0.000106803
0.000671679
0.00570368
-6.63029e-05
0.000589593
0.00527915
-0.000195673
0.000448966
0.0051554
-0.000452217
0.000170162
0.00460458
-0.00146313
6.35589e-05
0.00416913
0.000208392
0.00142337
0.00571405
4.73232e-05
0.00131202
0.00567136
0.000174492
0.00113781
0.00577125
-9.3103e-06
0.000927279
0.0056476
-0.000384242
0.000552024
0.00578112
-0.00138821
5.05938e-05
0.0043533
0.000187535
0.00174645
0.0067914
0.000447143
0.00176097
0.00635907
0.000628472
0.00169293
0.00653952
0.00101325
0.00146052
0.00644217
0.000501222
0.00108107
0.00698686
0.000101093
0.000777683
0.00705175
-0.00152415
9.48261e-05
0.00399561
8.95587e-05
0.00132991
0.0049943
-1.50204e-06
0.00120367
0.00460047
0.000654207
0.00133518
0.00389074
0.00103644
0.00136954
0.00574663
0.00113744
0.00118957
0.0070537
0.00110277
0.000958222
0.00810337
0.000658776
0.000794538
0.0064412
-0.00138726
0.000719651
0.00694953
-0.000214976
0.00107301
0.002476
-0.000415366
0.000930956
0.00214454
-0.000407175
0.000760004
0.002006
-0.000102778
0.000543848
0.00141967
0.000175245
0.000346254
0.00123686
0.000324985
0.000238519
0.00265367
0.00101378
0.000225223
0.00508626
0.000943014
0.000380631
0.00520679
-0.000239146
0.00035348
0.00657325
-0.000227787
-0.000208711
0.00219454
-0.000293697
-0.000174533
0.0022546
-0.00027331
-0.000214182
0.00186429
-0.000299182
-0.000281454
0.00169625
-0.000159995
-0.000271895
0.00166633
-0.00028973
-0.00012692
0.00151815
-0.000203603
-0.000104512
0.000656147
1.32553e-05
-0.000258264
0.00230812
0.000428219
-0.000315033
0.00369853
0.000338447
-0.000188882
0.00411257
-5.91778e-05
-0.000306197
0.00196739
-6.99148e-05
-0.000298218
0.00151469
-5.97486e-05
-0.000341011
0.000965574
-4.84851e-05
-0.000374586
0.00146126
-7.14973e-05
-0.000335972
0.0020343
-0.000137478
-0.000212527
0.00225757
-7.90618e-05
-0.000123315
0.002042
4.19717e-05
-0.00010781
0.0016096
-0.000137628
-0.000164832
0.000941182
7.10406e-05
-0.000231995
0.00110393
0.000217991
-0.000192
0.0018609
-1.48053e-05
-0.000145076
0.000664743
-4.69745e-05
-0.000134388
0.00124741
2.77603e-06
-0.00012054
0.00119419
-3.13968e-05
-0.000108157
0.00110339
-3.5615e-05
-0.000109601
0.00111048
-5.25457e-05
-0.00010521
0.00128992
-3.56703e-05
-0.000100982
0.00131437
2.88077e-05
-0.000113225
0.000441867
5.43948e-05
-0.000142692
3.35857e-05
-2.67798e-05
-0.000164094
-0.00083632
-1.17277e-05
-0.000156407
-0.000411193
2.45971e-05
-9.22312e-05
0.00116065
-0.00161474
0.00013645
0.00257412
-0.00116694
-4.0295e-05
0.00369295
-0.00127163
-0.000105192
0.00326731
-0.000381923
0.000157497
0.00445924
-0.000976557
0.000113433
0.00431353
-0.00138392
-0.000100713
0.0031846
-0.000357728
0.000185894
0.00465477
-0.000465185
0.000193662
0.00462664
-0.000533329
7.32735e-05
0.00444815
-0.0013641
5.75635e-05
0.00365836
-0.000190571
0.000324861
0.00533092
-0.000136692
0.000211284
0.00501009
-0.000346833
9.14848e-05
0.00491206
-0.00053996
0.000163992
0.00491773
-0.00142111
9.91793e-06
0.00397216
-5.01624e-05
0.000789429
0.00594424
-6.97215e-05
0.000672836
0.00573749
-1.49284e-05
0.000606039
0.0053115
-0.000161222
0.000433434
0.00504404
-0.000630693
0.000208638
0.00470595
-0.00150214
7.05727e-05
0.00421249
-4.05261e-05
0.00121292
0.00637625
5.98057e-05
0.00129685
0.00611656
0.000150871
0.00131471
0.00597206
0.000544095
0.00135031
0.00581737
-0.000241657
0.000933582
0.00600892
-0.000523175
0.00045725
0.00599873
-0.00141299
-8.78213e-06
0.00425092
-2.41629e-05
0.00166045
0.00730899
5.04717e-06
0.00179004
0.00675577
0.000259191
0.00184141
0.0066056
0.000842266
0.00174876
0.00644545
0.000875769
0.00148567
0.00629924
0.000679028
0.00122766
0.00696063
-0.000237736
0.000971829
0.00707126
-0.00155281
0.000250041
0.00391112
0.000105801
0.00119337
0.00611051
-9.93761e-05
0.00117076
0.00471122
2.40161e-05
0.00117
0.00433446
0.000405271
0.00115376
0.00359848
0.00103645
0.00118847
0.00488653
0.00114544
0.0010381
0.00615337
0.000963442
0.00103658
0.00791166
0.000470657
0.000922974
0.00671024
-0.00136278
0.00076683
0.00730634
-0.000117382
0.0010475
0.00322176
-0.000275214
0.000967199
0.00242127
-0.000437398
0.000895801
0.00217283
-0.000413451
0.000736281
0.00192783
-0.000273317
0.000455272
0.00142398
-6.43499e-05
0.000231397
0.0010186
0.00021307
8.71519e-05
0.00237507
0.000751893
0.000177178
0.00455108
0.000729094
0.000401372
0.00485802
-0.000332277
0.000458363
0.00678561
-0.000140397
-0.000240677
0.00271809
-0.000212107
-0.00022961
0.00239181
-0.000304435
-0.000231091
0.00251619
-0.000233542
-0.000294372
0.00206227
-0.000235461
-0.000377697
0.00196602
-0.000234316
-0.000345106
0.00198135
-0.000247637
-0.000182663
0.00176488
-0.000204284
-0.000138537
0.000782675
-0.000182427
-0.000315165
0.00235305
0.000228605
-0.000347533
0.00369962
0.000409969
-0.000211822
0.00413242
-2.06702e-05
-0.000321336
0.00175943
-3.87594e-05
-0.000291281
0.00195223
-4.69545e-05
-0.000317813
0.00154122
-4.51508e-05
-0.000363215
0.000967957
-1.49277e-05
-0.000389009
0.00149361
-4.55094e-05
-0.000347365
0.0021621
-7.80381e-05
-0.000225077
0.0024017
-1.22458e-05
-0.000128857
0.00210411
5.31944e-05
-0.000114984
0.00156095
-0.000136906
-0.000169883
0.000989196
8.87097e-05
-0.000236343
0.00104783
0.000196807
-0.000192535
0.00188123
-2.42245e-05
-0.000130957
-8.62776e-05
-6.50327e-06
-0.00013167
0.000668528
-4.25734e-05
-0.000136342
0.00130579
8.89753e-06
-0.00012284
0.00119998
-3.04626e-05
-0.000109954
0.00113421
-3.21266e-05
-0.000110174
0.00114757
-5.21775e-05
-0.000105876
0.00134699
-4.71245e-05
-0.000102202
0.00135047
1.68405e-05
-0.000113782
0.000396117
5.15992e-05
-0.00014395
-3.81583e-05
-2.04311e-05
-0.00016469
-0.000807606
-1.38809e-05
-0.000155049
-0.000334494
2.98779e-05
-8.96584e-05
0.00122043
-0.00174337
0.000101093
0.00246592
-0.00143778
0.000198793
0.00328137
-0.00145332
0.000102657
0.00265315
-0.000773782
0.000346346
0.00403053
-0.00114378
4.37179e-05
0.00371126
-0.00120774
-8.70943e-05
0.00317822
-0.000435433
0.000266206
0.00470882
-0.000499541
0.000208504
0.00439853
-0.000919823
0.000155987
0.00444333
-0.00140987
-5.62411e-05
0.00328661
-0.00030797
0.000298293
0.00472189
-0.000296021
0.000270192
0.00473756
-0.000532891
0.000236206
0.00464977
-0.000661818
0.000103343
0.00452423
-0.00146052
0.000128997
0.00356878
-0.000262879
0.000478879
0.00559242
-5.48645e-05
0.000336473
0.00519087
-0.00015496
0.000254025
0.00498758
-0.000302267
0.000173132
0.00504397
-0.000694784
0.000223933
0.0047678
-0.0014682
8.59001e-05
0.00385232
-8.53366e-05
0.000804803
0.00620192
-6.02885e-05
0.000738856
0.00599832
0.000168527
0.00071177
0.0056141
0.000138394
0.000666534
0.0054841
-0.00033385
0.000354051
0.00499082
-0.000758436
0.000231
0.00478079
-0.00152424
5.39513e-05
0.00426979
7.5114e-05
0.00102767
0.00682751
-3.765e-05
0.00107016
0.00664564
6.39576e-05
0.00123079
0.00639571
0.0005843
0.00140739
0.00617295
3.92128e-05
0.00134662
0.00624088
-0.000184937
0.000948056
0.00638208
-0.000699588
0.000367291
0.00608451
-0.00140288
-4.84131e-05
0.0041494
-0.00017054
0.00160635
0.00737983
4.49049e-05
0.00171404
0.00724071
3.09025e-05
0.00184479
0.00674551
0.00021174
0.00182816
0.00671973
0.000462289
0.00175296
0.00675232
0.000749367
0.00152421
0.00639876
0.000495028
0.00142075
0.00698012
-0.000173052
0.00106377
0.00690125
-0.00158034
0.000253918
0.00387476
8.09591e-05
0.00113567
0.00634398
0.000108693
0.00105601
0.00584136
-0.000142551
0.00113595
0.00445041
-3.2908e-05
0.00107547
0.0040322
0.000153625
0.000923005
0.00343699
0.000625792
0.000942707
0.00429178
0.000851824
0.000911982
0.00563921
0.0010615
0.00109196
0.00743307
0.000257346
0.00100671
0.0069421
-0.00129461
0.000863613
0.00740506
-0.000186244
0.00101038
0.00387022
-0.000140103
0.000947061
0.0031699
-0.000516087
0.000936598
0.00259213
-0.000498803
0.000843685
0.00233069
-0.000491129
0.000607069
0.0020317
-0.000379301
0.000335968
0.00146439
-0.000438554
6.96671e-05
0.001227
5.50846e-05
1.53797e-05
0.0022775
0.000420295
0.000170371
0.00417936
0.000170322
0.00050045
0.00487422
-0.000190885
0.000499103
0.00688737
-8.3376e-05
-0.00026308
0.00293032
-0.000104232
-0.000239542
0.00279349
-0.000202506
-0.000283698
0.00259997
-0.000291171
-0.000314781
0.00278262
-0.00017389
-0.00039124
0.00223477
-0.000126396
-0.000484862
0.00218666
-7.17387e-05
-0.00045956
0.00225195
-0.000158662
-0.000224877
0.00199764
-0.000186506
-0.000157147
0.000864357
-0.000288414
-0.000363633
0.00252066
0.000206157
-0.000350988
0.00372133
0.000266256
-0.000167623
0.00423059
-3.00259e-05
-0.000326208
0.00152335
7.7737e-06
-0.000300273
0.00175415
-2.57399e-05
-0.000304901
0.00192249
-1.80286e-05
-0.000334152
0.00153908
-1.94586e-05
-0.000372933
0.000940877
-1.68776e-05
-0.000384851
0.00151585
-2.34781e-05
-0.000365687
0.00227401
-5.83911e-05
-0.00024408
0.00252818
-4.47294e-05
-0.000131835
0.00218253
7.39272e-05
-0.000118997
0.00148774
-0.000123624
-0.000171351
0.0010274
7.59211e-05
-0.000237624
0.00100312
0.000239224
-0.000188764
0.00186065
-1.58667e-05
-0.000124852
-0.000369762
-2.10697e-05
-0.000118774
-7.81036e-05
6.03795e-06
-0.000131825
0.000657972
-3.41483e-05
-0.000138071
0.00135517
1.7135e-05
-0.000125353
0.00119824
-2.77318e-05
-0.000112247
0.00116401
-2.98088e-05
-0.000110264
0.00118177
-3.95731e-05
-0.000107122
0.00139149
-3.07457e-05
-0.000102648
0.00137009
1.1053e-05
-0.000114795
0.000355909
3.96695e-05
-0.000144597
-9.79207e-05
-1.85465e-05
-0.000165647
-0.000778461
-1.69591e-05
-0.000152574
-0.000254619
3.63993e-05
-8.71181e-05
0.00127115
-0.00185456
8.88716e-05
0.00230645
-0.00162214
0.000272592
0.0028738
-0.00157902
7.24396e-05
0.00251918
-0.00106537
0.000465721
0.00350321
-0.00108593
0.000129209
0.00319697
-0.0013036
8.89107e-05
0.00266009
-0.000583249
0.000513671
0.00411445
-0.000845343
0.0003633
0.00405675
-0.00112308
5.59201e-06
0.00382184
-0.00136102
-3.71734e-05
0.00316654
-0.000350653
0.000344258
0.00472759
-0.00033215
0.000279207
0.00467425
-0.000670082
0.000245056
0.00444665
-0.000873278
0.00014525
0.0044533
-0.00141695
-8.87436e-05
0.00333178
-0.000401521
0.000433823
0.00496306
-0.000153738
0.000342614
0.00474834
-0.000323169
0.00032873
0.00481325
-0.000629023
0.000248803
0.00483106
-0.000643424
0.000115353
0.00448651
-0.00148616
9.24226e-05
0.00349431
-5.78123e-05
0.000636487
0.00562691
-0.000164842
0.000462039
0.00557141
8.08081e-05
0.00036095
0.00517167
-9.28222e-05
0.000301068
0.00509086
-0.00047767
0.000342194
0.00506953
-0.000988715
0.000333482
0.0047505
-0.00153346
8.65073e-05
0.00377503
8.59686e-05
0.000858424
0.00616455
-7.81566e-05
0.000768227
0.00621305
-1.83207e-05
0.000757859
0.00603451
-8.88764e-05
0.000818163
0.00613565
-0.000239652
0.000667156
0.00544986
-0.000430697
0.000458713
0.00500887
-0.000912801
0.000196125
0.00485183
-0.00153413
9.02149e-05
0.00431083
-0.000129453
0.000908139
0.00706145
-3.09465e-05
0.000975588
0.00699793
6.77586e-06
0.00106873
0.00683182
0.00013291
0.00124285
0.00663908
0.000163929
0.0014438
0.00637413
7.64237e-05
0.00133946
0.00652242
-0.000163565
0.000878941
0.00652902
-0.000705131
0.000358422
0.00620975
-0.00138497
-9.9013e-05
0.00405304
-0.000168514
0.00149329
0.00744364
2.33482e-05
0.00152047
0.00765875
8.41823e-05
0.00178146
0.0070773
6.26308e-05
0.0017534
0.00672473
0.000185615
0.00171614
0.00672456
0.000396183
0.00161346
0.00689268
0.000366125
0.00146193
0.00684328
0.000505384
0.00139016
0.00720985
-0.000449776
0.00104068
0.00682161
-0.00163377
0.000280024
0.0039339
-4.1917e-06
0.00104644
0.00633325
0.000151464
0.000996353
0.00611208
-0.000123853
0.0010351
0.00554998
-0.000225822
0.00112955
0.00412336
-0.00013531
0.000892837
0.00370655
-5.34442e-06
0.000730725
0.00327502
1.71324e-05
0.000621358
0.00412672
0.000635443
0.000842703
0.00530811
0.00085367
0.00101134
0.00699506
-0.000102887
0.00108341
0.00699552
-0.00122536
0.000902599
0.00753693
2.63456e-05
0.000921991
0.00438594
-5.57429e-05
0.000917241
0.00385156
-0.000430328
0.000941927
0.00339239
-0.000623082
0.000905457
0.00286227
-0.000213825
0.000707506
0.00227019
-0.000418588
0.000398657
0.00226121
-0.000352246
0.0001418
0.00167276
-0.000434347
0.000125825
0.00139224
-0.000186643
-2.30955e-05
0.0024711
-0.000190409
0.00017066
0.00441114
4.36637e-05
0.000488965
0.00504685
-0.000347506
0.000579955
0.00692117
-9.33203e-05
-0.000333489
0.00262035
-5.70616e-05
-0.0002525
0.00300811
-8.0266e-05
-0.000271056
0.00283538
-0.000119013
-0.000355668
0.00274184
-0.000206842
-0.000411116
0.00298988
-6.69727e-05
-0.000500328
0.00230033
-2.76425e-05
-0.000608211
0.00233947
-2.50704e-05
-0.000541831
0.00253558
-0.000130578
-0.000254406
0.00218074
-0.000178073
-0.000230172
0.000982896
-0.000259776
-0.000389896
0.00269572
7.30986e-05
-0.000321154
0.00387769
0.000264913
-0.000189536
0.00439444
-1.36914e-05
-0.000349707
0.00142969
-4.55813e-06
-0.000298524
0.00150509
3.85347e-05
-0.000304641
0.00172139
-1.33996e-06
-0.000321156
0.00187668
6.55308e-06
-0.000343512
0.00152024
7.99182e-06
-0.000373601
0.000893903
1.06736e-05
-0.000385115
0.00149479
-1.46469e-05
-0.000368647
0.00237365
1.217e-05
-0.000251571
0.002605
-1.82729e-05
-0.000167871
0.00226073
5.64833e-05
-0.000113379
0.00141295
-0.000113244
-0.000170466
0.00105494
7.94484e-05
-0.000236584
0.000954532
0.000250612
-0.000179093
0.00182553
-5.09119e-05
-0.000117013
-0.00030038
-1.74322e-05
-0.000113435
-0.00035767
-1.1132e-05
-0.00011904
-7.9756e-05
6.69063e-06
-0.000131719
0.000644929
-2.16332e-05
-0.000139749
0.0013912
2.31871e-05
-0.000127924
0.00119073
-2.04547e-05
-0.000115101
0.0011893
-3.49126e-05
-0.000110877
0.00122043
-4.18913e-05
-0.000107432
0.00143816
-4.48833e-05
-0.000104405
0.00140458
4.40641e-06
-0.000115743
0.000322649
2.48148e-05
-0.00014563
-0.000142753
-2.34489e-05
-0.000166644
-0.000740943
-2.16657e-05
-0.000149306
-0.000170765
4.34333e-05
-8.42134e-05
0.00131193
-0.00170601
-3.51065e-05
0.00250776
-0.00157358
9.59848e-05
0.00287735
-0.00163319
6.26154e-05
0.002298
-0.00116785
0.000360028
0.0033133
-0.00129436
0.000272002
0.00288267
-0.00148166
4.18536e-05
0.00265539
-0.00070334
0.000684921
0.00360873
-0.00110629
0.000347244
0.00354613
-0.00123987
0.000184637
0.00321803
-0.00144048
8.76732e-05
0.00265187
-0.000349219
0.000585989
0.00426178
-0.000538866
0.000497519
0.00418694
-0.000944878
0.000250449
0.00408669
-0.0010431
5.01685e-05
0.00390432
-0.00139822
-2.25189e-05
0.00317033
-0.000529491
0.000519285
0.00479494
-0.000230332
0.000333612
0.00474978
-0.000214739
0.000271944
0.00453893
-0.000822838
0.000238995
0.00454672
-0.000803063
6.86112e-05
0.00445558
-0.00147933
-6.05327e-05
0.00338548
-0.000264681
0.000612594
0.00513912
-0.000300324
0.000440986
0.00500017
-0.000153742
0.000372967
0.00493865
-0.000428051
0.000389062
0.00500822
-0.000652185
0.000195813
0.00492512
-0.000883365
0.000128741
0.00434484
-0.00149567
0.00018069
0.00327583
-0.000158462
0.000889235
0.00571615
-0.00010838
0.000592999
0.00552617
-8.90466e-05
0.00053736
0.00546573
-0.000293593
0.000413713
0.00526374
-0.000286895
0.000351382
0.00512892
-0.000646519
0.000384894
0.00523394
-0.001255
0.000322355
0.00485685
-0.00162618
7.6436e-06
0.00385944
-0.000184541
0.000887407
0.00611292
-1.0911e-05
0.000830523
0.00608222
2.25357e-05
0.000834348
0.0061208
-4.43292e-05
0.000820643
0.00620927
0.000115711
0.000842044
0.00600898
-9.92112e-05
0.000681004
0.0054032
-0.000528017
0.00039265
0.00517679
-0.00096235
0.000324349
0.00487491
-0.0015069
0.000156073
0.00427669
-2.47661e-05
0.000906389
0.00709121
-4.32664e-05
0.000872549
0.0072311
8.47338e-05
0.000976851
0.00708927
0.000126704
0.00110243
0.00690817
0.00012452
0.00130538
0.00683859
0.000102299
0.00145778
0.00654969
-0.000128467
0.00129657
0.00659938
-0.000184503
0.000874823
0.00670251
-0.000766227
0.000356353
0.00607084
-0.00140562
-0.000129765
0.00395466
2.65041e-05
0.00139872
0.00723112
-2.21903e-05
0.0013732
0.00776455
0.000133563
0.00160586
0.00757693
0.000135839
0.00164295
0.0068261
0.000140713
0.00163749
0.00652736
0.000193906
0.00157256
0.00656621
0.000278064
0.00142085
0.00667283
0.000195577
0.0014521
0.0072212
0.000237519
0.00126545
0.00760123
-0.000799844
0.00106716
0.00673143
-0.00160638
0.000316179
0.00399875
0.000249038
0.00084444
0.0062493
0.000143512
0.000901958
0.0062284
-0.000231226
0.00095748
0.0059906
-0.000211654
0.00105185
0.00521625
-9.03538e-05
0.00103615
0.00385657
-0.000379618
0.000719617
0.00367869
-0.000290204
0.000491061
0.00334327
1.74332e-05
0.000481114
0.00403653
0.000155381
0.000703687
0.00527374
0.000179456
0.00095064
0.00675797
-0.000285003
0.0011694
0.00705738
-0.00120107
0.000842317
0.00754817
-7.59902e-05
0.000875505
0.00459662
6.02157e-05
0.000845325
0.00434057
-1.74918e-05
0.00091021
0.0038205
-0.000354851
0.000937368
0.00359632
-0.000576319
0.000861677
0.00307757
-0.000358032
0.000481212
0.00247869
-0.000291696
0.000251254
0.00241581
-0.000403801
0.000213198
0.00196412
-0.000393597
-5.79751e-05
0.00169014
-0.000342568
-0.000105662
0.00291192
-0.000165782
0.000155789
0.00465032
-0.000215018
0.000536262
0.00537866
-0.000419751
0.000551705
0.00705413
-8.52857e-05
-0.000406978
0.00233058
-5.92283e-05
-0.000321886
0.00274441
-4.78081e-05
-0.00027281
0.00309621
-5.58294e-05
-0.000314689
0.00284889
-0.000100942
-0.000443332
0.00288155
-0.00011658
-0.000508539
0.00312267
7.68554e-06
-0.00060859
0.0023037
-8.74314e-06
-0.000708887
0.00250062
0.000122513
-0.000592171
0.00276301
-5.54726e-05
-0.000328371
0.00231614
-0.000162487
-0.00027723
0.0010892
-0.000257113
-0.000399953
0.00291839
7.51515e-05
-0.000308005
0.00400045
0.000240996
-0.000167587
0.00457164
-8.67075e-05
-0.000344855
0.000839615
-1.26643e-05
-0.000306608
0.00143301
4.24847e-05
-0.000298036
0.00144487
4.78529e-05
-0.000310334
0.00166941
4.14313e-05
-0.000333232
0.00180334
3.75414e-05
-0.000347669
0.00147996
2.47012e-05
-0.000369541
0.000833173
1.0778e-05
-0.000374013
0.00145447
-5.74635e-05
-0.000381173
0.00251883
-5.48434e-05
-0.000277644
0.00272474
-8.28563e-06
-0.000149495
0.00230953
2.98601e-05
-0.000129029
0.00136647
-0.000115327
-0.000169717
0.00107995
7.9874e-05
-0.000232812
0.000906711
0.000250529
-0.000167768
0.0017862
-6.24697e-05
-0.000106863
6.58775e-05
-5.42066e-05
-0.000105557
-0.000254052
-1.62787e-05
-0.000113805
-0.000346627
1.44988e-06
-0.000119138
-9.37865e-05
9.94489e-06
-0.000131434
0.00062667
-7.41722e-06
-0.000141457
0.00141215
2.55398e-05
-0.000130643
0.00118074
-1.56831e-05
-0.000117323
0.00121143
-2.72934e-05
-0.000111446
0.00125174
-3.34223e-05
-0.000109071
0.00147625
-2.76799e-05
-0.000104705
0.00142122
1.42554e-05
-0.000116384
0.000279147
1.36166e-05
-0.000147707
-0.000175305
-2.62878e-05
-0.000166819
-0.000697142
-2.7633e-05
-0.000144975
-8.23703e-05
4.9008e-05
-8.07598e-05
0.00134368
-0.00168761
4.11498e-05
0.0021792
-0.00151186
-4.3793e-05
0.00312629
-0.00156366
-3.42591e-05
0.00247249
-0.00114559
9.85447e-05
0.00338717
-0.00123338
1.77274e-07
0.00287881