/*--------------------------------*- C++ -*----------------------------------*\
  =========                 |
  \\      /  F ield         | OpenFOAM: The Open Source CFD Toolbox
   \\    /   O peration     | Website:  https://openfoam.org
    \\  /    A nd           | Version:  7
     \\/     M anipulation  |
\*---------------------------------------------------------------------------*/
FoamFile
{
    version     2.0;
    format      ascii;
    class       surfaceScalarField;
    location    "4.5";
    object      phi_0;
}
// * * * * * * * * * * * * * * * * * * * * * * * * * * * * * * * * * * * * * //

dimensions      [0 3 -1 0 0 0 0];

internalField   nonuniform List<scalar> 
54125
(
-2.59776e-05
-0.000103548
8.02077e-05
1.98785e-05
-0.00017729
0.00146974
2.54532e-06
-0.000156858
-0.00108607
-2.0775e-05
-9.47756e-05
0.000195759
-7.27e-05
0.000171798
0.00593601
-9.96671e-06
-0.000220036
0.00119883
5.35042e-05
-0.000168779
0.00156424
-7.20092e-06
-0.000128738
-0.000974139
-1.84895e-06
-0.00014515
-0.00103384
-2.12016e-05
-9.54112e-05
0.000312371
0.000112465
0.000295605
0.00608839
-5.50282e-05
0.000328271
0.00602398
0.000153116
0.000129398
0.005707
2.80469e-06
-0.000138032
0.000830555
1.84965e-06
-0.000208305
0.00123466
6.57867e-05
-0.000163544
0.0016408
-1.3552e-06
-0.000117649
0.000460356
-7.10561e-06
-0.000124666
-0.000987517
-5.68992e-06
-0.000147967
-0.000975599
-1.97658e-05
-9.56024e-05
0.000427739
-1.62211e-05
0.000555315
0.00282322
-0.000147455
0.000527408
0.00835569
0.000298591
0.000317954
0.00562496
0.000323698
0.00017411
0.00362838
9.6852e-05
0.000183152
0.00587523
0.000246128
9.23732e-05
0.00543429
-0.000119402
-9.90027e-05
0.00174324
-2.58341e-05
-0.000119262
0.000760241
5.61742e-05
-0.000202943
0.00121219
7.76593e-05
-0.000155117
0.00169849
2.27053e-05
-0.000121936
0.000709739
1.48607e-05
-0.000113478
0.000434307
-9.84867e-06
-0.000132197
-0.000993439
-7.89407e-06
-0.000150629
-0.000912679
-1.59971e-05
-9.5645e-05
0.000539381
-0.000865915
0.000780031
0.00521913
-0.00041128
0.000719616
0.00603502
-0.000370255
0.000574466
0.0029176
0.00058286
0.000725508
0.00765959
0.000170467
0.000586071
0.00801396
0.00020784
0.000354908
0.00530834
0.000192612
0.000104906
0.00103752
0.000190731
3.59598e-05
0.00355901
0.000367145
0.000108706
0.00554792
0.000333277
6.7868e-05
0.0051108
-0.000107068
-9.12925e-05
0.00133837
-5.11147e-05
-7.2679e-05
0.00176264
-4.75129e-05
-0.000124244
0.000719205
0.000121056
-0.000195947
0.00112407
9.53299e-05
-0.000150219
0.00173738
-4.5312e-05
-0.000104589
0.00114483
2.10589e-05
-0.000111526
0.000686727
2.53745e-05
-0.000119979
0.000396715
-1.42355e-05
-0.000139292
-0.00099054
-8.69654e-06
-0.000153148
-0.000846479
-1.12726e-05
-9.60237e-05
0.000646678
-0.00130783
0.00035515
0.00527296
-0.000687267
0.000844341
0.00553926
-0.00100383
0.000676455
0.00517624
-0.000191019
0.00105828
0.00908691
-2.88861e-05
0.000568334
0.00624051
-0.000757414
0.000613551
0.0032693
0.000740983
0.0010088
0.00538238
0.000258536
0.000742994
0.00743486
0.000458787
0.000584004
0.00769322
-3.12755e-05
0.000342275
0.00533062
6.15212e-05
6.21192e-05
0.000398896
0.000262916
4.82857e-05
0.000711161
0.000161517
-1.99066e-05
0.00347859
0.000514632
6.01878e-05
0.00516203
0.000381038
8.69151e-05
0.00473818
-0.000161434
-0.000131902
0.00143362
-0.000104461
-8.79311e-05
0.00147914
-1.035e-05
-7.24409e-05
0.00174656
-6.95472e-05
-0.000135921
0.000714491
0.00010739
-0.000190225
0.00104799
0.000125975
-0.000152073
0.00175221
-7.49123e-05
-0.000102856
0.000984879
-4.02841e-05
-9.59678e-05
0.00116956
1.65753e-05
-0.000112157
0.00066233
2.98755e-05
-0.000126138
0.000353685
-1.98302e-05
-0.000145988
-0.00097787
-9.32166e-06
-0.000155253
-0.000777928
-6.82446e-06
-9.62389e-05
0.000749741
-0.00148541
0.00016017
0.00423765
-0.000652015
0.000700819
0.00583338
-0.00107329
0.000254458
0.00508797
-0.000383294
0.000675519
0.00790078
-0.000441967
0.000719676
0.00590912
-0.00127286
0.000720167
0.00497153
0.000173112
0.00135587
0.0085178
-0.000304847
0.000922063
0.00929656
0.000245103
0.000514409
0.00655333
-0.00134321
0.000455329
0.0041259
0.000617335
0.000947311
0.00280986
0.000912013
0.000819318
0.00465696
0.000229483
0.000702321
0.00724858
0.000606547
0.000502129
0.00744145
-0.000170166
0.00034651
0.00553531
-0.00029969
-7.04943e-05
0.000645502
-0.00015237
2.83996e-05
0.000466691
0.000244984
1.11137e-05
0.000424807
0.000240382
-5.83745e-05
0.00328723
0.00050552
3.85859e-05
0.00481222
0.000367725
-3.68973e-05
0.00453333
-0.000127486
-0.000264839
0.00134811
-0.000143033
-0.000140498
0.00158893
-0.000114674
-7.31175e-05
0.00161106
4.22321e-06
-8.24586e-05
0.00171875
-0.000102832
-0.000141967
0.000749234
2.571e-05
-0.000191637
0.00105253
0.000114298
-0.000156981
0.00178806
-6.312e-05
-0.000109333
0.000915206
-6.54625e-05
-9.58847e-05
0.00105026
-4.71118e-05
-9.655e-05
0.00120107
1.43955e-05
-0.000112905
0.000634702
3.43521e-05
-0.000131146
0.00030449
-2.19407e-05
-0.000151858
-0.000959325
-9.35068e-06
-0.000156537
-0.000708279
-2.02716e-06
-9.59006e-05
0.000847669
-0.00161145
0.000117679
0.00409225
-0.000702393
0.000226432
0.00489189
-0.0011881
0.000190327
0.00416213
-0.00028208
0.000743956
0.00577228
-0.000653652
0.000545237
0.00575429
-0.00136765
0.000149906
0.00503284
-7.90945e-05
0.0010543
0.00775809
-0.000481181
0.000699086
0.0080977
-9.13327e-05
0.000543497
0.00642223
-0.00141261
0.000584132
0.00445679
0.000563951
0.00143102
0.00818319
0.000475001
0.00121985
0.00865702
-8.53052e-05
0.000974635
0.00915112
0.000579436
0.00047981
0.00655596
-0.00160186
0.000406607
0.00515099
8.84498e-05
0.000753952
0.00212906
0.000286111
0.000756665
0.00243403
0.000910922
0.000646369
0.00404698
0.00062935
0.000605391
0.00675635
0.000828248
0.00046852
0.00699672
-0.000306391
0.000358582
0.00585084
-0.000302872
-0.000154855
0.000821635
-0.000308654
-8.96715e-05
0.000929194
-0.000344232
-7.71173e-06
0.000715075
5.01976e-05
-2.48743e-05
0.000345332
0.000282121
-0.00011327
0.00305413
0.000392579
-0.000107618
0.00451608
0.000523452
-8.08964e-05
0.00420507
-8.94732e-05
-0.000347709
0.00120717
-0.000114806
-0.00026232
0.00151927
-0.000147514
-0.000143646
0.00175986
-9.92067e-05
-7.27899e-05
0.001715
1.149e-05
-9.36432e-05
0.00169329
-0.000114354
-0.000146239
0.000796248
-6.43573e-06
-0.000197314
0.00108994
0.000130172
-0.000166587
0.00182245
-4.81615e-05
-0.000112119
0.000988296
-4.83982e-05
-0.000102224
0.000969943
-6.43274e-05
-9.8056e-05
0.00111609
-4.80386e-05
-9.80354e-05
0.00123423
2.06244e-05
-0.00011283
0.000595762
3.99979e-05
-0.000135508
0.000248142
-2.51608e-05
-0.000156513
-0.000934188
-1.16705e-05
-0.000156968
-0.000635541
6.52438e-06
-9.54002e-05
0.000936545
-0.00170704
2.11108e-05
0.00343421
-0.000626924
0.000132283
0.00493321
-0.00141653
5.34992e-05
0.00426717
-0.000670684
0.000430791
0.00541989
-0.000625244
0.000234682
0.00481913
-0.00132255
9.09725e-05
0.00402607
-0.000139523
0.00105161
0.00587231
-0.000514315
0.000749738
0.00560091
-0.000400711
0.000613167
0.0056004
-0.00133101
9.71031e-05
0.00485414
0.000502666
0.00151957
0.00680739
0.000324788
0.00116863
0.00743876
0.000428196
0.000719916
0.00740778
0.000170392
0.000631448
0.00678395
-0.00149533
0.000271556
0.00407871
0.000715322
0.00142031
0.0049989
0.000645748
0.00139709
0.00764631
0.000778581
0.00130404
0.00845995
0.00049793
0.00100453
0.00875783
0.000912697
0.000540243
0.00633788
-0.00160309
0.000622542
0.00582514
-0.000144915
0.000860984
0.00219771
5.22386e-05
0.000617296
0.00190754
6.83701e-05
0.000586695
0.0020811
0.000631936
0.000528856
0.00354178
0.000893789
0.00041412
0.00619908
0.000906211
0.000424144
0.00641752
1.22923e-05
0.000276195
0.00608581
-0.000304688
-0.000140383
0.00145758
-0.000324375
-0.000169936
0.00111147
-0.000285163
-0.000134519
0.00119365
-0.000363196
-5.97906e-05
0.00101398
-0.000131739
-4.40496e-05
0.000419341
0.000289466
-0.000156831
0.00269952
0.00039674
-0.000205461
0.00423746
0.000390915
-0.000142172
0.0040865
-0.000102114
-0.000326868
0.000940492
-7.02908e-05
-0.000339098
0.00130584
-0.000105738
-0.00028773
0.00170477
-0.000147333
-0.000160015
0.00194638
-7.87279e-05
-8.70563e-05
0.00180776
1.4131e-05
-0.000100871
0.00167379
-0.000105031
-0.000151567
0.000830371
-2.08071e-05
-0.000206379
0.00113887
0.000139842
-0.000178305
0.00186744
-6.81555e-06
-0.000127893
0.00116527
-4.22616e-05
-0.000103712
0.00103205
-4.65883e-05
-0.000105146
0.00102362
-6.00115e-05
-0.000100671
0.00117874
-4.85337e-05
-9.91994e-05
0.00126914
2.56191e-05
-0.000113622
0.000548257
4.85227e-05
-0.00013858
0.000181687
-3.0165e-05
-0.000160074
-0.000900917
-1.19946e-05
-0.000157233
-0.000561713
1.15245e-05
-9.44054e-05
0.00101943
-0.00154247
-0.000123564
0.00315352
-0.000695457
0.000140203
0.00445216
-0.00153431
2.67586e-05
0.00352523
-0.000647418
0.000123668
0.00477938
-0.000514975
-1.24336e-05
0.00488888
-0.00129999
5.76293e-05
0.00418698
-0.000278753
0.000581668
0.00528498
-0.000171778
0.000382161
0.00492987
-0.000364633
0.000207154
0.00466687
-0.00140513
2.33783e-05
0.00407681
0.000157043
0.00140347
0.00548274
0.000163693
0.00110497
0.00567817
0.000299328
0.000844771
0.00549817
-0.000361275
0.000574899
0.00565428
-0.00130645
8.94858e-05
0.00457578
0.000439667
0.00180578
0.00625204
0.000478393
0.00153891
0.00660446
0.000606082
0.00137044
0.00696073
0.000518124
0.000946543
0.00707249
0.000220694
0.000719963
0.00702755
-0.0015892
4.99673e-05
0.00401485
0.000337186
0.00136052
0.00481056
0.000809076
0.00133401
0.00430515
0.000897596
0.00148528
0.00663585
0.000976843
0.00125879
0.00786078
0.000813414
0.000964418
0.00841403
0.000901289
0.000655583
0.00630976
-0.00142416
0.000692245
0.00656935
-0.000277106
0.00101921
0.00216588
-0.00039711
0.000773117
0.00211463
1.97137e-06
0.000571439
0.00163566
0.000132798
0.000465321
0.00164864
0.000423418
0.000356957
0.00304378
0.00107544
0.000289935
0.00554731
0.000940992
0.000445896
0.00570357
-0.00019607
0.000275478
0.00639732
-0.000334961
-0.000155991
0.00204881
-0.000288461
-0.000166222
0.00167204
-0.000330835
-0.000218158
0.0014202
-0.000266291
-0.000197688
0.00145051
-0.000306238
-9.66405e-05
0.00129408
-0.000209151
-7.32064e-05
0.000558999
0.000227765
-0.000229069
0.00239034
0.000467842
-0.000266415
0.00387306
0.000317544
-0.000161067
0.00406986
-9.28089e-05
-0.000308891
0.0014659
-7.84177e-05
-0.000320694
0.000958243
-6.78393e-05
-0.000362265
0.00140162
-8.49816e-05
-0.000310352
0.00188008
-8.85539e-05
-0.000180024
0.00207937
-9.40884e-05
-0.000114728
0.00194133
3.16217e-05
-0.000109784
0.0016489
-0.00012522
-0.000159176
0.000878224
4.45055e-05
-0.000220188
0.00112426
0.000216889
-0.000188494
0.00185057
-5.54507e-05
-0.000146414
0.00119289
-2.02134e-06
-0.00011821
0.00118179
-3.80475e-05
-0.000105707
0.00107065
-4.02914e-05
-0.000108204
0.00107145
-5.33903e-05
-0.000102996
0.00123593
-3.70906e-05
-0.00010078
0.00129339
2.56055e-05
-0.000113678
0.00049775
5.59594e-05
-0.000141158
0.00010681
-2.94686e-05
-0.000162684
-0.000865997
-1.05484e-05
-0.000157043
-0.000488528
1.93019e-05
-9.33293e-05
0.00109345
-0.00143157
-0.000214789
0.00329092
-0.000953849
6.98118e-05
0.00414202
-0.00139747
-0.000144133
0.00316081
-0.000443843
0.000163302
0.00446688
-0.000535052
9.41342e-05
0.00440486
-0.00145792
2.34389e-05
0.00365972
-0.000336061
0.000183027
0.0051349
-0.000195372
1.28535e-05
0.00477768
-0.000434836
8.46511e-05
0.00493206
-0.00130357
6.2719e-05
0.0040227
-0.000106964
0.000675497
0.00572466
-5.68333e-05
0.000593892
0.00529378
-0.000190623
0.000453009
0.00517397
-0.000456399
0.000169345
0.00461603
-0.00146765
6.53353e-05
0.00417267
0.000203084
0.00141775
0.00575927
4.5866e-05
0.00131289
0.00570735
0.000185945
0.00114798
0.0057951
-3.74683e-05
0.00093258
0.00569608
-0.000390351
0.000546531
0.00580827
-0.00139246
4.27011e-05
0.00433633
0.000174104
0.00176691
0.00681208
0.000438231
0.00177608
0.00638572
0.000634085
0.00170688
0.00653154
0.00102484
0.00146591
0.00639337
0.000515314
0.00111165
0.0069789
8.9127e-05
0.000807049
0.00708263
-0.00152626
0.000106669
0.00401028
7.50867e-05
0.00132816
0.00496686
-3.24815e-05
0.00119792
0.00458202
0.000616236
0.00132333
0.00385284
0.0010511
0.00135038
0.00562595
0.0011532
0.00117619
0.00691923
0.00110046
0.000964692
0.0080799
0.000622562
0.000821652
0.00649878
-0.00138176
0.000724186
0.00703086
-0.00021082
0.00107015
0.0024614
-0.000424003
0.000928297
0.00214624
-0.000411915
0.00075746
0.00200968
-0.000123023
0.000539593
0.00141812
0.000163388
0.000337173
0.0011988
0.000317084
0.000227649
0.00257983
0.000988827
0.000221066
0.00501108
0.000950489
0.000370935
0.00512547
-0.000261365
0.000370504
0.00660572
-0.000225537
-0.000214868
0.00221503
-0.000292087
-0.000182176
0.00227843
-0.000269327
-0.000223907
0.00187928
-0.000293348
-0.000292018
0.0017229
-0.00015609
-0.000278169
0.00169957
-0.000287565
-0.000129915
0.00154427
-0.000204677
-0.000104697
0.000670925
-2.49184e-05
-0.000260705
0.00228432
0.000408268
-0.000319304
0.00366753
0.000352553
-0.000193213
0.00412741
-5.85602e-05
-0.000308128
0.0019644
-6.74197e-05
-0.00030113
0.00151174
-5.70559e-05
-0.000343727
0.000958714
-4.6219e-05
-0.000376605
0.0014738
-7.06252e-05
-0.000336573
0.00205386
-0.000137822
-0.000214289
0.00227966
-7.64527e-05
-0.000123191
0.00205679
4.29098e-05
-0.000107338
0.00161011
-0.000138259
-0.000164986
0.000931811
7.65283e-05
-0.00023308
0.00108176
0.000220527
-0.000192071
0.00184141
-1.41708e-05
-0.000145433
0.000677809
-4.69595e-05
-0.000134457
0.00125609
3.42214e-06
-0.000120584
0.00119324
-3.12508e-05
-0.000108291
0.00110199
-3.54156e-05
-0.000109777
0.00111364
-5.29075e-05
-0.000105388
0.00129344
-3.6449e-05
-0.000101471
0.00131763
2.94673e-05
-0.000113701
0.000440826
5.47183e-05
-0.000143102
3.25095e-05
-2.64299e-05
-0.000164076
-0.000832534
-1.11999e-05
-0.000156216
-0.000414441
2.6008e-05
-9.16365e-05
0.00115908
-0.00161117
0.00013553
0.00257815
-0.0011689
-4.06644e-05
0.00369695
-0.00127006
-0.000104988
0.0032685
-0.000380895
0.000158551
0.00445684
-0.000973598
0.000115069
0.00432137
-0.00138531
-9.82388e-05
0.00318644
-0.00035858
0.000189552
0.0046586
-0.000463526
0.000195892
0.00463328
-0.000534482
7.30258e-05
0.00445492
-0.00136215
5.98911e-05
0.00365841
-0.000191522
0.00032983
0.00532869
-0.000131919
0.000212935
0.00500991
-0.000350944
9.64368e-05
0.00492622
-0.000547154
0.00016964
0.00491589
-0.00142542
8.49717e-06
0.00397198
-5.62007e-05
0.000791625
0.005962
-6.15194e-05
0.000674486
0.00575146
-8.07758e-06
0.000609892
0.00533092
-0.000170313
0.000428043
0.00504812
-0.000638243
0.000211887
0.00471737
-0.00150123
6.91429e-05
0.0042123
-4.76505e-05
0.00120321
0.00642235
5.40515e-05
0.00128869
0.00616765
0.000169788
0.00131429
0.00600533
0.000530467
0.00135916
0.00586289
-0.000243294
0.00093593
0.00606529
-0.000536318
0.000448512
0.00602791
-0.00141453
-1.10535e-05
0.00423565
-1.95796e-05
0.00168038
0.00732023
-1.05223e-05
0.00180262
0.00676357
0.000232179
0.00184375
0.0066329
0.000820486
0.00174902
0.00647904
0.000867689
0.00149057
0.00629997
0.000656495
0.00125936
0.00697056
-0.000251269
0.000979344
0.00708379
-0.00155936
0.000259496
0.00392838
0.000118811
0.00119301
0.00609075
-0.000106373
0.00116289
0.00468426
1.81266e-05
0.00116146
0.00431385
0.000372939
0.00112988
0.00357737
0.00100713
0.00116468
0.00479371
0.0011256
0.00102024
0.00605517
0.000968919
0.00104715
0.00787431
0.000466614
0.000935034
0.00677181
-0.00135798
0.000780234
0.00734724
-0.000107876
0.00104455
0.00321024
-0.000301776
0.000963527
0.00243586
-0.000443826
0.000890539
0.00218766
-0.00041997
0.00073207
0.00194383
-0.000294878
0.000448475
0.00144561
-0.000111779
0.000224968
0.00102569
0.000187736
7.85723e-05
0.00232991
0.000699904
0.000173993
0.0044832
0.000663975
0.000406977
0.00483329
-0.000319974
0.000460599
0.00681765
-0.000137862
-0.000244506
0.00272907
-0.000211447
-0.000236748
0.00241363
-0.000302597
-0.000241483
0.00254155
-0.000228499
-0.000306275
0.00207581
-0.000228204
-0.000387439
0.00198975
-0.000234798
-0.00035415
0.00202078
-0.000243195
-0.000184368
0.00179068
-0.000203409
-0.000138322
0.000794862
-0.000193464
-0.000318868
0.00233909
0.000222159
-0.000350151
0.00367884
0.000405838
-0.000210021
0.00415212
-1.932e-05
-0.000322462
0.00176348
-3.84079e-05
-0.000292932
0.00194765
-4.34849e-05
-0.000320518
0.00153543
-4.21339e-05
-0.000365109
0.000958101
-1.48272e-05
-0.000389855
0.0015065
-4.40994e-05
-0.000347901
0.00217866
-7.59528e-05
-0.000225066
0.00242104
-9.56402e-06
-0.000128269
0.00211675
5.46337e-05
-0.000115099
0.00156031
-0.000136158
-0.000170034
0.000978494
8.95926e-05
-0.000236795
0.0010257
0.000195176
-0.000192122
0.00186437
-2.35209e-05
-0.000131214
-7.9569e-05
-5.2876e-06
-0.000132002
0.000680642
-4.22449e-05
-0.000136413
0.00131417
9.72141e-06
-0.000122906
0.00119814
-3.12342e-05
-0.000110002
0.00113345
-3.19599e-05
-0.00011025
0.00115046
-5.16015e-05
-0.00010602
0.00134959
-4.66401e-05
-0.000102665
0.00135323
1.6165e-05
-0.000114381
0.000395941
5.15396e-05
-0.000144323
-3.87828e-05
-2.07575e-05
-0.000164729
-0.000803263
-1.34802e-05
-0.000154894
-0.000337703
3.07206e-05
-8.91677e-05
0.00121753
-0.00174105
0.000101386
0.00246824
-0.00143353
0.000196144
0.00328483
-0.00145051
0.000101974
0.00265662
-0.000774806
0.000347072
0.00403391
-0.00114367
4.41406e-05
0.0037179
-0.00120832
-8.71973e-05
0.00317871
-0.000434784
0.000267044
0.004709
-0.000501274
0.000210237
0.00439942
-0.00091695
0.000157774
0.00444782
-0.00140937
-5.6349e-05
0.00329
-0.000309744
0.000301868
0.00472276
-0.000295356
0.000274076
0.00474385
-0.000537663
0.000237103
0.00465592
-0.000663173
0.000103567
0.00452726
-0.00146497
0.000129395
0.00356857
-0.000262394
0.000479495
0.00559277
-4.87932e-05
0.000337899
0.005191
-0.000153674
0.000255729
0.00499621
-0.000305452
0.000181409
0.00504959
-0.000707661
0.000227275
0.00476653
-0.00146807
8.78007e-05
0.00385101
-8.57663e-05
0.000805515
0.00620687
-5.62935e-05
0.000738426
0.00600841
0.000181494
0.000714288
0.00563535
0.000124939
0.000666517
0.00549797
-0.0003383
0.000356848
0.00499816
-0.000765064
0.0002313
0.00478396
-0.00152596
5.32682e-05
0.00427047
8.08458e-05
0.0010251
0.00684652
-3.71697e-05
0.00106194
0.00667575
6.50192e-05
0.00122265
0.00642646
0.000566158
0.00140897
0.00620985
3.25742e-05
0.00134388
0.00629005
-0.000182689
0.000942774
0.00641021
-0.000696647
0.000365954
0.00609628
-0.00140569
-5.3214e-05
0.0041352
-0.000157929
0.00161608
0.00741883
5.87865e-05
0.00172711
0.00723058
3.9826e-05
0.00184309
0.00674254
0.00020405
0.00182113
0.00672968
0.000451561
0.00174156
0.00678362
0.000705805
0.00152128
0.00645783
0.000492819
0.00142158
0.00700443
-0.00017105
0.00106683
0.00691412
-0.00158129
0.000256918
0.00389477
9.46248e-05
0.00113978
0.00632231
8.44937e-05
0.0010519
0.00581548
-0.000156283
0.00113219
0.00442598
-4.55971e-05
0.0010638
0.00400556
0.000122781
0.000899407
0.00342499
0.000551499
0.000911951
0.00423872
0.000815791
0.000900198
0.00557407
0.00106322
0.00108696
0.00735907
0.00022452
0.00101819
0.00697331
-0.00128548
0.000870587
0.00744216
-0.000179835
0.00100831
0.00388055
-0.000160929
0.000945412
0.00317784
-0.000529385
0.000932477
0.0026207
-0.000493053
0.000835619
0.00234867
-0.000490995
0.000594377
0.00206072
-0.000385032
0.000329048
0.00149176
-0.000454598
6.51334e-05
0.00125054
2.61933e-05
1.27657e-05
0.00226154
0.000368495
0.000165895
0.00416232
0.000142868
0.000498004
0.00487517
-0.000195196
0.000509369
0.00690931
-8.17068e-05
-0.00026595
0.0029412
-0.000101346
-0.000244185
0.00279945
-0.00019736
-0.000292841
0.00261886
-0.000283816
-0.000326539
0.00280349
-0.000165815
-0.000402651
0.00224201
-0.000117485
-0.000497466
0.00220645
-6.24563e-05
-0.000466935
0.00228985
-0.000152331
-0.000225183
0.00202031
-0.000186124
-0.000158138
0.000874889
-0.000303377
-0.00036628
0.00252244
0.000190936
-0.000347107
0.00371458
0.000252167
-0.000163417
0.00425855
-2.78975e-05
-0.000326392
0.00152748
1.05637e-05
-0.00030122
0.00175592
-2.47319e-05
-0.000306723
0.00191635
-1.46192e-05
-0.000336091
0.00153076
-1.63439e-05
-0.000373773
0.000927129
-1.49535e-05
-0.000384987
0.00152658
-2.27198e-05
-0.00036598
0.0022907
-5.48086e-05
-0.000243955
0.0025449
-4.67032e-05
-0.000132812
0.00219734
7.42749e-05
-0.000118477
0.00148602
-0.000122841
-0.000171131
0.00101491
7.53593e-05
-0.000237797
0.000982531
0.000247262
-0.000187783
0.00183561
-1.61211e-05
-0.0001249
-0.000371474
-2.01176e-05
-0.000119003
-7.24509e-05
6.97492e-06
-0.000132154
0.000669408
-3.29315e-05
-0.000138149
0.00136234
1.77734e-05
-0.000125461
0.00119582
-2.72618e-05
-0.000112424
0.00116289
-3.08003e-05
-0.000110263
0.00118551
-3.91644e-05
-0.000107227
0.00139332
-2.97263e-05
-0.000103137
0.00137171
1.11425e-05
-0.000115419
0.000355894
3.88719e-05
-0.000144939
-9.74454e-05
-1.84688e-05
-0.000165757
-0.000773931
-1.66289e-05
-0.000152471
-0.000257771
3.77597e-05
-8.65572e-05
0.00126633
-0.00185381
8.99011e-05
0.0023056
-0.00162044
0.000273693
0.00287401
-0.00157728
7.22751e-05
0.00252273
-0.0010678
0.000464152
0.00350609
-0.00108423
0.000128003
0.00319937
-0.00130101
8.85554e-05
0.00266075
-0.000581965
0.000512058
0.00411825
-0.000847663
0.00036349
0.00406095
-0.00111961
5.07431e-06
0.00382829
-0.0013628
-3.70711e-05
0.00316922
-0.000350904
0.000344665
0.00472865
-0.000329433
0.000279217
0.00467409
-0.000678235
0.000247129
0.00445064
-0.000870583
0.000143071
0.00445582
-0.00141935
-8.77125e-05
0.00333209
-0.000398807
0.000437036
0.00496368
-0.000150868
0.000345732
0.00475318
-0.000325102
0.000330182
0.0048222
-0.000632524
0.000247502
0.00483906
-0.000649569
0.0001161
0.00448247
-0.00148568
9.51763e-05
0.00349101
-5.52449e-05
0.000635596
0.00561863
-0.000162371
0.000465542
0.00557121
8.69796e-05
0.000362867
0.00517837
-9.65405e-05
0.000304363
0.00509474
-0.000486868
0.000347747
0.00507769
-0.00100257
0.00033638
0.00475546
-0.00153721
8.39328e-05
0.00377833
9.76385e-05
0.000860156
0.00615751
-7.26171e-05
0.000769972
0.00621077
-1.89887e-05
0.000758378
0.00604832
-0.000105798
0.000820355
0.00615347
-0.000241173
0.000667635
0.00546093
-0.000433356
0.000460628
0.0050195
-0.00091486
0.000198277
0.00485717
-0.00153478
9.38564e-05
0.0043057
-0.000123521
0.000907511
0.00707431
-2.87238e-05
0.000975446
0.00702052
2.18953e-05
0.00106517
0.00685116
0.00012745
0.00123985
0.00667217
0.000161207
0.00144079
0.0064033
5.58709e-05
0.00133388
0.00654888
-0.000166719
0.000878628
0.00655708
-0.000700902
0.000357774
0.00621514
-0.00138636
-0.000101983
0.00404226
-0.000159918
0.00149619
0.0074802
3.62576e-05
0.00152858
0.0076656
8.47816e-05
0.00177632
0.00705628
6.72932e-05
0.00173767
0.00671312
0.000186412
0.00169814
0.00670947
0.000381311
0.00158925
0.00688585
0.000351165
0.0014507
0.00689334
0.000486185
0.00137918
0.00726911
-0.000472172
0.00103564
0.00683209
-0.00163638
0.000286427
0.00395925
2.91844e-06
0.00104806
0.00632671
0.000127342
0.000991233
0.0060947
-0.000136282
0.00103338
0.00552119
-0.000230984
0.00112419
0.00410352
-0.000155514
0.000877712
0.00369177
-2.63692e-05
0.000710265
0.00326802
-1.39942e-05
0.00059858
0.00409974
0.000589407
0.000831561
0.00526625
0.000787335
0.000997512
0.00696091
-0.000120158
0.00109049
0.00701643
-0.00121736
0.000902316
0.007562
3.38301e-05
0.000919893
0.00439065
-4.43681e-05
0.000914546
0.00385444
-0.000442717
0.000940125
0.00341555
-0.000622101
0.000901834
0.00289277
-0.000201917
0.000692564
0.00228658
-0.000409626
0.00038536
0.00229655
-0.000346645
0.000135893
0.00170519
-0.000431381
0.000130463
0.00141189
-0.000229995
-2.55459e-05
0.00249685
-0.000249509
0.000165248
0.00444121
1.04944e-05
0.000486072
0.00507891
-0.000357146
0.000582263
0.00693636
-9.14312e-05
-0.000336705
0.00263413
-5.58523e-05
-0.000255294
0.00301873
-7.67009e-05
-0.00027683
0.00283541
-0.000113748
-0.00036626
0.00275772
-0.000196981
-0.000424141
0.00300562
-5.61363e-05
-0.000512192
0.00229792
-2.19618e-05
-0.000619925
0.00235868
-1.94614e-05
-0.000545308
0.00257463
-0.000126505
-0.000255841
0.00219781
-0.000177365
-0.000232568
0.000992818
-0.000258803
-0.000388845
0.00270014
5.98262e-05
-0.000317531
0.00388423
0.000266882
-0.000192437
0.00443136
-1.35493e-05
-0.000349044
0.00143543
-1.64869e-06
-0.000298738
0.00150653
4.02237e-05
-0.000305271
0.00172122
1.51574e-06
-0.000322897
0.0018687
8.83621e-06
-0.000344386
0.00151031
9.7035e-06
-0.000373858
0.000879034
1.16629e-05
-0.000385058
0.00150319
-1.74092e-05
-0.000368666
0.00239365
1.4262e-05
-0.000251119
0.00261922
-1.66955e-05
-0.000168406
0.0022751
5.48996e-05
-0.000114801
0.00141366
-0.000112424
-0.000170175
0.00104125
7.94137e-05
-0.000236463
0.000935168
0.000249067
-0.000177439
0.00180174
-5.07758e-05
-0.000117129
-0.000306202
-1.73912e-05
-0.000113481
-0.000359604
-9.71164e-06
-0.000119258
-7.56348e-05
6.72236e-06
-0.000132024
0.00065656
-2.00298e-05
-0.000139856
0.00139677
2.34113e-05
-0.000128091
0.00118808
-2.00181e-05
-0.000115257
0.0011879
-3.55894e-05
-0.000110901
0.00122477
-4.20512e-05
-0.000107585
0.00143982
-4.51022e-05
-0.000104841
0.00140624
6.33528e-06
-0.000116223
0.000320842
2.38433e-05
-0.000145987
-0.000141058
-2.32792e-05
-0.000166822
-0.000736302
-2.15488e-05
-0.000149203
-0.000173576
4.46767e-05
-8.36526e-05
0.0013053
-0.00170648
-3.41422e-05
0.00250569
-0.00157179
9.58425e-05
0.0028756
-0.00163235
6.32873e-05
0.00229739
-0.00116997
0.000360299
0.00331328
-0.00129378
0.000271933
0.0028839
-0.00147879
4.199e-05
0.00265852
-0.000705928
0.000685545
0.00361034
-0.00110873
0.000345697
0.00354946
-0.00123785
0.000185036
0.00322113
-0.00144258
8.70121e-05
0.00265351
-0.000351395
0.000583991
0.00426325
-0.000536069
0.00049668
0.00419169
-0.00094786
0.00024768
0.00408797
-0.00103935
5.12361e-05
0.00390875
-0.00140032
-2.16625e-05
0.00317186
-0.000525246
0.000519428
0.00479409
-0.00022924
0.000334223
0.00475202
-0.000211918
0.000271212
0.00453682
-0.000825872
0.000237419
0.00454964
-0.000806126
6.74959e-05
0.00445716
-0.00148054
-5.8704e-05
0.00338566
-0.000259306
0.000613194
0.00514002
-0.00029849
0.00044221
0.00500332
-0.00015448
0.000375002
0.00494982
-0.000429872
0.000389657
0.00501338
-0.000655862
0.000195598
0.00492856
-0.000893437
0.000132887
0.00433562
-0.00149763
0.000182186
0.00326925
-0.000154631
0.000889721
0.00571296
-0.000106121
0.000597166
0.00552051
-8.64383e-05
0.000540415
0.00546111
-0.00031046
0.000417686
0.00526971
-0.000289039
0.000353933
0.00513642
-0.000651305
0.000386883
0.00524513
-0.00125734
0.000319338
0.00486254
-0.00162851
1.99773e-07
0.00387185
-0.00018045
0.000890331
0.00611255
-1.57638e-05
0.000834799
0.00607973
2.64322e-05
0.000838686
0.00612592
-4.46438e-05
0.000823016
0.00621776
0.000129346
0.000842218
0.00601075
-0.000104306
0.000676071
0.00540566
-0.000529197
0.000391877
0.00518838
-0.000965878
0.00033431
0.00488169
-0.0015045
0.000158753
0.00426509
-2.08806e-05
0.000908573
0.00708963
-3.69524e-05
0.000879068
0.0072439
8.68964e-05
0.000972846
0.00711073
0.000130168
0.00109982
0.00692832
0.000127186
0.00130551
0.00686668
8.83708e-05
0.00145347
0.00657665
-0.000128916
0.00128709
0.0066205
-0.000192818
0.000877509
0.00671635
-0.000777707
0.000355589
0.00606311
-0.00141093
-0.000133609
0.00395041
3.45213e-05
0.00139886
0.00724217
-2.63228e-05
0.00137791
0.00778453
0.000146779
0.00159782
0.00756104
0.000132648
0.00162538
0.00680494
0.000125211
0.00162063
0.0065099
0.000177489
0.00155574
0.00653912
0.000254648
0.00141159
0.00665632
0.000183782
0.00144158
0.00723657
0.000213699
0.00124968
0.0076287
-0.000810036
0.0010723
0.00673609
-0.00160175
0.000314792
0.00402885
0.000260302
0.000835626
0.00625194
0.000156157
0.000893597
0.00622382
-0.000243552
0.000955838
0.00597307
-0.000224601
0.00105648
0.0051914
-9.06063e-05
0.0010266
0.00384331
-0.000396414
0.000704381
0.00368445
-0.000312877
0.000478384
0.00335444
2.32501e-06
0.000468036
0.00402955
8.30542e-05
0.000685025
0.00526569
0.000123976
0.000944695
0.00673322
-0.000312654
0.0011606
0.00708129
-0.00119225
0.000840915
0.00755619
-7.20669e-05
0.000876723
0.00459569
6.36378e-05
0.000843872
0.00434184
-1.96839e-05
0.000906472
0.00383107
-0.000351773
0.000935155
0.00362025
-0.000570294
0.000855225
0.00310343
-0.000352252
0.000463096
0.00250496
-0.000280129
0.000243996
0.00244661
-0.000401227
0.000217464
0.00199996
-0.000390435
-6.67407e-05
0.00171701
-0.00034286
-0.000111028
0.00293862
-0.000161963
0.000148147
0.0046823
-0.000226879
0.000531704
0.00541618
-0.000439467
0.000550991
0.00709172
-7.99492e-05
-0.000407783
0.00233969
-5.92532e-05
-0.000324731
0.00276117
-4.7695e-05
-0.000275692
0.00310551
-5.24071e-05
-0.000322877
0.00284595
-9.79793e-05
-0.000454926
0.00289532
-0.00010638
-0.000519122
0.00312863
1.28145e-05
-0.000619655
0.0022965
-9.65578e-06
-0.000717119
0.00252274
0.00013089
-0.000593192
0.00279535
-4.88876e-05
-0.000329041
0.00232648
-0.000160091
-0.000278251
0.00109721
-0.00026104
-0.000396915
0.00292814
6.51995e-05
-0.000305721
0.00401173
0.000229387
-0.00016488
0.00461593
-8.5737e-05
-0.00034425
0.000840636
-1.13314e-05
-0.000306213
0.00143684
4.71244e-05
-0.000297875
0.00144229
4.74843e-05
-0.000311696
0.00166926
4.66012e-05
-0.000333925
0.00179161
4.05161e-05
-0.000348052
0.0014674
2.56633e-05
-0.000369591
0.000817886
9.75741e-06
-0.000373456
0.00146263
-6.053e-05
-0.000380814
0.00254183
-6.19053e-05
-0.000278401
0.00274602
-4.90916e-06
-0.000149311
0.00232086
2.75304e-05
-0.000129036
0.00136884
-0.000114012
-0.000169234
0.00106475
7.33819e-05
-0.00023226
0.000895058
0.000249978
-0.000165777
0.00176222
-6.22408e-05
-0.000106841
6.78307e-05
-5.4121e-05
-0.000105663
-0.0002599
-1.57444e-05
-0.000113872
-0.000349245
1.96624e-06
-0.000119321
-9.03048e-05
1.03392e-05
-0.000131725
0.00063809
-5.90979e-06
-0.000141568
0.00141615
2.56391e-05
-0.000130766
0.00117795
-1.54318e-05
-0.000117446
0.00120988
-2.69007e-05
-0.000111471
0.00125556
-3.42027e-05
-0.000109139
0.00147832
-2.67086e-05
-0.00010501
0.00142173
1.46261e-05
-0.000116735
0.000276964
1.27443e-05
-0.000148135
-0.000172489
-2.65277e-05
-0.000167048
-0.000691929
-2.76123e-05
-0.000144884
-8.47327e-05
4.9779e-05
-8.01536e-05
0.00133568
-0.00168744
4.12271e-05
0.00217897
-0.00151177
-4.29514e-05
0.00312606
-0.00156494
-3.38785e-05
0.00247216
-0.00114642
9.74892e-05