/*--------------------------------*- C++ -*----------------------------------*\
  =========                 |
  \\      /  F ield         | OpenFOAM: The Open Source CFD Toolbox
   \\    /   O peration     | Website:  https://openfoam.org
    \\  /    A nd           | Version:  7
     \\/     M anipulation  |
\*---------------------------------------------------------------------------*/
FoamFile
{
    version     2.0;
    format      ascii;
    class       volVectorField;
    location    "4.5";
    object      U;
}
// * * * * * * * * * * * * * * * * * * * * * * * * * * * * * * * * * * * * * //

dimensions      [0 1 -1 0 0 0 0];

internalField   nonuniform List<vector> 
18750
(
(-0.0250934 -0.49421 -1.10574)
(-0.957844 0.096753 -0.783823)
(0.728294 -0.0459714 -3.34658)
(-0.0875955 -0.504328 -1.1002)
(-4.0894 0.15839 0.00869458)
(-0.811484 0.0988088 -1.75125)
(-1.05864 0.133681 -0.903702)
(0.655067 -0.252988 -3.20929)
(0.712254 -0.0565203 -3.36235)
(-0.140572 -0.512137 -1.09722)
(-4.35985 -0.581856 0.139273)
(-4.14501 -0.0520218 1.4357)
(-4.05261 0.216222 -0.0922529)
(-0.596988 0.188848 -1.2117)
(-0.849916 0.0171036 -1.77961)
(-1.12876 0.0477296 -0.911956)
(-0.322312 0.0185216 -2.13992)
(0.684094 -0.201248 -3.30834)
(0.682851 -0.0662721 -3.3774)
(-0.195558 -0.513352 -1.09945)
(-1.9834 1.20462 0.854121)
(-5.77048 -0.192579 1.36269)
(-3.94928 0.789032 0.244611)
(-2.5541 -0.0737901 1.35893)
(-4.06575 -0.194004 1.32543)
(-3.8843 0.180274 -0.178786)
(-1.13114 -0.0333389 -0.625887)
(-0.538539 0.131992 -1.32313)
(-0.855464 -0.0745615 -1.70909)
(-1.15482 -0.0248726 -0.873544)
(-0.467839 0.554886 -2.7679)
(-0.309972 0.0543981 -2.39717)
(0.706134 -0.151124 -3.39123)
(0.64431 -0.0623316 -3.38492)
(-0.25799 -0.505348 -1.10704)
(-3.55803 -0.967351 0.244003)
(-3.96801 -0.561881 1.5271)
(-1.91034 0.343416 1.22254)
(-5.23342 2.4944 1.90808)
(-5.66704 0.165839 1.52569)
(-3.83519 1.15321 0.37525)
(-0.844493 -1.27975 0.256981)
(-2.45244 -0.491371 0.519342)
(-3.98561 0.247907 1.04429)
(-3.69914 0.12397 -0.213208)
(-0.851238 -0.214337 -0.790104)
(-1.18418 0.266334 -0.440505)
(-0.512147 0.0246226 -1.29806)
(-0.811378 -0.14627 -1.60722)
(-1.20699 -0.0641066 -0.8618)
(-0.765539 -0.205644 -2.31998)
(-0.484847 0.541844 -2.80344)
(-0.296733 0.0986668 -2.6412)
(0.714726 -0.120454 -3.46784)
(0.592455 -0.0621616 -3.3875)
(-0.323691 -0.490675 -1.10156)
(-3.60756 -1.68627 0.26274)
(-3.59767 -1.07195 2.5143)
(-3.49856 -2.16528 0.296246)
(-5.86082 0.726972 1.85589)
(-4.01848 0.035767 1.51039)
(-2.01387 -0.776269 1.49798)
(-3.76499 2.85876 2.40408)
(-5.13812 1.95634 2.37463)
(-5.3865 1.49377 1.7185)
(-3.73952 1.48962 0.57636)
(-0.291961 -0.960894 0.569465)
(-0.5659 -1.1298 -0.0351545)
(-2.32922 -0.887157 0.0375179)
(-3.81754 0.962928 0.774761)
(-3.49903 0.126679 -0.172985)
(-0.926161 -0.793613 -0.437953)
(-0.923402 -0.288081 -0.72897)
(-1.23637 0.452181 -0.506913)
(-0.483308 -0.0959937 -1.25635)
(-0.747354 -0.159812 -1.52964)
(-1.23922 -0.0935357 -0.873761)
(-0.646129 -0.773454 -2.04397)
(-0.768018 -0.255899 -2.31608)
(-0.49665 0.493484 -2.83097)
(-0.284523 0.155341 -2.86769)
(0.718099 -0.0897829 -3.54264)
(0.571278 -0.0721419 -3.38356)
(-0.356676 -0.49675 -1.09235)
(-2.75459 -2.00657 0.147958)
(-4.05307 -0.933566 0.817134)
(-3.47622 -1.72288 0.206989)
(-5.19153 -1.23343 0.704053)
(-3.7325 -0.615155 2.34608)
(-3.3331 -3.07577 0.847201)
(-5.45223 0.889995 2.8538)
(-6.26682 -0.592703 1.5168)
(-4.35263 0.138675 1.3931)
(-1.87745 -2.76628 0.889616)
(-2.08916 1.75644 3.39354)
(-3.48318 3.24806 2.3099)
(-5.11431 1.44534 2.36691)
(-5.42498 1.45963 1.44718)
(-4.04519 1.41473 0.531362)
(-0.348612 -0.763619 0.0179286)
(-0.267995 -1.03079 0.452338)
(-0.30032 -0.895635 -0.216264)
(-2.23832 -1.11579 -0.126682)
(-3.73753 0.681745 0.925135)
(-3.31075 0.344339 -0.157603)
(-0.83546 -0.604491 -1.3431)
(-0.983116 -0.832863 -0.576062)
(-0.989345 -0.463615 -0.628392)
(-1.25448 0.417075 -0.720048)
(-0.452974 -0.262401 -1.22896)
(-0.710273 -0.149916 -1.52693)
(-1.26997 -0.091072 -0.891638)
(-0.593457 -0.750632 -2.22122)
(-0.636204 -0.79807 -2.08772)
(-0.76951 -0.329384 -2.29551)
(-0.484398 0.422154 -2.85827)
(-0.272195 0.22242 -3.07504)
(0.711963 -0.0599923 -3.61114)
(0.544124 -0.0888492 -3.36887)
(-0.416692 -0.507143 -1.08834)
(-2.76573 -1.67637 0.0568584)
(-3.32944 -0.822972 0.260752)
(-2.99996 -1.81712 0.168387)
(-3.93958 0.239747 1.26055)
(-3.78474 -1.37234 0.701682)
(-3.12111 -2.29104 -0.174779)
(-5.34311 0.12851 1.72104)
(-5.26882 -1.07046 0.666706)
(-4.05917 -0.0287888 1.94088)
(-2.68391 -4.00876 0.541514)
(-5.50243 1.60102 3.20252)
(-5.70541 1.32826 2.88921)
(-6.21339 -1.33864 1.3896)
(-4.59915 0.418246 1.2436)
(-2.46078 -4.0355 0.321242)
(-1.53792 -1.33996 2.31693)
(-1.85131 0.0759374 3.02928)
(-3.23107 2.78419 2.16876)
(-5.05955 1.99171 2.04422)
(-5.34417 1.31147 1.50127)
(-4.23037 0.419251 0.70285)
(-0.467692 -0.64318 -0.586861)
(-0.46459 -0.751047 -0.133842)
(-0.266075 -0.996375 0.324904)
(-0.139701 -0.726939 -0.347438)
(-1.91142 -1.51983 -0.502687)
(-3.18484 -0.393306 -0.0511582)
(-3.2009 -0.0264101 -0.0544281)
(-0.733008 -0.357486 -2.36836)
(-0.926455 -0.614355 -1.5311)
(-1.002 -1.04154 -0.458935)
(-1.06663 -0.553081 -0.562499)
(-1.24608 0.354067 -0.854973)
(-0.452805 -0.330018 -1.23533)
(-0.745796 -0.140173 -1.57128)
(-1.31684 -0.1029 -0.934768)
(-0.663451 -0.422635 -2.29163)
(-0.597914 -0.686701 -2.28714)
(-0.650255 -0.853684 -2.11474)
(-0.760012 -0.39604 -2.2825)
(-0.522393 0.453987 -2.84921)
(-0.279121 0.326327 -3.24819)
(0.700797 -0.0330058 -3.65845)
(0.514066 -0.108666 -3.34178)
(-0.480586 -0.518532 -1.10227)
(-2.29429 -1.78958 -0.0956201)
(-3.31887 -0.779815 0.206681)
(-2.72436 -1.80386 -0.0258847)
(-3.55153 -0.834656 0.346613)
(-3.21484 -1.03853 0.363486)
(-2.40652 -2.53627 0.0286158)
(-4.09483 -0.0896974 1.12554)
(-3.80472 -1.15235 1.06934)
(-3.74144 -1.24526 0.699869)
(-3.0937 -2.28139 -0.20853)
(-4.73022 1.17689 2.22874)
(-5.14907 0.425029 2.07228)
(-5.37885 -0.34305 0.370511)
(-4.596 0.508583 1.72061)
(-1.86599 -4.44654 -0.602766)
(-3.5927 2.06819 3.40192)
(-5.51464 1.44342 3.23185)
(-5.98156 1.38449 3.15942)
(-6.01845 -0.328547 1.35091)
(-4.69903 1.28977 1.43125)
(-2.68149 -4.39527 1.14038)
(-1.60927 -1.45856 2.25988)
(-1.30589 -1.80693 1.95756)
(-1.40044 -1.73314 2.12095)
(-2.83838 1.05232 1.95397)
(-5.01596 2.2994 1.66846)
(-5.19669 1.33634 1.46066)
(-4.40699 1.57171 0.144457)
(-0.903112 -0.560406 -0.7228)
(-0.602609 -0.714529 -0.658297)
(-0.638277 -0.648033 -0.35562)
(-0.435594 -0.818275 0.1469)
(-0.108328 -0.656716 -0.485866)
(-1.62104 -1.69452 -0.666698)
(-2.82863 -1.17035 -0.694886)
(-3.05594 -0.0332239 -0.142642)
(-0.66394 -0.48154 -2.36249)
(-0.871569 -0.316216 -2.51179)
(-1.01516 -0.6252 -1.71392)
(-1.08226 -1.14319 -0.488225)
(-1.08384 -0.563795 -0.60089)
(-1.24904 0.245369 -0.924144)
(-0.440605 -0.423544 -1.24939)
(-0.757062 -0.199693 -1.65893)
(-1.39219 -0.0797467 -1.0146)
(-0.759499 0.268654 -2.46451)
(-0.636654 -0.473286 -2.34273)
(-0.579088 -0.65186 -2.34666)
(-0.599364 -0.875484 -2.17407)
(-0.752996 -0.462764 -2.27532)
(-0.51473 0.472147 -2.85221)
(-0.297221 0.441375 -3.38103)
(0.680269 0.000712577 -3.6847)
(0.487366 -0.127798 -3.30577)
(-0.556101 -0.505824 -1.07626)
(-2.14745 -1.63601 -0.225643)
(-2.92658 -0.452325 0.134459)
(-2.26045 -1.86101 -0.0219927)
(-3.13692 -0.718607 0.11123)
(-3.20034 -0.946591 0.153267)
(-2.72714 -1.78243 -0.0599792)
(-3.48321 -0.18461 0.775087)
(-3.49116 -0.766318 0.324138)
(-3.12984 -0.769565 0.224258)
(-2.28972 -2.74157 0.0138642)
(-3.61353 0.665988 2.06733)
(-3.85222 0.403472 1.56806)
(-3.60849 0.940841 1.27339)
(-3.62195 -1.16187 0.57729)
(-2.82521 -2.30693 -0.100645)
(-4.02122 1.19392 3.18846)
(-4.45864 1.26279 2.66528)
(-4.91969 1.19387 2.42776)
(-5.00504 0.621379 1.00599)
(-4.85116 0.577549 1.63557)
(-1.5362 -4.5423 -1.39452)
(-3.29783 1.00579 3.06301)
(-3.16876 2.13974 3.71468)
(-5.09671 1.64323 3.48506)
(-5.88661 1.29465 3.32034)
(-5.98108 0.366987 1.39779)
(-4.65233 1.15291 1.60064)
(-2.84471 -4.22594 1.15082)
(-1.5579 -1.53237 2.7368)
(-1.38098 -1.91875 2.191)
(-1.03461 -1.85808 1.70089)
(-0.89082 -2.33346 1.52419)
(-2.20762 -0.655246 1.20882)
(-4.78636 2.32142 1.31058)
(-4.95023 1.69981 1.51443)
(-4.76947 -0.201608 0.431607)
(-1.26772 -0.487595 -0.339744)
(-0.999876 -0.596729 -0.911631)
(-0.760659 -0.716226 -0.815334)
(-0.749906 -0.683447 -0.625432)
(-0.603185 -0.67446 0.0970463)
(-0.163544 -0.604006 -0.666377)
(-1.27248 -1.5241 -1.04809)
(-2.43527 -1.46812 -1.16569)
(-2.97728 -0.314807 -0.122985)
(-0.973315 -0.560321 -2.16228)
(-0.589499 -0.456469 -2.55377)
(-0.787709 -0.402479 -2.69324)
(-1.09704 -0.610415 -1.92932)
(-1.13081 -1.20147 -0.632431)
(-1.1163 -0.580312 -0.63561)
(-1.26092 0.210365 -0.983696)
(-0.402668 -0.584559 -1.27726)
(-0.779976 -0.216587 -1.75727)
(-1.41892 -0.200047 -1.10761)
(-0.776421 -0.554169 -2.87808)
(-0.796971 0.247552 -2.50371)
(-0.664432 -0.53522 -2.37494)
(-0.600376 -0.634605 -2.38526)
(-0.651191 -0.823605 -2.21939)
(-0.754932 -0.436907 -2.2867)
(-0.515147 0.448549 -2.83389)
(-0.318638 0.533559 -3.48565)
(0.647121 0.059711 -3.7122)
(0.466288 -0.149007 -3.25869)
(-0.557276 -0.509755 -1.05382)
(-2.17855 -1.0298 -0.0860219)
(-2.67633 -0.787079 -0.00314868)
(-2.03566 -1.80974 -0.286984)
(-3.04178 -0.547686 0.174099)
(-2.92366 -0.539237 0.0723397)
(-2.21104 -1.86305 0.0197716)
(-3.36183 -0.303094 0.182873)
(-3.15858 0.0411423 -0.181699)
(-3.1902 -0.865547 0.207883)
(-2.44826 -2.04401 -0.0770368)
(-3.69561 0.00896919 0.794156)
(-3.49513 -0.22844 0.815238)
(-3.24016 -0.701553 0.442944)
(-2.91482 -1.12723 0.0537374)
(-2.21949 -2.93433 -0.0370211)
(-3.69303 0.527916 2.33277)
(-3.65476 0.140498 2.11201)
(-3.75872 0.129288 1.69621)
(-3.82933 -0.0886239 1.25983)
(-3.53483 -1.43125 0.454879)
(-2.31232 -2.64572 0.0780277)
(-4.3532 0.789739 3.44879)
(-4.12912 1.43554 3.35205)
(-4.42021 1.67982 3.08142)
(-4.83092 1.65354 2.56908)
(-4.8621 0.917683 1.43412)
(-4.92538 0.148607 1.54422)
(-1.45132 -4.32768 -1.39445)
(-3.37606 0.397534 3.08082)
(-3.15855 -0.282655 3.04462)
(-2.85516 1.7364 3.80527)
(-4.54949 2.33556 3.18159)
(-5.48626 1.47807 3.11725)
(-5.96358 0.954145 1.73515)
(-4.68422 0.59658 1.92104)
(-3.07657 -4.33554 1.08488)
(-1.73615 -1.85367 3.20498)
(-1.36084 -1.75174 2.74123)
(-1.18754 -2.12848 2.13242)
(-0.748334 -1.76371 1.49749)
(-0.500669 -2.12954 1.1154)
(-1.54543 -1.54004 0.707329)
(-4.41806 1.63737 1.32069)
(-4.87687 2.24016 1.17507)
(-4.60978 -0.708464 0.687139)
(-1.38625 -0.219874 -0.835525)
(-1.39734 -0.476317 -0.482717)
(-1.11654 -0.590219 -1.18378)
(-0.944191 -0.639985 -1.10216)
(-1.07538 -0.129759 -0.912491)
(-0.715476 -1.00544 0.00449258)
(-0.264864 -0.470938 -0.891714)
(-1.09991 -1.63418 -1.09899)
(-2.37073 -0.851323 -1.38627)
(-3.13102 0.302623 -0.267251)
(-1.30538 -0.413164 -2.00889)
(-0.970208 -0.552529 -2.3285)
(-0.648677 -0.356938 -2.72145)
(-1.00296 -0.384162 -2.79867)
(-1.20855 -0.687225 -2.08304)
(-1.15451 -1.09522 -1.00102)
(-1.15323 -0.68799 -0.722335)
(-1.27974 0.197176 -1.07094)
(-0.381735 -0.653769 -1.35751)
(-0.798148 -0.171681 -1.83809)
(-1.45694 -0.13086 -1.08618)
(-0.436301 -0.154445 -3.17888)
(-0.788503 -0.578877 -2.92206)
(-0.819325 0.228661 -2.54338)
(-0.638705 -0.456688 -2.43864)
(-0.555778 -0.681194 -2.41032)
(-0.619237 -0.835125 -2.25981)
(-0.735073 -0.472023 -2.28987)
(-0.489494 0.387657 -2.81966)
(-0.27977 0.475105 -3.55012)
(0.609789 0.106239 -3.71981)
(0.452252 -0.178537 -3.19694)
(-0.621323 -0.549364 -1.05358)
(-1.74208 -1.31006 0.040502)
(-2.45444 -0.810491 -0.269629)
(-2.13352 -1.11905 -0.0729782)
(-2.99629 -0.167308 0.12786)
(-2.7633 -0.845327 0.00276833)
(-1.9289 -1.88205 -0.212854)
(-3.02918 -0.283115 0.157524)
(-2.93596 -0.739712 0.166003)
(-2.88854 -0.756979 0.0246628)
(-2.22409 -1.86013 0.049074)
(-3.51603 -0.0303948 0.253729)
(-3.36262 -0.15507 0.219719)
(-3.15944 -0.468904 -0.0178027)
(-3.17677 -1.04899 0.244285)
(-2.24235 -2.26294 -0.0546859)
(-3.88022 0.272298 0.982204)
(-3.82544 -0.23619 0.918889)
(-3.4848 -0.27293 0.817298)
(-3.24781 -1.02978 0.433893)
(-2.88825 -1.30961 0.226604)
(-2.06573 -3.07777 -0.0245489)
(-4.01393 0.13001 2.03844)
(-3.81606 0.0252715 2.36521)
(-3.85559 -0.0651376 2.11866)
(-3.95178 0.860408 2.01107)
(-3.77043 -0.911667 1.30629)
(-3.54182 -2.11948 0.121633)
(-2.05747 -2.85956 0.0870922)
(-4.7975 0.276207 3.0716)
(-4.48924 0.109057 3.82354)
(-4.3951 0.608885 3.63741)
(-4.5514 1.06981 3.38892)
(-4.63773 1.83112 2.72887)
(-5.1128 1.18454 1.83304)
(-4.75628 -0.915214 1.68219)
(-0.934198 -4.33071 -1.12202)
(-4.05966 1.00293 2.8576)
(-3.22101 -0.721599 2.92714)
(-2.88352 -0.430027 2.96208)
(-2.675 0.811351 3.44543)
(-3.94617 2.38072 3.00835)
(-4.99738 1.61031 2.74646)
(-5.98679 0.826442 2.1675)
(-4.5968 -0.486308 2.15475)
(-3.18768 -4.60991 1.17863)
(-2.19371 -1.36792 3.17902)
(-1.53762 -1.97114 3.22096)
(-1.25005 -1.76372 2.67156)
(-0.961886 -2.07039 2.10163)
(-0.58159 -1.63528 1.10951)
(-0.276989 -1.67075 0.73734)
(-1.1628 -1.73956 0.215865)
(-3.53134 -0.0927812 1.23002)
(-4.32173 1.12422 1.33189)
(-4.19579 -1.67483 0.908393)
(-1.75149 -0.011771 -0.940888)
(-1.50035 -0.2004 -1.03685)
(-1.53226 -0.486944 -0.70435)
(-1.24446 -0.547825 -1.54905)
(-1.11735 -0.573927 -1.55234)
(-0.913562 -0.970315 -1.08876)
(-0.85174 -0.897245 -0.061063)
(-0.338209 -0.456714 -1.09948)
(-0.841071 -1.79015 -1.36445)
(-2.47295 -0.757541 -1.50895)
(-3.40104 -0.125102 -0.506312)
(-1.15055 -0.0636928 -2.26545)
(-1.28443 -0.433246 -2.15689)
(-0.963371 -0.494279 -2.4717)
(-0.54321 -0.372647 -2.89315)
(-0.867281 -0.24236 -3.00458)
(-1.2483 -0.79819 -2.23089)
(-1.31296 -1.16344 -1.04779)
(-1.3354 -0.648834 -0.620926)
(-1.2973 0.191289 -1.09046)
(-0.377066 -0.653683 -1.45704)
(-0.782147 -0.158322 -1.88321)
(-1.49043 -0.150184 -1.05694)
(0.0417037 -0.432869 -2.90019)
(-0.41989 -0.208811 -3.19501)
(-0.804462 -0.589749 -2.96891)
(-0.845489 0.187458 -2.58176)
(-0.636074 -0.530132 -2.45866)
(-0.605466 -0.538382 -2.44798)
(-0.599066 -0.905678 -2.27482)
(-0.697241 -0.594167 -2.27722)
(-0.445968 0.305144 -2.81875)
(-0.194903 0.355499 -3.57386)
(0.548355 0.178363 -3.70946)
(0.450304 -0.216551 -3.11902)
(-0.702262 -0.54691 -1.01291)
(-1.64962 -1.13394 0.0401766)
(-2.13684 -1.03938 0.177077)
(-1.64367 -1.39048 0.0147257)
(-2.64456 -0.342162 0.201673)
(-2.38059 -1.31535 -0.122828)
(-2.04474 -1.24529 -0.0615357)
(-3.07274 -0.25297 0.177927)
(-2.89062 -0.517287 0.22014)
(-2.83917 -0.989914 0.0175994)
(-1.86736 -1.92794 -0.120667)
(-3.07576 -0.202717 0.225762)
(-3.05514 -0.37702 0.256164)
(-2.97748 -0.910796 0.157649)
(-2.77987 -1.16926 0.0741424)
(-1.95901 -2.19054 0.0651734)
(-3.65474 -0.141328 0.50509)
(-3.39811 -0.170451 0.343603)
(-3.26337 -0.381082 0.268787)
(-3.29055 -0.435525 0.153894)
(-2.93416 -1.71469 0.0755464)
(-2.03858 -2.46248 -0.0723653)
(-4.04877 -0.0145335 1.11545)
(-3.95576 -0.103361 1.05154)
(-3.73082 -0.18307 1.00293)
(-3.55514 -0.344367 0.853143)
(-3.18246 -1.41171 0.367495)
(-2.86977 -1.54915 0.219174)
(-1.90027 -3.16871 -0.0345937)
(-4.49607 -0.0617826 1.73674)
(-4.32798 -0.353191 2.00323)
(-4.15261 -0.364779 2.30599)
(-4.13309 0.899261 2.48393)
(-4.07524 -0.365865 1.93713)
(-3.93875 -1.12531 1.31738)
(-3.33293 -2.73364 -0.0986328)
(-1.84828 -2.96266 0.0719023)
(-4.69992 -0.24715 3.03717)
(-4.80049 0.144158 3.54894)
(-4.50631 -0.0931539 3.86943)
(-4.49534 -0.0420735 3.62027)
(-4.60306 0.554295 3.28561)
(-4.65839 1.23231 2.85708)
(-5.05943 0.04291 2.47615)
(-4.67201 -1.18773 1.97014)
(-0.806855 -4.35427 -1.13778)
(-4.15269 1.05281 2.61214)
(-3.94425 0.279883 2.80354)
(-2.98544 -1.03356 2.81252)
(-2.75882 -0.673947 2.43977)
(-2.32617 -0.402264 2.7321)
(-3.37632 0.448959 2.59449)
(-4.50923 1.10816 2.79814)
(-5.94424 0.767833 2.48723)
(-4.75264 -0.996865 2.27355)
(-3.19195 -4.60411 1.23898)
(-2.5552 -0.905827 2.98108)
(-2.04874 -1.66964 3.11489)
(-1.44687 -2.22006 3.05751)
(-1.26165 -1.65347 2.53946)
(-0.924301 -1.79896 1.8825)
(-0.590108 -1.39813 0.736433)
(-0.246906 -1.57379 0.311671)
(-0.888866 -1.82167 -0.0096836)
(-2.55586 -1.3991 1.24117)
(-3.42419 -0.7323 1.75842)
(-4.54798 -1.47942 0.987172)
(-1.88786 -0.0218269 -1.05657)
(-1.81496 -0.0186829 -1.10751)
(-1.6345 -0.177259 -1.31363)
(-1.69469 -0.440267 -1.05644)
(-1.35038 -0.432774 -1.96551)
(-1.34612 -0.37234 -2.03306)
(-1.34063 -0.545342 -1.51778)
(-1.14239 -0.492461 -0.165207)
(-0.372602 -0.475314 -1.29622)
(-0.763569 -1.9263 -1.5755)
(-2.49041 -0.808461 -1.45811)
(-3.25509 -0.621281 -0.39517)
(-0.996111 0.115945 -2.16662)
(-1.15652 0.106359 -2.31874)
(-1.24807 -0.443658 -2.3028)
(-0.979438 -0.380887 -2.55594)
(-0.58301 -0.383957 -2.94728)
(-0.964769 -0.5494 -2.9622)
(-1.25893 -0.845086 -2.38257)
(-1.14322 -1.43543 -1.20745)
(-1.12046 -0.891284 -0.683268)
(-1.33011 0.262978 -1.06249)
(-0.419892 -0.613011 -1.46827)
(-0.753748 -0.17775 -1.88083)
(-1.47025 -0.285436 -1.01153)
(0.224339 -0.380667 -2.59801)
(0.0605864 -0.481955 -2.87956)
(-0.41943 -0.182279 -3.20884)
(-0.819387 -0.599921 -3.01546)
(-0.857217 0.155575 -2.62946)
(-0.647752 -0.596171 -2.4655)
(-0.57481 -0.616968 -2.44544)
(-0.624389 -0.82355 -2.33115)
(-0.700059 -0.602264 -2.28119)
(-0.407952 0.237234 -2.82883)
(-0.106576 0.26662 -3.57664)
(0.52682 0.235184 -3.69166)
(0.463827 -0.267807 -3.0247)
(-0.713223 -0.539761 -0.976932)
(-1.53163 -1.34208 0.0297297)
(-1.85672 -1.08151 0.110998)
(-1.56109 -1.242 -0.00778905)
(-2.30244 -0.798694 0.141113)
(-2.12904 -0.965204 0.154468)
(-1.67937 -1.38089 -0.043422)
(-2.68742 -0.34969 0.387774)
(-2.61921 -0.634724 0.210489)
(-2.36724 -1.34062 -0.0982647)
(-1.85808 -1.46926 -0.030793)
(-3.10482 -0.237074 0.304351)
(-3.06399 -0.485967 0.217756)
(-2.80321 -0.845639 0.291649)
(-2.79613 -1.21078 0.014647)
(-1.82012 -2.01616 -0.0692264)
(-3.25426 -0.250447 0.405712)
(-3.08312 -0.167932 0.37103)
(-3.11963 -0.578209 0.363735)
(-2.99982 -1.25091 0.170353)
(-2.85713 -1.20364 0.228652)
(-1.80696 -2.32876 0.0506603)
(-3.753 0.0789673 0.595708)
(-3.6283 -0.280906 0.523471)
(-3.45644 -0.003824 0.381294)
(-3.29405 -0.315148 0.317797)
(-3.2581 -0.937607 0.491502)
(-2.70037 -2.14339 0.297482)
(-1.75869 -2.62822 -0.0476343)
(-4.06751 0.547668 1.05533)
(-4.06809 -0.0393834 1.10357)
(-3.90457 -0.192442 1.06247)
(-3.76497 -0.297936 1.11332)
(-3.44408 -1.15226 0.697799)
(-3.02853 -1.47624 0.481737)
(-2.74431 -1.87836 0.173203)
(-1.74211 -3.29638 -0.0582063)
(-4.52859 -0.0243878 1.44769)
(-4.51683 -0.239157 1.72501)
(-4.44706 -0.570862 1.92726)
(-4.33097 -0.426786 2.29652)
(-4.18247 -0.628303 2.54148)
(-4.20696 -0.785453 1.95269)
(-4.14477 -1.34094 1.22454)
(-3.28913 -2.76803 -0.199025)
(-1.56096 -3.10532 0.0303372)
(-4.6879 -0.424568 2.91)
(-4.91245 -0.0379865 3.34184)
(-4.69701 -0.202066 3.65572)
(-4.33686 -0.553542 3.80752)
(-4.43351 -0.321799 3.71946)
(-4.74192 0.198515 3.23161)
(-4.652 -0.113868 2.9721)
(-5.03831 -0.0571749 2.50342)
(-4.04006 -2.12771 2.02833)
(-0.529873 -4.3911 -1.0768)
(-4.12357 0.212208 2.57953)
(-4.1705 0.753038 2.54537)
(-3.71394 -1.11242 2.73598)
(-2.4898 -1.72265 2.79722)
(-2.27879 -1.5493 1.96151)
(-1.94076 -1.36905 1.96108)
(-2.35868 -1.80382 1.89358)
(-4.04669 0.233765 2.82757)
(-5.44581 0.195324 2.72172)
(-4.09267 -2.41734 2.66288)
(-2.94027 -4.67918 1.29138)
(-2.88756 -0.456057 2.92651)
(-2.49924 -0.989417 2.98724)
(-1.93553 -1.8341 3.04597)
(-1.43621 -2.38287 2.84232)
(-1.22614 -1.50276 1.92053)
(-1.07661 -1.39031 1.46479)
(-0.814375 -0.831389 0.118442)
(-0.280203 -1.5253 0.109174)
(-0.899736 -1.79183 -0.075513)
(-2.03361 -2.07167 1.43788)
(-3.20567 -1.16954 1.92502)
(-4.12822 -2.57905 1.29913)
(-1.67263 -0.358549 -1.11725)
(-1.93814 -0.111815 -1.07903)
(-1.85447 -0.0589193 -1.31724)
(-1.76081 -0.179045 -1.69746)
(-1.9059 -0.322764 -1.5013)
(-1.49381 -0.317029 -2.43744)
(-1.49364 -0.296626 -2.63297)
(-1.65224 -0.238127 -1.7731)
(-1.24603 -0.742733 -0.136016)
(-0.431931 -0.476131 -1.47378)
(-0.793642 -2.03285 -1.66316)
(-2.33483 -1.12741 -1.16765)
(-3.27383 -0.250476 -0.575942)
(-0.895875 0.198058 -2.42751)
(-1.00375 0.16553 -2.23743)
(-1.17406 0.322627 -2.36943)
(-1.2123 -0.344084 -2.45926)
(-0.990386 -0.225244 -2.59571)
(-0.559355 -0.314671 -2.91182)
(-0.817247 -0.437248 -3.04316)
(-1.32681 -0.830469 -2.50398)
(-1.46251 -1.25682 -1.20169)
(-1.09563 -1.05376 -0.747786)
(-1.21116 0.0844121 -1.07238)
(-0.411349 -0.638892 -1.46638)
(-0.720801 -0.190296 -1.85984)
(-1.48404 -0.306291 -0.894674)
(0.199852 -0.446352 -2.61138)
(0.241258 -0.354584 -2.60199)
(0.0928532 -0.522951 -2.85579)
(-0.383549 -0.233103 -3.21533)
(-0.808529 -0.614793 -3.06366)
(-0.864576 0.108548 -2.6846)
(-0.660026 -0.52058 -2.49025)
(-0.562458 -0.668728 -2.43771)
(-0.613635 -0.884825 -2.33559)
(-0.679996 -0.63334 -2.29427)
(-0.37951 0.185166 -2.82957)
(-0.0261174 0.197302 -3.59743)
(0.51868 0.235519 -3.64823)
(0.486023 -0.322356 -2.91686)
(-0.766101 -0.563439 -0.956195)
(-1.68278 -1.01076 -0.0273802)
(-1.88444 -1.18797 0.0862423)
(-1.46063 -1.39847 -0.00877456)
(-2.18974 -0.754653 0.268716)
(-1.89869 -1.01244 0.13092)
(-1.61822 -1.18199 0.00380956)
(-2.40063 -0.481067 0.56798)
(-2.25223 -1.07846 0.0804565)
(-1.96558 -1.1564 0.198096)
(-1.48151 -1.63078 -0.0215275)
(-2.78822 -0.192459 0.472573)
(-2.6716 -0.351035 0.455612)
(-2.60855 -0.967132 0.111187)
(-2.33815 -1.33065 -0.0408457)
(-1.80407 -1.63258 -0.0361479)
(-3.14237 -0.361336 0.356969)
(-3.09456 -0.366601 0.349124)
(-2.98811 -0.702966 0.21857)
(-2.8331 -1.09587 0.266311)
(-2.67994 -1.49967 -0.0989586)
(-1.71921 -2.12688 -0.0198314)
(-3.3159 0.0152862 0.498243)
(-3.21996 -0.349594 0.430391)
(-3.13742 -0.398919 0.40086)
(-3.12002 -0.903703 0.399183)
(-2.95464 -1.54856 0.0457506)
(-2.58205 -1.78124 0.17393)
(-1.58582 -2.45356 -0.0221493)
(-3.6556 -0.0699197 0.921727)
(-3.6163 -0.397232 0.670237)
(-3.59432 -0.537355 0.535291)
(-3.24861 -1.06781 0.437857)
(-3.21588 -0.968762 0.401619)
(-3.09116 -1.52061 0.527744)
(-2.45003 -2.52061 0.278345)
(-1.60421 -2.72104 -0.0390175)
(-3.98067 -0.079886 1.22714)
(-3.95987 -0.128318 1.17224)
(-4.03143 -0.189381 1.15117)
(-3.97924 -0.459023 1.2114)
(-4.04266 -0.658119 1.18637)
(-3.45726 -1.13617 0.810586)
(-2.93294 -1.69319 0.435676)
(-2.58126 -2.24653 0.294935)
(-1.58813 -3.35582 -0.121905)
(-4.58089 0.150296 1.3853)
(-4.6795 -0.177423 1.55054)
(-4.55708 -0.280694 1.69083)
(-4.44596 -0.475553 1.9163)
(-4.33494 -0.767843 2.3633)
(-4.15442 -1.09423 2.49666)
(-4.14115 -1.46951 1.81609)
(-4.05059 -1.79251 1.31808)
(-3.16599 -3.11267 -0.312756)
(-1.22671 -3.27068 0.0909602)
(-4.66678 0.0646318 2.62641)
(-5.03296 -0.361337 2.88953)
(-5.03717 -0.106829 3.4767)
(-4.67724 -0.246511 3.32477)
(-4.46254 -0.513251 3.27459)
(-4.5947 -0.444121 3.2457)
(-4.75775 -0.514499 2.83483)
(-4.77029 -0.730713 2.8326)
(-5.04468 -0.994189 2.26515)
(-3.73907 -2.62519 2.07964)
(-0.410965 -4.29832 -0.812849)
(-3.99015 0.8624 2.18687)
(-4.13403 0.545876 2.43467)
(-3.84592 -1.07192 2.46532)
(-3.3484 -1.79188 2.75607)
(-2.72886 -0.463155 2.35886)
(-2.00242 -1.77975 1.73957)
(-1.59889 -2.0175 1.08038)
(-2.09072 -1.97463 1.44933)
(-3.26517 -1.43173 2.25837)
(-3.99698 -2.51682 2.65981)
(-3.64037 -3.05978 2.81803)
(-2.73015 -4.85064 1.33772)
(-2.94209 -0.136888 2.49781)
(-2.83337 -0.515836 2.92659)
(-2.42398 -1.02396 2.97927)
(-2.16063 -1.44337 3.03911)
(-1.55616 -2.13338 2.58526)
(-1.31854 -1.0105 1.01232)
(-1.35097 -0.966795 0.818234)
(-0.832784 -1.09295 0.653537)
(-0.535596 -1.31184 -0.0693064)
(-0.915377 -1.90292 -0.285631)
(-2.32659 -2.18133 1.16831)
(-2.80025 -2.10726 2.10409)
(-3.55926 -3.1057 1.25905)
(-1.47947 -0.278586 -1.57191)
(-1.74067 -0.340845 -1.21067)
(-1.98592 -0.193183 -1.14258)
(-1.88377 -0.10148 -1.57875)
(-1.8434 -0.273749 -2.0924)
(-2.03862 -0.259551 -1.99657)
(-1.54756 -0.240396 -2.91331)
(-1.51838 -0.459856 -3.12508)
(-1.88223 -0.0727195 -2.05294)
(-1.38855 -0.492272 -0.608746)
(-0.473532 -0.583213 -1.59267)
(-0.816598 -2.07253 -1.63389)
(-2.34696 -1.34405 -1.18499)
(-3.59849 -0.789323 -0.522066)
(-0.552521 -0.621063 -2.43781)
(-0.959703 0.0339652 -2.37411)
(-1.01692 0.470894 -2.23788)
(-1.19292 0.312838 -2.44269)
(-1.21736 -0.122427 -2.55859)
(-0.998001 -0.116495 -2.61498)
(-0.505722 -0.330462 -2.81306)
(-0.920785 -0.687558 -2.91139)
(-1.28468 -0.987286 -2.61775)
(-0.873476 -1.56858 -1.65519)
(-1.07666 -1.29394 -0.64773)
(-1.03907 -0.187415 -1.06387)
(-0.322482 -0.732344 -1.45814)
(-0.667968 -0.233773 -1.81613)
(-1.47576 -0.337221 -0.759899)
(-0.0485104 -0.682982 -2.25436)
(0.200178 -0.442623 -2.60019)
(0.253925 -0.340327 -2.61167)
(0.134906 -0.533655 -2.82386)
(-0.371166 -0.266563 -3.2205)
(-0.807388 -0.607401 -3.10546)
(-0.853711 0.0365639 -2.74527)
(-0.678208 -0.460433 -2.50948)
(-0.555643 -0.712346 -2.43162)
(-0.610049 -0.797444 -2.39023)
(-0.645172 -0.693825 -2.31708)
(-0.320827 0.114894 -2.83182)
(0.00807602 0.166657 -3.65717)
(0.486397 0.208571 -3.59104)
(0.513671 -0.374996 -2.79834)
(-0.843259 -0.570463 -0.920367)
(-1.47182 -1.0664 -0.00293814)
(-2.01829 -0.760473 -0.0188365)
(-1.58161 -1.08343 -0.0303017)
(-2.22389 -0.783522 0.0448822)
(-1.86677 -1.20805 0.0993406)
(-1.38511 -1.48227 0.0568666)
(-2.25254 -0.471519 0.253119)
(-2.11758 -0.996719 0.279759)
(-1.70411 -1.32315 0.0683828)
(-1.54937 -1.33923 0.0337709)
(-2.55712 -0.235765 0.494086)
(-2.31611 -0.796127 0.501364)
(-2.21868 -1.25442 0.114749)
(-1.9255 -1.29153 0.167477)
(-1.42676 -1.73843 -0.0536732)
(-2.82974 -0.400226 0.531787)
(-2.75635 -0.262259 0.477949)
(-2.77891 -0.243654 0.357516)
(-2.48136 -1.34669 0.134933)
(-2.41565 -1.21593 -0.00298121)
(-1.63844 -1.87645 -0.0933279)
(-3.07816 -0.348688 0.621738)
(-3.09473 -0.50936 0.338386)
(-3.04911 -0.503468 0.338503)
(-2.84254 -0.939672 0.251326)
(-2.81021 -1.22061 0.225472)
(-2.556 -1.75334 -0.0963583)
(-1.61272 -2.21496 0.0157429)
(-3.38024 -0.0718687 0.778099)
(-3.32459 -0.089895 0.567036)
(-3.25101 -0.308585 0.441286)
(-3.1599 -0.645123 0.460678)
(-3.11431 -1.12001 0.381378)
(-2.88846 -1.72989 0.0990517)
(-2.10892 -2.30189 0.420301)
(-1.13068 -2.67033 0.0322993)
(-3.71108 -0.127916 1.15208)
(-3.67622 -0.120378 0.840862)
(-3.53378 -0.420923 0.836123)
(-3.46341 -0.79138 0.622136)
(-3.43984 -0.592916 0.479424)
(-3.29958 -1.03821 0.470651)
(-3.00034 -1.97838 0.502449)
(-2.44911 -2.63539 0.0598343)
(-1.53936 -2.81181 0.11415)
(-4.02863 0.0742503 1.17389)
(-3.96001 -0.221078 1.26746)
(-3.92622 -0.260658 1.29789)
(-3.99506 -0.466948 1.22597)
(-4.06606 -0.69141 1.29299)
(-3.88859 -0.848667 1.16411)
(-3.21527 -1.55584 0.66331)
(-3.022 -1.83564 0.684209)
(-2.44282 -2.50213 0.549109)
(-1.35042 -3.3811 -0.140771)
(-4.67133 0.312696 1.42769)
(-4.62658 -0.0159083 1.45151)
(-4.76894 -0.256926 1.63448)
(-4.68673 -0.622424 1.78306)
(-4.522 -0.805023 2.03131)
(-4.40333 -1.24055 2.41408)
(-4.15033 -1.38406 2.47009)
(-3.86835 -2.07629 1.67506)
(-3.75505 -2.42157 1.41287)
(-2.2433 -3.99723 -0.480622)
(-0.996922 -3.35618 0.232553)
(-4.70285 0.48848 2.51883)
(-4.69242 -0.121485 2.66835)
(-4.97153 -0.62551 3.09376)
(-4.97784 -0.272871 3.21029)
(-4.07732 -1.4128 3.33005)
(-3.90662 -1.65333 3.10578)
(-4.05635 -1.31503 2.93756)
(-4.35853 -0.540049 2.97969)
(-4.64263 -1.64447 2.57712)
(-4.99629 -1.56593 2.1972)
(-3.39339 -3.11966 1.96225)
(-0.237825 -4.20853 -0.509054)
(-3.80403 -0.0157671 1.70324)
(-4.08068 0.688648 2.09118)
(-4.0842 0.392879 2.29181)
(-3.71554 -1.43874 2.49127)
(-2.93496 -2.03127 2.69236)
(-1.94042 -1.91998 1.73104)
(-1.95096 -1.83259 1.38918)
(-1.52248 -2.23615 0.849337)
(-1.91212 -2.25952 1.29666)
(-2.66515 -2.35422 2.05103)
(-3.61536 -2.73139 2.86949)
(-3.21309 -3.75492 2.53672)
(-2.53239 -5.00498 1.20848)
(-2.81714 -0.169167 2.68149)
(-2.96201 -0.261804 2.52673)
(-2.76162 -0.649275 2.86038)
(-2.38649 -1.0481 2.925)
(-2.15048 -1.45693 2.98846)
(-1.67824 -1.7881 2.01824)
(-1.50305 -0.771726 0.730084)
(-1.42392 -0.87411 0.731556)
(-1.23323 -0.597955 -0.328154)
(-0.64561 -1.23405 -0.361811)
(-1.21705 -2.05 -0.119501)
(-2.24296 -2.40083 1.28706)
(-2.95383 -2.45134 2.00474)
(-3.30169 -3.48569 1.14879)
(-1.36113 -0.192346 -1.90403)
(-1.52863 -0.256068 -1.6572)
(-1.79948 -0.32346 -1.32359)
(-2.04208 -0.27942 -1.2597)
(-1.89869 -0.0460012 -1.96859)
(-1.95015 -0.23327 -2.44868)
(-2.1227 -0.210711 -2.48864)
(-1.60115 -0.179719 -3.26419)
(-1.46995 -1.01236 -3.2818)
(-1.95726 -0.490575 -2.22875)
(-1.60843 -0.442574 -0.907048)
(-0.460374 -0.631252 -1.71093)
(-0.861482 -2.16876 -1.49945)
(-2.43282 -1.64012 -1.03722)
(-3.59655 -1.17368 -0.421161)
(-0.446509 -0.484728 -2.28634)
(-0.531296 -0.868859 -2.31771)
(-0.935465 0.0225157 -2.33618)
(-1.03361 0.813599 -2.25279)
(-1.17515 0.355661 -2.4907)
(-1.2309 0.098704 -2.59432)
(-0.993473 -0.0677579 -2.61581)
(-0.38842 -0.372898 -2.77674)
(-0.772671 -0.47764 -2.93528)
(-1.46658 -1.15002 -2.53003)
(-1.4688 -1.47007 -1.48861)
(-1.20334 -0.990228 -0.871801)
(-0.843335 -0.42815 -1.04756)
(-0.27205 -0.78931 -1.43803)
(-0.587992 -0.303916 -1.75807)
(-1.40348 -0.459035 -0.605283)
(0.257884 -0.628742 -2.23392)
(-0.0401881 -0.646692 -2.23251)
(0.199476 -0.455196 -2.58572)
(0.274102 -0.320861 -2.62539)
(0.172478 -0.525313 -2.78357)
(-0.354115 -0.285702 -3.23157)
(-0.760382 -0.652302 -3.14441)
(-0.844585 -0.032328 -2.80491)
(-0.718587 -0.424059 -2.52619)
(-0.553527 -0.716532 -2.43543)
(-0.591754 -0.91353 -2.36839)
(-0.639818 -0.721134 -2.31992)
(-0.278814 0.0690488 -2.84191)
(0.038545 0.173751 -3.70662)
(0.50036 0.184375 -3.4954)
(0.549576 -0.418306 -2.67141)
(-0.902007 -0.558673 -0.8747)
(-1.44807 -0.832861 0.0397737)
(-1.74067 -1.01716 0.0530366)
(-1.35391 -1.20561 -0.0186124)
(-2.23568 -0.572332 -0.0314474)
(-2.02911 -0.713441 -0.0211251)
(-1.49393 -1.18879 0.0306644)
(-2.30388 -0.388352 0.0810892)
(-2.14919 -0.920774 -0.0988348)
(-1.68923 -1.40627 0.0803704)
(-1.30149 -1.55753 0.0530397)
(-2.3844 -0.172551 0.374312)
(-2.13751 -0.737638 0.181079)
(-2.06464 -1.13118 0.301667)
(-1.81266 -1.25024 0.119273)
(-1.44849 -1.51969 0.0109556)
(-2.55089 -0.573458 0.6117)
(-2.55261 -0.458613 0.44874)
(-2.33824 -0.997421 0.459928)
(-2.19592 -1.2927 0.124716)
(-1.93664 -1.38953 0.200668)
(-1.33419 -1.84626 -0.0633806)
(-2.77641 -0.379859 0.683741)
(-2.8158 -0.483904 0.505628)
(-2.76335 -0.529498 0.442637)
(-2.56137 -1.05939 0.406558)
(-2.37537 -1.56768 0.12744)
(-2.16424 -1.62085 0.136186)