/*--------------------------------*- C++ -*----------------------------------*\
  =========                 |
  \\      /  F ield         | OpenFOAM: The Open Source CFD Toolbox
   \\    /   O peration     | Website:  https://openfoam.org
    \\  /    A nd           | Version:  7
     \\/     M anipulation  |
\*---------------------------------------------------------------------------*/
FoamFile
{
    version     2.0;
    format      ascii;
    class       volVectorField;
    location    "4.5";
    object      U_0;
}
// * * * * * * * * * * * * * * * * * * * * * * * * * * * * * * * * * * * * * //

dimensions      [0 1 -1 0 0 0 0];

internalField   nonuniform List<vector> 
18750
(
(-0.035637 -0.494054 -1.0918)
(-0.964007 0.113245 -0.799434)
(0.727262 -0.0398556 -3.34034)
(-0.0986249 -0.50301 -1.08505)
(-4.0886 0.215896 -0.00528022)
(-0.80792 0.110681 -1.77572)
(-1.06529 0.141896 -0.910461)
(0.65475 -0.250518 -3.20908)
(0.713069 -0.050591 -3.35633)
(-0.149923 -0.510196 -1.08178)
(-4.34032 -0.439646 0.136662)
(-4.1341 -0.0530872 1.42975)
(-4.03592 0.26241 -0.106394)
(-0.590336 0.210335 -1.23556)
(-0.843674 0.0348293 -1.79095)
(-1.12939 0.0493073 -0.907759)
(-0.324902 0.0234902 -2.14517)
(0.684696 -0.200641 -3.3061)
(0.680509 -0.0601575 -3.3703)
(-0.205649 -0.510288 -1.08445)
(-1.97318 1.1322 0.895104)
(-5.77524 -0.0196706 1.38395)
(-3.9441 0.920927 0.23646)
(-2.52588 -0.103447 1.24674)
(-4.04101 -0.138692 1.27063)
(-3.86242 0.219716 -0.186241)
(-1.14073 -0.0182746 -0.61765)
(-0.534923 0.148281 -1.33404)
(-0.846714 -0.0605164 -1.70967)
(-1.15355 -0.0124607 -0.874095)
(-0.469886 0.562457 -2.77132)
(-0.311781 0.059333 -2.40471)
(0.7065 -0.153073 -3.38773)
(0.638114 -0.0553153 -3.37841)
(-0.268712 -0.499764 -1.09198)
(-3.55167 -1.03314 0.257068)
(-3.97377 -0.42293 1.52072)
(-1.92923 0.335352 1.2332)
(-5.19509 2.63701 1.89433)
(-5.60848 0.536107 1.58492)
(-3.83004 1.25005 0.387723)
(-0.821758 -1.25562 0.22671)
(-2.41441 -0.549968 0.383547)
(-3.94834 0.420639 0.980412)
(-3.67865 0.173017 -0.207833)
(-0.861011 -0.213408 -0.789639)
(-1.19434 0.329112 -0.420836)
(-0.510648 0.0335728 -1.30019)
(-0.797188 -0.12665 -1.60432)
(-1.20949 -0.0503537 -0.865104)
(-0.768827 -0.198168 -2.33011)
(-0.487467 0.549953 -2.8077)
(-0.297722 0.104039 -2.64995)
(0.715784 -0.123803 -3.46357)
(0.595926 -0.0576324 -3.37964)
(-0.331414 -0.485163 -1.08605)
(-3.61721 -1.66252 0.262812)
(-3.60611 -1.05932 2.51942)
(-3.48855 -2.22435 0.344532)
(-5.91852 0.720953 1.87811)
(-4.06996 0.136902 1.49741)
(-2.05141 -0.849541 1.4995)
(-3.709 2.94135 2.38999)
(-5.13459 1.83917 2.42569)
(-5.38909 1.51864 1.68232)
(-3.74125 1.56042 0.573725)
(-0.277978 -0.962585 0.562335)
(-0.534359 -1.0972 -0.0485688)
(-2.31449 -0.869612 0.0201781)
(-3.78464 1.03959 0.764556)
(-3.4774 0.191218 -0.164692)
(-0.938941 -0.794406 -0.450247)
(-0.933586 -0.291341 -0.728498)
(-1.24084 0.477957 -0.526265)
(-0.479699 -0.0930453 -1.26012)
(-0.73249 -0.138887 -1.53172)
(-1.23876 -0.0751451 -0.877841)
(-0.649205 -0.766837 -2.05627)
(-0.772659 -0.248313 -2.32672)
(-0.498792 0.499495 -2.83671)
(-0.285478 0.161689 -2.87698)
(0.718995 -0.0943275 -3.53794)
(0.571076 -0.0685262 -3.37545)
(-0.365076 -0.491128 -1.07707)
(-2.75986 -2.0037 0.147128)
(-4.03042 -0.93673 0.826184)
(-3.45649 -1.75056 0.174658)
(-5.23856 -1.19116 0.677851)
(-3.76843 -0.521365 2.3132)
(-3.30719 -3.161 0.872595)
(-5.4647 0.968958 2.82871)
(-6.29895 -0.765215 1.49235)
(-4.41835 0.176064 1.35984)
(-1.92099 -2.8619 0.833635)
(-2.07145 1.60685 3.37118)
(-3.44026 3.23265 2.31246)
(-5.10858 1.50916 2.29199)
(-5.40955 1.46892 1.4023)
(-4.08431 1.36314 0.532586)
(-0.36643 -0.761278 0.00885564)
(-0.275718 -1.03069 0.442289)
(-0.277276 -0.868344 -0.223289)
(-2.18328 -1.16615 -0.199602)
(-3.69288 0.600912 0.884927)
(-3.29397 0.367642 -0.14825)
(-0.848956 -0.60868 -1.35085)
(-0.995075 -0.836892 -0.581837)
(-1.00104 -0.470555 -0.624862)
(-1.25718 0.421347 -0.741784)
(-0.452625 -0.257426 -1.23138)
(-0.704727 -0.132205 -1.5368)
(-1.27094 -0.0713517 -0.896275)
(-0.595877 -0.744928 -2.22904)
(-0.640063 -0.798415 -2.09689)
(-0.772731 -0.326027 -2.30753)
(-0.489357 0.432136 -2.86544)
(-0.273613 0.229498 -3.08449)
(0.712346 -0.0654843 -3.60717)
(0.543243 -0.0853706 -3.36076)
(-0.425362 -0.500668 -1.07379)
(-2.76686 -1.67566 0.0565544)
(-3.33047 -0.811337 0.263072)
(-2.98855 -1.83655 0.161247)
(-3.92622 0.229451 1.25649)
(-3.77439 -1.35792 0.699577)
(-3.1296 -2.27437 -0.174888)
(-5.36125 0.099884 1.71679)
(-5.28636 -0.980604 0.648721)
(-4.12364 0.115039 1.90079)
(-2.64199 -4.03633 0.469779)
(-5.4981 1.62598 3.203)
(-5.73938 1.38952 2.90515)
(-6.22049 -1.24157 1.39459)
(-4.63851 0.512422 1.23144)
(-2.57039 -4.05421 0.368132)
(-1.53284 -1.38385 2.27946)
(-1.81651 -0.151525 2.94742)
(-3.1753 2.64796 2.15753)
(-5.04877 2.01927 1.99006)
(-5.32154 1.34245 1.48577)
(-4.24544 0.495948 0.673091)
(-0.479298 -0.639769 -0.604252)
(-0.484407 -0.746059 -0.143329)
(-0.284818 -0.989176 0.319033)
(-0.131597 -0.718581 -0.353811)
(-1.88738 -1.50779 -0.523482)
(-3.07652 -0.588746 -0.259252)
(-3.18636 -0.0155454 -0.0567147)
(-0.74199 -0.35475 -2.38573)
(-0.940117 -0.613951 -1.5425)
(-1.01358 -1.05577 -0.449953)
(-1.07732 -0.551325 -0.56488)
(-1.24731 0.353599 -0.865871)
(-0.451558 -0.325932 -1.23702)
(-0.749228 -0.123451 -1.58458)
(-1.3201 -0.0815244 -0.941379)
(-0.663424 -0.432015 -2.29898)
(-0.600121 -0.676927 -2.29534)
(-0.652612 -0.856979 -2.12314)
(-0.76547 -0.380001 -2.29685)
(-0.525843 0.465238 -2.85909)
(-0.281158 0.334363 -3.25688)
(0.701837 -0.0399474 -3.65726)
(0.513729 -0.105565 -3.33374)
(-0.490244 -0.509193 -1.08619)
(-2.29722 -1.78745 -0.0918749)
(-3.31381 -0.779544 0.20435)
(-2.73021 -1.79673 -0.027807)
(-3.55042 -0.822927 0.349037)
(-3.21142 -1.02455 0.360194)
(-2.40673 -2.53701 0.024258)
(-4.0813 -0.0174373 1.14077)
(-3.79733 -1.1095 1.06841)
(-3.74638 -1.20951 0.690425)
(-3.0839 -2.27435 -0.202534)
(-4.67662 1.22489 2.30824)
(-5.11046 0.546718 2.13804)
(-5.36075 -0.176611 0.385266)
(-4.65114 0.579624 1.68579)
(-1.8582 -4.46238 -0.652087)
(-3.53893 2.10934 3.43107)
(-5.46822 1.49646 3.2564)
(-5.98385 1.42443 3.1819)
(-6.01939 -0.0710951 1.35746)
(-4.7214 1.38201 1.42931)
(-2.74321 -4.38653 1.17555)
(-1.59688 -1.48945 2.24876)
(-1.29457 -1.81368 1.9244)
(-1.35725 -1.84568 2.04099)
(-2.74841 0.784877 1.89623)
(-4.97865 2.33919 1.59697)
(-5.16422 1.42497 1.44473)
(-4.45483 1.50271 0.119824)
(-0.913261 -0.55326 -0.75135)
(-0.617915 -0.707194 -0.682329)
(-0.658527 -0.642052 -0.367321)
(-0.461345 -0.802549 0.140593)
(-0.115522 -0.651458 -0.49229)
(-1.57816 -1.66892 -0.690548)
(-2.79293 -1.19196 -0.75814)
(-3.05122 -0.0326937 -0.147591)
(-0.662459 -0.474311 -2.38681)
(-0.881575 -0.314553 -2.52798)
(-1.03009 -0.623493 -1.72574)
(-1.09834 -1.14981 -0.491495)
(-1.09397 -0.55816 -0.606688)
(-1.25209 0.249778 -0.928382)
(-0.43599 -0.422995 -1.25199)
(-0.757836 -0.185364 -1.67428)
(-1.39578 -0.06122 -1.02348)
(-0.759294 0.271739 -2.46614)
(-0.635015 -0.48718 -2.34957)
(-0.581965 -0.646585 -2.35306)
(-0.603975 -0.866943 -2.18562)
(-0.758601 -0.457992 -2.2877)
(-0.51898 0.483689 -2.86002)
(-0.299711 0.449981 -3.38878)
(0.68424 -0.00843199 -3.68234)
(0.487753 -0.125322 -3.29711)
(-0.561019 -0.497654 -1.06031)
(-2.14457 -1.64282 -0.227798)
(-2.92637 -0.452707 0.130121)
(-2.2665 -1.85339 -0.0203506)
(-3.13442 -0.692183 0.1037)
(-3.20089 -0.937143 0.15419)
(-2.72614 -1.78137 -0.0621409)
(-3.48086 -0.172536 0.783331)
(-3.48413 -0.740948 0.328948)
(-3.12625 -0.754163 0.209821)
(-2.29361 -2.74375 0.00878239)
(-3.6084 0.666158 2.0853)
(-3.83334 0.451575 1.60172)
(-3.60283 1.07288 1.28908)
(-3.64082 -1.13237 0.56968)
(-2.80707 -2.3135 -0.0901442)
(-4.02769 1.22291 3.19643)
(-4.42156 1.34227 2.72177)
(-4.8754 1.34621 2.48287)
(-4.99091 0.728607 1.06643)
(-4.88102 0.552996 1.60901)
(-1.54491 -4.56102 -1.39849)
(-3.27453 0.956642 3.07273)
(-3.10272 2.1271 3.74059)
(-5.00832 1.75177 3.50222)
(-5.8387 1.35658 3.33835)
(-5.97318 0.487627 1.43831)
(-4.68167 1.2004 1.62919)
(-2.90749 -4.21165 1.15303)
(-1.54392 -1.54403 2.73823)
(-1.36892 -1.94115 2.17911)
(-1.02303 -1.84752 1.67432)
(-0.868297 -2.3144 1.48706)
(-2.10464 -0.820601 1.12434)
(-4.72349 2.3075 1.2827)
(-4.92003 1.80357 1.48958)
(-4.78401 -0.179284 0.441533)
(-1.2825 -0.474683 -0.364215)
(-1.01131 -0.586746 -0.948589)
(-0.779133 -0.703086 -0.847024)
(-0.772126 -0.674232 -0.640398)
(-0.618744 -0.675804 0.0989563)
(-0.17598 -0.600481 -0.672103)
(-1.23897 -1.48965 -1.07028)
(-2.40252 -1.41141 -1.2249)
(-2.99516 -0.280613 -0.129936)
(-0.972025 -0.551714 -2.18759)
(-0.588146 -0.44195 -2.57819)
(-0.795339 -0.404558 -2.70862)
(-1.10885 -0.61189 -1.94118)
(-1.14347 -1.1971 -0.654096)
(-1.12662 -0.576542 -0.642182)
(-1.26546 0.218174 -0.988934)
(-0.395993 -0.586111 -1.28146)
(-0.779196 -0.197272 -1.77157)
(-1.42092 -0.175292 -1.10551)
(-0.781998 -0.550868 -2.87809)
(-0.796175 0.248849 -2.5049)
(-0.664712 -0.537164 -2.38319)
(-0.600541 -0.637788 -2.38847)
(-0.657249 -0.810846 -2.23032)
(-0.761257 -0.424931 -2.30148)
(-0.518265 0.457187 -2.83981)
(-0.320342 0.539372 -3.49237)
(0.646228 0.053101 -3.70625)
(0.466753 -0.146232 -3.24954)
(-0.565325 -0.502935 -1.03918)
(-2.1819 -1.02711 -0.0880776)
(-2.67828 -0.784513 4.93884e-05)
(-2.03515 -1.81156 -0.286467)
(-3.03706 -0.555761 0.175026)
(-2.92542 -0.533696 0.0718324)
(-2.21832 -1.85411 0.0211218)
(-3.36128 -0.282219 0.186343)
(-3.16049 0.0653387 -0.186161)
(-3.19403 -0.854877 0.209215)
(-2.44057 -2.05523 -0.0775617)
(-3.71267 0.00687285 0.801481)
(-3.50441 -0.212792 0.81891)
(-3.24518 -0.686371 0.447149)
(-2.91815 -1.12556 0.0505424)
(-2.21677 -2.94206 -0.038027)
(-3.70897 0.527369 2.32756)
(-3.67001 0.124952 2.12074)
(-3.76713 0.150252 1.71517)
(-3.85533 -0.165676 1.26694)
(-3.54967 -1.45613 0.432283)
(-2.29293 -2.66018 0.0768804)
(-4.37845 0.767972 3.48362)
(-4.13963 1.42725 3.39061)
(-4.4119 1.67086 3.13291)
(-4.80419 1.71846 2.59112)
(-4.86773 0.984322 1.51638)
(-4.93943 0.123358 1.53824)
(-1.45863 -4.3342 -1.38153)
(-3.35987 0.308885 3.07931)
(-3.13818 -0.375716 3.02681)
(-2.81152 1.66361 3.79088)
(-4.46183 2.43064 3.14813)
(-5.41656 1.56357 3.06395)
(-5.96482 1.03677 1.79837)
(-4.69787 0.485422 1.96807)
(-3.14488 -4.33391 1.08845)
(-1.72441 -1.85643 3.20145)
(-1.35933 -1.74404 2.73692)
(-1.19133 -2.12007 2.13035)
(-0.742535 -1.75015 1.46971)
(-0.477622 -2.08348 1.08557)
(-1.49206 -1.55925 0.669864)
(-4.32893 1.49495 1.32897)
(-4.83135 2.30814 1.13503)
(-4.5746 -0.857467 0.73627)
(-1.39941 -0.207504 -0.864106)
(-1.4134 -0.464915 -0.515333)
(-1.13003 -0.577465 -1.22878)
(-0.964672 -0.623938 -1.14376)
(-1.09886 -0.123173 -0.921252)
(-0.734756 -1.01422 0.00310364)
(-0.27706 -0.468457 -0.89617)
(-1.06582 -1.64923 -1.11122)
(-2.37846 -0.75402 -1.39941)
(-3.16875 0.381021 -0.297833)
(-1.30602 -0.414326 -2.02849)
(-0.96908 -0.539069 -2.35357)
(-0.645656 -0.343372 -2.74347)
(-1.01366 -0.375528 -2.8118)
(-1.22392 -0.700177 -2.08526)
(-1.17522 -1.0808 -1.02386)
(-1.16894 -0.683326 -0.720382)
(-1.28341 0.203657 -1.0764)
(-0.376622 -0.650256 -1.3641)
(-0.793303 -0.149395 -1.84895)
(-1.45394 -0.106751 -1.07946)
(-0.44522 -0.150765 -3.1818)
(-0.793563 -0.576293 -2.92222)
(-0.818131 0.228312 -2.54447)
(-0.635784 -0.457713 -2.44594)
(-0.560565 -0.668414 -2.41501)
(-0.619673 -0.838466 -2.26669)
(-0.737761 -0.479297 -2.30158)
(-0.491658 0.394944 -2.82845)
(-0.277802 0.472863 -3.55449)
(0.604608 0.1078 -3.71749)
(0.453086 -0.17606 -3.18748)
(-0.630863 -0.537329 -1.03476)
(-1.74498 -1.30743 0.0404296)
(-2.45746 -0.818721 -0.271765)
(-2.13512 -1.11812 -0.0742618)
(-2.9957 -0.164996 0.129264)
(-2.76956 -0.83891 0.00383323)
(-1.92788 -1.88351 -0.208638)
(-3.02869 -0.281941 0.160006)
(-2.93851 -0.734792 0.165399)
(-2.89065 -0.759805 0.0244914)
(-2.22834 -1.85787 0.050075)
(-3.51181 -0.0291679 0.259867)
(-3.36237 -0.14601 0.220753)
(-3.16643 -0.475901 -0.00717454)
(-3.17504 -1.06352 0.240776)
(-2.24286 -2.26695 -0.0569718)
(-3.89615 0.258306 0.985737)
(-3.83827 -0.225456 0.925618)
(-3.49752 -0.261341 0.820492)
(-3.25181 -1.05181 0.431033)
(-2.89692 -1.31208 0.233834)
(-2.07208 -3.07387 -0.0246942)
(-4.04611 0.110267 2.02071)
(-3.84946 -0.00143652 2.35728)
(-3.88354 -0.0299268 2.13119)
(-3.97593 0.843286 2.026)
(-3.79656 -0.936524 1.31135)
(-3.54961 -2.1674 0.0953797)
(-2.05244 -2.85944 0.0828144)
(-4.81433 0.300254 3.11385)
(-4.50004 0.0715107 3.84669)
(-4.41738 0.503039 3.65122)
(-4.55843 1.04539 3.38837)
(-4.61076 1.83964 2.75909)
(-5.09841 1.09724 1.954)
(-4.75814 -0.970549 1.70762)
(-0.93679 -4.33945 -1.11087)
(-4.05978 1.02842 2.85358)
(-3.20539 -0.776316 2.90895)
(-2.87094 -0.458216 2.92482)
(-2.64309 0.687426 3.38474)
(-3.86666 2.28788 2.98757)
(-4.91241 1.63112 2.72896)
(-5.98347 0.845696 2.2376)
(-4.6284 -0.504544 2.17583)
(-3.2357 -4.60376 1.20607)
(-2.1947 -1.36476 3.16699)
(-1.53858 -1.97118 3.20907)
(-1.25723 -1.74844 2.65711)
(-0.971727 -2.04701 2.10163)
(-0.592616 -1.61918 1.08494)
(-0.277106 -1.64686 0.707974)
(-1.11464 -1.74118 0.181386)
(-3.35105 -0.350854 1.21863)
(-4.18586 0.903563 1.3899)
(-4.21853 -1.66208 0.909099)
(-1.76031 -0.0039377 -0.96416)
(-1.51475 -0.188578 -1.07143)
(-1.54819 -0.473175 -0.749073)
(-1.25382 -0.533065 -1.60478)
(-1.13902 -0.55536 -1.60149)
(-0.92782 -1.00084 -1.11373)
(-0.871492 -0.884142 -0.0605102)
(-0.347473 -0.458335 -1.10169)
(-0.821923 -1.79943 -1.38857)
(-2.48468 -0.718244 -1.52097)
(-3.42885 -0.143241 -0.521753)
(-1.153 -0.0520193 -2.27302)
(-1.28221 -0.436721 -2.17547)
(-0.963353 -0.472705 -2.49126)
(-0.539097 -0.364832 -2.91072)
(-0.876804 -0.260079 -3.00946)
(-1.25545 -0.806365 -2.23553)
(-1.31975 -1.18312 -1.04684)
(-1.34916 -0.64723 -0.611962)
(-1.30303 0.203599 -1.088)
(-0.373727 -0.645796 -1.46271)
(-0.776774 -0.139985 -1.88852)
(-1.49024 -0.131648 -1.04901)
(0.03719 -0.427944 -2.91078)
(-0.428284 -0.205777 -3.19881)
(-0.810412 -0.586543 -2.96926)
(-0.844089 0.187799 -2.58344)
(-0.632031 -0.549268 -2.4604)
(-0.607244 -0.536573 -2.44906)
(-0.604318 -0.897978 -2.28417)
(-0.704182 -0.588364 -2.2895)
(-0.447859 0.309879 -2.83258)
(-0.192229 0.351648 -3.57612)
(0.552018 0.172858 -3.7108)
(0.450754 -0.213704 -3.10944)
(-0.703004 -0.535245 -0.998841)
(-1.65095 -1.13108 0.0402629)
(-2.14085 -1.03383 0.17562)
(-1.64621 -1.38839 0.0139538)
(-2.64561 -0.341904 0.20325)
(-2.38358 -1.31667 -0.121289)
(-2.0443 -1.24664 -0.0617104)
(-3.0733 -0.257153 0.178397)
(-2.88968 -0.518881 0.222351)
(-2.84353 -0.990903 0.0185096)
(-1.87086 -1.92705 -0.118469)
(-3.07597 -0.206051 0.230557)
(-3.05926 -0.373211 0.261165)
(-2.98242 -0.912483 0.156859)
(-2.78394 -1.17138 0.0782872)
(-1.95458 -2.19652 0.0648045)
(-3.65652 -0.140523 0.509175)
(-3.39777 -0.159458 0.346712)
(-3.26584 -0.374993 0.271452)
(-3.29824 -0.437931 0.170672)
(-2.92802 -1.73352 0.0746448)
(-2.03748 -2.46556 -0.0735726)
(-4.05434 -0.0151026 1.11801)
(-3.96255 -0.0937077 1.05107)
(-3.73819 -0.166099 1.00983)
(-3.56304 -0.378251 0.843911)
(-3.18811 -1.40223 0.369655)
(-2.87404 -1.55358 0.215516)
(-1.89625 -3.1717 -0.0375077)
(-4.51167 -0.0703431 1.72898)
(-4.35696 -0.365723 1.98343)
(-4.1842 -0.366694 2.29027)
(-4.15495 0.83845 2.49851)
(-4.09862 -0.398152 1.93795)
(-3.97056 -1.13584 1.31178)
(-3.34839 -2.7283 -0.100661)
(-1.82934 -2.96865 0.0665464)
(-4.72157 -0.214363 3.06724)
(-4.80005 0.173695 3.57612)
(-4.50357 -0.094314 3.86444)
(-4.4957 -0.0603426 3.62724)
(-4.61564 0.525261 3.27027)
(-4.66924 1.13242 2.86464)
(-5.05993 0.0461538 2.48036)
(-4.67507 -1.19823 1.99672)
(-0.825706 -4.35961 -1.133)
(-4.14637 1.09675 2.61309)
(-3.92112 0.128062 2.78671)
(-2.95674 -1.08222 2.80076)
(-2.73338 -0.730177 2.38691)
(-2.2852 -0.53746 2.64279)
(-3.25249 0.177202 2.51933)
(-4.42756 1.01572 2.80468)
(-5.92434 0.805294 2.51467)
(-4.7459 -1.10724 2.31758)
(-3.23305 -4.58517 1.25579)
(-2.56479 -0.89572 2.97424)
(-2.04171 -1.67598 3.10361)
(-1.46085 -2.22033 3.03886)
(-1.27503 -1.63349 2.51027)
(-0.945645 -1.76996 1.8634)
(-0.613581 -1.38015 0.721534)
(-0.264047 -1.56081 0.293743)
(-0.876321 -1.81076 -0.0203869)
(-2.51268 -1.43987 1.22537)
(-3.36818 -0.809411 1.77473)
(-4.55908 -1.51436 1.02256)
(-1.89538 -0.0225043 -1.06499)
(-1.82118 -0.0114672 -1.13888)
(-1.6497 -0.164843 -1.36044)
(-1.71674 -0.416882 -1.1098)
(-1.36276 -0.415503 -2.00461)
(-1.36693 -0.352938 -2.09106)
(-1.38169 -0.511345 -1.53376)
(-1.16825 -0.475141 -0.164514)
(-0.380511 -0.47897 -1.29776)
(-0.760695 -1.92764 -1.58792)
(-2.48069 -0.813221 -1.42782)
(-3.25229 -0.672495 -0.379591)
(-0.999295 0.127272 -2.1738)
(-1.15887 0.13622 -2.32635)
(-1.24403 -0.439341 -2.32401)
(-0.977633 -0.35509 -2.5678)
(-0.576565 -0.374629 -2.95571)
(-0.969471 -0.547742 -2.96429)
(-1.27145 -0.848115 -2.38461)
(-1.15796 -1.44245 -1.2039)
(-1.11096 -0.917631 -0.688322)
(-1.33077 0.269128 -1.06069)
(-0.412809 -0.608368 -1.47056)
(-0.746869 -0.16279 -1.88221)
(-1.46506 -0.270456 -0.997424)
(0.224992 -0.379663 -2.59825)
(0.0562875 -0.478063 -2.88987)
(-0.427938 -0.176469 -3.21295)
(-0.824474 -0.596202 -3.01619)
(-0.85529 0.156376 -2.63251)
(-0.647848 -0.591215 -2.4696)
(-0.571879 -0.633721 -2.44305)
(-0.629602 -0.816849 -2.3386)
(-0.70692 -0.591966 -2.29426)
(-0.41292 0.245232 -2.84287)
(-0.103563 0.262835 -3.57863)
(0.522494 0.235805 -3.69393)
(0.463897 -0.264827 -3.01532)
(-0.724073 -0.530556 -0.962963)
(-1.53051 -1.34116 0.0302092)
(-1.85692 -1.07978 0.111449)
(-1.56247 -1.23957 -0.00783294)
(-2.304 -0.800589 0.138299)
(-2.13035 -0.96306 0.154008)
(-1.68096 -1.38086 -0.0444336)
(-2.68911 -0.34392 0.386848)
(-2.62219 -0.636483 0.209961)
(-2.3725 -1.33481 -0.098352)
(-1.85916 -1.47043 -0.0310045)
(-3.10689 -0.237468 0.305732)
(-3.06444 -0.489227 0.218218)
(-2.80343 -0.855403 0.29457)
(-2.79756 -1.21268 0.0124138)
(-1.82017 -2.01893 -0.0661184)
(-3.25529 -0.249915 0.408589)
(-3.0853 -0.162275 0.37599)
(-3.12495 -0.580781 0.366402)
(-3.00439 -1.25708 0.167114)
(-2.85591 -1.21445 0.230365)
(-1.81032 -2.32595 0.0499692)
(-3.74765 0.0778886 0.593703)
(-3.62835 -0.280582 0.524471)
(-3.46242 0.0155197 0.383079)
(-3.29834 -0.319066 0.322981)
(-3.25742 -0.957682 0.50117)
(-2.69704 -2.15604 0.304237)
(-1.7577 -2.63015 -0.0461311)
(-4.06571 0.571901 1.0549)
(-4.0684 -0.0235149 1.10291)
(-3.91016 -0.189385 1.06376)
(-3.78103 -0.302483 1.11679)
(-3.4533 -1.14574 0.701532)
(-3.03566 -1.46914 0.487771)
(-2.7456 -1.88301 0.174131)
(-1.74293 -3.29715 -0.061936)
(-4.53505 -0.0130106 1.44413)
(-4.52611 -0.213907 1.71733)
(-4.45882 -0.535258 1.91678)
(-4.34746 -0.444331 2.28793)
(-4.19522 -0.642186 2.53428)
(-4.22194 -0.858159 1.94118)
(-4.15871 -1.35973 1.2215)
(-3.30347 -2.7567 -0.208286)
(-1.55416 -3.10785 0.0276275)
(-4.71681 -0.408138 2.91849)
(-4.93429 -0.0012403 3.36468)
(-4.68661 -0.210292 3.6491)
(-4.33492 -0.552983 3.7733)
(-4.4369 -0.314484 3.69818)
(-4.75636 0.161144 3.20584)
(-4.66546 -0.174578 2.97077)
(-5.04986 -0.0926695 2.48535)
(-4.02786 -2.16099 2.03828)
(-0.544024 -4.39207 -1.06335)
(-4.11445 0.23477 2.59803)
(-4.1533 0.63362 2.54085)
(-3.68413 -1.18434 2.73397)
(-2.47792 -1.70906 2.78534)
(-2.25126 -1.57813 1.93195)
(-1.91661 -1.42176 1.88912)
(-2.2904 -1.90016 1.81991)
(-3.95436 0.0858128 2.79176)
(-5.30472 -0.00269401 2.73655)
(-4.06928 -2.47251 2.69025)
(-2.95881 -4.67729 1.30343)
(-2.89267 -0.44198 2.92258)
(-2.50161 -0.974591 2.98387)
(-1.9506 -1.80733 3.03803)
(-1.46216 -2.35553 2.82243)
(-1.24474 -1.46521 1.85557)
(-1.11072 -1.35328 1.43666)
(-0.842741 -0.810949 0.106256)
(-0.303762 -1.50992 0.103097)
(-0.903486 -1.7882 -0.0882879)
(-1.98355 -2.15441 1.41524)
(-3.16095 -1.26277 1.94957)
(-4.10749 -2.63517 1.31203)
(-1.68142 -0.349995 -1.13098)
(-1.94512 -0.112744 -1.08979)
(-1.85689 -0.0540673 -1.35443)
(-1.77343 -0.173856 -1.74733)
(-1.92393 -0.299459 -1.56729)
(-1.50396 -0.297522 -2.49139)
(-1.50746 -0.293052 -2.68554)
(-1.69206 -0.207937 -1.77494)
(-1.26402 -0.740247 -0.147614)
(-0.433852 -0.480313 -1.48021)
(-0.80278 -2.02518 -1.6601)
(-2.31561 -1.13974 -1.14819)
(-3.3083 -0.181241 -0.604376)
(-0.902074 0.189842 -2.42308)
(-1.00633 0.186912 -2.24343)
(-1.17654 0.33954 -2.37697)
(-1.21169 -0.315586 -2.47689)
(-0.988589 -0.206078 -2.60046)
(-0.552357 -0.308257 -2.91252)
(-0.821338 -0.439704 -3.04401)
(-1.33173 -0.835555 -2.50678)
(-1.4736 -1.25127 -1.20884)
(-1.1026 -1.07189 -0.740999)
(-1.20378 0.0710175 -1.06772)
(-0.4022 -0.635996 -1.4665)
(-0.713568 -0.17673 -1.858)
(-1.48026 -0.284293 -0.873733)
(0.20443 -0.443594 -2.61404)
(0.24251 -0.354438 -2.60204)
(0.0896548 -0.520008 -2.86564)
(-0.391699 -0.23019 -3.21946)
(-0.816755 -0.609938 -3.06485)
(-0.861762 0.106117 -2.68832)
(-0.661784 -0.51229 -2.49324)
(-0.562269 -0.679796 -2.43737)
(-0.61602 -0.878302 -2.34397)
(-0.682395 -0.628686 -2.30824)
(-0.38292 0.19138 -2.84231)
(-0.0245293 0.193252 -3.60098)
(0.511707 0.23749 -3.65243)
(0.48651 -0.320044 -2.90729)
(-0.777066 -0.550041 -0.941808)
(-1.6812 -1.01136 -0.0269351)
(-1.88296 -1.18724 0.0869357)
(-1.46078 -1.39768 -0.00853417)
(-2.18957 -0.756827 0.269686)
(-1.89869 -1.0118 0.130846)
(-1.62259 -1.17727 0.00374287)
(-2.40046 -0.483865 0.568628)
(-2.25396 -1.08095 0.0788986)
(-1.96715 -1.15592 0.198469)
(-1.48135 -1.63262 -0.0220457)
(-2.78749 -0.192271 0.471471)
(-2.67467 -0.342439 0.45578)
(-2.60971 -0.97385 0.110151)
(-2.34353 -1.3243 -0.0401321)
(-1.80499 -1.63543 -0.0373301)
(-3.14218 -0.355983 0.356209)
(-3.09524 -0.366638 0.349608)
(-2.9861 -0.705768 0.218754)
(-2.83652 -1.09927 0.263664)
(-2.68012 -1.50308 -0.0995825)
(-1.71869 -2.12828 -0.0170456)
(-3.31671 0.0220281 0.501848)
(-3.22092 -0.343646 0.431988)
(-3.1432 -0.403197 0.403061)
(-3.1242 -0.908848 0.399163)
(-2.95725 -1.55287 0.045356)
(-2.56837 -1.80041 0.181193)
(-1.57833 -2.45713 -0.0226805)
(-3.65242 -0.0639175 0.921053)
(-3.61046 -0.399613 0.678562)
(-3.59209 -0.542644 0.537535)
(-3.24489 -1.11359 0.441256)
(-3.21845 -0.979288 0.405911)
(-3.09141 -1.53796 0.528095)
(-2.45463 -2.52469 0.269894)
(-1.60847 -2.72315 -0.036452)
(-3.98198 -0.0735597 1.23187)
(-3.95379 -0.147825 1.17904)
(-4.03232 -0.187143 1.15346)
(-3.98972 -0.464432 1.21621)
(-4.05417 -0.656777 1.18655)
(-3.46293 -1.13041 0.806935)
(-2.94039 -1.69565 0.441075)
(-2.58232 -2.25287 0.309375)
(-1.58229 -3.35504 -0.129834)
(-4.57843 0.163085 1.39039)
(-4.69174 -0.165025 1.55699)
(-4.5731 -0.269987 1.68633)
(-4.46084 -0.45915 1.91184)
(-4.35294 -0.775679 2.35877)
(-4.16571 -1.11757 2.48879)
(-4.14947 -1.46796 1.8161)
(-4.0438 -1.83312 1.32603)
(-3.14218 -3.15033 -0.318563)
(-1.213 -3.2773 0.0954958)
(-4.67367 0.0779595 2.62666)
(-5.05329 -0.358006 2.90162)
(-5.03892 -0.0831726 3.46449)
(-4.65611 -0.279869 3.29003)
(-4.44224 -0.569147 3.22515)
(-4.58004 -0.486534 3.18902)
(-4.73453 -0.54486 2.80036)
(-4.78461 -0.777528 2.80472)
(-5.06398 -1.0689 2.22968)
(-3.74142 -2.64461 2.0916)
(-0.437839 -4.29392 -0.786837)
(-3.99071 0.885795 2.17649)
(-4.13505 0.597774 2.41093)
(-3.82776 -1.17329 2.45938)
(-3.32771 -1.81575 2.74648)
(-2.72877 -0.436118 2.31091)
(-2.00399 -1.77698 1.71079)
(-1.60172 -2.01501 1.04641)
(-2.07985 -1.97972 1.42203)
(-3.13414 -1.64342 2.1802)
(-3.84876 -2.70906 2.65968)
(-3.617 -3.1151 2.80337)
(-2.75366 -4.84883 1.34543)
(-2.94554 -0.132015 2.48958)
(-2.83507 -0.504846 2.91526)
(-2.43076 -1.00096 2.97286)
(-2.18312 -1.41161 3.03446)
(-1.58494 -2.08894 2.55842)
(-1.35015 -0.957671 0.95609)
(-1.38525 -0.936641 0.793108)
(-0.853961 -1.09923 0.687799)
(-0.559231 -1.29743 -0.0732489)
(-0.935814 -1.90486 -0.300995)
(-2.35267 -2.1964 1.12833)
(-2.77809 -2.18097 2.10413)
(-3.52816 -3.15599 1.23711)
(-1.48717 -0.266964 -1.58548)
(-1.75015 -0.331574 -1.22401)
(-1.99326 -0.194419 -1.15736)
(-1.88391 -0.0933587 -1.62515)
(-1.85396 -0.268268 -2.14127)
(-2.04785 -0.245556 -2.05353)
(-1.54687 -0.227217 -2.96303)
(-1.52083 -0.490985 -3.15669)
(-1.91086 -0.0709615 -2.05277)
(-1.40943 -0.469208 -0.627257)
(-0.479633 -0.587984 -1.59022)
(-0.828719 -2.06169 -1.62094)
(-2.34688 -1.35886 -1.1839)
(-3.61857 -0.86036 -0.496425)
(-0.553088 -0.622665 -2.43435)
(-0.962123 0.035602 -2.37121)
(-1.0199 0.506917 -2.23946)
(-1.19231 0.307621 -2.45144)
(-1.21887 -0.0871064 -2.5672)
(-0.994332 -0.102915 -2.61581)
(-0.493917 -0.329059 -2.81346)
(-0.934052 -0.697954 -2.90505)
(-1.29851 -1.01284 -2.60407)
(-0.871593 -1.5849 -1.67005)
(-1.10349 -1.2583 -0.671993)
(-1.02711 -0.205433 -1.05956)
(-0.311703 -0.729524 -1.45708)
(-0.660938 -0.226 -1.81066)
(-1.46731 -0.322916 -0.735961)
(-0.0509405 -0.680868 -2.25569)
(0.203731 -0.439087 -2.60323)
(0.255653 -0.341811 -2.61164)
(0.131763 -0.530406 -2.83263)
(-0.377034 -0.262498 -3.22479)
(-0.810338 -0.60119 -3.10895)
(-0.850662 0.0339995 -2.74916)
(-0.680022 -0.453557 -2.51167)
(-0.558751 -0.714782 -2.43175)
(-0.608189 -0.805776 -2.39446)
(-0.644753 -0.697376 -2.32575)
(-0.323032 0.120133 -2.84372)
(0.00978604 0.162766 -3.66228)
(0.484592 0.20688 -3.59571)
(0.513963 -0.3731 -2.78841)
(-0.852975 -0.552705 -0.902599)
(-1.47244 -1.06603 -0.00346747)
(-2.01781 -0.759616 -0.0180097)
(-1.58062 -1.0837 -0.029693)
(-2.22279 -0.784203 0.0441883)
(-1.86564 -1.20778 0.0998714)
(-1.38414 -1.48321 0.0575637)
(-2.25211 -0.473371 0.252788)
(-2.11731 -0.998559 0.279606)
(-1.70569 -1.32053 0.0686654)
(-1.54898 -1.34092 0.0336546)
(-2.55777 -0.239791 0.493904)
(-2.31791 -0.798683 0.500906)
(-2.22124 -1.25321 0.1146)
(-1.92786 -1.29222 0.16692)
(-1.42806 -1.73913 -0.0544814)
(-2.83034 -0.398035 0.529258)
(-2.75827 -0.260227 0.476639)
(-2.78394 -0.234719 0.354111)
(-2.481 -1.35045 0.135377)
(-2.41606 -1.21913 -8.9593e-05)
(-1.63915 -1.87861 -0.0936369)
(-3.0779 -0.343901 0.622469)
(-3.09352 -0.511107 0.338535)
(-3.05043 -0.502797 0.338132)
(-2.84341 -0.938833 0.251907)
(-2.80913 -1.22378 0.223503)
(-2.55606 -1.75399 -0.0961943)
(-1.61321 -2.21384 0.0158573)
(-3.38234 -0.0693738 0.776157)
(-3.3251 -0.081591 0.568134)
(-3.25416 -0.296843 0.441256)
(-3.16236 -0.642587 0.46064)
(-3.11813 -1.11736 0.381385)
(-2.8913 -1.726 0.100544)
(-2.10413 -2.30495 0.423549)
(-1.12492 -2.67376 0.0331182)
(-3.70646 -0.124839 1.15416)
(-3.67625 -0.112267 0.842724)
(-3.53254 -0.411821 0.842345)
(-3.46 -0.785842 0.629196)
(-3.45121 -0.560454 0.480667)
(-3.29876 -1.05672 0.475535)
(-3.0072 -1.98343 0.503571)
(-2.44851 -2.64142 0.0415371)
(-1.55163 -2.80898 0.116794)
(-4.02853 0.0703514 1.178)
(-3.95888 -0.2133 1.27303)
(-3.92584 -0.266609 1.30709)
(-3.99791 -0.47482 1.22908)
(-4.07245 -0.682791 1.29247)
(-3.87639 -0.865757 1.15656)
(-3.21474 -1.56515 0.656777)
(-3.03223 -1.82746 0.698507)
(-2.44925 -2.49874 0.56461)
(-1.3375 -3.38139 -0.144971)
(-4.67178 0.323286 1.42838)
(-4.62559 -0.0346121 1.4676)
(-4.77895 -0.231979 1.62928)
(-4.70562 -0.600869 1.78133)
(-4.53626 -0.81139 2.03383)
(-4.41569 -1.26754 2.40752)
(-4.15404 -1.44253 2.43911)
(-3.88012 -2.08399 1.67394)
(-3.75524 -2.44666 1.41597)
(-2.22728 -4.01757 -0.498678)
(-0.998299 -3.3565 0.235629)
(-4.71301 0.509732 2.51725)
(-4.70157 -0.115955 2.67191)
(-4.97628 -0.574948 3.0697)
(-4.95593 -0.298418 3.17702)
(-4.05676 -1.44081 3.30518)
(-3.86367 -1.7255 3.08549)
(-3.98315 -1.40404 2.93439)
(-4.31124 -0.597243 2.97573)
(-4.61628 -1.7 2.55508)
(-4.99052 -1.56765 2.19751)
(-3.35765 -3.16439 1.93212)
(-0.266792 -4.20535 -0.489374)
(-3.78562 -0.000218233 1.6751)
(-4.08163 0.696125 2.07536)
(-4.07892 0.352206 2.28638)
(-3.69116 -1.45624 2.52259)
(-2.91532 -2.04684 2.69459)
(-1.91674 -1.94902 1.68257)
(-1.95986 -1.81366 1.35934)
(-1.53045 -2.22383 0.814868)
(-1.90577 -2.26614 1.27435)
(-2.66438 -2.35533 2.02098)
(-3.62413 -2.71515 2.84453)
(-3.23459 -3.76202 2.5187)
(-2.50323 -5.03603 1.16085)
(-2.81246 -0.141774 2.69639)
(-2.96274 -0.272043 2.53002)
(-2.76216 -0.647333 2.8454)
(-2.39633 -1.02892 2.91414)
(-2.16531 -1.44297 2.9716)
(-1.70916 -1.72897 1.96167)
(-1.52804 -0.7533 0.710914)
(-1.45057 -0.858002 0.724705)
(-1.27422 -0.566071 -0.381942)
(-0.670054 -1.22537 -0.378041)
(-1.24146 -2.04395 -0.130945)
(-2.23423 -2.45151 1.26026)
(-2.92687 -2.50868 2.02172)
(-3.29154 -3.53985 1.12028)
(-1.35603 -0.181055 -1.89845)
(-1.53372 -0.243594 -1.67087)
(-1.81171 -0.314987 -1.33414)
(-2.04692 -0.278864 -1.28682)
(-1.89775 -0.0284827 -2.02523)
(-1.96426 -0.215066 -2.48467)
(-2.12877 -0.197627 -2.54294)
(-1.59255 -0.18253 -3.30212)
(-1.47739 -1.03504 -3.28978)
(-1.94847 -0.557946 -2.21688)
(-1.60851 -0.464181 -0.919905)
(-0.465322 -0.6358 -1.70436)
(-0.881043 -2.1589 -1.48046)
(-2.3893 -1.70842 -1.02753)
(-3.59822 -1.18671 -0.402202)
(-0.445074 -0.484669 -2.2823)
(-0.531545 -0.872228 -2.31547)
(-0.938549 0.0417052 -2.33177)
(-1.03162 0.822926 -2.26521)
(-1.17525 0.359958 -2.49246)
(-1.23021 0.129476 -2.599)
(-0.987975 -0.0560811 -2.61275)
(-0.377811 -0.37519 -2.77949)
(-0.773086 -0.46475 -2.93931)
(-1.47008 -1.16302 -2.52342)
(-1.51012 -1.45766 -1.4623)
(-1.20986 -0.992842 -0.875684)
(-0.832084 -0.443476 -1.04147)
(-0.260081 -0.786539 -1.43464)
(-0.580853 -0.298993 -1.75056)
(-1.38623 -0.452036 -0.578105)
(0.255987 -0.633108 -2.23209)
(-0.0404947 -0.646925 -2.23345)
(0.203007 -0.44901 -2.58991)
(0.276556 -0.321607 -2.62492)
(0.169913 -0.523178 -2.79174)
(-0.362713 -0.285081 -3.23434)
(-0.767494 -0.645801 -3.1463)
(-0.841573 -0.0340464 -2.80892)
(-0.719074 -0.422315 -2.52735)
(-0.559061 -0.714558 -2.43516)
(-0.586975 -0.923778 -2.37018)
(-0.645472 -0.711499 -2.324)
(-0.280783 0.0739555 -2.85524)
(0.0366632 0.172196 -3.71333)
(0.496373 0.182946 -3.50094)
(0.550219 -0.416275 -2.66102)
(-0.909631 -0.543602 -0.861477)
(-1.44862 -0.832873 0.0399236)
(-1.74013 -1.0173 0.0538634)
(-1.35324 -1.20642 -0.0191384)
(-2.23512 -0.57308 -0.0312698)
(-2.02965 -0.71273 -0.0212007)
(-1.49423 -1.18791 0.0309964)
(-2.30204 -0.389841 0.0804225)
(-2.14763 -0.922684 -0.0970478)
(-1.68718 -1.40797 0.0803428)
(-1.30427 -1.55475 0.0528021)
(-2.38537 -0.174034 0.373758)
(-2.13727 -0.738369 0.180831)
(-2.06539 -1.13072 0.301794)
(-1.81607 -1.24635 0.119721)
(-1.448 -1.5215 0.0100345)
(-2.55353 -0.569463 0.611588)
(-2.55522 -0.459171 0.447714)
(-2.34339 -0.997591 0.456554)
(-2.19685 -1.2924 0.124661)
(-1.94046 -1.38934 0.199805)
(-1.3354 -1.84654 -0.0635169)
(-2.77751 -0.376958 0.683066)
(-2.81645 -0.481944 0.50492)
(-2.76417 -0.534869 0.440912)
(-2.55674 -1.08441 0.406993)
(-2.37733 -1.56672 0.127417)
(-2.16579 -1.62319 0.134546)