/*--------------------------------*- C++ -*----------------------------------*\
  =========                 |
  \\      /  F ield         | OpenFOAM: The Open Source CFD Toolbox
   \\    /   O peration     | Website:  https://openfoam.org
    \\  /    A nd           | Version:  7
     \\/     M anipulation  |
\*---------------------------------------------------------------------------*/
FoamFile
{
    version     2.0;
    format      ascii;
    class       volScalarField;
    location    "6";
    object      nut;
}
// * * * * * * * * * * * * * * * * * * * * * * * * * * * * * * * * * * * * * //

dimensions      [0 2 -1 0 0 0 0];

internalField   nonuniform List<scalar> 
18720
(
0.000171058
0.00029351
0.000181361
0.000203621
9.95146e-05
0.000588983
0.00027154
0.000239816
0.000263953
0.000132527
0.000259053
0.000313602
0.000143985
0.000521223
0.000716244
0.000563689
0.000562878
0.000224659
0.000313008
0.000334766
0.000411689
0.00013648
0.000265303
0.000135279
0.000118172
0.000104841
0.000743348
0.00074191
0.000636129
0.000811407
0.000631535
0.000540689
0.000562839
0.000457225
0.00036298
0.000459741
0.000365198
0.000381685
0.000427243
9.78014e-05
0.000208734
0.000183541
0.000120869
0.000123336
0.000241607
0.0004583
0.000777527
0.000774172
0.000642382
0.000640019
0.000575171
0.000440449
0.000723168
0.000541424
0.000542157
0.000555762
0.000575027
0.000461021
0.000482791
0.000236416
0.000338696
0.000476653
0.000375793
0.000525932
0.000277964
0.000180486
8.89667e-05
0.000149348
0.00013388
0.000222459
0.000312973
0.000238592
0.000275425
0.000627672
0.000371149
0.000526094
0.000765705
0.000631983
0.000718767
0.000800967
0.000530885
0.000427882
0.000702876
0.000612507
0.000691431
0.000529816
0.000575221
0.000646061
0.000473466
0.00059196
0.000622931
0.00020372
0.00031901
0.000333927
0.000339168
0.000454792
0.000641548
0.00033411
0.000170296
0.000128769
0.000168762
0.000139844
0.000209259
0.000298705
0.000159717
0.000299929
0.000386801
0.000363149
0.000185586
0.000518314
0.000646435
0.000610803
0.000414299
0.000747407
0.000720713
0.000631629
0.000597091
0.000465536
0.000736634
0.000524335
0.00056616
0.00123101
0.000596146
0.000648773
0.000281257
0.000497844
0.000451533
0.000484153
0.000439408
0.000495703
0.000563444
0.000372569
0.00038082
0.000365009
0.000227615
0.000339021
0.000395371
0.000924688
0.000281742
0.000173841
0.000186927
0.000125245
0.000172237
0.000149872
0.000188488
0.000277938
0.000161071
8.71732e-05
0.000620189
0.000516686
0.000394621
0.000418209
0.000219703
0.0003105
0.000324345
0.000342856
0.000472638
0.000634316
0.000569941
0.000768421
0.000464676
0.000451536
0.000702914
0.000725559
0.000681484
0.00111427
0.000721648
0.000623874
0.000481454
0.000138581
0.000791625
0.000640436
0.000634184
0.000473048
0.00098318
0.000586758
0.000572289
0.000792022
0.00047716
0.000514936
0.000479315
0.000285279
0.000268052
0.000463544
0.000348139
0.000253437
0.000352158
0.000354285
0.000463193
0.000258797
0.000281717
0.000100081
0.000162316
0.000144827
0.000189133
0.000166808
0.000163414
0.0002453
0.000157718
8.38112e-05
0.000120922
0.000486391
0.000595529
0.000459591
0.00055496
0.000514174
0.000623586
0.00051787
0.000394118
0.00032716
0.000248266
0.000246281
0.000613807
0.000478633
0.000466311
0.000709588
0.000727715
0.000615071
0.000614826
0.00114816
0.00101556
0.000691669
0.000532739
0.000559471
0.000873287
0.00116123
0.000744529
0.000699616
0.000477136
0.000573738
0.000651115
0.000525494
0.00105075
0.00068272
0.000699534
0.000258812
0.000629148
0.000520848
0.000690637
0.00066445
0.000826333
0.000961784
0.0005554
0.000641799
0.000308579
0.000465466
0.000345189
0.000302413
0.000347602
0.000308325
0.000210213
0.00026597
0.000299747
0.000389191
0.000128893
0.000142463
0.00024892
0.0001774
0.000171615
0.000166241
0.000222938
0.000145722
8.84804e-05
0.000117303
0.000111999
0.00036034
0.000420975
0.000317158
0.000386122
0.000505732
0.000615588
0.000615903
0.000552183
0.000392982
0.000691993
0.00056314
0.000641714
0.000516182
0.000697979
0.000342543
0.00023611
0.000649263
0.000486546
0.000964748
0.000613062
0.000543058
0.000765548
0.000848866
0.000790502
0.00109906
0.00132763
0.00104113
0.000626426
0.000906323
0.000395331
0.000789231
0.000939257
0.0008734
0.000720602
0.000450071
0.000803652
0.00105975
0.00152241
0.00119692
0.00119807
0.00149461
0.000554016
0.000696552
0.000848004
0.0010664
0.000492436
0.000874156
0.00054648
0.000792969
0.00166938
0.000209588
0.000320194
0.000416456
0.000385982
0.00030971
0.000330622
0.000180037
0.000374563
0.000368452
0.000421383
0.000343875
0.000308999
0.000394859
0.000598653
0.00013742
0.00012513
0.000165254
0.000161174
0.000167143
0.000190489
0.000223683
0.000125615
8.66892e-05
0.000106438
0.000226229
0.000200614
0.000338657
0.00024669
0.000325111
0.000309447
0.000481119
0.000408395
0.000387689
0.00035085
0.00058464
0.000414008
0.000496003
0.000563995
0.000658322
0.000785682
0.000611752
0.000532187
0.000478132
0.00055086
0.000531597
0.000555759
0.00028832
0.000444097
0.000504856
0.000372839
0.00037003
0.000805206
0.00153077
0.000545805
0.00076934
0.000638783
0.000841674
0.00148949
0.00116843
0.00108984
0.000266277
0.000498673
0.00079976
0.000953104
0.00115332
0.00141671
0.00153113
0.000901123
0.000932655
0.000794232
0.000692829
0.00104342
0.000692345
0.000701719
0.00131173
0.00184111
0.000957034
0.000475038
0.000566441
0.000358953
0.00109394
0.000964887
0.000571198
0.000733315
0.000587282
0.00097447
0.000422676
0.00036168
0.000518042
0.000623218
0.000500369
0.000269599
0.000259193
0.000173818
0.000310027
0.000531232
0.000443049
0.000379934
0.000268403
0.000401126
0.000563063
0.000216432
0.000187104
0.000126291
0.000129556
0.000136857
0.000173384
0.000201518
0.000210377
0.000115257
0.000102749
9.85589e-05
0.000339324
0.000156581
0.000257342
0.000334569
0.000360458
0.000456313
0.000426681
0.00039721
0.000388844
0.000361696
0.000413516
0.000398341
0.000412831
0.000266111
0.000375388
0.000322146
0.000685071
0.000808653
0.000475519
0.000591549
0.000657469
0.000239696
0.000326495
0.00049188
0.000563877
0.000349408
0.000514877
0.00100971
0.000747638
0.000473214
0.000467807
0.000374053
0.000579702
0.000515568
0.000750884
0.000618849
0.000984105
0.000885132
0.000810199
0.00116345
0.0012341
0.00138883
0.00138543
0.00120083
0.00130084
0.00058595
0.000921202
0.000760735
0.000883916
0.000693592
0.00104299
0.00131353
0.00251631
0.00190894
0.00140865
0.000801764
0.000661583
0.000744433
0.000476215
0.00123735
0.00105589
0.00115717
0.00136669
0.00146988
0.00173599
0.000481183
0.000631194
0.00070194
0.000617074
0.000474809
0.000659401
0.000654025
0.000715159
0.000659172
0.0013551
0.00045127
0.000302706
0.000873421
0.0005705
0.000211334
0.000471198
0.000277163
0.000179892
0.000205901
0.000584364
0.000534472
0.000537328
0.000218186
0.000365221
0.000505128
0.0002788
0.00040821
0.000232148
0.000117275
0.000289394
0.000135182
0.000148732
0.000216167
0.000205014
0.000102255
0.000113201
0.000116163
0.000259942
0.000380389
0.000269468
0.00019312
0.000389946
0.000475438
0.000315804
0.000335728
0.000411019
0.000414731
0.000475197
0.000379734
0.000365462
0.000526227
0.000289654
0.000375307
0.000362428
0.000529904
0.000533004
0.000482343
0.000439134
0.000609911
0.000272966
0.00113212
0.000941395
0.000495806
0.000511164
0.000392052
0.00121016
0.000752887
0.000716909
0.000909397
0.000458691
0.000576278
0.000595736
0.00038687
0.00057338
0.000649016
0.000504671
0.000696687
0.000364375
0.000311502
0.000371022
0.000554791
0.00101283
0.000778746
0.000891819
0.0008568
0.000822161
0.000767907
0.000986438
0.00122925
0.00167349
0.00149636
0.00154152
0.00104932
0.00038741
0.000720035
0.000742055
0.000502532
0.000903069
0.000903494
0.0011994
0.00148506
0.00234554
0.0025336
0.000992546
0.000714076
0.000691282
0.000667342
0.00125604
0.00102236
0.000784928
0.000800367
0.000944047
0.0012973
0.00205045
0.000989452
0.000642668
0.000595574
0.000356241
0.000485029
0.000722555
0.000657639
0.000387646
0.000572391
0.000645213
0.000763491
0.000599127
0.000295876
0.000727168
0.000550244
0.000478532
0.000234179
0.000138945
0.000260624
0.000357867
0.000366793
0.000470146
0.000552057
0.000624939
0.00023627
0.000295176
0.000539772
0.000278639
0.000508619
0.000418841
0.00020261
0.000126067
0.00023121
0.000123771
0.000133997
0.000224663
0.000223402
0.000109869
0.000132296
0.000132325
0.000260597
0.000153592
0.000286678
0.00019491
0.000267814
0.000351658
0.000257161
0.000324257
0.000436099
0.000510523
0.000527566
0.00034955
0.000268801
0.000439285
0.000321806
0.00035867
0.000388133
0.000352829
0.000537182
0.00048139
0.000474603
0.000375475
0.000498587
0.000367958
0.000463932
0.000881678
0.000742567
0.000579431
0.000424418
0.000634043
0.00045164
0.00033914
0.000483403
0.000891694
0.000429685
0.000517373
0.000378411
0.000612307
0.000890731
0.000307901
0.000984014
0.000443443
0.000329317
0.000444534
0.000682224
0.000613811
0.0003603
0.000413775
0.00097271
0.000644245
0.00037547
0.000273663
0.000842523
0.000575607
0.00146356
0.00151394
0.000951668
0.00073833
0.000567121
0.00067195
0.00110253
0.000782124
0.00198214
0.00141425
0.00210786
0.00138074
0.000989048
0.00115034
0.0010122
0.00083605
0.000818699
0.000852948
0.000853381
0.00133128
0.00119883
0.000681494
0.000656262
0.00153981
0.00172254
0.000813536
0.000927258
0.00069952
0.00112668
0.000531604
0.000728043
0.000666627
0.000800838
0.000620528
0.00143821
0.000765058
0.00193873
0.000531871
0.000414131
0.000701393
0.000584434
0.000512591
0.00106313
0.000623389
0.000345142
0.000423582
0.000599732
0.000810293
0.000689081
0.000430613
0.000497632
0.000328762
0.000477293
0.000619411
0.00036677
0.000130789
0.000725555
0.000212768
0.000579792
0.000399864
0.000436482
0.000660634
0.000262439
0.000218694
0.00054743
0.000286798
0.000598218
0.000449386
0.000385085
0.000198926
0.000120293
0.000252513
0.000121427
0.000151099
0.000207973
0.000197874
0.000120236
0.000128635
0.000145953
0.000278889
0.00018841
0.000254334
0.000272672
0.000270249
0.000238855
0.00029646
0.000332459
0.00037447
0.000484458
0.000429112
0.00040158
0.000258165
0.000316269
0.000304538
0.000552213
0.000468235
0.000401923
0.000260343
0.000399644
0.000460915
0.00036019
0.000343572
0.000264159
0.000383461
0.000587972
0.000524309
0.000606462
0.000307426
0.0005515
0.000453843
0.000547581
0.00051116
0.000389426
0.000854969
0.000400504
0.000392534
0.000404956
0.000399671
0.000592671
0.000212721
0.000327365
0.00103318
0.000693977
0.000381334
0.000397491
0.000300082
0.00099017
0.000499947
0.000257325
0.000502493
0.00075462
0.000227307
0.000371857
0.000694336
0.00133891
0.000643702
0.0003962
0.000546635
0.00061546
0.000673878
0.000341224
0.000245758
0.000943267
0.00180557
0.00246047
0.00172945
0.00203749
0.000924232
0.00095155
0.00130399
0.000531897
0.00100749
0.000983596
0.00160889
0.00132357
0.000878215
0.00109557
0.00104356
0.00079135
0.000873756
0.000630594
0.00108584
0.000590991
0.000547105
0.00100625
0.00118866
0.000972101
0.00072269
0.000393895
0.000842126
0.00125224
0.000904747
0.00055474
0.000513435
0.000471368
0.00151997
0.00145793
0.00114207
0.000522274
0.000552731
0.000529501
0.000918747
0.000462538
0.00166374
0.000474432
0.000175374
0.000796438
0.000533444
0.00059008
0.000376527
0.000425528
0.000485238
0.000517535
0.000406888
0.000298262
0.000820235
0.00117783
0.000616722
0.000462966
0.000275938
0.000423723
0.000597373
0.000819241
0.000398781
0.000299706
0.000703564
0.000330437
0.000329865
0.000422472
0.000436096
0.000707388
0.000216963
0.000173909
0.000466674
0.000379098
0.000508569
0.000560692
0.00043103
0.000460118
0.000217914
0.000134343
0.000172871
0.000103845
0.000153085
0.000181271
0.000221532
0.000119531
8.39845e-05
0.000154078
0.00026334
0.000285753
0.000327607
0.000185057
0.000289842
0.000220198
0.000262375
0.000274813
0.000404955
0.000245486
0.000353471
0.000271784
0.00047897
0.000258437
0.000432167
0.000402314
0.000515088
0.000439546
0.000328752
0.000311833
0.000424676
0.00042499
0.000389582
0.00031331
0.000430743
0.000344962
0.000408437
0.000394606
0.000549302
0.000479325
0.000296707
0.000441224
0.00035063
0.000449054
0.000612412
0.000526292
0.000472703
0.000333898
0.000656131
0.00043639
0.000608661
0.000699243
0.000432722
0.000673551
0.000498334
0.000413611
0.000325292
0.000385521
0.000765374
0.000473583
0.000405424
0.000212482
0.000684236
0.000585557
0.000659272
0.000657395
0.000368897
0.000292796
0.000458447
0.0004595
0.000760841
0.000404234
0.00055207
0.000829487
0.000340918
0.000220823
0.000802069
0.00113569
0.00078359
0.000664339
0.000696627
0.00157075
0.000580352
0.000252172
0.000410221
0.000417477
0.000856713
0.00114372
0.00153507
0.00110393
0.000916569
0.00105792
0.00149633
0.0005029
0.00064236
0.000976774
0.000814802
0.00105871
0.00174689
0.00184957
0.000951144
0.00130993
0.000741171
0.000529068
0.000766999
0.000784609
0.000455556
0.00076343
0.000602002
0.00102084
0.00147449
0.00127051
0.000839014
0.000408323
0.000604543
0.00100427
0.00155544
0.000378855
0.00107803
0.000532315
0.000478621
0.00124981
0.00108259
0.00119287
0.000489051
0.000420459
0.000882377
0.00106018
0.000456633
0.000370806
0.00167455
0.000143286
0.000704029
0.000672224
0.00121366
0.000944643
0.000469285
0.000399399
0.000350966
0.000404478
0.000318135
0.000405225
0.000495596
0.00180666
0.000654987
0.000402126
0.000340172
0.000484732
0.00041726
0.000187714
0.000265402
0.000437229
0.000209602
0.000349845
0.000249697
0.000235735
0.000410301
0.000394805
0.000693677
0.000443506
0.000147998
0.000415736
0.00040675
0.000429226
0.000616142
0.000352995
0.000461729
0.000461801
0.000234543
0.000127807
0.000165809
0.000115258
0.000137316
0.000194671
0.000161687
0.000123481
7.1687e-05
0.000152274
0.000237811
0.000126478
0.000323089
0.000232611
0.00029595
0.000259656
0.00029664
0.000291479
0.000295839
0.000278482
0.000271425
0.000347403
0.000213952
0.000405884
0.000411357
0.000261225
0.000319039
0.000379326
0.000377826
0.000310112
0.000341576
0.000382579
0.000479416
0.000399783
0.000363021
0.00036382
0.000306838
0.000345553
0.000440556
0.000438519
0.000285313
0.00042535
0.000340345
0.000382159
0.00040051
0.000458202
0.000433722
0.00046712
0.000315478
0.00037829
0.000395197
0.000536972
0.000404664
0.000384346
0.000561145
0.000537409
0.000348473
0.00033864
0.000328115
0.000441882
0.000464018
0.0004991
0.000867112
0.000395963
0.000807558
0.000416671
0.000391568
0.000388338
0.000513205
0.000520926
0.000522852
0.000590575
0.000889335
0.000369408
0.000813693
0.00067787
0.000650139
0.00145847
0.000819046
0.000828705
0.000411885
0.000370174
0.000880929
0.000561775
0.000306159
0.000712551
0.000446098
0.000598283
0.00205672
0.000613474
0.000440594
0.000661903
0.000453478
0.00100023
0.000958084
0.000466515
0.000464831
0.000391919
0.000538502
0.000894198
0.0020281
0.000408845
0.00136877
0.000893338
0.000803105
0.00139079
0.000862382
0.000714657
0.000681276
0.00103799
0.000841906
0.00116966
0.00146685
0.00130064
0.00107034
0.00106365
0.00100946
0.000694801
0.000952052
0.00113608
0.000742409
0.000963907
0.000723574
0.000708601
0.00103565
0.00105876
0.00132097
0.000829746
0.0007761
0.00142462
0.0008089
0.00111356
0.000701939
0.00140608
0.000672429
0.00123098
0.00094747
0.000920585
0.00101359
0.000733743
0.000569823
0.000434331
0.000644033
0.000416641
0.000346329
0.000315514
0.00201677
0.000615116
0.0010355
0.000794909
0.00104111
0.000588918
0.000277573
0.000233446
0.000588527
0.000592124
0.000496811
0.000259021
0.000600097
0.000482737
0.00070157
0.000850878
0.000680232
0.0003019
0.000402467
0.000420079
0.000537956
0.000199745
0.000580399
0.0004755
0.000184468
0.00037787
0.000279932
0.000224685
0.00030755
0.000205297
0.000628865
0.000579634
0.000299892
0.000362221
0.000349917
0.000449732
0.000678692
0.000412854
0.000478147
0.000576889
0.000364354
0.000315973
0.000141085
0.000164744
0.000105085
0.000158787
0.000195968
0.000223273
0.000128708
8.56228e-05
0.000145609
0.000203401
9.13939e-05
0.000229961
0.000478408
0.000276151
0.000260388
0.000318893
0.000295053
0.000629757
0.000397767
0.000173188
0.000317467
0.000278069
0.000299742
0.000389638
0.000301606
0.00023778
0.000275554
0.000503649
0.000394083
0.000312
0.000249154
0.000289711
0.000407058
0.000357197
0.000324414
0.000239349
0.000320777
0.000323544
0.000375695
0.00046705
0.000149454
0.000464204
0.000331223
0.000241042
0.000383429
0.000443181
0.000669294
0.000426788
0.000328817
0.000402451
0.000311021
0.000471844
0.000392512
0.00039632
0.000334242
0.000354538
0.000404539
0.000263244
0.000408564
0.000295488
0.000449774
0.000466646
0.000559247
0.000341014
0.000521356
0.000417666
0.000306361
0.000449693
0.000486639
0.000440299
0.000531963
0.000659284
0.000607968
0.000489591
0.000424913
0.000560317
0.000739151
0.000766648
0.000447038
0.000661581
0.000728788
0.000516477
0.000514526
0.00106644
0.0004555
0.000544582
0.00077522
0.000383395
0.000247743
0.0006915
0.000783275
0.000928406
0.00051503
0.000428939
0.000977022
0.000576946
0.000515659
0.000513755
0.000555385
0.000508857
0.000344483
0.000774691
0.000808955
0.000756286
0.000331537
0.00105306
0.000718618
0.000777332
0.000472217
0.000446248
0.000283
0.000445689
0.000546296
0.000846332
0.0011494
0.00114106
0.0010125
0.000706547
0.00139858
0.000694496
0.00102309
0.000596277
0.000679161
0.000962152
0.000958885
0.00140761
0.00163791
0.00151665
0.00102997
0.000897358
0.00110338
0.000794155
0.000964161
0.000876054
0.000728803
0.000880437
0.000657666
0.00112324
0.000720938
0.00112884
0.0015083
0.00181666
0.000881289
0.00081167
0.00130693
0.000725136
0.000747739
0.00112418
0.000591129
0.000413481
0.00117396
0.00144835
0.000849545
0.000818082
0.000808634
0.00105592
0.000744587
0.000733717
0.000494271
0.000698091
0.000700701
0.000285537
0.000669093
0.00171717
0.00150596
0.00113603
0.00124868
0.000902313
0.000772461
0.000559718
0.000215515
0.00051769
0.000462467
0.000418292
0.000480785
0.000655017
0.000742367
0.000460916
0.000940807
0.000749737
0.000728182
0.000725799
0.000531341
0.000297879
0.000439637
0.000680086
0.000460189
0.000435252
0.00022044
0.000343082
0.000232293
0.00023039
0.000264942
0.000146698
0.000570953
0.000602794
0.000495983
0.000378034
0.000292894
0.000400385
0.000563489
0.000437911
0.000552613
0.000574049
0.00040335
0.000517613
0.000679096
0.000139418
0.000129911
9.57947e-05
0.000150458
0.000208929
0.000165195
0.000135815
0.000100414
0.000130908
0.000174097
0.000174524
0.00026852
0.000388436
0.00028245
0.00025955
0.000340826
0.000273421
0.000607326
0.000171261
0.000299528
0.000244121
0.000267389
0.000333257
0.000259217
0.000260958
0.000324015
0.000298739
0.000225925
0.000446491
0.000305048
0.000193977
0.000298988
0.000290984
0.000459704
0.000437398
0.000370608
0.000265058
0.000308002
0.000281639
0.000514422
0.000365174
0.000312994
0.000506063
0.000346968
0.000391422
0.000369046
0.000412454
0.000345438
0.000263581
0.000213122
0.000239975
0.00024918
0.000383457
0.000233079
0.000468315
0.000554271
0.000474666
0.000291499
0.000230313
0.000305487
0.000404035
0.000373726
0.000378673
0.000482888
0.000384319
0.000379501
0.000338684
0.000339555
0.00039091
0.000409083
0.000417431
0.000458876
0.000558297
0.000696985
0.000328866
0.00035748
0.000497716
0.000532572
0.000448387
0.00045151
0.000360802
0.000372115
0.000423406
0.000577731
0.000962516
0.000524343
0.000423768
0.000471958
0.000449407
0.000530568
0.000647713
0.000607304
0.000641511
0.00043401
0.000539339
0.00103002
0.000414815
0.000720749
0.000329342
0.000545917
0.0004747
0.000519216
0.000355044
0.000617767
0.000709222
0.000661936
0.000302119
0.000440961
0.000577355
0.000562838
0.000662354
0.000450227
0.000512167
0.000396662
0.000518002
0.00048148
0.000588094
0.000567573
0.000356174
0.000762057
0.000545934
0.000698436
0.000508301
0.000492894
0.000303162
0.000278688
0.00057617
0.000673753
0.000677651
0.000749171
0.00119938
0.00118809
0.000886936
0.00147139
0.0010368
0.00114694
0.000785906
0.000729649
0.000540398
0.000961931
0.000693191
0.00110389
0.00144728
0.0013879
0.0015252
0.0012157
0.00098646
0.000931651
0.00114242
0.000727195
0.000510217
0.000930572
0.0013376
0.00130629
0.00116821
0.000650619
0.000892085
0.00168024
0.0018063
0.00117942
0.00107056
0.000388889
0.000900722
0.000846707
0.000883218
0.000437709
0.000168729
0.000714422
0.00162132
0.000493457
0.000518091
0.000856545
0.000696803
0.00100975
0.000844616
0.00100569
0.000639003
0.00082389
0.000331535
0.000486387
0.000535659
0.00145629
0.000966055
0.000943894
0.000965356
0.00114936
0.000887889
0.000723129
0.000427402
0.000554456
0.000590906
0.000488756
0.000550486
0.000504138
0.000700077
0.000521658
0.000490318
0.000674359
0.00123439
0.00103055
0.00103309
0.000715609
0.000262662
0.000600662
0.000381731
0.00051236
0.000389562
0.00040138
0.000198756
0.000288615
0.000104295
0.000213496
0.000278681
0.000209326
0.000588211
0.000571151
0.00057813
0.000430284
0.000230395
0.000340801
0.000540973
0.000407022
0.000499007
0.000642541
0.000426528
0.00041281
0.00024755
0.000186933
0.000102451
0.000115924
8.22057e-05
0.000111193
0.000216336
0.000147482
0.0001473
0.000110757
0.000125724
0.000160243
8.90774e-05
0.000274738
0.000366959
0.000273028
0.000274303
0.000349598
0.000261214
0.000529944
0.00020026
0.000169062
0.000335831
0.000252171
0.000458345
0.000268607
0.000245196
0.000336227
0.000335454
0.000305786
0.000261789
0.000404485
0.000316098
0.000364772
0.000407735
0.000288622
0.000245795
0.000394325
0.000274906
0.000368119
0.000430365
0.000365824
0.000522445
0.00041528
0.000292573
0.000281964
0.000269124
0.000304288
0.000457717
0.000384814
0.000520925
0.00030709
0.000323721
0.000398612
0.000240267
0.000398103
0.000429453
0.000356559
0.000362094
0.000437771
0.000341377
0.000289935
0.00014492
0.000456134
0.000362229
0.000284412
0.000337553
0.000493466
0.000471582
0.000362107
0.000203191
0.000395672
0.000249453
0.000542402
0.000427126
0.000363937
0.00057123
0.000356755
0.000318469
0.00036394
0.000392724
0.000439816
0.000317847
0.000300813
0.00047364
0.000208649
0.000233783
0.000303685
0.000542624
0.000334511
0.000465314
0.000587112
0.00085902
0.000598251
0.000454582
0.000431386
0.000363397
0.000418253
0.000759167
0.000868163
0.000530333
0.000578238
0.000381784
0.000460137
0.000299631
0.000538429
0.000491111
0.000571499
0.000483388
0.00066232
0.000631383
0.000371696
0.000960066
0.000490902
0.000319967
0.000596552
0.000402417
0.000319628
0.00054603
0.000407354
0.000711919
0.000567167
0.000401277
0.000547407
0.000475997
0.000731287
0.000497252
0.000562141
0.000348191
0.000414849
0.000398489
0.000161532
0.000449301
0.00067761
0.000504617
0.000434953
0.00067125
0.000718204
0.000575726
0.000817266
0.000715426
0.000856845
0.000289263
0.000645263
0.000744761
0.0005307
0.00052071
0.000928171
0.00101741
0.00123887
0.000617904
0.00105096
0.00100475
0.000820094
0.000754595
0.000963487
0.000988561
0.000337294
0.00101056
0.000778458
0.000811389
0.00101443
0.00149938
0.0013423
0.0013836
0.000973399
0.00131697
0.00124392
0.000930657
0.000800074
0.00103684
0.00124917
0.00112037
0.000400558
0.00153794
0.000816928
0.000893903
0.00121441
0.00133858
0.00112377
0.00112625
0.000816845
0.000487331
0.00120502
0.00119922
0.000933968
0.000848637
0.00107304
0.00116416
0.000472079
0.00126882
0.000602216
0.00119656
0.000637167
0.000787299
0.000998066
0.000979648
0.000612616
0.00106781
0.00115006
0.000447299
0.000537395
0.000258373
0.000368997
0.000903495
0.00114921
0.000730213
0.000692626
0.000781286
0.000420119
0.000410232
0.000534891
0.000597648
0.000513029
0.000306666
0.000387609
0.000770412
0.000368934
0.000405657
0.000190135
0.0015836
0.000826347
0.00113919
0.000702571
0.000429208
0.000537358
0.00054154
0.000457785
0.000477138
0.000493437
0.000199624
0.000123279
0.000295846
0.000219833
0.000180177
0.000282339
0.000324264
0.000596477
0.000544971
0.000475216
0.000634881
0.000205613
0.000283831
0.000512494
0.000458062
0.000538548
0.00063895
0.00046247
0.000336889
0.000193376
0.00027288
0.00017495
9.32376e-05
0.000130644
9.923e-05
9.59072e-05
0.000175677
0.000191767
0.000161159
0.000121701
0.000133336
0.000229974
7.60633e-05
0.000180475
0.000336374
0.000286205
0.000276613
0.000354341
0.000232415
0.000448067
0.000282991
0.000188738
9.19606e-05
0.00061001
0.000392665
0.000540504
0.000355287
0.00034612
0.000241344
0.000487587
0.000414418
0.000317566
0.0003063
0.00032864
0.00027141
0.000384382
0.000318373
0.000561846
0.000438611
0.000321069
0.000418668
0.000520382
0.000400088
0.000371808
0.000369948
0.00041785
0.000446158
0.000482058
0.00040642
0.00026674
0.000287305
0.000425814
0.000393838
0.000407589
0.000149012
0.000241877
0.000292074
0.0004628
0.000295049
0.000443642
0.000458118
0.000174894
0.000227191
0.000218033
0.000384602
0.000301481
0.000338399
0.0003507
0.000449411
0.000296293
0.000296075
0.000263428
0.000309482
0.000414387
0.000360416
0.000329855
0.000324969
0.000181777
0.000478993
0.000365347
0.000503857
0.000438534
0.000380588
0.000215914
0.000280142
0.000329706
0.000365618
0.000496482
0.000445846
0.000461856
0.000417937
0.000356556
0.000388164
0.00042992
0.000333074
0.000329843
0.000358896
0.000353051
0.000308225
0.000527732
0.000883083
0.00043824
0.000573304
0.000429761
0.00050084
0.000369828
0.000451685
0.000267258
0.00040321
0.000410879
0.000555171
0.000478175
0.000549906
0.000444982
0.00051037
0.000605121
0.0004493
0.000286481
0.000411939
0.000379014
0.000755806
0.000632035
0.000546603
0.000465017
0.000472158
0.000564382
0.000546913
0.000818897
0.000354038
0.000734303
0.000480132
0.000381306
0.000318385
0.000511737
0.000321088
0.000670607
0.000640178
0.000370162
0.00060704
0.000584129
0.000398466
0.000754833
0.000559125
0.000635104
0.000551274
0.000503915
0.000286339
0.000275033
0.00029676
0.0008126
0.000801437
0.000485664
0.000583244
0.00102288
0.000547196
0.000781673
0.000962777
0.000509313
0.000412858
0.000475172
0.00046177
0.000412085
0.000523551
0.000578481
0.000888011
0.0010782
0.00124945
0.000861961
0.000782448
0.00142007
0.000801891
0.00101744
0.00103113
0.000719011
0.000897222
0.000846085
0.000845116
0.000605051
0.000777394
0.000551874
0.00117029
0.00131334
0.00115383
0.000960402
0.00103182
0.00118622
0.000833722
0.000429766
0.000924879
0.000919168
0.0016467
0.00107396
0.000876426
0.000755674
0.000817468
0.00118315
0.00095169
0.0012028
0.00130395
0.0014647
0.00106842
0.000668035
0.000938441
0.0011912
0.00115744
0.000937708
0.00139656
0.000845997
0.000848904
0.00113473
0.00050087
0.000271564
0.000971015
0.0009471
0.000786064
0.000615014
0.00103028
0.000562441
0.00150326
0.00119946
0.000587704
0.000287093
0.000640941
0.000836904
0.00138351
0.0012483
0.000650978
0.000816501
0.0006443
0.000551
0.000341892
0.000452232
0.000267404
0.000410893
0.000255253
0.000362722
0.000513745
0.000798779
0.00062244
0.00048863
0.000390339
0.00100142
0.00120437
0.00101535
0.000662794
0.000537746
0.000614993
0.000723589
0.000532928
0.000463293
0.000391535
0.000427744
0.000195341
0.000102546
0.000321136
7.4207e-05
0.00027916
0.000303478
0.000316142
0.000561851
0.00052545
0.00052595
0.000619589
0.000347206
0.000240279
0.000471913
0.0004176
0.000564549
0.000666986
0.000467467
0.000504331
0.000238654
0.000299583
0.000622736
8.60323e-05
0.000101583
0.00013231
9.3409e-05
0.000108836
0.000185316
0.00013825
0.000171649
0.000132322
0.000157212
0.000429252
0.000136036
0.000188701
0.000321358
0.000332062
0.000296241
0.000311838
0.0002177
0.000374596
0.000239179
0.000184721
0.000129788
6.60174e-05
0.00117721
0.000680213
0.0010134
0.000724092
0.000480731
0.000509435
0.000412573
0.000669968
0.000363391
0.000346221
0.000427167
0.000432767
0.000453494
0.000270764
0.000449662
0.000301858
0.000330942
0.000285354
0.000323322
0.000416048
0.000490818
0.000566858
0.000480447
0.000481381
0.000429864
0.00049056
0.000434848
0.000363628
0.000460896
0.000447151
0.000413365
0.000531998
0.000377332
0.00036179
0.00022031
0.000231751
0.000321501
0.000407849
0.000356655
0.000322147
0.000183735
0.000227551
0.000260006
0.000382622
0.000355016
0.000238054
0.000428663
0.000315889
0.000337681
0.000226517
0.00032293
0.000387125
0.000327478
0.000300242
0.000504551
0.000372322
0.000324579
0.000276569
0.000408912
0.000388447
0.000371732
0.000379043
0.000371451
0.000508794
0.000454872
0.000194752
0.000359127
0.000460438
0.000468043
0.000385306
0.000415945
0.000188442
0.000296805
0.000324489
0.000332214
0.000297004
0.000264877
0.000280405
0.000564101
0.000467179
0.000377387
0.000415263
0.00052246
0.000484037
0.00026401
0.000231439
0.000256166
0.000543136
0.000325647
0.000397914
0.000817072
0.000586941
0.0006584
0.00041241
0.000397392
0.000395208
0.000449142
0.000382315
0.000599404
0.000383488
0.000390201
0.000542694
0.000430348
0.000586061
0.00118107
0.000653612
0.000756072
0.000665064
0.000460256
0.000212562
0.00033054
0.00047796
0.000835697
0.000708555
0.000460828
0.000454921
0.000567808
0.00071432
0.000483436
0.00035934
0.000856468
0.000649919
0.000645748
0.000436898
0.000286514
0.000206412
0.000589021
0.000670962
0.00062545
0.000538146
0.000557138
0.000731737
0.000556735
0.000767142
0.000927887
0.00109228
0.000580574
0.000445578
0.000542686
0.000470048
0.00033573
0.000313735
0.00072406
0.000999904
0.00074499
0.000438106
0.000672563
0.000494271
0.000949214
0.00105359
0.000765354
0.00095944
0.0005185
0.000555291
0.000511336
0.000309086
0.000677326
0.00054274
0.000700131
0.00106173
0.00112476
0.00111988
0.00094008
0.00146998
0.00101044
0.00135938
0.000972892
0.00182057
0.000531274
0.000723862
0.00108413
0.000922993
0.000703316
0.000743063
0.000499068
0.000908719
0.00142664
0.00129166
0.00137648
0.000975663
0.00124342
0.00130092
0.000636002
0.00128075
0.00113245
0.00146394
0.00132368
0.00119369
0.000625868
0.0011092
0.000878011
0.000988216
0.00102162
0.000878072
0.00102399
0.00157243
0.00141053
0.000977569
0.000778998
0.00103059
0.00111458
0.00041208
0.000680401
0.00144297
0.000904451
0.0012426
0.000697506
0.000380629
0.000361021
0.00068029
0.000500591
0.000718063
0.00113916
0.000864544
0.000674383
0.00123938
0.00181019
0.00101362
0.000321879
0.000504104
0.00085134
0.00114467
0.00103585
0.000747773
0.000563472
0.000659751
0.000563561
0.000330222
0.000557611
0.000457297
0.000265029
0.0004799
0.000274724
0.000507025
0.000425942
0.00075532
0.00088676
0.000588208