/*--------------------------------*- C++ -*----------------------------------*\
  =========                 |
  \\      /  F ield         | OpenFOAM: The Open Source CFD Toolbox
   \\    /   O peration     | Website:  https://openfoam.org
    \\  /    A nd           | Version:  7
     \\/     M anipulation  |
\*---------------------------------------------------------------------------*/
FoamFile
{
    version     2.0;
    format      ascii;
    class       volScalarField;
    location    "6";
    object      p;
}
// * * * * * * * * * * * * * * * * * * * * * * * * * * * * * * * * * * * * * //

dimensions      [0 2 -2 0 0 0 0];

internalField   nonuniform List<scalar> 
18720
(
-79.7628
-79.4701
-79.7439
-79.7821
-80.1889
-78.4291
-79.4263
-79.4899
-79.2811
-80.1658
-79.7963
-80.2059
-80.3476
-77.4948
-78.3375
-78.5177
-77.9656
-79.3027
-79.5098
-79.2758
-79.7186
-80.3458
-79.8189
-80.2133
-80.3554
-80.5682
-76.6799
-77.3756
-77.594
-77.1117
-77.9611
-78.6285
-77.9904
-78.3161
-79.7178
-79.5331
-79.2684
-79.711
-80.0053
-80.5567
-79.8512
-80.2249
-80.3664
-80.5878
-81.0834
-75.7811
-76.6204
-76.7319
-76.3405
-77.0673
-77.7326
-77.2054
-76.9588
-78.3527
-78.7471
-78.0434
-78.2836
-78.86
-79.9998
-79.5934
-79.2789
-79.7344
-80.0209
-81.0567
-81.0729
-79.8839
-80.2363
-80.3835
-80.6067
-81.0957
-81.4557
-74.6819
-75.735
-75.8409
-75.3943
-76.3412
-76.8237
-76.3842
-76.2145
-76.9455
-77.8838
-77.2686
-76.9901
-77.5191
-78.9383
-78.8544
-78.1242
-78.287
-78.8013
-79.5899
-81.0112
-79.6403
-79.3053
-79.7645
-80.046
-81.1102
-81.8214
-81.4673
-79.916
-80.2507
-80.4033
-80.6202
-81.108
-81.4421
-80.8398
-73.7578
-74.6002
-74.7572
-74.4173
-75.3533
-75.924
-75.3667
-75.0561
-76.1791
-76.9378
-76.3633
-76.1624
-76.4293
-77.6149
-78.0444
-77.4598
-77.0563
-77.4242
-78.1466
-79.6477
-78.9582
-78.1947
-78.3106
-78.7547
-79.5675
-80.3168
-81.7129
-79.7009
-79.3416
-79.7921
-80.0778
-81.1804
-81.9544
-81.5631
-80.846
-79.9496
-80.2687
-80.4249
-80.6371
-81.1195
-81.4226
-80.8307
-80.4904
-72.807
-73.6833
-73.8161
-73.4965
-74.3674
-74.9103
-74.5392
-74.2368
-75.2735
-76.0136
-75.2854
-74.7702
-75.1428
-76.5133
-77.0826
-76.3987
-76.1185
-76.3156
-77.024
-78.2507
-78.2216
-77.6523
-77.4734
-77.3639
-78.0389
-78.6966
-80.202
-79.1106
-78.2676
-78.249
-78.6917
-79.5536
-80.359
-81.3704
-81.5126
-79.7575
-79.3941
-79.8302
-80.1161
-81.2544
-82.0927
-81.611
-81.2556
-80.497
-79.9843
-80.2797
-80.4477
-80.6599
-81.1319
-81.4016
-80.8261
-80.4816
-80.2899
-72.1111
-72.6294
-72.953
-72.6566
-73.4468
-73.9483
-73.5304
-73.341
-74.3338
-75.0612
-74.6584
-74.3287
-74.1922
-75.1398
-76.188
-75.281
-74.7271
-75.0565
-75.3974
-77.1974
-77.264
-76.4952
-76.1709
-76.3064
-76.9802
-77.6958
-78.777
-78.3825
-77.524
-77.3382
-77.2845
-77.9009
-78.6042
-79.113
-81.3046
-79.2601
-78.3683
-78.2625
-78.662
-79.4691
-80.4027
-81.4607
-81.3047
-81.2343
-79.8191
-79.4486
-79.872
-80.1599
-81.3078
-82.206
-81.6197
-81.2631
-80.786
-80.3051
-80.0188
-80.2889
-80.474
-80.6877
-81.1446
-81.3797
-80.8161
-80.4712
-80.2725
-79.9983
-71.5567
-72.0791
-72.2106
-72.0094
-72.6167
-73.049
-72.7287
-72.576
-73.4345
-74.0373
-73.5731
-73.4207
-73.3401
-74.2363
-75.2959
-74.7435
-74.3577
-74.205
-74.2046
-75.3747
-76.5235
-75.4959
-74.7681
-74.8896
-75.2702
-76.1477
-77.7928
-77.4097
-76.5684
-76.2878
-76.1479
-76.9718
-77.6027
-78.0431
-79.1613
-78.5467
-77.6944
-77.1066
-77.1825
-77.7685
-78.5129
-79.0658
-79.4747
-81.1727
-79.3866
-78.462
-78.3422
-78.6576
-79.4182
-80.4597
-81.5085
-81.4004
-80.9757
-80.7984
-79.8935
-79.5109
-79.9097
-80.2029
-81.357
-82.2355
-81.6041
-81.2765
-80.7678
-80.1519
-80.0143
-80.0519
-80.3058
-80.503
-80.719
-81.1561
-81.3611
-80.8044
-80.4593
-80.2519
-79.9854
-79.5387
-71.1366
-71.5379
-71.6737
-71.4549
-72.0192
-72.2417
-72.0301
-72.0123
-72.5355
-73.1282
-72.7375
-72.5813
-72.4905
-73.3067
-74.2641
-73.6632
-73.4918
-73.1688
-73.3565
-74.5796
-75.5146
-74.9071
-74.4008
-74.0599
-74.4661
-74.7295
-76.195
-76.6401
-75.4521
-74.8865
-74.7731
-74.8641
-76.098
-76.6871
-78.0718
-77.6467
-76.7071
-76.1984
-75.9862
-76.6958
-77.552
-78.0512
-78.0278
-79.354
-78.7821
-78.2623
-77.1979
-77.1736
-77.7257
-78.4153
-79.0708
-79.674
-79.8275
-80.8246
-79.5275
-78.5668
-78.363
-78.665
-79.3467
-80.4262
-81.5835
-81.5226
-81.1316
-80.278
-80.1545
-79.9706
-79.5738
-79.9505
-80.2495
-81.3965
-82.274
-81.5868
-81.2862
-80.7509
-80.1667
-79.7813
-79.5539
-80.0831
-80.3209
-80.5319
-80.7524
-81.1631
-81.3483
-80.7909
-80.4443
-80.2286
-79.9676
-79.5196
-78.8328
-70.7517
-71.1036
-71.1753
-71.1144
-71.361
-71.7467
-71.5326
-71.4592
-71.964
-72.4345
-72.1049
-71.9826
-71.8935
-72.4673
-73.187
-72.8063
-72.632
-72.4457
-72.7267
-73.5125
-74.4617
-73.7007
-73.3939
-73.1719
-73.306
-73.5674
-74.824
-75.7292
-75.0147
-74.3951
-74.0666
-74.2425
-74.7766
-74.784
-76.8679
-76.9126
-75.4978
-74.9075
-74.71
-74.6869
-75.7718
-76.5401
-77.0061
-77.9726
-77.8709
-76.8982
-76.2746
-76.0015
-76.5741
-77.3168
-77.9296
-77.9888
-78.0294
-79.6246
-78.9568
-78.2261
-77.2166
-77.1687
-77.8466
-78.3532
-79.1376
-79.9334
-79.9937
-79.7707
-80.087
-79.6701
-78.714
-78.4045
-78.7121
-79.2818
-80.3034
-81.5487
-81.6416
-81.2797
-80.4557
-80.127
-79.7447
-80.044
-79.6342
-80.0027
-80.2945
-81.4083
-82.313
-81.5062
-81.281
-80.7355
-80.1805
-79.8171
-79.1838
-78.8332
-80.113
-80.3346
-80.5601
-80.7834
-81.162
-81.3367
-80.7791
-80.4258
-80.2015
-79.9456
-79.5024
-78.8314
-78.1458
-70.4266
-70.6594
-70.7497
-70.7543
-71.0743
-71.2469
-71.1375
-70.9957
-71.459
-71.8639
-71.6695
-71.5156
-71.4155
-71.893
-72.4394
-72.1511
-71.9928
-71.9136
-71.9527
-72.4751
-73.493
-72.831
-72.607
-72.4654
-72.1309
-72.6926
-73.654
-74.6451
-73.875
-73.4457
-73.2618
-73.3904
-73.5281
-73.8512
-74.8359
-76.0564
-75.0657
-74.499
-74.0941
-74.2261
-74.3773
-74.9297
-75.1778
-76.9777
-77.2355
-75.6959
-74.8881
-74.4146
-74.5069
-75.2114
-76.5345
-76.7809
-76.9739
-77.9431
-78.14
-77.2329
-76.3245
-75.9879
-76.5008
-77.2413
-77.9388
-78.0041
-77.9991
-78.1867
-79.5559
-79.1771
-78.2137
-77.316
-77.3158
-77.8686
-78.3705
-79.0876
-79.9519
-80.2656
-79.9982
-79.9424
-79.9508
-79.7593
-78.877
-78.4634
-78.732
-79.1976
-80.1846
-81.4415
-81.7059
-81.4373
-80.6436
-80.3048
-80.4665
-79.176
-80.1053
-79.7249
-80.0523
-80.3345
-81.3967
-82.3213
-81.4039
-81.2718
-80.726
-80.1596
-79.8296
-79.1824
-78.6789
-78.1343
-80.1439
-80.355
-80.5885
-80.8096
-81.1602
-81.3217
-80.7626
-80.4043
-80.1713
-79.9223
-79.4835
-78.8246
-78.1552
-77.5847
-70.1809
-70.3556
-70.4545
-70.3434
-70.7155
-70.7572
-70.7332
-70.663
-70.9956
-71.2749
-71.1735
-71.0289
-70.9667
-71.4041
-71.99
-71.6933
-71.5291
-71.4511
-71.4262
-71.897
-72.5482
-72.2794
-72.0887
-71.9873
-71.9107
-72.0218
-72.6668
-73.6084
-72.9989
-72.6963
-72.5052
-72.4973
-72.5449
-72.6982
-74.0159
-74.9717
-73.9695
-73.6038
-73.3305
-73.2698
-73.5654
-73.9163
-73.8558
-74.9532
-76.4282
-75.2987
-74.572
-73.9402
-74.164
-74.2078
-74.7062
-75.0085
-75.4349
-77.0888
-77.475
-75.8844
-74.8501
-74.2502
-74.439
-75.0496
-76.3204
-76.4882
-77.0242
-76.6777
-78.1347
-78.4627
-77.5487
-76.4871
-75.9811
-76.3406
-77.0449
-77.6736
-77.9417
-78.2023
-78.2445
-78.1168
-79.7672
-79.3673
-78.3477
-77.3766
-77.3681
-77.8695
-78.3338
-79.0265
-79.8932
-80.5293
-80.3278
-80.2148
-81.1052
-80.2658
-79.8697
-79.041
-78.4446
-78.7882
-79.1411
-80.0892
-81.1988
-81.7515
-81.4602
-80.7711
-80.4902
-80.6636
-80.6559
-78.6316
-80.1678
-79.8212
-80.0871
-80.3823
-81.3703
-82.2972
-81.3021
-81.2693
-80.6823
-80.1252
-79.8214
-79.1983
-78.7264
-77.9799
-77.5782
-80.1768
-80.3757
-80.6138
-80.8289
-81.1627
-81.3047
-80.7393
-80.3797
-80.1398
-79.9008
-79.4622
-78.8159
-78.1678
-77.5892
-76.7662
-70.034
-70.1586
-70.2208
-70.1954
-70.2957
-70.5071
-70.43
-70.3544
-70.6294
-70.8452
-70.7165
-70.7132
-70.6653
-71.0341
-71.3516
-71.2195
-71.0724
-70.9855
-70.9681
-71.3543
-71.9699
-71.7012
-71.5413
-71.4837
-71.3698
-71.3665
-71.972
-72.7373
-72.3538
-72.1282
-72.0066
-71.8704
-71.9335
-71.9806
-72.7483
-73.7961
-73.1997
-72.8095
-72.587
-72.4267
-72.5205
-72.773
-72.8325
-73.8835
-75.2546
-74.2242
-73.7056
-73.3191
-73.2456
-73.5576
-73.7501
-73.9846
-73.9974
-75.2881
-76.6708
-75.4797
-74.6869
-74.0499
-73.7923
-74.3194
-74.4366
-74.747
-75.2283
-75.3382
-76.7967
-77.9149
-76.2995
-75.0313
-74.4057
-74.4232
-75.4848
-76.1912
-76.5221
-77.0138
-76.8205
-76.7414
-78.0211
-78.869
-77.8304
-76.6757
-75.9325
-76.3047
-76.8946
-77.4217
-77.7983
-78.0914
-78.3333
-78.2455
-78.8105
-80.8798
-79.5668
-78.2072
-77.4217
-77.3943
-77.9514
-78.3279
-78.8426
-79.7363
-80.5763
-80.7073
-80.4998
-81.379
-81.3939
-80.507
-80.0203
-79.1841
-78.5635
-78.7987
-79.1394
-79.9525
-80.9538
-81.7489
-81.421
-80.8932
-80.6427
-80.8383
-80.767
-79.1195
-77.9209
-80.2278
-79.8961
-80.1386
-80.4228
-81.3467
-82.2613
-81.1972
-81.2619
-80.6176
-80.0982
-79.8106
-79.2288
-78.7694
-78.0519
-77.2001
-76.7554
-80.2069
-80.3965
-80.6392
-80.8464
-81.1686
-81.2898
-80.7165
-80.3553
-80.1066
-79.8806
-79.4405
-78.8067
-78.1865
-77.5911
-76.7767
-76.3529
-69.8916
-69.943
-70.0569
-70.0265
-70.2094
-70.2487
-70.2085
-70.128
-70.3341
-70.4514
-70.4402
-70.44
-70.3993
-70.599
-70.959
-70.785
-70.7879
-70.6431
-70.6855
-70.9716
-71.4013
-71.2395
-71.1217
-71.0447
-70.997
-70.952
-71.3954
-72.1055
-71.7213
-71.5685
-71.5058
-71.3427
-71.3616
-71.4113
-72.0319
-72.8043
-72.5071
-72.1129
-72.0076
-71.9162
-71.8437
-71.9609
-72.042
-72.8819
-74.0451
-73.3459
-72.8485
-72.5748
-72.5211
-72.305
-72.6816
-72.8103
-72.8406
-74.0132
-75.4382
-74.5087
-73.7903
-73.3786
-73.2665
-73.5651
-73.8341
-73.9814
-73.7978
-73.9935
-75.2081
-77.1215
-75.7191
-74.9163
-74.1079
-73.8979
-74.3359
-74.5192
-74.9149
-75.086
-75.2479
-75.5925
-76.7675
-78.3793
-76.6565
-75.542
-74.7987
-74.4428
-75.3517
-76.0994
-76.4983
-76.8153
-76.8811
-76.7374
-76.8706
-78.7756
-79.3902
-78.1693
-76.8543
-75.9473
-76.3203
-76.8261
-77.2403
-77.6714
-78.1725
-78.4509
-78.2586
-78.8959
-78.4615
-81.1676
-79.8152
-78.4985
-77.7172
-77.4454
-78.0286
-78.4132
-78.5843
-79.6781
-80.3426
-80.8642
-80.7498
-81.6842
-81.7237
-80.0328
-78.9037
-80.1656
-79.3278
-78.7697
-78.8405
-79.0829
-79.7995
-80.6986
-81.7146
-81.3327
-80.9441
-80.7789
-81.0035
-80.8332
-79.3901
-77.9109
-77.1621
-80.2854
-79.9775
-80.1841
-80.436
-81.3225
-82.2136
-81.0792
-81.1361
-80.5402
-80.0523
-79.8008
-79.2417
-78.7915
-78.1134
-77.2462
-76.5531
-76.3219
-80.2373
-80.4152
-80.6603
-80.8645
-81.1815
-81.2806
-80.6936
-80.3334
-80.0681
-79.8608
-79.4187
-78.798
-78.1888
-77.5917
-76.7845
-76.3824
-75.9891
-69.6848
-69.8835
-69.9233
-69.8631
-69.9564
-70.0409
-69.9544
-69.9853
-70.1357
-70.1908
-70.2448
-70.1662
-70.1182
-70.3602
-70.561
-70.5099
-70.442
-70.3928
-70.3689
-70.6488
-70.9486
-70.9123
-70.782
-70.7044
-70.6386
-70.6099
-70.9325
-71.4703
-71.2889
-71.1553
-71.0652
-71.019
-70.9449
-70.9377
-71.4331
-72.2199
-71.8254
-71.6385
-71.4889
-71.4036
-71.3941
-71.4014
-71.3955
-72.0697
-73.0821
-72.5897
-72.2932
-71.9873
-71.9954
-71.8877
-72.0294
-72.0109
-72.0009
-72.8826
-73.9666
-73.574
-72.9408
-72.6582
-72.5628
-72.5565
-72.649
-72.6404
-72.827
-72.8779
-74.0689
-75.6778
-74.7281
-74.08
-73.4314
-73.2748
-72.9271
-73.7804
-73.8473
-73.8777
-74.0009
-74.0414
-75.8351
-77.7606
-76.1072
-75.148
-74.3648
-74.0556
-74.1742
-74.8126
-74.5711
-75.0603
-75.3142
-75.3971
-75.6033
-76.9438
-78.8465
-76.9427
-75.8295
-74.9374
-74.4681
-75.2079
-75.9374
-76.4266
-76.6787
-76.8329
-76.7185
-76.8714
-76.314
-78.3079
-79.8346
-78.5472
-77.0284
-76.0619
-76.3197
-76.787
-77.1974
-77.5717
-78.1036
-78.4905
-78.4132
-79.0529
-78.6088
-78.9957
-79.52
-80.052
-78.7494
-77.8754
-77.6048
-78.1033
-78.4713
-78.3954
-79.3367
-80.0289
-80.7376
-80.9442
-81.8677
-81.9803
-80.4604
-77.8068
-77.7846
-80.3054
-79.4841
-78.8782
-78.9194
-78.9999
-79.648
-80.3833
-81.5625
-81.1707
-80.8984
-80.9265
-81.1615
-80.8655
-79.5999
-78.056
-76.9048
-76.5003
-80.3389
-80.0539
-80.229
-80.4587
-81.2988
-82.1579
-80.9627
-80.971
-80.4415
-79.9933
-79.7862
-79.236
-78.8174
-78.1576
-77.2741
-76.6064
-75.9722
-75.9627
-80.2662
-80.4328
-80.6816
-80.8827
-81.1948
-81.2705
-80.6692
-80.3111
-80.0247
-79.8402
-79.3969
-78.7886
-78.171
-77.5907
-76.7915
-76.4079
-76.0103
-76.1881
-69.6666
-69.7687
-69.7025
-69.6568
-69.8583
-69.9065
-69.8173
-69.8468
-69.9953
-70.0932
-70.0226
-69.9171
-69.9232
-70.1396
-70.2324
-70.2746
-70.1569
-70.1367
-70.0904
-70.3909
-70.5916
-70.517
-70.4768
-70.3338
-70.3787
-70.3263
-70.6162
-71.1002
-70.925
-70.7391
-70.7506
-70.6214
-70.6008
-70.5368
-70.9764
-71.5908
-71.3718
-71.1932
-71.0859
-71.0647
-70.9904
-70.9825
-70.8986
-71.4011
-72.1997
-71.9301
-71.6862
-71.5096
-71.46
-71.4472
-71.4142
-71.4389
-71.3978
-72.087
-73.3205
-72.8103
-72.4678
-72.0898
-71.9189
-72.0082
-71.9399
-71.8896
-71.9586
-72.0759
-72.8591
-74.4822
-73.7324
-73.0539
-72.6972
-72.6267
-72.7949
-72.648
-72.6213
-72.8019
-72.8759
-72.8966
-74.1604
-76.0606
-74.8524
-74.3005
-73.5994
-73.3734
-73.2245
-73.6667
-73.7507
-73.9073
-73.995
-74.0528
-74.311
-75.7124
-78.0965
-76.5782
-75.4386
-74.649
-74.0883
-74.2119
-74.6527
-74.4953
-74.8645
-75.4457
-75.3877
-75.5894
-75.2323
-76.2517
-79.3384
-77.2748
-75.8642
-74.8603
-74.6978
-75.1438
-75.7488
-76.0796
-76.5999
-76.9611
-76.7864
-76.8105
-76.4283
-75.729
-78.6123
-80.1317
-78.76
-77.3507
-76.2944
-76.4622
-76.844
-77.0667
-77.3761
-77.902
-78.3741
-78.5625
-79.2421
-78.8739
-79.3393
-77.1186
-77.4458
-80.2802
-79.0426
-77.9616
-77.8856
-78.1387
-78.4928
-78.1454
-78.953
-79.6623
-80.4864
-80.9899
-82.0155
-82.1938
-80.8551
-78.3731
-76.6691
-76.798
-80.4531
-79.6551
-79.0049
-78.9825
-78.9867
-79.5086
-80.1087
-81.1796
-80.9277
-80.8159
-80.9245
-81.1665
-80.891
-79.8717
-78.1641
-77.0468
-76.2336
-75.8842
-80.3864
-80.1336
-80.2747
-80.4739
-81.2772
-82.0918
-80.8637
-80.8022
-80.3222
-79.9231
-79.7627
-79.2259
-78.8541
-78.1884
-77.3025
-76.6821
-76.0691
-75.8914
-76.1698
-80.296
-80.4494
-80.6996
-80.9049
-81.205
-81.2585
-80.6438
-80.2873
-79.9806
-79.8198
-79.3779
-78.7797
-78.1592
-77.5887
-76.7981
-76.4302
-76.0236
-76.201
-76.7875
-69.5706
-69.6785
-69.6567
-69.5733
-69.7565
-69.7225
-69.6775
-69.6498
-69.8153
-69.8867
-69.8463
-69.7853
-69.7696
-69.9332
-70.1036
-70.038
-69.9202
-69.9518
-69.889
-70.1207
-70.3506
-70.2428
-70.1777
-70.1017
-70.1382
-70.0316
-70.3267
-70.7267
-70.5852
-70.4284
-70.4312
-70.3278
-70.3265
-70.3419
-70.5707
-71.1996
-70.9721
-70.8423
-70.7285
-70.7041
-70.6605
-70.561
-70.5748
-70.939
-71.6927
-71.4362
-71.2285
-71.145
-71.0643
-71.0042
-70.9504
-70.978
-70.8693
-71.4006
-72.4059
-71.9924
-71.7659
-71.5575
-71.4313
-71.5643
-71.4172
-71.3985
-71.3603
-71.4458
-72.118
-73.3621
-72.9453
-72.478
-72.2297
-71.9687
-72.0019
-71.9574
-71.8855
-71.8704
-72.0334
-71.9855
-72.834
-75.0379
-73.9441
-73.2842
-72.7167
-72.6555
-72.5856
-72.7419
-72.6036
-72.7136
-72.8459
-72.8423
-73.0008
-74.3402
-76.407
-75.1656
-74.4196
-73.8504
-73.5294
-73.3293
-73.5196
-73.6483
-73.8181
-73.9527
-73.9879
-74.1866
-73.9417
-75.1969
-78.4871
-76.9707
-75.7852
-74.8133
-74.2822
-74.2501
-74.5392
-74.4147
-74.7229
-75.4292
-75.3826
-75.5156
-75.303
-74.6359
-75.6906
-79.9911
-77.6526
-76.2282
-75.2267
-74.9549
-75.2496
-75.4582
-75.8221
-76.4459
-77.0037
-76.778
-76.757
-76.5332
-75.8341
-75.2468
-76.6871
-80.6004
-78.9486
-77.5592
-76.5315
-76.5656
-76.943
-76.9616
-77.1065
-77.6956
-78.3011
-78.5096
-79.2687
-79.0975
-79.649
-77.4934
-75.6961
-76.5126
-80.539
-79.2956
-78.2722
-77.9976
-78.1993
-78.4823
-77.9304
-78.4763
-79.2137
-80.1591
-80.8382
-81.9445
-82.5019
-81.1812
-79.2808
-76.7879
-76.0817
-76.1113
-80.5737
-79.8241
-79.1639
-79.0497
-79.0012
-79.389
-79.8882
-80.7842
-80.6052
-80.6806
-80.8457
-80.9737
-80.9385
-80.0722
-78.3293
-77.1564
-76.3904
-75.7815
-75.8704
-80.4338
-80.2027
-80.317
-80.5035
-81.2595
-82.003
-80.7715
-80.6374
-80.1921
-79.8414
-79.7299
-79.2159
-78.8755
-78.2135
-77.3379
-76.7467
-76.1691
-75.9177
-76.2359
-76.8096
-80.3185
-80.464
-80.717
-80.9215
-81.2205
-81.2484
-80.6175
-80.2621
-79.9364
-79.7992
-79.3631
-78.7728
-78.1504
-77.5892
-76.8033
-76.4494
-76.0265
-76.2087
-76.757
-76.2614
-69.5162
-69.5994
-69.5113
-69.5564
-69.6265
-69.6193
-69.6191
-69.5537
-69.6741
-69.6828
-69.664
-69.654
-69.6384
-69.7692
-69.9469
-69.8457
-69.7917
-69.7813
-69.7017
-69.9075
-70.1416
-70.0655
-69.9481
-69.9315
-69.8912
-69.8415
-70.0692
-70.3847
-70.2884
-70.2338
-70.1454
-70.1464
-70.0575
-70.0324
-70.2347
-70.727
-70.5408
-70.535
-70.4205
-70.3453
-70.3214
-70.2651
-70.3185
-70.5575
-71.2435
-71.0059
-70.8821
-70.7746
-70.6621
-70.6966
-70.5711
-70.5452
-70.5166
-70.9108
-71.8107
-71.5585
-71.2936
-71.1423
-71.0529
-71.06
-70.9665
-70.9494
-70.8692
-70.8972
-71.4418
-72.5944
-72.1157
-71.8607
-71.6144
-71.4527
-71.2719
-71.3869
-71.3988
-71.3665
-71.4226
-71.3042
-71.973
-73.768
-73.0391
-72.6844
-72.305
-72.1171
-71.923
-71.9739
-71.8728
-71.8815
-71.9782
-72.0368
-71.9815
-73.1789
-74.8632
-74.249
-73.3724
-72.7947
-72.7094
-72.6376
-72.675
-72.6417
-72.6472
-72.7906
-72.882
-72.893
-72.6909
-73.9238
-76.9923
-75.5248
-74.5585
-74.0513
-73.5892
-73.4295
-73.4454
-73.4637
-73.7146
-73.9632
-73.9352
-73.9713
-73.9441
-73.4501
-74.635
-78.9757
-77.3555
-75.9292
-75.0105
-74.4632
-74.3997
-74.3893
-74.3423
-74.6507
-75.4575
-75.3883
-75.4223
-75.3744
-74.7626
-74.238
-75.0975
-80.5455
-78.0995
-76.7211
-75.6123
-75.2239
-75.4675
-75.4799
-75.6194
-76.1864
-76.9676
-76.7386
-76.6602
-76.6462
-75.8903
-75.389
-74.3556
-75.5661
-81.1451
-79.285
-77.7843
-76.7487
-76.6013
-76.847
-76.8272
-76.8306
-77.3507
-78.1062
-78.4008
-79.0911
-79.301
-79.9347
-77.8269
-75.8816
-75.5882
-75.9537
-80.8798
-79.5568
-78.5443
-78.1012
-78.2936
-78.4347
-77.6522
-78.1383
-78.7677
-79.7782
-80.4326
-81.4861
-82.6947
-81.4551
-80.1777
-76.889
-76.2856
-75.4142
-75.7377
-80.6889
-79.9887
-79.342
-79.1571
-79.0138
-79.2887
-79.7071
-80.3675
-80.2035
-80.4851
-80.738
-80.7162
-80.9992
-80.0962
-78.5543
-77.1753
-76.5606
-75.8336
-75.7576
-76.2425
-80.4817
-80.2624
-80.3801
-80.5209
-81.2382
-81.8972
-80.6771
-80.48
-80.0603
-79.7424
-79.6935
-79.2064
-78.8801
-78.2352
-77.3663
-76.8199
-76.268
-75.9301
-76.2351
-75.9841
-76.2511
-80.3461
-80.4765
-80.7311
-80.9445
-81.2403
-81.2257
-80.5904
-80.2361
-79.8932
-79.7705
-79.3451
-78.7626
-78.1436
-77.5901
-76.8089
-76.4643
-76.0251
-76.2194
-76.7417
-76.2744
-76.2427
-69.4297
-69.4496
-69.3813
-69.4479
-69.554
-69.5821
-69.4994
-69.5146
-69.5746
-69.586
-69.6273
-69.5546
-69.4899
-69.6302
-69.7179
-69.6483
-69.6716
-69.6587
-69.5703
-69.7044
-69.9066
-69.861
-69.8078
-69.7643
-69.6997
-69.6868
-69.8565
-70.203
-70.0113
-70.0201
-69.9285
-69.958
-69.8892
-69.7875
-70.0352
-70.4582
-70.3424
-70.2003
-70.1965
-70.1351
-70.0464
-70.0281
-69.9571
-70.313
-70.7845
-70.6967
-70.61
-70.4732
-70.4086
-70.3519
-70.2702
-70.2386
-70.2003
-70.5353
-71.3166
-71.1064
-70.9101
-70.8065
-70.731
-70.6682
-70.6027
-70.5741
-70.5154
-70.5372
-70.8976
-71.9434
-71.6421
-71.3861
-71.2504
-71.1069
-71.0055
-70.9955
-70.9396
-70.9134
-70.8645
-70.817
-71.2966
-72.6429
-72.3872
-71.8652
-71.7144
-71.5031
-71.3728
-71.3205
-71.3592
-71.3594
-71.3636
-71.2601
-71.2666
-71.9961
-74.1533
-73.2107
-72.909
-72.4669
-72.2368
-72.0121
-71.9815
-71.846
-71.8303
-71.9702
-72.0176
-71.971
-71.7575
-72.7061
-75.5401
-74.4017
-73.5301
-72.9586
-72.7775
-72.632
-72.6126
-72.5349
-72.5757
-72.7646
-72.8091
-72.8111
-72.6402
-72.4103
-73.3792
-77.3329
-75.8291
-74.7866
-74.1113
-73.6781
-73.4794
-73.4136
-73.3206
-73.5858
-73.9503
-73.9504
-73.9517
-73.9266
-73.4749
-73.1947
-74.4656
-79.481
-77.7249
-76.108
-75.248
-74.5938
-74.5136
-74.3643
-74.1004
-74.4815
-75.3538
-75.6793
-75.4734
-75.2091
-74.7856
-74.254
-74.1481
-74.6353
-81.0048
-78.6367
-77.1612
-75.8956
-75.4653
-75.5589
-75.5093
-75.4269
-75.7191
-76.8493
-76.7602
-76.6893
-76.7189
-76.102
-75.5545
-74.3628
-74.9441
-75.4686
-81.5841
-79.8069
-78.0186
-76.958
-76.6968
-76.8337
-76.6611
-76.4968
-76.7994
-77.7778
-78.2553
-78.8422
-79.4576
-80.1031
-78.4195
-76.2117
-75.7263
-75.1327
-75.3674
-81.1624
-79.8315
-78.7561
-78.265
-78.3589
-78.3556
-77.459
-77.6716
-78.2785
-79.3796
-80.1094
-80.9768
-82.7937
-81.7038
-80.744
-77.0531
-76.5292
-75.4839
-75.3493
-75.7274
-80.8072
-80.152
-79.5179
-79.2626
-79.043
-79.2043
-79.4712
-80.0116
-79.7654
-80.1712
-80.6343
-80.5315
-80.981
-80.1394
-78.6669
-77.2457
-76.6893
-75.8969
-75.8062
-75.4784
-75.9976
-80.5242
-80.3231
-80.4447
-80.5406
-81.2054
-81.7797
-80.5762
-80.3374
-79.93
-79.638
-79.6394
-79.1959
-78.8709
-78.2471
-77.3944
-76.8959
-76.3632
-75.948
-76.2321
-76.0226
-76.0351
-76.2338
-80.3708
-80.4881
-80.7457
-80.9647
-81.2585
-81.2046
-80.5631
-80.209
-79.851
-79.7505
-79.3256
-78.7489
-78.1381
-77.5901
-76.8151
-76.4766
-76.0266
-76.218
-76.7213
-76.2899
-76.2517
-76.5678
-69.3254
-69.4602
-69.3008
-69.4043
-69.4248
-69.4411
-69.3618
-69.3386
-69.4882
-69.5593
-69.5628
-69.5099
-69.4252
-69.5172
-69.6028
-69.6264
-69.5588
-69.492
-69.4481
-69.5366
-69.7234
-69.6464
-69.6451
-69.6388
-69.6695
-69.5118
-69.6552
-69.9166
-69.8176
-69.8118
-69.7839
-69.7663
-69.6687
-69.6153
-69.9053
-70.2245
-70.093
-69.994
-69.9658
-69.9531
-69.9057
-69.8123
-69.736
-70.005
-70.4889
-70.4008
-70.3304
-70.2272
-70.1532
-70.042
-70.0028
-69.9727
-69.8871
-70.2198
-70.8358
-70.7473
-70.6214
-70.5485
-70.4707
-70.3666
-70.2791
-70.2593
-70.2179
-70.2042
-70.4149
-71.367
-71.1944
-70.9822
-70.8652
-70.7663
-70.6458
-70.6101
-70.5812
-70.4694
-70.5319
-70.4014
-70.8207
-72.1011
-71.7663
-71.507
-71.3209
-71.0742
-71.0116
-70.9264
-70.9586
-70.8967
-70.8773
-70.8821
-70.7467
-71.3247
-72.96
-72.3807
-71.9649
-71.767
-71.5355
-71.4831
-71.3595
-71.2885
-71.3344
-71.3677
-71.3799
-71.197
-71.0798
-71.7808
-74.1311
-73.5496
-72.9924
-72.5674
-72.3002
-72.0373
-71.9216
-71.8489
-71.7841
-71.9019
-71.977
-71.9054
-71.7067
-71.4891
-72.3785
-75.9765
-74.6789
-73.789
-73.1446
-72.9365
-72.6544
-72.6382
-72.4092
-72.4536
-72.6946
-72.7889
-72.7067
-72.6487
-72.4226
-72.0499
-73.0323
-77.87
-76.2661
-75.0312
-74.2445
-73.8062
-73.5957
-73.3753
-73.1783
-73.4551
-74.0572
-74.0489
-73.9274
-73.8695
-73.5488
-73.2087
-72.9764
-74.0858
-80.1114
-78.1852
-76.4365
-75.4666
-74.8337
-74.6012
-74.3545
-73.9679
-74.2625
-75.4114
-75.6412
-75.6019
-75.158
-74.7802
-74.3113
-73.8231
-74.4835
-74.8944
-81.8693
-79.1601
-77.5047
-76.2478
-75.6738
-75.5947
-75.2567
-74.9734
-75.2753
-76.7562
-76.7477
-76.5896
-76.7479
-76.3052
-75.7497
-74.7588
-74.967
-75.1613
-75.0767
-81.9344
-80.2741
-78.3289
-77.1621
-76.8077
-76.771
-76.5546
-76.3278
-76.4674
-77.3743
-78.0888
-78.6715
-79.5144
-80.3918
-79.4506
-76.6882
-75.8147
-75.2214
-74.8463
-75.2926
-81.3956
-80.1569
-79.0052
-78.4365
-78.4048
-78.2613
-77.4246
-77.2977
-77.846
-78.9884
-79.8339
-80.5959
-82.7328
-81.8402
-80.8847
-77.2053
-76.673
-75.557
-75.4004
-74.946
-75.4073
-80.9032
-80.3029
-79.6774
-79.3571
-79.0951
-79.1525
-79.2227
-79.6869
-79.3629
-79.7118
-80.4848
-80.395
-80.8889
-80.2347
-78.8143
-77.3419
-76.8157
-75.9579
-75.8536
-75.5147
-75.4067
-76.0061
-80.5629
-80.3819
-80.5034
-80.5668
-81.1352
-81.6635
-80.4873
-80.2129
-79.8122
-79.529
-79.5809
-79.1808
-78.8564
-78.2504
-77.4153
-76.9683
-76.4517
-75.9923
-76.2358
-76.058
-76.0563
-76.4408
-76.5544
-80.3971
-80.499
-80.7594
-80.9849
-81.2739
-81.1922
-80.536
-80.1806
-79.808
-79.7383
-79.3074
-78.7352
-78.1321
-77.5786
-76.8221
-76.484
-76.039
-76.2137
-76.6948
-76.3069
-76.262
-76.5806
-76.3535
-69.3104
-69.3068
-69.3371
-69.2664
-69.3415
-69.4739
-69.411
-69.3533
-69.3583
-69.4799
-69.3709
-69.3438
-69.271
-69.4157
-69.5592
-69.5455
-69.4988
-69.4955
-69.3445
-69.4214
-69.6339
-69.6159
-69.5829
-69.5498
-69.5064
-69.4011
-69.4838
-69.7726
-69.7106
-69.6578
-69.678
-69.6758
-69.5253
-69.4592
-69.6397
-69.9518
-69.8723
-69.8216
-69.7841
-69.7496
-69.6685
-69.5867
-69.5376
-69.7252
-70.2434
-70.1176
-70.02
-70.0026
-69.9837
-69.8629
-69.7811
-69.7209
-69.6676
-69.9201
-70.5699
-70.4284
-70.3835
-70.2366
-70.1709
-70.0852
-69.9142
-69.9643
-69.9453
-69.8179
-70.1542
-71.0009
-70.8111
-70.6907
-70.5091
-70.421
-70.3348
-70.3462
-70.257
-70.1987
-70.1501
-70.0979
-70.3899
-71.4738
-71.2229
-71.0547
-70.8475
-70.7295
-70.7011
-70.5505
-70.5942
-70.4808
-70.4745
-70.3955
-70.4008
-70.8129
-72.1617
-71.9658
-71.5314
-71.4209
-71.1413
-71.0179
-70.9095
-70.8975
-70.8212
-70.8694
-70.8553
-70.7611
-70.637
-71.1067
-73.0283
-72.5967
-72.1191
-71.8408
-71.5715
-71.5023
-71.3728
-71.2913
-71.2091
-71.2832
-71.3386
-71.2414
-71.1534
-70.8535
-71.4535
-74.5963
-73.6253
-73.1674
-72.7358
-72.3694
-72.0621
-71.9647
-71.8537
-71.7384
-71.8433
-71.913
-71.9195
-71.8606
-71.6149
-71.241
-72.026
-76.2911
-75.2721
-74.0832
-73.4111
-72.9889
-72.7474
-72.6453
-72.3873
-72.3919
-72.705
-72.8364
-72.7803
-72.7367
-72.354
-72.0938
-71.988
-72.9232
-78.4899
-76.6796
-75.3224
-74.4196
-73.9195
-73.5987
-73.3393
-73.2595
-73.2648
-73.9287
-73.98
-73.9789
-73.7971
-73.6367
-73.1848
-72.9555
-73.2429
-73.9753
-81.4564
-78.7298
-76.7383
-75.6347
-74.9958
-74.5123
-74.2625
-73.8582
-74.1834
-75.2354
-75.7082
-75.5223
-75.083
-74.9425
-74.4106
-73.6747
-74.2452
-74.2989
-74.9798
-82.4966
-79.732
-77.9015
-76.5489
-75.8499
-75.6916
-75.1169
-74.3868
-75.4519
-76.3991
-76.6056
-76.5462
-76.6944
-76.2351
-75.9652
-75.0809
-74.9184
-75.3304
-74.3238
-74.763
-82.4458
-80.7391
-78.5875
-77.4147
-76.9772
-76.7854
-76.4637
-76.2037
-76.5386
-76.9728
-77.7939
-78.4573
-79.4928
-80.3495
-80.7871
-76.9843
-75.9895
-75.2795
-74.9076
-74.3906
-74.9005
-81.7059
-80.4147
-79.2362
-78.6304
-78.4308
-78.2028
-77.3257
-77.1566
-77.4133
-78.7273
-79.536
-80.2483
-82.3763
-81.995
-80.856
-77.3198
-76.7742
-75.6516
-75.4467
-74.9856
-74.6766
-75.3557
-80.9798
-80.4502
-79.8277
-79.4548
-79.1557
-79.1308
-79.0153
-79.4478
-79.0102
-79.2501
-80.2242
-80.2626
-80.7074
-80.3157
-78.9477
-77.4656
-76.9215
-76.0234
-75.9054
-75.5707
-75.4518
-75.3654
-76.4066
-80.5954
-80.4362
-80.5476
-80.5787
-81.1248
-81.5574
-80.4122
-80.0905
-79.6944
-79.416
-79.5216
-79.1395
-78.8291
-78.2525
-77.4325
-77.0405
-76.5235
-76.0359
-76.2455
-76.0903
-76.0816
-76.4905
-76.3488
-76.3391
-80.4223
-80.5094
-80.7711
-81.005
-81.2939
-81.1863
-80.5093
-80.1522
-79.7637
-79.7184
-79.2842
-78.7218
-78.1247
-77.5561
-76.8288
-76.4886
-76.0606
-76.2184
-76.6736
-76.3257
-76.2748
-76.5948
-76.3685
-75.9617
-69.1846
-69.2824
-69.3518
-69.1947
-69.2402
-69.3414
-69.3067
-69.1788
-69.3125
-69.3883
-69.3743
-69.4186
-69.2144
-69.3394
-69.4415
-69.4457
-69.3573
-69.3044
-69.257
-69.3368
-69.5661
-69.5581
-69.5726
-69.5611
-69.4189
-69.2569
-69.3945
-69.6462
-69.638
-69.6276
-69.6001
-69.5254
-69.413
-69.3348
-69.4596
-69.8341
-69.7976
-69.7689
-69.6813
-69.6437
-69.5383
-69.4714
-69.3617
-69.5337
-70.0086
-69.9307
-69.8807
-69.7827
-69.7445
-69.689
-69.6083
-69.545
-69.4794
-69.6832
-70.2999
-70.1872
-70.1101
-70.009
-69.9418
-69.9008
-69.8073
-69.7748
-69.699
-69.5819
-69.8984
-70.6587
-70.5036
-70.3635
-70.2443
-70.1474
-70.1026
-70.0598
-69.945
-69.9235
-69.8091
-69.782
-70.146
-71.0142
-70.9111
-70.7541
-70.5338
-70.448
-70.3758
-70.3096
-70.2581
-70.1682
-70.1302
-70.134
-70.0302
-70.3947
-71.5628
-71.3219
-71.1178
-70.9422
-70.7688
-70.6183
-70.5444
-70.5128
-70.4922
-70.4174
-70.2379
-70.336
-70.2923
-70.5989
-72.2834
-71.9692
-71.698
-71.4431
-71.2391
-71.0804
-70.9536
-70.8818
-70.793
-70.8788
-70.8571
-70.7926
-70.649
-70.4318
-70.8867
-73.1483
-72.8363
-72.1833
-71.866
-71.5922
-71.5657
-71.4337
-71.3206
-71.1525
-71.1851
-71.3176
-71.2014
-71.1524
-70.9123
-70.7265
-71.2198
-74.7064
-73.8765
-73.3277
-72.9225
-72.4357
-72.131
-72.0108
-71.8018
-71.7286
-71.8221
-71.9457
-71.9228
-71.8466
-71.5353
-71.2174
-71.0125
-71.9362
-76.7268
-75.4113
-74.4539
-73.6506
-73.023
-72.7786
-72.6303
-72.3807
-72.4051
-72.619
-72.8483
-72.7323
-72.7525
-72.3786
-72.1669
-71.9673
-71.9597
-73.0242
-79.0568
-77.1198
-75.6151
-74.6205
-74.0176
-73.6856
-73.4224
-73.1471
-73.148
-73.8715
-73.9588
-73.9565
-73.817
-73.6177
-73.2618
-72.8557
-73.2401
-73.4064
-74.103
-82.064
-79.2752
-77.0132
-75.8826
-75.1659
-74.5544
-74.1462
-73.5939
-74.0212
-75.0611
-75.7631
-75.6449
-75.1154
-75.0097
-74.7037
-73.8868
-74.1601
-74.5376
-73.8609
-74.3581
-83.0826
-80.2799
-78.368
-76.8637
-76.0109
-75.7182
-75.3505
-74.7161
-74.9061
-75.9275
-76.4851
-76.4168
-76.6396
-76.3206
-76.2508
-75.4902
-74.8839
-75.0631
-74.324
-73.7338
-74.3276
-82.8004
-81.159
-78.941
-77.6554
-77.1447
-76.853
-76.3965
-76.0476
-76.1097
-76.5962
-77.4333
-78.1744
-79.3809
-80.1945
-81.6784
-77.0177
-76.2003
-75.3206
-74.9284
-74.4362
-73.9868
-74.6631
-81.9444
-80.6387
-79.4424
-78.8242
-78.4494
-78.1198
-77.2716
-76.9478
-77.06
-78.3386
-79.1334
-79.8708
-81.9016
-82.0893
-81.0637
-77.5203
-76.84
-75.7975
-75.5689
-75.1233
-74.7035
-74.4761
-75.3144
-81.0417
-80.5968
-79.9811
-79.5686
-79.2546
-79.126
-78.8559
-79.1871
-78.6922
-78.938
-79.844
-80.1629
-80.4322
-80.3836
-79.0497
-77.631
-77.0166
-76.0943
-75.9739
-75.6697
-75.501
-75.4183
-75.0917
-76.276
-80.6244
-80.4926
-80.5767
-80.6116
-81.228
-81.4758
-80.3445
-79.998
-79.5686
-79.3265
-79.4144
-79.1122
-78.7955
-78.2518
-77.446
-77.1073
-76.58
-76.074
-76.2515
-76.1484
-76.1048
-76.5359
-76.3734
-75.5167
-75.9502
-80.4448
-80.5181
-80.7839
-81.0245
-81.3154
-81.1843
-80.4832
-80.1206
-79.7181
-79.6861
-79.2617
-78.7086
-78.1149
-77.538
-76.8365
-76.5013
-76.0796
-76.2263
-76.6541
-76.3462
-76.2864
-76.601
-76.3777
-75.9759
-76.1141
-69.1651
-69.178
-69.1515
-69.1992
-69.1304
-69.3618
-69.1548
-69.1968
-69.3512
-69.247
-69.227
-69.1554
-69.279
-69.3943
-69.4729
-69.4093
-69.2613
-69.1752
-69.2398
-69.4092
-69.4585
-69.4114
-69.3155
-69.2556
-69.2029
-69.2701
-69.5593
-69.5298
-69.5968
-69.5916
-69.4111
-69.3187
-69.2116
-69.3471
-69.6579
-69.6587
-69.6895
-69.6189
-69.5326
-69.4425
-69.3334
-69.2773
-69.3825
-69.8615
-69.8105
-69.8049
-69.7105
-69.6519
-69.5878
-69.513
-69.4091
-69.2954
-69.5118
-70.0252
-69.992
-69.927
-69.8896
-69.7186
-69.5859
-69.6642
-69.5618
-69.4671
-69.3793
-69.6321
-70.3054
-70.2645
-70.1279
-70.0377
-69.9879
-69.9016