/*--------------------------------*- C++ -*----------------------------------*\
  =========                 |
  \\      /  F ield         | OpenFOAM: The Open Source CFD Toolbox
   \\    /   O peration     | Website:  https://openfoam.org
    \\  /    A nd           | Version:  7
     \\/     M anipulation  |
\*---------------------------------------------------------------------------*/
FoamFile
{
    version     2.0;
    format      ascii;
    class       surfaceScalarField;
    location    "6";
    object      phi_0;
}
// * * * * * * * * * * * * * * * * * * * * * * * * * * * * * * * * * * * * * //

dimensions      [0 3 -1 0 0 0 0];

internalField   nonuniform List<scalar> 
54006
(
-2.36802e-05
0.00115083
-0.0011374
-4.91794e-05
-0.000120504
0.00327465
-0.00319237
-0.000135414
-1.87213e-05
-4.91106e-05
-3.2275e-05
-0.00111511
-5.46731e-05
-2.74589e-05
0.00239809
-0.00238045
-3.93571e-05
-0.0002831
0.00341143
-0.00323585
-3.85338e-05
-0.000112349
-0.000136046
-0.000147041
-0.00309556
-0.000148962
-4.64904e-05
0.00358175
-0.00359265
-0.000105478
-2.60843e-05
-3.88026e-05
-3.82676e-05
-0.00108647
-5.40049e-05
-4.07865e-05
-0.00235
-4.43286e-05
-2.26077e-05
0.00139573
-0.00138061
-3.18605e-05
-0.000362315
0.00463433
-0.0045347
0.000310844
-0.000252371
-2.26229e-05
-0.000328412
-0.00305134
-3.90735e-05
-0.000208657
0.00461278
-0.00452081
3.16613e-05
-2.86565e-05
-0.000102123
-0.000158261
-0.00298287
-0.000149299
-7.6167e-05
-0.00358309
-0.000123146
-4.60348e-06
0.00364242
-0.00370725
-5.86557e-05
-1.7892e-05
-3.17559e-05
-5.77041e-05
-0.00103736
-5.42996e-05
-6.06001e-05
-0.0022987
-4.47128e-05
-3.41323e-05
-0.00135562
-3.51917e-05
-4.51357e-05
0.00115198
-0.00110954
-2.91639e-05
-0.000305449
0.00553207
-0.00545061
0.000755065
-0.000317973
0.00037838
-0.000407255
-0.00431463
0.000342681
-0.000297039
0.00495397
-0.00494463
0.000389881
-0.000197421
3.43369e-05
-0.000361924
-0.00288647
-1.94047e-05
-0.000243785
-0.00442831
3.60495e-05
-3.01687e-05
0.0051051
-0.00508477
3.68997e-05
1.18153e-05
-5.01191e-05
-0.000197847
-0.00283167
-0.000135341
-0.000119332
-0.00355563
-0.000118025
-3.8473e-05
-0.00374772
-7.83324e-05
8.78558e-06
0.00295418
-0.00304509
-2.16722e-05
-3.73501e-05
-2.90115e-05
-6.51782e-05
-0.000980838
-5.47984e-05
-7.01492e-05
-0.00223667
-4.61805e-05
-4.45802e-05
-0.0013202
-3.55526e-05
-5.68483e-05
-0.00105569
-3.21908e-05
-6.17863e-05
0.000276739
-0.000208859
-3.5257e-05
-0.000443549
0.0068245
-0.006626
0.0010611
-0.000191889
0.00079196
-0.000357958
-0.00531434
0.000723417
-0.000137384
0.00607333
-0.00606593
0.000588004
-0.000261015
0.000441128
-0.000427012
-0.00419711
0.00031352
-0.00030504
-0.0049062
0.000365505
-8.76235e-05
0.00521026
-0.00517362
0.000410697
1.8027e-05
1.33804e-05
-0.000388335
-0.00278143
1.38318e-06
-0.000276765
-0.00432132
3.10334e-05
-8.80608e-05
-0.00501313
1.39983e-05
0.000110391
0.00447707
-0.00452631
-1.54676e-05
5.1399e-05
-1.26461e-05
-0.000208309
-0.0027
-0.000137486
-0.00016445
-0.00347802
-0.000118653
-6.8432e-05
-0.00376124
-8.06541e-05
-1.71244e-05
-0.00312864
-3.44999e-05
2.52426e-05
0.00308653
-0.00319069
-4.53228e-06
-5.55013e-05
-3.40865e-05
-7.62188e-05
-0.00091261
-5.51264e-05
-7.94352e-05
-0.00216446
-4.75713e-05
-5.88405e-05
-0.00127161
-3.59285e-05
-6.34126e-05
-0.000995472
-3.23601e-05
-7.31599e-05
-0.000128046
-3.98403e-05
-7.19831e-05
-0.000199492
0.00026936
-3.3142e-05
-0.000482297
0.00687748
-0.00682006
0.00140119
-0.000225941
0.00112371
-0.00055452
-0.00638283
0.00119602
-0.000186359
0.00684234
-0.00684119
0.00110893
1.84802e-05
0.000635586
-0.00036855
-0.00519184
0.000696879
-8.3732e-05
-0.0061652
0.000601387
2.38073e-05
0.00599409
-0.00617698
0.000659472
-5.69134e-05
0.000429132
-0.00048287
-0.00406087
0.000348411
-0.000371279
-0.00481824
0.000320079
-0.000144041
-0.0051618
0.000409673
0.00017044
0.00565046
-0.00558337
0.000283557
0.000186686
-3.11906e-05
-0.000405493
-0.00268611
1.7978e-06
-0.000325912
-0.00417796
1.94878e-05
-8.45843e-05
-0.00495618
-9.77035e-06
6.6012e-05
-0.00454191
-5.35341e-05
0.000118046
0.00463756
-0.00467938
-6.64545e-05
7.11495e-05
1.13133e-05
-0.000236302
-0.00254641
-0.000140841
-0.000201249
-0.00337417
-0.000119519
-0.000111054
-0.00373828
-8.94074e-05
-4.86996e-05
-0.00317814
-4.58705e-05
-1.37303e-05
-0.00324523
-3.9391e-05
-8.53221e-05
0.00272482
-0.00272185
5.82978e-06
-7.04276e-05
-3.25106e-05
-7.83538e-05
-0.000842367
-5.5527e-05
-8.97963e-05
-0.00208093
-4.8862e-05
-6.72543e-05
-0.0012158
-3.61225e-05
-6.94413e-05
-0.000929563
-3.23963e-05
-7.44304e-05
-4.53328e-05
-4.06429e-05
-7.31994e-05
0.000339914
-3.71904e-05
-3.29e-05
5.21145e-05
-2.62798e-05
-2.60766e-05
-0.000384988
0.00640501
-0.00639742
0.00156134
-0.000348513
0.00140371
-0.000703673
-0.00665176
0.00157202
-0.000207432
0.00726766
-0.00723681
0.00139141
3.75625e-05
0.00106906
-0.000638325
-0.00604225
0.0011831
-0.000204317
-0.00659649
0.0010719
7.23778e-05
0.00660676
-0.00677935
0.00123295
-9.54108e-07
0.000707368
-0.000416859
-0.00509044
0.000643201
-0.000269911
-0.00608874
0.000519051
-9.48113e-05
-0.00632195
0.000697121
0.000202129
0.00616373
-0.00628676
0.000750805
0.000271725
0.000254067
-0.000545205
-0.00392435
0.000340846
-0.000421406
-0.00467803
0.00030369
-7.23954e-05
-0.0052074
0.000353486
0.000119877
-0.00556299
0.000335431
0.000256299
0.00542585
-0.00544907
0.000168523
0.000184314
-4.27835e-06
-0.000434177
-0.00260353
2.27991e-06
-0.000364649
-0.00404968
3.69167e-05
-9.60461e-05
-0.00490071
-5.09847e-05
2.87309e-06
-0.00452018
-8.30778e-05
3.54303e-05
-0.00468216
-9.99145e-05
-6.78509e-05
0.00448441
-0.00456114
-7.19904e-06
-6.77426e-05
1.53782e-05
-0.000239062
-0.00239366
-0.000142253
-0.000236239
-0.00324384
-0.000124728
-0.00016121
-0.00366497
-9.88672e-05
-7.57644e-05
-0.00320142
-5.97992e-05
-2.60694e-05
-0.00326944
-7.00196e-05
-8.82288e-05
-0.00272421
-2.20045e-05
-7.16201e-05
0.000692124
-0.000632123
-1.54516e-05
-3.55632e-05
-2.63518e-05
-8.03393e-05
-0.000770001
-5.68127e-05
-9.9362e-05
-0.00198792
-4.91743e-05
-7.04773e-05
-0.00115759
-3.65981e-05
-7.56901e-05
-0.000857791
-3.22044e-05
-7.25117e-05
3.66658e-05
-4.18832e-05
-6.66526e-05
0.000403552
-3.76286e-05
-3.29745e-05
-1.89991e-06
-2.85905e-05
-3.17701e-05
-7.49169e-05
0.000109282
-2.8671e-05
-0.000316422
0.00610568
-0.00617198
0.00179735
-0.000407178
0.00157622
-0.000622452
-0.00634529
0.00173977
-0.000188559
0.00670608
-0.00671044
0.00154682
-5.94514e-05
0.00141087
-0.000831769
-0.00647671
0.00161434
-0.000370343
-0.00701133
0.00151257
-8.93953e-06
0.00716246
-0.00714013
0.0014504
8.82309e-05
0.000945429
-0.000714314
-0.00564539
0.00122973
-0.000379733
-0.00645435
0.00115078
-0.000138876
-0.00675077
0.00108738
0.000415118
0.00683516
-0.00697231
0.00115712
0.000288005
0.000729381
-0.000564864
-0.00495766
0.000593461
-0.000349272
-0.00604822
0.000530541
1.94535e-05
-0.00637094
0.000476198
0.000153691
-0.00627283
0.000649382
0.000253653
0.00649754
-0.00633255
0.000588466
0.000382617
0.000144467
-0.00061786
-0.00372397
0.000337812
-0.000442531
-0.00468641
0.00042711
-0.000163727
-0.00511712
0.000281092
8.4152e-05
-0.00556045
0.000269664
0.000237687
-0.00549084
0.000174946
0.000113925
0.00491585
-0.00503994
0.000110844
-5.74521e-05
6.9002e-05
-0.000453272
-0.00249444
-8.90208e-06
-0.000396002
-0.00389565
8.01506e-06
-0.000272099
-0.00469616
-5.67461e-05
-5.683e-05
-0.00447688
-0.000113222
1.02329e-05
-0.00470227
-9.9268e-05
-8.45475e-05
-0.00464343
-2.13072e-05
-4.59484e-05
0.0040523
-0.00404088
-4.42957e-05
-6.80835e-05
-1.09836e-05
-0.000251888
-0.00223542
-0.000158682
-0.000246438
-0.00310394
-0.000135083
-0.000166174
-0.00358286
-0.000111138
-0.000100749
-0.00320243
-7.28019e-05
-2.25691e-05
-0.00328954
-8.96452e-05
-7.48537e-05
-0.00273721
-4.88168e-05
-6.44701e-05
-0.00060005
-2.25809e-05
-9.57803e-05
0.000970424
-0.000891647
-3.02182e-05
-3.25434e-05
-2.8714e-05
-8.03446e-05
-0.000696459
-5.83652e-05
-0.000105512
-0.00188914
-5.00824e-05
-7.77348e-05
-0.00109139
-3.76382e-05
-8.22419e-05
-0.000779962
-3.21847e-05
-6.99961e-05
0.000116854
-4.23967e-05
-5.80411e-05
0.000457948
-3.82381e-05
-2.97802e-05
1.87487e-05
-2.84971e-05
-3.37453e-05
0.000146149
-3.1713e-05
3.55847e-05
4.91345e-05
-7.86031e-05
-3.47869e-05
-0.000315326
0.00572883
-0.0057099
0.00226087
-0.000420033
0.00182934
-0.000547576
-0.00623285
0.00203521
-0.000201656
0.00617137
-0.00616623
0.00180531
-7.69944e-05
0.00157134
-0.000641844
-0.00636394
0.00178046
-0.000233366
-0.0067729
0.00166525
0.000160542
0.00665333
-0.0068206
0.00154461
8.92003e-05
0.00147127
-0.000941204
-0.00626973
0.00164459
-0.000508189
-0.00681319
0.00154466
-0.000227876
-0.00706418
0.00152562
0.0005664
0.00645949
-0.00664805
0.00148768
0.000459109
0.00107791
-0.000868896
-0.00528434
0.00125615
-0.000485894
-0.00619393
0.00110593
-2.51375e-05
-0.00676958
0.00121418
0.000356859
-0.00723239
0.00114429
0.000549451
0.007085
-0.00705537
0.000831699
0.000378945
0.000546019
-0.00069258
-0.00483997
0.00055958
-0.000412302
-0.00596668
0.000481696
-0.000172814
-0.006282
0.000450683
0.000167921
-0.00631454
0.000434137
0.000330863
-0.00620915
0.000432807
0.000319438
0.00574788
-0.0056714
0.000306467
0.000227905
0.000137914
-0.000655488
-0.00346049
0.000311593
-0.000481708
-0.00447168
0.00020879
-0.000329298
-0.00503345
0.000400636
-1.61303e-06
-0.00549422
0.000159646
0.000160759
-0.00545283
8.11253e-05
8.54353e-05
-0.00507993
4.49536e-05
-6.93033e-05
0.00514735
-0.00511174
9.85947e-05
-4.66549e-05
3.07231e-05
-0.000432053
-0.00243619
-6.15386e-07
-0.00040404
-0.00372183
-2.51181e-05
-0.000220277
-0.00451716
-0.000116885
-0.000105712
-0.00437419
-0.000154467
-1.28259e-05
-0.00466487
-0.000160372
-9.56237e-05
-0.00469149
-3.04339e-05
-2.48081e-05
-0.0040387
-6.31491e-05
-0.000232396
0.00396297
-0.00377529
-9.53646e-05
-0.000103787
-2.58705e-05
-0.000253679
-0.00207565
-0.000168595
-0.0002701
-0.00295166
-0.000146369
-0.000195425
-0.00347423
-0.000126023
-0.00012032
-0.00319112
-8.43741e-05
1.49362e-05
-0.00334425
-0.00010303
-7.79998e-06
-0.00281414
-6.29512e-05
-2.50823e-05
-0.000626969
-2.65948e-05
-0.000105402
-0.000804014
-3.85567e-05
-5.45509e-05
0.00170359
-0.0015867
-5.69734e-05
3.22796e-05
-3.48535e-05
-7.88381e-05
-0.000623108
-6.01866e-05
-0.000112343
-0.00178363
-5.1528e-05
-8.63979e-05
-0.00101633
-3.87476e-05
-8.61933e-05
-0.000698665
-3.27422e-05
-6.74504e-05
0.000194759
-4.26395e-05
-5.54848e-05
0.000509429
-3.83925e-05
-2.71911e-05
3.61328e-05
-2.84312e-05
-3.28181e-05
0.000182092
-3.1622e-05
4.32479e-05
-0.000115346
-3.82156e-05
3.83984e-05
0.00124143
-0.00126741
-4.72135e-05
-0.000412613
0.00566154
-0.00556513
0.00244971
-0.000369855
0.00223877
-0.000536722
-0.00570649
0.00247938
-0.000133558
0.00576681
-0.00575778
0.00218374
-8.68074e-05
0.00186011
-0.000602474
-0.00625028
0.00205794
-0.000192275
-0.00621423
0.00204212
0.000180991
0.0062064
-0.00625793
0.00183639
0.000169386
0.00158727
-0.000623038
-0.00643978
0.00181237
-0.000359841
-0.00679171
0.00165093
3.2461e-05
-0.00705229
0.0016366
0.000522085
0.00627736
-0.00639621
0.00170777
0.000464358
0.00151691
-0.00105714
-0.0060586
0.00163929
-0.000618707
-0.00666353
0.00162773
-0.000207416
-0.00687234
0.0015351
0.00050701
-0.00689216
0.00161957
0.000440892
0.00657137
-0.00644379
0.00146866
0.000588505
0.00115289
-0.000893256
-0.00519667
0.00129435
-0.000655407
-0.00584254
0.00114787
-8.77867e-05
-0.00682431
0.00107563
0.000280598
-0.00715718
0.0010263
0.00069117
-0.00713035
0.000858959
0.00065101
0.00681941
-0.00691913
0.000599847
0.000431846
0.000297783
-0.000672624
-0.00473508
0.000438167
-0.000605364
-0.00574705
0.000463602
-0.000235395
-0.00622917
0.000334967
0.000138015
-0.00624573
0.000242247
0.000332432
-0.00619829
0.000251602
0.000260201
-0.00561554
0.000202184
9.08265e-06
0.00532918
-0.00542068
0.000319583
-7.36578e-05
0.000196859
-0.000592014
-0.00324403
0.000364697
-0.000479593
-0.00434583
0.000261293
-0.000213411
-0.00492443
9.29066e-05
-4.27723e-05
-0.00521231
5.57877e-05
0.000109622
-0.00524984
-0.000165786
8.60846e-05
-0.00514471
-3.58049e-05
2.30937e-05
-0.00515726
4.25711e-05
-0.000218442
0.00473653
-0.00476991
0.000118022
-0.000228871
-3.00109e-05
-0.000517901
-0.00231065
-3.30706e-05
-0.000419523
-0.00350548
-6.75498e-05
-0.000286089
-0.00431009
-0.000141519
-0.000120332
-0.00427509
-0.000215971
2.38739e-05
-0.00459754
-0.000230729
-5.91215e-05
-0.00473765
-6.28939e-05
1.84885e-05
-0.00401454
-9.81585e-05
-0.000214683
-0.00357921
-0.000149946
-0.000205734
0.00316244
-0.00306545
-4.11735e-05
-6.32523e-05
-5.47465e-05
-0.000222527
-0.0019475
-0.00017665
-0.000292966
-0.00278859
-0.000151042
-0.000215483
-0.00335171
-0.000139812
-0.000139471
-0.00316546
-9.83981e-05
6.0459e-06
-0.00339316
-0.000108952
5.35829e-05
-0.00295286
-7.33761e-05
-4.51076e-05
-0.000638555
-3.34492e-05
-0.000113152
-0.000708721
-4.15544e-05
-4.03361e-05
-0.00147422
-6.74529e-05
-5.5517e-05
0.00204615
-0.00190786
-0.000101349
3.81189e-05
-4.77917e-05
-7.96274e-05
-0.000549047
-6.04139e-05
-0.000113512
-0.00167741
-5.28921e-05
-9.22069e-05
-0.000936093
-3.95558e-05
-8.82858e-05
-0.000615606
-3.35212e-05
-6.21133e-05
0.000266974
-4.28431e-05
-5.5501e-05
0.000560881
-3.8591e-05
-2.41311e-05
5.03706e-05
-2.84991e-05
-2.98903e-05
0.00021497
-3.1419e-05
4.80695e-05
-0.000158
-3.7038e-05
4.6351e-05
-0.00130011
-5.18717e-05
2.50919e-05
0.00145966
-0.00147414
-5.78194e-05
-0.000337549
0.00545294
-0.00547573
0.00279816
-0.000316748
0.00244268
-0.000469904
-0.00558569
0.0026981
-0.000167213
0.00547486
-0.00542584
0.00243434
-5.50536e-05
0.00219624
-0.000618381
-0.00569636
0.0024731
-0.000259204
-0.00561726
0.00240579
0.000166184
0.00588073
-0.00588881
0.00220663
0.000172634
0.00192191
-0.000578528
-0.00623735
0.00206094
-0.000390956
-0.00619224
0.00206707
3.40032e-05
-0.00624404
0.00202669
0.000397876
0.00604329
-0.00605323
0.00197054
0.000283654
0.00161497
-0.00082223
-0.00651479
0.00186943
-0.000480141
-0.00676518
0.00164727
-8.48684e-05
-0.00715606
0.00163215
0.000501082
-0.00644378
0.0016901
0.000224858
0.0063182
-0.00625853
0.00186413
0.00104408
0.00149056
-0.00100568
-0.00596037
0.00171658
-0.000692615
-0.00647232
0.00148529
-0.00016107
-0.00680017
0.00162884
0.000250576
-0.00693527
0.00160824
0.00109095
-0.00679723
0.00157323
0.000680879
0.00658815
-0.00660998
0.00146062
0.000549554
0.000973375
-0.000812754
-0.00499645
0.00119712
-0.000793304
-0.00558655
0.0012263
-0.000214465
-0.00680895
0.00111159
0.000229917
-0.00708564
0.000912185
0.00066504
-0.00693847
0.00050181
0.000665833
-0.00698432
0.000518522
0.000337785
0.00634882
-0.00656025
0.00048257
-1.57291e-05
0.000308914
-0.000783988
-0.00446253
0.000435313
-0.000501052
-0.00560905
0.00032163
-0.000302156
-0.00593365
0.000256827
0.000146204
-0.00611528
1.55426e-05
0.000237666
-0.00600435
-7.97381e-05
0.000349316
-0.00570532
7.81546e-05
0.000142512
-0.00553848
0.000200568
0.000158442
0.00479684
-0.00526598
0.000411844
-0.000248981
0.000182462
-0.000705879
-0.00318019
0.000404769
-0.000557593
-0.00391133
6.82699e-05
-0.0002823
-0.00482868
0.000161757
-6.61839e-05
-0.00505588
-0.00011767
5.69149e-05
-0.00487694
-0.000350153
0.000116118
-0.00520297
-0.000282771
-3.98346e-05
-0.00511211
-2.26307e-05
-0.000282216
-0.00472031
6.04996e-05
-0.000153463
0.00429734
-0.00444431
0.000212726
-0.000304329
4.20713e-06
-0.000466548
-0.00218804
-0.00012121
-0.000527504
-0.00324142
-6.25867e-05
-0.000278618
-0.00408518
-0.000229324
-0.000179076
-0.00413764
-0.000239372
7.7989e-06
-0.00454514
-0.000270124
0.000160098
-0.00493999
-0.000134903
-1.16409e-05
-0.00398821
-0.000122693
-0.000224036
-0.00341067
-0.000155821
-0.000308772
-0.00285205
-9.49129e-05
-0.000345282
0.00267281
-0.00245099
2.67771e-05
-3.14348e-05
-9.76106e-05
-0.000216538
-0.00182205
-0.00018459
-0.000299754
-0.00262386
-0.00015514
-0.000235986
-0.00321243
-0.000146536
-0.000140431
-0.0031369
-0.000116231
2.23948e-05
-0.00345328
-0.00012279
5.84452e-05
-0.00309794
-7.78241e-05
6.0232e-06
-0.000703333
-3.87523e-05
-0.000100814
-0.000623644
-4.76024e-05
-2.92123e-05
-0.00136857
-6.99221e-05
-3.46712e-06
-0.00181184
-0.000113664
-1.46033e-05
0.00128634
-0.00124164
-0.000106358
2.05176e-05
-5.82774e-05
-7.72239e-05
-0.000475798
-6.2196e-05
-0.000126035
-0.00155874
-5.30499e-05
-9.58844e-05
-0.000852793
-4.0308e-05
-9.11106e-05
-0.000529935
-3.41156e-05
-5.24391e-05
0.000328908
-4.30163e-05
-4.86419e-05
0.000605308
-3.86281e-05
-2.21967e-05
6.26528e-05
-2.86767e-05
-2.62194e-05
0.00024365
-3.09596e-05
5.26927e-05
-0.000206851
-3.52608e-05
5.08446e-05
-0.00133757
-5.04145e-05
2.22247e-05
-0.00148457
-6.36655e-05
-4.62396e-05
0.00113612
-0.00109608
-5.1624e-05
-0.000239808
0.00528608
-0.00535739
0.00310181
-0.000226347
0.00275119
-0.000358545
-0.00552967
0.0030974
-0.000102517
0.0053347
-0.00535192
0.00275068
-0.000133973
0.00245151
-0.000520843
-0.00561556
0.00269839
-0.000244435
-0.00539903
0.00265653
0.000129475
0.00547997
-0.00541806
0.00240914
0.0002193
0.00222267
-0.000619885
-0.00565571
0.00246685
-0.000402438
-0.00552595
0.00239327
3.19381e-05
-0.00587678
0.00239582
0.000338712
0.00592282
-0.00592902
0.00227199
0.000342177
0.00196903
-0.000720176
-0.00623781
0.00206258
-0.000602203
-0.00608223
0.00207299
-5.19896e-05
-0.00623006
0.00202021
0.000468097
-0.00610655
0.00211299
0.000413027
0.00576323
-0.00598949
0.00200863
0.00091047
0.00172917
-0.000707164
-0.00662987
0.00188567
-0.000550959
-0.00673838
0.00170097
-0.000181877
-0.00711067
0.00162269
0.000333393
-0.0066787
0.00178426
0.00098897
-0.0063203
0.00185386
0.000408112
0.00648702
-0.00634173
0.00199161
0.000685648
0.00148823
-0.0010374
-0.00580577
0.00173497
-0.000779051
-0.0063374
0.00156741
-0.000308894
-0.00671122
0.00149077
0.000290525
-0.00700111
0.00163407
0.000552822
-0.006576
0.00149922
0.000778526
-0.00666589
0.00151644
0.000295615
0.00619491
-0.00609969
0.00140757
0.0002058
0.0007169
-0.00107191
-0.00468204
0.00119627
-0.00054917
-0.00549696
0.00115564
-0.000394811
-0.00645251
0.000962515
0.000172206
-0.00685898
0.000858932
0.000501081
-0.00664966
0.000359962
0.000769989
-0.00706342
0.000160234
0.000334416
-0.00668695
0.00045332
0.000451792
0.00608027
-0.00641443
0.000523386
-8.9205e-06
0.000388381
-0.000880985
-0.00415834
0.000386872
-0.000610711
-0.00541292
0.0002923
-0.000370473
-0.00569829
0.000174444
0.000296952
-0.00615431
-6.72767e-05
0.000198193
-0.00567205
-0.000458032
0.00040712
-0.00576852
-0.000307542
0.0001322
-0.00572487
9.25063e-05
-0.000119244
-0.00557527
0.000346885
9.81262e-05
0.00471517
-0.00488541
0.000330499
-0.000212866
0.000204081
-0.000703728
-0.00289326
0.00022569
-0.000629482
-0.00364238
0.000237796
-0.000260506
-0.00469116
-8.73703e-05
-0.000134284
-0.00474829
-0.000190632
4.44716e-05
-0.00459727
-0.000434018
0.000474989
-0.00537999
-0.000488021
0.000344332
-0.00551047
-0.000240391
-7.13791e-05
-0.00492973
3.41343e-05
-0.000391315
-0.00443656
0.000135288
-0.000214206
0.00376971
-0.00391258
0.000224513
-0.000318445
7.99277e-05
-0.000439776
-0.00210031
-0.000131377
-0.00045495
-0.00307547
-0.000131967
-0.000319397
-0.00383671
-0.000227648
-0.000168073
-0.00404519
-0.000294129
4.4275e-05
-0.00452408
-0.000282312
0.000219887
-0.00519807
-0.000173488
0.000119231
-0.00407299
-0.000163328
-3.56975e-05
-0.00339968
-0.000198792
-0.000234408
-0.00266617
-0.000136502
-0.000281969
-0.0022618
-5.59961e-06
-9.04852e-05
0.00155877
-0.00147148
1.53697e-05
-1.65687e-05
-0.000101295
-0.00020618
-0.0017114
-0.000178256
-0.000323361
-0.00244956
-0.000161564
-0.000234114
-0.00307483
-0.000154518
-0.000153163
-0.00309165
-0.000129736
5.75362e-05
-0.00353666
-0.000142827
7.96884e-05
-0.00326011
-8.8952e-05
8.46485e-05
-0.000844517
-4.3485e-05
-8.89223e-05
-0.000548878
-5.08152e-05
-4.16379e-06
-0.00128893
-7.03853e-05
1.48754e-05
-0.00172757
-0.000118215
-3.91345e-05
-0.00117002
-0.00012392
-0.000194633
0.000217953
-8.85701e-05
-8.73468e-05
-4.93704e-05
-5.18413e-05
-6.6819e-05
-0.000412064
-6.33909e-05
-0.000129526
-0.0014366
-5.48131e-05
-9.68149e-05
-0.000767813
-4.1215e-05
-9.26254e-05
-0.000442965
-3.46532e-05
-4.27229e-05
0.000380692
-4.31766e-05
-4.05292e-05
0.000641667
-3.8846e-05
-2.16544e-05
7.45469e-05
-2.88678e-05
-2.14945e-05
0.000266875
-3.04071e-05
5.71383e-05
-0.000261799
-3.31492e-05
5.48864e-05
-0.00137948
-4.82422e-05
2.44017e-05
-0.00149603
-6.33563e-05
-4.65182e-05
-0.00105675
-5.64777e-05
-0.000112908
0.000877788
-0.000781096
-3.54085e-05
-0.000145748
0.0049001
-0.00490293
0.00334182
-8.71502e-05
0.0031117
-0.00037997
-0.00533207
0.00343777
2.73092e-05
0.00520293
-0.00530043
0.00306949
-0.000160111
0.00276604
-0.000422568
-0.00556765
0.00309995
-0.000106619
-0.00540489
0.00301256
0.000136407
0.00530484
-0.00527753
0.00271644
0.000184099
0.00247792
-0.000545125
-0.00558843
0.00270364
-0.000285986
-0.00545195
0.00263486
9.48569e-05
-0.00545232
0.00262786
0.000340833
0.00549073
-0.00553348
0.00244978
0.000382104
0.00228682
-0.000615066
-0.00573431
0.00247434
-0.000584405
-0.00548844
0.00241154
-4.45066e-05
-0.00580962
0.00231862
0.00029771
-0.00583608
0.00247328
0.000472481
0.00588175
-0.00595931
0.00229009
0.000519433
0.0020219
-0.00041059
-0.00633062
0.00213658
-0.000635719
-0.00602651
0.00209162
-0.000218074
-0.00614047
0.00201959
0.000476494
-0.00633125
0.00210181
0.00060064
-0.00574322
0.00225505
0.000384636
0.00610128
-0.00606125
0.00199208
0.000398724
0.00197815
-0.000810499
-0.00664922
0.00188415
-0.000652623
-0.00672721
0.00174808
-0.000330827
-0.00701818
0.00163042
0.000342436
-0.00685768
0.00174975
0.000436559
-0.00631661
0.00189683
0.000621598
-0.00649144
0.0021605
5.66035e-05
0.00649444
-0.0062905
0.00202668
0.000170019
0.00145652
-0.00101475
-0.00593391
0.00164774
-0.000662008
-0.00609649
0.00160689
-0.000422896
-0.0066417
0.00152598
6.65218e-05
-0.00699748
0.00159283
0.000679763
-0.00658942
0.00146881
0.000686662
-0.00650562
0.00142229
0.000283103
-0.00619568
0.00166374
0.000324415
0.00694943
-0.00667738
0.0012629
0.000273258
0.000601178
-0.00119328
-0.00434991
0.00120501
-0.000687081
-0.00535098
0.00112667
-0.000529101
-0.00613846
0.00100022
0.000396395
-0.00661645
0.000620543
0.000390807
-0.00628013
0.000296789
0.000595708
-0.00677233
-0.000119716
0.000454304
-0.00695868
0.000109863
9.13828e-05
-0.00665624
0.000484496
0.000187592
0.00543614
-0.00562699
0.000624773
0.000141536
0.000296154
-0.000980885
-0.00379382
0.000401611
-0.000603884
-0.00527195
0.00022031
-0.000344137
-0.0054642
0.000141841
0.000158301
-0.00607949
-0.000192963
0.000256796
-0.00548343
-0.000468223
0.000649004
-0.00576111
-0.000639461
0.000721734
-0.00600342
-0.000406397
0.000403524
-0.00619025
0.000232585
-7.70964e-06
-0.00527833
0.000356191
0.000139177
0.00516793
-0.00539165
0.000200838
-0.000194751
0.000264745
-0.00072476
-0.00269286
0.000313907
-0.000526564
-0.00335223
7.15712e-06
-0.000320245
-0.0043468
-0.000105713
-0.000110546
-0.00462532
-0.000267864
9.20578e-05
-0.00438172
-0.000453964
0.0005265
-0.00564462
-0.000476002
0.000509079
-0.00600733
-0.000381004
0.000372353
-0.00543244
-0.000145735
-0.000208829
-0.00453189
0.00010389
-0.000272695
-0.00397252
0.000185959
-9.0898e-05
0.00365272
-0.00371939
0.000291599
-7.13118e-05
2.85864e-05
-0.000406743
-0.0020011
-0.000180597
-0.000539868
-0.0028619
-0.000128444
-0.000317213
-0.00362118
-0.000264397
-0.000175786
-0.00393187
-0.000318348
7.82957e-05
-0.00452279
-0.000316185
0.000292451
-0.00549723
-0.000195912
0.000298956
-0.00426994
-0.000190853
5.84241e-05
-0.00349364
-0.000216715
-0.000150717
-0.00254952
-0.000168887
-0.0002205
-0.00210506
-5.78688e-05
-0.000140934
-0.00134952
-2.57618e-05
-0.000184369
-0.000376859
0.000517237
-0.000135272
-0.00020672
-8.72869e-05
-0.000162795
-0.00162731
-0.000188354
-0.00033177
-0.00226169
-0.000163886
-0.000242125
-0.00292543
-0.000165651
-0.000160636
-0.0030379
-0.000140259
7.27538e-05
-0.00362047
-0.000161405
9.38425e-05
-0.00343377
-0.000103533
9.4284e-05
-0.00100313
-4.62816e-05
-8.43139e-05
-0.000476308
-5.3235e-05
1.80787e-05
-0.00122937
-7.13153e-05
5.29431e-05
-0.00167536
-0.00012065
-2.7885e-05
-0.00110477
-0.000131178
-0.000187777
3.27076e-05
-0.000103938
-0.000336824
0.000180495
5.68153e-05
-0.000100741
-0.000115149
-3.58137e-05
-7.47083e-05
-0.000339507
-6.49071e-05
-0.000132101
-0.00131213
-5.57616e-05
-9.48081e-05
-0.000685787
-4.20313e-05
-8.78621e-05
-0.000361125
-3.51927e-05
-3.74299e-05
0.000426791
-4.3323e-05
-2.94048e-05
0.000667113
-3.92173e-05
-2.10933e-05
8.59761e-05
-2.91819e-05
-1.75241e-05
0.000285311
-2.97804e-05
5.81628e-05
-0.000319732
-3.06375e-05
5.90023e-05
-0.00142506
-4.65693e-05
2.9265e-05
-0.00151079
-6.27557e-05
-4.00325e-05
-0.00102419
-5.58845e-05
-0.000119827
-0.000679562
-3.81875e-05
-0.000143432
0.00148104
-0.00134596
-2.70602e-05
-3.69879e-05
0.00472795
-0.00475575
0.00361275
-2.41535e-05
0.00332647
-0.000242023
-0.00497811
0.00372913
5.7692e-05
0.00502122
-0.00496259
0.00325281
-6.2215e-05
0.00310076
-0.000464201
-0.00528412
0.00341012
-8.94796e-05
-0.00530718
0.00342738
0.000191956
0.00501827
-0.00507755
0.00307323
0.000194568
0.0027649
-0.00043245
-0.00561185
0.00310176
-8.61833e-05
-0.00549144
0.0029867
0.000129792
-0.00528575
0.00298584
0.000319286
0.00525645
-0.00525652
0.00273806
0.000357257
0.00251749
-0.000504538
-0.00560011
0.00277044
-0.000477505
-0.00550469
0.00264949
3.42655e-05
-0.00547647
0.00258024
0.000144501
-0.00544485
0.00269243
0.000492702
0.00552178
-0.00558927
0.00249705
0.000549349
0.00229146
-0.000395563
-0.00573893
0.00251569
-0.00041921
-0.00564077
0.00241017
-0.0002365
-0.00567685
0.0022972
0.000407383
-0.00587333
0.00242498
0.000449419
-0.00582883
0.00249401
0.000580034
0.00585556
-0.0059804
0.00221953
0.000343359
0.00196875
-0.000530534
-0.00638135
0.00225656
-0.000522938
-0.00610669
0.00208707
-0.000247295
-0.00616529
0.00203291
0.000171198
-0.00623134
0.00209092
0.000707458
-0.00619523
0.00228292
0.000597715
-0.00598686
0.00220454
5.48924e-05
0.00625582
-0.00617994
0.00191791
0.000101131
0.00203299
-0.000615999
-0.00692648
0.00199863
-0.000601154
-0.00669402
0.0017901
-0.000408546
-0.0069207
0.00163624
6.93729e-05
-0.00695504
0.00172493
0.000628336
-0.00640658
0.00189115
0.000483624
-0.0064765
0.00208492
0.000444776
-0.00650439
0.00221273
0.000330202
0.00673716
-0.00666439
0.00194812
0.00033342
0.00142518
-0.00117669
-0.00602443
0.00159956
-0.000728076
-0.00600793
0.00160018
-0.000707265
-0.00637753
0.00152089
1.2615e-05
-0.00662248
0.00153475
0.000586085
-0.00666467
0.00147279
0.000539183
-0.00617755
0.00119726
0.000393421
-0.00604584
0.00133334
5.67573e-05
-0.00651207
0.00153306
0.000115557
0.0069325
-0.00704762
0.00145005
6.60291e-05
0.000559861
-0.00132105
-0.00404252
0.00116187
-0.000746949
-0.00515367
0.00115077
-0.000547623
-0.00591378
0.00110548
0.000172961
-0.0062467
0.000615802
0.000440743
-0.00603346
0.000189926
0.000575821
-0.00624337
-0.000158988
0.000698288
-0.00699268
-6.22751e-05
0.000567992
-0.00691471
0.000203869
0.000277473
-0.00602666
0.000598985
0.00010611
0.00598683
-0.00564746
0.000318464
0.000208855
0.000194245
-0.00103444
-0.00334794
0.000285524
-0.000630599
-0.00503876
0.000272456
-0.00046149
-0.00521694
0.000114286
-0.000257013
-0.00555193
-0.000239253
0.000324733
-0.00538273
-0.000526337
0.000715931
-0.00580404
-0.000614715
0.00087821
-0.00652893
-0.000483082
0.000531569
-0.00658721
-0.00016866
0.000287451
-0.00579797
0.000255952
6.30236e-05
-0.00553402
0.000162836
0.000157163
0.00558982
-0.0058215
0.000184456
3.37797e-05
0.000351738
-0.000663655
-0.00250055
0.000266645
-0.000607633
-0.00308077
0.000110209
-0.000336336
-0.0041682
-0.00015232
-0.000154351
-0.00437688
-0.000375589
7.51679e-05
-0.0042164
-0.000430058
0.000549835
-0.00595152
-0.000404443
0.000558714
-0.00639914
-0.000343948
0.000450521
-0.00589921
-0.00030633
-2.02364e-05
-0.00483209
2.39795e-05
-0.000254306
-0.00396743
0.000132605
-0.000141964
-0.00378347
0.000251069
-0.000206094
0.00298268
-0.00310695
0.000437586
-0.000191169
-0.000147319
-0.000367354
-0.00181545
-0.000209576
-0.00048412
-0.00269276
-0.000197382
-0.000345055
-0.00337774
-0.000268953
-0.000204765
-0.00383202
-0.000320112
7.82537e-05
-0.00450301
-0.000343623
0.000289654
-0.00575288
-0.000256353
0.000448217
-0.00460269
-0.000217093
8.62464e-05
-0.00361186
-0.000243201
9.82904e-05
-0.00268739
-0.00015906
-0.000143221
-0.00200928
-6.8505e-05
-0.000116891
-0.00127437
-4.40146e-05
-0.000172619
0.000662892
-0.000186574
-0.000362588
-0.000486204
0.000597981
-0.000221285
-0.000344713
-0.00011002
-0.000178405
-0.00151989
-0.000203442
-0.000320684
-0.0020937
-0.000167753
-0.000221023
-0.00277998
-0.00018312
-0.00014864
-0.00298882
-0.000153948
7.32326e-05
-0.00369455
-0.000176841
9.93166e-05
-0.00360483
-0.000119069
8.16555e-05
-0.00115934
-5.00681e-05
-8.39084e-05
-0.000402978
-5.32279e-05
5.33796e-05
-0.00120623
-7.15849e-05
8.22234e-05
-0.0016465
-0.000123398
-5.57314e-06
-0.00105008
-0.000140503
-0.000163123
0.000123197
-9.85778e-05
-0.000336197
0.000275729
-0.000106478
-0.000390502
0.00123758
-0.000984914
-0.000106339
-0.00014469
-2.74849e-05
-7.13287e-05
-0.000269516
-6.61518e-05
-0.00012181
-0.00119787
-5.73554e-05
-9.92083e-05
-0.000599457
-4.28832e-05
-8.05364e-05
-0.000286949
-3.56708e-05
-3.66999e-05
0.000471692
-4.3393e-05
-2.60203e-05
0.000689386
-3.95757e-05
-2.04375e-05
9.67962e-05
-2.95999e-05
-1.15048e-05
0.000296667
-2.90327e-05
6.15911e-05
-0.000382892
-2.82117e-05
5.81491e-05
-0.00146957
-4.42741e-05
2.31334e-05
-0.00151791
-6.2577e-05
-2.97778e-05
-0.00100175
-5.54163e-05
-0.00011531
-0.000582875
-3.72614e-05
-0.000154598
-0.0012001
-2.94541e-05
-0.000147877
0.0016446
-0.00149999
-2.37982e-05
5.67683e-05
0.00431495
-0.00433782
0.00387462
-3.38934e-05
0.00367697
-0.000137118
-0.00478005
0.00393437
3.12725e-05
0.00476972
-0.00473867
0.00360812
1.18419e-05
0.00330325
-0.000408522
-0.00493011
0.00374649
-1.50806e-05
-0.0050003
0.00369244
0.000232744
0.00496965
-0.0050149
0.00325727
0.00016094
0.00309164
-0.00034825
-0.00532496
0.00337616
-0.000135778
-0.00529763
0.00345016
0.000136497
-0.00506572
0.00340884
0.000365896
0.00497424
-0.00505495
0.00310733
0.000389551
0.00278592
-0.000516814
-0.00555369