/*--------------------------------*- C++ -*----------------------------------*\
  =========                 |
  \\      /  F ield         | OpenFOAM: The Open Source CFD Toolbox
   \\    /   O peration     | Website:  https://openfoam.org
    \\  /    A nd           | Version:  7
     \\/     M anipulation  |
\*---------------------------------------------------------------------------*/
FoamFile
{
    version     2.0;
    format      ascii;
    class       volScalarField;
    location    "10";
    object      nut;
}
// * * * * * * * * * * * * * * * * * * * * * * * * * * * * * * * * * * * * * //

dimensions      [0 2 -1 0 0 0 0];

internalField   nonuniform List<scalar> 
150000
(
0.000975159
0.00127677
0.000863892
0.00138749
0.00111569
0.00204668
0.001495
0.00164045
0.00135645
0.000817754
0.00145113
0.000326997
0.00150002
0.00112517
0.0013266
0.00221755
0.0054962
0.00260436
0.00156038
0.00132822
0.000448263
0.00262019
0.00117116
0.000791424
0.0015638
0.000417847
0.000295563
0.000271141
0.00153935
0.00109573
0.00165532
0.00158719
0.000937551
0.00168084
0.00205848
0.000776172
0.000950379
0.00094694
0.00194022
0.00132004
0.0010512
0.000291231
0.000471775
0.000499375
0.00214038
0.000887763
0.000710282
0.00159413
0.000487553
0.000366429
0.000170154
0.000165394
0.00022586
0.00156888
0.00105846
0.0022209
0.00170529
0.00102842
0.00182069
0.00288068
0.00214845
0.000929761
0.000955315
0.00154618
0.00132586
0.00078736
0.00070939
0.00109021
0.00106458
0.00365268
0.00252047
0.00109897
0.000970993
0.00027962
0.000404741
0.000528202
0.000501328
0.000623151
0.00149524
0.00101811
0.000680462
0.00151397
0.000542625
0.000198831
0.000214648
0.000179204
0.000233338
9.16513e-05
0.000210997
0.00161048
0.0010592
0.00240964
0.00216099
0.00102496
0.00254291
0.00195461
0.00148418
0.00151755
0.00113184
0.00233311
0.00265338
0.00150604
0.00188205
0.000968102
0.000956459
0.0026235
0.00156745
0.00131085
0.00169876
0.000893336
0.00107881
0.00134975
0.00176204
0.000955032
0.00143769
0.00198013
0.000916219
0.0011927
0.000523005
0.000481496
0.000497137
0.000338454
0.000443783
0.000484342
0.000587464
0.00147723
0.000737954
0.000670853
0.00137264
0.000587806
0.000217363
0.000239765
0.000187898
4.1512e-05
0.00022905
0.000153436
0.000164808
0.000186101
0.00155985
0.000858066
0.00250981
0.0021912
0.000929844
0.00246637
0.00195077
0.000985102
0.000614032
0.00105226
0.00259864
0.00239501
0.00188894
0.00052944
0.00131241
0.00204901
0.00183044
0.0024425
0.00146865
0.000542544
0.00197271
0.000731983
0.000584841
0.000733403
0.0010183
0.00231973
0.00127197
0.0011366
0.000749725
0.000697436
0.00139566
0.000949953
0.00100319
0.000863313
0.00175293
0.00219501
0.00571429
0.00187636
0.000772861
0.00137038
0.000458795
0.000363387
0.000460584
0.000380756
0.000223333
0.000373846
0.000519787
0.000451439
0.000617906
0.000891797
0.000651465
0.000660673
0.00118895
0.000630028
0.000291625
0.000196087
8.59013e-05
5.35457e-05
1.99359e-05
3.48477e-05
0.000138643
0.000103188
0.000112821
0.000168168
0.00142394
0.000650803
0.00236334
0.00241412
0.000436684
0.00268295
0.0021298
0.00125801
0.00112637
0.000873044
0.00246211
0.00200329
0.00136152
0.000696593
0.000480314
0.000336285
0.000461572
0.0030712
0.00252708
0.00137203
0.000827671
0.000817507
0.000810373
0.00136255
0.00156005
0.00175487
0.00372936
0.00109984
0.000933386
0.000952104
0.000575692
0.000971775
0.000829519
0.000558988
0.000485024
0.000736374
0.00115612
0.00118386
0.000947848
0.0010308
0.000722699
0.00128545
0.000833385
0.000998975
0.000875106
0.000951076
0.000843615
0.00141307
0.00174544
0.00115577
0.00162929
0.00066358
0.00127628
0.000245212
0.000406669
0.000554167
0.000419264
0.000138961
0.000261359
0.0002016
0.000290532
0.000421958
0.000478484
0.000635417
0.000599347
0.000776148
0.000638726
0.000970589
0.000671064
0.000114692
0.000260296
0.000338164
5.16975e-05
5.57562e-05
8.20643e-05
8.08059e-05
2.36193e-05
0.000118509
0.000133573
8.81909e-05
8.63616e-05
0.00124188
0.000533977
0.00269094
0.00243225
0.000726997
0.00298038
0.00232456
0.000548326
0.000737576
0.000616545
0.00254496
0.00240664
0.00143874
0.000819164
0.000589069
0.00100035
0.000742283
0.00271851
0.00251784
0.00144267
0.000338962
0.00054297
0.000910047
0.000324483
0.000676323
0.000383603
0.00283817
0.00234648
0.00111341
0.000400809
0.000546678
0.000691239
0.000845695
0.000792971
0.000559076
0.000865061
0.00120297
0.00360111
0.000705985
0.000866295
0.00104735
0.000671786
0.00109224
0.000770064
0.00109404
0.000814057
0.000823403
0.000391461
0.00113664
0.00103625
0.00214946
0.000832052
0.00117307
0.000710487
0.000749277
0.000798289
0.000785915
0.000732896
0.000388114
0.000907787
0.00126395
0.00157213
0.00125628
0.00143324
0.000821119
0.00106236
0.000545136
0.000961064
0.000509659
0.000601697
0.000566018
0.00047153
0.000258274
0.000139073
0.00032891
0.000192503
0.000105546
0.00029435
0.000329591
0.000501661
0.000632036
0.000702561
0.000726875
0.000598879
0.000744032
0.000702097
0.000162501
0.000229734
0.000172292
4.05386e-05
0.000109047
0.000174027
0.000168106
0.000106682
5.59504e-05
1.59331e-05
0.000129162
7.88058e-05
7.76801e-05
0.000167954
0.00102237
0.000452785
0.00204739
0.00225881
0.000576358
0.00251226
0.0023004
0.0009775
0.00054937
0.000949286
0.003223
0.00237062
0.000806934
0.000896124
0.000632037
0.000439069
0.00102291
0.00295973
0.00188299
0.00121483
0.00105287
0.000892552
0.000243875
0.000707166
0.00100427
0.000720423
0.00285051
0.00196118
0.00140551
0.000506122
0.000349722
0.000494246
0.000439396
0.000919353
0.000658329
0.000609775
0.00105659
0.00286279
0.00193577
0.000955135
0.000624093
0.0003639
0.000917451
0.000878507
0.000575252
0.000837836
0.000527608
0.000497168
0.000598466
0.00154021
0.00239715
0.000970598
0.000769589
0.00114731
0.000807693
0.00113608
0.00099821
0.000954675
0.00120076
0.00142859
0.00065745
0.000815004
0.000839494
0.000949114
0.000872692
0.00197453
0.000771964
0.000807822
0.000572047
0.00063491
0.000781489
0.000721203
0.000948386
0.000409085
0.000306896
0.000381018
0.000771734
0.000856871
0.000722333
0.0011271
0.0010214
0.0019578
0.00119431
0.00050085
0.000654125
0.000706084
0.000370202
0.000532056
0.000300088
0.000234932
0.000226215
0.000335811
0.000342333
0.000280172
0.000157452
0.000102489
0.000318538
0.000346683
0.000435982
0.000638657
0.000637236
0.000755627
0.000545595
0.00052508
0.000634492
0.000145553
0.000179576
9.6985e-05
0.000272937
9.44772e-05
0.00017106
0.000166878
0.000248676
0.000162133
0.000129956
0.000119806
5.66134e-05
9.10257e-05
8.73903e-05
7.56132e-05
8.8307e-05
0.000760013
0.00024212
0.00202839
0.00221587
0.000586055
0.00229937
0.00261397
0.000851839
0.000662442
0.00116802
0.00246857
0.00244957
0.00114988
0.00042171
0.000579407
0.000766034
0.000655169
0.00268092
0.0023407
0.000417707
0.000783189
0.000395398
0.000283699
0.000924147
0.00112952
0.00119536
0.00305907
0.00194164
0.00106264
0.00107982
0.000585515
0.000296671
0.000288426
0.0011857
0.00125163
0.0008678
0.00111126
0.00274514
0.00263965
0.00135986
0.00073351
0.000254086
0.000628787
0.000332812
0.000604119
0.000941228
0.000771089
0.000735479
0.000400394
0.0013011
0.00328882
0.00224497
0.00110783
0.000731571
0.00101133
0.00148712
0.00125754
0.000332359
0.00123364
0.000772485
0.000701891
0.000726108
0.000628909
0.000767927
0.00146334
0.00342371
0.0012928
0.000915491
0.000635487
0.00118387
0.00152186
0.00104087
0.00104019
0.0012328
0.000809695
0.000999825
0.00112476
0.000690453
0.000861824
0.001017
0.000665282
0.000933341
0.00189512
0.000848862
0.000283923
0.000632044
0.000787604
0.000618564
0.000734394
0.000801123
0.0004654
0.000273185
0.000289452
0.000268319
0.000462199
0.000697418
0.000782534
0.000753524
0.000968721
0.000991405
0.0010836
0.00144842
0.000498596
0.000437109
0.000413181
0.0010394
0.000692439
0.000443769
0.000116206
0.000280292
0.000342961
0.000215644
0.000550606
0.000279491
0.000241912
0.000208135
0.000128791
0.000260879
0.000391203
0.000404627
0.000637963
0.000724355
0.000546878
0.000488852
0.000383777
0.000419423
0.000228012
0.000210522
0.000455034
9.51224e-05
0.000191524
6.00618e-05
0.000173913
0.000318834
0.000165502
0.000196599
0.000195992
0.000131087
8.61764e-05
7.10194e-05
7.02522e-05
0.0001308
6.60571e-05
0.00011889
0.000464037
0.000238509
0.00227199
0.00207993
0.000534865
0.0021727
0.00221468
0.000459172
0.000633742
0.000644536
0.00220669
0.00242926
0.000971577
0.000357198
0.000495831
0.00108791
0.000735281
0.00254304
0.00220997
0.000770816
0.00117169
0.000699828
0.000777896
0.00060589
0.00039824
0.00161643
0.00287453
0.00228912
0.000670833
0.000904115
0.000524325
0.000564126
0.000693648
0.000947107
0.000864336
0.000991507
0.00121777
0.00304618
0.00219349
0.00109825
0.00107788
0.000576413
0.00040801
0.000476776
0.000450838
0.000787036
0.000884688
0.000792246
0.000851309
0.00077991
0.00303982
0.00377064
0.00140411
0.000358718
0.00049641
0.000944752
0.000612281
0.000479814
0.000949409
0.000495268
0.000764903
0.0004246
0.00037726
0.000724375
0.00184804
0.00333898
0.00214128
0.00118936
0.00183231
0.00179986
0.0016135
0.00100994
0.000321802
0.00119982
0.00108024
0.0014724
0.000962371
0.00083887
0.000982711
0.00100781
0.000727107
0.00105895
0.0030495
0.00104909
0.000831076
0.000706341
0.00166019
0.00156641
0.00140516
0.00101895
0.00120123
0.000890953
0.000629015
0.000607948
0.000960849
0.00138431
0.000593972
0.000786523
0.000916968
0.000656593
0.00051898
0.00277367
0.000846925
0.000244426
0.000512583
0.000558355
0.000842976
0.000769223
0.000515058
0.000660135
0.000355515
0.000294218
0.000404017
0.000269134
0.000261598
0.000343429
0.000660967
0.000703926
0.00064199
0.000863985
0.000884107
0.000646683
0.00179517
0.000495134
0.000452881
0.000378357
0.000857667
0.000521812
0.000264598
0.000271795
0.000297295
0.000235487
0.000305912
0.000624093
0.000531273
0.000336846
0.000286627
0.000222212
0.000162572
0.000161827
0.000470107
0.000296869
0.000362289
0.000635785
0.00066902
0.000468409
0.000432289
0.000423151
0.000505021
0.000172887
0.000241816
0.00011304
0.00021834
0.000140783
0.000134402
0.000272294
0.000386359
0.000179675
0.000110788
0.000174311
0.000139469
0.000236492
0.000220774
0.000105851
4.59395e-05
0.000117634
0.00014988
7.63417e-05
0.000129293
0.000273777
0.000368042
0.00220286
0.0020816
0.000721436
0.00254948
0.00201341
0.000445697
0.000546506
0.000451871
0.00224211
0.00216079
0.000593214
0.000478315
0.000328146
0.000689709
0.000814704
0.0021562
0.00229875
0.00134991
0.000528614
0.000648014
0.000524179
0.000619041
0.00120079
0.000576172
0.00243993
0.00215937
0.000320552
0.00100583
0.000584375
0.000732972
0.000860397
0.00054982
0.000956858
0.000985809
0.00146775
0.00295852
0.00242037
0.0010004
0.000876943
0.000918282
0.000303215
0.000689621
0.000443314
0.000339417
0.00102516
0.000510356
0.000861499
0.00114916
0.0030667
0.00221071
0.00148587
0.000706788
0.000638673
0.000242381
0.000605766
0.00036726
0.00044818
0.000624406
0.000939863
0.00104841
0.000917586
0.00109002
0.000978182
0.00275931
0.00340181
0.00141032
0.000975255
0.000538775
0.000713412
0.000893657
0.000635675
0.00116326
0.000775483
0.000261587
0.00101581
0.00061253
0.000495266
0.000444621
0.000782978
0.00160385
0.00347628
0.00192259
0.00112269
0.00212711
0.00137216
0.0010204
0.00123097
0.000481729
0.000853677
0.000992719
0.000810585
0.00109047
0.00110541
0.000684194
0.000761953
0.000952323
0.00114147
0.000636517
0.00102925
0.00376483
0.000844732
0.00119825
0.000869868
0.00138989
0.000930209
0.00107016
0.00111536
0.000999958
0.00106804
0.000396332
0.000746432
0.000837111
0.000720356
0.00103114
0.00129548
0.000504478
0.000863953
0.00098344
0.000362435
0.000750638
0.00249779
0.000786151
0.000296155
0.000454204
0.000435059
0.000633853
0.000798008
0.000388769
0.000702456
0.000349923
0.000250446
0.000296895
0.000251171
0.000206431
0.000171049
0.000565724
0.000223941
0.000607488
0.000741637
0.000640496
0.000808245
0.000696301
0.000633334
0.00209151
0.000491582
0.000513101
0.000528021
0.00037111
0.000376332
0.000308363
0.000222652
0.000299187
0.000290005
0.000318663
0.00038631
0.000499334
0.000431481
0.000681311
0.00040061
0.000300337
0.000179353
0.000138735
0.000109799
0.000272538
0.000245842
0.000375103
0.000625461
0.000485768
0.000461887
0.000375037
0.000432101
0.000320459
0.000241654
0.00024637
0.000167817
0.000213656
0.000177969
0.000150561
0.000211053
0.000412275
0.000213303
0.000105365
0.000269823
0.000165309
0.000178422
0.000105406
3.89983e-05
0.000160126
6.34966e-05
3.60382e-05
0.000114746
0.000114137
5.98752e-05
0.000120404
0.000204632
0.000149409
0.00234085
0.00239434
0.000453922
0.00238818
0.00213919
0.000539089
0.000313987
0.000545044
0.00230173
0.00207751
0.000451994
0.000497495
0.000530392
0.000473723
0.000611197
0.00228919
0.00228527
0.0004806
0.000594623
0.000546578
0.000492607
0.000591517
0.000658427
0.00075325
0.00226261
0.00250039
0.00126351
0.00050239
0.000468489
0.000583262
0.000673443
0.000646513
0.000585243
0.00108481
0.00142213
0.00246687
0.00203026
0.000460451
0.000463445
0.000362408
0.000434365
0.000984189
0.00045851
0.000879906
0.000826712
0.000783502
0.000881057
0.00104
0.00223775
0.00260534
0.00109349
0.000757486
0.000879772
0.000494298
0.000705568
0.000779993
0.000587314
0.000559715
0.00035961
0.000363351
0.00128077
0.00183713
0.00129547
0.00262188
0.00235374
0.00108805
0.000999477
0.000828999
0.000576564
0.000513604
0.00084505
0.000942573
0.000339833
0.000148897
0.000608305
0.000175445
0.000837964
0.0012353
0.0017617
0.00107471
0.00260387
0.00306495
0.00102172
0.00109621
0.000549721
0.000587649
0.000680119
0.000877597
0.00111805
0.000798847
0.000472303
0.000427945
0.00047446
0.000851998
0.000706538
0.000379773
0.000582658
0.000538931
0.00146406
0.00362127
0.00201028
0.000841431
0.00100819
0.00119424
0.000709283
0.00159694
0.000482064
0.000661838
0.00107843
0.000924625
0.000882105
0.000835482
0.00102948
0.00100373
0.000690987
0.000828391
0.000827642
0.000949042
0.00082286
0.00110669
0.00387867
0.0010192
0.0010687
0.000788306
0.000625711
0.00106073
0.000938863
0.000828391
0.000995602
0.000983401
0.00110343
0.000703994
0.000888687
0.00091016
0.000663249
0.000659232
0.000639649
0.00110652
0.000859723
0.000729748
0.000797654
0.00031537
0.00146246
0.00165447
0.000688555
0.000388526
0.000312602
0.000992064
0.000906772
0.000526155
0.00035911
0.000642798
0.000323761
0.000348457
0.000310153
0.000326699
0.000577649
0.000395165
0.000102312
0.000180702
0.000449556
0.000245739
0.000540344
0.000509613
0.000605728
0.000690728
0.000739647
0.000933508
0.00210468
0.000495227
0.000468058
0.000543995
0.000318052
0.000477965
0.000199646
0.000175878
0.000293588
0.000500016
0.000428026
0.000439924
0.00039778
0.000291328
0.000503204
0.000659403
0.000619579
0.000335068
0.000422207
0.00016935
0.000231427
7.87422e-05
0.000153026
0.000198333
0.000431304
0.000557308
0.00047765
0.000450646
0.000317316
0.000390542
0.000317866
0.000281026
0.000245648
0.00019975
0.000260782
0.000159836
0.00022555
0.000213532
0.000417714
0.000217209
0.000100111
0.000253998
0.000182461
0.000279649
0.000205796
0.00017299
0.000120259
8.34836e-05
7.98561e-05
6.31268e-05
3.20512e-05
0.000150229
0.000165218
4.76787e-05
0.000119971
0.000172124
0.000130105
0.00218032
0.0022021
0.000347003
0.0023963
0.00228266
0.000430044
0.000201269
0.000274293
0.00243975
0.0021183
0.000475962
0.000444075
0.000205163
0.000450945
0.000699954
0.00241408
0.0019451
0.000576324
0.000470143
0.000562843
0.000431938
0.000403273
0.000556451
0.000610118
0.00234798
0.0021493
0.000548775
0.000691539
0.000641539
0.000372027
0.000724844
0.000532735
0.000850307
0.000791999
0.00107853
0.00215735
0.0022678
0.000961068
0.000528318
0.000455121
0.000758556
0.000991051
0.000839246
0.000781348
0.000852191
0.000724709
0.000936906
0.00133402
0.00225099
0.00212477
0.000930976
0.000473593
0.000537219
0.000784683
0.000790439
0.000661637
0.000589575
0.000782559
0.000657088
0.000864029
0.00076572
0.000738931
0.0010096
0.00264285
0.00237719
0.00058612
0.00119186
0.000691666
0.000636065
0.000320213
0.000902155
0.000455723
0.000769012
0.000660477
0.00041402
0.000689482
0.000689572
0.000994306
0.00125583
0.00188931
0.0031607
0.00254132
0.000883078
0.000875319
0.000853233
0.000401065
0.000580445
0.000978038
0.000769436
0.000646013
0.00036842
0.000347586
0.000460685
0.000337056
0.000140126
0.000752432
0.00157207
0.00191484
0.00115845
0.00239766
0.00282047
0.000761309
0.000704167
0.00046662
0.000454823
0.000445579
0.00077042
0.000599089
0.000397279
0.000251226
0.0006352
0.000248968
0.00063238
0.000499158
0.00118068
0.000715044
0.000417793
0.000670072
0.000669212
0.001772
0.00380428
0.0019023
0.000798111
0.000816584
0.00119823
0.00128364
0.00159349
0.000857667
0.000594504
0.000754683
0.00135769
0.000560624
0.00115704
0.00102612
0.000810336
0.00102526
0.000792425
0.000811838
0.000883239
0.00100342
0.0010475
0.00108459
0.00159708
0.00367175
0.00108353
0.000502177
0.000418733
0.000603545
0.00164949
0.000744184
0.000887225
0.000830578
0.00128968
0.000944189
0.000786309
0.000595957
0.000535467
0.000335262
0.000666468
0.000718015
0.000601085
0.00067467
0.00127509
0.00119487
0.000481473
0.000532082
0.000710774
0.00106893
0.00264561
0.000582358
0.000597602
0.00027907
0.000858655
0.000519406
0.000521254
0.000413633
0.000520991
0.000484815
0.000129213
0.000358284
0.000591982
0.00116126
0.000931179
0.000253843
0.000321106
7.87418e-05
0.000111711
0.000324814
0.000176713
0.000469993
0.000433932
0.000443769
0.000620897
0.000654263
0.00100732
0.001814
0.000495558
0.000474645
0.000721997
0.000428161
0.000289926
0.00024701
0.000280504
0.000251412
0.000727896
0.000640367
0.00062148
0.000364419
0.000275187
0.000343803
0.000568059
0.000733597
0.000657203
0.000305388
0.000363302
0.000377145
0.000233644
0.000210211
0.000169879
0.000398499
0.00016586
0.0005045
0.000512178
0.000507035
0.000492238
0.000306584
0.000383713
0.000416775
0.000126314
0.000261252
0.000120941
0.000441189
0.000193152
0.000316583
0.000330426
0.000361269
0.000161335
9.50973e-05
0.00019491
0.00016277
0.000172549
0.000224069
0.000289889
0.000219892
0.000188342
5.40552e-05
7.04987e-05
0.000130105
6.83679e-05
0.000111245
9.34322e-05
0.00017422
4.09136e-05
0.000128044
0.00022205
0.000494312
0.00225073
0.00229282
0.0005403
0.00238022
0.00228661
0.000384422
0.000477473
0.000402597
0.00237365
0.00224605
0.000278401
0.000428724
0.000546961
0.000259797
0.000334822
0.00229055
0.00212977
0.000564382
0.00036109
0.000374405
0.000334774
0.000314546
0.000393296
0.000701061
0.0023752
0.00213224
0.000602409
0.00041956
0.000643407
0.000426417
0.000407936
0.00047859
0.000607348
0.000590809
0.00043676
0.00235055
0.00238132
0.000737254
0.000694201
0.00062994
0.000364635
0.00058818
0.00043686
0.000510245
0.000753755
0.000610864
0.000692664
0.000702742
0.00225905
0.00236682
0.000923981
0.00057023
0.000526233
0.000315583
0.000618308
0.000661905
0.000720093
0.000387739
0.000897848
0.000850821
0.000724036
0.000773599
0.0012091
0.00227721
0.00222552
0.000383128
0.000433051
0.000671379
0.000404228
0.000645095
0.00069064
0.000580814
0.000446635
0.000575514
0.000937768
0.000768252
0.000768421
0.00069938
0.00125359
0.00148673
0.00254479
0.00266467
0.000571876
0.00100024
0.000814078
0.000527003
0.000393219
0.000428179
0.000423332
0.000526167
0.00021085
0.000452199
0.000607711
0.00044386
0.000901303
0.00120511
0.00140229
0.000719988
0.00117713
0.00313417
0.00244154
0.00100564
0.000972495
0.000687133
0.000634732
0.000561959
0.000503736
0.000576391
0.000419853
0.00062201
0.000329959
0.000396728
0.00050677
0.000335275
0.000448268
0.000788409
0.00104258
0.000759956
0.000813745
0.00202946
0.00245984
0.0028044
0.000719556
0.00109901
0.000568904
0.000901654
0.00090972
0.000785678
0.000361743
0.000471268
0.000809635
0.000720836
0.0007249
0.000421848
0.000483746
0.000769659
0.000748785
0.000946418
0.000514087
0.000724222
0.000600226
0.000747077
0.00320301
0.00424392
0.00177494
0.000722457
0.000665062
0.00178855
0.00153545
0.00125382
0.00140703
0.000770057
0.000894514
0.00108532
0.000966838
0.000828532
0.000816391
0.000819375
0.000978117
0.000844948
0.000931984
0.000870483
0.000717031
0.00064654
0.00105425
0.00111714
0.000962567
0.00125831
0.00554777
0.00107822
0.000503105
0.00018923
0.000429688
0.000557669
0.00140772
0.000842406
0.000700796
0.00107079
0.000678287
0.00114279
0.000355151
0.000459545
0.000893623
0.000901862
0.000713816
0.000492916
0.000503513
0.000747099
0.000838772
0.00110444
0.00122959
0.000594284
0.000808937
0.000893899
0.00133337
0.00197078
0.000488382
0.000675705
0.000398293
0.000455717
0.000737654
0.000257536
0.000325042
0.000466358
0.000555272
0.000746431
0.000348965
0.000623021
0.000627091
0.00127023
0.000949531
0.000280508
0.000588414
0.000644548
9.94176e-05
9.35472e-05
0.000225159
0.00012119
0.000309689
0.000628245
0.000436171
0.000519311
0.000440563
0.000976303
0.00162414
0.000526151
0.000518517
0.00048149
0.000338591
0.000307163
0.000237069
0.000403814
0.000279159
0.000650066
0.000386213
0.000806524
0.000221742
0.000268269
0.000304971
0.000617618
0.000587409
0.000468483
0.000636911
0.000517684
0.000369337
0.000274406
0.000398298
0.000173303
0.000186725
0.000132491
0.000236631
0.000381802
0.000516187
0.000578496
0.000490338
0.000569139
0.0003534
0.000366706
0.000382356
0.000168417
0.000306049
0.000107965
3.2489e-05
0.000253489
0.000233209
0.000423188
0.000349507
0.000167574
9.15472e-05
0.000113372
0.000291468
0.00022069
6.43479e-05
0.000227496
0.000198307
0.000283395
0.000255156
0.000171335
0.000105605
0.000119644
9.82647e-05
6.49746e-05
0.00012422
7.00013e-05
0.000128303
3.1592e-05
0.000131481
0.000215782
0.000175187
0.0019992
0.00223601
0.000601481
0.00235719
0.00239317
0.000549228
0.000432284
0.000520194
0.00242377
0.00226771
0.000227615
0.000485185
0.000491123
0.000474036
0.000418325
0.00239843
0.00222644
0.000429239
0.000189052
0.000594275
0.000335554
0.000395728
0.000296401
0.00049977
0.00223313
0.00215217
0.00049548
0.000271702
0.000376148
0.000251898
0.000290457
0.00045718
0.000414511
0.000307762
0.000497113
0.00239539
0.00211687
0.000695739
0.00057974
8.64227e-05
0.000611449
0.000525217
0.000681328
0.00057056
0.000428708
0.000490934
0.00037402
0.000563971
0.00228978
0.00222247
0.000833959
0.000408579
0.000446005
0.000435238
0.000449215
0.000664635
0.000442853
0.000857026
0.000618566
0.000572896
0.000663577
0.000723825
0.000546639
0.00214322
0.00239694
0.00105046
0.000510722
0.000558389
0.000186582
0.000514832
0.00102588
0.000608375
0.000505335
0.000743444
0.000756674
0.000871709
0.000808043
0.000811539
0.000798638
0.00110268
0.00258756
0.00211784
0.000424844
0.000527761
0.000307218
0.000948766
0.000914393
0.000830903
0.000613991
0.00056329
0.000559921
0.00066743
0.000575961
0.000425882
0.000817212
0.00124585
0.000511985
0.000852252
0.00103957
0.00255973
0.00312084
0.000805903
0.00121304
0.000569449
0.000705418
0.00109944
0.000504874
0.000401983
0.00062102
0.000436031
0.000452168
0.000726857
0.000327226
0.000650442
0.000679308
0.00079498
0.000746644
0.000687274
0.000785211
0.00119064
0.00289498
0.00231345
0.00100952
0.00068369
0.000865385
0.000741271
0.000566072
0.000592169
0.000273272
0.000390074
0.000492185
0.000653689
0.000644427
0.000638286
0.000677181
0.000564288
0.000552493
0.00044426
0.00077994
0.000780915
0.000965343
0.0015108
0.00149423
0.00287548
0.00232569
0.00150478
0.00241556
0.00178772
0.00145608
0.00133735
0.00124004
0.000549132
0.000453026
0.000500252
0.000768362
0.000642655
0.000643107
0.000586114
0.000312818
0.000558827
0.000438835
0.0015154
0.000754249
0.000427053
0.000570056
0.00074028
0.00245831
0.00436598
0.00311667
0.00193303
0.000488599
0.00129109
0.00136314
0.00180555
0.00127432
0.00175956
0.00103075
0.000812149
0.00145759
0.000753748
0.000890526
0.000756585
0.00108093
0.000848354
0.000777979
0.000734216
0.000857732
0.000845307
0.000786844
0.000854969
0.00105457
0.00084258
0.000664094
0.00131412
0.00162004
0.00373792
0.00118062
0.000594784
0.00037885
0.000451913
0.00126267
0.000932563
0.000685036
0.000662679
0.00076793
0.00144026
0.000524167
0.000787018
0.000203699
0.000526119
0.000954593
0.000798787
0.000908761
0.000893993
0.000529837
0.00048124
0.000740187
0.000633509
0.000861349
0.000997211
0.000738018
0.00052961
0.000909105
0.00112759
0.00114488
0.000536356
0.000514809
0.000383194
0.00067555
0.000479522
0.000287055
0.000291687
0.000364199
0.000550556
0.000670592
0.000578381
0.000865117
0.000256267
0.000488893
0.000547335
0.000415707
0.000635174
0.000555734
0.000742035
0.000455707
0.000314344
0.000235101
0.000259891
0.000103159
0.000439478
0.000491165
0.000546438
0.000491713
0.000585483
0.000998103
0.00160313
0.00047453
0.000578715
0.000415653
0.000467729
0.000393637
0.000344049
0.000439885
0.00039544
0.000232348
0.000482994
0.00056576
9.47481e-05
0.000274601
0.000243516
0.000474691
0.000511661
0.000385018
0.000608022
0.00041615
0.000377507
0.000598179
0.000336546
0.000323535
0.000406152
0.000212248
0.000202636
0.000120389
0.000145859
0.000127679
0.00052964
0.000577735
0.000461406
0.000504449
0.000420332
0.000350489
0.000403566
0.000186857
0.00038657
0.00016616
9.67809e-05
0.000202968
0.000351868
0.000536894
0.000341701
0.000182551
0.000146624
7.03851e-05
0.000292802
0.000118762
0.000170234
0.000243211
0.000229526
0.000183027
0.000239722
0.000271509
0.00029603
0.00014871
8.84636e-05
0.000142471
9.50629e-05
0.000111345
2.97835e-05
0.000143118
0.000118964
5.20446e-05
0.000126292
0.000133378
9.87777e-05
0.00195573
0.00198156
0.000570932
0.00211562
0.00224819
0.000419105
0.000406377
0.000483771
0.00240503
0.00228643
0.000433922
0.000426945
0.000548207
0.000377743
0.000673518
0.00244727
0.0022002
0.000408104
0.000331211
0.000385322
0.000586668
0.000440103
0.000413331
0.000477844
0.00238116
0.00223946
0.000509655
0.000294125
0.000283888
0.00045581
0.000216028
0.000215119
0.000446842
0.000210408
0.000379594
0.00222629
0.00205498
0.000432634
0.000387018
0.000268519
0.000350832
0.000280873
0.000316788
0.000197073
0.000510789
0.000376759
0.0002942
0.000305229
0.00231688
0.0022552
0.000755788
0.000469298
0.000594338
0.000434781
0.000469472
0.000835223
0.000346137
0.000420842
0.000649411
0.00060948
0.000327554
0.000294986
0.000474102
0.00237288
0.00228799
0.000692685
0.000476154
0.000801664
0.000646483
0.000448288
0.000862084
0.000335701
0.000623442
0.000882695
0.000601426
0.000431769
0.000462965
0.000502653
0.000680533
0.000510831
0.00212481
0.00223005
0.000673713
0.000691645
0.000405622
0.000820382
0.000592046
0.00054327
0.000537406
0.000750619
0.000359818
0.00054919
0.000666442
0.000795508
0.00107425
0.00067609
0.000763506
0.000676663
0.00116701
0.00229362
0.00212265
0.000340308
0.00062143
0.000531359
0.000995594
0.000983109
0.000614403
0.000662863
0.000750271
0.000314833
0.000355627
0.000771634
0.000727631
0.000453064
0.000693036
0.000707187
0.000920173
0.00106125
0.00106905
0.00122878
0.00248711
0.0028784
0.000948935
0.00164534
0.00118438
0.000725633
0.00084084
0.000875919
0.000573115
0.000421283
0.00063183
0.000569278
0.000386203
0.000548612
0.000192142
0.000290629
0.000454893
0.000793652
0.000803456
0.000516756
0.00035694
0.00111587
0.00144936
0.00295105
0.00291793
0.00144391
0.00153447
0.000738239
0.000411853
0.000503934
0.000478381
0.000110667
0.000445595
0.000479458
0.000356279
0.000676697
0.000695138
0.00073287
0.000648068
0.000453072
0.000406299
0.000498754
0.000484137
0.000211812
0.000385326
0.000957323
0.00136265
0.00154761
0.00310636
0.00315835
0.00159342
0.00158436
0.00175502
0.000970791
0.00108568
0.00160248
0.000348041
0.000414633
0.000483681
0.000613664
0.000392123
0.000534513
0.000704963
0.000436491
0.000605318
0.000551321
0.000740624
0.000648483
0.000950907
0.00089301
0.000644785
0.00074489
0.00121811
0.00298046
0.00284356
0.00335818
0.00217288
0.000912783
0.00165513
0.00108354
0.00101303
0.00123354
0.0015091
0.00156479
0.000889948
0.000845995
0.000758821
0.000765358
0.00076612
0.00108806
0.00075523
0.000854252
0.00114683
0.000986336
0.000866656
0.000756001
0.000786705
0.000704116
0.000938907
0.00115938
0.000880547
0.000745552
0.000909199
0.00215237
0.00339472
0.00132111
0.000435475
0.000263121
0.000463874
0.00141183
0.00102034
0.000764415
0.000779527
0.000454232
0.000752534
0.000626524
0.00096939
0.000617243
0.00046281
0.000592584
0.000610821
0.000885996
0.000916761
0.000595546
0.000674277
0.000404314
0.00055122
0.000592996
0.000495842
0.000629503
0.000794485
0.000856316
0.00068144
0.000937685
0.00110494
0.00131078
0.000613038
0.000450832
0.000347626
0.000636605
0.000243211
0.000441449
0.000255069
0.000309923
0.00043166
0.000317748
0.000930885
0.000442896
0.000162996
0.000409549
0.000585555
0.000414957
0.00026544
0.00041442
0.000276487
0.00044887
0.000427281
0.000385732
0.000254808
0.000243719
0.000306073
0.000255902
0.000419448
0.000408757
0.000547174
0.000587601
0.000692131
0.00101537
0.00182198
0.000439108
0.000635694
0.000612387
0.000660082
0.000277317
0.000177986
0.000716796
0.000605526
0.000505173
0.00073409
0.000327599
0.000117254
0.000287595
0.000258414
0.000387113
0.000368123
0.000148492
0.000309733
0.000616166
0.000480375
0.000367578
0.000439121
0.000736181
0.000364216
0.000362642
0.000275266
0.000239399
0.000182593
4.94353e-05
0.000253292
0.000148045
0.000556554
0.000526617
0.000458117
0.00048098
0.000459428
0.00034207
0.000416871
0.000160709
0.000459654
0.000250098
0.000159667
0.000278012
0.000439344
0.000514687
0.000289482
0.000150203
0.000174753
5.98724e-05
0.000176859
0.000141195
0.000109801
0.000280903
0.000195966
0.000222677
6.13079e-05
0.000125849
0.000254949
0.000227878
0.000329783
0.000133126
4.6591e-05
0.000156371
0.000140265
0.00011921
3.08999e-05
0.000166177
0.000121308
5.10432e-05
0.000136472
0.000195692
9.826e-05
0.00201697
0.00196878
0.000393815
0.00208903
0.00202648
0.000472736
0.000180218
0.000611125
0.00210931
0.0022637
0.00032513
0.000400235
0.000536332
0.000535333
0.000529309
0.00233855
0.00228688
0.00056681
0.000546235
0.000555171
0.000440302
0.000386314
0.000362115
0.000592367
0.00249017
0.00222271
0.000483485
0.000458584
0.000388886
0.000573074
0.000393247
0.000405292
0.00071834
0.000407926
0.000426471
0.00238089
0.00223448
0.00040881
0.000442077
0.000324935
0.000436904
0.000225228
0.000273992
0.000304795
0.000457126
0.000248739
0.000257028