/*--------------------------------*- C++ -*----------------------------------*\
  =========                 |
  \\      /  F ield         | OpenFOAM: The Open Source CFD Toolbox
   \\    /   O peration     | Website:  https://openfoam.org
    \\  /    A nd           | Version:  7
     \\/     M anipulation  |
\*---------------------------------------------------------------------------*/
FoamFile
{
    version     2.0;
    format      ascii;
    class       volScalarField;
    location    "10";
    object      p;
}
// * * * * * * * * * * * * * * * * * * * * * * * * * * * * * * * * * * * * * //

dimensions      [0 2 -2 0 0 0 0];

internalField   nonuniform List<scalar> 
150000
(
-83.7432
-81.1738
-83.7427
-83.74
-83.8199
-77.0998
-81.1002
-83.5372
-81.3404
-83.8043
-83.8488
-86.1894
-83.7721
-83.9802
-79.6202
-76.8214
-70.7077
-77.7677
-81.0954
-83.7581
-86.0807
-83.387
-81.6082
-83.8714
-84.1238
-86.1566
-85.9316
-86.2306
-83.9398
-84.2017
-78.8337
-78.8623
-79.8529
-80.7323
-76.9099
-75.3314
-84.0013
-68.6196
-78.9673
-81.1847
-84.0322
-86.1018
-85.0468
-86.0391
-83.4978
-81.9603
-83.95
-84.5585
-86.1406
-85.9134
-86.1361
-85.9723
-86.27
-84.2003
-84.4559
-77.2571
-78.076
-79.1369
-79.5754
-78.4121
-79.5051
-82.0219
-80.5603
-82.3164
-77.4703
-78.4325
-83.897
-82.5144
-84.3103
-56.4585
-80.7619
-81.3884
-84.274
-86.056
-85.0059
-85.0489
-85.072
-85.9865
-83.8341
-82.333
-84.0651
-85.0737
-86.1453
-85.9375
-86.1018
-86.6778
-86.17
-86.0084
-86.3047
-84.532
-84.7201
-75.2446
-77.1242
-77.6605
-77.3432
-77.7254
-79.1006
-79.9851
-79.2903
-81.0326
-78.3813
-79.5471
-81.7309
-83.0316
-82.4501
-81.7133
-84.1038
-78.2525
-80.0635
-83.9295
-82.5454
-82.3522
-82.4804
-84.8556
-69.8257
-82.9426
-81.6393
-84.4605
-85.9288
-84.9413
-84.9443
-85.8489
-85.1423
-85.1412
-85.9402
-84.2094
-82.7189
-84.1984
-85.5541
-86.1817
-85.9687
-86.0504
-86.646
-87.6397
-86.7116
-86.2145
-86.0412
-86.3412
-84.9366
-84.9617
-74.1843
-75.3554
-75.5025
-75.2461
-77.0585
-77.5742
-78.7632
-77.5887
-77.6181
-77.3763
-78.936
-80.0216
-81.2009
-80.6822
-80.4243
-82.1799
-78.4695
-79.8473
-81.3949
-82.6715
-83.366
-83.7411
-83.4148
-83.5625
-86.3924
-79.0232
-81.6806
-84.0806
-82.5663
-82.4003
-83.602
-82.6879
-82.6759
-85.1297
-74.4181
-85.1608
-81.8894
-84.7525
-85.8125
-84.8715
-84.9128
-85.8404
-86.2906
-85.8491
-85.1875
-85.2096
-85.8887
-84.5963
-83.1244
-84.3456
-85.9339
-86.245
-85.9598
-85.9911
-86.6167
-87.6327
-88.0596
-87.6431
-86.766
-86.2526
-86.0729
-86.3805
-85.382
-85.1601
-73.4951
-74.2257
-74.6899
-74.1701
-75.5096
-75.3475
-76.5332
-75.5985
-75.1114
-76.9769
-77.2431
-79.0113
-79.6626
-78.9581
-77.9189
-77.9658
-77.3034
-79.4332
-79.8997
-80.9769
-82.6168
-81.9311
-81.8002
-81.6237
-82.0145
-78.8974
-80.2137
-81.4166
-82.4875
-82.9146
-83.7897
-83.8118
-84.5819
-84.847
-85.527
-88.9287
-79.7794
-82.6688
-84.1844
-82.6733
-82.482
-83.5333
-84.1712
-83.6022
-82.8787
-83.0387
-85.3942
-81.0726
-86.9189
-82.1254
-85.0776
-85.7379
-84.8435
-84.9045
-85.8228
-86.3173
-86.7954
-86.2825
-85.8663
-85.2697
-85.2513
-85.8501
-84.8012
-83.4845
-84.5008
-86.1896
-86.3259
-85.9126
-85.935
-86.6058
-87.566
-88.0847
-88.6366
-88.0425
-87.6552
-86.8221
-86.2832
-86.1039
-86.3898
-85.8189
-85.3643
-72.2669
-73.4425
-73.6626
-73.3294
-74.3242
-74.5577
-75.2138
-74.6784
-74.2886
-75.5813
-75.3142
-76.4535
-77.3359
-76.6539
-75.8974
-75.0096
-77.0057
-77.3512
-78.9373
-79.513
-80.0416
-79.6704
-79.1657
-78.0233
-78.2478
-77.7957
-79.9007
-80.0628
-80.7327
-82.3121
-83.2208
-82.959
-82.6979
-82.6392
-83.0109
-83.2247
-79.5859
-80.4975
-81.6378
-82.33
-82.5487
-83.6593
-82.8187
-83.8488
-84.2205
-85.3725
-86.556
-87.457
-90.5774
-80.4803
-83.0095
-84.2039
-82.7804
-82.4228
-83.6349
-84.2817
-85.2581
-84.2518
-83.5683
-82.9577
-83.4317
-85.889
-85.2672
-87.8006
-82.3212
-85.279
-85.6111
-84.8606
-84.9151
-85.8491
-86.3435
-86.8446
-87.4496
-86.7544
-86.2899
-85.9027
-85.3875
-85.317
-85.8284
-84.8328
-83.7106
-84.6546
-86.3366
-86.4139
-85.861
-85.8942
-86.5855
-87.5039
-88.1008
-88.6231
-89.0421
-88.6135
-88.0407
-87.6821
-86.8863
-86.3084
-86.1334
-86.3718
-86.2026
-85.5409
-71.6742
-72.3524
-72.3804
-72.2996
-73.3708
-73.595
-73.7789
-73.666
-73.3079
-74.4558
-74.4631
-75.0879
-75.5719
-75.4906
-74.8832
-74.3191
-75.6245
-75.3268
-76.6191
-76.9428
-77.7268
-77.2947
-76.642
-76.0135
-75.4855
-77.0275
-77.6174
-78.8163
-79.5077
-80.015
-81.2178
-80.1616
-79.9115
-79.6481
-78.1952
-77.3435
-78.3603
-80.0765
-80.283
-80.4641
-81.8978
-82.7878
-83.7667
-83.6793
-83.358
-83.2592
-83.5877
-84.0221
-85.4597
-80.3865
-80.7556
-81.7311
-82.0898
-82.3257
-83.4207
-82.9941
-82.6358
-82.7461
-83.7287
-84.5946
-86.1161
-88.1773
-89.5501
-92.3481
-81.0488
-83.3249
-84.1989
-82.9017
-82.4972
-83.7333
-84.3424
-85.3178
-85.9955
-85.1982
-84.3216
-83.7419
-83.2945
-83.8204
-86.155
-86.5219
-88.0351
-82.4777
-85.2477
-85.5361
-84.9196
-84.9206
-85.8522
-86.3913
-86.9021
-87.5198
-88.1959
-87.379
-86.7333
-86.2985
-85.9797
-85.4999
-85.4015
-85.8042
-84.8722
-83.9099
-84.7975
-86.419
-86.4619
-85.8321
-85.8705
-86.5362
-87.4719
-88.1188
-88.6037
-89.0804
-89.6618
-89.0062
-88.5728
-88.0506
-87.7151
-86.9426
-86.3286
-86.1631
-86.3675
-86.503
-85.6055
-71.0552
-71.5707
-71.7247
-71.621
-72.2462
-72.4336
-72.5486
-72.2512
-72.2214
-73.3821
-73.6231
-74.0425
-74.0975
-73.8298
-73.3827
-73.5022
-74.3544
-74.6037
-75.105
-75.5126
-76.3173
-75.8821
-75.4391
-75.6587
-74.5788
-75.5086
-75.3533
-76.7533
-76.8893
-78.0218
-78.2845
-77.3224
-77.169
-77.3497
-76.2341
-75.7219
-77.0374
-77.7382
-78.6006
-79.4222
-80.0013
-81.2686
-82.1604
-81.0099
-80.3614
-80.529
-80.0332
-78.3567
-77.4997
-78.9978
-80.022
-80.1156
-80.2929
-81.2487
-82.1658
-83.686
-82.4424
-83.6939
-84.0828
-83.6063
-83.624
-84.7494
-85.0636
-86.8369
-80.9988
-81.0141
-81.7434
-81.9465
-82.2545
-83.3337
-83.1166
-82.6562
-83.3979
-82.5539
-82.7944
-83.7311
-84.9855
-86.9284
-89.6997
-91.5063
-93.6665
-81.3808
-83.7583
-84.2337
-82.9788
-82.7031
-83.7704
-84.2684
-85.3913
-86.123
-86.6623
-85.8439
-85.1589
-84.3881
-83.9647
-83.5979
-84.1332
-86.2068
-87.2266
-88.0795
-82.6107
-85.163
-85.5612
-84.8078
-84.9097
-85.8465
-86.4497
-86.9781
-87.5956
-88.3084
-88.9928
-88.0815
-87.361
-86.7322
-86.3217
-85.9749
-85.6187
-85.5001
-85.785
-84.9878
-84.1293
-84.9225
-86.4527
-86.4341
-85.826
-85.8545
-86.492
-87.4512
-88.1155
-88.6362
-89.1178
-89.6835
-89.8244
-89.6473
-89.0063
-88.5537
-88.0716
-87.7496
-87.007
-86.3481
-86.1941
-86.372
-86.6984
-85.5997
-70.8181
-71.0788
-71.1164
-71.1244
-71.6349
-71.7169
-71.8354
-71.7338
-71.601
-72.4042
-72.4445
-72.6436
-72.9359
-72.447
-72.3168
-72.0959
-73.4845
-73.6006
-73.9929
-74.1054
-74.543
-74.0727
-73.7279
-73.3834
-73.2787
-74.3638
-74.7279
-74.9528
-75.465
-76.0706
-76.3672
-76.0636
-75.8433
-75.5876
-75.6053
-74.9957
-75.5936
-75.521
-76.8854
-77.0814
-77.8111
-78.1255
-78.6173
-78.1621
-77.6371
-77.4858
-77.5889
-76.5791
-76.0019
-77.0786
-77.93
-78.6686
-79.178
-79.7955
-81.2442
-82.2278
-81.4508
-81.7937
-80.9695
-80.5687
-80.853
-80.3094
-78.8607
-77.9204
-79.6807
-80.0445
-79.8172
-80.0539
-80.5928
-82.047
-83.3398
-82.5786
-82.6586
-82.5165
-83.4631
-84.2931
-83.8108
-84.0743
-86.0446
-86.3736
-87.0083
-81.3952
-81.2918
-81.8383
-81.9436
-82.3297
-83.1779
-83.214
-82.7657
-83.392
-84.2671
-83.345
-82.4538
-82.8376
-83.9147
-85.3653
-87.7121
-91.0007
-92.7901
-93.8153
-81.6476
-84.0374
-84.271
-83.0654
-82.879
-83.856
-84.3528
-85.5337
-86.2509
-86.8663
-87.3698
-86.4861
-85.73
-85.1416
-84.5004
-84.1989
-83.9133
-84.4141
-86.399
-87.9125
-87.4109
-82.7438
-85.1406
-85.5696
-84.5868
-84.9384
-85.9026
-86.5137
-87.089
-87.6774
-88.4255
-89.0496
-89.431
-88.9627
-87.9761
-87.3629
-86.7562
-86.3778
-85.9832
-85.7399
-85.6088
-85.7797
-85.2451
-84.3585
-85.0267
-86.4451
-86.3852
-85.8379
-85.854
-86.5319
-87.5012
-88.1066
-88.6813
-89.1611
-89.7068
-89.8258
-89.8718
-89.827
-89.6375
-89.0206
-88.5828
-88.0891
-87.7884
-87.0923
-86.3832
-86.226
-86.3689
-86.7952
-85.6389
-70.4918
-70.8968
-70.7965
-70.7339
-71.2233
-71.1756
-71.2268
-71.1852
-71.1286
-71.7896
-71.7605
-71.9243
-71.9357
-71.6959
-71.7391
-71.5155
-72.5761
-72.3465
-72.5967
-72.9634
-73.026
-72.8341
-72.4631
-71.8288
-72.1085
-73.4814
-73.6036
-73.9799
-74.1463
-74.4789
-74.6863
-74.4171
-74.0552
-73.4042
-73.6578
-73.3028
-74.4602
-74.7988
-75.0823
-75.52
-75.988
-76.2862
-76.4062
-76.2553
-76.0422
-75.5039
-75.5004
-75.2917
-75.0795
-75.5027
-75.6478
-77.2046
-77.1524
-77.8492
-78.0794
-78.5741
-79.1089
-78.6276
-78.3315
-77.6009
-77.8644
-77.7843
-77.3078
-76.8637
-77.4785
-78.1408
-78.5446
-79.1311
-79.7718
-81.3911
-81.8583
-81.8524
-81.6309
-81.5524
-81.5595
-80.9565
-80.7819
-81.0325
-81.0247
-79.2782
-78.3426
-80.2693
-80.2074
-79.7639
-79.9898
-80.4288
-82.166
-82.8921
-82.9061
-82.8031
-82.7345
-82.5653
-82.5942
-83.5207
-84.4521
-84.0644
-84.9529
-87.1268
-87.3021
-86.5722
-81.7384
-81.6084
-81.9649
-81.9634
-82.4692
-82.9345
-83.2699
-82.9443
-83.4581
-84.468
-84.8632
-84.1833
-83.2726
-82.5
-82.8577
-84.0568
-85.576
-88.4597
-91.8037
-93.0916
-93.055
-81.9741
-84.0983
-84.3068
-83.2881
-82.8872
-84.0438
-84.4843
-85.6754
-86.4255
-87.0288
-87.5324
-88.3747
-87.2436
-86.3211
-85.5916
-85.1497
-84.6378
-84.4261
-84.2338
-84.7219
-86.5844
-88.1577
-86.1916
-82.8828
-85.1164
-85.5849
-84.6425
-85.0569
-86.0045
-86.5917
-87.2281
-87.7999
-88.5425
-89.1588
-89.4667
-89.3211
-89.3899
-88.9014
-87.8963
-87.366
-86.7918
-86.4492
-86.0634
-85.8583
-85.7173
-85.7981
-85.6054
-84.5804
-85.1144
-86.4258
-86.3488
-85.8764
-85.8674
-86.6105
-87.5373
-88.1476
-88.7192
-89.2028
-89.7306
-89.8318
-89.8785
-90.1604
-89.8688
-89.8344
-89.6262
-89.0258
-88.6236
-88.1076
-87.8298
-87.1884
-86.4348
-86.2626
-86.3675
-86.8184
-85.764
-69.934
-70.4015
-70.4524
-70.43
-70.8222
-70.8399
-70.8095
-70.7865
-70.8684
-71.2199
-71.2239
-71.2433
-71.3628
-71.2217
-71.1594
-71.0727
-71.7382
-71.8441
-71.9257
-71.9982
-72.0684
-71.8375
-71.643
-71.6982
-71.4626
-72.4967
-72.4426
-72.809
-73.0502
-73.0635
-73.2064
-72.9627
-72.6825
-72.3712
-71.7712
-72.0223
-73.5346
-73.5825
-74.1595
-74.2465
-74.4305
-74.5986
-74.8835
-74.7283
-74.1852
-74.0936
-73.3933
-73.9898
-73.2718
-74.5402
-74.7786
-75.0538
-75.5336
-76.0406
-76.1203
-76.4669
-76.587
-76.4432
-76.2115
-76.1674
-75.7179
-75.5573
-75.1311
-75.1301
-75.6145
-76.0078
-77.3377
-77.3383
-77.827
-78.0717
-78.6966
-78.9666
-79.2131
-79.0474
-78.7247
-78.407
-77.9213
-78.1874
-78.2411
-77.8877
-77.7067
-77.4032
-78.2696
-78.5762
-79.3596
-79.7954
-81.2776
-81.6225
-81.8789
-81.6475
-81.9255
-81.5218
-81.4958
-81.3194
-81.037
-81.1428
-81.6268
-81.7311
-79.724
-78.0722
-80.7313
-80.581
-80.0712
-80.2198
-80.6413
-82.0557
-82.7117
-83.173
-82.9784
-82.7927
-82.6885
-82.6405
-82.4178
-82.6148
-83.5036
-84.5282
-84.4889
-85.5781
-87.8856
-87.6493
-86.4496
-82.028
-81.8822
-82.0607
-81.99
-82.555
-82.8883
-83.3186
-83.1471
-83.5633
-84.5067
-84.8709
-85.622
-84.8081
-84.141
-83.3043
-82.6036
-82.8911
-84.1685
-85.7872
-89.0605
-92.0378
-92.8038
-91.0827
-82.2732
-84.0869
-84.3284
-83.353
-83.0548
-84.0849
-84.5839
-85.8017
-86.6053
-87.2337
-87.7741
-88.5558
-88.6447
-88.2069
-87.1286
-86.2567
-85.552
-85.1779
-84.782
-84.6784
-84.534
-85.0296
-86.5352
-87.8624
-85.1069
-83.0102
-85.0465
-85.664
-84.7137
-85.1407
-86.0913
-86.7016
-87.3744
-87.9297
-88.6855
-89.2805
-89.5151
-89.3813
-89.3688
-89.2552
-89.3514
-88.8413
-87.8487
-87.3527
-86.8333
-86.538
-86.1168
-85.9738
-85.8206
-85.8414
-85.8432
-84.8881
-85.1895
-86.4219
-86.2912
-85.8706
-85.8874
-86.711
-87.5307
-88.2266
-88.7512
-89.2404
-89.7578
-89.8428
-89.8864
-90.1595
-90.3967
-90.1645
-89.8679
-89.8386
-89.6168
-89.034
-88.649
-88.1257
-87.8538
-87.29
-86.4779
-86.2973
-86.3736
-86.7891
-85.8197
-69.7708
-69.991
-70.028
-69.9371
-70.4005
-70.4136
-70.4588
-70.4922
-70.465
-70.7597
-70.8336
-70.86
-70.9135
-70.8388
-70.8074
-70.8026
-71.2452
-71.1929
-71.2573
-71.3768
-71.3897
-71.2858
-71.1333
-71.193
-71.0461
-71.7492
-72.0078
-71.9041
-72.0095
-72.0957
-72.2242
-72.0309
-71.8493
-71.5908
-71.5815
-71.5549
-72.4205
-72.4629
-72.8467
-73.0752
-73.096
-73.1834
-73.498
-73.1068
-72.9309
-72.5279
-72.3849
-71.9017
-72.183
-73.679
-73.6651
-74.0481
-74.2536
-74.4288
-74.6033
-74.6823
-74.9308
-74.8362
-74.6036
-74.1967
-73.7947
-73.1552
-73.7071
-73.4661
-74.5151
-75.0162
-75.1658
-75.4242
-75.7675
-76.1804
-76.3234
-76.4113
-76.9936
-76.6144
-76.6778
-76.3082
-76.0062
-75.9226
-75.4265
-75.4418
-75.2376
-75.6993
-76.4786
-77.3298
-77.5958
-77.7456
-78.2287
-78.5362
-78.7662
-79.132
-79.7124
-79.1911
-78.9561
-78.7504
-78.4688
-78.413
-78.6942
-78.9176
-78.3655
-77.7834
-77.4295
-78.6441
-78.9833
-79.6888
-80.0509
-81.0635
-81.5832
-81.8619
-81.9978
-81.9088
-82.021
-81.8915
-81.3136
-81.4808
-81.0585
-81.1746
-81.567
-82.2284
-82.4886
-80.5427
-77.2058
-80.6192
-80.9627
-80.235
-80.4472
-80.7532
-81.7373
-82.8002
-83.3402
-82.9956
-82.771
-82.6953
-82.7501
-82.6498
-82.6095
-82.2809
-82.4598
-83.4506
-84.6033
-84.87
-86.1187
-88.4791
-87.7597
-84.0317
-82.1851
-82.2119
-82.0145
-82.0168
-82.5074
-83.2244
-83.312
-83.2782
-83.8174
-84.5786
-84.9861
-85.7829
-86.2515
-85.4994
-84.7378
-84.0508
-83.2971
-82.7241
-82.9616
-84.3372
-85.9995
-89.3957
-91.8216
-92.2355
-88.5659
-82.4787
-84.115
-84.2459
-83.2175
-83.4118
-84.1434
-84.6735
-85.9009
-86.7194
-87.4672
-88.0531
-88.7456
-88.8106
-88.4996
-88.392
-88.0574
-87.0465
-86.2218
-85.642
-85.233
-84.9612
-84.9164
-84.7955
-85.3256
-86.3784
-87.3635
-84.5388
-83.1179
-84.9052
-85.6044
-84.7265
-85.246
-86.1659
-86.8274
-87.5433
-88.0464
-88.8397
-89.4177
-89.5769
-89.4006
-89.3844
-89.3156
-89.3542
-89.1982
-89.3188
-88.7879
-87.8222
-87.3577
-86.8816
-86.655
-86.207
-86.0746
-85.9178
-85.8967
-85.9717
-85.338
-85.255
-86.4323
-86.2294
-85.7994
-85.9186
-86.8407
-87.5357
-88.2842
-88.8047
-89.2922
-89.7891
-89.8565
-89.8945
-90.162
-90.3832
-90.0704
-90.4133
-90.174
-89.8663
-89.8381
-89.6182
-89.0553
-88.6768
-88.1503
-87.8895
-87.3886
-86.53
-86.3458
-86.3881
-86.7805
-85.8164
-69.4105
-69.7196
-69.7679
-69.7658
-70.0408
-70.0485
-69.9953
-70.0348
-69.9743
-70.4275
-70.438
-70.3947
-70.4624
-70.4466
-70.4289
-70.4392
-70.7565
-70.7871
-70.8553
-70.8722
-70.9316
-70.8649
-70.8579
-70.7921
-70.7648
-71.2735
-71.1466
-71.2441
-71.2907
-71.4556
-71.4713
-71.3483
-71.2052
-71.1141
-71.1485
-71.0897
-71.7713
-71.9429
-71.9006
-72.0893
-72.1498
-72.2505
-72.3145
-72.2125
-71.9495
-71.8017
-71.6382
-71.6828
-71.6738
-72.3488
-72.4232
-72.8996
-73.1085
-73.1411
-73.2539
-73.5556
-73.6003
-73.4008
-73.0167
-72.6414
-72.4768
-72.464
-71.9931
-71.9592
-73.579
-73.9178
-73.9636
-74.3053
-74.5229
-74.8089
-74.7361
-74.9201
-75.1947
-75.0372
-74.874
-74.484
-74.255
-73.8251
-73.1255
-73.3889
-73.544
-74.4756
-75.283
-75.1954
-75.3549
-75.8138
-76.1466
-76.1434
-76.6784
-76.8976
-77.2937
-76.9873
-76.7346
-76.6632
-76.3465
-76.0994
-75.7679
-75.3631
-75.9853
-75.5453
-75.7235
-76.7417
-77.2606
-77.5911
-77.599
-78.0559
-78.4377
-78.7896
-79.2904
-79.7525
-79.7546
-79.7712
-79.2027
-79.0274
-78.7283
-78.478
-78.438
-79.1192
-78.9608
-79.0894
-77.4122
-77.3868
-78.7414
-79.2898
-79.9819
-80.1052
-80.9238
-81.4185
-81.7594
-81.9682
-81.8439
-82.1131
-82.335
-82.1701
-81.6835
-81.2502
-81.1344
-81.0448
-81.6293
-82.0329
-82.8797
-83.3663
-81.4716
-77.0504
-80.3783
-81.2263
-80.2412
-80.591
-80.9118
-81.5713
-82.7199
-83.264
-82.9605
-82.8792
-82.6125
-82.7967
-83.7512
-82.8178
-82.6883
-82.5536
-82.0933
-82.2607
-83.4979
-84.6198
-85.192
-86.922
-88.5871
-87.9953
-80.6785
-82.3036
-82.4661
-81.9827
-82.0652
-82.6319
-83.2325
-83.3315
-83.4392
-84.0923
-85.0091
-85.1388
-86.0462
-86.4151
-86.2892
-86.1321
-85.3461
-84.6637
-84.0014
-83.3803
-82.9748
-83.1237
-84.484
-86.1567
-89.5178
-91.2708
-91.0088
-87.2434
-82.6156
-84.1299
-84.0981
-83.3155
-83.3933
-84.2784
-84.7746
-85.9688
-86.9093
-87.6149
-88.328
-88.9215
-88.9104
-88.668
-88.1848
-88.24
-88.1434
-87.931
-86.9541
-86.1897
-85.6444
-85.3052
-85.1484
-85.15
-85.0071
-85.5565
-86.2613
-86.9034
-84.3364
-83.2064
-84.725
-85.4316
-84.8018
-85.3496
-86.2516
-86.9635
-87.6714
-88.2291
-88.9962
-89.5278
-89.6351
-89.4246
-89.3796
-89.3735
-89.1747
-89.2422
-89.3307
-89.1578
-89.2826
-88.7371
-87.8019
-87.4016
-86.9391
-86.7656
-86.3413
-86.186
-86.0167
-85.9278
-86.0651
-85.6572
-85.3421
-86.4453
-86.1915
-85.7748
-85.9654
-86.9521
-87.6309
-88.3502
-88.9002
-89.3595
-89.8197
-89.871
-89.9031
-90.1695
-90.3722
-90.0671
-90.0553
-90.0702
-90.4325
-90.187
-89.8679
-89.8389
-89.6253
-89.0821
-88.7077
-88.1873
-87.934
-87.444
-86.5651
-86.3907
-86.4065
-86.8538
-85.9203
-69.191
-69.4395
-69.4343
-69.4716
-69.7045
-69.7366
-69.6738
-69.8021
-69.7874
-70.056
-70.0634
-70.0374
-70.016
-70.0199
-70.0498
-69.976
-70.4449
-70.4212
-70.4387
-70.3718
-70.4936
-70.4391
-70.4445
-70.3582
-70.4116
-70.7669
-70.7662
-70.8281
-70.9197
-70.8765
-71.0006
-70.8808
-70.8192
-70.7044
-70.8114
-70.7429
-71.283
-71.099
-71.2705
-71.3768
-71.4015
-71.5397
-71.5656
-71.4584
-71.3225
-71.173
-71.214
-71.0861
-71.128
-71.9436
-71.9179
-71.9208
-72.2137
-72.0784
-72.3036
-72.3205
-72.5681
-72.329
-72.1492
-71.9535
-71.7793
-71.6713
-71.7883
-71.6331
-72.3165
-72.4011
-72.9456
-73.1508
-73.1204
-73.2932
-73.4184
-73.6632
-73.7504
-73.5478
-73.2326
-72.8839
-72.6784
-72.5316
-72.4234
-72.1584
-72.16
-73.5432
-73.9052
-74.0479
-74.3431
-74.4271
-74.5637
-74.7201
-74.8966
-75.1341
-75.4347
-75.166
-75.1442
-74.8983
-74.3942
-73.9483
-73.7792
-73.5048
-73.2173
-73.5768
-74.4946
-75.2094
-75.4402
-75.3332
-75.7489
-75.8567
-76.3571
-76.6169
-76.8765
-77.4274
-77.6364
-77.3941
-76.9488
-76.7623
-76.6321
-76.3669
-76.1772
-75.9737
-75.4801
-75.3503
-75.5772
-75.7237
-76.6515
-77.513
-77.4863
-77.5227
-77.8906
-78.2359
-78.6259
-79.5502
-79.8124
-79.6478
-80.164
-79.8225
-79.6809
-79.2955
-78.8056
-78.8454
-78.791
-78.8259
-79.401
-78.9818
-79.7999
-77.187
-77.2497
-78.6158
-79.1569
-79.6764
-79.9988
-80.6032
-81.0415
-81.7933
-81.7704
-81.7723
-82.0221
-82.3021
-82.4558
-82.1742
-82.2624
-81.7184
-81.1292
-80.8832
-81.1181
-81.7729
-82.3766
-83.6114
-83.8985
-82.0627
-77.7579
-80.447
-81.6638
-80.7964
-80.7498
-81.0591
-81.6588
-82.6651
-83.3098
-83.199
-82.82
-82.6486
-82.8239
-83.6652
-84.0154
-83.7555
-82.8128
-82.6692
-82.5473
-82.0401
-82.3373
-83.5228
-84.584
-85.6337
-87.6893
-88.7165
-87.0363
-80.57
-82.3325
-82.5554
-82.0071
-82.1401
-82.6318
-82.8394
-83.5553
-83.5615
-84.0527
-85.3143
-85.3348
-86.2387
-86.5155
-86.3558
-86.1716
-86.1702
-85.9606
-85.2106
-84.6008
-83.9506
-83.4944
-83.2117
-83.3674
-84.6632
-86.2894
-89.5933
-90.4022
-89.6797
-86.3835
-82.6989
-84.1063
-84.0637
-83.4124
-83.623
-84.4804
-84.8609
-86.072
-87.0711
-87.8512
-88.6068
-89.1391
-88.9849
-88.7674
-88.2759
-87.8009
-88.0012
-87.9868
-87.9412
-87.8307
-86.9138
-86.1929
-85.693
-85.3932
-85.3303
-85.3612
-85.1769
-85.7174
-86.0544
-86.4746
-84.1969
-83.2728
-84.5705
-85.2247
-84.7847
-85.4224
-86.3581
-87.1318
-87.8061
-88.5032
-89.1596
-89.6205
-89.6857
-89.4503
-89.3922
-89.454
-89.268
-88.8398
-89.0652
-89.1773
-89.3076
-89.133
-89.2553
-88.6993
-87.8184
-87.4355
-87.0261
-86.8805
-86.4403
-86.3084
-86.098
-85.9593
-86.132
-85.8059
-85.4619
-86.453
-86.1727
-85.8177
-86.0284
-87.0294
-87.7356
-88.4529
-88.9834
-89.4272
-89.8506
-89.886
-89.9129
-90.1761
-90.355
-90.0728
-90.0798
-89.43
-90.0259
-90.0624
-90.4417
-90.2021
-89.8738
-89.8405
-89.6348
-89.1018
-88.732
-88.2484
-87.9883
-87.4931
-86.6258
-86.4407
-86.4245
-86.9611
-86.1703
-69.1062
-69.2662
-69.2615
-69.2161
-69.4685
-69.4648
-69.5226
-69.4655
-69.4743
-69.7044
-69.7605
-69.7803
-69.7208
-69.7176
-69.8014
-69.7988
-70.0616
-70.071
-70.1012
-70.0325
-70.0992
-70.0596
-70.0626
-70.0456
-69.9519
-70.4181
-70.4579
-70.4163
-70.4793
-70.4479
-70.5559
-70.4862
-70.425
-70.3966
-70.3644
-70.3707
-70.7421
-70.7874
-70.8041
-70.9323
-70.8965
-71.0343
-71.0025
-70.9839
-70.8683
-70.7847
-70.7537
-70.7687
-70.7546
-71.273
-71.0767
-71.2837
-71.2691
-71.3932
-71.5403
-71.5326
-71.6849
-71.5965
-71.4124
-71.3237
-71.2187
-71.184
-71.1817
-71.163
-72.0772
-71.9598
-71.9611
-71.9608
-72.0678
-72.2835
-72.3087
-72.5754
-72.7028
-72.4767
-72.2749
-72.1145
-71.9509
-71.8225
-71.7553
-71.8292
-71.7261
-72.5241
-72.5142
-72.9196
-73.0477
-73.0169
-73.2223
-73.3591
-73.6678
-73.812
-73.8891
-73.7907
-73.4921
-73.3151
-72.853
-72.5894
-72.598
-72.5258
-72.2427
-72.3505
-73.5515
-73.7541
-73.9458
-74.2825
-74.1501
-74.328
-74.8077
-74.9241
-75.2
-75.517
-75.8222
-75.3726
-75.2988
-75.119
-74.8165
-74.3278
-74.0534
-73.8047
-73.5346
-73.1858
-73.6107
-74.6735
-74.9664
-75.6299
-75.3766
-75.6738
-75.8287
-76.1643
-76.6029
-77.0182
-77.3749
-77.648
-77.8138
-77.58
-77.2307
-76.9823
-76.7338
-76.5994
-76.1617
-76.0835
-75.8177
-75.0546
-75.0768
-75.6549
-76.2085
-77.0436
-77.4578
-77.5422
-77.6315
-77.8441
-78.2885
-78.739
-79.425
-79.6055
-79.7087
-80.2105
-80.6641
-80.0686
-80.0086
-79.5558
-79.3972
-78.8361
-78.8897
-79.1937
-79.2999
-79.5399
-79.2385
-78.5767
-77.1725
-77.3195
-79.1953
-79.0839
-79.4361
-80.3628
-80.6608
-81.0458
-81.5917
-81.7543
-81.8712
-82.0566
-82.4466
-82.4638
-82.6464
-82.4687
-82.0814
-82.2499
-81.5436
-80.9469
-80.838
-81.4534
-81.952
-82.7868
-84.3157
-83.9558
-82.4303
-77.8135
-80.4264
-82.1519
-81.2716
-81.1386
-81.5792
-81.7394
-82.6924
-83.2953
-83.2541
-82.7874
-82.7244
-82.811
-83.5928
-83.8677
-83.8627
-84.1619
-83.651
-82.7381
-82.6657
-82.481
-81.9574
-82.3242
-83.577
-84.6714
-86.0655
-88.2075
-88.0179
-86.1031
-80.3799
-82.2855
-82.5015
-82.0328
-82.2181
-82.2892
-82.7397
-83.6578
-83.707
-84.211
-85.1019
-85.2138
-86.2458
-86.55
-86.5685
-86.1402
-85.6905
-86.052
-86.2603
-85.7818
-85.0894
-84.5388
-83.9428
-83.6203
-83.4089
-83.666
-84.8793
-86.4063
-89.3449
-89.5338
-88.3268
-85.3568
-82.7469
-84.0365
-84.2009
-83.4751
-83.8452
-84.5718
-84.9609
-86.1581
-87.1849
-88.0626
-88.8401
-89.1777
-89.0144
-88.7337
-88.3443
-87.9923
-87.1813
-87.5953
-87.786
-87.8362
-87.8013
-87.7539
-86.9187
-86.2323
-85.7952
-85.5259
-85.5395
-85.5662
-85.3271
-85.7589
-85.8008
-86.071
-84.0556
-83.3204
-84.445
-85.0228
-84.7954
-85.5289
-86.4965
-87.2821
-87.9731
-88.7991
-89.3271
-89.6856
-89.71
-89.4759
-89.4101
-89.5221
-89.345
-88.9313
-89.0051
-88.7832
-88.9573
-89.1355
-89.3002
-89.1068
-89.2457
-88.6848
-87.8671
-87.4915
-87.1091
-87.0009
-86.5369
-86.4307
-86.1902
-86.0105
-86.1953
-86.097
-85.5629
-86.4514
-86.161
-85.8848
-86.107
-87.0983
-87.8545
-88.5349
-89.0507
-89.4983
-89.8838
-89.9006
-89.9256
-90.1853
-90.3447
-90.1047
-90.0858
-89.4778
-89.3109
-89.3855
-89.9891
-90.0472
-90.4521
-90.2207
-89.8817
-89.8418
-89.6499
-89.1234
-88.7505
-88.3383
-88.043
-87.5645
-86.6814
-86.5008
-86.4426
-87.0395
-86.3977
-68.9887
-69.1194
-69.1387
-69.1086
-69.2635
-69.2854
-69.3299
-69.2445
-69.2342
-69.4642
-69.5088
-69.5274
-69.4849
-69.4942
-69.5169
-69.4719
-69.7106
-69.7397
-69.7847
-69.76
-69.7454
-69.7759
-69.7764
-69.8038
-69.7871
-70.0667
-70.0411
-70.0518
-70.0925
-70.1287
-70.1697
-70.1256
-70.0078
-70.0335
-70.0452
-69.967
-70.3804
-70.4203
-70.443
-70.473
-70.4614
-70.5648
-70.6012
-70.5196
-70.4268
-70.3873
-70.4135
-70.3159
-70.3926
-70.7041
-70.8137
-70.8505
-70.8314
-70.9557
-71.0388
-71.049
-71.0799
-71.0383
-70.9354
-70.8627
-70.8062
-70.7545
-70.7885
-70.7523
-71.2296
-71.105
-71.3037
-71.1971
-71.3901
-71.5214
-71.6823
-71.6616
-71.6823
-71.676
-71.5173
-71.4514
-71.3543
-71.2273
-71.1835
-71.2112
-71.2172
-71.9056
-72.018
-71.9157
-71.9289
-72.0629
-72.2221
-72.4506
-72.5597
-72.6764
-72.6724
-72.7394
-72.5299
-72.3198
-72.0694
-71.938
-71.8263
-71.7783
-71.8129
-71.7939
-72.5202
-72.5601
-72.8798
-72.9628
-72.9664
-73.079
-73.4095
-73.6009
-73.8713
-73.9935
-74.0176
-73.8169
-73.7291
-73.4886
-73.2421
-72.9542
-72.7353
-72.5957
-72.5104
-72.3337
-72.431
-73.5185
-73.8189
-73.7414
-73.9648
-74.0497
-74.2534
-74.3614
-74.867
-75.1927
-75.2257
-75.604
-76.1258
-75.7054
-75.4888
-75.3018
-74.9577
-74.6184
-74.2415
-74.1587
-73.7149
-73.4537
-73.0139
-73.5269
-74.7897
-74.8321
-75.4924
-75.4438
-75.4189
-75.7206
-76.1626
-76.4793
-76.9744
-77.2619
-77.7012
-77.9452
-78.2225
-77.9416
-77.5052
-77.2318
-77.0591
-76.8661
-76.6652
-76.3461
-76.1606
-75.526
-74.9571
-74.5427
-75.9891
-76.35
-77.1926
-77.0725
-77.6184
-77.8644
-78.1249
-78.4297
-78.7183
-79.2511
-79.5882
-79.8558
-80.3241
-80.6261
-81.1165
-80.7278
-80.2341
-80.0513
-79.5028
-79.2895
-78.8843
-79.1132
-79.1852
-79.2443
-79.4802
-78.4249
-78.5523
-76.9484
-77.028
-79.899
-79.805
-80.4639
-81.0228
-81.172
-81.2915
-81.4525
-81.6026
-81.9081
-81.9041
-82.5716
-82.6933
-82.7202
-82.7332
-82.9128
-82.5031
-82.1454
-82.137
-81.4094
-80.9375
-80.8503
-81.574
-82.3264
-83.3303
-85.0248
-83.6145
-81.9477
-78.2813
-80.2288
-82.2732
-81.8304
-81.5622
-81.8349
-81.8256
-82.6103
-83.2494
-83.3534
-82.8129
-82.6986
-82.7001
-83.5111
-83.7236
-83.8081
-83.5756
-83.8242
-84.0824
-83.6678
-82.7511
-82.6181
-82.365
-81.8827
-82.3505
-83.6344
-84.9851
-86.5586
-88.4392
-86.8128
-85.344
-80.2212
-82.1222
-82.3417
-82.0951
-82.2481
-82.5324
-83.2816
-83.6035
-83.8283
-84.381
-85.1183
-85.2377
-86.2587
-86.5961
-86.5741
-86.1706
-85.8333
-85.3906
-85.7053
-85.8628
-86.1024
-85.687
-84.942
-84.4551
-83.9333
-83.7984
-83.71
-83.9592
-85.0854
-86.4595
-88.918
-88.268
-87.0558
-84.77
-82.789
-83.9323
-84.2492
-83.554
-83.8737
-84.5384
-85.1176
-86.2587
-87.3238
-88.2502
-88.9528
-89.2309
-88.9867
-88.7393
-88.4741
-88.1479
-87.3477
-87.4962
-87.0248
-87.5461
-87.6091
-87.6464
-87.6877
-87.7199
-86.9192
-86.2657
-85.896
-85.6364
-85.7648
-85.7706
-85.4384
-85.7419
-85.6472
-85.7423
-84.1281
-83.3936
-84.3673
-84.9813
-84.9648
-85.6467
-86.6043
-87.3802
-88.1165
-89.01
-89.4625
-89.7139
-89.7263
-89.5004
-89.4358
-89.5864
-89.4136
-89.0296
-89.0641
-88.9132
-88.9629
-88.7527
-88.8589
-89.111
-89.3209
-89.0702
-89.2577
-88.6983
-87.9046
-87.5805
-87.1811
-87.1183
-86.6374
-86.5362
-86.3104
-86.0695
-86.2739
-86.4012
-85.6592
-86.4363
-86.1457
-85.942
-86.1991
-87.1713
-87.9848
-88.5865
-89.1278
-89.5706
-89.916
-89.9134
-89.9398
-90.1994
-90.3604
-90.1447
-90.0862
-89.5321
-89.3565
-88.9238
-89.2618
-89.347
-89.947
-90.0627
-90.4701
-90.2378
-89.8895
-89.8432
-89.6663
-89.1473
-88.7738
-88.4295
-88.0948
-87.6349
-86.7365
-86.5545
-86.4679
-87.1245
-86.5356
-68.8739
-68.9855
-69.0221
-68.9815
-69.1195
-69.1515
-69.1501
-69.1523
-69.1219
-69.2761
-69.2968
-69.329
-69.332
-69.324
-69.2575
-69.2396
-69.461
-69.5012
-69.5457
-69.5089
-69.5407
-69.5161
-69.5014
-69.4899
-69.5133
-69.7115
-69.703
-69.7989
-69.8057
-69.7679
-69.8309
-69.757
-69.7245
-69.7909
-69.7834
-69.7456
-70.0756
-70.0544
-70.0174
-70.0882
-70.0995
-70.1524
-70.2092
-70.1487
-70.0613
-70.0238
-70.0271
-70.0585
-69.9352
-70.2699
-70.42
-70.4554
-70.442
-70.4598
-70.5477
-70.587
-70.6364
-70.5978
-70.5026
-70.4276
-70.3779
-70.3745
-70.3151
-70.3937
-70.6341
-70.8362
-70.8408
-70.9407
-70.9446
-71.0307
-71.0631
-71.0779
-71.0759
-71.1205
-71.0338
-70.9627
-70.8204
-70.8066
-70.7555
-70.7976
-70.8065
-71.2126
-71.1532
-71.2699
-71.3637
-71.3578
-71.465
-71.6643
-71.6111
-71.719
-71.7864
-71.7296
-71.6188
-71.5663
-71.3544
-71.3625
-71.2421
-71.2182
-71.2425
-71.2356
-71.7994
-72.0551
-71.822
-71.9576
-71.9698
-72.1033
-72.2142
-72.5466
-72.6386
-72.6094
-72.5554
-72.666
-72.6284
-72.508
-72.2446
-72.112
-71.9419
-71.8305
-71.9079
-71.7759
-71.8617
-72.4393
-72.8164
-72.6856
-72.5884
-72.8722
-72.9863
-73.3089
-73.531
-73.8014
-73.8987
-74.1087
-74.3708
-74.0629
-73.9128
-73.7972
-73.5045
-73.2917
-72.9526
-72.8002
-72.6087
-72.4825
-72.3821
-72.4219
-73.461
-74.1445
-73.4537
-73.6736
-73.8584
-74.0487
-74.3174
-74.7944
-75.0101
-75.3155
-75.6368
-75.7872
-76.3194
-76.1606
-75.5965
-75.3826
-75.0643
-74.7947
-74.5084
-74.2533
-74.1475
-73.6541
-73.239
-72.7179
-73.5022
-74.6891
-74.7839
-75.4029
-75.6018
-75.4288
-75.6151
-76.2282
-76.464
-76.8179
-77.3714
-77.7531
-77.8283
-78.3396
-78.5376
-78.2194
-78.0842
-77.3398
-77.4158
-77.1507
-76.8897
-76.4117
-76.3469
-75.9575
-75.5121
-74.975
-74.2324
-76.1736
-76.3044
-77.3824
-77.2952
-77.8881
-78.2227
-78.4023
-78.5415
-78.842
-79.1411
-79.7083
-79.9687
-80.5273
-80.5903
-80.964
-80.9676
-81.2851
-80.7851
-80.1194
-79.9568
-79.4278
-79.2524
-78.828
-79.2855
-79.3631
-79.5973
-79.6143
-77.9322
-78.6369
-77.0539
-76.9727
-80.1153
-80.4015
-81.1697
-81.2187
-81.4568
-81.6296
-81.6083
-81.6001
-81.7843
-81.8559
-82.6357
-82.6462
-82.6194
-82.6512
-82.4797
-83.0223
-83.0119
-82.5095
-82.0453
-82.0584
-81.4029
-81.1527
-81.0784
-81.685
-82.6841
-83.8998
-85.0646
-82.8171
-81.8005
-78.2028
-80.0698
-82.3981
-82.1263
-81.6488
-81.6203
-81.6597
-82.5494
-83.102
-83.3345
-82.8767
-82.7286
-82.7225
-83.3536
-83.7513
-83.6337
-83.3397
-83.254
-83.6587
-83.9645
-83.8876
-83.4882
-82.7054
-82.5805
-82.2413
-81.8607
-82.5067
-83.6854
-85.3267
-86.8611
-88.0782
-85.8585
-84.39
-80.2053
-81.8468
-82.1291
-82.0792
-82.2105
-82.659
-83.3943
-83.6342
-83.9096
-84.4987
-85.1891
-85.363
-86.3235
-86.5099
-86.4453
-86.2188
-86.0765
-85.5916
-85.353
-85.25
-85.6799
-85.7651
-85.7741
-85.5087
-84.8168
-84.4268
-83.9326
-83.9091
-84.0731
-84.3554
-85.2935
-86.4468
-88.3254
-86.5678
-85.5215
-84.383
-82.8481
-83.8538
-84.1999
-83.6807
-84.0643
-84.63
-85.3005
-86.4041
-87.4852
-88.4116
-89.0252
-89.238
-88.9514
-88.7368
-88.4657
-88.2388
-87.5122
-87.5595
-87.333
-87.3517
-86.9209
-87.3997
-87.474
-87.5239
-87.591
-87.6831
-86.9416
-86.4157
-86.0027
-85.8256
-85.9625
-85.9752
-85.5281
-85.7119
-85.6331
-85.2945
-84.2527
-83.4923
-84.3557
-85.0186
-85.0558
-85.766
-86.6719
-87.4738
-88.2459
-89.1485
-89.5528
-89.7538
-89.742
-89.5201
-89.4596
-89.6442
-89.4859
-89.1675
-89.1415
-89.0364
-88.4851
-88.8467
-88.9221
-88.735
-88.7926
-89.0972
-89.3551
-89.0574
-89.3063
-88.7246
-87.9664
-87.6262
-87.2697
-87.2353
-86.74
-86.6236
-86.4354
-86.1426
-86.3959
-86.616
-85.7802
-86.4125
-86.1172
-85.9916
-86.3017
-87.2536
-88.0503
-88.6372
-89.2195
-89.635
-89.9448
-89.9278
-89.9523
-90.2129
-90.3885
-90.195
-90.1047
-89.595
-89.4046
-88.9473
-88.2003
-88.8959
-89.2153
-89.3117
-89.9255
-90.0779
-90.4926