/*--------------------------------*- C++ -*----------------------------------*\
  =========                 |
  \\      /  F ield         | OpenFOAM: The Open Source CFD Toolbox
   \\    /   O peration     | Website:  https://openfoam.org
    \\  /    A nd           | Version:  7
     \\/     M anipulation  |
\*---------------------------------------------------------------------------*/
FoamFile
{
    version     2.0;
    format      ascii;
    class       volScalarField;
    location    "8.5";
    object      nut;
}
// * * * * * * * * * * * * * * * * * * * * * * * * * * * * * * * * * * * * * //

dimensions      [0 2 -1 0 0 0 0];

internalField   nonuniform List<scalar> 
18750
(
0.00054691
0.000836228
0.000472779
0.00148939
0.00144938
0.000938542
0.00167395
0.000294247
0.00141648
0.00142292
0.00176548
0.00141576
0.00367855
0.00106408
0.0016114
0.000893293
0.000436492
0.00134173
0.00132804
0.000929331
0.00259288
0.00137266
0.000838727
0.00145615
0.00110788
0.000739723
0.0011239
0.00133473
0.000691573
0.000434612
0.000529277
0.00115108
0.00119521
0.00107291
0.000173215
0.00238603
0.00248405
0.00168059
0.00138681
0.00156859
0.000438825
0.00148476
0.00166889
0.000898669
0.000627617
0.00113658
0.00115971
0.000911152
0.000389527
0.000347895
0.000521292
0.000924162
0.00103158
0.00118446
0.000359087
0.000146714
0.00260681
0.00244537
0.00111176
0.00218979
0.00176248
0.00137267
0.00191797
0.00166253
0.000748442
0.000766417
0.00127822
0.00170499
0.00117344
0.000836603
0.000432089
0.00112492
0.00135594
0.00141334
0.00040688
0.000352901
0.000332318
0.000469564
0.000902966
0.000889618
0.00124931
0.000486623
0.000159691
0.000315777
0.00259563
0.00237313
0.000981667
0.00253095
0.00137274
0.000979959
0.00207035
0.00152029
0.000839383
0.000889547
0.00201049
0.00227056
0.000627385
0.000958579
0.000874056
0.0013366
0.0012266
0.00113875
0.000963392
0.000459121
0.000399182
0.00112941
0.00152665
0.000690074
0.000518273
0.000366461
0.000312589
0.00034463
0.000441396
0.000916399
0.000790831
0.00124733
0.000533221
0.000298495
0.000253728
0.000110252
0.00236195
0.00257627
0.00101199
0.0023027
0.00128755
0.000410667
0.00208209
0.000955802
0.000903777
0.0010914
0.00275241
0.00212297
0.000608074
0.00040354
0.00056703
0.0014652
0.00237864
0.000973193
0.000989102
0.000874166
0.000564083
0.00144237
0.00105491
0.00103199
0.00112376
0.000652018
0.000525989
0.000749545
0.000966696
0.0013864
0.000476532
0.000509103
0.000321623
0.000391049
0.000370812
0.000186203
0.000476232
0.000809515
0.000701203
0.00116896
0.00056002
0.000147747
0.000247854
7.92791e-05
0.000109093
0.00218319
0.00213855
0.00104829
0.00267675
0.000821429
0.000640993
0.00225367
0.000508486
0.00099542
0.00114635
0.00205176
0.00109491
0.0013008
0.00105175
0.000732501
0.00317009
0.00204876
0.000776577
0.000770788
0.000617498
0.00086041
0.00111375
0.00209092
0.00177166
0.000674712
0.000883813
0.000813064
0.000625133
0.00140363
0.00090967
0.000739431
0.00077176
0.000614086
0.000943274
0.000579351
0.000564177
0.000821939
0.00103237
0.000860049
0.00053544
0.000343539
0.000410486
0.000417789
0.000211406
0.000219112
0.000541671
0.000619789
0.000700318
0.00103821
0.000562798
0.000131861
0.000198012
9.47354e-05
9.51546e-05
0.00015369
0.00210323
0.00222403
0.000670871
0.00232703
0.000713801
0.000903203
0.0025168
0.000592054
0.000636025
0.000979577
0.00226407
0.00123371
0.000743861
0.000872283
0.000279895
0.00221285
0.00124707
0.000877181
0.00117572
0.000868233
0.000772411
0.00297079
0.00181815
0.00109189
0.00084279
0.000640609
0.000646459
0.00059746
0.00123439
0.00211621
0.00212368
0.000714469
0.000979481
0.00100305
0.000736348
0.00100597
0.00101249
0.000899422
0.000907467
0.00068441
0.000800704
0.000457838
0.000411455
0.000548074
0.000331231
0.000914535
0.000740136
0.000908478
0.000510576
0.000389936
0.000354741
0.000484845
0.000200723
0.000210649
0.000246687
0.000464256
0.000428673
0.000629325
0.000744775
0.000547856
0.000184492
0.000161398
8.09724e-05
7.99024e-05
0.000148637
0.00015665
0.002175
0.00223147
0.000577649
0.0022988
0.00078048
0.000659106
0.00232148
0.000495126
0.000490753
0.00039312
0.002139
0.00091776
0.000311582
0.000786077
0.000568169
0.0023081
0.000499868
0.000346794
0.000582059
0.000928632
0.000901584
0.00216977
0.00073468
0.00104833
0.00103693
0.000783853
0.000908995
0.000432715
0.00279802
0.00182809
0.00116569
0.000956451
0.000558543
0.00075109
0.00066181
0.00047244
0.0014228
0.00181823
0.0012664
0.000551361
0.000989585
0.000978458
0.000531788
0.000964153
0.0012673
0.000868531
0.00104118
0.00120738
0.000661016
0.000786597
0.000761821
0.000643917
0.000599176
0.000394571
0.000574506
0.000981409
0.00064511
0.000782875
0.000494604
0.000386428
0.000438286
0.000485564
0.000206186
0.000202612
0.000214993
0.000765798
0.000380313
0.000372716
0.000488274
0.000377488
0.000513871
0.00018588
0.000170016
0.000101593
0.000126787
0.000138552
0.00013547
0.000102821
0.00219752
0.00214571
0.000704299
0.00233547
0.00214185
0.00050265
0.000673219
0.00225509
0.000861033
0.000467429
0.000510089
0.00238334
0.000522401
0.000498718
0.000656471
0.000826064
0.00231219
0.000587993
0.00103851
0.000452444
0.000998038
0.000753674
0.00217979
0.000694708
0.00172174
0.000762961
0.000573593
0.000730467
0.000713711
0.00243493
0.000971223
0.000998605
0.00112031
0.000918299
0.000730523
0.00032566
0.000406649
0.00243081
0.00111405
0.000953238
0.000984328
0.00105516
0.00104785
0.000761434
0.000568792
0.000847663
0.00181269
0.00160736
0.000679113
0.000666369
0.000771587
0.000964414
0.000744199
0.000689554
0.00105661
0.000659515
0.000688086
0.000902786
0.00119284
0.000639146
0.000785524
0.000812432
0.000452236
0.000388664
0.000648605
0.000557673
0.000372539
0.000916579
0.000620165
0.00065082
0.000438902
0.000367758
0.000451786
0.000509041
0.000229667
0.000172143
0.000250888
0.000529454
0.000509278
0.000400665
0.000365435
0.000441971
0.000637596
0.000452831
0.000139405
0.000181038
0.000157254
9.10392e-05
0.000135188
0.000119632
9.81906e-05
0.000145147
0.00236278
0.00237707
0.000872795
0.00240935
0.00218137
0.000350727
0.000543618
0.000481627
0.00214887
0.000569864
0.000445185
0.000383964
0.00231763
0.00071262
0.000652872
0.000607416
0.000565722
0.00228704
0.000468149
0.000453477
0.000609836
0.000394488
0.000519505
0.00231398
0.0010487
0.000618779
0.000699969
0.000488013
0.000663801
0.000769719
0.0024444
0.00200136
0.000359831
0.000980567
0.00126408
0.000985919
0.000960108
0.000722685
0.00262657
0.000986932
0.000510424
0.00113317
0.00169543
0.00113117
0.000485018
0.000604972
0.00071468
0.00229019
0.00170382
0.000788927
0.00105308
0.00124534
0.00125784
0.000715728
0.000707307
0.000786513
0.000808227
0.00271467
0.00146375
0.000828538
0.000923575
0.0009344
0.00108652
0.000796963
0.000882888
0.000966157
0.000770294
0.000652467
0.000745313
0.000672224
0.000825574
0.00061473
0.000740108
0.00068056
0.000425539
0.000284945
0.000557627
0.000321344
0.000825165
0.000286894
0.000900074
0.000541945
0.000554154
0.000396748
0.00037331
0.000467742
0.000555506
0.000276573
0.000194519
0.000340589
0.000220574
0.00032113
0.000468398
0.000476509
0.000394728
0.000442155
0.000664528
0.000359109
0.000222477
0.000198067
0.000145472
6.57028e-05
0.000137832
0.000125481
0.000141162
0.000165253
0.000292339
0.00232801
0.00237466
0.000247247
0.00256202
0.00216872
0.000385099
0.000211279
0.000699811
0.00218686
0.000522936
0.00041977
0.000354627
0.000736156
0.00225488
0.000720421
0.000482469
0.000467751
0.00072958
0.00220541
0.000556623
0.00052878
0.000682119
0.000458141
0.000459742
0.00224489
0.000681457
0.000363279
0.000556768
0.00043673
0.0005541
0.000612631
0.00229742
0.000615949
0.000257976
0.000778145
0.000975139
0.00116517
0.000764934
0.000668224
0.00239907
0.000875043
0.000468
0.000602118
0.00109336
0.00154472
0.000989347
0.00108086
0.000745581
0.00262635
0.000626528
0.000727299
0.000946535
0.00120218
0.00117722
0.00056775
0.000546041
0.00057824
0.000537946
0.00243364
0.00203514
0.000748433
0.00100046
0.00102244
0.000903342
0.000697775
0.000635433
0.000610919
0.000305211
0.000603241
0.00226978
0.00147401
0.000903849
0.000717914
0.000938161
0.00124439
0.00106257
0.000779746
0.000618248
0.000854234
0.000682131
0.00101333
0.000767764
0.000681906
0.000983993
0.000663925
0.000853508
0.000693057
0.000454692
0.000230544
0.000668634
0.000694264
0.000844785
0.000453799
0.000253145
0.000885715
0.000533646
0.000424843
0.000372
0.000374277
0.000485837
0.000574814
0.000317319
0.000213035
0.000267454
0.000383664
0.000325129
0.00032317
0.000366289
0.00041832
0.000388527
0.000358278
0.000671707
0.000421442
0.000196659
0.000154072
0.00018762
6.72529e-05
0.000134004
0.00012426
0.000182304
0.000192151
0.000315267
7.17006e-05
0.00218989
0.00231162
0.00058744
0.00245336
0.00232602
0.000530357
0.000399688
0.000758209
0.0022269
0.000468304
0.000441396
0.000129323
0.000394589
0.00226645
0.000738804
0.00021603
0.000453999
0.000444861
0.000247213
0.00222881
0.000575142
0.000319619
0.000405533
0.00040532
0.000381785
0.00234608
0.000591137
0.000692818
0.000389637
0.000453432
0.000352576
0.000393261
0.00246189
0.000729276
0.000532411
0.00029099
0.000656792
0.000247892
0.000712815
0.000772104
0.0023766
0.000927561
0.000994966
0.000396586
0.00081932
0.000556529
0.000457979
0.000629061
0.00055823
0.00249288
0.00121596
0.00117055
0.000729913
0.000696078
0.000802917
0.000846918
0.000829102
0.000689195
0.000727507
0.00276788
0.000938896
0.000761644
0.000797094
0.0011258
0.000848442
0.000707719
0.0004969
0.000557351
0.000639592
0.000627764
0.00236316
0.00134868
0.000812772
0.000743797
0.000745274
0.00045983
0.000538455
0.000439155
0.000581461
0.000375339
0.00075697
0.000274403
0.00148869
0.00114782
0.00081075
0.000715619
0.00107587
0.00149021
0.00142753
0.0011191
0.00102929
0.000766903
0.00103745
0.000530197
0.000331839
0.000716734
0.000775722
0.000883165
0.000592843
0.00137542
0.000892778
0.000609097
0.000637686
0.000356303
0.000813595
0.000235497
0.000418642
0.00017728
0.00045404
0.000877714
0.000558016
0.000549207
0.000373315
0.000321027
0.000512886
0.00057914
0.000318103
0.000224665
0.000272345
0.000381802
0.000350756
0.00029983
0.000399499
0.000295979
0.000407693
0.000349017
0.000334411
0.000651783
0.000558149
0.000162576
0.000281866
0.000195186
9.02297e-05
0.000142563
0.000116488
0.000183782
0.000206641
0.000260639
0.000127151
0.000104522
0.00212479
0.00225351
0.000537017
0.00235283
0.00231682
0.000418277
0.000596465
0.000743722
0.00261107
0.00240048
0.000502609
0.000331741
0.000414984
0.000526386
0.0021998
0.000382722
0.000326982
0.000409889
0.000620189
0.000406635
0.00220967
0.000408727
0.000328064
0.000354563
0.000277283
0.000269863
0.00029561
0.00235063
0.000552173
0.000605951
0.00042059
0.000437203
0.000303029
0.000312268
0.0023201
0.000577339
0.00060865
0.000506898
0.000505409
0.000377873
0.000425002
0.000573527
0.00237919
0.000952095
0.000641472
0.000632893
0.000370648
0.000484517
0.000610767
0.000760644
0.000809795
0.00258898
0.00169171
0.000790405
0.000767148
0.000664884
0.000672914
0.000892572
0.000596463
0.000646194
0.00100424
0.00267535
0.00102871
0.000994581
0.000563702
0.000873411
0.000829836
0.000756042
0.000656771
0.000589882
0.000835103
0.000615209
0.00293017
0.00119156
0.000635618
0.000447321
0.000542766
0.000838179
0.000713681
0.000544479
0.000569971
0.000568691
0.000392166
0.000380294
0.00196678
0.000721914
0.00053156
0.000655811
0.000361518
0.000363638
0.000708376
0.000753175
0.000454355
0.000899139
0.000310326
0.000400106
0.000564437
0.00100256
0.00134246
0.00139263
0.000604109
0.000931483
0.00161541
0.00140545
0.00134496
0.000926636
0.000745044
0.0010849
0.000407706
0.000572693
0.000282131
0.000782458
0.000839379
0.000628319
0.000601786
0.00137162
0.000833766
0.000607268
0.000969525
0.000539483
0.000195435
0.00100869
0.000635296
0.000218512
0.00063285
0.000711838
0.000838423
0.000615681
0.000586221
0.000420697
0.000363188
0.000507157
0.000538386
0.000328838
0.000230821
0.000273764
0.000337142
0.000484216
0.000350799
0.000388643
0.000259774
0.000285027
0.000384229
0.00045447
0.000263358
0.000595613
0.000782046
0.000200264
0.000301986
0.000167132
0.000124492
0.000157307
0.000134811
0.000153495
0.000200343
0.000241349
0.000148166
0.000105891
9.57163e-05
0.00208618
0.00218767
0.000558906
0.00218951
0.00221737
0.000470678
0.000615722
0.000707717
0.00233591
0.00217763
0.000471576
0.000494564
0.000416197
0.000469917
0.000669972
0.00229667
0.000370502
0.000403348
0.000574811
0.000171753
0.000192978
0.00217372
0.00102483
0.000587512
0.000453397
0.000261682
0.000190394
0.000312962
0.00225542
0.000819298
0.000838914
0.000269503
0.000323821
0.000302536
0.000346197
0.000245088
0.00224889
0.000662441
0.000603925
0.000390071
0.000539741
0.000431716
0.000375612
0.00040296
0.00235463
0.000496219
0.000684275
0.000531801
0.000666097
0.000611938
0.00065856
0.000641328
0.000641152
0.0022927
0.000752901
0.000719676
0.000744983
0.00048216
0.000762864
0.000676853
0.000837011
0.000383193
0.000565811
0.00246717
0.00104978
0.000904964
0.000971364
0.000428165
0.00101544
0.000708089
0.000982536
0.000615216
0.000892628
0.000716757
0.00290651
0.000761817
0.00112735
0.000560573
0.000591333
0.000689881
0.000505153
0.000822287
0.00107993
0.000995683
0.00074362
0.000442814
0.00277131
0.000981919
0.000868213
0.000802693
0.000882955
0.000648167
0.000324718
0.000329398
0.000346871
0.000545479
0.000455646
0.000622984
0.000390973
0.0021302
0.000820875
0.00027956
0.000690311
0.000309778
0.00045261
0.00116766
0.000824332
0.00057258
0.000676111
0.000685183
0.000516393
0.000529411
0.000545083
0.000755702
0.00119816
0.00137538
0.000773528
0.000795017
0.00147374
0.0010189
0.000475843
0.000596652
0.000304921
0.000472457
0.000493461
0.000435265
0.000333005
0.000439993
0.000975586
0.000944716
0.000567443
0.0011544
0.00094232
0.000838737
0.000652534
0.00079655
0.000519356
0.000418257
0.000673683
0.000386042
0.00030445
0.000511155
0.000385979
0.000644289
0.000773946
0.000690871
0.000401899
0.0004619
0.000465657
0.000544556
0.000350204
0.000337919
0.000280224
0.00027556
0.000313202
0.000482286
0.000460618
0.00029111
0.000365621
0.000283401
0.000297962
0.000413802
0.000516629
0.000212477
0.000644301
0.000891154
0.000289031
0.000339225
0.000183367
0.000149455
0.000169531
0.00017573
0.000126967
0.000174584
0.000249441
0.000119808
0.000104091
9.05435e-05
0.000106742
0.00209618
0.00202657
0.000201456
0.00215079
0.00215445
0.000311491
0.000386455
0.000452671
0.00215698
0.00214687
0.00038961
0.000564997
0.000203644
0.000458612
0.000630337
0.00230185
0.000597239
0.000337424
0.000344043
0.000365204
0.000334782
0.000347465
0.00227069
0.000285678
0.000300535
0.000236956
0.000347333
0.000348267
0.000574482
0.00224322
0.000792538
0.000343489
0.000259101
0.000254421
0.000275311
0.000281798
0.000426341
0.00234987
0.000626999
0.000425825
0.000329348
0.000422356
0.000320416
0.000461818
0.000446247
0.000299849
0.00231416
0.000455434
0.000505434
0.000343544
0.000633002
0.000310779
0.000474314
0.000488543
0.00021428
0.00237974
0.00058994
0.000602054
0.000463016
0.000728797
0.000580247
0.000692342
0.000716937
0.000545018
0.000758688
0.00228768
0.000883709
0.00092252
0.000391942
0.00050829
0.000659861
0.000535031
0.000775613
0.000592492
0.000617391
0.000764755
0.00264265
0.000969172
0.000877441
0.00109722
0.000486196
0.000601568
0.000523329
0.00085473
0.000579804
0.000654059
0.000803774
0.000681644
0.00280295
0.00080947
0.000787849
0.000809753
0.000804895
0.000984503
0.000859228
0.000644027
0.000680589
0.00141118
0.000673463
0.000755315
0.000494857
0.00258503
0.000582776
0.00107219
0.000529557
0.000661742
0.00118376
0.000569021
0.000519854
0.000131722
0.00074425
0.000325036
0.000568325
0.000312886
0.000471494
0.00269922
0.0012681
0.000895135
0.000360137
0.000453569
0.000562122
0.000851697
0.000647111
0.000629248
0.00076337
0.000798685
0.000571862
0.000405926
0.000392324
0.000429966
0.00115674
0.0015175
0.00126335
0.00148048
0.000782186
0.00107111
0.000806332
0.00106677
0.000798064
0.000636149
0.000658866
0.00070699
0.000540927
0.000569693
0.000478159
0.0007193
0.00114094
0.000889794
0.00048395
0.00101735
0.00101402
0.00085
0.000606072
0.000599416
0.000719047
0.000170396
0.00033068
0.000169006
0.000335438
0.00048226
0.000694751
0.000289872
0.000312245
0.000698534
0.000822276
0.000129393
0.000476428
0.000501821
0.000578783
0.000178303
0.00032514
0.000329795
0.000259286
0.000333755
0.000347205
0.000778048
0.000395275
0.000279074
0.000270006
0.000267622
0.000263643
0.000474335
0.00033193
0.000209824
0.000551751
0.000790723
0.000356184
0.0003907
0.000219844
0.000180641
0.000189847
0.000200232
0.000119366
0.000149295
0.000220329
9.65396e-05
8.13197e-05
8.56309e-05
0.000108754
0.000106988
0.00209812
0.00211799
0.000591462
0.00220693
0.00216592
0.000632043
0.000566311
0.000700997
0.0021249
0.00221162
0.000247879
0.000468339
0.000535581
0.000231852
0.000348565
0.00211653
0.00035896
0.000546244
0.000463233
0.000365074
0.000316145
0.000364802
0.00231293
0.000660531
0.00029714
0.000442263
0.000355663
0.000483648
0.000425881
0.000384233
0.00216754
0.00065393
0.000229017
0.000190743
0.00032378
0.000480635
0.000388503
0.000396386
0.00215278
0.000146021
0.000592356
0.000195264
0.000222656
0.000438339
0.000297173
0.000266813
0.000378128
0.0023272
0.000602147
0.000283228
0.000357631
0.000598726
0.000182528
0.000333386
0.000400436
0.00030941
0.000290033
0.00233467
0.000372784
0.000554333
0.000497777
0.00050723
0.000289756
0.000295867
0.000316537
0.000309427
0.000451789
0.00230547
0.000946105
0.000313399
0.000444228
0.000520673
0.000595553
0.000342423
0.000405773
0.000649575
0.000754601
0.00044847
0.00247516
0.000769718
0.000653122
0.00055287
0.000835632
0.000441713
0.000602231
0.000567345
0.00114126
0.000630448
0.000555789
0.000432746
0.00252623
0.00116518
0.00134876
0.000879317
0.00108113
0.000507929
0.000706476
0.000293727
0.00070312
0.000384521
0.00054053
0.00076213
0.000361342
0.00270952
0.00126145
0.000943828
0.000496193
0.000909557
0.00043253
0.000789128
0.000425879
0.000646969
0.000409012
0.000901576
0.000864566
0.000430755
0.000641111
0.00286484
0.000940676
0.000665692
0.000418719
0.000757831
0.000353488
0.000631626
0.000337257
0.000266659
0.000602868
0.000531195
0.00034697
0.000405078
0.000499583
0.000503626
0.00307277
0.00129234
0.00127032
0.000328335
0.000498844
0.000639115
0.000771146
0.000775785
0.000489079
0.00131051
0.000936862
0.0010966
0.000569929
0.000406293
0.000589121
0.000533639
0.00116454
0.00123562
0.000993293
0.00111318
0.00177211
0.00110479
0.00067654
0.000931035
0.000889496
0.000658809
0.000526146
0.000644655
0.000681994
0.000307734
0.000487448
0.000604336
0.000828064
0.00128205
0.000987159
0.000454084
0.000674328
0.000881236
0.000679132
0.000463141
0.000471614
0.000835645
0.000237061
0.000319313
0.000305595
0.000397294
0.000754649
0.000499212
0.000440561
0.000311124
0.000322044
0.000619629
0.000893506
0.000313349
0.000480646
0.000412927
0.000542084
0.000212542
0.000200374
0.000409149
0.000258245
0.000320718
0.000265168
0.000802667
0.000582618
0.000400238
0.000264583
0.000258212
0.000240524
0.000429802
0.000395758
0.000345791
0.000284082
0.000487852
0.000746952
0.000349056
0.000398016
0.000232079
0.000220852
0.000216122
0.000204052
0.000118203
0.000146305
0.000254098
0.000108529
7.39205e-05
8.2015e-05
0.000117372
0.000103257
0.000143479
0.00203376
0.00208775
0.000334044
0.00218578
0.00214962
0.00070353
0.000218658
0.000264222
0.00218487
0.00219048
0.00050056
0.000304367
0.000348826
0.000467861
0.000390604
0.00215187
0.000505501
0.000331215
0.000581079
0.000298098
0.000324681
0.000316176
0.0020987
0.000607454
0.000478805
0.000716477
0.000445374
0.000397288
0.000374899
0.000593935
0.00234611
0.00052755
0.000527853
0.00036758
0.000475416
0.000607002
0.000452228
0.00043542
0.000546615
0.0021532
0.000820854
0.000292201
0.000295889
0.00052573
0.00041138
0.000408828
0.000305886
0.000382324
0.00209342
0.000409997
0.000423067
0.000259123
0.000386175
0.000326473
0.000283485
0.000311188
0.000262132
0.000348745
0.00236797
0.000531625
0.000350634
0.000333881
0.000489275
0.000442054
0.000239515
0.000320489
0.000321146
0.000348535
0.000276097
0.00237499
0.000667151
0.000237832
0.000499289
0.000582046
0.000445059
0.000592205
0.000450223
0.000435469
0.000341302
0.000449556
0.00233167
0.000793571
0.000488564
0.000709249
0.000552854
0.00031681
0.000348455
0.000370746
0.000413584
0.000366987
0.000490568
0.000608214
0.00199283
0.000961896
0.000577927
0.000579519
0.000920959
0.000590879
0.000588516
0.000592536
0.000853146
0.000762834
0.000388483
0.000443091
0.000308783
0.00248269
0.00121459
0.000884904
0.000340534
0.000877237
0.000740404
0.000603902
0.000482753
0.000966564
0.000501777
0.000396179
0.000602301
0.000481105
0.00038286
0.00298986
0.00101264
0.000564299
0.000518888
0.000403555
0.000619467
0.000699021
0.000722581
0.000628196
0.000127004
0.000724359
0.000626473
0.00070681
0.000575421
0.000432001
0.00255794
0.00084243
0.000636419
0.000662285
0.00076794
0.000634771
0.00068477
0.000541206
0.000676753
0.000458523
0.000261766
0.000288414
0.000248905
0.000533375
0.00101243
0.000502763
0.00315736
0.00205022
0.00139911
0.000798275
0.000492419
0.000419961
0.000624544
0.000435647
0.000682922
0.00115071
0.00112349
0.000860288
0.000430567
0.000442557
0.000326863
0.000430342
0.000624147
0.00127841
0.000906184
0.000723837
0.00119899
0.00206491
0.00103082
0.000783603
0.000419159
0.000526699
0.0006724
0.000748708
0.000508921
0.000547193
0.0003785
0.000363751
0.000358541
0.000424434
0.000649777
0.00116431
0.000810134
0.000485687
0.000665155
0.000793697
0.000651175
0.000536436
0.000427658
0.000515674
0.00035908
0.000330308
0.000407891
0.000300598
0.000525089
0.000539568
0.000596232
0.000509476
0.000289949
0.00028707
0.000555341
0.000825927
0.000578232
0.000369527
0.000269478
0.000513315
0.0002252
0.000123196
0.000447192
0.000221582
0.000250547
0.000223879
0.000616239
0.000675204
0.000466187
0.000256665
0.000269024
0.00022629
0.000389448
0.000462717
0.000374295
0.000450069
0.000331065
0.000367505
0.000696476
0.000401507
0.000265303
0.000223151
0.00025353
0.000223949
0.000202349
0.00014684
0.000158543
0.000328028
0.000153787
8.21352e-05
6.74446e-05
0.000124055
0.0001014
0.000112523
0.000170587
0.00200327
0.00208745
0.000429865
0.00217831
0.00208844
0.000446252
0.000474353
0.000249984
0.00216812
0.0020404
0.00018143
0.000248335
0.000448671
0.000448766
0.000481222
0.00211744
0.000461595
0.000248326
0.000494806
0.000158633
0.000247285
0.000216674
0.00220481
0.000443119
0.000236694
0.000316725
0.000220918
0.000238295
0.000271267
0.000212772
0.00217458
0.000544066
0.000503992
0.000679365
0.000468981
0.000423272
0.000399978
0.000412097
0.000574429
0.00228343
0.00072018
0.00055341
0.000458583
0.000650699
0.000595069
0.000352726
0.000464864
0.00038575
0.000600936
0.00215722
0.000545771
0.000523327
0.000440912
0.000502448
0.000421424
0.000244779
0.000309662
0.000424448
0.000270011
0.00213871
0.000440278
0.000427013
0.000326093
0.00030417
0.000253275
0.000301869
0.000391843
0.000200801
0.000210219
0.000368551
0.00232608
0.000537557
0.000242914
0.000161449
0.000341641
0.000415848
0.000349152
0.00027182
0.000341158
0.000403703
0.000398231
0.000390711
0.00243694
0.000930153
0.000398035
0.00052294
0.000647941
0.000445657
0.00059622
0.000450203
0.00050318
0.000441938
0.000732637
0.000370521
0.00237529
0.000670049
0.000994639
0.000601318
0.000465506
0.000277536
0.000363601
0.000459126
0.000396426
0.000396846
0.000609052
0.000550215
0.000591593
0.00309664
0.000884534
0.000843819
0.000513426
0.000715494
0.000659063
0.000722204
0.000679475
0.000572914
0.000729894
0.000806383
0.00050206
0.000700189
0.000632916
0.0029312
0.00098173
0.000763262
0.00101084
0.000732663
0.00091064
0.000856449
0.00106723
0.000872811
0.00112241
0.000790028
0.000357078
0.000747222
0.000352622
0.000583209
0.00268992
0.000783515
0.000881099
0.000885865
0.000477536
0.000774441
0.000607254
0.000565982
0.000992017
0.00150382
0.000534245
0.000322518
0.00108244
0.000444945
0.000612234
0.000387176
0.00298645
0.00123536
0.00112665
0.000729265
0.000525709
0.000694269
0.00036476
0.000304255
0.000414065
0.00102178
0.000399882
0.000331205
0.00111343
0.000487996
0.000829182
0.000554794
0.000388835
0.0029065
0.00168179
0.00139842
0.000801365
0.000435694
0.000486259
0.000461471
0.000621904
0.000458974
0.000789096
0.000934614
0.00095796
0.000723788
0.000482865
0.000437507
0.000325991
0.00069912
0.000634936
0.00116442
0.00091503
0.000885152
0.00106088
0.0011727
0.000822099
0.000765065
0.000373032
0.000439713
0.000653844
0.000717645
0.000546905
0.000348991
0.000523728
0.000534459
0.000572235
0.000417435
0.000371122
0.000613803
0.00115498
0.000833886
0.000499577
0.000655088
0.000622411
0.000281372
0.000529022
0.00034153
0.000465239
0.000394826
0.000236476
0.000365094
0.000320084
0.000743237
0.000453022
0.000443266
0.000358854
0.000386896
0.000209618
0.000175021
0.000510597
0.000693911
0.000795503
0.000440095
0.000306184
0.000367132
0.000176355
0.000124451
0.000309367
0.000188662
0.000164206
0.000241532
0.000724549
0.000719313
0.000491261
0.000306558
0.000281777
0.000206913
0.000351617
0.000471468
0.000396093
0.000506326
0.00033702
0.000358662
0.000277342
0.000594309
0.000527159
0.000102181
0.000209328
0.000259756
0.000241745
0.000241514
0.000166824
0.000190494
0.000297295
0.000204055
6.52061e-05
6.88147e-05
0.000137336
9.69196e-05
0.000125358
0.000151675
0.000131198
0.00195156
0.00197215
0.000228249
0.00213191
0.00209378
0.000555489
0.000269982
0.000408902
0.00218633
0.00201992
0.000475778
0.000425314
0.000234568
0.000530929
0.000380473
0.0021581
0.000369467
0.000307636
0.000259502
0.000282976
0.000410401
0.000213427
0.00222781
0.000298063
0.000294157
0.000392664
0.000164822
0.000299045
0.000292332
0.000274066
0.00222674
0.000330532
0.000491725
0.000409515
0.000296616
0.000224474
0.000254238
0.000259549
0.00032146
0.00217335
0.000598805
0.000292728
0.000388253
0.000372971
0.000259746
0.000364528
0.000249966
0.000342727
0.000384103
0.00216469
0.000797062
0.000278248
0.000527514
0.000391243
0.000484569
0.00033546
0.000348135
0.000432862
0.000454242
0.000467547
0.00211875
0.000317902
0.000660433
0.000297429
0.000381236
0.000366995
0.000222818
0.000297883
0.000527419
0.000529601
0.000581884
0.00232448
0.000641868
0.000318539
0.000267283
0.000354332
0.000290487
0.000475581
0.00025424
0.000227827
0.000407536
0.000453983
0.000453627
0.00244132
0.000626708
0.000671112
0.00026065
0.000277341
0.000277988
0.000283509
0.000136557
0.000375866
0.00020419
0.000364476
0.000296136
0.000481351
0.00233585
0.000681662
0.00105628
0.0004331
0.000695151
0.000641179
0.000357281
0.000327501
0.00045353
0.000524774
0.000561135
0.000495482
0.000751542
0.00258505
0.000800841
0.00103745
0.000761418
0.000725225
0.000595617
0.000233669
0.000460991
0.000500658
0.000653486
0.000940257
0.000561367
0.000547016
0.000491076
0.00211019
0.000645869
0.00123282
0.00116209
0.000494134
0.000648906
0.000385059
0.000588233
0.000623759
0.000709778
0.000763709
0.000739782
0.000771473
0.000587771
0.000873556
0.00258958
0.00105151
0.000924055
0.001235
0.000438724
0.000830173
0.000627738
0.00101575
0.000611197
0.000881863
0.000615706
0.000319501
0.00080575
0.000492072
0.000325198
0.000473892
0.00328069
0.00107258
0.000713911
0.000723361
0.00054954
0.000742838
0.000910617
0.000917299
0.000585318
0.000884075
0.000570486
0.0003463
0.000496677
0.000444555
0.000547327
0.000511602
0.000547667
0.00364932
0.00164701
0.000517727
0.00085746
0.00044843
0.000663055
0.000810763
0.000412518
0.000263502
0.000655016
0.000509505
0.000350575
0.000269374
0.000287988
0.00110794
0.00050841
0.000819567
0.000256095
0.00251539
0.00151263
0.00109266
0.00102104
0.000853265
0.000333221
0.000654885
0.000608703
0.000816484
0.000648575
0.000441833
0.000419515
0.000648291
0.000264466
0.00046055
0.000376742
0.000412861
0.000737454
0.000743036
0.00118124
0.000650719
0.000664598
0.00109524
0.000880338
0.000652317
0.000721517
0.000512722
0.00042593
0.000477544
0.000570525
0.000700109
0.000391368
0.000586069
0.000496629
0.000560245
0.000820098
0.000568514
0.000522182
0.000651597
0.00136533
0.000869491
0.000500011
0.000541467
0.000554126
0.000378036
0.000389739
0.000268256
0.000285904
0.0002975
0.000371088
0.000399197
0.000393053
0.000406064
0.000579023
0.00042524
0.000373282
0.000219127
0.000174962
0.00022214
0.00038376
0.000471513
0.000473614
0.0009397
0.000467965
0.000462352
0.000331322
0.000223219
6.36285e-05
0.000277393
0.000324669
0.000215509
0.000265444
0.000645193
0.000627169
0.000437392
0.000310889
0.000288578
0.000197498
0.000331774
0.000396859
0.000358161
0.00024833
0.000479846
0.000340449
0.000417321
0.000238995
0.000474523
0.000590303
0.000243758
0.000185742
0.000214787
0.000198811
0.000290786
0.000184568
0.000207507
0.000297169
0.000105171
7.15305e-05
6.48407e-05
0.000157299
0.000104325
0.000137216
0.000181268
0.000166436
0.000281969
0.00197445
0.00197109
0.000403534
0.00213771
0.00197551
0.000252017
0.000354078
0.000403196
0.00215371
0.00205267
0.000420927
0.000353446
0.000524
0.000343033
0.00047838
0.00203502
0.000374948
0.000348617
0.00035538
0.000498208
0.000256418
0.000475838
0.0022444
0.000499133
0.000402966
0.00034373
0.000364413
0.000330526
0.000484644
0.000349105
0.00216519
0.000415708
0.000375112
0.000451477
0.000360277
0.000288503
0.000234201
0.000230667
0.000278853
0.00223658
0.000301407
0.000548544
0.000182495
0.000286018
0.000228557
0.000219129
0.000386035
0.000217805
0.000254913
0.00221103
0.000429459
0.000461475
0.000287599
0.000485991
0.000286998
0.000314004
0.000176979
0.00051525
0.000271946
0.000321625
0.00213781
0.000603897
0.0004587
0.000335599
0.000524833
0.000338268
0.000388349
0.000477875
0.000412644
0.000364296
0.000559974
0.000420635
0.00213667
0.000466667
0.000501097
0.000442868
0.000336585
0.000440964
0.000262837
0.000427309
0.000533158
0.000650799
0.000589526
0.000283209
0.00239437
0.000532519
0.000527079
0.000537021
0.00039751
0.000416349
0.000264255
0.000281512
0.000298528
0.00045306
0.000538812
0.000716079
0.000426399
0.00238746
0.000728206
0.000440592
0.000317284
0.00040042
0.000401532
0.000447781
0.000180078
0.000324975
0.000363595
0.000442201