/*--------------------------------*- C++ -*----------------------------------*\
  =========                 |
  \\      /  F ield         | OpenFOAM: The Open Source CFD Toolbox
   \\    /   O peration     | Website:  https://openfoam.org
    \\  /    A nd           | Version:  7
     \\/     M anipulation  |
\*---------------------------------------------------------------------------*/
FoamFile
{
    version     2.0;
    format      ascii;
    class       volScalarField;
    location    "8.5";
    object      p;
}
// * * * * * * * * * * * * * * * * * * * * * * * * * * * * * * * * * * * * * //

dimensions      [0 2 -2 0 0 0 0];

internalField   nonuniform List<scalar> 
18750
(
-70.1655
-68.1128
-70.2475
-70.5198
-65.5119
-68.1122
-69.2683
-70.3326
-70.7367
-71.6053
-64.7732
-65.7272
-62.4721
-68.1222
-69.4403
-72.0901
-70.4244
-71.0152
-71.8626
-72.9552
-63.2946
-64.949
-66.1889
-65.9357
-64.9671
-72.2356
-68.1724
-69.686
-72.3465
-73.6108
-70.5435
-71.3236
-72.1522
-73.0924
-73.7881
-62.4919
-63.2547
-66.9458
-64.9952
-66.7062
-70.7572
-66.1036
-66.1915
-72.4318
-72.8342
-68.2767
-69.9807
-72.5593
-73.8428
-73.6327
-70.693
-71.653
-72.4322
-73.2675
-73.847
-73.4398
-60.3729
-62.4568
-62.7694
-63.4205
-67.0579
-68.7253
-64.9073
-66.58
-70.806
-72.5746
-66.3229
-66.8085
-72.5225
-73.1797
-72.1978
-68.4355
-70.2993
-72.7007
-74.0509
-73.7227
-72.7064
-70.859
-71.9114
-72.7089
-73.4737
-73.9072
-73.4704
-73.003
-59.1776
-60.398
-60.6017
-62.6225
-62.4564
-64.7495
-63.2945
-66.9768
-68.4005
-69.3427
-64.9768
-66.5614
-70.7374
-72.8053
-71.5196
-66.579
-67.5131
-72.7292
-73.5846
-72.378
-71.4264
-68.6774
-70.6577
-72.8689
-74.2606
-73.7809
-72.7395
-71.9249
-71.0176
-72.2357
-72.9061
-73.6921
-73.9697
-73.4811
-73.0358
-72.9771
-57.9201
-59.1557
-59.1386
-60.3345
-60.8681
-61.4935
-62.8078
-62.9846
-64.6165
-64.7359
-63.1063
-66.5702
-67.9719
-69.1052
-69.2373
-65.0621
-66.764
-70.7906
-72.8415
-71.5272
-70.4387
-66.8009
-68.2694
-72.9907
-73.9213
-72.4764
-71.5828
-71.1172
-68.9553
-70.9815
-73.0471
-74.4165
-73.8457
-72.7631
-71.9401
-72.5533
-71.1479
-72.5584
-73.1681
-73.8817
-74.0243
-73.463
-73.0682
-72.9963
-73.0404
-57.0293
-58.0155
-58.2194
-59.218
-59.0983
-59.7949
-60.2558
-61.4834
-61.5924
-61.7562
-62.9437
-63.3021
-64.3796
-64.9595
-65.4821
-63.0137
-66.4894
-67.8811
-68.8555
-69.3701
-68.4233
-64.8437
-67.0909
-70.9768
-72.6153
-71.4883
-70.3087
-70.1824
-67.0209
-68.9877
-73.2971
-74.1237
-72.5707
-71.5758
-71.1073
-71.3663
-69.2003
-71.2051
-73.1962
-74.5349
-73.8994
-72.796
-71.9664
-72.6097
-72.9103
-71.332
-72.8555
-73.4007
-74.0475
-74.068
-73.4569
-73.0972
-73.0124
-73.0583
-73.2805
-56.346
-57.0752
-56.8581
-58.1622
-58.2557
-58.1909
-59.2759
-59.2945
-59.7052
-59.7712
-60.5019
-61.611
-61.232
-62.0114
-62.5631
-62.7987
-63.3506
-64.3674
-65.0892
-65.4292
-65.5804
-63.1511
-66.9814
-67.6534
-69.0905
-69.2915
-68.3965
-68.0454
-64.6989
-67.3663
-71.1588
-72.4872
-71.3522
-70.1558
-70.0391
-70.4417
-67.3955
-69.4902
-73.5301
-74.3972
-72.6211
-71.6596
-71.177
-71.4158
-72.3354
-69.4692
-71.3962
-73.3832
-74.5662
-73.92
-72.8173
-72.0022
-72.6685
-72.9404
-73.4214
-71.7533
-73.1091
-73.6166
-74.1573
-74.0986
-73.443
-73.1254
-73.03
-73.08
-73.2918
-73.2452
-55.8659
-56.4224
-56.3692
-57.0783
-57.084
-57.103
-58.2579
-58.6302
-58.2747
-58.4176
-59.4764
-59.296
-60.0261
-59.7864
-60.2406
-60.5214
-61.6941
-61.7585
-62.2378
-62.4074
-62.4664
-62.6101
-63.4976
-64.5565
-65.1775
-65.3716
-65.4588
-65.9047
-63.2724
-67.0437
-67.602
-69.1592
-69.1339
-68.2209
-67.8189
-68.3011
-64.7324
-67.5906
-71.615
-72.3269
-71.1577
-69.9585
-69.9138
-70.3712
-70.9724
-67.632
-69.8776
-73.6872
-74.7412
-72.5957
-71.8072
-71.1909
-71.4809
-72.3881
-72.7497
-69.795
-71.5443
-73.552
-74.5471
-73.9481
-72.8266
-72.0501
-72.7225
-72.9771
-73.4442
-73.5246
-72.3884
-73.3562
-73.8189
-74.2174
-74.1134
-73.419
-73.1524
-73.0518
-73.0999
-73.3077
-73.2462
-73.1016
-55.4368
-55.907
-55.7966
-55.8734
-56.503
-56.5476
-56.3801
-57.0523
-57.1923
-57.4151
-57.3181
-58.3389
-58.5742
-58.4334
-58.4151
-58.5629
-59.518
-59.6084
-60.2421
-59.9059
-60.0989
-60.2434
-60.6911
-61.7581
-61.701
-62.4975
-62.5781
-62.2818
-62.5859
-62.563
-63.3831
-64.6863
-65.0028
-65.5116
-65.3487
-65.8826
-66.0746
-63.5485
-67.0205
-67.8342
-68.9616
-69.0088
-68.0409
-67.6592
-68.4168
-68.8643
-64.9263
-67.8412
-72.1846
-72.3466
-71.0395
-69.786
-69.7598
-70.7436
-70.5623
-71.3311
-67.8335
-70.1937
-73.7982
-74.8391
-72.6101
-71.5575
-71.2335
-71.6019
-72.4889
-72.8582
-72.7767
-70.1572
-71.6672
-73.6796
-74.5764
-73.9824
-72.8439
-72.1202
-72.7814
-73.0172
-73.4636
-73.5202
-73.2981
-73.0542
-73.6877
-73.9994
-74.2611
-74.1099
-73.4174
-73.1771
-73.0746
-73.1131
-73.3214
-73.2453
-73.0945
-72.882
-54.9721
-55.4222
-55.2669
-55.3931
-55.9244
-55.9266
-55.8797
-56.0264
-56.4963
-56.5631
-56.5357
-56.6008
-57.0779
-57.2164
-57.4676
-57.3407
-57.4495
-58.3254
-58.5124
-58.422
-58.5221
-58.523
-58.6188
-59.4425
-59.4556
-59.959
-59.9667
-60.0521
-60.0872
-60.3505
-60.8145
-61.4584
-61.9087
-62.3017
-62.3468
-62.1633
-62.4936
-62.6486
-62.7438
-63.7016
-64.7998
-65.1893
-65.506
-65.2948
-65.9167
-66.0288
-65.7786
-63.915
-66.946
-68.384
-68.982
-68.8703
-67.765
-67.5649
-68.4249
-68.9169
-69.1296
-64.8752
-68.2232
-72.4545
-72.4335
-71.0169
-69.707
-69.7541
-71.0578
-70.6409
-71.4438
-71.3581
-68.4081
-70.398
-73.8767
-74.8637
-72.719
-71.5243
-71.2954
-71.7119
-72.5847
-72.9644
-72.7901
-72.5758
-70.5537
-71.8165
-73.7838
-74.6218
-74.0004
-72.8814
-72.2101
-72.8454
-73.0538
-73.478
-73.5222
-73.2914
-73.0322
-73.8234
-74.0397
-74.1486
-74.3316
-74.0928
-73.4169
-73.2009
-73.1016
-73.1243
-73.3334
-73.2437
-73.0865
-72.8907
-72.5008
-54.4794
-55.019
-55.1363
-54.9371
-55.408
-55.4941
-55.6141
-55.263
-55.8158
-55.8862
-56.016
-56.0036
-55.8294
-56.4176
-56.5532
-56.5515
-56.5714
-56.566
-57.1735
-57.3302
-57.4112
-57.3693
-57.4392
-57.5785
-58.4031
-58.542
-58.5166
-58.3974
-58.5541
-58.5346
-58.7099
-59.3869
-59.6573
-60.0065
-59.9115
-59.9039
-60.0233
-60.2065
-60.4482
-60.9683
-61.5856
-61.8321
-62.2173
-62.1106
-62.0872
-62.3842
-62.7096
-62.713
-62.9748
-64.0559
-65.016
-65.19
-65.7144
-65.132
-65.7799
-65.887
-66.0294
-65.7924
-64.3527
-67.1224
-68.7617
-69.0871
-68.7704
-67.7659
-67.5631
-68.3039
-69.0666
-69.2829
-69.2929
-65.1369
-68.5919
-72.6288
-72.5572
-70.9378
-69.6832
-69.8177
-70.9542
-71.1469
-71.6391
-71.2964
-71.1664
-68.8349
-70.5569
-73.8839
-74.8339
-72.7252
-71.7353
-71.3691
-71.8159
-72.6434
-73.0818
-72.8672
-72.6676
-72.4921
-70.9708
-71.9905
-73.919
-74.6601
-74.0131
-72.9406
-72.3215
-72.9138
-73.0862
-73.4853
-73.5258
-73.2815
-73.0225
-72.7192
-74.4728
-74.2896
-74.2884
-74.4187
-74.0722
-73.4279
-73.2248
-73.1301
-73.1402
-73.3475
-73.2425
-73.0804
-72.8963
-72.5316
-72.3655
-54.2217
-54.6007
-54.5858
-54.4543
-54.9323
-55.1006
-55.0621
-54.7482
-55.3208
-55.4307
-55.5154
-55.5793
-55.4021
-55.8502
-55.8537
-56.0259
-56.0035
-56.028
-56.0288
-56.5188
-56.6045
-56.611
-56.5971
-56.684
-56.7544
-57.2389
-57.3819
-57.314
-57.3811
-57.4863
-57.5678
-57.6896
-58.3963
-58.5178
-58.566
-58.5239
-58.4017
-58.6225
-58.7106
-58.7807
-59.3547
-59.6269
-60.2713
-59.8958
-59.8836
-59.9811
-60.116
-60.3098
-60.7087
-61.168
-61.4096
-61.818
-62.1874
-62.2991
-62.1947
-62.4424
-62.7062
-62.7006
-62.9105
-63.0911
-64.3315
-65.1402
-65.322
-65.5347
-65.2094
-65.8377
-66.0612
-66.1417
-65.8263
-66.0009
-64.4853
-67.7051
-68.9685
-68.8505
-68.8102
-68.084
-67.6147
-68.3933
-69.0955
-69.5066
-69.3136
-68.8107
-65.8084
-68.7643
-72.8565
-72.7265
-71.0257
-69.6264
-69.8831
-71.0439
-71.4371
-71.7728
-71.3013
-71.1911
-71.0886
-69.2087
-70.736
-73.8626
-74.7045
-72.7646
-71.9343
-71.4646
-71.9577
-72.7057
-73.151
-73.0266
-72.7941
-72.5341
-72.1326
-71.4704
-72.1982
-74.0661
-74.6769
-74.0323
-73.014
-72.4564
-72.9901
-73.1221
-73.4879
-73.5305
-73.2912
-73.0156
-72.7336
-72.5233
-74.8202
-74.6052
-74.4189
-74.5192
-74.0538
-73.4603
-73.2452
-73.1596
-73.1569
-73.3619
-73.2433
-73.0763
-72.9062
-72.5587
-72.3712
-72.3033
-53.9604
-54.2277
-54.227
-54.1156
-54.5299
-54.6324
-54.5299
-54.5315
-54.4073
-54.9627
-55.0634
-55.0763
-55.0491
-55.0537
-55.3815
-55.4062
-55.4816
-55.5448
-55.541
-55.4926
-55.9257
-55.9077
-55.961
-56.018
-56.053
-56.1162
-56.124
-56.552
-56.6105
-56.4322
-56.66
-56.6876
-56.7684
-56.852
-57.2389
-57.2911
-57.3562
-57.4438
-57.4844
-57.5966
-57.6396
-57.7473
-58.4067
-58.4282
-58.5855
-58.5311
-58.5495
-58.5972
-58.6936
-58.7531
-58.9331
-59.2681
-59.3523
-59.9941
-60.123
-59.8126
-60.0657
-60.2531
-60.3804
-60.4635
-60.7272
-61.2474
-61.3729
-62.0987
-62.0014
-62.5205
-62.3282
-62.3137
-62.6764
-62.7994
-62.7663
-63.0741
-63.251
-64.525
-65.2574
-65.4944
-65.577
-65.5296
-65.7311
-66.0727
-66.0495
-65.9875
-66.0908
-66.3947
-64.941
-68.3549
-69.353
-68.7211
-68.8007
-68.3575
-67.8541
-68.3443
-69.1355
-69.5725
-69.2704
-68.8411
-68.6059
-66.0824
-68.6892
-72.8663
-73.0089
-71.267
-69.757
-70.0824
-71.3529
-71.5497
-71.7753
-71.4871
-71.3585
-71.1414
-70.7561
-69.6526
-70.9697
-73.8752
-74.5597
-72.8345
-72.0116
-71.6666
-72.1156
-72.7583
-73.1629
-73.1614
-72.8559
-72.5253
-72.1626
-72.7834
-72.0374
-72.4667
-74.1973
-74.6705
-74.0631
-73.1051
-72.6203
-73.0874
-73.161
-73.5003
-73.5241
-73.2782
-73.0224
-72.7622
-72.5429
-72.3384
-75.1902
-75.0369
-74.5319
-74.6185
-74.037
-73.4789
-73.2734
-73.1923
-73.1726
-73.3764
-73.2456
-73.0741
-72.9201
-72.5819
-72.3684
-72.3108
-72.2506
-53.7787
-54.0179
-53.9573
-53.9314
-54.2174
-54.2486
-54.2007
-54.0954
-54.1497
-54.616
-54.6278
-54.6176
-54.5964
-54.5973
-54.4873
-55.0776
-55.1322
-55.1003
-55.0329
-55.1444
-55.0827
-55.4068
-55.3443
-55.4019
-55.5081
-55.5942
-55.5873
-55.5267
-55.9461
-55.8245
-55.9459
-56.0037
-56.0708
-56.1747
-56.1409
-56.1453
-56.5246
-56.6257
-56.49
-56.6342
-56.6315
-56.7229
-56.7866
-56.9033
-57.2086
-57.337
-57.3682
-57.4461
-57.4703
-57.5523
-57.6445
-57.7247
-57.8319
-58.3392
-58.4528
-58.5143
-58.4396
-58.5068
-58.6071
-58.6212
-58.7526
-58.837
-59.0681
-59.4702
-59.5247
-59.8733
-60.142
-60.2462
-59.9415
-60.2297
-60.3437
-60.3842
-60.636
-61.0315
-61.3399
-61.6499
-62.4205
-62.3544
-62.304
-62.4251
-62.4046
-62.6576
-62.8558
-62.8492
-62.9295
-63.1493
-63.1969
-64.9086
-65.6508
-65.7134
-65.7152
-65.8971
-65.7837
-66.1104
-66.2016
-66.0115
-66.1599
-66.3544
-66.3077
-64.9364
-68.8439
-69.404
-68.7916
-68.797
-68.6281
-67.9266
-68.6018
-69.2406
-69.5297
-69.3235
-68.8231
-68.6525
-68.5149
-66.5569
-68.6576
-72.575
-73.3548
-71.5498
-70.1547
-70.5057
-71.7305
-71.7402
-72.0173
-71.6798
-71.5178
-71.1836
-70.8196
-70.5513
-70.0566
-71.2043
-73.8858
-74.4431
-72.9317
-72.2129
-71.9006
-72.3369
-72.7989
-73.1637
-73.1364
-72.8893
-72.5206
-72.2328
-72.8459
-72.3484
-72.597
-72.8297
-74.2927
-74.6724
-74.1157
-73.2204
-72.8152
-73.1925
-73.2065
-73.5186
-73.5251
-73.2738
-73.0407
-72.8065
-72.5625
-72.3768
-72.3247
-75.4378
-75.384
-74.6193
-74.7013
-74.0584
-73.4925
-73.3172
-73.2257
-73.1904
-73.393
-73.25
-73.0727
-72.9379
-72.6071
-72.3503
-72.3169
-72.2575
-72.2543
-53.6409
-53.8296
-53.7874
-53.7598
-54.0795
-53.9851
-54.0067
-53.9889
-53.9404
-54.2388
-54.2386
-54.2587
-54.3062
-54.2082
-54.105
-54.6249
-54.6037
-54.5969
-54.6341
-54.6661
-54.6469
-54.5396
-55.0685
-55.1365
-55.0933
-55.0212
-55.1411
-55.132
-55.0195
-55.4271
-55.3374
-55.4917
-55.512
-55.5929
-55.6043
-55.597
-55.5629
-55.9268
-55.8678
-55.9127
-56.0107
-56.0348
-56.136
-56.1612
-56.1976
-56.204
-56.5199
-56.6222
-56.5253
-56.5679
-56.5446
-56.7803
-56.781
-56.8243
-56.9588
-57.2389
-57.3684
-57.3622
-57.3774
-57.4666
-57.4357
-57.5785
-57.6834
-57.8645
-57.9923
-58.3588
-58.6204
-58.5244
-58.4927
-58.5487
-58.5481
-58.6542
-58.6891
-58.9898
-58.9921
-59.2584
-59.5305
-59.707
-60.1025
-60.0948
-60.2584
-60.0947
-60.2821
-60.3639
-60.5934
-60.4745
-60.8502
-61.1
-61.4378
-61.8056
-62.3098
-62.5249
-62.3261
-62.59
-62.4431
-62.8018
-62.838
-62.9267
-63.0324
-63.255
-63.4945
-63.5383
-65.158
-65.8633
-65.89
-65.7384
-65.7312
-65.9423
-66.1975
-66.4098
-66.3088
-66.2433
-66.4355
-66.3223
-66.3561
-64.7653
-69.2556
-69.2997
-69.0167
-68.9401
-68.9468
-68.3563
-69.0454
-69.4215
-69.6338
-69.3239
-68.7883
-68.8306
-68.6161
-68.7388
-66.8541
-68.6937
-72.2611
-73.6366
-71.7551
-70.6418
-70.9406
-72.1493
-72.008
-72.0019
-71.7729
-71.6296
-71.1826
-70.8755
-70.6103
-70.5903
-70.5262
-71.4715
-73.9814
-74.4036
-73.1383
-72.4475
-72.192
-72.5654
-72.8615
-73.1499
-73.0901
-72.9071
-72.5264
-72.3267
-72.8498
-72.453
-72.2314
-73.1658
-73.1832
-74.3462
-74.6932
-74.2066
-73.3596
-73.0243
-73.3094
-73.2622
-73.5416
-73.5379
-73.2788
-73.0624
-72.8514
-72.5883
-72.4079
-72.3745
-72.1537
-75.5811
-75.7871
-74.6677
-74.7839
-74.1351
-73.4865
-73.3633
-73.2594
-73.2097
-73.4112
-73.2561
-73.0723
-72.9585
-72.63
-72.3306
-72.3213
-72.2648
-72.2593
-72.2922
-53.4647
-53.6483
-53.5634
-53.5978
-53.7966
-53.6556
-53.8007
-53.7639
-53.7795
-54.0399
-54.095
-53.9957
-54.0684
-54.0298
-53.9669
-54.2678
-54.2259
-54.2535
-54.2596
-54.3585
-54.2715
-54.2318
-54.6286
-54.5864
-54.6528
-54.6253
-54.6679
-54.7175
-54.6563
-54.582
-54.9978
-55.12
-55.0692
-55.077
-55.1264
-55.0875
-55.1317
-55.1001
-55.4053
-55.4535
-55.4865
-55.4891
-55.5249
-55.5785
-55.6759
-55.6503
-55.6005
-55.9164
-55.9016
-55.9659
-55.9617
-56.0271
-56.1278
-56.1665
-56.2408
-56.3042
-56.2804
-56.5166
-56.5765
-56.6005
-56.6028
-56.5447
-56.7786
-56.8292
-56.8947
-56.9741
-57.0083
-57.277
-57.2698
-57.4392
-57.3842
-57.4311
-57.4746
-57.6164
-57.6699
-57.8733
-57.9162
-57.9913
-58.4294
-58.4758
-58.4704
-58.5854
-58.5931
-58.6052
-58.7086
-58.7332
-58.8858
-59.0475
-59.3162
-59.5703
-59.6395
-59.5527
-59.9403
-60.0398
-60.1257
-59.9704
-60.2775
-60.4675
-60.6032
-60.5602
-60.7768
-61.1515
-61.2666
-61.6497
-62.0421
-62.6046
-62.7157
-62.4244
-62.6771
-62.6338
-62.7931
-62.9476
-62.9082
-63.0417
-63.2383
-63.5961
-63.7237
-63.5333
-65.0521
-65.8797
-66.4232
-65.7508
-65.9933
-66.0573
-66.4123
-66.6217
-66.6385
-66.346
-66.4864
-66.2655
-66.2666
-66.3107
-64.7189
-69.2681
-69.1882
-69.281
-69.1085
-69.2657
-68.9518
-69.2369
-69.7537
-69.7882
-69.4682
-68.8536
-68.9829
-68.8037
-68.8073
-68.5602
-67.3077
-68.933
-72.11
-73.6305
-72.0749
-71.2988
-71.3156
-72.3727
-72.1507
-72.0511
-71.862
-71.5814
-71.1842
-70.9438
-70.7073
-70.5789
-70.474
-71.1147
-71.8756
-74.149
-74.3877
-73.4169
-72.7403
-72.5179
-72.8268
-72.9219
-73.1405
-73.0547
-72.8909
-72.5415
-72.3716
-72.8042
-72.5373
-72.3359
-72.0413
-73.8111
-73.5458
-74.4114
-74.7449
-74.336
-73.5328
-73.2291
-73.4366
-73.3263
-73.5691
-73.5537
-73.29
-73.083
-72.9053
-72.6143
-72.4322
-72.4217
-72.2214
-71.546
-76.2433
-76.2656
-74.7192
-74.8364
-74.2212
-73.4889
-73.4107
-73.2942
-73.2308
-73.4294
-73.2628
-73.0734
-72.9825
-72.6648
-72.3198
-72.3234
-72.2719
-72.265
-72.2966
-72.4327
-53.3118
-53.4779
-53.4044
-53.4458
-53.605
-53.6141
-53.7753
-53.641
-53.6293
-53.8229
-53.7901
-53.813
-53.8315
-53.8368
-53.8175
-54.084
-54.0705
-54.0554
-54.0352
-54.1203
-54.0762
-54.0004
-54.273
-54.1581
-54.2515
-54.2538
-54.3278
-54.3832
-54.3291
-54.2545
-54.5782
-54.5624
-54.6709
-54.6955
-54.6738
-54.6838
-54.707
-54.6792
-54.547
-54.9573
-55.0156
-55.086
-55.0407
-55.065
-55.0759
-55.1241
-55.1926
-55.1133
-55.3807
-55.4335
-55.5003
-55.4993
-55.4614
-55.5806
-55.6506
-55.7063
-55.7342
-55.6625
-55.836
-55.9502
-55.9374
-55.9834
-56.0094
-56.1007
-56.1907
-56.2551
-56.3143
-56.4127
-56.2986
-56.4214
-56.5498
-56.6027
-56.5889
-56.5868
-56.677
-56.9031
-56.9439
-56.9791
-57.1485
-57.2426
-57.174
-57.195
-57.3746
-57.3669
-57.3437
-57.4581
-57.5743
-57.7159
-57.6374
-57.8542
-58.1134
-58.1119
-58.6548
-58.3554
-58.4067
-58.5311
-58.4538
-58.6562
-58.7133
-58.7803
-58.9256
-58.9838
-59.3066
-59.4422
-59.7599
-59.6235
-59.5667
-60.0533
-60.0977
-60.2139
-60.2905
-60.2425
-60.4812
-60.6861
-60.8452
-60.7344
-61.1258
-61.3096
-61.3323
-61.6861
-62.1248
-62.8685
-62.9434
-62.7209
-62.5272
-62.6464
-62.6717
-62.9897
-62.9634
-63.1465
-63.4919
-63.4324
-63.6698
-63.7399
-63.1749
-65.3432
-66.1014
-66.3805
-66.0935
-66.0485
-66.283
-66.5613
-66.9214
-66.6035
-66.8149
-66.6118
-66.3342
-66.4316
-66.2579
-66.0377
-64.7101
-69.2589
-69.2279
-69.5017
-69.3249
-69.4802
-69.4178
-69.5373
-69.9811
-69.9772
-69.5224
-69.05
-69.156
-68.8958
-68.9985
-68.6786
-68.469
-68.0196
-69.3135
-72.0967
-73.3118
-72.2843
-71.7223
-71.73
-72.6391
-72.3311
-72.1018
-71.8683
-71.6135
-71.2704
-70.9801
-70.7736
-70.6442
-70.5958
-70.2985
-71.8172
-72.4279
-74.3238
-74.4124
-73.6842
-73.0908
-72.8678
-73.0896
-73.0468
-73.1215
-73.023
-72.8835
-72.6003
-72.4924
-72.737
-72.593
-72.4832
-72.2053
-71.5506
-74.5288
-74.0271
-74.501
-74.8408
-74.4782
-73.7101
-73.4283
-73.5679
-73.4003
-73.6053
-73.5771
-73.3056
-73.1133
-72.944
-72.6445
-72.462
-72.4722
-72.291
-71.6107
-71.8295
-77.2867
-76.6261
-74.8332
-74.8802
-74.306
-73.5334
-73.4574
-73.3283
-73.2538
-73.4479
-73.2693
-73.0738
-73.0103
-72.7068
-72.3182
-72.3244
-72.2792
-72.2733
-72.3009
-72.445
-72.3684
-53.1851
-53.3005
-53.2928
-53.3024
-53.4515
-53.5898
-53.4187
-53.4508
-53.4413
-53.6592
-53.7454
-53.7234
-53.7579
-53.7051
-53.6437
-53.8942
-53.8408
-53.8408
-53.841
-53.9337
-53.8306
-53.8502
-54.0651
-54.1393
-54.0899
-54.0912
-54.1024
-54.1327
-54.1103
-54.0622
-54.2486
-54.2242
-54.2476
-54.2357
-54.3031
-54.3538
-54.3961
-54.3638
-54.267
-54.5595
-54.5202
-54.6541
-54.7083
-54.608
-54.6824
-54.7188
-54.7525
-54.6915
-54.6176
-54.9194
-54.9846
-55.012
-55.0678
-55.0004
-55.0622
-55.1179
-55.1897
-55.2478
-55.2028
-55.3555
-55.4111
-55.4379
-55.4626
-55.5205
-55.5182
-55.6826
-55.726
-55.7531
-55.7334
-55.7294
-55.8057
-55.872
-55.8536
-55.9289
-55.9976
-56.1037
-56.1084
-56.2563
-56.2931
-56.4027
-56.5403
-56.3309
-56.3425
-56.445
-56.4585
-56.4975
-56.5827
-56.7321
-56.8218
-56.9078
-56.9908
-57.1183
-57.2018
-57.3293
-57.0801
-57.1361
-57.0471
-57.3306
-57.3044
-57.471
-57.5192
-57.6595
-57.7503
-57.7943
-58.0786
-58.1293
-58.2319
-57.8989
-58.4709
-58.4802
-58.6985
-58.5328
-58.5186
-58.6895
-58.6998
-58.8425
-58.898
-59.2252
-59.5238
-59.603
-60.0149
-59.4077
-59.7729
-59.9154
-60.1252
-60.4541
-60.1908
-60.3038
-60.4985
-60.6992
-60.6366
-60.8981
-61.1959
-61.3453
-61.3445
-61.4664
-61.6906
-62.339
-63.0251
-63.0034
-62.8505
-62.5574
-62.8649
-62.8879
-63.0021
-63.0365
-63.2109
-63.6151
-63.5452
-63.6731
-63.6399
-63.8312
-63.0748
-64.9588
-66.3356
-66.3852
-66.3385
-66.0429
-66.5312
-66.6045
-66.9445
-66.8164
-66.9565
-66.6622
-66.4015
-66.6166
-66.5102
-66.0223
-65.8907
-65.2514
-69.0064
-69.3787
-69.8888
-69.5926
-69.7588
-69.9019
-69.9116
-69.9755
-70.0906
-69.5765
-69.2295
-69.3428
-69.0217
-68.6694
-68.6563
-68.5831
-68.4798
-68.9361
-69.95
-72.1054
-73.0857
-72.4511
-71.9159
-72.1164
-72.9665
-72.59
-72.2017
-71.9231
-71.6674
-71.2853
-71.0424
-70.8625
-70.7488
-70.672
-70.2379
-69.9593
-72.5436
-73.023
-74.4939
-74.4943
-74.0073
-73.4466
-73.2086
-73.3287
-73.1781
-73.1218
-73.0233
-72.8848
-72.6424
-72.6311
-72.71
-72.6811
-72.547
-72.3648
-71.6341
-71.2836
-75.2454
-74.5529
-74.6393
-74.9663
-74.6165
-73.9088
-73.6174
-73.696
-73.4897
-73.6449
-73.6012
-73.3206
-73.1476
-72.9824
-72.6764
-72.4848
-72.5233
-72.3669
-71.6837
-71.866
-71.8178
-77.9984
-76.8412
-74.9054
-74.9097
-74.3624
-73.5882
-73.5027
-73.3602
-73.2768
-73.4654
-73.2744
-73.0737
-73.0377
-72.736
-72.3198
-72.3241
-72.2855
-72.2838
-72.3057
-72.4609
-72.3773
-72.4457
-53.0827
-53.196
-53.1956
-53.1728
-53.3043
-53.2434
-53.3046
-53.3088
-53.2846
-53.4992
-53.4927
-53.4707
-53.5431
-53.4616
-53.4312
-53.6031
-53.6798
-53.6793
-53.7067
-53.7005
-53.7013
-53.7333
-53.8278
-53.8976
-53.9042
-53.8125
-53.9227
-53.9067
-53.901
-53.8496
-54.0735
-54.1548
-54.109
-53.9907
-54.1208
-54.1339
-54.1725
-54.1323
-54.0934
-54.2643
-54.2679
-54.3179
-54.2924
-54.3002
-54.3411
-54.3945
-54.4484
-54.4028
-54.3522
-54.5946
-54.5223
-54.6767
-54.6262
-54.6512
-54.7082
-54.7582
-54.7976
-54.827
-54.7831
-54.6898
-54.8966
-54.9743
-55.0215
-55.0091
-55.0651
-55.0735
-55.115
-55.1981
-55.2542
-55.3116
-55.2261
-55.368
-55.3383
-55.3948
-55.5332
-55.5479
-55.6584
-55.581
-55.721
-55.8034
-55.7234
-55.8504
-55.7304
-55.8248
-55.7821
-55.7957
-55.8316
-55.9539
-56.0834
-56.154
-56.1815
-56.2708
-56.4543
-56.4131
-56.6532
-56.4924
-56.3827
-56.3753
-56.4078
-56.4412
-56.5442
-56.6363
-56.7492
-56.8676
-56.9556
-57.0827
-57.222
-57.3542
-57.4288
-57.1242
-57.2667
-56.9042
-57.2811
-57.307
-57.4319
-57.5996
-57.6179
-57.7319
-57.9095
-58.077
-58.1315
-58.103
-58.3589
-58.5991
-58.4608
-58.4583
-58.564
-58.6022
-58.5558
-58.7161
-58.699
-58.7543
-58.8844
-59.0683
-59.431
-59.7071
-59.9246
-60.1146
-60.0144
-59.9454
-60.0104
-60.0479
-60.6177
-60.3145
-60.3871
-60.5115
-60.6639
-60.838
-61.0107
-61.2365
-61.394
-61.4306
-61.4943
-61.5538
-62.0026
-62.2307
-63.4767
-63.1806
-62.9765
-62.8519
-62.9162
-63.1535
-63.1005
-63.1958
-63.2704
-63.7075
-63.5449
-63.6501
-63.5018
-63.7743
-63.889
-63.5433
-65.0992
-66.3412
-66.796
-66.64
-66.269
-66.3577
-66.7436
-67.0681
-67.1006
-66.9821
-66.8651
-66.7679
-66.731
-66.5865
-66.1274
-65.877
-65.9045
-66.1259
-69.0732
-69.7013
-70.1259
-69.9531
-70.1051
-70.2802
-70.1607
-70.1464
-70.3625
-69.8277
-69.4074
-69.4969
-69.1811
-68.8704
-68.7215
-68.557
-68.4331
-68.2018
-69.6929
-70.5147
-72.3057
-72.974
-72.7488
-72.4187
-72.4462
-73.1949
-72.8013
-72.306
-71.9013
-71.6717
-71.4378
-71.1479
-70.9882
-70.8346
-70.7676
-70.3408
-70.0269
-69.8507
-73.402
-73.7132
-74.7328
-74.6446
-74.35
-73.8011
-73.5459
-73.5793
-73.3267
-73.1666
-73.0088
-72.8801
-72.6755
-72.7364
-72.6772
-72.778
-72.6924
-72.5523
-71.7305
-71.3528
-71.0508
-75.9313
-75.113
-74.8605
-75.0539
-74.7656
-74.1076
-73.7946
-73.8178
-73.5886
-73.6853
-73.6279
-73.3369
-73.192
-73.0228
-72.703
-72.5037
-72.5756
-72.4385
-71.7633
-71.9001
-71.8911
-72.4834
-78.2701
-76.7832
-74.8737
-74.9123
-74.427
-73.6492
-73.5454
-73.3907
-73.2975
-73.4802
-73.2779
-73.0735
-73.0627
-72.7564
-72.3203
-72.3215
-72.2907
-72.294
-72.311
-72.4779
-72.3813
-72.4454
-72.4981
-52.991
-53.0916
-53.0894
-53.0623
-53.2082
-53.2113
-53.1983
-53.1651
-53.1549
-53.3156
-53.257
-53.3254
-53.2978
-53.3192
-53.3328
-53.4764
-53.4773
-53.4806
-53.5413
-53.5654
-53.5324
-53.4665
-53.5981
-53.5566
-53.6399
-53.6163
-53.6987
-53.715
-53.7062
-53.6745
-53.8521
-53.8556
-53.8626
-53.8282
-53.9498
-53.8707
-53.9648
-53.9385
-53.8786
-54.0764
-54.1809
-54.0735
-54.0786
-54.0669
-54.1246
-54.1745
-54.1977
-54.1721
-54.1279
-54.279
-54.3034
-54.2889
-54.2878
-54.3396
-54.3643
-54.4052
-54.4497
-54.5438
-54.4621
-54.3997
-54.6034
-54.5534
-54.6514
-54.6152
-54.654
-54.6923
-54.735
-54.7673
-54.8702
-54.9601
-54.8373
-54.7412
-54.8644
-54.9342
-54.9341
-54.9872
-55.0084
-55.0574
-55.1235
-55.1237
-55.2407
-55.3243
-55.3636
-55.282
-55.3733
-55.292
-55.3819
-55.3846
-55.5268
-55.5151
-55.6075
-55.7164
-55.7883
-55.676
-55.9372
-55.9683
-55.8738
-55.8574
-55.795
-55.8792
-55.8799
-55.9062
-56.0416
-56.1697
-56.2143
-56.2371
-56.343
-56.4294
-56.5926
-56.6878
-56.6499
-56.5168
-56.4127
-56.3439
-56.3079
-56.4903
-56.5362
-56.6438
-56.7961
-56.9082
-57.0633
-57.1443
-57.3518
-57.425
-57.5716
-57.6852
-57.145
-57.3272
-57.2225
-57.2915
-57.3461
-57.5203
-57.6188
-57.698
-57.9075
-57.8777
-58.1285
-58.2298
-58.3701
-58.5345
-58.839
-58.3043
-58.4563
-58.3552
-58.5939
-58.4137
-58.4742
-58.7123
-58.7752
-58.9328
-59.1542
-59.3296
-59.6066
-59.8285
-60.1389
-60.225
-60.1823
-59.9984
-60.2132
-60.1137
-60.0853
-60.433
-60.2493
-60.4798
-60.8302
-60.7845
-60.9669
-61.3674
-61.6441
-61.519
-61.5642
-61.6687
-61.7945
-62.4847
-62.5157
-63.8526
-63.5532
-63.2719
-62.9657
-62.9103
-63.1447
-63.2353
-63.6199
-63.3925
-63.6067
-63.7403
-63.6307
-63.8436
-63.6708
-63.7595
-63.7752
-63.5251
-65.4711
-65.9143
-67.6288
-66.88
-66.6044
-66.6555
-67.0228
-67.3708
-67.1874
-67.091
-67.052
-66.9187
-66.7451
-66.3379
-66.1932
-66.0771
-65.6825
-65.6737
-66.5509
-69.3928
-69.9478
-70.0585
-70.3293
-70.63
-70.5532
-70.5696
-70.394
-70.3765
-70.0944
-69.5812
-69.5879
-69.3057
-69.188
-68.8552
-68.6589
-68.4965
-68.22
-68.0775
-70.2194
-71.1121
-72.488
-73.0849
-73.1438
-72.741
-72.7904
-73.441
-72.9838
-72.3794
-71.959
-71.7122
-71.5187
-71.2534
-71.0318
-70.9646
-70.9617
-70.4851
-70.1276
-69.929
-69.7567
-74.3116
-74.5173
-75.0648
-74.8797
-74.6518
-74.1034
-73.8534
-73.8218
-73.4967
-73.2093
-73.0158
-72.8789
-72.72
-72.865
-72.7085
-72.8296
-72.7755
-72.7362
-71.8337
-71.4387
-71.1507
-71.2997
-76.5847
-75.6974
-75.1392
-75.1272
-74.9421
-74.2935
-73.9726
-73.93
-73.6813
-73.7193
-73.6438
-73.3574
-73.2468
-73.0535
-72.7197
-72.5218
-72.6289
-72.5074
-71.852
-71.935
-71.9686
-72.5164
-73.1777
-78.1843
-76.7261
-74.9844
-74.9119
-74.4808
-73.713
-73.5857
-73.4209
-73.3142
-73.4925
-73.2817
-73.0732
-73.0801
-72.7706
-72.3195
-72.3186
-72.296
-72.3039
-72.3168
-72.4952
-72.3861
-72.4526
-72.5094
-72.3832
-52.8988
-53.0061
-52.9937
-53.0134
-53.0881
-53.0731
-53.0826
-53.0805
-53.0507
-53.1972
-53.2201
-53.1834
-53.1887
-53.178
-53.1787
-53.3063
-53.3043
-53.3103
-53.2774
-53.3194
-53.3607
-53.3338
-53.5265
-53.5051
-53.4861
-53.493
-53.5222
-53.505
-53.5583
-53.5073
-53.625
-53.5753
-53.6426
-53.6925
-53.702
-53.692
-53.7713
-53.7386
-53.713
-53.8559
-53.8326
-53.8546
-53.8718
-53.8469
-53.8948
-53.9547
-53.9717
-53.9559
-53.8966
-54.0821
-54.1644
-54.0709
-54.0709
-54.0711
-54.0969
-54.1963
-54.1945
-54.3018
-54.2338
-54.1574
-54.2573
-54.3118
-54.2598
-54.2975
-54.3014
-54.3431
-54.4033
-54.4315
-54.5176
-54.6139
-54.5081
-54.4654
-54.558
-54.5825
-54.5716
-54.5809
-54.6234
-54.6851
-54.7114
-54.7045
-54.8378
-54.9196
-54.9945
-54.9329
-54.787
-54.8037
-54.9074
-54.8095
-54.9454
-54.9507
-55.0433
-55.1256
-55.1384
-55.2293
-55.2987
-55.4041
-55.4655
-55.3595
-55.3385
-55.2998
-55.3472
-55.3413
-55.4528
-55.5576
-55.5694
-55.6914
-55.7449
-55.6904
-55.8427
-55.9123
-56.1177
-55.9937
-55.766
-55.7525
-55.803
-55.8171
-55.9258
-56.0023
-56.1109
-56.2199
-56.2442
-56.2999
-56.4157
-56.5712
-56.7737
-56.7795
-56.6702
-56.4333
-56.4561
-56.4053
-56.4666
-56.3714
-56.5406
-56.4716
-56.7574
-56.8152
-56.9459
-57.1667
-57.2937
-57.4522
-57.6027
-57.7201
-57.29
-57.2879
-57.2188
-57.232
-56.8326
-57.3138
-57.483
-57.595
-57.6948
-57.8898
-57.8944
-58.1329
-58.3577
-58.4999
-58.664
-58.9815
-58.1369
-58.4839
-58.4872
-58.202
-58.5452
-58.4459
-58.4749
-58.7496
-58.8441
-58.94
-59.1478
-59.2413
-59.5622
-59.8435
-59.9394
-60.2234
-60.2635
-59.7271
-60.0533
-60.127
-60.2775
-60.1549
-60.4692
-60.5527
-60.5999
-60.6958
-60.9419
-60.882
-61.2258
-61.5489
-61.5301
-61.6576
-61.7448
-61.9095
-61.7872
-61.7521
-62.6281
-64.0373
-63.3711
-63.3592
-63.1769
-62.9754
-63.1577
-63.2549
-63.6722
-63.633
-63.7994
-63.5852
-63.5952
-63.834
-63.5714
-63.7291
-63.735
-63.8765
-63.7722
-65.39
-65.9269
-67.9045
-67.4762
-66.6647
-67.0943
-67.3152
-67.3853
-67.0793
-67.2754
-67.1621
-66.9161
-66.7705
-66.3747
-66.2365
-66.3432
-65.8932
-65.7603
-65.7415
-67.4442
-69.8895
-70.3579
-70.5407
-70.9684
-71.1665
-71.0555
-70.6786
-70.6907
-70.393
-70.4285
-69.8373
-69.6852
-69.3855
-69.2664
-68.9997
-68.6331
-68.5963
-68.3637
-68.0931
-68.0726
-70.8078
-71.4256
-72.9954
-73.3013
-73.4332
-73.1308
-73.1137
-73.7208
-73.1946
-72.4845
-72.0654
-71.7786
-71.572
-71.3195
-71.1292
-71.1109
-71.1118
-70.6308
-70.2305
-69.9754
-69.8615
-69.9965
-74.9397
-75.3774
-75.4601
-75.1264
-74.9289
-74.3412
-74.1045
-74.0426
-73.6628
-73.2666
-73.0523
-72.9065
-72.76
-73.0048
-72.7545
-72.8677
-72.8937
-72.8929
-71.9249
-71.5215
-71.2504
-71.3921
-72.3372
-77.2095
-76.3445
-75.4913
-75.2295
-75.0993
-74.479
-74.1477
-74.0328
-73.7597
-73.752
-73.6714
-73.3772
-73.3111
-73.0907
-72.7023
-72.536
-72.6889
-72.5635
-71.9497
-71.9709
-72.0437
-72.5416
-73.1619
-73.4362
-76.7962
-75.3814
-74.9202
-74.5334
-73.769
-73.6345
-73.4391
-73.3257
-73.5028
-73.2863
-73.0727
-73.0916
-72.7739
-72.31
-72.3195
-72.3007
-72.3138
-72.3238
-72.5119
-72.3926
-72.4595
-72.5109
-72.4
-71.5611
-52.9101
-52.8769
-52.8697
-53.0169
-53.0041
-53.0116
-52.985
-52.976
-53.0823
-53.0762
-53.0817
-53.1159
-53.0888
-53.0423
-53.2192
-53.2106
-53.1888
-53.1805
-53.2455
-53.2077
-53.1868
-53.3157
-53.3096
-53.3209
-53.3274
-53.3237
-53.3331
-53.3796
-53.3681
-53.516
-53.52
-53.4995
-53.4956
-53.4754
-53.5367
-53.5555
-53.5807
-53.551
-53.6148
-53.5666
-53.6846
-53.6653
-53.689
-53.7213
-53.7425
-53.7964
-53.7747
-53.7224
-53.8238
-53.7905
-53.8557
-53.8487
-53.8474
-53.8935
-53.9639
-53.9816
-54.0254
-53.9861
-53.9392
-54.0473
-54.1208
-54.1054
-54.0571
-54.061
-54.0635
-54.1635
-54.149
-54.2329
-54.3732
-54.2647
-54.2006
-54.2498
-54.3103
-54.2816
-54.3098
-54.3428
-54.3144
-54.3988
-54.4508
-54.4687
-54.6265
-54.6804
-54.6346
-54.5173
-54.5159
-54.5612
-54.5673
-54.6258
-54.6081
-54.6186
-54.6719
-54.7288
-54.8156
-54.9624
-54.9705
-55.1265
-54.9545
-54.822
-54.7571
-54.8731
-54.8598
-54.9151
-54.9614
-55.0492
-55.0771
-55.1767
-55.205
-55.3016
-55.3733
-55.4022
-55.6051
-55.468
-55.3078
-55.2891
-55.3895
-55.2648
-55.3773
-55.5302
-55.5632
-55.7086
-55.7685
-55.7223
-55.7911
-55.8834
-56.1406
-56.2151
-56.1224
-55.7609
-55.7808
-55.8181
-55.7533
-55.8447
-56.007
-56.0851
-56.2193
-56.2512
-56.3003
-56.4581
-56.5353
-56.7228
-56.833
-56.8463
-56.7813
-56.4431
-56.4937
-56.4144
-56.2558
-56.3561
-56.4509
-56.773
-56.7094
-56.8393
-56.9399
-57.0752
-57.2712
-57.4211
-57.6043
-57.7633
-57.8989
-57.0694
-57.3052
-57.1409
-57.1774
-57.3115
-57.293
-57.4227
-57.6303
-57.6978
-57.7777
-57.8954
-58.1622
-58.3294
-58.5429
-58.6762
-58.8444
-58.9759
-57.8775
-58.4854
-58.5245
-58.2372
-58.0975
-58.5141
-58.6752
-58.781
-58.7457
-58.9253
-59.111
-59.4613
-59.3213
-59.8179
-60.1458
-60.1591
-60.2222
-60.3863
-59.5872
-60.0783
-60.1349
-60.3265
-60.3202
-60.1976
-60.569
-60.566
-60.7258
-61.1035
-61.0984
-61.171
-61.4311
-61.5413
-61.5464
-61.8206
-61.9085
-62.0955
-62.0821
-61.525
-62.3969
-63.7868
-64.1269
-63.9371
-63.3036
-63.3571
-63.1605
-63.5184
-63.3362
-63.7716
-64.1145
-63.7856
-63.6669
-63.7899
-63.5699
-63.5274
-63.6243
-63.8265
-64.0039
-64.0176
-65.9106
-65.9888