/*--------------------------------*- C++ -*----------------------------------*\
  =========                 |
  \\      /  F ield         | OpenFOAM: The Open Source CFD Toolbox
   \\    /   O peration     | Website:  https://openfoam.org
    \\  /    A nd           | Version:  7
     \\/     M anipulation  |
\*---------------------------------------------------------------------------*/
FoamFile
{
    version     2.0;
    format      ascii;
    class       surfaceScalarField;
    location    "8.5";
    object      phi;
}
// * * * * * * * * * * * * * * * * * * * * * * * * * * * * * * * * * * * * * //

dimensions      [0 3 -1 0 0 0 0];

internalField   nonuniform List<scalar> 
54095
(
0.000225848
0.000134409
-1.15718e-05
0.000280303
-0.000147365
3.84838e-05
0.000222866
-7.07963e-05
-1.76605e-05
0.000276227
0.00103263
-4.661e-05
4.99133e-06
0.00049421
4.76545e-05
0.000283763
-0.000211091
2.82949e-06
0.000470364
0.00106239
-6.87081e-05
0.000217805
-0.000263216
-2.53855e-05
0.000306295
0.000771949
-6.3275e-05
0.000215959
0.000868663
-6.46247e-05
-0.000513452
0.00617503
0.000494082
-9.9438e-06
0.000711782
7.6134e-05
0.000509386
0.00177668
0.000414708
0.000287684
-0.000229455
-5.15151e-05
0.000557035
0.000925576
-0.0001111
0.000295029
0.00202938
-0.000144306
0.000218493
-0.000447502
-3.42067e-05
0.00032068
0.000506253
-8.03699e-05
0.00023588
0.000648819
-7.93104e-05
0.000156389
0.000708015
-6.30866e-05
-0.000966386
0.00677099
0.00046933
-0.000551708
0.00620446
0.000512328
0.000462247
0.0039366
0.000879967
-4.72543e-05
0.000958876
8.78443e-05
0.000464253
0.00156126
0.000384333
0.00013512
0.000966696
0.000427723
0.00028737
-0.000209031
-8.93015e-05
0.000616852
0.000734631
-0.000156743
0.000334612
0.00197359
-0.000154041
0.000101288
0.00219083
-0.000101694
0.000220364
-0.000629711
-3.81558e-05
0.000313271
0.00025498
-9.62041e-05
0.000247297
0.000415977
-9.48257e-05
0.00016009
0.000539415
-7.08007e-05
5.24365e-05
0.00101787
-6.27434e-05
-0.00112942
0.00486434
7.29918e-05
-0.000968472
0.00670814
0.000479616
-0.00039298
0.00813767
0.00117213
-0.000619378
0.00634498
0.000431605
0.000266884
0.00371288
0.000933413
0.000157931
0.00366576
0.00089944
-6.81527e-05
0.00123791
7.64889e-05
0.000330606
0.00159826
0.000337094
0.0001067
0.00116733
0.000411606
4.37811e-06
0.00210511
0.000341921
0.000277545
-0.000148101
-0.00011811
0.000631152
0.000557357
-0.000229909
0.000360933
0.0018614
-0.000158191
0.000113578
0.00217884
-9.55352e-05
-2.15067e-05
0.00233102
-5.25658e-05
0.000220064
-0.000811868
-3.79063e-05
0.000286635
3.37225e-05
-0.000103534
0.00022984
0.000199086
-0.000109152
0.000157231
0.00036734
-7.99813e-05
4.94723e-05
0.000961502
-6.39019e-05
-3.72379e-05
0.00142211
-4.75793e-05
-0.00126023
0.00499768
0.000228685
-0.00112337
0.00491994
9.93012e-05
-0.000794236
0.00701776
0.000313799
-0.00093179
0.00655353
0.000467024
-0.000485451
0.00816765
0.00120197
-0.00014723
0.00808848
0.00131531
-0.000631075
0.0065249
0.000383007
-6.12494e-05
0.00352015
0.00101618
7.59061e-05
0.00363016
0.000999809
9.79747e-05
0.00419369
0.0006985
-3.32666e-05
0.00145192
9.68034e-05
0.000348414
0.00167089
0.000286593
1.82039e-05
0.00142372
0.000423442
4.18758e-06
0.00229559
0.000330514
-0.000156549
0.00240811
0.000352196
0.000254713
-6.23425e-05
-0.000120408
0.000595288
0.000405265
-0.000274671
0.000330859
0.00173245
-0.000201977
0.000125709
0.00215167
-9.95077e-05
-2.3748e-05
0.00233773
-2.90174e-05
-0.000126682
0.00209501
-1.91508e-05
0.000217553
-0.000994844
-3.45773e-05
0.000253629
-0.000154873
-0.00010294
0.000214295
1.84508e-10
-0.000118743
0.000146676
0.000200519
-8.90068e-05
4.46608e-05
0.000902074
-6.5214e-05
-3.10754e-05
0.00143699
-4.77011e-05
4.69114e-06
0.00097718
-3.50777e-05
-0.00149527
0.00385979
4.33746e-05
-0.00128817
0.00484327
0.000319195
-0.000857568
0.00553393
0.000278032
-0.00106304
0.00490993
0.000141248
-0.00088855
0.00715307
0.000367093
-0.000684885
0.00733121
0.000773369
-0.000890098
0.00638012
0.000432425
-0.000595048
0.00791925
0.00124923
-5.20057e-05
0.00809296
0.0013254
-1.02757e-05
0.00753489
0.00124199
-0.000355304
0.00643889
0.000408048
-5.23783e-05
0.00328692
0.00101704
-3.2952e-05
0.00353861
0.00115889
3.8845e-05
0.00432151
0.000837329
-8.75818e-05
0.00349639
0.000522007
-3.71923e-05
0.00168708
5.67483e-05
0.000474126
0.00162812
0.000260743
-1.20517e-06
0.00162333
0.00041904
-8.37135e-06
0.00247692
0.000376188
-0.000156635
0.0025197
0.000351806
-0.000181563
0.00245999
0.000242222
0.000231942
5.00298e-05
-0.000126761
0.000560049
0.000263607
-0.00028517
0.000332507
0.0015645
-0.000224933
8.49111e-05
0.00211471
-0.000103244
-2.20894e-05
0.00234352
-3.85487e-05
-0.000119496
0.0021535
9.10545e-07
-0.00010654
0.00150387
3.77969e-06
0.000208581
-0.00117345
-2.99784e-05
0.000219515
-0.000312987
-9.59794e-05
0.000194003
-0.000173675
-0.000123267
0.000131878
4.68548e-05
-9.69564e-05
3.98072e-05
0.000839985
-6.67252e-05
-3.25621e-05
0.00145214
-4.78053e-05
5.44403e-06
0.000959806
-3.57705e-05
9.68584e-06
0.000828517
-2.90288e-05
-0.00162078
0.00353364
-1.68428e-05
-0.00143323
0.0038352
0.000169645
-0.00104815
0.00442058
0.000231123
-0.00120664
0.00473415
0.00025273
-0.00107199
0.00568509
0.00035148
-0.000707498
0.00595293
0.000223102
-0.00108073
0.0048885
0.000212067
-0.000868824
0.0071829
0.000385191
-0.000379264
0.00720795
0.00081761
-0.000454839
0.00743981
0.00102686
-0.000524212
0.00613828
0.000410748
-0.000452666
0.007387
0.00136496
7.12892e-05
0.00781529
0.00142266
-2.32565e-05
0.00758881
0.00133358
-7.39806e-05
0.00667682
0.00115308
-0.000160381
0.00612999
0.000432084
0.000214746
0.00298439
0.000969956
-6.00571e-05
0.00339855
0.00121595
2.78899e-07
0.00447378
0.000997967
-1.70358e-05
0.00358903
0.000605095
-0.000125828
0.00268357
0.00038514
-9.02039e-05
0.00192234
8.68797e-05
0.000556092
0.00151455
0.000174277
7.2068e-05
0.00174128
0.00040323
-0.000165837
0.00275576
0.000390956
-0.000160582
0.00272087
0.000313513
-0.000193454
0.00263605
0.000249707
-0.000139801
0.00221227
4.37967e-05
0.000225294
0.00014643
-0.000113113
0.000481405
0.000153803
-0.000278846
0.000321152
0.00138383
-0.000231643
8.71076e-05
0.00203857
-0.000104031
-2.13661e-05
0.00234546
-4.40152e-05
-0.000118294
0.002211
-1.03103e-05
-9.89413e-05
0.00161043
-1.26618e-06
1.95468e-05
0.0013271
9.20418e-06
0.000205172
-0.00135266
-2.59615e-05
0.000194249
-0.000449911
-8.73025e-05
0.000179806
-0.000326388
-0.000123073
0.00011449
-8.7808e-05
-0.000103094
3.33348e-05
0.000778226
-6.85324e-05
-3.09021e-05
0.00146451
-4.81964e-05
6.09478e-06
0.000942218
-3.63127e-05
1.38568e-05
0.000808479
-2.95893e-05
1.5981e-05
0.000581368
-3.02919e-05
-0.00150339
0.00321851
0.000153579
-0.00152157
0.00369294
-7.09537e-05
-0.00103976
0.00462958
6.66424e-05
-0.00135653
0.00382057
0.000164518
-0.00129271
0.0045335
0.000277439
-0.000632793
0.0050717
0.000308625
-0.00126977
0.0047342
0.000188987
-0.000960801
0.00570687
0.000322926
-0.000429178
0.00607855
0.000275773
-0.000516438
0.00650974
0.000281512
-0.000953255
0.00505334
0.000264206
-0.000731296
0.00732106
0.000352544
-0.00049199
0.00734254
0.000813876
-0.00040731
0.00758703
0.00105444
-0.000397339
0.00729244
0.00122812
-0.000295745
0.00584059
0.000433056
-0.000216839
0.00681481
0.00141453
0.00012361
0.00741302
0.00158356
-3.56893e-05
0.00751993
0.00152751
0.000251802
0.00649799
0.00124358
7.08697e-06
0.00544821
0.00108428
-0.000174596
0.0059013
0.000313087
0.000329639
0.0027024
0.000940528
7.83798e-05
0.00314747
0.00121473
-0.000112621
0.00455265
0.00108387
-4.53509e-05
0.00376415
0.000707606
-8.147e-05
0.00281673
0.000359944
-0.000197593
0.00299295
0.000397578
-4.86512e-05
0.00215925
3.70384e-05
0.000590895
0.00134533
0.000146604
0.000187952
0.00170792
0.000340843
-0.000172346
0.00300076
0.000417684
-0.000192797
0.00287215
0.000411107
-0.000180562
0.00281905
0.000192777
-0.000113348
0.00241754
5.88477e-05
-7.9463e-06
0.00240522
-4.49815e-05
0.000232583
0.000226928
-0.000107909
0.000411744
8.30778e-05
-0.000259884
0.00028901
0.00121303
-0.000217252
8.1942e-05
0.00194155
-0.000102072
-2.38296e-05
0.00234526
-4.66654e-05
-0.000109349
0.00226508
-1.96507e-05
-8.63497e-05
0.00169828
-5.7157e-06
2.66005e-05
0.00130909
4.00368e-06
2.37917e-05
0.0013437
-3.27566e-06
0.000208612
-0.00153791
-2.33566e-05
0.000177987
-0.000574499
-7.93604e-05
0.000170603
-0.00046469
-0.000119603
9.19199e-05
-0.000195618
-0.000107183
2.55299e-05
0.000719167
-6.95651e-05
-2.69084e-05
0.00147104
-4.81551e-05
9.2847e-06
0.000922021
-3.72834e-05
1.85593e-05
0.000783354
-2.97475e-05
1.90684e-05
0.000563587
-3.08769e-05
1.24969e-05
0.000530675
-3.69906e-05
-0.00154583
0.00293228
6.90435e-05
-0.00154868
0.00324281
2.81218e-06
-0.0011949
0.00419775
0.000228082
-0.00149126
0.00385566
-2.79889e-05
-0.00128103
0.00440083
0.000146117
-0.000666255
0.00470549
0.000190318
-0.00136616
0.00360052
0.000316443
-0.00118441
0.00461443
0.000307205
-0.000669761
0.00531914
0.000270581
-0.000454348
0.00536382
0.000244761
-0.0013038
0.00485047
0.000234269
-0.000875009
0.00574534
0.000294234
-0.000554259
0.00633972
0.000124029
-0.000620589
0.00670302
0.000295771
-0.000344941
0.00668056
0.000378101
-0.000850979
0.00528399
0.000324587
-0.000631217
0.00764717
0.000352474
-8.73379e-05
0.00714293
0.000763103
-0.000424514
0.00769063
0.0010991
2.8713e-05
0.00725399
0.00131598
-1.9252e-05
0.00654924
0.0014868
-0.000254165
0.00550154
0.000418618
-5.52374e-05
0.00634592
0.00128682
0.000194015
0.00706541
0.0016465
9.58535e-05
0.00720903
0.00168599
0.000156206
0.00643129
0.00139265
9.72878e-05
0.00542557
0.00108746
-0.000140587
0.0051068
0.00102781
-0.000231835
0.00580496
0.00027952
0.000208061
0.00252537
0.000872951
0.000103465
0.00298794
0.00118454
-0.000124265
0.00462963
0.00108967
-0.000110085
0.00399171
0.000773601
-6.26197e-05
0.00302999
0.000376411
-0.000140081
0.0030886
0.000291028
-0.000146117
0.00370696
0.000383246
-8.85069e-06
0.00237305
2.7633e-05
0.000541991
0.00117777
7.43566e-05
0.000237926
0.00158295
0.000322661
-0.000157182
0.00320608
0.000374639
-0.000182441
0.00308082
0.000367627
-0.000177305
0.00301893
0.000279185
-9.40641e-05
0.00255638
6.16445e-05
3.13986e-05
0.00250431
-4.50376e-05
4.89609e-05
0.0028448
-9.40011e-05
0.000218823
0.00032297
-0.000106253
0.000338729
5.27995e-05
-0.000238373
0.0002441
0.00109028
-0.000210637
8.41208e-05
0.0018342
-0.000102102
-3.84213e-05
0.00236063
-5.3488e-05
-8.71855e-05
0.00230718
-2.84915e-05
-6.32768e-05
0.00176201
-1.08208e-05
2.81682e-05
0.00129598
-2.2159e-06
3.09668e-05
0.00133637
-5.63444e-07
1.24081e-05
0.00154864
-1.08598e-05
0.000213596
-0.00172885
-2.26572e-05
0.000168471
-0.00069315
-7.31768e-05
0.00016616
-0.000596012
-0.000114199
7.19404e-05
-0.000278108
-0.000109054
2.03315e-05
0.000662863
-7.12102e-05
-2.10559e-05
0.00146958
-4.70404e-05
1.32771e-05
0.000898041
-3.74529e-05
2.16754e-05
0.00075413
-2.97346e-05
2.18347e-05
0.000543039
-3.10341e-05
1.37598e-05
0.000522495
-3.64564e-05
1.29215e-05
0.000242111
-3.71653e-05
-0.0016905
0.00295616
2.75585e-05
-0.00283905
-0.00158256
0.00291046
5.57064e-05
-0.00138681
0.00354801
0.000141518
-0.00151445
0.00330979
-4.37929e-05
-0.00117905
0.00407618
2.23968e-05
-0.000914241
0.00447468
0.000321444
-0.00139761
0.00390661
-1.9511e-05
-0.00129388
0.00438817
9.41356e-05
-0.000779418
0.00468579
0.000275473
-0.000564208
0.00498076
0.000308024
-0.00146761
0.0035498
0.000214526
-0.00107154
0.0048157
0.000311702
-0.000428216
0.00514971
0.000350591
-0.000569834
0.00540112
0.000182523
-0.000317346
0.00563523
0.000284307
-0.00121348
0.00514945
6.35316e-05
-0.000909783
0.00584466
0.000413516
-0.000201057
0.0063668
0.000380872
-0.000542229
0.00680054
0.000144228
-0.000300765
0.00690875
0.000397063
-0.0001747
0.00675249
0.000545825
-0.000802107
0.00552893
0.000303
-0.000198373
0.00776162
0.000353266
-0.000114244
0.0071831
0.000620565
-0.000193364
0.00758795
0.00115499
1.49839e-05
0.00711438
0.00137994
-0.000124847
0.0065927
0.00149466
-9.45202e-05
0.00655982
0.00145298
-0.000366383
0.00522861
0.000407478
-0.000267002
0.00617146
0.00106814
3.70911e-05
0.00684283
0.00157577
0.000197883
0.00682303
0.00171035
0.000208472
0.0063675
0.00143123
0.000200223
0.00547931
0.00107607
-2.24527e-05
0.00505565
0.00102098
-9.49064e-05
0.00533623
0.00109314
-0.000300074
0.00582147
0.000274718
0.000116456
0.00240502
0.000825402
0.000320304
0.0026331
0.00114541
-0.000104954
0.00465401
0.00110793
-3.98853e-05
0.00414948
0.000789345
-4.51713e-05
0.00326903
0.00040242
-7.93051e-05
0.0030773
0.00037295
-0.000127664
0.00389578
0.000261269
-0.000163087
0.00454571
0.000376567
3.29064e-06
0.00256735
2.12276e-05
0.00043649
0.00113234
-2.46967e-05
0.00021019
0.001417
0.000274215
-0.000112563
0.00336218
0.000363248
-0.000221371
0.00328146
0.000356952
-0.000154932
0.00325662
0.000197681
-6.71187e-05
0.00275111
8.83025e-05
3.15429e-05
0.00257014
-7.5616e-06
7.47522e-05
0.00284979
-9.38103e-05
7.44937e-05
0.00319404
-6.1633e-05
0.000231756
0.000410014
-0.000105204
0.000276336
6.14157e-05
-0.000222735
0.00022371
0.000991337
-0.000196977
6.88826e-05
0.00173868
-0.000112062
-1.95074e-05
0.00236291
-6.45429e-05
-6.94512e-05
0.00234047
-3.83842e-05
-3.98634e-05
0.00180368
-1.70174e-05
2.45016e-05
0.00128851
-6.18289e-06
4.64213e-05
0.00130995
-3.82784e-07
3.76879e-05
0.00151769
6.45268e-06
2.20381e-05
0.00152682
6.14386e-06
0.000214531
-0.00192122
-2.21655e-05
0.000162599
-0.000808586
-6.98196e-05
0.000165095
-0.000725673
-0.000108611
6.37449e-05
-0.000347381
-0.000108671
1.57245e-05
0.000610417
-7.23323e-05
-1.31769e-05
0.00145818
-4.66369e-05
1.70089e-05
0.000870881
-3.68887e-05
2.4759e-05
0.000721189
-2.9271e-05
2.30341e-05
0.000520797
-3.05274e-05
1.57061e-05
0.000511977
-3.62225e-05
3.3172e-06
0.000238991
-3.66529e-05
-1.1525e-05
0.000144835
-3.88519e-05
-0.00183721
0.00258649
8.75424e-05
-0.00252733
-0.00157818
0.00292739
2.43809e-05
-0.00158137
0.00327349
0.000243978
-0.00329534
-0.00189382
8.2827e-05
-0.00160594
0.00293363
6.83211e-05
-0.00135753
0.00364559
0.000136606
-0.00110902
0.00390379
0.000302736
-0.00145918
0.00340837
-3.70057e-05
-0.0011792
0.00392604
-8.33324e-06
-0.000937084
0.0044033
0.000251446
-0.000795286
0.00439684
0.000469433
-0.00139672
0.00386296
-2.72306e-05
-0.00124715
0.00432191
0.000222359
-0.000643284
0.00480581
0.000189184
-0.000476836
0.00482678
0.000336457
-0.000459238
0.00501135
0.000404616
-0.00149498
0.00363728
0.000194024
-0.00102407
0.00487129
0.000273216
-0.000506074
0.00537498
0.000391457
-0.000547767
0.00549968
0.000257575
-0.000433093
0.00559709
0.000352984
-0.000548203
0.00578214
0.00051858
-0.00115506
0.00527906
0.000223334
-0.000406759
0.00589024
0.000226334
-0.00017356
0.00652578
0.000313849
-0.000283214
0.00690882
0.000362443
-0.000181413
0.00682909
0.000420281
-0.000325071
0.00681593
0.000533844
-0.000246811
0.00667942
0.000700162
-0.000821448
0.00566425
0.00031974
-0.000255409
0.00764897
0.000404059
-0.000319881
0.00730932
0.000584013
2.75526e-05
0.00738084
0.000998012
0.000133318
0.00702337
0.00132115
0.000213666
0.00651885
0.00144035
7.26466e-05
0.00650033
0.00145904
6.84411e-05
0.00684997
0.00140325
-0.000576045
0.00504507
0.000459515
-0.000428917
0.0061672
0.000957111
0.000173259
0.0066654
0.00139262
5.48241e-05
0.006669
0.00157002
0.000329389
0.00636223
0.00134635
0.000240844
0.00559179
0.00103273
-1.61602e-05
0.00505913
0.00100944
-3.96712e-05
0.00518619
0.00108303
-0.000171154
0.00584159
0.00107034
-0.000183986
0.00573734
0.000271404
0.000140273
0.00224074
0.000735216
0.000271339
0.00232215
0.0010752
-1.95926e-05
0.00461634
0.00109011
-5.16921e-05
0.00425063
0.000837097
2.14265e-05
0.00346255
0.000419466
-2.57727e-05
0.00318971
0.000248663
-8.79753e-05
0.00404968
0.000338572
-1.21137e-05
0.00459342
0.000300427
2.65327e-05
0.00466601
0.000369113
0.000115204
0.00266922
1.46897e-05
0.000335449
0.00114079
-4.63424e-05
0.000169016
0.00128925
0.000157746
-8.9996e-05
0.00348411
0.000311169
-0.000154112
0.00346539
0.000313918
-0.000141949
0.00348143
0.000204644
-3.21641e-05
0.00285244
8.86527e-05
5.9974e-05
0.00257519
4.77823e-05
0.000114741
0.00283094
-5.70373e-05
0.000124387
0.00306197
-4.84328e-05
-2.2101e-07
0.00321548
3.0543e-05
0.000216024
0.000515521
-0.000106999
0.000228727
0.000100661
-0.000210578
0.000231863
0.000890547
-0.000188712
7.81803e-05
0.00164726
-0.000119988
-1.49227e-06
0.00234251
-7.44484e-05
-4.76924e-05
0.00236137
-5.09239e-05
-1.88701e-05
0.00182572
-2.45514e-05
2.30276e-05
0.00128349
-1.02571e-05
4.27306e-05
0.00129058
-6.50344e-06
4.5575e-05
0.00147293
1.45108e-05
-1.78469e-06
0.00151375
2.46261e-05
1.40888e-05
0.00118131
5.30887e-05
0.000206772
-0.00210641
-2.15791e-05
0.000158236
-0.000922595
-6.63923e-05
0.000164496
-0.000856103
-0.000103886
6.63664e-05
-0.00041455
-0.000107808
1.06911e-05
0.000563367
-7.23115e-05
-5.60536e-06
0.00143755
-4.61025e-05
2.19652e-05
0.000838537
-3.62583e-05
2.99765e-05
0.000683411
-2.90868e-05
2.36216e-05
0.000498055
-3.01507e-05
2.01195e-05
0.000497205
-3.58754e-05
1.01522e-06
0.000237726
-3.59734e-05
-1.33706e-05
0.000160019
-3.84658e-05
-2.01586e-05
6.16297e-05
-3.53882e-05
-0.00182427
0.00262365
5.50103e-05
-0.0026916
-0.00169586
0.0025837
0.000120474
-0.00154523
0.00327035
0.000238089
-0.00345703
-0.00201094
4.59776e-05
-0.00166416
0.00297952
6.09026e-06
-0.00154901
0.0032478
0.000241548
-0.00123153
0.00363494
0.000411348
-0.00367981
-0.00128922
0.000154744
-0.00146998
0.00289983
4.46047e-05
-0.0011946
0.00360559
0.000123717
-0.00103673
0.00388148
0.000258558
-0.000887023
0.00398305
0.000420064
-0.00150307
0.00345949
5.52325e-05
-0.00125327
0.00391648
-2.13326e-05
-0.000908364
0.00440848
0.000251565
-0.000688005
0.00439142
0.00046803
-0.000612928
0.00442353
0.000607794
-0.00148365
0.00390032
-4.8689e-05
-0.00114667
0.00424912
0.000168162
-0.000612842
0.00485576
0.000279177
-0.000610722
0.00472943
0.000349489
-0.000472297
0.0049951
0.00039192
-0.000739429
0.0050818
0.000518424
-0.00139936
0.00370461
0.000176972
-0.000793076
0.00513887
0.000312767
-0.000387303
0.00546874
0.000393196
-0.000339654
0.00558711
0.000360467
-0.000342252
0.0056868
0.000328709
-0.000470356
0.00579023
0.000490181
-0.000393967
0.0059198
0.000625621
-0.00117839
0.00541879
0.000217211
-0.000561011
0.00595043
0.00046875
-0.000458803
0.00660614
0.000284899
-0.000264679
0.00723501
0.000279884
-8.39726e-05
0.00699439
0.000414438
-6.53695e-05
0.00694243
0.000572824
-0.000292392
0.00685129
0.000727013
-6.16942e-05
0.00664255
0.000823162
-0.000879226
0.0056254
0.000342038
-0.000370383
0.00744731
0.000462865
0.000107053
0.00728703
0.000492559
-8.69385e-05
0.00729687
0.000809747
0.000137845
0.0071063
0.00110663
0.000106647
0.00669102
0.00128317
-2.71404e-05
0.00649056
0.0014611
0.000182665
0.00666405
0.00142263
0.000162951
0.0069837
0.00119177
-0.000571169
0.00484903
0.000583218
-0.000241233
0.00605587
0.000952353
8.84049e-05
0.00653928
0.00126617
0.000210131
0.00647502
0.00135687
0.000210422
0.00644217
0.00122797
0.000296051
0.00571298
0.00095054
5.13063e-05
0.00505368
0.000961095
-3.00724e-05
0.00507449
0.00106324
-8.09492e-07
0.00584318
0.00107013
0.000146817
0.00651839
0.000915473
9.97132e-05
0.00544603
0.000306794
0.000261941
0.00195081
0.000634839
0.000186689
0.00207282
0.000966878
-4.0916e-06
0.0045521
0.00105354
4.1415e-05
0.004323
0.00082221
6.96423e-05
0.0036667
0.000421356
3.95829e-05
0.00332524
0.000212187
1.41692e-05
0.00412879
0.00021535
3.1634e-05
0.00478392
0.000231183
2.95407e-05
0.00474756
0.00031373
9.18227e-05
0.00468543
0.0003052
0.000191281
0.00267866
1.53037e-05
0.000282193
0.00118842
-8.63984e-05
0.000145163
0.00124367
8.5933e-05
-3.01379e-05
0.00347752
0.000272655
-0.000112037
0.00358929
0.000297818
-0.000101668
0.00368351
0.000165814
2.92e-06
0.00294536
8.99291e-05
7.63838e-05
0.00257933
3.11572e-05
0.000131
0.00280364
-1.31836e-05
0.000137401
0.00298403
-7.09318e-05
-1.84981e-07
0.00312814
3.73136e-05
9.37258e-05
0.00275673
5.04673e-05
0.000186298
0.000639858
-0.000103863
0.000205817
0.000145727
-0.000199646
0.000257894
0.000770356
-0.000183786
8.45712e-05
0.00156834
-0.000127994
1.22176e-05
0.00230822
-8.72286e-05
-2.93638e-05
0.0023737
-6.30236e-05
7.05618e-06
0.00182381
-3.41031e-05
2.02963e-05
0.00128412
-1.55102e-05
2.4128e-06
0.00131389
-1.23638e-05
2.71904e-05
0.00144761
1.1747e-05
3.3037e-05
0.0014599
3.63355e-05
2.26479e-05
0.00110133
6.85879e-05
-1.53638e-05
0.00130042
1.20865e-05
0.000198802
-0.00228442
-2.07933e-05
0.000156696
-0.00103664
-6.42349e-05
0.000165076
-0.000988902
-9.86691e-05
7.50447e-05
-0.000485841
-0.00010764
7.72534e-06
0.000520684
-7.28502e-05
1.33479e-06
0.0014081
-4.4194e-05
2.72465e-05
0.000800668
-3.54802e-05
3.44977e-05
0.000641957
-2.93024e-05
2.55419e-05
0.000473719
-3.02923e-05
2.48567e-05
0.000478037
-3.58388e-05
3.6651e-06
0.000233039
-3.48534e-05
-1.4416e-05
0.000176986
-3.85245e-05
-2.05145e-05
7.98619e-05
-3.61835e-05
2.65135e-05
-0.000965478
-1.61705e-05
-0.0016894
0.00251429
-8.11841e-05
-0.00256797
-0.00173362
0.00260909
5.23257e-05
-0.00155416
0.00329004
6.13808e-05
-0.00328749
-0.00183783
1.24495e-05
-0.00175676
0.00254385
0.000132454
-0.00147945
0.00312824
0.000193014
-0.00120467
0.00359007
0.000230645
-0.00360948
-0.0014755
0.000151327
-0.00143051
0.00291651
2.35445e-05
-0.00145155
0.0033001
0.000210743
-0.00108814
0.0035657
0.000362206
-0.000846649
0.00381617
0.000430055
-0.00387525
-0.0012258
0.000385469
-0.00161207
0.00294942
5.94139e-05
-0.00127164
0.00355995
0.000108626
-0.00112139
0.00398806
0.000230155
-0.000897799
0.00403767
0.000413732
-0.000772155
0.00406823
0.000612632
-0.00157072
0.00349695
4.96074e-05
-0.00120131
0.0039684
5.79541e-05
-0.000722387
0.00425707
0.000239621
-0.00081029
0.00442862
0.000413939
-0.00065716
0.00445454
0.000621882
-0.000691595
0.00438643
0.000580946
-0.00132337
0.00387481
-5.04836e-05
-0.00105206
0.00430577
0.000153644
-0.000542108
0.00490156
0.000277168
-0.000568318
0.00487686
0.000360413
-0.000359757
0.00497026
0.000391832
-0.000641571
0.0051551
0.000489834
-0.000462663
0.00525766
0.000624099
-0.00145422
0.00381089
0.000169552
-0.000788266
0.00529919
0.000243901
-0.000307315
0.00526856
0.000361454
-0.00038049
0.00567904
0.000417073
-0.000236808
0.00581498
0.000385122
-0.000501664
0.00605325
0.000501981
-0.0005414
0.00603959
0.000619397
-0.000274728
0.00617143
0.000710106
-0.00113111
0.00548459
0.00018609
-0.000451211
0.00583136
0.000417107
0.000227559
0.00666065
0.000293736
-0.0001583
0.00724286
0.000348409
-0.000297785
0.00731074
0.000399162
-0.000258811
0.00713425
0.000588071
-0.000226911
0.0069246
0.000699283
-9.61097e-05
0.00681633
0.000832014
7.70015e-05
0.00669476
0.000887168
-0.000949812
0.00561142
0.00039262
-0.000310031
0.00733051
0.000527641
0.000147847
0.00724439
0.00044606
3.07637e-05
0.00732254
0.000646252
0.000143168
0.00712408
0.000859216
4.32648e-05
0.00693571
0.00111473
-5.86024e-06
0.0065233
0.00130761
5.79521e-05
0.00667334
0.00136379
0.000142186
0.00711295
0.00115038
0.000340937
0.00741224
0.00093372
-0.000428838
0.00473783
0.000639748
6.28867e-06
0.00587506
0.00101968
-4.16897e-05
0.00654583
0.00117418
0.000151461
0.00635578
0.00122986
0.000243098
0.00645657
0.00114079
0.000373731
0.00570613
0.000930721
0.000110093
0.00507013
0.000863585
-4.75101e-06
0.00510906
0.000945446
4.22007e-05
0.00589937
0.000996495
0.000168522
0.00651335
0.000936183
0.000234912
0.00628696
0.000801744
0.000375806
0.00490641
0.000355101
0.000405599
0.00161945
0.000514746
0.000204845
0.00181584
0.000832133
3.07508e-05
0.00446224
0.000995852
1.55749e-06
0.00444919
0.000813757
0.00015851
0.00386595
0.000362784
0.000105012
0.0035012
0.000143309
9.20907e-05
0.00416193
0.000163343
5.79238e-05
0.00489657
0.000175769
8.90148e-05
0.00480212
0.000225001
-6.27731e-05
0.0047552
0.000306545
6.00329e-05
0.00447892
0.000251367
0.000216764
0.00263249
1.5699e-05
0.000283382
0.00126117
-0.000135016
0.000144239
0.00126197
8.96465e-06
1.66069e-05
0.00341428
0.000217133
-6.42591e-05
0.00369914
0.000239279
-5.61178e-05
0.00384812
0.000159956
6.65251e-05
0.00296734
8.43669e-05
9.76305e-05
0.00256292
2.90098e-05
7.19518e-05
0.00277295
-7.69507e-06
0.000111083
0.00294561
-5.86469e-05
9.55705e-05
0.00297325
2.14219e-05
0.000137841
0.00263047
4.83756e-05
0.000114574
0.00222066
2.59249e-05
0.000176446
0.000767808
-0.000105594
0.000208833
0.000185592
-0.000195866
0.000285097
0.000631551
-0.000180862
8.08253e-05
0.00151384
-0.00013507
3.1059e-05
0.00225733
-0.000100436
3.75568e-06
0.00236123
-7.71768e-05
4.37568e-05
0.00179053
-4.62531e-05
2.67366e-05
0.00127959
-2.18047e-05
-6.94829e-06
0.00134626
-1.53898e-05
9.11631e-06
0.00144628
4.70779e-06
4.60397e-05
0.00138988
3.93929e-05
2.43701e-05
0.00101982
7.90578e-05
-1.77416e-05
0.00134447
2.17648e-05
5.30889e-05
0.000584248
-1.99099e-05
0.000195382
-0.00245878
-2.10179e-05
0.000158963
-0.00115483
-6.15627e-05
0.000156431
-0.00111596
-9.36101e-05
7.90011e-05
-0.000555631
-0.00010788
1.13217e-05
0.000477166
-7.54434e-05
1.04548e-05
0.00136705
-4.22479e-05
3.17002e-05
0.000759218
-3.44437e-05
4.01052e-05
0.000595629
-2.92575e-05
2.81401e-05
0.000446784
-3.05073e-05
2.88336e-05
0.000455045
-3.61341e-05
1.084e-05
0.000220096
-3.37356e-05
-1.16446e-05
0.000192069
-3.82918e-05
-1.83772e-05
9.68518e-05
-3.71371e-05
2.82816e-05
-0.00101242
-1.75245e-05
3.61769e-05
-0.00122583
-6.14153e-06
-0.00156032
0.00242656
-6.64854e-05
-0.00248916
-0.00164938
0.00253535
-0.000105299
-0.00144182
0.00312066
-5.68913e-05
-0.00325729
-0.00164819
-3.93935e-05
-0.00271822
-0.00166176
0.00240058
0.000113508
-0.00147964
0.00323716
0.000105404
-0.00116883
0.00363822
3.49666e-05
-0.00364764
-0.00166561
7.02351e-05
-0.00170948
0.00269674
0.000126084
-0.00157796
0.00319459
0.000192507
-0.00110639
0.00354307
0.00025826
-0.000858582
0.003789
0.000303153
-0.00384958
-0.00133509
0.000228138
-0.00158889
0.00285607
3.72544e-05
-0.00140686
0.00319796
0.000260906
-0.00130174
0.00362919
0.000327597
-0.000893034
0.00376664
0.000406964
-0.000864237
0.0038463
0.000511353
-0.00383552
-0.00100677
0.000456215
-0.00161432
0.00299986
-6.84516e-06
-0.00138917
0.00367478
0.000132439
-0.000692636
0.00384031
0.000226628
-0.000974784
0.00404495
0.000387372
-0.000851815
0.00408423
0.000592388
-0.000636315
0.00409475
0.000597807
-0.00146164
0.00361727
1.79457e-05
-0.0011506
0.00402299
9.35596e-05
-0.000745146
0.00431605
0.000202015
-0.00076394
0.00446143
0.000402431
-0.00054501
0.00447109
0.000582645
-0.000684861
0.00441899
0.000632618
-0.0005613
0.00461118
0.000628058
-0.00136925
0.00386947
-7.96331e-05
-0.00106789
0.00439783
0.000137074
-0.000419444
0.00487392
0.000293415
-0.00048323
0.00486619
0.000390578
-0.000353222
0.00505918
0.000387904
-0.000553104
0.00514408
0.000454291
-0.00048611
0.00512988
0.000562323
-0.000330809
0.00533561
0.000705979
-0.00148221
0.00399977
0.000162216
-0.00057243
0.00539106
0.000198907
-0.000101464
0.00543345
0.000408037
-0.000218684
0.00573228
0.000368596
-0.000357866
0.00588477
0.000407366
-0.000302949
0.00600203
0.000480483
-0.000425889
0.00608174
0.00065881
-0.000331114
0.00625408
0.000771744
-0.000213728
0.00632424
0.000866075
-0.00110501
0.00555098
8.88108e-05
-0.000678674
0.00601822
0.000367871
0.000108264
0.00690878
0.000208564
-3.38996e-05
0.00730087
0.000300391
-1.64597e-05
0.0073803
0.000438477
-0.000299638
0.00729327
0.000583047
-0.00020648
0.0070214
0.0006919
-0.00012605
0.00690104
0.000798577
8.48509e-06
0.00680508
0.000855391
0.000272504
0.00667092
0.0009205
-0.000963404
0.005699
0.00044698
-0.000295746
0.00740362
0.000621537
5.80163e-05
0.00718569
0.000486637
0.000126239
0.00729202
0.000501804
-5.3712e-05
0.00732791
0.000739231
0.000156272
0.00706828
0.000944111
-1.48367e-05
0.00659078
0.00117217
2.40788e-05
0.00670534
0.00124677
0.000258875
0.0071803
0.00107976
0.000341889
0.00750031
0.000888942
0.000276518
0.00746553
0.000854066
-0.000275858
0.00473336
0.000656141
0.000211212
0.00566461
0.00104459
0.000271804
0.00633877
0.00115979
6.44886e-05
0.00634309
0.00115313
0.000137704
0.00638398
0.0011663
0.000367889
0.00572872
0.00090882
0.000182314
0.0050541
0.000869441
3.45171e-05
0.00509155
0.000938669
0.00010247
0.00586472
0.000935543
0.000252899
0.00642946
0.000916496
4.68483e-05
0.00625641
0.000857106
0.000156636
0.00547454
0.000786453
0.000443571
0.00436547
0.000314132
0.000486523
0.00141551
0.000355899
0.000180629
0.00159604
0.000698156
5.02485e-05
0.00436333
0.000897402
4.33302e-05
0.00458003
0.00075742
0.000135403
0.00418616
0.000302025
0.000197623
0.00375063
-1.7748e-05
0.000154142
0.00421019
3.85433e-05
4.21256e-05
0.00495668
0.000133059
6.26274e-05
0.00494454
8.181e-05
-7.70083e-06
0.00482269
0.000260783
8.86114e-05
0.00454621
0.000288491
0.000186864
0.00438307
0.000234515
0.00025242
0.00255583
6.88913e-07
0.000264648
0.00138261
-0.000161558
0.000136358
0.00132031
-4.46185e-05
5.60227e-05
0.0033564
9.16515e-05
3.94115e-05
0.00372471
0.000183213
2.36981e-05
0.00395973
0.000107728
0.000154494
0.00296768
4.88766e-05
0.000160935
0.00248292
3.01589e-05
0.000123634
0.00267132
6.56686e-08
7.91573e-05
0.00288973
-2.18618e-05
0.000116112
0.00280413
4.04031e-05
0.00011887
0.00248425
7.31497e-05
9.87364e-05
0.00212711
2.54489e-05
4.99945e-05
0.0021784
-1.16295e-06
0.00018886
0.000882508
-0.000108177
0.000220017
0.000218535
-0.000199591
0.000281054
0.000498481
-0.000187418
7.67938e-05
0.00148234
-0.000147161
6.36009e-05
0.00218418
-0.000114193
3.73594e-05
0.00232724
-9.33461e-05
7.7646e-05
0.00172839
-6.09765e-05
5.67334e-05
0.0012462
-2.94905e-05
-3.07306e-06
0.0013741
-1.84278e-05
-1.59021e-05
0.00147374
1.88831e-06
3.33599e-05
0.00133793
3.41386e-05
4.24769e-06
0.000963079
8.02436e-05
-1.61094e-05
0.00139644
2.48161e-05
6.99777e-05
0.000581788
-1.74709e-05
3.28059e-05
-0.00060673
2.53374e-05
0.000192667
-0.00263147
-1.99766e-05
0.000161096
-0.00127647
-6.04748e-05
0.000146397
-0.00123496
-8.89567e-05
8.45227e-05
-0.000627126
-0.000106638
1.97522e-05
0.000427472
-7.79377e-05
1.9427e-05
0.00131421
-4.20376e-05
4.08222e-05
0.000709287
-3.31389e-05
4.61953e-05
0.000544059
-2.90682e-05
3.15015e-05
0.000416738
-3.07136e-05
3.33686e-05
0.000428005
-3.6836e-05
1.53518e-05
0.000201672
-3.30618e-05
-7.9092e-06
0.000203976
-3.77338e-05
-1.53486e-05
0.000111865