/*--------------------------------*- C++ -*----------------------------------*\
  =========                 |
  \\      /  F ield         | OpenFOAM: The Open Source CFD Toolbox
   \\    /   O peration     | Website:  https://openfoam.org
    \\  /    A nd           | Version:  7
     \\/     M anipulation  |
\*---------------------------------------------------------------------------*/
FoamFile
{
    version     2.0;
    format      ascii;
    class       surfaceScalarField;
    location    "8.5";
    object      phi_0;
}
// * * * * * * * * * * * * * * * * * * * * * * * * * * * * * * * * * * * * * //

dimensions      [0 3 -1 0 0 0 0];

internalField   nonuniform List<scalar> 
54095
(
0.000226595
0.000104023
-1.1892e-05
0.000280687
-0.000140228
3.70261e-05
0.000222797
-0.000100646
-1.81288e-05
0.000279612
0.0010066
-4.792e-05
-2.7106e-06
0.000485445
4.74762e-05
0.000284044
-0.000203025
1.54988e-06
0.000472516
0.00106393
-7.06785e-05
0.000217423
-0.00029201
-2.60587e-05
0.000309157
0.000744077
-6.4761e-05
0.000217455
0.00084752
-6.54167e-05
-0.000526028
0.00616762
0.000497267
-1.6031e-05
0.000709169
7.63501e-05
0.000507705
0.00177239
0.000415142
0.000287952
-0.000221072
-5.24812e-05
0.000557297
0.000929182
-0.000111843
0.000294404
0.00201748
-0.000144292
0.000217553
-0.000475012
-3.45514e-05
0.000322533
0.000477392
-8.19062e-05
0.000237102
0.000625821
-8.01639e-05
0.000155929
0.00070314
-6.3082e-05
-0.000965947
0.00677086
0.000468001
-0.000559807
0.00620123
0.000510169
0.000462906
0.00391306
0.000883875
-5.40444e-05
0.000964106
8.70598e-05
0.000445832
0.00157512
0.000385085
0.00012749
0.000968396
0.00042795
0.000287711
-0.000201706
-8.95234e-05
0.000617218
0.000742185
-0.000160169
0.000335024
0.00196167
-0.000153954
9.93542e-05
0.00218311
-9.96456e-05
0.00021926
-0.000656045
-3.8228e-05
0.000314228
0.00022578
-9.71669e-05
0.000246489
0.000393023
-9.55973e-05
0.000159706
0.000534238
-7.09678e-05
5.23725e-05
0.00100885
-6.28312e-05
-0.00112954
0.00486424
7.09353e-05
-0.000967239
0.00669727
0.000481024
-0.000388454
0.00815881
0.00117306
-0.000629368
0.00635381
0.000422742
0.0002192
0.00370408
0.000945778
0.000141807
0.00366806
0.000903811
-7.0212e-05
0.00124595
7.60783e-05
0.000315878
0.00162473
0.000338787
9.46653e-05
0.00117898
0.000414855
-2.45528e-07
0.0021068
0.000342117
0.000277497
-0.000142158
-0.000117784
0.000632034
0.000565434
-0.000230579
0.00035608
0.00185262
-0.000160704
0.000112757
0.00217072
-9.46156e-05
-2.37608e-05
0.00233001
-5.01818e-05
0.00021892
-0.000837236
-3.77287e-05
0.000286499
4.96588e-06
-0.000103913
0.000228825
0.000176704
-0.000109673
0.000156306
0.000362534
-8.01996e-05
4.91224e-05
0.000952741
-6.39824e-05
-3.75423e-05
0.00142124
-4.7653e-05
-0.00125973
0.00498877
0.000236552
-0.00112115
0.0049164
0.000101757
-0.000798241
0.00704094
0.000317356
-0.000932461
0.00653658
0.000463784
-0.00051323
0.0081596
0.00121267
-0.000148303
0.00809751
0.00131752
-0.000618564
0.00650883
0.000393331
-7.58972e-05
0.00349486
0.00102373
5.29483e-05
0.00364165
0.0010139
8.36061e-05
0.00420074
0.000710117
-3.17987e-05
0.0014578
9.7445e-05
0.000348215
0.00169693
0.000287701
3.82494e-06
0.00143924
0.000430789
-9.53245e-08
0.00229996
0.000334547
-0.000159109
0.00240403
0.000353848
0.000254419
-5.781e-05
-0.000119847
0.000596512
0.000411505
-0.000273868
0.000328266
0.00172549
-0.00020289
0.000121163
0.00214326
-9.81037e-05
-2.48205e-05
0.00233659
-2.72456e-05
-0.000125943
0.00208913
-1.79006e-05
0.000216604
-0.0010195
-3.43384e-05
0.000253141
-0.000183097
-0.000102807
0.000212585
-2.08481e-05
-0.000118946
0.000145752
0.000196337
-8.92278e-05
4.40901e-05
0.000893814
-6.53627e-05
-3.07646e-05
0.00143562
-4.75943e-05
4.62238e-06
0.000973324
-3.50743e-05
-0.00149253
0.00386351
4.49346e-05
-0.00128817
0.00483679
0.000318997
-0.000864739
0.005542
0.000288265
-0.00105987
0.0049016
0.000142201
-0.000891864
0.00714571
0.000375623
-0.000661842
0.00734285
0.000785151
-0.000868626
0.00635748
0.000429163
-0.000586684
0.00787206
0.0012621
-4.49307e-05
0.0080759
0.00133216
-1.7905e-05
0.00754278
0.00125452
-0.000322221
0.00638368
0.000415568
-4.15679e-05
0.00325904
0.00101894
-4.55047e-05
0.00354401
0.0011707
3.25646e-05
0.00433011
0.000851867
-8.58124e-05
0.0034763
0.000528902
-4.37348e-05
0.0016968
5.91507e-05
0.000481214
0.00164725
0.000262424
-4.89629e-06
0.00163709
0.000423009
-2.16313e-05
0.00249048
0.000383067
-0.000159154
0.00252288
0.000350039
-0.000181242
0.002473
0.000241275
0.00023329
5.12635e-05
-0.000125759
0.000559031
0.000269335
-0.000283566
0.000330139
0.00155855
-0.000224485
7.95317e-05
0.00210878
-0.000102186
-2.34302e-05
0.0023438
-3.77972e-05
-0.000119208
0.00214887
1.45603e-06
-0.000105248
0.00150442
2.85633e-06
0.000208023
-0.00119772
-2.98074e-05
0.000219002
-0.000340814
-9.5624e-05
0.000192184
-0.000192673
-0.000123166
0.000131265
4.32786e-05
-9.71527e-05
3.89893e-05
0.000832547
-6.69498e-05
-3.32268e-05
0.0014513
-4.78219e-05
5.19258e-06
0.000956298
-3.57607e-05
1.01651e-05
0.000824521
-2.90537e-05
-0.00162732
0.00353771
-1.37748e-05
-0.00142946
0.00382953
0.000175281
-0.00105988
0.00441849
0.000234677
-0.00120472
0.004735
0.000246635
-0.001072
0.0056907
0.000350435
-0.000695948
0.00595789
0.00023129
-0.00107621
0.00488822
0.000220975
-0.000862555
0.00718014
0.000383641
-0.00035717
0.00720512
0.000825596
-0.000444579
0.00745179
0.00103809
-0.000480059
0.00610296
0.000412351
-0.000424752
0.00730001
0.0013844
7.97833e-05
0.00777122
0.0014415
-2.73044e-05
0.00757912
0.00135569
-5.30826e-05
0.00663681
0.00116813
-0.00015609
0.00606966
0.000426382
0.000233976
0.00294744
0.000974407
-5.84995e-05
0.00339973
0.00121682
-1.70452e-05
0.00448705
0.00100917
-1.68749e-05
0.00357444
0.000611454
-0.000120162
0.0026855
0.00038202
-9.65849e-05
0.00194118
8.5496e-05
0.0005634
0.00152406
0.000177973
7.50944e-05
0.00174912
0.000405441
-0.000175862
0.00277362
0.000395258
-0.000165282
0.00273081
0.000316987
-0.000193187
0.00265191
0.000245106
-0.00013629
0.00222718
4.27471e-05
0.000227656
0.000144247
-0.000112616
0.000482467
0.000156619
-0.000276507
0.000317786
0.00137931
-0.000229932
8.47552e-05
0.00203363
-0.000102827
-2.25539e-05
0.00234664
-4.34791e-05
-0.000117657
0.00220664
-1.11437e-05
-9.75143e-05
0.00161064
-2.05317e-06
2.06966e-05
0.00131884
8.27445e-06
0.000203769
-0.00137566
-2.58243e-05
0.000193815
-0.000477521
-8.69148e-05
0.000178116
-0.000343633
-0.000122779
0.000113803
-9.04502e-05
-0.000103241
3.24476e-05
0.000771511
-6.8565e-05
-3.07905e-05
0.00146339
-4.82422e-05
6.03427e-06
0.000938852
-3.64105e-05
1.44118e-05
0.000803915
-2.95658e-05
1.60187e-05
0.000578394
-3.03012e-05
-0.00150869
0.00321389
0.000147439
-0.00151792
0.00369603
-6.98556e-05
-0.00104823
0.00461317
7.02977e-05
-0.00135409
0.00381173
0.000167176
-0.00129335
0.00453578
0.000279333
-0.000635332
0.00507604
0.000306392
-0.00127005
0.00474051
0.00018833
-0.000950664
0.00570479
0.000320654
-0.000418667
0.00609856
0.000271262
-0.000516428
0.00651544
0.000283143
-0.000937735
0.00507875
0.000267147
-0.000722352
0.00734193
0.000356782
-0.000486898
0.00734161
0.000813827
-0.000408001
0.00759533
0.00106275
-0.000370435
0.00729092
0.00124609
-0.000281109
0.00579451
0.000433476
-0.000194506
0.00672746
0.00141339
0.000129289
0.00736675
0.00160108
-2.91255e-05
0.007476
0.0015567
0.000264785
0.00645121
0.00125962
1.97059e-05
0.00542008
0.0010872
-0.00019206
0.00586224
0.000302895
0.000325698
0.00267091
0.00094061
7.94738e-05
0.00315471
0.00121506
-0.000113784
0.00455979
0.001082
-5.61958e-05
0.00376381
0.000710713
-8.05739e-05
0.00282845
0.000355891
-0.000193999
0.00300178
0.000387368
-4.50919e-05
0.00218067
3.32574e-05
0.000597053
0.00134948
0.000145483
0.000190992
0.001714
0.000339888
-0.000175096
0.0030203
0.000418612
-0.000194
0.0028857
0.000411811
-0.000177589
0.00283568
0.000193151
-0.000110449
0.00242702
5.81977e-05
-3.62168e-06
0.00241145
-4.65584e-05
0.000231868
0.000224398
-0.00010825
0.000411987
8.38491e-05
-0.000258018
0.000283939
0.00121377
-0.000216793
7.81217e-05
0.00194023
-0.000100856
-2.61608e-05
0.00234887
-4.64507e-05
-0.00010831
0.00226144
-2.07594e-05
-8.41327e-05
0.00169604
-6.37765e-06
2.74379e-05
0.00130081
2.95185e-06
2.3757e-05
0.00134022
-3.3408e-06
0.000206542
-0.00155884
-2.33671e-05
0.000177733
-0.000602064
-7.90141e-05
0.000169185
-0.000480497
-0.000119235
9.12172e-05
-0.00019719
-0.000107256
2.46835e-05
0.000713364
-6.97766e-05
-2.66977e-05
0.0014694
-4.7878e-05
9.60162e-06
0.000918301
-3.72928e-05
1.90325e-05
0.0007782
-2.9728e-05
1.91061e-05
0.000560569
-3.08465e-05
1.23057e-05
0.000530641
-3.68881e-05
-0.00154644
0.00292877
6.83618e-05
-0.00154773
0.00324381
-1.14617e-07
-0.00119263
0.00419761
0.000220115
-0.00148814
0.00385514
-2.50637e-05
-0.00128267
0.00438571
0.00014692
-0.000671961
0.00469689
0.000194331
-0.00136872
0.00359135
0.000319048
-0.0011774
0.00462044
0.000309256
-0.000658355
0.00532614
0.000268915
-0.000456692
0.00536578
0.000235955
-0.00129651
0.00487349
0.000225794
-0.00087894
0.00575266
0.000297054
-0.000553881
0.00634606
0.00014014
-0.000623193
0.00670993
0.000291959
-0.00032791
0.00668062
0.000380332
-0.000843102
0.00531435
0.000326387
-0.000603448
0.00767473
0.00034329
-5.52788e-05
0.00712802
0.000754944
-0.000412367
0.00768142
0.00111099
5.1885e-05
0.0072343
0.00133227
-5.80399e-06
0.00652551
0.00150391
-0.000264855
0.00545737
0.000409926
-7.12701e-05
0.00629517
0.00126273
0.000182339
0.00702862
0.00164865
0.00011792
0.00714948
0.0016959
0.000150706
0.00639934
0.00140167
9.97082e-05
0.00541559
0.00108384
-0.000135854
0.0051037
0.00102646
-0.00024671
0.00578658
0.00027728
0.000182302
0.00251328
0.000875279
0.000105108
0.00299807
0.00118313
-0.000132448
0.00464479
0.00108742
-0.000108954
0.00399024
0.000770534
-6.22537e-05
0.00304816
0.00037566
-0.000134799
0.00309624
0.00028578
-0.000141853
0.00372895
0.000372086
-6.88118e-06
0.00239672
2.27007e-05
0.000544108
0.00118027
7.03498e-05
0.000233857
0.00158915
0.000320413
-0.000160106
0.00322584
0.000372576
-0.000184323
0.00309569
0.000366783
-0.000174049
0.00303696
0.000276273
-9.02993e-05
0.00256429
6.20464e-05
3.41393e-05
0.00250781
-4.48635e-05
5.11583e-05
0.00284596
-9.65771e-05
0.000219593
0.000318203
-0.000106857
0.000338163
5.26469e-05
-0.000237478
0.000239868
0.00109443
-0.000209355
7.88288e-05
0.00183818
-0.000102354
-3.78235e-05
0.00236433
-5.38069e-05
-8.49326e-05
0.00230287
-2.96458e-05
-6.04658e-05
0.00175703
-1.16863e-05
2.81123e-05
0.00128842
-3.0659e-06
3.13956e-05
0.0013314
-5.16864e-07
1.36473e-05
0.00154445
-8.35316e-06
0.000212469
-0.00174858
-2.27239e-05
0.000168281
-0.00072073
-7.29824e-05
0.000165294
-0.000611007
-0.000113798
7.22259e-05
-0.000279624
-0.000109027
1.96444e-05
0.000657894
-7.14315e-05
-2.03847e-05
0.00146695
-4.69455e-05
1.35278e-05
0.000894204
-3.73086e-05
2.19541e-05
0.000748616
-2.96628e-05
2.17445e-05
0.000540056
-3.09595e-05
1.34924e-05
0.00052267
-3.63686e-05
1.09777e-05
0.000244431
-3.70738e-05
-0.00168752
0.00295706
2.70505e-05
-0.00284304
-0.00158253
0.0029079
5.56646e-05
-0.00138434
0.00355079
0.000141111
-0.00151236
0.00331432
-4.62895e-05
-0.00117547
0.00407055
1.97355e-05
-0.000915616
0.00447242
0.000317718
-0.00139489
0.00389939
-1.80849e-05
-0.00129454
0.0043817
9.60981e-05
-0.000775952
0.00468516
0.000276249
-0.000558753
0.00497611
0.000307973
-0.00146949
0.00355006
0.000214272
-0.00106578
0.00481802
0.000308297
-0.000415565
0.00514181
0.00035527
-0.000576071
0.00540725
0.00018032
-0.00030772
0.0056332
0.000284024
-0.00120572
0.00516702
6.90918e-05
-0.000885242
0.00585316
0.000407083
-0.000168772
0.00638145
0.00037515
-0.000526667
0.00680581
0.000158561
-0.000290174
0.00691461
0.000400029
-0.0001641
0.00675977
0.000547003
-0.000801422
0.00554513
0.00030579
-0.000187881
0.00776396
0.000353777
-0.000126535
0.00717717
0.000603011
-0.000164375
0.00756515
0.0011535
2.09502e-05
0.00709419
0.00138085
-0.000124633
0.00658757
0.00149456
-8.62174e-05
0.00656046
0.00145632
-0.000392483
0.00518809
0.000415052
-0.00030325
0.00614813
0.00104252
2.81902e-05
0.00681514
0.00155312
0.000188641
0.00677488
0.00170216
0.000218692
0.00634676
0.00142083
0.000204682
0.00548392
0.00106641
-1.47789e-05
0.0050504
0.00101711
-9.28696e-05
0.00532218
0.00109233
-0.000297571
0.00580541
0.000271862
0.000123446
0.00238652
0.000824698
0.000322038
0.00264184
0.00114332
-0.000101125
0.00466496
0.00110398
-3.30814e-05
0.00413969
0.000786717
-4.10906e-05
0.00328535
0.00040039
-7.3261e-05
0.00309071
0.000364158
-0.000123627
0.00391633
0.000256176
-0.00014994
0.00456257
0.0003724
1.21084e-05
0.00258581
1.83925e-05
0.000436721
0.00113309
-2.86785e-05
0.000204086
0.00142431
0.000270968
-0.000115558
0.00338147
0.000359172
-0.000218154
0.0032933
0.000355297
-0.000150739
0.00327413
0.000195416
-6.23312e-05
0.00275525
8.71815e-05
3.35232e-05
0.00256517
-7.16268e-07
7.77095e-05
0.00284694
-9.21529e-05
7.98052e-05
0.00317774
-6.20256e-05
0.000232191
0.000404372
-0.000105892
0.000275658
6.12823e-05
-0.000222869
0.000221744
0.00099587
-0.00019537
6.80612e-05
0.00174518
-0.000112187
-1.76074e-05
0.00236412
-6.48976e-05
-6.68774e-05
0.00233522
-3.96599e-05
-3.72633e-05
0.00179613
-1.79578e-05
2.42459e-05
0.00128137
-6.931e-06
4.63288e-05
0.00130466
-9.06126e-07
3.90108e-05
0.00151091
7.50465e-06
1.72383e-05
0.00152715
8.66698e-06
0.000214486
-0.0019409
-2.2167e-05
0.000162299
-0.000836126
-6.96277e-05
0.000164918
-0.000740641
-0.000108267
6.43112e-05
-0.000349142
-0.000108591
1.49728e-05
0.000606218
-7.23238e-05
-1.23937e-05
0.00145448
-4.65708e-05
1.73093e-05
0.000866623
-3.6674e-05
2.51868e-05
0.000715301
-2.91812e-05
2.28105e-05
0.000517995
-3.0413e-05
1.56756e-05
0.000512183
-3.61477e-05
2.97895e-06
0.000241687
-3.66037e-05
-1.17076e-05
0.000145798
-3.87784e-05
-0.00183549
0.00258671
8.83778e-05
-0.00252711
-0.00157598
0.00292695
2.3572e-05
-0.0015809
0.00327115
0.000244153
-0.00329169
-0.00189041
8.2205e-05
-0.00160467
0.00293158
6.86411e-05
-0.00135314
0.00364843
0.000135692
-0.00110765
0.00390299
0.000300482
-0.00145824
0.00341247
-3.48041e-05
-0.00118162
0.00392152
-1.01835e-05
-0.000933989
0.00439987
0.000250321
-0.000791575
0.00439795
0.000468625
-0.0013985
0.00385653
-2.8124e-05
-0.00124275
0.00431617
0.000224418
-0.000635952
0.00481151
0.000190132
-0.000477663
0.00481706
0.000336893
-0.000459627
0.00501567
0.000405697
-0.00149261
0.00364425
0.000192692
-0.00101437
0.0048878
0.000273622
-0.000505073
0.00539376
0.000392654
-0.000535956
0.00550743
0.000264385
-0.000434559
0.00560378
0.000354123
-0.000544534
0.00579659
0.000520979
-0.00114939
0.00529593
0.000219055
-0.00040155
0.00590283
0.000233089
-0.000182922
0.0065375
0.000307428
-0.000273975
0.0069349
0.000355666
-0.000172822
0.00684555
0.000421391
-0.000332985
0.00683227
0.000535874
-0.000249033
0.00668896
0.000701746
-0.000826573
0.00565424
0.000324981
-0.000248469
0.00760555
0.000409417
-0.000318
0.00730326
0.000573875
3.41427e-05
0.00735377
0.000968893
0.000141176
0.00702409
0.00130112
0.00022471
0.00652483
0.00142357
8.18367e-05
0.00650137
0.00145703
7.38426e-05
0.00684107
0.00140706
-0.000587578
0.00500518
0.000472916
-0.000424103
0.00615552
0.000955206
0.000174583
0.0066377
0.00136742
5.12536e-05
0.0066396
0.00153602
0.000328638
0.00636417
0.00132303
0.00023976
0.00560578
0.00101812
-1.69215e-05
0.00505803
0.00100244
-3.29391e-05
0.00517112
0.00107748
-0.000151041
0.00584496
0.00106646
-0.000158141
0.00570496
0.000270695
0.000160718
0.00220442
0.000729968
0.000258874
0.00234161
0.00107014
-1.70815e-05
0.00462562
0.00108419
-4.60761e-05
0.00423905
0.000832546
2.95191e-05
0.00347647
0.00041534
-1.83619e-05
0.00320346
0.000243671
-7.83757e-05
0.00406277
0.000329612
3.52761e-06
0.00460368
0.000289252
2.87856e-05
0.00467132
0.000362486
0.000138858
0.00266881
1.03403e-05
0.000336792
0.0011409
-5.05544e-05
0.000165209
0.00129968
0.000152486
-8.71171e-05
0.0034993
0.000308314
-0.000149099
0.0034736
0.000310366
-0.000136801
0.00349901
0.000200343
-2.71874e-05
0.00285327
8.7318e-05
6.13611e-05
0.0025676
4.76333e-05
0.000116424
0.00282738
-5.12489e-05
0.000126871
0.00304811
-5.03851e-05
-3.32349e-06
0.00320298
3.22413e-05
0.000214938
0.000511851
-0.00010793
0.000228012
0.000100693
-0.000211015
0.000231531
0.000894268
-0.000187879
7.74495e-05
0.00165649
-0.000119818
-3.19134e-07
0.00234229
-7.50652e-05
-4.49568e-05
0.00235498
-5.2099e-05
-1.64223e-05
0.00181584
-2.56292e-05
2.28482e-05
0.00127685
-1.10923e-05
4.02494e-05
0.0012878
-7.51071e-06
4.38474e-05
0.00146713
1.47008e-05
1.59879e-06
0.0015097
2.63332e-05
1.44991e-05
0.00117568
5.46856e-05
0.000206001
-0.00212555
-2.13499e-05
0.000157807
-0.000949573
-6.65267e-05
0.000164932
-0.000871647
-0.000103554
6.65177e-05
-0.000416113
-0.000107814
9.93766e-06
0.000559848
-7.21588e-05
-5.12107e-06
0.00143303
-4.57459e-05
2.24056e-05
0.000833669
-3.60223e-05
3.03926e-05
0.00067727
-2.90349e-05
2.34457e-05
0.000495467
-3.00982e-05
2.02481e-05
0.000497318
-3.57961e-05
8.2314e-07
0.000240643
-3.59274e-05
-1.38956e-05
0.000161551
-3.84611e-05
-2.0572e-05
6.43792e-05
-3.5007e-05
-0.00182472
0.00261942
5.58749e-05
-0.00268607
-0.00169324
0.00258382
0.000120136
-0.00154302
0.00326449
0.000238312
-0.0034523
-0.00201231
4.75498e-05
-0.00166184
0.00297876
5.3499e-06
-0.0015482
0.00324875
0.000241031
-0.00122977
0.00363223
0.000410659
-0.00367661
-0.00129094
0.000156502
-0.00147115
0.00290037
4.41206e-05
-0.00118978
0.00360322
0.000122018
-0.00103494
0.00388251
0.00025713
-0.000887505
0.00398281
0.0004196
-0.00150382
0.00346227
5.55087e-05
-0.00125257
0.00391568
-1.91507e-05
-0.000903271
0.0044055
0.000251507
-0.000687039
0.00439053
0.000467111
-0.000614856
0.004424
0.000607048
-0.001482
0.00389426
-4.83363e-05
-0.00114058
0.00424827
0.000165986
-0.000608687
0.00485743
0.000282116
-0.000611647
0.00473198
0.000350901
-0.000468072
0.00499467
0.000391404
-0.000739567
0.00508934
0.000518976
-0.00139668
0.00371464
0.000176904
-0.000779368
0.00514773
0.00031058
-0.000377504
0.00546967
0.000392289
-0.000335381
0.00559464
0.000366851
-0.000335811
0.0056988
0.000332349
-0.000472411
0.00580096
0.000489179
-0.000398278
0.00593167
0.00062699
-0.00117468
0.00542948
0.000214553
-0.000552809
0.00596027
0.00046596
-0.000455464
0.00662381
0.000284237
-0.000258429
0.00725745
0.000277445
-9.3902e-05
0.0070218
0.000414494
-5.99489e-05
0.00696255
0.000575772
-0.0002864
0.00686685
0.000726223
-6.2543e-05
0.00665122
0.000826147
-0.000887098
0.0056124
0.000341357
-0.000376355
0.00741358
0.000469202
0.000136212
0.0072719
0.000479149
-9.31899e-05
0.00729194
0.000780145
0.000133903
0.00711411
0.00107361
9.27813e-05
0.00671491
0.00125802
-4.36861e-05
0.00650343
0.00144827
0.000185045
0.00666278
0.00141734
0.000176027
0.00698619
0.00118719
-0.000556148
0.00481353
0.000589663
-0.000208688
0.00603791
0.000959931
7.35362e-05
0.00652885
0.0012494
0.000213191
0.00645079
0.00132596
0.000201066
0.00645091
0.00120215
0.000301857
0.00571789
0.000938573
5.62476e-05
0.00505279
0.000948744
-3.07058e-05
0.00507484
0.00105106
1.16385e-05
0.00585396
0.00106037
0.000153366
0.00652725
0.000909591
0.000146074
0.00537845
0.000319296
0.000276932
0.00190769
0.000627289
0.000187156
0.00208982
0.000959814
-5.53596e-06
0.00456783
0.00104635
4.13915e-05
0.00431718
0.000815568
8.03609e-05
0.00367941
0.000412447
4.62214e-05
0.00334048
0.000204905
2.13964e-05
0.00413638
0.000210028
3.43808e-05
0.00479837
0.000216963
2.58462e-05
0.00475524
0.000306353
7.46145e-05
0.00468701
0.000300594
0.000192955
0.0026766
1.41913e-05
0.000284846
0.00118619
-9.17768e-05
0.000143838
0.00125701
7.98107e-05
-2.63108e-05
0.00348553
0.000270023
-0.000106859
0.00359894
0.000289513
-9.48729e-05
0.00369676
0.000162527
9.14729e-06
0.00294046
8.7586e-05
7.83265e-05
0.00257132
2.81154e-05
0.000128113
0.00279836
-1.12165e-05
0.000133857
0.00297628
-6.94259e-05
8.90075e-06
0.00311022
3.50758e-05
9.6765e-05
0.00274179
5.1945e-05
0.000185435
0.000636825
-0.000104409
0.000206569
0.000143937
-0.000199937
0.000258459
0.000773221
-0.000183495
8.29619e-05
0.00157973
-0.000127561
1.3773e-05
0.0023066
-8.79615e-05
-2.63205e-05
0.00236541
-6.42961e-05
1.05485e-05
0.001811
-3.54041e-05
2.03039e-05
0.00127771
-1.64032e-05
-1.19489e-06
0.00131421
-1.28699e-05
2.32627e-05
0.00144547
1.11337e-05
3.40405e-05
0.00145402
3.71652e-05
2.25368e-05
0.0010951
7.04786e-05
-1.58745e-05
0.00130149
1.36091e-05
0.00019815
-0.00230303
-2.06738e-05
0.000156469
-0.00106317
-6.42251e-05
0.000164403
-0.00100403
-9.85449e-05
7.46177e-05
-0.000486525
-0.000107759
7.35941e-06
0.000517613
-7.29383e-05
1.78936e-06
0.00140277
-4.36914e-05
2.7671e-05
0.000795499
-3.52469e-05
3.49497e-05
0.000635531
-2.92332e-05
2.54675e-05
0.000471222
-3.02571e-05
2.48544e-05
0.000478133
-3.57672e-05
3.92596e-06
0.000235688
-3.4767e-05
-1.45435e-05
0.00017872
-3.85538e-05
-2.07092e-05
8.25427e-05
-3.59154e-05
2.62297e-05
-0.000966261
-1.57921e-05
-0.00169089
0.00251288
-8.11947e-05
-0.00256552
-0.00173211
0.00260426
5.40368e-05
-0.00155027
0.00328687
6.33785e-05
-0.00328712
-0.00184275
1.33658e-05
-0.00175745
0.00254793
0.000131503
-0.00148083
0.00312457
0.000192672
-0.00120517
0.00358775
0.000232674
-0.00360672
-0.00147491
0.000152436
-0.00142875
0.00291325
2.31067e-05
-0.00144589
0.00329983
0.000210367
-0.00108747
0.00356456
0.000361227
-0.000846799
0.0038126
0.000429681
-0.00387233
-0.00122634
0.000387681
-0.00161124
0.00294932
5.84815e-05
-0.00127309
0.00356073
0.000107145
-0.00111595
0.00398781
0.000229396
-0.000899117
0.004039
0.000413016
-0.00077344
0.00406613
0.00061402
-0.00156974
0.00350191
4.81001e-05
-0.001197
0.00396781
5.97973e-05
-0.000718068
0.00425691
0.000238827
-0.000811265
0.0044292
0.000412458
-0.000654119
0.00445655
0.000620607
-0.00069215
0.00438677
0.000580576
-0.00131873
0.0038675
-5.11983e-05
-0.00104617
0.00431164
0.000155098
-0.000534125
0.00490101
0.000279025
-0.00056347
0.00488055
0.00036164
-0.000355299
0.00497411
0.000390944
-0.000634959
0.00515663
0.00048667
-0.000457374
0.00525107
0.000622756
-0.00145473
0.00382536
0.00016933
-0.000780388
0.00531133
0.00024088
-0.000298082
0.00526141
0.000361456
-0.000376311
0.0056884
0.000416404
-0.000241838
0.00582404
0.000389552
-0.000495505
0.00606492
0.000503946
-0.000540824
0.00605207
0.000623197
-0.000275571
0.0061868
0.000711437
-0.00112434
0.00548771
0.000179009
-0.00045252
0.00583957
0.000411417
0.000267978
0.00667204
0.00028596
-0.000152294
0.00725538
0.000345412
-0.000292436
0.00732637
0.000399214
-0.000269886
0.00715205
0.000587665
-0.000231082
0.00693265
0.000697366
-0.000100848
0.00683404
0.000829293
8.68138e-05
0.00670211
0.00088662
-0.000950434
0.00560557
0.000401122
-0.000306591
0.00732451
0.00052833
0.000145057
0.00722918
0.000440405
3.85419e-05
0.00731726
0.000628484
0.00011101
0.00714915
0.000835162
4.25536e-05
0.00695414
0.00109369
-3.05838e-06
0.00653219
0.00128855
4.97816e-05
0.00668335
0.00134721
0.000136985
0.00714244
0.00113573
0.000350578
0.00743372
0.000922993
-0.000414248
0.00473344
0.000640414
2.32232e-05
0.00586115
0.00102013
-3.20663e-05
0.00653945
0.00116855
0.000132829
0.00634832
0.0012135
0.000238145
0.00644956
0.00113055
0.000382303
0.00569504
0.000923056
0.000112681
0.00506774
0.000857166
-2.20306e-06
0.00510992
0.000937264
4.75755e-05
0.00590699
0.000984833
0.00017222
0.00650763
0.000933611
0.000219411
0.00627267
0.000801912
0.000390486
0.00483242
0.000348499
0.000418779
0.0015885
0.000504547
0.000210106
0.00182661
0.000824232
3.01643e-05
0.00448314
0.00098803
2.16316e-08
0.00445187
0.00080478
0.000160464
0.00388862
0.000351018
0.00011214
0.00352357
0.000126363
9.7008e-05
0.00417335
0.000149251
5.53557e-05
0.00491117
0.00016998
8.76519e-05
0.00481213
0.000206277
-6.94188e-05
0.00476472
0.000306956
6.62609e-05
0.00448521
0.000253534
0.000222347
0.00262556
1.41282e-05
0.000285203
0.00126183
-0.000140086
0.000144176
0.00127619
3.32811e-06
2.04826e-05
0.0034202
0.000207619
-5.68648e-05
0.00370377
0.000235834
-4.63296e-05
0.00385361
0.000152682
7.54268e-05
0.00295665
8.14569e-05
0.000102413
0.00254935
2.74489e-05
7.1006e-05
0.00276225
-7.9735e-06
0.000104563
0.00293905
-5.52901e-05
9.94451e-05
0.00295234
2.30496e-05
0.000138715
0.00261013
5.05613e-05
0.000114894
0.00221206
2.62575e-05
0.00017831
0.000762733
-0.000106069
0.000210357
0.000182368
-0.000196728
0.00028592
0.000632695
-0.000180928
7.85951e-05
0.00152705
-0.000134795
3.38914e-05
0.00225363
-0.000101125
7.25442e-06
0.00235062
-7.86293e-05
4.74694e-05
0.00177464
-4.77394e-05
2.81632e-05
0.00127189
-2.27957e-05
-7.57658e-06
0.00134677
-1.59109e-05
4.77229e-06
0.00144829
4.39858e-06
4.54356e-05
0.00138388
3.97691e-05
2.35409e-05
0.00101442
7.9761e-05
-1.79254e-05
0.00134644
2.27437e-05
5.44888e-05
0.000588826
-1.96544e-05
0.000194947
-0.00247691
-2.10683e-05
0.000159034
-0.00118131
-6.15652e-05
0.000156017
-0.00113084
-9.34365e-05
7.92098e-05
-0.000556439
-0.000107841
1.15422e-05
0.000474033
-7.57216e-05
1.09722e-05
0.00136075
-4.18935e-05
3.23181e-05
0.000753653
-3.41635e-05
4.05401e-05
0.00058892
-2.91762e-05
2.80898e-05
0.000444334
-3.04357e-05
2.88558e-05
0.000455079
-3.60595e-05
1.11372e-05
0.000222384
-3.35999e-05
-1.16705e-05
0.000193902
-3.8278e-05
-1.84808e-05
9.94003e-05
-3.69307e-05
2.79981e-05
-0.00101291
-1.7261e-05
3.59208e-05
-0.00122382
-6.06242e-06
-0.0015613
0.0024258
-6.73438e-05
-0.00248804
-0.00164938
0.00253515
-0.000104991
-0.00144368
0.00312093
-5.50167e-05
-0.0032537
-0.00165313
-4.02012e-05
-0.00271494
-0.00166508
0.00239662
0.000115274
-0.00147994
0.00323256
0.000107461
-0.00117414
0.00363641
4.06938e-05
-0.00364475
-0.00167016
7.23402e-05
-0.00170309
0.00269774
0.000124526
-0.00157705
0.00319492
0.00019232
-0.00110488
0.00353818
0.000259657
-0.000856687
0.00378593
0.000305527
-0.0038489
-0.00133408
0.000227939
-0.00158962
0.0028561
3.55224e-05
-0.00140662
0.00319555
0.000260924
-0.00129808
0.00362934
0.000327706
-0.000896023
0.00376426
0.000406476
-0.000867541
0.00384474
0.000512798
-0.00383376
-0.00100338
0.000457197
-0.00161343
0.00300075
-7.73738e-06
-0.00138665
0.00367711
0.000131742
-0.000689766
0.00384018
0.000226472
-0.000972886
0.00404354
0.00038647
-0.00085216
0.00408437
0.000592817
-0.000636122
0.00409244
0.000600193
-0.00145625
0.00362248
1.69511e-05
-0.00115172
0.0040274
9.40655e-05
-0.00074035
0.0043204
0.000202529
-0.000760931
0.00446331
0.000402176
-0.00053955
0.00447203
0.000581224
-0.00068079
0.00441921
0.000633997
-0.000558849
0.00461413
0.000629795
-0.00137137
0.00386269
-7.8544e-05
-0.00106445
0.00440767
0.000136829
-0.00041317
0.00487536
0.000295839
-0.000476223
0.00486689
0.000392592
-0.000350926
0.00505793
0.000386914
-0.000547045
0.00514669
0.000452417
-0.0004899
0.00512656
0.000560253
-0.000334597
0.00533485
0.000705493
-0.00148149
0.00402014
0.000162372
-0.00057291
0.00540188
0.000199172
-8.98599e-05
0.00545084
0.000409293
-0.000208862
0.00573805
0.000368383
-0.000356281
0.00589917
0.000405111
-0.000294469
0.00599968
0.000479374
-0.000415314
0.00607964
0.000660609
-0.000328097
0.00625786
0.000779387
-0.000212578
0.00634206
0.000868857
-0.00110187
0.00555384
8.53016e-05
-0.000691718
0.0060406
0.000363101
0.00010066
0.00692223
0.000205627
-2.64648e-05
0.007312
0.000294347
-3.31959e-05
0.00738888
0.000427103
-0.000298947
0.00730918
0.000583581
-0.000205439
0.00703192
0.000690779
-0.000121916
0.00690739
0.000795715
1.66531e-06
0.0068158
0.000850923
0.000263204
0.00668705
0.000921037
-0.000963377
0.00569645
0.000458244
-0.000287067
0.00740662
0.000629304
5.10637e-05
0.0071853
0.000489077
0.000120482
0.00728253
0.000487473
-4.02185e-05
0.0073329
0.000723101
0.000157772
0.00708157
0.000932253
-1.56645e-05
0.00660768
0.00114654
1.95407e-05
0.00672351
0.00122665
0.000266969
0.00720544
0.00106483
0.000347753
0.00751332
0.000880602
0.000278336
0.0074526
0.000848676
-0.000260721
0.00472954
0.000655105
0.000215613
0.0056628
0.00104193
0.000299515
0.00631165
0.00115853
6.11239e-05
0.00633807
0.00114784
0.000127516
0.00637171
0.00116386
0.000352954
0.00572398
0.000909119
0.000186681
0.00504889
0.000867358
3.18107e-05
0.00510249
0.000929785
9.87457e-05
0.00586551
0.000935356
0.000251496
0.00641209
0.000916528
3.62688e-05
0.00623813
0.000862464
0.000156074
0.00545835
0.000786866
0.000438582
0.00430875
0.000307436
0.00047576
0.00140466
0.000341788
0.000171951
0.00161148
0.000691898
6.74433e-05
0.0043741
0.000886304
5.0667e-05
0.00458612
0.000746252
0.00014215
0.00421588
0.000289039
0.000208532
0.00377973
-3.82439e-05
0.00016543
0.00421364
2.30609e-05
5.51622e-05
0.00496157
0.000114695
4.29568e-05
0.00496733
7.6384e-05
-4.42265e-06
0.00482299
0.000251878
8.79857e-05
0.00455049
0.0002924
0.000190297
0.00437858
0.000238965
0.000257429
0.00254774
-1.30108e-06
0.000266356
0.0013859
-0.000165938
0.000138317
0.00133364
-4.99311e-05
5.62404e-05
0.00336269
8.3192e-05
4.80481e-05
0.00372517
0.000172065
3.41494e-05
0.00395821
0.000104332
0.000161775
0.00295174
4.32876e-05
0.000169925
0.00246269
2.63554e-05
0.000127009
0.00265716
-2.04862e-06
6.90001e-05
0.00288333
-1.64777e-05
0.000120185
0.00277841
4.38932e-05
0.000116549
0.00246449
7.56824e-05
9.28714e-05
0.00212551
2.63195e-05
5.11276e-05
0.00218395
1.21821e-06
0.000192693
0.000873674
-0.000108688
0.000222055
0.000213952
-0.000200674
0.000280782
0.000499252
-0.00018805
7.71441e-05
0.00149565
-0.000147466
6.65698e-05
0.00217883
-0.000115015
4.11973e-05
0.00231412
-9.48493e-05
8.12628e-05
0.00170967
-6.25969e-05
6.08672e-05
0.00123442
-3.06052e-05
-2.79449e-06
0.00137381
-1.89509e-05
-1.67423e-05
0.00147627
1.70154e-06
2.73961e-05
0.00133801
3.40044e-05
4.70193e-07
0.00096157
8.04798e-05
-1.56713e-05
0.00139823
2.51621e-05
7.17899e-05
0.000584891
-1.71129e-05
3.3464e-05
-0.000604964
2.56373e-05
0.000191964
-0.00264858
-2.02903e-05
0.000160883
-0.00130272
-6.05403e-05
0.000145952
-0.00124951
-8.88439e-05
8.46114e-05
-0.000627938
-0.000106548
2.02372e-05
0.000423984
-7.80297e-05
2.0062e-05
0.00130694
-4.19703e-05
4.21494e-05
0.000702499
-3.28892e-05
4.66106e-05
0.00053712
-2.89741e-05
3.15102e-05
0.000414293
-3.06455e-05
3.3432e-05
0.000427975
-3.67635e-05
1.55019e-05
0.000203722
-3.28996e-05
-7.84007e-06
0.000205792
-3.76495e-05
-1.53295e-05
0.000114292
-3.78399e-05