/*--------------------------------*- C++ -*----------------------------------*\
  =========                 |
  \\      /  F ield         | OpenFOAM: The Open Source CFD Toolbox
   \\    /   O peration     | Website:  https://openfoam.org
    \\  /    A nd           | Version:  7
     \\/     M anipulation  |
\*---------------------------------------------------------------------------*/
FoamFile
{
    version     2.0;
    format      ascii;
    class       volVectorField;
    location    "8.5";
    object      U;
}
// * * * * * * * * * * * * * * * * * * * * * * * * * * * * * * * * * * * * * //

dimensions      [0 1 -1 0 0 0 0];

internalField   nonuniform List<vector> 
18750
(
(2.60132 0.25492 -0.00997948)
(2.64923 0.00539809 0.389197)
(2.54275 0.258367 0.0925421)
(2.68363 0.892416 -0.515395)
(0.454959 0.268012 -0.154215)
(2.62868 0.108203 0.30574)
(3.81687 0.880652 0.212135)
(2.46293 0.27922 0.139759)
(2.89564 0.909171 -0.898369)
(2.4574 0.760976 -1.63575)
(-0.61979 4.16492 1.06767)
(0.460521 0.453894 0.099704)
(1.67004 1.08328 0.728249)
(2.59503 0.242883 0.146192)
(4.25431 1.08361 -0.263282)
(2.37035 1.42396 -1.34233)
(2.51434 0.321225 0.117875)
(2.96447 0.926829 -1.30057)
(2.60228 0.781145 -2.00823)
(2.17744 0.623454 -1.34427)
(-2.60503 4.54195 -0.501758)
(-1.04841 4.13223 1.0148)
(1.76957 2.75401 2.14461)
(0.451332 0.647147 0.289166)
(1.99072 1.22411 0.721509)
(0.705972 0.564262 2.59857)
(2.49782 0.372808 -0.00988201)
(4.44227 1.25259 -0.942374)
(2.54717 1.60642 -1.52746)
(0.973943 1.50265 -0.840344)
(2.62411 0.379557 0.101805)
(2.85095 0.913124 -1.68337)
(2.63213 0.804807 -2.37439)
(2.19777 0.649321 -1.6306)
(0.783844 0.755468 -1.57252)
(-2.13537 3.19556 0.594039)
(-2.90029 4.28041 -0.690491)
(0.483145 5.46539 2.6705)
(-1.65365 4.07012 0.412325)
(0.927487 2.75268 2.31504)
(0.236128 2.5391 3.30477)
(0.43613 0.851879 0.394402)
(2.21588 1.56852 0.611942)
(0.776124 0.810043 2.39516)
(0.0674559 1.33706 1.57593)
(2.31988 0.520524 -0.154358)
(4.28922 1.35593 -1.37484)
(2.65619 1.7723 -1.55008)
(0.889038 1.58947 -0.784189)
(0.150381 1.56385 -0.674085)
(2.71968 0.455833 0.0782377)
(2.63987 0.849917 -1.84684)
(2.50072 0.776399 -2.69426)
(2.10955 0.656436 -1.95698)
(0.708237 0.762724 -1.62579)
(-0.282429 0.940687 -1.27191)
(-2.22244 3.32913 0.325977)
(-2.27703 3.09243 0.699839)
(-2.49589 4.63069 -0.267525)
(-3.18382 4.12468 -0.811039)
(-0.29576 5.56204 2.88442)
(0.38345 5.62591 3.34798)
(-2.14296 4.0127 0.196874)
(-0.561524 2.42695 2.39416)
(-0.284303 2.44783 3.43758)
(-0.180415 2.75198 2.52858)
(0.358588 1.04356 0.486771)
(2.35787 1.63343 0.380412)
(0.744661 1.0145 2.14079)
(0.0986481 1.5244 1.54954)
(-0.510448 1.54997 1.62345)
(2.08516 0.655639 -0.241376)
(3.75116 1.42255 -1.67952)
(2.2225 1.74471 -2.19383)
(0.802423 1.61481 -0.820159)
(0.0139646 1.60574 -0.621795)
(-0.721402 1.36649 -0.0886728)
(2.79105 0.532919 0.0374341)
(2.37453 0.793941 -1.80945)
(2.27271 0.722087 -2.84171)
(1.91723 0.632539 -2.27178)
(0.586223 0.747214 -1.70253)
(-0.272328 0.962546 -1.25591)
(0.409402 0.69234 -0.905137)
(-2.05146 2.53999 0.0447447)
(-2.41468 3.1177 0.436483)
(-0.832723 3.75054 0.422911)
(-2.25743 3.05585 0.919597)
(-2.69504 4.5331 -0.256489)
(-1.3598 4.88022 1.43801)
(-3.17614 3.79328 -1.23257)
(-1.07402 5.45519 2.95338)
(0.021438 5.52408 3.26114)
(0.572367 5.06991 3.2075)
(-2.15319 4.04044 0.589463)
(-0.753263 2.20679 2.27312)
(-1.19894 2.25701 3.82674)
(-0.499063 2.81921 3.00286)
(-0.882252 2.26408 2.16697)
(0.144037 1.21556 0.516629)
(2.32241 1.79998 0.456712)
(0.676661 1.18743 1.94357)
(0.0992218 1.64496 1.84898)
(-0.594691 1.63915 1.5476)
(-0.750565 1.50707 1.58677)
(1.83145 0.734354 -0.319576)
(3.16495 1.31679 -1.636)
(2.04805 1.70805 -2.51514)
(0.674009 1.62485 -0.854774)
(-0.0832295 1.58678 -0.640172)
(-0.728284 1.37734 0.214229)
(-0.584157 0.963915 -0.175631)
(2.82536 0.60157 0.0309947)
(2.16805 0.764123 -1.61767)
(1.99588 0.637085 -2.83065)
(1.64963 0.564042 -2.54095)
(0.440237 0.716442 -1.77995)
(-0.361269 0.931277 -1.23667)
(0.355759 0.697184 -0.923326)
(0.0738821 0.571053 -0.719795)
(-2.36643 2.08781 -0.153709)
(-2.28442 2.30718 0.417707)
(-2.07035 2.93141 0.10207)
(-2.52213 2.87718 0.178904)
(-1.50338 3.55022 0.60357)
(-1.44627 3.85617 0.517991)
(-2.46838 2.79704 0.991764)
(-2.99385 4.40299 -0.325262)
(-1.21816 4.83571 1.64099)
(-0.940926 4.82888 1.84537)
(-2.05271 3.82008 -1.57199)
(-1.13936 5.09981 3.2054)
(-0.0667481 5.4054 3.39426)
(0.071197 5.10148 3.2779)
(0.225421 4.42792 3.00776)
(-2.2397 3.78776 0.76865)
(0.108591 2.15705 1.99826)
(-1.49895 2.1144 3.94684)
(-0.946224 2.90528 3.64987)
(-1.023 2.27373 2.60312)
(-0.750441 1.75376 1.28042)
(-0.0103349 1.33535 0.780173)
(2.38305 2.00742 0.0249043)
(0.706393 1.38496 1.65135)
(-0.532491 1.71839 1.97643)
(-0.678538 1.61804 1.6817)
(-0.869114 1.59929 1.64011)
(-0.714882 1.37545 0.627497)
(1.43771 0.809141 -0.174211)
(2.46185 1.1937 -1.65332)
(1.81789 1.742 -2.67894)
(0.576483 1.62889 -0.884801)
(-0.141772 1.58239 -0.6454)
(-0.819931 1.37177 0.0853555)
(-0.603003 0.993204 -0.192048)
(0.0925839 0.897361 0.219605)
(2.83115 0.701839 0.0208213)
(2.02379 0.744798 -1.40808)
(1.79417 0.597228 -2.68799)
(1.34275 0.462081 -2.73779)
(0.283275 0.664111 -1.85072)
(-0.414138 0.91658 -1.22358)
(0.283726 0.706777 -0.943204)
(0.0783193 0.569641 -0.724366)
(0.292518 0.415496 -0.611317)
(-1.78889 2.07446 0.196698)
(-2.25387 2.27417 -0.336656)
(-1.17918 3.11972 0.100985)
(-2.27815 2.34878 0.438751)
(-2.42028 2.6962 0.111471)
(-1.11025 3.37396 0.517399)
(-2.63648 2.64072 0.0217365)
(-1.60472 3.63444 0.607139)
(-0.96432 4.04879 0.6222)
(-1.07991 4.24071 0.286467)
(-2.39427 2.82716 0.772863)
(-2.87912 4.36614 -0.119331)
(-1.13256 4.67125 1.80294)
(-1.09557 4.93835 1.78276)
(-0.847813 4.78952 2.19874)
(-1.29302 3.82542 -1.08477)
(-0.881344 4.62063 3.41124)
(-0.300013 5.19238 3.66051)
(-0.183479 5.11912 3.58419)
(0.37156 4.52719 3.36336)
(-0.0846306 3.61386 2.90737)
(-2.69599 3.2714 0.314744)
(0.447669 2.21121 1.91184)
(-1.1372 1.96157 3.92034)
(-1.78565 2.75978 3.88882)
(-1.1959 2.32417 3.0209)
(-0.899526 1.75575 1.3697)
(-0.458303 1.94221 1.15711)
(0.108577 1.58852 0.691888)
(2.12122 1.9119 -0.0267245)
(0.609334 1.47584 1.35172)
(-0.660378 1.75591 2.09827)
(-0.859252 1.77782 1.69754)
(-0.983075 1.8833 1.19181)
(-0.76502 1.42506 0.642026)
(0.0806305 1.57789 -0.233562)
(1.26484 0.869489 -0.139042)
(1.9573 1.05539 -1.58759)
(1.69606 1.65402 -2.5269)
(0.499624 1.61215 -0.824994)
(-0.225406 1.59379 -0.610757)
(-0.852667 1.34819 0.00954692)
(-0.597297 1.0395 -0.217781)
(0.0951171 0.895227 0.160566)
(-0.0787814 0.889634 -0.0703571)
(2.86805 0.80177 0.00589952)
(1.93593 0.747602 -1.22594)
(1.70508 0.573152 -2.48778)
(1.02221 0.337129 -2.85282)
(0.126728 0.59223 -1.90996)
(-0.447336 0.913466 -1.21656)
(0.222289 0.705788 -0.966372)
(0.0946086 0.571055 -0.724106)
(0.283134 0.420871 -0.627963)
(0.338612 0.380154 -0.81087)
(-1.75094 1.93931 0.105486)
(-1.89035 2.00366 0.180125)
(-1.49685 2.74116 0.173098)
(-2.31604 2.17477 -0.31555)
(-1.84782 2.77174 0.136136)
(-0.81784 3.13192 0.0924801)
(-2.59594 1.92793 0.802868)
(-2.38452 2.74131 0.0639797)
(-1.14529 3.28488 0.642061)
(-0.815027 3.51965 0.448462)
(-2.64044 2.57486 -0.124133)
(-1.69314 3.60327 0.546687)
(-1.97573 3.7897 0.561848)
(-1.29346 4.21067 0.297819)
(-0.933959 4.47706 0.609951)
(-2.55483 2.77471 0.710947)
(-2.60036 4.4319 0.27307)
(-1.29058 4.73108 1.45303)
(-1.5376 4.95045 1.54797)
(-0.00675697 4.89615 2.3977)
(-0.113149 4.39267 2.8952)
(-1.21382 3.65595 -0.387412)
(-0.935505 4.34947 2.993)
(-0.223065 4.99911 3.7217)
(-0.380194 4.97091 4.10784)
(-0.0228096 4.31701 4.00385)
(-0.00500271 3.63467 2.97148)
(-0.753111 3.35639 2.52502)
(-2.86419 3.02078 0.182909)
(0.899734 2.23791 1.57837)
(-0.336442 2.07029 3.805)
(-1.90788 2.62995 3.91191)
(-1.51605 2.35462 3.22048)
(-0.965319 1.79452 1.60635)
(-0.406493 1.99131 0.894289)
(-0.285486 2.41446 1.37029)
(0.0817472 1.81301 0.623375)
(1.76516 1.81972 -0.388045)
(0.264351 1.34359 1.1942)
(-0.95079 1.96768 1.79144)
(-1.03834 1.80718 1.86139)
(-1.00215 1.4154 1.97965)
(-0.822396 1.59039 0.521089)
(0.00158034 1.64618 -0.124433)
(0.281558 1.88903 -0.213473)
(1.17791 1.00616 -0.141357)
(1.62417 0.973552 -1.53985)
(1.53395 1.59905 -2.29311)
(0.330308 1.54717 -0.765926)
(-0.324608 1.57629 -0.629581)
(-0.861438 1.35985 -0.054585)
(-0.536836 1.08357 -0.277881)
(0.0909436 0.89658 0.10801)
(-0.0685652 0.892068 -0.0947029)
(-0.277618 1.01963 0.0123445)
(2.9184 0.836594 -0.000723647)
(1.89993 0.787203 -1.09454)
(1.66789 0.577462 -2.296)
(0.739791 0.203681 -2.87882)
(-0.0191027 0.505317 -1.95771)
(-0.471165 0.894572 -1.18683)
(0.175344 0.701512 -0.968935)
(0.0905922 0.559636 -0.73843)
(0.2745 0.423311 -0.629911)
(0.345102 0.389645 -0.808876)
(0.0805444 0.165039 -0.874179)
(-1.54256 1.84666 -0.0512945)
(-1.98637 1.73543 0.0183444)
(-1.41533 2.21417 0.0385156)
(-1.974 1.89759 0.173155)
(-1.71795 2.60478 -0.173385)
(-1.06548 2.84609 0.329785)
(-2.2518 2.20323 -0.343734)
(-1.9049 2.68486 0.230984)
(-1.26466 2.92841 0.269223)
(-0.693527 3.28861 0.377366)
(-2.9402 1.66649 0.513696)
(-2.42733 2.7045 0.139865)
(-0.974717 3.41435 0.770247)
(-1.38387 3.41462 0.199778)
(-0.389943 3.81884 0.232491)
(-2.52971 2.67592 -0.115574)
(-2.09132 3.32947 0.835024)
(-0.925436 4.18476 0.517281)
(-1.5075 4.36878 -0.196456)
(-0.735613 4.3984 0.708741)
(-0.222078 4.47756 0.743934)
(-2.85117 2.79832 0.460509)
(-2.41681 4.69193 0.532552)
(-1.6045 4.52462 1.07243)
(-1.28379 4.94754 1.68985)
(-0.59336 4.72305 2.82895)
(-0.270731 4.27187 3.01552)
(-0.120492 4.31545 3.07179)
(-1.64948 3.2417 0.0261338)
(-2.31321 3.59515 2.20334)
(-1.25466 4.47916 3.5567)
(-0.747606 4.68981 4.32496)
(-0.485831 4.27069 4.21795)
(-0.152685 3.62079 3.02638)
(-0.811209 3.31695 2.47507)
(-0.677453 3.5042 2.50939)
(-2.92826 2.84717 0.234478)
(0.758034 2.24534 1.48419)
(0.265745 2.09564 3.67986)
(-1.85638 2.6747 3.86798)
(-1.53214 2.41927 3.15775)
(-1.00896 1.941 1.78599)
(-0.427724 2.00729 0.765584)
(-0.180145 2.49637 0.921968)
(-0.0931331 3.11605 1.0922)
(-0.318135 1.87907 0.387581)
(1.19314 1.59423 -0.404575)
(-0.138588 1.09739 0.960417)
(-0.966738 1.97595 1.75356)
(-1.35692 1.81341 1.73609)
(-1.13192 2.07121 1.34494)
(-0.81186 1.64544 0.570636)
(-0.14497 1.69367 0.0215943)
(0.163785 1.91236 -0.315462)
(0.378501 2.15446 -0.645436)
(1.15245 1.1859 -0.165379)
(1.36972 0.947399 -1.50292)
(1.4004 1.60657 -2.02071)
(0.22062 1.45204 -0.874441)
(-0.352598 1.58097 -0.675759)
(-0.848522 1.3727 -0.131286)
(-0.481106 1.11306 -0.340944)
(0.0827248 0.902637 0.0840861)
(-0.0667929 0.881647 -0.132231)
(-0.347152 0.993848 0.0828742)
(0.175188 1.02412 -0.178679)
(2.89028 0.878026 -0.00913174)
(1.88542 0.844575 -1.04138)
(1.64505 0.582627 -2.13555)
(0.588835 0.110798 -2.80855)
(-0.150935 0.406393 -1.9948)
(-0.456437 0.871649 -1.20126)
(0.120465 0.690756 -0.946489)
(0.0854321 0.556737 -0.737476)
(0.237682 0.428937 -0.608016)
(0.343391 0.407692 -0.812012)
(0.0935384 0.165215 -0.847466)
(-0.173268 0.0832208 -0.834902)
(-1.74969 1.599 -0.00237177)
(-1.59173 1.83677 -0.0620354)
(-1.55413 2.06332 0.109547)
(-1.42664 1.88834 0.0613753)
(-2.05839 1.62868 0.0182433)
(-1.44173 2.23856 0.088603)
(-1.12823 2.49383 0.259123)
(-2.06674 1.81312 0.169994)
(-2.00463 2.37797 -0.276443)
(-1.25024 2.85407 0.214898)
(-0.872366 2.81437 0.422744)
(-2.36679 2.04574 -0.251676)
(-1.8583 2.56689 0.284816)
(-1.14795 3.03655 0.0385728)
(-0.843105 3.19534 0.413558)
(-0.708932 3.22463 0.43295)
(-3.04739 1.49107 0.380037)
(-2.48139 2.62887 0.113154)
(-1.37418 3.28125 0.718126)
(-1.3974 3.45518 0.32124)
(-0.963493 3.55427 0.324918)
(-0.612585 3.72307 0.640296)
(-2.54646 2.74683 -0.306041)
(-1.32231 3.85017 0.285327)
(-1.19515 4.12154 0.639416)
(-1.47538 4.37558 0.696644)
(-0.760304 4.48172 0.7103)
(-0.955829 4.34925 0.682657)
(-0.458101 4.35853 1.07719)
(-3.1925 2.70242 0.225126)
(-2.26838 4.75725 0.694145)
(-1.69346 4.49577 0.842688)
(-0.970641 4.94081 1.47268)
(-0.431797 4.73314 2.88786)
(-0.172841 4.36365 2.8204)
(0.0415685 4.33664 2.96967)
(0.011179 4.59354 2.83353)
(-2.20173 2.72868 0.282519)
(-2.9523 3.18648 1.7382)
(-0.92959 4.44438 3.24817)
(-1.11144 4.34893 4.14096)
(-0.491412 4.25142 4.09137)
(-0.416695 3.67904 2.96115)
(-0.779387 3.25471 2.3555)
(-1.07653 3.41693 2.49609)
(-1.059 3.78492 2.92952)
(-2.83367 2.86989 0.288257)
(0.48716 2.10016 1.38546)
(0.369441 2.04136 3.45007)
(-1.82157 2.65865 3.75044)
(-1.7791 2.28574 3.3383)
(-1.13995 2.04468 1.92592)
(-0.467482 2.0228 0.7587)
(-0.295009 2.47443 1.51676)
(-0.0305741 3.06156 0.795374)
(-0.015561 3.00462 1.30249)
(-0.42219 1.88814 0.275295)
(0.653784 1.37243 -0.228832)
(-0.2783 0.874696 0.12991)
(-1.24976 1.97612 1.51837)
(-1.37481 1.85763 1.64989)
(-1.13747 1.99834 1.41606)
(-0.802443 1.71284 0.472895)
(-0.35284 1.68167 0.191078)
(0.161446 1.91394 -0.0939278)
(0.56398 2.12065 -0.54239)
(-0.0382225 2.14259 0.106889)
(1.14507 1.36576 -0.203211)
(1.15498 0.933717 -1.45018)
(1.33551 1.67335 -1.83026)
(0.216252 1.44328 -0.917581)
(-0.374588 1.59978 -0.718)
(-0.826404 1.37287 -0.243773)
(-0.420915 1.1501 -0.408433)
(0.065509 0.914459 0.0476077)
(-0.0666311 0.86672 -0.164314)
(-0.386243 0.944484 0.121951)
(-0.19464 0.999197 0.0211008)
(-0.112923 0.792814 0.283269)
(2.81661 0.976726 -0.0320303)
(1.8975 0.879211 -1.00266)
(1.61131 0.583154 -2.029)
(0.630357 0.123987 -2.69633)
(-0.263449 0.304257 -2.02862)
(-0.447702 0.863958 -1.20218)
(0.0727538 0.673997 -0.90953)
(0.119905 0.555298 -0.727702)
(0.198649 0.423114 -0.581623)
(0.339011 0.43209 -0.811803)
(0.0893076 0.17099 -0.820818)
(-0.182079 0.0812344 -0.831143)
(-0.127781 0.0319336 -0.958433)
(-1.52995 1.68388 0.00689902)
(-1.65435 1.63493 0.0588654)
(-1.47549 2.04292 0.170421)
(-1.68654 1.67462 0.0206366)
(-1.71901 1.65976 -0.070503)
(-1.6807 1.96374 0.110801)
(-1.29652 2.27733 0.333285)
(-1.22348 2.36312 0.0656873)
(-2.05878 1.58 -0.0118361)
(-1.41612 2.25545 0.114198)
(-1.29662 2.44757 0.200235)
(-1.09665 2.56178 0.346145)
(-2.20545 1.78533 0.153297)
(-2.20942 2.11878 -0.260713)
(-1.38983 2.72274 0.251953)
(-0.874304 2.84167 0.392314)
(-0.643519 2.8742 0.652127)
(-2.51375 1.81009 -0.208128)
(-1.93936 2.37795 0.174211)
(-1.41 2.96033 0.315004)
(-1.14374 2.97397 0.425729)
(-0.878701 3.21171 0.453298)
(-1.11452 3.22837 0.600738)
(-3.10845 1.36855 0.421444)
(-2.2768 2.77761 0.213231)
(-1.49356 3.30989 0.651155)
(-1.11848 3.54918 0.467064)
(-1.04792 3.58664 0.403459)
(-0.851461 3.79208 0.701328)
(-0.60714 3.86758 0.880807)
(-2.73663 2.67285 -0.366036)
(-2.10982 3.31998 1.00601)
(-2.3969 3.78257 0.528704)
(-1.55112 4.38597 0.389582)
(-1.02467 4.50856 0.575228)
(-0.315622 4.55497 0.77706)
(-0.527704 4.37338 1.09956)
(0.0181411 4.31152 1.31739)
(-3.67353 2.29465 0.119091)
(-2.62937 4.28496 0.974748)
(-2.04373 4.46795 0.848507)
(-1.68733 4.55045 1.55093)
(-0.426415 4.69595 2.458)
(-0.223492 4.43196 2.50756)
(-0.425298 4.19043 2.92201)
(0.229377 4.47454 2.9513)
(0.111118 4.52971 2.86104)
(-2.00991 2.66326 0.439089)
(-2.82339 3.16058 1.7334)
(-1.64544 4.12366 3.06193)
(-1.10984 4.30314 3.58148)
(-0.723506 4.28164 3.58945)
(-0.330181 3.81452 2.62702)
(-0.794953 3.24677 2.18827)
(-1.0537 3.2461 2.53134)
(-0.684094 3.77693 2.86776)
(-0.054485 4.23433 2.43657)
(-2.20012 3.16855 0.693399)
(0.256677 1.897 1.2843)
(0.175128 1.84147 2.98025)
(-1.6759 2.61621 3.52915)
(-1.65389 2.52343 3.27869)
(-1.33347 2.04086 2.08167)
(-0.478088 2.09862 0.704454)
(-0.214414 2.8682 0.726215)
(-0.0151052 3.02958 0.734017)
(-0.157195 3.11416 1.07416)
(-0.125734 3.07139 1.12367)
(-0.879782 1.7255 0.370321)
(0.241799 1.2057 -0.16459)
(-0.244448 0.840507 -0.249716)
(-1.36773 1.96973 1.2772)
(-1.46394 1.95045 1.42213)
(-1.18293 2.09013 1.11907)
(-0.842665 1.77092 0.408371)
(-0.521384 1.63845 0.285784)
(-0.0403959 1.90409 0.206514)
(0.518706 2.08849 -0.423408)
(-0.0874296 2.0912 0.133558)
(0.225401 1.85642 0.177285)
(0.890291 1.42146 -0.185252)
(0.958114 0.933393 -1.42371)
(1.33637 1.71138 -1.70585)
(0.175034 1.41645 -0.95586)
(-0.413262 1.58238 -0.794603)
(-0.809353 1.38068 -0.339007)
(-0.339229 1.19555 -0.483375)
(0.0498404 0.93034 -0.00266487)
(-0.0794138 0.875514 -0.184449)
(-0.349764 0.910089 0.0521134)
(-0.317281 0.94867 0.104329)
(-0.20285 0.740263 0.364818)
(-0.439978 0.82819 0.538877)
(2.82631 0.969706 -0.0481157)
(1.8723 0.947115 -0.961609)
(1.64996 0.633625 -1.90414)
(0.756313 0.195287 -2.57083)
(-0.339912 0.209124 -2.08438)
(-0.461655 0.847941 -1.14975)
(0.0212614 0.643422 -0.877554)
(0.142016 0.55563 -0.729375)
(0.192789 0.419076 -0.577529)
(0.343978 0.441497 -0.813881)
(0.090316 0.176909 -0.797841)
(-0.180455 0.081703 -0.821021)
(-0.13175 0.039274 -0.936387)
(0.187308 -0.593216 -0.642693)
(-1.46546 1.54915 -0.0934177)
(-1.59689 1.57485 0.00334413)
(-1.37873 2.11703 0.0695333)
(-1.37035 1.81087 -0.0151474)
(-1.86367 1.31798 0.0721522)
(-1.58011 1.97478 0.138756)
(-1.16193 2.30581 0.206714)
(-0.740942 2.44484 0.061441)
(-1.67955 1.71275 -0.0605776)
(-1.63404 1.97013 0.084742)
(-1.26784 2.30658 0.325884)
(-0.852664 2.49042 0.423324)
(-0.856962 2.49726 0.222412)
(-2.177 1.36344 -0.00893923)
(-1.58106 2.05472 0.0976281)
(-1.41486 2.38219 0.150075)
(-1.17512 2.52606 0.337108)
(-0.879897 2.60071 0.54964)
(-2.44167 1.54781 0.0987253)
(-2.18767 2.12471 -0.0442203)
(-1.32578 2.65217 0.209267)
(-1.25228 2.73075 0.348246)
(-0.832866 2.80039 0.655118)
(-0.926052 2.84556 0.727412)
(-2.48487 1.85139 -0.092419)
(-1.90472 2.35588 0.0768603)
(-1.39717 2.99411 0.261472)
(-1.26337 2.94277 0.403339)
(-0.963238 3.18363 0.469873)
(-1.08457 3.29685 0.562219)
(-0.702967 3.44581 0.742677)
(-3.25205 1.19695 0.380981)
(-2.29239 2.7672 0.0921885)
(-1.59298 3.24482 0.624116)
(-1.51351 3.40087 0.51695)
(-1.0154 3.68893 0.572939)
(-1.18862 3.73961 0.585942)
(-1.18678 3.79018 0.758977)
(-0.491569 3.94555 0.962144)
(-2.78317 2.64072 -0.352814)
(-2.56796 3.17621 1.0467)
(-1.11297 4.35291 0.512044)
(-1.7868 4.49713 0.429362)
(-1.5669 4.3482 0.549529)
(-1.26711 4.45305 0.838)
(-0.954725 4.45924 1.11066)
(-0.314948 4.367 1.37585)
(0.273375 4.37558 1.48718)
(-4.05399 1.84697 0.13342)
(-2.53914 4.25338 1.14217)
(-2.13276 4.42001 0.812011)
(-1.58173 4.60582 1.1829)
(-1.33144 4.54932 1.59508)
(-0.622541 4.50479 2.05685)
(-0.615635 4.28112 2.57106)
(-0.205256 4.32762 2.9745)
(-0.0345089 4.59136 2.7663)
(0.493176 4.78772 2.03219)
(-1.67877 2.78732 0.620964)
(-2.1743 3.34319 2.15528)
(-2.14838 3.80429 2.97773)
(-1.54427 4.00826 3.18904)
(-0.885703 4.29996 3.09009)
(-0.271529 3.90093 2.48304)
(-0.757661 3.28482 2.07966)
(-0.993213 3.16611 2.43833)
(-0.894589 3.72469 2.68193)
(-0.353277 4.20752 2.46075)
(0.428175 4.17784 2.1302)
(-1.41265 3.39653 1.31788)
(0.30684 1.70895 1.06002)
(-0.0512709 1.52452 2.46532)
(-1.43277 2.58943 3.28213)
(-1.58066 2.48306 3.21329)
(-1.36467 2.17011 2.01154)
(-0.493564 2.22302 0.538099)
(-0.154493 2.80858 0.581431)
(-0.0753756 3.2189 0.714078)
(-0.322183 3.14969 0.682389)
(-0.37663 3.03962 1.00544)
(0.317089 2.92771 0.829752)
(-1.10221 1.49129 0.477764)
(0.0776368 1.14439 -0.256669)
(-0.125339 0.981342 -0.690626)
(-1.4274 1.88788 1.01192)
(-1.51521 1.97087 1.28144)
(-1.28591 2.12769 1.17679)
(-0.861707 1.78965 0.336506)
(-0.702514 1.57529 0.36473)
(-0.660046 1.75228 -0.0288122)
(0.0735768 2.03488 -0.326627)
(0.285779 2.04594 -0.185783)
(0.268859 1.79911 0.198395)
(0.257344 1.475 0.267725)
(0.617132 1.44813 -0.216325)
(0.859529 0.996277 -1.37598)
(1.24866 1.68556 -1.57905)
(0.144671 1.40091 -0.981112)
(-0.439108 1.5648 -0.870711)
(-0.781918 1.39864 -0.444372)
(-0.238833 1.24526 -0.568712)
(0.0339035 0.950608 -0.0745933)
(-0.111253 0.900999 -0.207435)
(-0.31313 0.901095 -0.0170637)
(-0.318805 0.894219 0.129797)
(-0.278103 0.660906 0.459107)
(-0.495361 0.821218 0.691816)
(0.430358 0.396015 -0.350573)
(2.8088 1.01205 -0.0505971)
(1.85141 1.05803 -0.905829)
(1.65597 0.651574 -1.82996)
(0.80947 0.254996 -2.45062)
(-0.332298 0.163143 -2.18319)
(-0.442505 0.826176 -1.11132)
(-0.0392839 0.60744 -0.837925)
(0.177115 0.567328 -0.719949)
(0.190869 0.422911 -0.578531)
(0.346362 0.457848 -0.816347)
(0.108102 0.186488 -0.790304)
(-0.166296 0.0869646 -0.786552)
(-0.130201 0.04292 -0.941389)
(0.223657 -0.606809 -0.702969)
(0.578661 -0.767525 -0.109946)
(-1.13957 1.55749 -0.041834)
(-1.45306 1.54404 -0.0653471)
(-1.16964 2.01698 -0.0357843)
(-1.16981 1.79024 -0.0172635)
(-1.62371 1.46882 0.0575279)
(-1.36429 2.07724 0.0715676)
(-1.03878 2.32476 0.0378729)
(-1.44867 2.04783 0.039633)
(-1.69402 1.46746 0.115896)
(-1.66981 1.81103 0.153496)
(-1.15585 2.27457 0.197003)
(-0.900496 2.45752 0.19767)
(-1.09692 2.33445 0.156645)
(-1.97195 1.37089 -0.037164)
(-1.8436 1.79405 0.108816)
(-1.57712 2.04721 0.289104)
(-1.10291 2.37523 0.365126)
(-0.855487 2.45421 0.404661)
(-0.730883 2.55467 0.404614)
(-2.23628 1.31322 0.0130093)
(-1.73724 1.93953 0.117783)
(-1.40347 2.36747 0.130011)
(-1.37623 2.45171 0.309071)
(-1.12983 2.54655 0.509027)
(-0.764438 2.64745 0.688755)
(-2.39874 1.61888 0.0404185)
(-2.28403 2.00464 0.00114111)
(-1.48328 2.48324 0.190778)
(-1.38625 2.66598 0.344687)
(-0.854672 2.84857 0.577192)
(-1.07194 2.74863 0.77264)
(-0.651569 2.95246 0.614142)
(-2.63667 1.56346 -0.16004)
(-2.19035 2.18087 -0.0343405)
(-1.42458 2.94396 0.304588)
(-1.37306 2.97528 0.456896)
(-1.10848 3.10631 0.517727)
(-1.29421 3.18116 0.532839)
(-0.952096 3.29224 0.69265)
(-0.49359 3.44587 0.880298)
(-3.36336 1.07934 0.33702)
(-1.99205 3.09202 0.119804)
(-1.28963 3.28167 0.594852)
(-1.4839 3.46956 0.469798)
(-1.63099 3.48935 0.674352)
(-1.37032 3.75272 0.544545)
(-1.05861 3.86113 0.85136)
(-0.77126 3.99625 1.04907)
(-0.320698 4.02115 1.10031)
(-2.89309 2.53816 -0.36027)
(-2.84487 2.94657 0.979158)
(-1.46417 4.28286 0.320967)
(-2.0411 4.41125 0.501703)
(-1.2906 4.75206 0.712147)
(-1.70881 4.4412 0.815712)
(-1.27359 4.41249 1.11904)
(-0.901634 4.4447 1.26658)
(-0.220514 4.37433 1.44454)
(0.515096 4.33639 1.5705)
(-4.12578 1.67658 0.175915)
(-2.65764 4.15337 1.32276)
(-2.53691 4.07366 0.940414)
(-1.88779 4.4884 1.01342)
(-1.60577 4.5216 1.35211)
(-0.915548 4.56985 1.89228)
(-0.891385 4.23266 2.33202)
(-0.626412 4.37919 2.67277)
(-0.142972 4.75921 2.48781)
(0.347117 4.92312 1.93118)
(0.386922 4.8437 1.72263)
(-1.44339 2.95264 0.815538)
(-1.67506 3.54351 2.23086)
(-2.05233 3.87926 2.85021)
(-1.95818 3.79777 2.84272)
(-1.56285 4.02707 2.81517)
(-0.251396 4.01965 2.47769)
(-0.744984 3.26722 2.12148)
(-0.979223 3.24921 2.08083)
(-1.14027 3.82645 2.16366)
(-0.324971 4.32489 2.27898)
(-0.631472 4.03533 2.24869)
(-0.167368 3.54808 1.93705)
(-1.0761 3.3329 1.43787)
(0.426681 1.67481 0.73529)
(-0.254724 1.18354 1.95718)
(-1.36669 2.67143 2.91305)
(-1.56933 2.54421 3.0875)
(-1.30336 2.31612 1.96274)
(-0.348983 2.43517 0.230197)
(-0.0880942 2.87121 0.327216)
(-0.21344 3.40477 0.480468)
(-0.350127 3.15201 0.372426)
(-0.37553 3.12053 0.810261)
(0.308137 2.93777 0.943699)
(0.448493 2.89782 0.777557)
(-1.1108 1.39044 0.520975)
(-0.020175 1.22708 -0.357628)
(0.103389 1.20932 -1.04059)
(-1.55996 1.69892 0.774153)
(-1.52463 1.99413 1.02627)
(-1.29925 2.31797 0.782467)
(-0.770798 1.82782 0.232573)
(-0.760326 1.51693 0.384899)
(-0.895486 1.60611 -0.125741)
(-0.35167 1.92381 -0.0413081)
(0.271962 1.99612 -0.18331)
(0.238177 1.73437 0.379509)
(0.146348 1.44634 0.245883)
(0.0462521 1.41603 -0.00286434)
(0.486744 1.4877 -0.266011)
(0.78475 1.07599 -1.35316)
(1.02231 1.5386 -1.57353)
(0.0739098 1.3968 -1.03645)
(-0.434007 1.55963 -0.942113)
(-0.73397 1.418 -0.557591)
(-0.144989 1.28943 -0.674456)
(0.0233428 0.962933 -0.173017)
(-0.139743 0.927745 -0.223672)
(-0.308244 0.914466 -0.0397642)
(-0.214622 0.864112 0.0908102)
(-0.257446 0.605851 0.480022)
(-0.489635 0.834747 0.75069)
(0.463259 0.4318 -0.362523)
(0.130459 -0.366664 0.0398902)
(2.76316 1.08834 -0.0472946)
(1.88359 1.05791 -0.899392)
(1.6671 0.688989 -1.75249)
(0.889686 0.314649 -2.29122)
(-0.245796 0.187937 -2.29228)
(-0.421375 0.819963 -1.12442)
(-0.00891625 0.605712 -0.77775)
(0.220184 0.582586 -0.706357)
(0.191133 0.427508 -0.578462)
(0.350781 0.475991 -0.820384)
(0.122162 0.192484 -0.793694)
(-0.167851 0.088226 -0.736875)
(-0.124409 0.0496331 -0.958209)
(0.235685 -0.633286 -0.738914)
(0.582952 -0.753381 -0.106167)
(0.31777 -0.404287 -0.17219)
(-1.12945 1.38843 -0.0114866)
(-1.24333 1.46851 -0.0199335)
(-1.06568 1.8114 -0.0486755)
(-0.940983 1.66046 -0.0470619)
(-1.4661 1.46776 -0.00966226)
(-1.31968 1.91194 -0.0922285)
(-0.925839 2.18968 -0.0386428)
(-0.876429 2.17288 -0.0394594)
(-1.07868 1.87409 0.0213401)
(-1.87825 1.11252 0.0328456)
(-1.64484 1.79891 0.107966)
(-1.17845 2.27201 0.093638)
(-0.676611 2.44375 0.0208587)
(-0.843859 2.38299 0.0449689)
(-1.81142 1.32179 0.0848347)
(-1.57091 1.83841 0.0934)
(-1.44683 2.03899 0.169078)
(-0.998229 2.39919 0.249599)
(-0.879446 2.42547 0.337653)
(-0.798296 2.46918 0.207286)
(-2.09983 1.26944 -0.0683435)
(-2.11436 1.52649 0.107628)
(-1.02476 2.3133 0.355639)
(-1.32689 2.24638 0.333151)
(-1.03941 2.3864 0.396324)
(-0.686052 2.55276 0.533329)
(-0.607232 2.57091 0.383509)
(-2.31698 1.22463 0.0468056)
(-1.82771 2.00639 -0.0304572)
(-1.51842 2.18703 0.172618)
(-1.43749 2.41147 0.322679)
(-1.17556 2.53432 0.495845)
(-0.930172 2.55827 0.701114)
(-0.771767 2.74335 0.552762)
(-2.48809 1.43262 0.0652454)
(-2.30701 1.96423 -0.00197118)
(-1.53225 2.49213 0.224554)
(-1.43629 2.67006 0.24691)
(-1.05769 2.74924 0.561305)
(-0.979689 2.77547 0.762213)
(-0.830805 2.93251 0.6582)
(-0.533887 3.01423 0.841514)
(-2.79268 1.3426 -0.0258786)
(-2.43738 2.17944 -0.038534)
(-1.57859 2.82059 0.371992)
(-1.36721 2.93929 0.458063)
(-1.2332 3.08174 0.522637)
(-0.969214 3.26975 0.456887)
(-1.19597 3.17753 0.636075)
(-0.804531 3.36504 0.762908)
(-0.484148 3.54558 0.930403)
(-3.48086 1.01514 0.279988)
(-2.69211 2.56308 0.153375)
(-1.81009 3.1334 0.428659)
(-1.40433 3.60808 0.576544)
(-1.67719 3.63607 0.576345)
(-1.55126 3.6799 0.516656)
(-1.18264 3.81951 0.857655)
(-0.790442 4.00387 1.07912)
(-0.52771 4.10838 1.18878)
(0.0614319 4.02984 1.46378)
(-3.16548 2.30219 -0.332027)
(-3.12923 2.76778 0.670399)
(-1.90524 4.24601 0.180212)
(-1.92624 4.45602 0.405806)
(-2.34618 4.45212 0.47191)
(-1.61937 4.59587 0.814017)
(-1.54704 4.35138 1.12599)
(-1.1502 4.3772 1.22093)
(-0.250615 4.50346 1.43415)
(0.0987562 4.36818 1.49907)
(0.384066 4.44119 1.55617)
(-4.11512 1.56115 0.273975)
(-2.82704 4.14748 1.4817)
(-1.95268 4.40188 1.10792)
(-2.338 4.2766 1.01975)
(-1.92091 4.50671 0.977927)
(-1.54138 4.51152 1.61516)
(-1.07912 4.29083 1.84307)
(-0.984109 4.31121 2.36462)
(-0.176974 4.75709 2.34518)
(0.110511 4.95669 1.88392)
(0.0860927 4.83543 1.62724)
(0.604843 4.53407 1.67914)
(-1.66956 2.82783 0.736641)
(-1.66518 3.59037 2.08732)
(-2.06595 3.70242 2.91759)
(-2.29619 3.532 2.86932)
(-1.78999 3.83099 2.74598)
(-0.893178 3.77826 2.80811)
(-0.815111 3.28896 2.04331)
(-1.07645 3.19112 2.07313)
(-1.46392 3.40414 2.50006)
(-0.863531 4.05164 2.49138)
(-0.753229 3.95114 2.32914)
(-0.401098 3.51616 2.056)
(0.434745 3.18236 1.95805)
(-0.878872 3.1846 1.43645)
(0.179929 1.58363 0.41167)
(-0.709045 0.869997 1.32918)
(-1.18194 2.68725 2.53919)
(-1.26584 2.82288 2.83458)
(-1.24455 2.62585 1.69127)
(-0.204854 2.73989 -0.121118)
(0.112399 3.05149 -0.392944)
(0.149306 3.47313 -0.0739783)
(-0.485263 3.26427 0.349712)
(-0.516403 3.13403 0.180678)
(-0.117106 3.02614 0.831956)
(0.193836 2.83546 0.920928)
(0.207248 2.69504 0.755457)
(-1.06898 1.43234 0.506682)
(-0.109298 1.36561 -0.520752)
(0.137879 1.415 -1.17263)
(-1.66105 1.5412 0.68836)
(-1.43305 2.07255 0.108885)
(-1.2702 2.38083 0.551252)
(-0.702551 1.86511 0.165538)
(-0.524178 1.51483 0.175736)
(-0.960539 1.49201 -0.129933)
(-0.817921 1.70829 0.128444)
(-0.134841 1.83987 -0.149323)
(-0.132411 1.57757 0.55273)
(0.020653 1.39458 0.300709)
(0.0861883 1.43693 0.0146542)
(0.143156 1.67215 -0.0139392)
(0.305441 1.58134 -0.377344)
(0.744938 1.17525 -1.32584)
(0.804245 1.30641 -1.64352)
(0.0118928 1.41046 -1.10865)
(-0.445446 1.53321 -1.05197)
(-0.69443 1.42737 -0.681116)
(-0.0715091 1.31538 -0.806587)
(0.0249538 0.959363 -0.286306)
(-0.153446 0.9545 -0.233584)
(-0.302972 0.940025 -0.0704012)
(-0.181452 0.867927 0.069967)
(-0.185617 0.588083 0.437228)
(-0.472059 0.847144 0.740474)
(0.487202 0.456321 -0.380307)
(-0.107168 -0.417921 0.091445)
(0.652779 -0.750386 0.358475)
(2.76007 1.09448 -0.0336726)
(1.84477 1.13966 -0.858668)
(1.66207 0.721749 -1.69982)
(0.897055 0.357433 -2.15286)
(-0.118488 0.277618 -2.37454)
(-0.410627 0.796399 -1.11707)
(0.0559586 0.627405 -0.744801)
(0.25671 0.599963 -0.699754)
(0.202217 0.433663 -0.577238)
(0.359663 0.493198 -0.824854)
(0.1283 0.193038 -0.814354)
(-0.176023 0.0809109 -0.696856)
(-0.116711 0.0542048 -0.976743)
(0.261832 -0.649276 -0.755533)
(0.594184 -0.75824 -0.0970607)
(0.348602 -0.409106 -0.179699)
(0.155425 -0.220013 -0.211611)
(-1.05426 1.30217 -0.00516779)
(-1.21879 1.3331 0.015152)
(-1.03618 1.59836 0.0172133)
(-0.962913 1.45393 0.00435162)
(-1.3539 1.31941 -0.023925)
(-1.25712 1.7073 -0.0317429)
(-0.906201 1.92984 0.0395813)
(-0.864382 1.91232 -0.0140317)
(-0.825978 1.71551 -0.0379137)
(-1.59085 1.30484 -0.0838912)
(-1.28125 1.87937 -0.0554759)
(-1.10958 2.10032 0.0101058)
(-0.790575 2.26186 0.0443853)
(-0.674608 2.33028 -0.153734)
(-0.607594 2.34691 -0.107676)
(-1.87093 1.1225 0.0762067)
(-1.67026 1.76414 0.16359)
(-1.36468 2.15049 0.0881696)
(-1.04459 2.26337 0.290009)
(-0.761549 2.47892 0.0671106)
(-0.906564 2.39933 -0.148322)
(-1.94265 1.1545 0.0419186)
(-1.83404 1.57809 0.0996106)
(-1.43432 2.01197 0.181889)
(-1.26742 2.19671 0.274799)
(-1.1468 2.33395 0.382167)
(-0.726228 2.48688 0.357976)
(-0.260731 2.60716 0.234133)
(-2.13583 1.21195 -0.0814803)
(-1.9922 1.72643 0.0382927)
(-1.51433 2.0185 0.322916)
(-1.33746 2.22714 0.327224)
(-1.07161 2.34706 0.467714)
(-0.841527 2.509 0.585664)
(-0.634453 2.6472 0.485769)
(-0.571013 2.58529 0.53278)
(-2.36019 1.15401 0.0883528)
(-2.21818 1.66733 -0.0375331)
(-1.65614 2.09757 0.174564)
(-1.63912 2.22886 0.273189)
(-1.31265 2.43715 0.469884)
(-1.02706 2.52659 0.670687)
(-0.808431 2.75968 0.519499)
(-0.688177 2.83904 0.781119)
(-2.60465 1.28535 0.0347222)
(-2.2565 1.97013 0.101836)
(-1.73038 2.49583 0.167624)
(-1.58749 2.62271 0.346237)