/*--------------------------------*- C++ -*----------------------------------*\
  =========                 |
  \\      /  F ield         | OpenFOAM: The Open Source CFD Toolbox
   \\    /   O peration     | Website:  https://openfoam.org
    \\  /    A nd           | Version:  7
     \\/     M anipulation  |
\*---------------------------------------------------------------------------*/
FoamFile
{
    version     2.0;
    format      ascii;
    class       volVectorField;
    location    "8.5";
    object      U_0;
}
// * * * * * * * * * * * * * * * * * * * * * * * * * * * * * * * * * * * * * //

dimensions      [0 1 -1 0 0 0 0];

internalField   nonuniform List<vector> 
18750
(
(2.61485 0.233061 0.00341275)
(2.65134 0.00991521 0.384662)
(2.54386 0.238272 0.104758)
(2.73174 0.876711 -0.542222)
(0.454869 0.259999 -0.156107)
(2.62811 0.113458 0.302494)
(3.84017 0.881582 0.193859)
(2.45966 0.261541 0.147643)
(2.93734 0.894908 -0.930896)
(2.47688 0.747051 -1.67037)
(-0.683028 4.15815 1.05401)
(0.46263 0.451534 0.0957928)
(1.67056 1.07819 0.728722)
(2.59198 0.248171 0.144046)
(4.2733 1.08747 -0.279101)
(2.3838 1.41477 -1.35569)
(2.50468 0.302983 0.124162)
(2.99355 0.911362 -1.33825)
(2.61416 0.767393 -2.0448)
(2.17826 0.619945 -1.34554)
(-2.60921 4.53108 -0.520433)
(-1.10011 4.12318 0.967986)
(1.75458 2.74558 2.17167)
(0.456324 0.648324 0.286611)
(1.96954 1.22168 0.726931)
(0.68437 0.566499 2.60178)
(2.49185 0.377069 -0.0108025)
(4.45342 1.25848 -0.955315)
(2.56572 1.60083 -1.52465)
(0.959914 1.50166 -0.824594)
(2.61427 0.360425 0.106462)
(2.866 0.894466 -1.70463)
(2.63317 0.787702 -2.40754)
(2.19501 0.645308 -1.63282)
(0.789602 0.75117 -1.57125)
(-2.13134 3.19341 0.600471)
(-2.8958 4.28378 -0.711237)
(0.508403 5.49564 2.67984)
(-1.71026 4.06566 0.329768)
(0.810468 2.73726 2.34707)
(0.197279 2.54047 3.30232)
(0.445532 0.857382 0.393374)
(2.20116 1.58404 0.605546)
(0.760186 0.80814 2.39691)
(0.0567681 1.33405 1.57228)
(2.31237 0.522875 -0.154858)
(4.29922 1.36304 -1.37786)
(2.6334 1.76287 -1.59106)
(0.884071 1.58065 -0.783191)
(0.139486 1.5641 -0.65847)
(2.71029 0.435166 0.0831765)
(2.63825 0.829439 -1.85418)
(2.48916 0.756813 -2.71712)
(2.10396 0.651759 -1.959)
(0.705266 0.755505 -1.63139)
(-0.291064 0.936987 -1.27532)
(-2.22533 3.32362 0.335957)
(-2.27211 3.09265 0.714284)
(-2.5055 4.64783 -0.283148)
(-3.18569 4.11525 -0.855587)
(-0.43487 5.5532 2.92245)
(0.33155 5.63351 3.34946)
(-2.16653 4.00836 0.249116)
(-0.656706 2.39508 2.4179)
(-0.364064 2.44695 3.47585)
(-0.213369 2.75219 2.56161)
(0.364483 1.05057 0.485764)
(2.34798 1.65148 0.375655)
(0.712745 1.02226 2.1628)
(0.0924622 1.52587 1.57785)
(-0.522803 1.54813 1.63075)
(2.07682 0.657541 -0.24288)
(3.7571 1.42988 -1.67489)
(2.21876 1.7321 -2.20221)
(0.785213 1.60827 -0.814726)
(0.0107878 1.60427 -0.609157)
(-0.714978 1.36212 -0.0683552)
(2.78343 0.515029 0.0410077)
(2.36917 0.772717 -1.80585)
(2.25209 0.702397 -2.85163)
(1.91061 0.627512 -2.27277)
(0.577964 0.73991 -1.7107)
(-0.26955 0.965828 -1.25066)
(0.403777 0.690128 -0.905055)
(-2.04266 2.54537 0.0504208)
(-2.41224 3.11315 0.43212)
(-0.840215 3.75413 0.435724)
(-2.25499 3.05314 0.916214)
(-2.6965 4.53691 -0.26521)
(-1.31012 4.90715 1.46904)
(-3.08106 3.79707 -1.30585)
(-1.05725 5.43909 2.9899)
(-0.0235037 5.50465 3.26275)
(0.51997 5.07006 3.21481)
(-2.14127 4.02402 0.626525)
(-0.737669 2.18683 2.28324)
(-1.26645 2.2479 3.85419)
(-0.531683 2.82946 3.06154)
(-0.888725 2.24894 2.21106)
(0.147223 1.22352 0.51362)
(2.3228 1.81136 0.461145)
(0.65093 1.1916 1.95911)
(0.0618498 1.64945 1.89655)
(-0.603271 1.63813 1.55865)
(-0.750387 1.50516 1.59192)
(1.82658 0.733673 -0.325542)
(3.16902 1.32355 -1.62697)
(2.03741 1.70549 -2.5098)
(0.660279 1.61617 -0.856511)
(-0.0841181 1.58601 -0.622929)
(-0.722292 1.37433 0.228066)
(-0.576246 0.964288 -0.17841)
(2.82354 0.581711 0.0314779)
(2.16407 0.742102 -1.60997)
(1.97688 0.618957 -2.82829)
(1.6441 0.559056 -2.54065)
(0.429244 0.708268 -1.78912)
(-0.375722 0.925946 -1.23561)
(0.346212 0.695079 -0.924455)
(0.0766011 0.568669 -0.719943)
(-2.37052 2.08644 -0.147391)
(-2.28448 2.30504 0.43429)
(-2.08072 2.92495 0.10109)
(-2.51325 2.87407 0.165359)
(-1.50817 3.55421 0.604631)
(-1.41233 3.85982 0.545082)
(-2.46582 2.78995 0.974005)
(-2.98225 4.3995 -0.319689)
(-1.14245 4.83234 1.68931)
(-0.916454 4.8438 1.86461)
(-1.87652 3.84806 -1.56257)
(-1.06715 5.0536 3.26175)
(-0.0645499 5.39147 3.40352)
(0.0610025 5.10315 3.31059)
(0.242546 4.41262 3.06307)
(-2.27299 3.72558 0.742537)
(0.169055 2.15369 2.00584)
(-1.49628 2.11873 3.95122)
(-1.02255 2.89619 3.7041)
(-1.03103 2.26196 2.64321)
(-0.744649 1.75366 1.281)
(0.0105988 1.3508 0.785134)
(2.3556 2.01757 0.045608)
(0.685169 1.38743 1.66098)
(-0.582382 1.71829 1.99984)
(-0.693838 1.61854 1.69928)
(-0.876194 1.62262 1.61091)
(-0.708727 1.38504 0.614314)
(1.43545 0.808039 -0.179387)
(2.46575 1.1977 -1.63327)
(1.80627 1.73228 -2.66444)
(0.570758 1.62264 -0.880356)
(-0.144901 1.58294 -0.627682)
(-0.816153 1.37013 0.080251)
(-0.594338 0.994261 -0.195672)
(0.102081 0.892228 0.211178)
(2.81947 0.669134 0.0214362)
(2.02357 0.724033 -1.39925)
(1.78226 0.577936 -2.6795)
(1.33939 0.457952 -2.73578)
(0.270997 0.655207 -1.85993)
(-0.416775 0.91454 -1.22596)
(0.275136 0.70292 -0.946382)
(0.0828935 0.56825 -0.723301)
(0.290594 0.413375 -0.612582)
(-1.79901 2.06711 0.192651)
(-2.24582 2.28032 -0.336887)
(-1.20319 3.10408 0.101417)
(-2.27766 2.3451 0.447292)
(-2.41549 2.69799 0.110921)
(-1.10589 3.36898 0.528236)
(-2.62169 2.64577 0.0090219)
(-1.5901 3.6444 0.601624)
(-0.958814 4.05981 0.62139)
(-1.06485 4.24402 0.285115)
(-2.37779 2.84323 0.753386)
(-2.8213 4.38282 -0.0652046)
(-1.09389 4.68194 1.79227)
(-1.10169 4.94716 1.76658)
(-0.777096 4.79941 2.22471)
(-1.21868 3.82279 -0.994844)
(-0.822378 4.57429 3.40643)
(-0.285999 5.15817 3.69637)
(-0.182188 5.09525 3.67241)
(0.383479 4.49636 3.44436)
(-0.0579216 3.59598 2.92717)
(-2.75044 3.20346 0.248275)
(0.537092 2.20896 1.89605)
(-1.08975 1.97493 3.93322)
(-1.80735 2.763 3.89573)
(-1.21071 2.31569 3.04036)
(-0.889655 1.76135 1.37056)
(-0.437961 1.94724 1.1351)
(0.133897 1.61697 0.679629)
(2.12785 1.91236 -0.0459855)
(0.582178 1.47096 1.362)
(-0.682909 1.75648 2.11419)
(-0.872491 1.78446 1.71472)
(-0.977362 1.87924 1.20509)
(-0.758679 1.43506 0.628818)
(0.0842119 1.58295 -0.231032)
(1.266 0.867013 -0.145785)
(1.95975 1.05786 -1.5759)
(1.67793 1.64712 -2.511)
(0.486548 1.60806 -0.812066)
(-0.227609 1.59512 -0.597284)
(-0.845218 1.34719 0.000507225)
(-0.583951 1.04135 -0.224389)
(0.103887 0.890635 0.149385)
(-0.074519 0.887743 -0.0767197)
(2.8479 0.769216 0.00402323)
(1.94068 0.728936 -1.21859)
(1.69657 0.55622 -2.47898)
(1.02086 0.335014 -2.84839)
(0.113946 0.582795 -1.91877)
(-0.451165 0.915221 -1.20888)
(0.219453 0.702365 -0.966887)
(0.0988103 0.567216 -0.725146)
(0.281404 0.418809 -0.627989)
(0.338675 0.379885 -0.809758)
(-1.75321 1.93708 0.10387)
(-1.88805 2.00478 0.178241)
(-1.49398 2.74289 0.161733)
(-2.31009 2.17586 -0.312725)
(-1.85252 2.76271 0.138914)
(-0.830434 3.12098 0.101976)
(-2.60554 1.91569 0.8085)
(-2.37018 2.74848 0.0619457)
(-1.11917 3.29117 0.647876)
(-0.829391 3.51494 0.431751)
(-2.61308 2.59523 -0.127242)
(-1.71549 3.58741 0.558593)
(-2.00086 3.78918 0.558672)
(-1.28942 4.21626 0.280966)
(-0.905609 4.47478 0.618191)
(-2.56407 2.79242 0.695453)
(-2.55277 4.46383 0.30203)
(-1.27712 4.7282 1.41123)
(-1.50698 4.95489 1.56022)
(0.0427234 4.88891 2.44945)
(-0.0834584 4.37555 2.94683)
(-1.2276 3.61903 -0.319913)
(-1.02966 4.27655 2.90479)
(-0.260455 4.95929 3.71803)
(-0.36003 4.94706 4.16125)
(-0.0635961 4.2807 4.06512)
(-0.00832027 3.62012 2.96704)
(-0.751638 3.35285 2.51946)
(-2.86986 3.00213 0.167946)
(0.939859 2.24456 1.57803)
(-0.284711 2.09253 3.81894)
(-1.90057 2.63543 3.91041)
(-1.50818 2.35989 3.19755)
(-0.948609 1.80806 1.60596)
(-0.390553 1.99854 0.867547)
(-0.255772 2.43315 1.32615)
(0.0654064 1.83161 0.59396)
(1.76317 1.8211 -0.408239)
(0.226341 1.33264 1.20398)
(-0.986394 1.97571 1.77694)
(-1.0676 1.81281 1.86176)
(-1.00288 1.44072 1.96864)
(-0.811357 1.59759 0.510704)
(0.00150331 1.64976 -0.117688)
(0.275852 1.89033 -0.229804)
(1.18052 1.0056 -0.148458)
(1.62558 0.975152 -1.53921)
(1.51862 1.59252 -2.27446)
(0.313842 1.5372 -0.773039)
(-0.324344 1.57895 -0.623095)
(-0.850163 1.36002 -0.0646401)
(-0.521034 1.08422 -0.285718)
(0.0997594 0.892322 0.103137)
(-0.0645606 0.889733 -0.101013)
(-0.283071 1.0186 0.0177316)
(2.9071 0.820171 -0.00370456)
(1.90744 0.770289 -1.09352)
(1.66455 0.563676 -2.28782)
(0.743713 0.203905 -2.8712)
(-0.0323096 0.495114 -1.96565)
(-0.466916 0.892049 -1.18968)
(0.171224 0.698252 -0.964938)
(0.0917732 0.556964 -0.738599)
(0.271023 0.421115 -0.627918)
(0.344716 0.389788 -0.807775)
(0.0815872 0.165589 -0.870451)
(-1.54089 1.8481 -0.052234)
(-1.98731 1.73305 0.0187597)
(-1.4118 2.21644 0.0389179)
(-1.97119 1.89929 0.170969)
(-1.71578 2.60577 -0.175905)
(-1.06723 2.84835 0.323472)
(-2.24762 2.20278 -0.337456)
(-1.89753 2.67963 0.236388)
(-1.25927 2.92693 0.269717)
(-0.686741 3.28781 0.377953)
(-2.94362 1.66583 0.507213)
(-2.41619 2.70795 0.13921)
(-0.949495 3.42128 0.776999)
(-1.39797 3.41467 0.190023)
(-0.364062 3.81839 0.223124)
(-2.50733 2.69821 -0.12601)
(-2.04447 3.36091 0.811706)
(-0.819692 4.22031 0.515801)
(-1.49355 4.37437 -0.139123)
(-0.695472 4.40159 0.715039)
(-0.201453 4.47978 0.744082)
(-2.87414 2.81005 0.4358)
(-2.36665 4.72994 0.550412)
(-1.60728 4.5135 1.00886)
(-1.19232 4.9548 1.7055)
(-0.57478 4.71023 2.86391)
(-0.25701 4.25979 3.03175)
(-0.102 4.3162 3.08479)
(-1.70351 3.17932 0.0638014)
(-2.47403 3.49142 2.09416)
(-1.29416 4.44149 3.5228)
(-0.791102 4.62773 4.34604)
(-0.484792 4.25265 4.21315)
(-0.168433 3.61703 3.0035)
(-0.800093 3.31488 2.45846)
(-0.689428 3.50051 2.50677)
(-2.90935 2.84486 0.227498)
(0.776111 2.24502 1.48309)
(0.274073 2.10853 3.69522)
(-1.84444 2.68993 3.85222)
(-1.51206 2.41546 3.14072)
(-0.992076 1.9568 1.78394)
(-0.411946 2.01549 0.760144)
(-0.160553 2.50346 0.916903)
(-0.0701009 3.12448 1.06592)
(-0.312879 1.88662 0.374409)
(1.18447 1.59153 -0.415955)
(-0.169721 1.08676 0.948031)
(-1.00572 1.97367 1.72675)
(-1.35321 1.81844 1.73842)
(-1.1187 2.08139 1.33704)
(-0.795933 1.65328 0.553671)
(-0.155813 1.69214 0.0349668)
(0.164522 1.91198 -0.319366)
(0.399758 2.1461 -0.65339)
(1.16103 1.1884 -0.173826)
(1.36996 0.946808 -1.50569)
(1.39076 1.60469 -2.00531)
(0.219361 1.45523 -0.874351)
(-0.346567 1.5863 -0.672246)
(-0.834977 1.374 -0.142328)
(-0.464716 1.11326 -0.348714)
(0.0898414 0.899242 0.0777753)
(-0.0631569 0.878223 -0.138952)
(-0.353767 0.988723 0.0900209)
(0.118915 1.02176 -0.146048)
(2.90093 0.853813 -0.0100649)
(1.89471 0.826654 -1.04388)
(1.64898 0.572539 -2.12818)
(0.598408 0.1139 -2.79863)
(-0.163816 0.396002 -2.00161)
(-0.451148 0.872576 -1.20525)
(0.116398 0.686643 -0.939013)
(0.0897602 0.554141 -0.735399)
(0.232661 0.426172 -0.604363)
(0.34258 0.407592 -0.811336)
(0.0943988 0.166789 -0.844309)
(-0.175928 0.0836303 -0.834605)
(-1.74555 1.6001 -0.00168003)
(-1.59039 1.83676 -0.0627665)
(-1.55322 2.06112 0.109511)
(-1.42213 1.89164 0.0607807)
(-2.05738 1.62777 0.0197231)
(-1.43632 2.24201 0.0884123)
(-1.12831 2.49347 0.257125)
(-2.06474 1.81729 0.167562)
(-2.01224 2.36934 -0.280503)
(-1.24626 2.85295 0.212422)
(-0.864998 2.8158 0.421536)
(-2.36828 2.03808 -0.246532)
(-1.85163 2.56282 0.282455)
(-1.13691 3.04138 0.0399447)
(-0.845586 3.1886 0.414313)
(-0.708212 3.22442 0.433229)
(-3.04584 1.49374 0.377502)
(-2.46301 2.64064 0.118582)
(-1.3848 3.28482 0.712748)
(-1.36612 3.46698 0.32986)
(-0.972108 3.55044 0.330533)
(-0.601045 3.73356 0.648943)
(-2.53517 2.76509 -0.321993)
(-1.33682 3.84408 0.314347)
(-1.23533 4.11551 0.639235)
(-1.45963 4.38532 0.679384)
(-0.754237 4.49348 0.703374)
(-0.968065 4.35424 0.685935)
(-0.448003 4.35969 1.07955)
(-3.22217 2.69083 0.210784)
(-2.23139 4.7545 0.724776)
(-1.68083 4.49737 0.828676)
(-0.948265 4.92389 1.46579)
(-0.384582 4.73579 2.86435)
(-0.139208 4.36715 2.78555)
(0.0699509 4.3387 2.95017)
(0.0364846 4.59725 2.83578)
(-2.19198 2.70646 0.298906)
(-2.92898 3.19182 1.74055)
(-0.925836 4.42885 3.22046)
(-1.10303 4.32829 4.07437)
(-0.468325 4.24952 4.02767)
(-0.414473 3.68853 2.91292)
(-0.764319 3.25369 2.32793)
(-1.07521 3.40784 2.49422)
(-1.00792 3.78717 2.93017)
(-2.76931 2.90643 0.302372)
(0.505857 2.08874 1.37036)
(0.356774 2.04729 3.44915)
(-1.80911 2.67264 3.7283)
(-1.75696 2.28969 3.32515)
(-1.12866 2.05713 1.92102)
(-0.452008 2.03609 0.745538)
(-0.272263 2.50475 1.46996)
(-0.00986396 3.07141 0.766987)
(0.00181706 2.99992 1.30049)
(-0.43176 1.89393 0.262702)
(0.646775 1.36964 -0.238805)
(-0.293574 0.872539 0.102483)
(-1.26203 1.98132 1.50478)
(-1.36731 1.87155 1.63551)
(-1.12778 2.01626 1.39734)
(-0.78923 1.71795 0.458768)
(-0.362498 1.67452 0.197856)
(0.15795 1.91147 -0.0563947)
(0.588676 2.11133 -0.523623)
(-0.0300482 2.13552 0.112441)
(1.16188 1.37082 -0.216221)
(1.15225 0.932133 -1.45308)
(1.33281 1.67482 -1.82671)
(0.211121 1.44863 -0.910457)
(-0.369495 1.60278 -0.71879)
(-0.81183 1.37471 -0.252598)
(-0.402456 1.15056 -0.417072)
(0.072186 0.911719 0.0404499)
(-0.0640978 0.864383 -0.168499)
(-0.384874 0.940184 0.119155)
(-0.204419 0.9959 0.0300604)
(-0.114006 0.792017 0.28869)
(2.81418 0.959225 -0.0291062)
(1.90547 0.86105 -1.00552)
(1.62315 0.580764 -2.01791)
(0.634737 0.124323 -2.68798)
(-0.275223 0.293977 -2.03544)
(-0.447048 0.863999 -1.1939)
(0.0699047 0.669283 -0.901748)
(0.124582 0.55255 -0.725912)
(0.196479 0.419631 -0.579635)
(0.338287 0.432264 -0.810783)
(0.0884714 0.172685 -0.817644)
(-0.185027 0.0819681 -0.832322)
(-0.131797 0.034843 -0.955371)
(-1.53138 1.6806 0.00736864)
(-1.6513 1.63505 0.0594322)
(-1.47523 2.04005 0.171104)
(-1.68564 1.67316 0.0214091)
(-1.71738 1.66049 -0.0710728)
(-1.67768 1.9628 0.110142)
(-1.29403 2.27689 0.333648)
(-1.22336 2.35969 0.0654178)
(-2.05853 1.57853 -0.0109172)
(-1.41277 2.25592 0.113184)
(-1.29411 2.44835 0.198258)
(-1.09604 2.56096 0.34428)
(-2.20729 1.78655 0.14887)
(-2.20603 2.1189 -0.253301)
(-1.38333 2.72061 0.251469)
(-0.872955 2.84219 0.392194)
(-0.645516 2.87243 0.651103)
(-2.51135 1.80707 -0.203008)
(-1.9321 2.37667 0.166631)
(-1.40319 2.96398 0.321944)
(-1.14175 2.97079 0.42641)
(-0.874725 3.21464 0.454014)
(-1.11609 3.23139 0.602105)
(-3.10678 1.37523 0.421517)
(-2.25194 2.79546 0.21099)
(-1.48381 3.32066 0.648123)
(-1.11206 3.55393 0.472644)
(-1.03388 3.59995 0.415635)
(-0.867246 3.79814 0.696583)
(-0.625505 3.87215 0.879776)
(-2.73311 2.68481 -0.37197)
(-2.11345 3.32608 1.00932)
(-2.40709 3.79247 0.521045)
(-1.54557 4.40776 0.372949)
(-1.04411 4.5153 0.567937)
(-0.308927 4.57153 0.78557)
(-0.521624 4.38463 1.10239)
(0.0134078 4.31343 1.31996)
(-3.70497 2.26077 0.119593)
(-2.62823 4.24435 1.01077)
(-2.03827 4.4673 0.839221)
(-1.69952 4.53745 1.52436)
(-0.455008 4.69325 2.35014)
(-0.237541 4.44481 2.44601)
(-0.445309 4.19163 2.8936)
(0.261604 4.46227 2.96357)
(0.14561 4.5203 2.87047)
(-1.93185 2.67675 0.468976)
(-2.72279 3.19743 1.7828)
(-1.69664 4.08594 3.04303)
(-1.10769 4.28732 3.49377)
(-0.719034 4.29445 3.48829)
(-0.303861 3.82601 2.57691)
(-0.7767 3.25216 2.16147)
(-1.03002 3.23932 2.52533)
(-0.633361 3.78427 2.84117)
(-0.0587656 4.23778 2.41854)
(-2.01182 3.2401 0.809927)
(0.287464 1.88464 1.25813)
(0.157932 1.84598 2.96646)
(-1.65083 2.63512 3.50258)
(-1.62423 2.52513 3.25925)
(-1.31487 2.05819 2.06033)
(-0.458247 2.11429 0.682392)
(-0.191923 2.87216 0.709807)
(-0.00130445 3.03794 0.721047)
(-0.165453 3.12198 1.03021)
(-0.158844 3.06508 1.0852)
(-0.903182 1.71185 0.378312)
(0.239537 1.20238 -0.185292)
(-0.251691 0.846125 -0.279185)
(-1.37977 1.97451 1.26071)
(-1.45909 1.9599 1.40386)
(-1.17213 2.10425 1.10113)
(-0.831967 1.77436 0.388684)
(-0.528936 1.6308 0.288118)
(-0.069348 1.89649 0.200159)
(0.498157 2.08005 -0.408528)
(-0.0356158 2.0822 0.0974257)
(0.231166 1.8477 0.185931)
(0.892338 1.42365 -0.190974)
(0.956439 0.931546 -1.42569)
(1.33536 1.71212 -1.70713)
(0.168263 1.4205 -0.946719)
(-0.40872 1.58407 -0.796832)
(-0.79505 1.38268 -0.347834)
(-0.317954 1.19635 -0.492758)
(0.0564907 0.928265 -0.0108937)
(-0.0790279 0.875049 -0.188998)
(-0.343645 0.908093 0.0408243)
(-0.319108 0.945442 0.109869)
(-0.212731 0.732314 0.380949)
(-0.445546 0.828071 0.558493)
(2.80912 0.964298 -0.0517359)
(1.88021 0.932777 -0.961555)
(1.65046 0.619548 -1.90639)
(0.750334 0.192178 -2.56644)
(-0.347158 0.201165 -2.09346)
(-0.458993 0.841309 -1.13595)
(0.0178819 0.637672 -0.870368)
(0.147513 0.553671 -0.72709)
(0.192407 0.416509 -0.576898)
(0.343505 0.441229 -0.812713)
(0.0909293 0.178904 -0.79515)
(-0.182775 0.0826533 -0.822468)
(-0.135022 0.0401888 -0.934921)
(0.17918 -0.593338 -0.627605)
(-1.46553 1.54889 -0.0935499)
(-1.59574 1.57362 0.00412055)
(-1.37532 2.11644 0.0703272)
(-1.37373 1.80611 -0.0147215)
(-1.86104 1.31841 0.071848)
(-1.58097 1.97004 0.137637)
(-1.1598 2.30441 0.206751)
(-0.74473 2.44097 0.0632018)
(-1.68267 1.7089 -0.0607012)
(-1.62779 1.9736 0.0838951)
(-1.26655 2.30457 0.325313)
(-0.854491 2.48812 0.421929)
(-0.861086 2.49402 0.225394)
(-2.17588 1.36468 -0.00826958)
(-1.58129 2.05215 0.0954962)
(-1.41108 2.38315 0.147987)
(-1.17485 2.52636 0.336186)
(-0.882588 2.5996 0.55008)
(-2.43939 1.55077 0.0951535)
(-2.18084 2.12743 -0.0392879)
(-1.32009 2.65143 0.207589)
(-1.25684 2.7289 0.347475)
(-0.826154 2.80275 0.653058)
(-0.925303 2.84511 0.726479)
(-2.4826 1.84925 -0.0895554)
(-1.89551 2.36264 0.0740068)
(-1.38459 2.9988 0.262824)
(-1.25898 2.94729 0.404597)
(-0.961204 3.18402 0.472493)
(-1.07419 3.30255 0.55932)
(-0.696099 3.4442 0.743235)
(-3.25191 1.20565 0.377903)
(-2.27171 2.78545 0.0915388)
(-1.57536 3.24574 0.620245)
(-1.51085 3.40708 0.516579)
(-1.03202 3.68979 0.586262)
(-1.18225 3.74709 0.584433)
(-1.17666 3.79957 0.761694)
(-0.489727 3.95674 0.966305)
(-2.77554 2.65098 -0.355297)
(-2.57307 3.18619 1.04583)
(-1.01406 4.40036 0.495862)
(-1.79571 4.50583 0.436884)
(-1.55864 4.36931 0.55384)
(-1.3114 4.4547 0.841328)
(-0.992676 4.46291 1.1136)
(-0.339509 4.37633 1.37126)
(0.290336 4.37835 1.49365)
(-4.05678 1.84094 0.141268)
(-2.5147 4.26003 1.13853)
(-2.12773 4.40852 0.805258)
(-1.56994 4.6108 1.14072)
(-1.38611 4.54468 1.50672)
(-0.629252 4.51485 2.02882)
(-0.617631 4.28814 2.53519)
(-0.234415 4.33264 2.94766)
(-0.0299345 4.6108 2.72906)
(0.526766 4.80604 2.00768)
(-1.63201 2.80903 0.632623)
(-2.11598 3.37277 2.16325)
(-2.12837 3.80932 2.96523)
(-1.57653 3.98189 3.12966)
(-0.91565 4.28988 3.0235)
(-0.239616 3.90976 2.45375)
(-0.74264 3.28702 2.07319)
(-0.971942 3.17541 2.40777)
(-0.89724 3.74104 2.6259)
(-0.364745 4.21064 2.44036)
(0.367508 4.1725 2.12118)
(-1.36108 3.39672 1.31952)
(0.344121 1.70114 1.02088)
(-0.0609309 1.52728 2.44888)
(-1.40602 2.61872 3.25336)
(-1.55256 2.4961 3.19174)
(-1.33629 2.19066 1.98329)
(-0.466294 2.24462 0.503321)
(-0.132069 2.81918 0.559115)
(-0.0697016 3.23525 0.692244)
(-0.325776 3.15521 0.609885)
(-0.360525 3.0417 1.00164)
(0.336035 2.92908 0.837359)
(-1.10161 1.48016 0.486876)
(0.0898697 1.14921 -0.274197)
(-0.125525 0.992542 -0.719543)
(-1.44267 1.88324 0.989407)
(-1.50582 1.97949 1.27149)
(-1.27307 2.15138 1.12342)
(-0.842648 1.78965 0.325996)
(-0.706354 1.56697 0.364335)
(-0.705809 1.73295 -0.0572045)
(0.0226083 2.02219 -0.302154)
(0.30149 2.0395 -0.188046)
(0.281487 1.78714 0.214132)
(0.257538 1.46921 0.273607)
(0.62209 1.44975 -0.220741)
(0.861342 0.995629 -1.37929)
(1.24332 1.68505 -1.58014)
(0.137015 1.40657 -0.974248)
(-0.431788 1.56757 -0.872182)
(-0.766314 1.4005 -0.453833)
(-0.216142 1.2458 -0.579454)
(0.0404184 0.948555 -0.0852704)
(-0.111414 0.90169 -0.211776)
(-0.31179 0.901682 -0.0201579)
(-0.312671 0.890398 0.131463)
(-0.277703 0.658487 0.465427)
(-0.495906 0.822416 0.704869)
(0.434359 0.399486 -0.347421)
(2.82234 0.97605 -0.0552223)
(1.86794 1.04036 -0.904933)
(1.66123 0.644156 -1.82851)
(0.813819 0.254972 -2.44157)
(-0.331507 0.160702 -2.19374)
(-0.441085 0.823966 -1.10486)
(-0.0389142 0.60488 -0.82899)
(0.183087 0.565035 -0.717097)
(0.189411 0.421339 -0.577297)
(0.345817 0.457703 -0.814997)
(0.108326 0.188213 -0.788237)
(-0.168565 0.0879187 -0.785712)
(-0.133446 0.0442409 -0.94113)
(0.215167 -0.606483 -0.691686)
(0.572052 -0.766898 -0.108481)
(-1.14058 1.55719 -0.0421875)
(-1.45198 1.54408 -0.0646768)
(-1.16808 2.01769 -0.0357949)
(-1.17458 1.78646 -0.0189806)
(-1.62712 1.46197 0.0577644)
(-1.36577 2.07377 0.0733627)
(-1.04292 2.32258 0.0406327)
(-1.44414 2.0481 0.0407311)
(-1.68727 1.47382 0.11572)
(-1.66544 1.81085 0.152145)
(-1.15543 2.27199 0.197434)
(-0.899107 2.45682 0.199857)
(-1.09347 2.33401 0.15663)
(-1.97178 1.37056 -0.0384934)
(-1.8461 1.79015 0.108582)
(-1.5695 2.04876 0.289361)
(-1.10588 2.37245 0.36381)
(-0.854987 2.45338 0.405597)
(-0.728265 2.55318 0.405603)
(-2.2357 1.3136 0.0146682)
(-1.73571 1.94332 0.115719)
(-1.39959 2.36787 0.129427)
(-1.37333 2.45289 0.308844)
(-1.1295 2.54621 0.5088)
(-0.766292 2.64562 0.691278)
(-2.39104 1.62852 0.03717)
(-2.28172 2.00444 0.00164534)
(-1.47706 2.48631 0.190562)
(-1.37951 2.66871 0.343051)
(-0.846115 2.8515 0.575112)
(-1.06617 2.75003 0.77223)
(-0.644995 2.95476 0.614467)
(-2.64034 1.55489 -0.158607)
(-2.19655 2.18325 -0.0381282)
(-1.41666 2.94524 0.310051)
(-1.36483 2.98011 0.460828)
(-1.10438 3.10872 0.518821)
(-1.28392 3.18214 0.528076)
(-0.959641 3.28545 0.688706)
(-0.498764 3.44229 0.876136)
(-3.36168 1.09437 0.333497)
(-1.99627 3.09959 0.124012)
(-1.27165 3.2911 0.58971)
(-1.46318 3.48192 0.47344)
(-1.63185 3.49814 0.671624)
(-1.36431 3.75864 0.543898)
(-1.03337 3.87037 0.857357)
(-0.763417 4.00404 1.05719)
(-0.307318 4.03179 1.10126)
(-2.89324 2.53942 -0.360801)
(-2.85926 2.94647 0.959217)
(-1.4788 4.28878 0.299879)
(-2.02766 4.42287 0.493318)
(-1.35907 4.74034 0.693956)
(-1.70867 4.45468 0.813105)
(-1.2647 4.41658 1.1183)
(-0.905593 4.45437 1.25862)
(-0.247573 4.37834 1.43804)
(0.516949 4.33997 1.56548)
(-4.11265 1.67795 0.194292)
(-2.64485 4.16009 1.34363)
(-2.51584 4.07484 0.949734)
(-1.92673 4.46525 0.996132)
(-1.6023 4.53246 1.32529)
(-0.913949 4.57999 1.88032)
(-0.899381 4.2409 2.28062)
(-0.64008 4.38601 2.63269)
(-0.120502 4.78212 2.44915)
(0.373814 4.9354 1.91064)
(0.379794 4.84616 1.70228)
(-1.40542 2.97896 0.817514)
(-1.63646 3.56888 2.22416)
(-2.0143 3.8928 2.8477)
(-1.99096 3.76986 2.81872)
(-1.59776 4.00017 2.7915)
(-0.275601 4.00533 2.49065)
(-0.738525 3.26586 2.11755)
(-0.977382 3.25338 2.05965)
(-1.16053 3.81415 2.15457)
(-0.326087 4.31769 2.2799)
(-0.683148 4.01638 2.25839)
(-0.152803 3.54032 1.94448)
(-1.00235 3.3303 1.43836)
(0.433787 1.66636 0.69734)
(-0.267433 1.18727 1.93655)
(-1.33579 2.7078 2.87865)
(-1.53271 2.56838 3.06525)
(-1.2711 2.35138 1.92304)
(-0.311535 2.46688 0.183897)
(-0.0522274 2.89356 0.258991)
(-0.169947 3.42056 0.412006)
(-0.342623 3.16093 0.362692)
(-0.364862 3.13248 0.758189)
(0.301591 2.94191 0.949536)
(0.45158 2.89682 0.785472)
(-1.09167 1.40213 0.522938)
(-0.0110423 1.24126 -0.379702)
(0.107493 1.22427 -1.0684)
(-1.57798 1.68696 0.756862)
(-1.50611 2.00991 0.961195)
(-1.27604 2.32506 0.764921)
(-0.747626 1.82903 0.221056)
(-0.744596 1.51104 0.37063)
(-0.899599 1.59542 -0.137832)
(-0.401362 1.9033 -0.0148255)
(0.261902 1.97939 -0.178638)
(0.230906 1.72316 0.397491)
(0.144645 1.4429 0.251092)
(0.0572587 1.42096 -0.00589513)
(0.495212 1.49107 -0.272669)
(0.789385 1.07623 -1.35726)
(1.0159 1.53216 -1.58156)
(0.0679724 1.40373 -1.03481)
(-0.425537 1.56208 -0.944622)
(-0.717215 1.41955 -0.567042)
(-0.123966 1.28799 -0.687484)
(0.030793 0.959301 -0.184882)
(-0.13858 0.928198 -0.227011)
(-0.307422 0.91686 -0.0434833)
(-0.206348 0.864215 0.0891172)
(-0.254192 0.603697 0.483972)
(-0.488018 0.835937 0.755355)
(0.468506 0.434744 -0.361252)
(0.133937 -0.365143 0.0405955)
(2.75859 1.06376 -0.0618028)
(1.89445 1.03863 -0.903218)
(1.67437 0.679978 -1.75244)
(0.888479 0.314127 -2.28342)
(-0.240293 0.190719 -2.30073)
(-0.416863 0.817066 -1.12474)
(0.00621453 0.607368 -0.768351)
(0.225826 0.580352 -0.703209)
(0.190958 0.42513 -0.577461)
(0.350398 0.475798 -0.818808)
(0.122536 0.194208 -0.791459)
(-0.170827 0.0888147 -0.733218)
(-0.127416 0.0507862 -0.958162)
(0.228412 -0.634558 -0.729555)
(0.574447 -0.752216 -0.106071)
(0.314033 -0.407082 -0.169742)
(-1.13025 1.38842 -0.0115206)
(-1.24409 1.46765 -0.0201058)
(-1.06933 1.80965 -0.0493325)
(-0.942995 1.66028 -0.0472102)
(-1.46664 1.46644 -0.00982648)
(-1.31826 1.91221 -0.092301)
(-0.930545 2.18743 -0.0359934)
(-0.887267 2.16708 -0.0389059)
(-1.07901 1.87396 0.0217203)
(-1.87561 1.11427 0.0342732)
(-1.64708 1.79529 0.110481)
(-1.17648 2.27176 0.0946374)
(-0.67424 2.44301 0.0272906)
(-0.84556 2.38064 0.046802)
(-1.81251 1.31945 0.0832732)
(-1.56664 1.84101 0.0916472)
(-1.44798 2.03554 0.170269)
(-0.999944 2.39651 0.251753)
(-0.886055 2.42202 0.339892)
(-0.79547 2.46829 0.207028)
(-2.09934 1.27012 -0.0687012)
(-2.11229 1.52813 0.105992)
(-1.02277 2.31283 0.355604)
(-1.3259 2.24593 0.332603)
(-1.04087 2.38457 0.396659)
(-0.683952 2.55249 0.534846)
(-0.60658 2.56927 0.384354)
(-2.31616 1.22622 0.0490548)
(-1.83197 2.00444 -0.0337165)
(-1.51507 2.18805 0.172847)
(-1.43704 2.40992 0.322733)
(-1.17201 2.53503 0.49518)
(-0.927587 2.55764 0.702009)
(-0.773217 2.74374 0.555184)
(-2.48672 1.43397 0.0631505)
(-2.29771 1.97273 -0.000953161)
(-1.52662 2.4991 0.225009)
(-1.42957 2.67408 0.248168)
(-1.05624 2.74925 0.563076)
(-0.974791 2.77651 0.761716)
(-0.832404 2.93366 0.661014)
(-0.537319 3.01553 0.845078)
(-2.79787 1.3351 -0.0188506)
(-2.44255 2.18447 -0.0373688)
(-1.57337 2.82644 0.375198)
(-1.36221 2.94197 0.459777)
(-1.22806 3.0825 0.523106)
(-0.952009 3.27655 0.454444)
(-1.19219 3.17991 0.63617)
(-0.803524 3.36616 0.760876)
(-0.497388 3.54376 0.933769)
(-3.47906 1.03033 0.275027)
(-2.71783 2.54804 0.157428)
(-1.82581 3.14269 0.424215)
(-1.40029 3.61733 0.582268)
(-1.66284 3.64538 0.570955)
(-1.5535 3.67731 0.514449)
(-1.18835 3.81553 0.857001)
(-0.775792 4.00744 1.08019)
(-0.528069 4.11635 1.20338)
(0.0285044 4.03811 1.46859)
(-3.17814 2.29429 -0.32363)
(-3.12366 2.79113 0.657319)
(-1.94853 4.23136 0.182948)
(-1.90242 4.46861 0.418592)
(-2.30821 4.46656 0.462292)
(-1.61867 4.60515 0.793496)
(-1.54479 4.35943 1.12898)
(-1.1554 4.37585 1.21752)
(-0.24913 4.51228 1.43128)
(0.0925041 4.38101 1.49269)
(0.397505 4.43822 1.56234)
(-4.10313 1.57782 0.29579)
(-2.85242 4.13284 1.50424)
(-1.88791 4.44431 1.11795)
(-2.30784 4.28048 1.01848)
(-1.92333 4.50624 0.939079)
(-1.57885 4.50923 1.57767)
(-1.06882 4.30391 1.8108)
(-1.00224 4.31861 2.31187)
(-0.174766 4.76951 2.30377)
(0.101505 4.96657 1.86113)
(0.0937379 4.82022 1.61399)
(0.589209 4.51215 1.67921)
(-1.73502 2.7812 0.667582)
(-1.71495 3.5573 2.076)
(-2.0908 3.66603 2.92026)
(-2.25214 3.5581 2.85591)
(-1.79225 3.81886 2.74346)
(-0.904341 3.76852 2.81928)
(-0.803292 3.29509 2.03356)
(-1.05746 3.19973 2.06734)
(-1.43898 3.41738 2.47916)
(-0.977836 4.01229 2.50082)
(-0.74262 3.939 2.32686)
(-0.396015 3.50805 2.07024)
(0.450877 3.18753 1.95298)
(-0.84637 3.17247 1.41661)
(0.177934 1.58115 0.370549)
(-0.715593 0.882934 1.28523)
(-1.1627 2.70449 2.51875)
(-1.2365 2.84973 2.7969)
(-1.20448 2.67085 1.6369)
(-0.188826 2.77119 -0.16368)
(0.162499 3.0667 -0.48603)
(0.181409 3.4816 -0.103008)
(-0.507518 3.27479 0.302558)
(-0.470191 3.13677 0.151788)
(-0.126246 3.0279 0.826955)
(0.152683 2.82705 0.942015)
(0.204089 2.69131 0.776161)
(-1.04208 1.46185 0.503948)
(-0.0978456 1.38267 -0.544695)
(0.134263 1.42662 -1.18977)
(-1.6598 1.54976 0.673342)
(-1.41313 2.08623 0.0503757)
(-1.24441 2.39331 0.51978)
(-0.676758 1.86762 0.151698)
(-0.477989 1.51751 0.13893)
(-0.954042 1.48387 -0.147631)
(-0.827721 1.69948 0.122397)
(-0.20683 1.80525 -0.128564)
(-0.184781 1.55043 0.579737)
(0.0237072 1.39516 0.306194)
(0.100202 1.4408 0.0175437)
(0.145687 1.67887 0.00358776)
(0.316953 1.58547 -0.387522)
(0.754816 1.17769 -1.32854)
(0.796912 1.30062 -1.65359)
(0.00945467 1.41937 -1.1086)
(-0.439546 1.5332 -1.05861)
(-0.677437 1.42807 -0.691264)
(-0.0535117 1.31097 -0.820503)
(0.0338069 0.954395 -0.297526)
(-0.151275 0.954945 -0.237554)
(-0.301172 0.942415 -0.0749861)
(-0.178628 0.870109 0.0707704)
(-0.178894 0.589173 0.436306)
(-0.467509 0.849646 0.740393)
(0.492394 0.458886 -0.380057)
(-0.106163 -0.41655 0.0955876)
(0.651975 -0.749503 0.362256)
(2.73142 1.09752 -0.0468525)
(1.84772 1.12325 -0.864102)
(1.66823 0.715349 -1.69641)
(0.897372 0.356468 -2.14616)
(-0.107281 0.283473 -2.37953)
(-0.411584 0.787604 -1.11226)
(0.0625326 0.626178 -0.742164)
(0.260607 0.597019 -0.69797)
(0.20232 0.431767 -0.575922)
(0.359275 0.492903 -0.82272)
(0.128341 0.1944 -0.812517)
(-0.179132 0.0809976 -0.692247)
(-0.11951 0.055049 -0.976247)
(0.253591 -0.65089 -0.750337)
(0.590112 -0.755952 -0.0981678)
(0.344457 -0.411968 -0.177255)
(0.154338 -0.223595 -0.209975)
(-1.05419 1.30263 -0.0048746)
(-1.21792 1.33389 0.0157023)
(-1.03748 1.59921 0.0161432)
(-0.963554 1.45449 0.00363836)
(-1.35429 1.31893 -0.0242869)
(-1.25628 1.7078 -0.0320854)
(-0.907753 1.92927 0.0384375)
(-0.865969 1.91196 -0.0152096)
(-0.827659 1.71557 -0.0381666)
(-1.59182 1.30286 -0.0841162)
(-1.28039 1.8786 -0.0545958)
(-1.10835 2.10141 0.0095293)
(-0.78972 2.26215 0.0434257)
(-0.676581 2.32898 -0.152808)
(-0.609339 2.34618 -0.105881)
(-1.86844 1.12343 0.0775635)
(-1.66795 1.76554 0.163775)
(-1.36741 2.1469 0.0891527)
(-1.04625 2.26166 0.293961)
(-0.758095 2.47947 0.0693196)
(-0.908409 2.39731 -0.147383)
(-1.94232 1.15548 0.0404773)
(-1.84529 1.56561 0.100281)
(-1.42811 2.01457 0.18399)
(-1.26925 2.19258 0.277559)
(-1.14779 2.33149 0.383556)
(-0.724515 2.48621 0.358458)
(-0.257876 2.60619 0.236455)
(-2.13458 1.21284 -0.0812671)
(-1.98335 1.73598 0.0366336)
(-1.51323 2.01854 0.322843)
(-1.3341 2.22827 0.326352)
(-1.06616 2.34815 0.469743)
(-0.842062 2.50728 0.586847)
(-0.633694 2.64612 0.487814)
(-0.571491 2.584 0.533939)
(-2.35806 1.15857 0.089245)
(-2.21998 1.66569 -0.0383403)
(-1.65594 2.09919 0.1746)
(-1.63564 2.22971 0.27462)
(-1.31253 2.43619 0.471212)
(-1.02696 2.52723 0.671725)
(-0.806139 2.76258 0.520732)
(-0.692929 2.83956 0.781958)
(-2.60782 1.28055 0.0331746)
(-2.24607 1.97824 0.106973)
(-1.73421 2.4983 0.165192)
(-1.58872 2.62412 0.348731)