/*--------------------------------*- C++ -*----------------------------------*\
  =========                 |
  \\      /  F ield         | OpenFOAM: The Open Source CFD Toolbox
   \\    /   O peration     | Website:  https://openfoam.org
    \\  /    A nd           | Version:  7
     \\/     M anipulation  |
\*---------------------------------------------------------------------------*/
FoamFile
{
    version     2.0;
    format      ascii;
    class       volVectorField;
    location    "0";
    object      U;
}
// * * * * * * * * * * * * * * * * * * * * * * * * * * * * * * * * * * * * * //

dimensions      [0 1 -1 0 0 0 0];

internalField   uniform (0 0 0);

boundaryField
{
    bottomWall
    {
        type            noSlip;
    }
    inlet
    {
        type            fixedValue;
        value           nonuniform List<vector> 
600
(
(0.931617 0.637329 0)
(0.891722 0.692048 0)
(0.84844 0.744478 0)
(0.801889 0.7944 0)
(0.752204 0.841598 0)
(0.699532 0.885863 0)
(0.644036 0.926993 0)
(0.585893 0.964794 0)
(0.525294 0.999081 0)
(0.462444 1.02968 0)
(0.39756 1.05643 0)
(0.330872 1.07918 0)
(0.262622 1.09778 0)
(0.193063 1.11213 0)
(0.122459 1.1221 0)
(0.0510826 1.1276 0)
(-0.0207841 1.12857 0)
(-0.0928517 1.12493 0)
(-0.164824 1.11666 0)
(-0.236399 1.10373 0)
(-0.307271 1.08613 0)
(-0.377131 1.06389 0)
(-0.445668 1.03705 0)
(1.09752 0.750827 0)
(1.05052 0.815291 0)
(0.999534 0.877058 0)
(0.944693 0.93587 0)
(0.88616 0.991474 0)
(0.824108 1.04362 0)
(0.758729 1.09208 0)
(0.690232 1.13661 0)
(0.618841 1.177 0)
(0.544798 1.21305 0)
(0.468359 1.24456 0)
(0.389795 1.27136 0)
(0.309391 1.29328 0)
(0.227445 1.31018 0)
(0.144267 1.32193 0)
(0.0601796 1.32841 0)
(-0.0244855 1.32955 0)
(-0.109387 1.32527 0)
(-0.194176 1.31552 0)
(-0.278498 1.30028 0)
(-0.361991 1.27955 0)
(-0.444292 1.25336 0)
(-0.525035 1.22174 0)
(1.17491 0.803767 0)
(1.1246 0.872776 0)
(1.07001 0.938899 0)
(1.0113 1.00186 0)
(0.948642 1.06138 0)
(0.882215 1.11721 0)
(0.812226 1.16908 0)
(0.738899 1.21675 0)
(0.662475 1.25999 0)
(0.583212 1.29858 0)
(0.501383 1.33232 0)
(0.417279 1.361 0)
(0.331206 1.38447 0)
(0.243482 1.40256 0)
(0.154439 1.41513 0)
(0.0644228 1.42208 0)
(-0.0262119 1.42329 0)
(-0.1171 1.41871 0)
(-0.207868 1.40828 0)
(-0.298135 1.39197 0)
(-0.387515 1.36978 0)
(-0.475619 1.34173 0)
(-0.562055 1.30788 0)
(1.226 0.838718 0)
(1.1735 0.910727 0)
(1.11654 0.979725 0)
(1.05528 1.04542 0)
(0.989892 1.10753 0)
(0.920577 1.16579 0)
(0.847544 1.21991 0)
(0.771029 1.26966 0)
(0.691282 1.31478 0)
(0.608572 1.35505 0)
(0.523185 1.39025 0)
(0.435424 1.42018 0)
(0.345608 1.44467 0)
(0.254069 1.46355 0)
(0.161155 1.47667 0)
(0.0672242 1.48391 0)
(-0.0273517 1.48518 0)
(-0.122192 1.4804 0)
(-0.216906 1.46951 0)
(-0.311099 1.45249 0)
(-0.404366 1.42934 0)
(-0.496301 1.40007 0)
(-0.586495 1.36475 0)
(1.26424 0.864879 0)
(1.2101 0.939134 0)
(1.15136 1.01028 0)
(1.08819 1.07803 0)
(1.02077 1.14208 0)
(0.949291 1.20215 0)
(0.873981 1.25796 0)
(0.795079 1.30926 0)
(0.712844 1.35579 0)
(0.627554 1.39732 0)
(0.539504 1.43361 0)
(0.449006 1.46448 0)
(0.356388 1.48973 0)
(0.261994 1.5092 0)
(0.166181 1.52273 0)
(0.069321 1.5302 0)
(-0.0282048 1.53151 0)
(-0.126003 1.52658 0)
(-0.223672 1.51535 0)
(-0.320802 1.4978 0)
(-0.416978 1.47392 0)
(-0.511781 1.44374 0)
(-0.604789 1.40732 0)
(1.29484 0.885811 0)
(1.23939 0.961864 0)
(1.17923 1.03474 0)
(1.11453 1.10412 0)
(1.04547 1.16972 0)
(0.972266 1.23124 0)
(0.895133 1.28841 0)
(0.814321 1.34095 0)
(0.730097 1.3886 0)
(0.642742 1.43113 0)
(0.552561 1.46831 0)
(0.459873 1.49993 0)
(0.365013 1.52579 0)
(0.268335 1.54572 0)
(0.170203 1.55958 0)
(0.0709987 1.56723 0)
(-0.0288875 1.56857 0)
(-0.129053 1.56352 0)
(-0.229085 1.55202 0)
(-0.328566 1.53405 0)
(-0.42707 1.50959 0)
(-0.524167 1.47869 0)
(-0.619426 1.44138 0)
(1.32036 0.903272 0)
(1.26382 0.980824 0)
(1.20248 1.05513 0)
(1.1365 1.12589 0)
(1.06608 1.19278 0)
(0.991431 1.25551 0)
(0.912778 1.31381 0)
(0.830373 1.36738 0)
(0.744488 1.41598 0)
(0.655412 1.45934 0)
(0.563453 1.49725 0)
(0.468938 1.52949 0)
(0.372209 1.55586 0)
(0.273624 1.57619 0)
(0.173558 1.59032 0)
(0.0723982 1.59813 0)
(-0.0294569 1.59949 0)
(-0.131597 1.59434 0)
(-0.233601 1.58262 0)
(-0.335043 1.56429 0)
(-0.435489 1.53935 0)
(-0.5345 1.50783 0)
(-0.631636 1.46979 0)
(1.34227 0.91826 0)
(1.28479 0.997098 0)
(1.22243 1.07264 0)
(1.15536 1.14457 0)
(1.08377 1.21257 0)
(1.00788 1.27635 0)
(0.927923 1.33561 0)
(0.844151 1.39007 0)
(0.756841 1.43947 0)
(0.666287 1.48356 0)
(0.572802 1.5221 0)
(0.476719 1.55487 0)
(0.378384 1.58168 0)
(0.278164 1.60234 0)
(0.176438 1.61671 0)
(0.0735995 1.62464 0)
(-0.0299457 1.62603 0)
(-0.13378 1.6208 0)
(-0.237477 1.60888 0)
(-0.340602 1.59024 0)
(-0.442715 1.56489 0)
(-0.543369 1.53285 0)
(-0.642116 1.49418 0)
(1.36147 0.931395 0)
(1.30317 1.01136 0)
(1.23991 1.08798 0)
(1.17188 1.16094 0)
(1.09927 1.22991 0)
(1.0223 1.2946 0)
(0.941197 1.35471 0)
(0.856227 1.40995 0)
(0.767667 1.46006 0)
(0.675818 1.50478 0)
(0.580996 1.54387 0)
(0.483538 1.57711 0)
(0.383797 1.6043 0)
(0.282143 1.62527 0)
(0.178962 1.63984 0)
(0.0746523 1.64788 0)
(-0.030374 1.64929 0)
(-0.135694 1.64398 0)
(-0.240874 1.63189 0)
(-0.345475 1.61299 0)
(-0.449047 1.58728 0)
(-0.551141 1.55478 0)
(-0.651302 1.51555 0)
(1.37857 0.943091 0)
(1.31953 1.02406 0)
(1.25548 1.10165 0)
(1.1866 1.17552 0)
(1.11308 1.24536 0)
(1.03514 1.31086 0)
(0.953016 1.37172 0)
(0.866979 1.42766 0)
(0.777307 1.4784 0)
(0.684305 1.52368 0)
(0.588292 1.56326 0)
(0.48961 1.59692 0)
(0.388617 1.62445 0)
(0.285686 1.64567 0)
(0.181209 1.66043 0)
(0.0755898 1.66858 0)
(-0.0307554 1.67 0)
(-0.137398 1.66463 0)
(-0.243899 1.65238 0)
(-0.349813 1.63325 0)
(-0.454686 1.60721 0)
(-0.558062 1.5743 0)
(-0.65948 1.53458 0)
(1.39398 0.953636 0)
(1.33429 1.03551 0)
(1.26952 1.11396 0)
(1.19987 1.18866 0)
(1.12552 1.25928 0)
(1.04671 1.32552 0)
(0.963672 1.38706 0)
(0.876673 1.44362 0)
(0.785999 1.49493 0)
(0.691956 1.54071 0)
(0.59487 1.58074 0)
(0.495085 1.61477 0)
(0.392962 1.64261 0)
(0.288881 1.66408 0)
(0.183236 1.679 0)
(0.076435 1.68723 0)
(-0.0310993 1.68868 0)
(-0.138934 1.68324 0)
(-0.246626 1.67086 0)
(-0.353724 1.65151 0)
(-0.45977 1.62518 0)
(-0.564302 1.59191 0)
(-0.666854 1.55174 0)
(1.40802 0.963241 0)
(1.34772 1.04594 0)
(1.28231 1.12518 0)
(1.21195 1.20063 0)
(1.13686 1.27197 0)
(1.05725 1.33887 0)
(0.973377 1.40103 0)
(0.885502 1.45816 0)
(0.793915 1.50998 0)
(0.698925 1.55623 0)
(0.600861 1.59666 0)
(0.500071 1.63104 0)
(0.39692 1.65916 0)
(0.29179 1.68084 0)
(0.185081 1.69591 0)
(0.0772048 1.70423 0)
(-0.0314125 1.70569 0)
(-0.140333 1.70019 0)
(-0.24911 1.68769 0)
(-0.357287 1.66814 0)
(-0.464401 1.64155 0)
(-0.569985 1.60794 0)
(-0.67357 1.56737 0)
(1.42091 0.972061 0)
(1.36006 1.05552 0)
(1.29405 1.13549 0)
(1.22305 1.21163 0)
(1.14727 1.28361 0)
(1.06693 1.35113 0)
(0.982291 1.41386 0)
(0.893611 1.47151 0)
(0.801185 1.52381 0)
(0.705325 1.57048 0)
(0.606363 1.61128 0)
(0.50465 1.64597 0)
(0.400554 1.67435 0)
(0.294462 1.69623 0)
(0.186776 1.71143 0)
(0.0779118 1.71983 0)
(-0.0317002 1.7213 0)
(-0.141618 1.71576 0)
(-0.251391 1.70314 0)
(-0.360558 1.68342 0)
(-0.468653 1.65658 0)
(-0.575205 1.62266 0)
(-0.679738 1.58172 0)
(1.43284 0.980218 0)
(1.37148 1.06438 0)
(1.30491 1.14502 0)
(1.23331 1.2218 0)
(1.1569 1.29439 0)
(1.07589 1.36247 0)
(0.990534 1.42572 0)
(0.90111 1.48386 0)
(0.807908 1.5366 0)
(0.711244 1.58366 0)
(0.611452 1.6248 0)
(0.508885 1.65978 0)
(0.403916 1.6884 0)
(0.296933 1.71046 0)
(0.188343 1.7258 0)
(0.0785656 1.73427 0)
(-0.0319662 1.73575 0)
(-0.142807 1.73016 0)
(-0.253501 1.71744 0)
(-0.363584 1.69754 0)
(-0.472586 1.67048 0)
(-0.580032 1.63628 0)
(-0.685443 1.595 0)
(1.44393 0.987808 0)
(1.3821 1.07262 0)
(1.31501 1.15388 0)
(1.24286 1.23126 0)
(1.16585 1.30441 0)
(1.08422 1.37302 0)
(0.998203 1.43676 0)
(0.908086 1.49535 0)
(0.814163 1.54849 0)
(0.716751 1.59592 0)
(0.616186 1.63738 0)
(0.512825 1.67264 0)
(0.407043 1.70147 0)
(0.299232 1.7237 0)
(0.189801 1.73916 0)
(0.0791739 1.74769 0)
(-0.0322137 1.74919 0)
(-0.143913 1.74356 0)
(-0.255464 1.73073 0)
(-0.366399 1.71069 0)
(-0.476245 1.68342 0)
(-0.584523 1.64895 0)
(-0.69075 1.60735 0)
(1.4543 0.994904 0)
(1.39203 1.08032 0)
(1.32446 1.16217 0)
(1.25179 1.2401 0)
(1.17423 1.31378 0)
(1.09201 1.38288 0)
(1.00537 1.44709 0)
(0.914611 1.50609 0)
(0.820013 1.55962 0)
(0.7219 1.60739 0)
(0.620613 1.64914 0)
(0.516509 1.68465 0)
(0.409967 1.7137 0)
(0.301382 1.73609 0)
(0.191165 1.75165 0)
(0.0797427 1.76025 0)
(-0.0324451 1.76176 0)
(-0.144946 1.75608 0)
(-0.257299 1.74317 0)
(-0.369032 1.72298 0)
(-0.479667 1.69551 0)
(-0.588722 1.6608 0)
(-0.695712 1.61889 0)
(1.46405 1.00157 0)
(1.40135 1.08756 0)
(1.33333 1.16996 0)
(1.26018 1.24841 0)
(1.1821 1.32258 0)
(1.09932 1.39215 0)
(1.01211 1.45678 0)
(0.920739 1.51619 0)
(0.825507 1.57007 0)
(0.726737 1.61816 0)
(0.624771 1.66019 0)
(0.51997 1.69594 0)
(0.412714 1.72518 0)
(0.303401 1.74772 0)
(0.192446 1.76339 0)
(0.080277 1.77204 0)
(-0.0326625 1.77356 0)
(-0.145918 1.76785 0)
(-0.259023 1.75485 0)
(-0.371504 1.73452 0)
(-0.482881 1.70687 0)
(-0.592667 1.67192 0)
(-0.700374 1.62974 0)
(1.47324 1.00786 0)
(1.41015 1.09439 0)
(1.3417 1.1773 0)
(1.26809 1.25625 0)
(1.18952 1.33088 0)
(1.10622 1.40088 0)
(1.01846 1.46592 0)
(0.926518 1.5257 0)
(0.830688 1.57992 0)
(0.731299 1.62831 0)
(0.628692 1.67061 0)
(0.523233 1.70658 0)
(0.415304 1.73601 0)
(0.305306 1.75869 0)
(0.193654 1.77446 0)
(0.0807808 1.78316 0)
(-0.0328675 1.78469 0)
(-0.146833 1.77894 0)
(-0.260649 1.76586 0)
(-0.373836 1.74541 0)
(-0.485911 1.71758 0)
(-0.596386 1.68242 0)
(-0.704769 1.63997 0)
(1.48193 1.01381 0)
(1.41847 1.10085 0)
(1.34962 1.18425 0)
(1.27557 1.26366 0)
(1.19654 1.33874 0)
(1.11275 1.40915 0)
(1.02447 1.47458 0)
(0.931986 1.53471 0)
(0.835591 1.58925 0)
(0.735615 1.63792 0)
(0.632403 1.68047 0)
(0.526322 1.71666 0)
(0.417756 1.74625 0)
(0.307108 1.76907 0)
(0.194797 1.78493 0)
(0.0812576 1.79369 0)
(-0.0330615 1.79522 0)
(-0.1477 1.78944 0)
(-0.262187 1.77628 0)
(-0.376042 1.75571 0)
(-0.488779 1.72772 0)
(-0.599906 1.69235 0)
(-0.708929 1.64965 0)
(1.49019 1.01945 0)
(1.42637 1.10698 0)
(1.35714 1.19084 0)
(1.28268 1.2707 0)
(1.2032 1.34619 0)
(1.11895 1.417 0)
(1.03018 1.48279 0)
(0.937177 1.54325 0)
(0.840245 1.5981 0)
(0.739712 1.64705 0)
(0.635925 1.68983 0)
(0.529253 1.72622 0)
(0.420082 1.75598 0)
(0.308818 1.77892 0)
(0.195882 1.79487 0)
(0.0817102 1.80368 0)
(-0.0332457 1.80522 0)
(-0.148523 1.79941 0)
(-0.263647 1.78618 0)
(-0.378137 1.76549 0)
(-0.491501 1.73734 0)
(-0.603247 1.70177 0)
(-0.712877 1.65884 0)
(1.49804 1.02483 0)
(1.43389 1.11281 0)
(1.36429 1.19712 0)
(1.28944 1.2774 0)
(1.20955 1.35329 0)
(1.12485 1.42447 0)
(1.03561 1.49061 0)
(0.942117 1.55139 0)
(0.844674 1.60652 0)
(0.743611 1.65573 0)
(0.639278 1.69874 0)
(0.532043 1.73532 0)
(0.422297 1.76524 0)
(0.310446 1.7883 0)
(0.196914 1.80433 0)
(0.0821409 1.81319 0)
(-0.0334209 1.81474 0)
(-0.149306 1.8089 0)
(-0.265037 1.79559 0)
(-0.38013 1.7748 0)
(-0.494093 1.7465 0)
(-0.606428 1.71074 0)
(-0.716636 1.66758 0)
(1.50554 1.02995 0)
(1.44107 1.11838 0)
(1.37112 1.20311 0)
(1.29589 1.28379 0)
(1.2156 1.36006 0)
(1.13048 1.4316 0)
(1.04079 1.49807 0)
(0.946832 1.55915 0)
(0.848901 1.61456 0)
(0.747332 1.66401 0)
(0.642477 1.70724 0)
(0.534706 1.744 0)
(0.42441 1.77407 0)
(0.312 1.79725 0)
(0.1979 1.81336 0)
(0.082552 1.82226 0)
(-0.0335882 1.82382 0)
(-0.150053 1.81795 0)
(-0.266363 1.80458 0)
(-0.382032 1.78368 0)
(-0.496565 1.75524 0)
(-0.609462 1.7193 0)
(-0.720222 1.67593 0)
(1.51271 1.03486 0)
(1.44793 1.12371 0)
(1.37765 1.20884 0)
(1.30206 1.2899 0)
(1.22139 1.36654 0)
(1.13586 1.43842 0)
(1.04575 1.5052 0)
(0.951341 1.56658 0)
(0.852944 1.62225 0)
(0.750891 1.67194 0)
(0.645536 1.71537 0)
(0.537252 1.75231 0)
(0.426431 1.78252 0)
(0.313485 1.80581 0)
(0.198842 1.822 0)
(0.0829451 1.83094 0)
(-0.0337481 1.83251 0)
(-0.150767 1.82661 0)
(-0.267632 1.81317 0)
(-0.383852 1.79217 0)
(-0.49893 1.7636 0)
(-0.612365 1.72749 0)
(-0.723652 1.68391 0)
(1.51958 1.03956 0)
(1.45451 1.12881 0)
(1.38391 1.21433 0)
(1.30798 1.29576 0)
(1.22693 1.37275 0)
(1.14102 1.44495 0)
(1.0505 1.51204 0)
(0.955662 1.57369 0)
(0.856818 1.62962 0)
(0.754302 1.67953 0)
(0.648469 1.72316 0)
(0.539692 1.76027 0)
(0.428368 1.79062 0)
(0.314909 1.81401 0)
(0.199745 1.83028 0)
(0.0833219 1.83926 0)
(-0.0339014 1.84083 0)
(-0.151452 1.8349 0)
(-0.268848 1.82141 0)
(-0.385595 1.80031 0)
(-0.501196 1.77161 0)
(-0.615146 1.73534 0)
(-0.726939 1.69156 0)
(1.52618 1.04407 0)
(1.46082 1.13371 0)
(1.38992 1.21961 0)
(1.31366 1.30139 0)
(1.23226 1.37871 0)
(1.14597 1.45122 0)
(1.05506 1.5186 0)
(0.959812 1.58053 0)
(0.860539 1.6367 0)
(0.757577 1.68683 0)
(0.651284 1.73065 0)
(0.542036 1.76791 0)
(0.430228 1.79839 0)
(0.316277 1.82189 0)
(0.200613 1.83822 0)
(0.0836836 1.84724 0)
(-0.0340486 1.84882 0)
(-0.15211 1.84287 0)
(-0.270015 1.82932 0)
(-0.387269 1.80813 0)
(-0.503372 1.7793 0)
(-0.617817 1.74287 0)
(-0.730095 1.6989 0)
(0.969823 0.57753 0)
(1.14253 0.680379 0)
(1.22309 0.728352 0)
(1.27628 0.760024 0)
(1.31609 0.78373 0)
(1.34794 0.802698 0)
(1.37451 0.818521 0)
(1.39732 0.832102 0)
(1.4173 0.844005 0)
(1.4351 0.854604 0)
(1.45115 0.86416 0)
(1.46576 0.872863 0)
(1.47918 0.880856 0)
(1.4916 0.888248 0)
(1.50315 0.895125 0)
(1.51395 0.901556 0)
(1.52409 0.907596 0)
(1.53366 0.913293 0)
(1.54271 0.918683 0)
(1.5513 0.9238 0)
(1.55948 0.92867 0)
(1.56728 0.933317 0)
(1.57474 0.937762 0)
(1.5819 0.942021 0)
(1.58877 0.946112 0)
)
;
    }
    sideWalls
    {
        type            noSlip;
    }
    outlet
    {
        type            zeroGradient;
    }
    topWall
    {
        type            noSlip;
    }
    procBoundary0to1
    {
        type            processor;
        value           uniform (0 0 0);
    }
    procBoundary0to2
    {
        type            processor;
        value           uniform (0 0 0);
    }
    procBoundary0to6
    {
        type            processor;
        value           uniform (0 0 0);
    }
    procBoundary0to7
    {
        type            processor;
        value           uniform (0 0 0);
    }
}


// ************************************************************************* //
