/*--------------------------------*- C++ -*----------------------------------*\
  =========                 |
  \\      /  F ield         | OpenFOAM: The Open Source CFD Toolbox
   \\    /   O peration     | Website:  https://openfoam.org
    \\  /    A nd           | Version:  7
     \\/     M anipulation  |
\*---------------------------------------------------------------------------*/
FoamFile
{
    version     2.0;
    format      ascii;
    class       volScalarField;
    location    "4.5";
    object      nut;
}
// * * * * * * * * * * * * * * * * * * * * * * * * * * * * * * * * * * * * * //

dimensions      [0 2 -1 0 0 0 0];

internalField   nonuniform List<scalar> 
18630
(
0.000166049
0.000464697
0.000105682
0.000400387
0.000908807
0.000616308
0.000221566
0.000235026
8.78401e-05
0.000517565
0.000357156
0.000634722
0.000595341
0.000624173
0.000283441
0.000118519
0.00037066
0.000308857
0.000124005
0.000142906
0.000905535
0.000712108
0.00135444
0.000734013
0.000747096
0.000305536
0.000598513
0.000443138
0.000143872
0.000310051
0.000271526
8.34616e-05
0.000168933
0.000192276
0.000234621
0.000800441
0.000803002
0.000657551
0.000923397
0.00146911
0.000848991
0.00108524
0.000623477
0.000754024
0.000231013
0.000451182
0.000347464
0.000291084
0.000420901
0.000226888
0.000190963
7.42612e-05
0.000325235
5.50919e-05
9.26116e-05
0.000139449
0.00101414
0.00112248
0.00129645
0.00102095
0.000632978
0.000801569
0.00212371
0.00100037
0.000702115
0.000833449
0.00114595
0.000734065
8.09935e-05
0.000439974
0.000507528
0.00029856
0.000214371
0.000455582
0.000411227
0.000446726
0.000431584
0.000337076
0.00037459
0.000111438
0.000136033
0.000174518
0.000150074
0.000184883
0.000866392
0.000703998
0.000910464
0.000797537
0.00099672
0.00119265
0.000693555
0.000647184
0.000832677
0.00108736
0.00123259
0.00100322
0.000850271
0.000718584
0.00109415
0.00100186
0.000610778
0.000602672
0.00079171
0.000341496
0.00069626
0.000258139
0.000317712
0.000450983
0.000326202
0.00072745
0.000515505
0.000695547
0.000334347
0.000225946
0.000403218
0.00014229
7.00653e-05
0.000116775
0.000212946
0.000198705
0.000793806
0.000805531
0.000912025
0.000677243
0.00071366
0.00045855
0.000675052
0.000769255
0.00143435
0.00129349
0.00128839
0.000752887
0.000737723
0.000525593
0.00084476
0.00230611
0.00127885
0.000860977
0.000871881
0.000862831
0.000722313
0.000680732
0.000571478
0.000524716
0.000394476
0.000482321
0.00104486
0.000559297
0.000335235
0.000356287
0.000272946
0.000290901
0.000745162
0.000632057
0.000570448
0.000289685
0.000302706
0.000170458
0.000135767
0.000153915
9.29906e-05
0.000142368
0.000265182
0.00013356
0.000170174
0.000786357
0.000798931
0.00103697
0.00079933
0.000939839
0.0006078
0.000920498
0.000803567
0.000694551
0.000924202
0.000989301
0.000916699
0.000703083
0.000796063
0.000898683
0.000512343
0.00069573
0.000256166
0.000860946
0.000963659
0.000965769
0.000698316
0.000965094
0.00085257
0.000738297
0.00116933
0.000674862
0.00068819
0.000677497
0.00052018
0.000484531
0.000429743
0.000526498
0.00124107
0.000542042
0.000460217
0.000262201
0.000380865
0.000247529
0.000335996
0.000215728
0.00061766
0.000538552
0.000286024
0.00039593
0.000518594
0.000101486
0.000123155
0.000143297
0.00012087
0.000208756
0.000336739
0.000128374
0.000170323
0.000152885
0.000498949
0.000651914
0.000403897
0.000626419
0.000747446
0.000857517
0.000867998
0.000905265
0.000951742
0.00100634
0.000956601
0.000909608
0.000922125
0.000451094
0.000575602
0.000691109
0.000986841
0.00123552
0.00133884
0.00103785
0.000952127
0.000561374
0.000415627
0.000941921
0.000673963
0.000913661
0.000685188
0.000676922
0.000450482
0.00111944
0.000656103
0.00074513
0.00131359
0.000522292
0.00097678
0.000869898
0.000707808
0.000498867
0.000305278
0.000269121
0.000412041
0.000563209
0.000620102
0.000316775
0.000476757
0.000372326
0.00047582
0.000154605
0.000501951
0.000163963
0.000532818
0.000443932
0.000276794
0.000378327
0.000329234
0.000201376
7.47802e-05
0.000123547
0.000134278
0.000241517
0.000207293
0.000490632
0.000311884
0.000137827
0.000168072
0.00018056
0.000650209
0.000474115
0.000140311
0.000384362
0.000459619
0.000438475
0.000246733
0.000769795
0.000691108
0.000505244
0.00063469
0.000530524
0.000958023
0.000974325
0.000884757
0.000738313
0.00103483
0.0010765
0.000737831
0.000643604
0.000781923
0.000931916
0.000868899
0.00109035
0.00119603
0.000965041
0.00129777
0.000466467
0.00117678
0.000627328
0.000538699
0.00088699
0.000731665
0.000508144
0.000714268
0.000680157
0.000538652
0.00108813
0.000784585
0.000873177
0.000980936
0.000508252
0.000471128
0.000951847
0.00114468
0.000694497
0.000451682
0.000871236
0.00078839
0.000585791
0.000544898
0.000303459
0.000456033
0.000306221
0.000439544
0.000462092
0.000639852
0.000272924
0.000482713
0.000235326
0.000490179
0.000532023
0.000335783
0.000328818
0.000434743
0.000363541
0.00055017
0.000143689
0.000249433
0.000176491
0.000345296
0.000186683
0.000424816
0.000222543
0.000178555
0.000144918
0.000152244
6.25934e-05
0.000420839
0.000420885
0.000310814
0.000307824
0.000175873
0.000496403
0.000435037
0.000626876
0.000603209
0.000686385
0.000369262
0.000249279
0.000569761
0.000718053
0.000561899
0.000534276
0.000369638
0.000643064
0.00104828
0.00103851
0.00054311
0.000548645
0.000873104
0.000799922
0.000856127
0.000940511
0.000749815
0.000561579
0.000462364
0.000573225
0.00111779
0.0012827
0.00123534
0.000994701
0.00164522
0.00112574
0.000432713
0.000817442
0.000638532
0.00105239
0.0011208
0.00092065
0.000478524
0.000689465
0.000684871
0.000681583
0.00075523
0.00139313
0.00237672
0.000840046
0.00092991
0.000566309
0.000444489
0.00107912
0.000488803
0.000940543
0.000523046
0.000818916
0.000390864
0.00101441
0.0008018
0.000539496
0.000354549
0.000373278
0.000361359
0.000687497
0.000630314
0.000547769
0.000767072
0.000333593
0.000342868
0.000765302
0.000607499
0.000601893
0.000351209
0.000336103
0.000421906
0.000336135
0.000301973
0.000384661
0.000198862
0.0002967
0.000185213
0.000359811
0.000160729
0.000277023
0.000103527
0.00018409
0.00015197
0.00018215
5.34505e-05
0.000201868
0.000424256
0.000333733
0.000408006
0.000466027
0.000690676
0.00033637
0.000448902
0.000628476
0.000551444
0.000540342
0.000559504
0.000758256
0.0005988
0.000605015
0.000304343
0.00022045
0.000614395
0.000394052
0.000781891
0.000535438
0.000502025
0.000611632
0.000767889
0.000282918
0.0010569
0.001125
0.000935554
0.000958104
0.000650944
0.000422396
0.00078128
0.000543249
0.000805639
0.000796858
0.000532972
0.000410072
0.000634738
0.000833892
0.00125961
0.00115908
0.00125871
0.00117639
0.000630798
0.00112364
0.000604091
0.000593673
0.000653614
0.000370735
0.000566292
0.00123578
0.000788166
0.00103456
0.000562941
0.000759778
0.000489592
0.000753421
0.000612109
0.00133782
0.00150235
0.00137973
0.00114245
0.00102343
0.000559041
0.000713454
0.000809639
0.000640988
0.000609776
0.00069451
0.000325431
0.000990751
0.000533571
0.000592842
0.000537573
0.000579485
0.000492339
0.000356148
0.000513805
0.000766712
0.000662749
0.000567376
0.000586936
0.000534413
0.000612948
0.000343568
0.000483647
0.000510076
0.000485452
0.000357071
0.000318428
0.000376376
0.000319508
0.000247982
0.00014522
0.000298237
0.000180702
0.000237627
0.000158882
0.000198259
0.000212609
0.000374103
0.000194657
0.000157698
0.000184969
0.000128799
5.94655e-05
0.000161022
8.746e-05
0.00043939
0.000379695
0.000328906
0.000311664
0.000337956
0.00043348
0.000339439
0.00053995
0.000475293
0.00043137
0.000687342
0.000517876
0.000293605
0.000257326
0.000980741
0.000957667
0.000808073
0.000696814
0.000972917
0.000405435
0.000526687
0.000354865
0.000312626
0.000286697
0.000600958
0.000468698
0.000254225
0.000285602
0.000457918
0.000329934
0.000817934
0.000931644
0.000220391
0.000704564
0.00120404
0.000787653
0.000684951
0.00085863
0.000663737
0.000641188
0.000814189
0.000595427
0.000984038
0.00109221
0.000608447
0.00061686
0.000551816
0.000850721
0.000691195
0.00134613
0.000938657
0.000587093
0.000713909
0.00104988
0.000979554
0.000558954
0.000841783
0.00066687
0.000581727
0.000320083
0.000470904
0.000373717
0.000798428
0.000804429
0.000602855
0.000748196
0.000582505
0.000706279
0.000283508
0.000878411
0.00131644
0.00127683
0.00154123
0.00101792
0.000915345
0.000561892
0.000602725
0.000793703
0.000806523
0.000473333
0.000662435
0.000880366
0.000407166
0.000765541
0.00129857
0.000522986
0.000526922
0.000464211
0.000415346
0.000469266
0.000534758
0.000709045
0.000655101
0.000494212
0.000252593
0.000589481
0.000357219
0.000584702
0.000337568
0.000131685
0.000277499
0.000561021
0.000368024
0.000358651
0.000526808
0.000590189
0.000265186
0.00018007
0.000359206
0.00019175
0.000235254
0.000207044
0.000156817
0.00036251
0.000183119
0.000479668
0.000283804
0.000126863
0.000174935
0.00014165
0.000131575
1.32958e-05
8.42687e-05
3.8214e-05
0.000414566
0.00039884
0.000496051
0.00051676
0.000415711
0.000471652
0.000265258
0.000228762
0.000406989
0.00065948
0.000559758
0.000544853
0.000478277
0.000396923
0.000457103
0.000378658
0.000486218
0.000593107
0.000642164
0.00043014
0.000256613
0.000521707
0.00040971
0.00075512
0.00109555
0.000766808
0.000588834
0.000107456
0.000421362
0.000894792
0.000805047
0.00088113
0.00060146
0.000662879
0.000454834
0.000249601
0.000386216
0.000603878
0.00047462
0.000869884
0.000766672
0.000701938
0.000552194
0.000699898
0.000529474
0.000561315
0.000824391
0.000828361
0.000590961
0.000458573
0.000679682
0.000536707
0.000795442
0.000714058
0.000879215
0.000887534
0.000754614
0.000569269
0.000956699
0.000679595
0.00080968
0.000228781
0.000837875
0.000494217
0.000598247
0.000464923
0.000720709
0.000918925
0.000645668
0.000712627
0.000790078
0.000506259
0.00131326
5.11055e-05
0.00112858
0.000278338
0.000693686
0.00059578
0.000675838
0.000721278
0.000797226
0.000448982
0.000750114
0.00074855
0.000770741
0.00130792
0.00127929
0.000719762
0.000984045
0.000570747
0.000663055
0.000829528
0.000631613
0.000488261
0.00115318
0.000931592
0.000716463
0.000388804
0.000619459
0.000772432
0.000581496
0.000646079
0.000466825
0.000706953
0.000316742
0.000493454
0.000630499
0.00055861
0.000459192
0.000371428
0.000527483
0.000678953
0.000295908
0.000542268
0.000294753
0.000285171
0.000458193
0.000509206
0.00045586
0.000382184
0.000498842
0.000690647
0.000239684
0.000156789
0.000268903
0.000500171
0.000412456
0.000388198
0.000225456
0.000182436
0.000336744
0.000172637
0.000491304
0.00019618
0.000175302
0.000187139
9.23458e-05
0.000135622
0.000140621
7.41776e-05
0.000122709
0.000239709
0.000337583
0.0004747
0.000410213
0.000362969
0.000383908
0.000495755
0.000334234
0.000412179
0.000460987
0.000429339
0.000406633
0.000281751
0.000411628
0.000569879
0.000624895
0.000580155
0.000465827
0.000285369
0.000542138
0.000475306
0.000628261
0.000264794
0.000418727
0.000693606
0.000681263
0.000798329
0.000669815
0.00108455
0.000544967
0.000588512
0.000211862
8.24179e-05
0.000733593
0.00069792
0.000735059
0.000766099
0.000262991
0.000506299
0.000644519
0.000765613
0.00101687
0.000685558
0.00064664
0.00051349
0.000386715
0.000529332
0.000926249
0.000742376
0.000778189
0.000690126
0.00078344
0.000808841
0.000571064
0.000726729
0.000641925
0.000471124
0.000676319
0.00109678
0.00060416
0.000833499
0.000612331
0.000747481
0.000642751
0.000479259
0.000647747
0.000596612
0.000718771
0.000638895
0.000926866
0.000919133
0.000895936
0.000542003
0.000859596
0.000551187
0.00077739
0.00080203
0.000357163
0.000253934
0.000602205
0.000929076
0.000818933
0.000653962
0.000775662
0.000536598
0.000704821
0.000446357
0.00122821
0.000913465
0.000690588
0.000893783
0.000939172
0.000286415
0.000594173
0.000640301
0.000531563
0.00118706
0.000583792
0.000959335
0.000660839
0.000992747
0.00122807
0.000684612
0.000656503
0.000684541
0.000658871
0.000716228
0.000705672
0.000476284
0.000733009
0.00118292
0.000835744
0.000578031
0.000712972
0.000363818
0.000675457
0.000948827
0.000485904
0.000582727
0.00047117
0.000546694
0.0002258
0.000454371
0.000654851
0.000564633
0.000407561
0.000283689
0.000419417
0.000789727
0.000731799
0.000336065
0.000391422
0.000336928
0.000373476
0.000690862
0.000547981
0.000244934
0.000352667
0.000335741
0.000430694
0.000255769
0.000172898
0.000265389
0.000456775
0.000253
0.000525914
0.000400954
0.00027738
0.000140356
0.000220927
0.000306891
0.0004407
0.000124994
0.000164845
0.000169059
9.02727e-05
8.46643e-05
0.000166352
8.48435e-05
0.000149246
0.000219002
0.000187688
0.000444954
0.000350141
0.000365797
0.000562798
0.00038088
0.000441304
0.000243005
0.000374116
0.00037912
0.000420935
0.000334983
0.000261076
0.000278613
0.000280884
0.000460285
0.00050892
0.000335116
0.000554613
0.000440733
0.000604562
0.000389091
0.000417352
0.000494656
0.000625985
0.000475679
0.000429553
0.000466139
0.00037593
0.000387222
0.000458041
0.000492488
0.000666341
0.000947414
0.000790256
0.000771066
0.000891152
0.000573364
0.000635892
0.000532364
0.000538908
0.000856973
0.000502981
0.000376266
0.000845431
0.000418909
0.000698694
0.000693918
0.000698408
0.000516185
0.000415931
0.000283537
0.000526407
0.000542511
0.000596398
0.000533343
0.000346837
0.000359933
0.000559556
0.00102579
0.000882464
0.000850258
0.000820533
0.000582496
0.000703446
0.000433783
0.000901746
0.000728107
0.000504094
0.000442009
0.000582302
0.000712011
0.000557826
0.000809498
0.000770988
0.000544185
0.000331379
0.000892601
0.00075085
0.000810656
0.00109286
0.000626328
0.000546399
0.000736782
0.000666359
0.000530546
0.000531331
0.00061588
0.000383894
0.000657972
0.000823725
0.00055069
0.000438012
0.00185343
0.000384256
0.000677197
0.000638832
0.000880844
0.000588985
0.000689274
0.00032606
0.000536111
0.000797767
0.00163589
0.000789197
0.000659204
0.00038904
0.000363709
0.000539144
0.00068328
0.000654916
0.000720984
0.000576344
0.000907044
0.000711071
0.000436274
0.00102778
0.000844044
0.00103661
0.000545384
0.000693183
0.000774725
0.000885438
0.000652396
0.000471279
0.000894241
0.0010627
0.000798069
0.000619138
0.000647122
0.000432302
0.0006041
0.000583142
0.000574876
0.000563802
0.000501455
0.000455028
0.000658533
0.000426265
0.000405975
0.000608948
0.000526364
0.000364751
0.000183393
0.000545179
0.000697895
0.000389047
0.000545437
0.000455086
0.000349626
0.000247083
0.000320342
0.000558743
0.000548325
0.000299302
0.000481874
0.00037198
0.000379806
0.000248498
0.0002668
0.000281644
0.000423011
0.000351211
0.000352582
0.000447808
0.000277997
0.000128941
0.000119006
0.000242259
0.000256789
0.000419528
9.5586e-05
0.000171768
0.000293787
9.03153e-05
5.98115e-05
3.98963e-05
0.000100436
9.889e-05
0.000191543
0.000220811
0.000148602
0.000740634
0.000494513
0.000455161
0.000350265
0.000312612
0.00040076
0.000462569
0.000429793
0.000336553
0.000488198
0.000329418
0.000415399
0.000433169
0.000521954
0.000363369
0.000492439
0.000332008
0.00035173
0.00033697
0.000403832
0.00063906
0.000661389
0.000553667
0.000548975
0.000484748
0.000640177
0.000643477
0.000580745
0.000452814
0.000293829
0.000629176
0.000613206
0.000462003
0.000414505
0.000487867
0.000659021
0.000422096
0.0005661
0.000481424
0.000346001
0.000489929
0.000455434
0.00052017
0.000945816
0.000581433
0.000403701
0.00060678
0.000572468
0.000313478
0.000547374
0.000998764
0.000757198
0.000682014
0.000340295
0.000430062
0.000367177
0.000576239
0.000535514
0.000481699
0.000617431
0.000650993
0.000852348
0.000624769
0.000419241
0.000473668
0.000439375
0.000506677
0.000438429
0.000523509
0.000623579
0.000757423
0.000966098
0.000447029
0.000415473
0.000517734
0.000723475
0.000524036
0.000382553
0.000993063
0.000352404
0.000554848
0.000889503
0.000693928
0.000803499
0.000396837
0.000776733
0.000541909
0.000449154
0.000394215
0.000276146
0.00129446
0.000546254
0.00058705
0.000679022
0.000527594
0.000780601
0.000669114
0.000611131
0.000619009
0.000574437
0.000533153
0.000332434
0.000263645
0.000857849
0.000661404
7.75388e-05
0.000550234
0.00024425
0.00112361
0.000648523
0.000746901
0.000743883
0.000657894
0.000240885
0.000495717
0.000615177
0.000334028
0.000689299
0.000829385
0.00075356
0.000308697
0.000489969
0.000823629
0.000571564
0.000685178
0.00061376
0.000726206
0.000802832
0.000855244
0.000605872
0.000851834
0.000759188
0.000794227
0.000782273
0.00104371
0.000746959
0.000736675
0.000706338
0.000807731
0.000697674
0.000511638
0.00101352
0.000969374
0.000820245
0.000438065
0.000812332
0.000715079
0.000781271
0.000632227
0.000610585
0.000403498
0.000454481
0.00044916
0.000433458
0.000708264
0.000404298
0.000473393
0.000518671
0.00051061
0.000258043
0.0002828
0.00052231
0.000716271
0.000413161
0.000292805
0.000391783
0.000327546
0.000330681
0.000332765
0.000225117
0.000510402
0.000481861
0.000540797
0.000278219
0.000470384
0.000306891
0.000235805
0.000160329
0.000279357
0.000367748
0.00024577
0.000354227
0.00043991
0.000310077
0.0003799
0.000120476
0.000139717
0.000267675
0.000238209
0.000375102
0.000153882
0.000140003
0.000322395
0.000132839
0.000108254
0.000153288
8.3036e-05
0.000107041
0.00024462
0.000244431
0.000196515
0.000180404
0.00103878
0.000605115
0.000576185
0.00045397
0.00037094
0.00058274
0.000502818
0.000338679
0.000389019
0.000384311
0.000629928
0.000393401
0.000319806
0.000404905
0.000509037
0.000448121
0.000369289
0.00034647
0.000404724
0.00056635
0.000241993
0.000381381
0.000557746
0.000245163
0.000279877
0.000366109
0.000453361
0.000537426
0.000602457
0.000732266
0.000221818
0.000351499
0.000508258
0.000527753
0.00049433
0.000624565
0.000596058
0.000512585
0.00050304
0.000261667
0.000385727
0.000418385
0.000520895
0.000791834
0.000739198
0.000683682
0.000647612
0.000469231
0.000410681
0.000405753
0.000529636
0.000229176
0.00030217
0.0006048
0.000469238
0.000608221
0.000536578
0.000701233
0.000384887
0.000573986
0.000917772
0.000363538
0.000800384
0.000866302
0.000552088
0.000546963
0.000448933
0.000368315
0.000669949
0.000534919
0.000430569
0.000864437
0.000792379
0.000819878
0.000876884
0.000748082
0.00018554
0.000570166
0.000797911
0.000340096
0.000661548
0.000721271
0.0010129
0.0005281
0.000680266
0.000588043
0.000454925
0.000644685
0.000409458
0.000254896
0.000266575
0.000303068
0.000515099
0.000503892
0.000689533
0.000980267
0.000926408
0.000534863
0.000561377
0.000746102
0.000469245
0.000455266
0.000370922
0.000356447
0.000259972
0.000866931
0.000800878
0.000793768
0.000560597
0.000940666
0.000712839
0.000990555
0.000620964
0.000655184
0.000819216
0.000433225
0.000308994
0.000381576
0.000386112
0.000849397
0.000674051
0.000159841
0.000428732
0.000558351
0.000936032
0.000455518
0.000722153
0.000621116
0.000757791
0.000492035
0.000529484
0.000589314
0.000269726
0.000698852
0.00127403
0.000744174
0.000735727
0.000696233
0.000626672
0.000466736
0.000704532
0.000653183
0.000687354
0.00065721
0.000796357
0.000907172
0.00044014
0.00094053
0.000569964
0.000494239
0.0010832
0.000428241
0.000727723
0.00057062
0.000619859
0.000672614
0.000829699
0.000774423
0.000387149
0.000745346
0.000952032
0.000715446
0.000262348
0.00110797
0.000728574
0.001305
0.000501669
0.000447749
0.000506048
0.000405598
0.00041989
0.000833849
0.000386908
0.00044573
0.000199397
0.00043847
0.000595063
0.000669534
0.00024604
0.000366025
0.000211896
0.000640833
0.000511608
0.000712285
0.000689448
0.000421086
0.000281225
0.000261773
0.000347728
0.0003068
0.000448313
0.000434292
0.000293442
0.000451519
0.000350934
0.000286331
0.000327365
0.000195627
0.000191134
0.000266121
0.000158693
0.000401487
0.000406034
0.000271662
0.000280863
0.000151251
0.000390499
0.000172375
0.000534662
0.000377413
0.000326655
0.000248409
9.94886e-05
0.000230307
0.000101016
0.000103928
0.000114897
7.93124e-05
0.000179034
0.000209711
0.000255164
0.000190767
0.000160026
0.000136111
0.00132948
0.000835167
0.000779074
0.000510677
0.000432104
0.000705858
0.000400708
0.000388439
0.000401955
0.000305584
0.000601402
0.000318817
0.000414788
0.0004308
0.000440223
0.000715353
0.000447933
0.000334738
0.000309075
0.000524063
0.000335598
0.000455184
0.000431331
0.000359532
0.00026934
0.000412507
0.000427745
0.000332162
0.000316758
0.000546823
0.000528313
0.00040378
0.000455958
0.000367806
0.000432332
0.000507703
0.000584785
0.000685267
0.000357979
0.000476341
0.000301501
0.000330304
0.000312809
0.000301896
0.0003116
0.000272439
0.000642623
0.000412705
0.000476582
0.000259618
0.000345851
0.000400361
0.000565554
0.000611181
0.00039402
0.000677495
0.000752689
0.000665726
0.000589585
0.000458546
0.000446962
0.000422611
0.00043655
0.000929557
0.000415591
0.000204307
0.000512675
0.000450421
0.000506766
0.000235105
0.000443718
0.000797683
0.000863073
0.000827609
0.000699691
0.000417109
0.000692887
0.000480264
0.000424946
0.000372559
0.000560822
0.000394148
0.000525997
0.000431209
0.000131706
0.000394252
0.000666916
0.000797669
0.000475766
0.000494746
0.000625601
0.000319122
0.000369818
0.000291906
0.000396934
0.000332885
0.000516586
0.000339744
0.00065759
0.000512457
0.000334385
0.000920522
0.000531699
0.000259212
0.000209029
0.00030317
0.000449728
0.000350284
0.000582093
0.00038345
0.000477492
0.000691336
0.000409825
0.00065751
0.000628111
0.000500885
0.000356871
0.000282796
0.000206825
0.000332867
0.000300998
0.000537944
0.000590194
0.000510781
0.000687031
0.000695039
0.000490905
0.000651497
0.000661107
0.000570755
0.000482476
0.000412497
0.0003687
0.000251436
0.00058068
0.000367577
0.00091053
0.000774411
0.000809803
0.000615757
0.00085347
0.000492169
0.00068692
0.000788439
0.000450609
0.000477654
0.000561975
0.000650515
0.000518076
0.000403191
0.000732235
0.00051737
0.000318246
0.000412842
0.0004636
0.000815738
0.000486657
0.000545218
0.000689807
0.000656456
0.000468822
0.00065718
0.000837856
0.000854465
0.000590751
0.000683373
0.000998389
0.000485737
0.000542521
0.000660199
0.000867984
0.000593242
0.000506396
0.000874064
0.000724593
0.000733702
0.000533301
0.000518183
0.000870811
0.00103704
0.000519545
0.000420867
0.000542946
0.000506061
0.000941023
0.000497253
0.00153656
0.000434751
0.000536607
0.000341269
0.00045478
0.000776439
0.00034477
0.000414916
0.000351997
0.000551592
0.000385749
0.000329392
0.000282724
0.000272237
0.000275831
0.000596615
0.000439719
0.000480821
0.000673644
0.000770017
0.000451747
0.00029857
0.000205704
0.00024107
0.000450229
0.00030987
0.00052314
0.00030648
0.000497976
0.000260466
0.000247138
0.000339729
0.000192943
0.000140441
0.000222685
0.000420898
0.000419014
0.000414821
0.00033054
0.000447324
0.000235166
0.000109677
8.79284e-05
0.000245663
0.000338881
0.000363787
0.000309504
0.00016548
0.000235004
0.000502783
9.43957e-05
0.000104185
0.000111192
0.000107533
0.000332086
0.00019768
0.000255756
0.000136214
0.000123102
8.92999e-05
0.000200396
0.00104447
0.00124157
0.00114197
0.000888211
0.000862737
0.000810873
0.000598506
0.000507769
0.000632248
0.000547897
0.000457235
0.000362184
0.000364609
0.000421446
0.000389605
0.000453135
0.000428034
0.000325407
0.000413253
0.000494777
0.000474899
0.000500737
0.000546128
0.00038528
0.000334269
0.000443335
0.000304483
0.000334732
0.00033225
0.000393429
0.00052656
0.000326902
0.000281863
0.000406761
0.000254869
0.000384355
0.000357794
0.000417022
0.000590156
0.000421463
0.00046988
0.000592374
0.000388799
0.000315886
0.000550182
0.000604739
0.000568938
0.000332858
0.000337153
0.000490193
0.000331545
0.000347625
0.000321785
0.000537769
0.000400476
0.000715039
0.000624274
0.000440664
0.000624535
0.000423098
0.000341699
0.000308529
0.000433077
0.000664731
0.000322353
0.00067489
0.000676758
0.0006061
0.000623428
0.000833943
0.000553571
0.000292959
0.000277674
0.000160347
0.000374221
0.000825387
0.000471056
0.000422608
0.000486212
0.000461139
0.000384734
0.000397232
0.000303187
0.000335474
0.000600461
0.000490621
0.000679468
0.000673663
0.000463222
0.00059625
0.000424568
0.000588964
0.000405734
0.000481632
0.000350579
0.000212017
0.000292177
0.000620457
0.000888561
0.000442739
0.000654043
0.000435633
0.00036593
0.000662809
0.000369917
0.000326991
0.000347558
0.000250028
0.000432265
0.000504308
0.000474165
0.000383463
0.000681169
0.000691035
0.000397645
0.000393138
0.00036348
0.000399874
0.000398511
0.000364484
0.000453614
0.000491981
0.000331326
0.000819208
0.000621369
0.000507501
0.0008295
0.000449989
0.000776818
0.000733766
0.000368455
0.000570815
0.000426064
0.000338948
0.000211186
0.000202705
0.000231106
0.000378219
0.000593351
0.000790221
0.000848485
0.00083388
0.00102551
0.000678211
0.000502953
0.000591701
0.00059712
0.000382608
0.000399905
0.000296774
0.000334422
0.000478892
0.000462162
0.000502828
0.00107291
0.000808762
0.000394077
0.000925471
0.000712851
0.000790679
0.000459856
0.000620927
0.000341667
0.00055284
0.000648507
0.000777902
0.000526892
0.000636197
0.000461112
0.000750587
0.0012651
0.000317504
0.0006432
0.00040099
0.000321438
0.000598246
0.000864111
0.000496221
0.000552321
0.000710374
0.000807254
0.000973048
0.000894723
0.000475863
0.000666441
0.00109454
0.000671602
0.000737297
0.000734566
0.000906289
0.00051296
0.000677801
0.000651004
0.000665848
0.000699489
0.000756073
0.00056636
0.000381154
0.000682553
0.0008273
0.000483712
0.000673311
0.000361246
0.00046898
0.00060351
0.000346959
0.00083732
0.000938577
0.000413412
0.000500658
0.000240107
0.000365
0.000471431
0.000447473
0.00055598
0.000374262
0.000576348
0.000543818
0.000424298
0.000166039
0.000357183
0.000284758
0.000518816
0.000419079
0.000312044
0.000641084
0.000579346
0.000501162
0.000417029
0.000690811
0.000238224
0.000253567
0.000729229
0.000295989
0.000540846
0.000359508
0.000368107
0.000505976
0.000235941
0.000281236
0.000187883
0.000179309
0.000260301
0.000348389
0.000410795
0.000454833
0.000425505
0.000320971
0.000562077
0.000185061
0.000451283
9.10448e-05
0.000142121
0.000427241
0.000234415
0.000332639
0.000177332
0.000264707
0.000148649
0.000120896
4.82826e-05
6.60985e-05
0.00010899
0.000178108
0.000204183
0.000230439
0.00015502
0.000151824
0.000118583
0.000206415
0.000254571
0.000430456
0.00255506
0.00136504
0.00095258
0.00130726
0.00129873
0.00133876
0.000664317
0.00070923
0.000716666
0.000875782
0.000556268
0.000494846
0.000477145
0.000501244
0.000503069
0.000536083
0.000513565
0.000388558
0.000278739
0.000223294
0.000325166
0.000553186
0.000605371
0.000301983
0.000391767
0.000298748
0.00037957
0.000527237
0.000524571
0.000475814
0.000343845
0.000303524
0.000370726
0.000416079
0.000442164
0.000380274
0.000230079
0.000444982
0.000383921
0.000298167
0.000379681
0.000499718
0.000397132
0.000410659
0.000295975
0.000154295
0.000322311
0.000517745
0.000503693
0.000421118
0.000335675
0.000532312
0.000283056
0.000311965
0.000533298
0.000510013
0.000532055
0.000370044
0.000316555
0.00026002
0.000395775
0.000468554
0.000366947
0.000708226
0.000445943
0.000555146
0.000864754
0.000614798
0.000377339
0.000515201
0.000626927
0.000494892
0.00038722
0.000436328
0.000339643
0.000296101
0.000286694
0.000556387
0.000575072
0.000304222
0.000575693
0.000528837
0.0004369
0.00030847
0.000314379
0.000419604
0.000537491
0.000697044
0.000212892
0.000410184
0.000470287
0.000442111
0.000410744
0.000518258
0.000446429
0.000468002
0.00025909
0.000306758
0.00065269
0.000667785
0.000476333
0.000417875
0.000585246
0.000669115
0.000426961
0.000253612
0.00046724
0.000489512
0.000291818
0.000389897
0.000314654
0.000288348
0.000695485
0.000704885
0.000466906
0.000776134
0.000430273
0.000452662
0.000447792
0.000446696
0.000329342
0.000390659
0.000539968
0.000146695
0.000438719
0.000488823
0.000710757
0.000201272
0.000899293
0.000673011
0.00041122
0.000629762
0.000335305
0.000354021
0.000287304
0.000307269
0.000383073
0.000333393
0.000308664
0.00034272
0.000956812
0.000922645
0.00103571
0.000560588
0.000621903
0.000713404
0.000680374
0.000471649
0.000442936
0.000310229
0.000364449
0.000197795
0.000327494
0.000349418
0.000445199
0.00041117
0.000343404
0.000668919
0.000657591
0.000947704
0.000909518
0.000720552
0.000562532
0.000561441
0.000595947
0.000562257
0.000408438
0.000315562
0.000472637
0.000395887
0.000481354
0.000575782
0.000801764
0.000549276
0.000477677
0.000482963
0.000448733
0.000467304
0.000605756
0.000479561
0.000565202
0.000543491
0.000741585
0.000795733
0.00066613
0.000689332
0.000654281
0.000608643
0.000757065
0.00106295
0.000573373
0.000707812
0.000557817
0.000608554
0.0007531
0.000552441
0.000397328
0.000581986
0.000483493
0.000685209
0.000849648
0.0009212
0.000711735
0.00033375
0.000426823
0.000712389
0.000511313
0.00096518
0.000968636
0.00144827
0.000791039
0.000561921
0.000727623
0.000558866
0.000465437
0.000689765
0.000719929
0.000575248
0.000636143
0.000746268
0.00052101
0.000630483
0.000853781
0.000416467
0.00054552
0.000942143
0.000445475
0.000652787
0.000816881
0.00101607
0.00033095
0.000630213
0.000292478
0.00038955
0.000460164
0.000437662
0.000711439
0.000470185
0.000403121
0.000449898
0.000289501
0.000134378
0.000483756
0.000390999
0.000461865
0.000855719
0.000383597
0.000533431
0.000236201
0.000360058
0.000277507
0.000426128
0.000634121
0.000229828
0.00024559
0.000400873
0.000253469
0.000461845
0.000377095
0.000277016
0.000386357
0.000272877
0.000204071
0.000337199
0.000284221
0.000318466
0.000268419
0.000398232
0.000457361
0.000465754
0.000319351
0.000525931
0.000602155
0.000415595
0.000242159
0.000256166
0.000125849
9.22444e-05
0.000202418
0.000250772
0.000360553
0.000228864
0.000115314
0.000143098
8.14502e-05
6.58045e-05
6.62424e-05
0.000128393
0.000292633
0.000247132
0.000272266
0.000202728
0.000160969
0.000124284
0.00022955
0.000307071
0.000291071
0.00017007
0.00255462
0.00232596
0.00141907
0.00115437
0.0013137
0.00124187
0.00131754
0.00140344
0.00135538
0.000613403
0.000670066
0.000814227
0.000998371
0.000837673
0.000653494
0.000510338
0.00053269
0.000411021
0.000496241
0.000456841
0.000475793
0.000632484
0.000451625
0.000333143
0.000155604
0.000345913
0.000459011
0.000485711
0.000788651
0.000545354
0.000392019
0.000333683
0.000470147
0.00047112
0.000450056
0.000533633
0.000646698
0.00041207
0.000317008
0.00056
0.000537336
0.000393931
0.000422204
0.000331681
0.000241181
0.000286412
0.000481081
0.000329705
0.000414641
0.000347634
0.000342205
0.000347862
0.000258199
0.00032317
0.000317128
0.000320383
0.000573263
0.000637852
0.000560719
0.000211019
0.00036376
0.000356922