/*--------------------------------*- C++ -*----------------------------------*\
  =========                 |
  \\      /  F ield         | OpenFOAM: The Open Source CFD Toolbox
   \\    /   O peration     | Website:  https://openfoam.org
    \\  /    A nd           | Version:  7
     \\/     M anipulation  |
\*---------------------------------------------------------------------------*/
FoamFile
{
    version     2.0;
    format      ascii;
    class       volScalarField;
    location    "4.5";
    object      p;
}
// * * * * * * * * * * * * * * * * * * * * * * * * * * * * * * * * * * * * * //

dimensions      [0 2 -2 0 0 0 0];

internalField   nonuniform List<scalar> 
18630
(
-63.1811
-64.4541
-63.0368
-61.6684
-66.0871
-64.225
-63.5356
-62.8478
-61.6588
-60.237
-65.4276
-65.8801
-63.7521
-63.9449
-63.3117
-62.5604
-62.6719
-61.6614
-60.2448
-59.1704
-60.5141
-65.05
-63.0531
-65.8044
-63.6784
-62.6729
-63.6943
-63.0684
-62.3715
-60.5141
-62.5267
-61.7028
-60.2607
-59.1591
-57.5483
-57.7781
-60.1676
-61.0058
-64.3857
-62.5501
-61.8834
-65.714
-63.5927
-62.4591
-61.2256
-63.5305
-62.8661
-62.0736
-60.2731
-59.0913
-62.4112
-61.6742
-60.3043
-59.1464
-57.541
-56.3183
-56.3359
-57.0919
-57.0848
-59.8066
-60.7462
-59.988
-63.8073
-62.234
-61.5319
-60.6046
-65.6328
-63.465
-62.2133
-60.9243
-59.5358
-63.4289
-62.6724
-61.8026
-60.0172
-58.7317
-57.3573
-62.2926
-61.5636
-60.3541
-59.1106
-57.5142
-56.2465
-55.8985
-54.4588
-55.7393
-55.7472
-56.9121
-56.8959
-57.1314
-59.5891
-60.4343
-59.6767
-58.5976
-63.4969
-62.023
-61.193
-60.1966
-58.8912
-65.5604
-63.3243
-61.924
-60.5267
-59.1545
-57.477
-63.3735
-62.4898
-61.5173
-59.7878
-58.3932
-57.184
-55.993
-62.1431
-61.4503
-60.3391
-59.0609
-57.4781
-56.1868
-55.8336
-54.986
-52.8325
-54.0721
-53.7532
-55.2509
-55.3529
-54.9899
-56.8215
-56.7185
-56.6635
-56.6411
-59.3783
-60.1417
-59.334
-58.2518
-56.5425
-63.4533
-61.6575
-60.8718
-59.8627
-58.4002
-57.2046
-65.2107
-63.1614
-61.7052
-60.1066
-58.7988
-57.0868
-55.623
-63.3249
-62.3117
-61.2282
-59.5854
-58.0833
-57.0027
-55.7512
-54.7772
-61.9377
-61.3732
-60.3013
-58.9926
-57.4096
-56.1147
-55.7666
-54.9338
-54.1814
-51.436
-52.476
-52.3377
-53.7218
-53.5194
-53.1675
-54.8485
-55.1182
-54.731
-54.105
-56.6038
-56.4612
-56.5205
-56.301
-55.2924
-58.9472
-59.7799
-59.024
-57.7373
-55.9949
-56.7349
-63.2831
-61.3269
-60.4575
-59.4962
-57.9222
-56.7016
-55.1021
-64.7479
-62.7349
-61.4714
-59.7021
-58.4259
-56.7171
-55.3018
-53.9897
-63.2771
-62.0852
-60.9852
-59.3807
-57.8122
-56.8192
-55.524
-54.5799
-53.9309
-61.7001
-61.3338
-60.2449
-58.9256
-57.3203
-56.0849
-55.6922
-54.8928
-54.1124
-53.8938
-50.0304
-51.0998
-51.0596
-52.1075
-52.0956
-51.8755
-53.3813
-53.3045
-52.9709
-52.9757
-54.5637
-54.8413
-54.5237
-53.9577
-53.4581
-56.4733
-56.1617
-56.2016
-55.8788
-54.9508
-54.5797
-58.9232
-59.3984
-58.5132
-57.1724
-55.4846
-56.0922
-54.7057
-62.8647
-61.1214
-60.0964
-59.1616
-57.3741
-56.195
-54.4503
-52.7934
-64.2905
-62.3104
-61.1324
-59.2972
-58.0392
-56.3713
-54.9662
-53.7777
-53.4805
-63.2042
-61.8214
-60.7599
-59.1537
-57.5996
-56.6217
-55.3136
-54.3912
-53.8142
-53.2311
-61.5857
-61.286
-60.1816
-58.849
-57.2271
-56.0661
-55.6144
-54.836
-54.053
-53.834
-53.7906
-48.9686
-49.8279
-49.8473
-50.9624
-50.7795
-50.7497
-51.8698
-51.8267
-51.7525
-51.623
-53.1157
-52.939
-52.6655
-52.526
-52.0791
-54.3493
-54.481
-54.266
-53.6987
-53.1217
-52.1483
-56.3158
-55.8556
-55.879
-55.4348
-54.651
-53.7596
-53.3807
-58.3648
-58.9143
-57.9935
-56.6535
-55.0684
-55.386
-54.1821
-52.538
-62.4272
-60.8745
-59.8004
-58.7287
-56.9022
-55.6859
-54.1054
-52.522
-52.2042
-63.8922
-62.068
-60.7028
-58.884
-57.6462
-55.9978
-54.7037
-53.5629
-53.2308
-52.3805
-63.0092
-61.5668
-60.5108
-58.9124
-57.4528
-56.3977
-55.0802
-54.2102
-53.6863
-53.115
-52.814
-61.5962
-61.2275
-60.1094
-58.7792
-57.1073
-56.0524
-55.5589
-54.784
-53.9856
-53.7749
-53.7635
-53.2555
-47.5215
-48.1123
-48.8543
-48.8594
-49.7643
-49.5925
-49.8418
-50.7667
-50.666
-50.4391
-50.4452
-51.7104
-51.5955
-51.5828
-51.3195
-50.9209
-52.8632
-52.4932
-52.3516
-52.1315
-51.8065
-51.4206
-54.025
-54.2597
-54.0729
-53.4256
-52.7746
-51.7281
-51.7976
-56.1119
-55.6568
-55.5524
-55.0665
-54.3455
-53.2285
-52.7195
-51.4669
-58.1801
-58.452
-57.5789
-56.1143
-54.6507
-54.7592
-53.7517
-52.0816
-51.1492
-62.1883
-60.2697
-59.3529
-58.2377
-56.4314
-55.1913
-53.7488
-52.259
-52.0648
-51.6311
-63.5296
-61.7499
-60.2679
-58.5091
-57.188
-55.6366
-54.4343
-53.3374
-53.0022
-52.2126
-51.6396
-62.7168
-61.3214
-60.287
-58.6853
-57.3396
-56.1617
-54.8277
-54.041
-53.5468
-53.0368
-52.7236
-52.5011
-61.4698
-61.1783
-60.0287
-58.6975
-56.9921
-56.0431
-55.5455
-54.7232
-53.9312
-53.7074
-53.7567
-53.2402
-52.796
-47.0521
-47.4934
-47.5445
-48.0869
-48.063
-48.7258
-48.6308
-48.822
-49.5571
-49.5341
-49.4947
-49.388
-50.5758
-50.4847
-50.2057
-50.1597
-49.8432
-51.6172
-51.4219
-51.2896
-51.1065
-50.6405
-50.2056
-52.5675
-52.2112
-51.9661
-51.8025
-51.4173
-50.9996
-50.783
-53.848
-54.1117
-53.836
-53.17
-52.4315
-51.5183
-51.3314
-50.4132
-55.8695
-55.3612
-55.2698
-54.6526
-54.0307
-52.8288
-52.1295
-51.0465
-50.367
-58.0066
-58.0697
-57.2339
-55.659
-54.2621
-54.1558
-53.1665
-51.6855
-50.8639
-50.6284
-61.5642
-59.8172
-58.9068
-57.7731
-55.8495
-54.727
-53.2516
-51.9978
-51.8785
-51.3028
-50.6183
-63.1385
-61.3247
-59.9973
-58.1447
-56.7114
-55.2991
-54.1803
-53.1883
-52.7537
-52.0255
-51.5609
-51.3599
-62.5294
-61.0741
-60.062
-58.4574
-57.2254
-55.9459
-54.5752
-53.8692
-53.4132
-52.9313
-52.658
-52.4736
-52.3001
-61.3333
-61.1512
-59.9366
-58.6205
-56.8847
-56.0353
-55.5497
-54.6051
-53.8795
-53.6218
-53.7625
-53.2253
-52.7817
-52.544
-46.3158
-46.6596
-47.0075
-47.0874
-47.4716
-47.4569
-47.5458
-47.9424
-47.965
-47.9657
-48.4223
-48.564
-48.6398
-48.3468
-49.3813
-49.3659
-49.1995
-49.3738
-48.9144
-50.2052
-50.1512
-50.0334
-49.9731
-49.5663
-49.332
-51.3925
-51.1323
-51.088
-50.9128
-50.3196
-49.8537
-49.3891
-52.263
-52.0619
-51.6835
-51.4522
-51.0655
-50.5641
-50.33
-49.7818
-53.5127
-53.8751
-53.5564
-52.8582
-52.0425
-51.2237
-50.9275
-50.122
-49.6198
-55.5824
-54.9063
-54.871
-54.2278
-53.5112
-52.46
-51.6864
-50.7025
-50.1118
-49.8568
-57.831
-57.7867
-56.8151
-55.2565
-53.9043
-53.6123
-52.6792
-51.3307
-50.6963
-50.3841
-50.0079
-61.0558
-59.5068
-58.5047
-57.2822
-55.3382
-54.3013
-52.888
-51.8153
-51.5278
-51.1204
-50.5208
-50.352
-62.8563
-60.9279
-59.5858
-57.7994
-56.337
-54.9733
-53.9562
-53.0241
-52.5286
-51.8686
-51.4936
-51.317
-51.3185
-62.3554
-60.795
-59.8118
-58.2229
-57.1204
-55.7493
-54.3214
-53.7184
-53.2889
-52.8466
-52.6069
-52.457
-52.2805
-52.1413
-61.3281
-61.1263
-59.8107
-58.545
-56.7884
-56.0327
-55.5435
-54.4837
-53.838
-53.5405
-53.7599
-53.2083
-52.7719
-52.5224
-52.005
-46.0734
-46.2854
-46.4382
-46.6481
-46.7215
-46.8814
-47.0318
-47.1525
-47.2985
-47.5064
-47.4273
-47.4184
-47.7727
-47.8602
-47.8129
-47.9268
-48.2707
-48.338
-48.4375
-48.3387
-48.2498
-49.2177
-49.1122
-49.0381
-48.88
-48.701
-48.7622
-50.1099
-50.0567
-49.8257
-49.6879
-49.3334
-49.2177
-48.793
-51.1704
-51.061
-50.8445
-50.5601
-50.1596
-49.5776
-49.1747
-48.9335
-52.025
-51.6739
-51.4642
-51.0966
-50.8671
-50.2751
-49.956
-49.5492
-49.1225
-53.754
-53.6424
-53.2318
-52.5397
-51.6625
-51.0267
-50.6759
-49.8107
-49.3701
-49.1728
-55.4493
-54.4708
-54.3642
-53.895
-53.0022
-52.0717
-51.2598
-50.3643
-49.8966
-49.6218
-49.3899
-57.6375
-57.5693
-56.4046
-54.9858
-53.4121
-53.1296
-52.2678
-51.0025
-50.4453
-50.2979
-49.8674
-49.7539
-60.6374
-59.2626
-57.9711
-56.7246
-54.8649
-53.8843
-52.5577
-51.5886
-51.3332
-50.9983
-50.3961
-50.2347
-50.4986
-62.5823
-60.5627
-59.1424
-57.4752
-55.9804
-54.6555
-53.6852
-52.8411
-52.4018
-51.7426
-51.4425
-51.2911
-51.2875
-51.0559
-62.1074
-60.5181
-59.5537
-57.9964
-57.001
-55.5467
-54.0682
-53.5959
-53.1689
-52.7319
-52.5438
-52.4426
-52.2709
-52.0939
-51.538
-61.3241
-61.065
-59.6728
-58.4727
-56.7242
-56.0179
-55.4755
-54.3971
-53.8068
-53.4561
-53.7526
-53.1945
-52.7608
-52.5089
-51.9836
-51.4704
-45.9639
-46.0716
-46.2743
-46.3096
-46.3921
-46.5107
-46.5416
-46.6506
-46.7652
-46.8059
-46.9669
-47.0091
-47.1263
-47.1973
-47.3808
-47.2934
-47.4681
-47.3059
-47.6047
-47.6641
-47.6446
-47.7481
-47.6841
-48.3112
-48.3857
-48.2485
-48.0947
-48.1103
-48.0181
-49.0029
-49.0369
-48.9579
-48.5086
-48.415
-48.3742
-48.1513
-49.9306
-49.843
-49.5886
-49.468
-49.0119
-49.0297
-48.6037
-48.4207
-50.9631
-50.7565
-50.6855
-50.3278
-50.0056
-49.442
-49.0338
-48.7542
-48.5032
-51.8941
-51.4208
-51.2795
-50.7416
-50.4889
-50.0041
-49.667
-49.3644
-48.9266
-48.5895
-53.599
-53.3928
-52.9537
-52.3158
-51.3308
-50.7232
-50.2933
-49.5688
-49.0577
-48.9392
-48.7734
-55.2034
-54.1843
-54.0209
-53.5075
-52.415
-51.6436
-50.8442
-50.0665
-49.7202
-49.5076
-49.2822
-49.1693
-57.4882
-57.3256
-55.9892
-54.6165
-52.9644
-52.7042
-51.9205
-50.7187
-50.3274
-50.0111
-49.7421
-49.6688
-49.7795
-60.0742
-58.83
-57.5469
-56.2027
-54.5091
-53.4544
-52.2543
-51.3202
-51.2328
-50.7907
-50.2479
-50.1476
-50.459
-50.5049
-62.2958
-60.2208
-58.7427
-57.1172
-55.6313
-54.4174
-53.4789
-52.7197
-52.2542
-51.6416
-51.4155
-51.2892
-51.2392
-51.0446
-50.4744
-61.8544
-60.2975
-59.2963
-57.7598
-56.8693
-55.3402
-53.8717
-53.4857
-53.0323
-52.6748
-52.5102
-52.4279
-52.2593
-52.0446
-51.5221
-50.9141
-61.2876
-60.9829
-59.5557
-58.4086
-56.6549
-55.9612
-55.3431
-54.3405
-53.7666
-53.3759
-53.7486
-53.1849
-52.7506
-52.4985
-51.9653
-51.4544
-50.8134
-45.8902
-45.9331
-46.0522
-46.056
-46.228
-46.3445
-46.349
-46.4055
-46.4619
-46.5423
-46.6115
-46.5782
-46.7343
-46.7378
-46.7715
-46.9091
-47.0155
-47.0707
-46.9894
-47.06
-47.2083
-47.1722
-47.2378
-47.2671
-47.1481
-47.5542
-47.6189
-47.5651
-47.5333
-47.4975
-47.4442
-48.0902
-48.0935
-48.1187
-48.0458
-47.8203
-47.8013
-47.7334
-48.7375
-48.7028
-48.7663
-48.7133
-48.3505
-47.9203
-47.9977
-47.8714
-49.6687
-49.3993
-49.3124
-49.3029
-48.9697
-48.8235
-48.3777
-48.1926
-47.9688
-50.6471
-50.4941
-50.5039
-50.0991
-49.7161
-49.2236
-48.9014
-48.5601
-48.4235
-48.1985
-51.6779
-51.302
-51.0379
-50.5985
-50.2085
-49.6529
-49.4884
-49.0976
-48.7516
-48.4907
-48.3356
-53.4061
-53.222
-52.6998
-51.9873
-51.075
-50.4387
-49.9006
-49.4057
-48.9135
-48.9933
-48.6795
-48.7196
-55.1543
-53.8659
-53.674
-53.0189
-51.9413
-51.4453
-50.5351
-49.8832
-49.4965
-49.4019
-49.1919
-49.1494
-49.104
-57.5173
-56.9933
-55.6154
-54.1837
-52.7982
-52.3817
-51.6053
-50.5092
-50.1921
-49.8223
-49.6888
-49.5738
-49.7244
-49.56
-59.6534
-58.4251
-57.0959
-55.6894
-54.1005
-53.0517
-52.0076
-51.1338
-51.0379
-50.6496
-50.1392
-50.11
-50.4156
-50.4745
-50.0255
-62.0262
-59.9219
-58.3251
-56.7405
-55.2767
-54.1599
-53.3144
-52.6058
-52.1216
-51.5497
-51.3821
-51.2808
-51.1966
-50.9625
-50.4029
-49.9598
-61.6254
-60.1049
-59.0494
-57.5183
-56.7417
-55.1465
-53.7314
-53.384
-52.9169
-52.632
-52.52
-52.4123
-52.2391
-51.9974
-51.4996
-50.8995
-50.2305
-61.218
-60.8947
-59.463
-58.3124
-56.5483
-55.862
-55.2099
-54.2893
-53.7004
-53.3502
-53.7364
-53.1786
-52.7438
-52.4805
-51.956
-51.4438
-50.8069
-49.7733
-45.6623
-45.7948
-45.9202
-45.876
-46.0959
-46.1999
-46.0555
-46.2078
-46.3246
-46.4571
-46.363
-46.4471
-46.4543
-46.4898
-46.5214
-46.4648
-46.5818
-46.6457
-46.7113
-46.6949
-46.6324
-46.8357
-46.9624
-46.9092
-46.8761
-46.8621
-46.9268
-46.997
-47.1012
-47.1003
-47.0695
-47.0337
-47.0436
-47.3771
-47.4817
-47.4658
-47.4305
-47.4061
-47.2854
-47.166
-48.0383
-47.9476
-47.9271
-47.9034
-47.6892
-47.6246
-47.5262
-47.4648
-48.6488
-48.6929
-48.4837
-48.4278
-48.255
-48.1089
-47.899
-47.7021
-47.3955
-49.4463
-49.2924
-49.0747
-48.9185
-48.5808
-48.695
-48.3043
-47.9934
-47.9314
-47.7768
-50.4089
-50.3389
-50.2199
-49.8248
-49.5129
-48.9949
-48.691
-48.4172
-48.2935
-47.9714
-47.8674
-51.331
-51.2144
-50.7336
-50.3616
-49.9776
-49.5244
-49.324
-48.9144
-48.5632
-48.4593
-48.2568
-48.1057
-53.1637
-52.9538
-52.4997
-51.696
-51.0314
-50.1984
-49.7592
-49.2228
-48.8478
-48.8165
-48.7048
-48.6379
-48.4238
-54.8974
-53.7649
-53.5227
-52.7534
-52.0547
-51.0937
-50.3937
-49.7304
-49.3537
-49.3256
-49.2203
-49.1055
-49.0757
-48.8937
-57.3255
-56.7347
-55.2694
-53.8411
-52.6067
-52.0443
-51.3
-50.3267
-50.0553
-49.6989
-49.644
-49.5099
-49.6961
-49.5448
-49.2088
-59.3341
-58.0311
-56.5891
-55.1943
-53.6826
-52.6704
-51.7908
-50.9732
-50.8608
-50.5082
-50.1196
-50.0992
-50.4015
-50.445
-49.9397
-49.2717
-61.7192
-59.6167
-57.949
-56.3883
-54.9738
-53.9013
-53.1678
-52.368
-52.0087
-51.4678
-51.3731
-51.2855
-51.174
-50.913
-50.3442
-49.896
-49.647
-61.4377
-59.9351
-58.811
-57.278
-56.601
-54.9805
-53.6126
-53.2718
-52.8718
-52.5584
-52.5405
-52.4114
-52.2196
-51.9457
-51.4643
-50.8842
-50.2142
-49.4135
-61.1505
-60.7962
-59.3566
-58.1461
-56.3989
-55.725
-55.0907
-54.2095
-53.6509
-53.3341
-53.7141
-53.173
-52.733
-52.4593
-51.9477
-51.4335
-50.8059
-49.7585
-49.3792
-45.5098
-45.6016
-45.8187
-45.793
-45.9724
-46.0866
-45.8562
-46.059
-46.1826
-46.278
-46.0815
-46.1514
-46.2617
-46.3788
-46.3564
-46.2869
-46.3735
-46.4107
-46.4359
-46.386
-46.4706
-46.3734
-46.595
-46.5731
-46.6843
-46.6089
-46.5187
-46.5368
-46.7145
-46.7514
-46.7791
-46.8326
-46.7499
-46.6935
-46.8775
-46.8652
-46.888
-46.9769
-46.9884
-46.9385
-46.8119
-46.7911
-47.3821
-47.5172
-47.368
-47.3122
-47.3309
-47.1607
-47.0518
-47.0448
-47.919
-47.9676
-47.8802
-47.6916
-47.5998
-47.5437
-47.4149
-47.3553
-47.0892
-48.6026
-48.6002
-48.3482
-48.2705
-48.0994
-47.8762
-47.7362
-47.5014
-47.4839
-47.2854
-49.3128
-49.139
-48.8752
-48.6771
-48.4754
-48.416
-48.1694
-47.9716
-47.8112
-47.5443
-47.5411
-50.1179
-50.1507
-49.8057
-49.5051
-49.1775
-48.7556
-48.5823
-48.4283
-48.1669
-47.8998
-47.8212
-47.7591
-51.1938
-51.1114
-50.302
-50.126
-49.6783
-49.3468
-49.1477
-48.7783
-48.4668
-48.3911
-48.1529
-48.0483
-48.0297
-52.8963
-52.5397
-52.2073
-51.3879
-50.7181
-49.9751
-49.4696
-49.077
-48.713
-48.5655
-48.6888
-48.5805
-48.4389
-48.1846
-54.6614
-53.5825
-53.3157
-52.4621
-51.6993
-50.8022
-50.1715
-49.5971
-49.261
-49.0765
-49.1307
-49.097
-49.1043
-48.9201
-48.4209
-56.9046
-56.3247
-54.8555
-53.297
-52.2443
-51.7402
-51.0287
-50.1482
-49.8575
-49.6033
-49.5515
-49.5164
-49.6744
-49.4744
-49.0926
-48.8469
-58.9586
-57.6595
-56.1099
-54.656
-53.3384
-52.3771
-51.5299
-50.8106
-50.7354
-50.3863
-50.1143
-50.1021
-50.3595
-50.3911
-49.8464
-49.2481
-48.8773
-61.417
-59.3057
-57.5994
-56.1002
-54.6876
-53.6817
-53.0371
-52.2297
-51.9129
-51.3966
-51.3425
-51.3133
-51.1556
-50.9318
-50.3172
-49.8851
-49.6433
-48.9886
-61.241
-59.7695
-58.5765
-57.0467
-56.4557
-54.8425
-53.5099
-53.1844
-52.8163
-52.4814
-52.5573
-52.422
-52.2077
-51.8854
-51.4245
-50.8711
-50.2004
-49.4023
-49.018
-61.0693
-60.7061
-59.2342
-57.9726
-56.2356
-55.59
-54.9966
-54.1283
-53.6072
-53.3252
-53.6936
-53.173
-52.7252
-52.4352
-51.9405
-51.4216
-50.8087
-49.7479
-49.3804
-49.1792
-45.3146
-45.6063
-45.8052
-45.6365
-45.8247
-45.9728
-45.8106
-45.9765
-46.0869
-46.2506
-45.8191
-46.0511
-46.1511
-46.2549
-46.2928
-45.9898
-46.1248
-46.2372
-46.3094
-46.2735
-46.3098
-46.2402
-46.2583
-46.354
-46.3837
-46.3624
-46.3543
-46.3782
-46.3665
-46.5345
-46.5219
-46.5744
-46.5579
-46.5221
-46.402
-46.5713
-46.6471
-46.6521
-46.7239
-46.7126
-46.727
-46.5846
-46.4925
-46.882
-46.87
-46.8759
-46.8106
-46.8866
-46.8038
-46.7449
-46.7294
-46.6211
-47.3506
-47.3201
-47.2926
-47.2759
-47.1516
-47.1089
-46.981
-46.9769
-46.8443
-47.7543
-47.8306
-47.8093
-47.6646
-47.4656
-47.4055
-47.2692
-47.1673
-46.9922
-47.0518
-48.4221
-48.2801
-48.1492
-48.1841
-48.0902
-47.7925
-47.6094
-47.3705
-47.4132
-47.2836
-47.1926
-49.0888
-48.9545
-48.7199
-48.6036
-48.4313
-48.1973
-47.9565
-47.8212
-47.7545
-47.4499
-47.5611
-47.3692
-49.9613
-49.9201
-49.5563
-49.3343
-48.9305
-48.5377
-48.4052
-48.1402
-48.0588
-47.8958
-47.8268
-47.6862
-47.5299
-51.0283
-50.7625
-50.2369
-49.8691
-49.3876
-49.2123
-48.9374
-48.5153
-48.3962
-48.2882
-48.0408
-47.985
-48.0266
-47.8066
-52.607
-52.2111
-51.7449
-51.0895
-50.4
-49.6888
-49.2468
-48.9875
-48.5971
-48.4872
-48.6019
-48.52
-48.4629
-48.137
-47.8882
-54.5408
-53.409
-52.7989
-52.0485
-51.277
-50.7485
-49.9576
-49.4864
-49.0964
-48.906
-49.1156
-49.076
-49.1388
-48.9727
-48.3493
-48.0738
-56.6749
-55.9213
-54.4668
-52.9068
-51.9591
-51.4485
-50.7984
-49.9801
-49.7798
-49.5377
-49.5494
-49.5331
-49.6783
-49.4286
-48.9992
-48.7792
-48.4126
-58.5776
-57.2124
-55.7089
-54.3173
-52.9715
-52.1013
-51.3
-50.6727
-50.6137
-50.3113
-50.1367
-50.1468
-50.3318
-50.3338
-49.8146
-49.1485
-48.9067
-48.3671
-61.0555
-59.0269
-57.239
-55.7501
-54.3779
-53.4811
-52.9489
-52.1746
-51.8252
-51.379
-51.3668
-51.3435
-51.1552
-50.9119
-50.3146
-49.9083
-49.6023
-48.9869
-48.6664
-61.0275
-59.5887
-58.345
-56.8155
-56.2924
-54.7393
-53.4246
-53.121
-52.7307
-52.4848
-52.5862
-52.4298
-52.2043
-51.8274
-51.3854
-50.8615
-50.1906
-49.395
-49.0251
-48.8845
-60.9814
-60.5915
-59.1691
-57.8396
-56.2006
-55.4823
-54.916
-54.0732
-53.5507
-53.3476
-53.6779
-53.1669
-52.7177
-52.4147
-51.9339
-51.4116
-50.813
-49.7419
-49.3828
-49.1831
-49.3025
-45.2706
-45.3726
-45.7072
-45.5759
-45.7836
-45.8852
-45.6228
-45.8221
-45.9891
-46.2223
-45.7805
-45.9527
-46.0617
-46.1031
-46.2287
-45.8107
-45.9908
-46.1292
-46.1808
-46.187
-46.2351
-45.9964
-46.0662
-46.1687
-46.2364
-46.2052
-46.2215
-46.2081
-46.182
-46.2181
-46.2949
-46.3122
-46.3618
-46.2966
-46.3659
-46.2448
-46.3161
-46.4728
-46.4625
-46.4494
-46.459
-46.4585
-46.4134
-46.3016
-46.4727
-46.5177
-46.5772
-46.5951
-46.5897
-46.5145
-46.4663
-46.4446
-46.4765
-46.7679
-46.8495
-46.8282
-46.8084
-46.7564
-46.749
-46.6462
-46.665
-46.5718
-46.4434
-47.1518
-47.2526
-47.0956
-47.1424
-47.0817
-46.9299
-46.8442
-46.817
-46.7772
-46.6832
-47.6842
-47.7782
-47.4496
-47.4054
-47.3671
-47.2093
-47.1098
-47.0353
-47.0279
-46.9052
-46.7738
-48.2936
-48.1447
-48.0462
-48.0209
-47.8939
-47.7047
-47.506
-47.2688
-47.2001
-47.2781
-47.1196
-46.9941
-48.9266
-48.8625
-48.671
-48.4219
-48.2814
-48.187
-47.8451
-47.605
-47.6006
-47.4793
-47.4783
-47.3469
-47.1941
-49.7436
-49.5919
-49.3421
-49.1338
-48.9236
-48.4037
-48.2237
-47.9694
-47.8507
-47.7518
-47.7292
-47.5877
-47.5069
-47.3997
-50.8485
-50.4363
-50.1175
-49.6146
-49.3169
-49.0376
-48.8261
-48.4271
-48.1894
-48.2143
-48.0441
-47.9852
-48.0333
-47.7715
-47.4937
-52.2276
-51.8733
-51.334
-50.789
-50.0577
-49.5356
-49.1521
-48.8174
-48.5375
-48.4521
-48.5532
-48.4953
-48.4605
-48.1408
-47.9022
-47.6418
-54.2403
-53.1583
-52.4564
-51.7131
-50.9745
-50.4947
-49.8469
-49.3358
-49.0193
-48.876
-49.0482
-49.0027
-49.1739
-48.9894
-48.3102
-48.0086
-47.8372
-56.346
-55.4296
-54.1167
-52.7907
-51.7781
-51.1494
-50.6331
-49.8863
-49.617
-49.4891
-49.5688
-49.5506
-49.6869
-49.4111
-48.9254
-48.6827
-48.3927
-48.1601
-58.2325
-56.7561
-55.3178
-53.9366
-52.668
-51.8541
-51.1295
-50.6646
-50.541
-50.2496
-50.1876
-50.2295
-50.3355
-50.3348
-49.8718
-49.1273
-48.9589
-48.6312
-48.2873
-60.648
-58.7311
-56.914
-55.4184
-54.147
-53.2893
-52.867
-52.0799
-51.7488
-51.3597
-51.4454
-51.3958
-51.1419
-50.8867
-50.299
-49.8996
-49.6183
-49.0151
-48.7157
-48.9438
-60.8275
-59.3769
-58.1013
-56.5964
-56.1207
-54.6258
-53.3507
-53.0388
-52.6619
-52.4847
-52.5961
-52.4533
-52.2069
-51.7948
-51.3525
-50.847
-50.1915
-49.3889
-49.0352
-48.9447
-49.2745
-60.8876
-60.3887
-59.1178
-57.7137
-56.1986
-55.4111
-54.8341
-54.024
-53.5152
-53.3289
-53.6625
-53.1639
-52.7086
-52.4046
-51.9317
-51.4017
-50.8195
-49.7396
-49.3818
-49.1841
-49.3195
-49.8364
-60.6282
-45.0952
-45.2752
-45.5142
-45.3796
-45.6403
-45.7686
-45.6539
-45.7751
-45.9403
-45.9947
-45.6254
-45.8193
-45.9834
-46.0698
-46.231
-45.7989
-45.9537
-45.9927
-46.1235
-46.12
-46.1139
-45.7563
-45.9804
-46.0824
-46.1464
-46.2029
-46.1239
-46.0528
-45.9492
-46.0018
-46.1289
-46.1727
-46.1977
-46.102
-46.1215
-46.0968
-46.1041
-46.2371
-46.294
-46.2399
-46.2188
-46.2087
-46.2632
-46.1744
-46.1088
-46.2608
-46.416
-46.5088
-46.382
-46.3785
-46.314
-46.2495
-46.2375
-46.1278
-46.3458
-46.4516
-46.4656
-46.5436
-46.512
-46.4602
-46.401
-46.4104
-46.3407
-46.2534
-46.7141
-46.7834
-46.5972
-46.7437
-46.74
-46.647
-46.5067
-46.5253
-46.5533
-46.365
-46.4151
-47.1333
-47.115
-47.1284
-47.0575
-47.0056
-46.8216
-46.7634
-46.6969
-46.6554
-46.6603
-46.532
-47.6289
-47.6944
-47.5585
-47.345
-47.2513
-47.1189
-47.0558
-46.9614
-46.9182
-46.8411
-46.7216
-46.7544
-48.153
-47.9844
-47.9432
-47.8953
-47.7432
-47.6526
-47.3654
-47.2616
-47.1568
-47.0816
-47.0161
-46.9744
-46.9161
-48.8342
-48.6847
-48.5392
-48.2699
-47.9967
-48.0428
-47.7386
-47.6652
-47.537
-47.383
-47.3941
-47.1911
-47.2005
-46.9125
-49.5071
-49.3282
-49.0971
-48.8465
-48.6296
-48.2965
-48.1031
-47.9726
-47.7102
-47.759
-47.6536
-47.5733
-47.4704
-47.3865
-47.3092
-50.5592
-50.2039
-49.8677
-49.3311
-49.0639
-48.8376
-48.6135
-48.351
-48.0988
-48.1663
-47.9948
-47.9787
-47.965
-47.7714
-47.4903
-47.3721
-52.0065
-51.5055
-50.8581
-50.3724
-49.8349
-49.3258
-48.9934
-48.6976
-48.4384
-48.405
-48.4947
-48.5385
-48.4223
-48.1444
-47.9388
-47.5586
-47.4647
-53.8281
-52.9527
-52.2434
-51.464
-50.5971
-50.2041
-49.7341
-49.3209
-48.994
-48.7645
-49.0605
-49.0407
-49.1348
-48.9875
-48.3634
-47.9277
-47.8094
-47.6519
-55.785
-54.9321
-53.7162
-52.4398
-51.6086
-51.0136
-50.4846
-49.8955
-49.452
-49.4045
-49.5718
-49.6379
-49.7101
-49.3783
-48.8819
-48.6088
-48.3455
-48.1443
-48.1306
-57.8967
-56.303
-54.9223
-53.5757
-52.4707
-51.6473
-51.0082
-50.6585
-50.4631
-50.2229
-50.2605
-50.3545
-50.3974
-50.327
-49.8338
-49.1765
-48.9505
-48.8273
-48.5938
-48.6987
-60.3648
-58.4247
-56.6158
-55.1836
-53.9445
-53.1397
-52.7694
-52.009
-51.7064
-51.3339
-51.4879
-51.4691
-51.1458
-50.8729
-50.3429
-49.9162
-49.6515
-49.0404
-48.7874
-49.0285
-49.3101
-60.6471
-59.1606
-57.8567
-56.4059
-55.9369
-54.5137
-53.284
-52.9788
-52.6361
-52.4244
-52.5952
-52.4911
-52.2152
-51.7704
-51.3263
-50.8297
-50.2056
-49.3771
-49.0389
-49.0055
-49.3685
-49.9353
-60.2841
-60.7493
-60.178
-58.9595
-57.5742
-56.076
-55.3529
-54.7649
-53.9582
-53.4821
-53.2786
-53.6541
-53.1645
-52.7034
-52.3962
-51.933
-51.3903
-50.8202
-49.7296
-49.3779
-49.1928
-49.3499
-49.8952
-50.6215
-59.7617
-45.142
-45.3936
-45.3731
-45.5101
-45.6267
-45.4629
-45.6379
-45.8092
-46.0194
-45.7209
-45.8098
-45.9172
-45.9719
-46.2204
-45.6276
-45.8155
-45.9451
-46.167
-46.1616
-46.076
-45.7699
-45.9031
-45.9388
-46.0865
-46.0478
-46.0623
-45.9652
-45.7503
-45.9249
-46.0519
-46.0777
-46.1034
-46.011
-45.9756
-45.9222
-45.9034
-46.032
-46.1148
-46.1124
-46.0724
-46.0501
-46.0433
-46.0196
-46.0527
-46.0761
-46.1945
-46.2277
-46.2232
-46.155
-46.1575
-46.1371
-46.0541
-45.9793
-45.9336
-46.2124
-46.4158
-46.3542
-46.3413
-46.3025
-46.2617
-46.191
-46.1268
-46.0539
-46.003
-46.4317
-46.4087
-46.4504
-46.4521
-46.458
-46.541
-46.3433
-46.2563
-46.2118
-46.1474
-46.1392
-46.823
-46.7104
-46.7506
-46.7125
-46.6882
-46.5792
-46.5586
-46.4497
-46.331
-46.3779
-46.3584
-46.2699
-47.0771
-47.0676
-47.0455
-46.9824
-46.8917
-46.7774
-46.7426
-46.6242
-46.6049
-46.5472
-46.5358
-46.4944
-47.531
-47.4843
-47.3426
-47.3038
-47.1865
-47.0586
-46.9577
-46.8701
-46.8806
-46.7849
-46.6849
-46.6658
-46.6121
-48.0153
-47.8362
-47.6484
-47.7424
-47.5963
-47.5649
-47.2867
-47.252
-47.1714
-47.0137
-47.0221
-46.9678
-46.8634
-46.6768
-48.738
-48.5435
-48.4065
-48.0992
-47.9377
-47.8676
-47.5145
-47.5671
-47.4223
-47.3551
-47.3539
-47.167
-47.132
-46.9726
-46.8909
-49.3873
-49.1777
-48.9155
-48.636
-48.4725
-48.1753
-47.9475
-47.8841
-47.6132
-47.7738
-47.6103
-47.5242
-47.488
-47.3598
-47.2293
-47.061
-50.3858
-50.0865
-49.6465
-49.2965
-48.8763
-48.6731
-48.4857
-48.2051
-48.0604
-48.0316
-48.0385
-48.056
-47.8646
-47.7425
-47.4533
-47.3121
-47.1952
-52.0527
-51.2897
-50.6903
-50.2657
-49.8345
-49.1194
-48.9139
-48.6017
-48.3297
-48.3689
-48.4728
-48.5541
-48.3979
-48.1302
-47.8542
-47.5633
-47.387
-47.4636
-53.509
-52.6943
-51.8869
-51.165
-50.4282
-50.1146
-49.5291
-49.2179
-48.8979
-48.7457
-49.02
-49.1231
-49.1009
-48.9303
-48.2876
-47.8777
-47.8463
-47.6837
-47.8197
-55.4314
-54.339
-53.444
-52.0767
-51.2615
-50.837
-50.3578
-49.7724
-49.4301
-49.3644
-49.6163
-49.7112
-49.7637
-49.3531
-48.7833
-48.5928
-48.309
-48.2042
-48.3066
-48.2554
-57.5687
-55.9231
-54.5422
-53.361
-52.1937
-51.4842
-50.8932
-50.6257
-50.4719
-50.1927
-50.3124
-50.4617
-50.4336
-50.3153
-49.9178
-49.1681
-48.9816
-48.8524
-48.7736
-48.9889
-48.9155
-60.0738
-58.1216
-56.3063
-54.9582
-53.7475
-53.017
-52.7091
-51.9681
-51.6631
-51.3446
-51.5587
-51.5337
-51.1388
-50.8718
-50.3772
-49.9534
-49.703
-49.0878
-48.8752
-49.1202
-49.4341
-50.3335
-59.4342
-60.4581
-58.9602
-57.6167
-56.224
-55.7223
-54.4163
-53.2259
-52.9204
-52.6185
-52.4144
-52.6379
-52.5318
-52.2263
-51.7578
-51.3127
-50.8261
-50.2056
-49.3742
-49.0529
-49.0662
-49.457
-50.1055
-51.1807
-58.5105
-59.9732
-58.8129
-57.4568
-55.8117
-55.2587
-54.7176
-53.9083
-53.4402
-53.259
-53.652
-53.1605
-52.6962
-52.3836
-51.9379
-51.3793
-50.8119
-49.7318
-49.3717
-49.2021
-49.3874
-49.9558
-50.6714
-51.5627
-58.6589
-45.2026
-45.4482
-45.5552
-45.4454
-45.5072
-45.6383
-45.8616
-45.533
-45.6939
-45.9223
-46.0313
-46.1195
-45.7188
-45.8385
-45.9058
-46.0426
-46.0928
-45.9977
-45.6168
-45.8112
-45.9262
-46.089
-46.0287
-45.9665
-45.8429
-45.7237
-45.9456
-45.9543
-46.0004
-46.0175
-45.9643
-45.9085
-45.8526
-45.6719
-45.9002
-46.0183
-46.0483
-46.0025
-45.9482
-45.9188
-45.809
-45.7865
-45.9343
-46.0275
-46.1202
-46.1065
-46.091
-45.9564
-45.9676
-45.9283
-45.903
-45.7942
-46.0049
-46.1562
-46.1341
-46.1731
-46.1325
-46.0614
-46.0241
-45.9658
-45.9017
-45.8879
-45.8329
-46.2239
-46.3078
-46.3089
-46.2379
-46.197
-46.1897
-46.1796
-46.0558
-45.8989
-45.9357
-45.9302
-46.414
-46.412
-46.3812
-46.4483
-46.3768
-46.347
-46.2948
-46.2134
-46.1452
-46.1101
-46.0614
-46.0042
-46.6853
-46.6638
-46.6986
-46.6557
-46.6044
-46.3942
-46.4717
-46.3915
-46.2906
-46.2757
-46.3361
-46.2133
-46.212
-46.9604
-46.9615
-46.883
-46.9139
-46.8002
-46.7129
-46.6668
-46.5839
-46.5061
-46.5128
-46.4521
-46.4219
-46.3419
-47.4615
-47.3287
-47.2149
-47.1872
-47.0657
-46.9994
-46.8677
-46.7805
-46.8755
-46.6872
-46.6043
-46.6713
-46.5496
-46.5297
-47.9036
-47.7798
-47.5356
-47.4805
-47.5225
-47.4278
-47.2237
-47.136
-47.073
-46.9462
-46.9582
-46.888
-46.8371
-46.6176
-46.5385
-48.5904
-48.4027
-48.2606
-48.0535
-47.9402
-47.7407
-47.42
-47.4924
-47.2678
-47.2516
-47.2545
-47.1229
-47.087
-46.9782
-46.87
-46.7795
-49.2839
-49.0315
-48.8389
-48.5736
-48.2643
-48.1015
-47.9598
-47.7827
-47.5141
-47.6596
-47.533
-47.4989
-47.472
-47.362
-47.2209
-47.0569
-46.9146
-50.1795
-49.9027
-49.5453
-49.1812
-48.9773
-48.6377
-48.3354
-48.1378
-47.9742
-47.8924
-48.0895
-48.0463
-47.8585
-47.6921
-47.4077
-47.1974
-47.2008
-47.1683
-51.7351
-51.1062
-50.4647
-49.9588
-49.6061
-49.1424
-48.7428
-48.5158
-48.2929
-48.3334
-48.4492
-48.5901
-48.4217
-48.1318
-47.776
-47.536
-47.4188
-47.4866
-47.3846
-53.2213
-52.364
-51.7269
-50.9308
-50.1931
-50.0362
-49.3975
-49.1261
-48.9329
-48.7196
-49.0704
-49.1902
-49.0836
-48.8898
-48.187
-47.8853
-47.83
-47.8064
-47.968
-48.1856
-55.2676
-54.0694
-53.1426
-51.9406
-51.0214
-50.6281
-50.2976
-49.6508
-49.3972
-49.3648
-49.6943
-49.7553
-49.7164
-49.3488
-48.9778
-48.5296
-48.3453
-48.2639
-48.3905
-48.4215
-48.722
-57.2385
-55.5743
-54.1865
-53.1268
-51.9941
-51.3403
-50.7906
-50.6516
-50.4991
-50.178
-50.363
-50.5469
-50.4176
-50.2258
-49.7962
-49.1836
-49.029
-48.8927
-48.8792
-49.1021
-49.0741
-49.8182
-56.292
-59.7294
-57.853
-56.0083
-54.6434
-53.5953
-52.927
-52.6986
-51.9643
-51.6638
-51.362
-51.6525
-51.5906
-51.1583
-50.88
-50.4288
-50.0188
-49.7091
-49.1548
-48.9618
-49.2162
-49.5485
-50.5235
-51.022
-57.3025
-58.7259
-57.3637
-56.0624
-55.5141
-54.306
-53.1873
-52.8621
-52.5767
-52.448
-52.707
-52.5768
-52.2346
-51.7572
-51.3146
-50.8395
-50.2003
-49.3987
-49.0857
-49.1246
-49.5468
-50.3177
-51.33
-52.241
-56.9524
-58.7483
-57.4151
-55.6329
-55.1541
-54.6717
-53.8769
-53.3806
-53.2606
-53.659
-53.1609
-52.6901
-52.3718
-51.9401
-51.3636
-50.797
-49.749
-49.364
-49.2172
-49.4093
-50.0117
-50.7092
-51.6192
-52.168
-57.3306
-45.2562
-45.4202
-45.5897
-45.757
-45.4737
-45.5513
-45.693
-45.8811
-45.9808
-45.4882
-45.7597
-45.9102
-46.0823
-46.0134
-45.9469
-45.6492
-45.8742
-45.9127
-46.0111
-46.0656
-45.9183
-45.7407
-45.5336
-45.8637
-45.9506
-46.0091
-45.9626
-45.8858
-45.7764
-45.6644
-45.6913
-45.855
-46.0152
-45.9437
-45.9264
-45.857
-45.8281
-45.8207
-45.7664
-45.7266
-45.8875
-46.0166
-46.0235
-45.9794
-45.872
-45.7989
-45.7579
-45.674
-45.6704
-45.8883
-46.0266
-46.2031
-46.0251
-45.988
-45.9403
-45.91
-45.8571
-45.803
-45.7574
-45.6878
-46.0518
-46.148
-46.151
-46.1626
-46.067
-46.0045
-45.9546
-45.9371
-45.8924
-45.8382
-45.7623
-45.7264
-46.1928
-46.2458
-46.2323
-46.2207
-46.1724
-46.0946
-46.0459
-45.9893
-45.9443
-45.8569
-45.849
-45.7634
-46.3174
-46.3158
-46.3466
-46.3969
-46.3757
-46.2914
-46.2162
-46.1319
-46.0919
-46.0586
-46.0443
-45.9685
-46.0106
-46.585
-46.5628
-46.5776
-46.6152
-46.4731
-46.3768
-46.3988
-46.3111
-46.2583
-46.2542
-46.2651
-46.0969
-46.1225
-46.1214
-46.8961
-46.9333
-46.8647
-46.7925
-46.7794
-46.6904
-46.5621
-46.5168
-46.4451
-46.4552
-46.3655
-46.405
-46.3552
-46.2992
-47.3705
-47.3075
-47.2015
-47.1299
-46.9661
-46.8441
-46.8216
-46.7063
-46.7128
-46.5813
-46.567
-46.6255
-46.5322
-46.4146
-46.2515
-47.7125
-47.6367
-47.6044
-47.513
-47.3407
-47.3707
-47.1924
-47.1604
-46.9665
-46.8403
-46.9505
-46.8034
-46.7764
-46.6398
-46.6109
-46.5483
-48.3498
-48.2158
-48.0668
-47.9552
-47.8789
-47.6057
-47.3576
-47.4457
-47.1862
-47.2391
-47.1735
-47.1624
-47.0548
-46.9371
-46.8435
-46.7845
-46.6007
-49.0215
-48.7972
-48.6516
-48.4104
-48.179
-47.9163
-47.8351
-47.6822
-47.466
-47.4626
-47.6157
-47.4492
-47.3986
-47.3497
-47.0968
-46.9808
-46.9233
-46.9219
-50.0068
-49.7177
-49.3824
-48.9935
-48.7235
-48.5389
-48.1353
-48.0662
-47.9056
-47.8417
-48.0014
-48.0103
-47.9291
-47.816
-47.3658
-47.2021
-47.1839
-47.2149
-47.1898
-51.4316
-50.7671
-50.2684
-49.9322
-49.3694