/*--------------------------------*- C++ -*----------------------------------*\
  =========                 |
  \\      /  F ield         | OpenFOAM: The Open Source CFD Toolbox
   \\    /   O peration     | Website:  https://openfoam.org
    \\  /    A nd           | Version:  7
     \\/     M anipulation  |
\*---------------------------------------------------------------------------*/
FoamFile
{
    version     2.0;
    format      ascii;
    class       surfaceScalarField;
    location    "4.5";
    object      phi;
}
// * * * * * * * * * * * * * * * * * * * * * * * * * * * * * * * * * * * * * //

dimensions      [0 3 -1 0 0 0 0];

internalField   nonuniform List<scalar> 
53739
(
-0.000201834
-0.00313596
-4.12051e-05
-0.000481367
-0.0019904
-0.000133443
-0.000217203
-0.00291974
-4.04995e-05
-0.00024998
-0.00268774
-2.98354e-05
-0.000593197
0.00199084
-0.000317834
-0.000533829
-0.00160806
-0.000132271
-0.000537758
-0.000642319
-0.000143103
-0.000229113
-0.00269166
-4.12386e-05
-0.000260552
-0.00243917
-2.85141e-05
-0.000235143
-0.0023238
-2.22723e-05
-0.000594208
0.00631578
-4.23978e-05
-0.000655328
0.00228393
-0.000326367
-0.000784509
0.0016603
-0.000409396
-0.000533873
-0.00123644
-0.000117118
-0.000557763
-0.000333311
-0.000144068
-0.000478175
-0.000386939
-0.000129905
-0.000239425
-0.00245421
-4.04594e-05
-0.000269016
-0.00218099
-3.04034e-05
-0.00025156
-0.00208027
-2.04836e-05
-0.000252295
-0.00194935
-1.94647e-05
-0.000694681
0.0066212
0.000414894
-0.000532502
0.00627083
7.90429e-05
-0.00068517
0.00450131
-0.000176364
-0.000607859
0.00251696
-0.000302462
-0.000803699
0.00197164
-0.000391771
-0.000693975
0.00253381
-0.000387493
-0.000541988
-0.000875659
-0.000107564
-0.000566178
-9.46251e-06
-0.000143805
-0.000521319
-0.000141077
-0.000120171
-0.000544092
-0.00024234
-0.000117676
-0.000248968
-0.00220745
-4.24205e-05
-0.000281796
-0.00191216
-2.74918e-05
-0.000260615
-0.00182897
-2.10875e-05
-0.000263665
-0.00168647
-1.96941e-05
-0.000281943
-0.00145305
-2.66031e-05
-0.00106509
0.00523675
0.000844749
-0.00060611
0.00681309
0.000450926
-0.000606982
0.00718362
0.000297767
-0.000480168
0.00623357
0.000151493
-0.000630216
0.00452444
-0.000117573
-0.000823066
0.00326909
-0.000292342
-0.000699676
0.00286889
-0.000313765
-0.00080328
0.00223985
-0.000333567
-0.000698832
0.00271047
-0.000390923
-0.000815312
0.00179138
-0.000362336
-0.000523839
-0.000552829
-9.79122e-05
-0.000586394
0.000321828
-0.000134256
-0.000550918
0.000122851
-0.00011743
-0.000550268
2.95965e-05
-0.000105504
-0.000568679
-6.43688e-05
-0.000141489
-0.000258934
-0.00195316
-4.21886e-05
-0.000294839
-0.00163178
-2.79614e-05
-0.000270999
-0.00156547
-1.99916e-05
-0.000276745
-0.00141206
-1.8757e-05
-0.000293217
-0.00115209
-2.74295e-05
-0.000251657
-0.000711966
-4.12407e-05
-0.00143031
0.00432549
0.00170966
-0.00093746
0.00568942
0.000887297
-0.000967961
0.00658108
0.000983575
-0.000594584
0.00702856
0.000509432
-0.000504311
0.00713017
0.000378473
-0.000608222
0.00570867
0.000364915
-0.000618134
0.00618101
0.000256442
-0.000602266
0.004516
-4.10773e-05
-0.000779704
0.00357773
-0.000345341
-0.0010467
0.00384124
-0.000212955
-0.00025407
0.00276888
-0.00026136
-0.000810838
0.00252716
-0.000376631
-0.000763083
0.00290412
-0.000315053
-0.000827014
0.00204713
-0.000369925
-0.00082806
0.00241756
-0.00030058
-0.000534823
-0.000238092
-9.55878e-05
-0.000591709
0.000638563
-0.000117777
-0.000537394
0.000362415
-0.000107425
-0.000588427
0.000315428
-9.15791e-05
-0.000577692
0.000240923
-0.000126322
-0.000545463
0.00155825
-0.000109559
-0.000266952
-0.00168989
-4.21322e-05
-0.000304028
-0.00134186
-2.80839e-05
-0.000294307
-0.00127977
-1.93604e-05
-0.000284853
-0.00112828
-1.89147e-05
-0.000302188
-0.000842115
-2.65478e-05
-0.000253574
-0.000444114
-4.17072e-05
-0.000262686
0.000319602
-3.41511e-05
-0.00125074
0.00565088
0.00195149
-0.00127099
0.00458632
0.00174877
-0.00106119
0.00495855
0.00150238
-0.000896375
0.00611422
0.000850761
-0.000899748
0.0069191
0.000944712
-0.000250811
0.00691568
0.000807037
-0.000442389
0.00687152
0.000593345
-0.000483843
0.00706799
0.000453181
-0.000796854
0.00564996
0.000454332
-0.000993697
0.00527255
0.000355141
-1.91036e-05
0.00603838
0.000277903
-0.000623596
0.00453056
5.46379e-05
-0.000876885
0.00391049
-0.000260039
-0.00105609
0.00393416
-0.00020918
-0.00123142
0.00466371
0.00017979
-0.000557712
0.00296391
-0.000243642
-0.000794986
0.00282321
-0.000354133
-0.000740719
0.00305765
-0.000326833
-0.000901653
0.00235418
-0.000308881
-0.000849442
0.00262528
-0.000305898
-0.000932258
0.00269105
-0.000162543
-0.000550568
7.13555e-05
-8.77742e-05
-0.000606554
0.000961695
-0.000116195
-0.000580332
0.000619293
-8.8631e-05
-0.000604021
0.000592927
-6.57571e-05
-0.000598957
0.000555177
-0.000109063
-0.000527936
0.00179973
-9.34374e-05
-0.000628111
0.00192991
-1.33404e-05
-0.000270955
-0.00142475
-4.35534e-05
-0.000313579
-0.00104308
-2.7326e-05
-0.00030326
-0.000984532
-2.0059e-05
-0.000293448
-0.000835698
-1.84933e-05
-0.000309211
-0.000525585
-2.62342e-05
-0.000256639
-0.000171552
-4.24712e-05
-0.000262033
0.000574812
-3.4884e-05
-0.000256698
0.00126487
-2.20197e-05
-0.000959565
0.00627019
0.00245376
-0.000817611
0.00557092
0.00202666
-0.000814377
0.00562931
0.00138876
-0.00118073
0.00483597
0.00173583
-0.00111827
0.00539793
0.00152792
-0.000236984
0.00647611
0.00132526
-0.000588875
0.00640171
0.000768324
-0.000745737
0.00716721
0.000864548
-0.000568278
0.00688053
0.000751293
-0.000732759
0.00656292
0.000722128
-0.00044821
0.00729844
0.000672828
-0.000486441
0.00698944
0.000534741
-0.000875944
0.00560113
0.000501072
-0.000996199
0.00522941
0.000437582
-0.00122183
0.00483393
0.000341015
-0.000537131
0.00616142
0.00031729
-0.000675137
0.00474186
-5.32462e-05
-0.000925204
0.00434509
-0.000195474
-0.00114105
0.00410408
-0.00019056
-0.00125291
0.00465767
0.000200328
-0.00134161
0.00346271
0.000412199
-0.000609856
0.0031889
-0.000229408
-0.000798435
0.00308621
-0.000314768
-0.000758518
0.00322165
-0.000339945
-0.000924357
0.00261254
-0.000264856
-0.000883158
0.00282106
-0.000220464
-0.000885384
0.00290163
-0.000159034
-0.0010584
0.00307664
-5.60534e-05
-0.000560107
0.000373788
-8.26986e-05
-0.000645734
0.00131749
-0.000111418
-0.000617388
0.000898427
-8.12007e-05
-0.000614005
0.000878894
-5.40405e-05
-0.000615034
0.000871073
-7.58294e-05
-0.000554479
0.00206135
-7.28425e-05
-0.000619245
0.00219598
-2.29557e-06
-0.000533305
0.00275227
-1.4174e-05
-0.00027877
-0.00115207
-4.4745e-05
-0.000321321
-0.000738846
-2.64705e-05
-0.000313174
-0.000679744
-1.89396e-05
-0.000300365
-0.000536873
-1.85193e-05
-0.00031289
-0.000204166
-2.70225e-05
-0.000260131
0.000106598
-4.42537e-05
-0.000258854
0.000827564
-3.63694e-05
-0.000251007
0.00150271
-2.1723e-05
-0.000243172
0.00150548
-3.61059e-05
-0.000535088
0.00644149
0.00291235
-0.00052516
0.0061725
0.00249915
-0.000737387
0.00623482
0.002243
-0.000833902
0.00561663
0.00203221
-0.000602911
0.00561476
0.00152584
-0.000341607
0.00587716
0.00137089
-0.00107347
0.00519342
0.00170062
-0.000869926
0.0057455
0.00151245
-0.000358052
0.00643632
0.00135749
-0.000593607
0.00654249
0.00126412
-0.00054341
0.00663341
0.00084733
-0.000569206
0.0071618
0.000856493
-0.000563435
0.00669698
0.000735584
-0.000797234
0.00639209
0.000723154
-0.00100033
0.00558156
0.000727332
-0.000478721
0.00724892
0.000709679
-0.000650728
0.0070193
0.00061856
-0.000971966
0.00566649
0.00051614
-0.00108535
0.00514536
0.000529411
-0.00127331
0.00490883
0.000383082
-0.00125024
0.00439457
0.000294229
-0.000595728
0.00631977
0.000313865
-0.000754176
0.00498929
2.56021e-05
-0.000895792
0.00463123
-0.00020211
-0.00121398
0.00429146
-9.32343e-05
-0.00126695
0.00463336
0.00021754
-0.0013401
0.00369811
0.000419643
-0.0012908
0.00255536
0.000237984
-0.000641881
0.00343698
-0.000260359
-0.000852797
0.00337012
-0.00030625
-0.00088256
0.00345775
-0.000285698
-0.000923187
0.0028287
-0.000246918
-0.000935135
0.0030675
-0.000191191
-0.000913788
0.00309871
-5.8231e-05
-0.00103763
0.00337523
-3.92417e-05
-0.000861172
0.00427545
-7.31181e-05
-0.000577341
0.00068832
-7.55851e-05
-0.000671117
0.00169333
-0.000108743
-0.000627402
0.00117754
-7.63049e-05
-0.000631047
0.00118417
-5.57906e-05
-0.000623315
0.00118293
-5.54756e-05
-0.000552153
0.00233291
-5.53695e-05
-0.000607363
0.00247332
-1.67281e-06
-0.000515746
0.00301843
-3.71074e-06
-0.0004286
0.00197869
-9.69899e-05
-0.000282567
-0.000876032
-4.66043e-05
-0.000327124
-0.000430958
-2.55091e-05
-0.000320247
-0.000368072
-1.78961e-05
-0.000305904
-0.00023236
-1.75488e-05
-0.000316505
0.000122362
-2.85424e-05
-0.000261522
0.000388035
-4.69373e-05
-0.000254311
0.00107599
-3.83662e-05
-0.000243566
0.00173193
-2.20138e-05
-0.000235965
0.00175534
-3.5617e-05
-0.000168676
0.00191567
-5.95879e-05
-0.000618539
0.00643986
0.00322894
-0.000507873
0.00636987
0.00296005
-0.000544289
0.00592791
0.00303451
-0.000652318
0.00609587
0.00254991
-0.000212965
0.00597372
0.00237031
-0.000372278
0.00572931
0.00225196
-0.000758362
0.00561982
0.00204871
-0.000512486
0.00562605
0.00166349
-0.000463053
0.00591374
0.00159426
-0.000657307
0.0053788
0.00166768
-0.00116167
0.00568158
0.00177798
-0.000785057
0.00605655
0.00160542
-0.000403453
0.00643641
0.00135238
-0.000768847
0.00655774
0.00131384
-0.00089853
0.00634085
0.00117917
-0.000375944
0.00669404
0.000869826
-0.000666071
0.00712626
0.000898211
-0.000697198
0.0064553
0.000823405
-0.000818389
0.00607248
0.000788236
-0.00115482
0.00542119
0.000765025
-0.00104362
0.0068786
0.000645567
-0.000440623
0.00716265
0.000720191
-0.000743888
0.00704942
0.000669275
-0.0010282
0.005855
0.000562454
-0.00123968
0.00510813
0.000579074
-0.00129992
0.00499605
0.000475157
-0.00131279
0.00442893
0.000321419
-0.00134839
0.00483948
0.000369077
-0.000572657
0.00634647
0.000351256
-0.000750605
0.00535063
-0.000149663
-0.00107667
0.0048942
-4.32696e-05
-0.0012185
0.00438409
5.74766e-07
-0.00130897
0.00462878
0.00028519
-0.00132478
0.00384233
0.000484315
-0.00127297
0.00296181
0.000248547
-0.00109002
0.00416238
0.000103991
-0.000641832
0.00366049
-0.000269685
-0.000908234
0.00365946
-0.000312589
-0.000824132
0.00363296
-0.000284732
-0.000944349
0.00308168
-0.000225373
-0.000946923
0.00332499
-0.000180802
-0.000899101
0.00330605
-5.15878e-05
-0.00101647
0.00374917
-2.30724e-05
-0.000842241
0.00461106
-4.8349e-05
-0.000502214
0.00417837
-5.46929e-05
-0.000585205
0.00101076
-6.86738e-05
-0.00068077
0.0020689
-9.75089e-05
-0.000651429
0.00146866
-6.86797e-05
-0.000638775
0.00149214
-5.14106e-05
-0.000626947
0.00149291
-5.53215e-05
-0.000543255
0.00259675
-3.75813e-05
-0.000591877
0.00274451
1.0999e-05
-0.000483249
0.00326843
-1.19974e-05
-0.000425935
0.00224082
-7.58679e-05
-0.000338412
0.00249571
-0.000144382
-0.000284001
-0.000598797
-4.96617e-05
-0.000330136
-0.000122751
-2.4675e-05
-0.000328185
-4.84881e-05
-1.6908e-05
-0.000310324
7.59976e-05
-1.59298e-05
-0.000318367
0.00045168
-2.84999e-05
-0.00025973
0.00067053
-5.13074e-05
-0.000248683
0.00131842
-4.06923e-05
-0.000236439
0.00195255
-2.25498e-05
-0.000226318
0.00199529
-3.5644e-05
-0.000163155
0.00210279
-5.95849e-05
-9.86839e-05
0.00227124
-7.23819e-05
-0.000711288
0.00630641
0.00349226
-0.000636486
0.00652285
0.00318584
-0.000681732
0.00632321
0.00332525
-0.000618055
0.00625948
0.00285957
-0.000240504
0.00595691
0.00295859
-0.000340447
0.00567956
0.00301421
-0.000663943
0.00598721
0.00263382
-0.000401421
0.00587432
0.00253824
-0.000560612
0.00575887
0.0024383
-0.000741431
0.00583047
0.00228361
-0.000843106
0.00553897
0.00205941
-0.000623531
0.00567314
0.00184009
-0.000494041
0.005868
0.00179981
-0.00088572
0.00525915
0.00183078
-0.00110931
0.00602746
0.00177247
-0.000917769
0.0061265
0.00175323
-0.000706662
0.00615201
0.00172312
-0.000583398
0.0064002
0.00152783
-0.000705795
0.00642741
0.00137012
-0.0010698
0.00629845
0.00127122
-0.00123148
0.00601441
0.00132614
-0.000293666
0.0067093
0.00089555
-0.000800255
0.00708555
0.000966904
-0.000888697
0.00625365
0.000960366
-0.00102091
0.00578172
0.0008954
-0.00121403
0.00522043
0.000903115
-0.00101722
0.00661973
0.000728332
-0.00130667
0.00616467
0.000653283
-0.000418141
0.00701717
0.000784393
-0.000746715
0.00707494
0.00069078
-0.00115499
0.00593785
0.000664746
-0.00123488
0.00505751
0.000629459
-0.00133483
0.00506329
0.000537691
-0.00149124
0.00471258
0.000357973
-0.00137995
0.00483854
0.000429332
-0.00125013
0.00474748
0.000363003
-0.000599165
0.00641863
0.000397537
-0.000697146
0.00547798
1.28147e-05
-0.000969474
0.00505992
-0.000170032
-0.00127428
0.00461095
5.97992e-05
-0.00133152
0.00470311
0.000310842
-0.00128132
0.00406075
0.000448986
-0.00124865
0.00333284
0.000345469
-0.00106173
0.00448456
0.000145853
-0.000646474
0.00580919
0.000143723
-0.000641217
0.00385694
-0.000268355
-0.000971848
0.00395011
-0.000269247
-0.000942419
0.00382171
-0.000210345
-0.000947514
0.00329782
-0.000192141
-0.000927852
0.00357017
-0.000169653
-0.000889582
0.00352951
-5.79349e-05
-0.000993791
0.00412451
-2.50128e-05
-0.000767994
0.00494266
-6.99257e-05
-0.000493654
0.0042544
-5.66637e-05
-0.000366356
0.00342915
-7.22547e-05
-0.000598969
0.00133765
-4.63158e-05
-0.000660511
0.00241957
-8.89636e-05
-0.000684822
0.00178378
-5.59958e-05
-0.000658271
0.00179689
-2.54741e-05
-0.000633744
0.00180841
-5.15366e-05
-0.000533223
0.00283359
-1.86676e-05
-0.000556382
0.00299529
1.93462e-05
-0.00045437
0.00349986
-2.49739e-06
-0.000408445
0.00249957
-8.8621e-05
-0.000347698
0.00273476
-0.00013037
-0.000257266
0.0030776
-0.000168828
-0.000288527
-0.000315148
-4.75859e-05
-0.000332546
0.000184343
-2.42099e-05
-0.000330679
0.000273332
-1.58158e-05
-0.00031301
0.000386247
-1.41475e-05
-0.000317951
0.000781438
-2.77372e-05
-0.000257502
0.00095293
-5.33984e-05
-0.000241824
0.00155286
-4.39225e-05
-0.00022817
0.00216253
-2.25069e-05
-0.000219296
0.00222794
-3.59058e-05
-0.000154516
0.00228139
-5.97224e-05
-8.6298e-05
0.00237088
-7.29268e-05
-3.84873e-05
0.00195748
-7.23035e-05
-0.000557754
0.00562542
0.00382635
-0.00061864
0.00584531
0.00361022
-0.000667669
0.0063097
0.00344705
-0.000591018
0.00583097
0.00343734
-0.000666534
0.00656313
0.00312705
-0.000508361
0.00642069
0.00335622
-0.000229563
0.00603466
0.00333435
-0.000483143
0.00608043
0.00277837
-0.000537783
0.00599165
0.0029612
-0.000614945
0.00573841
0.00295406
-0.000742766
0.00623574
0.00291162
-0.000811678
0.00597635
0.00262694
-0.000515265
0.00572808
0.00267179
-0.000707528
0.00589579
0.0026148
-0.000817872
0.00578042
0.00242051
-0.00114101
0.00620886
0.00223128
-0.000762332
0.0055045
0.00214311
-0.000723025
0.00569962
0.00204929
-0.000777027
0.00584454
0.00205717
-0.000919393
0.00532511
0.00194745
-0.00110413
0.00610127
0.0017913
-0.00123752
0.00628674
0.00175515
-0.000748505
0.00646393
0.00175079
-0.000982136
0.00627978
0.00180733
-0.000697465
0.00626566
0.00166642
-0.000847238
0.00619815
0.00158342
-0.00106019
0.00613869
0.00137604
-0.00127094
0.00618768
0.00135167
-0.00134365
0.00611261
0.0012287
-0.000418708
0.00686874
0.000933585
-0.000686088
0.00686731
0.00105317
-0.000929246
0.00584144
0.00115336
-0.000991171
0.00543103
0.00106734
-0.00128577
0.00508785
0.000978919
-0.00113916
0.00629303
0.000877734
-0.00126684
0.00606548
0.00071441
-0.00139148
0.00577699
0.000729293
-0.000361651
0.00678518
0.000903034
-0.000647878
0.00693627
0.000873794
-0.00120521
0.00610051
0.000763853
-0.00133626
0.00506106
0.000723176
-0.00136551
0.00511623
0.000610498
-0.00144918
0.00496972
0.000448411
-0.00139188
0.0048758
0.000463945
-0.00117845
0.00486245
0.000431088
-0.000724142
0.00565583
0.000250521
-0.000526849
0.0063427
0.000456606
-0.000695787
0.00541069
0.000188766
-0.00101763
0.00514034
7.5977e-06
-0.00125909
0.00464655
0.000105954
-0.00131141
0.00480645
0.000340026
-0.00126085
0.00430044
0.000442423
-0.00121222
0.00369127
0.000308979
-0.00101744
0.0048953
0.000184167
-0.000627338
0.00589489
0.000193838
-0.000366519
0.00509797
0.000301274
-0.000697705
0.00407665
-0.000248889
-0.000937945
0.00426491
-0.000305723
-0.00101285
0.0040259
-0.000145419
-0.00098116
0.00351746
-0.000107096
-0.000916531
0.00379411
-0.000133295
-0.000873065
0.00375247
-5.27688e-05
-0.000934531
0.00447256
-2.78303e-05
-0.000709872
0.00522987
-5.67287e-05
-0.00044723
0.00430518
-8.19184e-05
-0.000374849
0.0034917
-9.20577e-05
-0.000337944
0.00372084
-0.000145112
-0.000595281
0.00166004
-3.28993e-05
-0.00064735
0.00274792
-5.98593e-05
-0.00064157
0.00205394
-4.82285e-05
-0.000656026
0.00208794
-4.02953e-06
-0.000639358
0.00212865
-2.43078e-05
-0.000521513
0.00304942
-3.35831e-06
-0.000540644
0.00324201
3.3431e-05
-0.000421561
0.00370757
5.03139e-06
-0.000397144
0.00275903
-8.41041e-05
-0.000342898
0.00297505
-0.000140527
-0.000225669
0.00325669
-0.000170095
-6.27538e-05
0.00307307
-0.000194841
-0.000289263
-3.36779e-05
-4.41481e-05
-0.000332439
0.000492187
-2.29913e-05
-0.0003355
0.000599127
-1.45045e-05
-0.000314643
0.000697251
-1.21767e-05
-0.00031617
0.00110891
-2.54544e-05
-0.000254638
0.00123315
-5.33224e-05
-0.000237112
0.00178213
-4.55514e-05
-0.000215224
0.00235677
-2.29402e-05
-0.000210324
0.00245157
-3.58071e-05
-0.000142735
0.00244804
-5.98208e-05
-8.29001e-05
0.00246728
-7.32175e-05
-3.33177e-05
0.00199098
-7.31042e-05
-4.56676e-05
0.00189284
-7.14605e-05
-0.000425087
0.0054704
0.00405659
-0.000514099
0.00552545
0.00386923
-0.00035348
0.00560425
0.00387854
-0.000561852
0.00580833
0.00357681
-0.000372206
0.00570223
0.00348852
-0.000575653
0.00619344
0.00343819
-0.000737401
0.00607278
0.00343427
-0.000297815
0.0063309
0.00329778
-0.000367612
0.00650779
0.0029958
-0.000418084
0.00629003
0.00313801
-0.000486459
0.00616412
0.00309828
-0.000623525
0.00648393
0.00308228
-0.000833633
0.00609045
0.00272891
-0.000756547
0.00619178
0.00281953
-0.000868933
0.00590143
0.00295958
-0.000742287
0.00622482
0.0028894
-0.00101195
0.00590608
0.0029115
-0.000868291
0.00596111
0.00264201
-0.000915932
0.00584802
0.0026999
-0.00077251
0.00585677
0.00270629
-0.000766625
0.00562083
0.00262162
-0.000977003
0.00617527
0.00232698
-0.00117186
0.00627159
0.00219122
-0.000757681
0.0055692
0.00212252
-0.000888414
0.00556717
0.00218184
-0.000790584
0.00580537
0.00218159
-0.00104732
0.00544329
0.00213907
-0.00106299
0.00621914
0.00183237
-0.0011181
0.00619324
0.00173197
-0.00125633
0.00619422
0.00164911
-0.00069843
0.00655942
0.00177213
-0.000878192
0.00637171
0.00185097
-0.000927697
0.0062819
0.00178954
-0.000945964
0.00616781
0.00165155
-0.00125548
0.0061931
0.00149871
-0.00121281
0.00623399
0.00140337
-0.00126988
0.00618473
0.00128258
-0.00119021
0.00580804
0.00108785
-0.000267807
0.00692919
0.0010081
-0.000600814
0.00665943
0.0010944
-0.00112234
0.00554196
0.00126978
-0.00120654
0.0052109
0.00124377
-0.00134699
0.00502663
0.00111005
-0.00122672
0.00611543
0.000934058
-0.00123331
0.00600654
0.000778103
-0.0011788
0.00576853
0.000723212
-0.000822953
0.00565249
0.000685458
-0.000662716
0.0069031
0.000928695
-0.000615784
0.00677747
0.000981831
-0.00111527
0.00610193
0.000970016
-0.00131792
0.00504365
0.000840086
-0.00131204
0.00514587
0.000694159
-0.00145662
0.00525086
0.000525123
-0.00134097
0.00493964
0.000513323
-0.00118864
0.0050784
0.0004192
-0.000765528
0.00595923
0.000265877
-0.000448935
0.00626871
0.000363153
-0.000492717
0.00619136
0.000433071
-0.000667968
0.00528595
0.000311373
-0.0008918
0.00501647
0.000191597
-0.00123563
0.00469281
0.000215812
-0.00129704
0.00493924
0.000353668
-0.00117915
0.00450101
0.000445537
-0.00116592
0.00406657
0.00029852
-0.000962377
0.00528704
0.000169752
-0.000517373
0.00594332
0.000205876
-0.000317839
0.00490214
0.000332656
-0.000267499
0.00436931
0.0002724
-0.000777842
0.00433724
-0.000196635
-0.000954443
0.0045245
-0.000201389
-0.000917067
0.00417632
-0.000180646
-0.000980845
0.00378063
-8.37689e-05
-0.000904426
0.00405918
-0.000107095
-0.000841549
0.00396924
-3.00323e-05
-0.000917137
0.00482198
-2.56964e-05
-0.000655003
0.00546323
-2.77499e-05
-0.000400372
0.00433012
-7.84451e-05
-0.000379101
0.00356444
-0.000118457
-0.000303154
0.00385257
-0.000146304
-0.000157304
0.00413113
-0.000156013
-0.000576792
0.00197682
-3.45539e-05
-0.000634317
0.00305121
-3.43158e-05
-0.000682303
0.00236846
-2.75724e-05
-0.000654892
0.00237478
5.17308e-06
-0.000632043
0.00244629
-5.79217e-06
-0.000503406
0.00326663
7.25136e-06
-0.000493361
0.00345502
3.98758e-05
-0.000373298
0.0038912
7.86858e-06
-0.000385866
0.00301408
-7.44792e-05
-0.000327432
0.00322196
-0.000146323
-0.000212589
0.00341204
-0.000166185
-3.59439e-05
0.00310413
-0.000198532
-5.3994e-05
0.00320554
-0.000198435
-0.000287678
0.000244292
-4.33238e-05
-0.000329468
0.00079985
-2.23431e-05
-0.000338593
0.000927287
-1.25592e-05
-0.000314934
0.00101072
-1.30435e-05
-0.000311511
0.00143285
-2.46046e-05
-0.000251636
0.00151028
-5.09488e-05
-0.000233819
0.00200704
-4.44111e-05
-0.000205753
0.00253941
-2.24336e-05
-0.000195818
0.00266019
-3.5739e-05
-0.000135465
0.00260777
-6.00738e-05
-6.35803e-05
0.00254509
-7.40554e-05
-2.69395e-05
0.00201812
-7.34227e-05
-3.21221e-05
0.00192417
-7.23091e-05
-4.0813e-05
0.00194291
-6.61378e-05
-0.000451757
0.00507237
0.00438342
-0.000288432
0.00529098
0.00424768
-0.00041948
0.00539538
0.00405384
-0.000323681
0.00547276
0.00406079
-0.000483334
0.00541746
0.00392787
-0.000292497
0.00550536
0.00388841
-0.000111657
0.00560783
0.00383196
-0.000424587
0.00577393
0.00354588
-0.000617301
0.00567722
0.00348172
-0.00025656
0.00594203
0.00348419
-0.000459012
0.00621946
0.00346835
-0.000456961
0.00614802
0.00340182
-0.000362044
0.00634776
0.00329299
-0.000645886
0.00606669
0.00325942
-0.000618957
0.00633076
0.00299818
-0.000763499
0.00628521
0.00300757
-0.000470197
0.00607703
0.00282636
-0.000454777
0.00658246
0.00271224
-0.00054966
0.00621929
0.00276747
-0.0010843
0.00626282
0.00270992
-0.000973855
0.00622365
0.00275496
-0.000932493
0.00607792
0.00280303
-0.000645796
0.00622608
0.0028375
-0.00093642
0.00600813
0.00274677
-0.000934665
0.00634689
0.00263134
-0.000917136
0.00599572
0.00260179
-0.000999571
0.00588283
0.00271836
-0.000779307
0.00581142
0.00273398
-0.00086273
0.00550708
0.00263546
-0.000885178
0.00612279
0.00249629
-0.000751931
0.00589985
0.00233256
-0.000796101
0.00589447
0.0019508
-0.000789443
0.0056683
0.00211162
-0.00105336
0.00570353
0.00216133
-0.00101365
0.00584332
0.00222984
-0.00116847
0.00574558
0.00210181
-0.00112995
0.00627109
0.0019616
-0.00109452
0.00618039
0.00172694
-0.00126838
0.00631289
0.0016118
-0.000985768
0.00621574
0.0014934
-0.000612725
0.0066704
0.00179779
-0.000675594
0.00634753
0.00187109
-0.00112672
0.00631423
0.00182302
-0.00114216
0.00618545
0.00170751
-0.00120694
0.00617812
0.00152649
-0.00126092
0.00639027
0.00137663
-0.00120156
0.00624648
0.00130988
-0.000967221
0.00575083
0.00112821
-0.000723338
0.0059587
0.000971499
-0.000701284
0.00708894
0.000990704
-0.000816457
0.00672164
0.00114657
-0.00135223
0.00557914
0.00129417
-0.00135718
0.0051824
0.00133754
-0.00138846
0.00515297
0.00119386
-0.00123058
0.00599255
0.00100688
-0.00129838
0.00607473
0.000823272
-0.00112397
0.00571566
0.000766306
-0.000805215
0.00575421
0.000661173
-0.000415847
0.00598452
0.000618247
-0.00044781
0.00680785
0.000948231
-0.000637762
0.00666605
0.0010099
-0.000902482
0.006021
0.00107345
-0.00137439
0.00522857
0.000923849
-0.00145126
0.00535351
0.00078667
-0.00130132
0.00544707
0.000620121
-0.0012161
0.00495182
0.000563115
-0.00113684
0.00535282
0.000413367
-0.000583787
0.00618961
0.000255233
-0.000392755
0.00620805
0.000401448
-0.000144693
0.00522908
0.000572419
-0.000573941
0.0060209
0.000404381
-0.000729517
0.00511142
0.000382665
-0.000961587
0.0050971
0.000275263
-0.00117584
0.004799
0.000280392
-0.00120843
0.00505478
0.000404282
-0.00111723
0.00468994
0.000440417
-0.00113121
0.00438392
0.000342259
-0.000881223
0.00559703
0.000214747
-0.000398291
0.00591021
0.000200781
-0.000303097
0.00469921
0.000332802
-0.000221247
0.00438249
0.000237566
-0.000145754
0.00420507
9.08779e-05
-0.000790635
0.00464486
-0.000186421
-0.000957749
0.00478606
-0.000134761
-0.000979388
0.00436943
-9.74091e-05
-0.000978306
0.00395357
-3.01692e-05
-0.000864593
0.00430702
-9.90545e-05
-0.000821984
0.00421474
-3.40103e-05
-0.000841927
0.00515445
-1.39414e-05
-0.00054554
0.00561992
-1.01365e-05
-0.000404799
0.00438814
-6.68395e-05
-0.000373772
0.00367212
-0.000139788
-0.000250837
0.00393583
-0.000163465
-9.14327e-05
0.00419908
-0.000158766
-2.02761e-05
0.00401348
-0.000158235
-0.00055584
0.00229254
-3.04779e-05
-0.000608273
0.00331201
-1.65484e-05
-0.000692189
0.00269792
-1.01837e-05
-0.000655456
0.0026782
9.53535e-06
-0.000633276
0.00277399
-7.63588e-07
-0.000475608
0.00348637
-1.55351e-06
-0.000456236
0.00363726
4.7428e-05
-0.000341073
0.00406215
4.254e-06
-0.000365652
0.00325754
-6.57589e-05
-0.000307184
0.00346335
-0.000144145
-0.000164325
0.00353708
-0.000170623
-1.35682e-05
0.00312656
-0.000201988
-3.26079e-05
0.003204
-0.000196511
-0.000155232
0.00276648
-0.000178855
-0.000287257
0.00052387
-4.34811e-05
-0.000325588
0.00110317
-2.10523e-05
-0.000336731
0.00125295
-1.12708e-05
-0.0003144
0.00132274
-1.01781e-05
-0.000302494
0.00174836
-2.60544e-05
-0.000248191
0.00178372
-4.98492e-05
-0.000225447
0.00222434
-4.28052e-05
-0.000194597
0.00271172
-2.21256e-05
-0.000185333
0.00285813
-3.50446e-05
-0.000119836
0.00275201
-6.01437e-05
-4.95321e-05
0.0026085
-7.39504e-05
-1.82517e-05
0.0020365
-7.41813e-05
-2.62212e-05
0.00194987
-7.29065e-05
-3.95699e-05
0.00197664
-6.64692e-05
1.32725e-05
0.00225098
-5.70822e-05
-0.000731799
0.00458622
0.00462611
-0.000387925
0.00508457
0.004408
-0.000350272
0.00502808
0.00439808
-0.000216954
0.00516062
0.00426098
-0.000157543
0.00533168
0.0041258
-0.00042134
0.00530873
0.00409218
-0.000258279
0.00535841
0.00413397
-0.000201599
0.00541898
0.00410204
-0.000431948
0.00545218
0.00384579
-0.000256833
0.00524184
0.00383093
-7.08008e-05
0.00554221
0.00376827
-0.000309155
0.00552844
0.00383455
-0.000500828
0.00587703
0.00351642
-0.000616836
0.00590828
0.00347469
-0.000265062
0.00585424
0.00347253
-0.000602239
0.00554496
0.00348651
-0.000563465
0.00614156
0.00345731
-0.000537834
0.00602079
0.00336992
-0.000215608
0.00621872
0.00327628
-0.000291625
0.0059838
0.00321273
-0.000256137
0.00624346
0.00311187
-0.000913453
0.00617485
0.00291549
-0.00089479
0.00623352
0.0029708
-0.000810349
0.00602551
0.00293695
-0.000190947
0.00620926
0.00274472
-0.00038365
0.00590282
0.00247593
-0.000736319
0.00651809
0.00263447
-0.000976526
0.00631797
0.00270281
-0.000965133
0.00624222
0.00265692
-0.000812387
0.00615802
0.00270793
-0.000750907
0.00637792
0.00253936
-0.000768712
0.00614847
0.00258068
-0.000610949
0.00656466
0.00238801
-0.000496218
0.00618941
0.00234398
-0.000854989
0.00596538
0.00252745
-0.00106608
0.00581842
0.00267893
-0.00101711
0.00577096
0.00276228
-0.000897162
0.00539553
0.00257422
-0.000897793
0.00609625
0.00242983
-0.00066566
0.00563626
0.00233102
-0.000934203
0.00587665
0.0020162
-0.000684588
0.00646465
0.00171186
-0.000779147
0.00582047
0.00211539
-0.00104973
0.00601113
0.00217815
-0.00124028
0.00588532
0.00223288
-0.00112483
0.00575266
0.00220542
-0.00101047
0.00618839
0.00198803
-0.00100126
0.00599641
0.00188592
-0.000924831
0.00620923
0.00155388
-0.00084192
0.00624585
0.00145639
-0.000445648
0.00589096
0.00142475
-0.000678472
0.00641841
0.00180206
-0.000901542
0.00633703
0.00189337
-0.00128188
0.00632246
0.00179252
-0.00130506
0.00628166
0.0016747
-0.00129424
0.00621007
0.00158133
-0.000981509
0.00623581
0.00143189
-0.00107081
0.00613437
0.00126117
-0.000858377
0.00560952
0.0011856
-0.000566558
0.00582183
0.00102643
-0.000313225
0.00591054
0.000924811
-0.000359229
0.0070819
0.000965665
-0.000822856
0.0067382
0.00115924
-0.00132374
0.00585936
0.00128761
-0.00150919
0.00530896
0.00130241
-0.00154451
0.00535275
0.00123101
-0.00119405
0.00602676
0.00105238
-0.000982292
0.00598393
0.000863879
-0.00115007
0.00575312
0.00079905
-0.000643774
0.00588455
0.000695958
-0.000451928
0.00609534
0.000609529
-0.000116878
0.00581212
0.000749477
-0.000449761
0.00655627
0.00099547
-0.000750854
0.00664618
0.000989439
-0.00102435
0.00605293
0.00104073
-0.00129493
0.00545782
0.000963285
-0.00105701
0.00530796
0.000817978
-0.001212
0.00564893
0.000679572
-0.00115824
0.00499622
0.000602749
-0.00103461
0.00565337
0.000415946
-0.000452885
0.0063818
0.000275773
-0.000265017
0.00599649
0.000428711
-1.27109e-05
0.00483158
0.000590413
3.93345e-05
0.00422512
0.000453894
-0.000765232
0.00602839
0.000400726
-0.000673956
0.00482952
0.000402492
-0.00103047
0.00516918
0.000361668
-0.00120243
0.00495816
0.000340237
-0.00118666
0.00523591
0.000421334
-0.00108742
0.0049082
0.000451455
-0.00105718
0.00473518
0.00030441
-0.000740463
0.0058662
0.000268009
-0.000351121
0.00580629
0.000264994
-0.00027343
0.00454954
0.00025011
-0.000163579
0.00443783
0.000190209
-5.02256e-05
0.0043789
2.2528e-05
9.59229e-05
0.00455231
0.000146365
-0.000758445
0.00492184
-0.000145327
-0.000994277
0.00504668
-6.10384e-05
-0.000985019
0.00459057
-6.30703e-05
-0.000992946
0.00420053
-6.87809e-06
-0.000870396
0.0045817
-6.7733e-05
-0.000767685
0.00449686
-8.91002e-05
-0.00076756
0.00544803
-1.62649e-05
-0.000492528
0.0057472
1.02336e-05
-0.00037504
0.00444057
-5.31768e-05
-0.000361532
0.00381897
-0.000159345
-0.000191891
0.00400069
-0.00017708
-3.01912e-05
0.00422174
-0.000169498
5.14715e-05
0.00394257
-0.000171929
-0.000153431
0.00394178
-9.05126e-05
-0.000529922
0.00256652
-2.11292e-05
-0.000586004
0.00354867
-6.72023e-06
-0.000686712
0.00302189
9.46999e-06
-0.000654691
0.00298246
2.58453e-05
-0.000608006
0.00307882
1.02122e-05
-0.000459515
0.00369607
8.51621e-07
-0.000423917
0.00379428
3.98984e-05
-0.000303352
0.00420882
9.50774e-06
-0.000330903
0.0034781
-7.07373e-05
-0.000266763
0.00368654
-0.000142026
-0.000130829
0.00364483
-0.000170591
8.55022e-06
0.00313025
-0.000201112
-2.28145e-06
0.00317675
-0.000198677
-0.000146357
0.00285001
-0.000173261
-7.5531e-05
0.0034677
-8.91636e-05
-0.000287963
0.000807079
-4.25584e-05
-0.000323067
0.00140293
-2.01787e-05
-0.000333002
0.00157467
-9.77659e-06
-0.000311998
0.0016326
-9.13376e-06
-0.000296331
0.00205833
-2.38188e-05
-0.000243731
0.00205036