/*--------------------------------*- C++ -*----------------------------------*\
  =========                 |
  \\      /  F ield         | OpenFOAM: The Open Source CFD Toolbox
   \\    /   O peration     | Website:  https://openfoam.org
    \\  /    A nd           | Version:  7
     \\/     M anipulation  |
\*---------------------------------------------------------------------------*/
FoamFile
{
    version     2.0;
    format      ascii;
    class       volVectorField;
    location    "4.5";
    object      U;
}
// * * * * * * * * * * * * * * * * * * * * * * * * * * * * * * * * * * * * * //

dimensions      [0 1 -1 0 0 0 0];

internalField   nonuniform List<vector> 
18630
(
(2.0065 -1.2961 -0.997846)
(1.43125 -1.49364 -0.71543)
(1.99931 -1.30756 -0.963446)
(1.84644 -1.68368 -0.860484)
(-0.381608 -2.60207 -0.766444)
(1.38957 -1.57662 -0.668539)
(0.855954 -2.17341 -1.28295)
(1.99971 -1.30216 -0.962366)
(1.87423 -1.71337 -0.848423)
(1.62694 -1.70251 -0.501021)
(-2.87716 -1.49198 0.0407333)
(-0.236881 -2.96487 -1.00723)
(-0.287427 -2.30996 -1.97986)
(1.30914 -1.63525 -0.550809)
(0.88022 -2.2493 -1.32597)
(0.725074 -1.98577 -0.918568)
(2.03145 -1.29133 -0.971657)
(1.86512 -1.74202 -0.875608)
(1.74282 -1.70019 -0.449219)
(1.46124 -1.82736 -0.530052)
(-2.87274 -2.07356 1.28186)
(-2.95588 -1.55219 0.136791)
(-1.81194 -2.56419 -0.258062)
(-0.307216 -2.95827 -1.01939)
(-0.247322 -2.43646 -1.81677)
(-0.870053 -2.03419 -1.78518)
(1.27492 -1.67357 -0.511694)
(0.867886 -2.29614 -1.22439)
(0.706731 -2.2263 -0.883024)
(0.679568 -2.21345 -0.975774)
(2.03182 -1.25423 -1.0404)
(1.92825 -1.72051 -0.823434)
(1.59872 -1.83045 -0.499087)
(1.51498 -1.82088 -0.498338)
(1.37054 -2.12717 -0.328246)
(-2.37361 -1.46019 1.58995)
(-2.90653 -2.21323 1.21839)
(-3.36209 -1.47707 0.690728)
(-2.7756 -1.4522 0.462853)
(-1.59688 -2.58518 0.447117)
(-1.10725 -2.36776 -0.926734)
(-0.177447 -3.0218 -1.00866)
(-0.296013 -2.54037 -1.58421)
(-0.752878 -2.20119 -1.7604)
(-0.326731 -2.40522 -1.692)
(1.27747 -1.74791 -0.418348)
(0.930153 -2.38374 -1.12949)
(0.798006 -2.20986 -0.967413)
(0.688752 -2.27095 -0.85814)
(0.599437 -2.36949 -0.831187)
(2.0142 -1.25057 -1.07785)
(1.87184 -1.78158 -0.845726)
(1.76898 -1.71903 -0.419638)
(1.48332 -1.87134 -0.477366)
(1.29567 -2.17501 -0.367437)
(0.872824 -1.99796 -0.854165)
(-1.53767 -2.50595 2.92646)
(-2.43991 -1.3793 1.61863)
(-2.86314 -1.78687 1.86149)
(-2.80313 -2.46188 1.24532)
(-3.26508 -1.50999 0.91119)
(-2.51825 -1.83157 0.828246)
(-2.52599 -2.04202 0.703089)
(-1.43802 -2.61852 0.585573)
(-1.03783 -2.35623 -1.25544)
(-1.31843 -2.57544 -0.931647)
(-0.209094 -2.8495 -0.916086)
(-0.125622 -2.61601 -1.6806)
(-0.577797 -2.51085 -1.46365)
(-0.314667 -2.43872 -1.7335)
(-0.635516 -2.47764 -1.53975)
(1.29414 -1.85894 -0.38001)
(0.911132 -2.44173 -1.08361)
(0.793982 -2.29734 -0.901546)
(0.719277 -2.34946 -0.730924)
(0.636687 -2.42476 -0.745724)
(-0.22473 -2.24087 -1.31207)
(2.00992 -1.2272 -1.10703)
(1.91176 -1.76671 -0.799806)
(1.6591 -1.87396 -0.415054)
(1.5116 -1.85921 -0.493591)
(1.31793 -2.17366 -0.343463)
(0.905009 -1.9895 -0.841841)
(0.332075 -1.93741 -1.0716)
(-2.39638 -1.78842 3.29504)
(-1.58101 -2.51122 2.97388)
(-1.9413 -2.10256 2.78625)
(-2.52107 -1.48575 1.69995)
(-2.90683 -1.81901 1.9851)
(-3.36001 -1.35957 2.00626)
(-2.67387 -2.73189 1.2322)
(-3.19206 -1.63042 1.13984)
(-2.45896 -1.86802 1.00822)
(-2.08428 -2.42444 0.957715)
(-3.32 -0.0692884 1.15889)
(-1.36633 -2.68788 1.00951)
(-1.16959 -2.57365 -0.876916)
(-1.25221 -2.78462 -0.919739)
(-1.75975 -2.81232 -0.433332)
(-0.0872691 -2.7776 -0.702852)
(-0.218134 -2.7148 -1.29821)
(-0.654295 -2.40535 -1.74145)
(-0.223338 -2.69996 -1.32213)
(-0.584427 -2.52163 -1.5503)
(-0.726516 -2.58375 -1.17804)
(1.32973 -1.95421 -0.358371)
(0.979254 -2.5009 -1.07744)
(0.934602 -2.40959 -0.686105)
(0.763479 -2.40082 -0.650315)
(0.663155 -2.49795 -0.645815)
(-0.222706 -2.2746 -1.17517)
(-0.336117 -2.61716 -0.31966)
(1.97275 -1.19904 -1.2085)
(1.92818 -1.77007 -0.775557)
(1.73882 -1.83311 -0.460623)
(1.49952 -1.88785 -0.455106)
(1.30993 -2.18678 -0.330834)
(0.864703 -2.01378 -0.824751)
(0.332224 -1.93189 -1.09912)
(-0.0984168 -2.07402 -0.460737)
(-2.77314 -1.9472 3.3339)
(-2.39977 -1.72012 3.38084)
(-2.54712 -1.33514 2.37873)
(-1.542 -2.57324 2.9632)
(-1.99798 -2.24154 2.83906)
(-3.08779 -0.726728 2.28291)
(-2.96569 -1.19955 1.46848)
(-3.03668 -2.09303 1.74455)
(-2.81122 -2.23397 1.74262)
(-2.86369 -1.95928 1.27023)
(-2.45307 -2.95741 1.34162)
(-2.96412 -1.91892 1.53532)
(-2.1005 -2.24975 1.15093)
(-2.03086 -2.45657 1.20674)
(-1.79389 -2.91226 0.89435)
(-2.45096 -1.8727 1.66832)
(-1.21451 -2.70019 0.689574)
(-1.0281 -2.73549 -0.691019)
(-1.0229 -3.06719 -0.759679)
(-1.53431 -2.99653 -0.398721)
(-1.05644 -2.98854 1.57911)
(-0.0110554 -2.80149 -0.656921)
(-0.135847 -2.79607 -1.34491)
(-0.429646 -2.60093 -1.91347)
(-0.189457 -2.78662 -1.1278)
(-0.510399 -2.66789 -1.4211)
(-0.778574 -2.51835 -1.20434)
(-0.835906 -2.98812 -0.258804)
(1.35304 -2.01056 -0.365863)
(1.05091 -2.62476 -0.969721)
(0.961879 -2.49352 -0.664748)
(0.810188 -2.45021 -0.594277)
(0.692662 -2.56927 -0.327901)
(-0.196829 -2.31564 -1.01724)
(-0.315051 -2.63488 -0.201057)
(-0.781535 -2.46761 0.122104)
(1.93501 -1.20448 -1.27974)
(1.93882 -1.77231 -0.741443)
(1.7435 -1.87681 -0.440266)
(1.50973 -1.89198 -0.434825)
(1.29897 -2.19368 -0.346275)
(0.867424 -2.02395 -0.823493)
(0.322988 -1.92567 -1.14007)
(-0.0955192 -2.05892 -0.462249)
(-0.22608 -2.00409 -0.524617)
(-3.1942 -1.12749 3.23704)
(-2.79068 -1.41601 3.32169)
(-2.7704 -1.53153 2.9119)
(-2.34773 -1.7186 3.32429)
(-2.40601 -1.63223 2.50008)
(-2.72979 -1.09201 1.68957)
(-1.6984 -2.51005 2.77498)
(-2.28641 -1.99276 2.78565)
(-2.99621 -1.00917 2.30229)
(-3.01839 -1.23925 2.21914)
(-2.90529 -1.32185 1.79109)
(-3.01665 -2.15386 1.64818)
(-2.78331 -2.40208 1.65441)
(-2.69429 -2.27892 1.26826)
(-2.3871 -2.19278 1.69543)
(-2.32556 -3.25906 1.53283)
(-2.73147 -2.35068 1.79107)
(-1.98227 -2.51008 1.14923)
(-1.84125 -2.62745 1.3037)
(-1.6992 -3.01382 1.05633)
(-1.50955 -3.28558 0.676542)
(-2.2143 -2.36331 1.75931)
(-1.1753 -2.85664 0.418952)
(-1.14945 -2.83496 -1.05843)
(-0.878757 -3.25323 -0.556991)
(-1.38999 -3.1632 -0.405631)
(-1.00245 -2.94723 1.66323)
(-0.579443 -3.08103 1.09855)
(0.0486056 -2.85758 -0.758287)
(0.0604775 -2.99842 -1.25992)
(-0.294492 -2.89304 -1.51466)
(-0.124586 -2.83494 -1.05063)
(-0.429887 -2.7701 -1.2232)
(-0.583523 -2.771 -0.543062)
(-0.822324 -3.02941 -0.195299)
(-1.51703 -2.50433 -0.218436)
(1.44307 -2.07889 -0.315138)
(1.07391 -2.70178 -0.871732)
(1.08764 -2.52905 -0.700425)
(0.850702 -2.51463 -0.502837)
(0.714925 -2.61189 -0.203689)
(-0.165779 -2.36974 -0.83421)
(-0.297756 -2.63243 -0.0439114)
(-0.78038 -2.46964 0.168627)
(-0.448427 -2.22474 -0.339411)
(1.8934 -1.19988 -1.37383)
(1.93674 -1.78109 -0.718929)
(1.77869 -1.87917 -0.423526)
(1.50418 -1.90694 -0.403061)
(1.28907 -2.19762 -0.364776)
(0.877945 -2.03278 -0.846869)
(0.307609 -1.91529 -1.20859)
(-0.114874 -2.04982 -0.484876)
(-0.243648 -1.98003 -0.507787)
(-0.569441 -1.47787 -1.11592)
(-2.95575 -1.06371 3.27125)
(-2.79801 -1.15427 3.36813)
(-2.75182 -1.03717 3.37884)
(-2.57497 -1.73929 3.21144)
(-2.83414 -1.12365 2.96861)
(-2.75002 -0.81335 2.79292)
(-2.2346 -1.87741 3.17123)
(-2.37983 -1.71402 2.545)
(-2.60389 -1.38943 1.96202)
(-2.49866 -1.39866 2.24493)
(-1.61457 -2.55869 2.87522)
(-2.36741 -1.85694 2.84373)
(-2.98347 -1.20558 2.27439)
(-2.89876 -1.44815 2.28063)
(-2.83791 -1.61673 2.02538)
(-2.983 -1.53315 1.90554)
(-2.67184 -2.4938 1.62832)
(-2.42502 -2.67449 1.6941)
(-2.40022 -2.67583 1.30203)
(-2.15627 -2.52767 1.6912)
(-3.02225 -1.68371 1.21402)
(-2.18149 -3.29185 1.69815)
(-2.46122 -2.7805 1.8166)
(-1.99441 -2.62053 1.30311)
(-1.51102 -2.83623 1.39346)
(-1.4674 -3.06037 1.39928)
(-1.27374 -3.47647 0.699666)
(-1.81966 -2.9464 0.835436)
(-1.97489 -2.68294 1.7163)
(-1.01691 -3.08328 0.292197)
(-0.784755 -3.29977 -0.258788)
(-0.790039 -3.35984 -0.23293)
(-1.02455 -3.40354 0.00418023)
(-0.93787 -2.96436 1.75612)
(-0.597042 -3.07885 1.05449)
(-1.38581 -2.79126 0.483423)
(0.144077 -2.90413 -0.850139)
(0.190906 -3.23456 -1.40872)
(-0.214553 -2.92907 -1.516)
(0.0133955 -2.92765 -0.954527)
(-0.36549 -2.82162 -1.13074)
(-0.548955 -2.80335 -0.469065)
(-0.795031 -3.04961 0.0355555)
(-1.55428 -2.56915 -0.133237)
(-1.69037 -1.76394 -0.48217)
(1.46687 -2.17229 -0.327752)
(1.08719 -2.72805 -0.800597)
(1.11283 -2.61385 -0.760563)
(0.884141 -2.56727 -0.38818)
(0.780564 -2.65462 -0.321852)
(-0.175392 -2.41262 -0.650927)
(-0.289327 -2.63477 0.0373178)
(-0.780172 -2.46457 0.0197395)
(-0.457734 -2.21701 -0.229204)
(-0.826511 -1.61803 -1.10524)
(1.88206 -1.14971 -1.49954)
(1.93426 -1.79676 -0.704376)
(1.76682 -1.91113 -0.394665)
(1.49633 -1.92435 -0.3721)
(1.28986 -2.19053 -0.349766)
(0.863501 -2.02819 -0.899887)
(0.288328 -1.90712 -1.29483)
(-0.110557 -2.03772 -0.497218)
(-0.273398 -1.96561 -0.497394)
(-0.591796 -1.4722 -1.10358)
(-0.934574 -0.79872 -1.62325)
(-2.86703 -1.12482 3.18819)
(-2.89664 -1.27632 3.22733)
(-2.928 -1.07406 3.31014)
(-2.84158 -1.42658 3.12686)
(-2.81199 -0.840284 3.31913)
(-2.58394 -1.00627 3.52299)
(-2.44453 -1.73868 3.26358)
(-2.63051 -1.13273 3.18783)
(-2.56745 -1.07987 3.06262)
(-2.66295 -1.09595 2.94734)
(-1.95774 -2.21024 3.07572)
(-2.13189 -1.92995 2.71073)
(-2.50742 -1.653 2.29116)
(-2.11293 -1.8016 2.60154)
(-2.63783 -1.70056 2.64638)
(-2.02018 -2.50309 2.79695)
(-2.35846 -2.08911 2.99342)
(-2.75679 -1.54406 2.4897)
(-2.9779 -1.42876 2.2816)
(-2.67967 -1.9504 2.14713)
(-2.49425 -2.35453 2.03934)
(-2.88885 -1.70645 1.96898)
(-2.55974 -2.68256 1.59191)
(-1.99369 -3.02327 1.85975)
(-1.80639 -3.03124 1.60638)
(-1.79312 -2.70941 1.88907)
(-3.04077 -1.94799 1.36559)
(-2.72612 -2.40329 1.34015)
(-2.19254 -3.10664 1.70971)
(-2.41924 -2.80048 1.69009)
(-1.59176 -2.89658 1.49552)
(-1.44503 -2.95867 1.4415)
(-1.42036 -3.1338 1.52147)
(-1.11232 -3.56544 0.789347)
(-1.59616 -3.03451 0.94137)
(-1.81139 -2.53989 1.04816)
(-1.78489 -2.81031 1.81318)
(-0.925449 -3.40141 0.56698)
(-0.972947 -3.24589 -1.2732)
(-0.580213 -3.4399 -0.0235716)
(-0.840495 -3.54955 0.243944)
(-0.862096 -3.01345 1.75679)
(-0.434094 -3.04626 1.38348)
(-1.40557 -2.86271 0.561139)
(-2.40059 -1.84513 0.126242)
(0.208619 -2.95775 -1.05834)
(0.387477 -3.34613 -1.41175)
(-0.0247336 -3.08787 -1.412)
(0.0441095 -3.02882 -0.932508)
(-0.370692 -2.84748 -1.02876)
(-0.497016 -2.83236 -0.468755)
(-0.777242 -3.09319 0.0202426)
(-1.61594 -2.52791 -0.227071)
(-1.61141 -1.88832 -0.333268)
(-1.35826 -1.64864 0.0183208)
(1.54329 -2.19694 -0.226367)
(1.08406 -2.7422 -0.679468)
(1.22953 -2.65917 -0.663228)
(0.938305 -2.60378 -0.209279)
(0.796088 -2.73245 -0.374167)
(-0.159325 -2.43257 -0.523356)
(-0.287875 -2.62815 0.121293)
(-0.770366 -2.45623 0.118581)
(-0.474664 -2.19264 -0.206878)
(-0.904718 -1.69458 -0.895075)
(-1.19555 -1.37007 -1.07551)
(1.89987 -1.18789 -1.38473)
(1.95093 -1.7981 -0.710332)
(1.77528 -1.9129 -0.365819)
(1.50487 -1.92863 -0.355403)
(1.28614 -2.18726 -0.304249)
(0.859535 -2.03157 -0.916501)
(0.283847 -1.88624 -1.42708)
(-0.0763039 -2.01191 -0.505507)
(-0.272667 -1.95764 -0.501098)
(-0.598142 -1.469 -1.10887)
(-0.933345 -0.803076 -1.62578)
(-0.829408 -0.541596 -1.6188)
(-2.61467 -0.735232 3.01497)
(-2.654 -1.06355 3.11106)
(-2.80168 -1.3032 3.14883)
(-2.61707 -1.14507 3.26666)
(-2.83287 -1.57824 3.17348)
(-2.89087 -1.1532 3.2975)
(-2.87281 -0.744153 3.46493)
(-2.5832 -1.66683 3.15891)
(-2.51251 -1.41185 3.34152)
(-2.53302 -1.35848 3.3883)
(-2.76059 -1.41518 3.28644)
(-2.39865 -1.85115 3.28523)
(-2.49998 -1.40227 3.34892)
(-2.59992 -1.22687 3.23103)
(-2.56402 -1.41257 3.12396)
(-2.68698 -1.76136 2.90912)
(-1.91811 -2.16795 3.05357)
(-2.2847 -1.91376 2.85734)
(-2.30842 -1.97398 2.62168)
(-2.11486 -2.03846 2.85901)
(-2.4407 -2.07895 2.72613)
(-2.74312 -1.78896 2.53684)
(-2.11137 -2.5153 2.70348)
(-2.08344 -2.56803 2.98281)
(-2.55886 -1.91383 2.71066)
(-2.58713 -1.67087 2.64381)
(-2.51842 -2.11691 2.33687)
(-2.37494 -2.40702 2.18261)
(-2.61349 -2.30348 2.34559)
(-2.54816 -2.17236 1.98616)
(-2.23848 -2.96538 1.62169)
(-1.68533 -3.25396 2.13449)
(-1.63677 -3.14718 1.9758)
(-1.5193 -2.95515 1.99194)
(-2.39293 -2.55224 1.7516)
(-2.33558 -2.5728 1.52164)
(-2.30278 -2.46768 1.34534)
(-1.7123 -3.13658 2.10505)
(-2.42282 -2.53787 1.93448)
(-1.72312 -3.0027 1.72663)
(-1.01132 -3.11172 1.75291)
(-1.20649 -3.23554 1.69889)
(-1.12197 -3.53406 0.97388)
(-1.44489 -3.10289 1.03065)
(-1.68639 -2.57936 1.23422)
(-2.39752 -1.81756 0.712338)
(-1.6356 -2.96642 1.68044)
(-0.570723 -3.59946 0.75025)
(-0.397902 -3.66316 -0.510215)
(-0.464394 -3.53801 0.194579)
(-0.667387 -3.56905 0.429733)
(-0.794644 -3.07887 1.67479)
(-0.638414 -3.13943 1.13175)
(-1.43945 -2.82099 0.844051)
(-2.40223 -1.97801 0.30951)
(-2.35627 -1.10554 0.809414)
(0.383225 -3.03657 -1.19994)
(0.366915 -3.36531 -1.1951)
(0.250771 -3.26402 -0.996081)
(0.268899 -3.14592 -0.386115)
(-0.304207 -2.913 -0.748099)
(-0.446688 -2.87287 -0.465964)
(-0.9139 -3.07093 -0.0376699)
(-1.64382 -2.53994 -0.230743)
(-1.55505 -1.94189 -0.429103)
(-1.26554 -1.82045 -0.146472)
(-1.52844 -1.34446 -0.673914)
(1.50032 -2.20284 -0.247018)
(1.1031 -2.7579 -0.456636)
(1.25332 -2.68437 -0.650477)
(0.9868 -2.63523 -0.119538)
(0.845426 -2.7871 -0.169491)
(-0.135788 -2.44192 -0.401421)
(-0.272928 -2.61484 0.268742)
(-0.786004 -2.4394 0.152187)
(-0.475831 -2.19721 -0.157102)
(-0.812107 -1.65106 -1.10619)
(-1.23975 -1.29875 -1.06898)
(-1.41248 -0.500375 -1.48826)
(1.89691 -1.25 -1.22194)
(1.98028 -1.79707 -0.721174)
(1.80311 -1.90786 -0.332432)
(1.51747 -1.92818 -0.334281)
(1.29033 -2.1834 -0.237707)
(0.866236 -2.03581 -0.934442)
(0.301372 -1.93826 -1.48944)
(-0.107268 -1.99121 -0.512481)
(-0.27817 -1.94389 -0.482685)
(-0.639171 -1.46935 -1.10981)
(-0.951068 -0.819552 -1.62244)
(-0.806532 -0.570991 -1.62921)
(-0.773141 -0.613137 -1.63142)
(-2.5676 -0.718166 2.96324)
(-2.58601 -0.857468 3.02943)
(-2.64553 -0.592668 2.99947)
(-2.63933 -1.13809 3.05827)
(-2.6579 -0.806993 3.02729)
(-2.77492 -1.38979 3.14309)
(-2.65052 -1.16988 3.26127)
(-2.8441 -0.814313 3.08767)
(-2.94739 -1.4578 3.03667)
(-2.85525 -1.33849 3.21064)
(-2.65964 -1.14705 3.48375)
(-2.80021 -1.03782 3.33021)
(-2.28639 -2.05622 3.06394)
(-2.60929 -1.70962 3.10468)
(-2.33705 -1.79418 3.35377)
(-2.68369 -1.56302 3.24902)
(-2.54549 -1.44703 3.37458)
(-2.22005 -2.00909 3.27534)
(-2.20126 -1.9924 3.34059)
(-2.39301 -1.76185 3.37236)
(-2.38976 -1.55001 3.40113)
(-2.70245 -1.65554 3.06209)
(-2.68413 -1.87875 2.82857)
(-1.84712 -2.14893 3.03231)
(-1.90538 -2.19632 3.1117)
(-2.14296 -2.09546 3.03514)
(-1.82297 -2.23529 3.24898)
(-2.51005 -2.20809 2.77103)
(-2.56649 -2.10331 2.51562)
(-2.63985 -2.05869 2.5329)
(-2.05512 -2.65619 2.61861)
(-2.23304 -2.25779 3.04164)
(-2.41182 -1.9868 2.98989)
(-2.53862 -1.74709 2.87514)
(-2.25311 -2.20939 2.67469)
(-2.4127 -2.38358 2.30834)
(-2.4334 -2.26821 2.3145)
(-2.35423 -2.31078 1.89656)
(-2.74699 -2.18255 2.11855)
(-1.85868 -3.14074 1.75221)
(-1.04981 -3.42127 2.41078)
(-1.10421 -3.21209 2.47258)
(-1.21458 -3.05614 2.2857)
(-2.16533 -2.72947 1.92827)
(-2.10942 -2.76947 1.69283)
(-2.28503 -2.4601 1.38169)
(-2.50195 -1.65895 1.56439)
(-1.79141 -3.1001 2.12133)
(-2.36738 -2.49204 2.12161)
(-1.66874 -2.73797 2.35449)
(-0.965842 -3.16282 1.99383)
(-1.04251 -3.30679 1.8108)
(-1.02033 -3.56048 1.14647)
(-1.30509 -3.09016 1.28383)
(-1.61763 -2.69625 1.31288)
(-2.36632 -1.93002 0.841994)
(-2.75062 -1.47364 0.487872)
(-1.25561 -3.15042 1.47861)
(-0.365778 -3.49996 1.21736)
(-0.0557851 -3.77458 0.355934)
(-0.249463 -3.56711 0.559532)
(-0.549597 -3.58988 0.514133)
(-0.712942 -3.11136 1.66451)
(-0.597711 -3.13316 1.14605)
(-1.51283 -2.8223 0.854674)
(-2.43919 -1.94788 0.263353)
(-2.17437 -1.14356 0.953664)
(-1.89504 -1.17975 1.19133)
(0.520185 -3.12239 -1.20728)
(0.449159 -3.39896 -0.881868)
(0.0563451 -3.11161 -1.517)
(0.329044 -3.17605 -0.241593)
(-0.176793 -2.95584 -0.545565)
(-0.376021 -2.9051 -0.420129)
(-0.778959 -3.13356 -0.0032508)
(-1.68392 -2.57103 -0.19871)
(-1.44832 -2.00815 -0.296698)
(-1.17233 -1.92234 -0.270272)
(-1.53022 -1.3778 -0.691672)
(-1.87396 -0.707093 -0.641738)
(1.47416 -2.13389 -0.311864)
(1.11575 -2.75554 -0.244566)
(1.35584 -2.73289 -0.438851)
(1.03243 -2.66254 -0.019782)
(0.922102 -2.79515 0.0572076)
(-0.115248 -2.43936 -0.193619)
(-0.286957 -2.56982 0.360256)
(-0.771987 -2.40947 0.202722)
(-0.49765 -2.20321 -0.0839662)
(-0.981151 -1.68225 -1.09082)
(-1.2451 -1.40273 -1.00479)
(-1.4198 -0.521591 -1.50499)
(-1.46842 -0.556639 -1.44756)
(1.91723 -1.22871 -1.20943)
(2.01112 -1.78853 -0.722147)
(1.81342 -1.91814 -0.265292)
(1.52516 -1.93171 -0.309971)
(1.27075 -2.18799 -0.167763)
(0.873591 -2.06384 -0.905938)
(0.352064 -2.01721 -1.45195)
(-0.115027 -1.99617 -0.515099)
(-0.33271 -1.91651 -0.492856)
(-0.633807 -1.46298 -1.11676)
(-0.983392 -0.798407 -1.62146)
(-0.816173 -0.587012 -1.63199)
(-0.80008 -0.533557 -1.65833)
(-0.854641 -0.417657 -1.6396)
(-2.3852 -0.373425 2.75548)
(-2.52092 -0.525345 2.89107)
(-2.50543 -0.836842 2.92132)
(-2.57652 -0.628021 2.93274)
(-2.4498 -1.02548 3.04542)
(-2.58592 -0.794859 3.03278)
(-2.66888 -0.504319 3.04424)
(-2.50715 -1.24835 3.05311)
(-2.46216 -1.30127 2.9922)
(-2.74589 -0.787768 2.88137)
(-2.6625 -1.44174 3.12598)
(-2.75344 -1.26019 3.18612)
(-2.91095 -1.15696 3.01804)
(-2.73903 -1.054 3.07168)
(-2.50521 -1.79657 3.05483)
(-2.56976 -1.75252 3.01681)
(-2.79545 -1.4847 3.09869)
(-3.06584 -1.29955 2.83276)
(-2.67392 -1.35349 3.02538)
(-2.19237 -2.24244 3.00125)
(-2.34737 -2.02791 3.02968)
(-2.48512 -1.71504 3.23923)
(-2.66672 -1.63016 3.26899)
(-2.54253 -1.63362 3.33306)
(-2.63343 -1.45016 3.19534)
(-2.0396 -2.26961 3.16638)
(-2.04001 -2.19276 3.32758)
(-2.25912 -1.9279 3.39712)
(-2.2121 -1.8078 3.4809)
(-2.44995 -1.81289 3.23604)
(-2.65324 -1.61209 2.90437)
(-2.76106 -1.61497 2.73159)
(-1.79529 -2.2044 3.00129)
(-1.60901 -2.58244 3.03134)
(-1.73091 -2.73634 3.1062)
(-1.75287 -2.74403 3.19065)
(-2.05921 -2.7424 2.9007)
(-2.4211 -2.25392 2.57599)
(-2.50452 -2.20144 2.45891)
(-2.6739 -1.63633 2.30872)
(-1.95659 -2.77539 2.66011)
(-2.36286 -2.1117 3.15425)
(-2.17961 -2.34212 3.0849)
(-2.19035 -2.28235 2.9743)
(-2.25051 -2.49227 2.65338)
(-2.19973 -2.67393 2.34757)
(-2.40026 -2.27953 2.33286)
(-2.36158 -2.0627 2.05037)
(-2.60647 -1.65716 1.7369)
(-1.66907 -3.1799 2.03361)
(-1.4896 -3.27078 1.93314)
(-0.782273 -3.5218 2.43855)
(-0.942354 -3.29874 2.6445)
(-1.26832 -3.01707 2.46629)
(-1.82542 -2.92322 2.11901)
(-2.04791 -2.86153 1.74318)
(-2.04207 -2.57659 1.45639)
(-2.26077 -1.97946 1.49749)
(-2.69548 -1.178 1.15553)
(-1.85803 -2.97129 2.16858)
(-2.13004 -2.58664 2.22413)
(-1.9738 -2.3634 2.64201)
(-0.778215 -3.10035 2.33952)
(-0.81155 -3.36813 2.09926)
(-1.1105 -3.44813 1.44046)
(-1.21195 -3.06613 1.46417)
(-1.62817 -2.76005 1.28918)
(-2.5045 -1.92132 0.690024)
(-2.70692 -1.55206 0.422867)
(-2.52206 -0.884654 1.31984)
(-0.683478 -3.37441 1.24717)
(0.0440563 -3.51426 1.22955)
(-0.0194346 -3.76102 0.647432)
(-0.0438549 -3.55861 0.854433)
(-0.405529 -3.5597 0.845952)
(-0.676556 -3.10273 1.64621)
(-0.590082 -3.14003 1.15895)
(-1.59542 -2.85264 0.74691)
(-2.38837 -1.8376 0.152188)
(-2.02501 -1.27567 1.06507)
(-1.86411 -1.19363 1.20898)
(-1.83843 -0.936855 0.544758)
(0.572938 -3.15006 -1.26457)
(0.524331 -3.4146 -0.447621)
(0.501773 -3.26865 -0.899602)
(0.430835 -3.2279 -0.029537)
(-0.202803 -3.0061 -0.483433)
(-0.310394 -2.93055 -0.394705)
(-0.942364 -3.0985 0.146514)
(-1.74237 -2.4897 -0.212468)
(-1.34709 -2.09273 -0.0613285)
(-1.0562 -1.98471 -0.375199)
(-1.53811 -1.38181 -0.807519)
(-1.91122 -0.691025 -0.628608)
(-1.87473 -0.574066 -0.785403)
(1.46348 -2.13948 -0.250292)
(1.10943 -2.73901 -0.201044)
(1.44596 -2.76177 -0.274249)
(1.09054 -2.68322 0.0585749)
(0.936152 -2.81746 0.0796171)
(-0.111208 -2.44307 -0.142599)
(-0.299292 -2.52012 0.313369)
(-0.748647 -2.40343 0.193564)
(-0.53012 -2.18253 -0.091197)
(-0.99135 -1.7477 -1.01411)
(-1.32863 -1.2635 -1.087)
(-1.41486 -0.555061 -1.50345)
(-1.45312 -0.586864 -1.47705)
(-1.17303 -0.757261 -1.57107)
(1.92885 -1.20942 -1.24583)
(2.01619 -1.78102 -0.694458)
(1.80956 -1.9201 -0.230398)
(1.52914 -1.93679 -0.290446)
(1.27047 -2.16963 -0.220965)
(0.900146 -2.05302 -0.94473)
(0.367903 -2.03288 -1.36384)
(-0.0730093 -1.98151 -0.494661)
(-0.309497 -1.92071 -0.462921)
(-0.675191 -1.451 -1.09802)
(-0.980623 -0.841397 -1.60921)
(-0.808757 -0.574845 -1.65097)
(-0.799675 -0.561806 -1.66491)
(-0.848463 -0.417041 -1.64192)
(-1.06726 -0.192469 -1.36671)
(-2.12649 -0.475241 2.70652)
(-2.3784 -0.506029 2.77759)
(-2.33966 -0.301487 2.79653)
(-2.41519 -0.689947 2.89291)
(-2.54326 -0.498815 2.83121)
(-2.42695 -0.897219 2.90936)
(-2.50978 -0.647304 2.94385)
(-2.57088 -0.422487 2.94426)
(-2.39249 -1.01014 3.01997)
(-2.43027 -0.866585 3.06894)
(-2.60569 -0.694742 3.00617)
(-2.57702 -0.611221 2.99966)
(-2.47869 -1.38466 2.96879)
(-2.53848 -1.21159 2.92515)
(-2.7141 -0.89553 2.88721)
(-2.51861 -0.992853 3.0194)
(-2.52342 -1.65808 3.15473)
(-2.52455 -1.59307 3.18267)
(-2.83481 -1.18522 3.0675)
(-2.76975 -0.99157 3.10398)
(-2.97567 -0.693355 2.91849)
(-2.24202 -2.3267 2.85143)
(-2.37688 -2.04535 2.95252)
(-2.27143 -1.91255 3.0424)
(-2.86905 -1.35176 2.66175)
(-2.80944 -1.42485 2.6915)
(-2.98082 -1.2867 2.5721)
(-2.14075 -2.39452 3.00627)
(-2.22491 -2.25695 3.00614)
(-2.40265 -1.83397 3.1614)
(-2.54071 -1.79595 3.01978)
(-2.59298 -1.57436 3.18868)
(-2.9361 -1.39202 2.81655)
(-2.82919 -1.08221 2.83149)
(-1.7951 -2.52119 3.08667)
(-1.90697 -2.33488 3.30188)
(-2.13343 -1.90189 3.46905)
(-2.06296 -1.80353 3.49831)
(-2.6066 -1.68333 3.16631)
(-2.27627 -1.66745 3.13722)
(-2.29134 -1.70608 2.99086)
(-2.84427 -1.53138 2.22909)
(-1.82969 -2.24787 3.01531)
(-1.58306 -2.66879 3.00014)
(-1.4554 -3.0221 3.11139)
(-1.63186 -2.845 3.25946)
(-2.18525 -2.76747 2.83149)
(-2.21827 -2.30204 2.77447)
(-2.43818 -2.33604 2.35496)
(-2.6505 -1.69383 2.23923)
(-2.70518 -1.20607 2.05929)
(-1.81503 -2.82427 2.70058)
(-1.89718 -2.60648 3.17738)
(-1.70298 -2.92299 3.02276)
(-1.82467 -2.78908 2.96195)
(-1.80402 -2.85703 2.72482)
(-2.18442 -2.70122 2.40791)
(-2.18895 -2.69016 2.17913)
(-2.2289 -2.02022 2.1208)
(-2.55132 -1.52966 1.72723)
(-2.76419 -1.12825 1.48846)
(-1.84934 -3.16493 1.89951)
(-1.35601 -3.46416 1.93287)
(-0.617671 -3.61064 2.4484)
(-0.539936 -3.50973 2.64325)
(-0.671094 -3.28204 2.5865)
(-1.77031 -2.87022 2.23461)
(-1.97325 -2.70026 1.85893)
(-1.91134 -2.63217 1.55621)
(-2.368 -1.773 1.57044)
(-2.6767 -1.2388 1.11232)
(-2.78845 -0.715669 1.3346)
(-1.66163 -3.01063 2.21144)
(-1.86733 -2.74713 2.25023)
(-1.4643 -2.7576 2.66205)
(-0.848214 -3.09416 2.50049)
(-0.924015 -3.31671 2.14125)
(-1.03391 -3.39827 1.62119)
(-1.02545 -3.07541 1.61144)
(-1.64561 -2.722 1.33146)
(-2.51616 -1.90061 0.686076)
(-2.62478 -1.60332 0.530831)
(-2.24787 -0.88173 1.58452)
(-1.97519 -0.476026 1.51733)
(-0.290931 -3.42546 1.26454)
(0.363367 -3.51762 1.24365)
(0.332258 -3.61076 1.08432)
(0.0725392 -3.57216 1.07591)
(-0.360937 -3.5531 0.930725)
(-0.597847 -3.14122 1.61608)
(-0.627181 -3.13956 1.13136)
(-1.7014 -2.71589 0.998126)
(-2.17332 -1.96983 0.543423)
(-1.87544 -1.33828 1.13681)
(-1.86697 -1.13708 1.0794)
(-1.91453 -0.867208 0.303069)
(-2.19971 -0.393519 0.013729)
(0.572536 -3.17001 -1.20195)
(0.557424 -3.42194 -0.312152)
(0.647671 -3.38835 -0.738067)
(0.571035 -3.26908 0.0727212)
(-0.0805611 -3.07055 -0.230857)
(-0.341058 -2.94845 -0.385489)
(-0.968683 -3.09272 0.0927846)
(-1.69294 -2.47314 -0.259861)
(-1.26333 -2.15275 0.116507)
(-1.06497 -1.9902 -0.512424)
(-1.52873 -1.37198 -0.887715)
(-1.92562 -0.700213 -0.664892)
(-1.85086 -0.57354 -0.819746)
(-1.71021 -1.07848 -0.647305)
(1.48278 -2.18681 -0.108896)
(1.15317 -2.71492 -0.196939)
(1.48913 -2.78875 -0.0528077)
(1.15086 -2.71111 0.132212)
(0.943849 -2.84013 0.0555233)
(-0.0807771 -2.48686 -0.0874044)
(-0.289886 -2.4771 0.128239)
(-0.767309 -2.37769 0.345365)
(-0.578186 -2.15142 -0.12888)
(-1.05366 -1.71097 -0.870563)
(-1.38971 -1.17031 -1.12748)
(-1.40902 -0.579281 -1.48058)
(-1.43004 -0.602717 -1.52135)
(-1.15855 -0.88952 -1.49026)
(-1.68437 -0.126864 -1.09084)
(1.92875 -1.21603 -1.19007)
(2.02326 -1.76024 -0.657439)
(1.81378 -1.91509 -0.194079)
(1.5399 -1.93912 -0.268952)
(1.28953 -2.15445 -0.115041)
(0.883324 -2.0828 -0.956827)
(0.382041 -2.02306 -1.26718)
(-0.0937361 -1.94745 -0.507025)
(-0.358801 -1.9131 -0.470075)
(-0.679237 -1.45584 -1.08956)
(-0.982118 -0.877932 -1.6081)
(-0.822509 -0.559146 -1.65963)
(-0.797945 -0.561534 -1.66566)
(-0.849551 -0.446291 -1.64045)
(-1.06058 -0.191395 -1.36999)
(-1.1211 -0.276953 -1.2234)
(-2.01727 -0.570428 2.41109)
(-2.11838 -0.559446 2.7057)
(-2.06938 -0.448711 2.7792)
(-2.35451 -0.555226 2.79538)
(-2.3788 -0.400959 2.78207)
(-2.34669 -0.282835 2.76032)
(-2.27063 -0.895771 2.91815)
(-2.42471 -0.689862 2.82996)
(-2.49123 -0.57059 2.74842)
(-2.26485 -1.12577 2.94747)
(-2.43917 -0.788801 2.98393)
(-2.52148 -0.485312 3.0047)
(-2.50283 -0.537549 2.98271)
(-2.34459 -1.2876 2.90042)
(-2.20509 -1.24351 2.95319)
(-2.46152 -0.885717 2.86638)
(-2.49636 -0.827423 2.89708)
(-2.55694 -0.327629 2.95153)
(-2.40937 -1.61189 2.92136)
(-2.57788 -1.30437 2.91874)
(-2.62095 -0.991312 2.91705)
(-2.5099 -0.893976 2.96681)
(-2.61886 -0.846236 2.88844)
(-2.36719 -1.8096 3.11113)
(-2.37847 -1.72418 3.13607)
(-2.58976 -1.39018 3.01094)
(-2.70983 -0.874782 2.96031)
(-2.88849 -0.734745 2.7993)
(-2.73867 -1.02231 2.84699)
(-2.09987 -2.22919 2.87128)
(-2.29176 -2.10662 2.96832)
(-2.307 -1.97553 3.01669)
(-2.40661 -1.55637 2.89709)
(-2.35023 -1.43371 2.88525)
(-2.94463 -1.2241 2.36208)
(-2.61072 -0.877162 2.84819)
(-2.15941 -2.28792 3.02373)
(-2.04885 -2.46915 2.97582)
(-2.02292 -2.48524 2.93818)
(-2.42616 -2.13493 2.84006)
(-2.39294 -2.08533 2.72123)
(-2.87917 -1.4166 2.54514)
(-2.68709 -1.45023 2.64444)
(-2.86126 -0.945007 2.44233)
(-1.53969 -2.7281 2.98325)
(-1.71707 -2.53021 3.19835)
(-1.90164 -2.23727 3.35412)
(-1.92566 -1.83323 3.44684)
(-2.37815 -1.74948 2.97666)
(-2.23295 -1.69144 2.99387)
(-2.64201 -1.32177 2.71106)
(-2.84859 -1.5469 2.11769)
(-2.89567 -0.905256 2.14102)
(-1.57305 -2.51336 3.11213)
(-1.53722 -2.86638 2.95369)
(-1.42782 -2.9366 3.16793)
(-1.49948 -2.84174 3.23055)
(-1.77367 -2.57257 3.02466)
(-2.24605 -1.96496 2.85928)
(-2.45782 -1.86081 2.60513)
(-2.57691 -1.77977 2.16165)
(-2.53873 -1.26466 2.01727)
(-2.5643 -0.742417 2.04623)
(-1.95155 -2.42317 2.92199)
(-1.74174 -2.72003 3.185)
(-1.59957 -2.96517 3.0497)
(-1.59421 -3.06838 2.88396)
(-1.69598 -3.02876 2.61053)
(-1.81214 -2.81869 2.48329)
(-2.21324 -2.24254 2.34716)
(-1.92475 -2.24435 2.10016)
(-2.36193 -1.63402 1.82394)
(-2.44151 -1.44416 1.67523)
(-2.58259 -0.749346 1.64417)
(-1.60077 -3.24138 1.94349)
(-0.93463 -3.68284 1.93614)
(-0.572274 -3.67775 2.47636)
(-0.502663 -3.568 2.56709)
(-1.67108 -2.81604 2.54679)
(-1.65315 -2.89484 2.26764)
(-1.80093 -2.64025 1.92304)
(-1.85103 -2.65797 1.54895)
(-2.41163 -1.73296 1.59863)
(-2.72952 -1.1273 1.18777)
(-2.72998 -0.526619 1.33484)
(-2.32227 -0.31227 1.64507)
(-0.765697 -3.30768 2.25431)
(-2.02262 -2.70865 2.42503)
(-1.11742 -3.10183 2.52898)
(-0.63811 -3.37437 2.32973)
(-0.622734 -3.33842 2.19372)
(-0.929386 -3.43828 1.71187)
(-0.979639 -3.03337 1.68353)
(-1.72306 -2.6832 1.35499)
(-2.56467 -1.8773 0.643731)
(-2.44853 -1.60468 0.660337)
(-2.095 -0.934183 1.59192)
(-1.98329 -0.413247 1.31141)
(-2.16157 -0.123698 0.677407)
(-0.201955 -3.53269 1.05394)
(0.89336 -3.55052 1.16804)
(0.387806 -3.65971 1.19401)
(0.252782 -3.63496 1.16769)
(-0.11268 -3.57895 1.0658)
(-0.640587 -3.10353 1.63464)
(-0.682452 -3.09899 1.21784)
(-1.68152 -2.7642 0.777518)
(-2.13679 -2.00589 0.625467)
(-1.73779 -1.45638 1.14449)
(-1.905 -1.088 0.469723)
(-1.99248 -0.813977 0.126537)
(-2.15164 -0.236497 -0.168339)
(-2.15595 -0.592978 0.910159)
(0.542341 -3.18394 -1.17704)
(0.629536 -3.42014 -0.030637)
(0.785896 -3.4732 -0.226151)
(0.701097 -3.31208 0.203008)
(-0.125071 -3.0844 -0.131216)
(-0.303429 -2.97201 -0.364132)
(-0.924626 -3.12861 -0.400839)
(-1.70803 -2.49024 -0.231877)
(-1.23429 -2.13525 0.338253)
(-1.08671 -1.95458 -0.569591)
(-1.48345 -1.4343 -0.913971)
(-1.92302 -0.712719 -0.702588)
(-1.8059 -0.510402 -0.8741)
(-1.67764 -1.0539 -0.732183)
(-1.6631 -1.26984 -0.134272)
(1.56126 -2.18757 0.0428572)
(1.22866 -2.71726 -0.198028)
(1.53068 -2.79227 0.0936732)
(1.19045 -2.74589 0.216859)
(0.995133 -2.83149 0.203332)
(-0.0263915 -2.52414 0.112374)
(-0.296171 -2.43004 0.106883)
(-0.743749 -2.3691 0.422824)
(-0.585438 -2.1548 -0.200594)
(-0.987084 -1.76864 -0.902021)
(-1.44818 -1.02457 -1.248)
(-1.40851 -0.607307 -1.42697)
(-1.40931 -0.611859 -1.52025)
(-1.15758 -0.923149 -1.45445)
(-1.67011 -0.243875 -1.07844)
(-1.94839 0.0991886 -0.258562)
(1.93441 -1.21568 -1.08017)
(2.02765 -1.70474 -0.666183)
(1.82131 -1.9004 -0.184844)
(1.54766 -1.94138 -0.241912)
(1.2436 -2.17431 -0.0939812)
(0.8733 -2.06611 -0.964149)
(0.393594 -2.00471 -1.19724)
(-0.108945 -1.93383 -0.508114)
(-0.401759 -1.904 -0.481898)
(-0.711171 -1.43839 -1.0871)
(-0.976339 -0.893226 -1.6063)
(-0.820181 -0.544178 -1.67568)
(-0.754098 -0.611558 -1.66274)
(-0.860894 -0.436029 -1.63969)
(-1.05661 -0.172907 -1.37322)
(-1.11582 -0.2584 -1.26249)
(-1.01827 -0.534108 -1.48817)
(-1.96899 -0.416832 2.19121)
(-2.02643 -0.607279 2.37178)
(-2.11292 -0.300808 2.35239)
(-2.10399 -0.769347 2.62724)
(-2.11218 -0.495302 2.76014)
(-2.05512 -0.440775 2.80024)
(-2.40023 -0.664949 2.7413)
(-2.41839 -0.398224 2.7555)
(-2.40304 -0.275029 2.7119)
(-2.31199 -0.345856 2.75473)
(-2.22995 -0.884468 2.89027)
(-2.3738 -0.732954 2.83704)
(-2.46815 -0.682027 2.73042)
(-2.51973 -0.548938 2.73011)
(-2.17045 -1.19861 2.96208)
(-2.34432 -0.945117 3.00488)
(-2.68346 -0.465598 2.77969)
(-2.50271 -0.719251 2.81602)
(-2.37144 -0.264248 3.03873)
(-2.17799 -1.45875 2.88614)
(-2.22133 -1.32752 2.89809)
(-2.38967 -1.03819 2.76303)
(-2.38573 -0.900344 2.73844)
(-2.44067 -0.301796 2.90857)
(-2.46646 -0.484461 2.90028)
(-2.28085 -1.78651 2.88098)
(-2.37986 -1.56044 2.95097)
(-2.52368 -1.27419 2.91343)
(-2.53589 -0.967839 2.91777)
(-2.63907 -0.635023 2.87371)
(-2.64275 -0.687323 2.77727)
(-2.04875 -2.01861 3.0401)