/*--------------------------------*- C++ -*----------------------------------*\
  =========                 |
  \\      /  F ield         | OpenFOAM: The Open Source CFD Toolbox
   \\    /   O peration     | Website:  https://openfoam.org
    \\  /    A nd           | Version:  7
     \\/     M anipulation  |
\*---------------------------------------------------------------------------*/
FoamFile
{
    version     2.0;
    format      ascii;
    class       volVectorField;
    location    "4.5";
    object      U_0;
}
// * * * * * * * * * * * * * * * * * * * * * * * * * * * * * * * * * * * * * //

dimensions      [0 1 -1 0 0 0 0];

internalField   nonuniform List<vector> 
18630
(
(2.00775 -1.30245 -1.00482)
(1.44406 -1.49304 -0.709176)
(1.99961 -1.31184 -0.972425)
(1.82445 -1.69093 -0.875549)
(-0.365306 -2.62329 -0.764819)
(1.40049 -1.57625 -0.657369)
(0.875574 -2.17004 -1.26031)
(1.99938 -1.30691 -0.966758)
(1.88316 -1.71116 -0.840073)
(1.63263 -1.71438 -0.491004)
(-2.88096 -1.48159 0.0348174)
(-0.222787 -2.97474 -0.997029)
(-0.282484 -2.31725 -1.95688)
(1.32331 -1.63392 -0.534558)
(0.895966 -2.25017 -1.30718)
(0.73901 -1.99166 -0.895772)
(2.03405 -1.29924 -0.965487)
(1.85999 -1.7486 -0.874342)
(1.74226 -1.70272 -0.444421)
(1.45691 -1.82803 -0.519466)
(-2.895 -2.082 1.25445)
(-2.94949 -1.54398 0.132995)
(-1.78506 -2.56421 -0.230848)
(-0.301373 -2.95425 -0.999836)
(-0.238754 -2.44598 -1.78107)
(-0.867997 -2.0261 -1.79414)
(1.28731 -1.67246 -0.491618)
(0.886107 -2.29717 -1.2057)
(0.724714 -2.23233 -0.851807)
(0.683587 -2.21789 -0.948212)
(2.02675 -1.2625 -1.03931)
(1.92384 -1.72248 -0.822397)
(1.60128 -1.82919 -0.495404)
(1.50789 -1.82156 -0.498686)
(1.36127 -2.13589 -0.32537)
(-2.40344 -1.43609 1.58274)
(-2.92915 -2.21249 1.20487)
(-3.37165 -1.45473 0.683884)
(-2.76308 -1.4468 0.479577)
(-1.56457 -2.58754 0.460455)
(-1.11765 -2.36053 -0.925943)
(-0.167564 -3.01357 -0.98394)
(-0.294149 -2.54315 -1.55701)
(-0.741222 -2.21885 -1.74428)
(-0.323965 -2.4118 -1.67409)
(1.29364 -1.74552 -0.402269)
(0.948636 -2.38483 -1.10749)
(0.810787 -2.21456 -0.94215)
(0.692964 -2.27496 -0.829521)
(0.599917 -2.3787 -0.802634)
(2.00417 -1.25694 -1.08263)
(1.86931 -1.78255 -0.841166)
(1.76667 -1.71999 -0.429084)
(1.47853 -1.87229 -0.469307)
(1.28737 -2.18352 -0.359946)
(0.86853 -2.00566 -0.842415)
(-1.55288 -2.49864 2.93309)
(-2.47421 -1.35804 1.6146)
(-2.89406 -1.76616 1.85853)
(-2.81146 -2.47159 1.23513)
(-3.26467 -1.49064 0.931837)
(-2.48891 -1.84186 0.816736)
(-2.5353 -1.99112 0.725359)
(-1.41109 -2.61945 0.570144)
(-1.04762 -2.35511 -1.26293)
(-1.30758 -2.58347 -0.93691)
(-0.186265 -2.8327 -0.89164)
(-0.118359 -2.62103 -1.65694)
(-0.568277 -2.51669 -1.46401)
(-0.309258 -2.44983 -1.70701)
(-0.62581 -2.48051 -1.53399)
(1.31088 -1.86145 -0.363921)
(0.929081 -2.44474 -1.06939)
(0.810646 -2.30342 -0.869296)
(0.721817 -2.35214 -0.706865)
(0.637266 -2.43599 -0.716723)
(-0.224221 -2.24512 -1.29444)
(2.00539 -1.23273 -1.11509)
(1.90622 -1.77021 -0.797636)
(1.6607 -1.87538 -0.404419)
(1.5053 -1.8614 -0.485661)
(1.30758 -2.18406 -0.336561)
(0.899704 -1.9979 -0.831701)
(0.328365 -1.9331 -1.07831)
(-2.40335 -1.76897 3.29769)
(-1.59327 -2.50814 2.97314)
(-1.96946 -2.08422 2.79088)
(-2.56902 -1.45528 1.68054)
(-2.93817 -1.81428 1.97095)
(-3.35617 -1.36842 1.98067)
(-2.67328 -2.74053 1.23137)
(-3.18447 -1.63203 1.17341)
(-2.44015 -1.86794 1.01317)
(-2.06589 -2.42974 0.978046)
(-3.39336 0.100663 1.19816)
(-1.3353 -2.69186 0.988998)
(-1.18188 -2.58117 -0.855182)
(-1.24337 -2.79582 -0.927117)
(-1.75435 -2.8141 -0.447081)
(-0.0659793 -2.77633 -0.694238)
(-0.218697 -2.72243 -1.26393)
(-0.648683 -2.39923 -1.77297)
(-0.224309 -2.69881 -1.3059)
(-0.576165 -2.52429 -1.5441)
(-0.737046 -2.57568 -1.20406)
(1.34642 -1.95838 -0.341586)
(0.999366 -2.50613 -1.06064)
(0.950536 -2.41684 -0.646096)
(0.766743 -2.40285 -0.630096)
(0.664469 -2.509 -0.617712)
(-0.222808 -2.28044 -1.15258)
(-0.342905 -2.61067 -0.301205)
(1.96572 -1.20646 -1.21358)
(1.92764 -1.76937 -0.770678)
(1.73809 -1.83558 -0.451805)
(1.49445 -1.88871 -0.448008)
(1.30011 -2.19605 -0.319514)
(0.859436 -2.02228 -0.816488)
(0.327351 -1.92757 -1.10884)
(-0.100738 -2.06949 -0.461373)
(-2.77579 -1.92683 3.32713)
(-2.40425 -1.70861 3.37345)
(-2.56189 -1.31769 2.3647)
(-1.55917 -2.56772 2.95808)
(-2.02146 -2.22647 2.84047)
(-3.11244 -0.695452 2.28252)
(-3.00603 -1.16982 1.46144)
(-3.06424 -2.09019 1.72288)
(-2.7964 -2.25801 1.72518)
(-2.8406 -1.99205 1.26614)
(-2.45656 -2.97392 1.35322)
(-2.94809 -1.93753 1.57278)
(-2.0722 -2.26729 1.14078)
(-2.01887 -2.46361 1.21214)
(-1.79245 -2.9225 0.893711)
(-2.33793 -2.08326 1.72229)
(-1.18785 -2.71126 0.635826)
(-1.04058 -2.74056 -0.701754)
(-1.01622 -3.07665 -0.742047)
(-1.52929 -2.99923 -0.412768)
(-1.06762 -2.98063 1.58874)
(0.00634302 -2.81128 -0.657508)
(-0.134087 -2.80999 -1.32375)
(-0.412159 -2.6349 -1.86975)
(-0.188911 -2.78633 -1.11227)
(-0.503688 -2.66989 -1.4144)
(-0.782463 -2.52495 -1.19818)
(-0.853393 -2.98883 -0.250381)
(1.37032 -2.01296 -0.347526)
(1.06879 -2.63041 -0.945655)
(0.97596 -2.49716 -0.638231)
(0.813301 -2.4535 -0.57299)
(0.692665 -2.57866 -0.296676)
(-0.196484 -2.32092 -0.994548)
(-0.323375 -2.62544 -0.193048)
(-0.787468 -2.46319 0.138979)
(1.92357 -1.21227 -1.29418)
(1.9331 -1.77598 -0.738358)
(1.74314 -1.87779 -0.431492)
(1.50395 -1.89357 -0.426398)
(1.2873 -2.20343 -0.335944)
(0.86424 -2.03301 -0.816235)
(0.317336 -1.92171 -1.15309)
(-0.105781 -2.05431 -0.471543)
(-0.241366 -2.00169 -0.519227)
(-3.17838 -1.10865 3.24264)
(-2.79496 -1.39087 3.31453)
(-2.77968 -1.49208 2.90623)
(-2.35152 -1.71106 3.30984)
(-2.40823 -1.62941 2.49156)
(-2.74013 -1.09522 1.68991)
(-1.72947 -2.49293 2.77165)
(-2.33611 -1.94745 2.78077)
(-3.01235 -1.00214 2.29906)
(-3.02429 -1.24056 2.22194)
(-2.93 -1.31535 1.80268)
(-3.01893 -2.16463 1.63333)
(-2.77424 -2.41318 1.64228)
(-2.67306 -2.3108 1.26744)
(-2.37014 -2.20869 1.70787)
(-2.33105 -3.26214 1.54083)
(-2.71202 -2.38372 1.80966)
(-1.97755 -2.5163 1.14021)
(-1.82057 -2.64376 1.29077)
(-1.70157 -3.0175 1.06631)
(-1.49224 -3.29971 0.685931)
(-2.18918 -2.40143 1.75138)
(-1.14762 -2.87588 0.35093)
(-1.14229 -2.85489 -1.05971)
(-0.879633 -3.25405 -0.522387)
(-1.3818 -3.17158 -0.406371)
(-1.01359 -2.935 1.68029)
(-0.595643 -3.08264 1.09521)
(0.063961 -2.86391 -0.772447)
(0.0816835 -3.02287 -1.26773)
(-0.293982 -2.89026 -1.50921)
(-0.119427 -2.83734 -1.04131)
(-0.423788 -2.77297 -1.20509)
(-0.588836 -2.77276 -0.552775)
(-0.8387 -3.02866 -0.180803)
(-1.53163 -2.50191 -0.204314)
(1.46119 -2.08254 -0.293389)
(1.08589 -2.69988 -0.84168)
(1.10164 -2.53407 -0.678229)
(0.852404 -2.51811 -0.479305)
(0.715106 -2.6203 -0.185077)
(-0.166225 -2.37429 -0.809894)
(-0.306028 -2.62452 -0.034614)
(-0.786161 -2.46453 0.169396)
(-0.453788 -2.2244 -0.326101)
(1.88956 -1.19827 -1.39314)
(1.93165 -1.78506 -0.715858)
(1.77697 -1.88043 -0.41302)
(1.4977 -1.909 -0.394658)
(1.27934 -2.20571 -0.35558)
(0.874843 -2.0408 -0.841777)
(0.301728 -1.91153 -1.22505)
(-0.123836 -2.0473 -0.489908)
(-0.267123 -1.97817 -0.500906)
(-0.584348 -1.47972 -1.11033)
(-2.95594 -1.05348 3.27366)
(-2.79305 -1.14365 3.3677)
(-2.74648 -1.02699 3.38205)
(-2.57505 -1.72531 3.21207)
(-2.83605 -1.10587 2.97094)
(-2.75775 -0.795051 2.79991)
(-2.23045 -1.88482 3.15514)
(-2.38504 -1.70979 2.53968)
(-2.60519 -1.39626 1.98043)
(-2.49331 -1.4113 2.26747)
(-1.64914 -2.54541 2.88221)
(-2.38864 -1.84471 2.85147)
(-2.99478 -1.20564 2.27763)
(-2.90569 -1.4495 2.28349)
(-2.83519 -1.63709 2.02959)
(-3.00132 -1.53783 1.90854)
(-2.66446 -2.51165 1.62227)
(-2.39261 -2.69855 1.69625)
(-2.36671 -2.70266 1.31771)
(-2.1379 -2.54671 1.69518)
(-3.00091 -1.73062 1.23846)
(-2.17521 -3.27379 1.7109)
(-2.46356 -2.78138 1.81427)
(-1.98864 -2.62974 1.29801)
(-1.4989 -2.85009 1.37382)
(-1.472 -3.06257 1.40619)
(-1.26778 -3.48682 0.714204)
(-1.79556 -2.95719 0.849671)
(-1.9615 -2.69438 1.71233)
(-0.994946 -3.10934 0.282174)
(-0.78512 -3.30703 -0.279438)
(-0.793055 -3.35567 -0.213787)
(-1.01257 -3.41091 0.0228712)
(-0.944589 -2.95734 1.77129)
(-0.611098 -3.0806 1.05241)
(-1.40549 -2.79012 0.4933)
(0.159916 -2.908 -0.86774)
(0.198245 -3.25778 -1.39476)
(-0.203787 -2.939 -1.49608)
(0.0162875 -2.93397 -0.945698)
(-0.361216 -2.81959 -1.1184)
(-0.555367 -2.80149 -0.488347)
(-0.813681 -3.04769 0.0322765)
(-1.57236 -2.56043 -0.138132)
(-1.68506 -1.76877 -0.47602)
(1.48228 -2.17994 -0.301594)
(1.09566 -2.72216 -0.773441)
(1.1247 -2.61822 -0.736505)
(0.885074 -2.57008 -0.360461)
(0.781926 -2.6635 -0.314868)
(-0.176645 -2.41522 -0.628133)
(-0.297963 -2.6266 0.0493973)
(-0.785092 -2.45969 0.0190735)
(-0.467024 -2.21519 -0.217278)
(-0.836897 -1.60542 -1.12337)
(1.87499 -1.16235 -1.49656)
(1.93075 -1.80038 -0.701259)
(1.76465 -1.91278 -0.383503)
(1.49057 -1.92577 -0.364206)
(1.28089 -2.19757 -0.33855)
(0.857896 -2.03713 -0.889305)
(0.283063 -1.90254 -1.31662)
(-0.111343 -2.03072 -0.504722)
(-0.294459 -1.97005 -0.494219)
(-0.602834 -1.47082 -1.0997)
(-0.942473 -0.797403 -1.62133)
(-2.86304 -1.12873 3.18572)
(-2.89853 -1.27148 3.22901)
(-2.93241 -1.06127 3.3129)
(-2.83463 -1.42636 3.12907)
(-2.80999 -0.842799 3.32017)
(-2.58054 -1.01582 3.52419)
(-2.44788 -1.72153 3.26959)
(-2.62724 -1.12432 3.19969)
(-2.56753 -1.0818 3.07388)
(-2.66353 -1.11096 2.95865)
(-1.95885 -2.20718 3.06713)
(-2.13809 -1.92839 2.71587)
(-2.50591 -1.66285 2.31482)
(-2.10644 -1.81987 2.62835)
(-2.64312 -1.71998 2.64891)
(-2.05486 -2.49547 2.79597)
(-2.36425 -2.10768 2.99804)
(-2.75881 -1.55246 2.50412)
(-2.97126 -1.43802 2.29642)
(-2.67231 -1.97016 2.15846)
(-2.49788 -2.36323 2.04528)
(-2.89184 -1.71481 1.96626)
(-2.54112 -2.70898 1.58538)
(-1.96872 -3.04405 1.87434)
(-1.77874 -3.04488 1.63299)
(-1.77683 -2.72295 1.89758)
(-3.01196 -1.9967 1.38858)
(-2.72372 -2.40949 1.34005)
(-2.1683 -3.09176 1.7481)
(-2.43886 -2.77037 1.69562)
(-1.58587 -2.90503 1.49116)
(-1.4323 -2.97181 1.43407)
(-1.42008 -3.14279 1.52205)
(-1.11949 -3.56352 0.808898)
(-1.59114 -3.03448 0.953301)
(-1.81383 -2.54007 1.05585)
(-1.78945 -2.8046 1.80439)
(-0.872871 -3.43997 0.551346)
(-0.964816 -3.26113 -1.30306)
(-0.581567 -3.44107 -0.0147391)
(-0.849435 -3.54766 0.237997)
(-0.872872 -3.00892 1.75548)
(-0.452558 -3.05023 1.37782)
(-1.42418 -2.85689 0.582882)
(-2.39577 -1.85155 0.155929)
(0.228581 -2.96431 -1.08194)
(0.380718 -3.34957 -1.3862)
(0.00534376 -3.11196 -1.36286)
(0.0567444 -3.04046 -0.885686)
(-0.369373 -2.84659 -1.01034)
(-0.505139 -2.83079 -0.489679)
(-0.800555 -3.08937 0.0102025)
(-1.63139 -2.51803 -0.237012)
(-1.59999 -1.90057 -0.32483)
(-1.35161 -1.66183 0.0158999)
(1.56062 -2.19088 -0.214703)
(1.09359 -2.73907 -0.641518)
(1.23745 -2.66026 -0.641863)
(0.937472 -2.60517 -0.186159)
(0.791381 -2.74172 -0.358844)
(-0.15925 -2.43316 -0.505601)
(-0.29619 -2.61825 0.136755)
(-0.775626 -2.44999 0.135395)
(-0.481639 -2.19215 -0.200225)
(-0.922212 -1.70102 -0.870405)
(-1.20666 -1.36399 -1.06906)
(1.89419 -1.19948 -1.38607)
(1.9481 -1.80168 -0.708573)
(1.77326 -1.91493 -0.353223)
(1.49971 -1.92973 -0.348055)
(1.27598 -2.19478 -0.292699)
(0.854732 -2.03944 -0.903421)
(0.282099 -1.88323 -1.45187)
(-0.0816316 -2.00348 -0.512204)
(-0.287113 -1.95806 -0.497351)
(-0.611402 -1.46862 -1.10613)
(-0.938977 -0.799435 -1.62486)
(-0.831342 -0.544009 -1.61877)
(-2.61615 -0.732133 3.01447)
(-2.65372 -1.06015 3.10953)
(-2.80416 -1.29697 3.1503)
(-2.61977 -1.13656 3.26626)
(-2.83588 -1.5775 3.17034)
(-2.89304 -1.14753 3.29838)
(-2.87086 -0.733731 3.47112)
(-2.57498 -1.6755 3.15784)
(-2.51118 -1.42233 3.33915)
(-2.53276 -1.37343 3.38666)
(-2.76289 -1.42332 3.28191)
(-2.39598 -1.85022 3.28919)
(-2.4925 -1.42254 3.35408)
(-2.60076 -1.23915 3.2417)
(-2.56373 -1.42288 3.13678)
(-2.69145 -1.77261 2.91507)
(-1.9235 -2.15788 3.05215)
(-2.29217 -1.9121 2.87086)
(-2.30832 -1.98184 2.64622)
(-2.12183 -2.04732 2.87924)
(-2.4474 -2.08976 2.73138)
(-2.74142 -1.80813 2.5359)
(-2.14277 -2.50941 2.69911)
(-2.09499 -2.56582 2.98155)
(-2.5575 -1.91935 2.72513)
(-2.57591 -1.68141 2.66266)
(-2.51025 -2.12286 2.35544)
(-2.3833 -2.40141 2.19169)
(-2.63173 -2.28608 2.34085)
(-2.55408 -2.18481 1.98983)
(-2.22678 -2.97826 1.62357)
(-1.64639 -3.26741 2.16043)
(-1.61272 -3.14976 2.01123)
(-1.50536 -2.96731 2.00369)
(-2.37409 -2.57694 1.75885)
(-2.31993 -2.58924 1.53156)
(-2.30306 -2.46296 1.35569)
(-1.72538 -3.12314 2.10492)
(-2.43452 -2.51579 1.95351)
(-1.74315 -2.98216 1.75046)
(-1.00055 -3.121 1.75833)
(-1.20133 -3.24797 1.69753)
(-1.12817 -3.53134 0.98641)
(-1.43344 -3.10256 1.05512)
(-1.68645 -2.58499 1.24362)
(-2.41249 -1.81132 0.702356)
(-1.62058 -2.98209 1.64381)
(-0.518651 -3.60704 0.74841)
(-0.360982 -3.68963 -0.446266)
(-0.459639 -3.53955 0.211821)
(-0.670322 -3.56269 0.434122)
(-0.806186 -3.0724 1.67931)
(-0.656823 -3.1401 1.124)
(-1.46199 -2.81324 0.849449)
(-2.40666 -1.97368 0.324328)
(-2.34711 -1.0793 0.83207)
(0.403272 -3.04682 -1.20994)
(0.360935 -3.37222 -1.14819)
(0.238788 -3.25156 -1.02313)
(0.265199 -3.14524 -0.375875)
(-0.291182 -2.91789 -0.712102)
(-0.454377 -2.87308 -0.481304)
(-0.929772 -3.06868 -0.0411702)
(-1.65792 -2.53217 -0.232216)
(-1.54895 -1.94823 -0.429213)
(-1.25887 -1.83329 -0.169885)
(-1.53072 -1.34088 -0.68218)
(1.51131 -2.19501 -0.237208)
(1.11233 -2.75219 -0.414628)
(1.26507 -2.68813 -0.617158)
(0.986303 -2.63641 -0.10019)
(0.841142 -2.79233 -0.141706)
(-0.136041 -2.44099 -0.377895)
(-0.28436 -2.60269 0.274662)
(-0.791637 -2.43263 0.163274)
(-0.485038 -2.19789 -0.143823)
(-0.819214 -1.64417 -1.1231)
(-1.25186 -1.28952 -1.06327)
(-1.4172 -0.490848 -1.49162)
(1.89615 -1.25279 -1.23455)
(1.97906 -1.79957 -0.719241)
(1.8014 -1.90923 -0.319461)
(1.51158 -1.92996 -0.327013)
(1.28068 -2.1902 -0.22438)
(0.862253 -2.0442 -0.918368)
(0.307528 -1.95869 -1.47458)
(-0.11229 -1.98471 -0.518287)
(-0.30258 -1.94018 -0.479405)
(-0.651361 -1.46847 -1.10681)
(-0.961983 -0.815318 -1.62094)
(-0.808896 -0.574981 -1.62861)
(-0.778273 -0.601037 -1.63631)
(-2.56616 -0.719968 2.96164)
(-2.58596 -0.857063 3.03007)
(-2.64616 -0.592435 3.00082)
(-2.63823 -1.1368 3.05654)
(-2.65569 -0.812184 3.02396)
(-2.77693 -1.38392 3.14392)
(-2.66117 -1.16377 3.25779)
(-2.84833 -0.816298 3.08707)
(-2.9468 -1.4535 3.03228)
(-2.85378 -1.34061 3.2063)
(-2.6611 -1.15654 3.47737)
(-2.79897 -1.05382 3.31737)
(-2.28794 -2.05671 3.0632)
(-2.61281 -1.71189 3.10384)
(-2.33727 -1.80641 3.35284)
(-2.68921 -1.56065 3.25118)
(-2.54074 -1.44367 3.38308)
(-2.21561 -2.01159 3.27634)
(-2.19699 -2.00392 3.34337)
(-2.38682 -1.78028 3.37813)
(-2.38199 -1.56343 3.41217)
(-2.70414 -1.65446 3.07053)
(-2.68053 -1.88365 2.83055)
(-1.85275 -2.14306 3.03118)
(-1.89217 -2.21589 3.11836)
(-2.13447 -2.11704 3.05373)
(-1.82152 -2.25826 3.26061)
(-2.51416 -2.22314 2.7751)
(-2.57054 -2.11283 2.51329)
(-2.64164 -2.06049 2.53217)
(-2.07564 -2.65656 2.61882)
(-2.26219 -2.22457 3.04881)
(-2.41728 -1.98349 3.00123)
(-2.53371 -1.76215 2.88735)
(-2.24876 -2.22265 2.6836)
(-2.41409 -2.38764 2.31561)
(-2.43762 -2.26028 2.31179)
(-2.3553 -2.30353 1.89592)
(-2.6765 -2.26565 2.11563)
(-1.83353 -3.15759 1.76789)
(-1.02363 -3.42597 2.42533)
(-1.08217 -3.2129 2.49871)
(-1.20989 -3.05883 2.30268)
(-2.15085 -2.74206 1.93812)
(-2.09811 -2.78478 1.70056)
(-2.28277 -2.45768 1.38907)
(-2.5084 -1.65609 1.55201)
(-1.81927 -3.06913 2.12692)
(-2.37828 -2.47617 2.13844)
(-1.68464 -2.70999 2.37439)
(-0.963712 -3.16079 2.00473)
(-1.04017 -3.31363 1.81433)
(-1.03024 -3.55156 1.17186)
(-1.30169 -3.08596 1.30574)
(-1.62576 -2.70047 1.31793)
(-2.38478 -1.92732 0.835648)
(-2.74663 -1.47461 0.474101)
(-1.16755 -3.19265 1.41581)
(-0.337194 -3.50847 1.18485)
(-0.0369232 -3.7794 0.39419)
(-0.247373 -3.56722 0.570658)
(-0.558118 -3.58484 0.515648)
(-0.72134 -3.10581 1.66728)
(-0.61683 -3.13388 1.13829)
(-1.53489 -2.81665 0.845708)
(-2.44971 -1.92641 0.248923)
(-2.16037 -1.14973 0.971121)
(-1.89712 -1.17624 1.18798)
(0.526073 -3.12794 -1.20944)
(0.445543 -3.40538 -0.843722)
(0.0359126 -3.09935 -1.56412)
(0.330568 -3.179 -0.223545)
(-0.177661 -2.95482 -0.539431)
(-0.384173 -2.90468 -0.432417)
(-0.801969 -3.12983 0.0145482)
(-1.69744 -2.55946 -0.198471)
(-1.43005 -2.02354 -0.254504)
(-1.16738 -1.92869 -0.291256)
(-1.53265 -1.37382 -0.704416)
(-1.88311 -0.694038 -0.639345)
(1.48242 -2.12935 -0.284999)
(1.12169 -2.74756 -0.220239)
(1.36566 -2.73768 -0.399702)
(1.03093 -2.66407 -0.00266959)
(0.915546 -2.79757 0.0780018)
(-0.116655 -2.43761 -0.172494)
(-0.297114 -2.55519 0.350825)
(-0.775023 -2.40377 0.212927)
(-0.509204 -2.20128 -0.0773046)
(-0.998259 -1.6903 -1.07066)
(-1.25851 -1.39511 -1.00493)
(-1.42303 -0.522216 -1.5039)
(-1.47003 -0.55304 -1.44976)
(1.91138 -1.24194 -1.20702)
(2.00718 -1.78975 -0.717086)
(1.81029 -1.92001 -0.253381)
(1.51904 -1.93386 -0.302499)
(1.25726 -2.1965 -0.159928)
(0.870497 -2.07159 -0.891341)
(0.350629 -2.01997 -1.43256)
(-0.113076 -1.99158 -0.518443)
(-0.349273 -1.92241 -0.485131)
(-0.643677 -1.46007 -1.11492)
(-0.989101 -0.811198 -1.6171)
(-0.819817 -0.58482 -1.63284)
(-0.803168 -0.526853 -1.65989)
(-0.858159 -0.419657 -1.63908)
(-2.38624 -0.371779 2.7558)
(-2.52036 -0.526533 2.88958)
(-2.50765 -0.83036 2.91959)
(-2.57595 -0.625067 2.93181)
(-2.44913 -1.02301 3.04563)
(-2.58493 -0.792287 3.03385)
(-2.66977 -0.503665 3.04475)
(-2.50741 -1.24861 3.04975)
(-2.46686 -1.29537 2.98933)
(-2.74411 -0.790361 2.88369)
(-2.66608 -1.43752 3.12673)
(-2.7585 -1.25796 3.18525)
(-2.91585 -1.15823 3.01847)
(-2.74641 -1.04621 3.07402)
(-2.48664 -1.82064 3.04786)
(-2.55494 -1.77364 3.01077)
(-2.79251 -1.49724 3.08606)
(-3.07466 -1.30341 2.81176)
(-2.67368 -1.36695 3.01161)
(-2.19577 -2.24481 3.00203)
(-2.34712 -2.02889 3.03237)
(-2.49442 -1.70708 3.23861)
(-2.67271 -1.62614 3.26874)
(-2.54764 -1.63443 3.33252)
(-2.6357 -1.45522 3.18874)
(-2.03534 -2.27481 3.16545)
(-2.04268 -2.18609 3.33426)
(-2.26378 -1.91952 3.40266)
(-2.21295 -1.8056 3.48707)
(-2.45208 -1.80744 3.24159)
(-2.64259 -1.60389 2.91682)
(-2.76181 -1.60483 2.7328)
(-1.80638 -2.19782 3.00425)
(-1.61012 -2.5943 3.03185)
(-1.71555 -2.76728 3.11133)
(-1.75284 -2.76423 3.195)
(-2.06297 -2.7547 2.90164)
(-2.42127 -2.26332 2.57717)
(-2.50785 -2.20121 2.45551)
(-2.67315 -1.63018 2.30577)
(-1.96472 -2.77025 2.66871)
(-2.35764 -2.12219 3.16257)
(-2.16119 -2.37438 3.08422)
(-2.17208 -2.31546 2.97724)
(-2.23481 -2.51987 2.65468)
(-2.19895 -2.68639 2.34559)
(-2.39756 -2.28434 2.33054)
(-2.3637 -2.04888 2.05427)
(-2.61331 -1.63239 1.73889)
(-1.68527 -3.17632 2.027)
(-1.483 -3.28108 1.94408)
(-0.772102 -3.52556 2.4465)
(-0.929135 -3.30655 2.64957)
(-1.26829 -3.02205 2.47334)
(-1.82255 -2.92716 2.12049)
(-2.0499 -2.85738 1.74421)
(-2.04082 -2.57454 1.46099)
(-2.2711 -1.96655 1.49947)
(-2.70321 -1.1709 1.14227)
(-1.86464 -2.9497 2.17888)
(-2.10834 -2.59049 2.23706)
(-1.96214 -2.36618 2.65581)
(-0.788111 -3.09235 2.34641)
(-0.815412 -3.37233 2.10005)
(-1.11915 -3.44247 1.45319)
(-1.20816 -3.06329 1.48015)
(-1.64193 -2.75801 1.28973)
(-2.52318 -1.91171 0.678767)
(-2.7071 -1.54527 0.434104)
(-2.50685 -0.868949 1.34883)
(-0.681292 -3.37901 1.21922)
(0.0879027 -3.51863 1.20891)
(-0.0182386 -3.76081 0.642218)
(-0.0423884 -3.56191 0.864084)
(-0.413825 -3.55492 0.854086)
(-0.688913 -3.09643 1.64484)
(-0.611442 -3.13983 1.14997)
(-1.62341 -2.83348 0.766003)
(-2.37455 -1.83787 0.187882)
(-2.01596 -1.27491 1.07185)
(-1.86725 -1.18747 1.19991)
(-1.8504 -0.926304 0.519807)
(0.567751 -3.14895 -1.26066)
(0.516907 -3.41764 -0.417043)
(0.548279 -3.29716 -0.824271)
(0.436714 -3.2298 -0.0152768)
(-0.196418 -3.00898 -0.458818)
(-0.322228 -2.9295 -0.405741)
(-0.962796 -3.09333 0.147117)
(-1.75546 -2.47138 -0.221395)
(-1.34507 -2.0927 -0.0530269)
(-1.05952 -1.98324 -0.392069)
(-1.53961 -1.3761 -0.823973)
(-1.91753 -0.682362 -0.63184)
(-1.87682 -0.567273 -0.78871)
(1.47907 -2.13315 -0.22606)
(1.11793 -2.72858 -0.194913)
(1.45089 -2.76461 -0.232561)
(1.08884 -2.68564 0.0745917)
(0.926678 -2.82026 0.0863793)
(-0.111172 -2.44526 -0.12866)
(-0.306733 -2.50694 0.280919)
(-0.75749 -2.39591 0.224726)
(-0.544837 -2.17733 -0.0936227)
(-1.00366 -1.74675 -0.999831)
(-1.34475 -1.24481 -1.09333)
(-1.41778 -0.553048 -1.49856)
(-1.45371 -0.582931 -1.48336)
(-1.17657 -0.768614 -1.55765)
(1.92697 -1.21802 -1.23526)
(2.01175 -1.78172 -0.684605)
(1.80732 -1.91994 -0.221105)
(1.5234 -1.9385 -0.283728)
(1.26314 -2.17423 -0.211088)
(0.894184 -2.05952 -0.936763)
(0.364261 -2.03215 -1.33054)
(-0.0737657 -1.97369 -0.497041)
(-0.330013 -1.9257 -0.457304)
(-0.690256 -1.44633 -1.09305)
(-0.985269 -0.846803 -1.60737)
(-0.814392 -0.568795 -1.65188)
(-0.798862 -0.564482 -1.66319)
(-0.849889 -0.420759 -1.64205)
(-1.07329 -0.193267 -1.36646)
(-2.12715 -0.472958 2.70764)
(-2.37819 -0.504591 2.77877)
(-2.34043 -0.301285 2.79609)
(-2.41396 -0.692015 2.89153)
(-2.5433 -0.500367 2.82822)
(-2.42537 -0.89811 2.91039)
(-2.51035 -0.642196 2.94513)
(-2.57104 -0.419997 2.94539)
(-2.39292 -1.01096 3.01694)
(-2.42622 -0.866621 3.06754)
(-2.60429 -0.697317 3.00241)
(-2.57481 -0.61314 2.99754)
(-2.48187 -1.38332 2.96736)
(-2.5467 -1.2022 2.92386)
(-2.71555 -0.891246 2.88884)
(-2.5216 -0.987812 3.01895)
(-2.51945 -1.66085 3.15543)
(-2.51645 -1.60096 3.18306)
(-2.83312 -1.18051 3.06791)
(-2.77236 -0.979831 3.10188)
(-2.97769 -0.68825 2.91724)
(-2.2408 -2.32451 2.85)
(-2.37975 -2.04023 2.95469)
(-2.26356 -1.91428 3.044)
(-2.84982 -1.35564 2.66919)
(-2.80614 -1.42186 2.68901)
(-2.98198 -1.29059 2.56321)
(-2.14953 -2.38923 3.00863)
(-2.22545 -2.26026 3.00883)
(-2.39868 -1.84676 3.15668)
(-2.53961 -1.81318 3.00414)
(-2.59972 -1.57652 3.17312)
(-2.94867 -1.38385 2.79755)
(-2.83422 -1.0777 2.82026)
(-1.79115 -2.52426 3.08609)
(-1.90189 -2.3385 3.30404)
(-2.13044 -1.89941 3.47346)
(-2.06113 -1.79954 3.49915)
(-2.61392 -1.67536 3.15918)
(-2.27352 -1.65926 3.13906)
(-2.29525 -1.70042 2.98432)
(-2.8466 -1.53262 2.21483)
(-1.83492 -2.25161 3.02134)
(-1.59015 -2.67866 3.00229)
(-1.45893 -3.02598 3.11579)
(-1.6402 -2.84368 3.26153)
(-2.19497 -2.75805 2.83193)
(-2.22515 -2.2858 2.78211)
(-2.44561 -2.32304 2.35796)
(-2.6515 -1.68626 2.23733)
(-2.69943 -1.20086 2.05948)
(-1.82047 -2.80401 2.71604)
(-1.88123 -2.62473 3.17927)
(-1.69223 -2.94081 3.02049)
(-1.81011 -2.81667 2.95533)
(-1.79242 -2.87977 2.71815)
(-2.1839 -2.70006 2.41008)
(-2.18592 -2.69108 2.17687)
(-2.21912 -2.02412 2.11964)
(-2.54528 -1.52602 1.73335)
(-2.75549 -1.1343 1.48961)
(-1.85965 -3.16684 1.89365)
(-1.34216 -3.48172 1.93418)
(-0.617275 -3.61562 2.45361)
(-0.537287 -3.51061 2.64548)
(-0.671902 -3.28412 2.59156)
(-1.77425 -2.86337 2.24259)
(-1.97278 -2.68941 1.86507)
(-1.91219 -2.62582 1.5671)
(-2.38235 -1.75566 1.57028)
(-2.68702 -1.22469 1.11082)
(-2.78827 -0.694504 1.33993)
(-1.59046 -3.02729 2.22382)
(-1.87536 -2.74009 2.26136)
(-1.43181 -2.78835 2.65464)
(-0.844997 -3.10594 2.49454)
(-0.922609 -3.31785 2.14469)
(-1.0398 -3.39653 1.62567)
(-1.02464 -3.07335 1.62133)
(-1.66532 -2.71438 1.335)
(-2.5298 -1.88937 0.682059)
(-2.61696 -1.59938 0.548801)
(-2.23259 -0.875708 1.60197)
(-1.97562 -0.463531 1.50719)
(-0.256535 -3.43771 1.22863)
(0.405992 -3.52477 1.22332)
(0.347231 -3.60852 1.092)
(0.0717203 -3.57853 1.08115)
(-0.371308 -3.55032 0.925664)
(-0.60674 -3.13784 1.61025)
(-0.651732 -3.13795 1.12238)
(-1.71647 -2.71259 0.987005)
(-2.17739 -1.9611 0.547468)
(-1.86181 -1.34369 1.1393)
(-1.87447 -1.12668 1.044)
(-1.9259 -0.856432 0.28525)
(-2.19865 -0.371933 -0.00411647)
(0.562349 -3.17032 -1.18237)
(0.548599 -3.42472 -0.280524)
(0.661736 -3.4057 -0.687359)
(0.576745 -3.27139 0.0829411)
(-0.0795059 -3.07123 -0.206919)
(-0.353257 -2.94718 -0.394119)
(-0.985887 -3.08963 0.0608768)
(-1.69919 -2.46315 -0.262683)
(-1.25615 -2.15516 0.143366)
(-1.07176 -1.98557 -0.52535)
(-1.52942 -1.36901 -0.891378)
(-1.92961 -0.694835 -0.669489)
(-1.85105 -0.562883 -0.824057)
(-1.70859 -1.0709 -0.657125)
(1.50443 -2.18389 -0.0781185)
(1.1646 -2.70863 -0.196489)
(1.48909 -2.79003 -0.0164893)
(1.14752 -2.71481 0.148309)
(0.935344 -2.8419 0.0722428)
(-0.0774599 -2.49363 -0.0647019)
(-0.297464 -2.46396 0.108289)
(-0.770229 -2.37358 0.358991)
(-0.59172 -2.14904 -0.134005)
(-1.07334 -1.70451 -0.852744)
(-1.40924 -1.14566 -1.13808)
(-1.41303 -0.575189 -1.47292)
(-1.43207 -0.595564 -1.52365)
(-1.16273 -0.893433 -1.48289)
(-1.68324 -0.136825 -1.09038)
(1.92735 -1.22502 -1.17041)
(2.01969 -1.75884 -0.651673)
(1.81104 -1.91568 -0.183895)
(1.53542 -1.94026 -0.261347)
(1.27816 -2.16102 -0.0950652)
(0.876914 -2.08691 -0.944419)
(0.378706 -2.02089 -1.2627)
(-0.107595 -1.9418 -0.515224)
(-0.384715 -1.91342 -0.471327)
(-0.688464 -1.45312 -1.08551)
(-0.984884 -0.885349 -1.60567)
(-0.828422 -0.552374 -1.66002)
(-0.795233 -0.566391 -1.66312)
(-0.855338 -0.449899 -1.63945)
(-1.06428 -0.186909 -1.36977)
(-1.1232 -0.269092 -1.23194)
(-2.01911 -0.565715 2.40901)
(-2.11859 -0.557142 2.70567)
(-2.06922 -0.448824 2.78004)
(-2.35567 -0.551838 2.7948)
(-2.38099 -0.396962 2.78037)
(-2.34886 -0.282311 2.75832)
(-2.27119 -0.893876 2.91662)
(-2.42422 -0.690486 2.82823)
(-2.48986 -0.573772 2.74736)
(-2.26755 -1.12005 2.94894)
(-2.44049 -0.785926 2.98445)
(-2.52333 -0.4826 3.00306)
(-2.50008 -0.544799 2.98305)
(-2.3428 -1.29055 2.8981)
(-2.20419 -1.2499 2.94761)
(-2.45993 -0.889237 2.85948)
(-2.49336 -0.825229 2.89293)
(-2.55539 -0.322896 2.95083)
(-2.41026 -1.61501 2.92018)
(-2.5839 -1.30115 2.91886)
(-2.62067 -0.991704 2.91912)
(-2.5132 -0.884426 2.96686)
(-2.62226 -0.839685 2.88684)
(-2.35809 -1.81192 3.10853)
(-2.37407 -1.7278 3.12906)
(-2.58545 -1.39149 3.00333)
(-2.70724 -0.873333 2.95115)
(-2.88103 -0.740165 2.79313)
(-2.73496 -1.02325 2.84313)
(-2.09499 -2.22481 2.87441)
(-2.29623 -2.09915 2.97068)
(-2.31344 -1.96848 3.01679)
(-2.41201 -1.54806 2.89786)
(-2.34511 -1.42615 2.89405)
(-2.92962 -1.20996 2.38019)
(-2.60171 -0.867571 2.85568)
(-2.16545 -2.28096 3.02293)
(-2.04598 -2.47645 2.97385)
(-2.02466 -2.49537 2.93014)
(-2.42672 -2.14176 2.83399)
(-2.3967 -2.09191 2.70724)
(-2.88088 -1.41952 2.52813)
(-2.68532 -1.45296 2.63554)
(-2.86285 -0.945421 2.43422)
(-1.54176 -2.72852 2.98443)
(-1.71061 -2.53755 3.19786)
(-1.88779 -2.25301 3.34736)
(-1.92841 -1.84221 3.43101)
(-2.38277 -1.74942 2.95523)
(-2.22844 -1.69355 2.98329)
(-2.65312 -1.31471 2.69203)
(-2.86224 -1.52959 2.10437)
(-2.89795 -0.884996 2.13723)
(-1.57389 -2.52453 3.11818)
(-1.53719 -2.88129 2.95763)
(-1.42508 -2.93705 3.17425)
(-1.49787 -2.84008 3.22911)
(-1.7633 -2.56729 3.02084)
(-2.25419 -1.9465 2.85738)
(-2.46143 -1.84501 2.60769)
(-2.57343 -1.77181 2.16197)
(-2.53133 -1.25862 2.01538)
(-2.56018 -0.73083 2.04531)
(-1.96817 -2.40582 2.94033)
(-1.74037 -2.72566 3.18409)
(-1.60001 -2.97069 3.04478)
(-1.59156 -3.07341 2.88253)
(-1.69467 -3.03527 2.60646)
(-1.80051 -2.82376 2.48056)
(-2.2143 -2.22147 2.35142)
(-1.91977 -2.24474 2.09691)
(-2.36905 -1.62965 1.82333)
(-2.44618 -1.43599 1.67541)
(-2.58375 -0.734741 1.65311)
(-1.59341 -3.24365 1.95449)
(-0.926615 -3.69241 1.94498)
(-0.570634 -3.68452 2.47894)
(-0.505816 -3.57252 2.56437)
(-1.68672 -2.82405 2.52174)
(-1.65655 -2.89793 2.26356)
(-1.78822 -2.64844 1.91938)
(-1.85592 -2.65533 1.54603)
(-2.42692 -1.71929 1.59592)
(-2.7386 -1.11061 1.19042)
(-2.71682 -0.526767 1.34699)
(-2.31909 -0.303578 1.64139)
(-0.759971 -3.29836 2.26417)
(-1.97113 -2.73334 2.45005)
(-1.08841 -3.13031 2.5205)
(-0.621793 -3.39718 2.31088)
(-0.635976 -3.3443 2.18781)
(-0.934965 -3.43879 1.71159)
(-0.987626 -3.0266 1.69052)
(-1.74728 -2.67257 1.35501)
(-2.56984 -1.87228 0.652663)
(-2.42548 -1.60659 0.699791)
(-2.08752 -0.929122 1.59684)
(-1.99103 -0.40142 1.28488)
(-2.16773 -0.113073 0.658514)
(-0.180662 -3.53912 1.03724)
(0.931221 -3.55935 1.15553)
(0.394659 -3.66633 1.18089)
(0.247527 -3.64299 1.16637)
(-0.120712 -3.57829 1.05397)
(-0.658144 -3.09497 1.6296)
(-0.708807 -3.09278 1.21311)
(-1.69611 -2.7613 0.762722)
(-2.13167 -2.00244 0.639868)
(-1.73838 -1.45401 1.12847)
(-1.91343 -1.08003 0.432649)
(-2.00462 -0.803192 0.103869)
(-2.14748 -0.227141 -0.181653)
(-2.13794 -0.611119 0.918112)
(0.534432 -3.18483 -1.1579)
(0.615818 -3.42043 -0.0141874)
(0.78794 -3.47931 -0.193529)
(0.703335 -3.316 0.215899)
(-0.124595 -3.08333 -0.114382)
(-0.310801 -2.97154 -0.371235)
(-0.943399 -3.12624 -0.325061)
(-1.71405 -2.48303 -0.223043)
(-1.23057 -2.13261 0.357714)
(-1.10065 -1.94196 -0.573037)
(-1.48422 -1.43062 -0.91932)
(-1.92638 -0.705208 -0.702789)
(-1.80747 -0.499505 -0.876172)
(-1.6735 -1.04799 -0.739012)
(-1.66807 -1.26783 -0.160946)
(1.58501 -2.18256 0.0685542)
(1.24965 -2.71449 -0.187205)
(1.52919 -2.79193 0.118997)
(1.18726 -2.74982 0.232404)
(0.985698 -2.83228 0.224201)
(-0.0229349 -2.53004 0.147815)
(-0.305546 -2.41792 0.0932174)
(-0.742672 -2.36698 0.426096)
(-0.595482 -2.15562 -0.209281)
(-0.987788 -1.77962 -0.892852)
(-1.46274 -1.00522 -1.25806)
(-1.40763 -0.61231 -1.4185)
(-1.40787 -0.610255 -1.51756)
(-1.16401 -0.919399 -1.44874)
(-1.66857 -0.258906 -1.07375)
(-1.94483 0.0833456 -0.258585)
(1.93251 -1.22453 -1.05745)
(2.02534 -1.70496 -0.648478)
(1.81821 -1.89988 -0.177801)
(1.53896 -1.94835 -0.233902)
(1.2332 -2.1805 -0.0855396)
(0.860843 -2.06871 -0.955883)
(0.391096 -2.00376 -1.18619)
(-0.118269 -1.9336 -0.513215)
(-0.415363 -1.9078 -0.480668)
(-0.720923 -1.43292 -1.08598)
(-0.983159 -0.892348 -1.60364)
(-0.825115 -0.540745 -1.67527)
(-0.748045 -0.620067 -1.66005)
(-0.865154 -0.438262 -1.63876)
(-1.0618 -0.16811 -1.37198)
(-1.11823 -0.252367 -1.27026)
(-1.01994 -0.534446 -1.49409)
(-1.96919 -0.416877 2.19003)
(-2.02774 -0.605868 2.36982)
(-2.1128 -0.301826 2.35206)
(-2.10439 -0.769082 2.62677)
(-2.11228 -0.493493 2.7607)
(-2.05511 -0.440886 2.8005)
(-2.40129 -0.662124 2.74068)
(-2.41941 -0.394447 2.75344)
(-2.40304 -0.273994 2.7099)
(-2.31147 -0.345256 2.75412)
(-2.23113 -0.882255 2.88816)
(-2.37721 -0.729237 2.83437)
(-2.46966 -0.679516 2.72908)
(-2.51993 -0.544813 2.72968)
(-2.17036 -1.19558 2.96395)
(-2.34402 -0.943328 3.00322)
(-2.68537 -0.463282 2.7723)
(-2.49713 -0.7208 2.81371)
(-2.36866 -0.257955 3.03844)
(-2.17768 -1.45733 2.88464)
(-2.22378 -1.32468 2.89693)
(-2.39297 -1.03442 2.76079)
(-2.38562 -0.892791 2.73724)
(-2.43681 -0.297695 2.90777)
(-2.46413 -0.484091 2.8992)
(-2.28223 -1.78313 2.88157)
(-2.37749 -1.56127 2.95264)
(-2.52483 -1.27455 2.91283)
(-2.53973 -0.964708 2.91696)