/*--------------------------------*- C++ -*----------------------------------*\
  =========                 |
  \\      /  F ield         | OpenFOAM: The Open Source CFD Toolbox
   \\    /   O peration     | Website:  https://openfoam.org
    \\  /    A nd           | Version:  7
     \\/     M anipulation  |
\*---------------------------------------------------------------------------*/
FoamFile
{
    version     2.0;
    format      ascii;
    class       surfaceScalarField;
    location    "7.5";
    object      phi_0;
}
// * * * * * * * * * * * * * * * * * * * * * * * * * * * * * * * * * * * * * //

dimensions      [0 3 -1 0 0 0 0];

internalField   nonuniform List<scalar> 
54006
(
5.11973e-05
-0.00130534
0.00124859
-3.55555e-05
4.01625e-05
-0.000781447
0.000840846
-0.000201317
3.99186e-05
-3.5579e-05
6.89101e-05
0.00117383
-3.91001e-05
7.05653e-05
-0.00319932
0.00310802
-1.48201e-05
0.000172745
0.000275916
-0.00026791
-0.000377594
6.72741e-06
-0.00020956
8.96498e-05
0.000882335
-0.000224938
5.176e-05
-0.00162474
0.00158796
-0.000145727
6.12258e-05
-1.32871e-05
7.74509e-05
0.00109096
-3.87589e-05
9.43912e-05
0.00299149
-1.69595e-05
3.67674e-05
-0.00484883
0.00479761
-3.62313e-07
0.000430608
0.000714398
-0.000801502
3.58878e-05
0.000110474
-0.000372213
0.000284644
-0.000261083
-0.000401378
4.45446e-05
-0.000293122
0.000302906
-0.000380163
4.04163e-05
-0.000141202
0.000124379
0.000899898
-0.000222788
8.90727e-05
0.00151342
-0.000145082
2.56024e-05
-0.00360202
0.00352646
-5.90015e-05
1.42709e-05
1.61813e-06
8.39707e-05
0.00100206
-3.84755e-05
0.000112791
0.00285561
-1.56727e-05
5.27379e-05
0.00472854
-6.26569e-07
2.69938e-06
-0.00527656
0.00527956
-6.05966e-06
0.000499623
0.00164546
-0.00175299
4.48762e-05
0.000392221
-4.51615e-05
0.00052393
-0.000918565
7.10277e-05
0.000215557
0.000732803
-0.000660528
-0.0002074
-1.07752e-05
-0.000362705
0.000341636
-0.000248575
-0.00038425
0.000126617
0.000310719
-0.000446735
-4.55362e-06
-0.00109343
0.00104969
-0.000306267
-2.44324e-05
-4.49671e-05
0.000159244
0.000891703
-0.000223341
0.000126859
0.00144511
-0.000168545
5.8159e-05
0.00342375
-4.77905e-05
1.20747e-06
-0.00435434
0.00434585
-4.90114e-05
-1.45619e-05
-5.50748e-06
9.18876e-05
0.000905506
-3.83214e-05
0.000127204
0.00270605
-1.61219e-05
8.12902e-05
0.00463156
1.30299e-08
2.16327e-05
0.00526401
-6.71331e-06
-5.25428e-05
-0.00576782
0.00582148
-7.17449e-06
0.000428246
0.00487779
-0.00474784
-3.80246e-05
0.000495572
3.60172e-06
0.000639012
-0.00189734
5.65539e-05
0.000422695
0.00125756
-0.00143743
1.76044e-05
0.000152201
-0.000266061
0.000507491
-0.000969295
5.90482e-05
0.000312956
-0.000584405
-0.000191434
1.82427e-05
0.000895195
-0.00082229
-0.000303102
-3.79274e-05
-0.000292003
0.000385846
-0.000221152
-0.000371535
0.00020831
0.000308822
-0.000463805
7.11745e-05
0.000964136
-0.000374197
-2.46595e-05
-0.00219292
0.00211364
-0.000201124
-2.96022e-05
-3.67211e-05
0.000200211
0.000832802
-0.000218031
0.00015537
0.00136585
-0.000172246
0.000133307
0.00328338
-8.0186e-05
4.82191e-05
0.00433007
-5.85968e-05
-0.000190589
-0.00472732
0.00487475
-5.83922e-05
-7.99126e-05
-7.51889e-06
0.000106143
0.00079459
-3.83635e-05
0.000142614
0.00254086
-1.57414e-05
0.000105119
0.00451049
-1.70063e-07
5.04976e-05
0.00522059
-7.05929e-06
-3.71374e-05
0.00586069
-8.78513e-06
-0.000111204
-0.00568767
0.00579593
-4.23718e-06
0.000386115
0.00576599
-0.00571662
0.000197538
0.000309182
0.000156484
0.00060705
-0.00486397
-0.000194476
0.000445141
0.00349992
-0.00371675
0.000156363
0.00031954
1.52412e-05
0.000655896
-0.00206639
-7.13259e-06
0.000480243
-0.00152053
-2.76273e-05
0.000249196
0.00188739
-0.00196392
-0.000136825
2.18856e-05
-0.000347276
0.000515775
-0.00100237
8.26201e-06
0.000394922
-0.000560033
-0.000151936
0.000110396
-0.000732908
-0.000320037
-2.57544e-05
0.000648369
-0.000655114
-0.000295262
-1.90156e-05
-0.000195812
0.000461061
-0.00020809
-0.000387303
0.000308414
0.00026081
-0.000476567
0.00014436
0.000893379
-0.000404101
6.5751e-05
0.00197253
-0.000250617
-0.000325551
-0.00368166
0.00380366
-0.000188166
-0.000245767
-5.03647e-05
0.000260762
0.000724275
-0.000206247
0.000177051
0.00128518
-0.000171803
0.00019005
0.00311385
-8.76499e-05
7.98137e-05
0.00428008
-5.95154e-05
-0.000156941
0.00500158
-6.56266e-05
-0.000271809
-0.00485239
0.00500927
-5.46608e-05
-0.000133289
-4.6292e-06
0.000111638
0.000678069
-3.81069e-05
0.000155391
0.00236354
-1.64398e-05
0.000125343
0.00436947
-5.99587e-08
7.53184e-05
0.00515104
-5.93578e-06
-1.4484e-05
0.00587723
-9.11666e-06
-9.7956e-05
0.005891
-5.89812e-06
-0.000148955
-0.00545938
0.00561196
-7.86505e-06
0.000235382
0.00577279
-0.00549543
0.000810167
0.000126489
0.000444125
0.00054444
-0.00566385
0.000125143
0.00045538
0.00674517
-0.00673717
0.000179303
0.000359582
0.000160178
0.000666824
-0.00487718
-0.000169852
0.00050241
-0.00402958
9.61903e-05
0.000363087
0.00251462
-0.00269672
0.000224572
0.0001373
-0.000130573
0.000748654
-0.00227508
-6.98418e-05
0.00054516
-0.00158818
-8.97229e-05
0.000285019
-0.00193535
-0.000230819
-2.21075e-05
0.00208518
-0.0019871
-0.000238555
4.26132e-05
-0.000323142
0.00061092
-0.00119154
1.67494e-05
0.000520602
-0.000620225
-0.000143733
0.000173929
-0.000635587
-0.000278826
7.40733e-05
-0.000659261
-0.000324213
-0.000321365
-0.000230943
0.000175811
-0.000244316
-0.000468092
-0.00018328
0.000547024
-0.000224647
-0.000341438
0.000360546
0.000166612
-0.0004766
0.000233036
0.000809303
-0.000435476
0.000116123
0.00181821
-0.00028609
-0.000233397
0.00384773
-0.000218224
-0.000480365
-0.00387633
0.00407315
-0.000176424
-0.000320962
-5.66875e-05
0.000298442
0.000587481
-0.000210885
0.000209118
0.00119871
-0.000173502
0.000224738
0.00293319
-9.05408e-05
0.000146259
0.00418674
-6.52512e-05
-0.000108355
0.00509838
-6.24402e-05
-0.000240215
0.00514656
-6.06638e-05
-0.000300286
-0.00432556
0.0045089
-8.66636e-05
-0.000166673
-7.24521e-06
0.000119483
0.000554193
-3.75002e-05
0.000166221
0.00217586
-1.66501e-05
0.000144503
0.00420959
-1.07113e-06
9.81095e-05
0.00505971
-6.84798e-06
2.26214e-05
0.00585742
-8.74182e-06
-6.64943e-05
0.00595422
-5.83635e-06
-0.000139557
0.0057551
-9.47314e-06
-0.000143984
-0.0043705
0.00451483
-8.20886e-06
0.00060547
0.00631599
-0.00661944
0.00149085
1.653e-05
0.00107303
0.000350965
-0.00521715
0.000570234
0.000231852
0.00641685
-0.00627271
0.00088955
0.000380262
0.000275667
0.000548627
-0.00564273
0.00013638
0.000653477
-0.00678759
2.44919e-05
0.000251258
0.00593064
-0.0058037
0.000164193
0.000202623
4.91581e-05
0.00103012
-0.00513266
-0.000104951
0.000591374
-0.00429872
5.30697e-05
0.000270994
-0.00278447
0.000197968
-4.04142e-05
0.00296899
-0.002867
0.000140893
1.54753e-05
-0.000216805
0.00092843
-0.00257888
2.50844e-05
0.00051099
-0.0014753
-0.000173109
0.000221715
-0.00179468
-0.00027817
0.00013485
-0.00196148
-0.000317213
-0.000259505
0.00142773
-0.00154297
-0.000185177
-0.000546925
-0.000289245
0.000713276
-0.00146093
-4.70953e-05
0.000656197
-0.000777958
-0.000121169
0.000249228
-0.000544236
-0.000251276
0.000251237
-0.000772118
-0.000301083
-0.000197426
8.63512e-05
-0.000270724
-0.000652675
-0.0021833
0.00235656
-0.00024527
-0.000554044
-0.000191788
0.000637529
-0.000323984
-0.00027394
0.000397092
0.000104945
-0.000467744
0.000340012
0.000655565
-0.000438136
0.000209478
0.00161735
-0.000297842
-0.00011678
0.00380131
-0.000231252
-0.000387737
0.00421075
-0.000208302
-0.000535315
-0.00295666
0.00320099
-0.000185718
-0.000327557
-8.00363e-05
0.000313872
0.000450006
-0.000215194
0.00024411
0.00108759
-0.000177655
0.000248363
0.00275098
-9.51491e-05
0.000200477
0.00406499
-7.11604e-05
-6.76257e-05
0.00518988
-6.65086e-05
-0.000180232
0.00526306
-6.51983e-05
-0.000270955
0.00465802
-7.83859e-05
-0.000293372
-0.00373097
0.0038782
-8.4508e-05
-0.000167069
-8.08307e-06
0.000131366
0.000418515
-3.63199e-05
0.000177707
0.00197828
-1.76268e-05
0.000163644
0.00403184
-2.53552e-06
0.000124563
0.00494089
-6.80742e-06
4.72687e-05
0.00581343
-1.01295e-05
-3.84978e-05
0.00599183
-7.86118e-06
-0.000111843
0.00587181
-1.07081e-05
-0.000160161
0.00467483
-9.31182e-06
-0.000162148
-0.00368945
0.0038551
-1.17092e-05
0.00110894
0.00675052
-0.0069359
0.00216818
0.000203374
0.0015533
0.000680414
-0.00680303
0.00138778
0.000230819
0.00613467
-0.00599734
0.00135456
0.000187841
0.00105741
0.00040616
-0.00549254
0.000651285
0.000550427
-0.00619656
0.000597133
0.000305939
0.00711696
-0.00720552
0.000923431
0.00022762
0.000229593
0.00108426
-0.00583181
-3.78938e-05
0.000562247
-0.00652709
-9.49897e-05
0.000543398
-0.00609449
4.28845e-05
-1.46454e-06
0.00408712
-0.00401785
5.59754e-05
-0.000105428
-1.21095e-05
0.00125612
-0.00553467
-4.63536e-05
0.000592601
-0.00427527
-0.000210016
0.000319048
-0.00295352
0.00012478
0.000127767
-0.00289362
0.000231671
3.69043e-05
0.00225817
-0.00254218
0.000128495
-0.000421344
-9.91067e-05
0.00104468
-0.00293287
-0.000107155
0.000945091
-0.00164718
-9.19292e-05
0.000289404
-0.00174354
-0.000264428
0.000288311
-0.00198099
-0.000295736
-0.000156948
-0.001625
-0.000275665
-0.000590308
0.00103523
-0.00107686
-0.000205919
-0.000706508
-0.000296701
0.000764938
-0.00171394
-4.43557e-05
0.000671797
-0.000953435
-0.000146324
0.000439269
-0.000526726
-0.000237937
0.000302461
-0.000825159
-0.000291217
-2.39682e-05
-0.0001658
-0.000141744
-0.00053454
0.00251189
-0.000279249
-0.000866798
-0.00136282
0.00170331
-0.000254283
-0.000568158
-0.000200495
0.000670555
-0.00052844
-0.000198874
0.000476029
4.42816e-05
-0.000445196
0.000415025
0.000465269
-0.00044411
0.00031082
0.00137228
-0.000303408
-6.61171e-05
0.00370515
-0.000203183
-0.000350376
0.00437437
-0.000224731
-0.000502489
0.00344746
-0.000223239
-0.00064213
-0.0025618
0.00286864
-0.000143801
-0.000353184
-7.16066e-05
0.00033962
0.000314513
-0.00021765
0.000296892
0.000930799
-0.000177587
0.000265204
0.00256735
-9.55901e-05
0.000231363
0.00393078
-6.77402e-05
-2.01329e-05
0.00526039
-7.42653e-05
-9.62455e-05
0.00532245
-6.81559e-05
-0.000180951
0.00476547
-0.000103541
-0.000336634
0.00405372
-7.74342e-05
-0.000407731
-0.00314372
0.00336336
-5.85685e-05
-0.000179686
-1.13706e-05
0.000142943
0.000270682
-3.49726e-05
0.00018728
0.00177117
-1.64869e-05
0.000182529
0.00383518
-3.49724e-06
0.000140817
0.00480478
-7.24075e-06
6.96065e-05
0.00574718
-1.01632e-05
-1.24492e-05
0.00600171
-7.56029e-06
-8.87456e-05
0.00596525
-1.25523e-05
-0.000111865
0.00478738
-1.13963e-05
-0.00016239
0.00402082
-1.26378e-05
-0.000235149
-0.00235741
0.00259846
-1.76053e-05
0.00149338
0.00713807
-0.00712581
0.00258154
0.00062687
0.00228002
0.00167697
-0.0075049
0.00231379
0.000510665
0.00604008
-0.00605012
0.00189837
0.000232918
0.00141168
0.00054393
-0.00693424
0.00142354
0.000915757
-0.00610324
0.00112835
0.000214712
0.00704277
-0.00695302
0.00135603
0.000336535
0.00100922
0.00113509
-0.00626972
0.00050923
0.000300227
-0.00608767
0.000804419
0.00090153
-0.00759405
0.000627529
0.000269328
0.0072831
-0.00758306
0.000952599
-4.10756e-05
0.000220361
0.00148887
-0.00617074
-0.000143783
0.000748171
-0.00666756
-5.30018e-05
0.000544112
-0.00644648
3.19348e-05
0.000139651
-0.0041027
0.000115851
-7.58971e-05
0.00363119
-0.00366251
0.000200094
-5.62257e-05
-2.9215e-05
0.00128043
-0.00610204
0.000103397
0.00121502
-0.00440196
-0.000189592
0.000597139
-0.00339597
-7.52916e-05
0.000255079
-0.00289015
0.000154542
8.78711e-05
-0.0027156
0.000160272
-0.000662999
0.00261386
-0.0024488
3.61236e-05
-0.000482115
-0.000173228
0.00105173
-0.00332923
-0.000241228
0.000971478
-0.00194739
-0.000106628
0.000539959
-0.00170294
-0.000233222
0.00027865
-0.0019868
-0.000234809
-4.63357e-05
-0.00162068
-0.00027768
-0.000588953
-0.00100214
-0.000295968
-0.0013096
0.000336992
8.34289e-05
-0.00018354
-0.000921923
-0.000254998
0.000835154
-0.00190003
-7.54807e-05
0.000745707
-0.0011042
-0.000163272
0.000595453
-0.000593411
-0.000260067
0.000458472
-0.000892779
-0.000317968
8.52594e-05
-0.000403222
-0.000205171
-0.000521531
0.00272106
-0.000179759
-0.000872367
0.00213561
-0.000341665
-0.00112165
-0.00119877
0.00162452
-0.000200517
-0.000701614
-0.00013384
0.000727528
-0.000825701
-0.000147925
0.000539111
2.16873e-06
-0.00039898
0.0004723
0.000269594
-0.000456617
0.00037234
0.00112779
-0.000340598
1.24802e-05
0.00356934
-0.00020022
-0.000155997
0.00444571
-0.000214774
-0.000339683
0.00361076
-0.000229301
-0.00060359
0.00308171
-0.000169354
-0.000724595
-0.00242765
0.00271877
-0.000118055
-0.000444164
-5.09524e-05
0.000360464
0.00017234
-0.000214765
0.000326742
0.000760241
-0.000186553
0.00027101
0.00241132
-0.000110031
0.00026557
0.00377457
-6.41291e-05
7.10744e-05
0.00526509
-7.39064e-05
-6.73404e-05
0.00537319
-7.01079e-05
-0.000147836
0.00486347
-0.000107066
-0.00025538
0.00419567
-0.000101975
-0.0004084
0.00359731
-6.53765e-05
-0.000520951
-0.00269743
0.00299504
-7.03794e-05
-0.000245874
-1.62608e-05
0.000153372
0.000111817
-3.3455e-05
0.000197166
0.00155604
-1.70042e-05
0.000201152
0.00362001
-2.47386e-06
0.000158471
0.00464958
-6.77331e-06
0.00010656
0.00564355
-1.01718e-05
1.57243e-05
0.00598388
-8.0484e-06
-4.38421e-05
0.00601588
-1.43486e-05
-9.28225e-05
0.004879
-1.13429e-05
-0.000146762
0.00416969
-1.35029e-05
-0.000247269
0.00285272
-1.96259e-05
-0.000251413
-0.00176377
0.00201169
-1.41127e-05
0.00188391
0.00668465
-0.00689823
0.00335404
0.00118132
0.00263865
0.00224449
-0.00727564
0.00288849
0.000847648
0.00654658
-0.00672924
0.00242722
0.000254141
0.00199681
0.00114584
-0.0080027
0.00269746
0.0016362
-0.00634326
0.00188648
0.000161268
0.00625308
-0.00607493
0.00177366
0.00041034
0.00142935
0.00176801
-0.00772003
0.0014253
0.000150545
-0.00576857
0.00123855
0.000592253
-0.00693312
0.00141773
0.000548842
0.00774749
-0.00780679
0.00113581
0.000203385
0.00105698
0.00152426
-0.00689372
0.000320966
0.00055405
-0.00617923
0.000794913
0.000586608
-0.00758842
0.000756294
0.000411189
-0.00784155
0.000614484
0.000201218
0.00503279
-0.00561788
0.00126058
-0.00019237
0.000388997
0.00173274
-0.00662511
-0.000342529
0.0011048
-0.00657847
-0.00012265
0.000729834
-0.00673886
0.00010668
0.000205622
-0.00426876
0.000247447
-1.38478e-05
-0.00344227
-2.66895e-06
-0.000895169
0.00149851
-0.00171255
0.000646296
-0.000626237
2.72073e-05
0.00125213
-0.00638435
-0.0003267
0.00134279
-0.00472482
5.49452e-05
0.000698118
-0.00349403
-0.000249698
0.000181399
-0.00298222
0.000114031
2.87652e-05
-0.00273283
9.66742e-05
-0.000595943
-0.00218441
-9.71231e-05
-0.00161958
0.000783803
-0.000510717
7.3023e-05
-0.00134566
-0.000187456
0.00117619
-0.00387027
-0.000217075
0.00104627
-0.00230665
-0.000182533
0.000884274
-0.00186958
-0.000228805
0.000414669
-0.00194792
-0.000228297
-1.70249e-05
-0.0015399
-0.000213312
-0.000471742
-0.000928203
-0.000401406
-0.00133122
0.000479665
-0.00023335
-0.00141768
-0.000895094
0.00124693
-0.000239344
-0.00119461
-0.000192112
0.000957604
-0.00215998
-9.09033e-05
0.000898278
-0.00133167
-0.000207175
0.000691345
-0.0006947
-0.000281029
0.000533746
-0.00095135
-0.000362902
0.00017235
-0.000596047
-0.000285013
-0.000215537
0.00283999
-0.000264554
-0.000695077
0.00261135
-0.000300101
-0.00109083
0.00205194
-0.000281843
-0.00102612
-0.00198951
0.00228119
-0.00019068
-0.000780536
-0.000108531
0.000798371
-0.00116438
-0.000111622
0.000600454
-3.38297e-05
-0.000385639
0.000496999
0.000112841
-0.000468215
0.000485045
0.000808923
-0.000357221
0.000187762
0.00333063
-0.000218573
-0.000140944
0.00452926
-0.000210164
-0.000223825
0.00373846
-0.000266487
-0.000598531
0.00337545
-0.000179895
-0.00073063
0.00299136
-0.000119716
-0.000802007
-0.00265957
0.00294765
-0.000125079
-0.000553056
-6.41737e-05
0.000359112
4.25653e-05
-0.000208717
0.000363007
0.000555844
-0.000176208
0.000282528
0.00226844
-0.000125054
0.000278118
0.00362266
-7.77701e-05
0.000169812
0.00521028
-7.25782e-05
2.63217e-05
0.00535905
-7.03637e-05
-4.57999e-05
0.00490517
-0.000109854
-0.000171019
0.00428042
-0.000113615
-0.000369284
0.00378804
-7.01818e-05
-0.000545245
0.00330397
-7.6332e-05
-0.000551074
-0.00192248
0.00221065
-5.88935e-05
-0.000260698
-1.33146e-05
0.000164751
-5.8672e-05
-3.24773e-05
0.000205964
0.00133308
-1.64666e-05
0.000219914
0.00338647
-3.37157e-06
0.000171848
0.00448155
-6.28994e-06
0.000129078
0.00551831
-1.06093e-05
4.45887e-05
0.00593756
-8.44559e-06
-4.01044e-05
0.0060588
-1.08625e-05
-6.41602e-05
0.00494366
-1.48505e-05
-0.000120272
0.00429261
-1.39977e-05
-0.000229592
0.00308895
-2.0144e-05
-0.000265032
0.00227264
-1.55367e-05
-0.000248256
-0.00174626
0.00198913
-8.72039e-06
0.00153416
0.00588981
-0.00582444
0.00440583
0.00142693
0.00352956
0.00217778
-0.00682246
0.00366183
0.000988497
0.00633747
-0.00659585
0.00347157
0.000740127
0.00249458
0.00181233
-0.00775855
0.00331879
0.00169598
-0.00658803
0.0026875
0.000126423
0.00599491
-0.00586253
0.00232969
0.000397217
0.00192935
0.00202141
-0.00822524
0.00214231
0.000671263
-0.00650182
0.0023353
0.00040951
-0.00583053
0.00182482
0.000923815
0.00711019
-0.00747094
0.00175944
0.000371189
0.00149214
0.00174117
-0.00818556
0.00148289
0.00068045
-0.00601754
0.00154786
8.41153e-05
-0.00673132
0.00153924
0.000444014
-0.00774303
0.00132115
0.000905681
0.00838844
-0.00905659
0.00109949
-0.000412802
0.00131023
0.00188961
-0.00728416
-0.000188594
0.000865587
-0.00616048
0.000541421
0.000360252
-0.00722257
0.000798644
0.000331706
-0.00774578
0.000534435
0.000231571
-0.00624127
0.000992457
-0.000832154
0.00376373
-0.00383435
0.00126818
-0.00119021
0.0008368
0.00160159
-0.00693285
-0.000453148
0.00150906
-0.00682939
-0.000257865
0.000776697
-0.00694075
6.64183e-07
0.000101245
-0.00433884
0.000256913
4.79236e-05
-0.00317263
-4.13562e-05
-0.000419671
-0.00225288
0.000361394
-0.00130997
0.000715975
-0.00104997
0.000670678
-0.00162646
7.92169e-05
0.00140189
-0.00667542
-0.000417167
0.00141689
-0.00526904
-0.000153104
0.00101605
-0.00343849
-0.000132371
0.000166639
-0.00300057
1.66755e-05
3.54728e-05
-0.00280718
0.000135885
-0.000124551
-0.002258
-0.000176926
-0.00156748
-0.000385044
1.34655e-05
-0.00157881
-0.000592456
0.000990364
-0.00016375
-0.00152153
-0.000227964
0.00125391
-0.00430031
-0.000297517
0.00123634
-0.0027902
-7.15911e-05
0.00105849
-0.00211784
-0.000301429
0.000566624
-0.00199801
-0.000211586
9.8215e-05
-0.00148255
-0.000211509
-0.000152247
-0.000838257
-0.000366549
-0.000984532
0.000704348
-0.000336634
-0.00142921
0.00161946
-0.000267504
-0.00115363
-0.000449959
0.000669305
-0.000331177
-0.00110024
-0.000151514
0.00114715
-0.00255303
-9.22081e-05
0.000965635
-0.00163156
-0.000156189
0.000786157
-0.00090202
-0.000289013
0.000664901
-0.00101459
-0.000397641
0.000291056
-0.000699141
-0.000363103
-0.000142165
0.00284552
-0.000289324
-0.00048577
0.00300358
-0.000394842
-0.00100867
0.00237363
-0.000211657
-0.00103777
0.0025299
-0.000223405
-0.0011508
-0.00121108
0.00140611
-3.6908e-05
-0.000842261
-0.000117665
0.000851583
-0.00161292
-0.000112363
0.000653116
-8.24713e-05
-0.00035309
0.000493838
-1.56104e-05
-0.000468499
0.000524521
0.000484584
-0.00039028
0.000295848
0.00307462
-0.000227249
-1.88651e-05
0.00454802
-0.00019214
-0.000168212
0.00391145
-0.000260748
-0.000414278
0.00355476
-0.000202531
-0.000674977
0.00328216
-0.000165005
-0.000840572
0.00324881
-0.000125546
-0.00080511
-0.00175113
0.0020191
-0.000139011
-0.000572667
-5.02398e-05
0.000370479
-9.00165e-05
-0.000188823
0.00039298
0.000335672
-0.000175561
0.000326031
0.00210878
-0.000122667
0.000284924
0.00346395
-7.94139e-05
0.000238067
0.00509929
-7.57678e-05
0.000105728
0.00529565
-7.03203e-05
-5.62259e-05
0.00496379
-0.000112858
-0.00011472
0.00431325
-9.2124e-05
-0.000311441
0.00395025
-8.46567e-05
-0.000482685
0.00356874
-8.18528e-05
-0.000573825
0.00251776
-7.46484e-05
-0.000571671
-0.00130046
0.00161208
-4.70893e-05
-0.0002583
-8.99535e-06
0.000174628
-0.000238616
-3.25867e-05
0.000215295
0.00110203
-1.67151e-05
0.000235318
0.00313831
-3.62895e-06
0.000185999
0.00429946
-7.27855e-06
0.000147651
0.00537498
-1.06121e-05
7.36785e-05
0.00586359
-1.03191e-05
-9.40351e-06
0.00606991
-1.01521e-05
-4.87018e-05
0.00499299
-1.14941e-05
-0.000113028
0.00440612
-1.53346e-05
-0.000213127
0.0033094
-2.13259e-05
-0.000250977
0.00252107
-1.76017e-05
-0.000264751
0.00224837
-1.00311e-05
-0.000209861
-0.00211026
0.00231354
-2.13463e-06
0.000888806
0.00567273
-0.00543245
0.00505147
0.000995284
0.00459212
0.00196883
-0.00587255
0.00465767
0.000728752
0.00600913
-0.00601026
0.00466671
0.000937292
0.00357221
0.0020337
-0.00706289
0.00388012
0.0016299
-0.00663486
0.00376692
0.000148377
0.00586772
-0.0059644
0.00354629
0.000285752
0.00242824
0.00187819
-0.00759709
0.0034356
0.00146686
-0.0069731
0.00290826
0.000353179
-0.00604365
0.00292496
0.0004774
0.00672235
-0.00631607
0.00236982
0.000496614
0.0019921
0.00190393
-0.00843938
0.00263838
0.00106568
-0.00679566
0.00205093
0.000102514
-0.00560627
0.00209264
-0.00013605
-0.00690815
0.0018421
0.000546839
0.00732061
-0.00739799
0.00219566
0.000332563
0.00160776
0.00201538
-0.00839378
0.00116371
0.000910985
-0.00624756
0.00166751
0.000245575
-0.00673624
0.00166746
0.00034858
-0.00759943
0.00137876
0.00072892
-0.00919388
0.000961087
-0.000653939
0.00641974
-0.00693134
0.00143287
-0.00103797
0.00141265
0.00191373
-0.00770734
-0.000461663
0.00135148
-0.00641171
0.000220215
0.00061091
-0.00698325
0.000467882
0.000237476
-0.00755913
0.000475769
0.000124814
-0.00652854
0.00074481
-0.000194563
-0.00402728
0.000960275
-0.00104497
0.00458314
-0.00476683
0.00118687
-0.00157757
0.000849709
0.00154936
-0.00713833
-0.000360816
0.00164105
-0.0071828
-0.000323896
0.00080551
-0.00657761
-0.000410462
7.05497e-05
-0.00441305
0.000170964
3.86921e-05
-0.00306889
0.000149958
-4.51647e-05
-0.00256348
0.000189861
-0.0012967
-0.00162897
0.00066961
-0.0017915
0.00154881
-0.0012621
0.000596652
-0.00167398
-0.000160735
0.00148761
-0.00689804
-0.000425424
0.00139088
-0.0056568
-0.000183937
0.00122539
-0.00368558
-7.29119e-05
0.000527303
-0.00305431
-3.93069e-05
7.53184e-05
-0.00279921
3.16045e-05
0.000113023
-0.00223098
-0.000156404
-0.00103511
-0.0004684
-4.2997e-05
-0.00162368
0.00132888
-0.000130583
-0.00154161
0.00123589
-0.000929722
-8.19347e-05
-0.00129324
-0.000321043
0.00145486
-0.00471968
-0.0002939
0.00138156
-0.00336597
-0.00013767
0.00107415
-0.0022319
-0.000245513
0.000680294
-0.00201421
-0.000300628
0.000283766
-0.00142141
-0.000265434
-8.67757e-05
-0.000720333
-0.000384823
-0.000649414
0.000750947
-0.000249504
-0.00125513
0.00181343
-0.000284134
-0.00118878
0.00102642
-0.000473614
-0.00150276
0.000578334
-0.000392078
-0.000165474
-0.00121455
4.77427e-05
0.00127756
-0.0030764
-0.000118481
0.00103354
-0.0019591
-0.000145094
0.000883097
-0.00116151
-0.000285957
0.00084131
-0.00117484
-0.000445558
0.000390208
-0.000741025
-0.000450117
1.40517e-05
0.00278107
-0.000331575
-0.000367609
0.00328411
-0.000370457
-0.000801845
0.00267422
-0.000307863
-0.000950561
0.00288327
-0.000289444
-0.00113342
0.00161316
-0.000137607
-0.00130234
1.82619e-05
0.000262335
0.000179722
-0.000845903
-0.000119775
0.000826988
-0.0020485
-0.000147815
0.000708611
-0.000242287
-0.000268178
0.00054489
-0.00014184
-0.000445719
0.000507113
0.00020623
-0.000412333
0.000395462
0.00276727
-0.000240323
0.000103908
0.00452351
-0.000200922
-7.90493e-05
0.00398029
-0.000238155
-0.000386857
0.00376974
-0.000203589
-0.000586265
0.00349208
-0.000137632
-0.000708705
0.00346543
-0.000155604
-0.000828593
0.00231911
-0.000170794
-0.000911326
-0.000721393
0.00106597
-0.00014393
-0.000592
-3.65493e-05
0.000382476
-0.000219099
-0.000172857
0.000421935
0.000123215
-0.000183006
0.000402691
0.00188793
-0.000122076
0.000303904
0.00329932
-7.59426e-05
0.000278236
0.00495313
-6.38381e-05
0.000175751
0.00519445
-7.66416e-05
2.11995e-05
0.00497659
-0.00011372
-8.29064e-05
0.00434328
-0.000108687
-0.000304658
0.00411636
-6.6596e-05
-0.000462178
0.00381004
-7.69016e-05
-0.000540992
0.00280512
-7.9195e-05
-0.000603545
0.00193456
-5.83402e-05
-0.000527458
-0.000680956
0.000968338
-1.68745e-05
-0.000217582
-1.46463e-06
0.000182376
-0.00042465
-3.29516e-05
0.000219265
0.00086495
-1.47746e-05
0.000245823
0.00288085
-5.08369e-06
0.000199974
0.00410343
-7.57737e-06
0.00017401
0.00520519
-1.1502e-05
9.27104e-05
0.00576987
-9.60266e-06
3.71377e-05
0.00603572
-1.32685e-05
-2.98493e-05
0.0050235
-1.08058e-05
-8.85236e-05
0.00449898
-1.5821e-05
-0.000192654
0.00350892
-2.21929e-05
-0.000235649
0.00275261
-1.72129e-05
-0.000241808
0.00248431
-1.17279e-05
-0.000222266
0.00252982
-4.04846e-06
-0.000197182
-0.00119376
0.00139457
-5.76309e-06
0.000434383
0.00567321
-0.00547788
0.00508556
0.000626606
0.00506592
0.00153152
-0.00533405
0.00535782
0.000709136
0.0057597
-0.0058148
0.00512619
0.000617091
0.00477093
0.00212006
-0.00608643
0.00454949
0.00125502
-0.00597531
0.00499761
9.03673e-05
0.00591676
-0.00587604
0.00468399
0.000250645
0.0035762
0.00188219
-0.00712591
0.00409386
0.00163543
-0.00677212
0.00384882
0.000443954
-0.00625952
0.00397126
-0.000201611
0.00632574
-0.00573606
0.00363563
0.000401209
0.00259248
0.00211123
-0.00769681
0.0034356
0.0015895
-0.00703075
0.00296942
0.000585927
-0.00618848
0.00256967
-0.000696502
-0.00590547
0.00307481
-0.000109864
0.00711177
-0.00696558
0.00288034
0.000340536
0.00233722
0.00210507
-0.00854672
0.0022304
0.00137644
-0.0071778
0.00255507
0.000625009
-0.0059151
0.00198033
0.000199764
-0.00659994
0.00193324
0.000213713
-0.00734381
0.00230313
-0.000508161
0.00717364
-0.0075109
0.00238714
-0.000940478
0.00164817
0.00224428
-0.00848699
0.000642136
0.00135036
-0.00664278
0.00156005
5.57874e-05
-0.00628731
0.00177371
0.000414548
-0.00753274
0.00142371
0.000488661
-0.00906768
0.000888712
-0.000358735
-0.00711773
0.00131165
-0.00178928
0.00515489
-0.00480252
0.00182482
-0.0013796
0.00147305
0.00186838
-0.00786006
-0.000413227
0.0015459
-0.00676822
-1.00109e-05
0.000579968
-0.00683063
0.000293143
0.000462186
-0.00790267
0.000419785
-6.44621e-05
-0.00657489
0.00062528
-6.89229e-06
-0.00407338
0.000752641
-0.00131952
-0.00472501
0.000941283
-0.00199564
0.00474582
-0.00460018
0.00124537
-0.0019247
0.000671266
0.00160897
-0.00728202
-0.000330618
0.00159645
-0.0074172
-0.000331982
0.000963781
-0.0062461
-0.000393798
0.000507852
-0.00472765
-7.64081e-05
-5.90756e-05
-0.00297753
0.000213995
0.000286876
-0.00275075
0.000163369
-0.0011473
-0.00190325
0.000576335
-0.00190631
-0.000835157
0.000525303
-0.00192594
0.00350668
-0.0032553
0.000729602
-0.00170543
-3.06921e-05
0.00156584
-0.0068858
-0.000629549
0.00165304
-0.00601825
-0.000335459
0.00138694
-0.00400168
-0.000180631
0.000789353
-0.00296986
-0.000266419
0.000204075
-0.00267438
-8.44449e-05
7.77045e-05
-0.00217785
-0.000186007
-0.000657647
-0.00048834
-0.00012823
-0.00136306
0.00144462
-5.08045e-05
-0.00141068
-0.000645024
-0.000193383
-0.00172154
0.00174831
-0.00177718
0.000165713
-0.00162498
-0.000281582
0.0015007
-0.00510159
-0.000313693
0.00132611
-0.00381377
-0.000138677
0.00122752
-0.00250415
-0.000209848
0.00097712
-0.00209258
-0.000302954
0.000546635
-0.00153476
-0.00034371
0.000195471
-0.000696318
-0.000470868
-0.000351249
0.000720169
-0.000370406
-0.00103258
0.00199405
-0.000199392
-0.00105447
0.00122996
-0.000383758
-0.00152799
-0.000108208
-0.000362911
-0.00167327
0.00137368
-0.0010735
-9.47108e-05
-0.00132978
0.000214322
0.001242
-0.00365273
-0.000118486
0.00110592
-0.00226298
-0.00021191
0.000926806
-0.00140288
-0.000285642
0.000905403
-0.00137917
-0.000479919
0.000475538
-0.000734921
-0.000531738
0.000106702
0.00272289
-0.000394725
-0.000315692
0.00358525
-0.00039607
-0.000742775
0.00292636
-0.000266682
-0.000854818
0.00309455
-0.000250594
-0.000962285
0.00181575
-0.000238455
-0.00137442
0.000558594
0.00011196
-0.00124177
-0.000525894
0.000938229
9.78353e-05
-0.00094062
-0.000119453
0.000773268
-0.00244269
-0.000155422
0.000788905
-0.000538671
-0.000218402
0.00061546
-0.00024744
-0.000375347
0.00052034
-2.40603e-05
-0.000431865
0.000492928
0.00239357
-0.000253323
0.000212067
0.00444277
-0.000195897
7.08801e-05
0.00397487
-0.000245183
-0.00029513
0.00394873
-0.000204922
-0.000521931
0.00366277
-0.000157001
-0.000703287
0.0037181
-0.0001492
-0.000794168
0.00256271
-0.000146024
-0.000966627
0.0014078
-0.000149551
-0.000887596
0.000510394
-0.000190359
-0.000103827
-0.000539092
-1.07916e-05
0.000400393
-0.000357935
-0.000147541
0.000425546
-6.08046e-05
-0.000195117
0.000439157
0.00164568
-0.000134095
0.000333846
0.00312238
-7.90073e-05
0.000316503
0.00479377
-5.90758e-05
0.000234759
0.0050534
-6.48324e-05
0.000132333
0.00492278
-0.00011803
-3.82387e-05
0.00436039
-0.000122439
-0.000233159
0.00423438
-8.20706e-05
-0.000387707
0.00401994
-8.14455e-05
-0.000512377
0.00308073
-7.57776e-05
-0.000570566
0.00224459
-6.04646e-05
-0.000576221
0.00128211
-1.81558e-05
-0.000455311
-0.00032866
0.00057674
-6.82538e-06
-0.000201761
-4.73163e-06
0.000184927
-0.000611489
-3.24136e-05
0.000224622
0.000622994
-1.56163e-05
0.00025674
0.00261412
-4.78433e-06
0.000214
0.00389246
-8.11306e-06
0.000192604
0.00501635
-1.1336e-05
0.000122508
0.00564615
-1.02852e-05
5.91783e-05
0.00598074
-1.3803e-05
-8.67663e-06
0.00503152
-1.26125e-05
-6.19553e-05
0.00456627
-1.61472e-05
-0.000172843
0.00368737
-2.14289e-05
-0.000217891
0.00296772
-1.94139e-05
-0.000234832
0.00271249
-1.05668e-05
-0.000209607
0.00273088
-3.17379e-06
-0.000211576
0.0016098
-7.70633e-06
-0.000185614
-0.000409503
0.000609141
-1.97872e-05
0.000132053
0.00539649
-0.00541718
0.00484273
0.000327272
0.00488927
0.000982081
-0.00529869
0.00570609
0.00069903
0.0058164
-0.00579502
0.00507429
0.000374821
0.00516537
0.00196851
-0.00547966
0.00520683
0.000941459
-0.00571142
0.005568
0.000348625
0.0059228
-0.00609797
0.0050431
0.000167152
0.00475596
0.00211855
-0.0061717
0.00445113
0.00146813
-0.00608851
0.00482999
0.000293206
-0.00585647
0.00512878
-0.000144243
0.0061129
-0.00619394
0.00470766
0.000105461
0.00371925
0.0021823
-0.00711428
0.0038825
0.00191511
-0.00686742
0.00386354
0.000812801
-0.00635445
0.00371688
-0.000300405
-0.00609075
0.00392985
-0.00038542
0.00670261
-0.00665894
0.00386752
-0.000168451
0.00305882
0.00195114
-0.00760989
0.00345792
0.00201131
-0.007437
0.00320699
0.000957966
-0.00604747
0.00249546