/*--------------------------------*- C++ -*----------------------------------*\
  =========                 |
  \\      /  F ield         | OpenFOAM: The Open Source CFD Toolbox
   \\    /   O peration     | Website:  https://openfoam.org
    \\  /    A nd           | Version:  7
     \\/     M anipulation  |
\*---------------------------------------------------------------------------*/
FoamFile
{
    version     2.0;
    format      ascii;
    class       volVectorField;
    location    "7.5";
    object      U;
}
// * * * * * * * * * * * * * * * * * * * * * * * * * * * * * * * * * * * * * //

dimensions      [0 1 -1 0 0 0 0];

internalField   nonuniform List<vector> 
18720
(
(0.50563 -0.597137 -0.973271)
(0.290915 -0.415361 -1.5324)
(0.452346 -0.601785 -0.979388)
(0.567371 -0.595049 -0.957158)
(0.705607 -1.56448 -0.659129)
(0.0475138 0.138096 -1.53802)
(0.207245 -0.30636 -1.56941)
(0.34988 -0.435468 -1.53244)
(0.488162 -0.855078 -1.56491)
(0.691813 -1.57786 -0.648258)
(0.620778 -0.599749 -0.934583)
(0.725457 -1.53403 -0.675288)
(0.410388 -2.43368 0.0118289)
(0.942408 0.4276 0.632211)
(-0.15467 0.139962 -1.56924)
(0.33211 0.144101 -1.30963)
(-0.0456308 -0.151133 -1.87667)
(0.498247 -0.684798 -1.63911)
(0.355515 -0.459662 -1.56219)
(0.56208 -0.78211 -1.60132)
(0.269054 -1.73072 -0.619423)
(0.348393 -2.4533 0.130467)
(0.650122 -0.608405 -0.923313)
(0.749522 -1.54185 -0.691657)
(0.415749 -2.40844 -0.0309823)
(0.0504164 -2.6545 -0.00418402)
(0.863803 0.849845 -0.0196764)
(0.768467 0.411379 0.338164)
(1.16223 0.392192 0.650967)
(0.311724 0.369517 -0.405724)
(-0.124879 -0.138489 -1.77957)
(0.600139 0.0660758 -1.09647)
(0.0641697 -0.150833 -1.99107)
(-0.00939268 -0.554677 -1.59203)
(0.149424 -1.86051 -0.481623)
(0.364546 -0.515193 -1.57434)
(0.709162 -0.803563 -1.54923)
(0.174515 -1.83908 -0.376668)
(0.241917 -2.16807 -0.265573)
(0.041997 -2.6546 0.0227806)
(0.671638 -0.616679 -0.923766)
(0.764494 -1.53245 -0.69462)
(0.334654 -2.38933 0.0402085)
(-0.0264421 -2.64054 -0.000195032)
(-0.296703 -2.92414 -0.269656)
(0.626464 2.39929 -0.0356494)
(0.800839 0.875749 -0.0328645)
(0.899462 0.891713 -0.0783089)
(0.620786 0.702075 0.246617)
(0.0654736 0.387915 -0.629692)
(1.20825 0.369896 0.495918)
(0.606614 0.298231 -0.249301)
(0.00323311 0.440519 -0.916903)
(-0.145732 -0.554041 -1.52527)
(0.848749 0.0119021 -0.94237)
(0.15042 -0.163892 -2.0799)
(0.17989 -0.484481 -1.71121)
(-0.153483 -1.07919 -1.14532)
(0.177405 -2.17498 -0.198465)
(0.415299 -0.53877 -1.54587)
(0.77446 -0.837179 -1.55808)
(0.458993 -1.67635 -0.712488)
(0.258372 -2.18259 -0.30588)
(-0.465244 -2.44464 -0.469667)
(-0.311084 -2.90797 -0.26145)
(0.698434 -0.626326 -0.937976)
(0.781459 -1.51146 -0.687396)
(0.347626 -2.37892 0.0242624)
(0.00208774 -2.63308 -0.0390643)
(-0.308449 -2.91129 -0.277316)
(-0.775158 -2.90115 -0.0650864)
(0.522428 2.86048 0.264984)
(0.470617 2.46888 0.171692)
(1.07255 2.31947 -0.524625)
(0.626063 1.81496 -0.148241)
(0.546201 0.600446 0.0502729)
(0.855303 0.89756 -0.202357)
(0.684535 0.719918 0.335082)
(0.0520753 0.95712 -0.155701)
(-0.0244223 0.467523 -1.05854)
(1.20613 0.272624 0.276095)
(0.940868 0.212062 -0.174933)
(0.204214 0.384409 -0.8534)
(0.073921 0.343538 -1.0353)
(-0.154015 -1.13233 -1.08045)
(1.08937 -0.149719 -1.07526)
(0.259722 -0.192312 -2.14328)
(0.288746 -0.522412 -1.77842)
(-0.0218248 -1.01281 -1.32526)
(-1.12889 -1.89246 -0.751247)
(-0.64921 -2.38659 -0.358027)
(0.59798 -0.556818 -1.43371)
(0.866737 -0.860184 -1.52892)
(0.560326 -1.70163 -0.794844)
(0.303783 -2.18498 -0.397608)
(-0.432464 -2.42708 -0.511821)
(-0.996982 -2.4973 -0.400664)
(-0.766102 -2.88534 -0.0868158)
(0.750459 -0.643723 -0.948657)
(0.807085 -1.49916 -0.679783)
(0.409589 -2.37522 0.0326261)
(0.0305858 -2.63195 -0.0319749)
(-0.31095 -2.9093 -0.278685)
(-0.779878 -2.90884 -0.0851624)
(-1.16028 -2.82698 -0.155272)
(0.166279 2.79561 1.2209)
(-0.0026635 2.88935 0.894853)
(0.754612 2.77776 -0.0221207)
(0.55037 3.36859 0.354112)
(0.227247 1.72291 0.416464)
(1.4191 2.28337 -0.36627)
(0.762962 1.89824 -0.224696)
(0.704412 1.29488 0.812488)
(0.00388536 0.952794 0.0403024)
(0.985447 0.911864 -0.112129)
(0.729674 0.676701 0.184211)
(0.28816 0.971962 -0.459706)
(-0.238648 1.00922 -0.578919)
(0.171456 0.292734 -1.20424)
(1.34855 0.280782 0.282156)
(1.35025 0.0619469 -0.233578)
(0.460438 0.296442 -0.702319)
(0.370645 0.302047 -1.0019)
(-0.577831 -0.110043 -0.918174)
(-1.14582 -1.90379 -0.764428)
(1.37462 -0.300412 -0.835713)
(0.293107 -0.16292 -2.14409)
(0.53823 -0.498643 -1.84337)
(-0.0428649 -0.988985 -1.52014)
(-1.00759 -1.89793 -0.812694)
(-1.1739 -1.96951 -0.888519)
(-1.03139 -2.46298 -0.384825)
(0.562752 -0.569366 -1.49499)
(0.900462 -0.921289 -1.48605)
(0.545561 -1.71887 -0.829206)
(0.319717 -2.20514 -0.427264)
(-0.543824 -2.47302 -0.445281)
(-0.978365 -2.49496 -0.392956)
(-1.16999 -2.23042 -0.484184)
(-1.15476 -2.81293 -0.14029)
(0.815157 -0.675087 -0.942794)
(0.841318 -1.49575 -0.663958)
(0.444755 -2.37105 0.00564553)
(0.0521126 -2.62731 -0.0344215)
(-0.25396 -2.91881 -0.239643)
(-0.766466 -2.88792 -0.103322)
(-1.15799 -2.8035 -0.172303)
(-1.24165 -2.29006 -0.196486)
(0.19648 3.24819 2.00316)
(-0.254685 2.89344 1.50561)
(0.51116 2.57899 0.942727)
(0.356154 3.09517 1.15586)
(0.397251 3.34891 0.542829)
(0.932269 2.73281 0.0339546)
(0.772399 3.31899 0.395648)
(0.114218 2.82245 0.236645)
(0.255927 1.27632 0.267652)
(1.8297 2.26541 0.12903)
(1.09166 1.92069 -0.28118)
(0.614248 1.33066 0.60435)
(0.132148 1.4436 0.0933475)
(-0.124414 1.05193 -0.733999)
(1.36085 0.988043 0.118606)
(0.867374 0.689157 -0.17788)
(0.341966 0.891482 -0.600273)
(-0.0648683 0.977599 -0.638493)
(-0.707531 0.739197 -0.543158)
(-1.25138 -0.224416 -0.898782)
(1.49361 0.234687 0.00295317)
(1.6099 -0.0498809 -0.181437)
(0.64704 0.20414 -0.604758)
(0.611262 0.300843 -0.912787)
(-0.218866 -0.0929646 -0.957515)
(-1.5158 -1.09515 -0.676413)
(-1.27943 -1.95248 -0.844943)
(1.68234 -0.473967 -0.495774)
(0.472655 -0.193995 -2.02532)
(0.716083 -0.564827 -1.85689)
(0.284754 -0.889051 -1.7365)
(-0.782413 -1.84778 -0.935419)
(-1.0119 -2.04122 -0.913975)
(-1.27797 -1.54513 -0.80222)
(-1.17711 -2.23734 -0.517059)
(0.586737 -0.525845 -1.57858)
(0.902359 -0.924758 -1.50783)
(0.570988 -1.6513 -0.907695)
(0.317698 -2.20399 -0.438012)
(-0.391626 -2.53268 -0.492237)
(-0.851496 -2.51753 -0.408778)
(-1.12653 -2.23709 -0.489718)
(-0.986427 -1.93869 -0.830745)
(-1.24153 -2.27737 -0.199269)
(0.883609 -0.714501 -0.912688)
(0.880511 -1.49954 -0.647092)
(0.479367 -2.37096 -0.0139321)
(0.120509 -2.63697 -0.0291851)
(-0.272401 -2.9277 -0.271684)
(-0.746459 -2.88671 -0.114392)
(-1.18185 -2.8018 -0.139282)
(-1.2735 -2.24308 -0.201195)
(-1.25745 -1.95522 -0.21165)
(0.767302 3.3854 2.80573)
(-0.238921 3.02967 2.0294)
(0.410082 3.30943 1.94744)
(-0.0403015 2.92577 1.85853)
(-0.0896252 3.18583 1.63034)
(0.712222 2.52267 0.879304)
(0.84285 3.07298 0.616554)
(0.354042 3.47473 1.38487)
(-0.118396 2.9574 0.358892)
(1.84214 2.57846 -0.20117)
(1.03624 3.17001 0.366838)
(0.165965 2.89845 -0.36264)
(-0.377323 1.9706 0.34355)
(-0.0241266 1.46842 -0.0581631)
(2.29097 2.15655 -0.303948)
(1.10393 2.13763 -0.524787)
(0.512154 1.33268 0.490479)
(0.614672 1.40957 0.113518)
(-0.204612 1.16057 0.498113)
(-0.946086 0.564032 -0.272889)
(1.76222 0.845009 -0.396075)
(1.12347 0.480188 0.014087)
(0.516248 0.81909 -0.629818)
(0.449826 0.930196 -0.71288)
(-0.43861 0.767943 -0.729069)
(-1.22075 0.521847 -0.464709)
(-1.55491 -1.24251 -0.973491)
(1.67676 0.214061 0.0695132)
(1.64077 0.03139 -0.273569)
(0.98608 0.0406165 -0.555195)
(0.722994 0.289749 -0.840317)
(0.00796828 0.00170272 -0.927542)
(-1.13727 -1.26708 -0.666949)
(-1.64495 -0.811007 -0.885152)
(-1.25833 -1.51846 -0.982785)
(1.76055 -0.564461 -0.324857)
(0.712934 -0.313758 -1.79911)
(0.807151 -0.520277 -1.91695)
(0.544694 -0.884341 -1.79474)
(-0.929389 -1.72433 -0.837347)
(-1.01973 -1.99642 -0.909017)
(-1.10704 -1.61616 -0.881943)
(-1.35436 -1.3717 -0.848711)
(-1.15949 -1.91262 -0.684368)
(0.67528 -0.557479 -1.60729)
(0.923153 -0.961693 -1.49912)
(0.59738 -1.6308 -0.955975)
(0.31505 -2.18757 -0.421365)
(-0.310945 -2.57242 -0.57383)
(-0.773435 -2.54006 -0.401952)
(-1.00436 -2.27123 -0.528279)
(-1.3382 -1.8682 -0.580714)
(-1.38516 -1.65561 -0.452031)
(-1.26958 -1.93734 -0.205259)
(0.946403 -0.757131 -0.864768)
(0.926714 -1.51208 -0.630588)
(0.530588 -2.37971 -0.0846808)
(0.10722 -2.64933 -0.0660485)
(-0.260232 -2.92239 -0.277461)
(-0.734617 -2.8969 -0.137597)
(-1.16711 -2.82802 -0.223458)
(-1.21698 -2.28261 -0.260332)
(-1.2672 -1.94258 -0.205357)
(-1.83622 -1.31209 -0.33066)
(0.874223 3.48192 2.99773)
(0.0488736 3.24742 2.84043)
(0.948491 3.52614 2.98228)
(0.29654 2.94274 2.19101)
(-0.0735614 3.00251 1.94052)
(0.726407 3.26383 1.91176)
(0.407145 3.0226 1.36061)
(0.110169 3.45584 1.54888)
(0.123132 3.52806 1.43527)
(1.35247 2.7485 0.605502)
(0.73339 2.92323 0.938833)
(1.30792 3.62808 0.941242)
(0.218664 3.59532 1.24646)
(-0.615334 1.99159 0.448352)
(2.29426 2.50916 -0.218943)
(1.46548 3.11949 0.0655208)
(0.782504 3.01738 -0.687327)
(-0.224306 1.98207 0.479246)
(0.23598 1.80844 -0.149562)
(-0.593377 1.02782 0.0209176)
(2.53582 2.28255 -0.16854)
(2.2577 1.56187 0.141984)
(0.732258 1.50939 -0.244099)
(0.695642 1.33925 -0.0169687)
(0.0288781 1.33792 0.744466)
(-0.636219 1.29469 0.0118161)
(-1.36413 0.333076 -0.281417)
(1.96481 0.950768 -0.71085)
(1.28955 0.496468 -0.0805538)
(0.941327 0.675127 -0.440581)
(0.646779 0.901895 -0.601463)
(0.0196286 0.856308 -0.560899)
(-0.889996 0.556869 -0.604177)
(-2.05147 0.00361352 -0.530714)
(-1.73197 -0.712318 -0.921928)
(1.82657 0.174101 0.128902)
(1.73926 -0.15535 -0.317196)
(1.27516 -0.0864236 -0.61909)
(0.97691 0.204782 -0.805181)
(0.357695 0.102268 -0.965382)
(-1.19155 -1.00445 0.0613882)
(-1.53967 -0.86658 -0.954181)
(-2.24729 -0.746847 -0.719235)
(-1.4693 -1.34104 -0.78806)
(1.86722 -0.587158 -0.0229557)
(1.06606 -0.467913 -1.3416)
(0.826754 -0.506107 -1.98423)
(0.611747 -0.868749 -1.79689)
(-0.917022 -1.71117 -0.805025)
(-0.733305 -2.13988 -0.795368)
(-0.777815 -1.67876 -1.02339)
(-1.24684 -1.43758 -0.916476)
(-1.96612 -1.33334 -0.507333)
(-1.45559 -1.63592 -0.397829)
(0.776443 -0.597559 -1.58391)
(0.946663 -0.956446 -1.50634)
(0.609245 -1.65985 -0.97174)
(0.296988 -2.18632 -0.356582)
(-0.413221 -2.63151 -0.574277)
(-0.750248 -2.5443 -0.428244)
(-1.08522 -2.20944 -0.579178)
(-0.960121 -1.99862 -0.886541)
(-1.34312 -1.67916 -0.480404)
(-2.08314 -1.48447 -0.458592)
(-1.85458 -1.30541 -0.313225)
(1.00034 -0.795716 -0.819712)
(0.9671 -1.53021 -0.626031)
(0.586879 -2.39636 -0.0606544)
(0.162897 -2.64651 -0.0628359)
(-0.238344 -2.9301 -0.264135)
(-0.728529 -2.89707 -0.148532)
(-1.15707 -2.81435 -0.206101)
(-1.238 -2.26814 -0.223226)
(-1.26496 -1.92437 -0.22256)
(-1.83213 -1.30916 -0.326658)
(-1.97296 -1.01355 -0.480262)
(1.21911 3.35034 3.10262)
(0.357287 3.56996 2.98078)
(1.82015 3.38499 3.00171)
(0.380253 3.31918 2.41818)
(-0.0631321 2.9354 2.36935)
(0.920536 3.71696 3.0651)
(1.29507 3.01431 1.9317)
(0.0937798 2.99923 2.17155)
(-0.0529637 3.41327 1.66587)
(2.02566 3.39337 1.54725)
(0.414639 2.85086 1.5043)
(0.647876 3.36689 1.23045)
(0.175599 3.85268 1.98997)
(0.025108 3.5325 1.45557)
(2.2203 2.89041 0.0587414)
(1.16959 2.88413 0.827331)
(1.12491 3.70933 1.16905)
(0.719918 3.86017 0.685872)
(-0.581463 2.5732 1.58619)
(0.21231 1.78702 0.25742)
(2.54562 2.56317 -0.327551)
(2.17385 2.8177 -0.238273)
(1.62992 3.04915 -0.251762)
(0.231948 2.02228 0.809232)
(0.30892 1.72602 -0.0773928)
(-1.2572 0.789067 0.857523)
(-0.216775 1.25324 -0.144677)
(2.76433 2.32448 -0.594572)
(2.37547 1.63165 0.532537)
(1.25188 1.52934 -0.790725)
(0.618311 1.37226 -0.0512584)
(0.0370644 1.32561 0.568093)
(-0.723176 1.05529 -0.18882)
(-2.07653 0.278497 0.144371)
(-2.1289 0.0661313 -0.52872)
(2.26831 0.921768 -0.979635)
(1.59096 0.62613 -0.360492)
(1.27577 0.506617 -0.435912)
(1.05039 0.746862 -0.624516)
(0.160207 0.737834 -0.415431)
(-0.763743 0.558494 -0.777959)
(-1.921 -0.100679 -0.75223)
(-2.29974 -0.643847 -0.322715)
(-2.34771 -0.697983 -0.679979)
(2.08256 0.00799891 -0.142107)
(1.72131 -0.0914858 -0.57148)
(1.54611 -0.204076 -0.688392)
(1.23119 0.15213 -0.879016)
(0.641054 0.0997574 -1.19993)
(-0.717764 -1.35051 -0.269135)
(-1.26716 -1.0164 -1.10242)
(-1.96346 -0.872644 -1.00147)
(-2.03376 -1.09721 -0.641078)
(-2.03438 -1.29219 -0.47253)
(1.94388 -0.64932 0.174589)
(1.19193 -0.61648 -1.22634)
(0.766731 -0.433289 -2.05532)
(0.761304 -0.816108 -1.84874)
(-0.316117 -1.6479 -1.09886)
(-0.874635 -2.05415 -0.804563)
(-0.706596 -1.6959 -1.06013)
(-1.33524 -1.42574 -0.830643)
(-1.89663 -1.3599 -0.530258)
(-2.08258 -1.42546 -0.564728)
(-2.10827 -1.45583 -0.397077)
(0.870222 -0.663983 -1.46368)
(0.98634 -0.983747 -1.48683)
(0.663225 -1.59327 -1.11904)
(0.251769 -2.11937 -0.52977)
(-0.229279 -2.70505 -0.568005)
(-0.702076 -2.57267 -0.430993)
(-0.706589 -2.33126 -0.589696)
(-0.900646 -1.99594 -0.910524)
(-1.36474 -1.68988 -0.492267)
(-2.08082 -1.48539 -0.44126)
(-2.24173 -1.08888 -0.626091)
(-1.99198 -1.01262 -0.429739)
(1.04146 -0.837429 -0.813771)
(1.00812 -1.55312 -0.612741)
(0.628609 -2.41568 -0.0883088)
(0.162239 -2.66617 -0.0458538)
(-0.20434 -2.94984 -0.255399)
(-0.719057 -2.89078 -0.16157)
(-1.13802 -2.80136 -0.219848)
(-1.14781 -2.26685 -0.386078)
(-1.26096 -1.92763 -0.232035)
(-1.80901 -1.31583 -0.346724)
(-1.96178 -1.01311 -0.497384)
(-1.89224 -1.02226 -0.184172)
(1.2265 2.88975 3.57298)
(0.828197 3.26888 3.32043)
(1.53377 3.27923 3.06592)
(0.73313 3.16548 3.18566)
(-0.039536 3.13799 2.52823)
(1.56926 3.63154 3.30205)
(1.42774 3.16371 2.51732)
(-0.038236 2.83157 2.60489)
(0.184451 3.12431 2.19779)
(2.31616 3.81012 2.19684)
(0.390028 3.08452 2.62017)
(0.555037 2.92368 2.01787)
(0.528917 3.64031 1.82462)
(-0.189047 3.68094 2.02316)
(2.40528 3.5051 1.52923)
(0.817338 2.74812 1.90244)
(0.673509 3.25799 1.40867)
(0.352809 3.76765 2.15148)
(0.88826 4.38694 0.921294)
(-1.09265 2.31292 1.69071)
(2.92288 2.78421 -0.839748)
(1.62746 2.73144 0.810451)
(1.1441 3.48382 1.23127)
(0.75417 3.73821 0.854167)
(-0.204489 2.95015 0.974563)
(-1.03933 1.65692 1.95224)
(-1.78897 0.455192 1.11109)
(2.71329 2.60871 -0.562589)
(2.69769 2.58994 -0.741567)
(1.66253 3.19257 -0.198045)
(0.383443 2.09744 0.605979)
(0.342894 1.56395 0.00642936)
(-0.642062 0.921645 0.0680886)
(-2.64206 0.283214 1.25552)
(-2.13674 0.2248 0.260037)
(3.18891 2.09032 -0.948254)
(2.62356 1.61871 -0.706696)
(2.03318 1.16455 -0.31341)
(0.756674 1.34648 -0.0940194)
(0.119798 1.3776 0.448749)
(-0.405349 1.10861 -0.235822)
(-1.86776 0.216416 -0.153427)
(-2.17026 -0.465469 0.195071)
(-2.42582 -0.549108 -0.345461)
(2.71641 0.960057 -0.903363)
(2.25917 0.302069 0.021933)
(1.46299 0.480687 -0.49042)
(1.17349 0.671189 -0.599298)
(0.301852 0.700618 -0.377301)
(-0.167447 0.465352 -0.617287)
(-1.61329 -0.191275 -1.07681)
(-2.15072 -0.589021 -0.232273)
(-1.93942 -0.382244 -0.900998)
(-2.11639 -1.08054 -0.612542)
(2.48495 -0.0447672 -0.166476)
(1.91271 -0.1981 -0.376382)
(1.7209 -0.443356 -0.691504)
(1.64652 -0.128995 -0.937102)
(0.763892 0.139744 -1.41977)
(-0.710797 -1.28919 -0.464932)
(-0.96461 -1.25012 -1.25532)
(-2.02266 -0.850679 -0.617475)
(-1.92931 -1.15442 -0.733039)
(-2.27516 -0.665654 -0.568075)
(-2.11456 -1.39494 -0.503734)
(1.93321 -0.491945 -0.0285173)
(1.34111 -0.788812 -1.13543)
(0.76754 -0.44525 -2.04549)
(0.835898 -0.725979 -1.9047)
(-0.0327198 -1.72665 -1.20203)
(-0.546149 -2.18925 -0.684138)
(-0.675869 -1.797 -1.02287)
(-1.0341 -1.57273 -1.11097)
(-1.81079 -1.34705 -0.715894)
(-2.08822 -1.43861 -0.471315)
(-2.07845 -1.00378 -0.559179)
(-2.2446 -1.09581 -0.586787)
(0.994581 -0.770919 -1.1802)
(1.04157 -0.983566 -1.52549)
(0.688369 -1.74641 -1.01519)
(0.192756 -2.13042 -0.6124)
(-0.221576 -2.71439 -0.578219)
(-0.623839 -2.60176 -0.420883)
(-0.990624 -2.22343 -0.601963)
(-0.807573 -1.98169 -0.946794)
(-1.18906 -1.76845 -0.689441)
(-2.03607 -1.52264 -0.485464)
(-2.21936 -1.11414 -0.630304)
(-2.27597 -0.804679 -0.265582)
(-1.91638 -0.982274 -0.18792)
(1.07869 -0.863006 -0.871706)
(1.04378 -1.58079 -0.584956)
(0.631249 -2.42194 -0.0833543)
(0.174577 -2.66532 -0.0513472)
(-0.217741 -2.94307 -0.242108)
(-0.695745 -2.90306 -0.18887)
(-1.13634 -2.79106 -0.178496)
(-1.2058 -2.23746 -0.307669)
(-1.26026 -1.94516 -0.260899)
(-1.80512 -1.31937 -0.349741)
(-1.9486 -1.01929 -0.504622)
(-1.91523 -0.958985 -0.162949)
(-1.55581 -1.15833 -0.215962)
(0.558582 2.71139 3.89076)
(0.643351 2.95071 3.77667)
(1.35911 2.7638 3.51298)
(0.496069 2.92956 3.92222)
(0.58856 3.05445 3.29307)
(1.66733 3.25888 3.3213)
(1.1293 3.2318 3.12003)
(0.0776288 2.81738 3.35987)
(-0.0962803 2.98383 2.56317)
(2.0168 3.44263 3.37763)
(1.24376 3.19012 3.03856)
(0.209494 2.87767 2.54544)
(0.773769 3.33637 2.21055)
(0.202479 3.41458 2.13363)
(2.34247 3.49405 2.74092)
(1.39193 3.15109 2.33966)
(0.0084801 2.64693 2.35482)
(0.578809 3.45177 1.77093)
(0.590856 3.67468 2.29238)
(-0.119735 3.97071 1.7317)
(2.89299 3.37904 0.965846)
(1.33829 2.82235 2.01578)
(0.648315 3.26386 1.7454)
(0.655621 3.67518 2.23253)
(0.946955 4.41583 0.985458)
(-0.649711 3.17594 1.72892)
(-1.32979 1.90327 2.00946)
(2.9764 2.85535 -1.15699)
(2.34794 2.50949 0.275249)
(1.68533 3.10718 0.602529)
(0.751634 3.62535 0.866786)
(0.185643 3.15344 0.623584)
(-0.223395 2.08308 1.48797)
(-0.28949 2.28792 1.91648)
(-2.62943 0.0354635 1.6133)
(3.02559 2.47721 -0.489397)
(3.0343 2.58631 -0.827362)
(1.9338 2.84494 -0.112509)
(0.469921 2.10584 0.18063)
(0.465913 1.45215 0.223833)
(0.396869 1.25166 -0.138084)
(-2.19593 0.715051 1.01422)
(-2.38877 0.66232 1.09943)
(-2.33353 -0.384189 0.110942)
(3.44458 2.07002 -0.778021)
(2.82654 1.82087 -0.644739)
(2.4569 0.906778 0.103667)
(1.21658 1.19924 -0.123321)
(0.440524 1.31807 0.13518)
(0.0103115 1.1655 0.0314729)
(-1.16544 0.354855 -0.402)
(-2.00983 -0.475171 0.216314)
(-2.06953 0.65166 -0.942297)
(-2.10792 -0.33644 -0.81953)
(3.26506 0.585147 -0.688829)
(2.49111 0.443507 -0.421538)
(1.69892 0.525331 -0.358165)
(1.25458 0.582836 -0.886451)
(0.743039 0.530692 -0.331531)
(0.0180532 0.385542 -0.648256)
(-1.24813 -0.129022 -1.11543)
(-1.95858 -0.737893 -0.374768)
(-1.82926 -0.255783 -1.01146)
(-2.48026 0.0941807 -0.843095)
(-2.35418 -0.862606 -0.361993)
(2.88928 -0.387093 -0.024658)
(2.06834 -0.162076 -0.344739)
(1.80818 -0.253525 -0.58323)
(1.82976 -0.226422 -1.00231)
(0.881325 0.0145424 -1.58459)
(-0.65206 -1.29175 -0.666536)
(-0.979925 -1.36374 -1.22364)
(-1.60401 -1.10663 -0.998156)
(-1.93944 -1.07232 -0.705828)
(-2.14885 -0.642561 -0.557266)
(-2.46137 -0.132946 0.300414)
(-2.13604 -0.99351 -0.549298)
(1.97121 -0.372948 -0.49382)
(1.45235 -0.92357 -0.955923)
(0.939072 -0.507627 -1.8657)
(0.845518 -0.632322 -1.95137)
(0.303956 -1.72161 -1.43001)
(-0.3293 -2.25554 -0.67555)
(-0.605283 -1.86884 -0.952181)
(-0.933863 -1.65835 -1.13049)
(-1.7839 -1.42024 -0.612014)
(-1.91334 -1.54497 -0.682176)
(-1.98133 -0.982868 -0.548596)
(-2.41825 -0.512223 -0.734408)
(-2.31393 -0.778425 -0.168734)
(1.11041 -0.892619 -0.843137)
(1.1208 -1.01971 -1.53345)
(0.802392 -1.78639 -0.954864)
(0.174671 -2.07221 -0.725941)
(-0.289129 -2.67971 -0.555681)
(-0.525639 -2.59885 -0.46939)
(-0.997933 -2.27941 -0.605203)
(-0.758935 -1.9985 -0.97577)
(-1.40827 -1.70628 -0.370873)
(-2.009 -1.52553 -0.511148)
(-2.19528 -1.10326 -0.675223)
(-2.24299 -0.78131 -0.401265)
(-1.98803 -0.4634 -0.480936)
(-1.55967 -1.15591 -0.209317)
(1.10425 -0.870149 -0.939599)
(1.07836 -1.61301 -0.537997)
(0.650833 -2.41026 -0.120045)
(0.182012 -2.65441 -0.0618297)
(-0.155629 -2.93955 -0.265182)
(-0.686236 -2.90394 -0.198445)
(-1.1129 -2.80658 -0.246883)
(-1.26861 -2.21072 -0.209475)
(-1.25259 -1.93361 -0.273947)
(-1.79472 -1.3353 -0.372827)
(-1.93994 -1.01705 -0.539412)
(-1.83318 -1.05938 -0.261984)
(-1.55414 -1.15798 -0.241792)
(-1.5025 -0.706949 0.118766)
(0.299742 2.65912 3.73235)
(0.0705353 2.77508 3.95776)
(1.1153 2.55046 3.76271)
(0.296388 2.80674 4.09645)
(0.203137 2.96927 4.07069)
(1.46829 2.7324 3.48291)
(1.15103 2.85858 3.70137)
(-0.0625767 2.84641 4.07492)
(-0.0123273 2.80063 3.39406)
(1.72916 3.17882 3.56718)
(1.40299 3.12477 3.28223)
(0.500752 3.04226 3.33147)
(-0.245767 2.79286 3.3274)
(0.0431488 3.24173 2.44021)
(2.23495 3.31657 3.41722)
(1.39327 3.22807 3.18624)
(0.69977 2.93806 2.44944)
(-0.665767 2.7124 2.95195)
(0.0231021 3.47364 2.64418)
(0.194327 3.52419 2.44525)
(2.92908 3.6081 2.10907)
(1.71705 3.00538 2.81249)
(0.802716 2.81339 2.0375)
(0.556813 3.20669 2.00532)
(0.533978 3.45947 2.14701)
(-0.623333 3.6268 2.604)
(-1.10109 3.08662 2.14988)
(3.36543 3.2396 0.277555)
(1.89726 2.74066 1.67554)
(0.870274 3.03485 1.94892)
(0.941581 3.61875 2.22587)
(0.833217 4.36135 1.1354)
(0.107151 3.47186 1.1537)
(-1.95068 2.33495 2.07218)
(-0.98347 2.09088 2.27576)
(3.064 2.8593 -0.724946)
(2.7208 2.44083 -0.0401879)
(1.80546 2.94863 0.322402)
(1.04233 3.64695 0.545501)
(0.318635 3.16111 0.46534)
(-0.219044 1.90683 1.25784)
(-0.444759 2.44848 1.1809)
(-1.69432 2.27256 1.49757)
(-2.49374 0.568159 1.38927)
(3.3797 2.28034 -0.416966)
(3.29037 2.55581 -0.601018)
(2.27439 2.46947 -0.216887)
(1.13681 2.00218 -1.18797)
(0.424169 1.39412 0.369852)
(0.708193 1.17544 0.244774)
(-1.43125 1.12417 0.698217)
(-2.23242 0.57759 1.08343)
(-2.00195 1.53479 1.0108)
(-2.34275 0.374551 -0.840104)
(3.65706 1.75714 -1.04492)
(3.28601 1.38034 -0.841253)
(2.54157 0.967966 -0.0634037)
(1.58278 1.02177 -0.357255)
(0.626652 1.22991 -0.0501437)
(0.0712825 1.08795 -0.0363143)
(-0.545541 0.308994 -0.627291)
(-1.80494 -0.563776 0.260585)
(-1.86713 0.135866 -0.754429)
(-2.44885 0.702673 0.674051)
(-2.6433 0.0795762 -0.876262)
(3.50366 0.537492 -0.822668)
(2.82602 0.350936 -0.617822)
(2.07019 0.113504 -0.23431)
(1.78091 0.334403 -0.757532)
(1.03693 0.394659 -0.462483)
(0.444208 0.263426 -0.957217)
(-0.912243 -0.191152 -1.19871)
(-1.84327 -0.560608 0.0457793)
(-1.65031 -0.429644 -0.969088)
(-2.14818 0.334165 -1.23701)
(-2.75618 0.453855 0.0461869)
(-2.54276 -0.135797 0.620291)
(3.06548 -0.289321 -0.514444)
(2.2531 -0.36362 -0.649154)
(1.83378 -0.412124 -0.579847)
(1.79576 -0.242009 -1.10599)
(0.971422 -0.0423657 -1.815)
(-0.50231 -1.25036 -1.00779)
(-0.866311 -1.4774 -1.29201)
(-1.7532 -0.822994 -0.901679)
(-1.74834 -1.22766 -0.911577)
(-1.8227 -0.748863 -0.952584)
(-2.32801 -0.113068 -0.305236)
(-2.40102 -0.422604 0.885547)
(-2.46844 -0.523005 -0.569836)
(2.01236 -0.294844 -0.729333)
(1.55454 -1.02597 -0.804528)
(1.27989 -0.76275 -1.33517)
(0.939829 -0.630679 -1.94222)
(0.485909 -1.7475 -1.58298)
(-0.22837 -2.34592 -0.564315)
(-0.456216 -1.88835 -1.0214)
(-1.00562 -1.64864 -1.03095)
(-1.71863 -1.41949 -0.610688)
(-2.00861 -1.3704 -0.572547)
(-1.94489 -1.04185 -0.582237)
(-2.35084 -0.534006 -0.898474)
(-2.31592 0.0962899 -0.508114)
(-2.01893 -0.446728 -0.415822)
(1.21063 -1.02739 -0.506158)
(1.10285 -1.01978 -1.65303)
(0.823943 -1.75273 -1.06224)
(0.160085 -2.05686 -0.789702)
(-0.278066 -2.67393 -0.395071)
(-0.628989 -2.55701 -0.309229)
(-0.519641 -2.42339 -0.665864)
(-0.735478 -2.03314 -0.982475)
(-1.36463 -1.76135 -0.517345)
(-1.95946 -1.53292 -0.585615)
(-2.17242 -1.13247 -0.592592)
(-2.178 -0.857241 -0.424809)
(-1.97819 -0.4884 -0.435602)
(-1.75327 -0.271289 0.221243)
(-1.50449 -0.696316 0.137194)
(1.09708 -0.841488 -0.970193)
(1.10917 -1.64677 -0.488753)
(0.677029 -2.42824 -0.0875539)
(0.193598 -2.66866 -0.0983638)
(-0.17403 -2.96696 -0.264533)
(-0.666127 -2.89885 -0.203405)
(-1.11189 -2.78175 -0.236286)
(-1.2386 -2.20644 -0.251439)
(-1.22104 -1.94752 -0.276976)
(-1.79142 -1.33836 -0.385925)
(-1.92014 -1.02906 -0.572584)
(-1.8856 -0.972662 -0.188029)
(-1.5447 -1.17768 -0.232758)
(-1.49948 -0.689527 0.0786631)
(-1.4829 -0.316267 -0.378766)
(0.0450241 2.57531 3.19303)
(0.133949 2.81875 3.54181)
(0.683809 2.56875 3.78318)
(0.34625 2.77925 3.72288)
(0.0902993 2.81875 4.0659)
(1.50767 2.40183 3.69374)
(0.540011 2.73063 3.98702)
(0.0193306 2.86732 3.99895)
(-0.149359 2.86886 4.07892)
(1.66803 2.74122 3.53055)
(1.30889 2.74854 3.6012)
(0.280982 2.79563 4.0815)
(-0.229766 2.91312 3.97916)
(0.00890947 3.18981 3.27155)
(2.2913 3.07921 3.37836)
(1.83328 3.01199 3.4409)
(0.694343 2.99042 3.2928)
(-0.123115 2.82218 3.47277)
(-0.37542 3.12393 3.39853)
(-0.25529 3.3843 2.81995)
(2.4643 3.18081 3.38938)
(1.95678 3.18715 3.13629)
(1.09422 2.86922 2.40503)
(0.338452 2.97926 2.43126)
(-0.0461641 3.19355 2.83934)
(-0.442307 3.22903 3.24903)
(-1.07803 3.26183 2.7842)
(3.19999 3.21812 2.04071)
(2.44228 3.15898 2.5471)
(0.582333 2.72131 2.64604)
(0.807889 3.07222 2.19048)
(0.737771 3.43483 2.14074)
(-0.413014 3.68218 2.52456)
(-1.4611 2.98353 2.94784)
(-2.16002 2.40853 2.20737)
(3.59123 2.85681 0.377139)
(2.27997 2.66799 1.14252)
(1.0054 2.86545 2.037)
(1.61573 3.29681 2.28871)
(0.7923 4.29651 1.29957)
(0.819 3.50517 0.774915)
(-1.79471 2.2936 2.05565)
(-2.44723 2.12208 2.63552)
(-2.05829 2.02021 1.95486)
(3.24822 2.67335 -0.53174)
(2.91126 2.51213 -0.335699)
(2.14073 2.97153 -0.0108809)
(1.68716 3.52524 0.408281)
(0.462896 3.22487 0.642521)
(0.396279 2.00886 1.17048)
(-0.705421 2.14069 0.870879)
(-1.59404 2.27898 1.23392)
(-2.56313 1.44338 2.19225)
(-2.31057 1.53292 0.931225)
(3.59503 2.04461 -0.546106)
(3.64175 2.15847 -0.601491)
(2.90339 2.07691 -0.474107)
(1.69078 1.88306 -0.998729)
(0.76294 1.36376 0.958417)
(0.717491 1.3108 0.295838)
(-1.00873 1.14333 0.244543)
(-1.79068 0.451962 1.11845)
(-1.49359 1.67061 0.616029)
(-2.34512 1.20874 1.45827)
(-2.59313 0.76231 0.776799)
(3.82395 1.48116 -1.16199)
(3.24658 1.71148 -1.36767)
(2.68774 0.865839 -0.483268)
(1.99827 0.699729 -0.605872)
(1.1787 0.96935 -0.702494)
(0.56542 0.881853 -0.264179)
(-0.0190061 0.288684 -0.700012)
(-1.30453 -0.509448 0.185752)
(-1.574 0.687236 -0.47416)
(-2.31064 0.969077 0.0853311)
(-2.7021 0.407881 0.0509256)
(-2.82991 0.505846 -0.4661)
(3.57704 0.604248 -1.2505)
(3.03421 0.310652 -0.623206)
(2.37706 0.16395 -0.0334024)
(2.09133 0.114962 -0.72227)
(1.32157 0.274018 -0.613445)
(0.561368 0.0709489 -1.19289)
(-0.961238 -0.0104387 -1.31795)
(-1.58089 -0.700973 -0.401678)
(-1.6364 -0.461835 -0.982848)
(-1.95551 0.0497948 -0.864774)
(-2.65362 0.586696 -0.340918)
(-2.76998 0.711464 -0.573344)
(-2.45215 -0.40887 0.788734)
(3.1219 -0.134546 -0.833893)
(2.67514 -0.496906 -0.172825)
(1.85266 -0.386632 -0.677828)
(1.83285 -0.245878 -1.10811)
(1.19097 -0.242354 -1.9209)
(-0.323356 -1.29296 -1.28509)
(-0.540055 -1.70408 -1.39249)
(-1.48027 -1.16741 -0.999423)
(-1.68898 -1.25612 -0.76179)
(-1.95433 -0.421255 -0.568286)
(-2.29309 -0.0937319 -0.521771)
(-2.35026 -0.469023 0.97623)
(-2.43823 -0.0396235 -0.281201)
(-2.35135 0.094887 -0.479889)
(2.10557 -0.287769 -0.738165)
(1.6582 -1.02261 -0.611103)
(1.44667 -0.954329 -1.08243)
(1.09372 -0.709889 -1.88252)
(0.589796 -1.6647 -1.75772)
(-0.016769 -2.42122 -0.539896)
(-0.401881 -2.001 -1.07275)
(-0.988476 -1.72671 -1.02179)
(-1.5219 -1.4376 -0.721481)
(-1.76786 -1.55336 -0.739858)
(-1.95715 -0.970137 -0.64289)
(-2.31109 -0.556463 -0.672595)
(-2.33499 0.0697262 -0.267881)
(-2.04697 0.748439 -0.464028)
(-1.75804 -0.258699 0.247734)
(1.2831 -1.14888 -0.2406)
(1.12907 -1.02979 -1.63536)
(0.825553 -1.77333 -1.12831)
(0.118511 -2.04635 -0.87599)
(-0.249605 -2.67808 -0.357366)
(-0.472777 -2.55909 -0.419058)
(-0.511744 -2.45499 -0.657314)
(-0.748854 -2.02008 -1.00899)
(-1.21834 -1.80354 -0.746915)
(-1.91988 -1.54924 -0.588101)
(-2.15095 -1.1257 -0.577937)
(-2.15185 -0.810132 -0.474476)
(-1.95285 -0.501343 -0.443617)
(-1.74341 -0.294233 0.182899)
(-1.48722 -0.106033 -0.331678)
(-1.4794 -0.307391 -0.34991)
(1.06556 -0.783369 -0.870623)
(1.14397 -1.68635 -0.435)
(0.709625 -2.44728 -0.151897)
(0.188282 -2.67927 -0.118668)
(-0.138137 -2.96634 -0.259786)
(-0.639234 -2.91117 -0.217985)
(-1.0833 -2.76726 -0.247228)
(-1.18533 -2.21064 -0.300768)
(-1.26258 -1.94408 -0.294561)
(-1.78201 -1.35173 -0.4024)
(-1.92139 -1.05669 -0.520349)
(-1.83126 -1.03776 -0.264913)
(-1.52195 -1.16894 -0.250607)
(-1.51263 -0.727695 0.10418)
(-1.48781 -0.330375 -0.39851)
(-1.17186 0.44027 -0.541952)
(-0.0723557 2.52147 3.0528)
(-0.241843 2.61008 3.12117)
(0.499861 2.58932 3.19201)
(0.267263 2.69772 3.32234)
(-0.177221 2.78364 3.61039)
(1.08548 2.38417 3.8286)
(0.618856 2.76008 3.80162)
(0.214041 2.86067 3.6541)
(-0.123338 2.81191 4.02944)
(1.70518 2.49381 3.45948)
(0.935247 2.65696 3.84138)
(0.286525 3.0322 3.95478)
(-0.110169 2.88721 3.95316)
(-0.428339 2.94208 4.04829)
(1.84466 2.72647 3.53644)
(1.64292 2.71392 3.46571)
(0.96771 2.71813 3.93749)
(-0.0548603 3.0356 3.94667)
(-0.34128 3.00783 4.06791)
(-0.556612 3.25028 3.60396)
(2.1946 2.87929 3.67216)
(2.35431 3.00162 3.30533)
(1.20313 2.87928 3.20639)
(0.44289 2.93706 3.15906)
(-0.0361384 3.25541 3.16162)
(-0.794204 3.17987 3.83063)
(-0.909365 3.13576 3.44042)
(2.53375 3.00306 3.3925)
(2.56751 3.01558 3.22144)
(1.01607 2.74493 2.92476)
(0.363262 2.78203 2.4258)
(0.467518 3.05947 2.73703)
(0.166461 3.4608 2.90986)
(-1.32795 2.86158 3.59076)
(-1.65926 2.60797 3.27857)
(3.2193 2.71316 2.23765)
(2.81977 3.37814 2.18954)
(1.1965 2.78356 2.62677)
(0.835433 2.91542 2.33128)
(1.30115 3.73031 2.29319)
(0.292355 3.72324 2.16324)
(-1.06741 3.31601 2.78011)
(-1.66854 2.70335 3.21358)
(-2.57613 2.04617 2.61084)
(3.58819 2.74276 0.562504)
(3.07396 2.55251 0.182191)
(2.56849 2.30675 1.12616)
(0.891713 3.28104 2.35538)
(0.748239 4.09212 1.32132)
(1.30169 3.49615 0.173675)
(-1.38262 2.64563 1.8118)
(-2.2774 2.44068 2.3786)
(-2.56153 1.76293 2.81213)
(-2.49393 1.46421 2.28684)
(3.48227 2.46489 -0.567833)
(3.26962 2.3025 -0.464372)
(2.63242 2.84967 -0.237886)
(1.92675 3.46258 0.530736)
(0.665649 3.11091 0.958045)
(0.840218 1.89378 1.27174)
(-0.0817352 2.11874 0.635358)
(-1.32905 2.40355 0.588221)
(-2.52134 1.28418 2.31028)
(-2.66743 1.16115 1.93934)
(-2.4871 1.15367 1.44704)
(3.71615 1.8449 -0.572787)
(3.74577 2.16079 -0.654618)
(3.27989 1.83555 -0.664047)
(2.29045 1.8537 0.0831543)
(1.19046 1.3979 0.806748)
(0.733101 1.21687 0.317805)
(-0.425861 1.12902 -0.0238338)
(-1.33624 0.438095 0.972113)
(-1.2232 1.23924 0.101316)
(-2.19117 1.16021 1.67048)
(-2.24076 1.2685 1.54076)
(-2.7875 0.38562 -0.115152)
(3.987 1.13156 -1.14369)
(3.43566 1.45181 -1.69975)
(2.92586 0.742594 -0.524825)
(2.30866 0.38444 -0.742349)