/*--------------------------------*- C++ -*----------------------------------*\
  =========                 |
  \\      /  F ield         | OpenFOAM: The Open Source CFD Toolbox
   \\    /   O peration     | Website:  https://openfoam.org
    \\  /    A nd           | Version:  7
     \\/     M anipulation  |
\*---------------------------------------------------------------------------*/
FoamFile
{
    version     2.0;
    format      ascii;
    class       volVectorField;
    location    "7.5";
    object      U_0;
}
// * * * * * * * * * * * * * * * * * * * * * * * * * * * * * * * * * * * * * //

dimensions      [0 1 -1 0 0 0 0];

internalField   nonuniform List<vector> 
18720
(
(0.506909 -0.604732 -0.972199)
(0.285025 -0.423145 -1.53155)
(0.452074 -0.609754 -0.979603)
(0.568506 -0.603036 -0.954722)
(0.698556 -1.5651 -0.662938)
(0.0445326 0.133726 -1.53467)
(0.203512 -0.315065 -1.56842)
(0.344377 -0.444007 -1.53197)
(0.476776 -0.859031 -1.56858)
(0.688018 -1.57832 -0.652569)
(0.61798 -0.608128 -0.933113)
(0.717184 -1.53777 -0.677628)
(0.399845 -2.43127 -0.00355106)
(0.939978 0.424338 0.632222)
(-0.156698 0.135961 -1.56676)
(0.330715 0.139111 -1.30495)
(-0.0518481 -0.15354 -1.88007)
(0.486065 -0.680532 -1.64729)
(0.348004 -0.468451 -1.56216)
(0.556308 -0.782678 -1.6051)
(0.262595 -1.7247 -0.635373)
(0.39608 -2.44681 0.0667418)
(0.644231 -0.616399 -0.923763)
(0.735909 -1.54122 -0.688666)
(0.374523 -2.40477 -0.0160627)
(0.00965736 -2.65802 -0.0163398)
(0.863293 0.853161 -0.0267333)
(0.765868 0.408641 0.333083)
(1.16343 0.389701 0.655631)
(0.308812 0.368031 -0.407976)
(-0.131224 -0.140911 -1.78348)
(0.597864 0.0608473 -1.09225)
(0.0577863 -0.153931 -1.99266)
(-0.0126919 -0.550826 -1.60045)
(0.136225 -1.85928 -0.478684)
(0.357479 -0.523842 -1.57304)
(0.703852 -0.803344 -1.55606)
(0.165157 -1.845 -0.372716)
(0.233662 -2.16667 -0.273576)
(0.0312782 -2.65946 0.00251564)
(0.665182 -0.624461 -0.925747)
(0.753319 -1.52898 -0.690138)
(0.329314 -2.39402 0.0422231)
(-0.0499965 -2.6455 -0.0117041)
(-0.309178 -2.93315 -0.265809)
(0.625356 2.40588 -0.0285255)
(0.800001 0.879112 -0.0323058)
(0.901767 0.895335 -0.0831579)
(0.61912 0.701835 0.241176)
(0.0597037 0.38587 -0.634979)
(1.20893 0.369072 0.505352)
(0.601205 0.297467 -0.250998)
(-0.00171463 0.439727 -0.919033)
(-0.151666 -0.550261 -1.53241)
(0.847708 0.0084649 -0.927442)
(0.143589 -0.16727 -2.07981)
(0.176344 -0.480356 -1.71949)
(-0.161473 -1.07547 -1.15155)
(0.17034 -2.17386 -0.20631)
(0.411824 -0.548288 -1.54285)
(0.765528 -0.840483 -1.56188)
(0.465753 -1.66601 -0.746736)
(0.246025 -2.18032 -0.31462)
(-0.46432 -2.4438 -0.47698)
(-0.326626 -2.91587 -0.257836)
(0.693015 -0.634258 -0.940708)
(0.771966 -1.51378 -0.684572)
(0.360966 -2.3878 0.0219292)
(-7.39523e-05 -2.63851 -0.0419296)
(-0.337409 -2.91875 -0.272807)
(-0.788297 -2.90977 -0.0567536)
(0.513979 2.8646 0.288433)
(0.468107 2.47972 0.175243)
(1.06726 2.32535 -0.523998)
(0.622906 1.81614 -0.137163)
(0.54265 0.599908 0.0474908)
(0.857482 0.90158 -0.21214)
(0.68259 0.722267 0.335578)
(0.0469899 0.956489 -0.146509)
(-0.0277238 0.46607 -1.06272)
(1.20263 0.271158 0.27397)
(0.936935 0.209588 -0.172084)
(0.196821 0.383952 -0.855471)
(0.0687735 0.34498 -1.03765)
(-0.162936 -1.12884 -1.08436)
(1.08999 -0.155895 -1.06485)
(0.25309 -0.196588 -2.1412)
(0.2854 -0.521593 -1.78402)
(-0.026635 -1.00652 -1.33783)
(-1.1371 -1.89288 -0.743922)
(-0.63927 -2.39988 -0.363298)
(0.595844 -0.566032 -1.43)
(0.856518 -0.863112 -1.53212)
(0.554932 -1.69884 -0.813504)
(0.292472 -2.18045 -0.407428)
(-0.458011 -2.42952 -0.500701)
(-1.00881 -2.50043 -0.390697)
(-0.771915 -2.8917 -0.0823526)
(0.746153 -0.651899 -0.951148)
(0.798658 -1.49778 -0.674905)
(0.408413 -2.3763 0.029214)
(0.0387893 -2.64206 -0.0275473)
(-0.301593 -2.91899 -0.261734)
(-0.786752 -2.91463 -0.0871225)
(-1.17905 -2.83812 -0.153367)
(0.157273 2.80824 1.23534)
(-0.0132231 2.8958 0.917059)
(0.758913 2.77875 -0.0215621)
(0.546842 3.37167 0.351156)
(0.227154 1.72565 0.42573)
(1.40822 2.28992 -0.391563)
(0.763822 1.90105 -0.227688)
(0.705482 1.29833 0.809732)
(0.00401577 0.952708 0.0341375)
(0.980856 0.915286 -0.125637)
(0.726735 0.680351 0.185348)
(0.286409 0.973426 -0.457448)
(-0.241109 1.01035 -0.579358)
(0.166185 0.292844 -1.20654)
(1.34391 0.280288 0.285615)
(1.34441 0.0611658 -0.229045)
(0.45486 0.295209 -0.702877)
(0.363345 0.304436 -1.00484)
(-0.577074 -0.102508 -0.916778)
(-1.15448 -1.90474 -0.753946)
(1.37562 -0.305977 -0.826202)
(0.28546 -0.16757 -2.14145)
(0.533785 -0.495218 -1.85074)
(-0.0472838 -0.983844 -1.53315)
(-1.00787 -1.89779 -0.814268)
(-1.1731 -1.97661 -0.882005)
(-1.04257 -2.46942 -0.376232)
(0.561311 -0.579214 -1.49004)
(0.8878 -0.922886 -1.49095)
(0.533643 -1.71371 -0.840397)
(0.303032 -2.19941 -0.431278)
(-0.55973 -2.48044 -0.434407)
(-0.979471 -2.4962 -0.383166)
(-1.17996 -2.23495 -0.468504)
(-1.16704 -2.80891 -0.134714)
(0.811263 -0.683247 -0.944604)
(0.836777 -1.49549 -0.658282)
(0.442971 -2.37164 -0.011983)
(0.0628426 -2.6394 -0.0343228)
(-0.257322 -2.93042 -0.237507)
(-0.75819 -2.89616 -0.113761)
(-1.17196 -2.80809 -0.173089)
(-1.25716 -2.28662 -0.187443)
(0.190863 3.23718 2.00448)
(-0.256212 2.89934 1.51324)
(0.504953 2.58681 0.955121)
(0.35056 3.10087 1.1816)
(0.400597 3.35564 0.538458)
(0.909577 2.735 0.035203)
(0.779521 3.32528 0.387726)
(0.122621 2.82459 0.234283)
(0.249068 1.27921 0.254954)
(1.8207 2.27118 0.11302)
(1.09487 1.92343 -0.280995)
(0.623678 1.33481 0.609225)
(0.12312 1.44452 0.0913614)
(-0.130786 1.05386 -0.734061)
(1.3547 0.993462 0.114529)
(0.861315 0.694012 -0.181277)
(0.338466 0.895365 -0.598792)
(-0.0725907 0.97764 -0.636614)
(-0.70925 0.740422 -0.542181)
(-1.25017 -0.218794 -0.89959)
(1.48588 0.232821 0.00283318)
(1.60801 -0.0536842 -0.173672)
(0.638328 0.203596 -0.604354)
(0.607509 0.302597 -0.915165)
(-0.221117 -0.0839152 -0.956816)
(-1.5207 -1.09852 -0.663234)
(-1.29092 -1.95647 -0.827294)
(1.6826 -0.480213 -0.488934)
(0.465208 -0.19959 -2.02115)
(0.707396 -0.563836 -1.86272)
(0.290639 -0.881903 -1.74724)
(-0.791736 -1.84113 -0.934077)
(-1.02535 -2.0419 -0.903825)
(-1.27928 -1.55065 -0.788459)
(-1.17857 -2.24486 -0.510523)
(0.587338 -0.536461 -1.57091)
(0.890839 -0.92873 -1.51224)
(0.558558 -1.64239 -0.924669)
(0.299429 -2.1959 -0.443505)
(-0.387077 -2.53778 -0.498471)
(-0.841444 -2.52268 -0.401331)
(-1.12738 -2.2444 -0.482757)
(-0.9895 -1.93996 -0.829326)
(-1.25975 -2.28121 -0.181518)
(0.879624 -0.722386 -0.913691)
(0.876373 -1.50199 -0.644383)
(0.485053 -2.37581 -0.0402844)
(0.119959 -2.64546 -0.0386986)
(-0.299906 -2.93175 -0.273054)
(-0.754665 -2.89551 -0.115569)
(-1.19775 -2.80614 -0.142561)
(-1.28492 -2.23569 -0.204125)
(-1.2622 -1.96547 -0.204189)
(0.757845 3.37247 2.79337)
(-0.231094 3.02807 2.01511)
(0.403039 3.30639 1.94782)
(-0.0379068 2.92776 1.86964)
(-0.0802925 3.19929 1.64115)
(0.708152 2.51425 0.887469)
(0.852548 3.08073 0.615316)
(0.338926 3.47375 1.39238)
(-0.11576 2.96153 0.357777)
(1.81677 2.57886 -0.203022)
(1.04004 3.1768 0.367154)
(0.161741 2.8946 -0.330365)
(-0.371376 1.9692 0.340477)
(-0.0306337 1.47021 -0.0669738)
(2.28679 2.15578 -0.308869)
(1.08449 2.15301 -0.543273)
(0.515967 1.33588 0.495138)
(0.609656 1.41156 0.117372)
(-0.220621 1.15556 0.480349)
(-0.953011 0.565795 -0.269498)
(1.76049 0.84895 -0.388956)
(1.11902 0.483754 0.00941393)
(0.507113 0.822862 -0.63267)
(0.44483 0.930163 -0.712165)
(-0.450096 0.766384 -0.729717)
(-1.22716 0.521481 -0.457628)
(-1.56399 -1.24581 -0.962043)
(1.66766 0.21388 0.0627027)
(1.63777 0.0295755 -0.264889)
(0.977954 0.0388844 -0.551847)
(0.715995 0.291484 -0.842544)
(0.00490851 0.0112173 -0.928541)
(-1.14323 -1.266 -0.646935)
(-1.64705 -0.816348 -0.876731)
(-1.26107 -1.52139 -0.969836)
(1.76015 -0.572609 -0.319969)
(0.70861 -0.321259 -1.79091)
(0.798831 -0.51851 -1.92203)
(0.541962 -0.878452 -1.79688)
(-0.952088 -1.71632 -0.829766)
(-1.02336 -2.0036 -0.894938)
(-1.10345 -1.62098 -0.877089)
(-1.35232 -1.3737 -0.843877)
(-1.16588 -1.91396 -0.678712)
(0.677767 -0.569297 -1.59479)
(0.912432 -0.965735 -1.50297)
(0.586059 -1.62619 -0.970376)
(0.296903 -2.18188 -0.422923)
(-0.33067 -2.57528 -0.576378)
(-0.784699 -2.54074 -0.395759)
(-1.01721 -2.27319 -0.525687)
(-1.34453 -1.86923 -0.577334)
(-1.38703 -1.6531 -0.450129)
(-1.27083 -1.92346 -0.203008)
(0.942078 -0.764446 -0.865084)
(0.922398 -1.51485 -0.6304)
(0.540635 -2.38559 -0.0997556)
(0.110272 -2.65723 -0.0731331)
(-0.273584 -2.92531 -0.267621)
(-0.747375 -2.90378 -0.141798)
(-1.16696 -2.83 -0.234319)
(-1.20816 -2.28245 -0.269526)
(-1.27841 -1.9449 -0.197811)
(-1.83202 -1.30441 -0.326691)
(0.84668 3.48325 2.98373)
(0.0392581 3.23659 2.82824)
(0.965868 3.50775 2.96727)
(0.289449 2.94194 2.18819)
(-0.0631379 3.00867 1.93712)
(0.700653 3.25786 1.91983)
(0.413676 3.02875 1.36293)
(0.105093 3.46378 1.55868)
(0.12805 3.53302 1.42719)
(1.31893 2.73266 0.630701)
(0.738304 2.92722 0.93661)
(1.3135 3.62329 0.934244)
(0.216432 3.57955 1.2652)
(-0.621567 1.98638 0.45581)
(2.28475 2.50358 -0.222443)
(1.45164 3.12828 0.0747932)
(0.752875 3.01974 -0.697249)
(-0.231175 1.97832 0.462817)
(0.238726 1.8054 -0.149836)
(-0.601822 1.0264 0.020954)
(2.53707 2.27596 -0.171302)
(2.24442 1.57834 0.107499)
(0.721817 1.50954 -0.214413)
(0.701306 1.33957 -0.0132062)
(0.026768 1.33872 0.744019)
(-0.635206 1.30275 0.0160739)
(-1.37458 0.326731 -0.280661)
(1.96389 0.953199 -0.711785)
(1.28504 0.494667 -0.0764955)
(0.925866 0.680747 -0.446678)
(0.633155 0.904453 -0.603767)
(0.0138223 0.857087 -0.566776)
(-0.892918 0.555289 -0.601907)
(-2.05246 0.013403 -0.531787)
(-1.73511 -0.716219 -0.915268)
(1.81769 0.178769 0.125917)
(1.73558 -0.155417 -0.310216)
(1.26749 -0.0909043 -0.61378)
(0.967634 0.204616 -0.805737)
(0.354034 0.115608 -0.965526)
(-1.18564 -1.00979 0.0773549)
(-1.53886 -0.873032 -0.946222)
(-2.2481 -0.74177 -0.713711)
(-1.46202 -1.3454 -0.789145)
(1.86564 -0.592396 -0.0215882)
(1.0628 -0.47392 -1.33426)
(0.817971 -0.50549 -1.98809)
(0.610824 -0.860537 -1.80432)
(-0.906733 -1.70653 -0.817404)
(-0.7497 -2.14095 -0.780378)
(-0.777754 -1.68136 -1.01891)
(-1.24778 -1.44122 -0.908157)
(-1.97083 -1.32758 -0.501335)
(-1.45508 -1.63344 -0.397029)
(0.777093 -0.608886 -1.57206)
(0.934788 -0.961116 -1.5108)
(0.598545 -1.65557 -0.988087)
(0.277342 -2.17691 -0.37755)
(-0.418985 -2.63716 -0.567754)
(-0.761584 -2.54562 -0.42325)
(-1.08168 -2.21568 -0.574768)
(-0.949023 -2.00237 -0.893973)
(-1.34558 -1.67687 -0.479516)
(-2.08876 -1.47634 -0.454549)
(-1.85398 -1.30116 -0.31173)
(0.995381 -0.802183 -0.819586)
(0.961725 -1.53316 -0.627337)
(0.594333 -2.41265 -0.0695695)
(0.157469 -2.65869 -0.0569328)
(-0.232352 -2.94581 -0.250455)
(-0.738726 -2.90221 -0.155162)
(-1.14895 -2.81189 -0.194702)
(-1.22223 -2.25729 -0.25786)
(-1.27105 -1.91635 -0.222078)
(-1.82611 -1.2992 -0.324957)
(-1.96804 -1.007 -0.48321)
(1.23338 3.34242 3.09791)
(0.362652 3.55881 2.96864)
(1.82546 3.37594 2.9824)
(0.35924 3.31209 2.41311)
(-0.0621496 2.93918 2.36195)
(0.896639 3.7002 3.08269)
(1.30154 3.00821 1.9156)
(0.0991083 3.008 2.16957)
(-0.0346148 3.41956 1.66126)
(1.99435 3.38075 1.56016)
(0.42102 2.85519 1.49194)
(0.650138 3.37523 1.23097)
(0.186575 3.86023 1.9745)
(0.0316289 3.51959 1.46651)
(2.1828 2.88526 0.105457)
(1.163 2.88447 0.83322)
(1.14825 3.71358 1.16082)
(0.72606 3.853 0.690895)
(-0.594151 2.54821 1.58999)
(0.195499 1.78313 0.26643)
(2.54494 2.55049 -0.328661)
(2.14444 2.83412 -0.224172)
(1.6235 3.05075 -0.267686)
(0.228764 2.01722 0.807418)
(0.312493 1.72676 -0.0830171)
(-1.2739 0.785297 0.861778)
(-0.201028 1.26765 -0.147088)
(2.75483 2.32953 -0.577495)
(2.38234 1.63256 0.539237)
(1.23435 1.54169 -0.793099)
(0.620828 1.3726 -0.0504534)
(0.0360448 1.3261 0.5734)
(-0.725883 1.06484 -0.184569)
(-2.07569 0.289156 0.142354)
(-2.13163 0.0763193 -0.531719)
(2.25959 0.923323 -0.993149)
(1.57613 0.629881 -0.369804)
(1.26758 0.50841 -0.436312)
(1.04396 0.749303 -0.62348)
(0.158565 0.738329 -0.418737)
(-0.767849 0.556627 -0.777945)
(-1.92309 -0.0920059 -0.752315)
(-2.3061 -0.634256 -0.324224)
(-2.35015 -0.69185 -0.673011)
(2.06988 0.0122919 -0.148029)
(1.72021 -0.0957256 -0.562128)
(1.53708 -0.204221 -0.679882)
(1.21989 0.15655 -0.874737)
(0.638448 0.11041 -1.19645)
(-0.728994 -1.34623 -0.263678)
(-1.26494 -1.02466 -1.09421)
(-1.96565 -0.867435 -0.99571)
(-2.03768 -1.09847 -0.629862)
(-2.03791 -1.28754 -0.46311)
(1.94599 -0.661974 0.185486)
(1.19057 -0.621293 -1.21813)
(0.758541 -0.433394 -2.05843)
(0.762445 -0.808127 -1.85448)
(-0.296954 -1.64253 -1.1167)
(-0.881271 -2.05938 -0.786951)
(-0.718476 -1.69712 -1.05014)
(-1.33096 -1.42951 -0.830255)
(-1.90019 -1.35382 -0.532423)
(-2.08904 -1.42228 -0.55901)
(-2.11368 -1.4467 -0.393414)
(0.868783 -0.673443 -1.45596)
(0.975015 -0.988377 -1.49252)
(0.655479 -1.58897 -1.13208)
(0.228833 -2.10592 -0.566571)
(-0.224689 -2.71004 -0.566674)
(-0.697591 -2.57837 -0.423062)
(-0.68388 -2.34405 -0.581788)
(-0.90131 -1.9972 -0.906222)
(-1.35708 -1.68944 -0.503361)
(-2.08616 -1.47716 -0.438008)
(-2.24919 -1.07918 -0.625897)
(-1.98917 -1.0059 -0.431129)
(1.03505 -0.84457 -0.812083)
(1.00225 -1.55581 -0.612708)
(0.615402 -2.40903 -0.0966087)
(0.145113 -2.66653 -0.0452284)
(-0.220168 -2.95045 -0.247052)
(-0.723675 -2.90162 -0.171681)
(-1.13833 -2.80002 -0.197395)
(-1.15953 -2.25688 -0.37993)
(-1.26738 -1.92237 -0.235523)
(-1.81331 -1.30933 -0.342038)
(-1.95503 -1.00467 -0.494701)
(-1.8897 -1.01953 -0.1784)
(1.21578 2.89124 3.58)
(0.83199 3.26447 3.31769)
(1.52804 3.2782 3.05822)
(0.721822 3.15365 3.19189)
(-0.0476153 3.12612 2.5287)
(1.57531 3.62305 3.28562)
(1.40344 3.16242 2.50018)
(-0.0280142 2.83644 2.60161)
(0.190725 3.13059 2.1973)
(2.29053 3.80398 2.2135)
(0.404093 3.07052 2.60041)
(0.574083 2.93474 2.00934)
(0.548172 3.64463 1.82646)
(-0.202458 3.67593 2.01897)
(2.40341 3.48964 1.54335)
(0.801042 2.74797 1.8912)
(0.693481 3.26193 1.39687)
(0.365947 3.7774 2.13928)
(0.880193 4.37461 0.930496)
(-1.08785 2.30306 1.69295)
(2.91711 2.77856 -0.804738)
(1.598 2.73719 0.831218)
(1.14155 3.49743 1.24697)
(0.769926 3.74428 0.839274)
(-0.218146 2.92057 1.00765)
(-1.04773 1.64972 1.95954)
(-1.8038 0.451048 1.11122)
(2.7095 2.60021 -0.570822)
(2.68402 2.59259 -0.740368)
(1.67171 3.19738 -0.20343)
(0.38724 2.09589 0.626019)
(0.345445 1.56399 -0.00157654)
(-0.664471 0.915009 0.0721102)
(-2.64714 0.277901 1.25876)
(-2.13973 0.235092 0.255258)
(3.176 2.09616 -0.949857)
(2.62702 1.61576 -0.684981)
(2.01438 1.18295 -0.336248)
(0.74595 1.34958 -0.0932398)
(0.116416 1.37973 0.453635)
(-0.411702 1.11103 -0.236722)
(-1.86954 0.223921 -0.154681)
(-2.17671 -0.459191 0.193998)
(-2.43264 -0.540593 -0.346139)
(2.69642 0.97163 -0.92871)
(2.24938 0.306539 0.0191925)
(1.45803 0.474658 -0.490259)
(1.16744 0.670444 -0.597999)
(0.301739 0.70081 -0.378302)
(-0.17085 0.465024 -0.616533)
(-1.61695 -0.182457 -1.07519)
(-2.15621 -0.580074 -0.232661)
(-1.94832 -0.380946 -0.89261)
(-2.12208 -1.0794 -0.601346)
(2.46971 -0.0383101 -0.184001)
(1.91135 -0.201136 -0.373966)
(1.71516 -0.445729 -0.680848)
(1.63637 -0.128896 -0.934463)
(0.768001 0.151609 -1.42064)
(-0.719391 -1.28381 -0.466455)
(-0.966584 -1.25815 -1.24502)
(-2.02465 -0.849347 -0.61054)
(-1.93497 -1.1539 -0.721021)
(-2.27962 -0.667277 -0.559005)
(-2.12057 -1.39153 -0.495326)
(1.93793 -0.505422 -0.0113427)
(1.34036 -0.796694 -1.12668)
(0.758977 -0.446143 -2.04748)
(0.830704 -0.720722 -1.9053)
(-0.0234966 -1.72322 -1.21819)
(-0.54724 -2.19321 -0.671301)
(-0.685196 -1.80643 -1.00523)
(-1.02178 -1.57897 -1.11907)
(-1.81681 -1.34325 -0.708268)
(-2.09298 -1.43671 -0.463379)
(-2.083 -0.997489 -0.556557)
(-2.25057 -1.08662 -0.589383)
(0.991662 -0.779182 -1.17726)
(1.03016 -0.988154 -1.5314)
(0.682876 -1.75574 -1.01141)
(0.170239 -2.11611 -0.643202)
(-0.245119 -2.70768 -0.575728)
(-0.630859 -2.60245 -0.416137)
(-1.06855 -2.20574 -0.595869)
(-0.810717 -1.98094 -0.943979)
(-1.19946 -1.76301 -0.673825)
(-2.03998 -1.51461 -0.486099)
(-2.22647 -1.10627 -0.628702)
(-2.27575 -0.800187 -0.261181)
(-1.91143 -0.981132 -0.193742)
(1.07288 -0.870988 -0.868327)
(1.03704 -1.58292 -0.583499)
(0.616904 -2.40747 -0.0884742)
(0.163653 -2.6555 -0.0601515)
(-0.228802 -2.94094 -0.239819)
(-0.70252 -2.90982 -0.19402)
(-1.13473 -2.79477 -0.198187)
(-1.25618 -2.21339 -0.231503)
(-1.26529 -1.94037 -0.265781)
(-1.81058 -1.31514 -0.348434)
(-1.94945 -1.01316 -0.501358)
(-1.90717 -0.960025 -0.167809)
(-1.55789 -1.1577 -0.214428)
(0.543595 2.71516 3.90069)
(0.635538 2.95702 3.78461)
(1.35871 2.76259 3.5154)
(0.469917 2.92841 3.93328)
(0.583821 3.04898 3.29824)
(1.6743 3.25227 3.30561)
(1.11807 3.22677 3.12057)
(0.0672434 2.81293 3.36072)
(-0.0908007 2.99125 2.56385)
(2.01296 3.43901 3.37382)
(1.25193 3.1767 3.01474)
(0.194914 2.8739 2.54795)
(0.787002 3.3451 2.20962)
(0.204262 3.4085 2.14933)
(2.329 3.48405 2.75289)
(1.35892 3.1407 2.33498)
(0.0274877 2.64898 2.34616)
(0.596303 3.46434 1.76148)
(0.597929 3.67907 2.30817)
(-0.205323 3.91924 1.79668)
(2.85797 3.37966 1.03393)
(1.31846 2.81828 2.0291)
(0.659009 3.27427 1.73463)
(0.661493 3.68408 2.22548)
(0.977578 4.4118 0.963885)
(-0.692308 3.14563 1.7715)
(-1.33717 1.89781 2.01632)
(2.98622 2.84112 -1.1717)
(2.32098 2.50848 0.307784)
(1.6824 3.11673 0.623658)
(0.765872 3.6262 0.859329)
(0.186076 3.14133 0.632248)
(-0.228957 2.07611 1.50026)
(-0.304673 2.27939 1.94077)
(-2.62922 0.0422932 1.616)
(3.00994 2.4762 -0.50794)
(3.03154 2.57996 -0.845858)
(1.92273 2.87101 -0.114261)
(0.461499 2.10709 0.214963)
(0.473053 1.45263 0.214388)
(0.382023 1.25033 -0.141787)
(-2.2093 0.708739 1.01727)
(-2.39001 0.660283 1.10298)
(-2.34118 -0.378497 0.107897)
(3.43736 2.07259 -0.784218)
(2.81749 1.83016 -0.656611)
(2.45631 0.912834 0.0973554)
(1.20359 1.20536 -0.121439)
(0.432659 1.32241 0.144788)
(0.0077015 1.16863 0.0317813)
(-1.16815 0.362371 -0.401651)
(-2.01561 -0.467994 0.218069)
(-2.07659 0.649501 -0.94155)
(-2.11469 -0.334885 -0.811649)
(3.2509 0.596263 -0.709305)
(2.48446 0.443199 -0.416544)
(1.68672 0.528461 -0.362254)
(1.23882 0.586563 -0.885847)
(0.736079 0.532412 -0.331052)
(0.0166034 0.386639 -0.646181)
(-1.24857 -0.122459 -1.11096)
(-1.96633 -0.727098 -0.368901)
(-1.83698 -0.25219 -1.00619)
(-2.48489 0.0980699 -0.832651)
(-2.35756 -0.863896 -0.350624)
(2.88161 -0.390556 -0.0275783)
(2.06584 -0.163423 -0.337872)
(1.80494 -0.260331 -0.575831)
(1.82493 -0.230419 -0.998587)
(0.886044 0.0192128 -1.58316)
(-0.662014 -1.29098 -0.669599)
(-0.991548 -1.36868 -1.21016)
(-1.60298 -1.10504 -1.00228)
(-1.94452 -1.07215 -0.700255)
(-2.15306 -0.647054 -0.545879)
(-2.45706 -0.139998 0.30171)
(-2.13811 -0.98885 -0.559702)
(1.97728 -0.386381 -0.475946)
(1.45007 -0.931247 -0.951459)
(0.93141 -0.504957 -1.87082)
(0.839434 -0.625616 -1.95099)
(0.31159 -1.7062 -1.45546)
(-0.331019 -2.25904 -0.661896)
(-0.615042 -1.86925 -0.945371)
(-0.944215 -1.65699 -1.12104)
(-1.79166 -1.41502 -0.60418)
(-1.92179 -1.53872 -0.675069)
(-1.98963 -0.974091 -0.542106)
(-2.42281 -0.503106 -0.758387)
(-2.31376 -0.773528 -0.162316)
(1.10798 -0.901208 -0.839195)
(1.10987 -1.02515 -1.53695)
(0.796408 -1.78205 -0.966082)
(0.15451 -2.05954 -0.744693)
(-0.31232 -2.66976 -0.53441)
(-0.54108 -2.59721 -0.454385)
(-0.933633 -2.31307 -0.607348)
(-0.761116 -1.99926 -0.974486)
(-1.43461 -1.69901 -0.342247)
(-2.01205 -1.51648 -0.514379)
(-2.20215 -1.09422 -0.669568)
(-2.24297 -0.776617 -0.395335)
(-1.98293 -0.468649 -0.475836)
(-1.56056 -1.15393 -0.206546)
(1.10013 -0.879587 -0.938033)
(1.07045 -1.61431 -0.537118)
(0.642423 -2.40505 -0.131572)
(0.165506 -2.66681 -0.0838738)
(-0.167363 -2.96085 -0.268655)
(-0.689135 -2.90398 -0.200699)
(-1.11698 -2.80507 -0.260646)
(-1.27293 -2.20414 -0.206783)
(-1.24258 -1.93336 -0.27563)
(-1.80108 -1.33335 -0.371938)
(-1.94156 -1.01277 -0.548447)
(-1.82979 -1.05128 -0.25545)
(-1.55473 -1.15705 -0.244097)
(-1.50468 -0.703269 0.116269)
(0.3019 2.66175 3.72956)
(0.0683034 2.77815 3.9634)
(1.10683 2.55247 3.77121)
(0.298574 2.80874 4.09597)
(0.189972 2.97045 4.07682)
(1.47131 2.72825 3.48195)
(1.13337 2.85833 3.71142)
(-0.0550702 2.84772 4.07264)
(-0.0144653 2.80326 3.39855)
(1.72674 3.17282 3.56411)
(1.3923 3.12216 3.27022)
(0.491033 3.0371 3.33442)
(-0.235027 2.80305 3.32411)
(0.0220057 3.24553 2.45323)
(2.23766 3.31557 3.41184)
(1.38804 3.21559 3.17333)
(0.689715 2.93328 2.44517)
(-0.628091 2.72928 2.93677)
(0.0221698 3.47554 2.65214)
(0.159945 3.50563 2.46577)
(2.92701 3.60166 2.12649)
(1.69535 2.99225 2.80413)
(0.79481 2.80751 2.03214)
(0.574001 3.22056 1.98755)
(0.537943 3.46419 2.15407)
(-0.62106 3.62133 2.60829)
(-1.11359 3.07978 2.17762)
(3.36199 3.24048 0.297892)
(1.86423 2.73885 1.71996)
(0.868389 3.04762 1.94458)
(0.956861 3.62103 2.2205)
(0.86124 4.35834 1.11669)
(0.1081 3.45808 1.16127)
(-1.93754 2.34416 2.08086)
(-1.01739 2.07309 2.29256)
(3.06353 2.85544 -0.756787)
(2.70985 2.42658 -0.0237449)
(1.80996 2.94856 0.328172)
(1.02896 3.6453 0.559634)
(0.332277 3.1517 0.452529)
(-0.221754 1.89641 1.2621)
(-0.439042 2.44648 1.20322)
(-1.69753 2.27296 1.5085)
(-2.4941 0.570878 1.38975)
(3.36582 2.28409 -0.419661)
(3.28397 2.55729 -0.619171)
(2.26658 2.48274 -0.21897)
(1.12433 2.00735 -1.17168)
(0.425473 1.39484 0.35916)
(0.704083 1.17376 0.234899)
(-1.44413 1.12112 0.703749)
(-2.23658 0.577059 1.08544)
(-2.00148 1.54637 0.993971)
(-2.34745 0.375982 -0.839938)
(3.64777 1.7694 -1.0439)
(3.28715 1.38299 -0.827278)
(2.54655 0.967473 -0.0570298)
(1.57084 1.03075 -0.34944)
(0.617522 1.23474 -0.0384178)
(0.0727511 1.08847 -0.0335938)
(-0.549091 0.316023 -0.624058)
(-1.81051 -0.555083 0.264162)
(-1.87514 0.139102 -0.749752)
(-2.45382 0.702541 0.659126)
(-2.64541 0.0830596 -0.862747)
(3.49875 0.53581 -0.82323)
(2.81998 0.356128 -0.628605)
(2.05791 0.116937 -0.240632)
(1.76227 0.338381 -0.760634)
(1.03139 0.393641 -0.459651)
(0.44661 0.265671 -0.953253)
(-0.915274 -0.181781 -1.19249)
(-1.84875 -0.54994 0.05045)
(-1.66003 -0.43194 -0.963698)
(-2.15323 0.33888 -1.23196)
(-2.75914 0.46369 0.05445)
(-2.54027 -0.142168 0.636748)
(3.06624 -0.304328 -0.504649)
(2.24368 -0.361309 -0.655808)
(1.83272 -0.417451 -0.569425)
(1.79642 -0.249441 -1.09727)
(0.977635 -0.0388624 -1.81106)
(-0.509111 -1.24578 -1.0141)
(-0.868655 -1.48497 -1.28487)
(-1.75033 -0.82735 -0.901006)
(-1.75293 -1.23059 -0.9028)
(-1.82772 -0.749109 -0.947222)
(-2.32237 -0.12177 -0.303651)
(-2.40178 -0.424133 0.907496)
(-2.47202 -0.512197 -0.568362)
(2.01703 -0.30349 -0.726769)
(1.55439 -1.03698 -0.796278)
(1.27365 -0.767981 -1.33105)
(0.936392 -0.618196 -1.94908)
(0.482912 -1.73247 -1.60518)
(-0.231682 -2.34894 -0.550135)
(-0.463737 -1.89172 -1.01785)
(-1.02575 -1.64667 -1.0129)
(-1.72016 -1.41328 -0.609052)
(-2.01288 -1.36916 -0.567336)
(-1.95473 -1.03465 -0.579772)
(-2.35382 -0.524397 -0.925472)
(-2.31724 0.102325 -0.504983)
(-2.01368 -0.451571 -0.41113)
(1.20845 -1.03566 -0.501919)
(1.09135 -1.02464 -1.65639)
(0.812667 -1.74968 -1.07633)
(0.143326 -2.04604 -0.806368)
(-0.284453 -2.67217 -0.379594)
(-0.626548 -2.56 -0.307059)
(-0.513203 -2.43233 -0.661732)
(-0.747897 -2.03102 -0.98049)
(-1.34722 -1.76591 -0.558961)
(-1.96209 -1.52512 -0.587066)
(-2.17844 -1.12517 -0.581221)
(-2.1773 -0.853637 -0.419754)
(-1.9729 -0.492586 -0.43193)
(-1.75069 -0.276709 0.230017)
(-1.50699 -0.692828 0.138257)
(1.09887 -0.856964 -0.970808)
(1.10036 -1.64768 -0.488874)
(0.672665 -2.42837 -0.0994967)
(0.177883 -2.66838 -0.11049)
(-0.195126 -2.95902 -0.25604)
(-0.665699 -2.92073 -0.210113)
(-1.11713 -2.77752 -0.231508)
(-1.22229 -2.21036 -0.277701)
(-1.23006 -1.93775 -0.27664)
(-1.79476 -1.33613 -0.388002)
(-1.91665 -1.0304 -0.564118)
(-1.87448 -0.970014 -0.193318)
(-1.5417 -1.17353 -0.230236)
(-1.5022 -0.683558 0.0762799)
(-1.48441 -0.3103 -0.380818)
(0.0432994 2.57608 3.19313)
(0.13287 2.82173 3.53698)
(0.677165 2.57495 3.7836)
(0.342837 2.78026 3.71676)
(0.0889302 2.81875 4.06217)
(1.49426 2.40363 3.70336)
(0.529532 2.73907 3.98965)
(0.0140804 2.86612 3.99451)
(-0.158854 2.87007 4.07875)
(1.6702 2.73506 3.52452)
(1.30093 2.74525 3.60873)
(0.258318 2.80099 4.0811)
(-0.230462 2.91488 3.9794)
(0.00734251 3.20475 3.27823)
(2.29606 3.0778 3.37111)
(1.82207 3.00286 3.4319)
(0.678185 2.98805 3.29463)
(-0.12333 2.82306 3.47258)
(-0.37575 3.13096 3.40787)
(-0.264141 3.38538 2.83328)
(2.47612 3.17235 3.38861)
(1.93855 3.18013 3.12543)
(1.08845 2.86422 2.38819)
(0.336467 2.97767 2.44021)
(-0.0347197 3.20812 2.83458)
(-0.456743 3.22048 3.26373)
(-1.08634 3.25106 2.79391)
(3.20249 3.23507 2.04207)
(2.42328 3.13481 2.56795)
(0.580841 2.71824 2.63193)
(0.824077 3.08091 2.18097)
(0.738291 3.4312 2.136)
(-0.42374 3.67747 2.53584)
(-1.46027 2.97474 2.95512)
(-2.16948 2.40859 2.21857)
(3.59839 2.85362 0.373533)
(2.26056 2.66064 1.18081)
(1.0085 2.86607 2.04349)
(1.61508 3.31201 2.2756)
(0.815364 4.30291 1.27367)
(0.775438 3.49044 0.815403)
(-1.78466 2.29512 2.0606)
(-2.4448 2.12125 2.64005)
(-2.07175 2.01924 1.95896)
(3.24708 2.66972 -0.535236)
(2.89487 2.50409 -0.3297)
(2.12774 2.97009 -0.00314202)
(1.67715 3.52828 0.402534)
(0.474965 3.21655 0.626705)
(0.380665 1.99861 1.16599)
(-0.707598 2.14374 0.876869)
(-1.59257 2.27473 1.25293)
(-2.5547 1.45193 2.19185)
(-2.31176 1.54263 0.899442)
(3.58832 2.0475 -0.543415)
(3.63529 2.16206 -0.608523)
(2.88159 2.09718 -0.472486)
(1.66802 1.89103 -1.04047)
(0.755312 1.36133 0.952231)
(0.720137 1.30772 0.292142)
(-1.02122 1.14211 0.247639)
(-1.79859 0.448853 1.12133)
(-1.49281 1.68049 0.6102)
(-2.34187 1.22036 1.4549)
(-2.5988 0.761306 0.752044)
(3.81226 1.49499 -1.17203)
(3.25263 1.71081 -1.3469)
(2.68859 0.870781 -0.481408)
(1.98638 0.710918 -0.596374)
(1.1687 0.974938 -0.687611)
(0.564006 0.884245 -0.262051)
(-0.0215151 0.295447 -0.696393)
(-1.31141 -0.499757 0.192395)
(-1.58384 0.686663 -0.476611)
(-2.31284 0.972247 0.0749061)
(-2.70979 0.414523 0.0465777)
(-2.83347 0.516789 -0.465824)
(3.57908 0.597742 -1.23991)
(3.03298 0.313427 -0.62771)
(2.36724 0.164414 -0.0354469)
(2.08506 0.112554 -0.722374)
(1.31858 0.271874 -0.605374)
(0.566444 0.0726942 -1.18672)
(-0.964746 -0.00362608 -1.31409)
(-1.58673 -0.694402 -0.402555)
(-1.64814 -0.456718 -0.975857)
(-1.95937 0.0556557 -0.859593)
(-2.65795 0.595503 -0.335139)
(-2.76839 0.715643 -0.558421)
(-2.4539 -0.411796 0.788364)
(3.12598 -0.152344 -0.838474)
(2.66803 -0.492313 -0.188986)
(1.85014 -0.392728 -0.66954)
(1.8314 -0.253374 -1.09789)
(1.19248 -0.235348 -1.92048)
(-0.326465 -1.2894 -1.29199)
(-0.537712 -1.71224 -1.38822)
(-1.48064 -1.16748 -0.995949)
(-1.69484 -1.25076 -0.753405)
(-1.95772 -0.426648 -0.55802)
(-2.28943 -0.101171 -0.520832)
(-2.35087 -0.470021 0.998729)
(-2.43874 -0.0329959 -0.288374)
(-2.35277 0.101614 -0.473695)
(2.10369 -0.288912 -0.751806)
(1.65675 -1.03545 -0.602671)
(1.44078 -0.9568 -1.078)
(1.09178 -0.701644 -1.88763)
(0.583216 -1.6376 -1.77722)
(-0.0160843 -2.42403 -0.528868)
(-0.405257 -2.01222 -1.07421)
(-1.00134 -1.72602 -1.01741)
(-1.50899 -1.43971 -0.726968)
(-1.77452 -1.55134 -0.732367)
(-1.96576 -0.964985 -0.642676)
(-2.31363 -0.548496 -0.680229)
(-2.33604 0.0771469 -0.264394)
(-2.04339 0.749741 -0.4612)
(-1.75548 -0.263957 0.256772)
(1.28071 -1.15785 -0.234314)
(1.11704 -1.03595 -1.63734)
(0.81647 -1.77261 -1.13901)
(0.108065 -2.04009 -0.88924)
(-0.256951 -2.67601 -0.360829)
(-0.481712 -2.56474 -0.41212)
(-0.531899 -2.45366 -0.653434)
(-0.762221 -2.01652 -1.00287)
(-1.21711 -1.80003 -0.754645)
(-1.92245 -1.54304 -0.583034)
(-2.15342 -1.1172 -0.580958)
(-2.152 -0.805866 -0.464623)
(-1.94575 -0.507849 -0.441212)
(-1.74115 -0.299121 0.190992)
(-1.48669 -0.10533 -0.334159)
(-1.48126 -0.300693 -0.351938)
(1.07164 -0.802039 -0.871495)
(1.13423 -1.68692 -0.436406)
(0.704891 -2.44396 -0.190299)
(0.176189 -2.66635 -0.131875)
(-0.140966 -2.95157 -0.250538)
(-0.64735 -2.92133 -0.215201)
(-1.08749 -2.77016 -0.253485)
(-1.17053 -2.21429 -0.318483)
(-1.25932 -1.93999 -0.29777)
(-1.77989 -1.3466 -0.401795)
(-1.91897 -1.03876 -0.515209)
(-1.82338 -1.04095 -0.276895)
(-1.52229 -1.16363 -0.250779)
(-1.51434 -0.723061 0.102201)
(-1.48913 -0.324118 -0.400233)
(-1.16988 0.445582 -0.541013)
(-0.0738143 2.52088 3.05432)
(-0.238233 2.61242 3.12104)
(0.501778 2.58981 3.1933)
(0.264774 2.70009 3.32138)
(-0.180283 2.78481 3.60411)
(1.08985 2.38659 3.83037)
(0.617795 2.75941 3.79878)
(0.209799 2.86262 3.65009)
(-0.128049 2.81057 4.028)
(1.68808 2.49772 3.47107)
(0.924335 2.6633 3.84481)
(0.287077 3.03339 3.9517)
(-0.10864 2.88871 3.95399)
(-0.436833 2.94624 4.0516)
(1.85458 2.72367 3.52837)
(1.63919 2.71067 3.46403)
(0.943285 2.72176 3.94471)
(-0.0475268 3.03731 3.94592)
(-0.339123 3.01164 4.07174)
(-0.56888 3.24771 3.62236)
(2.20084 2.87609 3.66223)
(2.35517 2.99702 3.29259)
(1.19666 2.87107 3.20105)
(0.43724 2.93873 3.16712)
(-0.0362152 3.26223 3.16416)
(-0.797388 3.17435 3.84684)
(-0.933223 3.12356 3.45607)
(2.52932 2.99665 3.41321)
(2.5603 3.01216 3.19852)
(1.00271 2.73856 2.90549)
(0.378272 2.78639 2.42103)
(0.438659 3.06181 2.76551)
(0.158044 3.45825 2.92198)
(-1.33522 2.85207 3.59852)
(-1.65966 2.59939 3.29022)
(3.21277 2.72814 2.24899)
(2.79762 3.36777 2.22255)
(1.18916 2.77269 2.62389)
(0.850211 2.92402 2.31795)
(1.31146 3.73417 2.26728)
(0.273047 3.72036 2.17606)
(-1.08251 3.2974 2.79044)
(-1.66861 2.6984 3.22417)
(-2.57524 2.04553 2.61183)
(3.59822 2.73646 0.559355)
(3.05406 2.54675 0.213653)
(2.53354 2.31467 1.18069)
(0.908982 3.2937 2.35943)
(0.76272 4.09635 1.31334)
(1.31616 3.48959 0.179928)
(-1.39019 2.63784 1.8164)
(-2.273 2.43185 2.39562)
(-2.56235 1.76114 2.80486)
(-2.47979 1.47745 2.28756)
(3.48411 2.46088 -0.568041)
(3.25773 2.30048 -0.46868)
(2.60839 2.8544 -0.222482)
(1.93284 3.46414 0.52312)
(0.634763 3.12011 0.954222)
(0.839807 1.88738 1.26638)
(-0.0915661 2.12265 0.637195)
(-1.3356 2.3983 0.611079)
(-2.51708 1.29162 2.30643)
(-2.65842 1.16581 1.93643)
(-2.48652 1.16018 1.44716)
(3.70765 1.85063 -0.578315)
(3.74453 2.15047 -0.667673)
(3.27439 1.84338 -0.674149)
(2.27949 1.86599 0.0775529)
(1.18182 1.39641 0.824575)
(0.733321 1.21448 0.317096)
(-0.437391 1.12835 -0.0226937)
(-1.34626 0.437126 0.976417)
(-1.21978 1.25244 0.0964606)
(-2.18623 1.17456 1.66355)
(-2.24102 1.26958 1.54046)
(-2.7964 0.388948 -0.124553)
(3.98346 1.13731 -1.14633)
(3.43417 1.46773 -1.6875)
(2.92652 0.741533 -0.520128)