/*--------------------------------*- C++ -*----------------------------------*\
  =========                 |
  \\      /  F ield         | OpenFOAM: The Open Source CFD Toolbox
   \\    /   O peration     | Website:  https://openfoam.org
    \\  /    A nd           | Version:  7
     \\/     M anipulation  |
\*---------------------------------------------------------------------------*/
FoamFile
{
    version     2.0;
    format      ascii;
    class       volScalarField;
    location    "0.5";
    object      nut;
}
// * * * * * * * * * * * * * * * * * * * * * * * * * * * * * * * * * * * * * //

dimensions      [0 2 -1 0 0 0 0];

internalField   nonuniform List<scalar> 
150000
(
0.00107806
0.00206452
0.00112228
0.000895309
0.00103355
0.00217183
0.00186348
0.00104071
0.00170803
0.00107879
0.00114276
0.00130753
0.000651987
0.000760038
0.00185356
0.00181674
0.00622947
0.00265837
0.00157025
0.00148639
0.000671437
0.00130513
0.00116159
0.000968886
0.00124135
0.00143852
0.000311653
0.00101169
0.000206078
0.000407775
0.00160566
0.00173085
0.00144331
0.0023489
0.00160352
0.000210915
0.00211399
0.00104315
0.00155001
0.00118495
0.00159122
0.000804046
0.000238065
0.000448344
0.00150478
0.001479
0.000830698
0.00123938
0.00144045
0.000312307
0.000183423
0.000347662
0.000314184
0.000586536
0.00064758
0.0016156
0.00139641
0.00142693
0.00190119
0.00158809
0.00115913
0.0014899
0.00269872
0.00262931
0.00124251
0.000769952
0.00169233
0.000732059
0.00285373
0.00363498
0.0028996
0.000770325
0.00159214
0.000942141
0.000173162
0.000277632
0.000358966
0.000678678
0.00152574
0.00173221
0.000593981
0.00113961
0.00135804
0.000356685
0.000324453
0.000176496
0.000145845
0.000338734
0.00103603
0.000913366
0.00100003
0.00162186
0.00133759
0.00137498
0.00205955
0.00126031
0.00127444
0.000651754
0.00176885
0.00215385
0.00135712
0.0014723
0.00105203
0.000184088
0.0016893
0.000470803
0.00233753
0.0011219
0.00197114
0.00119203
0.000687564
0.000320055
0.00107353
0.0005214
0.00124408
0.00210245
0.000447285
0.00128421
0.000974387
0.000143902
0.000343006
0.000226725
0.000177759
0.00017473
0.000572909
0.00108464
0.00185523
0.000383895
0.000961004
0.00119201
0.000395021
0.00040207
0.000183315
7.83165e-05
0.000161381
0.000269295
0.000310394
0.00142404
0.00115227
0.00117364
0.00137867
0.0011241
0.00175711
0.00223663
0.00116176
0.000967743
0.000827816
0.00165677
0.00230784
0.00111836
0.00108168
0.000481863
0.000529377
0.0011578
0.00186139
0.00205241
0.00114178
0.00151603
0.00072729
0.000415864
0.000609053
0.000455032
0.00177386
0.00237179
0.00223802
0.00098618
0.00119802
0.000736815
0.000535366
0.00037934
0.000343245
0.000271158
0.00132639
0.00205394
0.00586051
0.00200686
0.000263607
0.000942409
0.000980731
0.000184626
0.000358868
0.000205343
0.000107258
0.000246859
0.000148709
0.000388101
0.000424927
0.00181096
0.00170535
0.000535131
0.000743059
0.000985989
0.000412766
0.000446706
0.000177003
7.32488e-05
9.24194e-05
9.46489e-05
0.000125577
0.000374475
0.000319647
0.00153101
0.00123001
0.00119443
0.00132395
0.00113017
0.00152753
0.00209661
0.000954386
0.00108581
0.000514877
0.00188016
0.00239181
0.000972301
0.000971329
0.000378003
0.000500029
0.00138746
0.000817406
0.0021474
0.000838981
0.00108573
0.000411404
0.000476068
0.000405199
0.000743294
0.0010496
0.00172964
0.00185943
0.000971237
0.00152563
0.000764293
0.000659609
0.000529826
0.000323551
0.000398617
0.000643159
0.000953707
0.00116099
0.00208485
0.000829108
0.00173098
0.00042392
0.000433901
0.00045148
0.000299715
0.000194935
0.000390068
0.000278249
0.000996852
0.00190053
0.000270588
0.00181674
0.00022236
0.00067442
0.000889259
0.000168998
0.000361924
0.000189233
0.000116852
0.000135072
8.28521e-05
0.000293162
0.000299816
0.000297092
0.00106149
0.00188002
0.00136301
0.000347315
0.000505454
0.000752957
0.000413197
0.000446837
0.000165407
9.00248e-05
0.000138403
6.90815e-05
4.93951e-05
7.46497e-05
0.000133116
0.000438699
0.000314715
0.00151403
0.00120084
0.00109115
0.00150323
0.00112647
0.00137572
0.00197776
0.000957097
0.000907628
0.000480175
0.00211199
0.00229239
0.000900225
0.000771861
9.72502e-05
0.000418331
0.00114598
0.0013125
0.00204359
0.000741403
0.000856416
0.000250339
0.000636764
0.000502747
0.000679277
0.000800679
0.00175373
0.00192233
0.000713888
0.000898481
0.000308021
0.000565347
0.000493226
0.000315044
0.000437772
0.000628571
0.000862345
0.00149427
0.00172673
0.000816731
0.00144062
0.000744164
0.000479984
0.000477637
0.000157404
0.000293583
0.000475239
0.000323779
0.000289661
0.00183885
0.00108855
0.00195465
0.000650216
0.00159289
0.000257662
0.000488885
0.000465048
0.000266526
0.000145326
0.000226714
0.000205056
0.000352122
0.000346169
0.00099424
0.00202656
0.000738084
0.0013683
0.000251434
0.000433244
0.000790864
0.000146984
0.000344831
0.000185239
0.000115441
0.000154565
0.000104856
0.000100041
7.17223e-05
0.000278289
0.000380233
0.000152461
0.000908613
0.00174246
0.000947448
0.000273287
0.000246015
0.000510797
0.00038655
0.000410468
0.000148793
0.000112773
0.000181903
9.33767e-05
6.16517e-05
6.94387e-05
6.3906e-05
7.80863e-05
0.000169367
0.000455157
0.000295373
0.00137671
0.00109012
0.000914171
0.00151764
0.00121292
0.001134
0.00178312
0.000878208
0.0010753
0.000490793
0.00194761
0.00237713
0.000843467
0.000774661
0.00026668
0.000477036
0.000865739
0.00131999
0.0017056
0.000803958
0.000630228
9.77971e-05
0.000549692
0.000616256
0.000539482
0.000783707
0.00219593
0.00161714
0.000611715
0.000504758
0.000165924
0.000595044
0.000647007
0.000431222
0.000431192
0.000495022
0.00131278
0.00170491
0.00170383
0.000662427
0.000548587
0.000274066
0.00052681
0.000447696
0.000260454
0.000293967
0.000450286
0.000320809
0.000777817
0.00152441
0.00142949
0.00148068
0.000640071
0.00101306
0.000485417
0.000381921
0.000398719
0.000138959
0.000256702
0.000275487
0.000263578
0.000501267
0.00041831
0.000769122
0.00185692
0.0014899
0.00154926
0.000541967
0.00126893
0.000288799
0.000582601
0.00044154
0.000226875
0.000113907
0.000155804
0.000226286
0.000237246
0.000102051
0.000304986
0.000352529
0.000701161
0.00155572
0.00217755
0.00110096
0.000184304
0.000317184
0.000632837
0.000179169
0.000326826
0.000191451
0.000115112
0.000150731
0.000118432
9.48267e-05
8.0276e-05
9.19838e-05
0.000100315
0.000221411
0.000394851
0.000219191
0.000877916
0.0012344
0.00060062
0.000403354
0.000354226
0.000321955
0.000350894
0.000347075
0.000130617
0.00012518
0.000201855
9.60712e-05
8.20691e-05
5.26961e-05
4.25702e-05
8.13757e-05
0.000138004
8.53879e-05
0.000195259
0.000408359
0.000295028
0.00115817
0.000831846
0.000723249
0.00167065
0.00129056
0.00108187
0.0018925
0.00111388
0.000980127
0.000503187
0.00164755
0.00241388
0.00099911
0.000902581
0.000467256
0.000481658
0.00060206
0.00114447
0.00182906
0.000800847
0.000734284
0.000230867
0.000470604
0.000632788
0.00045164
0.000813649
0.0019025
0.00130314
0.00056635
0.000619449
9.99118e-05
0.000384951
0.000557472
0.000488695
0.000388478
0.000298868
0.000903534
0.00173135
0.00134053
0.000450289
0.000413487
0.000121011
0.000396277
0.000350797
0.000215862
0.00025646
0.000435337
0.000203297
0.000651606
0.00109336
0.00140497
0.00139952
0.000534102
0.000303024
0.000248736
0.000371392
0.00024894
0.000135478
0.000291544
0.000252613
0.000273483
0.000501979
0.000279658
0.00102348
0.00089654
0.00138208
0.00122239
0.000551624
0.000495116
0.00023627
0.000341896
0.000259287
0.000138211
0.000204563
0.000223718
0.000247795
0.000274355
0.00016652
0.000401015
0.000563567
0.000628244
0.00125159
0.00162871
0.00116099
0.000440775
0.000789315
0.000294006
0.000369486
0.000414639
0.000180152
0.000123107
0.000129919
0.000148634
0.000193195
0.000235875
0.000128948
0.000196718
0.000293339
0.000366313
0.000473428
0.000956257
0.0012875
0.000905107
0.000204704
0.000302016
0.000452915
0.00017288
0.000304024
0.000198395
0.000117674
0.000139658
0.000112662
0.000107491
8.12985e-05
7.61208e-05
8.1181e-05
0.000116657
0.000127972
0.000228826
0.000372155
8.18415e-05
0.000819693
0.00068347
0.000406822
0.000245132
0.000229985
0.000238576
0.000307077
0.000274451
0.000117108
0.000125838
0.000246033
0.000110504
9.01844e-05
6.98262e-05
4.21285e-05
3.84288e-05
5.12986e-05
8.68216e-05
0.00018064
8.2233e-05
0.000199388
0.00030021
0.000274603
0.000915846
0.000506401
0.000537185
0.00194932
0.00148323
0.00118421
0.00196905
0.00135869
0.000944652
0.000541946
0.00134526
0.00239532
0.00139278
0.00087611
0.000536855
0.000545688
0.000518561
0.00109208
0.00169632
0.00110094
0.000716037
0.000395684
0.000500752
0.000498701
0.000325939
0.000877949
0.00165347
0.00135253
0.000889436
0.000635928
0.000235706
0.000370248
0.000478327
0.000390912
0.000527486
0.000213071
0.00054814
0.00103487
0.00123711
0.000752947
0.00050531
9.57646e-05
0.000187228
0.000239252
0.000361019
0.000272304
0.000519219
0.000143687
0.000541049
0.00048643
0.00103425
0.00107559
0.000456644
0.000327759
0.000121523
0.000282236
0.00013996
0.000153224
0.000212829
0.000218822
0.000216863
0.000143375
0.000359712
0.00053581
0.00052373
0.00123238
0.00105337
0.000455269
0.000174627
0.000253638
0.000261263
0.000224466
9.4217e-05
0.000215756
0.000193812
0.000199924
0.00027566
0.000126522
0.000494389
0.000512855
0.000667954
0.000489104
0.00136113
0.00111511
0.000345684
0.000159944
0.000182294
0.000323898
0.000220781
0.000132077
0.000171804
0.000142945
0.000199588
0.000204593
0.000245956
0.000118448
0.000230736
0.000331582
0.000569271
0.000682024
0.00078127
0.00162099
0.000960282
0.000331386
0.000438592
0.000219314
0.000239137
0.000298028
0.000157249
0.000144594
0.000121819
0.000117452
0.000155067
0.000159246
0.000188686
0.000136781
0.000224365
0.000215089
0.000282902
0.000411465
0.000493571
0.000521752
0.00172433
0.000675939
0.000194457
0.000285697
0.000317821
0.000142667
0.000269786
0.00020332
0.000116639
0.000136426
0.000104719
0.000102126
9.10049e-05
6.99225e-05
7.19894e-05
7.42906e-05
9.46059e-05
0.000150176
0.000140435
0.000232074
0.000354966
0.000108752
0.000696486
0.000348757
0.000314138
0.000388561
0.000299536
0.000246936
0.000278407
0.000207167
0.000101073
0.000120837
0.000244904
0.000118604
0.0001
7.55919e-05
5.49084e-05
3.30726e-05
3.39602e-05
4.46803e-05
7.22002e-05
8.98448e-05
0.000208997
9.54349e-05
0.000187741
0.000185244
0.000278011
0.000672681
0.000370265
0.00036805
0.00226863
0.0016478
0.00119601
0.00230883
0.0014566
0.00101345
0.000752119
0.00135182
0.00234826
0.00131879
0.000815341
0.000631895
0.000713394
0.000670776
0.00110247
0.00185079
0.00127291
0.000850862
0.000608187
0.000667418
0.000468608
0.00054323
0.000824394
0.00153563
0.0014931
0.00110693
0.000658391
0.000377592
0.000355949
0.000423314
0.00034901
0.000630427
0.00016079
0.000704413
0.00106187
0.00128292
0.000902519
0.000457847
0.000206143
0.000215606
0.000282282
0.000341507
0.000285868
0.000523955
0.000335316
0.000471495
0.000368626
0.000811468
0.00112222
0.000677035
0.000330456
0.000126986
0.000223258
0.000160828
0.000264386
0.000231833
0.000230528
0.000225613
0.000331781
0.00063001
0.000536162
0.000203904
0.000791482
0.000917211
0.000389182
0.000208632
0.000139139
0.000256627
0.000123777
0.000129035
0.000140564
0.000155779
0.000162827
0.000181539
0.000200038
0.000494466
0.000671746
0.000544194
0.000307084
0.0010262
0.000916892
0.000305714
0.000126299
0.000185159
0.000212371
0.000211083
9.87149e-05
0.000131046
0.000138336
0.00014684
0.00014312
0.000222235
0.000150245
0.00025108
0.000411695
0.000442249
0.000537153
0.00037791
0.00109298
0.000840639
9.98809e-05
0.000182128
0.000158045
0.000271143
0.000168562
0.000106044
0.000123356
0.000105835
0.000135384
0.000152047
0.000157079
0.000212814
0.000101701
0.000241991
0.000333348
0.000142642
0.000360052
0.00048734
0.000721771
0.00155696
0.000746619
0.000315648
0.000375539
0.000165115
0.000194638
0.000192816
0.000136925
0.000143483
0.000116714
9.77252e-05
0.000108662
0.000146339
0.000138417
0.000147345
0.000107227
0.00022907
0.000258731
0.000163481
0.000214853
0.000468397
0.000433752
0.000403958
0.00156867
0.000518603
0.000149356
0.000180541
0.000261335
0.000150858
0.000230507
0.00019978
0.000112056
0.000126286
9.83822e-05
9.31855e-05
8.50215e-05
7.47615e-05
5.90231e-05
6.44016e-05
6.96818e-05
9.20694e-05
0.000117417
0.00015868
0.000133953
0.000246103
0.000307313
0.000138045
0.000547595
0.000263057
0.000268689
0.000280728
0.000266461
0.000236996
0.000250792
0.000158834
9.01174e-05
0.00011106
0.000194357
0.000120074
0.000104581
8.10303e-05
5.94055e-05
4.15428e-05
2.69665e-05
2.97217e-05
3.8864e-05
6.0358e-05
8.53523e-05
8.73102e-05
0.000252632
0.000111801
0.000167406
0.000114341
0.000244635
0.000453361
0.000502562
0.000328243
0.00270385
0.00196651
0.00129623
0.00286294
0.00159504
0.00113047
0.000849973
0.00134861
0.00261937
0.00128776
0.00102682
0.000880642
0.000757441
0.000619424
0.00123869
0.002089
0.00106606
0.000904004
0.000701181
0.000631977
0.000397332
0.000756953
0.000835182
0.00129864
0.00165016
0.000987278
0.000653694
0.000472076
0.000401201
0.000391262
0.000320205
0.000645979
0.000396228
0.000507924
0.00113583
0.00126688
0.000790522
0.000437266
0.0002784
0.000190868
0.000338377
0.000307354
0.000243892
0.00046229
0.000546426
0.000275929
0.000304601
0.00100003
0.0010615
0.000494649
0.000235563
0.000205315
0.000169342
0.000238818
0.000277642
0.000196788
0.000194496
0.000296217
0.000448618
0.000681308
0.000499023
0.000331131
0.000879469
0.000871115
0.000388547
0.000162425
0.000140579
0.000168452
0.000146333
0.000149679
0.000152454
0.000164713
0.000166357
0.000199906
0.000201375
0.000625583
0.00077403
0.000708042
0.000224033
0.000698146
0.000860853
0.000270287
0.000116582
0.000152941
0.000211956
0.000124229
0.000123771
0.000126141
0.000104542
0.000113859
0.000122808
0.000156384
0.000141931
0.000253698
0.000504641
0.000711413
0.000654633
0.000218845
0.000593156
0.000774583
0.000212128
0.000119766
0.000152139
0.000272273
0.000161527
9.46999e-05
9.80066e-05
0.000101982
0.000109688
0.000111208
0.000107982
0.000161285
0.000169875
0.000280979
0.000296707
0.000225127
0.000461167
0.0004533
0.000172455
0.000646533
0.00059498
9.92451e-05
0.000147001
0.000142202
0.000225866
0.000135291
7.95443e-05
0.000102762
8.35125e-05
0.000102148
0.000108219
0.000109956
0.000105767
0.000171312
0.000121736
0.000232818
0.000280005
0.000256853
0.000142423
0.000266356
0.000285652
0.000546366
0.00105354
0.000626233
0.00031683
9.61115e-05
0.000190333
0.00016124
0.000182756
0.000136825
0.000136216
0.000103467
8.97477e-05
8.32447e-05
9.83644e-05
0.000118524
0.000106191
0.000120668
8.37824e-05
0.000182816
0.000251361
0.000191916
0.000129016
0.000212086
0.000441141
0.000365432
0.000501411
0.00115417
0.000456462
0.000133858
0.000107675
0.000238771
0.000116487
0.000213664
0.000195963
0.000100912
0.000113754
9.08746e-05
8.6055e-05
7.71206e-05
7.04354e-05
6.13595e-05
5.07149e-05
5.73775e-05
6.42755e-05
8.44395e-05
0.000109986
0.000127004
0.000149205
0.000126984
0.000244052
0.000290959
0.000123392
0.00038835
0.000257499
0.000240724
0.000261959
0.000302725
0.000203688
0.000222927
0.000148167
9.82661e-05
9.79402e-05
0.000166623
0.000114745
0.000104716
8.28658e-05
6.32268e-05
4.47046e-05
3.17678e-05
2.28536e-05
2.67488e-05
3.3235e-05
4.89233e-05
7.18861e-05
9.28618e-05
9.82978e-05
0.000240071
0.000117933
0.000145059
9.22082e-05
0.000227209
0.000357153
0.000251587
0.000287559
0.00298618
0.00248942
0.000788129
0.0030667
0.00157453
0.00115712
0.00098113
0.00126789
0.00308113
0.00134989
0.0012857
0.000985989
0.000831373
0.000833695
0.00133164
0.00233426
0.000869021
0.000768859
0.000778025
0.000670527
0.00048095
0.000799454
0.00104881
0.00144355
0.00174978
0.00063929
0.000356643
0.000483069
0.000443168
0.000370895
0.000371943
0.000612806
0.00075481
0.000658859
0.00124771
0.00149372
0.000538708
0.000266363
0.000204911
0.000222432
0.000311456
0.000328925
0.000219939
0.000410515
0.000712152
0.000514144
0.000435925
0.00110997
0.00121747
0.000479099
0.000177942
0.000134266
0.000129145
0.000293411
0.000255436
0.000204795
0.000180791
0.000340534
0.000528757
0.000628045
0.000523359
0.00041736
0.000895395
0.000959628
0.000397473
0.000150989
0.000166477
0.000116383
0.000176468
0.000153507
0.000170042
0.000143207
0.00015101
0.000237135
0.000262377
0.000510286
0.000550757
0.000574439
0.000298693
0.000777544
0.000720631
0.000330953
0.000122139
0.000138832
0.000180571
0.000109361
0.000121904
0.000121614
0.000116489
0.00013036
0.000124161
0.000168062
0.000148993
0.000267702
0.000421761
0.000566217
0.000580004
0.000182162
0.000649125
0.000767667
0.00016293
5.70248e-05
7.9516e-05
0.000214114
0.000126052
0.000147892
0.000129195
0.000104
9.4775e-05
9.62267e-05
0.000108608
0.00013099
0.000140006
0.00023607
0.000278378
0.000291824
0.000485753
0.000496483
0.000152669
0.000429717
0.000629273
0.00018631
8.6495e-05
0.000157016
0.000177345
0.000116762
8.8297e-05
0.000101633
8.68167e-05
9.41184e-05
9.29816e-05
9.36776e-05
8.45018e-05
0.000124072
0.00014936
0.000236025
0.00026544
0.000292541
0.000194201
0.00037653
0.00037704
0.000164889
0.000268471
0.000476498
7.60594e-05
0.000116088
0.000107329
0.000204197
0.000105945
5.92355e-05
8.00181e-05
8.01486e-05
8.87074e-05
9.43997e-05
9.12464e-05
8.62327e-05
8.26337e-05
0.00013052
0.000127484
0.000216412
0.000246358
0.0002283
0.000209043
0.000179168
0.000223913
0.000315124
0.000259678
0.00052446
0.000596716
0.000318863
0.000259663
0.000129289
0.000193387
0.000142379
0.000123312
0.000126082
8.99835e-05
7.9719e-05
7.40871e-05
7.27695e-05
8.37682e-05
8.99738e-05
7.69891e-05
0.00010229
7.0189e-05
0.000141046
0.000210142
0.000170947
0.000132457
0.000159995
0.000175401
0.000319167
0.000374918
0.000293967
0.000826234
0.000312641
0.000142292
0.000108395
0.000177009
0.000145028
0.00020505
0.000194652
9.99493e-05
0.000102391
8.38027e-05
8.03003e-05
7.12055e-05
6.48562e-05
5.89959e-05
5.19806e-05
4.42018e-05
5.14641e-05
5.62629e-05
7.21861e-05
9.36283e-05
0.000115572
0.000113721
0.000137067
0.000123536
0.000233193
0.00026898
0.000161898
0.000250471
0.000282026
0.000255319
0.000330095
0.000361669
0.000200459
0.000222158
0.000138207
9.10495e-05
8.65131e-05
0.000132344
0.000104227
0.00010065
8.1748e-05
6.44822e-05
4.72031e-05
3.37665e-05
2.50564e-05
2.05441e-05
2.41649e-05
2.88888e-05
3.90274e-05
5.74755e-05
7.82542e-05
9.82834e-05
0.000104455
0.000186197
0.000112983
0.000127974
0.000137612
0.000206549
0.000286609
0.000237097
0.000296751
0.0031561
0.00264762
0.000797949
0.00331097
0.00160164
0.0011134
0.000966299
0.00118778
0.00320722
0.00122083
0.00125112
0.00112627
0.000804475
0.00104657
0.00120072
0.00272591
0.000922957
0.000875188
0.000971436
0.000709001
0.000525447
0.00089127
0.000969166
0.00144621
0.00203145
0.000616958
0.000352355
0.00050768
0.000478556
0.000426722
0.000410731
0.000521616
0.000833502
0.000677225
0.00123513
0.00163934
0.000531926
0.00020229
0.00022671
0.000224829
0.000322518
0.00031355
0.000255762
0.000370295
0.000669305
0.000773328
0.000438317
0.00101887
0.00150946
0.000485998
0.000217367
0.00011695
0.000151349
0.000259419
0.000282934
0.000202612
0.000172832
0.000264052
0.000464397
0.000553525
0.000586254
0.000481063
0.000853815
0.00142495
0.000402955
0.000115795
7.60177e-05
0.000106815
0.000206145
0.000177252
0.000178972
0.000152831
0.000147977
0.000216355
0.000343544
0.000448914
0.000457824
0.000506786
0.000359674
0.000698932
0.0011508
0.000308205
0.0001383
7.19559e-05
7.49746e-05
0.000147243
0.000115459
0.000144963
0.000121316
0.00012883
0.000119531
0.00017338
0.000221601
0.00034404
0.000331724
0.000381128
0.000419253
0.000263198
0.000616618
0.000973602
0.000274229
0.000134921
0.000117637
0.000124446
0.000100365
9.0705e-05
0.000115227
0.000116607
0.000117711
0.000111314
0.00011784
0.000134294
0.000151595
0.000247636
0.000279725
0.000300402
0.000299073
0.000381013
0.00017511
0.000490563
0.000680512
0.000170333
6.64263e-05
7.22464e-05
0.000146744
9.16775e-05
0.000114746
0.000125477
0.000104802
9.5447e-05
9.01492e-05
9.90171e-05
8.92177e-05
0.000117212
0.000127738
0.00017991
0.00021673
0.000214485
0.000159728
0.000259139
0.000370278
0.000115723
0.000311803
0.000487665
0.000188663
8.47616e-05
0.000136563
0.000141194
8.65785e-05
8.50346e-05
9.04275e-05
8.83025e-05
8.89509e-05
8.73379e-05
8.61824e-05
7.89296e-05
7.8657e-05
9.35867e-05
0.000122811
0.000173718
0.000209578
0.000195558
0.000231525
7.54865e-05
0.000238909
0.000292577
0.000148276
0.000137343
0.000408066
6.41036e-05
0.000119672
9.75522e-05
0.000184365
9.01252e-05
5.51207e-05
6.79086e-05
7.84268e-05
8.81645e-05
8.90682e-05
8.65232e-05
8.07615e-05
7.6778e-05
7.1422e-05
9.75813e-05
0.00010984
0.000177267
0.00021244
0.000204537
0.000142121
0.000176288
0.000157371
0.000186753
0.000289799
0.000151359
0.00019395
0.000384848
0.000280532
0.000500321
0.000193377
0.000361449
8.10802e-05
0.000104935
0.000110868
8.10373e-05
6.98196e-05
6.84768e-05
6.50246e-05
6.51407e-05
7.00612e-05
6.84876e-05
5.79947e-05
7.73253e-05
6.567e-05
0.000115681
0.000166698
0.000161668
0.000121977
0.000121465
0.000155941
0.00015492
0.000262765
0.00040817
0.000144891
0.000490841
0.000385937
0.000135352
9.34497e-05
0.000147957
0.000176596
0.000205551
0.000212516
0.000105126
9.50696e-05
7.76715e-05
7.55104e-05
6.70533e-05
6.09024e-05
5.58627e-05
5.0803e-05
4.46883e-05
4.05563e-05
4.55631e-05
4.95623e-05
6.16461e-05
7.80086e-05
9.74581e-05
0.000103585
0.000100392
0.000123396
0.000116338
0.000223947
0.000250088
0.000172659
0.000181794
0.000294986
0.000236565
0.000258287
0.000229098
0.00020278
0.000206578
0.000104572
0.000102608
7.68655e-05
9.95873e-05
8.95302e-05
9.30967e-05
7.77743e-05
6.36899e-05
4.80475e-05
3.51997e-05
2.61788e-05
2.12969e-05
1.84237e-05
2.23796e-05
2.53424e-05
3.1795e-05
4.43594e-05
6.2081e-05
8.09345e-05
9.94046e-05
0.000103183
0.000165987
0.000102754
0.000107799
0.000182734
0.000199175
0.000203887
0.000443546
0.000350778
0.00232413
0.00258861
0.00176995
0.00310812
0.00201227
0.00119582
0.000909842
0.000957155
0.0034462
0.00112923
0.00127521
0.00106159
0.000488083
0.000929397
0.001349
0.00296938
0.000877179
0.000709934
0.000853122
0.000561352
0.0005074
0.000963265
0.00124338
0.00124176
0.00245415
0.000714804
0.000378048
0.000507685
0.00050674
0.000456176
0.000385807
0.000576895
0.00097297
0.000802783
0.00140471
0.00162743
0.000578275
0.000222433
0.000298096
0.000283516
0.000375972
0.000390507
0.000316707
0.000440263
0.000620085
0.000805485
0.000781319
0.00115023
0.0016014
0.00047416
0.000148599
0.000183652
0.000175762
0.000293259
0.00026051
0.000224986
0.000194642
0.000279746
0.000403611
0.000516583
0.00076029
0.000704099
0.000869555
0.00146516
0.000423572
0.00012169
9.90942e-05
0.000107025
0.000183216
0.000176872
0.000193851
0.000155231
0.000154985
0.000196102
0.000309874
0.000360484
0.000397635
0.000565068
0.000584523
0.000853595
0.00126692
0.000378887
0.000120449
8.54522e-05
0.000101254
0.000167358
0.000137274
0.000160714
0.000148931
0.000142398
0.000121438
0.00016187
0.000236272
0.000309596
0.000310376
0.000353085
0.000326384
0.000385441
0.000671696
0.00106
0.000303957
0.000100538
9.43657e-05
6.63834e-05
0.000126678
0.000117136
0.000130638
0.000126246
0.000121617
0.000112736
0.000128343
0.000131795
0.00018216
0.000239543
0.000223953
0.000267578
0.000240339
0.000302234
0.00028903
0.000463783
0.000787987
0.000262353
0.000118197
6.67274e-05
0.000115358
0.000110861
9.20795e-05
0.000112556
0.000118037
0.000120931
0.000109899
0.000115652
9.17664e-05
0.000128095
0.000134504
0.000182225
0.000189225
0.000158322
0.000209144
0.000158968
0.000258324
0.000154025
0.00032309
0.000495726
0.000166084
7.3687e-05
9.95921e-05
0.000134227
9.78769e-05
5.69567e-05
9.1904e-05
0.000101004
9.72838e-05
8.83668e-05
9.75276e-05
8.64248e-05
9.24349e-05
9.59374e-05
0.000117493
0.000139446
0.000152014
0.000141897
0.000157541
0.000146117
0.000181019
0.000246255
9.10032e-05
0.000219175
0.000335951
0.000186009
0.00010456
9.46949e-05
0.000138832
6.962e-05
8.32373e-05
8.24673e-05
8.46332e-05
8.55313e-05
8.69076e-05
8.82882e-05
7.77198e-05
7.82004e-05
7.37441e-05
8.48272e-05
9.7005e-05
0.000128766
0.000146977
0.000149434
0.000143932
0.000157967
9.17908e-05
0.000168612
0.000173213
9.93892e-05
8.6088e-05
0.000239371
0.000103831
7.27027e-05
9.88883e-05
0.000158794
9.59998e-05
4.38982e-05
7.6044e-05
7.00734e-05
8.8024e-05
8.69429e-05
8.48283e-05
7.74034e-05
7.50701e-05
6.93367e-05
6.32096e-05
8.01627e-05
9.64159e-05
0.000131775
0.0001637
0.000154458
0.000134713
0.00010809
0.00013272
0.000116124
0.000119686
0.000214476
8.3117e-05
0.000105036
0.00028403
0.000344611
0.00018319
0.000183851
0.000328004
0.00016406
7.94755e-05
9.60561e-05
7.33641e-05
6.31729e-05
6.36279e-05
6.17692e-05
5.99184e-05
5.9923e-05
6.00658e-05
5.42691e-05
4.95431e-05
6.01389e-05
5.9153e-05
0.000100764
0.000137977
0.000148907
0.000109624
9.79855e-05
0.000110632
0.000133997
0.000148781
0.000183425
0.000416991
8.53938e-05
0.000214066
0.000340122
0.000153534
7.18322e-05
0.000128946
0.000176936
0.000222254
0.000187678
0.000105453
9.17715e-05
7.3295e-05
7.12788e-05
6.38323e-05
5.80472e-05
5.37582e-05
4.93292e-05
4.4228e-05
4.07505e-05
3.5265e-05
4.21155e-05
4.40036e-05
5.2842e-05
6.43889e-05
7.98675e-05
8.63594e-05
8.99341e-05
8.99336e-05
0.000112206
0.000104649
0.000214094
0.000223796
0.000179219
0.000177804
0.000310001
0.000224977
0.000242409
0.00019296
0.000196946
0.000176695
7.18034e-05
0.00011101
6.53082e-05
7.18944e-05
7.33669e-05
8.30323e-05
7.14737e-05
6.09196e-05
4.76707e-05
3.56771e-05
2.69745e-05
2.18824e-05
1.85245e-05
1.84705e-05
2.05164e-05
2.3034e-05
2.6606e-05
3.44328e-05
4.72049e-05
6.34483e-05
8.00301e-05
9.63047e-05
9.57825e-05
0.000137121
9.14731e-05
9.62828e-05
0.000172077
0.000212485
0.000200524
0.000253038
0.000292658
0.00200582
0.00255838
0.00202592
0.00236231
0.00240612
0.00165228
0.0012942
0.00187823
0.00303781
0.00107797
0.00113358
0.000871457
0.000344101
0.00115135
0.00102078
0.00326838
0.000859022
0.000265427
0.00044227
0.000352394
0.00047595
0.00071618
0.000918335
0.00115213
0.00267279
0.000835469
0.000344283
0.000458509
0.000372825
0.000423264
0.000372638
0.000642715
0.0011943
0.00113648
0.00109775
0.00201675
0.00068311
0.000237048
0.000375005
0.000363083
0.000402433
0.000423343
0.000324898
0.000431221
0.000652144
0.000932177
0.000921133
0.00107002
0.00156635
0.000564249
0.000163506
0.000202852
0.00023806
0.000337293
0.000306825
0.00027628
0.000224036
0.000312307
0.000448421
0.000570189
0.000871155
0.000899322
0.00110322
0.00136242
0.000465021
0.000122321
0.000155861
0.000141584
0.000219009
0.000214125
0.00020424
0.00018816
0.000178973
0.000220551
0.000297782
0.000369111
0.000440517
0.000749264
0.000754537
0.000973076
0.00117277
0.000394296
0.000142109
0.000118708
7.98476e-05
0.000178041
0.000143319
0.000169459
0.00016134
0.000154331
0.000132111
0.000162463
0.000210165
0.000258546
0.000361646
0.000368202
0.000432226
0.000534739
0.000723654
0.000959967
0.000351261
0.000117662
8.14012e-05
0.000100726
0.000175607
0.000118052
0.000156965
0.000154228
0.000148
0.000123351
0.000144846
0.000126359
0.000168805
0.000206902
0.000222864
0.000296858
0.000319071
0.000257498
0.000363474
0.000371459
0.000654763
0.000279875
0.000102208
0.000119654
8.38379e-05
0.000116493
0.000109673
0.0001229
0.000127585
0.000127327
0.00011417
0.000127644
9.30667e-05
0.000137791
0.000140966
0.00016672
0.000179318
0.000177124
0.000237093
0.000223933
0.000228637
0.000227291
0.000243113
0.000467146
0.000259543
0.000109174
7.05284e-05
0.000100228
0.000105836
0.000116924
0.000122713
0.0001158
0.000119842
0.000113638
0.000118813
9.35544e-05
0.00010428
9.73034e-05
0.000130398
0.0001346
0.000140488
0.000117316
0.000142272
0.000114206
0.000132739
0.000197204
0.000138062
0.000218818
0.000328547
0.000153042
8.79113e-05
9.6937e-05
0.00010665
9.60828e-05
6.23315e-05
7.16817e-05
8.65446e-05
9.66806e-05
9.29477e-05
9.43247e-05
8.85653e-05
9.19932e-05
8.43461e-05
9.77158e-05
9.57345e-05
0.000119141
0.000115045
0.000108147
0.000112151
0.000121105
0.00015474
0.000181149
0.000205968
0.000104722
0.000174166
0.000243307
0.000167054
0.000110729
9.25644e-05
0.000137385
6.52807e-05
7.59472e-05
8.366e-05
8.0226e-05
8.15796e-05
8.31323e-05
8.63766e-05
7.98255e-05
7.8158e-05
7.47877e-05
7.01703e-05
7.77977e-05
8.575e-05
9.45121e-05
0.00010957
0.000112648
0.000115074
9.52711e-05
0.000118818
0.000112395
0.000120427
0.000166959
6.24888e-05
5.08386e-05
0.000210347
0.000131578
3.02599e-05
0.000146587
0.000124389
6.15156e-05
3.25329e-05
5.7167e-05
7.17447e-05
8.23237e-05
8.61371e-05
8.13566e-05
7.7199e-05
7.09196e-05
6.83425e-05
6.1736e-05
5.9123e-05
6.8892e-05
8.12833e-05
9.69801e-05
0.00011215
0.000110697
0.000111114
0.000103861
8.2278e-05
8.46171e-05
7.31739e-05
0.000102167
0.000159421
7.49229e-05
5.18431e-05
0.000330662
0.000279791
0.000131769
0.000186202
0.000125159
0.000176771
6.34192e-05
8.43746e-05
6.76948e-05
5.89621e-05
6.02927e-05
5.91094e-05
5.71498e-05
5.67727e-05
5.54477e-05
5.20961e-05
4.8498e-05
4.31316e-05
5.23124e-05
5.24095e-05
7.72721e-05
0.000105033
0.000120507
9.69012e-05
8.54546e-05
8.97434e-05
9.46216e-05
0.000117063
0.000133393
0.000128271
0.000160131
0.000152999
9.46461e-05
0.000145169
0.00017646
4.42913e-05
0.000125975
0.000163846
0.000180881
0.00014541
0.000103103
8.88788e-05
6.99381e-05
6.78229e-05
6.10987e-05
5.60501e-05
5.19674e-05
4.82233e-05
4.35178e-05
4.06076e-05
3.54853e-05
3.63174e-05
3.68453e-05
4.12049e-05
4.58758e-05
5.43734e-05
6.51067e-05
7.19611e-05
7.53609e-05
8.05304e-05
8.3494e-05
0.00010237
0.000103315
0.000208894
0.000192179
0.000164755
0.000195866
0.00023712
0.000216209
0.000270449
0.000242052
0.000186148
0.00014113
5.84991e-05
8.60625e-05
6.79156e-05
5.21794e-05
5.8387e-05
7.1645e-05
6.36017e-05
5.65216e-05
4.61413e-05
3.55294e-05
2.72806e-05
2.23952e-05
1.90111e-05
1.81357e-05
1.5347e-05
2.0682e-05
2.06518e-05
2.3408e-05
2.75115e-05
3.57544e-05
4.77088e-05
6.20304e-05
7.61403e-05
8.94237e-05
8.37525e-05
0.000108703
8.11696e-05
8.87208e-05
0.000179968
0.00019622
0.000164588
0.000217043
0.000284627
0.00215814
0.00224529
0.00150792
0.00200511
0.00219454
0.00153532
0.00144382
0.00211578
0.00240151
0.00162179
0.000914202
0.000941382
0.000642151
0.00134282
0.0022206
0.00280465
0.00127227
0.000289399
0.000406664
0.000451016
0.000435848
0.000977871
0.00118888
0.0015598
0.00313619
0.000890657
0.000451288