/*--------------------------------*- C++ -*----------------------------------*\
  =========                 |
  \\      /  F ield         | OpenFOAM: The Open Source CFD Toolbox
   \\    /   O peration     | Website:  https://openfoam.org
    \\  /    A nd           | Version:  7
     \\/     M anipulation  |
\*---------------------------------------------------------------------------*/
FoamFile
{
    version     2.0;
    format      ascii;
    class       volScalarField;
    location    "0.5";
    object      p;
}
// * * * * * * * * * * * * * * * * * * * * * * * * * * * * * * * * * * * * * //

dimensions      [0 2 -2 0 0 0 0];

internalField   nonuniform List<scalar> 
150000
(
-94.0899
-95.4919
-94.6662
-93.9944
-93.6279
-94.1021
-95.8507
-93.6859
-95.2385
-95.2736
-94.5215
-95.0255
-93.7084
-93.3665
-95.8165
-94.7997
-82.8626
-93.6452
-96.2572
-94.0653
-96.6465
-93.3016
-95.1159
-95.8192
-95.232
-95.5575
-97.3324
-94.7187
-93.6586
-93.2735
-96.9757
-96.1949
-97.1913
-95.4799
-95.4152
-88.8646
-96.3669
-77.7195
-93.569
-96.6322
-94.7808
-96.7178
-97.8338
-96.644
-92.977
-95.094
-96.2745
-95.9904
-96.209
-97.3551
-97.4925
-97.3178
-94.6527
-93.7868
-93.3367
-97.5488
-97.1301
-97.2361
-96.7973
-96.5651
-97.5802
-97.3984
-96.7861
-95.4036
-95.9884
-92.3825
-96.6727
-97.5486
-96.0701
-60.5746
-93.8644
-96.9297
-95.5512
-96.8368
-97.8441
-97.8522
-97.8253
-96.6581
-93.358
-95.2138
-96.6429
-96.6701
-96.8507
-97.3889
-97.5012
-97.6893
-97.4908
-97.313
-94.7574
-94.0909
-93.607
-97.8202
-97.7088
-97.8988
-97.4599
-97.3227
-97.5675
-97.6831
-96.7252
-96.7013
-96.9165
-97.4571
-97.441
-97.7367
-97.3625
-97.1004
-95.5276
-96.4497
-94.0258
-96.9429
-97.5691
-97.9275
-97.4946
-95.946
-78.1481
-94.5251
-97.1353
-96.2493
-96.9745
-97.8567
-97.8634
-97.8726
-97.8419
-97.8119
-96.7116
-93.7511
-95.5032
-96.947
-97.1972
-97.4014
-97.4344
-97.5167
-97.6952
-97.8545
-97.6845
-97.4938
-97.3181
-95.0601
-94.612
-94.0732
-97.9153
-97.9878
-97.9258
-97.5842
-97.8287
-97.9799
-97.8207
-97.9466
-97.3229
-97.4996
-97.7818
-97.7449
-97.6919
-97.7158
-96.2846
-96.6639
-97.2056
-97.3914
-97.4542
-97.7737
-97.8736
-97.7342
-97.3462
-96.8831
-95.8125
-96.8018
-95.3516
-97.1595
-97.605
-97.9387
-97.8895
-97.9213
-97.3675
-96.1978
-84.1032
-95.2974
-97.2588
-96.7979
-97.158
-97.8715
-97.8761
-97.8748
-97.901
-97.8698
-97.8344
-97.8145
-96.8024
-94.2065
-95.8892
-97.3905
-97.5614
-97.8126
-97.4898
-97.5393
-97.702
-97.8549
-97.9549
-97.8543
-97.6816
-97.4979
-97.3327
-95.5813
-95.3005
-94.6435
-97.8587
-97.9536
-97.7577
-97.775
-97.9585
-98.0345
-97.8784
-97.8705
-97.5279
-97.9152
-97.9463
-97.8538
-97.7534
-97.7575
-97.7863
-97.2164
-97.6642
-97.8718
-97.8071
-97.7341
-98.0061
-97.6178
-97.6879
-96.5036
-96.9059
-97.3933
-97.4255
-97.4937
-97.7785
-97.8686
-97.9916
-97.878
-97.754
-97.327
-97.4134
-96.278
-97.08
-96.1801
-97.3132
-97.6488
-97.9521
-97.9055
-97.8994
-97.8787
-97.9167
-97.3951
-96.4927
-90.0105
-95.875
-97.336
-97.1663
-97.3703
-97.8899
-97.8888
-97.8771
-97.9019
-97.9867
-97.9003
-97.8667
-97.8312
-97.8166
-96.9099
-95.0173
-96.2845
-98.0055
-97.8038
-98.0841
-97.5498
-97.5671
-97.7089
-97.8557
-97.9559
-98.0859
-97.9545
-97.8541
-97.6811
-97.5035
-97.3539
-96.2014
-96.0358
-95.198
-97.6344
-97.7509
-97.7077
-97.7668
-97.9402
-97.8033
-97.8097
-97.5618
-97.7212
-97.9729
-97.9546
-97.9101
-97.8189
-97.8023
-97.7879
-97.521
-97.9556
-97.9323
-97.8764
-97.7243
-97.9787
-97.733
-97.8064
-97.4392
-97.3376
-97.7235
-97.8685
-97.8483
-97.766
-97.9956
-98.0435
-98.0064
-97.6091
-97.6482
-96.9148
-97.0736
-97.5046
-97.5051
-97.5556
-97.7854
-97.8696
-97.9998
-97.927
-97.9781
-97.8823
-97.7786
-97.3188
-97.8689
-96.6679
-97.285
-96.7493
-97.4246
-97.6985
-97.9699
-97.9185
-97.9
-98.0088
-97.897
-97.8781
-97.9136
-97.4756
-96.8273
-93.2252
-96.4449
-97.4616
-97.3979
-97.5544
-97.9113
-97.9008
-97.8803
-97.9033
-97.9878
-98.1048
-97.986
-97.8997
-97.8631
-97.8308
-97.8128
-97.0452
-95.854
-96.6194
-98.3142
-97.9738
-98.2379
-97.6079
-97.597
-97.7156
-97.8571
-97.9576
-98.0866
-98.1902
-98.0855
-97.9545
-97.854
-97.6831
-97.5116
-97.3784
-96.8045
-96.7037
-95.644
-97.7021
-97.5833
-97.9375
-97.784
-97.7932
-97.7501
-97.8192
-97.6086
-97.7593
-97.9382
-97.9024
-97.8301
-97.8479
-97.7735
-97.8187
-97.7924
-97.9688
-97.9704
-97.9047
-97.8158
-97.9385
-97.8124
-97.8186
-97.6419
-97.6753
-97.9198
-97.9224
-97.8785
-97.7342
-97.9681
-98.0948
-97.9795
-97.7348
-97.7293
-97.4108
-97.4619
-97.7534
-97.8522
-97.8536
-97.7724
-97.975
-98.0333
-97.9923
-98.0374
-98.0099
-97.5276
-97.7216
-97.3109
-97.343
-97.601
-97.635
-97.6181
-97.7828
-97.8721
-97.9951
-97.9324
-98.0447
-97.9236
-97.9564
-97.8799
-97.7628
-97.4527
-97.5788
-97.0172
-97.4103
-97.1374
-97.5158
-97.7623
-97.9949
-97.9281
-97.9036
-98.0102
-98.1083
-98.0066
-97.8959
-97.8828
-97.913
-97.5555
-97.1302
-94.5663
-96.88
-97.663
-97.5437
-97.7019
-97.9443
-97.9117
-97.8841
-97.9052
-97.9894
-98.1057
-98.2033
-98.1041
-97.9856
-97.8996
-97.8607
-97.8341
-97.8178
-97.1905
-96.5598
-96.8642
-98.4135
-98.1895
-98.2818
-97.6579
-97.6254
-97.7216
-97.8589
-97.9606
-98.0875
-98.1906
-98.3122
-98.1899
-98.0855
-97.9549
-97.854
-97.6864
-97.5222
-97.4029
-97.3097
-97.2136
-95.9493
-97.8835
-97.7198
-98.0022
-97.7096
-97.6152
-98.0576
-97.9952
-97.8891
-97.7067
-97.7729
-97.9414
-97.8301
-97.958
-97.7778
-97.8893
-97.8198
-97.9285
-97.9436
-97.8378
-97.8566
-97.8785
-97.8504
-97.7507
-97.8696
-97.9254
-97.9687
-97.9438
-97.8927
-97.8154
-97.9349
-97.9856
-97.9295
-97.7938
-97.8083
-97.5624
-97.7677
-97.9476
-97.899
-97.8738
-97.7619
-97.9632
-98.0712
-98.0325
-98.1023
-97.9589
-97.7154
-97.7514
-97.4812
-97.5978
-97.7747
-97.8347
-97.8161
-97.7833
-97.9649
-98.0108
-97.9909
-98.0741
-98.004
-98.0177
-97.9896
-97.6152
-97.7078
-97.5697
-97.5702
-97.6557
-97.7255
-97.6675
-97.7744
-97.8763
-97.975
-97.9423
-98.0442
-98.1307
-98.0436
-97.9213
-97.9582
-97.8906
-97.7552
-97.541
-97.4583
-97.3421
-97.4862
-97.379
-97.5779
-97.8088
-98.0074
-97.9347
-97.9118
-98.0125
-98.1089
-98.2097
-98.1062
-98.0049
-97.8956
-97.8926
-97.9169
-97.6133
-97.3533
-95.8057
-97.1785
-97.8296
-97.638
-97.8128
-97.9845
-97.9223
-97.8885
-97.9073
-97.9911
-98.1066
-98.2041
-98.3201
-98.2027
-98.1037
-97.9855
-97.9001
-97.8604
-97.8409
-97.8433
-97.324
-97.0423
-97.0293
-98.3159
-98.445
-98.198
-97.6971
-97.6495
-97.7266
-97.8612
-97.9645
-98.0888
-98.1912
-98.3126
-98.4394
-98.312
-98.1898
-98.0857
-97.956
-97.8543
-97.6904
-97.5326
-97.4256
-97.6797
-97.5107
-96.126
-98.1606
-97.84
-98.0889
-97.9465
-97.5815
-98.0468
-97.9624
-97.9392
-97.727
-97.554
-98.1479
-97.9146
-98.0423
-97.9359
-97.8845
-97.794
-97.7908
-98.1025
-97.8186
-97.9525
-97.8553
-97.9457
-97.744
-97.9582
-97.9018
-97.9453
-98.0339
-97.8487
-97.8602
-97.895
-97.9329
-97.8685
-97.8065
-97.7467
-97.8074
-97.9128
-97.9667
-97.9691
-97.8814
-97.8455
-97.9248
-97.9845
-98.0249
-97.9757
-97.9008
-97.7617
-97.8216
-97.6118
-97.7887
-97.9534
-97.8844
-97.8754
-97.7873
-97.9492
-98.037
-98.032
-98.0882
-98.0363
-98.0939
-97.9312
-97.7495
-97.7914
-97.5868
-97.6772
-97.7852
-97.8196
-97.7809
-97.7981
-97.9568
-97.993
-97.9961
-98.073
-98.1491
-98.075
-98.0033
-98.035
-97.9908
-97.6958
-97.7863
-97.7303
-97.613
-97.6956
-97.7713
-97.6984
-97.768
-97.8806
-97.9691
-97.9569
-98.0434
-98.1305
-98.227
-98.1297
-98.0417
-97.92
-97.9704
-97.8936
-97.7694
-97.5903
-97.4992
-97.4654
-97.5425
-97.5375
-97.6115
-97.8289
-98.0068
-97.94
-97.9208
-98.015
-98.1099
-98.211
-98.325
-98.208
-98.1038
-98.0036
-97.8982
-97.9031
-97.9222
-97.6468
-97.4858
-96.5861
-97.4477
-97.9012
-97.6752
-97.8878
-98.0117
-97.9319
-97.8928
-97.9096
-97.9933
-98.1074
-98.2049
-98.3206
-98.4466
-98.3195
-98.2023
-98.1036
-97.9855
-97.9009
-97.8618
-97.85
-97.8703
-97.4614
-97.3072
-97.1471
-97.8899
-98.4545
-98.0649
-97.7263
-97.6678
-97.7304
-97.8641
-97.9683
-98.0903
-98.1921
-98.313
-98.4396
-98.5733
-98.4392
-98.3119
-98.1899
-98.0861
-97.9579
-97.8551
-97.6948
-97.5394
-97.4435
-97.9239
-97.5475
-96.1977
-98.6915
-98.2876
-98.494
-98.2899
-97.7766
-98.1823
-98.0119
-98.0267
-97.8967
-97.5185
-98.0449
-97.9166
-97.9628
-97.9542
-97.855
-97.7199
-97.5895
-98.0569
-97.8937
-97.9585
-97.89
-97.9129
-97.8461
-97.8473
-97.7054
-97.8272
-98.1305
-97.8311
-97.9411
-97.8756
-97.9494
-97.8279
-97.919
-97.7809
-97.9529
-97.7951
-97.936
-98.0841
-97.8608
-97.8834
-97.8978
-97.9476
-98.0045
-97.8975
-97.8473
-97.8054
-97.7371
-97.8354
-97.8258
-97.9752
-97.9972
-97.8732
-97.8615
-97.9247
-97.9715
-98.0231
-98.0862
-98.0266
-97.9778
-97.8747
-97.7457
-97.8329
-97.6461
-97.7513
-97.9484
-97.8879
-97.88
-97.8248
-97.9365
-98.0037
-98.019
-98.0864
-98.1653
-98.0886
-98.033
-98.0668
-97.893
-97.7237
-97.8431
-97.6504
-97.7146
-97.7876
-97.8147
-97.7785
-97.8158
-97.9509
-97.9815
-98.0046
-98.0725
-98.1499
-98.241
-98.1485
-98.071
-97.9995
-98.0456
-97.9662
-97.7125
-97.8365
-97.8188
-97.6902
-97.7227
-97.7762
-97.7218
-97.7674
-97.8822
-97.9661
-97.9626
-98.0432
-98.1299
-98.2268
-98.337
-98.226
-98.129
-98.0397
-97.923
-97.9683
-97.8932
-97.7771
-97.632
-97.5683
-97.5506
-97.5779
-97.6068
-97.63
-97.8415
-98.0043
-97.9438
-97.9284
-98.0175
-98.1119
-98.2122
-98.326
-98.4519
-98.3238
-98.2071
-98.1033
-98.005
-97.8958
-97.9109
-97.9219
-97.6797
-97.5731
-97.0852
-97.5471
-97.9315
-97.7064
-97.927
-98.0226
-97.9387
-97.897
-97.912
-97.9957
-98.1082
-98.2057
-98.321
-98.4469
-98.579
-98.4462
-98.3193
-98.2022
-98.1037
-97.9859
-97.9019
-97.8643
-97.8611
-97.8995
-97.5822
-97.4309
-97.2393
-97.5589
-98.3796
-98.0147
-97.7484
-97.6797
-97.7331
-97.8674
-97.9721
-98.0919
-98.193
-98.3135
-98.4399
-98.5734
-98.7123
-98.5732
-98.4392
-98.312
-98.1901
-98.0868
-97.9605
-97.8565
-97.6992
-97.5394
-97.4558
-98.0716
-97.4864
-96.2993
-99.2194
-99.023
-99.1797
-98.6056
-98.2827
-98.5532
-98.3872
-98.4677
-98.1692
-97.7648
-98.0861
-97.9863
-98.0935
-98.0555
-97.9257
-97.8259
-97.5505
-97.8458
-97.9062
-97.9824
-97.9272
-97.9476
-97.9238
-97.8663
-97.5788
-97.6605
-97.9359
-97.8724
-97.9685
-97.8944
-97.9582
-97.8479
-97.9167
-97.8489
-97.8663
-97.5341
-97.8447
-98.0437
-97.8557
-97.9448
-97.8886
-97.9633
-98.0074
-97.9265
-97.8147
-97.9207
-97.7898
-97.881
-97.7507
-97.923
-98.0281
-97.8677
-97.9094
-97.9025
-97.9606
-98.0114
-98.0876
-97.9975
-97.8995
-97.832
-97.7937
-97.7585
-97.7835
-97.8231
-97.9386
-97.9696
-97.8731
-97.8798
-97.9248
-97.9736
-98.0216
-98.0886
-98.1743
-98.0815
-98.0208
-97.9546
-97.8539
-97.6992
-97.8206
-97.6684
-97.7655
-97.9121
-97.8875
-97.8595
-97.8471
-97.9303
-97.9902
-98.0196
-98.0836
-98.1657
-98.259
-98.1662
-98.0851
-98.0318
-98.0516
-97.8782
-97.7355
-97.8489
-97.6879
-97.7544
-97.7829
-97.8075
-97.7851
-97.8191
-97.9566
-97.9758
-98.0046
-98.0727
-98.1513
-98.2423
-98.3504
-98.2399
-98.1471
-98.0693
-97.9948
-98.0344
-97.9386
-97.7467
-97.8591
-97.838
-97.7254
-97.7346
-97.7824
-97.7439
-97.776
-97.8893
-97.9549
-97.9541
-98.043
-98.1292
-98.2261
-98.3372
-98.4608
-98.3365
-98.225
-98.1272
-98.0383
-97.9292
-97.9568
-97.8844
-97.7718
-97.6814
-97.6824
-97.6191
-97.6031
-97.663
-97.6505
-97.8456
-97.9987
-97.9446
-97.9343
-98.02
-98.1138
-98.2136
-98.3269
-98.4525
-98.5843
-98.451
-98.3231
-98.2067
-98.1049
-98.0053
-97.9004
-97.913
-97.9224
-97.6961
-97.6374
-97.4224
-97.5873
-97.9348
-97.7634
-97.9503
-98.026
-97.9429
-97.9008
-97.9142
-97.9982
-98.1088
-98.2065
-98.3215
-98.4472
-98.5792
-98.7169
-98.5788
-98.446
-98.3192
-98.2023
-98.1039
-97.9869
-97.903
-97.8678
-97.8671
-97.9279
-97.6692
-97.4989
-97.307
-97.6721
-98.3927
-98.0311
-97.7649
-97.6856
-97.7331
-97.8709
-97.9758
-98.0936
-98.1941
-98.3142
-98.4402
-98.5736
-98.7124
-98.8578
-98.7123
-98.5731
-98.4392
-98.3122
-98.1905
-98.0877
-97.9631
-97.8585
-97.7036
-97.5347
-97.4627
-98.1592
-97.5836
-96.4762
-99.1056
-99.8269
-100.028
-98.8229
-99.2225
-99.4146
-98.9331
-99.1902
-98.3977
-98.2068
-98.4678
-98.3924
-98.4332
-98.4195
-98.3626
-98.0719
-97.8283
-97.987
-97.9976
-98.1351
-98.0063
-98.0142
-97.9772
-97.9285
-97.7354
-97.7209
-97.8462
-97.8825
-98.0048
-97.9348
-97.9946
-97.9166
-97.8968
-97.8924
-97.8826
-97.4728
-97.7484
-97.882
-97.8738
-97.958
-97.9077
-97.9731
-98.0261
-97.9337
-97.8036
-97.9364
-97.8332
-97.8935
-97.5635
-97.8414
-97.954
-97.8719
-97.9467
-97.9023
-97.9738
-98.0184
-98.0976
-97.9915
-97.8972
-97.8314
-97.8912
-97.794
-97.9057
-97.7352
-97.8937
-97.9661
-97.8778
-97.9283
-97.9136
-97.9712
-98.0177
-98.0924
-98.185
-98.0823
-98.0049
-97.9202
-97.8195
-97.7586
-97.7623
-97.7983
-97.8111
-97.8966
-97.9366
-97.8775
-97.8858
-97.9304
-97.9768
-98.0231
-98.0905
-98.1758
-98.2758
-98.1732
-98.0788
-98.0134
-97.9525
-97.8421
-97.7037
-97.7995
-97.6825
-97.8009
-97.8945
-97.886
-97.8651
-97.858
-97.9223
-97.9802
-98.0126
-98.0823
-98.1659
-98.2604
-98.3675
-98.2583
-98.1655
-98.0807
-98.0154
-98.0195
-97.8856
-97.7395
-97.8317
-97.7128
-97.7754
-97.7804
-97.8071
-97.7925
-97.8264
-97.9539
-97.9706
-98.0023
-98.0704
-98.1529
-98.2442
-98.3515
-98.4769
-98.3496
-98.2388
-98.1455
-98.0662
-97.9908
-97.9991
-97.926
-97.7553
-97.8478
-97.8347
-97.7436
-97.7427
-97.7867
-97.7613
-97.7858
-97.8914
-97.953
-97.9661
-98.0432
-98.1297
-98.2261
-98.3373
-98.4613
-98.5926
-98.4603
-98.3357
-98.2243
-98.1263
-98.0358
-97.9374
-97.9378
-97.8741
-97.7597
-97.7129
-97.7516
-97.6493
-97.6294
-97.6652
-97.685
-97.8441
-97.9894
-97.9432
-97.9393
-98.0225
-98.1157
-98.2148
-98.3277
-98.453
-98.5847
-98.7233
-98.5839
-98.4506
-98.3225
-98.207
-98.1047
-98.0067
-97.9111
-97.9145
-97.9261
-97.7043
-97.6782
-97.5815
-97.6447
-97.9205
-97.8111
-97.9601
-98.038
-97.9477
-97.9044
-97.9154
-98.0006
-98.1094
-98.2073
-98.322
-98.4474
-98.5793
-98.7171
-98.8619
-98.7168
-98.5787
-98.4459
-98.3193
-98.2027
-98.1042
-97.9884
-97.9042
-97.8718
-97.8712
-97.943
-97.7331
-97.5358
-97.3368
-97.9164
-98.536
-97.973
-97.7804
-97.6891
-97.7321
-97.8746
-97.979
-98.0953
-98.1953
-98.3148
-98.4406
-98.5738
-98.7125
-98.8579
-99.0059
-98.8578
-98.7122
-98.5732
-98.4393
-98.3124
-98.191
-98.0888
-97.966
-97.8611
-97.7082
-97.5335
-97.4616
-98.2223
-97.6667
-96.5673
-97.6977
-99.7557
-99.8464
-98.2776
-100.21
-100.575
-99.8661
-99.6806
-98.4749
-98.8921
-99.2335
-98.9816
-98.9184
-98.8363
-99.0894
-98.2746
-98.164
-98.3465
-98.3073
-98.4503
-98.2038
-98.3793
-98.3262
-98.3797
-97.9692
-97.8936
-97.9986
-98.0065
-98.1368
-98.0247
-98.087
-97.9852
-97.9231
-97.9587
-97.9443
-97.701
-97.7785
-97.89
-97.8995
-97.996
-97.947
-98.0167
-98.0544
-97.9714
-97.897
-97.8538
-97.8507
-97.988
-97.3884
-97.7908
-97.8844
-97.8873
-97.9522
-97.9288
-97.991
-98.0364
-98.1159
-98.0142
-97.9187
-97.8582
-97.8995
-97.7802
-98.0177
-97.473
-97.8439
-97.9367
-97.8858
-97.9415
-97.9261
-97.9829
-98.0293
-98.1051
-98.202
-98.091
-97.9895
-97.9192
-97.82
-97.8528
-97.7755
-98.0039
-97.7198
-97.8759
-97.9288
-97.8959
-97.931
-97.9262
-97.9806
-98.0269
-98.0972
-98.188
-98.2931
-98.1829
-98.076
-97.9848
-97.9096
-97.8127
-97.766
-97.7678
-97.8477
-97.8265
-97.8762
-97.9163
-97.8776
-97.8963
-97.9347
-97.9805
-98.0255
-98.0925
-98.1775
-98.2771
-98.3858
-98.2751
-98.1719
-98.0796
-98.004
-97.9356
-97.8398
-97.7171
-97.7808
-97.7391
-97.8018
-97.8723
-97.8749
-97.8606
-97.8693
-97.9213
-97.976
-98.0139
-98.0816
-98.1664
-98.2616
-98.3686
-98.4953
-98.3666
-98.2574
-98.1626
-98.0766
-98.0097
-97.9953
-97.8858
-97.7383
-97.8237
-97.7273
-97.7796
-97.7809
-97.8092
-97.8003
-97.833
-97.9502
-97.9659
-98.0036
-98.0713
-98.1535
-98.246
-98.3529
-98.4775
-98.6086
-98.4764
-98.349
-98.2381
-98.1439
-98.0619
-97.9863
-97.9839
-97.912
-97.7735
-97.8327
-97.8237
-97.747
-97.7491
-97.7919
-97.7759
-97.796
-97.8929
-97.9526
-97.9709
-98.0453
-98.1308
-98.2268
-98.3377
-98.4619
-98.5931
-98.7326
-98.5921
-98.4598
-98.3358
-98.2246
-98.1247
-98.0332
-97.9512
-97.9318
-97.8663
-97.7474
-97.7336
-97.7691
-97.6769
-97.6453
-97.6451
-97.7152
-97.8392
-97.9762
-97.9397
-97.9434
-98.0248
-98.1175
-98.216
-98.3286
-98.4535
-98.5851
-98.7235
-98.8691
-98.723
-98.5836
-98.4504
-98.3228
-98.2075
-98.1052
-98.0081
-97.9174
-97.9146
-97.9285
-97.7287
-97.6965
-97.6754
-97.6754
-97.9136
-97.8522
-97.9594
-98.0591
-97.9542
-97.9078
-97.9168
-98.0029
-98.11
-98.2081
-98.3225
-98.4477
-98.5795
-98.7172
-98.862
-99.0101
-98.8618
-98.7167
-98.5786
-98.446
-98.3194
-98.2032
-98.1045
-97.9902
-97.9056
-97.8757
-97.8752
-97.9502
-97.776
-97.6036
-97.356
-98.0762
-98.8003
-97.875
-97.7965
-97.6913
-97.7344
-97.8784
-97.9817
-98.0968
-98.1965
-98.3155
-98.4411
-98.5741
-98.7127
-98.858
-99.0059
-99.1592
-99.0058
-98.8578
-98.7122
-98.5732
-98.4394
-98.3127
-98.1916
-98.0899
-97.969
-97.864
-97.7125
-97.5353
-97.4507
-98.2166
-97.5518
-96.8338
-96.8885
-98.7545
-98.2595
-97.1418
-100.097
-100.555
-99.7928
-99.3876
-97.7149
-99.6357
-100.329
-99.6162
-99.3953
-99.4492
-99.4888
-98.2927
-98.6499
-98.946
-98.8746
-98.9419
-98.4916
-98.9136
-98.787
-99.0718
-98.1485
-98.1397
-98.2563
-98.2576
-98.3943
-98.1998
-98.2255
-98.1634
-98.2876
-98.2402
-98.3702
-98.0849
-97.9262
-98.004
-98.0094
-98.1069
-98.0333
-98.0992
-98.1137
-98.0618
-97.9452
-97.9315
-97.8775
-97.9663
-97.6349
-97.8445
-97.9111
-97.9123
-97.9925
-97.9587
-98.0358
-98.0702
-98.1424
-98.042
-97.9452
-97.8685
-97.8578
-97.7345
-97.9095
-97.3232
-97.8264
-97.9055
-97.8955
-97.9578
-97.9603
-98.0066
-98.0494
-98.1244
-98.223
-98.109
-98.0032
-97.9272
-97.8199
-97.8741
-97.7777
-98.001
-97.4743
-97.8463
-97.9193
-97.8931
-97.9472
-97.9541
-97.9938
-98.0414
-98.1115
-98.2057
-98.3131
-98.1994
-98.0864
-97.9899
-97.9207
-97.8211
-97.8374
-97.7593
-97.9619
-97.7393
-97.8647
-97.915
-97.8965
-97.9297
-97.9368
-97.9858
-98.0352
-98.1026
-98.1912
-98.2946
-98.4055
-98.2923
-98.18
-98.0765
-97.9901
-97.9165
-97.818
-97.7776
-97.7633
-97.8729
-97.8592
-97.8651
-97.9008
-97.876
-97.8982
-97.9355
-97.9816
-98.0278
-98.0948
-98.1795
-98.2784
-98.3867
-98.5169
-98.3853
-98.274
-98.17
-98.0756
-97.9967
-97.9312
-97.8401
-97.7443
-97.7697
-97.7754
-97.7969
-97.8578
-97.8665
-97.8601
-97.8772
-97.9202
-97.9733
-98.0145
-98.0822
-98.1672
-98.2631
-98.3699
-98.4959
-98.626
-98.4948
-98.366
-98.2566
-98.1597
-98.0715
-97.9983
-97.9637
-97.8661
-97.7654
-97.8229
-97.7348
-97.7734
-97.7802
-97.8077
-97.8052
-97.8374
-97.9445
-97.9627
-98.0034
-98.072
-98.1547
-98.2474
-98.3541
-98.4783
-98.6089
-98.7485
-98.6084
-98.4761
-98.3488
-98.2384
-98.1437
-98.0571
-97.9819
-97.9692
-97.9055
-97.7825
-97.8136
-97.8086
-97.7501
-97.7501
-97.8068
-97.795
-97.8059
-97.8939
-97.9501
-97.9681
-98.045
-98.132
-98.2279
-98.3384
-98.4626
-98.5937
-98.7328
-98.8796
-98.7324
-98.5918
-98.4597
-98.3355
-98.2233
-98.1225
-98.032
-97.9528
-97.9292
-97.8614
-97.7418
-97.7489
-97.7712
-97.6866
-97.6493
-97.7094
-97.7374
-97.8425
-97.9605
-97.9348
-97.9471
-98.027
-98.1193
-98.2173
-98.3295
-98.454
-98.5854
-98.7238
-98.8692
-99.0178
-98.869
-98.7229
-98.5836
-98.4505
-98.3234
-98.2082
-98.1064
-98.0094
-97.9215
-97.9124
-97.9243
-97.7491
-97.7022
-97.7147
-97.7015
-97.9116
-97.8956
-97.9601
-98.076
-97.96
-97.9093
-97.9196
-98.0051
-98.1105
-98.2089
-98.323
-98.4481
-98.5797
-98.7173
-98.8621
-99.0101
-99.1634
-99.01
-98.8618
-98.7167
-98.5786
-98.446
-98.3196
-98.2037
-98.1049
-97.9923
-97.9069
-97.8793
-97.8782
-97.95
-97.7888
-97.7015
-97.4384
-98.0034
-98.8129
-97.8232
-97.8153
-97.6946
-97.7386
-97.8824
-97.9839
-98.0981
-98.1976
-98.3162
-98.4415
-98.5744
-98.7128
-98.858
-99.006
-99.1592
-99.3108
-99.1592
-99.0058
-98.8578
-98.7123
-98.5733
-98.4396
-98.313
-98.1923
-98.0911
-97.9718
-97.8672
-97.7165
-97.5374
-97.443
-98.0635
-97.3486
-97.3385
-96.6323
-97.5733
-97.1613
-96.2534
-99.1801
-99.3022
-98.8841
-97.5842
-96.4912
-100.116
-100.527
-100.025
-99.2752
-99.4946
-98.8694
-97.4835
-98.9932
-99.598
-99.4441
-99.3111
-98.7676
-99.296
-99.5978
-99.3491
-98.2126
-98.41
-98.6083
-98.6198
-98.7459
-98.4444
-98.356
-98.4297
-98.7654
-98.7213
-99.0332
-98.5629
-98.0964
-98.2077
-98.2003
-98.3084
-98.188
-98.2169
-98.1934
-98.2094
-98.1079
-98.2973
-98.1384
-98.4358
-98.1056
-97.9362
-98.0025
-98.0082
-98.0821
-98.0404
-98.1131
-98.1286
-98.1848
-98.0975
-98.0337
-97.9216
-97.9471
-97.826
-97.9416
-97.5825
-97.8729
-97.9281
-97.9246
-97.9945
-97.9974
-98.0483
-98.0857
-98.1525
-98.2522
-98.1353
-98.0294
-97.9468
-97.835
-97.8368
-97.7613
-97.6364
-97.3485
-97.8512
-97.9055
-97.9023
-97.9666
-97.9764
-98.02
-98.0651
-98.132
-98.2276
-98.3356
-98.2192
-98.1033
-98.0051
-97.9232
-97.8124
-97.8569
-97.75
-97.7911
-97.5258
-97.8534
-97.9098
-97.8968
-97.9482
-97.9603
-98.0021
-98.0517
-98.1184
-98.2092
-98.3146
-98.4277
-98.3122
-98.1973
-98.0852
-97.9895
-97.9205
-97.8067
-97.8396
-97.756
-97.8818
-97.7341
-97.862
-97.9042
-97.895
-97.9289
-97.9435
-97.9921
-98.042
-98.1081
-98.1944
-98.2963
-98.4064
-98.5415
-98.4052
-98.2911
-98.1796
-98.0761
-97.986
-97.9152
-97.8259
-97.7979
-97.772
-97.8265
-97.7976
-97.855
-97.8881
-97.8724
-97.8995
-97.9351
-97.9794
-98.0299
-98.0973
-98.1817
-98.2797
-98.3878
-98.5173
-98.6461
-98.5167
-98.3847
-98.2732
-98.1677
-98.0727
-97.9922
-97.9273
-97.8444
-97.7703
-97.7768
-97.7887
-97.7809
-97.8511
-97.861
-97.8591
-97.8821
-97.9189
-97.9731
-98.0159
-98.0836
-98.1683
-98.2644
-98.3713
-98.4966
-98.6262
-98.7676
-98.6258
-98.4945
-98.3657
-98.2561
-98.1575
-98.0664
-97.9886
-97.9453
-97.8784
-97.7867
-97.8007
-97.7501
-97.7582
-97.7794
-97.8109
-97.8096
-97.8428
-97.9377
-97.9606
-98.0033
-98.0726
-98.1556
-98.2489
-98.3554
-98.479
-98.6093
-98.7487
-98.8955
-98.7485
-98.6083
-98.476
-98.3493
-98.2394
-98.1439
-98.0538
-97.9764
-97.9568
-97.9001
-97.7795
-97.7998
-97.7954
-97.7468
-97.7542
-97.8124
-97.8073
-97.8176
-97.8944
-97.9468
-97.972
-98.0463
-98.1332
-98.2293
-98.3394
-98.4634
-98.5944
-98.7332
-98.8798
-99.029
-98.8795
-98.7322
-98.5918
-98.4597
-98.3348
-98.2211
-98.1209
-98.0296
-97.9472
-97.9235
-97.8566
-97.7465
-97.7615
-97.7708
-97.684
-97.6692
-97.754
-97.7448
-97.8526
-97.9445
-97.9307
-97.9502
-98.0289
-98.121
-98.2186
-98.3304
-98.4546
-98.5858
-98.724
-98.8694
-99.0178
-99.1713
-99.0177
-98.8689
-98.7228
-98.5837
-98.4508
-98.3239
-98.209
-98.1076
-98.0112
-97.9254
-97.9085
-97.9155
-97.7725
-97.7038
-97.7461
-97.7156
-97.915
-97.9346
-97.9568
-98.0685
-97.9576
-97.9086
-97.9225
-98.0073
-98.111
-98.2097
-98.3236
-98.4485
-98.5799
-98.7175
-98.8623
-99.0102
-99.1635
-99.3151
-99.1634
-99.01
-98.8617
-98.7166
-98.5785
-98.4461
-98.3197
-98.2042
-98.1052
-97.9945
-97.9085
-97.8828
-97.8792
-97.945
-97.7815
-97.7233
-97.5252
-98.0095
-98.613
-97.8159
-97.8065
-97.6895
-97.744
-97.8861
-97.9855
-98.0992
-98.1988
-98.3169
-98.442
-98.5747
-98.713
-98.8581
-99.006
-99.1593
-99.3108
-99.4708
-99.3108
-99.1592
-99.0058
-98.8578
-98.7123
-98.5734
-98.4398
-98.3135
-98.1932
-98.0922
-97.9743
-97.8706
-97.7191
-97.5408
-97.4442
-97.9036
-97.0014
-97.6324
-96.5836
-97.2676
-96.7415
-96.0684
-98.2552
-98.2273
-97.7294
-96.5548
-95.6933
-99.1994
-99.4757
-99.2822
-98.4745
-98.4908
-96.9253
-96.1798
-98.9589
-99.7141
-99.5151
-99.2396
-98.7688
-98.9966
-99.3433
-98.3056
-97.2454
-98.6337
-98.8705
-98.932
-99.0377
-98.7098
-98.4564
-98.6907
-99.0907
-99.0875
-99.2252
-98.4786
-98.238
-98.4175
-98.4179
-98.5531
-98.3853
-98.3408
-98.2495
-98.3316
-98.3646
-98.7819
-98.6054
-99.1036
-98.5427
-98.0539
-98.1385
-98.1482
-98.2319
-98.1638
-98.2096
-98.2115
-98.2299
-98.178
-98.1789
-98.0588
-98.2677
-98.0762
-98.286
-97.9483
-97.9378
-97.9969
-98.0028
-98.0735
-98.0666
-98.1148
-98.1408
-98.1934
-98.2931
-98.1798
-98.0851
-98.0338
-97.8883
-97.9518
-97.7347
-97.6893
-97.5755
-97.8824
-97.9345
-97.9337
-98.0018
-98.0121
-98.0593
-98.1008
-98.1624
-98.257
-98.3637
-98.2481
-98.1299
-98.0264
-97.9443
-97.8315
-97.8814
-97.6986
-97.6331
-97.52
-97.8622
-97.9097
-97.9078
-97.9653
-97.9748
-98.0253
-98.0776
-98.1417
-98.2324
-98.3376
-98.4542
-98.3345
-98.2172
-98.1011
-97.9971
-97.9231
-97.8106
-97.8376
-97.7473
-97.7335
-97.5676
-97.8571
-97.9049
-97.8913
-97.9442
-97.9581
-98.0051
-98.0605
-98.1265
-98.2136
-98.3167
-98.4283
-98.57
-98.4277
-98.3116
-98.1958
-98.0857
-97.9909
-97.9204
-97.8114
-97.8323
-97.7623
-97.8026
-97.7071
-97.8563
-97.8946
-97.8852
-97.926
-97.9471
-97.9955
-98.0481
-98.113
-98.1984
-98.2983
-98.4075
-98.5418
-98.6676
-98.5416
-98.4048
-98.2905
-98.178
-98.075
-97.986
-97.9198
-97.8364
-97.8168
-97.7824
-97.7996
-97.7773
-97.849
-97.8812
-97.8663
-97.899
-97.9367
-97.9788
-98.0322
-98.0997
-98.184
-98.2816
-98.389
-98.5178
-98.646
-98.7911
-98.6463
-98.5166
-98.3845
-98.2723
-98.1664
-98.0707
-97.9899
-97.9282
-97.852
-97.7829
-97.7852
-97.7832
-97.7743
-97.8423
-97.8627
-97.8595
-97.8851
-97.9186
-97.9717
-98.018
-98.0852
-98.1698
-98.266
-98.3725
-98.4974
-98.6266
-98.7678
-98.9153
-98.7675
-98.6258
-98.4944
-98.366
-98.2558
-98.1559
-98.0626
-97.9829
-97.9376
-97.8609
-97.7851
-97.7996
-97.7574
-97.7539
-97.7819
-97.811
-97.8129
-97.8489
-97.931
-97.9584
-98.0035
-98.0734
-98.1565
-98.2503
-98.3569
-98.4799
-98.6097
-98.7489
-98.8955
-99.0453
-98.8955
-98.7484
-98.6083
-98.4762
-98.3498
-98.2405
-98.1441
-98.0517
-97.9743
-97.9473
-97.8926
-97.7888
-97.79
-97.7929
-97.7531
-97.7637
-97.8137
-97.8153
-97.8302
-97.8945
-97.9439
-97.973
-98.0477
-98.1346
-98.2309
-98.3405
-98.4643
-98.595
-98.7337
-98.8799
-99.029
-99.1826
-99.029
-98.8794
-98.7322
-98.592
-98.4599
-98.3341
-98.2204
-98.12
-98.0284
-97.9475
-97.9204
-97.8546
-97.7551
-97.7702
-97.7684
-97.6895
-97.6837
-97.7771
-97.7504
-97.8493
-97.9299
-97.9278
-97.9525
-98.0306
-98.1225
-98.2199
-98.3314
-98.4553
-98.5863
-98.7243
-98.8695
-99.0179
-99.1713
-99.3232
-99.1713
-99.0177
-98.8688
-98.7229
-98.5838
-98.451
-98.3245
-98.21
-98.1089
-98.0128
-97.9284
-97.9042
-97.9039
-97.7791
-97.709
-97.752
-97.7052
-97.9201
-97.9574
-97.9525
-98.0485
-97.9488
-97.9071
-97.9251
-98.0093
-98.1115
-98.2105
-98.3242
-98.4489
-98.5802
-98.7177
-98.8624
-99.0103
-99.1635
-99.3151
-99.4763
-99.3151
-99.1634
-99.01
-98.8617
-98.7166
-98.5785
-98.4461
-98.32
-98.2048
-98.1054
-97.9967
-97.9111
-97.8866
-97.8773
-97.9384
-97.7836
-97.714
-97.5646
-98.1386
-98.4264
-97.7861
-97.748
-97.6683
-97.7559
-97.89
-97.9868
-98.1002
-98.1998
-98.3175
-98.4425
-98.575
-98.7132
-98.8583
-99.0061
-99.1593
-99.3108
-99.4708
-99.6197
-99.4708
-99.3108
-99.1592
-99.0058
-98.8578
-98.7124
-98.5735
-98.44
-98.314
-98.1941
-98.0933
-97.9765
-97.8742
-97.7191
-97.545
-97.4496
-97.8563
-96.7762
-97.6882
-96.5183
-96.9887
-96.6292
-96.3657
-97.746
-97.3928
-97.1259
-96.3607
-95.683
-98.413
-98.5091
-98.2259
-97.7601
-97.3755
-95.9154
-95.5272
-98.6369
-99.0683
-98.9764
-98.7209
-98.2593
-98.1113
-97.7946
-96.4
-96.1163
-98.6133
-98.9162
-99.0509
-99.0571
-98.7567
-98.4283
-98.5806
-98.8738
-98.8647
-97.8694
-97.5036
-98.3068
-98.599
-98.6016
-98.7423
-98.5937
-98.4509
-98.3252
-98.402
-98.5639
-98.8856
-98.986
-99.0534
-98.3019
-98.1397
-98.2567
-98.3024
-98.3879
-98.3084
-98.2982
-98.2689
-98.2678
-98.2364
-98.2811
-98.3197
-98.6147
-98.4679
-98.6861
-98.2731
-98.013
-98.0938
-98.1071
-98.1906
-98.1699
-98.2
-98.2122
-98.238
-98.327
-98.2259
-98.1676
-98.1477
-98.0239
-98.2443
-97.9727
-98.0845
-97.86
-97.9285
-97.9848
-97.9944
-98.0611
-98.073
-98.118
-98.1549
-98.204
-98.2964
-98.3996
-98.2901
-98.1761
-98.0827
-98.0233
-97.8692
-97.9415
-97.7629
-97.7099
-97.6483
-97.8869
-97.9338
-97.9364
-97.9972
-98.0145
-98.0617
-98.113
-98.1727
-98.2626
-98.3653
-98.4876
-98.3631
-98.2459
-98.1272
-98.0249
-97.9508
-97.8276
-97.8341
-97.6882
-97.6856
-97.5961
-97.8657
-97.909
-97.9094
-97.9615
-97.9807
-98.03
-98.0873
-98.1509
-98.2381
-98.3405
-98.4546
-98.6013
-98.4546
-98.3346
-98.2162
-98.1005
-98.0025
-97.9297
-97.8211
-97.8199
-97.7429
-97.7159
-97.6453
-97.8558
-97.8985
-97.892
-97.94
-97.9654
-98.0096
-98.0669
-98.1333
-98.2187
-98.3195
-98.4295
-98.5701
-98.6912
-98.5705
-98.4281
-98.3111
-98.1956
-98.0863
-97.9925
-97.9247
-97.8302
-97.8153
-97.7686
-97.782
-97.7233
-97.851
-97.8886
-97.8817
-97.9236
-97.9491
-97.997
-98.052
-98.1177
-98.2021
-98.3013
-98.409
-98.5423
-98.6672
-98.8186
-98.6684
-98.5418
-98.4049
-98.2896
-98.1779
-98.0751
-97.9888
-97.9225
-97.8481
-97.8238
-97.7843
-97.7957
-97.7642
-97.8437
-97.8737
-97.8634
-97.8985
-97.9361
-97.9792
-98.0345
-98.1024
-98.1866
-98.2838
-98.3906
-98.5185
-98.6461
-98.791
-98.9391
-98.7912
-98.6467
-98.5168
-98.3845
-98.2719
-98.1656
-98.0698
-97.9889
-97.9249
-97.8525
-97.798
-97.7851
-97.7834
-97.7715
-97.838
-97.8593
-97.8543
-97.8889
-97.9192
-97.9703
-98.0197
-98.0869
-98.1713
-98.2677
-98.3741
-98.4984
-98.6272
-98.768
-98.9152
-99.0662
-98.9155
-98.7676
-98.6259
-98.4946
-98.3663
-98.2558
-98.1546
-98.0601
-97.9797
-97.9289
-97.8592
-97.803
-97.7892
-97.7641
-97.7563
-97.7866
-97.8083
-97.8151
-97.8526
-97.9239
-97.9573
-98.0038
-98.0742
-98.1574
-98.2517
-98.3582
-98.481
-98.6103
-98.7492
-98.8956
-99.0451
-99.1978
-99.0454
-98.8955
-98.7484
-98.6084
-98.4765
-98.3506
-98.2414
-98.1439
-98.0518
-97.9748
-97.9385
-97.8859
-97.7949
-97.7835
-97.7896
-97.7569
-97.7683
-97.8156
-97.8216
-97.8426
-97.8955
-97.9426
-97.9764
-98.0494
-98.1361
-98.2323
-98.3416
-98.4652
-98.5958
-98.734
-98.8802
-99.0291
-99.1826
-99.3348
-99.1827
-99.0291
-98.8794
-98.7323
-98.5923
-98.46
-98.3338
-98.2201
-98.12
-98.0282
-97.9484
-97.9175
-97.8526
-97.7654
-97.7714
-97.7659
-97.7
-97.6898
-97.82
-97.7563
-97.841
-97.9172
-97.9255
-97.954
-98.0319
-98.1239
-98.2211
-98.3323
-98.456
-98.5868
-98.7246
-98.8697
-99.0179
-99.1713
-99.3231
-99.4872
-99.3232
-99.1713
-99.0177
-98.8689
-98.7229
-98.584
-98.4513
-98.3251
-98.2111
-98.1102
-98.0143
-97.9307
-97.9005
-97.889
-97.7842
-97.7128
-97.7372
-97.7066
-97.9183
-97.96
-97.947
-98.0272
-97.9401
-97.9054
-97.9274
-98.0111
-98.1121
-98.2113
-98.3248
-98.4493
-98.5805
-98.7179
-98.8626
-99.0104
-99.1636
-99.3152
-99.4764
-99.6255
-99.4763
-99.3151
-99.1634
-99.01
-98.8617
-98.7166
-98.5785
-98.4462
-98.3202
-98.2053
-98.1057
-97.9987
-97.9139
-97.8892
-97.8759
-97.9271
-97.791
-97.7187
-97.5862
-98.1388
-98.3758
-97.7387
-97.6984
-97.6658
-97.7774
-97.8936
-97.9878
-98.101
-98.2007
-98.3181
-98.4429
-98.5753
-98.7134
-98.8584
-99.0062
-99.1594
-99.3109
-99.4708
-99.6197
-99.7716
-99.6197
-99.4708
-99.3108
-99.1592
-99.0058
-98.8578
-98.7125
-98.5737
-98.4403