/*--------------------------------*- C++ -*----------------------------------*\
  =========                 |
  \\      /  F ield         | OpenFOAM: The Open Source CFD Toolbox
   \\    /   O peration     | Website:  https://openfoam.org
    \\  /    A nd           | Version:  7
     \\/     M anipulation  |
\*---------------------------------------------------------------------------*/
FoamFile
{
    version     2.0;
    format      ascii;
    class       volScalarField;
    location    "3.5";
    object      nut;
}
// * * * * * * * * * * * * * * * * * * * * * * * * * * * * * * * * * * * * * //

dimensions      [0 2 -1 0 0 0 0];

internalField   nonuniform List<scalar> 
18750
(
0.000469143
0.00163193
0.000404916
0.000532115
0.00122117
0.00085959
0.00103612
0.000407551
0.000477011
0.00051235
0.00233484
0.00134172
0.00165739
0.000489192
0.000674799
0.00094879
0.000149527
0.00041282
0.000554147
0.000433713
0.00212907
0.000836294
0.0027993
0.000614033
0.00123472
0.00140493
0.000545328
0.000478936
0.000576298
0.00114929
0.000288274
0.00022357
0.000501022
0.000670727
0.000382129
0.00213839
0.00140991
0.00217446
0.00178196
0.00102677
0.00280038
0.00110458
0.00037275
0.00100478
0.00143559
0.000329848
0.00058608
0.000477282
0.000673758
0.00119446
0.000187268
0.000224256
0.000134845
0.000430133
0.000291781
0.000359133
0.00250367
0.00148543
0.00202202
0.00149883
0.0014232
0.00210482
0.00121219
0.00199607
0.00164188
0.00282888
0.000549166
0.000996102
0.000465441
0.00101563
0.00159315
0.000332206
0.000414535
0.00062915
0.000428212
0.00072405
0.00116275
7.17943e-05
0.000219888
0.000224234
8.84993e-05
0.000355637
0.000487557
0.000344805
0.00227467
0.00144018
0.0020784
0.00114351
0.00128317
0.00223991
0.000963663
0.001635
0.0015372
0.00225558
0.0010692
0.00105724
0.0010213
0.00220704
0.00298601
0.000566809
0.000616837
0.000848478
0.000786929
0.0013995
0.0017004
0.000198342
0.000396384
0.000441479
0.000811776
0.000363999
0.000472287
0.00135383
0.000260066
5.91514e-05
0.000174053
0.000252689
0.000212041
0.000441462
0.00028251
0.000305045
0.00255387
0.000958142
0.00222383
0.000868847
0.00112942
0.00260827
0.000927843
0.00053822
0.000782849
0.00233898
0.000907399
0.000884022
0.00149236
0.000888385
0.00234506
0.00134964
0.000844248
0.000704315
0.000946652
0.00186112
0.00304739
0.000580756
0.000656949
0.000696462
0.000697603
0.000759658
0.00107236
0.00160699
0.000711694
0.000237233
0.00041709
0.000550646
0.000956353
0.000404332
0.000590546
0.00183764
0.000281112
0.000407227
0.000101712
0.000174589
0.000189421
0.000228056
0.000414507
0.000113745
0.000284552
0.0025069
0.000567228
0.00229192
0.000613397
0.000816691
0.00254164
0.000678631
0.000581248
0.00052758
0.00267941
0.000724345
0.00103662
0.000876389
0.000827097
0.00249892
0.00152068
0.000872938
0.00167662
0.00106942
0.00115568
0.00221429
0.000958755
0.00118877
0.000811148
0.000555532
0.00127311
0.00226812
0.0034699
0.000559325
0.000584945
0.000710584
0.000592345
0.000683857
0.000599267
0.0019891
0.0017622
0.00103334
0.000718826
0.0002305
0.000425641
0.000610102
0.000895209
0.000472518
0.000818452
0.00166767
0.000121522
0.000245927
0.000453959
0.000189065
0.000176281
0.000350747
0.000283706
0.000537527
8.97104e-05
0.000299102
0.00236667
0.000612203
0.00232624
0.000769199
0.000716199
0.00250966
0.000814489
0.000853379
0.000937087
0.0025615
0.000446201
0.000563098
0.000824237
0.000829027
0.00260947
0.000679557
0.00049485
0.00103692
0.0010256
0.000907022
0.00249581
0.00134147
0.00073042
0.00116696
0.00140799
0.00181379
0.00124365
0.00237505
0.000850656
0.00131518
0.00106057
0.00084043
0.000907561
0.00123124
0.00303458
0.00299478
0.000415281
0.000538778
0.000686574
0.000629734
0.000522739
0.000603886
0.000608047
0.00174902
0.00187591
0.000286562
0.000801636
0.000716973
0.000246043
0.000450332
0.000636267
0.000754248
0.000688656
0.00086007
0.000960778
0.000149473
0.000172564
0.000197532
0.000431821
0.000144506
0.000162033
0.000372954
0.000325735
0.000433905
0.000125422
0.000288002
0.00246844
0.000505282
0.0024231
0.000707561
0.000769004
0.00245805
0.000930705
0.000445225
0.000563291
0.00253041
0.000850023
0.000783969
0.000408188
0.00107146
0.00255433
0.000779749
0.000584655
0.00104385
0.00074398
0.000979887
0.00259232
0.00104392
0.00152963
0.000710382
0.00041633
0.000782623
0.00124258
0.00237469
0.00114028
0.0010637
0.000819009
0.00102084
0.00153139
0.0018089
0.00162405
0.00219271
0.00091345
0.000749109
0.000932291
0.000869979
0.000762249
0.00102761
0.00133107
0.00234469
0.00255768
0.000569332
0.000484701
0.000576176
0.000648519
0.000605886
0.00058108
0.000554689
0.000849378
0.000775475
0.00175394
0.000123594
0.000430977
0.000644013
0.000680491
0.000278009
0.000452349
0.000694893
0.000472808
0.000806891
0.000786857
0.000679127
0.000105878
0.000106971
0.000162664
0.000210419
0.000333849
9.98334e-05
0.000217746
0.000344985
0.000498635
0.0002692
0.000221933
0.000304102
0.00242665
0.00062471
0.0024078
0.000375694
0.000691586
0.00236108
0.000571657
0.000533922
0.00109666
0.00250165
0.000515422
0.000879108
0.000669473
0.000725087
0.00225834
0.00060426
0.00045165
0.000812222
0.000570469
0.000713428
0.00263786
0.000908083
0.000448654
0.000604063
0.00115036
0.000392675
0.000816931
0.00288226
0.00083036
0.000840594
0.00086238
0.000785866
0.000680431
0.000841273
0.00138644
0.00241435
0.000714484
0.000763934
0.000927319
0.000922962
0.00096745
0.00143162
0.000962405
0.00218189
0.00208777
0.00101766
0.00113549
0.000899453
0.001253
0.00127125
0.000568133
0.000647366
0.00182537
0.00203272
0.00271828
0.000495716
0.000499237
0.000562706
0.000678456
0.000797515
0.000645424
0.000622047
0.000975715
0.00102158
0.00116655
0.00156854
0.000205963
0.000163792
0.000420069
0.000662445
0.000620366
0.000460149
0.000372862
0.000735861
0.000637152
0.000623812
0.000823858
0.000704694
0.000160035
0.000112206
0.000171833
0.000157574
0.000264153
0.000295166
0.000108115
0.000188714
0.000336288
0.000546
0.000255263
0.000336164
0.000368121
0.00236715
0.000632943
0.00246791
0.000421277
0.000573791
0.00243983
0.000386652
0.000284109
0.000661211
0.00235406
0.000600077
0.000457053
0.000575304
0.00066737
0.00235724
0.000741827
0.000640941
0.000536915
0.000565759
0.00070072
0.00249253
0.000499644
0.000541813
0.000498086
0.000925909
0.000348103
0.00129699
0.00252257
0.00132148
0.000749184
0.000526629
0.000835455
0.000620482
0.000909557
0.00109881
0.00255733
0.00101072
0.00042461
0.000662976
0.000986874
0.00152545
0.00155704
0.00112408
0.000955542
0.00264272
0.000485747
0.00019367
0.000679406
0.00075959
0.000404231
0.000986729
0.000689601
0.00101617
0.00156573
0.00234607
0.00170798
0.000783258
0.00177477
0.00118648
0.0014809
0.000917818
0.000763798
0.00122994
0.00147051
0.00163699
0.00294743
0.000497941
0.000718344
0.00031802
0.000489311
0.000695679
0.000707926
0.000708483
0.000701409
0.00111285
0.00114539
0.00157309
0.00198397
0.000141166
0.000352935
0.000132289
0.000384377
0.000696214
0.000556626
0.000475475
0.000356197
0.00101443
0.00106156
0.000567651
0.00090212
0.000590497
9.96053e-05
0.000154922
0.000118309
0.000145622
0.000174214
0.000273654
0.000325873
0.000115623
0.000258879
0.000294591
0.000499769
0.000277608
0.000346324
0.000363618
0.00224086
0.000569372
0.00228774
0.000341802
0.00064443
0.00242217
0.000316586
0.000261942
0.000540604
0.00239344
0.000353215
0.000513769
0.000531129
0.000634126
0.00248727
0.000447236
0.000511788
0.000445804
0.000790259
0.000438118
0.00265241
0.000593995
0.000505406
0.000769981
0.000500206
0.000590445
0.000740082
0.00238223
0.000511173
0.000693503
0.000700123
0.000558568
0.000803357
0.000789064
0.000978139
0.00253885
0.00126878
0.000868375
0.000590879
0.000989718
0.000706325
0.000836986
0.000526869
0.000950471
0.00240569
0.00128886
0.000641032
0.000598707
0.000643376
0.000842617
0.00147731
0.000938218
0.000986783
0.000773156
0.00228355
0.00110135
0.00040507
0.000701648
0.000910941
0.000692824
0.000204281
0.00091057
0.000946231
0.00136484
0.00149881
0.00259225
0.000694874
0.00123925
0.000721383
0.000790792
0.000947609
0.00162138
0.00089572
0.00112554
0.000656104
0.000811132
0.00149294
0.00296893
0.000502242
0.000552114
0.000732181
0.000509309
0.000574721
0.000628753
0.000454692
0.000780208
0.000750417
0.00112143
0.000929992
0.00226057
0.00187234
0.000152699
0.000254087
0.000339559
0.000234066
0.000277084
0.00075645
0.000593556
0.000359828
0.000398798
0.00113249
0.00102283
0.000567309
0.000888958
0.000459224
0.000130218
0.000152114
0.000170123
0.000121609
0.00012303
0.000162275
0.000262491
0.000276961
0.000119042
0.000302055
0.000276027
0.000470848
0.000249835
0.000289808
0.000335467
0.00217743
0.000641465
0.00228127
0.000389928
0.000458385
0.00226573
0.000261325
0.000414707
0.000651279
0.00242395
0.000383219
0.000269216
0.000459401
0.000700133
0.00235101
0.000216998
0.000511443
0.000483582
0.000637683
0.000543596
0.00235411
0.000493145
0.000439964
0.000456554
0.000465336
0.000441784
0.000878464
0.0026171
0.000428683
0.000532251
0.000692061
0.000591547
0.000665982
0.000711527
0.000567939
0.00220353
0.0006705
0.00122452
0.000642192
0.000655318
0.000755394
0.000857263
0.00107043
0.000815042
0.00243339
0.000860843
0.00152663
0.000559446
0.000619088
0.000839313
0.0010981
0.000875929
0.000575164
0.000865457
0.00268669
0.000667449
0.000566317
0.000637595
0.000475328
0.00078668
0.00109986
0.00103021
0.00127287
0.00108516
0.000925262
0.0020195
0.00107795
0.000429854
0.000836508
0.000955251
0.000945662
0.000784408
0.000441334
0.000424232
0.000950841
0.00144861
0.00125916
0.00218303
0.0007575
0.000862056
0.00113411
0.000721988
0.00146996
0.000899639
0.00144403
0.000722252
0.000959391
0.000977305
0.00116313
0.00166049
0.00276725
0.000511979
0.000434146
0.000641348
0.000689464
0.000389424
0.000523259
0.000539418
0.000574326
0.00076997
0.000764585
0.00120694
0.000555844
0.00161465
0.0021701
0.000224085
0.000139096
0.000331616
0.000319948
0.000225639
0.000266062
0.000639165
0.000489108
0.000323688
0.000611012
0.000850172
0.00105223
0.000437104
0.000818284
0.000316567
4.3633e-05
0.000230593
0.000199746
0.000211781
0.000121469
0.000210701
0.000168828
0.000260942
0.000201816
0.000188502
0.000214443
0.000215609
0.000448708
0.000346803
0.000195797
0.000334206
0.00218298
0.000566198
0.00218276
0.000495678
0.000598235
0.00231027
0.000365549
0.000556794
0.00056858
0.00222623
0.000394577
0.000328469
0.000411245
0.00058187
0.002388
0.000402485
0.000198431
0.000521561
0.00065817
0.000722281
0.00241969
0.000135125
0.000390183
0.000516468
0.000472236
0.000546462
0.000508328
0.00243223
0.000596675
0.000453562
0.00044353
0.000726059
0.00033473
0.000744748
0.000936829
0.00242134
0.000846768
0.000654904
0.000801257
0.000727754
0.000441192
0.000408308
0.000696023
0.000733275
0.00260347
0.000925507
0.000646783
0.000640425
0.000750669
0.000596372
0.000777221
0.000700583
0.000632975
0.00117758
0.00230104
0.000561126
0.00113909
0.00072442
0.000582653
0.00103528
0.00102034
0.0015602
0.000186239
0.000767333
0.000728648
0.0026418
0.000761657
0.000778583
0.000795163
0.000688151
0.00072524
0.00102424
0.000368035
0.000975562
0.0018912
0.00182819
0.00152516
0.00257217
0.000463803
0.000671168
0.000839979
0.000560007
0.00115773
0.00109912
0.000543642
0.00105345
0.000261463
0.000630105
0.00165235
0.00199704
0.00202257
0.000664054
0.000682843
0.00069763
0.00102758
0.00101876
0.00107153
0.000603627
0.00132093
0.000712864
0.000886578
0.000795413
0.00141185
0.00133992
0.00288675
0.000616179
0.000386495
0.000433682
0.000890881
0.000583552
0.000550706
0.000644416
0.000627917
0.0005242
0.000826937
0.000775084
0.000965682
0.00086494
0.00114204
0.00216086
0.00027064
0.000268432
0.00022058
0.000306676
0.000274883
0.00027265
0.000230311
0.000529048
0.000345862
0.000633221
0.000615446
0.000673973
0.00100752
0.000490666
0.000775201
0.000403206
0.000108544
0.000142425
0.000292809
0.000169654
0.000164674
0.000119214
0.000184055
0.00017235
0.000249865
0.000199609
0.000188391
0.000191195
0.000249506
0.000404784
0.000437895
0.000193209
0.000308862
0.00214476
0.000389383
0.00228266
0.000534638
0.000460875
0.00215375
0.000460313
0.000347784
0.000777873
0.00227623
0.000646297
0.000493234
0.000507342
0.000525469
0.00227474
0.000326613
0.000403606
0.000426732
0.000507593
0.000563993
0.00239645
0.000277486
0.000423618
0.000274082
0.000500205
0.000242058
0.000720054
0.00231452
0.000352505
0.000466119
0.00045041
0.000488226
0.000499181
0.000576582
0.000627277
0.00225919
0.000754047
0.000540632
0.000562676
0.000700589
0.000422794
0.000830982
0.000755207
0.00043993
0.00234016
0.000942827
0.000514744
0.000760698
0.000402805
0.000633728
0.00100056
0.000333315
0.000774095
0.000978128
0.00247893
0.000441666
0.00036802
0.00114452
0.000578686
0.000954607
0.000735288
0.000506085
0.000498655
0.000715628
0.00109871
0.00227787
0.000723188
0.000651411
0.00102068
0.000553736
0.000699633
0.000916077
0.000961054
0.00124521
0.00130559
0.000864675
0.000612056
0.0025713
0.00100822
0.00101869
0.000851681
0.000982811
0.000510666
0.000669468
0.000629809
0.000968708
0.000811157
0.000597565
0.00219358
0.00173815
0.00240319
0.000484639
0.000919492
0.000725211
0.000827231
0.000914925
0.00102524
0.000820605
0.000560384
0.000611251
0.000486637
0.000480913
0.0017218
0.00259328
0.00226191
0.000595956
0.000888158
0.00063711
0.00106848
0.000908064
0.000779265
0.000713175
0.00107264
0.000688273
0.000717443
0.00106949
0.000786908
0.000756458
0.000995584
0.00251056
0.000717171
0.00039583
0.00048137
0.000464907
0.000754053
0.000616051
0.000180673
0.000795928
0.000706738
0.000559828
0.000970903
0.000666013
0.000644826
0.00113274
0.00107872
0.00209282
0.00045521
0.000282263
0.000284912
0.000189243
0.00032399
4.27147e-05
0.000317145
0.000182551
0.000482683
0.00046169
0.000523127
0.000492958
0.000543703
0.000767603
0.000513461
0.000890856
0.000470429
0.000181049
0.000110852
0.000206179
0.000239727
0.000119934
0.000110151
8.00419e-05
0.000138247
0.000152365
0.000269795
0.000209203
0.000172125
0.000146566
0.000349989
0.000373739
0.000303595
0.000243413
0.000314595
0.00225234
0.000617228
0.00207139
0.000435629
0.000390202
0.00228936
0.000172122
0.000424393
0.000557364
0.00225127
0.000412161
0.000453165
0.000565775
0.000752764
0.00231342
0.000402373
0.000615192
0.000589968
0.00035666
0.000447411
0.00232697
0.00029076
0.00038187
0.00043446
0.000430465
0.00022463
0.000533598
0.00232428
0.000518728
0.000388123
0.000506727
0.000470856
0.000342067
0.000449586
0.000743427
0.00229591
0.00056614
0.000585107
0.000731766
0.000588096
0.00059071
0.000451635
0.000522247
0.000671577
0.00226795
0.00042502
0.000541379
0.000455811
0.00061432
0.00066463
0.000379917
0.000736091
0.000225695
0.000591326
0.00257317
0.000686668
0.000693828
0.00061407
0.000434022
0.000740516
0.000684921
0.000700874
0.000697372
0.000469554
0.000524775
0.00210235
0.000443068
0.000490769
0.000896556
0.000739401
0.000633496
0.000893303
0.000843824
0.00102741
0.000837013
0.000640906
0.000875507
0.00249235
0.000681798
0.000850912
0.000615249
0.000820816
0.00033434
0.00108135
0.00147222
0.0010703
0.00109116
0.00165527
0.000987789
0.00122146
0.00302786
0.000480825
0.00193226
0.000933139
0.000723335
0.000575575
0.000820926
0.00102037
0.00114294
0.000831212
0.000737305
0.000472381
0.00170409
0.00110821
0.00191455
0.000506522
0.000273496
0.000347914
0.000531549
0.00111026
0.000751512
0.000833894
0.000726296
0.000409638
0.000563135
0.000579352
0.00125577
0.000985369
0.00152925
0.0021181
0.00082069
0.000727928
0.000911058
0.000592863
0.000731347
0.000963747
0.00065022
0.000888088
0.000993912
0.00142424
0.000433456
0.00118443
0.000966588
0.000559348
0.00110164
0.00241827
0.000674381
0.000509366
0.000557276
0.000629824
0.00054511
0.000649787
0.000578944
0.000103053
0.000607108
0.000725635
0.000388286
0.00140208
0.000814724
0.000639045
0.00135192
0.00101653
0.00171225
0.000615739
0.000450993
0.000336448
0.00026403
0.000130585
0.000282918
0.000544511
0.000237424
0.000183686
0.000493698
0.000451779
0.000720072
0.000431904
0.000283724
0.000444602
0.00083987
0.000985336
0.000575401
0.0002258
0.000167869
9.41001e-05
0.000210573
0.000161847
6.88207e-05
9.69222e-05
7.71989e-05
0.00011345
0.000143686
0.00028933
0.000192665
0.000196487
0.000149534
0.000354407
0.000321231
0.000255018
0.000249917
0.000322573
0.0020774
0.000434633
0.00215305
0.000222821
0.000567495
0.0022789
0.000553705
0.000440234
0.00041332
0.00232079
0.000217569
0.000358534
0.000536425
0.000747427
0.00229089
0.000700856
0.000583592
0.00051645
0.000437415
0.000620602
0.00238146
0.000442039
0.000539021
0.000549891
0.000440337
0.00030161
0.000480957
0.0023438
0.000414804
0.000266604
0.000373916
0.000379232
0.000358092
0.000200684
0.000761511
0.00229719
0.000532472
0.000430076
0.000556484
0.000317734
0.000422204
0.00038977
0.000805937
0.000550738
0.00231527
0.000562097
0.000434008
0.000391334
0.000561917
0.000612444
0.000586318
0.000535408
0.000282523
0.000796086
0.00230289
0.000511424
0.000606163
0.00026651
0.000505407
0.000542837
0.000610953
0.00082503
0.000438846
0.000553564
0.000704108
0.0023536
0.000533865
0.00075172
0.00058801
0.000530649
0.00049833
0.000836919
0.000755883
0.000463238
0.000582616
0.000388846
0.000406617
0.00262181
0.000279637
0.000649427
0.000489476
0.00083935
0.000441278
0.000818993
0.00087799
0.000916032
0.000771064
0.0012843
0.000743974
0.000796618
0.00218777
0.000614751
0.000544901
0.000601362
0.000970785
0.000422444
0.000576187
0.0011097
0.000614374
0.000935127
0.00111338
0.00073586
0.00134765
0.00128455
0.00223578
0.000690444
0.000946151
0.00108105
0.00042606
0.000946154
0.00083565
0.000833843
0.000814333
0.000914831
0.00054763
0.000594441
0.00102187
0.00115005
0.00122091
0.00236081
0.000264072
0.000670628
0.00101576
0.000907732
0.000897837
0.000803165
0.000711433
0.00105088
0.000507418
0.000504674
0.00048712
0.00071038
0.00103084
0.000981717
0.00160675
0.00193764
0.000812044
0.000681556
0.000704892
0.000875524
0.000751298
0.000802052
0.000807828
0.00058276
0.000661179
0.000856618
0.000739467
0.000489936
0.000697214
0.00109431
0.000637427
0.00110449
0.00224812
0.000371423
0.000485707
0.000479388
0.000534749
0.000560736
0.00060186
0.000685481
0.000628479
0.000249881
0.00118884
0.000612538
0.000643931
0.00118741
0.0010314
0.000697732
0.00156255
0.000820916
0.00109589
0.000395433
0.000633297
0.000354028
0.000345124
0.000233368
0.000182723
0.000290671
0.00039037
0.000233097
0.000177448
0.000543335
0.00043376
0.000569673
0.000283193
0.000380033
0.000210251
0.00112631
0.000841764
0.000620629
0.000149037
0.000203697
0.000148922
0.00010292
0.000209897
5.80278e-05
4.6641e-05
9.76534e-05
0.000118036
8.49896e-05
0.000148663
0.000272177
0.000182884
0.000257769
0.000177725
0.000346272
0.000348455
0.000311114
0.000328605
0.000318042
0.00203836
0.000255801
0.00207021
0.000418179
0.000274327
0.00213788
0.00044711
0.000291672
0.000613927
0.00203868
0.000272968
0.00050469
0.000380067
0.000787204
0.00229743
0.000684219
0.000206306
0.000361881
0.000687151
0.000380774
0.00241916
0.000403493
0.000568582
0.000603651
0.000570611
0.000444289
0.000626527
0.00234836
0.000424606
0.000376379
0.000464301
0.000572329
0.000300232
0.000413357
0.000460491
0.00227765
0.000534382
0.000561819
0.000768655
0.000421223
0.000414678
0.000447598
0.000448469
0.000701379
0.00225635
0.000465874
0.000535234
0.000439535
0.000484076
0.000354406
0.000426987
0.000427975
0.000446968
0.000812934
0.00221779
0.000593
0.000428877
0.000181491
0.00038536
0.000230685
0.000304437
0.000467758
0.000483373
0.000629108
0.000537911
0.00231253
0.000470274
0.000506788
0.000474855
0.000434662
0.000462976
0.00063776
0.00051026
0.000610064
0.000677166
0.000391387
0.000480682
0.00243654
0.000624698
0.000517665
0.000559719
0.000727675
0.000466048
0.00062451
0.000435057
0.000560744
0.000694118
0.000593244
0.000579089
0.000540067
0.00231015
0.000761443
0.000677461
0.000557461
0.00101973
0.000531155
0.000578569
0.000758389
0.000646571
0.00101152
0.000896821
0.000784745
0.000824551
0.000777712
0.00237054
0.000312711
0.000553389
0.00127487
0.000667395
0.000943539
0.000486509
0.000651732
0.000893535
0.000986747
0.000741202
0.00100638
0.00083006
0.00110575
0.000852788
0.00221902
0.000500187
0.000512178
0.00110019
0.000524785
0.000925397
0.00097589
0.000571074
0.00124644
0.000853554
0.000825571
0.00093071
0.000656626
0.0013094
0.00105594
0.000762683
0.00191456
0.000659515
0.000405794
0.000454009
0.000878504
0.000464379
0.00062076
0.00112367
0.000630304
0.000921463
0.000894321
0.00125039
0.000526285
0.000776218
0.000324744
0.00109061
0.00162126
0.00186023
0.00100725
0.000862999
0.000651891
0.000897713
0.000815187
0.000800736
0.000640556
0.000789797
0.00075082
0.000905373
0.000847644
0.000606364
0.00148943
0.00196691
0.00085546
0.000722528
0.00159621
0.00186214
0.000708998
0.00053303
0.000908825
0.000556663
0.000584993
0.000641218
0.000650294
0.00061457
0.000745409
0.00031025
0.00174822
0.000391363
0.000658399
0.000729996
0.000939844
0.0011826
0.00144205
0.000913743
0.00136826
0.000317704
0.000394458
0.00048924
0.000320479
0.000311878
0.00022636
0.000295757
0.000204938
0.000135091
0.000251385
0.000186945
0.000555652
0.000470222
0.000457945
0.000299835
0.000598944
0.000507597
0.00126085
0.000775175
0.000651586
0.000110926
0.000144743
0.0002069
0.000151404
8.19781e-05
0.000212852
7.95745e-05
0.00016795
0.000102987
7.53093e-05
8.39615e-05
0.000155422
0.000245049
0.000181516
0.000253758
0.00017141
0.000305925
0.000393631
0.000274395
0.000304726
0.000291897
0.0019925
0.000362894
0.00207012
0.000601759
0.000312873
0.00201033
0.000680838
0.000462456
0.000435406
0.00214122
0.000447933
0.000549783
0.000248163
0.000495636
0.00208839
0.000303798
0.000355725
0.000364198
0.000619553
0.000649966
0.00210068
0.00037828
0.000619504
0.000279671
0.000107019
0.000662121
0.000327147
0.00246605
0.000402783
0.00043915
0.000616696
0.000552593
0.000637707
0.000259002
0.000559891
0.00229405
0.000397956
0.000331735
0.000724737
0.000600979
0.000531558
0.000385175
0.000379369
0.000643367
0.00229975
0.000511066
0.000547006
0.0005391
0.000481185
0.000341083
0.000257594
0.000374767
0.000364784
0.000470312
0.00228983
0.000310991
0.000471665
0.000321986
0.000383015
0.000361938
0.000337433
0.000577934
0.000540045
0.000623243
0.000685251
0.00240094
0.000378586
0.000509808
0.00044149
0.00042447
0.000494645
0.000386711
0.000396002
0.000492177
0.000637294
0.000661725
0.00067648
0.00237444
0.00034924
0.000648129
0.000549158
0.000473023
0.000449629
0.000495806
0.000422123
0.000453665
0.000490036
0.000640902
0.000686398
0.000446484
0.0024381
0.000569138
0.000502987
0.000775308
0.000660069
0.000472165
0.000448783
0.00057458
0.000604163
0.000611203
0.000582734
0.00069286
0.000568423
0.000237194
0.00222826
0.000709385
0.000287875
0.000628561
0.000481513
0.000620414
0.000596052
0.000902612
0.000762625
0.000747264
0.000798255
0.000721282
0.000484046
0.000549236
0.000651163
0.0020768
0.000358342
0.000712098
0.00097218
0.000535292
0.000504572
0.00072977
0.000510726
0.000762567
0.00144942
0.00108017
0.000966541
0.000983158
0.00119175
0.00084136
0.000929587
0.00242076
0.000557523
0.000587758
0.000696791
0.00156709
0.0012527
0.000714413
0.000484939
0.000539211
0.000753604
0.000723976
0.000626695
0.00032925
0.000744565
0.000612761
0.00116238
0.0010751
0.00208552
0.00040145
0.000462407
0.000345801
0.00086366
0.000540681
0.000485719
0.000688933
0.000490968
0.000990931
0.000898284
0.000572161
0.00106928
0.000927051
0.000784926
0.000424899
0.00104568
0.0012317
0.00190562
0.00133569
0.001048
0.000990904
0.000682189
0.000731905
0.000546393
0.000936346
0.000613122
0.000890602
0.000556701
0.000857914
0.000708671
0.00063374
0.0013717
0.00176995
0.00114664
0.00114585
0.00175422
0.00183362
0.000465915
0.00065928
0.000415969
0.00077157
0.000597788
0.00054284
0.000639816
0.000681729
0.000655558
0.000635517
0.000246613
0.000941989
0.000973414
0.000706738
0.000595616
0.000696741
0.00120438
0.00124753
0.00117227
0.00159396
0.000332636
0.00027697
0.000539738
0.000484354
0.000225009
0.000257519
0.000155234
0.000203224
0.000227418
0.000144659
0.000236083
0.000206235
0.000422406
0.000493324
0.000516925
0.000388244
0.00057379
0.000697955
0.00122834
0.000701841
0.000734979
9.52132e-05
9.67222e-05
0.000138552
0.000189285
0.000133198
0.000134007
0.000212524
0.000178702
0.000185617
8.96199e-05
9.8698e-05
0.000104509
0.00014057
0.000231134
0.000175718
0.000205792
0.000153061
0.000263021
0.000334685
0.000260279
0.000278466
0.000277168
0.00211703
0.000417411
0.00200503
0.000346316
0.000453835
0.00216109
0.000775072
0.000355887
0.000291494
0.00218116
0.000443264
0.000673609
0.000291056
0.000444008
0.00192975
0.000351688
0.000375765
0.00025492
0.000170607
0.000655239
0.00204444
0.000249052
0.000481222
0.00044222
0.00029388
0.000601392
0.00053864
0.00205448
0.000320624
0.000539214
0.000628222
0.000156323
0.000317739
0.000657858
0.000380033
0.00212427
0.000311063
0.000388271
0.000227142
0.000497201
0.000495631
0.000605009
0.000452872
0.000533317
0.00222806
0.000482216
0.000461162
0.000544435
0.000470337
0.000357781
0.00047914
0.000312068
0.000343854
0.000476554
0.00224204
0.000585645
0.000407768
0.000660162
0.000395592
0.000563776
0.000279814
0.000522778
0.000309593
0.000336005
0.000590304
0.0022024
0.000643793
0.000359106
0.00043927
0.000358264
0.000473231
0.000301313
0.00027937
0.000429874
0.000606416
0.000709365
0.000474364
0.00217362
0.000610197
0.00045086
0.00047018
0.000479314
0.000503871
0.000403614
0.000617138
0.000442359
0.000453339
0.000691653
0.000482266
0.000626259
0.00242604
0.000612201
0.000781093
0.000544812
0.00053053
0.000565429
0.000467987
0.000507628
0.000480663
0.000707641
0.000538246
0.000495965
0.000706872
0.000576455
0.00222277
0.000471203
0.000241097
0.000477666
0.000698078
0.00104126
0.000305801
0.000674916
0.000518755
0.00051026
0.000745138
0.000529677
0.000423738
0.00053413
0.00050099
0.0023899
0.000515302
0.000490402
0.000635796
0.000406655
0.000726963
0.000374124
0.000654881
0.000826062
0.000938218
0.000914811
0.000658776
0.000910129
0.000571892
0.000443108
0.00044015
0.0023092
0.000490112
0.000760075
0.000643465
0.000765448
0.000778056
0.000902309
0.000424032
0.000612002
0.00121325
0.000656929
0.000785995
0.000997609
0.000895767
0.00105377
0.000782036
0.000612572
0.00198767
0.00031261
0.000602523
0.000615554
0.00102364
0.00134282
0.000849951
0.000662885
0.000630688
0.000782564
0.000804486
0.000907482
0.000578563
0.000842845
0.000422289
0.000632616
0.00114368
0.000847551
0.00201595
0.0014599
0.000686595
0.000291878
0.00032339
0.000989548
0.000444361
0.00059294
0.000609748
0.000604317
0.000403942
0.000374508
0.000739492
0.000158679
0.000397475
0.000433865
0.00111973
0.000951964
0.00104649
0.00181521
0.000997912
0.00128575
0.00105673
0.000847364
0.000706517
0.000836017
0.00143747
0.000863845
0.000625658
0.000734102
0.000796579
0.000699193
0.000640794
0.000309442
0.000469911
0.000554814
0.000639098
0.0011203
0.0011902
0.00194889
0.000579568
0.00044375
0.000591561
0.000585436
0.000458419
0.000430616
0.000450724
0.000483681
0.000651276
0.000712064
0.000557584
0.000681359
0.00119083
0.000911081
0.000729287
0.000471278
0.000583197
0.000689271
0.0011444
0.000926722
0.00164667
0.000244585
0.000192644
0.000226346
0.000495987
0.000395344
0.000593696
0.000274474
0.000176604
0.000183604
0.000293886
0.00037266
0.00023897
0.000199476
0.000434257
0.000427139
0.000277894
0.000364725
0.000392909
0.00068788
0.00122151
0.000575728
0.000834518
0.000310439
7.53837e-05
9.66659e-05
0.000115498
0.000136294
0.000159254
0.000133399
0.000195626
0.000199192
0.000182093
0.000121067
0.000126967
8.89764e-05
0.000103262
0.000132778
0.000228262
0.000210892
0.000152274
0.000141319
0.000252199
0.000302174
0.00023312
0.000284282
0.000274905
0.00209082
0.000467915
0.00213232
0.000276747
0.000300081
0.00199041
0.000315851
0.000467621
0.000496599
0.00210166
0.000531867
0.000704713
0.000286991
0.000391276
0.00215799
0.000356274
0.000560069
0.000587454
0.000421195
0.000431758
0.00200958
0.000257993
0.000368476
0.000296538
0.000286723
0.000264376
0.0003366
0.00200928
0.0004557
0.000401916
0.000480339
0.000356589
0.000237528
0.000556367
0.000662109
0.00200817
0.000321064
0.000355487
0.000517009
0.000577664
0.000298636
0.000302795
0.00047769
0.000433243
0.00207286
0.000282014
0.00035689
0.000284584
0.000968666
0.000441736
0.000503278
0.000745905
0.000447617
0.000480411
0.00209823
0.000480827
0.000446195
0.000461736
0.000630607
0.00020164
0.000401272
0.000484552
0.000334881
0.000365424
0.000444012
0.0021797
0.000605453
0.000467177
0.000462569
0.000425931
0.000522938
0.000252912
0.000183796
0.000528086
0.000629219
0.000334841
0.000461232
0.00222596
0.000388176
0.000414729
0.000304582
0.000343203
0.000422831
0.000359216
0.000435011
0.000431482
0.000388151
0.000424631
0.000944549
0.000507147
0.00237225
0.000477155
0.000566417
0.000645492
0.000406253
0.000579524
0.000614266
0.00054178
0.000469512
0.000421688
0.000663918
0.000628298
0.000589839
0.000537368
0.00227471
0.000610636
0.000651791
0.000565081
0.000577134
0.000616719
0.000520745
0.000505962
0.000415935
0.000629089
0.00059915
0.000504121
0.0005672
0.000313575
0.000406217
0.00236637
0.000322171
0.000614301
0.000532971
0.000890234
0.000592229
0.000452234
0.000497306
0.000492662
0.000680607
0.000435439
0.000813036
0.000339438
0.000339023
0.000610195
0.000610749
0.00225919
0.000397448
0.00041409
0.00057964
0.000790344
0.00115711
0.000613223
0.000569136
0.000647568
0.000856807
0.000704769
0.000827389
0.000711144
0.000901508
0.000637861
0.000520319
0.000387885
0.00216596
0.00049825
0.000653421
0.000562935
0.000699604
0.000992018
0.000724906
0.00101247
0.000546389
0.000777297
0.000741425
0.00103745
0.000924974
0.000693718
0.000929808
0.000688952
0.00102282
0.000609535
0.0023813
0.00051369
0.000771974
0.000172772
0.000815513
0.00170052
0.000639951
0.000644848
0.000913426
0.000608561
0.00051719
0.000460157
0.000570637
0.000617236
0.000774507
0.000422206
0.00101926
0.00121211
0.000971006
0.00213421
0.000617091
0.000825113
0.000704435
0.000268998
0.000765301
0.000545555
0.000409051
0.000667348
0.000645451
0.000627069
0.000662617
0.000817676
0.000494857
0.000384842
0.000801627
0.000675527
0.000840953
0.000744471
0.00113718