/*--------------------------------*- C++ -*----------------------------------*\
  =========                 |
  \\      /  F ield         | OpenFOAM: The Open Source CFD Toolbox
   \\    /   O peration     | Website:  https://openfoam.org
    \\  /    A nd           | Version:  7
     \\/     M anipulation  |
\*---------------------------------------------------------------------------*/
FoamFile
{
    version     2.0;
    format      ascii;
    class       volVectorField;
    location    "3.5";
    object      U;
}
// * * * * * * * * * * * * * * * * * * * * * * * * * * * * * * * * * * * * * //

dimensions      [0 1 -1 0 0 0 0];

internalField   nonuniform List<vector> 
18750
(
(1.15365 -0.746883 -1.21994)
(0.759607 -0.267133 1.31913)
(0.992389 -0.483388 -1.38365)
(1.10259 -0.740045 -1.2202)
(4.66198 -0.851182 0.997111)
(1.17667 -0.272191 0.961533)
(0.931036 -0.241875 1.76639)
(0.990854 0.523008 -0.85239)
(0.974925 -0.568719 -1.36227)
(1.00056 -0.88807 -1.1757)
(6.13149 1.22395 0.379168)
(3.956 0.013574 1.44198)
(4.60136 -1.24692 0.985558)
(-0.360838 0.864865 0.2369)
(1.06417 -0.311703 1.13249)
(1.07884 -0.250115 1.85952)
(0.72776 0.372923 -0.808073)
(0.996932 0.430636 -0.904707)
(0.953378 -0.729456 -1.30828)
(0.971288 -0.854478 -1.15199)
(4.10728 2.0248 -0.146492)
(5.19796 1.84225 1.29887)
(5.94298 1.43102 0.450703)
(2.32975 -0.250579 1.54296)
(3.59904 -0.700474 1.91418)
(4.57314 -1.42502 0.981013)
(-0.129038 -0.12099 -0.296766)
(-0.384354 0.857068 0.145292)
(0.958482 -0.296513 1.16569)
(1.20286 -0.392477 1.60948)
(0.741116 0.335653 -1.12812)
(0.73952 0.366874 -0.81934)
(0.991129 0.37813 -0.935587)
(0.943731 -0.818177 -1.27212)
(0.905215 -0.884091 -1.11166)
(3.33048 1.66323 -0.0137646)
(4.042 2.20936 0.165254)
(4.12337 2.07402 -0.023122)
(5.05241 0.283614 1.23006)
(5.09463 2.02262 1.46801)
(5.89858 0.984709 0.330994)
(1.51624 0.0736902 1.55956)
(2.32331 -0.49038 1.3228)
(3.19008 -0.822891 1.7653)
(4.43121 -1.71351 1.12659)
(0.629794 -0.736273 0.830903)
(-0.0946045 -0.13692 -0.320906)
(-0.400271 0.856239 0.0974524)
(0.846309 -0.286811 0.963751)
(1.24323 -0.622251 1.28574)
(0.740585 0.422066 -1.1708)
(0.76698 0.30482 -1.09034)
(0.775794 0.351196 -0.815223)
(0.964381 0.244248 -1.04415)
(0.843695 -1.0366 -1.145)
(0.879465 -0.856715 -1.06689)
(2.58589 1.70243 0.0136275)
(3.21555 2.28995 1.18791)
(3.48024 2.04524 0.0716737)
(4.57478 1.82171 0.962758)
(4.16779 1.95829 0.136826)
(4.10387 2.10593 0.0987393)
(4.13 -0.780366 2.96181)
(4.75766 -0.49096 2.44403)
(5.06328 1.63476 1.50813)
(5.75577 1.17354 0.416754)
(1.99099 -0.156886 0.927156)
(1.44603 0.136194 1.8215)
(2.23621 -0.826448 1.12708)
(2.96679 -0.93638 1.50723)
(4.24908 -2.09171 1.18282)
(0.659983 -0.490681 -0.159206)
(0.648237 -0.699982 0.932335)
(-0.0457549 -0.112594 -0.278049)
(-0.408266 0.86047 0.0732194)
(0.765421 -0.351213 0.591322)
(1.25814 -0.861442 0.94077)
(0.726634 0.145306 -1.21029)
(0.754931 0.374475 -1.14319)
(0.756721 0.288863 -1.05936)
(0.750609 0.337772 -0.790703)
(0.975862 0.25679 -1.09683)
(0.899834 -0.870463 -1.13494)
(0.869942 -0.799486 -1.02398)
(2.44364 1.95828 0.280112)
(3.30277 1.65871 0.938718)
(2.65976 2.19244 -0.0179893)
(3.93051 1.65953 0.746512)
(3.51592 1.57966 1.08692)
(3.72974 1.90385 0.29118)
(4.64084 0.821391 2.09462)
(4.54689 1.14852 1.21921)
(4.57993 1.38589 0.089312)
(4.05424 2.066 0.287554)
(2.8278 -1.49025 3.22927)
(4.16733 -0.513354 2.6082)
(4.64572 -0.804021 3.02236)
(4.90837 0.689831 2.0879)
(5.7428 0.774583 0.132912)
(1.84546 -0.000981433 0.5443)
(1.9312 -0.270408 0.938294)
(1.42322 0.20848 1.82319)
(2.16235 -0.889292 0.918762)
(2.56967 -1.72223 1.49611)
(3.80343 -2.89063 1.31831)
(0.960319 0.0843246 -0.457198)
(0.617519 -0.511069 -0.0729192)
(0.685348 -0.621025 1.00262)
(0.0219014 -0.0225533 -0.0895761)
(-0.40285 0.865228 0.0495359)
(0.719454 -0.409311 0.230864)
(1.28777 -1.03019 0.629606)
(0.768331 0.51165 -1.15549)
(0.730506 0.134901 -1.21502)
(0.767929 0.342768 -1.14128)
(0.785826 0.265494 -1.03993)
(0.763262 0.322093 -0.807375)
(0.942964 0.170995 -1.20367)
(0.940249 -0.740727 -1.13513)
(0.864384 -0.746373 -0.98709)
(2.57686 1.47027 0.139865)
(3.36311 1.43214 0.0436373)
(2.5247 2.0261 0.271386)
(3.81749 0.760064 0.820739)
(3.84542 0.55766 0.925789)
(2.94549 2.05296 0.0525913)
(4.06624 1.13473 1.23029)
(4.10312 1.30349 0.741286)
(3.67536 1.12148 0.847658)
(3.93595 1.61562 0.404199)
(4.02687 -0.286289 3.30948)
(4.61049 1.06079 1.68528)
(4.34709 0.384978 1.43006)
(4.7889 1.12756 0.0187714)
(4.12183 1.81626 0.193846)
(3.45267 -0.820438 1.31672)
(2.67745 -1.59886 3.30715)
(4.0515 -0.46482 2.55664)
(4.60564 -0.191721 3.00541)
(4.53785 -0.298538 2.67962)
(5.6025 0.640432 0.0731585)
(2.33241 -0.693963 0.111508)
(1.81539 -0.0744786 0.604207)
(1.87949 -0.180507 0.938542)
(1.3854 0.165763 1.80843)
(2.09984 -0.912909 0.786006)
(1.88761 -2.5069 1.15802)
(3.44023 -3.26287 1.31278)
(1.32124 0.393231 -0.443724)
(0.986757 -0.0891916 -0.428718)
(0.550169 -0.554679 0.00905172)
(0.710201 -0.533987 1.02068)
(0.119496 0.116173 0.233285)
(-0.364105 0.849529 0.00588411)
(0.729659 -0.483204 0.0493877)
(1.26976 -1.25874 0.130753)
(0.641762 0.314811 -1.72444)
(0.75955 0.510295 -1.26725)
(0.727007 0.130628 -1.20572)
(0.782009 0.333939 -1.13563)
(0.790561 0.259342 -1.02151)
(0.817351 0.388254 -0.826321)
(0.913766 0.123005 -1.27239)
(0.959824 -0.695282 -1.10956)
(0.867058 -0.696975 -0.952684)
(2.2464 1.47828 0.0894073)
(2.9255 1.44867 0.0217526)
(2.61095 1.60182 0.0574384)
(3.62855 0.744992 0.539494)
(3.36746 1.28109 0.105597)
(2.7105 1.74547 0.283228)
(3.87847 0.99432 0.814493)
(4.05581 0.602518 0.679039)
(3.83368 1.13472 0.788495)
(3.25827 1.74272 0.0192246)
(3.98584 0.0481163 2.09319)
(4.28715 1.07393 1.28584)
(4.11818 1.28619 0.679101)
(3.71528 1.12302 0.792895)
(4.07183 1.25673 0.395872)
(4.01616 -0.368073 3.26714)
(4.12059 0.12751 2.95996)
(4.52291 0.341168 1.67277)
(4.37983 0.155623 1.43505)
(4.85779 0.972257 0.194253)
(4.03585 1.62091 0.221084)
(4.29233 -0.423733 0.41228)
(3.23566 -1.26544 2.23372)
(2.49376 -1.52807 3.29576)
(4.05047 -0.575754 2.48167)
(4.45992 -0.368775 3.15307)
(4.20825 -0.809233 2.82535)
(5.43694 0.249738 -0.292915)
(2.24556 -1.62928 -0.443798)
(2.29313 -0.818774 0.202856)
(1.80667 -0.080837 0.777356)
(1.87434 -0.0968689 0.864776)
(1.32363 0.113247 1.89246)
(2.0413 -0.998277 0.779359)
(1.78774 -2.71565 0.603342)
(2.92324 -3.6177 1.31598)
(1.75374 0.470697 -0.568637)
(1.46846 0.367248 -0.181685)
(1.0223 -0.0845209 -0.368009)
(0.481057 -0.562357 0.105781)
(0.756328 -0.348382 0.92146)
(0.224202 0.244751 0.592569)
(-0.298837 0.802502 -0.0292302)
(0.833707 -0.508794 -0.236402)
(1.08637 -1.61162 -0.604523)
(0.524354 -0.114982 -1.22668)
(0.626032 0.249533 -1.7789)
(0.751003 0.487776 -1.38535)
(0.712131 0.0902087 -1.25562)
(0.797358 0.321497 -1.12406)
(0.790617 0.262741 -1.10362)
(0.799361 0.345307 -0.911385)
(0.850773 0.0357372 -1.35446)
(0.942581 -0.681409 -1.10434)
(0.883036 -0.640549 -0.921878)
(2.10602 1.59278 -0.00280729)
(2.60533 1.41939 0.0598536)
(2.30524 1.46099 0.0663358)
(3.33655 0.221873 0.362419)
(2.93825 1.36373 0.10556)
(2.72216 1.40691 0.0592977)
(3.84381 0.569564 0.0164514)
(3.74261 0.17626 0.720071)
(3.34623 1.29415 0.194423)
(3.0333 1.2879 0.300312)
(3.79093 0.361709 1.23814)
(4.09818 0.697989 0.74782)
(4.06859 0.553742 0.507774)
(3.90011 0.871927 0.753253)
(3.49522 1.48842 -0.0229321)
(3.70516 0.381393 2.46068)
(4.0467 0.0726544 1.96476)
(4.41057 0.199139 1.59642)
(4.19864 0.449745 0.896864)
(3.9441 0.799943 0.653115)
(4.18861 0.826837 0.357191)
(3.9029 -1.241 2.93564)
(3.08889 -1.82886 3.66091)
(3.87021 -0.375993 2.90247)
(4.45888 -0.803015 1.91081)
(4.40989 -0.519139 1.56859)
(4.96698 0.486961 0.239098)
(3.99085 1.19804 0.180646)
(4.22929 -0.675639 -0.0106013)
(4.10057 -1.05551 0.86434)
(3.11727 -1.31655 2.38137)
(2.57457 -1.43113 3.20134)
(3.99043 -0.893659 2.56842)
(3.92497 -1.36238 3.77583)
(3.4502 -2.23104 3.20414)
(5.11592 -0.231797 -0.932672)
(2.0476 -1.57801 -1.39383)
(2.12693 -1.88362 -0.323703)
(2.09674 -1.10888 0.504565)
(1.78835 -0.118308 0.894221)
(1.79799 -0.229646 0.825855)
(1.31205 0.0605401 1.96717)
(2.06496 -1.11323 0.758086)
(0.970025 -3.96227 -0.707535)
(2.55464 -3.89996 1.30483)
(2.01231 0.0894104 -0.932434)
(1.87602 0.528103 -0.229209)
(1.59906 0.263264 -0.216346)
(1.02865 -0.187477 -0.383362)
(0.396021 -0.540889 0.143142)
(0.755736 -0.296318 0.731581)
(0.297268 0.311286 0.924275)
(-0.239907 0.703418 -0.103227)
(1.00493 -0.543694 -0.470686)
(0.975212 -1.81966 -0.896207)
(0.796182 0.222515 -1.1113)
(0.519912 -0.101892 -1.20759)
(0.607677 0.211862 -1.80848)
(0.738386 0.452834 -1.51669)
(0.708417 0.0929635 -1.3116)
(0.804781 0.306624 -1.109)
(0.812406 0.278173 -1.20242)
(0.800455 0.336464 -0.962287)
(0.798331 -0.0667367 -1.43684)
(0.929206 -0.699299 -1.10394)
(0.908662 -0.602508 -0.90344)
(2.15504 1.18343 0.0036281)
(2.55828 1.32162 0.0615738)
(2.17198 1.47617 -0.0238289)
(2.84247 0.430654 0.190441)
(2.6582 1.38111 0.0801708)
(2.37294 1.29177 0.0851619)
(3.18378 0.512913 0.254863)
(3.36464 0.399089 0.32231)
(3.04787 1.11406 0.136368)
(2.88585 1.07694 -0.0322761)
(3.87802 0.249604 0.399633)
(3.97551 0.487466 0.126187)
(3.79912 0.0387208 0.781683)
(3.62537 0.77217 0.110061)
(3.15923 1.11554 0.282731)
(3.93099 0.193553 1.09061)
(3.85312 0.212953 1.2141)
(4.13386 0.500103 0.562019)
(4.18917 -0.245931 0.769068)
(3.94213 0.27171 0.886607)
(3.63612 1.07483 -0.0493861)
(3.70054 0.208853 2.87553)
(3.66523 0.138441 2.38248)
(4.29037 0.285231 1.71001)
(4.53211 0.176041 1.45896)
(4.18017 0.0826366 0.934935)
(3.93506 0.523511 0.507865)
(4.27428 0.460542 0.313943)
(3.95974 -1.43915 2.55637)
(3.57547 -1.26875 2.93041)
(3.47548 -0.277933 3.37909)
(3.96099 -0.702727 2.94568)
(4.38704 -1.08029 2.05397)
(4.26547 -1.57197 1.96552)
(4.9614 0.246649 0.409341)
(4.04363 0.877198 0.128251)
(3.95473 -0.140837 0.778135)
(4.01816 -1.21914 0.19249)
(3.58015 -1.46428 1.26632)
(2.49936 -1.25962 2.81725)
(2.5323 -1.40626 3.30116)
(3.69916 -1.77836 2.79475)
(3.70763 -1.78865 3.87326)
(2.63955 -3.51468 3.49303)
(4.52537 -0.934697 -0.399472)
(2.73714 -0.302207 -1.33188)
(1.82616 -2.06055 -1.23548)
(2.0415 -2.02507 -0.21697)
(2.14884 -0.876292 0.520386)
(1.75934 -0.173712 0.992512)
(1.70795 -0.303789 0.801358)
(1.32899 -0.0817114 1.93703)
(1.8995 -1.82157 0.499675)
(0.910519 -4.05472 -1.08391)
(2.1839 -4.12949 1.24478)
(1.43711 -0.672331 -1.33794)
(1.94394 -0.171021 -1.047)
(1.97157 0.499389 -0.161101)
(1.72426 0.193855 -0.312242)
(1.01563 -0.207646 -0.405141)
(0.380127 -0.484716 0.0653049)
(0.703705 -0.334738 0.497549)
(0.329865 0.262572 1.19393)
(-0.22308 0.435038 -0.447897)
(1.13861 -0.653435 -0.587177)
(0.871704 -1.99432 -0.934703)
(0.573788 -0.117484 -1.45722)
(0.816137 0.221625 -1.0936)
(0.532021 -0.0864235 -1.17943)
(0.587837 0.178278 -1.80212)
(0.711145 0.427323 -1.63363)
(0.706058 0.094189 -1.32435)
(0.80522 0.276945 -1.10152)
(0.826366 0.284247 -1.29343)
(0.784693 0.303946 -1.07513)
(0.768009 -0.102649 -1.51024)
(0.918883 -0.699361 -1.15108)
(0.91384 -0.592247 -0.90885)
(1.85032 1.36009 0.0560356)
(2.49853 1.06591 -0.130822)
(2.24564 1.05659 -0.000318893)
(2.62932 0.667677 0.201964)
(2.71716 1.02676 0.2215)
(2.38491 1.13794 -0.0423194)
(2.92627 0.207565 0.3248)
(2.83826 0.452613 0.218317)
(2.87701 0.867226 0.0799112)
(2.62548 0.845602 0.158345)
(3.41023 0.460397 0.268583)
(3.29325 0.00927549 0.280624)
(3.34548 0.464381 0.206119)
(3.10968 0.927908 0.219198)
(3.01872 0.927459 -0.0632326)
(3.67885 0.0204138 0.734906)
(3.94522 0.00986174 0.436669)
(4.01847 0.0502736 0.400712)
(3.78512 0.044143 0.803383)
(3.721 0.671463 0.220744)
(3.2365 0.521419 0.168318)
(4.11416 0.176619 1.25021)
(4.08672 0.0289638 1.05046)
(4.00109 -0.0177193 1.13457)
(4.2749 -0.352803 0.552446)
(4.12314 -0.0205919 0.554056)
(3.97743 -0.0773923 0.858591)
(3.73447 0.625788 -0.0938841)
(4.01005 -0.0751261 2.86892)
(3.46574 -0.164738 3.04556)
(3.57674 -0.621513 2.56611)
(4.26403 -0.319204 1.91072)
(4.46652 0.0164306 1.4864)
(4.19353 -0.194659 0.917132)
(3.90139 -0.387102 0.478439)
(4.22995 0.0389186 0.294743)
(4.07253 -0.153115 2.77661)
(3.73285 -1.27892 2.52128)
(3.23955 -1.51377 2.81046)
(3.05837 -1.3804 3.40759)
(3.48973 -1.36865 3.1955)
(4.01403 -2.2454 2.57062)
(4.20703 -2.01437 2.37152)
(4.50825 -0.774633 1.26793)
(4.1746 0.664336 -0.0670831)
(4.01049 0.03374 1.37037)
(3.93197 -0.373804 0.799881)
(3.82351 -1.44142 0.23625)
(3.43235 -1.04744 1.09542)
(2.72058 -1.09999 2.41365)
(2.61589 -1.27985 3.23663)
(3.31439 -2.47614 2.83726)
(2.90497 -2.9774 3.64496)
(2.38722 -3.68994 3.03745)
(3.90638 -1.54029 0.518048)
(2.1549 -0.141682 -1.1092)
(2.71478 -0.268312 -1.18582)
(1.7418 -2.23656 -1.05556)
(1.95176 -2.13595 -0.129682)
(1.84132 -1.39803 0.695757)
(1.69098 -0.301961 1.05919)
(1.59401 -0.408893 0.717633)
(1.26499 -0.448754 1.64519)
(2.01016 -2.13848 0.372806)
(1.04858 -3.91894 -0.800886)
(1.37756 -4.34665 1.18657)
(1.0217 -0.00763816 -1.19644)
(1.42244 -0.718704 -1.33009)
(1.81699 -0.229237 -1.19124)
(2.06589 0.466439 -0.251874)
(1.84233 0.0913582 -0.228218)
(1.02583 -0.335076 -0.435524)
(0.318027 -0.474813 0.0365568)
(0.598876 -0.387616 0.240438)
(0.317677 0.159129 1.2338)
(-0.216809 0.25985 -0.650043)
(1.2202 -0.796217 -0.605296)
(0.642638 -2.26983 -0.804477)
(0.967526 -0.399691 -1.40938)
(0.565076 -0.110435 -1.47316)
(0.814986 0.181416 -1.11533)
(0.532359 -0.0829903 -1.15722)
(0.559953 0.142188 -1.75496)
(0.68986 0.41431 -1.714)
(0.702626 0.106133 -1.31423)
(0.808719 0.228144 -1.11358)
(0.840227 0.279905 -1.38319)
(0.781132 0.281549 -1.23529)
(0.744231 -0.126696 -1.57569)
(0.960378 -0.642464 -1.20035)
(0.934819 -0.574716 -0.920965)
(1.85301 1.03425 0.0437935)
(2.26019 1.22532 0.0615618)
(1.92621 1.27203 0.0189395)
(2.52884 0.600495 0.199971)
(2.66788 0.697814 0.0418217)
(2.28067 0.917174 0.00296855)
(2.6745 0.545785 0.370588)
(2.66521 0.684207 0.149603)
(2.86753 0.503917 0.238594)
(2.41355 1.0975 0.0165502)
(2.93989 0.39324 0.492448)
(2.96933 -0.0190648 0.302172)
(2.84595 0.513767 0.309018)
(3.11196 0.403865 0.00175427)
(2.64766 0.944974 0.137638)
(3.37835 0.253562 0.467133)
(3.42547 0.270472 0.11253)
(3.38193 -0.0932708 0.298242)
(3.34857 0.302974 0.132118)
(3.17907 0.370975 0.443931)
(3.00245 0.795874 0.020485)
(3.79257 -0.0482432 0.852437)
(3.73576 -0.0517981 0.687551)
(3.96294 -0.127826 0.482225)
(3.95515 -0.2837 0.439368)
(3.8057 -0.165906 0.87348)
(3.72851 0.2497 0.191514)
(3.25059 0.25506 0.095376)
(3.98507 -0.286431 1.72273)
(4.23563 -0.245664 1.43431)
(4.05533 0.00814654 1.11679)
(4.12873 -0.221047 1.01645)
(4.35351 -0.514415 0.716827)
(3.96188 -0.606096 0.78593)
(3.92845 -0.566921 0.804691)
(3.93864 -0.0239541 -0.125503)
(4.26917 0.351018 2.79619)
(3.99383 -0.074513 2.89358)
(3.23919 -0.679186 3.23973)
(3.53443 -0.958747 2.613)
(4.22328 -0.496881 1.91077)
(4.32504 -0.52668 1.60298)
(4.10353 -0.489147 0.899059)
(3.81714 -0.900142 0.501432)
(4.07507 -0.74936 0.279176)
(4.32464 0.182252 2.44174)
(4.05465 -0.351053 2.91198)
(3.6733 -0.95814 2.57324)
(3.19914 -1.29713 2.83256)
(2.96796 -1.4352 3.50575)
(3.71624 -1.62699 2.81958)
(3.84395 -2.1387 2.78902)
(4.21681 -2.0145 2.35809)
(4.20178 -1.29607 1.60255)
(4.1494 0.497541 -0.212646)
(4.3583 -0.701668 0.435384)
(4.00011 0.00838222 1.413)
(3.88994 -0.793892 0.913078)
(3.76868 -1.6144 0.201697)
(3.23946 -1.5007 1.33419)
(2.59863 -1.10212 2.5887)
(2.52433 -1.38582 3.10013)
(3.03474 -2.83705 2.80826)
(2.31736 -3.44952 3.14248)
(1.87291 -4.05992 2.63251)
(3.18009 -2.26694 0.799569)
(1.72921 -0.488733 -1.14217)
(2.1425 -0.229232 -1.18779)
(2.69878 -0.285053 -1.15814)
(1.78445 -2.21138 -0.87773)
(1.86356 -2.19604 0.234572)
(1.69192 -1.71251 0.916366)
(1.63984 -0.388205 0.964101)
(1.48289 -0.426516 0.602154)
(1.33967 -0.666601 1.09294)
(2.17121 -2.37132 -0.0886617)
(1.06047 -3.93285 -0.422794)
(2.17437 -3.91823 1.25043)
(0.92684 0.34387 -0.940613)
(1.06405 0.00896133 -1.26633)
(1.4104 -0.745093 -1.31672)
(1.80175 -0.147157 -1.17717)
(2.14391 0.403047 -0.356859)
(1.91221 -0.025375 -0.132905)
(1.14148 -0.280505 -0.377718)
(0.302459 -0.449322 -0.0457476)
(0.498377 -0.443675 0.00378587)
(0.291316 0.0191153 0.878756)
(-0.184109 0.0871418 -0.781021)
(1.27991 -0.970151 -0.524422)
(0.366732 -2.51144 -0.53947)
(0.888962 -0.456016 -1.43571)
(0.958209 -0.402922 -1.41425)
(0.556217 -0.110598 -1.48675)
(0.815259 0.127099 -1.16059)
(0.538377 -0.0580972 -1.14284)
(0.541727 0.128243 -1.68799)
(0.683377 0.370373 -1.77275)
(0.688739 0.105259 -1.33636)
(0.795381 0.203706 -1.13286)
(0.85554 0.271974 -1.46747)
(0.781399 0.263539 -1.3837)
(0.707516 -0.163249 -1.64021)
(1.01116 -0.552694 -1.24211)
(0.976073 -0.575421 -0.908745)
(1.5789 1.12316 0.027151)
(2.23441 0.81828 -0.0746077)
(1.94792 0.893198 0.0245088)
(2.49687 0.740373 0.127945)
(2.36212 1.02314 0.0424831)
(2.05746 0.994333 0.00313302)
(2.653 0.415875 0.270197)
(2.59042 0.474887 0.156229)
(2.65314 0.583245 -0.00927946)
(2.35784 0.672882 -0.00317819)
(2.79978 0.660939 0.468783)
(2.69034 0.318514 0.308923)
(2.64681 0.609822 0.191483)
(2.93537 0.307068 0.201562)
(2.53683 0.795855 0.0570463)
(3.03284 0.267107 0.669593)
(2.96181 0.17776 0.569992)
(2.99977 0.0278029 0.370439)
(2.98406 0.231498 0.27752)
(3.17528 0.298166 0.0891514)
(2.745 0.624007 0.079743)
(3.52481 0.149966 0.564858)
(3.45259 0.16866 0.434521)
(3.42696 0.0595727 0.18421)
(3.3672 -0.213845 0.371429)
(3.35169 0.226867 0.0356381)
(3.19395 0.22275 0.329336)
(3.14404 0.223957 0.0581563)
(3.99456 0.0289617 1.00338)
(3.79439 -0.194449 0.813812)
(3.81338 -0.300967 0.590828)
(3.95553 -0.362461 0.482169)
(3.95191 -0.568999 0.463155)
(3.73467 -0.04374 0.810211)
(3.75099 -0.444539 0.0733837)
(3.36526 0.000224623 -0.0126728)
(4.02788 -0.222187 1.55941)
(4.03041 -1.15642 1.90122)
(4.24572 -0.704945 1.59848)
(4.01108 -0.389426 1.26421)
(4.27519 -0.55889 0.958319)
(4.26158 -1.10826 0.578561)
(3.82356 -0.789011 0.921706)
(3.79189 -1.2971 0.751429)
(3.92169 -0.0639189 -0.0137637)
(4.32315 -0.306604 2.36705)
(4.15194 -0.649451 3.02046)
(3.88596 -0.67143 3.16454)
(3.2029 -0.801776 3.24703)
(3.59119 -1.12485 2.63118)
(3.77145 -1.92398 2.45406)
(4.2971 -1.34817 1.47186)
(4.06905 -0.905265 0.870096)
(3.70272 -1.44768 0.524899)
(3.95859 -1.39502 0.228812)
(4.75692 0.193531 2.37797)
(4.43117 0.159466 2.45584)
(3.95144 -0.489827 2.86847)
(3.56018 -1.49736 2.52272)
(3.05254 -1.48973 3.05847)
(2.75309 -1.89113 3.42083)
(3.16698 -2.75114 2.91597)
(3.70573 -2.19068 2.78803)
(3.91199 -2.02764 2.30167)
(3.91677 -1.76071 1.85784)
(3.76334 -0.481186 -0.280015)
(3.94562 -1.07418 0.581136)
(4.18407 -0.488937 1.20935)
(3.87317 -0.308158 1.60474)
(3.03883 -2.39402 1.02695)
(3.19593 -2.35457 0.575539)
(2.7602 -2.05361 1.45962)
(2.58059 -1.01888 2.49034)
(2.71794 -1.71046 2.56784)
(1.92772 -3.92691 2.39557)
(1.99838 -3.6785 2.58446)
(1.57761 -3.98049 2.72608)
(2.771 -2.81415 0.524135)
(1.63856 -0.660371 -1.09249)
(1.76549 -0.647967 -1.13988)
(2.0818 -0.233658 -1.25729)
(2.55223 -0.675677 -1.22912)
(1.66298 -2.32323 -0.638296)
(1.87644 -2.16094 0.385787)
(1.82744 -1.64709 0.792621)
(1.47554 -0.615096 0.826869)
(1.48073 -0.371923 0.4069)
(1.487 -0.75242 0.66436)
(2.01719 -2.77756 -0.846541)
(0.77885 -4.1065 0.546384)
(1.68149 -4.36942 0.988089)
(0.958419 0.0128514 -1.26696)
(0.94764 0.314099 -0.974561)
(1.12213 0.0543458 -1.36412)
(1.37787 -0.796458 -1.32005)
(1.74575 -0.215495 -1.2649)
(2.16456 0.285731 -0.608424)
(1.9618 -0.161565 -0.0454299)
(1.15528 -0.360714 -0.440228)
(0.295789 -0.436162 -0.082737)
(0.328916 -0.550944 -0.480777)
(0.209268 -0.097338 0.501997)
(-0.137882 -0.00732132 -0.736764)
(1.29976 -1.16184 -0.406711)
(0.17939 -2.70036 -0.219532)
(0.75399 -1.06015 -1.03281)
(0.886954 -0.462717 -1.43494)
(0.92571 -0.425631 -1.42811)
(0.543334 -0.0959186 -1.5019)
(0.834061 0.14379 -1.15708)
(0.546275 -0.040025 -1.13659)
(0.528003 0.132821 -1.62935)
(0.640211 0.340827 -1.87694)
(0.681814 0.0983134 -1.3445)
(0.768573 0.132155 -1.21329)
(0.87568 0.26273 -1.53145)
(0.774397 0.233363 -1.51658)
(0.692987 -0.200634 -1.68683)
(1.07057 -0.48631 -1.2615)
(0.987254 -0.580164 -0.904041)
(1.4744 1.00651 -0.00211727)
(2.01593 0.655042 0.0668552)
(1.67319 0.996303 0.0534033)
(2.34792 0.625588 -0.233402)
(2.27656 0.664479 -0.0184986)
(1.96927 0.782376 0.0421956)
(2.55875 0.563022 0.171076)
(2.50849 0.674107 0.118876)
(2.40617 0.781839 0.0416965)
(2.0937 0.88738 -0.0162601)
(2.6586 0.521761 0.405782)
(2.65754 0.404842 0.279229)
(2.61475 0.347786 0.230268)
(2.68818 0.41534 -0.0020217)
(2.38281 0.575796 0.0344424)
(2.8113 0.518784 0.64018)
(2.79608 0.536583 0.53141)
(2.65929 0.204819 0.267537)
(2.79331 0.163901 0.175347)
(2.99259 0.199214 0.133719)
(2.60764 0.410604 0.0769039)
(3.11664 0.271923 0.688974)
(3.02622 0.214247 0.643416)
(2.98551 0.0723418 0.531132)
(3.07431 -0.0688225 0.315135)
(3.11558 -0.123244 0.29168)
(3.12967 -0.0417319 0.226877)
(2.8259 -0.130278 0.0511125)
(3.52028 0.064686 0.763169)
(3.4359 0.07914 0.631807)
(3.47048 -0.032613 0.456848)
(3.47428 -0.250099 0.27391)
(3.33857 -0.377453 0.407463)
(3.36884 -0.0888828 0.0815279)
(3.27218 -0.182632 0.334793)
(3.21173 0.218754 0.0711623)
(4.00843 -0.504763 1.34744)
(3.81989 -0.541595 1.02698)
(3.86955 -0.461594 0.755218)
(3.87152 -0.630293 0.559549)
(3.89071 -0.658704 0.49648)
(3.7511 -0.787468 0.761754)
(3.64929 -0.794037 0.711036)
(3.73091 -0.536782 0.164293)
(3.33533 -0.00752943 -0.0444179)
(3.84494 -0.30157 1.63512)
(3.86233 -0.972901 1.94086)
(4.25327 -1.11684 1.84822)
(4.17994 -0.902072 1.60284)
(3.99323 -0.972356 1.4866)
(4.20847 -0.939268 1.08225)
(4.19244 -1.42872 0.590267)
(3.66536 -1.16457 0.991766)
(3.69654 -1.50374 0.692202)
(3.89492 -0.514546 0.0959417)
(4.29978 -0.445173 1.87954)
(4.0321 -1.19974 2.50848)
(4.35396 -0.231608 2.89592)
(3.74987 -0.768864 3.28387)
(3.0233 -1.33033 3.42462)
(3.2324 -1.87788 2.91369)
(3.58314 -2.11697 2.56801)
(4.19002 -1.38578 1.71345)
(4.09922 -1.12068 0.741257)
(3.59324 -1.71273 0.526332)
(3.83579 -1.69802 0.206723)
(4.77397 -1.00349 2.00657)
(4.77654 0.164797 2.32071)
(4.20629 -0.26691 2.77177)
(3.60103 -1.11404 2.79385)
(3.30678 -1.41095 2.65725)
(2.88807 -1.29188 3.31499)
(2.97814 -1.78456 3.29415)
(3.14034 -2.95404 2.85726)
(3.43261 -2.39569 2.92868)
(3.31742 -2.42279 2.33422)
(3.91023 -1.86882 1.67968)
(3.23672 -0.998743 -0.271909)
(3.458 -0.243998 0.902117)
(3.91117 -0.944314 0.933533)
(3.93416 -0.641147 1.0954)
(3.6881 -0.557118 1.58322)
(3.75532 -0.633704 0.325584)
(3.26308 -1.7437 0.779708)
(1.55783 -2.50767 1.39247)
(2.11766 -1.15342 2.59837)
(2.55747 -2.17159 2.07184)
(2.15013 -3.49236 2.32201)
(1.77269 -3.70173 2.51461)
(1.10261 -4.10959 2.87304)
(2.17387 -3.53241 0.324066)
(1.79534 -0.540586 -1.40836)
(1.6033 -0.788957 -1.15679)
(1.73621 -0.825654 -1.1313)
(2.06693 -0.312259 -1.14098)
(2.28056 -1.00084 -1.34348)
(1.49499 -2.3411 -0.754232)
(1.70526 -2.30051 0.451592)
(1.54661 -1.86505 0.86659)
(1.29795 -0.861571 0.661533)
(1.49679 -0.402281 0.206266)
(1.62114 -0.850067 0.146486)
(1.82626 -3.08579 -1.22566)
(0.518362 -4.30627 1.52417)
(2.17475 -4.22505 0.834904)
(0.811275 -0.391618 -1.0493)
(0.953405 -0.0525565 -1.29902)
(0.974672 0.18876 -1.07283)
(1.1476 0.0404002 -1.4974)
(1.27167 -1.00152 -1.31564)
(1.70231 -0.239605 -1.31529)
(2.17523 0.139201 -0.815034)
(2.02435 -0.26913 0.00977745)
(1.19157 -0.454383 -0.323039)
(0.346242 -0.404094 -0.226494)
(0.190148 -0.630741 -0.840303)
(0.103656 -0.202885 0.122461)
(-0.124375 -0.12212 -0.706434)
(1.2262 -1.39484 -0.304164)
(0.0357547 -2.79566 0.0338267)
(0.30454 -0.433456 -1.04865)
(0.750286 -1.03516 -1.05243)
(0.877254 -0.51643 -1.42088)
(0.911444 -0.456627 -1.43928)
(0.533997 -0.088853 -1.51726)
(0.832401 0.0960325 -1.1663)
(0.551839 -0.0218138 -1.13345)
(0.526241 0.153909 -1.57931)
(0.618954 0.314094 -1.91605)
(0.657566 0.0838426 -1.35522)
(0.785985 0.131406 -1.27169)
(0.908091 0.239854 -1.56506)
(0.757875 0.190774 -1.6377)
(0.658577 -0.236886 -1.70024)
(1.1057 -0.452783 -1.26274)
(1.00299 -0.599693 -0.87753)
(1.44337 0.901768 0.0450019)
(1.80961 0.67055 -0.0465442)
(1.58001 0.894339 -0.0627837)
(2.1152 0.513113 -0.133583)
(2.02328 0.655161 0.0359297)
(1.73554 0.880102 0.0599893)
(2.32365 0.535243 -0.119719)
(2.38209 0.519586 -0.221913)
(2.25175 0.604681 -0.0225121)
(2.02607 0.625845 0.0753172)
(2.6008 0.503472 0.166279)
(2.55665 0.560244 0.11959)
(2.58137 0.378431 0.124694)
(2.48366 0.565914 0.0552285)
(2.20435 0.679719 -0.0339509)
(2.68895 0.391011 0.385948)
(2.73726 0.388587 0.473606)
(2.64556 0.286417 0.276902)
(2.66969 -0.249542 0.309339)
(2.74468 0.168968 -0.000733386)
(2.37624 0.301315 0.109749)
(2.87763 0.383373 0.622896)
(2.80415 0.42541 0.63119)
(2.79122 0.0909018 0.494189)
(2.74536 0.0382246 0.229476)
(2.88904 0.0164723 0.154655)
(2.96812 -0.0616181 0.0372654)
(2.59767 0.375235 0.0203973)
(3.12389 0.212485 0.894596)
(3.11543 0.148551 0.697408)
(3.04237 0.104896 0.65506)
(3.00788 -0.200413 0.510039)
(3.10036 -0.170904 0.354789)
(3.08005 -0.17831 0.348891)
(3.0902 -0.805731 0.117923)
(2.85515 0.0259376 0.0638099)
(3.48276 0.100657 0.897493)
(3.54009 0.0913413 0.803728)
(3.40096 -0.285925 0.605727)
(3.43704 -0.321585 0.442364)
(3.47124 -0.272048 0.307571)
(3.38167 -0.604534 0.383008)
(3.39386 -0.378625 0.0597493)
(3.25854 -0.231276 0.288705)
(3.14945 0.11227 0.0529523)
(3.94927 -0.68206 1.58598)
(3.99429 -0.453908 1.31436)
(3.69591 -0.842987 1.01408)
(3.85594 -0.548337 0.809919)
(3.84728 -0.868621 0.657532)
(3.84038 -0.975364 0.570667)
(3.47861 -1.12793 0.7815)
(3.58923 -1.04928 0.466833)
(3.55622 -0.828101 0.399835)
(3.34338 -0.4616 -0.124636)
(3.74713 -0.126443 1.72459)
(3.80125 -0.700392 1.83514)
(3.79463 -1.70195 2.12733)
(4.35549 -1.20402 1.76073)
(4.17571 -1.04192 1.70147)
(3.87922 -1.22356 1.62753)
(4.00091 -1.40753 1.14054)
(4.19302 -1.79497 0.584791)
(3.62094 -1.2967 0.910491)
(3.52568 -1.93298 0.572457)
(3.93084 -0.780713 0.18411)
(4.51908 -0.243275 2.05385)
(4.22079 -0.662514 1.97028)
(4.21614 -0.347507 2.51521)
(4.2479 -0.926596 3.07934)
(3.43309 -1.09882 3.50259)
(3.12811 -1.4378 3.36611)
(3.21433 -2.03994 2.88432)
(3.44261 -2.52103 2.41075)
(3.35193 -2.86615 2.03263)
(3.90105 -1.79558 0.939406)
(3.38829 -2.39005 0.474657)
(3.29286 -2.02918 0.320377)
(4.44527 -0.88597 2.14599)
(4.65799 -0.900676 2.37696)
(4.68712 -0.0558138 2.26446)
(4.01802 -0.745328 2.97637)
(3.54132 -1.16549 2.73374)
(2.93547 -1.62969 2.73752)
(2.58389 -1.65 3.41463)
(2.76963 -2.45046 3.07064)
(3.33645 -2.87684 2.77638)
(3.13648 -2.76578 3.01836)
(2.90373 -2.76965 2.38897)
(3.65347 -2.26999 1.7203)
(2.84952 -1.59888 -0.23026)
(2.99917 -0.177448 1.22012)
(3.45223 -0.263099 0.911286)
(3.76002 -1.40958 0.8008)
(3.79668 -0.716323 1.02519)
(3.82961 -0.339726 1.16165)
(3.30774 -1.56309 0.946125)
(3.04222 -1.71075 1.0057)
(2.92991 -1.04805 1.04719)
(2.34716 -1.14164 2.05949)
(1.82631 -3.01439 1.68205)
(2.04553 -3.40947 2.38688)
(1.04073 -4.38314 2.36909)
(0.401058 -4.48116 2.97046)
(2.38276 -3.55163 -0.0638126)
(2.05803 -0.472828 -1.03907)
(1.78299 -0.663826 -1.40852)
(1.55918 -0.893671 -1.13209)
(1.83454 -0.823515 -1.02575)
(2.01566 -0.362995 -1.11103)
(2.29327 -0.778536 -1.33295)
(1.47325 -2.37132 -0.771914)
(1.57864 -2.2836 0.558111)
(1.61654 -1.89154 0.832422)
(1.19477 -1.01044 0.529842)
(1.56869 -0.486849 -0.0278528)
(1.7159 -1.05699 -0.467343)
(1.58625 -3.37459 -1.1683)
(0.545734 -4.37938 1.78221)
(2.17008 -4.24354 0.446281)
(0.921351 -0.367872 -0.663407)
(0.810867 -0.417437 -1.08353)
(0.95195 -0.0611286 -1.35707)
(0.974079 0.1154 -1.19238)
(1.17676 0.00106212 -1.62193)
(1.24046 -1.03858 -1.3567)
(1.65607 -0.258349 -1.34792)
(2.18442 0.0504143 -0.925486)
(2.03488 -0.354122 0.0379381)
(1.11829 -0.628823 -0.281734)
(0.414538 -0.43369 -0.418731)
(0.0209549 -0.720266 -1.06798)
(-0.0547186 -0.326631 -0.281848)
(-0.197765 -0.277558 -0.887358)
(1.12913 -1.60451 -0.323923)
(-0.036718 -2.83755 0.198347)
(0.232225 -0.130031 -1.19881)
(0.28855 -0.467848 -1.08076)
(0.758377 -0.946492 -1.09751)
(0.850298 -0.56064 -1.41103)
(0.883549 -0.501184 -1.46327)
(0.5265 -0.077972 -1.52998)
(0.817589 0.034321 -1.22537)
(0.560958 0.00554372 -1.13183)
(0.530031 0.174962 -1.54226)
(0.603522 0.299888 -1.91877)
(0.607601 0.031213 -1.42277)
(0.788081 0.113003 -1.32115)
(0.92064 0.218828 -1.55779)
(0.72599 0.134755 -1.74341)
(0.564266 -0.31474 -1.70447)
(1.11396 -0.443654 -1.28911)
(1.00462 -0.61162 -0.873377)
(1.36493 0.857842 0.0456292)
(1.79018 0.600607 0.0859204)
(1.651 0.598115 0.0255222)
(1.92077 0.569768 0.088507)
(1.89288 0.499283 -0.0959966)
(1.61327 0.90182 -0.0971799)
(2.01588 0.823942 0.12934)
(2.2245 0.278129 -0.126698)
(2.03671 0.533312 0.00615241)
(1.76709 0.765578 0.0964759)
(2.39144 0.491506 0.120607)
(2.37393 0.491858 -0.255057)
(2.4043 0.063913 -0.122457)
(2.34262 0.356581 0.102871)
(2.09706 0.444231 0.0956804)
(2.57613 0.319471 0.297499)
(2.62743 0.329329 0.191199)
(2.63387 0.419192 0.121209)
(2.58473 0.120771 0.128175)
(2.54684 0.455132 0.104075)
(2.2161 0.582818 -0.0413821)
(2.8121 0.307478 0.366316)
(2.74439 0.238891 0.325522)
(2.71569 0.298301 0.52465)
(2.69238 -0.139403 0.210408)
(2.73081 -0.348086 0.223985)
(2.66434 -0.00808874 -0.0754638)
(2.36864 0.191557 0.0963942)
(2.88773 0.224663 0.785873)
(2.8915 0.402196 0.611559)
(2.85607 0.15971 0.614449)
(2.79254 0.00937849 0.474558)
(2.85677 -0.192585 0.249794)
(2.92506 -0.361557 0.139583)
(2.90831 -0.178651 0.0323527)
(2.62457 0.378375 -0.0208278)
(3.14672 0.210844 0.907665)
(3.16499 -0.10167 0.919777)
(3.08974 0.022765 0.715589)
(3.04796 -0.0540456 0.643688)
(3.09405 -0.449966 0.565751)
(3.07565 -0.307134 0.340303)
(3.03733 -1.00287 0.320296)
(3.11052 -0.821837 -0.228264)
(2.86367 -0.0601931 0.0616025)
(3.53715 -0.0448239 1.14357)
(3.52099 -0.0800212 0.991572)
(3.45752 -0.428342 0.765452)
(3.42646 -0.457793 0.641321)
(3.42881 -0.462062 0.493979)
(3.37159 -0.533481 0.385439)
(3.44151 -0.454809 0.397053)
(3.32431 -0.791089 0.0946988)
(3.15661 -0.896152 0.284928)
(3.08788 -0.758221 -0.0010562)
(3.92983 -0.302642 1.75861)
(3.91833 -0.755431 1.68128)
(3.76624 -0.765564 1.23479)
(3.74531 -0.807548 1.02163)
(3.77284 -1.0265 0.897782)
(3.81368 -0.993996 0.63851)
(3.74331 -1.11997 0.619852)
(3.52172 -0.906773 0.672535)
(3.42085 -1.36533 0.488803)