/*--------------------------------*- C++ -*----------------------------------*\
  =========                 |
  \\      /  F ield         | OpenFOAM: The Open Source CFD Toolbox
   \\    /   O peration     | Website:  https://openfoam.org
    \\  /    A nd           | Version:  7
     \\/     M anipulation  |
\*---------------------------------------------------------------------------*/
FoamFile
{
    version     2.0;
    format      ascii;
    class       volVectorField;
    location    "3.5";
    object      U_0;
}
// * * * * * * * * * * * * * * * * * * * * * * * * * * * * * * * * * * * * * //

dimensions      [0 1 -1 0 0 0 0];

internalField   nonuniform List<vector> 
18750
(
(1.13468 -0.759213 -1.22538)
(0.754556 -0.278858 1.2743)
(0.98232 -0.456367 -1.39617)
(1.10314 -0.714326 -1.22957)
(4.68239 -0.810235 0.93681)
(1.19249 -0.284246 0.932229)
(0.920183 -0.250097 1.751)
(0.995465 0.528143 -0.848207)
(0.961088 -0.548498 -1.37311)
(0.999223 -0.862018 -1.19101)
(6.1633 1.10305 0.328908)
(3.96835 -0.00787525 1.42379)
(4.61183 -1.23239 0.988693)
(-0.355329 0.854894 0.231507)
(1.07516 -0.32461 1.11597)
(1.07246 -0.248461 1.87938)
(0.734398 0.368872 -0.806946)
(0.999616 0.439462 -0.895785)
(0.94336 -0.696752 -1.32366)
(0.96087 -0.84543 -1.16597)
(4.1252 1.97233 -0.152382)
(5.23524 1.72984 1.26902)
(5.97322 1.41168 0.455074)
(2.32943 -0.254565 1.57333)
(3.69144 -0.585732 1.83172)
(4.58908 -1.41749 0.949125)
(-0.130908 -0.133828 -0.296234)
(-0.376829 0.849583 0.143035)
(0.97843 -0.309399 1.15928)
(1.20012 -0.372568 1.65594)
(0.739104 0.335123 -1.13686)
(0.7402 0.364143 -0.816723)
(0.993009 0.384119 -0.924544)
(0.936167 -0.775175 -1.29594)
(0.897525 -0.87463 -1.1297)
(3.31549 1.62713 -0.00830497)
(4.03258 2.24536 0.168137)
(4.13341 2.04407 -0.0290877)
(5.06046 0.245224 1.17689)
(5.1073 1.96346 1.48553)
(5.93068 0.940734 0.319922)
(1.52572 0.0547886 1.52135)
(2.32618 -0.470067 1.34892)
(3.22634 -0.858502 1.81473)
(4.45347 -1.68966 1.10128)
(0.6274 -0.744369 0.823022)
(-0.0958023 -0.149192 -0.320362)
(-0.394055 0.850557 0.100464)
(0.856617 -0.290112 0.985087)
(1.24729 -0.595243 1.33865)
(0.738537 0.428799 -1.17998)
(0.764683 0.305413 -1.10036)
(0.777378 0.342464 -0.812394)
(0.966639 0.244191 -1.03329)
(0.835427 -1.01335 -1.18233)
(0.8635 -0.862382 -1.0866)
(2.57723 1.66937 0.020994)
(3.20017 2.33386 1.17318)
(3.469 2.01798 0.0555434)
(4.57888 1.83431 0.974364)
(4.14424 1.97778 0.136969)
(4.11922 2.07852 0.074554)
(4.09439 -0.853008 2.99777)
(4.808 -0.397895 2.17629)
(5.09021 1.71321 1.46132)
(5.77982 1.13248 0.42197)
(1.99256 -0.172395 0.909735)
(1.45782 0.103946 1.80118)
(2.24486 -0.81298 1.16107)
(3.00485 -0.906247 1.51474)
(4.28227 -2.04295 1.15937)
(0.65866 -0.48993 -0.168565)
(0.644873 -0.71485 0.925996)
(-0.0464112 -0.124752 -0.278733)
(-0.401968 0.85617 0.075728)
(0.77262 -0.348631 0.620232)
(1.2569 -0.840816 1.00039)
(0.721567 0.146519 -1.20855)
(0.75345 0.376815 -1.14643)
(0.758073 0.287642 -1.06964)
(0.756438 0.33454 -0.796103)
(0.979175 0.259644 -1.08174)
(0.864018 -0.923333 -1.13942)
(0.851982 -0.809952 -1.0431)
(2.43728 1.94908 0.280141)
(3.27707 1.6962 0.943808)
(2.65223 2.16751 -0.0205422)
(3.91338 1.67782 0.747289)
(3.495 1.61767 1.09756)
(3.71638 1.90568 0.275399)
(4.63482 0.739229 2.14741)
(4.57702 1.23546 1.18282)
(4.5433 1.42226 0.0966425)
(4.06207 2.05357 0.278128)
(2.84973 -1.51612 3.17654)
(4.14578 -0.614011 2.66255)
(4.63948 -0.938486 2.99368)
(4.95095 0.796286 1.99471)
(5.76671 0.774831 0.151482)
(1.84246 -0.00749157 0.525772)
(1.93371 -0.293735 0.931953)
(1.43903 0.18109 1.8146)
(2.17082 -0.907747 0.946632)
(2.65366 -1.60818 1.51263)
(3.82253 -2.86162 1.30936)
(0.953221 0.0900242 -0.459124)
(0.616484 -0.513237 -0.0831714)
(0.684342 -0.634243 1.00119)
(0.0222929 -0.032962 -0.0902494)
(-0.39496 0.862466 0.0544104)
(0.718198 -0.41159 0.242773)
(1.2819 -1.03135 0.659726)
(0.773429 0.510379 -1.13535)
(0.725243 0.131127 -1.21406)
(0.766863 0.342427 -1.14463)
(0.782818 0.267003 -1.0545)
(0.763288 0.31275 -0.814447)
(0.944747 0.173207 -1.19194)
(0.91572 -0.768254 -1.14293)
(0.846214 -0.755306 -1.0059)
(2.56702 1.47702 0.14614)
(3.35635 1.44544 0.0637971)
(2.51035 2.03293 0.2703)
(3.79669 0.795265 0.810271)
(3.82961 0.558069 0.936303)
(2.93351 2.05293 0.0494752)
(4.03662 1.08306 1.25899)
(4.09784 1.30122 0.745614)
(3.66808 1.11777 0.848352)
(3.92418 1.63733 0.401837)
(4.02435 -0.345023 3.32398)
(4.60721 1.05216 1.75305)
(4.36348 0.381096 1.4232)
(4.77618 1.11934 0.0102814)
(4.12692 1.82525 0.194138)
(3.49909 -0.806273 1.20171)
(2.67529 -1.65705 3.29991)
(4.03182 -0.524484 2.58394)
(4.61575 -0.319981 3.00092)
(4.5923 -0.221785 2.62236)
(5.63765 0.63971 0.0912664)
(2.34239 -0.684748 0.093396)
(1.8085 -0.0894986 0.58877)
(1.88214 -0.213168 0.935723)
(1.40259 0.142985 1.79863)
(2.11116 -0.925773 0.795446)
(1.94632 -2.43343 1.27321)
(3.52353 -3.18197 1.31738)
(1.30037 0.385638 -0.472129)
(0.979563 -0.0831353 -0.43415)
(0.549865 -0.558863 -0.00201973)
(0.706201 -0.560718 1.02476)
(0.120931 0.108461 0.23099)
(-0.35813 0.851406 0.0110117)
(0.716728 -0.479814 0.0672745)
(1.28272 -1.20629 0.289377)
(0.639469 0.330403 -1.7109)
(0.760174 0.509079 -1.24276)
(0.72271 0.128736 -1.20242)
(0.776515 0.328056 -1.13908)
(0.789541 0.254506 -1.02129)
(0.819672 0.383749 -0.829155)
(0.918671 0.128609 -1.26348)
(0.947084 -0.704167 -1.11965)
(0.846273 -0.708073 -0.971651)
(2.24367 1.47452 0.0889516)
(2.92856 1.44075 0.0181279)
(2.60572 1.60288 0.0612996)
(3.62396 0.753224 0.532617)
(3.3728 1.26265 0.102917)
(2.69786 1.75508 0.282142)
(3.85583 1.01035 0.815854)
(4.04413 0.601858 0.695788)
(3.82899 1.11271 0.793863)
(3.2486 1.75065 0.0210035)
(3.97695 0.0260759 2.10537)
(4.2668 1.10747 1.26765)
(4.11357 1.30804 0.669329)
(3.69691 1.12629 0.797974)
(4.06281 1.29044 0.399434)
(4.03023 -0.408156 3.25316)
(4.11533 0.0755009 3.00694)
(4.53581 0.444421 1.64627)
(4.36845 0.164927 1.43398)
(4.8489 0.973944 0.193968)
(4.05229 1.63538 0.216196)
(4.29203 -0.446798 0.393727)
(3.27285 -1.26866 2.14438)
(2.48745 -1.58692 3.29636)
(4.02916 -0.631708 2.48553)
(4.50706 -0.345493 3.09373)
(4.2149 -0.825102 2.8267)
(5.48197 0.280365 -0.240019)
(2.26625 -1.58946 -0.456138)
(2.29642 -0.823214 0.186717)
(1.79943 -0.0950811 0.754283)
(1.88221 -0.115826 0.864921)
(1.34312 0.0981263 1.87599)
(2.04552 -1.00842 0.783527)
(1.86218 -2.58357 0.735907)
(2.97666 -3.5852 1.32064)
(1.72848 0.442673 -0.624588)
(1.44446 0.370295 -0.197437)
(1.01363 -0.0823804 -0.374865)
(0.481685 -0.569687 0.0960342)
(0.754503 -0.368674 0.938328)
(0.22848 0.241201 0.593252)
(-0.292275 0.804895 -0.0236188)
(0.797292 -0.518036 -0.209028)
(1.10066 -1.58033 -0.50079)
(0.515137 -0.109067 -1.23377)
(0.6242 0.261763 -1.7683)
(0.749754 0.49103 -1.36198)
(0.710282 0.0932376 -1.24289)
(0.796449 0.314506 -1.12877)
(0.788974 0.257283 -1.09552)
(0.802149 0.34163 -0.921933)
(0.859608 0.0481546 -1.34143)
(0.932763 -0.68923 -1.10575)
(0.862126 -0.653222 -0.938844)
(2.10397 1.59234 -0.00116367)
(2.60119 1.4171 0.0585223)
(2.30355 1.45988 0.0666607)
(3.33027 0.220362 0.364209)
(2.93829 1.36247 0.102968)
(2.71995 1.40738 0.0607524)
(3.83407 0.570659 0.0208735)
(3.73722 0.18817 0.708488)
(3.3387 1.29704 0.2022)
(3.02107 1.30246 0.300814)
(3.79334 0.342974 1.23686)
(4.07869 0.702093 0.76548)
(4.05439 0.603573 0.484949)
(3.89164 0.888733 0.743695)
(3.48705 1.50655 -0.020731)
(3.70274 0.380786 2.48274)
(4.01248 0.0102384 2.00962)
(4.39345 0.213952 1.59606)
(4.19383 0.489678 0.880278)
(3.93786 0.801424 0.655987)
(4.17568 0.857883 0.360247)
(3.91484 -1.28868 2.93171)
(3.13633 -1.82765 3.64181)
(3.84318 -0.382491 2.94119)
(4.44938 -0.773072 1.91518)
(4.40711 -0.439158 1.53717)
(4.94902 0.494079 0.234636)
(4.00104 1.23775 0.177785)
(4.23482 -0.64902 -0.0174783)
(4.15495 -0.939803 0.738982)
(3.14917 -1.35369 2.32384)
(2.54967 -1.48015 3.19984)
(4.00285 -0.823159 2.53345)
(3.98961 -1.28269 3.704)
(3.64212 -1.90405 3.13778)
(5.19241 -0.177191 -0.901656)
(2.05739 -1.56051 -1.37604)
(2.13699 -1.87071 -0.331859)
(2.09606 -1.13379 0.471489)
(1.78141 -0.132392 0.875441)
(1.80973 -0.242701 0.822699)
(1.32331 0.049119 1.96196)
(2.07184 -1.06457 0.778634)
(0.999132 -3.89367 -0.558843)
(2.59762 -3.87732 1.31559)
(2.01136 0.0855618 -0.923997)
(1.85427 0.520796 -0.273583)
(1.57609 0.268257 -0.203578)
(1.02499 -0.184036 -0.381593)
(0.394062 -0.552303 0.141717)
(0.757738 -0.3054 0.752015)
(0.302753 0.312346 0.928108)
(-0.237267 0.707585 -0.102338)
(0.960785 -0.54798 -0.457368)
(0.970569 -1.8133 -0.867128)
(0.793508 0.217133 -1.11049)
(0.509129 -0.103926 -1.21583)
(0.602301 0.218606 -1.80655)
(0.743132 0.454438 -1.48366)
(0.704336 0.0914084 -1.30335)
(0.804748 0.307398 -1.1196)
(0.810106 0.272789 -1.19713)
(0.805234 0.333624 -0.974463)
(0.801265 -0.0598569 -1.42415)
(0.916557 -0.704629 -1.10004)
(0.888827 -0.610588 -0.914947)
(2.15401 1.18255 0.00349326)
(2.55157 1.32578 0.0592335)
(2.1659 1.48164 -0.0224961)
(2.84371 0.42063 0.19024)
(2.6556 1.37726 0.0782089)
(2.36848 1.29621 0.0835546)
(3.17879 0.530487 0.252688)
(3.36686 0.381257 0.326758)
(3.04478 1.12044 0.131254)
(2.87757 1.09225 -0.0272217)
(3.86759 0.262153 0.405965)
(3.96873 0.505612 0.105067)
(3.80035 0.023899 0.77703)
(3.61658 0.777346 0.110848)
(3.15408 1.13352 0.28635)
(3.92189 0.196425 1.09253)
(3.8392 0.208882 1.21952)
(4.12073 0.520904 0.570508)
(4.18375 -0.249557 0.766623)
(3.93399 0.295254 0.878125)
(3.6306 1.09439 -0.0461687)
(3.7248 0.199799 2.87823)
(3.6642 0.162045 2.38255)
(4.26998 0.286573 1.72007)
(4.523 0.148847 1.46679)
(4.17204 0.0975845 0.938647)
(3.93427 0.587576 0.504228)
(4.26956 0.462308 0.317374)
(3.98934 -1.30922 2.5842)
(3.6155 -1.26991 2.91719)
(3.47146 -0.311568 3.39951)
(3.97685 -0.671401 2.93051)
(4.40937 -0.970743 1.99198)
(4.26489 -1.51918 1.91037)
(4.96947 0.257396 0.372853)
(4.04303 0.886415 0.136911)
(3.96712 -0.13454 0.773578)
(4.0514 -1.15102 0.166191)
(3.6137 -1.50021 1.23874)
(2.50666 -1.30286 2.80259)
(2.51242 -1.44619 3.30048)
(3.739 -1.67946 2.7555)
(3.73963 -1.75581 3.87334)
(2.67969 -3.48413 3.53488)
(4.60005 -0.897069 -0.539083)
(2.73462 -0.329631 -1.36067)
(1.84401 -2.01959 -1.25565)
(2.04866 -2.02376 -0.224361)
(2.13867 -0.902142 0.512634)
(1.75172 -0.186636 0.978994)
(1.7215 -0.317657 0.798301)
(1.33908 -0.0739787 1.95131)
(1.90242 -1.74095 0.546486)
(0.8642 -4.0886 -1.0773)
(2.24889 -4.11567 1.25062)
(1.44388 -0.66336 -1.33103)
(1.961 -0.125594 -1.01285)
(1.95319 0.499063 -0.164781)
(1.69932 0.199914 -0.318299)
(1.00926 -0.20466 -0.404318)
(0.379371 -0.494633 0.0650772)
(0.709346 -0.339846 0.516848)
(0.337077 0.264068 1.20248)
(-0.221312 0.437845 -0.453008)
(1.10097 -0.649185 -0.584911)
(0.877032 -1.98036 -0.934552)
(0.57075 -0.114546 -1.45305)
(0.813548 0.219579 -1.09715)
(0.520773 -0.0872188 -1.18793)
(0.586121 0.19081 -1.80759)
(0.710295 0.428895 -1.61212)
(0.701773 0.0905787 -1.32107)
(0.805569 0.276689 -1.10637)
(0.825422 0.280462 -1.28791)
(0.788198 0.301496 -1.07084)
(0.769034 -0.102849 -1.4983)
(0.905998 -0.708458 -1.13211)
(0.897055 -0.597149 -0.915499)
(1.85004 1.35982 0.0566082)
(2.4933 1.07202 -0.13376)
(2.24514 1.05575 -0.000653696)
(2.62808 0.6595 0.202356)
(2.70927 1.03724 0.218759)
(2.38166 1.14055 -0.0413227)
(2.92279 0.211438 0.32482)
(2.83887 0.440712 0.216807)
(2.86338 0.893968 0.0800788)
(2.62276 0.844329 0.155692)
(3.40983 0.4487 0.267207)
(3.28799 0.0172657 0.277289)
(3.3491 0.450845 0.214184)
(3.10707 0.936475 0.21311)
(3.01885 0.927323 -0.0641793)
(3.67397 0.0176558 0.738855)
(3.93769 0.00428915 0.439139)
(4.01827 0.0656563 0.391712)
(3.78379 0.0366923 0.801101)
(3.71923 0.677561 0.223228)
(3.23609 0.543417 0.174414)
(4.10305 0.184242 1.24601)
(4.08309 0.00922966 1.05172)
(3.98395 -0.0255732 1.14481)
(4.26192 -0.321299 0.543119)
(4.12657 -0.0208812 0.548052)
(3.97169 -0.055823 0.861246)
(3.72552 0.646615 -0.0926695)
(4.04035 -0.0791175 2.85212)
(3.49111 -0.143901 3.03677)
(3.56931 -0.609805 2.57289)
(4.25194 -0.326311 1.92392)
(4.47682 0.0478577 1.47445)
(4.19244 -0.206056 0.919792)
(3.90033 -0.346949 0.466646)
(4.23829 0.103581 0.298639)
(4.08083 -0.140605 2.75725)
(3.74243 -1.34177 2.51823)
(3.25082 -1.57393 2.80689)
(3.06666 -1.38301 3.40316)
(3.46766 -1.36919 3.22462)
(4.01526 -2.23505 2.53424)
(4.17144 -2.04197 2.35468)
(4.56051 -0.715575 1.18988)
(4.16506 0.644068 -0.048874)
(4.0308 -0.00570275 1.34354)
(3.95104 -0.347589 0.78352)
(3.83672 -1.44498 0.23328)
(3.46455 -1.06737 1.06298)
(2.73507 -1.14467 2.37515)
(2.59059 -1.31129 3.2536)
(3.36097 -2.40997 2.81847)
(3.05326 -2.80682 3.70817)
(2.42599 -3.66438 3.11737)
(3.99287 -1.49692 0.41442)
(2.14759 -0.136751 -1.09235)
(2.71308 -0.30752 -1.20013)
(1.73583 -2.24415 -1.06113)
(1.95374 -2.14026 -0.146854)
(1.88412 -1.33026 0.651376)
(1.68815 -0.310274 1.05578)
(1.60891 -0.42656 0.720526)
(1.27253 -0.436655 1.69769)
(1.96638 -2.10774 0.429937)
(0.992458 -3.9574 -0.889733)
(1.22126 -4.45927 1.17069)
(1.0219 -0.013602 -1.19237)
(1.42505 -0.724688 -1.32625)
(1.82737 -0.232311 -1.17512)
(2.04857 0.470654 -0.237809)
(1.82187 0.0993938 -0.24892)
(1.01113 -0.33876 -0.438609)
(0.315767 -0.484225 0.039126)
(0.605603 -0.389125 0.259235)
(0.325043 0.162449 1.25519)
(-0.214376 0.264444 -0.65534)
(1.18997 -0.787442 -0.615672)
(0.667491 -2.24269 -0.838436)
(0.967679 -0.401146 -1.40927)
(0.562489 -0.108036 -1.46903)
(0.815931 0.194862 -1.10427)
(0.521274 -0.0857572 -1.16433)
(0.554735 0.149391 -1.76954)
(0.693467 0.41153 -1.69343)
(0.699864 0.104062 -1.30928)
(0.811054 0.22861 -1.11884)
(0.839531 0.276892 -1.37836)
(0.779754 0.274464 -1.22632)
(0.746799 -0.12406 -1.56226)
(0.931678 -0.667585 -1.18081)
(0.914133 -0.582461 -0.926134)
(1.85232 1.03538 0.0444752)
(2.2585 1.2282 0.0614466)
(1.92518 1.2737 0.0188028)
(2.52585 0.599173 0.201509)
(2.66688 0.697725 0.041593)
(2.28001 0.919112 0.00324256)
(2.67398 0.543353 0.372237)
(2.66374 0.67983 0.149134)
(2.86176 0.517956 0.238994)
(2.40979 1.10296 0.0161776)
(2.93921 0.394322 0.48884)
(2.96784 -0.0244809 0.301203)
(2.8446 0.507167 0.307061)
(3.10428 0.414116 -0.00107555)
(2.64517 0.947659 0.138015)
(3.37546 0.255053 0.468515)
(3.42574 0.278533 0.1117)
(3.38178 -0.0951589 0.292505)
(3.34941 0.296476 0.137543)
(3.17584 0.387788 0.441893)
(3.00333 0.795573 0.0183286)
(3.79093 -0.0517397 0.861341)
(3.72998 -0.0598892 0.695265)
(3.95686 -0.124961 0.483081)
(3.95715 -0.269848 0.4347)
(3.80588 -0.186945 0.87573)
(3.72822 0.27884 0.20283)
(3.24869 0.260795 0.0993752)
(3.98843 -0.216431 1.68107)
(4.2254 -0.232488 1.42728)
(4.05316 -0.0169994 1.11915)
(4.10565 -0.21635 1.03263)
(4.34787 -0.483938 0.719524)
(3.9733 -0.587395 0.762104)
(3.92657 -0.526688 0.806219)
(3.93454 -0.019053 -0.127216)
(4.28807 0.384052 2.76496)
(4.01603 -0.0661975 2.87507)
(3.24763 -0.675113 3.24618)
(3.51404 -0.967665 2.62358)
(4.23593 -0.428957 1.88495)
(4.3315 -0.498031 1.61601)
(4.10275 -0.499541 0.897184)
(3.82102 -0.838491 0.489896)
(4.08801 -0.697602 0.274634)
(4.32963 0.168249 2.4248)
(4.06656 -0.3452 2.89404)
(3.70004 -0.907382 2.57092)
(3.21323 -1.32128 2.80727)
(2.97472 -1.43187 3.50977)
(3.70792 -1.53704 2.85986)
(3.84331 -2.18509 2.76265)
(4.20612 -2.0675 2.36416)
(4.21708 -1.30757 1.58302)
(4.16829 0.531223 -0.184916)
(4.36226 -0.753924 0.347976)
(4.00469 -0.0206249 1.40245)
(3.90158 -0.773803 0.907797)
(3.80225 -1.57867 0.178221)
(3.26742 -1.48904 1.30842)
(2.59835 -1.15897 2.56917)
(2.50669 -1.37931 3.14415)
(3.02653 -2.84955 2.791)
(2.35966 -3.42752 3.23714)
(1.91713 -4.07448 2.6526)
(3.26987 -2.18017 0.836508)
(1.72582 -0.481566 -1.13421)
(2.13842 -0.236948 -1.18443)
(2.70378 -0.291714 -1.15641)
(1.77946 -2.21748 -0.89341)
(1.86427 -2.20814 0.189228)
(1.67242 -1.7316 0.917414)
(1.6453 -0.389133 0.975768)
(1.49079 -0.449841 0.616331)
(1.32297 -0.66667 1.16005)
(2.14479 -2.32311 0.041677)
(1.03208 -3.95219 -0.465971)
(2.16273 -3.92228 1.27697)
(0.926243 0.342569 -0.939597)
(1.0614 -0.00659263 -1.25952)
(1.41535 -0.746988 -1.31236)
(1.80491 -0.146203 -1.1686)
(2.13244 0.411167 -0.326461)
(1.89508 -0.0141656 -0.157976)
(1.13 -0.284415 -0.377759)
(0.298921 -0.457689 -0.042485)
(0.503688 -0.445201 0.0169855)
(0.30184 0.0210934 0.894356)
(-0.180806 0.0934357 -0.785575)
(1.25259 -0.954392 -0.54427)
(0.395155 -2.48133 -0.605554)
(0.889068 -0.456366 -1.43773)
(0.962372 -0.403526 -1.41325)
(0.554005 -0.108746 -1.48285)
(0.811602 0.127055 -1.15205)
(0.526502 -0.0608294 -1.14754)
(0.537528 0.134971 -1.70375)
(0.679536 0.374565 -1.7683)
(0.687322 0.104447 -1.32953)
(0.800073 0.208375 -1.12989)
(0.855351 0.269327 -1.46327)
(0.781072 0.257013 -1.37738)
(0.707969 -0.161995 -1.62732)
(0.975542 -0.587015 -1.22611)
(0.953654 -0.576844 -0.916956)
(1.57922 1.12281 0.0270346)
(2.23511 0.81808 -0.0746827)
(1.94848 0.893189 0.0241108)
(2.49543 0.738824 0.129709)
(2.36247 1.02377 0.0423146)
(2.05672 0.997254 0.00340143)
(2.64997 0.414674 0.270543)
(2.58757 0.473011 0.15574)
(2.6543 0.580446 -0.00844454)
(2.35685 0.675181 -0.00386771)
(2.79939 0.656252 0.469034)
(2.69027 0.320918 0.311158)
(2.64276 0.61312 0.190915)
(2.93314 0.307229 0.204149)
(2.53475 0.79996 0.0576575)
(3.03348 0.262926 0.67119)
(2.96049 0.176268 0.567452)
(2.99844 0.0184888 0.370245)
(2.97818 0.24191 0.278164)
(3.17248 0.306823 0.0846319)
(2.74181 0.645316 0.0798821)
(3.52836 0.141065 0.562814)
(3.44987 0.165925 0.432964)
(3.42646 0.0575218 0.178492)
(3.36862 -0.214986 0.367765)
(3.351 0.219991 0.0396738)
(3.19129 0.230914 0.32679)
(3.13996 0.237747 0.0568602)
(3.99875 0.0298063 1.00612)
(3.79036 -0.205771 0.820676)
(3.8039 -0.294717 0.597506)
(3.95161 -0.364769 0.481912)
(3.95682 -0.580864 0.451719)
(3.73587 -0.0409664 0.817667)
(3.75073 -0.441902 0.0781357)
(3.36713 -0.00379162 -0.01004)
(4.02085 -0.192398 1.53799)
(4.01147 -1.14993 1.89911)
(4.24538 -0.706844 1.60164)
(4.01263 -0.349504 1.24213)
(4.25866 -0.540997 0.95891)
(4.25925 -1.10202 0.586489)
(3.82688 -0.783154 0.906117)
(3.78735 -1.28595 0.753312)
(3.92306 -0.0604337 -0.024101)
(4.34185 -0.266263 2.33896)
(4.1495 -0.655043 3.01266)
(3.91966 -0.657873 3.13886)
(3.20873 -0.793652 3.25203)
(3.58407 -1.0987 2.62612)
(3.78447 -1.88873 2.42864)
(4.283 -1.35307 1.48963)
(4.06283 -0.890901 0.877076)
(3.70478 -1.4244 0.521672)
(3.97372 -1.30582 0.229161)
(4.75354 0.0909912 2.33332)
(4.4236 0.126223 2.44949)
(3.97924 -0.444491 2.87412)
(3.57534 -1.53401 2.51006)
(3.07227 -1.52215 3.01559)
(2.7239 -1.90945 3.43986)
(3.17731 -2.69328 2.91717)
(3.70734 -2.21062 2.775)
(3.95213 -2.04121 2.31907)
(3.9493 -1.73414 1.83697)
(3.82785 -0.405631 -0.280123)
(3.93178 -1.07936 0.544936)
(4.21259 -0.537669 1.09756)
(3.90267 -0.261705 1.57464)
(3.06778 -2.34829 1.1064)
(3.24219 -2.34716 0.512695)
(2.88923 -1.96692 1.45305)
(2.59264 -1.06652 2.47244)
(2.70528 -1.67013 2.6563)
(2.06362 -3.79388 2.46106)
(2.00545 -3.69797 2.63337)
(1.56912 -4.0117 2.71863)
(2.7993 -2.78138 0.542028)
(1.64352 -0.656863 -1.07556)
(1.76264 -0.639791 -1.14279)
(2.08212 -0.24003 -1.26286)
(2.56921 -0.641717 -1.21124)
(1.66824 -2.32106 -0.642991)
(1.87145 -2.18029 0.36186)
(1.82098 -1.66141 0.795012)
(1.48801 -0.608733 0.845721)
(1.4774 -0.38652 0.43855)
(1.46878 -0.757468 0.68993)
(2.02289 -2.71716 -0.713071)
(0.831822 -4.07204 0.208554)
(1.59368 -4.38429 1.0417)
(0.956375 0.0118102 -1.26935)
(0.946715 0.3203 -0.968165)
(1.12017 0.0407713 -1.35325)
(1.38291 -0.794009 -1.31622)
(1.75975 -0.199319 -1.23855)
(2.1597 0.305853 -0.561231)
(1.9492 -0.150415 -0.0622822)
(1.14545 -0.357615 -0.449727)
(0.291201 -0.443852 -0.0814807)
(0.340993 -0.547855 -0.45063)
(0.22112 -0.0967543 0.515837)
(-0.135359 0.00022331 -0.738941)
(1.28211 -1.13764 -0.424593)
(0.191264 -2.68223 -0.288223)
(0.75656 -1.06011 -1.0352)
(0.885055 -0.460328 -1.43885)
(0.922268 -0.427206 -1.43061)
(0.541204 -0.0948485 -1.49771)
(0.830819 0.143406 -1.15365)
(0.534553 -0.040462 -1.13989)
(0.52104 0.13533 -1.64342)
(0.644466 0.340825 -1.86023)
(0.681034 0.0994403 -1.33722)
(0.767513 0.130485 -1.20553)
(0.875265 0.260319 -1.53018)
(0.775176 0.228821 -1.51049)
(0.692202 -0.199104 -1.67492)
(1.04151 -0.511698 -1.25452)
(0.971203 -0.57749 -0.908108)
(1.4735 1.00738 -0.00169767)
(2.01697 0.655027 0.0661595)
(1.67427 0.994645 0.0540509)
(2.3471 0.62792 -0.232739)
(2.27664 0.667989 -0.0196901)
(1.96971 0.783505 0.041127)
(2.5591 0.558002 0.174082)
(2.50651 0.676471 0.120464)
(2.40637 0.782687 0.0412992)
(2.09313 0.889033 -0.0163767)
(2.65491 0.52268 0.404216)
(2.65609 0.401737 0.280322)
(2.61101 0.357519 0.226355)
(2.6872 0.420836 -0.00217164)
(2.38242 0.577241 0.0337139)
(2.812 0.514371 0.640668)
(2.79546 0.544745 0.530546)
(2.65755 0.200672 0.267923)
(2.78721 0.171165 0.175453)
(2.99109 0.197512 0.134869)
(2.60713 0.416297 0.077839)
(3.11644 0.264407 0.688498)
(3.02691 0.208692 0.64297)
(2.9848 0.0664823 0.529494)
(3.07274 -0.073118 0.315167)
(3.11248 -0.120883 0.28771)
(3.12922 -0.0216406 0.2286)
(2.82631 -0.134546 0.0497251)
(3.51718 0.0541151 0.765214)
(3.43902 0.083971 0.631894)
(3.46927 -0.0346385 0.455177)
(3.47346 -0.255024 0.267735)
(3.33584 -0.381414 0.407018)
(3.3663 -0.0694888 0.0800967)
(3.27004 -0.179353 0.335841)
(3.21184 0.215626 0.0714753)
(4.00094 -0.513177 1.3496)
(3.83314 -0.524715 1.02832)
(3.86621 -0.473887 0.75682)
(3.86536 -0.626437 0.556413)
(3.89157 -0.64343 0.489758)
(3.76699 -0.779989 0.742452)
(3.65161 -0.772626 0.726733)
(3.73836 -0.538632 0.149255)
(3.33923 0.00171255 -0.0401312)
(3.83863 -0.280644 1.61601)
(3.87272 -0.901417 1.90198)
(4.23016 -1.14298 1.85908)
(4.17933 -0.926029 1.60586)
(3.98851 -0.972153 1.47802)
(4.21239 -0.91369 1.07504)
(4.19282 -1.39621 0.586862)
(3.66392 -1.14964 0.990921)
(3.69162 -1.51227 0.691235)
(3.89166 -0.515734 0.08547)
(4.29313 -0.510392 1.87403)
(4.03097 -1.22295 2.48614)
(4.34979 -0.236106 2.88786)
(3.77267 -0.788366 3.27141)
(3.01678 -1.3264 3.43819)
(3.22406 -1.85971 2.91057)
(3.57559 -2.12049 2.57919)
(4.22627 -1.31525 1.67295)
(4.09031 -1.10638 0.740914)
(3.59155 -1.69064 0.530615)
(3.84963 -1.68993 0.197947)
(4.78256 -1.08656 1.92002)
(4.77717 0.138669 2.32423)
(4.23698 -0.22555 2.71222)
(3.61983 -1.09491 2.80747)
(3.34003 -1.42229 2.64293)
(2.9025 -1.32383 3.29345)
(2.94829 -1.78131 3.3139)
(3.07926 -2.99594 2.86707)
(3.44583 -2.39903 2.90564)
(3.3891 -2.39037 2.32815)
(3.92406 -1.85497 1.69609)
(3.29463 -0.946519 -0.279344)
(3.4479 -0.266884 0.906594)
(3.91203 -0.933729 0.923968)
(3.95574 -0.662847 1.0969)
(3.69332 -0.560144 1.60509)
(3.74345 -0.678302 0.299959)
(3.25797 -1.8137 0.730887)
(1.4474 -2.67403 1.44373)
(2.12827 -1.17708 2.61606)
(2.63615 -2.058 2.13894)
(2.11391 -3.55263 2.31772)
(1.8019 -3.67324 2.52262)
(1.2015 -4.08163 2.84371)
(2.18084 -3.50483 0.369133)
(1.78887 -0.544025 -1.41423)
(1.6114 -0.784623 -1.15498)
(1.72677 -0.826385 -1.14446)
(2.06378 -0.3167 -1.15353)
(2.28368 -1.02175 -1.3323)
(1.4941 -2.35116 -0.74116)
(1.72453 -2.29798 0.435716)
(1.53715 -1.88258 0.866503)
(1.30524 -0.857346 0.684417)
(1.48627 -0.4135 0.226711)
(1.58876 -0.839628 0.246129)
(1.83526 -3.04234 -1.17469)
(0.489929 -4.31094 1.41304)
(2.08707 -4.26673 0.908678)
(0.811258 -0.389435 -1.05486)
(0.951954 -0.0488039 -1.29821)
(0.975134 0.197059 -1.06218)
(1.14725 0.0305328 -1.48386)
(1.28439 -0.983172 -1.31085)
(1.70795 -0.232499 -1.30532)
(2.17188 0.155391 -0.782562)
(2.00898 -0.261294 -0.00776141)
(1.19066 -0.440416 -0.335154)
(0.338086 -0.412035 -0.213627)
(0.19862 -0.630242 -0.828815)
(0.115059 -0.204012 0.131962)
(-0.123132 -0.113895 -0.707073)
(1.22337 -1.36139 -0.308261)
(0.0331587 -2.7917 -0.017557)
(0.310947 -0.438401 -1.04995)
(0.751173 -1.04724 -1.05126)
(0.878175 -0.497486 -1.43002)
(0.916351 -0.441288 -1.43513)
(0.53233 -0.0867329 -1.51295)
(0.833422 0.109347 -1.15511)
(0.539675 -0.0234002 -1.13678)
(0.517754 0.155367 -1.59145)
(0.618149 0.315921 -1.90417)
(0.657826 0.0878058 -1.34518)
(0.783995 0.126485 -1.26802)
(0.907261 0.238932 -1.56791)
(0.7596 0.188188 -1.63282)
(0.658465 -0.233658 -1.6897)
(1.09184 -0.466792 -1.25709)
(0.98775 -0.590134 -0.883498)
(1.44215 0.902998 0.0449307)
(1.8082 0.673154 -0.0452647)
(1.57907 0.894965 -0.0617266)
(2.11489 0.51384 -0.135369)
(2.02393 0.65537 0.0363922)
(1.73573 0.880491 0.0606543)
(2.32441 0.530686 -0.117203)
(2.38191 0.522676 -0.22177)
(2.25212 0.606421 -0.023888)
(2.02667 0.625397 0.0745913)
(2.59913 0.504882 0.166437)
(2.55531 0.558605 0.122099)
(2.58023 0.381496 0.125861)
(2.48229 0.569146 0.0536293)
(2.20413 0.680696 -0.0343637)
(2.68677 0.392241 0.388093)
(2.73562 0.387351 0.472675)
(2.6434 0.288671 0.277689)
(2.66651 -0.242202 0.309762)
(2.74614 0.16621 -0.000318991)
(2.37734 0.302002 0.109774)
(2.87681 0.375466 0.625108)
(2.8034 0.424262 0.632218)
(2.78958 0.0949814 0.495105)
(2.73989 0.0411228 0.230256)
(2.88443 0.0221915 0.15474)
(2.96988 -0.0548676 0.0420472)
(2.59987 0.36907 0.0217185)
(3.12322 0.214167 0.893526)
(3.11767 0.147247 0.695927)
(3.04249 0.104803 0.65396)
(3.00475 -0.19096 0.50876)
(3.09882 -0.171085 0.355241)
(3.07945 -0.162128 0.348968)
(3.08926 -0.795578 0.134593)
(2.85588 0.0190328 0.0641139)
(3.4856 0.0965472 0.897029)
(3.54231 0.0940386 0.8056)
(3.39886 -0.289217 0.604092)
(3.43694 -0.329358 0.441145)
(3.47332 -0.273649 0.301992)
(3.37612 -0.618034 0.382927)
(3.3916 -0.379159 0.0603008)
(3.25936 -0.218009 0.289013)
(3.1496 0.110053 0.0512942)
(3.94647 -0.661543 1.58)
(4.00182 -0.463324 1.32407)
(3.69517 -0.859604 1.01687)
(3.85503 -0.545206 0.806062)
(3.8413 -0.882458 0.65654)
(3.83517 -0.993458 0.568917)
(3.48168 -1.15046 0.784624)
(3.5934 -1.04156 0.478329)
(3.56744 -0.808193 0.397108)
(3.34658 -0.461155 -0.121479)
(3.74918 -0.116925 1.71488)
(3.81053 -0.675668 1.81241)
(3.7715 -1.71366 2.12569)
(4.33731 -1.22521 1.7852)
(4.17195 -1.06326 1.70139)
(3.88173 -1.20395 1.61557)
(4.00711 -1.3632 1.13649)
(4.18366 -1.83223 0.572439)
(3.60867 -1.28637 0.91737)
(3.53977 -1.89197 0.583437)
(3.93299 -0.80704 0.185705)
(4.52679 -0.293327 2.06719)
(4.21448 -0.675447 1.97097)
(4.19572 -0.408812 2.4736)
(4.26091 -0.90892 3.07042)
(3.48877 -1.0691 3.47855)
(3.12064 -1.42797 3.3826)
(3.1907 -2.04624 2.89317)
(3.46928 -2.46039 2.43762)
(3.38767 -2.80853 2.01276)
(3.92557 -1.73674 0.901148)
(3.39852 -2.33145 0.516633)
(3.34016 -1.98269 0.313918)
(4.47288 -0.828238 2.1161)
(4.65473 -0.905131 2.39371)
(4.69493 -0.0678692 2.25557)
(4.05705 -0.690835 2.93757)
(3.56259 -1.09156 2.76768)
(2.96648 -1.63962 2.70988)
(2.60295 -1.64531 3.41056)
(2.77296 -2.38624 3.10366)
(3.30693 -2.90939 2.76865)
(3.13279 -2.78166 3.01742)
(2.9573 -2.72594 2.38779)
(3.63074 -2.30126 1.72507)
(2.86233 -1.58606 -0.225486)
(3.00549 -0.164018 1.23503)
(3.44239 -0.257219 0.917044)
(3.77099 -1.40112 0.789764)
(3.81187 -0.72979 1.01364)
(3.82366 -0.345266 1.19632)
(3.34019 -1.5058 0.90816)
(3.07385 -1.71183 0.985243)
(3.02912 -1.00011 0.990564)
(2.36268 -1.12261 2.09463)
(1.83289 -2.95608 1.79033)
(2.03187 -3.43972 2.37171)
(1.10007 -4.31878 2.38066)
(0.4703 -4.42943 2.95884)
(2.21303 -3.64875 0.0552014)
(2.05098 -0.48487 -1.06454)
(1.78188 -0.656837 -1.41117)
(1.56058 -0.905063 -1.13066)
(1.82495 -0.833593 -1.04443)
(2.00944 -0.365364 -1.12325)
(2.28248 -0.804237 -1.32689)
(1.47173 -2.38059 -0.746898)
(1.57523 -2.31167 0.55385)
(1.60345 -1.89557 0.837169)
(1.19017 -1.01644 0.547357)
(1.55698 -0.492069 -0.00944605)
(1.6957 -1.04091 -0.405663)
(1.63656 -3.32947 -1.19306)
(0.512591 -4.37086 1.70467)
(2.12394 -4.26894 0.555477)
(0.919623 -0.368767 -0.667396)
(0.811663 -0.412545 -1.08307)
(0.948897 -0.0639237 -1.35491)
(0.973917 0.121446 -1.18305)
(1.17452 -0.0137678 -1.61023)
(1.23868 -1.05161 -1.34545)
(1.66198 -0.252853 -1.33785)
(2.18366 0.0654234 -0.895802)
(2.02527 -0.34886 0.0225898)
(1.12958 -0.598921 -0.294051)
(0.410449 -0.435343 -0.408559)
(0.0325879 -0.718152 -1.06125)
(-0.0410393 -0.325947 -0.267566)
(-0.199003 -0.270781 -0.887602)
(1.13145 -1.57101 -0.313319)
(-0.0461677 -2.8357 0.156842)
(0.236168 -0.130188 -1.20043)
(0.296497 -0.472508 -1.07503)
(0.757659 -0.974617 -1.09168)
(0.854308 -0.54519 -1.41977)
(0.883464 -0.495201 -1.46142)
(0.524813 -0.0765121 -1.52609)
(0.815512 0.0381187 -1.21099)
(0.548092 0.00311517 -1.13397)
(0.520594 0.176202 -1.55238)
(0.602976 0.301569 -1.90671)
(0.608269 0.0348973 -1.41194)
(0.786324 0.110379 -1.31896)
(0.920982 0.218948 -1.56494)
(0.727325 0.132237 -1.74018)
(0.566345 -0.31171 -1.69851)
(1.10776 -0.451272 -1.27268)
(0.993095 -0.601632 -0.873168)
(1.36472 0.858421 0.0452157)
(1.7895 0.601232 0.0848531)
(1.6491 0.600638 0.0249706)
(1.91953 0.571186 0.0891033)
(1.89232 0.499731 -0.0960856)
(1.61215 0.903623 -0.0955523)
(2.01639 0.822674 0.127122)
(2.22397 0.278324 -0.128717)
(2.03654 0.536362 0.0079975)
(1.76819 0.764096 0.0972589)
(2.39256 0.487271 0.121641)
(2.3742 0.489399 -0.255321)
(2.40536 0.0693828 -0.123536)
(2.34186 0.359508 0.102891)
(2.09837 0.441148 0.0950609)
(2.57458 0.321367 0.296607)
(2.62662 0.330625 0.191579)
(2.63298 0.421759 0.123649)
(2.58469 0.120905 0.129289)
(2.5472 0.455506 0.101869)
(2.2166 0.581723 -0.0405226)
(2.81058 0.308008 0.366812)
(2.74209 0.241981 0.324857)
(2.71462 0.300687 0.524897)
(2.6896 -0.132755 0.210946)
(2.72854 -0.350801 0.224495)
(2.66676 -0.00312803 -0.0743358)
(2.36861 0.189156 0.096071)
(2.88781 0.219037 0.786719)
(2.89059 0.394104 0.612898)
(2.85342 0.165506 0.615285)
(2.78909 0.00916761 0.474258)
(2.85221 -0.187848 0.249151)
(2.92175 -0.351834 0.140389)
(2.90944 -0.184641 0.0335421)
(2.62485 0.376627 -0.0220606)
(3.14491 0.217503 0.909534)
(3.16416 -0.101879 0.919691)
(3.09021 0.0209105 0.71538)
(3.04676 -0.0561904 0.643468)
(3.0905 -0.453252 0.565438)
(3.07358 -0.299805 0.342954)
(3.03343 -0.990669 0.323572)
(3.11104 -0.818317 -0.228326)
(2.86528 -0.061242 0.0621018)
(3.54279 -0.0340297 1.14826)
(3.52043 -0.0764271 0.98716)
(3.46239 -0.423208 0.76785)
(3.42311 -0.467522 0.639332)
(3.42795 -0.456608 0.486628)
(3.37574 -0.523176 0.380264)
(3.43748 -0.467089 0.397155)
(3.32939 -0.763604 0.0886431)
(3.15989 -0.87432 0.286559)
(3.09079 -0.743854 -0.00453268)
(3.93076 -0.300807 1.75906)
(3.91451 -0.776901 1.68138)
(3.78376 -0.763942 1.23735)
(3.73614 -0.827598 1.02271)
(3.76824 -1.01405 0.892902)
(3.82044 -0.972869 0.627303)
(3.75424 -1.11542 0.61212)
(3.5205 -0.915928 0.674893)
(3.4295 -1.34832 0.490927)
(3.29327 -1.5541 0.297521)