/*--------------------------------*- C++ -*----------------------------------*\
  =========                 |
  \\      /  F ield         | OpenFOAM: The Open Source CFD Toolbox
   \\    /   O peration     | Website:  https://openfoam.org
    \\  /    A nd           | Version:  7
     \\/     M anipulation  |
\*---------------------------------------------------------------------------*/
FoamFile
{
    version     2.0;
    format      ascii;
    class       volScalarField;
    location    "9.5";
    object      p;
}
// * * * * * * * * * * * * * * * * * * * * * * * * * * * * * * * * * * * * * //

dimensions      [0 2 -2 0 0 0 0];

internalField   nonuniform List<scalar> 
18750
(
-59.9866
-59.9637
-60.1906
-60.0393
-58.1862
-59.7513
-59.9597
-60.4428
-60.1964
-60.0855
-58.3639
-56.7419
-58.3926
-60.5893
-59.6994
-59.9948
-61.394
-60.4525
-60.2011
-60.1261
-54.8057
-58.4036
-58.5499
-59.9324
-51.644
-58.0578
-61.1869
-60.4779
-59.7718
-60.0559
-61.7731
-61.3893
-60.4749
-60.2006
-60.1682
-53.6061
-58.8788
-54.8356
-59.6139
-57.8061
-58.4891
-60.0331
-59.9369
-57.5281
-57.3127
-61.7028
-61.1972
-60.3918
-59.8511
-60.1074
-62.2146
-61.7373
-61.3914
-60.4851
-60.2047
-60.2117
-51.4941
-55.1132
-53.8604
-59.3938
-57.8676
-55.2935
-59.9996
-59.4501
-57.5509
-57.9711
-60.4663
-59.8784
-59.9088
-56.8394
-56.9472
-62.2059
-61.6535
-61.1721
-60.3387
-59.8381
-60.1361
-62.2457
-62.1508
-61.7222
-61.3992
-60.5166
-60.229
-60.2584
-49.857
-50.9787
-51.2243
-55.0476
-54.7588
-53.3464
-59.1095
-59.3328
-56.8966
-55.3986
-59.9292
-59.8466
-59.3959
-57.4028
-57.7638
-60.9834
-60.378
-59.8064
-59.9337
-58.6789
-56.897
-62.1256
-62.1297
-61.6031
-61.1586
-60.271
-59.8355
-60.1589
-62.2784
-62.2044
-62.0733
-61.7162
-61.4144
-60.5888
-60.2717
-60.2968
-48.9482
-50.3527
-49.953
-53.1128
-51.2709
-51.0907
-56.3373
-55.0159
-54.6384
-53.5313
-59.603
-58.6467
-59.3259
-56.4194
-55.3001
-60.3604
-59.9415
-59.8131
-59.5346
-57.3426
-57.4028
-61.4611
-60.928
-60.2835
-59.7575
-59.9806
-59.0001
-57.0468
-62.3319
-62.0719
-62.0363
-61.537
-61.1156
-60.221
-60.0194
-60.2783
-62.2853
-62.2337
-62.1647
-61.9992
-61.7125
-61.4392
-60.6455
-60.3203
-60.3381
-48.0699
-49.1491
-49.065
-50.5771
-50.5586
-50.0066
-53.1328
-52.9003
-51.5108
-51.1509
-57.5094
-56.0765
-55.1921
-54.6991
-53.7118
-59.2602
-59.4124
-58.9859
-59.7735
-56.5093
-55.4536
-60.7542
-60.3305
-59.9709
-59.7256
-59.62
-57.8164
-57.5613
-61.932
-61.4266
-60.8795
-60.2113
-59.7188
-59.8694
-58.9319
-57.432
-62.9188
-62.2769
-62.0251
-61.9536
-61.4598
-61.0966
-60.1916
-60.1985
-60.4417
-63.2291
-62.2243
-62.2
-62.1347
-61.9297
-61.7027
-61.4641
-60.6947
-60.3718
-60.4138
-47.5083
-48.2643
-48.0632
-49.5284
-49.2835
-49.1065
-50.8909
-50.5974
-50.588
-49.9907
-53.441
-53.448
-52.9662
-51.2423
-51.5064
-56.922
-56.6017
-56.0168
-55.7105
-54.9853
-53.7143
-59.4654
-59.1693
-59.6501
-59.1958
-60.2894
-57.045
-55.3612
-61.0589
-60.9841
-60.2784
-59.9571
-59.6362
-59.7004
-58.627
-58.3848
-63.201
-61.8474
-61.4059
-60.827
-60.1452
-59.7119
-59.7329
-59.1016
-57.8051
-63.9652
-62.8968
-62.2154
-61.986
-61.8827
-61.3579
-61.1539
-60.1458
-60.299
-60.5935
-63.8271
-63.2091
-62.1653
-62.1716
-62.1096
-61.8647
-61.7043
-61.4978
-60.7455
-60.4457
-60.5022
-47.7307
-47.5082
-48.3774
-48.0778
-47.9851
-49.6416
-49.5302
-49.3975
-49.1046
-51.0103
-51.1228
-50.4004
-50.5097
-50.009
-54.0178
-53.8911
-53.4096
-53.2599
-51.4514
-51.9123
-57.2709
-56.8183
-56.8017
-56.383
-56.1785
-55.3495
-53.5926
-59.4946
-59.4631
-59.1702
-59.8943
-59.7568
-60.3924
-57.654
-54.9975
-62.3666
-61.2882
-60.86
-60.2352
-59.9057
-59.7487
-59.7179
-59.1601
-59.084
-64.3765
-63.1951
-61.8254
-61.369
-60.7689
-60.0717
-59.7431
-59.627
-59.1036
-58.189
-64.6088
-63.928
-62.8681
-62.1531
-61.9284
-61.8122
-61.2571
-61.1513
-60.1046
-60.3003
-60.8079
-64.0912
-63.8249
-63.19
-62.1181
-62.1456
-62.0849
-61.8091
-61.7218
-61.5498
-60.8035
-60.5232
-60.5969
-46.9903
-47.8346
-47.7294
-47.4854
-48.4669
-48.3276
-48.1571
-47.9831
-49.7499
-49.6085
-49.4618
-49.5077
-49.2826
-51.3031
-51.2604
-51.3587
-50.4004
-50.1289
-49.8872
-54.4195
-54.1376
-53.7533
-53.511
-52.873
-51.9115
-52.3282
-57.1077
-56.7256
-56.9479
-56.9468
-56.8784
-56.3399
-56.2899
-53.2222
-60.3776
-59.6369
-59.4668
-59.2647
-59.3701
-60.21
-59.9035
-58.2267
-54.9091
-62.8676
-62.368
-61.4191
-60.8085
-60.2111
-59.9136
-59.7501
-59.6057
-59.5294
-59.4842
-65.5479
-64.3172
-63.0446
-61.7792
-61.3201
-60.6817
-60.0152
-59.7846
-59.5759
-59.1942
-58.6688
-65.4487
-64.6044
-63.8901
-62.8496
-62.0796
-61.8783
-61.7263
-61.1303
-61.15
-60.0816
-60.3214
-61.0023
-64.6626
-64.1231
-63.8213
-63.1726
-62.0902
-62.1248
-62.0612
-61.7652
-61.731
-61.6037
-60.8725
-60.5417
-60.6576
-46.5649
-47.2319
-46.9874
-47.6735
-47.8179
-47.6194
-47.4639
-48.4308
-48.5481
-48.3671
-48.1276
-48.0117
-50.0033
-49.9114
-49.6102
-49.4527
-49.4232
-49.0797
-51.4053
-51.5747
-51.1812
-51.0159
-50.4418
-50.5133
-49.7961
-54.5869
-54.3917
-53.9689
-53.731
-53.7937
-52.9479
-51.5973
-51.9343
-57.314
-57.0889
-57.0021
-56.8983
-57.0384
-57.5548
-55.6512
-56.4687
-52.976
-60.5852
-59.9547
-59.7488
-59.5521
-59.0217
-59.0699
-60.1847
-59.4653
-58.5984
-55.0314
-64.1706
-62.7105
-62.1393
-61.4112
-60.6741
-60.1526
-59.85
-59.6603
-59.5671
-59.8344
-59.7065
-66.415
-65.4753
-64.2563
-62.9013
-61.7272
-61.287
-60.6273
-59.9796
-59.8598
-59.6167
-59.3247
-59.3826
-65.5402
-65.5209
-64.5772
-63.8328
-62.7914
-62.004
-61.8205
-61.6301
-61.0293
-61.1541
-60.1179
-60.4259
-61.1454
-64.0841
-64.69
-64.1434
-63.8067
-63.1619
-62.0756
-62.1063
-62.0371
-61.7335
-61.7305
-61.6404
-60.9488
-60.5621
-60.7453
-46.128
-46.398
-46.5219
-46.8982
-47.284
-46.9683
-47.9666
-47.6728
-47.7736
-47.5333
-47.4893
-48.6767
-48.5429
-48.5566
-48.2811
-48.1928
-48.0568
-50.1685
-50.0014
-49.8315
-49.6181
-49.4278
-49.2163
-48.9639
-51.792
-51.8157
-51.5565
-51.2101
-51.1341
-50.1926
-50.4846
-49.9176
-54.4646
-54.6965
-54.7407
-54.3673
-54.0771
-53.7204
-53.0435
-51.1902
-51.8942
-57.2583
-57.0846
-57.096
-57.2646
-57.0182
-57.0478
-57.9918
-55.836
-56.2435
-52.5237
-61.1321
-60.4695
-59.8673
-59.8104
-59.448
-59.0381
-59.1001
-59.9713
-59.4817
-58.7718
-55.0534
-64.2226
-63.8946
-62.8618
-62.0344
-61.3733
-60.5521
-60.0138
-59.7874
-59.5717
-59.4849
-59.889
-59.9515
-66.5484
-66.5642
-65.414
-64.1359
-62.7154
-61.6957
-61.2714
-60.5593
-59.9033
-59.9661
-59.7017
-59.4524
-60.1481
-65.9727
-65.6081
-65.5405
-64.5151
-63.8051
-62.6633
-61.9229
-61.7625
-61.5154
-60.9601
-61.1601
-60.2263
-60.5598
-61.2967
-63.533
-64.2569
-64.7106
-64.1381
-63.7977
-63.1561
-62.0727
-62.0916
-62.0123
-61.7195
-61.7267
-61.6737
-61.0246
-60.665
-60.8082
-46.0575
-46.1039
-46.6837
-46.4288
-46.5366
-47.3507
-46.9152
-47.2773
-46.9699
-47.8969
-47.7878
-47.668
-47.799
-47.4834
-47.4267
-48.8919
-48.7279
-48.6507
-48.5805
-48.219
-48.0747
-47.9508
-50.284
-50.1822
-49.9354
-49.6995
-49.6442
-49.4031
-49.1721
-49.0312
-52.057
-51.9745
-52.1546
-51.7067
-51.1398
-51.4407
-50.2043
-50.355
-49.6571
-54.5874
-54.6596
-54.9263
-54.3504
-54.528
-54.2359
-53.7067
-53.1244
-51.2338
-52.4211
-57.5024
-57.717
-57.2926
-57.0691
-56.8334
-57.0784
-57.3176
-58.4908
-56.765
-56.1426
-52.81
-61.2442
-61.2213
-60.6859
-60.3089
-59.7587
-59.1756
-58.9209
-59.0202
-59.7186
-59.5133
-58.689
-55.0624
-64.8172
-64.3668
-64.18
-62.897
-61.8098
-61.2599
-60.4361
-59.8997
-59.685
-59.4608
-59.5201
-59.8685
-60.3607
-66.2097
-66.6491
-66.6697
-65.3295
-64.0044
-62.5393
-61.6153
-61.224
-60.4505
-59.8036
-60.0826
-59.7583
-59.6918
-60.8134
-64.7808
-66.0655
-65.6504
-65.4691
-64.4583
-63.7159
-62.5934
-61.8431
-61.6977
-61.3938
-60.9149
-61.1915
-60.2961
-60.7006
-61.4729
-62.7209
-63.5893
-64.3977
-64.7074
-64.1267
-63.7868
-63.1538
-62.0847
-62.0755
-61.9884
-61.7143
-61.7295
-61.7151
-61.0811
-60.8261
-60.8793
-45.8815
-46.2479
-46.0112
-46.0315
-46.5908
-46.636
-46.3968
-46.5269
-47.2069
-47.3103
-47.0123
-47.3198
-47.0156
-47.9667
-47.9706
-47.8088
-47.7256
-47.6252
-47.4043
-47.365
-49.0716
-48.8599
-48.7988
-48.6087
-48.5346
-48.3045
-48.1089
-47.9801
-50.4446
-50.3534
-50.1697
-49.9922
-49.7658
-49.6973
-49.287
-49.1036
-49.0603
-52.272
-52.174
-52.1177
-51.5609
-51.7968
-51.319
-51.3531
-50.2897
-50.3754
-49.5353
-54.8134
-54.7593
-54.9814
-54.6645
-54.2317
-54.4757
-54.5933
-54.1148
-53.2866
-51.1177
-52.3435
-57.6928
-58.0331
-57.6994
-57.3614
-57.0865
-57.2273
-56.8782
-57.2573
-58.4286
-57.3925
-55.99
-52.9088
-60.8244
-61.407
-61.5248
-60.9529
-60.1497
-59.654
-59.2005
-58.7858
-58.8319
-59.3734
-59.1475
-58.5671
-55.4754
-63.8133
-65.0618
-64.5541
-64.3131
-63.0399
-61.7813
-61.1321
-60.3276
-59.8245
-59.5784
-59.3562
-59.2808
-59.6625
-60.7703
-64.9444
-66.4866
-66.9312
-66.7253
-65.2187
-63.9068
-62.4064
-61.5343
-61.1629
-60.3436
-59.7123
-60.1883
-59.8568
-59.999
-61.3024
-63.9902
-64.8647
-66.0114
-65.6418
-65.4524
-64.4278
-63.5599
-62.5155
-61.7735
-61.618
-61.2881
-60.8855
-61.2147
-60.3484
-60.8865
-61.6726
-62.6048
-62.7923
-63.647
-64.5098
-64.6866
-64.1182
-63.786
-63.1498
-62.1067
-62.0643
-61.9567
-61.7229
-61.7495
-61.7498
-61.1566
-60.9373
-60.9665
-45.5429
-45.9982
-45.8729
-46.2255
-46.1341
-45.8882
-46.1382
-46.6923
-46.6184
-46.6358
-46.5667
-46.4339
-47.3424
-47.2467
-47.3049
-47.0451
-47.262
-46.9846
-48.1787
-48.1376
-47.9972
-47.9039
-47.7814
-47.5389
-47.3888
-47.3572
-49.1794
-49.0563
-48.9101
-48.7106
-48.636
-48.4768
-48.3257
-48.0954
-48.0737
-50.5797
-50.4968
-50.3206
-50.1896
-50.031
-49.8102
-49.6709
-49.1782
-48.9838
-49.152
-52.4535
-52.2673
-52.2343
-52.1851
-52.4532
-51.7719
-51.6319
-51.4737
-50.0804
-50.5672
-49.6203
-54.8046
-54.8241
-54.903
-54.2253
-54.5836
-54.5908
-54.659
-54.8219
-54.5766
-53.2294
-51.1182
-51.9766
-57.7496
-57.7858
-57.8207
-57.8844
-57.5437
-57.1924
-56.9791
-56.8835
-57.2443
-58.5393
-56.7956
-55.5413
-52.7763
-60.5908
-61.2631
-61.62
-61.7267
-61.0688
-60.2064
-59.6511
-59.0278
-58.7186
-58.662
-59.1199
-58.6145
-58.1142
-55.7671
-62.6589
-64.2004
-65.3431
-64.8163
-64.3262
-63.1629
-61.74
-61.0679
-60.2392
-59.7489
-59.4569
-59.2339
-58.9931
-59.661
-61.1235
-64.0474
-65.1782
-66.7654
-67.1642
-66.7297
-65.096
-63.8052
-62.2802
-61.4509
-61.0718
-60.2678
-59.6433
-60.2433
-59.952
-60.4073
-61.4659
-63.3915
-64.108
-65.0221
-65.8927
-65.6174
-65.3842
-64.3373
-63.4811
-62.453
-61.6973
-61.5379
-61.2078
-60.8556
-61.2153
-60.4318
-61.1004
-61.9122
-62.6183
-62.6595
-62.8558
-63.7203
-64.5738
-64.6386
-64.1004
-63.7998
-63.1397
-62.1173
-62.0541
-61.9264
-61.7403
-61.7768
-61.7712
-61.2661
-60.9916
-61.0336
-45.3589
-45.5061
-45.5171
-45.9367
-45.9332
-45.8782
-46.2513
-46.2524
-46.1857
-45.8276
-45.9944
-46.7303
-46.7159
-46.6087
-46.6488
-46.6834
-46.4188
-47.4022
-47.327
-47.1989
-47.2785
-46.9047
-47.0516
-46.9386
-48.293
-48.2199
-48.1319
-47.9859
-47.8656
-47.6986
-47.5474
-47.3785
-47.433
-49.3133
-49.2779
-49.0378
-48.875
-48.8706
-48.6629
-48.449
-48.2761
-48.0465
-47.9963
-50.7187
-50.6406
-50.4018
-50.3423
-50.1987
-49.9233
-49.8706
-49.3724
-49.1084
-49.0067
-49.1639
-52.4756
-52.4775
-52.3794
-52.1646
-52.3042
-51.6186
-51.929
-51.3809
-51.7452
-50.1508
-50.6269
-49.7062
-54.7498
-54.9176
-54.809
-54.8589
-54.8446
-54.659
-54.7613
-54.9521
-54.8843
-54.4448
-53.0809
-51.381
-51.2536
-57.5422
-57.9864
-58.1429
-58.0366
-57.9055
-57.4948
-57.0903
-56.9815
-57.0013
-57.3543
-57.9622
-56.6761
-55.6848
-52.8893
-60.1189
-60.9039
-61.5418
-62.0788
-61.9694
-61.2256
-60.683
-59.5401
-58.8505
-58.7132
-58.4937
-58.8513
-58.2095
-57.6728
-55.7442
-62.0532
-63.0413
-64.53
-65.6907
-65.0156
-64.2999
-63.0173
-61.5718
-61.0694
-60.1618
-59.6993
-59.3269
-59.0977
-58.8061
-59.8945
-61.1735
-63.2714
-64.3126
-65.4183
-67.0751
-67.3125
-66.6651
-64.8834
-63.6499
-62.1299
-61.3933
-60.9644
-60.2045
-59.6129
-60.2731
-60.0023
-60.7992
-61.6618
-63.3086
-63.495
-64.2135
-65.2016
-65.8476
-65.5935
-65.2596
-64.2035
-63.4058
-62.3816
-61.6235
-61.4626
-61.1664
-60.8613
-61.2426
-60.5247
-61.2939
-62.0559
-62.8388
-62.6565
-62.7119
-62.9361
-63.7872
-64.5767
-64.5837
-64.0671
-63.7947
-63.1269
-62.1505
-62.0351
-61.9007
-61.7561
-61.8238
-61.8042
-61.3216
-61.0449
-61.0948
-45.1599
-45.3825
-45.3333
-45.5777
-45.475
-45.5168
-45.8865
-45.9054
-45.7217
-45.8291
-46.3407
-46.292
-46.1691
-46.048
-45.9852
-45.9858
-46.7952
-46.802
-46.6479
-46.6914
-46.6314
-46.5898
-46.3919
-47.551
-47.4607
-47.311
-47.2056
-47.2501
-46.9608
-47.0255
-46.9583
-48.4106
-48.3791
-48.252
-48.0636
-47.9594
-47.8676
-47.6476
-47.572
-47.4154
-47.488
-49.5537
-49.4075
-49.2389
-49.0643
-48.9334
-48.8391
-48.5553
-48.4674
-48.2706
-48.1795
-47.9722
-50.8756
-50.8045
-50.6083
-50.5291
-50.3994
-50.2072
-49.9924
-49.8865
-49.4154
-49.1687
-48.9547
-49.0144
-52.461
-52.4911
-52.4845
-52.4387
-52.3451
-52.2543
-52.1393
-51.7752
-51.298
-51.2426
-50.7259
-50.6006
-49.9081
-54.74
-55.0043
-54.8809
-54.952
-54.8494
-55.0035
-54.7305
-54.7661
-55.244
-54.9406
-53.9706
-53.076
-51.7069
-50.7748
-57.2621
-57.8568
-58.1725
-58.3903
-58.0694
-57.6439
-57.5543
-57.1171
-56.9091
-57.051
-57.3584
-57.5137
-56.521
-55.4018
-53.063
-59.665
-60.5798
-61.3073
-61.8775
-62.3718
-61.9417
-61.3697
-60.3787
-59.5139
-58.7281
-58.5458
-58.3051
-58.6425
-58.0603
-57.269
-55.9272
-61.6078
-62.3698
-63.4203
-64.9747
-65.9588
-64.9936
-64.1118
-63.066
-61.4588
-60.9984
-60.2014
-59.6457
-59.1945
-58.9851
-58.792
-60.3264
-60.8657
-62.4851
-63.5109
-64.5639
-65.7072
-67.338
-67.3474
-66.5319
-64.6677
-63.4626
-62.0012
-61.3404
-60.8704
-60.1382
-59.5944
-60.3073
-60.0974
-61.1498
-61.8336
-62.8788
-63.3741
-63.5959
-64.3054
-65.3187
-65.7543
-65.5599
-65.1224
-64.085
-63.3291
-62.3035
-61.5629
-61.4062
-61.1475
-60.8782
-61.2936
-60.6334
-61.4786
-62.1293
-62.1872
-62.8804
-62.6978
-62.7621
-63.0114
-63.8322
-64.5672
-64.5443
-64.0326
-63.772
-63.1144
-62.1845
-62.018
-61.8773
-61.7868
-61.8988
-61.8504
-61.3246
-61.095
-61.1712
-45.0438
-45.1542
-45.1093
-45.4211
-45.3536
-45.3296
-45.6105
-45.5275
-45.4664
-45.5067
-45.9038
-45.8943
-45.943
-45.8282
-45.7649
-46.4206
-46.3562
-46.2532
-46.1673
-46.1215
-46.0304
-45.9565
-46.9685
-46.8498
-46.7348
-46.7062
-46.6088
-46.5725
-46.448
-46.3709
-47.644
-47.5106
-47.4199
-47.2798
-47.1777
-47.2124
-46.9429
-46.912
-46.9772
-48.5556
-48.4583
-48.3961
-48.3101
-48.0951
-48.0353
-47.7675
-47.6669
-47.5388
-47.5108
-47.5236
-49.648
-49.5792
-49.384
-49.2442
-49.1292
-49.016
-48.8
-48.6604
-48.462
-48.2328
-48.2832
-48.0767
-50.953
-50.7786
-50.7439
-50.6469
-50.5114
-50.3815
-50.2779
-50.0215
-49.9586
-49.4748
-49.0441
-49.0692
-49.0089
-52.5805
-52.5974
-52.5972
-52.61
-52.4733
-52.4512
-52.4482
-52.1887
-51.8829
-51.528
-51.216
-50.9164
-50.5233
-49.6758
-54.3569
-54.9718
-55.1717
-55.0741
-55.0093
-54.8872
-54.1052
-54.9232
-54.9712
-55.4292
-55.0961
-53.961
-53.0588
-51.6978
-50.6146
-57.0792
-57.6351
-58.1795
-58.5803
-58.3765
-58.0005
-57.8567
-57.7835
-57.0262
-56.9445
-57.0537
-57.2217
-56.9938
-56.2531
-55.359
-53.3985
-59.3195
-59.9751
-60.993
-61.6508
-62.3841
-62.3851
-61.8995
-61.1795
-60.2883
-59.3877
-58.6179
-58.4487
-58.1013
-58.4282
-57.7793
-57.4593
-55.9895
-61.0586
-62.0246
-62.7084
-63.7966
-65.3486
-66.1976
-64.9694
-64.0272
-62.773
-61.4675
-60.9492
-60.1199
-59.611
-59.0904
-58.9191
-58.8755
-60.8047
-60.5669
-62.3639
-62.9252
-63.8178
-64.8057
-65.951
-67.5315
-67.35
-66.3861
-64.4099
-63.2685
-61.9169
-61.2895
-60.7859
-60.0875
-59.5591
-60.3166
-60.2379
-61.4915
-61.8114
-62.0839
-63.0233
-63.4655
-63.7047
-64.3933
-65.3834
-65.7416
-65.4946
-64.9976
-63.9562
-63.2669
-62.2363
-61.5048
-61.3565
-61.1513
-60.9007
-61.362
-60.7543
-61.6635
-62.1856
-61.3958
-62.2461
-62.9225
-62.7371
-62.8118
-63.0559
-63.8857
-64.5722
-64.5123
-63.9977
-63.738
-63.1011
-62.195
-61.9982
-61.8599
-61.8251
-61.9655
-61.921
-61.3334
-61.1407
-61.2546
-44.8422
-45.2067
-45.0298
-45.1872
-45.0573
-45.1201
-45.3482
-45.4025
-45.3467
-45.2976
-45.6094
-45.5729
-45.5422
-45.4837
-45.5172
-45.9511
-46.0435
-45.8519
-45.873
-45.8204
-45.7223
-46.5365
-46.4046
-46.3397
-46.1611
-46.1559
-46.1171
-45.9457
-45.9948
-47.0115
-46.9336
-46.8647
-46.7226
-46.6447
-46.5406
-46.563
-46.3898
-46.3409
-47.7586
-47.6761
-47.5562
-47.4101
-47.3126
-47.1954
-47.1332
-46.905
-47.0029
-46.8728
-48.6817
-48.5829
-48.4522
-48.2542
-48.2784
-48.1331
-47.8909
-47.8289
-47.6872
-47.5158
-47.6183
-47.6501
-49.7899
-49.6307
-49.5567
-49.3686
-49.2709
-49.1313
-48.9925
-48.7389
-48.6845
-48.4339
-48.3542
-48.2886
-48.0566
-51.0388
-50.9298
-50.9537
-50.7914
-50.7734
-50.5535
-50.3698
-50.2534
-50.183
-49.9355
-49.3832
-49.1724
-49.07
-48.9056
-52.5458
-52.6846
-52.7735
-52.6776
-52.6659
-52.4652
-52.2955
-52.5436
-52.2581
-52.0084
-51.5077
-51.2131
-50.9089
-50.7969
-49.5697
-54.5886
-54.9651
-55.1794
-55.18
-55.1295
-55.0854
-54.6327
-54.7565
-54.9092
-55.0968
-55.4391
-54.9956
-53.9946
-52.7275
-51.4199
-50.5353
-56.8831
-57.3136
-57.8886
-58.5297
-58.874
-58.6015
-58.123
-57.535
-57.4999
-57.1114
-56.9373
-57.0159
-57.0324
-56.9599
-56.291
-54.9291
-53.0133
-58.9443
-59.5651
-60.3426
-61.2784
-62.2311
-62.8162
-62.6283
-61.9264
-60.974
-60.1848
-59.2775
-58.5515
-58.3727
-57.9714
-58.2434
-57.8026
-57.632
-56.1566
-60.4125
-61.2806
-62.3198
-63.1089
-64.185
-65.6648
-66.3352
-65.0257
-63.7852
-62.5605
-61.4579
-60.8626
-60.0193
-59.5424
-59.0057
-58.8821
-58.9591
-61.1153
-60.3799
-61.9435
-62.506
-63.1607
-64.0872
-65.0699
-66.1648
-67.5498
-67.1723
-66.1551
-64.1147
-63.0755
-61.8196
-61.2163
-60.6869
-60.0365
-59.544
-60.3593
-60.338
-61.7992
-61.8472
-61.3054
-62.2108
-63.1688
-63.533
-63.8102
-64.4677
-65.3848
-65.8043
-65.3667
-64.882
-63.8153
-63.217
-62.197
-61.4617
-61.3185
-61.15
-60.9527
-61.4611
-60.8833
-61.8218
-62.2125
-61.2757
-61.444
-62.3041
-62.9605
-62.7805
-62.8578
-63.0778
-63.9178
-64.5974
-64.4561
-63.9546
-63.706
-63.0868
-62.2036
-61.9755
-61.8495
-61.8581
-62.0268
-62.0161
-61.3649
-61.1852
-61.3252
-44.7023
-44.8254
-44.829
-45.1802
-45.0869
-45.0228
-45.1471
-45.1057
-45.0896
-45.1103
-45.4287
-45.3623
-45.3579
-45.3085
-45.2997
-45.6287
-45.5971
-45.5035
-45.548
-45.513
-45.4719
-46.0197
-45.9656
-45.8645
-45.9302
-45.8377
-45.8466
-45.6926
-46.559
-46.4475
-46.3785
-46.2972
-46.2468
-46.051
-46.1191
-45.9367
-46.0318
-47.1597
-47.1034
-46.9361
-46.8369
-46.7111
-46.5912
-46.5208
-46.4509
-46.4178
-46.3582
-47.8489
-47.8195
-47.5834
-47.5227
-47.4174
-47.3323
-47.1722
-47.1192
-47.0286
-46.9641
-46.8505
-48.8019
-48.7085
-48.5585
-48.4276
-48.427
-48.2119
-48.1487
-47.8655
-47.8975
-47.7049
-47.5717
-47.6918
-47.6972
-49.7544
-49.7326
-49.5674
-49.4602
-49.38
-49.2364
-49.1128
-49.0185
-48.9486
-48.6883
-48.4841
-48.3545
-48.3135
-48.1197
-51.3639
-51.1061
-50.945
-51.0249
-50.9712
-50.6973
-50.6552
-50.4429
-50.4117
-50.1052
-50.0725
-49.277
-49.2531
-49.2163
-48.7097
-52.6216
-52.5413
-52.7797
-52.7758
-52.7345
-52.5626
-52.5886
-52.579
-52.4765
-52.3692
-52.0723
-51.6438
-51.3559
-50.9464
-50.8931
-49.5459
-54.3224
-54.6757
-55.1173
-55.2198
-55.2994
-55.2869
-55.015
-54.8739
-54.4569
-54.8638
-55.345
-55.3746
-54.9129
-53.6073
-52.6495
-51.1056
-50.6039
-56.432
-57.1192
-57.6896
-58.2279
-58.7946
-59.1066
-58.8579
-58.184
-57.6872
-57.6687
-57.2366
-56.8751
-57.0245
-56.8648
-56.9523
-56.068
-54.2937
-52.9872
-58.4805
-59.3086
-60.0674
-60.7586
-61.6895
-62.6953
-63.1075
-62.8515
-62.0385
-60.8689
-60.1426
-59.1727
-58.4389
-58.282
-57.8228
-58.0353
-57.7546
-57.6335
-56.3633
-59.9534
-60.5398
-61.545
-62.6409
-63.4803
-64.5399
-65.8966
-66.4106
-64.8813
-63.5352
-62.3175
-61.3146
-60.7482
-59.9667
-59.3956
-58.9117
-58.8617
-58.9626
-61.1526
-60.5253
-61.3996
-62.0317
-62.6854
-63.4292
-64.2718
-65.294
-66.4294
-67.4274
-66.9596
-65.7892
-63.8208
-62.9152
-61.7271
-61.1251
-60.5994
-59.9907
-59.5583
-60.4474
-60.2776
-62.0072
-61.9706
-61.1307
-61.4435
-62.3257
-63.2624
-63.5869
-63.8797
-64.5305
-65.3475
-65.8055
-65.2296
-64.7863
-63.6775
-63.1859
-62.1763
-61.4339
-61.2898
-61.1587
-61.0241
-61.5793
-61.0453
-61.9462
-62.2204
-61.5269
-61.2822
-61.492
-62.3592
-62.9854
-62.8294
-62.8979
-63.1502
-63.9146
-64.6276
-64.3925
-63.9012
-63.6677
-63.0717
-62.2104
-61.9528
-61.8371
-61.8542
-62.1138
-62.0974
-61.4141
-61.228
-61.3849
-44.5815
-44.701
-44.685
-44.938
-44.8221
-44.8413
-45.0271
-45.0913
-45.0648
-44.9749
-45.1931
-45.1698
-45.1583
-45.1058
-45.0741
-45.4348
-45.3149
-45.3478
-45.3552
-45.2981
-45.297
-45.7162
-45.6126
-45.6379
-45.5299
-45.5486
-45.5168
-45.3879
-46.0441
-45.9746
-45.9305
-45.9153
-45.8355
-45.7032
-45.7286
-45.7472
-46.6993
-46.5906
-46.4474
-46.3414
-46.2698
-46.2101
-46.0547
-46.0841
-46.0575
-46.0588
-47.3085
-47.1748
-47.059
-46.9743
-46.8136
-46.7426
-46.6271
-46.4999
-46.3789
-46.4497
-46.3386
-47.8417
-47.878
-47.6863
-47.6349
-47.5057
-47.4002
-47.2366
-47.1676
-47.1064
-47.033
-46.8812
-46.8539
-48.8659
-48.8093
-48.6386
-48.4987
-48.3896
-48.4277
-48.2356
-48.1773
-48.0502
-47.885
-47.7325
-47.6866
-47.6939
-47.5557
-49.8592
-49.7799
-49.7164
-49.6218
-49.5883
-49.4151
-49.2647
-49.1693
-49.147
-48.9354
-48.7452
-48.3689
-48.3888
-48.2939
-48.0433
-51.1682
-50.7724
-51.1599
-50.9906
-50.9562
-50.7558
-50.828
-50.6829
-50.4762
-50.4249
-50.4236
-50.1942
-49.4294
-49.2656
-49.192
-48.7606
-52.6448
-52.5757
-52.8314
-52.8338
-52.7191
-52.8499
-53.018
-52.7984
-52.8827
-52.6208
-52.5083
-52.1034
-51.877
-51.4752
-50.7653
-50.8298
-49.6499
-54.261
-54.5468
-54.7414
-55.2098
-55.3102
-55.5195
-55.278
-54.9653
-54.8363
-54.6815
-54.9601
-55.3347
-55.4741
-54.8477
-53.4745
-52.4977
-50.9335
-50.3735
-56.3539
-56.852
-57.2465
-57.952
-58.6137
-59.188
-59.5066
-59.0965
-58.3732
-57.6602
-57.4096
-57.0645
-56.9291
-57.1391
-56.8902
-56.7929
-55.7091
-53.9211
-53.1378
-57.9939
-58.8319
-59.5966
-60.4029
-61.2318
-62.2294
-63.015
-63.4783
-62.9264
-61.9624
-60.8313
-59.9909
-59.0683
-58.3597
-58.0533
-57.6941
-57.6959
-57.7333
-57.3553
-56.2037
-59.6825
-60.1515
-60.8539
-61.894
-63.1781
-63.8307
-64.8607
-66.001
-66.3806
-64.6582
-63.2552
-62.2008
-61.1679
-60.6588
-59.836
-59.2223
-58.7997
-58.8308
-58.919
-61.0051
-59.7279
-60.889
-61.5908
-62.2904
-63.042
-63.775
-64.4884
-65.5298
-66.6554
-67.2774
-66.7174
-65.3843
-63.5319
-62.7222
-61.6342
-61.0354
-60.5269
-59.9386
-59.6012
-60.5843
-60.2471
-62.0565
-62.0111
-61.1236
-61.2464
-61.5821
-62.4461
-63.3488
-63.6517
-63.9502
-64.5811
-65.3216
-65.7431
-65.0504
-64.6004
-63.5464
-63.12
-62.1515
-61.4002
-61.2814
-61.1932
-61.1219
-61.7065
-61.2388
-62.039
-62.2201
-61.1274
-61.5717
-61.3173
-61.5548
-62.4097
-63.0014
-62.8719
-62.9328
-63.2176
-63.9213
-64.6373
-64.3201
-63.8415
-63.6254
-63.0564
-62.2354
-61.9338
-61.8283
-61.8388
-62.2064
-62.1788
-61.4608
-61.2724
-61.44
-44.5137
-44.6191
-44.5633
-44.6568
-44.6243
-44.6789
-44.9302
-44.9472
-44.8598
-44.877
-45.0697
-45.0057
-45.0339
-44.9905
-44.959
-45.2514
-45.1761
-45.1572
-45.1116
-45.0921
-45.0703
-45.4747
-45.3824
-45.3554
-45.327
-45.3943
-45.2196
-45.2501
-45.7896
-45.6999
-45.6556
-45.5903
-45.5522
-45.4711
-45.4752
-45.4041
-46.1484
-46.0564
-46.0423
-45.9486
-45.9185
-45.7766
-45.7873
-45.7131
-45.763
-46.8343
-46.6701
-46.5615
-46.4451
-46.3726
-46.2238
-46.1795
-46.1066
-45.9854
-46.107
-46.0254
-47.3275
-47.294
-47.1893
-46.9971
-46.9597
-46.7729
-46.7928
-46.6334
-46.4809
-46.4207
-46.3831
-46.3319
-48.0556
-48.0228
-47.7961
-47.6376
-47.7192
-47.534
-47.4206
-47.237
-47.1795
-47.0835
-46.9341
-46.8317
-46.8834
-48.9204
-48.8814
-48.835
-48.6697
-48.6413
-48.4895
-48.4088
-48.2786
-48.1495
-48.0684
-47.9443
-47.6701
-47.6839
-47.5941
-47.5032
-49.9413
-49.8746
-49.7851
-49.6446
-49.5569
-49.6749
-49.2947
-49.4046
-49.2781
-49.118
-48.9389
-48.8463
-48.6915
-48.4755
-48.3836
-48.0699
-51.2562
-51.1977
-51.0422
-51.0954
-51.1976
-50.997
-50.9541
-50.8795
-50.8135
-50.6419
-50.5091
-50.5991
-50.269
-49.6463
-49.0902
-49.0741
-48.6688
-52.6115
-52.641
-52.6565
-52.849
-52.8908
-52.7553
-52.9416
-53.055
-53.0289
-52.8653
-52.5233
-52.5181
-52.0761
-52.091
-51.4289
-50.7177
-50.5747
-49.7538
-54.1092
-54.2958
-54.5194
-54.9914
-55.2684
-55.5029
-55.5558
-55.151
-54.835
-54.8297
-54.6809
-55.0205
-55.2966
-55.5102
-55.0285
-53.3949
-52.4735
-50.8815
-50.3721
-55.9316
-56.5708
-57.0908
-57.5606
-58.2022
-58.9298
-59.6066
-59.8878
-59.4449
-58.4077
-57.6772
-57.3315
-57.0541
-56.929
-57.1029
-56.8439
-56.609
-55.3581
-54.0205
-53.0655
-57.8235
-58.1848
-58.9899
-59.9832
-60.8202
-61.719
-62.6781
-63.3777
-63.6559
-62.8325
-61.8547
-60.793
-59.9041
-59.0109
-58.2342
-58.0982
-57.5762
-57.5265
-57.5617
-57.1631
-55.9808
-59.3442
-59.9103
-60.4251
-61.39
-62.4115
-63.4861
-64.2483
-65.1699
-66.0126
-66.1819
-64.3887
-62.9919
-62.0186
-61.0026
-60.5399
-59.6886
-59.0087
-58.7407
-58.8238
-58.796
-60.7675
-58.8311
-60.7515
-61.0092
-61.781
-62.5672
-63.2993
-64.0224
-64.6686
-65.7664
-66.7585
-67.1279
-66.3404
-65.0188
-63.2757
-62.5093
-61.508
-60.9254
-60.4665
-59.8765
-59.6414
-60.7445
-60.2684
-62.058
-62.0596
-60.6732
-61.1815
-61.3404
-61.7121
-62.5777
-63.4422
-63.6997
-63.9915
-64.6173
-65.2945
-65.6594
-64.8596
-64.338
-63.4207
-63.0381
-62.1131
-61.38
-61.2817
-61.2355
-61.2413
-61.8337
-61.401
-62.1245
-62.2287
-60.2948
-61.1433
-61.6032
-61.3892
-61.6073
-62.4532
-63.0309
-62.9056
-62.9655
-63.2532
-63.9404
-64.6359
-64.243
-63.7731
-63.5792
-63.0428
-62.2531
-61.9175
-61.8218
-61.8546
-62.239
-62.2399
-61.4886
-61.314
-61.4993
-44.4384
-44.5257
-44.4897
-44.615
-44.5672
-44.5679
-44.7347
-44.7689
-44.7712
-44.67
-44.92
-44.9667
-44.8939
-44.8962
-44.8493
-45.0877
-45.0415
-44.9871
-45.0035
-44.9811
-44.9425
-45.3382
-45.1785
-45.1491
-45.1161
-45.0966
-45.0568
-45.0501
-45.5058
-45.4368
-45.4034
-45.3469
-45.3183
-45.4299
-45.278
-45.2633
-45.8644
-45.6885
-45.7129
-45.6551
-45.6089
-45.4625
-45.4789
-45.4178
-45.3466
-46.3448
-46.2083
-46.0465
-46.0217
-45.8705
-45.8122
-45.7949
-45.7379
-45.7028
-45.6996
-46.968
-46.8057
-46.7088
-46.5219
-46.4495
-46.3473
-46.2279
-46.1953
-46.131
-46.0969
-46.0577
-46.0252
-47.455
-47.2305
-47.395
-47.0595
-46.9946
-46.8301
-46.8263
-46.5814
-46.6562
-46.5323
-46.3041
-46.3949
-46.2858
-48.1554
-48.029
-47.9567
-47.7967
-47.8423
-47.6913
-47.5116
-47.4642
-47.3784
-47.1688
-46.9701
-46.9846
-46.8098
-46.7677
-49.0061
-49.0034
-48.862
-48.8462
-48.6326
-48.682
-48.4857
-48.4463
-48.3067
-48.2091
-48.0651
-47.8876
-47.7635
-47.717
-47.5779
-47.5595
-49.9506
-49.9239
-49.8401
-49.7787
-49.645
-49.633
-49.4136
-49.4809
-49.5374
-49.3923
-49.0544
-49.1391
-48.9722
-48.7301
-48.3335
-48.3255
-48.1356
-51.2067
-51.2334
-51.2894
-51.0348
-51.2542
-51.1748
-51.0568
-51.2154
-51.1139
-50.9364
-50.6669
-50.7188
-50.6637
-50.2945
-49.4621
-49.1807
-48.7765
-48.7234
-52.53
-52.5696
-52.704
-52.7863
-52.8626
-52.9237
-52.9301
-53.0194
-52.9506
-53.0401
-52.7651
-52.5761
-52.6137
-52.2617
-52.1644
-51.565
-50.6075
-50.5063
-49.5769
-53.9301
-53.8201
-54.4032
-54.5959
-55.0066
-55.5001
-55.7261
-55.468
-55.1102
-54.8727
-54.779
-54.835
-54.8904
-55.3159
-55.4498
-55.0576
-53.5975
-52.4534
-51.251
-50.5107
-55.7826
-56.1722
-56.803
-57.3207
-57.8815
-58.726
-59.4426
-59.9828
-60.1536
-59.7326
-58.4263
-57.7283
-57.2253
-57.0659
-57.0107
-57.1115
-56.6563
-56.4074
-55.3315
-54.5851
-52.9678
-57.3211
-57.916
-58.3944
-59.2858
-60.3296
-61.3849
-62.2478
-63.1117
-63.6065
-63.6655
-62.7329
-61.6477
-60.6537
-59.7378
-59.1075
-58.3375
-58.0049
-57.3628
-57.5432
-57.4794
-57.266
-55.9819
-59.3892
-59.5162
-60.1413
-60.7228
-61.618
-62.6932
-63.5643
-64.51
-65.3657
-65.9397
-65.898
-64.1058
-62.6819
-61.7542
-60.7276
-60.251
-59.5759
-58.8036
-58.6895
-58.885
-58.5042
-60.0716
-59.0054
-60.6155
-60.8678
-61.1323
-61.9976
-62.7899
-63.4825
-64.1989
-64.6826
-65.8178
-66.7683
-66.947
-65.8343
-64.6773
-63.0365
-62.3507
-61.3887
-60.8225
-60.3949
-59.8326
-59.6931
-60.9894
-60.2951
-62.1229
-62.0268
-60.0916
-60.7651
-61.2506
-61.415
-61.8352
-62.7234
-63.5208
-63.7358
-64.0302
-64.6272
-65.2672
-65.5674
-64.6791
-64.1073
-63.3156
-62.9515
-62.0818
-61.3615
-61.281
-61.2773
-61.3857
-61.9657
-61.5393
-62.1885
-62.2303
-60.3491
-60.038
-61.1543
-61.6326
-61.4283
-61.6554
-62.4912
-63.0504
-62.9435
-63.0007
-63.2763
-63.95
-64.5764
-64.175
-63.7031
-63.5337
-63.0349
-62.2422
-61.9027
-61.8208
-61.8903
-62.2064
-62.2678
-61.5209
-61.3533
-61.5621
-44.2925
-44.4142
-44.4018
-44.4987
-44.5195
-44.51
-44.6456
-44.6079
-44.5383
-44.5578
-44.7539
-44.855
-44.7228
-44.7438
-44.6527
-44.949
-44.9091
-44.921
-44.8773
-44.8424
-44.7968
-45.1638
-45.0576
-45.0197
-45.0054
-44.9478
-44.9901
-44.8848
-45.4013
-45.2534
-45.2056
-45.1366
-45.054
-45.1206
-45.047
-45.076
-45.6122
-45.4289
-45.4288
-45.4282
-45.3944
-45.342
-45.2649
-45.3838
-45.1764
-45.9376
-45.8527
-45.6903
-45.7236
-45.6026
-45.545
-45.4557
-45.5404
-45.4108
-45.4423
-46.3299
-46.2908
-46.1118
-46.0568
-46.0019
-45.8254
-45.7397
-45.7684
-45.7172
-45.6854
-45.6922
-46.9845
-46.8384
-46.7657
-46.7261
-46.4801
-46.3875
-46.3095
-46.2246
-46.2247
-46.1313
-46.0468
-46.0219
-45.999
-47.5409
-47.4787
-47.3581
-47.2071
-47.0161
-47.0099
-46.9264
-46.8359
-46.6615
-46.601
-46.4803
-46.325
-46.2609
-46.1829
-48.2912
-48.1871
-48.0729
-47.9243
-47.8978
-47.7901
-47.6369
-47.521
-47.448
-47.3089
-47.2893
-46.9718
-46.9922
-46.8294
-46.7636
-49.1364
-49.1131
-49.0029
-48.8658
-48.6867
-48.6771
-48.6418
-48.5547
-48.4749
-48.3447
-48.2166
-48.0962
-47.8594
-47.7529
-47.6989
-47.5599
-47.4713
-49.9673
-50.0177
-49.9393
-49.8261
-49.7445
-49.8087
-49.7306
-49.6652
-49.6831
-49.6038
-49.3521
-49.2572
-49.2818
-49.0033
-48.7158
-48.3765
-48.2645
-48.1078
-51.2089
-51.2619
-51.2318
-51.1601
-51.2679
-51.1937
-51.1672
-51.0758
-51.1004
-51.1814
-51.1125
-50.8656
-50.9354
-50.7686
-50.2916
-49.5673
-49.1361
-48.6848
-48.7884
-52.5567
-52.5615
-52.6157
-52.7415
-52.9237
-53.0016
-53.0372
-53.0869
-53.1135
-53.0241
-53.0101
-52.7494
-52.8836
-52.9158
-52.4625
-52.1951
-51.5511
-50.4655
-50.3285
-49.5114
-53.7163
-53.6944
-53.9526
-54.3167
-54.8231
-55.2173
-55.7096
-55.7574
-55.5614
-55.3459
-55.0451
-54.7769
-55.0177
-55.1129
-55.4232
-55.8055
-55.1758
-53.6724
-52.2856
-51.3738
-50.4749
-55.7446
-55.8727
-56.4656