/*--------------------------------*- C++ -*----------------------------------*\
  =========                 |
  \\      /  F ield         | OpenFOAM: The Open Source CFD Toolbox
   \\    /   O peration     | Website:  https://openfoam.org
    \\  /    A nd           | Version:  7
     \\/     M anipulation  |
\*---------------------------------------------------------------------------*/
FoamFile
{
    version     2.0;
    format      ascii;
    class       surfaceScalarField;
    location    "9.5";
    object      phi;
}
// * * * * * * * * * * * * * * * * * * * * * * * * * * * * * * * * * * * * * //

dimensions      [0 3 -1 0 0 0 0];

internalField   nonuniform List<scalar> 
54095
(
1.30049e-05
-1.88465e-05
-0.00125457
9.77561e-05
5.75104e-05
1.93563e-06
0.000108653
-5.1774e-05
-0.00136946
-3.02527e-06
-1.86062e-05
-0.00123294
-4.462e-05
-7.12249e-05
0.000995213
0.000170767
0.000158169
-0.00164915
7.28659e-05
8.3181e-05
-0.000157136
4.69591e-05
-5.34765e-05
-0.00145761
8.6004e-05
-4.97179e-05
-0.00142435
-2.97433e-05
-1.8676e-05
-0.00118452
-0.000469419
0.000284868
-0.00402488
0.000261434
0.000314612
-0.00207407
5.08293e-05
-0.000165443
0.00118269
0.000143741
4.66656e-05
-0.00277787
8.12405e-05
0.000124504
-0.00168571
1.63129e-05
0.000107054
-0.000310247
4.49859e-05
-5.06127e-05
-0.00135887
4.34615e-05
-5.14279e-05
-0.00149936
6.2173e-05
-4.80214e-05
-0.00145718
-5.86168e-05
-1.80349e-05
-0.00110787
-0.000982864
0.000493877
-0.0065984
0.000770407
0.000285492
-0.00157404
-0.000145208
0.000240556
-0.0040694
7.91949e-05
0.000303079
-0.000948268
0.000284935
0.000321239
0.00276545
0.000299725
-9.10995e-05
0.000990381
0.000148808
-9.79889e-05
-0.00218363
0.000153552
-4.43285e-06
-0.00275902
6.62087e-05
0.000143256
-0.00172595
-6.23328e-05
0.000118043
-0.000424574
6.4659e-05
-5.12833e-05
-0.00166184
3.40979e-05
-4.9389e-05
-0.00139501
2.76969e-05
-4.98307e-05
-0.00152525
3.56465e-05
-4.5864e-05
-0.001465
-9.5015e-05
-1.80507e-05
-0.000994803
-0.000917776
0.000184102
-0.00521177
0.000579313
0.00105016
-0.00589161
-0.000582313
0.00063039
-0.00679168
0.000332482
0.000258227
-0.00132531
0.000664406
0.000199268
-0.00191222
0.000418159
0.000233988
-0.00442182
0.00018378
0.000143665
-0.00122584
5.95248e-05
0.000300526
-0.000833529
0.000237801
0.000239775
0.00226299
0.000226098
-7.85087e-05
0.000780459
6.23179e-05
-7.67499e-05
-0.0021797
0.000128615
-0.000108765
-0.00217382
0.000121737
-9.83161e-06
-0.00269997
-8.47469e-06
0.000134968
-0.00169875
-0.000157962
0.000113604
-0.000475231
7.29282e-05
-5.5967e-05
-0.000876328
6.75038e-05
-4.87485e-05
-0.00172998
2.30611e-05
-4.89067e-05
-0.00141899
1.5043e-05
-4.84342e-05
-0.00153772
1.24982e-05
-4.43244e-05
-0.00145122
-0.0001226
-1.82397e-05
-0.000853964
-0.00110091
0.000412362
-0.00611378
-0.000352663
0.000834936
-0.00698749
-0.00070597
0.000274278
-0.00536239
0.000201786
0.000897501
-0.00482118
0.000317019
0.00117946
-0.00609329
-0.000181369
0.000685112
-0.00687727
0.000388722
0.000228937
-0.000911702
0.000306422
0.000135899
-0.00150884
0.000501284
0.000122484
-0.0020642
0.000302035
0.000271452
-0.00476921
-4.01293e-07
0.000206492
-0.00180194
0.000127258
0.000141573
-0.00106553
5.71423e-05
0.000214417
-0.000743577
0.000289115
0.000217595
0.00166929
0.000115197
-2.29136e-05
0.000530214
-3.32244e-05
-5.01668e-05
-0.00163938
9.60929e-05
-8.71404e-05
-0.00222991
0.000101504
-0.000128207
-0.00213389
0.000114556
-2.63841e-05
-0.00263813
-6.24149e-05
0.000154049
-0.00166428
-0.000229665
0.000102277
-0.000470442
3.09167e-05
-5.16009e-05
-0.000477445
8.0535e-05
-5.47643e-05
-0.000950847
5.94837e-05
-4.70129e-05
-0.00179136
1.51033e-05
-4.82309e-05
-0.0014343
-5.07803e-06
-4.76071e-05
-0.00152936
1.05491e-05
-4.36313e-05
-0.00143638
-0.000140084
-1.80673e-05
-0.000695813
-0.00153222
0.000177984
-0.0039345
-0.000807466
0.000518828
-0.00608469
-0.00116203
0.000207089
-0.00586482
-0.00042312
0.00119565
-0.00704846
-0.000608566
0.000741245
-0.00652887
-0.000592144
0.000242934
-0.00519455
0.000670186
0.000541308
-0.00347442
0.000157292
0.00105393
-0.00454651
-2.87622e-05
0.00100706
-0.0058852
-0.000195545
0.000582235
-0.00696192
-9.72167e-05
0.000328106
-0.00153889
0.000255623
0.000164721
-0.00106889
0.000220022
3.33333e-05
-0.00158257
0.000533934
0.000128843
-0.00216641
0.000215971
0.000386126
-0.00525611
-9.47787e-05
0.000240867
-0.00211279
1.9068e-05
0.000211314
-0.00179466
0.000134236
0.000110127
-0.00099397
0.000117908
0.000202412
-0.000731745
0.00020496
0.000177863
0.00120114
-1.96454e-05
4.56435e-05
0.000274551
-2.74708e-05
-3.17643e-05
-0.00103398
7.89389e-06
-5.97132e-05
-0.00159416
8.06025e-05
-9.7588e-05
-0.00228165
8.24308e-05
-0.000132879
-0.00209472
7.19053e-05
-4.04808e-06
-0.00255702
-5.52398e-05
0.000128235
-0.00162445
-0.000281735
0.000101892
-0.000430683
6.67681e-05
-4.05278e-05
-0.000566312
3.28854e-05
-5.2809e-05
-0.000512286
7.59371e-05
-5.23593e-05
-0.00102144
5.06839e-05
-4.52938e-05
-0.00184498
8.12909e-06
-4.78547e-05
-0.00144218
-1.44141e-05
-4.73484e-05
-0.00151123
-1.19008e-06
-4.23209e-05
-0.00141094
-0.000140346
-1.64096e-05
-0.000539058
-0.00146735
3.50621e-05
-0.0037318
-0.00110993
0.000245619
-0.00445458
-0.00154225
0.000313123
-0.00386739
-0.000362988
0.000754642
-0.00669021
-0.000983582
0.000419034
-0.00592162
-0.00121711
9.71463e-05
-0.005337
0.000157107
0.00153337
-0.00579254
-0.000482626
0.000973154
-0.00664045
-0.000818089
0.000669074
-0.00616569
-0.000562624
0.000239417
-0.00506688
0.000549465
0.000434019
-0.00435926
0.000228355
0.000805945
-0.00319916
4.94907e-05
0.00108743
-0.00445635
-0.000230491
0.00096487
-0.00550341
-0.000138685
0.000508497
-0.00711576
-0.000168814
0.000356305
-0.00222173
-9.83348e-05
0.000312561
-0.00156933
0.000137903
0.000136082
-0.0011753
0.000180889
4.66397e-06
-0.00152137
0.000372632
0.000250366
-0.00219832
-0.000172176
0.000476641
-0.00558022
-9.53212e-05
0.000236246
-0.00199202
-8.26968e-05
0.000261089
-0.00207197
-9.10909e-07
0.000201195
-0.00180421
7.32061e-05
0.000152648
-0.000934981
0.000165957
0.000143139
-0.000791073
0.000146321
0.000203807
0.000841417
-0.000127543
0.000106104
1.42555e-05
2.6982e-05
-1.4054e-06
-0.000749023
-2.92122e-05
-4.04265e-05
-0.00099117
-1.95696e-05
-6.11262e-05
-0.00153512
7.12398e-05
-0.000110183
-0.0023249
7.25674e-05
-0.000121261
-0.00204194
5.76022e-05
-4.46858e-05
-0.00245612
-6.99807e-05
0.000120753
-0.00157452
-0.000291084
0.0001134
-0.000393345
0.000107165
-1.4614e-05
-0.000147003
6.97528e-05
-3.72498e-05
-0.000651624
3.41049e-05
-5.12692e-05
-0.000547481
7.68754e-05
-4.81423e-05
-0.00109546
4.20896e-05
-4.40914e-05
-0.00189083
4.59068e-06
-4.75511e-05
-0.00144657
-3.61448e-05
-4.5991e-05
-0.00147141
-1.70989e-05
-4.46688e-05
-0.00136558
-0.000136735
-1.59752e-05
-0.000386347
-0.00150422
8.98881e-05
-0.00357533
-0.0011308
0.000168978
-0.00478538
-0.00149522
9.50985e-05
-0.00387393
-0.000453762
0.000426133
-0.00553105
-0.000874315
0.000278237
-0.00452896
-0.00157519
0.000383728
-0.00389304
-0.000366229
0.00110519
-0.00607378
-0.000675858
0.000766542
-0.00684449
-0.00101863
0.000321723
-0.00594565
-0.00116793
8.8275e-05
-0.00481997
0.00061292
0.00133696
-0.00468069
-0.000369877
0.00135334
-0.0055745
-0.000566843
0.000951444
-0.00630649
-0.00106682
0.000700815
-0.00579076
-0.000621355
0.000265186
-0.0048494
-0.0001428
0.000568893
-0.00431757
-6.2077e-05
0.000660729
-0.0042503
4.60115e-05
0.000983629
-0.00300347
-9.33845e-05
0.0010059
-0.0042231
-0.000339193
0.000972531
-0.00525562
-0.000593536
0.000427303
-0.0071217
-0.000255315
0.00042248
-0.00235546
-0.000222462
0.000372891
-0.0021423
-5.74263e-05
0.000309174
-0.00168591
0.000158434
0.000111905
-0.00136777
0.000336995
2.85262e-06
-0.00144489
0.00020788
0.000381751
-0.00216499
-0.000359449
0.000347814
-0.00569613
-0.000119301
0.00026117
-0.00202761
-6.26843e-05
0.00023472
-0.00193218
-9.25515e-05
0.000262378
-0.00206017
-2.41114e-05
0.00022026
-0.00177647
7.64477e-05
0.000130254
-0.000925977
0.000263104
0.000159646
-0.000952413
0.000124305
0.000246615
0.000506619
-0.000161197
0.000168205
-0.000283837
9.49108e-05
3.79584e-05
0.000382815
3.95522e-05
-1.00788e-05
-0.00074917
-2.32481e-05
-4.65153e-05
-0.000948428
1.23121e-06
-7.11344e-05
-0.00149852
5.05093e-05
-0.000109149
-0.00234543
5.18544e-05
-0.000135724
-0.00199817
1.8868e-05
-2.54297e-05
-0.00236495
-9.32548e-05
0.000105066
-0.00149003
-0.000279626
0.000129315
-0.00037977
9.67372e-05
1.20186e-06
0.000987856
0.0001189
-1.07003e-05
-0.000292453
6.61438e-05
-3.17209e-05
-0.000737316
3.49368e-05
-4.71034e-05
-0.000583457
7.29897e-05
-4.42004e-05
-0.00116835
3.78719e-05
-4.24982e-05
-0.00193376
-6.10504e-06
-4.90903e-05
-0.00143736
-3.78565e-05
-4.86871e-05
-0.00142954
-2.31217e-05
-4.73612e-05
-0.00131107
-0.000127217
-1.57746e-05
-0.000243355
1.12398e-05
-0.00319647
-0.00131704
0.000300388
-0.00427804
-0.00153116
2.45366e-05
-0.00356392
-0.000893636
0.000351203
-0.00490783
-0.000856812
0.000192977
-0.00490076
-0.0015412
1.63715e-05
-0.0039243
-0.000510576
0.000566593
-0.005529
-0.000841519
0.000413462
-0.00550062
-0.000960661
0.000326809
-0.00453
-0.00148464
0.000411184
-0.00398751
-0.000315467
0.00135699
-0.00549127
-0.000312645
0.0010752
-0.00643967
-0.000723423
0.000648767
-0.00701495
-0.00105053
0.000437479
-0.00631114
-0.00122624
0.00025611
-0.0044712
-6.80839e-05
0.00120653
-0.00503576
-0.000126238
0.00134465
-0.00460783
-0.00043449
0.00134977
-0.00549232
-0.000462192
0.000965535
-0.0062024
-0.000738038
0.000793393
-0.00592012
-0.000916044
0.000240703
-0.0047676
-0.000442078
0.000708205
-0.00445748
-0.000357887
0.000670416
-0.00419184
0.000138822
0.00071266
-0.00417558
0.000121539
0.000947112
-0.0029078
7.90639e-05
0.00100195
-0.00399459
-0.000433369
0.000985177
-0.00517224
-0.000889426
0.000484752
-0.00707648
-0.000362581
0.000565721
-0.00335589
4.83948e-05
0.000385993
-0.00247964
-0.000163482
0.000372395
-0.00213459
-5.35753e-05
0.000293681
-0.00183822
2.4952e-05
0.000116561
-0.00142999
0.000520867
4.79728e-05
-0.00136888
9.97748e-05
0.000440239
-0.00223289
-0.000443609
0.000350108
-0.00576382
-9.87226e-05
0.000291994
-0.00138244
-0.000122859
0.000241127
-0.00187161
-5.85291e-05
0.000234518
-0.00186904
-6.82884e-05
0.000267848
-0.00203824
-5.23204e-05
0.000225958
-0.00176935
6.22111e-05
0.000133783
-0.000910471
0.000247494
0.000195603
-0.00113003
0.000126457
0.000283383
0.00017173
-0.000148838
0.000242545
-0.00065717
8.7984e-05
7.24895e-05
0.00103101
0.000118343
3.39193e-05
0.000339374
4.90642e-05
-1.52976e-05
-0.000763308
3.40468e-05
-5.09954e-05
-0.000967677
7.53306e-06
-7.0899e-05
-0.00147131
4.6835e-05
-0.000112151
-0.00237797
2.262e-05
-0.000107567
-0.00194476
-9.92113e-06
-3.91264e-05
-0.00224869
-8.93948e-05
9.82478e-05
-0.00139269
-0.000233929
0.000136496
-0.000409554
5.84826e-05
-1.83554e-06
0.00208833
0.000105038
1.48787e-06
0.00087063
0.00012618
-6.10444e-06
-0.000444249
5.70339e-05
-2.38129e-05
-0.000817641
3.10376e-05
-4.2378e-05
-0.000616317
7.3527e-05
-3.99956e-05
-0.00124437
3.43461e-05
-4.32648e-05
-0.00197393
-1.01416e-05
-5.11784e-05
-0.00142473
-4.04173e-05
-5.06186e-05
-0.00138586
-3.29148e-05
-4.787e-05
-0.00124606
-0.000114511
-1.58862e-05
-0.000112957
0.000274956
-0.00376754
-0.00167582
5.17502e-05
-0.00310356
-0.000998661
0.000329691
-0.00431317
-0.00124651
0.000378652
-0.00424246
-0.00158965
-3.37687e-05
-0.0034817
-0.000649598
0.000495321
-0.00511373
-0.000910607
0.000268509
-0.00491428
-0.000950171
8.30652e-05
-0.00497794
-0.0014293
-0.000102503
-0.00387713
-0.000470921
0.000630397
-0.00581455
-0.000420713
0.000649562
-0.00565703
-0.000793112
0.000408151
-0.00551227
-0.000860927
0.000350413
-0.00465884
-0.00143681
0.000308524
-0.00408546
-0.000472954
0.00151595
-0.0055812
-0.000377866
0.00135991
-0.00552435
-0.000626784
0.00112212
-0.00672073
-0.000632204
0.000840825
-0.00724829
-0.000579496
0.000638218
-0.00685179
-0.00139853
0.000276202
-0.00426492
-0.000297526
0.00117082
-0.00565047
-0.000300362
0.00116241
-0.00491105
0.000249508
0.00145807
-0.00482681
-0.000324982
0.00119734
-0.00527761
-0.000366763
0.00107559
-0.00603877
-0.000793422
0.00102671
-0.00634608
-0.00130432
0.000338897
-0.0046916
-0.000574629
0.000866234
-0.00501222
-0.000181574
0.000712822
-0.00426992
-0.000337439
0.000738406
-0.00404363
-0.00021047
0.000731505
-0.00380307
-0.00013341
0.00110268
-0.00285017
0.000361542
0.000978459
-0.00382854
-0.000270287
0.000903046
-0.00522047
-0.00104931
0.000487353
-0.00695813
-0.000402783
0.000646234
-0.00341124
-0.000411635
0.000589854
-0.00327098
-0.000251832
0.000439003
-0.00235295
-0.000167895
0.00037102
-0.00211232
-0.000203824
0.000303242
-0.0018734
7.61883e-05
0.000102829
-0.00149882
0.000685512
7.50716e-05
-0.00144173
0.000286755
0.000470008
-0.00251308
-0.000452687
0.000311466
-0.00577144
-7.36603e-05
0.00037148
-0.0014342
6.71714e-05
0.000274795
-0.00136494
-0.0001251
0.000226739
-0.00168967
5.46197e-05
0.000248375
-0.00187014
-5.17073e-05
0.000270846
-0.00202389
-5.07407e-05
0.000215753
-0.00175374
8.16197e-05
0.000143755
-0.000917622
0.000221094
0.000259826
-0.00133748
0.000133419
0.000349462
-0.000158001
-8.34566e-05
0.000316863
-0.00112451
1.66157e-05
8.72916e-05
0.00154708
0.000101874
8.84908e-05
0.000979603
0.000135075
3.34867e-05
0.000281695
3.70989e-05
-1.69268e-05
-0.000777441
-1.50953e-05
-5.27259e-05
-0.000939717
8.9919e-06
-7.99607e-05
-0.00143897
4.31639e-05
-0.000129486
-0.00236487
3.66613e-06
-0.000111172
-0.00188652
-3.16141e-05
-3.66663e-05
-0.00212258
-0.000106841
9.12349e-05
-0.0012735
-0.000228662
0.000138678
-0.00043408
2.61876e-05
-1.1131e-06
0.00233287
6.10125e-05
-2.25336e-06
0.00203105
0.000114078
-6.65288e-07
0.000751113
0.000129068
7.63713e-08
-0.000597207
4.98457e-05
-1.61666e-05
-0.000893698
2.72331e-05
-3.66473e-05
-0.000646898
7.75936e-05
-3.5794e-05
-0.00132944
2.74358e-05
-4.49655e-05
-0.00200758
-1.96536e-05
-5.07382e-05
-0.00140496
-5.39554e-05
-5.02493e-05
-0.00132953
-4.63104e-05
-4.99805e-05
-0.00116565
-0.000101689
-1.69095e-05
5.64118e-06
-0.00182154
8.0483e-05
-0.00265237
0.000578044
-0.00420804
-0.00157177
0.000324954
-0.0037155
-0.00174905
0.000117597
-0.00306176
-0.000889447
0.000507268
-0.0045929
-0.000861008
0.000388198
-0.00437232
-0.00133425
0.000393258
-0.00428541
-0.00142795
4.22633e-05
-0.00352531
-0.000579293
0.000583426
-0.00510147
-0.000703787
0.0004143
-0.00497645
-0.000928596
0.000231015
-0.00492674
-0.000886945
1.25242e-05
-0.00506695
-0.00137341
2.60718e-05
-0.0039666
-0.000581607
0.000728162
-0.00587963
-0.000469664
0.00079788
-0.00587107
-0.000733871
0.000638848
-0.00578064
-0.000751453
0.000402362
-0.00544497
-0.000812894
0.00032174
-0.00443866
-0.00136819
0.000262487
-0.00437828
-0.000511445
0.0015089
-0.00589396
-0.000453219
0.00153272
-0.00560115
-0.000146401
0.00150144
-0.00550776
-0.000468344
0.00108282
-0.00681936
-0.000650787
0.000957807
-0.00728385
-0.00075372
0.000601635
-0.00721693
-0.00142451
0.000253779
-0.00439851
-0.000572345
0.00111925
-0.00564474
-0.000384069
0.0011774
-0.00546296
-0.00032491
0.00129328
-0.0047588
-0.000467753
0.0012852
-0.00465739
-0.000353698
0.00116373
-0.00514546
-1.53713e-05
0.00146502
-0.00610017
-0.000729496
0.00123839
-0.00678636
-0.00139827
0.00054362
-0.00488626
-0.000667412
0.00102327
-0.0055139
-0.000607956
0.000885925
-0.004989
-0.000607549
0.000758886
-0.00393468
-0.000425536
0.000731743
-0.00378622
-0.000540054
0.000928114
-0.00329228
5.12484e-05
0.0008458
-0.00269257
0.000643926
0.000870287
-0.0037542
0.000256191
0.000805104
-0.00550766
-0.0010258
0.000494886
-0.0068799
-8.85873e-05
0.000806418
-0.00388855
-1.05552e-05
0.000674153
-0.00341781
-0.000481431
0.000568867
-0.00304451
-8.4786e-05
0.000454937
-0.00229746
-0.000167381
0.0003733
-0.00206671
-0.000101647
0.000288525
-0.00200819
0.000230664
8.30105e-05
-0.0016558
0.000509644
0.000125346
-0.00138562
0.000245282
0.000433808
-0.00274729
-0.000424352
0.000214547
-0.00564509
-0.000137754
0.000428723
-0.00116352
-0.000104619
0.000363235
-0.00131614
4.97505e-05
0.000257519
-0.00131039
-8.03293e-05
0.000239143
-0.00156301
-1.41889e-05
0.000214575
-0.00181477
-2.78126e-05
0.000272807
-0.00204414
-5.37564e-05
0.000204752
-0.00171782
9.02057e-05
0.000187398
-0.000931734
0.000207605
0.000323033
-0.00155027
0.000125154
0.000418748
-0.000491881
-0.000123889
0.000349831
-0.00157911
-4.56754e-05
0.000117061
0.00176848
1.71126e-05
0.000127447
0.00155202
0.000125302
8.22902e-05
0.000919575
0.000148837
3.08106e-05
0.000214189
4.78123e-05
-3.30419e-05
-0.000795092
-9.91855e-06
-5.3872e-05
-0.000928654
4.53039e-05
-0.000100412
-0.00143575
4.01358e-05
-0.000134288
-0.00235445
-2.56541e-05
-9.74231e-05
-0.00181976
-5.59152e-05
-3.96858e-05
-0.0019897
-0.000153459
7.28843e-05
-0.00110056
-0.000240958
0.000146478
-0.000441289
-1.10514e-05
1.84924e-05
0.00273131
3.97601e-05
-1.3736e-06
0.00229223
7.63035e-05
-4.73907e-06
0.00195882
0.000124163
1.87487e-06
0.000625151
0.000130214
6.22009e-06
-0.000749807
4.30178e-05
-9.2792e-06
-0.000964084
2.39486e-05
-3.04706e-05
-0.00067617
7.46681e-05
-3.22339e-05
-0.00141684
1.45032e-05
-4.48377e-05
-0.00202798
-2.87602e-05
-4.95065e-05
-0.00137694
-5.85749e-05
-5.2836e-05
-0.0012681
-5.05291e-05
-5.19977e-05
-0.00108004
-8.26106e-05
-1.79071e-05
0.000106159
-0.00174614
-4.32217e-05
-0.00276657
-0.00137871
-0.000130665
-0.00323778
-0.00178975
6.4732e-05
-0.0026764
0.000535455
-0.00417681
-0.0011439
0.000663297
-0.00426349
-0.00165238
0.0003456
-0.00362537
-0.0016613
0.000227407
-0.00305581
-0.000743504
0.000622792
-0.004632
-0.000917968
0.000516017
-0.00450654
-0.000844492
0.000371004
-0.00443417
-0.00138216
0.000345668
-0.0040936
-0.00137758
-2.88682e-05
-0.00349227
-0.000462571
0.000670972
-0.00539275
-0.000452601
0.000527849
-0.00523208
-0.000785315
0.000317983
-0.00501197
-0.000864174
0.000204064
-0.00500556
-0.00109047
0.000171888
-0.00493519
-0.00135447
7.09624e-05
-0.00405129
-0.000675587
0.000631605
-0.00597863
-0.000574382
0.000961032
-0.00592162
-0.000506097
0.000918478
-0.00579101
-0.000721691
0.000651761
-0.0057767
-0.0005726
0.000368437
-0.00556986
-0.000908984
0.000245316
-0.00426622
-0.00118982
0.000148265
-0.00476124
-0.000605464
0.00140378
-0.00599805
-0.000423204
0.00156426
-0.00588637
-0.000391028
0.00137645
-0.00541004
-0.000402255
0.00135771
-0.00584815
-0.00045626
0.0011635
-0.0069225
-0.000711565
0.00105318
-0.0070392
-0.0010654
0.000530743
-0.00715799
-0.00134554
0.000299764
-0.004751
-0.000650052
0.00104015
-0.00646813
-0.000576297
0.00120182
-0.00570081
-0.00085011
0.0011837
-0.00511082
-0.000451594
0.00130609
-0.00475362
-0.000645576
0.00116732
-0.00455546
-0.000157878
0.00127382
-0.00474514
0.000101361
0.00173262
-0.00605183
-0.000341132
0.00144975
-0.00709517
-0.00112007
0.000524935
-0.00531693
-0.000197714
0.00110154
-0.00586176
-0.000323202
0.000940683
-0.00525601
-0.000783739
0.00086694
-0.00479475
-0.000262904
0.000752723
-0.00377755
-0.000452
0.000763413
-0.0033369
1.11994e-05
0.00064793
-0.00320725
0.000382472
0.000768377
-0.00274247
0.000467091
0.000816182
-0.00372272
0.000290605
0.0006878
-0.0057459
-0.00101382
0.000513897
-0.00680433
-0.000317445
0.000811954
-0.00378694
-0.00049674
0.000777663
-0.00359994
-9.31229e-05
0.000626979
-0.00333305
-0.000275923
0.000533389
-0.00292737
-3.61113e-05
0.000486318
-0.00238855
-2.92521e-05
0.000372791
-0.00214953
-0.000187129
0.000269664
-0.00206147
0.000205676
6.97529e-05
-0.00171568
0.00053556
0.000133322
-0.00141309
0.000202003
0.00037084
-0.00298043
-0.000424588
0.000112362
-0.00545676
-0.000267551
0.000457486
-0.00181154
-9.19407e-05
0.000414242
-0.00110547
-4.47989e-05
0.000338496
-0.00122702
6.1141e-05
0.000246586
-0.00123014
-1.26306e-05
0.00017346
-0.00146145
-2.01826e-05
0.000218471
-0.00175017
1.89913e-05
0.000251518
-0.00206459
-3.64498e-05
0.000190778
-0.00164461
8.41713e-05
0.000219564
-0.00093809
0.000192327
0.000358758
-0.00173853
0.000142008
0.000457434
-0.00089495
-0.000175117
0.000305731
-0.00195068
-0.000168241
0.000191792
0.00197277
-1.65032e-05
0.000132422
0.00181977
5.19552e-05
0.000101137
0.00155752
0.000144169
6.61192e-05
0.00086426
0.000201541
2.05609e-05
8.92583e-05
4.57295e-05
-3.2158e-05
-0.000819518
4.82811e-06
-5.33767e-05
-0.00095657
6.2557e-05
-0.000110847
-0.00144708
7.58355e-06
-0.000142516
-0.00230244
-4.92825e-05
-8.74051e-05
-0.00175152
-6.92993e-05
-4.54693e-05
-0.00186062
-0.000178234
5.93386e-05
-0.000885717
-0.000199584
0.000149863
-0.000474179
-0.000105527
4.18815e-05
0.00324086
3.8289e-06
1.87861e-05
0.00270732
4.81892e-05
-7.41555e-07
0.00224004
8.98701e-05
-2.91264e-06
0.00187374
0.000134346
2.84429e-06
0.000494181
0.000125453
1.13185e-05
-0.000895858
3.87014e-05
-4.11133e-06
-0.00102914
2.6641e-05
-2.44667e-05
-0.000710578
7.34481e-05
-2.93384e-05
-0.00150579
-1.37687e-05
-4.38427e-05
-0.00201988
-3.83112e-05
-5.00735e-05
-0.00134139
-6.35813e-05
-5.52676e-05
-0.00120125
-5.33357e-05
-5.20525e-05
-0.000992556
-6.39245e-05
-1.87593e-05
0.000188843
1.31704e-05
-0.00261516
-0.00156775
0.000108658
-0.00370793
-0.00174237
-1.65265e-06
-0.00281229
-0.00134331
-6.82264e-07
-0.00372894
-0.00151543
-0.000106292
-0.0032037
-0.00177922
7.31475e-05
-0.00263163
0.00057395
-0.00430333
-0.000763
0.000568413
-0.00423689
-0.00116483
0.000664968
-0.00426252
-0.00165046
0.000353548
-0.00348321
-0.00166035
0.000290914
-0.00306395
-0.000607774
0.000735982
-0.00474188
-0.000637739
0.000631678
-0.00456253
-0.000887116
0.000470681
-0.00450442
-0.00083095
0.000417292
-0.00453902
-0.0014165
0.000243129
-0.00403956
-0.00140725
-5.89245e-06
-0.00343359
-0.000628017
0.000753263
-0.00525373
-0.000592314
0.000592831
-0.0054398
-0.000676375
0.000440506
-0.00518432
-0.000702986
0.000249739
-0.00507635
-0.000664748
0.00024026
-0.00498179
-0.00116249
0.000282405
-0.00489312
-0.00138343
0.000100617
-0.0039583
-0.000621206
0.000541631
-0.00637141
-0.000624912
0.000833337
-0.00564922
-0.000585137
0.001124
-0.00593303
-0.00049187
0.000921936
-0.00597157
-0.000768387
0.000704357
-0.00580049
-0.000727969
0.000351927
-0.00566006
-0.000946252
0.000137961
-0.00437506
-0.00118922
-0.000108753
-0.0048088
-0.000520628
0.00124352
-0.00637521
-0.000594866
0.00145085
-0.00586607
-0.000931991
0.00126418
-0.00569222
-0.000438336
0.0016216
-0.0056872
-0.000332987
0.00125808
-0.00625531
-0.000492039
0.00133686
-0.00687201
-0.000742743
0.00112916
-0.00679352
-0.000980028
0.000563143
-0.00678247
-0.00111332
0.000459016
-0.00521676
-0.000672853
0.00116633
-0.0063462
-0.000575868
0.00114545
-0.00615909
-0.000868437
0.00116892
-0.00560134
-0.000206075
0.00118614
-0.0050477
-0.00068966
0.00117252
-0.00452116
1.71217e-05
0.00116183
-0.00444939
0.000126058
0.00154402
-0.00430012
0.000201146
0.00178034
-0.00611649
-0.000165781
0.00134066
-0.0074545
-0.00105962
0.000492455
-0.00576359
-0.000530543
0.0010825
-0.00586466
-0.000790212
0.0010433
-0.00567091
-0.000415562
0.000970505
-0.00503714
-0.000599069
0.000858284
-0.00457716
1.92253e-05
0.00073535
-0.00380482
-2.27996e-05
0.000564291
-0.00325972
-0.000263413
0.000580953
-0.00294355
0.000314404
0.000702283
-0.00273729
0.000572021
0.000670441
-0.00374183
0.000166567
0.000639751
-0.00583632
-0.00102754
0.000483556
-0.00668493
-0.000427912
0.000969201
-0.0040705
-4.83117e-05
0.000792123
-0.00384503
-0.000342984
0.00071862
-0.0033934
-0.000108202
0.000597678
-0.003228
-0.000138748
0.000532597
-0.00284753
-7.16775e-05
0.000436581
-0.00240085
3.74522e-05
0.000339358
-0.00223769
-0.000114062
0.000230292
-0.0021444
0.000193834
5.84759e-05
-0.0017505
0.000487701
9.40304e-05
-0.00143165
0.000305141
0.000222425
-0.00325363
-0.000412232
5.19639e-05
-0.0052716
-0.000281821
0.000514485
-0.00133269
-0.00022434
0.000435628
-0.00162509
-0.000144251
0.000393787
-0.000964558
-3.57029e-05
0.000316642
-0.0011172
0.000110522
0.000213326
-0.00117898
4.219e-05
0.000168748
-0.00140819
1.25458e-05
0.000189762
-0.00169613
2.64789e-05
0.000202074
-0.00203981
-4.47753e-05
0.000178933
-0.00155162
7.90142e-05
0.000217322
-0.00092495
0.000179392
0.000348571
-0.00187836
9.50491e-05
0.000394236
-0.00125674
-0.000178416
0.000199303
-0.00217115
-0.000308314
0.000217405
0.00172554
-0.000139624
0.000185437
0.0020632
4.51733e-07
0.000112083
0.00185656
0.000101066
8.20151e-05
0.00153043
0.000163114
7.36583e-05
0.000782395
0.000204804
1.75833e-05
-3.98337e-05
5.86623e-05
-2.66304e-05
-0.000866225
2.06366e-05
-5.35616e-05
-0.00100785
9.96585e-05
-0.000126005
-0.0014898
-6.31072e-05
-0.000134011
-0.0022065
-6.78258e-05
-7.59223e-05
-0.00169155
-8.99802e-05
-4.60834e-05
-0.0017288
-0.000191602
2.0652e-05
-0.000618239
-0.000131629
0.000144156
-0.000550631
-0.000125199
3.72164e-05
0.00162375
-9.1748e-05
4.17451e-05
0.00330965
1.28319e-05
1.93976e-05
0.00267435
6.33172e-05
-1.65064e-06
0.00217546
9.59819e-05
-3.42376e-06
0.00178403
0.00014592
3.93355e-06
0.000355647
0.000118858
1.45571e-05
-0.00103338
3.69959e-05
-1.16193e-06
-0.00108944
3.52909e-05
-1.91409e-05
-0.000756067
6.93324e-05
-2.66878e-05
-0.00159227
-1.85537e-05
-4.35481e-05
-0.00200785
-4.42712e-05
-5.00404e-05
-0.00130235
-7.00377e-05
-5.51889e-05
-0.00112807
-5.33759e-05
-5.09839e-05
-0.000906956
-5.40536e-05
-2.0076e-05
0.000262972
0.000139028
-0.00267021
-0.00176926
3.53994e-05
-0.00262367
-0.00129558
7.81238e-05
-0.00365474
-0.00171133
0.000113151
-0.00362683
-0.00175362
6.72126e-05
-0.00290511
-0.000986159
0.000325814
-0.00403851
-0.00129264
8.00492e-05
-0.00378747
-0.00166544
7.5089e-05
-0.00319066
-0.00176384
0.00010749
-0.00263563
0.000622693
-0.00422066
-0.000731018
0.000616748
-0.00425838
-0.000780852
0.000622694
-0.00430088
-0.00104196
0.000564947
-0.00426291
-0.0015757
0.000322935
-0.00335604
-0.00165277
0.000131285
-0.00294972
-0.000727414
0.000844936
-0.00483228
-0.000743271
0.000698181
-0.00465743
-0.00078702
0.000641056
-0.00462226
-0.000729926
0.000470328
-0.00453051
-0.000948474
0.0004285
-0.00444066
-0.00150331
0.000275024
-0.00397966
-0.00156186
6.53595e-05
-0.00332053
-0.000571362
0.000776964
-0.00521406
-0.000577479
0.000692076
-0.00540041
-0.00070103
0.000546708
-0.00543011
-0.000457992
0.000339732
-0.00530819
-0.000763656
0.000272882
-0.00511371
-0.000782785
0.00031583
-0.0049604
-0.00103824
0.00029738
-0.0049979
-0.00139069
0.000155994
-0.00391282
-0.000633358
0.000616234
-0.00622553
-0.000645125
0.000658199
-0.00614601
-0.000615313
0.000977266
-0.00581917
-0.000563617
0.00113474
-0.00602056
-0.000448273
0.000865212
-0.00601714
-0.000820909
0.000749916
-0.00586961
-0.000784606
0.000346295
-0.00582654
-0.000972347
8.72876e-05
-0.00457878
-0.00123489
6.16375e-05
-0.00474887
-0.000671619
0.00112228
-0.00643375
-0.00059642
0.00128818
-0.00619199
-0.000832287
0.00137254
-0.00601058
-0.000348551
0.00164473
-0.00557287
-0.000673083
0.00124231
-0.005688
-0.000124443
0.00140171
-0.0061786
-0.000515708
0.00143027
-0.00653135
-0.000705301
0.0012571
-0.00658103
-0.000709061
0.000701192
-0.00648137
-0.00115695
0.000466231
-0.00558566
-0.000586959
0.00116166
-0.00678983
-0.000739463
0.00111801
-0.00636951
-0.00069749
0.00111954
-0.00582778
-0.000791211
0.00128638
-0.00550943
-0.000331096
0.00114142
-0.00466628
-9.14274e-05
0.000934341
-0.00422505
-0.000268855
0.00118571
-0.00408564
8.10058e-05
0.00151038
-0.00379676
0.000382455
0.00162696
-0.00621322
-0.000351891
0.0011039
-0.00754749
-0.00118525
0.000471399
-0.00607727
-0.000511252
0.0010621
-0.00597552
-0.000248356
0.00115498
-0.00577629
-0.000651477
0.000912537
-0.00530445
-8.52995e-05
0.000907655
-0.00510941
-0.000319881
0.000832334
-0.00449301
-0.000387564
0.000626898
-0.00355154
-3.39385e-05
0.000499607
-0.00310698
-0.000115961
0.00045733
-0.00269669
0.000358382
0.000524328
-0.00275573
0.000581425
0.000501201
-0.003697
0.000239629
0.000561295
-0.00584854
-0.00101638
0.000365456
-0.00644625
-0.000298218
0.000901319
-0.00469938
-0.00040488
0.000828965
-0.0039268
-0.000642259
0.00074114
-0.00336954
-0.000412643
0.000739356
-0.00315813
-0.000241274
0.000567069
-0.00291067
-8.82957e-06
0.000472224
-0.00283215
-8.89475e-06
0.000377604
-0.00241765
7.8672e-05
0.000287843
-0.00234743
-5.58849e-05
0.000177486
-0.0022523
0.000186075
1.18647e-05
-0.00177539
0.000573499
5.54153e-05
-0.00165875
0.000436577
8.95815e-05
-0.00363277
-0.000312003
6.56081e-05
-0.00520362
-0.000476289
0.00041476
-0.0023854
-0.000487966
0.000506824
-0.00105555
-0.000197194
0.000423387
-0.00145705
-6.82349e-05
0.000371269
-0.000849884
-2.87895e-05
0.000302388
-0.00101436
4.83014e-05
0.000210262
-0.00106399
6.1351e-05
0.000140355
-0.00136147
2.72959e-05
0.000150371
-0.00165109
4.93685e-05
0.000144447
-0.00195504
1.3185e-05
0.000144837
-0.00155543
5.29494e-05
0.000202404
-0.000899558
0.000142278
0.000271395
-0.00198777
-2.49463e-05
0.000220245
-0.00144434
-0.000150593
9.87254e-05
-0.00225092
-0.000310426
0.000211825
0.0001368
-0.000295177
0.000212321
0.00190208
-0.000115627
0.000178881
0.00212487
4.81623e-05
0.000112312
0.00184142
0.000117487
8.96935e-05
0.00149289
0.000189212
7.30973e-05
0.000683588
0.000218967
2.10893e-05
-0.000187662
6.08265e-05
-1.92677e-05
-0.000924349
6.28839e-05
-6.86103e-05
-0.00109284
0.00011191
-0.00013203
-0.00153436
-7.03018e-05
-0.000115973
-0.0021147
-8.95032e-05
-6.31709e-05
-0.00162923
-8.48177e-05
-7.16734e-05
-0.00162169
-0.000170416
-2.24746e-06
-0.000354795
-8.02638e-05
0.000120151
-0.000644572
-9.4763e-05
1.90877e-05
0.00108378
-0.000118667
3.66579e-05
0.00174751
-6.426e-05
4.12681e-05
0.00335204
2.36017e-05
1.89389e-05
0.00263016
7.89536e-05
-2.6853e-06
0.00209577
0.000106882
-4.08656e-06
0.00168517
0.000153861
4.10562e-06
0.000212237
0.000113903
1.55952e-05
-0.00116404
4.16285e-05
5.3517e-07
-0.00115075
4.32572e-05
-1.36284e-05
-0.000812383
6.04742e-05
-2.49822e-05
-0.00167131
-3.28947e-05
-4.33546e-05
-0.00198164
-5.17347e-05
-4.84511e-05
-0.00125735
-7.62079e-05
-5.4158e-05
-0.00104869
-5.36492e-05
-5.02174e-05
-0.000823165
-5.05612e-05
-2.0883e-05
0.000334417
-0.00185545
5.66756e-05
-0.00250805
0.000337423
-0.00338945
-0.00176262
0.00014495
-0.00272847
-0.0017865
-6.09522e-05
-0.00252985
-0.00112581
0.000214175
-0.0037257
-0.0012194
8.96002e-05
-0.00370444
-0.00178382
0.000184735
-0.00362597
-0.00171995
2.74858e-05
-0.00297648
-0.000822403
0.000476744
-0.00405794