/*--------------------------------*- C++ -*----------------------------------*\
  =========                 |
  \\      /  F ield         | OpenFOAM: The Open Source CFD Toolbox
   \\    /   O peration     | Website:  https://openfoam.org
    \\  /    A nd           | Version:  7
     \\/     M anipulation  |
\*---------------------------------------------------------------------------*/
FoamFile
{
    version     2.0;
    format      ascii;
    class       surfaceScalarField;
    location    "9.5";
    object      phi_0;
}
// * * * * * * * * * * * * * * * * * * * * * * * * * * * * * * * * * * * * * //

dimensions      [0 3 -1 0 0 0 0];

internalField   nonuniform List<scalar> 
54095
(
1.35472e-05
-1.85657e-05
-0.00126101
9.84858e-05
5.5297e-05
1.66943e-06
0.000109823
-5.17377e-05
-0.00137276
-2.40643e-06
-1.83892e-05
-0.00124022
-4.49021e-05
-7.11144e-05
0.000990491
0.000174213
0.000160938
-0.00164304
7.41028e-05
8.17413e-05
-0.000156581
4.66848e-05
-5.37954e-05
-0.00145563
8.66576e-05
-4.97041e-05
-0.0014281
-2.87504e-05
-1.85183e-05
-0.00119295
-0.00048114
0.000289257
-0.00402238
0.000262114
0.000313163
-0.00207602
2.9128e-05
-0.000165439
0.00120091
0.000142309
5.24972e-05
-0.00277853
8.27957e-05
0.000125414
-0.00168285
1.85243e-05
0.000107039
-0.000310895
4.57554e-05
-5.09248e-05
-0.00135564
4.38286e-05
-5.17471e-05
-0.00149742
6.28273e-05
-4.80944e-05
-0.00146135
-5.75511e-05
-1.79316e-05
-0.00111746
-0.00101264
0.000491947
-0.00657821
0.00077061
0.000288027
-0.0015469
-0.000180139
0.000244411
-0.00405752
8.11998e-05
0.000303203
-0.000942866
0.00028232
0.000319982
0.00276891
0.000295576
-9.09764e-05
0.00101483
0.000150499
-9.73607e-05
-0.00218567
0.000153789
-1.93368e-06
-0.00276114
6.89131e-05
0.000144358
-0.00172626
-5.90597e-05
0.000118285
-0.000427671
6.39342e-05
-5.15433e-05
-0.001659
3.47931e-05
-4.96274e-05
-0.00139255
2.84246e-05
-5.01155e-05
-0.00152382
3.68366e-05
-4.598e-05
-0.00147014
-9.40727e-05
-1.79124e-05
-0.00100548
-0.000937407
0.000178137
-0.00518712
0.000578476
0.0010504
-0.00586845
-0.000601682
0.000630225
-0.00678689
0.000331224
0.000261651
-0.00131784
0.000678098
0.000200869
-0.00189913
0.000390015
0.000234353
-0.00438631
0.000185964
0.000144131
-0.00122429
6.07977e-05
0.000300831
-0.000830724
0.000235373
0.000240009
0.00227147
0.000238364
-7.86332e-05
0.00079604
6.03856e-05
-7.68949e-05
-0.00217555
0.000130615
-0.000107706
-0.00217572
0.000122817
-7.94161e-06
-0.00270323
-3.91084e-06
0.000134654
-0.00170188
-0.000155596
0.00011504
-0.000481187
7.23801e-05
-5.59861e-05
-0.000872527
6.73233e-05
-4.89403e-05
-0.00172701
2.36911e-05
-4.90785e-05
-0.00141728
1.62006e-05
-4.87496e-05
-0.00153725
1.31132e-05
-4.44994e-05
-0.00145666
-0.000121803
-1.8089e-05
-0.000865586
-0.00109881
0.000411483
-0.0061212
-0.00035748
0.000850795
-0.00702049
-0.000715525
0.000270189
-0.00534347
0.000206657
0.000897311
-0.00484554
0.000345901
0.00118006
-0.00608609
-0.000216348
0.000683973
-0.0068645
0.000391482
0.000230885
-0.000905264
0.000310249
0.000139214
-0.00150564
0.000503677
0.000122816
-0.0020559
0.000313895
0.000268053
-0.0047299
-2.37182e-07
0.000205466
-0.00180005
0.000129369
0.000142393
-0.0010646
5.61833e-05
0.000215482
-0.000739563
0.000290849
0.000217706
0.00168037
0.000124711
-2.42564e-05
0.000539988
-3.39667e-05
-4.99224e-05
-0.00164074
9.37538e-05
-8.59962e-05
-0.00222369
0.000102982
-0.000126782
-0.00213617
0.000117233
-2.68769e-05
-0.00264273
-6.0238e-05
0.00015512
-0.00166861
-0.000227738
0.000103293
-0.000478545
3.05318e-05
-5.13795e-05
-0.000475431
7.99207e-05
-5.48497e-05
-0.000946538
6.00387e-05
-4.71521e-05
-0.00178898
1.53929e-05
-4.83913e-05
-0.00143303
-3.4992e-06
-4.78667e-05
-0.00153038
1.09119e-05
-4.35538e-05
-0.00144211
-0.000139875
-1.79706e-05
-0.000707741
-0.00153132
0.000173492
-0.00394639
-0.000811367
0.000516539
-0.00610809
-0.0011586
0.000216478
-0.0058946
-0.000409402
0.00121821
-0.00707015
-0.000595787
0.00074741
-0.00655603
-0.000596572
0.000242491
-0.00520573
0.000691242
0.000532468
-0.00349728
0.000161649
0.00104524
-0.00456212
-7.80679e-06
0.00101562
-0.00590625
-0.000198632
0.000590934
-0.00694291
-9.53842e-05
0.000329106
-0.00153869
0.000262798
0.00016656
-0.00106604
0.000227248
3.45379e-05
-0.00158843
0.000542442
0.000123727
-0.00216317
0.000235815
0.00038022
-0.00522122
-9.44376e-05
0.000239089
-0.00211017
1.85727e-05
0.000211235
-0.00179371
0.00013642
0.000109912
-0.000992472
0.000118659
0.000203114
-0.000726397
0.000210324
0.000177233
0.00120832
-1.48796e-05
4.37182e-05
0.000283412
-2.79592e-05
-3.142e-05
-0.00103256
7.106e-06
-5.92526e-05
-0.00159467
8.05525e-05
-9.62283e-05
-0.00227476
8.30913e-05
-0.000133496
-0.00209725
7.39036e-05
-2.03344e-06
-0.00256298
-5.42676e-05
0.000130036
-0.00163017
-0.000280849
0.000102646
-0.000440217
6.60986e-05
-4.06761e-05
-0.000557682
3.26832e-05
-5.27889e-05
-0.000510175
7.53115e-05
-5.25716e-05
-0.00101643
5.11312e-05
-4.54809e-05
-0.00184302
8.08785e-06
-4.78717e-05
-0.00144111
-1.37464e-05
-4.72173e-05
-0.00151297
-2.93355e-07
-4.22197e-05
-0.00141757
-0.000140713
-1.64468e-05
-0.000550581
-0.0014693
3.38225e-05
-0.00372395
-0.00111672
0.000242767
-0.00446152
-0.00154198
0.000308842
-0.00387185
-0.00035217
0.000756878
-0.00667154
-0.000976452
0.000423099
-0.00593404
-0.00121433
9.91935e-05
-0.00537604
0.000186103
0.00154333
-0.00578011
-0.000479183
0.00098203
-0.00666394
-0.000800492
0.000670093
-0.00619094
-0.00056111
0.000237456
-0.00508071
0.00055848
0.000426023
-0.00434941
0.000250079
0.000789521
-0.00322885
5.91289e-05
0.00109223
-0.00447061
-0.000214292
0.000966098
-0.00552468
-0.000123411
0.000520554
-0.00710424
-0.000166409
0.000355136
-0.0022201
-9.92306e-05
0.00031231
-0.00156663
0.000137102
0.000136184
-0.00116837
0.00018385
4.47377e-06
-0.00153437
0.000388915
0.000239537
-0.00220108
-0.000154344
0.00047601
-0.00555776
-9.58599e-05
0.000235169
-0.00199051
-8.26742e-05
0.000259656
-0.00206881
-7.16715e-07
0.000200665
-0.00180319
7.47722e-05
0.000152943
-0.000933983
0.000161356
0.000143221
-0.000779837
0.000151975
0.000202005
0.00084379
-0.000119246
0.000104624
1.7185e-05
2.63361e-05
-1.44042e-06
-0.000745082
-2.93821e-05
-4.00544e-05
-0.000989691
-2.02903e-05
-6.05667e-05
-0.00153473
7.19571e-05
-0.000109893
-0.00231919
7.2897e-05
-0.000120528
-0.00204356
5.94654e-05
-4.40818e-05
-0.00246208
-6.78903e-05
0.000122065
-0.00158199
-0.000291506
0.000113171
-0.000402596
0.000106409
-1.48417e-05
-0.000139347
6.9383e-05
-3.76262e-05
-0.000642228
3.41359e-05
-5.15595e-05
-0.000545323
7.64609e-05
-4.84938e-05
-0.00108988
4.19351e-05
-4.42256e-05
-0.0018886
4.73635e-06
-4.72493e-05
-0.00144582
-3.51865e-05
-4.58752e-05
-0.00147413
-1.66e-05
-4.42305e-05
-0.00137319
-0.000136929
-1.59515e-05
-0.0003977
-0.0015035
9.36096e-05
-0.003575
-0.00113752
0.000167852
-0.00477991
-0.00149455
9.73701e-05
-0.00386875
-0.000443903
0.000426614
-0.00553169
-0.000877455
0.000276611
-0.00452828
-0.00157523
0.000381222
-0.00389218
-0.000364418
0.00110707
-0.00605712
-0.000666631
0.000771943
-0.00683293
-0.00101719
0.000319796
-0.00593795
-0.00116509
8.33844e-05
-0.00485544
0.000620498
0.00133417
-0.00466976
-0.000346886
0.00135915
-0.00556027
-0.000570655
0.000955766
-0.00631983
-0.00106437
0.000700944
-0.00580435
-0.000608768
0.000265382
-0.00486074
-0.000140422
0.00056506
-0.00430902
-4.96037e-05
0.000649167
-0.00425869
4.37494e-05
0.000980881
-0.00302415
-8.59249e-05
0.00100948
-0.00424421
-0.000322679
0.000970251
-0.00526279
-0.000564171
0.00042744
-0.00712185
-0.000254288
0.000420398
-0.00235979
-0.000222278
0.000371045
-0.00213924
-6.29411e-05
0.000309222
-0.00167745
0.000160908
0.000112138
-0.00136217
0.000327903
-1.08086e-06
-0.0014603
0.000222765
0.00037667
-0.00217253
-0.000344666
0.000365115
-0.00569746
-0.000118874
0.000260305
-0.00202835
-6.35635e-05
0.000233668
-0.00193034
-9.28015e-05
0.000261102
-0.00205674
-2.3228e-05
0.000220019
-0.00177509
7.688e-05
0.000130889
-0.000925634
0.00026319
0.000158242
-0.000939799
0.000128285
0.000244403
0.000507835
-0.000159636
0.000167093
-0.000281778
9.41132e-05
3.75388e-05
0.000386332
3.9145e-05
-1.01036e-05
-0.000744795
-2.40394e-05
-4.6285e-05
-0.000945798
4.35619e-07
-7.08252e-05
-0.00149777
5.06032e-05
-0.000109746
-0.00233864
5.32374e-05
-0.000136995
-0.00199915
2.08651e-05
-2.59603e-05
-0.0023701
-9.16215e-05
0.00010644
-0.00150024
-0.000280163
0.000129245
-0.000388607
9.64628e-05
1.07096e-06
0.00099283
0.000118268
-1.10751e-05
-0.000284166
6.65057e-05
-3.23222e-05
-0.000727971
3.51531e-05
-4.753e-05
-0.00058144
7.26266e-05
-4.46282e-05
-0.0011621
3.76853e-05
-4.24317e-05
-0.0019311
-6.13533e-06
-4.82915e-05
-0.00143727
-3.88369e-05
-4.82845e-05
-0.00143124
-2.26851e-05
-4.71731e-05
-0.00131928
-0.000127641
-1.57984e-05
-0.000254261
1.0134e-05
-0.00320034
-0.00131688
0.000297603
-0.00427668
-0.00152903
2.63244e-05
-0.00356685
-0.00089165
0.000354532
-0.00491218
-0.000862119
0.000196232
-0.00489411
-0.00154346
2.09723e-05
-0.00392149
-0.000510781
0.000565234
-0.00552517
-0.000835088
0.000413798
-0.00550042
-0.000963463
0.000325733
-0.00452652
-0.00148756
0.000412882
-0.00398259
-0.000311742
0.00135733
-0.00550843
-0.000302012
0.0010787
-0.00640875
-0.000727646
0.000648274
-0.00700442
-0.00105816
0.000426814
-0.0062876
-0.00121586
0.00024748
-0.00449583
-6.51248e-05
0.0012014
-0.00503854
-0.000111039
0.00134078
-0.00458995
-0.000429468
0.0013626
-0.00549388
-0.000461385
0.00096461
-0.00620804
-0.000746126
0.00077383
-0.00588935
-0.000887199
0.000239839
-0.00477755
-0.000437829
0.000709542
-0.00445929
-0.000353168
0.00066167
-0.00419064
0.000146155
0.000708915
-0.00419582
0.000128103
0.000943901
-0.00292577
5.728e-05
0.00100391
-0.00400725
-0.00043512
0.000985998
-0.00516346
-0.00087139
0.000483186
-0.00707831
-0.000359207
0.000563041
-0.00335962
3.89572e-05
0.000385979
-0.00247725
-0.000163095
0.000371146
-0.00213086
-5.34941e-05
0.000293515
-0.00182856
3.01187e-05
0.000116219
-0.00143271
0.000514685
4.63422e-05
-0.00138146
0.000105341
0.000438722
-0.00222319
-0.000442416
0.00035174
-0.00576642
-0.000100295
0.000291286
-0.0013856
-0.000121137
0.000240447
-0.00187485
-6.03302e-05
0.000232817
-0.00186576
-6.87793e-05
0.000267097
-0.0020346
-5.15726e-05
0.000225875
-0.0017679
6.30071e-05
0.00013425
-0.000911411
0.000249608
0.000193437
-0.00111758
0.000129488
0.000280738
0.000173079
-0.000148946
0.000241482
-0.000654477
8.72482e-05
7.18543e-05
0.00103506
0.000117368
3.35721e-05
0.000343556
4.93238e-05
-1.54672e-05
-0.000758431
3.38326e-05
-5.08517e-05
-0.000964451
7.34204e-06
-7.08344e-05
-0.0014714
4.64586e-05
-0.000111463
-0.00237295
2.39023e-05
-0.000108861
-0.00194628
-8.58577e-06
-3.9066e-05
-0.00225485
-8.79879e-05
9.87587e-05
-0.00140445
-0.000234291
0.000136517
-0.000418473
5.81345e-05
-1.94842e-06
0.00209284
0.000104784
1.14758e-06
0.000875822
0.000125832
-6.52228e-06
-0.000435798
5.75874e-05
-2.4454e-05
-0.000808634
3.1294e-05
-4.29279e-05
-0.000614435
7.26719e-05
-4.04905e-05
-0.00123672
3.43836e-05
-4.27215e-05
-0.00197106
-1.00002e-05
-5.07153e-05
-0.00142483
-3.99335e-05
-5.04401e-05
-0.00138804
-3.20703e-05
-4.77382e-05
-0.00125527
-0.000114915
-1.59795e-05
-0.000123366
0.000273536
-0.00377073
-0.00167297
5.08881e-05
-0.00310728
-0.0010012
0.000327123
-0.00431253
-0.00124434
0.000376261
-0.00424439
-0.00159134
-3.51148e-05
-0.00348385
-0.000644401
0.000498079
-0.00511789
-0.000907757
0.000271104
-0.00491438
-0.000949671
8.51499e-05
-0.00497208
-0.00143336
-0.000100311
-0.00387539
-0.000469396
0.000625737
-0.00581775
-0.000412672
0.000650099
-0.00565081
-0.000797289
0.00040856
-0.0055136
-0.000863806
0.000350994
-0.00465898
-0.00144095
0.000313373
-0.00407088
-0.000470534
0.00151387
-0.00558721
-0.000381097
0.0013573
-0.00551697
-0.000619481
0.00113018
-0.00670064
-0.000633949
0.000828254
-0.0072333
-0.00059362
0.000630099
-0.00682272
-0.00138841
0.000279509
-0.00427413
-0.000301741
0.00116583
-0.00563524
-0.000289866
0.00115823
-0.00491928
0.000280897
0.00146091
-0.00482301
-0.000330222
0.00120149
-0.00527244
-0.000394365
0.00105403
-0.00603659
-0.000793331
0.00101326
-0.00630456
-0.00128786
0.000323456
-0.00468453
-0.00057055
0.000865895
-0.00500876
-0.000189967
0.000709912
-0.00427861
-0.000335981
0.000735736
-0.00404457
-0.000202864
0.000725061
-0.00382761
-0.00012352
0.00110281
-0.00287102
0.000344281
0.000980406
-0.00383126
-0.000287379
0.000911513
-0.00519907
-0.00104373
0.000486637
-0.00696363
-0.000407791
0.000648636
-0.00341249
-0.000405816
0.000588841
-0.0032778
-0.000248377
0.000434801
-0.00235286
-0.000166424
0.000370102
-0.00210981
-0.000202372
0.000302555
-0.00186409
7.05089e-05
0.000103775
-0.00149764
0.000684873
7.31405e-05
-0.00145115
0.000280016
0.000471613
-0.00249359
-0.000454047
0.000319446
-0.00578076
-7.15684e-05
0.000370474
-0.00143576
5.94357e-05
0.000274513
-0.00136174
-0.000125149
0.000225288
-0.00169285
5.36361e-05
0.000248091
-0.00186656
-5.31338e-05
0.000269733
-0.00201798
-5.06505e-05
0.000216136
-0.00175267
8.01443e-05
0.000143321
-0.000917537
0.000222861
0.000256372
-0.00132466
0.000135898
0.00034642
-0.000155745
-8.45292e-05
0.00031653
-0.00112077
1.55339e-05
8.69897e-05
0.00155252
0.000101006
8.87687e-05
0.000983637
0.000134317
3.3095e-05
0.000286508
3.68347e-05
-1.71508e-05
-0.000771379
-1.46482e-05
-5.27592e-05
-0.000936584
7.07749e-06
-7.86181e-05
-0.00143865
4.25477e-05
-0.000129343
-0.00236063
4.96517e-06
-0.00011218
-0.00188814
-2.98817e-05
-3.70226e-05
-0.00212912
-0.000104548
9.17843e-05
-0.00128724
-0.000227459
0.00013906
-0.00044499
2.50877e-05
-9.07858e-07
0.00233863
6.02407e-05
-2.69426e-06
0.00203644
0.000113896
-8.68262e-07
0.000756273
0.000129045
-2.33389e-07
-0.000589063
5.02758e-05
-1.68593e-05
-0.000884979
2.74149e-05
-3.72981e-05
-0.000645042
7.75281e-05
-3.62662e-05
-0.0013207
2.76539e-05
-4.46641e-05
-0.00200476
-1.93237e-05
-5.06613e-05
-0.00140529
-5.34271e-05
-5.00023e-05
-0.00133235
-4.56002e-05
-4.9863e-05
-0.00117579
-0.000102079
-1.69567e-05
-4.32989e-06
-0.00182139
8.1196e-05
-0.00265195
0.000575468
-0.00420425
-0.00156964
0.000325167
-0.0037197
-0.00174906
0.000114212
-0.00306377
-0.000886736
0.000508058
-0.00459744
-0.000862384
0.000386675
-0.00436832
-0.00132971
0.000391566
-0.00429104
-0.00143026
3.96885e-05
-0.00352664
-0.000576951
0.000586466
-0.00510218
-0.000700586
0.000419151
-0.00497802
-0.000931316
0.000231241
-0.00492644
-0.000882453
1.22892e-05
-0.00506603
-0.00137598
2.06182e-05
-0.00396097
-0.000583969
0.000717452
-0.00588045
-0.000469198
0.000791927
-0.00587148
-0.000729574
0.000640561
-0.00577272
-0.000755942
0.000406427
-0.00544704
-0.000810819
0.000324562
-0.00445297
-0.00137308
0.00026739
-0.00435361
-0.000523229
0.00149804
-0.00589588
-0.00045477
0.00154345
-0.00560846
-0.000130682
0.00150758
-0.00548278
-0.000478814
0.00107832
-0.00680212
-0.00064621
0.000948125
-0.00729948
-0.000730843
0.000608501
-0.0072142
-0.00142821
0.000250533
-0.00438431
-0.000575983
0.00110819
-0.00563734
-0.000361044
0.00117529
-0.00548123
-0.000325903
0.00128653
-0.00475498
-0.0004549
0.00129002
-0.0046595
-0.00035472
0.00116616
-0.00515337
-3.13702e-05
0.00143472
-0.0060824
-0.000749132
0.00122539
-0.00674474
-0.00139212
0.000533051
-0.0048692
-0.00067631
0.00102645
-0.00551586
-0.000596926
0.000884923
-0.00499266
-0.000603467
0.000755746
-0.00394353
-0.000419978
0.000729221
-0.00379518
-0.000546253
0.000925822
-0.00330674
2.37541e-05
0.000853661
-0.00269752
0.000639566
0.000879605
-0.00375404
0.000228375
0.000812693
-0.00547348
-0.00102607
0.00049278
-0.00688439
-8.41034e-05
0.000808385
-0.00387704
-2.6272e-05
0.000673414
-0.00341136
-0.000481981
0.000568093
-0.00305426
-9.05607e-05
0.000452793
-0.00229135
-0.000170977
0.000372215
-0.00206162
-0.00010133
0.000289843
-0.00199948
0.00022264
8.39356e-05
-0.00165093
0.000514026
0.0001238
-0.0013945
0.000253267
0.000438704
-0.00273022
-0.000429407
0.000222416
-0.0056583
-0.000141194
0.000428011
-0.00116091
-0.00010451
0.000362491
-0.00131822
4.97738e-05
0.000257052
-0.00130896
-8.35109e-05
0.000239013
-0.00156342
-1.30114e-05
0.000213718
-0.00181218
-2.80411e-05
0.000272476
-0.0020392
-5.35015e-05
0.000205951
-0.00171925
9.02861e-05
0.000185839
-0.000932325
0.000209112
0.000319667
-0.0015369
0.000126416
0.000417526
-0.000487705
-0.000122034
0.000352172
-0.00157837
-4.68907e-05
0.000116925
0.00177152
1.48079e-05
0.000127621
0.0015591
0.000124372
8.06277e-05
0.000925629
0.00014791
3.03368e-05
0.000220156
4.78869e-05
-3.34845e-05
-0.000788265
-9.9092e-06
-5.39752e-05
-0.000923902
4.35411e-05
-9.96397e-05
-0.00143436
4.0424e-05
-0.000134164
-0.00235142
-2.3641e-05
-9.86007e-05
-0.00182224
-5.51532e-05
-4.00348e-05
-0.00199557
-0.000151403
7.38396e-05
-0.00111622
-0.000241446
0.000146775
-0.000452398
-1.18959e-05
1.83111e-05
0.00273203
3.89072e-05
-1.41265e-06
0.00229845
7.65043e-05
-5.06258e-06
0.00196413
0.000124053
2.38719e-06
0.000629598
0.000130485
5.8633e-06
-0.000742271
4.32241e-05
-9.93393e-06
-0.000955567
2.40647e-05
-3.11466e-05
-0.000674226
7.48429e-05
-3.25927e-05
-0.00140761
1.63404e-05
-4.49269e-05
-0.00202684
-2.832e-05
-4.95397e-05
-0.00137743
-5.87511e-05
-5.25025e-05
-0.00127096
-4.95834e-05
-5.19909e-05
-0.00109117
-8.33128e-05
-1.81005e-05
9.70834e-05
-0.001747
-4.30924e-05
-0.00276366
-0.0013796
-0.00012709
-0.00323522
-0.00179057
6.52788e-05
-0.00267572
0.000534819
-0.00417528
-0.00114264
0.000661543
-0.00426037
-0.0016511
0.000346084
-0.00363018
-0.0016608
0.000225172
-0.00305841
-0.000742175
0.000622598
-0.00463477
-0.000920925
0.000516193
-0.00450661
-0.000848617
0.000367307
-0.00442676
-0.00137741
0.000345693
-0.00410209
-0.00137627
-3.04092e-05
-0.00349594
-0.000465753
0.000675332
-0.00538729
-0.000451131
0.000531952
-0.00523305
-0.00078595
0.000320209
-0.00501061
-0.000869783
0.000202997
-0.00500331
-0.00108262
0.000163189
-0.0049368
-0.00135335
7.05921e-05
-0.00405128
-0.000676907
0.000618806
-0.00600308
-0.000577973
0.000950902
-0.00591622
-0.000502612
0.00092248
-0.00578146
-0.000719198
0.000653052
-0.00577896
-0.000573603
0.000368981
-0.00556407
-0.000902271
0.000252458
-0.00426661
-0.00119694
0.000160191
-0.00474507
-0.000611684
0.00139751
-0.00600514
-0.000401053
0.00157611
-0.00588853
-0.000395935
0.00137669
-0.00540754
-0.000402574
0.0013648
-0.00582159
-0.000454383
0.00115346
-0.00690779
-0.000711929
0.00105127
-0.00706169
-0.00106324
0.00053004
-0.0071796
-0.00134712
0.000293514
-0.00472282
-0.000652668
0.00103676
-0.00647779
-0.00056126
0.00119909
-0.0056968
-0.000848642
0.0011802
-0.00512973
-0.000434713
0.00130602
-0.00475624
-0.000665173
0.00117145
-0.00454587
-0.000177986
0.00125294
-0.00476985
9.66964e-05
0.00172302
-0.00603717
-0.000364458
0.00145041
-0.00706926
-0.00113627
0.000521778
-0.00528077
-0.000188029
0.00109737
-0.00585742
-0.000335929
0.00094445
-0.00526573
-0.000782508
0.000867626
-0.00480402
-0.000285275
0.000751455
-0.00377105
-0.000456189
0.000765786
-0.00334993
7.03341e-06
0.000655509
-0.00321695
0.000367857
0.000772027
-0.00273516
0.000468942
0.000824763
-0.00372103
0.000303098
0.000694155
-0.00572469
-0.00101352
0.000510782
-0.00681106
-0.000342948
0.000814144
-0.00376688
-0.000479538
0.000780593
-0.00360919
-8.93663e-05
0.000627949
-0.00333208
-0.000285961
0.000533277
-0.00293229
-3.5084e-05
0.000485973
-0.00238304
-3.13086e-05
0.000373385
-0.0021419
-0.000186328
0.000270769
-0.00205349
0.000206613
7.07155e-05
-0.00171417
0.000537247
0.000133741
-0.00141767
0.000203954
0.000376071
-0.00296141
-0.000426471
0.000118989
-0.00547285
-0.000268983
0.000456574
-0.00181745
-9.06392e-05
0.000413483
-0.00110645
-4.65915e-05
0.00033803
-0.00122823
5.97513e-05
0.000246222
-0.00122801
-1.51924e-05
0.000173739
-0.00146037
-1.93321e-05
0.000218053
-0.00174834
1.76485e-05
0.000253047
-0.00206041
-3.70742e-05
0.000191855
-0.00164777
8.44896e-05
0.000218188
-0.000938977
0.000193722
0.000357464
-0.00172571
0.000140937
0.000458688
-0.000886561
-0.000176724
0.000311726
-0.00195481
-0.000170184
0.000191627
0.00197905
-1.78622e-05
0.000131653
0.00182426
5.27795e-05
9.92789e-05
0.00156418
0.000143556
6.57832e-05
0.00087068
0.000200635
1.99873e-05
9.65341e-05
4.56114e-05
-3.2708e-05
-0.000811919
4.61314e-06
-5.3622e-05
-0.000950469
6.03582e-05
-0.000110083
-0.00144396
1.21696e-05
-0.000142807
-0.00230304
-4.74434e-05
-8.92238e-05
-0.00175393
-6.85118e-05
-4.57542e-05
-0.00186622
-0.000177417
6.06292e-05
-0.000902238
-0.00020201
0.000150467
-0.000484168
-0.000104573
4.16403e-05
0.00323162
2.74429e-06
1.86816e-05
0.00270919
4.77046e-05
-8.06901e-07
0.00224649
8.90501e-05
-2.6967e-06
0.00188016
0.000134221
2.87358e-06
0.000498367
0.000125927
1.1088e-05
-0.00088922
3.86224e-05
-4.63729e-06
-0.0010207
2.6101e-05
-2.51094e-05
-0.000707811
7.35383e-05
-2.96821e-05
-0.0014964
-1.21539e-05
-4.40573e-05
-0.00202017
-3.80913e-05
-5.00425e-05
-0.0013418
-6.33793e-05
-5.53472e-05
-0.00120422
-5.3137e-05
-5.2293e-05
-0.00100384
-6.47409e-05
-1.89073e-05
0.000180732
1.27716e-05
-0.00261376
-0.00156483
0.000107839
-0.0037073
-0.00174263
-1.81127e-06
-0.00280978
-0.00134231
2.77374e-06
-0.00373041
-0.00151354
-0.000106555
-0.00320095
-0.00177893
7.3471e-05
-0.00263106
0.000573048
-0.00430125
-0.000766952
0.000566612
-0.00423432
-0.00116603
0.000666093
-0.00426297
-0.00165001
0.000354361
-0.00348677
-0.00165805
0.00029026
-0.00306689
-0.000608708
0.0007358
-0.0047453
-0.000638805
0.000629969
-0.00456087
-0.000892127
0.000470224
-0.00450335
-0.000827492
0.000414617
-0.00453798
-0.00141328
0.000242952
-0.00404479
-0.00140245
-7.80353e-06
-0.00343904
-0.000630533
0.000754413
-0.00524658
-0.000588322
0.000595733
-0.00544073
-0.00068104
0.000444522
-0.00517893
-0.000701575
0.000250927
-0.00507617
-0.000668328
0.000235881
-0.00498128
-0.00116087
0.000280475
-0.00488808
-0.00138224
9.7586e-05
-0.00396357
-0.000621723
0.000536742
-0.00638421
-0.000626526
0.000826195
-0.0056529
-0.000583734
0.0011226
-0.00592855
-0.000495492
0.000928605
-0.0059641
-0.000762005
0.000702595
-0.00580495
-0.000726717
0.000353794
-0.00565061
-0.000946066
0.000142603
-0.0043662
-0.00119008
-0.000103022
-0.00479909
-0.00051943
0.00124209
-0.00638434
-0.000584595
0.0014526
-0.00585829
-0.000928222
0.00126774
-0.0057
-0.000421825
0.00161943
-0.00567505
-0.000348283
0.00125402
-0.00623904
-0.000482551
0.00133262
-0.00688457
-0.000743392
0.0011234
-0.00681496
-0.000994106
0.000558252
-0.00681469
-0.00113218
0.000455891
-0.0051828
-0.000664214
0.00117019
-0.0063616
-0.000576658
0.00113936
-0.00617733
-0.000866707
0.00116796
-0.00560036
-0.000242178
0.00118524
-0.00505205
-0.000693402
0.00118522
-0.0045328
1.2835e-05
0.00115938
-0.00445811
0.000121536
0.00153189
-0.0043324
0.000192833
0.00178625
-0.0060969
-0.00015785
0.00135376
-0.0074403
-0.00105674
0.000496647
-0.0057342
-0.000558431
0.00107792
-0.00586528
-0.000763863
0.00106407
-0.00569271
-0.000408075
0.000969361
-0.00504876
-0.000611453
0.000856894
-0.00458396
2.90106e-05
0.000739108
-0.00380847
-3.52945e-05
0.000569417
-0.00325985
-0.000262652
0.000585506
-0.00295411
0.000317033
0.000708236
-0.00272905
0.000569627
0.000680947
-0.0037402
0.000173423
0.000640837
-0.00582421
-0.00102884
0.00049017
-0.00669886
-0.000424764
0.000968384
-0.00406643
-5.14025e-06
0.000792556
-0.00386435
-0.000347404
0.000718354
-0.00339878
-0.000107369
0.000598882
-0.00323056
-0.00014792
0.000533149
-0.00284674
-7.14773e-05
0.000439064
-0.00239657
3.6105e-05
0.000340607
-0.00223019
-0.000118198
0.000232838
-0.00213449
0.000193014
6.00652e-05
-0.00174902
0.000489569
9.44781e-05
-0.00143192
0.000296844
0.000233423
-0.00323175
-0.000417766
5.26205e-05
-0.00528443
-0.000293892
0.000513533
-0.00131706
-0.000227215
0.000435399
-0.00163001
-0.000142821
0.000393095
-0.000965915
-3.54085e-05
0.000315999
-0.00111905
0.00011132
0.000213253
-0.00117821
3.9833e-05
0.000168564
-0.0014051
1.1828e-05
0.000190473
-0.00169298
2.55681e-05
0.000204555
-0.00203832
-4.5642e-05
0.000180013
-0.00155178
8.01702e-05
0.000216509
-0.000925636
0.000181695
0.000349787
-0.00186701
0.000100697
0.000400911
-0.00125386
-0.000182452
0.000206221
-0.00218059
-0.000309114
0.000217911
0.00173646
-0.000140152
0.000184743
0.00206885
-8.2221e-07
0.000111788
0.00186027
9.97491e-05
8.17663e-05
0.00153749
0.000162461
7.36999e-05
0.000788727
0.000204328
1.71348e-05
-3.17095e-05
5.83444e-05
-2.72718e-05
-0.000857991
1.88676e-05
-5.34249e-05
-0.000999893
9.77071e-05
-0.000125566
-0.00148537
-5.94351e-05
-0.000135689
-0.00220929
-6.58841e-05
-7.77779e-05
-0.00169411
-8.90091e-05
-4.51901e-05
-0.00173477
-0.000191855
2.24399e-05
-0.000635493
-0.000134891
0.000145061
-0.000559078
-0.000125456
3.71389e-05
0.00161583
-9.13934e-05
4.17114e-05
0.00329998
1.14725e-05
1.94298e-05
0.00267748
6.3398e-05
-1.93406e-06
0.00218232
9.56696e-05
-3.64587e-06
0.00179101
0.000145692
3.80303e-06
0.00035996
0.000119379
1.44811e-05
-0.00102772
3.65435e-05
-1.56177e-06
-0.00108079
3.46766e-05
-1.95973e-05
-0.000752572
6.98586e-05
-2.6912e-05
-0.0015834
-1.77091e-05
-4.36496e-05
-0.00200885
-4.40266e-05
-5.0352e-05
-0.00130277
-6.9825e-05
-5.54988e-05
-0.00113119
-5.31127e-05
-5.12323e-05
-0.000918401
-5.47494e-05
-2.01206e-05
0.000255602
0.000139092
-0.00267254
-0.00176877
3.57056e-05
-0.00262333
-0.00129644
7.83949e-05
-0.00365216
-0.00170886
0.000111905
-0.00362569
-0.00175342
6.68951e-05
-0.00290219
-0.000987494
0.000326019
-0.00403605
-0.00129462
8.02487e-05
-0.00378862
-0.00166665
7.47007e-05
-0.00318554
-0.00176407
0.000107719
-0.00263276
0.000621559
-0.00422118
-0.000732152
0.000615377
-0.00425667
-0.000780822
0.000623158
-0.0043027
-0.00103912
0.000566552
-0.00426353
-0.0015783
0.000325174
-0.00335665
-0.00165042
0.000134114
-0.00295304
-0.000730896
0.000844378
-0.00483255
-0.00074053
0.000698406
-0.00466153
-0.000793275
0.000642997
-0.00462141
-0.000729701
0.000468524
-0.00452913
-0.000947322
0.000426091
-0.00444212
-0.0015038
0.00027283
-0.0039825
-0.00155815
6.32836e-05
-0.00332641
-0.000571925
0.000776048
-0.00521263
-0.000577255
0.000693043
-0.00539316
-0.000697481
0.00054956
-0.00543202
-0.000454552
0.000341465
-0.00531041
-0.000760057
0.000270583
-0.00511281
-0.000780606
0.000313592
-0.0049605
-0.00103798
0.00029365
-0.00499223
-0.00139106
0.000156671
-0.00391926
-0.000633129
0.000615685
-0.00623023
-0.00064233
0.000654408
-0.00615469
-0.000618674
0.000970473
-0.00581032
-0.000560365
0.00114332
-0.00600472
-0.00045079
0.000862648
-0.00602165
-0.000814219
0.000751408
-0.0058709
-0.00078253
0.000348059
-0.00581693
-0.000977011
8.2092e-05
-0.0045684
-0.00123159
6.41725e-05
-0.00476385
-0.000672046
0.00111996
-0.00643346
-0.000587281
0.00128252
-0.00620364
-0.000830267
0.00137458
-0.00600157
-0.000370709
0.0016344
-0.00558644
-0.000676482
0.00124985
-0.0056878
-0.000116203
0.00139794
-0.00617533
-0.000504264
0.00142465
-0.00656002
-0.000711514
0.0012502
-0.00660256
-0.000708588
0.000698059
-0.00650612
-0.00115325
0.000480854
-0.00556715
-0.000581081
0.00116311
-0.0068169
-0.000736441
0.00111711
-0.00636678
-0.000690562
0.0011187
-0.00584558
-0.000797659
0.00128451
-0.00551344
-0.000305744
0.00115336
-0.00468544
-0.000114388
0.000937555
-0.00423188
-0.000263266
0.00119128
-0.00411689
8.31641e-05
0.0014947
-0.00380698
0.000366795
0.00164709
-0.0061874
-0.000343455
0.00112544
-0.00755222
-0.0011839
0.000468815
-0.00604796
-0.000500889
0.00106457
-0.00598475
-0.000194964
0.00117314
-0.00578452
-0.000660955
0.000903257
-0.00531306
-9.78904e-05
0.000908719
-0.00511006
-0.000331286
0.000836346
-0.00449784
-0.000389466
0.000631128
-0.00355219
-2.78967e-05
0.000502477
-0.00311282
-0.000137883
0.000462906
-0.00268909
0.000355373
0.00053591
-0.00274637
0.000583965
0.000508189
-0.00370195
0.000234675
0.000568186
-0.00584006
-0.00102328
0.00036805
-0.00646139
-0.000314005
0.000897824
-0.00469256
-0.000400798
0.000834204
-0.0039345
-0.000650594
0.000741628
-0.00337985
-0.000407795
0.00073882
-0.00316633
-0.000228573
0.000566116
-0.00292364
-1.12385e-05
0.000474498
-0.0028311
-1.1138e-05
0.000380101
-0.0024131
8.30427e-05
0.000290746
-0.00234558
-5.82923e-05
0.000180897
-0.00224267
0.000186201
1.24344e-05
-0.00177301
0.000569669
5.79664e-05
-0.00164444
0.000440581
9.41652e-05
-0.00361318
-0.000324836
6.50888e-05
-0.00520714
-0.000479706
0.000413504
-0.00237744
-0.000481795
0.000507121
-0.00104714
-0.000197625
0.000422837
-0.00146295
-6.91588e-05
0.000370476
-0.000851484
-3.15952e-05
0.00030159
-0.00101333
4.7586e-05
0.000209652
-0.00106255
6.18856e-05
0.000140544
-0.00135871
2.68924e-05
0.000151673
-0.00164812
4.79452e-05
0.000147216
-0.00195576
1.2149e-05
0.000145914
-0.00155277
5.52058e-05
0.000202341
-0.000899281
0.000145243
0.00027604
-0.0019764
-2.18886e-05
0.000230629
-0.00144823
-0.0001558
0.00010365
-0.00226333
-0.000311136
0.000212278
0.00013048
-0.000294789
0.000212747
0.00191185
-0.000117893
0.000178777
0.00213123
4.69518e-05
0.000112547
0.00184594
0.000116183
9.01252e-05
0.00150056
0.000188387
7.24613e-05
0.000690706
0.00021865
2.05062e-05
-0.000178758
6.00729e-05
-1.97208e-05
-0.000915225
6.1134e-05
-6.78899e-05
-0.00108403
0.000111617
-0.000132382
-0.00153043
-6.81902e-05
-0.000117744
-0.00211884
-8.79736e-05
-6.38705e-05
-0.00163148
-8.48705e-05
-7.08885e-05
-0.00162639
-0.000171584
-1.12819e-06
-0.000370832
-8.14315e-05
0.000121684
-0.00065408
-9.49225e-05
1.89578e-05
0.0010757
-0.000118969
3.65208e-05
0.00173999
-6.57354e-05
4.13184e-05
0.00334383
2.23672e-05
1.8838e-05
0.00263434
7.87789e-05
-2.99397e-06
0.00210289
0.00010727
-4.34338e-06
0.00169189
0.00015363
3.76656e-06
0.000217045
0.00011425
1.56203e-05
-0.00115915
4.0998e-05
3.06271e-07
-0.00114169
4.25289e-05
-1.46436e-05
-0.000807369
6.1389e-05
-2.5035e-05
-0.0016634
-3.20274e-05
-4.364e-05
-0.00198353
-5.12011e-05
-4.8789e-05
-0.00125828
-7.58696e-05
-5.45537e-05
-0.001052
-5.3519e-05
-5.02937e-05
-0.000834708
-5.15074e-05
-2.09908e-05
0.0003281
-0.00185419
5.682e-05
-0.00250886
0.000337392
-0.00338863
-0.00176286
0.000144815
-0.00272765
-0.00178599
-5.95549e-05
-0.0025312
-0.0011275
0.000215396
-0.00372419
-0.00121938
8.79202e-05
-0.00370342
-0.00178459
0.000183015
-0.00362387
-0.00172051
2.80062e-05
-0.00297376
-0.000823791
0.000476474
-0.00405663