/*--------------------------------*- C++ -*----------------------------------*\
  =========                 |
  \\      /  F ield         | OpenFOAM: The Open Source CFD Toolbox
   \\    /   O peration     | Website:  https://openfoam.org
    \\  /    A nd           | Version:  7
     \\/     M anipulation  |
\*---------------------------------------------------------------------------*/
FoamFile
{
    version     2.0;
    format      ascii;
    class       volVectorField;
    location    "9.5";
    object      U;
}
// * * * * * * * * * * * * * * * * * * * * * * * * * * * * * * * * * * * * * //

dimensions      [0 1 -1 0 0 0 0];

internalField   nonuniform List<vector> 
18750
(
(-0.457116 0.840437 0.141542)
(1.13047 -0.0967041 -0.112603)
(0.9479 0.876832 -0.939253)
(-0.507255 0.881548 0.125304)
(-0.159176 -0.596483 -0.770769)
(1.43097 1.0005 0.948372)
(0.890758 -0.0414074 0.0591878)
(0.298126 0.97185 -1.205)
(0.880811 0.870306 -0.910488)
(-0.589834 0.908794 0.107928)
(-0.152542 2.7874 0.822529)
(0.518721 2.15964 0.257865)
(-0.218384 -0.709161 -1.23583)
(0.871096 1.84334 1.1728)
(1.02231 1.03815 1.14016)
(0.356081 0.0979772 0.151276)
(0.460989 0.904487 -1.07884)
(0.249503 0.982689 -1.15738)
(0.815245 0.864106 -0.893186)
(-0.679482 0.946314 0.0892925)
(-1.92847 4.49262 -0.464605)
(1.33407 0.942239 0.815003)
(0.771455 2.72509 0.841989)
(0.744703 0.6933 2.16377)
(0.0215942 -0.16188 0.110142)
(-0.296478 -0.778182 -1.0105)
(0.532696 1.45232 -0.50616)
(1.10927 1.81446 0.545367)
(0.773283 1.0877 1.37928)
(-0.202451 0.306286 0.138108)
(0.914871 1.10476 -1.00319)
(0.424464 0.907272 -1.05104)
(0.221761 1.00011 -1.11447)
(0.799925 0.832105 -0.846928)
(-0.791421 0.977764 0.0703588)
(-2.12069 3.45909 -1.14707)
(2.73138 3.71873 2.48937)
(-0.744844 4.70759 0.112156)
(-0.218641 0.834679 0.8223)
(1.84647 0.909498 0.616885)
(2.70083 2.43276 0.915746)
(1.21788 0.931822 0.478399)
(0.72919 0.546817 2.21461)
(-0.314378 -2.65789 0.290651)
(-0.448377 -0.553955 -1.01919)
(0.291836 1.46235 -0.863408)
(0.490714 1.47152 -0.608842)
(0.953242 1.71895 0.587199)
(0.221454 1.15776 1.54592)
(-0.920651 0.606553 -0.00252046)
(1.17912 0.558606 -1.16508)
(0.891959 1.09676 -0.985083)
(0.380779 0.904854 -1.0351)
(0.142113 1.01035 -1.08166)
(0.757998 0.79741 -0.829692)
(-0.897289 0.99528 0.0536351)
(-0.669089 4.14195 0.902947)
(-0.0187977 4.85894 1.75725)
(-1.00336 3.75822 -0.678962)
(2.03582 3.38895 2.49495)
(2.24614 3.84292 2.58915)
(0.70122 4.6237 0.850818)
(-0.0574343 0.530625 0.679898)
(-0.220908 0.976972 0.473671)
(1.80695 1.19936 0.552356)
(2.53499 2.58329 1.04936)
(0.506501 1.22818 0.678012)
(1.21107 0.579398 0.495811)
(0.693409 0.364269 1.58842)
(-0.249711 -0.985186 0.431861)
(-0.533282 -0.333581 -0.760205)
(0.0385298 1.14364 -0.22782)
(0.631399 1.44153 -0.91208)
(0.455502 1.41005 -0.72619)
(0.963188 1.66056 0.326366)
(-0.155294 1.17466 1.64244)
(-1.39576 0.865395 -0.146138)
(0.470843 0.310221 -1.15781)
(1.21379 0.526617 -1.08315)
(0.851062 1.08877 -0.990159)
(0.35138 0.902818 -1.01941)
(0.094095 1.05685 -1.04909)
(0.704269 0.772514 -0.823369)
(-0.961747 1.00328 0.0552434)
(-2.28909 2.75952 0.214026)
(-0.809475 4.26938 0.47766)
(-0.585024 4.15848 0.671097)
(-0.920902 4.84399 1.49592)
(-0.0815507 4.49512 1.63509)
(-0.192607 3.68863 -0.42017)
(2.16799 2.26514 1.51595)
(2.14902 2.7704 2.91902)
(1.62317 3.90115 2.17355)
(0.771491 4.53757 0.765339)
(-0.495012 1.04918 0.725307)
(-0.37068 0.691753 0.344735)
(-0.0993485 1.09179 0.0908658)
(2.27526 0.846733 0.638774)
(2.12876 2.86579 1.1148)
(-0.285851 1.43548 1.01028)
(0.692778 1.13134 0.637646)
(1.09813 0.557684 0.303753)
(0.76726 0.378711 1.24139)
(-0.384504 -0.842487 0.538776)
(-0.621027 -0.0549879 -0.448108)
(0.0783738 0.707847 -0.434072)
(0.330144 1.05046 -0.329595)
(0.72391 1.43354 -1.05985)
(0.480409 1.34061 -0.716626)
(0.718985 1.61211 0.501863)
(0.0604278 1.18171 1.63057)
(-1.69243 1.07361 -0.161353)
(0.85835 0.339507 -1.0042)
(0.563801 0.289151 -1.20158)
(1.23112 0.498328 -1.00763)
(0.818745 1.09781 -0.985496)
(0.331191 0.909135 -1.01029)
(0.0602266 1.06496 -1.03713)
(0.633756 0.763853 -0.819303)
(-0.956833 0.950036 0.131081)
(-1.57628 2.51043 0.0270938)
(-1.48013 3.08212 0.234292)
(-2.14607 2.82601 0.345545)
(-0.289843 4.42566 0.996108)
(-1.09322 4.1054 0.0337227)
(-0.54858 3.89836 0.35265)
(0.818349 3.68391 2.75721)
(-0.770725 4.64419 1.22525)
(-0.435969 4.42203 1.27175)
(0.182281 3.48637 -0.239599)
(0.105378 2.83563 0.959401)
(2.01317 1.94319 1.95865)
(1.8568 2.77226 2.47255)
(1.62062 3.49445 1.85425)
(1.37831 4.58561 0.379638)
(-0.305674 1.50354 1.14405)
(-0.423677 1.08753 0.669518)
(-0.072965 0.825733 0.12933)
(0.396083 1.03338 0.042679)
(2.0301 0.927396 1.27522)
(1.69487 3.2514 1.10431)
(-0.312604 1.3667 1.00207)
(-0.0248988 1.40544 1.10228)
(0.598999 1.14237 0.583599)
(0.949897 0.434262 0.574873)
(0.67921 0.304834 0.906003)
(-0.516252 -0.735256 0.78358)
(-0.692382 0.201122 -0.114612)
(0.387566 0.502475 -0.00817356)
(0.0593801 0.668368 -0.470805)
(0.318726 1.03949 -0.32983)
(0.779671 1.42052 -1.13222)
(0.530518 1.35133 -0.56859)
(0.726004 1.55706 0.160915)
(0.0280553 1.22632 1.63137)
(-1.64132 1.2115 0.0967826)
(1.27968 0.016099 -0.6676)
(0.911823 0.334052 -1.01923)
(0.600492 0.276084 -1.18679)
(1.24174 0.474 -0.942613)
(0.815444 1.08493 -0.996432)
(0.328676 0.912747 -1.01309)
(-0.110601 1.12834 -0.995985)
(0.5685 0.748711 -0.826777)
(-0.880435 0.893875 0.178383)
(-1.62319 2.4186 -0.365309)
(-1.17844 3.15323 0.0520842)
(-1.38863 2.72311 0.0716498)
(-0.435692 3.78491 0.431254)
(-1.24558 3.09846 0.45605)
(-1.99296 2.94733 0.3536)
(0.00412731 3.9737 1.4747)
(-0.0621181 4.4867 1.1719)
(-0.89622 4.23016 -0.0241244)
(-0.464173 3.57569 0.397353)
(2.35313 2.55268 2.79112)
(-0.53519 3.84268 2.28501)
(-0.488596 4.43648 1.29805)
(-0.923993 4.24214 1.09323)
(0.360729 3.39109 -0.0626977)
(-0.441573 2.92543 1.06058)
(0.269065 2.78564 1.64095)
(1.28315 2.01861 2.6557)
(1.36863 2.73612 2.45643)
(1.1892 3.38758 1.93078)
(0.4063 5.02951 -0.0093864)
(-0.257332 1.61164 0.976212)
(-0.316283 1.49137 1.1294)
(-0.280963 1.15727 0.712253)
(-0.250268 0.881148 -0.00354318)
(0.909736 0.757694 0.101916)
(1.8252 0.896461 1.81826)
(1.33699 3.63386 0.107481)
(-0.108266 1.37431 0.995369)
(-0.170287 1.3273 1.07903)
(-0.132159 1.43488 1.08238)
(0.619246 1.08611 0.664654)
(0.9227 0.369746 0.377418)
(0.66743 0.365551 0.928555)
(-0.353733 -0.250702 0.932751)
(-0.657649 0.448045 0.25387)
(0.714691 -0.284584 -0.00933106)
(0.455829 0.458785 -0.0892955)
(0.111422 0.643217 -0.494467)
(0.457822 0.93478 -0.439357)
(0.800345 1.40871 -1.10715)
(0.581753 1.16406 -0.831892)
(0.621994 1.52729 0.0846128)
(-0.20674 1.24059 1.53652)
(-1.60643 1.26943 0.224693)
(1.10526 -0.716061 0.0333707)
(1.41505 0.0165182 -0.521244)
(0.880626 0.343442 -0.978467)
(0.619733 0.261315 -1.08501)
(1.2535 0.452693 -0.881588)
(0.822443 1.08052 -0.987956)
(0.321731 0.912731 -1.01064)
(-0.0245141 1.09958 -1.10002)
(0.507358 0.72318 -0.861838)
(-0.814115 0.817624 0.18892)
(-1.34004 2.15851 0.217684)
(-1.20517 2.84503 0.54194)
(-1.49234 2.57866 -0.437253)
(-0.554598 3.31832 0.330629)
(-0.360408 3.34053 0.14692)
(-1.26029 2.84266 0.0860456)
(-0.860125 3.59943 0.710953)
(-1.06452 3.74992 0.301106)
(-1.02738 3.26618 0.634845)
(-1.61496 3.11328 0.345327)
(-0.00247506 3.70053 1.94153)
(0.109153 4.21437 1.32388)
(-0.068309 4.67313 0.965502)
(-0.728674 4.20034 -0.0877028)
(-0.523234 3.38057 0.405776)
(0.107641 3.31976 2.3173)
(0.0930006 3.23001 2.70905)
(-0.143239 3.87797 2.16299)
(-0.113056 4.33602 1.55654)
(-0.503434 4.19883 1.00074)
(0.042732 3.45402 -0.225758)
(-0.944054 2.96897 1.45445)
(-0.437482 2.86318 1.45439)
(0.617805 2.80157 1.72686)
(1.67754 1.50611 2.37667)
(1.74587 2.37841 2.34367)
(0.814802 3.42201 1.97199)
(0.536484 5.06801 0.137483)
(-0.633442 2.18463 1.55187)
(0.010463 1.63699 1.06257)
(-0.0672954 1.4698 1.08235)
(-0.314154 1.27601 0.694653)
(-0.0489559 1.04523 -0.0789985)
(1.71017 0.403789 0.348336)
(1.67334 0.888194 1.98257)
(1.43548 3.71822 0.132735)
(0.170893 0.965252 1.11493)
(0.0847116 1.27715 0.921063)
(-0.0380512 1.30608 1.11839)
(0.0543645 1.38976 1.15402)
(0.546793 1.08699 0.678928)
(0.686116 0.390902 0.488575)
(0.54644 0.49557 1.15495)
(-0.230985 -0.162095 1.073)
(-0.386289 0.601614 0.639132)
(0.624841 -0.712934 0.506115)
(0.813647 -0.317177 -0.0481507)
(0.499649 0.428647 -0.146706)
(0.179918 0.618303 -0.528585)
(0.461381 0.88474 -0.460248)
(0.908084 1.37307 -1.03747)
(0.534879 1.31118 -0.480587)
(0.604396 1.45734 -0.0117956)
(-0.134112 1.27762 1.63116)
(-1.40064 1.30692 0.32388)
(0.662986 -1.42302 0.0160129)
(1.14908 -0.719687 0.0508374)
(1.4857 0.011728 -0.332892)
(0.772289 0.365097 -0.911669)
(0.57637 0.257218 -0.991534)
(1.25484 0.428781 -0.825718)
(0.828728 1.07902 -1.06401)
(0.32017 0.914395 -1.0242)
(0.0177144 1.06716 -1.18842)
(0.445791 0.73179 -0.869624)
(-0.749498 0.736681 0.192131)
(-1.33338 2.50396 -0.20118)
(-1.22763 2.24471 0.269258)
(-1.22588 2.85011 0.100153)
(-0.954069 2.91815 0.496487)
(-1.3659 2.55141 -0.551401)
(-0.252628 3.39979 0.504604)
(-0.454791 3.30478 0.290955)
(-0.390674 3.31298 -0.0559532)
(-1.00496 2.90656 -0.0606657)
(-0.710664 3.90128 0.815135)
(-0.222497 3.80834 0.819257)
(-0.609354 3.7988 0.295524)
(-0.854055 3.32339 0.722416)
(-1.36593 3.2053 0.243333)
(-0.0953558 3.72397 2.24035)
(0.18322 3.80705 1.98639)
(0.0442934 4.46786 1.13652)
(0.541281 4.80783 1.36763)
(0.647264 4.44596 0.456786)
(-0.853377 3.42239 0.46689)
(-0.563659 3.72942 2.05633)
(-0.359791 3.39099 2.33418)
(0.990809 2.97829 2.86405)
(0.00913911 3.58728 2.02061)
(0.570813 4.15048 1.99292)
(0.0290477 4.30464 1.06462)
(-0.764711 3.80347 -0.785526)
(-1.02809 3.33929 1.84517)
(0.717158 2.96541 1.54683)
(-0.115216 2.78761 1.62438)
(0.956371 2.7083 1.82634)
(1.04939 1.80819 2.49637)
(1.94237 2.17435 2.32971)
(0.758589 3.48931 2.0346)
(0.612171 4.99835 0.0254341)
(-0.767241 2.46272 1.67442)
(-0.655419 2.34321 1.28711)
(0.0909464 1.61147 1.12271)
(0.087692 1.42175 1.03022)
(-0.262931 1.3909 0.791272)
(0.215144 0.977886 -0.0279515)
(1.7629 0.207673 0.567024)
(1.67165 0.915094 1.92652)
(1.60161 3.67805 0.162058)
(0.1639 0.966971 1.27796)
(0.35217 0.871568 1.02332)
(0.255405 1.21818 0.895881)
(0.640176 1.13203 1.09816)
(0.282474 1.33922 1.184)
(0.553688 1.05229 0.613695)
(0.588582 0.411029 0.568107)
(0.445711 0.688071 1.3856)
(-0.044995 0.0128187 1.32065)
(0.0861879 0.637839 0.910181)
(0.33145 -1.03044 0.531789)
(0.67026 -0.738533 0.494368)
(0.902987 -0.37243 -0.0703087)
(0.534364 0.41615 -0.169148)
(0.232017 0.600401 -0.507297)
(0.614799 0.8422 -0.580844)
(1.03061 1.30758 -0.990994)
(0.536879 1.13982 -0.591449)
(0.603168 1.37456 -0.185865)
(-0.188293 1.27297 1.62396)
(-1.12004 1.30162 0.506408)
(0.371706 -1.55658 -0.0853309)
(0.670839 -1.42393 0.0103898)
(1.20786 -0.737049 0.0562169)
(1.49095 0.0165877 -0.070741)
(0.689981 0.399778 -0.810301)
(0.544785 0.259908 -0.88087)
(1.23109 0.431996 -0.777876)
(0.80282 1.0927 -1.16223)
(0.314899 0.929507 -1.02339)
(-0.0601308 1.13769 -1.20649)
(0.36583 0.742918 -0.882064)
(-0.688477 0.673395 0.174643)
(-1.52604 1.92225 -0.00102037)
(-0.684205 2.76255 0.705038)
(-1.12692 2.63391 -0.181544)
(-1.23531 2.23052 0.338293)
(-0.974206 3.07738 0.568081)
(-0.959327 2.96222 0.289429)
(-0.739987 3.00917 0.476669)
(-1.01893 2.6313 -0.318094)
(-0.280689 3.34531 0.663475)
(-0.172955 3.34007 0.367923)
(-0.347975 3.35853 0.251959)
(0.158502 3.48947 -0.204317)
(-0.766425 2.96891 -0.0607229)
(-0.990839 3.86883 0.869989)
(-0.498936 3.93462 0.921116)
(-0.528044 3.93577 0.739275)
(-0.377808 3.807 0.274395)
(-0.222654 3.26715 0.595591)
(-1.0501 3.35764 0.126951)
(-0.181982 3.90926 2.43695)
(0.070561 3.73663 2.26823)
(0.959243 3.38029 2.37651)
(0.742428 4.38988 1.36659)
(0.770572 4.85686 1.45138)
(0.640233 4.93851 0.439884)
(-0.921649 3.61114 0.681426)
(-0.9917 3.70917 2.31235)
(-0.794613 3.77618 1.98559)
(-0.270433 3.19099 2.63683)
(-0.391549 3.51953 2.43292)
(0.0298311 3.65544 2.03557)
(1.98198 3.63014 2.82322)
(1.41651 4.33341 1.95016)
(-0.983361 4.10425 -1.24558)
(-1.08184 3.76081 2.01077)
(-0.864053 3.43966 1.74974)
(-0.716176 2.70361 1.71584)
(-0.0503565 2.79737 1.63948)
(0.159243 2.08473 2.51307)
(1.1244 1.52847 2.41107)
(2.69899 1.37005 1.95314)
(2.09398 3.01038 2.09332)
(0.988251 4.88999 0.12572)
(-0.552489 2.55386 2.1669)
(0.385062 2.16888 2.07582)
(-0.673609 2.17587 1.51892)
(0.307554 1.48854 1.17837)
(0.138428 1.42712 1.00542)
(-0.0880904 1.4191 0.659577)
(0.578489 0.894847 -0.0809435)
(1.81919 0.138058 0.845811)
(1.78839 1.01886 1.67366)
(1.90136 3.43027 -0.222043)
(-0.262945 0.816969 1.78557)
(0.264565 0.89041 1.25262)
(0.467589 0.820039 0.943025)
(0.154979 0.995288 1.04353)
(0.144428 1.2294 1.0896)
(0.273084 1.34409 1.17451)
(0.541714 1.0423 0.63542)
(0.407533 0.482869 0.882482)
(0.41395 0.880905 1.7219)
(0.0397816 0.251454 1.69648)
(0.163785 1.0303 0.82413)
(-0.0834719 -1.17292 0.636003)
(0.16472 -1.01517 0.777629)
(0.724554 -0.745584 0.514423)
(1.00699 -0.3675 -0.0784415)
(0.580882 0.367484 -0.214614)
(0.26419 0.568547 -0.521364)
(0.888225 0.655358 -0.886002)
(1.13875 1.23015 -0.926032)
(0.487512 1.18606 -0.388004)
(0.533443 1.31553 -0.262548)
(-0.366466 1.26763 1.48688)
(-0.870434 1.21334 0.760761)
(-0.00327025 -1.80792 0.0309968)
(0.365621 -1.55879 -0.0951065)
(0.680993 -1.45666 -0.0861246)
(1.28073 -0.759621 0.069983)
(1.4201 0.0447985 0.14732)
(0.640542 0.432912 -0.682271)
(0.531916 0.258935 -0.76087)
(1.19126 0.44774 -0.755011)
(0.808662 1.10105 -1.15659)
(0.284815 0.933371 -1.00715)
(-0.0507347 1.13402 -1.28984)
(0.26909 0.745441 -0.910368)
(-0.656445 0.616262 0.127063)
(-1.22621 1.91121 -0.082049)
(-1.37249 2.26343 0.122392)
(-1.40394 2.0049 0.00876068)
(-0.634612 2.74184 0.422226)
(-0.291116 2.83231 0.784068)
(-1.14973 2.61388 -0.124725)
(-0.927439 2.32095 0.454906)
(-0.771336 3.03978 0.52775)
(-0.818964 3.11076 0.503667)
(-0.687391 3.04574 0.364004)
(-0.695986 3.03435 0.403743)
(-0.761883 2.67929 -0.234068)
(-0.288964 3.48494 0.701514)
(-0.00161697 3.4317 0.581107)
(-0.152234 3.32665 0.304999)
(-0.0284905 3.36739 0.242272)
(-0.0210207 3.46976 0.120149)
(-0.492485 3.03433 -0.0392179)
(-0.965953 3.98743 1.05712)
(-0.60114 3.9908 1.20916)
(-0.19997 3.85962 1.05963)
(-0.208236 3.9424 0.766088)
(-0.082013 3.88753 0.272416)
(-0.0896941 3.12912 0.545908)
(-0.378168 3.56496 -0.180709)
(-0.705888 3.97968 2.26328)
(0.236665 3.78986 2.46726)
(0.325784 3.54822 2.36199)
(0.471211 3.67734 2.04897)
(1.1681 4.43591 1.64003)
(1.03833 4.71786 1.40152)
(0.232775 5.18478 0.190022)
(-0.528409 3.6417 1.07586)
(-1.26685 4.34344 1.78481)
(-0.833916 3.8736 2.38616)
(-0.685464 3.6726 2.13838)
(-0.269208 3.36593 2.45922)
(-0.88218 3.1898 2.31233)
(0.880964 3.28236 2.64469)
(2.53803 3.26181 2.90989)
(2.72002 3.82575 3.15237)
(-0.596829 4.38658 -1.36097)
(0.345449 3.84667 2.6369)
(0.113165 3.50962 2.23712)
(-0.87414 3.40358 1.77749)
(0.198379 2.68789 1.67784)
(0.0531893 2.33374 1.85229)
(0.869047 2.13677 1.57177)
(1.64126 1.21352 2.23106)
(2.08423 1.83244 1.6227)
(2.26238 3.13784 2.03251)
(1.30464 4.78282 0.333348)
(-0.512079 2.62078 2.43424)
(-0.651247 2.53542 2.00871)
(0.336 2.19916 1.77233)
(-0.0670583 2.11588 1.54214)
(0.579942 1.45846 1.22256)
(0.502893 1.30014 1.06057)
(0.0934109 1.44888 0.597338)
(0.974766 0.792716 -0.0581643)
(1.88354 -0.0780207 0.915122)
(1.92706 1.00015 1.47088)
(1.95542 3.22913 -0.210168)
(-0.468718 1.26084 1.69535)
(-0.0859468 0.750557 1.75274)
(0.459369 0.788997 1.18818)
(0.546859 0.746744 0.906644)
(0.32411 0.994815 0.756833)
(0.269303 1.18197 1.1229)
(0.492162 1.30554 1.06226)
(0.537351 1.02251 0.716677)
(0.314061 0.545932 1.07975)
(0.446559 1.08539 1.93459)
(-0.0516349 0.606538 2.09499)
(0.126555 1.57157 0.543397)
(-0.451205 -1.2438 1.03572)
(0.0342908 -1.10919 0.91669)
(0.289356 -1.13346 0.675913)
(0.778779 -0.816738 0.490002)
(1.18416 -0.499408 -0.263733)
(0.599631 0.359845 -0.217658)
(0.285742 0.56062 -0.511767)
(1.02914 0.565774 -1.03721)
(1.00812 1.21044 -0.938943)
(0.434349 1.17484 -0.360956)
(0.521135 1.26443 -0.390439)
(-0.268331 1.1967 1.38332)
(-0.48795 0.928077 1.01307)
(-0.935482 -2.11599 0.772941)
(-0.00772813 -1.80704 0.0276395)
(0.36572 -1.58061 -0.0966208)
(0.650731 -1.47791 0.00641418)
(1.35422 -0.794912 0.0973893)
(1.30824 0.0979544 0.309708)
(0.631615 0.45353 -0.543059)
(0.536799 0.251414 -0.640756)
(1.14512 0.477449 -0.75793)
(0.778692 1.11679 -1.12434)
(0.246648 0.945771 -1.05219)
(-0.0411656 1.13636 -1.35952)
(0.216858 0.725331 -0.905294)
(-0.653396 0.592309 0.0571012)
(-1.14035 1.84664 0.0156608)
(-0.428238 2.5239 0.0247919)
(-1.04001 2.04619 -0.049146)
(-1.25131 2.60395 -0.320887)
(-1.22153 2.36365 0.0865731)
(-1.25846 2.09741 0.0171086)
(-0.597454 2.80967 0.542929)
(-0.437725 2.80601 0.499363)
(-0.141424 2.84904 0.760901)
(-0.916015 2.61831 -0.0122418)
(-0.781771 2.3316 0.408679)
(-0.492148 3.13235 0.744652)
(-0.351861 3.10469 0.61057)
(-0.642378 3.05842 0.398377)
(-0.419471 3.1628 0.340985)
(-0.595137 2.97976 0.165799)
(-0.635706 2.72069 -0.178889)
(-0.557305 3.35217 0.8696)
(-0.140122 3.61222 0.675766)
(0.0505271 3.41668 0.450511)
(0.00681976 3.43516 0.25056)
(0.648612 3.28849 0.301836)
(-0.0444046 3.42272 0.216509)
(-0.210026 3.06483 0.0020558)
(-0.685389 4.201 0.645495)
(-0.683638 3.86009 1.38989)
(-0.225263 3.95704 1.37373)
(0.109944 3.99438 1.04832)
(-0.000613693 3.9777 0.696815)
(-0.0016431 3.8911 0.181625)
(-0.101038 3.16587 0.541355)
(0.00129885 3.702 -0.64004)
(-0.593092 4.15091 2.14664)
(-0.35201 3.85507 2.45404)
(-0.991083 4.16916 1.87241)
(0.356267 3.63691 2.20393)
(0.868026 4.0654 1.9962)
(1.47306 4.4202 1.96161)
(1.26662 4.52212 1.40829)
(0.668308 4.93773 -0.0296473)
(0.730472 3.54857 1.36097)
(-0.887283 4.21841 2.09746)
(-0.618647 4.16518 2.09531)
(-1.06962 3.91348 2.2962)
(0.155208 3.46036 2.33551)
(-0.282417 3.30838 2.15158)
(1.11049 3.00544 2.21263)
(1.84308 2.5017 3.46056)
(2.89447 3.02945 2.61341)
(3.34904 3.7226 3.1945)
(-0.104764 4.64654 -1.13062)
(-0.807879 3.90811 2.38239)
(-1.31217 3.88436 2.03395)
(0.0983359 3.3217 2.16359)
(-0.113418 3.25387 1.81848)
(0.375472 2.47184 1.57683)
(0.59545 2.11168 1.3874)
(0.393109 2.0713 1.47173)
(1.3581 1.46131 2.21112)
(2.17466 1.5302 1.26135)
(2.30881 3.15667 1.90886)
(1.61824 4.60241 0.412464)
(-1.12015 2.72256 2.46425)
(-0.198607 2.52544 2.40811)
(-0.271713 2.40187 2.00992)
(0.522724 2.13711 1.59233)
(0.41136 1.83173 1.66161)
(0.581045 1.48402 1.18368)
(0.803347 1.23853 1.01557)
(0.406204 1.40406 0.49019)
(1.14536 0.667387 -0.0806182)
(1.97692 -0.185537 0.776264)
(2.48409 0.730695 0.856992)
(2.14155 2.94365 -0.121543)
(-1.42908 0.919914 2.15766)
(-0.282543 1.1746 1.60919)
(0.059426 0.692746 1.64452)
(0.574861 0.647603 1.13613)
(0.911517 0.560223 0.664735)
(0.339902 0.871785 0.763463)
(0.495158 1.04531 1.05327)
(0.647215 1.23754 0.863617)
(0.415968 0.970905 0.835576)
(0.24163 0.600053 1.1648)
(0.497077 1.17998 1.87661)
(-0.0869664 1.1138 2.04939)
(0.325949 1.79723 0.356764)
(-1.52463 -1.06225 1.54127)
(-0.320261 -1.30932 0.997405)
(-0.0368594 -1.2997 0.661666)
(0.501129 -1.15792 0.470193)
(0.873696 -0.760401 0.535854)
(1.32995 -0.498774 -0.244501)
(0.616217 0.337248 -0.214174)
(0.443577 0.517765 -0.516097)
(1.22207 0.408616 -1.14857)
(0.583699 1.45894 -0.830831)
(0.385207 1.17075 -0.317248)
(0.501333 1.23097 -0.486887)
(-0.31736 1.06284 1.20076)
(-0.0562729 0.599191 1.1478)
(-1.0884 -1.00855 0.977133)
(-0.889274 -2.08358 0.781812)
(-0.0521185 -1.78119 0.0560012)
(0.38223 -1.59176 -0.115103)
(0.650957 -1.46156 0.0216599)
(1.41541 -0.828137 0.147003)
(1.19872 0.164274 0.387178)
(0.656385 0.461326 -0.409673)
(0.559892 0.243582 -0.520485)
(1.12653 0.503764 -0.755965)
(0.769753 1.1122 -1.1093)
(0.277707 0.938763 -1.08898)
(-0.0692215 1.17306 -1.38152)
(0.20718 0.730502 -0.876466)
(-0.681686 0.609397 -0.021092)
(-1.66055 1.89999 0.00709732)
(-1.07481 1.89972 -0.0362875)
(-0.592201 2.43892 0.126935)
(-0.513388 2.51168 0.048383)
(-0.922227 2.117 -0.0514139)
(-0.487481 2.68127 0.317561)
(-1.09985 2.65848 -0.244734)
(-1.18156 2.39478 0.092639)
(-1.1744 2.15766 0.0657364)
(-0.572442 2.77869 0.564198)
(-0.399742 2.82782 0.548464)
(-0.190097 2.88307 0.534258)
(0.0211514 2.89253 0.654363)
(-0.76361 2.64484 0.141725)
(-0.626578 2.39923 0.20022)
(-0.613248 3.14404 0.780434)
(-0.512053 3.11257 0.694325)
(-0.513957 3.05741 0.619802)
(-0.155933 3.08905 0.519662)
(-0.252152 3.16292 0.374553)
(-0.400784 2.92223 0.169704)
(-0.653813 2.71634 -0.090746)
(-0.676777 3.38611 0.90053)
(-0.214996 3.55083 0.720907)
(-0.0623849 3.59249 0.572202)
(0.302139 3.49226 0.331933)
(0.132212 3.4658 0.270205)
(0.579006 3.26832 0.444196)
(0.354403 3.47734 0.233686)
(-0.139263 2.99021 0.0283951)
(-0.589631 4.03762 0.798411)
(-0.512495 4.1271 0.844314)
(-0.323205 3.84081 1.6528)
(0.126479 3.94081 1.40956)
(0.601518 3.96942 1.27251)
(0.169984 4.12685 0.703545)
(0.266492 4.09449 -0.115062)
(0.136823 3.24915 0.320293)
(-0.0322871 3.81632 -0.753239)
(-1.10102 4.1969 1.71438)
(-0.51552 4.20532 2.08114)
(-0.610966 4.10308 2.13274)
(0.808895 3.47943 2.88949)
(0.0901251 4.02345 1.96041)
(1.52326 3.82624 2.25383)
(1.66082 4.13095 2.22897)
(1.62017 4.16574 1.71531)
(1.09459 4.57038 0.219806)
(1.19864 3.69857 1.49619)
(-0.968237 4.44599 2.15771)
(-0.976998 4.27166 2.10903)
(-0.538497 4.0955 2.07686)
(-0.650783 3.87742 2.21047)
(1.37205 2.83914 2.21523)
(1.14319 2.73454 2.18331)
(0.568042 2.69216 2.52662)
(2.00415 1.97804 3.86404)
(3.46756 2.75904 2.16887)
(3.45881 3.83959 2.84284)
(0.259123 4.90472 -0.852372)
(-0.753233 3.91915 2.50415)
(0.607204 3.68417 2.74262)
(-0.515902 3.67718 2.29871)
(0.173364 3.46167 2.07042)
(0.309884 2.98782 1.88343)
(0.450807 2.39473 1.21297)
(0.844148 1.99801 1.15394)
(0.603304 1.77665 1.21342)
(1.17149 1.29547 1.86947)
(2.08257 1.67717 1.20138)
(2.56133 2.93541 1.67851)
(1.72784 4.39296 0.250108)
(-0.163976 3.1544 3.0368)
(-0.783025 2.7114 2.41553)
(-0.532382 2.47949 2.13614)
(-0.205298 2.20874 2.01849)
(0.578895 1.92191 1.54842)
(0.92287 1.69486 1.39014)
(0.714628 1.43459 1.03456)
(0.880939 1.26329 0.904615)
(0.585008 1.32636 0.442501)
(1.28499 0.529412 -0.189741)
(1.96325 -0.325576 0.533782)
(2.71801 0.626784 0.425613)
(2.3469 2.68693 -0.062471)
(-1.62576 1.69878 2.03381)
(-1.32425 0.915666 2.0861)
(-0.046589 1.03778 1.55283)
(0.273519 0.53422 1.53107)
(0.687779 0.506027 1.10362)
(0.810944 0.479561 0.647238)
(0.539403 0.774329 0.602748)
(0.57481 0.961868 0.834347)
(0.884029 1.03329 0.648247)
(0.388146 0.998814 0.752787)
(0.206446 0.63599 1.12944)
(0.486064 1.29756 1.37884)
(-0.0421748 1.36604 1.37326)
(0.555134 1.6796 0.419351)
(-1.65702 0.0300203 1.55045)
(-1.50449 -0.961825 1.49926)
(-0.297372 -1.32523 0.970407)
(0.121954 -1.26141 0.629902)
(0.503502 -1.16408 0.534957)
(0.972422 -0.943833 0.47522)
(1.41323 -0.567284 -0.180817)
(0.663992 0.333704 -0.211477)
(0.723848 0.38877 -0.634429)
(1.31721 0.313738 -1.13849)
(0.658649 1.35878 -0.718617)
(0.360046 1.21159 -0.228998)
(0.453472 1.11775 -0.872158)
(-0.341347 0.885515 0.994831)
(0.227726 0.378538 1.0002)
(-0.722344 -0.665032 0.618861)
(-1.08466 -1.02427 0.970716)
(-0.860581 -2.08844 0.783331)
(-0.0338222 -1.76034 0.0313977)
(0.433226 -1.57996 -0.151654)
(0.700955 -1.4524 0.0176801)
(1.44873 -0.856329 0.204573)
(1.14033 0.221208 0.373623)
(0.695981 0.457144 -0.303925)
(0.599842 0.231058 -0.410541)
(1.10767 0.52233 -0.761791)
(0.749574 1.12024 -1.08437)
(0.257509 0.959104 -1.06754)
(-0.0804246 1.18638 -1.37218)
(0.163421 0.746098 -0.863101)
(-0.662565 0.610261 -0.0256419)
(-0.970352 1.82939 0.0919724)
(-0.94934 2.2905 0.179147)
(-1.47586 2.0238 0.0941795)
(-0.946474 1.97993 -0.0949843)
(-0.624317 2.50499 0.00796761)
(-0.324541 2.51405 0.113905)
(-0.521368 2.50652 0.169392)
(-0.65842 2.23646 -0.0233887)
(-0.392527 2.66532 0.272113)
(-0.395955 2.74482 0.36323)
(-0.66936 2.69563 0.0551988)
(-0.867965 2.48485 0.100083)
(-1.03372 2.26733 0.133455)
(-0.668276 2.78298 0.592286)
(-0.443706 2.78632 0.621805)
(-0.16216 2.88815 0.612155)
(0.0177726 2.84695 0.455979)
(-0.0139328 2.90364 0.456913)
(-0.881404 2.57642 0.0588678)
(-0.681392 2.37163 0.147827)
(-0.368581 3.17944 0.991868)
(-0.390119 3.159 0.774881)
(-0.411131 3.13808 0.710423)
(0.194253 3.11966 0.499322)
(0.0161169 3.13833 0.502563)
(-0.0588421 3.15629 0.404142)
(-0.0598016 2.99964 0.232038)
(-0.43736 2.75347 0.0872254)
(-0.781327 3.39455 0.92598)
(-0.426093 3.44891 0.908661)
(-0.0519097 3.60445 0.725451)
(0.118569 3.61597 0.478154)
(0.404985 3.52462 0.374352)
(0.377768 3.4769 0.319437)
(0.719198 3.26479 0.484794)
(0.527851 3.51565 0.337829)
(0.235001 2.9425 -0.0310439)
(-0.527404 3.92885 0.850121)
(-0.342438 4.08899 0.902075)
(-0.378152 4.13148 1.0028)
(-0.107298 3.82503 1.71441)
(0.40598 4.17926 1.04769)
(0.976862 3.82576 1.42805)
(0.299235 4.06807 0.987658)
(0.504585 4.24263 -0.0533508)
(0.937086 3.0956 0.902701)
(-0.06535 3.76017 -1.02371)
(-0.660756 4.37046 1.72901)
(-0.652183 4.27258 1.93674)
(-0.515185 4.2032 2.16811)
(-0.292095 4.05722 2.25282)
(-0.558163 3.81614 2.06037)
(0.911172 3.58001 2.19668)
(1.36177 3.84452 2.2693)
(1.49385 3.98312 2.3484)
(2.07393 3.77795 1.91027)
(0.926569 4.40869 0.131163)
(1.20283 3.91253 0.549432)
(-0.950273 4.41858 2.15531)
(-0.803999 4.3293 2.06706)
(-0.755027 4.30711 2.05849)
(1.21182 3.64386 2.52719)
(0.408419 3.66768 2.12821)
(-0.0238848 3.30971 1.34304)
(0.98911 2.3886 1.9198)
(1.17174 2.57952 2.05706)
(2.3104 1.4415 3.72626)
(3.98099 2.4133 1.59181)
(3.81561 3.39674 2.50892)
(0.804101 5.02045 -0.683052)
(-0.983744 4.09985 2.37713)
(-0.558405 3.84771 2.52188)
(-1.6737 4.02788 1.82031)
(-0.626788 3.69823 2.13168)
(-0.313 3.50599 1.90703)
(0.720592 2.8673 1.70633)
(0.86804 2.2321 1.17863)
(1.12091 1.67531 0.856007)
(0.867048 1.60122 0.700358)
(1.23065 1.45312 1.10888)
(2.47585 1.12334 1.10646)
(3.26916 2.42281 1.32553)
(2.2497 3.93872 0.344892)
(-1.21267 3.18542 2.41038)
(-1.51537 3.10628 2.32196)
(-0.651622 2.60841 2.35822)
(-0.144199 2.17876 2.25541)
(-0.162702 2.14246 1.84245)
(0.331084 1.79194 1.51703)
(0.949283 1.56173 1.19629)
(0.866164 1.35553 0.837369)
(0.906764 1.27444 0.648899)
(1.2166 1.0737 0.263684)
(1.2818 0.529436 -0.186756)
(2.04695 -0.205456 0.159384)
(2.48316 1.09584 0.46691)
(2.53669 2.47948 -0.00268076)
(-1.41085 2.17931 1.48759)
(-1.50622 1.59391 2.05554)
(-1.16787 0.820661 2.04905)
(0.183407 0.851403 1.49438)
(0.396457 0.418935 1.45826)
(0.79468 0.430471 1.08744)
(0.888779 0.351593 0.587261)
(0.58144 0.699307 0.489704)
(0.768723 0.814006 0.558017)
(0.965597 0.878615 0.449633)
(0.36404 1.04101 0.683271)
(0.139004 0.690332 0.935837)
(0.710667 1.30087 0.5323)
(0.223591 1.36554 0.480378)
(0.82645 1.53034 0.418838)
(-1.43268 0.355657 1.41844)
(-1.62503 -0.0121148 1.53082)
(-1.16454 -1.24526 1.44545)
(-0.319908 -1.37469 0.993618)
(0.22772 -1.28138 0.676715)
(0.512995 -1.24226 0.591906)
(1.10002 -0.943744 0.465541)
(1.49476 -0.591089 -0.0781327)
(0.841169 0.246295 -0.312592)
(0.961869 0.262692 -0.745466)
(1.29674 0.301843 -0.995612)
(0.521396 1.40819 -0.634062)
(0.345977 1.20297 -0.241423)
(0.451236 1.12821 -1.02687)
(-0.330828 0.715795 0.795171)
(0.322774 0.347642 0.659106)
(-0.319172 -0.351233 0.154944)
(-0.721768 -0.703139 0.599835)
(-1.05725 -1.04004 0.958167)
(-0.913633 -2.07294 0.786281)
(-0.0205512 -1.76154 0.0233134)
(0.440586 -1.5859 -0.174887)
(0.709035 -1.49786 -0.0327933)
(1.45698 -0.874049 0.26224)
(1.13731 0.261675 0.331297)
(0.761678 0.436253 -0.17842)
(0.642977 0.218536 -0.336047)
(1.06563 0.600363 -0.783275)
(0.740299 1.14792 -1.04676)
(0.236301 0.98305 -1.04111)
(-0.0787655 1.21596 -1.35709)
(0.0873514 0.768263 -0.902046)
(-0.64221 0.576979 -0.0170792)
(-0.987711 1.67102 -0.0761397)
(-0.491493 2.23218 -0.0240323)
(-0.897391 1.8579 0.0798542)
(-0.687269 2.37069 0.321202)
(-0.773733 2.34651 0.103499)
(-1.2586 2.1449 0.0176975)
(-0.927447 1.98771 -0.139304)
(-0.497925 2.54081 0.313714)
(-0.47671 2.52979 0.0373248)
(-0.391756 2.52961 0.100573)
(-0.0349721 2.58944 0.0686407)
(-0.502305 2.29378 -0.0233778)
(-0.387806 2.64206 0.520094)
(-0.254167 2.75311 0.263076)
(-0.307294 2.76724 0.315003)
(-0.570929 2.7123 0.0102155)
(-0.445343 2.58092 0.100154)
(-0.913509 2.31482 0.186232)
(-0.700059 2.80383 0.728007)
(-0.480083 2.80642 0.603431)
(-0.260974 2.878 0.644327)
(0.0563456 2.85324 0.603098)
(0.103052 2.8441 0.481959)
(0.288702 2.81044 0.487449)
(-0.192611 2.73018 0.138199)
(-0.470117 2.45482 0.123946)
(-0.611201 3.10426 0.970309)
(-0.404563 3.21601 0.880345)
(-0.229393 3.23772 0.767323)
(-0.155046 3.11521 0.67026)
(0.133449 3.11415 0.54529)
(0.121978 3.1237 0.44641)
(0.117505 3.15743 0.449997)
(-0.0493379 3.01127 0.131595)
(-0.404199 2.74219 0.23998)
(-0.832238 3.45179 1.08944)
(-0.636503 3.43638 0.940532)
(0.0441977 3.49526 0.934858)
(0.467339 3.62765 0.608908)
(0.256292 3.64594 0.488919)
(0.464221 3.4216 0.537839)
(0.458974 3.57879 0.191897)
(0.781643 3.24325 0.555424)
(0.705148 3.44392 0.188602)
(0.21739 2.98806 0.202068)
(-0.500825 3.89265 0.995341)
(-0.314389 4.00596 0.820688)
(-0.373108 4.07757 0.980356)
(-0.176227 4.11089 1.27577)
(0.56893 3.92378 1.84506)
(0.823859 4.05662 1.36786)
(0.970055 3.99101 1.13465)
(1.07006 3.87715 1.29308)
(0.84243 4.15336 -0.0445128)
(1.10254 3.24712 0.365831)
(0.0362865 3.56125 -0.667381)
(-0.784404 4.22516 1.77293)
(-0.499671 4.40362 1.77995)
(-0.428702 4.3695 2.0523)
(-0.169502 3.83847 2.42804)
(0.201376 3.74999 2.35287)
(1.57179 3.44657 2.21431)
(1.07022 3.19301 2.15618)
(1.86046 3.42507 2.51894)
(1.8645 3.73548 2.57199)
(2.81229 3.20199 1.89003)
(1.14929 4.30869 0.554754)
(1.37862 4.07 -0.654728)
(-0.875098 4.42821 2.19673)
(-0.958356 4.35096 2.1538)
(-0.317384 4.39154 2.19393)
(-0.0973379 4.19051 2.01587)
(-0.0483807 3.71865 1.97719)
(0.198448 3.61162 1.77201)
(1.22375 2.72101 1.49345)
(0.603968 2.54431 1.37894)
(1.97796 1.12802 2.70646)
(2.62885 1.23609 3.04952)
(4.0676 2.37411 1.14792)
(3.9193 2.97409 2.43763)
(1.64784 4.62728 -0.339056)
(-1.2034 4.13923 2.18383)
(-0.813361 4.08496 2.3449)
(-1.08612 3.88259 2.3921)
(-0.141402 3.71598 2.41458)
(-0.676077 3.70031 2.05917)
(-0.525377 3.3333 1.81204)
(0.386043 2.84286 1.56299)
(1.06031 2.14138 1.18298)
(0.594532 1.69873 0.831084)
(0.836026 1.65916 0.172942)
(1.18775 1.32894 0.749539)