/*--------------------------------*- C++ -*----------------------------------*\
  =========                 |
  \\      /  F ield         | OpenFOAM: The Open Source CFD Toolbox
   \\    /   O peration     | Website:  https://openfoam.org
    \\  /    A nd           | Version:  7
     \\/     M anipulation  |
\*---------------------------------------------------------------------------*/
FoamFile
{
    version     2.0;
    format      ascii;
    class       volScalarField;
    location    "3.5";
    object      nut;
}
// * * * * * * * * * * * * * * * * * * * * * * * * * * * * * * * * * * * * * //

dimensions      [0 2 -1 0 0 0 0];

internalField   nonuniform List<scalar> 
18750
(
0.000909327
0.000988271
0.000987526
0.000669835
0.00137425
0.00103209
0.00128811
0.00108769
0.000903248
0.000534803
0.0023358
0.00118491
0.00470941
0.00117335
0.00108154
0.000649647
0.00115192
0.00101403
7.38592e-05
0.000361817
0.00223318
0.00179845
0.00109126
0.0011993
0.00102509
0.00146634
0.0012209
0.00117118
0.000410221
0.000776127
0.0011292
0.00104871
0.000135527
0.000323909
0.000296431
0.00308121
0.00251619
0.0018191
0.00288586
0.00157541
0.00134165
0.00110585
0.0018033
0.00168765
0.00154456
0.00119855
0.00102586
0.000454407
0.000793758
0.000406549
0.00102603
0.00105668
0.000132086
0.000248243
0.000280909
0.000254132
0.00293483
0.00316855
0.00105335
0.00245756
0.00123579
0.00109018
0.00250226
0.00133592
0.00124289
0.000396675
0.00103396
0.00165278
0.00154911
0.000531197
0.00176869
0.00109405
0.0013354
0.000779036
0.000982648
0.000505616
0.000598489
0.000838825
0.00104355
0.000210959
0.000189776
0.000267502
0.000244778
0.000251551
0.00256589
0.0028479
0.00088957
0.00292467
0.000653261
0.000463181
0.00311874
0.00241864
0.000871743
0.000629919
0.00227537
0.000659603
0.0013071
0.000986468
0.000545545
0.00106455
0.000634535
0.000954602
0.000698242
0.0016989
0.000995161
0.000870366
0.00122296
0.000430718
0.000986917
0.000656508
0.000771244
0.000683263
0.00054633
0.000976622
0.000443712
0.00018946
0.000267909
0.000269985
0.000252378
0.000392578
0.00244602
0.00260623
0.00049458
0.00268623
0.000890574
0.0010919
0.00365932
0.000828146
0.000412872
0.000550574
0.00312969
0.00123025
0.0013242
0.000598947
0.000513064
0.00187803
0.000997916
0.00173978
0.00164606
0.000551178
0.00109097
0.00145766
0.000799872
0.000542704
0.00179712
0.00144758
0.000999757
0.0011475
0.000834829
0.00128996
0.000462633
0.000772315
0.00069294
0.000776821
0.000762034
0.000504658
0.00028566
0.000876362
0.000419996
0.00014537
0.000329216
0.000275671
0.000269986
0.000326754
0.0002502
0.00226777
0.00233878
0.000800289
0.00267898
0.000957335
0.00124409
0.0028035
0.00120178
0.00105551
0.000418323
0.00456732
0.00131087
0.000840874
0.000584906
0.000930199
0.00332177
0.0014954
0.00119347
0.000687915
0.000450555
0.000329665
0.00201791
0.00115675
0.00175857
0.00124054
0.000679388
0.00121749
0.000590242
0.0016661
0.00109917
0.000630139
0.00276911
0.00145666
0.00113176
0.000737127
0.000763352
0.000834037
0.00113268
0.000898358
0.000565459
0.000646246
0.000692956
0.000722995
0.000495391
0.000366614
0.000290776
0.000753654
0.000223455
0.000209014
0.000272845
0.000271935
0.000318345
0.000172073
0.00031142
0.000266792
0.00236931
0.00226202
0.000665116
0.00254637
0.00101084
0.000615225
0.00303099
0.00150908
0.000703557
0.000750731
0.00315344
0.0010304
0.000874286
0.00107736
0.00133065
0.00389284
0.00171107
0.000605561
0.000338351
0.000398535
0.000678807
0.00358601
0.00159612
0.000402452
0.000857568
0.000455221
0.000522523
0.000711787
0.00246351
0.00136771
0.00125545
0.00149486
0.00123146
0.00101456
0.00061254
0.00122565
0.0018797
0.000900945
0.000925925
0.00231799
0.00133865
0.00114437
0.000653851
0.000929696
0.000782877
0.000782474
0.000549405
0.000616032
0.000396963
0.000595719
0.000562117
0.000503482
0.000537632
0.000315141
0.000515893
0.000255114
0.000591285
0.000262222
0.000285765
0.00025618
0.000294245
0.000159706
0.000343134
0.000215713
0.00030575
0.000366684
0.0022437
0.00241228
0.000711271
0.00242622
0.00054866
0.000421311
0.00249506
0.000539328
0.000643865
0.00106937
0.00311281
0.000844432
0.00077746
0.00159309
0.000808861
0.00432021
0.00150651
0.00113231
0.00101001
0.000577576
0.00080315
0.00364334
0.00195293
0.0010182
0.000276606
0.000189382
0.000521393
0.000604375
0.00320999
0.00138625
0.000872569
0.000988639
0.00073995
0.000767369
0.00107916
0.000954433
0.00228377
0.00133957
0.000780426
0.00208258
0.00156732
0.00101013
0.000780414
0.0019191
0.000416341
0.00183101
0.000808023
0.00112314
0.00184095
0.00144897
0.000962485
0.000457306
0.000742481
0.000623819
0.000617347
0.000733814
0.000200583
0.00044904
0.000508878
0.000572632
0.000404189
0.000398178
0.000378273
0.000480657
0.00075196
0.000361684
0.000243802
0.000420208
0.000259653
0.000178146
0.00029561
0.000316379
0.000151413
0.000398007
9.44677e-05
0.000341445
0.000362113
0.000311061
0.00224272
0.00226268
0.000519437
0.0023944
0.00229675
0.000800361
0.000525644
0.00237943
0.000558266
0.000424445
0.000425553
0.00255584
0.00084642
0.000821276
0.000571425
0.000785569
0.0029589
0.000543912
0.00129942
0.00109924
0.000732088
0.00100096
0.00459365
0.000797721
0.001343
0.00116366
0.000583771
0.000690753
0.000790688
0.00321929
0.00140253
0.00106815
0.000834391
0.000559431
0.000563963
0.000508268
0.000446929
0.00260686
0.00131293
0.000798269
0.000537196
0.000463331
0.000695499
0.00117703
0.00123045
0.000757149
0.00271138
0.0015657
0.00126924
0.00228929
0.00197396
0.000757036
0.000635728
0.00102648
0.00170222
0.00121576
0.00139098
0.000789106
0.00121162
0.00129617
0.00115279
0.000918035
0.000423103
0.000527564
0.000564841
0.000513958
0.000618869
0.000700756
0.000176126
0.00062224
0.000536569
0.000526566
0.000339455
0.000421343
0.000310084
0.000611918
0.000869317
0.000641402
0.000491406
0.000371819
0.000287631
0.00021659
0.000119054
0.000270296
0.00037256
0.000185825
0.000242063
0.000128661
0.000363604
0.000212932
0.000349527
0.000346379
0.00212825
0.00229167
0.000652789
0.00233433
0.00228592
0.000745391
0.000398226
0.000680848
0.00241503
0.000799963
0.00061017
0.000616798
0.00245579
0.000767745
0.000597991
0.000602792
0.000667453
0.00286971
0.000827843
0.000590563
0.000678363
0.000832974
0.000982713
0.00289623
0.000615252
0.000986473
0.00104751
0.000784822
0.000930587
0.000898592
0.00369177
0.000971624
0.00116379
0.00104177
0.000692843
0.000541869
0.000700911
0.000507205
0.00261708
0.00101945
0.000952132
0.000822179
0.000427325
0.000704033
0.000555668
0.000608013
0.0008634
0.00207857
0.00113436
0.000715437
0.000745414
0.000523155
0.00103613
0.00127117
0.000636372
0.000382699
0.00128271
0.0027028
0.0017714
0.00132584
0.000984556
0.00279743
0.00154299
0.00121597
0.00179115
0.00149372
0.000629559
0.000810423
0.00124219
0.000757195
0.00110365
0.000693501
0.00145024
0.00114409
0.000644948
0.000770714
0.000649016
0.000483889
0.000525984
0.000616031
0.000766033
0.000228458
0.000516857
0.000363767
0.000422546
0.000314942
0.000515838
0.000504659
0.000648267
0.000849244
0.000819366
0.000726187
0.000498793
0.000505709
0.000186979
0.000153976
0.000214807
0.000243643
0.000435169
0.000145339
0.000207873
0.000150114
0.000346129
0.000134555
0.000388561
0.000276037
9.46662e-05
0.00217008
0.00217598
0.000517897
0.00234287
0.00228581
0.000586902
0.000261863
0.000619088
0.00230109
0.000550236
0.000496615
0.000369687
0.000399905
0.00243745
0.000998256
0.000542151
0.000424076
0.000696784
0.00242791
0.0003539
0.000488378
0.000672063
0.000585325
0.00112548
0.00295117
0.000654912
0.000497302
0.000774737
0.00102068
0.0013508
0.000728351
0.00301192
0.00138922
0.00098953
0.00126227
0.00111706
0.000946419
0.000689574
0.000742112
0.00352617
0.00146654
0.00151401
0.00112779
0.000660488
0.000794186
0.000453833
0.000754813
0.000662227
0.00214383
0.00255383
0.000494103
0.000694698
0.000573905
0.0013461
0.000604325
0.000999977
0.000759703
0.000439859
0.0020841
0.00131109
0.00120495
0.00122944
0.00106016
0.00229221
0.000993619
0.000641779
0.000439322
0.000999204
0.0012873
0.00270763
0.00138943
0.00152103
0.00078456
0.00131288
0.00114027
0.00102481
0.0015431
0.000455522
0.000663358
0.000669117
0.000679305
0.000981727
0.000837087
0.0011004
0.0005841
0.00154445
0.00110245
0.000598062
0.000775108
0.000709047
0.00048275
0.000482818
0.000538396
0.000496368
0.000818963
0.000225972
0.00037486
0.000535152
0.000452406
0.000331531
0.000542278
0.000531593
0.000617906
0.000650942
0.000838866
0.000773526
0.000677869
0.000605684
0.000260783
0.000144897
0.000342635
8.28795e-05
0.000266279
0.000449923
0.000323402
0.000224657
0.000175999
0.000310255
0.00021428
0.000377498
0.000137192
0.000130648
0.000161537
0.00212782
0.00220077
0.000562986
0.0022798
0.00223682
0.000501356
0.000335184
0.000440445
0.00231533
0.000673593
0.000478238
0.000531451
0.000352278
0.00237121
0.000610545
0.000580587
0.000293445
0.000405516
0.000558325
0.00253982
0.000986719
0.000711033
0.000440863
0.0005546
0.000904243
0.00251861
0.000621952
0.000673991
0.00052598
0.000870048
0.00112194
0.00113218
0.00282051
0.000949433
0.000675357
0.000838464
0.00125631
0.000883054
0.000957624
0.000908829
0.00304718
0.00144988
0.00107531
0.00144354
0.00144913
0.00102173
0.000602442
0.000796634
0.000784611
0.00311945
0.00165002
0.00140029
0.00139376
0.0010129
0.000761631
0.000440042
0.000955781
0.000729304
0.000810209
0.00174277
0.00171322
0.00108332
0.000747976
0.000719391
0.000600782
0.000983001
0.000632054
0.000690589
0.000383525
0.000608994
0.00256447
0.00110565
0.000748412
0.00113714
0.00115189
0.0024237
0.000907468
0.000711648
0.000601171
0.000607253
0.000879283
0.00119716
0.00307109
0.00119426
0.00120849
0.00155859
0.00145416
0.00118326
0.000899296
0.000701966
0.000524409
0.00056736
0.000685078
0.000544911
0.000639934
0.000933807
0.00100285
0.00107524
0.000918991
0.00171669
0.000569956
0.000508882
0.000662617
0.000533981
0.000361509
0.000460993
0.000450646
0.000631178
0.00084789
0.00077086
0.000262945
0.000229754
0.000518029
0.000436897
0.000330028
0.000569527
0.000489387
0.000502158
0.000463388
0.000587538
0.000641766
0.000682125
0.000722141
0.000328031
0.000269746
0.000132041
0.000328969
0.000204565
0.000295114
0.000456899
0.00045161
0.00030615
0.000176502
0.000345575
0.000287302
0.000329922
0.000141198
0.000167544
0.000137112
9.01989e-05
0.00204191
0.00212123
0.000491972
0.00224137
0.0022396
0.000515627
0.000423591
0.000469377
0.00232663
0.00229456
0.000647695
0.000529469
0.000219723
0.000396156
0.00242812
0.000745695
0.000503513
0.000427619
0.000631546
0.000775924
0.00231188
0.000548348
0.000609773
0.000350802
0.000402676
0.00028922
0.000656635
0.00251241
0.0012083
0.00095578
0.000336202
0.000655513
0.000770552
0.00120355
0.00264017
0.00130905
0.000510827
0.000670286
0.000849936
0.00121234
0.00112862
0.000738269
0.0028346
0.000710378
0.000861468
0.000688145
0.00105626
0.0014318
0.00100064
0.00084428
0.00103268
0.00311014
0.000988549
0.00104201
0.00112781
0.00113669
0.00116997
0.000983766
0.000589158
0.000669411
0.000851745
0.00274563
0.00152143
0.00131689
0.00130113
0.00062693
0.000453369
0.000771348
0.000594968
0.000656541
0.000770205
0.000693357
0.00178271
0.0016979
0.00160082
0.00103531
0.000699288
0.00102832
0.000630149
0.000740725
0.000578081
0.000458067
0.00059769
0.000523393
0.00269782
0.00133832
0.00166614
0.00150297
0.00133963
0.000836097
0.0015667
0.00155159
0.000719622
0.00107678
0.000673973
0.000516232
0.00145114
0.00276383
0.00128274
0.00119831
0.00223273
0.0012022
0.000915054
0.00102333
0.000988797
0.000618749
0.000542345
0.000564261
0.000569196
0.000637239
0.000725931
0.00125692
0.00106091
0.000997157
0.0014798
0.00175847
0.000487886
0.000519735
0.000652568
0.000354458
0.000237125
0.00041532
0.000298607
0.000636728
0.000503926
0.000225815
0.000669851
0.000301074
0.000191772
0.000577196
0.000276048
0.000352481
0.000606371
0.000426943
0.00028207
0.000303297
0.000185086
0.000385863
0.000550917
0.000674667
0.000356716
0.000272153
0.000468452
0.000139115
0.000403687
0.000213187
0.000338657
0.00041704
0.000433459
0.00033882
0.00019263
0.000364752
0.000328131
0.000276222
0.000227308
0.000107034
8.94891e-05
0.000110973
0.000120053
0.0020214
0.00206625
0.00037522
0.00222911
0.00219279
0.00049952
0.000461321
0.000497721
0.00224866
0.0022809
0.000544756
0.000328174
0.000167857
0.000285147
0.00039847
0.00223513
0.00063454
0.000558336
0.000142138
0.000591839
0.000211191
0.00231465
0.000636004
0.000624547
0.000369266
0.000622867
0.000399782
0.000573283
0.00237848
0.000570719
0.000431009
0.00047202
0.00049246
0.000514858
0.000815948
0.00075399
0.00254433
0.000486933
0.000856271
0.000601318
0.000528409
0.00089755
0.000842906
0.000737981
0.00270532
0.000695269
0.000870843
0.000439961
0.000494281
0.00149836
0.00101121
0.000865234
0.000643851
0.00275409
0.000664135
0.000839986
0.000664089
0.00105486
0.0012825
0.00109086
0.000885446
0.000582754
0.000938602
0.00289956
0.000930261
0.00095436
0.000995186
0.00103595
0.000851272
0.000904953
0.000760429
0.000528924
0.000648534
0.000450715
0.00252041
0.00185497
0.00137389
0.00153523
0.000782619
0.000401525
0.000967579
0.000675476
0.000526472
0.000539121
0.000348778
0.000581034
0.00177711
0.00127256
0.00284627
0.00121285
0.000778549
0.000754113
0.00146587
0.000858046
0.000753104
0.000591179
0.000440612
0.000654551
0.000809098
0.00255891
0.0014767
0.000922403
0.00145395
0.000891426
0.00106996
0.0012514
0.00166945
0.000636596
0.000502446
0.000692357
0.00103026
0.000943943
0.00113912
0.00196479
0.00144436
0.000935368
0.00178851
0.0012845
0.000766505
0.000829748
0.00102397
0.000576598
0.000445599
0.00044436
0.000394186
0.000578217
0.000929256
0.000656031
0.00127373
0.000910498
0.000824379
0.00172118
0.00134095
0.000915451
0.00044066
0.000504071
0.000368246
0.000239375
0.000340507
0.000378438
0.000485396
0.000391014
0.000292006
0.000294222
0.000645076
0.000256301
0.00018664
0.000424124
0.000150124
0.000444283
0.000587431
0.000440847
0.000252069
0.000176596
0.000303582
0.000305978
0.000355169
0.00045812
0.000368265
0.000221626
0.000184638
0.000317667
0.000128832
0.000188841
0.000301789
0.000386265
0.000364993
0.000363382
0.000311023
0.000226979
0.000368997
0.000365848
0.0002097
0.000186949
8.36445e-05
8.23718e-05
0.000113615
0.000123517
7.66288e-05
0.00208377
0.00211669
0.000248954
0.0022167
0.00214075
0.000367602
0.000355065
0.000539267
0.00219374
0.00216628
0.000597632
0.000447362
0.00021301
0.000412243
0.000361194
0.00224313
0.000450208
0.00044452
0.000309525
0.000205224
0.000324608
0.000363612
0.00223629
0.000531009
0.000695358
0.000435549
0.000424567
0.000683772
0.000679848
0.00233244
0.00067095
0.000672866
0.000282487
0.000602813
0.000663005
0.00033776
0.000163964
0.00237421
0.000590217
0.000677344
0.000409749
0.000492774
0.000499531
0.000584933
0.000897013
0.000779951
0.00251009
0.000789958
0.000782642
0.000565194
0.000614322
0.000678187
0.000872828
0.00114541
0.000473468
0.00278877
0.000708347
0.000536329
0.000852875
0.000778179
0.00102471
0.000981919
0.00116323
0.000471155
0.000638118
0.00278862
0.0010297
0.00075457
0.000927017
0.00111457
0.0011071
0.000991932
0.00114932
0.000730055
0.000662672
0.000978964
0.00269035
0.00120667
0.000793576
0.000963119
0.00156444
0.00110213
0.000753383
0.00092282
0.000641351
0.000691245
0.000734909
0.00100558
0.00277502
0.00147815
0.000727336
0.00123097
0.0012562
0.00103014
0.000941858
0.000535112
0.000245222
0.000249146
0.000176075
0.000461791
0.000954039
0.00178661
0.00118996
0.00171751
0.00217401
0.0012645
0.00140245
0.00148906
0.000466149
0.000579945
0.000831671
0.00100589
0.000573731
0.00102704
0.000407293
0.00315013
0.00216452
0.00113243
0.000820684
0.000668724
0.00099996
0.000370135
0.00103816
0.000506363
0.000494075
0.000807509
0.000505975
0.00140988
0.00097707
0.000749488
0.00136379
0.00134327
0.00103287
0.000987883
0.00130082
0.00073191
0.000851471
0.00108802
0.0006536
0.000615313
0.000571211
0.000528547
0.000841721
0.000725029
0.000597679
0.000470846
0.000672461
0.000761921
0.000628739
0.0018672
0.00144196
0.0011774
0.000484132
0.000364981
0.000294893
0.000283524
0.000347266
0.000384634
0.000409079
0.000269944
0.000517321
0.000244585
0.000243455
0.000644894
0.000191725
0.000267171
0.000186653
0.000263097
0.000457555
0.000484389
0.00036764
0.000283906
0.000142547
0.000337886
0.000335807
0.000334461
0.000235562
0.000387961
0.000178828
0.000220799
0.000249942
0.000285036
0.000140153
0.000273524
0.00027069
0.000413651
0.000316028
0.000240966
0.000274192
0.000222078
0.000354446
0.000343793
0.000155386
0.000136899
7.0534e-05
9.62438e-05
0.00015478
0.000135248
7.18998e-05
0.000121486
0.00215135
0.00205098
0.000482288
0.00224331
0.0022079
0.000349308
0.000176499
0.000342855
0.00219532
0.00221254
0.000442845
0.000243988
0.000345247
0.000526562
0.00047531
0.00224257
0.000425461
0.000581207
0.000438216
0.000344391
0.000355472
0.000306796
0.0022646
0.000539723
0.000501562
0.000424292
0.000317301
0.000408689
0.000559583
0.000411973
0.00230109
0.00055672
0.000560639
0.00010574
0.000469411
0.000584374
0.000553695
0.000411664
0.00233103
0.000608005
0.000796569
0.000288342
0.000584634
0.000770273
0.000705764
0.000472803
0.000944862
0.00238671
0.000693517
0.000682678
0.000223707
0.000502362
0.000696521
0.000728161
0.000690528
0.00058605
0.00040841
0.00247867
0.000775896
0.000513021
0.000639928
0.000569573
0.000672769
0.00103769
0.00114561
0.00101385
0.000789845
0.00264338
0.000701923
0.000694787
0.000793383
0.000846668
0.0010687
0.00103759
0.00123265
0.000791111
0.000953651
0.000486765
0.00284264
0.000611244
0.000735548
0.000874219
0.00122885
0.0013614
0.000960191
0.000980459
0.000960969
0.00109151
0.000737724
0.000760428
0.00265448
0.000957275
0.00090747
0.0011226
0.0015841
0.00140359
0.000795201
0.000836032
0.000703337
0.000632486
0.000772458
0.000685076
0.000908151
0.00273441
0.00150314
0.00147148
0.000965275
0.00160023
0.00158889
0.000570994
0.000581336
0.000512302
0.000607335
0.000796405
0.000383245
0.000543518
0.000926864
0.00222379
0.00230064
0.00125822
0.001518
0.00121668
0.00134595
0.000651733
0.000814092
0.00124717
0.00111335
0.000888949
0.000657518
0.000980649
0.000854766
0.00104174
0.00331578
0.00116722
0.00106502
0.00123896
0.000192589
0.000491957
0.000282151
0.000371412
0.000835375
0.000423842
0.00071508
0.000878266
0.000533219
0.00064085
0.000737457
0.000521658
0.00158853
0.00121054
0.00121442
0.000706135
0.00118412
0.000908779
0.000521121
0.000741588
0.000819668
0.000588388
0.000603088
0.000570656
0.000592412
0.000671075
0.000416211
0.000348696
0.000219891
0.00041238
0.000733419
0.000515028
0.00122694
0.00122364
0.000868419
0.000523908
0.000439894
0.000180775
0.000355351
0.00041222
0.000365582
0.000481009
0.00031722
0.000358377
0.000342381
0.000324747
0.00030137
0.000648403
0.000136393
0.000356684
8.29381e-05
0.000305971
0.0004009
0.000408049
0.000270699
0.000324444
0.00022516
0.000308497
0.00032497
0.000363763
0.000327258
0.000445133
0.000271529
0.000267897
0.000254525
0.000373549
0.0003476
0.000184651
0.000407141
0.000266246
0.0004025
0.000258085
0.000174037
0.000248356
0.000173373
0.00029857
0.000281001
0.000166076
0.000107295
7.90708e-05
0.000125026
0.000165716
0.000134861
8.01437e-05
7.79519e-05
8.07136e-05
0.00204977
0.00213769
0.000355812
0.00229217
0.00212974
0.000346774
0.00041566
0.000415188
0.00227562
0.00213138
0.000408732
0.000271443
0.000296148
0.000186583
0.000357929
0.00224442
0.000475154
0.000306229
0.00045299
0.000151618
0.000318141
0.000346901
0.00227814
0.000247444
0.00035985
0.00030477
0.000435181
0.000446199
0.000186095
0.000328822
0.00224671
0.000564898
0.000606258
0.000396577
0.000257663
0.000472095
0.000345103
0.00053538
0.000509975
0.00221593
0.00062665
0.000628799
0.000563675
0.000507093
0.000559269
0.000526819
0.000329163
0.000470834
0.00232317
0.000658588
0.000636748
0.000533569
0.000615208
0.000611312
0.000711487
0.000412545
0.00057555
0.000325463
0.00258312
0.000547594
0.000566448
0.000597038
0.0005569
0.000532291
0.000783914
0.000579471
0.000868683
0.000561466
0.000464241
0.00251973
0.0007423
0.000836997
0.000527453
0.000571815
0.000544628
0.0010799
0.00109107
0.00124585
0.00106451
0.000753144
0.00278801
0.000748006
0.000876528
0.000282489
0.00074773
0.00103916
0.00125135
0.00106395
0.00122079
0.00102157
0.000610474
0.000264511
0.00292877
0.000778223
0.000760156
0.000927527
0.000972388
0.00127224
0.00137288
0.000862638
0.000754038
0.000759623
0.000449558
0.00058785
0.00064437
0.00278986
0.00115605
0.00129009
0.00134835
0.0014283
0.00122944
0.00140589
0.000956318
0.000659356
0.000640994
0.000446509
0.000714194
0.000651881
0.000826714
0.00289106
0.00125179
0.00149157
0.00127139
0.00151737
0.000723783
0.00102518
0.00116514
0.00142758
0.00126124
0.000943995
0.0005853
0.000580393
0.000380502
0.00102423
0.00266175
0.00185667
0.00106389
0.000909456
0.001349
0.00073504
0.000260796
0.000969144
0.000482428
0.000917068
0.00110122
0.000772477
0.000865214
0.000742935
0.00104017
0.000932344
0.00277081
0.00158794
0.000645487
0.00094888
0.00121319
0.00139109
0.00139172
0.000682824
0.00049667
0.000381471
0.000665782
0.000689749
0.0011473
0.000984203
0.000609481
0.000575578
0.000347241
0.00155161
0.00139195
0.00169687
0.000770561
0.00127475
0.00103983
0.00132796
0.00103864
0.000569463
0.000670859
0.0010371
0.000792984
0.000661295
0.00051694
0.000431966
0.000334485
0.00027375
0.000264599
0.000465786
0.000778185
0.000562276
0.000437158
0.00088319
0.000477365
0.000545009
0.000373396
0.00022599
0.000469082
0.000570016
0.000397037
0.000512955
0.000497463
0.000295989
0.000284532
0.000558845
0.000274769
0.000320528
0.000629269
0.000150392
0.000289011
0.000108532
0.000300627
0.000358144
0.000293656
0.00030872
0.000371721
0.000245433
0.000253558
0.000283547
0.000354327
0.000376084
0.000417627
0.000265887
0.000126719
0.000252652
0.00039333
0.000338033
0.000329052
0.000175713
0.00044203
0.00026649
0.000376651
0.000215306
0.000316966
0.000279479
0.000225286
0.000203465
0.000265871
0.000205957
0.000128878
6.86958e-05
0.000193752
0.000110913
0.000159006
7.23151e-05
9.88781e-05
7.49475e-05
0.000107152
0.00192583
0.00206562
0.000422788
0.00214959
0.00209005
0.000441305
0.000238735
0.000382227
0.00231135
0.00217935
0.000380194
0.000564986
0.000528256
0.000457322
0.000436421
0.00216159
0.000350233
0.000585421
0.00026205
0.000260296
0.000305003
0.000385414
0.0023069
0.000520337
0.000461
0.000172023
0.000263423
0.000350086
0.000489699
0.000454803
0.00225545
0.000313039
0.000427221
0.00050972
0.000330182
0.000338701
0.000480276
0.000594582
0.000352457
0.00219095
0.000442699
0.000694205
0.000802103
0.000320708
0.000289145
0.000397863
0.000247941
0.000498141
0.000469996
0.00223433
0.000404088
0.000724206
0.000617143
0.000670534
0.000304328
0.00042247
0.000373822
0.000356364
0.000457338
0.00231059
0.000663808
0.000743647
0.000714419
0.000679655
0.000472995
0.000542137
0.000551578
0.000530963
0.000501064
0.000436797
0.00255392
0.000654358
0.000710263
0.000721911
0.000649093
0.00050692
0.000646263
0.000633301
0.00112634
0.000734749
0.000638514
0.000454471
0.00264258
0.000748528
0.000730272
0.000680771
0.000632212
0.000580087
0.000871383
0.000911571
0.00141339
0.000925388
0.000774884
0.000931913
0.00281721
0.000823749
0.000924296
0.000582012
0.000681939
0.000908509
0.00129155
0.00124897
0.00095805
0.000842097
0.000617761
0.000894237
0.000562117
0.0028846
0.000925135
0.000973042
0.000703835
0.000876083
0.00121116
0.00159347
0.00132214
0.000559514
0.000601056
0.000515069
0.000740652
0.000566909
0.000605662
0.0027004
0.00103132
0.00115854
0.000973237
0.00135205
0.00113244
0.00128386
0.000948642
0.000419233
0.000459367
0.000621728
0.000750698
0.00055898
0.000721571
0.00106717
0.003396
0.00112653
0.000421703
0.00122655
0.00129301
0.00123004
0.000904368
0.000965062
0.00112509
0.000918322
0.000500423
0.000662019
0.000591233
0.00108867
0.00121083
0.000890221
0.00302652
0.0019643
0.000942749
0.00112863
0.00141629
0.00164947
0.000518058
0.000719054
0.000948406
0.000636034
0.000852051
0.00059077
0.000727799
0.000803596
0.000609598
0.00097958
0.000765065
0.00257918
0.00133453
0.00144798
0.000872327
0.000934947
0.000630193
0.000546901
0.000763705
0.000432345
0.000652281
0.000621548
0.000688531
0.000646161
0.000622546
0.000446795
0.000550888
0.000744493
0.000401849
0.00226124
0.000876112
0.00109777
0.00112179
0.00131032
0.00129721
0.000762916
0.000938644
0.000703625
0.000544491
0.00072785
0.000616496
0.000446398
0.000480956
0.000361554
0.000514365
0.000371315
0.000439965
0.000334775
0.000773877
0.000802268
0.000540741
0.000461983
0.000705846
0.000494161
0.000541666
0.00029749
0.000262405
0.00055789
0.000541867
0.000391332
0.000394402
0.00048777
0.000165265
0.000178792
0.000270514
0.000280377
0.000300569
0.000243411
0.000631551
0.000237417
0.000287332
0.000258223
0.000313261
0.000338704
0.000185382
0.000391044
0.000394299
0.000276954
0.000236822
0.000259095
0.000305057
0.000383123
0.000346498
0.00018255
0.000214068
0.00024645
0.000356486
0.000277963
0.000218235
0.000311911
0.00020787
0.000458526
0.000279711
0.000340734
0.000246286
0.000411173
0.000277895
0.000331264
0.000137682
0.000245287
0.000178718
0.000211578
0.000101829
0.000136734
0.000101752
0.000152597
7.24635e-05
0.000107077
8.32122e-05
0.000141233
9.14666e-05
0.00199155
0.00192625
0.000235098
0.00209764
0.00207476
0.000446778
0.000401937
0.000306369
0.00214137
0.00212594
0.000499405
0.0003806
0.000433697
0.000326981
0.000281466
0.00217037
0.0004836
0.000160337
0.000433991
0.000222043
0.000367128
0.000372401
0.00220471
0.000280285
0.00038515
0.000290913
0.00033113
0.000368773
0.000153997
0.000189967
0.00226599
0.000401261
0.000558123
0.000237409
0.000297297
0.000368793
0.000462511
0.000562874
0.000448869
0.00214613
0.000456763
0.000244509
0.000548962
0.00031257
0.000284701
0.00057337
0.000317165
0.000562506
0.000506232
0.00219645
0.000506547
0.000497737
0.000905608
0.000394747
0.00027953
0.0004482
0.0003381
0.000361893
0.000180616
0.000386473
0.002272
0.000541912
0.000673913
0.000816489
0.000584039
0.000375214
0.000381748
0.000543781
0.000240376
0.000535995
0.000447858
0.00232492
0.000527909
0.000868055
0.000797044
0.000589098
0.00048152
0.000425766
0.00065539
0.000447693
0.000740894
0.000557411
0.000368464
0.0025273
0.000834136
0.000696663
0.00069909
0.000673534
0.000679072
0.000611959
0.000642695
0.000548759
0.00080726
0.000468338
0.000594048
0.0006137
0.00259755
0.000762748
0.000639363
0.000807745
0.000592405
0.000729737
0.000703722
0.000885244
0.000819066
0.000849737
0.000529661
0.000720147
0.00063176
0.00268202
0.000694033
0.000944093
0.000959317
0.000744801
0.000887433
0.000940473
0.00107318
0.00110995
0.000959593
0.00107984
0.000873241
0.00069702
0.000610509
0.00284575
0.000456108
0.000890582
0.000555604
0.000885749
0.00106827
0.00109217
0.000977371
0.0010829
0.000832082
0.00112648
0.000963362
0.000603162
0.000693951
0.000845215
0.0026998
0.00103761
0.000869377
0.000974493
0.000788254
0.00148399
0.000806167
0.000563786
0.000681309
0.000747344
0.000682592
0.000768202
0.000541646
0.000870021
0.000895646
0.000930421
0.00357339
0.00167531
0.000495792
0.00031795
0.000616369
0.00134358
0.00121885
0.000669751
0.000157076
0.000508329
0.000617241
0.000546254
0.000611068
0.000780124
0.000448074
0.00057329
0.000380319
0.00379349
0.00216455
0.00119757
0.000881304
0.000771882
0.00198386
0.000444963
0.000465857
0.000587561
0.000777616
0.00057479
0.00076104
0.000851423
0.000982557
0.000659108
0.000460101
0.000614889
0.00081936
0.00336039
0.00115748
0.000635834
0.00103037
0.00117982
0.00170695
0.00161766
0.00122184
0.000826904
0.000697803
0.000543108
0.00072907
0.000704791
0.000730649
0.000402316
0.000599256
0.000420193
0.00048483
0.000537842
0.00218223
0.000875918
0.00150454
0.00180793
0.00161949
0.00101736
0.000824125
0.000721528
0.000725343
0.000507674
0.000778302
0.000843802
0.000513158
0.000462249
0.000412436
0.000355874
0.000339983
0.000492958
0.000335812
0.000248777
0.000830023
0.000761132
0.000468643
0.000208218
0.000523672
0.000543807
0.000502754
0.000323586
0.000206603
0.000319508
0.000626428
0.000371282
0.000421724
0.000413864
0.000385868
0.000107288
0.000648512
0.000345595
0.000434662
0.00022307
0.0002623
0.000647448
0.00019264
0.000261261
0.000311105
0.000352692
0.000538597
0.00028737
0.000240917
0.000282947
0.000293113
0.000308144
0.000240021
0.000262218
0.000363255
0.0002742
0.000195589
0.000241349
0.000222458
0.000141251
0.000242404
0.000407037
0.000161954
0.000342063
0.000240859
0.000416739
0.000286189
0.000283412
0.000209465
0.000449334
0.000315473
0.000381186
0.000158859
0.000221922
0.000115842
0.000200483
0.000149602
0.000125844
9.75481e-05
0.00017922
8.46384e-05
7.06487e-05
8.81318e-05
0.000149606
7.91938e-05
0.000143951
0.00196847
0.00195648
0.000399975
0.00211798
0.0019451
0.000349124
0.000161041
0.000270606
0.00201088
0.00211563
0.000468055
0.0003325
0.00023399
0.000255167
0.000370499
0.00212417
0.000288887
0.000539248
0.000383083
0.000335698
0.000602396
0.000526685
0.00212943
0.000361478
0.000520916
0.000556169
0.000315156
0.000290211
0.000344683
0.000422055
0.00209631
0.000396428
0.000312756
0.000440221
0.000251351
0.000243144
0.000333469
0.000440301
0.000457548
0.00228539
0.00039156
0.000377086
0.000432033
0.000251128
0.000346818
0.000380378
0.000540058
0.000371718
0.000386091
0.00218046
0.00059785
0.000371682
0.000758938
0.000305104
0.000369647
0.000379696
0.000361312
0.000360162
0.00020361
0.000811612
0.00228052
0.000476278
0.000508884
0.000666761
0.000435655
0.000370881
0.000465815
0.000233451
0.000323481
0.000324371
0.000243353
0.000249858
0.00231152
0.000623193
0.000674013
0.000650652
0.000589204
0.00037967
0.000349481
0.000431591
0.000320772
0.000392607
0.000372481
0.000470513
0.00238183
0.000642932
0.00085508
0.000785419
0.000640352
0.000563899
0.000546666
0.000740267
0.000408208
0.000320535
0.000379667
0.000314184
0.000578919
0.00261455
0.000640545
0.00107662
0.000398502
0.000669821
0.00061537
0.000773512
0.00083895
0.00057872
0.000471376
0.000402226
0.000384342
0.000397116
0.000604472
0.00252851
0.000583531
0.000773774
0.000410183
0.000643714
0.000635287
0.000835856
0.000797253
0.000840554
0.000828683
0.000613257
0.000477683
0.000449865
0.000516968
0.00276283
0.000569627
0.000807407