/*--------------------------------*- C++ -*----------------------------------*\
  =========                 |
  \\      /  F ield         | OpenFOAM: The Open Source CFD Toolbox
   \\    /   O peration     | Website:  https://openfoam.org
    \\  /    A nd           | Version:  7
     \\/     M anipulation  |
\*---------------------------------------------------------------------------*/
FoamFile
{
    version     2.0;
    format      ascii;
    class       volScalarField;
    location    "3.5";
    object      p;
}
// * * * * * * * * * * * * * * * * * * * * * * * * * * * * * * * * * * * * * //

dimensions      [0 2 -2 0 0 0 0];

internalField   nonuniform List<scalar> 
18750
(
-69.9036
-69.8902
-69.9477
-71.7029
-67.2031
-69.9843
-71.3442
-70.0927
-71.7985
-72.5399
-67.7714
-68.3755
-63.0208
-70.0611
-71.4607
-72.1044
-70.3249
-71.9354
-72.5198
-72.9963
-65.3157
-69.1804
-66.8505
-69.3323
-66.446
-71.5502
-70.1092
-71.685
-72.3394
-72.5799
-70.6237
-72.1389
-72.5393
-73.0406
-72.9846
-61.4428
-65.6093
-66.1358
-70.3728
-67.8482
-69.6093
-69.5964
-68.6021
-72.2721
-73.9751
-70.1619
-72.026
-72.4949
-72.5956
-72.6798
-70.9463
-72.3871
-72.5732
-73.0838
-73.0112
-73.0932
-58.495
-61.6233
-62.6022
-65.7004
-66.4137
-66.9287
-70.4861
-69.3068
-69.8777
-71.4222
-69.8067
-69.6076
-72.9539
-74.1927
-72.4006
-70.24
-72.3624
-72.5373
-72.5852
-72.6816
-72.5911
-71.2456
-72.6615
-72.617
-73.1192
-73.0369
-73.1133
-73.0886
-56.7237
-58.9694
-59.1324
-61.7269
-62.7265
-63.4713
-66.0084
-66.8192
-67.0324
-68.1075
-70.2846
-71.6076
-70.2291
-70.8089
-71.4239
-69.7832
-70.3889
-73.6034
-74.4916
-72.6483
-71.9064
-70.3179
-72.6214
-72.7242
-72.582
-72.6498
-72.6005
-72.6511
-71.4849
-72.926
-72.6757
-73.1483
-73.0607
-73.1289
-73.0927
-73.2267
-55.8195
-57.0488
-57.0647
-59.2985
-59.3969
-59.629
-61.9563
-62.912
-63.7622
-64.2121
-65.7211
-68.45
-67.2043
-68.0988
-69.3591
-70.168
-73.1712
-70.3817
-70.4895
-71.3788
-71.3111
-69.4905
-70.9298
-74.0531
-74.7515
-72.8124
-72.0552
-72.4436
-70.3822
-72.7947
-72.8929
-72.6251
-72.623
-72.6115
-72.7101
-72.5238
-71.6472
-73.1755
-72.7123
-73.177
-73.0825
-73.1426
-73.0964
-73.2379
-73.0004
-54.5815
-56.0192
-55.7709
-57.3654
-57.333
-57.3835
-59.4724
-59.4356
-59.9324
-60.4322
-60.8999
-62.83
-63.8448
-64.3106
-64.8851
-65.3446
-70.1091
-67.5492
-68.1118
-69.5232
-69.8591
-69.7308
-74.0756
-70.8348
-70.8645
-71.3351
-71.3785
-71.8668
-69.1861
-71.2837
-74.0882
-74.8091
-72.947
-72.1832
-72.6332
-72.304
-70.5231
-72.9674
-73.0079
-72.7151
-72.6056
-72.6357
-72.764
-72.6041
-72.7447
-71.7759
-73.3984
-72.7267
-73.2137
-73.1107
-73.1554
-73.0945
-73.2574
-72.9934
-73.0513
-53.6996
-54.6526
-54.5444
-55.9942
-55.9678
-56.2617
-57.0753
-57.4967
-57.5365
-58.4054
-59.5822
-59.5269
-60.3729
-60.9838
-60.7659
-61.6486
-63.4876
-64.2364
-64.3183
-64.9079
-65.4824
-65.5827
-70.2998
-68.2222
-68.3463
-69.628
-70.1185
-69.6553
-69.1626
-74.5994
-71.4901
-71.3566
-71.5209
-71.62
-72.1576
-71.5905
-69.0234
-71.3252
-74.0091
-74.8002
-72.984
-72.2185
-72.825
-72.3775
-72.5833
-70.7565
-73.1243
-73.1451
-72.799
-72.5974
-72.6874
-72.8117
-72.6824
-72.8078
-72.9124
-71.9336
-73.5623
-72.7876
-73.2566
-73.1447
-73.1682
-73.0954
-73.264
-72.9995
-73.0675
-73.0765
-53.1664
-53.699
-53.7235
-54.6627
-54.6599
-54.769
-55.867
-55.9112
-56.4162
-56.5985
-56.5066
-57.4899
-57.6381
-58.4587
-58.3866
-60.3922
-59.5461
-60.6226
-60.9289
-61.4138
-61.6835
-62.5854
-64.1807
-64.5787
-64.8242
-65.4478
-65.6842
-66.1028
-66.2225
-71.0198
-68.6424
-69.0205
-69.8157
-70.203
-70.1604
-70.1503
-68.6238
-74.3816
-72.092
-71.9001
-71.8438
-71.8365
-72.4805
-71.8079
-72.3365
-68.989
-71.1643
-73.8082
-74.8562
-72.8433
-72.2654
-72.9879
-72.4619
-72.782
-73.1057
-71.0509
-73.1708
-73.2815
-72.8994
-72.6376
-72.7601
-72.8771
-72.7719
-72.881
-72.9914
-72.9307
-72.0388
-73.6623
-72.8455
-73.2942
-73.1772
-73.1827
-73.1025
-73.2529
-73.0126
-73.0734
-73.0924
-73.2049
-52.5134
-53.1554
-53.2744
-53.1167
-53.6853
-53.7593
-53.8767
-54.7546
-54.7136
-54.8675
-54.9621
-55.8849
-56.0357
-56.3422
-56.4016
-56.9095
-56.1024
-57.6027
-57.527
-58.3867
-58.8194
-58.8337
-59.4791
-60.3459
-60.6634
-61.241
-61.5782
-61.9199
-62.2604
-62.4493
-64.4815
-64.6233
-65.2139
-65.7131
-66.1061
-66.5064
-66.9398
-66.9988
-71.3187
-69.4821
-69.8071
-70.1397
-70.4255
-70.5987
-70.8129
-71.6211
-68.5243
-73.9069
-72.3915
-72.6432
-72.3812
-72.1965
-72.9007
-72.2167
-72.7273
-73.3436
-69.3071
-71.1678
-73.5525
-74.7837
-72.7144
-72.3633
-73.0971
-72.5691
-72.9653
-73.1893
-72.9062
-71.3666
-73.2034
-73.3349
-73.0164
-72.6942
-72.8473
-72.9521
-72.8347
-72.9491
-73.0614
-72.9891
-73.1116
-72.0379
-73.7212
-72.8781
-73.3214
-73.2111
-73.1915
-73.106
-73.2377
-73.02
-73.0804
-73.1052
-73.2216
-73.5616
-52.1733
-52.5095
-52.4778
-52.5309
-53.1568
-53.1716
-53.2798
-53.144
-53.7425
-53.6922
-53.8913
-53.914
-54.7597
-54.7889
-54.9529
-54.9884
-54.9274
-55.6049
-56.3317
-56.3668
-56.6221
-56.9053
-56.7542
-56.3624
-57.7198
-57.6231
-58.4773
-58.8479
-59.02
-59.2559
-59.6762
-60.2609
-61.4842
-61.316
-61.7319
-62.2917
-62.3688
-62.7796
-63.205
-65.1481
-64.6212
-65.3752
-65.9777
-66.4812
-66.7989
-67.6056
-67.9628
-67.4165
-70.8467
-70.2566
-70.7847
-70.7194
-71.2093
-71.045
-71.6884
-72.281
-72.7345
-68.522
-73.6843
-72.4482
-73.1475
-72.5879
-72.5059
-73.3272
-72.65
-73.0676
-73.4291
-73.1046
-69.6091
-71.3221
-73.3582
-74.6778
-72.7708
-72.3576
-73.1012
-72.6204
-73.0806
-73.3048
-72.9495
-72.9994
-71.6617
-73.2367
-73.3842
-73.1533
-72.7809
-72.9487
-73.0185
-72.8896
-73.0111
-73.116
-73.0456
-73.1567
-73.4142
-72.0966
-73.7581
-72.9118
-73.325
-73.2463
-73.1941
-73.1203
-73.237
-73.0324
-73.0912
-73.1214
-73.2339
-73.5756
-73.8157
-51.7977
-52.1433
-52.1352
-52.1478
-52.5354
-52.4572
-52.6183
-52.484
-53.1782
-53.1652
-53.2526
-53.1882
-53.2491
-53.6934
-53.6757
-53.856
-53.8453
-53.9219
-54.6387
-54.8705
-54.9834
-55.0598
-54.979
-54.9561
-55.3205
-56.2696
-56.4158
-56.5644
-56.7991
-56.586
-56.8127
-57.183
-57.6746
-57.684
-58.5635
-58.8528
-59.0755
-59.3506
-59.4715
-60.1481
-60.213
-61.5722
-61.4414
-62.162
-62.4445
-63.1975
-63.301
-63.352
-63.2479
-64.9863
-64.6113
-65.695
-66.1431
-66.4843
-67.1744
-67.7761
-68.303
-68.3309
-67.4847
-70.0822
-70.5203
-71.5464
-71.3701
-71.7254
-71.7001
-72.4254
-72.9917
-72.9017
-72.4714
-68.4808
-73.5189
-72.6529
-73.6399
-72.8397
-72.6255
-73.4925
-72.9196
-73.3842
-73.5603
-73.1166
-72.8008
-69.9361
-71.5357
-73.2314
-74.5852
-72.8826
-72.4326
-73.1114
-72.6904
-73.1944
-73.3856
-73.0127
-73.0114
-73.399
-71.944
-73.2606
-73.5024
-73.2499
-72.8637
-73.0366
-73.0723
-72.9491
-73.0711
-73.1576
-73.0905
-73.2109
-73.465
-73.7464
-72.3284
-73.7814
-72.9712
-73.3173
-73.2844
-73.2052
-73.149
-73.2409
-73.0555
-73.1083
-73.1351
-73.246
-73.5871
-73.8379
-74.0949
-51.4753
-51.7421
-51.7556
-51.7732
-52.0929
-52.0961
-52.1726
-52.1381
-52.5502
-52.5321
-52.5556
-52.6275
-52.5995
-53.1448
-53.1959
-53.2235
-53.2135
-53.1361
-53.1255
-53.65
-53.5635
-53.8627
-53.838
-53.8735
-53.7878
-54.5405
-54.6648
-54.8916
-55.0598
-54.9444
-54.8325
-55.0123
-54.996
-55.7641
-56.3442
-56.4141
-56.6567
-56.5024
-56.7222
-56.8155
-57.3357
-57.6269
-57.6158
-58.4531
-58.8053
-59.1297
-59.5893
-59.4617
-59.7746
-60.059
-60.313
-61.3581
-61.9098
-62.4034
-62.9627
-63.4774
-63.6583
-63.9298
-63.9455
-63.2766
-64.697
-64.8872
-66.0905
-66.1372
-66.7308
-67.5857
-68.4972
-68.669
-68.7089
-68.3063
-67.4414
-69.7744
-70.5632
-72.0415
-71.7426
-71.9056
-72.4769
-73.0054
-73.5046
-73.2348
-72.5817
-71.842
-68.8928
-73.2344
-72.919
-73.9635
-73.0973
-72.7628
-73.5831
-73.1069
-73.5874
-73.6189
-73.1427
-72.7974
-72.7855
-70.4579
-71.7924
-73.1762
-74.4971
-73.0532
-72.6108
-73.1391
-72.8141
-73.2949
-73.4342
-73.0666
-73.0183
-73.3391
-73.4726
-72.2692
-73.2965
-73.5847
-73.3248
-72.9315
-73.0986
-73.1234
-73.0079
-73.1342
-73.1829
-73.1152
-73.2544
-73.5141
-73.8222
-74.0498
-72.5471
-73.7587
-73.0357
-73.3257
-73.3155
-73.2206
-73.1788
-73.2465
-73.079
-73.1277
-73.1462
-73.2639
-73.5959
-73.8632
-74.1031
-74.3491
-51.236
-51.4269
-51.4607
-51.4923
-51.7245
-51.7594
-51.7936
-51.7828
-51.762
-52.0914
-52.0577
-52.1374
-52.2154
-52.2212
-52.5356
-52.5006
-52.5655
-52.6298
-52.4995
-52.5796
-53.1513
-53.1823
-53.155
-53.1634
-53.0977
-52.9635
-53.0307
-53.6908
-53.5109
-53.7929
-53.8711
-53.7248
-53.7204
-53.6622
-54.5443
-54.6794
-54.8545
-54.9141
-54.9225
-54.943
-54.876
-55.0802
-55.261
-55.7545
-56.2034
-56.4151
-56.5175
-56.7418
-56.8114
-56.8783
-57.0665
-57.3763
-57.8113
-57.646
-58.3915
-59.0758
-59.1801
-59.802
-60.132
-59.9611
-59.9064
-59.5646
-60.9367
-61.2656
-62.0558
-62.5828
-63.1874
-63.5542
-63.8414
-63.9233
-64.0879
-64.0895
-63.1538
-64.412
-65.594
-66.2812
-66.432
-67.0294
-68.3895
-69.4354
-69.3793
-69.2652
-68.5541
-68.1521
-67.115
-69.2532
-70.3237
-72.0183
-72.182
-72.5138
-72.8044
-73.5042
-73.749
-73.4741
-72.7812
-71.9493
-71.5967
-69.2658
-72.7621
-73.4419
-73.9897
-73.2223
-72.9651
-73.6279
-73.0874
-73.57
-73.5007
-72.9977
-72.7588
-72.7491
-72.6246
-71.0995
-72.1157
-73.2335
-74.3315
-73.1976
-72.7998
-73.1704
-72.9049
-73.3585
-73.4594
-73.1037
-73.0332
-73.2259
-73.4611
-73.8286
-72.6622
-73.3501
-73.5773
-73.3819
-72.9847
-73.1743
-73.1693
-73.0658
-73.1814
-73.1978
-73.1364
-73.2799
-73.5447
-73.889
-74.1278
-74.5779
-72.6848
-73.6803
-73.1038
-73.3465
-73.3451
-73.2485
-73.2117
-73.2531
-73.1028
-73.1493
-73.1578
-73.281
-73.6058
-73.8861
-74.1103
-74.3584
-74.6113
-51.029
-51.2222
-51.2419
-51.2418
-51.4262
-51.4297
-51.4697
-51.4753
-51.4685
-51.7275
-51.7166
-51.8007
-51.8547
-51.8254
-51.7568
-52.0684
-52.0534
-52.0796
-52.1691
-52.0925
-52.213
-52.5376
-52.5651
-52.5576
-52.5547
-52.5114
-52.5664
-52.4898
-53.0842
-53.26
-53.2018
-53.1591
-53.004
-53.0092
-52.9951
-53.0717
-53.6589
-53.7661
-53.7854
-53.7748
-53.8381
-53.7634
-53.7053
-53.8767
-54.5709
-54.7183
-54.8745
-54.8911
-54.9059
-54.8297
-54.8241
-54.9668
-55.2871
-55.5414
-55.9893
-56.0345
-56.3895
-56.4806
-56.6105
-56.9089
-57.0141
-57.3247
-57.4345
-57.474
-57.98
-57.7308
-58.2862
-59.4111
-59.4457
-59.98
-60.2703
-60.3625
-60.3199
-60.0808
-59.2741
-61.053
-61.4043
-61.8992
-62.6193
-63.2742
-63.7533
-64.0697
-64.1798
-64.2685
-64.2415
-64.0157
-62.9191
-63.9677
-65.3651
-66.4649
-67.0787
-67.3798
-69.2855
-70.102
-69.9326
-69.7879
-69.0177
-68.4234
-67.9066
-66.8893
-69.0424
-69.7668
-71.7514
-72.3603
-72.8283
-73.4168
-73.7102
-73.7841
-73.4883
-72.6989
-71.9195
-71.5938
-71.0888
-69.6662
-72.3846
-73.855
-74.2182
-73.5352
-73.2001
-73.6416
-73.0058
-73.4495
-73.4454
-72.8459
-72.573
-72.6415
-72.5414
-72.7535
-71.7525
-72.5238
-73.36
-74.1897
-73.3446
-72.9882
-73.2131
-73.0002
-73.3988
-73.4655
-73.1211
-73.0411
-73.191
-73.5314
-73.9611
-74.4922
-72.9537
-73.4155
-73.5311
-73.3966
-73.0154
-73.2416
-73.2001
-73.1129
-73.205
-73.2064
-73.1576
-73.3067
-73.574
-73.9493
-74.2082
-74.6494
-74.8671
-72.8733
-73.6353
-73.2039
-73.3706
-73.3847
-73.2899
-73.2477
-73.2605
-73.1277
-73.1711
-73.1685
-73.2921
-73.6231
-73.9034
-74.1174
-74.3666
-74.6058
-74.5779
-50.8586
-51.0099
-51.0545
-51.0599
-51.2068
-51.2215
-51.2178
-51.2424
-51.2371
-51.4188
-51.3969
-51.4213
-51.5015
-51.4917
-51.5235
-51.7021
-51.7512
-51.7422
-51.7864
-51.8201
-51.8409
-51.8506
-52.027
-52.1311
-52.0644
-52.1511
-52.0859
-52.1784
-52.1414
-52.4578
-52.5624
-52.5308
-52.5343
-52.4794
-52.4816
-52.5988
-52.613
-52.9847
-53.1908
-53.075
-53.1235
-53.039
-52.9179
-52.8869
-53.0354
-53.022
-53.6906
-53.769
-53.7793
-53.7863
-53.8032
-53.4798
-53.625
-53.7794
-54.2002
-54.6805
-54.6412
-54.8905
-54.8149
-54.8418
-54.8328
-54.8363
-54.844
-55.3336
-55.4849
-55.945
-56.1777
-56.2081
-56.4669
-56.4683
-56.7948
-56.9637
-57.0372
-57.4033
-57.3416
-57.4046
-57.8883
-57.9167
-57.5835
-58.0808
-59.3513
-59.3896
-59.9923
-60.2762
-60.4767
-60.4984
-60.4975
-60.3702
-59.2301
-61.2059
-61.2407
-62.0641
-62.7853
-63.2584
-64.1381
-64.4815
-64.4374
-64.4671
-64.3304
-64.1435
-63.7094
-62.7578
-63.8392
-64.8193
-66.3933
-67.4369
-67.9799
-69.856
-70.4508
-70.2465
-70.0583
-69.1546
-68.6616
-68.3416
-67.8878
-66.4087
-68.7005
-70.3784
-71.7776
-72.3424
-72.8416
-73.7574
-73.5199
-73.5574
-73.3138
-72.623
-72.0146
-71.3376
-71.0785
-71.1257
-70.2598
-72.2187
-74.3727
-74.6007
-73.6854
-73.484
-73.5931
-72.9532
-73.415
-73.3248
-72.6652
-72.3988
-72.3486
-72.4406
-72.6929
-73.2855
-72.4556
-72.9532
-73.5533
-74.1406
-73.467
-73.1029
-73.2201
-73.0996
-73.4381
-73.4704
-73.1274
-73.0424
-73.1873
-73.6017
-74.0757
-74.652
-74.7165
-73.1549
-73.4834
-73.5582
-73.4103
-73.0301
-73.2641
-73.2163
-73.1453
-73.2206
-73.2127
-73.1793
-73.3395
-73.6068
-73.9968
-74.2874
-74.703
-74.9032
-74.9464
-73.1123
-73.6641
-73.2813
-73.3952
-73.4257
-73.3304
-73.2773
-73.2624
-73.1517
-73.1902
-73.181
-73.3071
-73.6449
-73.9178
-74.1267
-74.3729
-74.5984
-74.5727
-74.6444
-50.6998
-50.8298
-50.8746
-50.8673
-50.9718
-51.0246
-51.0746
-51.0892
-51.0673
-51.1693
-51.2035
-51.2332
-51.25
-51.2209
-51.2019
-51.4236
-51.4262
-51.3929
-51.398
-51.4991
-51.4968
-51.548
-51.6989
-51.7483
-51.7217
-51.7336
-51.8108
-51.8152
-51.7507
-51.8117
-51.9663
-52.0322
-52.0324
-52.1846
-52.0881
-52.0511
-52.1258
-52.1675
-52.4313
-52.4914
-52.4104
-52.5164
-52.465
-52.384
-52.5285
-52.6048
-52.3056
-53.0167
-53.0894
-53.054
-53.1134
-53.0679
-52.8227
-52.8638
-53.0224
-53.1633
-53.2397
-53.8723
-53.7559
-53.8048
-53.8269
-53.7187
-53.6523
-53.5361
-53.6907
-53.9086
-54.2186
-54.8029
-54.7388
-54.9846
-54.8425
-54.8474
-54.9658
-54.8824
-54.8478
-55.4215
-55.5354
-55.7223
-56.073
-56.2279
-56.1274
-56.4334
-56.3883
-56.7773
-56.9845
-57.1876
-57.4037
-57.2933
-57.5317
-57.7686
-58.0757
-58.2073
-57.7301
-57.9964
-59.063
-59.4724
-60.1188
-60.3603
-60.6327
-60.5764
-60.6926
-60.5889
-60.5618
-59.2587
-61.2549
-61.7281
-62.043
-62.8971
-63.295
-64.4685
-64.6038
-64.6001
-64.5883
-64.4838
-64.3785
-64.1931
-64.0184
-62.6713
-63.3989
-64.8667
-66.2704
-67.5931
-68.2114
-70.1183
-70.2081
-70.3791
-69.8801
-69.2495
-68.9266
-68.4023
-68.301
-68.1879
-66.2276
-68.8785
-70.4213
-71.7668
-72.5001
-73.2231
-73.8127
-73.0487
-73.5585
-73.2444
-72.5235
-71.9002
-71.2365
-71.3582
-71.1777
-71.5823
-70.5563
-72.312
-74.5509
-75.1332
-73.8022
-73.5797
-73.5546
-72.965
-73.3298
-73.1711
-72.4625
-72.224
-72.2201
-72.4172
-72.7301
-73.3257
-73.3972
-73.2575
-73.3105
-73.7283
-74.124
-73.5287
-73.1551
-73.2018
-73.1419
-73.4778
-73.4378
-73.1406
-73.0638
-73.217
-73.6399
-74.1773
-74.7886
-74.7729
-74.501
-73.4172
-73.5434
-73.6268
-73.4464
-73.0309
-73.2754
-73.2228
-73.1792
-73.2354
-73.2183
-73.2025
-73.3787
-73.6509
-74.0471
-74.3686
-74.6981
-74.9303
-74.9277
-75.2001
-73.3319
-73.6671
-73.3314
-73.4145
-73.4675
-73.367
-73.2972
-73.2614
-73.1749
-73.2103
-73.1962
-73.3203
-73.6712
-73.9371
-74.1357
-74.3782
-74.5876
-74.5667
-74.6409
-74.7644
-50.5298
-50.6621
-50.7035
-50.6893
-50.8169
-50.8347
-50.9254
-50.907
-50.8774
-50.9675
-50.9887
-51.0812
-51.0445
-51.0959
-51.0477
-51.1632
-51.1865
-51.2337
-51.1652
-51.2994
-51.2761
-51.2145
-51.3845
-51.4188
-51.5089
-51.4568
-51.4404
-51.4792
-51.4783
-51.5626
-51.6624
-51.6565
-51.6977
-51.7687
-51.7418
-51.7456
-51.8059
-51.8205
-51.8302
-52.0054
-51.986
-52.0081
-52.0615
-52.079
-51.9908
-52.1146
-52.2281
-52.1159
-52.447
-52.433
-52.4023
-52.4547
-52.4694
-52.3856
-52.3777
-52.5854
-52.6909
-52.6759
-52.8556
-53.0439
-53.0067
-53.0843
-52.9897
-53.0106
-52.8602
-52.952
-53.0429
-53.3821
-53.3218
-53.8043
-53.8179
-53.7568
-53.5932
-53.7259
-53.6948
-53.4298
-53.6967
-53.9327
-54.0793
-54.5164
-54.8055
-54.8608
-54.8544
-54.7829
-54.8822
-54.8548
-55.0211
-54.9596
-55.0535
-55.4521
-55.7214
-55.9438
-56.0906
-56.3436
-56.2989
-56.5091
-56.4981
-56.621
-57.0433
-57.2732
-57.6226
-57.5094
-57.7205
-57.8566
-57.8419
-58.1448
-58.2012
-57.8694
-58.1038
-59.0778
-59.2812
-60.1524
-60.4168
-60.7312
-60.7556
-60.7433
-60.6932
-60.718
-60.8815
-59.3305
-61.3163
-61.5323
-61.9246
-63.0871
-63.7322
-64.4275
-64.7085
-64.7328
-64.7272
-64.5139
-64.4367
-64.481
-64.3992
-64.5854
-62.3328
-63.4419
-64.3648
-66.0661
-67.2823
-68.1488
-70.1056
-70.0611
-69.9217
-69.6107
-69.305
-68.8582
-68.6351
-68.6541
-68.2876
-68.3506
-66.2798
-69.2508
-70.5258
-71.6355
-72.3151
-73.2588
-73.5105
-72.5846
-73.226
-73.118
-72.4894
-71.7418
-71.452
-71.0667
-71.0891
-71.5476
-71.5026
-71.0713
-72.45
-74.6549
-75.4806
-73.8172
-73.7148
-73.2868
-72.9771
-73.2945
-73.0134
-72.3057
-72.0435
-72.1468
-72.4029
-72.8149
-73.382
-73.3773
-73.0807
-73.9369
-73.5398
-73.7946
-74.1221
-73.5558
-73.1636
-73.1945
-73.2078
-73.5019
-73.3961
-73.1897
-73.0966
-73.2785
-73.7194
-74.2928
-74.8918
-74.7931
-74.5069
-74.2455
-73.7164
-73.594
-73.6651
-73.4642
-73.0358
-73.2762
-73.2287
-73.2187
-73.248
-73.2273
-73.2261
-73.4277
-73.7064
-74.1033
-74.4645
-74.7514
-74.9632
-74.9131
-75.1708
-75.2543
-73.5357
-73.6149
-73.3898
-73.4306
-73.5072
-73.3999
-73.3147
-73.2697
-73.1977
-73.2249
-73.2087
-73.3345
-73.6982
-73.956
-74.1458
-74.3826
-74.5754
-74.5596
-74.6307
-74.7554
-74.8817
-50.436
-50.5332
-50.5309
-50.5967
-50.6668
-50.6673
-50.7103
-50.7043
-50.6888
-50.8048
-50.7918
-50.81
-50.9088
-50.8866
-50.9114
-50.9758
-51.0097
-51.009
-51.0796
-51.0945
-51.1135
-51.0635
-51.1489
-51.1871
-51.2082
-51.2756
-51.2584
-51.2328
-51.257
-51.2426
-51.3779
-51.3847
-51.4067
-51.4746
-51.4629
-51.4909
-51.5835
-51.5374
-51.5699
-51.6649
-51.6698
-51.6909
-51.6841
-51.7844
-51.7699
-51.7945
-51.9292
-51.856
-51.8932
-51.98
-51.9706
-51.9364
-51.9998
-52.043
-52.0585
-52.0731
-52.1823
-52.2789
-52.208
-52.3662
-52.4044
-52.3683
-52.3904
-52.4322
-52.4435
-52.3902
-52.5668
-52.6655
-52.8678
-52.7535
-52.8746
-52.994
-52.9023
-52.9036
-53.0043
-52.9764
-52.9087
-52.9695
-52.7464
-53.2809
-53.6015
-53.4426
-53.71
-53.7887
-53.8327
-53.7038
-53.7757
-53.654
-53.5373
-53.6835
-53.8804
-54.2454
-54.4114
-54.7465
-54.7119
-54.7811
-54.9499
-54.8968
-55.0202
-54.704
-54.9439
-55.2092
-55.2973
-55.4485
-55.8127
-56.0202
-56.2636
-56.059
-56.2818
-56.4136
-56.4561
-56.5013
-56.6939
-56.9821
-57.3761
-57.7153
-57.6995
-57.7879
-57.7552
-57.8304
-57.9237
-57.9164
-58.2357
-58.0844
-58.001
-58.84
-59.6275
-59.9892
-60.4708
-60.7623
-60.9708
-60.89
-60.7599
-61.04
-61.1162
-60.8178
-59.2182
-61.5128
-61.452
-61.7749
-62.9629
-63.9127
-64.2495
-64.9963
-64.5244
-64.5939
-64.6349
-64.5882
-64.4787
-64.6194
-64.6496
-64.3888
-62.1726
-63.2888
-64.1911
-65.599
-67.2211
-67.7755
-69.934
-69.6939
-69.515
-69.5493
-69.1639
-68.9693
-68.9579
-68.5157
-68.4394
-68.4768
-68.3637
-66.6758
-69.2018
-70.6067
-71.5679
-72.21
-73.3505
-73.1589
-72.2816
-72.9064
-72.6596
-72.278
-71.7267
-71.4104
-71.1797
-71.0784
-71.4668
-71.6261
-71.1101
-71.769
-72.3009
-74.9007
-75.7102
-73.8884
-73.3472
-73.4292
-72.9902
-73.2368
-72.8377
-72.216
-71.9113
-72.1007
-72.3762
-72.8938
-73.3659
-73.3472
-73.0891
-72.6813
-74.3819
-73.7561
-73.816
-74.1352
-73.58
-73.1467
-73.1693
-73.2984
-73.5038
-73.3623
-73.2246
-73.1483
-73.3668
-73.8502
-74.4541
-74.9693
-74.8725
-74.5156
-74.2504
-74.176
-73.9947
-73.6602
-73.6882
-73.4617
-73.0612
-73.2793
-73.2396
-73.2581
-73.2583
-73.2456
-73.248
-73.4788
-73.7696
-74.167
-74.5585
-74.8135
-74.977
-74.9007
-75.1303
-75.2549
-75.0797
-73.6958
-73.5826
-73.4459
-73.4486
-73.5438
-73.4289
-73.3352
-73.2838
-73.2254
-73.2381
-73.2253
-73.3511
-73.7188
-73.9676
-74.1584
-74.3845
-74.5639
-74.5517
-74.6248
-74.7456
-74.8699
-74.127
-50.3339
-50.4313
-50.4702
-50.4677
-50.5224
-50.4905
-50.562
-50.5782
-50.5821
-50.6444
-50.6756
-50.6481
-50.7205
-50.7305
-50.7539
-50.7903
-50.8538
-50.8102
-50.8473
-50.9002
-50.9044
-50.8773
-50.97
-50.9924
-50.9699
-51.0023
-51.0344
-51.1286
-51.1379
-51.0645
-51.1582
-51.1768
-51.105
-51.2228
-51.2284
-51.2736
-51.3447
-51.2412
-51.2501
-51.3904
-51.3729
-51.2921
-51.3746
-51.4351
-51.4932
-51.5694
-51.6393
-51.5798
-51.6385
-51.6392
-51.6413
-51.6337
-51.6294
-51.7352
-51.7502
-51.8076
-51.8651
-51.9487
-51.9737
-51.8768
-51.9486
-51.989
-51.8288
-51.9069
-52.0297
-52.0255
-52.0859
-52.1916
-52.2627
-52.342
-52.3449
-52.3883
-52.3867
-52.2664
-52.3535
-52.4512
-52.4044
-52.4729
-52.5046
-52.627
-52.8069
-53.0015
-52.8512
-52.9069
-53
-52.922
-52.8734
-52.9099
-52.987
-52.9483
-52.9811
-53.1791
-53.1904
-53.5117
-53.876
-53.7191
-53.7251
-53.7546
-53.7792
-53.7031
-53.7351
-53.7749
-53.5973
-53.5844
-53.8024
-54.2357
-54.439
-54.6549
-54.9281
-54.8283
-54.895
-54.8298
-54.8008
-54.9205
-54.9428
-54.9946
-55.2616
-55.5546
-55.5396
-55.817
-55.9874
-56.1959
-56.4594
-56.0374
-56.4279
-56.3695
-56.3091
-56.5267
-56.7604
-57.2331
-57.3936
-57.7221
-57.7497
-57.7808
-57.8214
-58.1293
-58.0508
-57.9892
-57.9786
-58.1081
-58.2005
-58.4665
-59.2387
-59.6571
-60.0712
-60.6772
-61.2634
-61.3362
-61.1949
-60.9791
-60.9882
-60.782
-61.2027
-61.0183
-58.8113
-61.4119
-61.2741
-61.823
-62.6552
-63.4468
-64.1276
-64.8221
-65.0926
-64.5316
-64.5865
-64.6014
-64.5196
-64.669
-64.7751
-64.511
-64.3668
-61.7163
-62.7738
-64.0625
-65.2929
-66.9706
-67.004
-69.5161
-69.2433
-69.063
-69.2246
-69.1251
-69.0281
-69.1197
-68.6123
-68.5506
-68.3994
-68.4039
-68.4476
-67.1939
-69.0888
-70.6984
-71.6903
-71.8548
-73.7121
-72.8759
-71.8889
-72.459
-72.3749
-72.079
-71.6081
-71.3187
-71.3034
-71.1462
-71.4856
-71.4638
-70.9966
-70.6904
-71.7293
-72.3901
-74.6515
-75.8376
-74.2498
-73.1762
-73.2894
-73.0775
-73.1902
-72.6873
-72.0775
-71.8119
-72.0892
-72.3343
-72.9781
-73.3502
-73.3221
-73.0277
-72.6879
-72.5883
-74.6885
-73.9546
-73.884
-74.1335
-73.577
-73.0917
-73.1408
-73.3366
-73.4886
-73.3489
-73.2525
-73.226
-73.4498
-73.9973
-74.6409
-75.0296
-74.89
-74.5011
-74.2557
-74.16
-73.6163
-74.2485
-73.8023
-73.7589
-73.4731
-73.0854
-73.2985
-73.2494
-73.2994
-73.2653
-73.2611
-73.2579
-73.5254
-73.8343
-74.2368
-74.6303
-74.8529
-74.9935
-74.8846
-75.092
-75.2577
-75.0388
-74.2645
-73.8196
-73.5685
-73.4887
-73.462
-73.5735
-73.4617
-73.359
-73.2999
-73.2595
-73.2483
-73.2463
-73.3617
-73.7388
-73.9812
-74.1696
-74.3842
-74.5489
-74.5422
-74.6149
-74.7344
-74.8483
-74.0945
-73.6382
-50.3297
-50.3491
-50.3139
-50.2843
-50.4239
-50.4526
-50.4673
-50.4896
-50.4935
-50.5155
-50.529
-50.5411
-50.5791
-50.6041
-50.6074
-50.6405
-50.6426
-50.6932
-50.6413
-50.742
-50.7311
-50.6949
-50.7732
-50.801
-50.741
-50.8268
-50.8252
-50.9482
-50.905
-50.911
-50.9616
-51.0003
-50.9372
-50.9754
-51.0042
-51.1304
-51.138
-51.1237
-51.0046
-51.1382
-51.1691
-51.1254
-51.1062
-51.2178
-51.2522
-51.2955
-51.3418
-51.3177
-51.3377
-51.3974
-51.3562
-51.301
-51.1965
-51.3925
-51.4451
-51.5363
-51.577
-51.6774
-51.6652
-51.6276
-51.6255
-51.6007
-51.558
-51.5896
-51.6537
-51.6879
-51.7342
-51.8304
-51.9236
-52.0702
-52.0016
-52.0043
-51.933
-51.9489
-51.841
-51.8623
-51.9996
-52.0558
-52.0836
-52.0397
-52.2817
-52.3689
-52.5232
-52.4074
-52.421
-52.3672
-52.2833
-52.3355
-52.3595
-52.4455
-52.4191
-52.3953
-52.6229
-52.7744
-52.9923
-53.2316
-53.0642
-53.0104
-52.985
-52.8089
-52.8869
-52.9771
-53.0004
-53.0189
-53.0963
-53.1784
-53.3629
-53.5431
-53.8127
-54.0861
-53.8458
-53.8772
-53.877
-53.6581
-53.8318
-53.838
-53.8221
-53.8279
-53.7905
-53.7142
-54.0283
-54.3653
-54.6573
-54.8793
-55.1614
-54.9277
-55.0039
-54.9015
-54.8019
-54.9377
-54.7707
-55.2285
-55.3124
-55.6049
-55.5674
-55.6694
-55.9539
-56.2551
-56.3192
-56.6505
-56.1752
-56.3612
-56.6169
-56.4952
-56.7624
-56.9423
-57.4006
-57.6111
-57.7516
-57.9327
-58.0568
-58.0172
-57.9885
-58.2835
-58.3489
-58.2707
-58.0865
-57.8795
-58.2657
-58.5008
-59.077
-59.7546
-60.2443
-60.7336
-61.2832
-61.4011
-61.2889
-61.088
-60.9666
-60.9483
-61.2028
-61.0571
-60.9056
-58.4653
-61.3576
-61.1014
-61.7811
-62.2749
-63.1964
-64.3026
-64.4882
-64.8463
-64.8292
-64.8891
-64.7433
-64.7615
-64.8368
-64.8878
-64.8129
-64.5687
-64.2142
-61.6366
-63.2633
-63.6375
-64.9701
-66.2586
-67.4178
-68.253
-68.7378
-68.7413
-68.9538
-69.0886
-69.0411
-69.0518
-68.8372
-68.4826
-68.4418
-68.4241
-67.8402
-67.4136
-67.5982
-69.0621
-70.7178
-71.499
-71.4774
-72.4177
-72.0762
-71.4251
-72.1699
-72.0504
-71.7713
-71.4769
-71.1127
-71.1476
-71.1207
-71.3479
-71.434
-70.9191
-70.6421
-70.3601
-71.783
-72.5005
-74.4585
-75.8724
-74.3757
-72.925
-73.0772
-73.2044
-73.1981
-72.5457
-71.8764
-71.7466
-72.0312
-72.3238
-73.0241
-73.3915
-73.317
-72.9533
-72.6737
-72.5612
-72.2678
-75.028
-74.1587
-73.9648
-74.1503
-73.5234
-73.0362
-73.1239
-73.3544
-73.4508
-73.3452
-73.2739
-73.2989
-73.5561
-74.1573
-74.8434
-75.0649
-74.7509
-74.492
-74.2318
-74.137
-73.5418
-73.7236
-74.5188
-73.9672
-73.8032
-73.4966
-73.1053
-73.3492
-73.2609
-73.3429
-73.2737
-73.2736
-73.2635
-73.565
-73.8954
-74.3101
-74.6878
-74.9067
-75.024
-74.8656
-75.0464
-75.2363
-74.959
-74.1337
-73.9445
-73.8917
-73.5476
-73.5145
-73.4822
-73.5958
-73.4873
-73.3836
-73.3231
-73.2915
-73.2585
-73.2637
-73.3662
-73.7579
-73.9978
-74.1785
-74.385
-74.5325
-74.529
-74.6007
-74.7244
-74.8221
-74.0616
-73.5986
-72.8212
-50.1077
-50.2738
-50.3028
-50.3789
-50.3296
-50.3362
-50.318
-50.3111
-50.3058
-50.4317
-50.4234
-50.4547
-50.4714
-50.489
-50.4699
-50.5014
-50.5043
-50.5271
-50.5347
-50.5671
-50.5986
-50.6217
-50.6446
-50.6351
-50.5896
-50.7471
-50.7289
-50.783
-50.7147
-50.7533
-50.761
-50.8274
-50.7238
-50.8389
-50.8432
-50.8876
-50.9993
-50.9013
-50.8897
-50.9426
-51.0099
-50.9749
-50.905
-51.0151
-51.0467
-51.084
-51.2159
-51.1071
-51.0843
-51.1287
-51.1364
-51.1245
-51.1233
-51.1689
-51.2011
-51.2609
-51.3296
-51.367
-51.3924
-51.3457
-51.3853
-51.3749
-51.3611
-51.3157
-51.393
-51.4561
-51.4839
-51.5497
-51.5974
-51.7692
-51.6983
-51.6619
-51.626
-51.611
-51.6623
-51.6111
-51.605
-51.6974
-51.78
-51.6984
-51.8954
-52.0527
-52.1992
-52.1148
-52.0237
-51.9801
-51.9184
-51.8917
-51.9036
-51.9614
-52.0394
-52.045
-52.0902
-52.2178
-52.417
-52.5441
-52.7312
-52.5572
-52.449
-52.4232
-52.2848
-52.3199
-52.3597
-52.4388
-52.51
-52.5701
-52.5567
-52.8135
-52.9631
-53.1591
-53.4134
-53.2486
-53.0537
-53.135
-52.8633
-52.9314
-52.9682
-53.0395
-53.0431
-53.0836
-53.2008
-53.3217
-53.5276
-53.7718
-54.0708
-54.2875
-54.083
-53.9001
-53.8951
-53.8368
-53.71
-53.8032
-53.8556
-53.8642
-54.0633
-54.0262
-54.0125
-54.3137
-54.6413
-54.841
-55.1125
-55.2977
-54.9654
-54.9124
-54.9791
-54.8374
-54.8266
-54.9438
-55.1333
-55.388
-55.5974
-55.6053
-55.7728
-56.0178
-56.2145
-56.3954
-56.6616
-56.8524
-56.0969
-56.2977
-56.7253
-56.6903
-56.6003
-57.0928
-57.2715
-57.6274
-57.8193
-58.0209
-57.9932
-58.1296
-58.1454
-58.1928
-58.2989
-58.5049
-58.4807
-57.8369
-58.1085
-58.3623
-58.5338
-58.9174
-59.642
-60.2916
-60.8428
-61.336
-61.3444
-61.3687
-61.2721
-61.0189
-61.1775
-61.1256
-61.0761
-61.0407
-60.5167
-58.3202
-61.3127
-61.228
-61.4453
-61.9542
-62.8142
-63.9513
-64.2751
-64.6134
-64.7612
-64.8502
-65.0159
-64.9229
-64.7881
-64.8694
-64.9044
-64.6895
-64.1654
-63.9912
-61.8859
-63.3948
-63.6995
-64.5422
-65.2036
-67.2236
-67.9334
-68.1833
-68.3721
-68.6973
-68.8612
-69.1169
-68.8647
-68.853
-68.6915
-68.4809
-68.2015
-67.774
-67.1534
-67.0304
-67.746
-69.2152
-70.2301
-71.3256
-72.2303
-71.4573
-71.4217
-71.1791
-71.8648
-71.7338
-71.4648
-71.2554
-71.0446
-71.0676
-71.1531
-71.2571
-71.2553
-70.962
-70.593
-70.4071
-70.0923
-71.7404
-72.6083
-74.6332
-75.7624
-74.4476
-72.6804
-72.915
-73.2941
-73.2065
-72.4161
-71.835
-71.6731
-71.9906
-72.3054
-73.0198
-73.3998
-73.2455
-72.9129
-72.6271
-72.5213
-72.2096
-71.7468
-75.2909
-74.3272
-74.1546
-74.1696
-73.46
-72.9964
-73.1148
-73.3679
-73.387
-73.3001
-73.2461
-73.3501
-73.6661
-74.3244
-74.9696
-75.1154
-74.848
-74.4836
-74.2648
-74.1098
-73.4704
-73.6193
-72.4803
-74.7883
-74.1024
-73.7909
-73.4932
-73.1251
-73.363
-73.2731
-73.3831
-73.2882
-73.2837
-73.2707
-73.5943
-73.944
-74.3807
-74.7488
-74.9528
-75.0331
-74.8464
-74.9929
-75.1931
-74.8709
-74.0065
-73.8139
-72.4782
-73.544
-73.5265
-73.533
-73.6135
-73.5148
-73.4111
-73.3466
-73.3148
-73.2677
-73.2731
-73.3734
-73.7766
-74.0134
-74.1868
-74.3861
-74.5158
-74.5123
-74.5873
-74.7126
-74.788
-74.0258
-73.5556
-72.7955
-72.1007
-50.1046
-50.1097
-50.1431
-50.2386
-50.2548
-50.2851
-50.3659
-50.3674
-50.2837
-50.3019
-50.316
-50.3438
-50.3354
-50.3015
-50.4155
-50.4176
-50.4107
-50.4488
-50.4662
-50.4893
-50.4899
-50.5157
-50.5267
-50.5753
-50.5315
-50.5361
-50.6084
-50.5798
-50.597
-50.6342
-50.6776
-50.6746
-50.702
-50.7107
-50.7345
-50.7921
-50.8188
-50.7392
-50.7369
-50.8324
-50.7236
-50.777
-50.8274
-50.8778
-50.9162
-50.9978
-50.9276
-50.8989
-50.919
-50.9435
-50.9325
-50.9734
-51.0181
-51.0353
-51.0249
-51.1926
-51.1604
-51.1201
-51.1054
-51.0982
-51.157
-51.1248
-51.1827
-51.1497
-51.215
-51.2348
-51.2835
-51.3875
-51.4577
-51.3762
-51.4392
-51.4105
-51.3711
-51.3889
-51.3275
-51.4045
-51.4799
-51.4151
-51.4959
-51.593
-51.6558
-51.8573
-51.7855
-51.7182
-51.7031
-51.6113
-51.6133
-51.6002
-51.6924
-51.7168
-51.7078
-51.8357
-51.8553
-51.9395
-52.1725
-52.3366
-52.204
-52.1576
-52.0379
-52.0305
-51.8918
-51.9337
-51.9578
-52.0569
-52.0501
-52.1572
-52.1222
-52.3601
-52.4311
-52.6548
-52.8731
-52.7989
-52.5965
-52.476
-52.4083
-52.2127
-52.3803
-52.5428
-52.5037
-52.5918
-52.6278
-52.7692
-52.9042
-53.0753
-53.3987
-53.5566
-53.4048
-53.1077
-53.0342
-52.9717
-52.9032
-52.8944
-53.1008
-53.1041
-53.1623
-53.2009
-53.3241
-53.4015
-53.6659
-54.0195
-54.2432
-54.4522
-54.3515
-53.9281
-53.7959
-53.9753
-53.7098
-53.6903
-53.9455
-53.9465
-54.0958
-54.2047
-54.1623
-54.2181
-54.4985
-55.0619
-55.0576
-55.2684
-55.6191
-55.0031
-55.0695
-55.0106
-55.1204
-55.0329
-54.9874
-55.1556
-55.4465
-55.7351
-55.6547
-55.7836
-55.8556
-56.0392
-56.4357
-56.6688
-56.8251
-57.026
-55.9545
-56.3748
-56.7641
-56.7906
-56.9275
-57.0547
-57.5068
-57.6932
-58.0964
-58.1665
-57.9656
-57.9818
-58.1734
-58.2404
-58.3071
-58.4649
-58.5882
-58.6181
-57.5925
-58.0352
-58.3281
-58.4499
-58.9504
-59.639
-60.3411
-60.8784
-61.3014
-61.6197
-61.4497
-61.3173
-61.2319
-61.2253
-61.2687
-61.1109
-61.1971
-61.2107
-61.0692
-58.6103
-60.6282
-61.0288
-61.5432
-61.8502
-62.695
-63.5171
-64.0253
-64.5429
-64.7913
-64.8396
-64.8963
-65.0763
-64.8434
-64.8235
-64.9222
-64.6871
-64.4513
-63.8881
-63.6263
-61.6224