/*--------------------------------*- C++ -*----------------------------------*\
  =========                 |
  \\      /  F ield         | OpenFOAM: The Open Source CFD Toolbox
   \\    /   O peration     | Website:  https://openfoam.org
    \\  /    A nd           | Version:  7
     \\/     M anipulation  |
\*---------------------------------------------------------------------------*/
FoamFile
{
    version     2.0;
    format      ascii;
    class       surfaceScalarField;
    location    "3.5";
    object      phi_0;
}
// * * * * * * * * * * * * * * * * * * * * * * * * * * * * * * * * * * * * * //

dimensions      [0 3 -1 0 0 0 0];

internalField   nonuniform List<scalar> 
54095
(
0.000285231
-6.10869e-06
-7.39051e-05
0.000379624
-0.000633765
-5.37807e-05
0.000266132
-0.000204933
-6.73079e-05
0.000234442
0.000269321
-0.000103448
0.000568766
0.00173373
-8.81694e-06
0.000363102
-0.000671853
-5.88824e-05
0.000233506
0.00132515
-2.26182e-05
0.000241101
-0.000384914
-6.11199e-05
0.000241742
5.99271e-05
-9.96561e-05
1.79343e-05
0.00137927
-9.64197e-05
0.000378089
0.00515257
0.000338558
0.000622973
0.0014404
3.34595e-05
0.00040892
0.00222623
0.000395605
0.000322996
-0.000645523
-0.000108224
0.000304163
0.00123558
-3.17324e-05
-2.4401e-05
0.00204025
-4.63151e-05
0.000211616
-0.000540303
-5.62278e-05
0.000236481
-0.000142414
-9.52602e-05
3.35877e-05
0.00134207
-9.60426e-05
-1.40297e-06
0.000483139
-8.67434e-05
-0.000352834
0.00700305
0.000356138
0.000431409
0.00501223
0.000331904
0.000439467
0.00442842
0.000717612
0.000299579
0.00140113
6.26886e-05
0.000500555
0.0017674
0.000295896
1.97792e-05
0.000479539
0.00066333
0.00027352
-0.000578693
-0.000128734
0.00038947
0.00103836
-6.39983e-05
1.16213e-05
0.00209323
-6.27409e-05
-4.85653e-05
0.000820769
-9.55979e-05
0.000181403
-0.000668812
-5.28939e-05
0.000218893
-0.000326118
-9.14165e-05
3.05106e-05
0.00131299
-9.66929e-05
-5.91857e-06
0.000481324
-8.8309e-05
1.87827e-05
0.000797103
-6.98233e-05
-0.000601964
0.00818605
0.000133148
-0.000288872
0.00737417
0.000349164
-0.000100367
0.00701595
0.000651594
-5.72949e-05
0.00508527
0.000283836
0.000471991
0.00409613
0.000692752
0.000169366
0.00587235
0.00073146
0.000144209
0.00143057
9.98694e-05
0.00069996
0.00131993
0.000199673
4.457e-05
0.000171027
0.000571458
-3.54547e-05
0.00316156
0.000492934
0.000198078
-0.000452529
-0.000142838
0.000421842
0.000810661
-0.000103982
-6.12179e-07
0.0021152
-5.48511e-05
-6.04603e-05
0.00091738
-0.00010481
3.57442e-05
0.000330139
-0.000145852
0.000154269
-0.000771704
-5.13773e-05
0.000185658
-0.000477066
-8.76038e-05
4.12841e-05
0.00127776
-9.747e-05
-5.86707e-06
0.000480965
-9.04667e-05
2.15355e-05
0.000760245
-7.29867e-05
-7.25575e-06
0.00108562
-6.88037e-05
-0.00115826
0.00669056
0.000206555
-0.000343487
0.00816867
7.19896e-05
-0.000571576
0.00845211
0.000491145
-0.000325499
0.00730785
0.000334527
-0.000124467
0.00725714
0.000704429
6.57904e-06
0.00712765
0.000684655
-0.000448034
0.00541369
0.000263824
0.000655149
0.00378373
0.000641046
0.000266854
0.00563008
0.000712738
6.60733e-05
0.00627141
0.000668665
-3.12492e-05
0.00150216
0.000157744
0.000795015
0.000876879
0.000169746
0.000100169
-0.000197296
0.000467215
-6.10764e-05
0.0032057
0.000527934
0.000241192
0.00308669
-1.03785e-05
0.000146874
-0.00030207
-0.000143063
0.000371755
0.000620199
-0.000138473
3.18663e-05
0.00210365
-8.30121e-05
-7.4308e-05
0.00105302
-0.000122047
9.93453e-08
0.000407242
-0.000160477
4.91868e-05
0.00103089
-0.000166374
0.000132455
-0.000853339
-5.08199e-05
0.0001488
-0.000593224
-8.40191e-05
4.79113e-05
0.0012399
-9.76527e-05
-6.59261e-06
0.000482618
-9.253e-05
2.31037e-05
0.000723083
-7.64084e-05
1.43132e-06
0.0010831
-7.18979e-05
3.51883e-05
0.00102873
-6.71519e-05
-0.00143519
0.00418625
0.000326865
-0.000965358
0.0071668
0.000145635
-0.000872447
0.00728049
0.00032732
-0.00011702
0.00787819
8.19996e-05
-0.000417566
0.00844334
0.000373861
-0.000191932
0.00869136
0.000672922
-0.000616201
0.0071323
0.000343709
7.55521e-05
0.0075234
0.000647861
0.0001373
0.00721134
0.000750295
0.000124173
0.0075595
0.000501286
-0.000696399
0.00574623
0.000332603
0.000881072
0.00338264
0.000578861
0.000456805
0.00513552
0.000778968
0.00016614
0.0060813
0.000675625
0.000434981
0.00527647
0.000540491
-0.000165017
0.00162021
0.000193836
0.000738753
0.000482827
0.000184798
0.000139168
-0.000508927
0.000374075
-1.78135e-05
0.00310595
0.000510476
0.000195788
0.0033848
3.41341e-05
0.000385016
0.00213412
-0.000288679
0.000133627
-0.000184463
-0.00011878
0.000291354
0.000493552
-0.000158971
4.94278e-05
0.00207374
-0.000110077
-8.13585e-05
0.00119036
-0.000145588
-4.31587e-05
0.000528806
-0.000177349
5.75403e-05
0.0010079
-0.000193599
9.42267e-05
0.00111966
-0.000164123
0.000121594
-0.000924915
-5.0018e-05
0.000116991
-0.000680173
-8.08617e-05
4.64565e-05
0.00120552
-9.60922e-05
-3.83383e-06
0.000483853
-9.50541e-05
2.50837e-05
0.000685404
-7.99349e-05
1.09404e-05
0.001071
-7.52464e-05
4.64018e-05
0.000980763
-7.03296e-05
6.15787e-05
0.00134325
-6.38876e-05
-0.0014764
0.00386247
7.97419e-05
-0.00143501
0.00427037
0.000385521
-0.000946326
0.00553428
0.000386415
-0.000595417
0.00760582
3.93708e-05
-0.000475878
0.00717586
0.000308573
-0.000741374
0.00770025
0.000581933
0.000118217
0.00705845
8.53217e-05
-0.000342549
0.00860349
0.000339944
3.89505e-05
0.00851003
0.00065354
0.000351305
0.00847178
0.000644326
-0.00107481
0.00709452
0.000416191
0.000473341
0.00765349
0.000621353
0.000338811
0.00727149
0.000705702
0.000276821
0.0075781
0.000621008
0.000526296
0.00727696
0.000292739
-0.000859828
0.00611404
0.000327004
0.000625236
0.00331701
0.00051175
0.000637228
0.00444824
0.000768075
0.000372303
0.0056705
0.000799651
0.00043543
0.00519817
0.000514292
0.000642403
0.00357002
0.000403364
-0.000246834
0.00182597
0.000174699
0.000643262
0.000145131
0.000179624
0.000179452
-0.000616861
0.000162707
2.0069e-05
0.0029454
0.000433199
0.000126577
0.00365385
7.1691e-05
0.000389127
0.00209035
-0.000253683
0.000320798
0.00119954
-0.000181598
0.000161473
-0.00013358
-9.07626e-05
0.000221289
0.000427012
-0.000156538
5.86707e-05
0.00203482
-0.000132263
-5.65601e-05
0.00130404
-0.000171029
-4.33619e-05
0.000648231
-0.000196567
5.68284e-05
0.000999193
-0.00021453
0.000109423
0.0010527
-0.000189664
0.00010356
0.00143687
-0.000194392
0.000118553
-0.000994603
-4.88659e-05
9.34282e-05
-0.000743528
-8.00906e-05
5.12424e-05
0.00116671
-9.33004e-05
-4.36829e-07
0.000485924
-9.77264e-05
2.54897e-05
0.00064849
-8.36292e-05
1.9359e-05
0.00105052
-7.88152e-05
5.97129e-05
0.000918433
-7.26289e-05
6.29138e-05
0.00127476
-6.47617e-05
7.1397e-05
0.00122741
-6.91413e-05
-0.00149881
0.00385272
2.37477e-05
-0.00141923
0.00370962
0.000137076
-0.00102203
0.00477483
0.000248801
-0.0012849
0.00458095
0.000378906
-0.000545446
0.00555845
0.000430918
-0.000747591
0.00606674
0.000337226
-0.000175995
0.00787619
2.38453e-05
-0.000801324
0.00737699
0.00029702
-0.000531718
0.00801986
0.000559629
0.000401823
0.0075296
0.000780307
-0.000164932
0.0059031
0.000245481
-7.0487e-05
0.00887771
0.000354937
0.00015805
0.00840025
0.000630485
0.000454002
0.00822416
0.000723981
0.000743429
0.00831634
0.000512528
-0.00132722
0.00710602
0.000455901
0.000201165
0.0078887
0.00060505
0.000601215
0.00720014
0.000728712
0.000505213
0.00747788
0.000673016
0.000466513
0.00737698
0.000489908
0.00086427
0.00553663
0.000505168
-0.00104365
0.00658084
0.000330017
0.000507266
0.00333136
0.000448648
0.000762334
0.0036808
0.000696308
0.000571463
0.00508123
0.000805953
0.000530273
0.00504146
0.000552657
0.000660278
0.00344159
0.000371569
0.0005733
0.00351031
0.000273582
-0.000226643
0.00208288
0.000131205
0.000404024
2.79884e-05
0.000109106
0.000206491
-0.000603092
1.80354e-05
9.53631e-05
0.00278331
0.000172874
0.000157357
0.00377788
0.000108456
0.000379879
0.00202834
-0.000189346
0.000298054
0.00093291
-0.000175688
0.000178124
0.000858908
-0.000171006
0.000196152
-0.00013164
-7.95381e-05
0.000175685
0.000399603
-0.00014561
6.96353e-05
0.00201264
-0.000152756
-3.64804e-05
0.00139897
-0.000191149
-3.71814e-05
0.000753821
-0.000213948
7.10649e-05
0.000988139
-0.000237219
0.00014478
0.000961747
-0.000208644
0.00013171
0.00138629
-0.000207888
0.000237838
0.00129984
-0.000259807
0.000120904
-0.00106806
-4.74506e-05
7.11246e-05
-0.000783799
-7.97193e-05
5.00476e-05
0.00112943
-9.2854e-05
-3.93568e-06
0.000495763
-9.92037e-05
2.40066e-05
0.000614251
-8.74949e-05
2.7417e-05
0.00102137
-8.18953e-05
6.50754e-05
0.000848982
-7.44399e-05
6.53944e-05
0.00120265
-6.5913e-05
6.86457e-05
0.00116386
-6.98503e-05
4.75287e-05
0.000377079
-6.77665e-05
-0.00155661
0.00298525
8.62463e-05
-0.00140198
0.00388911
-5.36392e-05
-0.0011504
0.00439343
4.83201e-05
-0.00150335
0.00371235
0.000215722
-0.000972292
0.00499591
0.000342847
-0.000593771
0.00529523
0.000196949
-0.00115442
0.00521015
0.000349224
-0.000909131
0.00554367
0.0005015
-0.000731568
0.00632887
0.000368642
2.05017e-05
0.00695362
0.000716536
6.84711e-05
0.00767596
-3.31768e-05
-0.000603794
0.00749841
0.000435735
-0.000264791
0.00815976
0.00057996
0.000137231
0.00755318
0.000852823
0.000495158
0.00772816
0.000853339
-0.00074778
0.00492205
0.000401602
-0.000138021
0.00892542
0.000536951
0.000401403
0.00835027
0.000604728
0.000674304
0.00803141
0.000654142
0.000731427
0.00807129
0.000704114
0.00105709
0.00753643
0.000549354
-0.00157057
0.00707951
0.000553423
5.50473e-05
0.00815655
0.000640267
0.000717157
0.00710871
0.000741662
0.000737048
0.00723331
0.000807692
0.00068993
0.00724968
0.000640657
0.000760678
0.00536111
0.00056503
0.000771677
0.0047631
0.000643669
-0.00106612
0.00699425
0.000426068
0.000166266
0.00344135
0.000457784
0.000693596
0.00309561
0.000546738
0.000719885
0.00448612
0.000666901
0.000618678
0.0048099
0.000576195
0.000665654
0.00337447
0.000334009
0.00066626
0.00334998
0.000163694
0.000721051
0.00309145
-2.80788e-05
-0.000226528
0.0023888
0.000116764
0.000287187
3.59773e-05
1.17149e-05
0.000207861
-0.000512357
-0.000119856
0.000159594
0.00256155
4.37227e-05
0.000240249
0.00359223
8.10872e-05
0.000385755
0.001923
-0.000100891
0.000286143
0.000774816
-0.000172615
0.000217323
0.000825621
-0.000228014
0.000305583
0.00122503
-0.000275689
0.000238641
-0.000164747
-8.46301e-05
0.000149019
0.000374774
-0.000132604
6.61319e-05
0.00203118
-0.000180234
8.66072e-06
0.0014399
-0.000206288
-2.01511e-05
0.000834221
-0.000227392
0.000103878
0.000954659
-0.00025693
0.000155817
0.000865199
-0.000231413
0.000152877
0.00130378
-0.00021361
0.000243668
0.00117641
-0.000259475
0.000187338
0.00104751
-0.000226082
0.000124005
-0.001146
-4.60635e-05
5.47571e-05
-0.000806387
-7.96203e-05
6.35971e-05
0.0010789
-9.27892e-05
-8.55015e-06
0.000511696
-0.000100237
2.67059e-05
0.000579406
-9.10642e-05
3.43068e-05
0.000983307
-8.37374e-05
6.50478e-05
0.000778803
-7.67643e-05
6.3396e-05
0.00113118
-6.63628e-05
6.50218e-05
0.00110426
-7.13418e-05
4.27205e-05
0.000333654
-6.91459e-05
6.77884e-05
0.000615645
-6.22819e-05
-0.0015193
0.00303394
-1.7831e-05
-0.00305342
-0.0016036
0.00309857
8.83023e-05
-0.00120952
0.00381835
0.000162082
-0.00144993
0.00391225
-7.65643e-05
-0.00113433
0.00451971
-1.78797e-05
-0.000678394
0.0049463
2.41089e-05
-0.00146078
0.00377482
0.000243893
-0.000959883
0.00493206
0.000330324
-0.000496125
0.00517575
0.000226885
-0.000344455
0.00607099
0.000299956
-0.000945004
0.00588867
0.000334957
-0.000871316
0.00574504
0.000415378
-0.000415659
0.0064371
0.000544135
-0.000360907
0.00702058
0.000799822
0.000166276
0.0070905
0.00112125
-6.05797e-05
0.00695342
3.53455e-05
-0.000596054
0.00759075
0.000332516
-5.77802e-05
0.00839027
0.000664412
0.000333618
0.00763725
0.000836581
0.000750457
0.00760824
0.000953707
0.0010701
0.00747876
0.000931875
-0.00147034
0.00430274
0.00051908
-0.000274105
0.00892549
0.00073069
0.000380096
0.00842004
0.000804235
0.000788363
0.00788269
0.000702136
0.000931468
0.00780173
0.000682165
0.000961901
0.00737032
0.000669004
0.0010155
0.00679169
0.000699163
-0.00165357
0.0070367
0.000630264
-7.75046e-05
0.00825724
0.000696507
0.000519537
0.00719993
0.000723104
0.000784583
0.00699503
0.000915251
0.000752497
0.0070205
0.000903049
0.000754837
0.00530814
0.000604441
0.000912853
0.0045732
0.00050834
0.0010164
0.00453807
0.000410779
-0.00108239
0.00739148
0.000458633
-6.73549e-05
0.00374767
0.000474289
0.000678499
0.00277839
0.000304363
0.000870457
0.00383609
0.000485909
0.000824802
0.00439187
0.000500374
0.000695997
0.00332727
0.000313147
0.000693208
0.00322615
5.07719e-05
0.000812772
0.00272009
-6.03928e-05
0.000631038
0.00235588
-7.18522e-05
-0.000120081
0.00262612
0.0001214
0.000222075
0.000126103
-4.64181e-05
0.000195605
-0.000423823
-0.000206292
0.000239353
0.00225271
-4.17077e-05
0.000271843
0.00326356
8.03967e-05
0.000406712
0.00176126
-6.0016e-05
0.00028787
0.000696154
-0.000154282
0.000250351
0.000826419
-0.000270888
0.000293133
0.00125369
-0.000306139
8.61729e-05
0.00118832
-0.000266412
0.000262761
-0.000211768
-9.17337e-05
0.000137212
0.000343329
-0.00013564
0.000102105
0.0020516
-0.000191535
7.74713e-05
0.00139149
-0.000217847
1.54778e-05
0.000872712
-0.000233551
0.000129035
0.000898821
-0.000266281
0.000143644
0.0007726
-0.000242927
0.000162109
0.00119353
-0.000219878
0.000230397
0.00104206
-0.000244639
0.000161565
0.000887031
-0.000217843
0.000164788
0.000999097
-0.000187539
0.000122989
-0.00122409
-4.48961e-05
4.64108e-05
-0.000818653
-8.02085e-05
6.66866e-05
0.00102523
-9.26354e-05
-1.80265e-05
0.000538482
-0.000101549
3.08655e-05
0.00054305
-9.47462e-05
3.87511e-05
0.000939204
-8.57123e-05
6.82296e-05
0.000704176
-7.73397e-05
5.81463e-05
0.001063
-6.67285e-05
6.05889e-05
0.00104951
-7.2199e-05
3.73812e-05
0.000295539
-7.06076e-05
5.75548e-05
0.000551873
-6.29281e-05
4.30477e-05
0.000224037
-6.16775e-05
-0.00156814
0.00288074
-2.11839e-05
-0.00281071
-0.00154361
0.00296756
6.38421e-06
-0.00118327
0.0036849
2.93354e-05
-0.00375831
-0.00170731
-6.58307e-05
-0.00159911
0.00318027
6.74722e-05
-0.0011949
0.00381751
0.000149711
-0.000629351
0.00421358
5.58161e-05
-0.0013866
0.00390321
-6.51435e-05
-0.00110292
0.00460619
-2.0008e-05
-0.0004991
0.00496042
-2.90276e-05
-0.000357047
0.00505581
-0.000114589
-0.0013483
0.00392453
0.000253589
-0.000913373
0.00493605
0.000281964
-0.000413065
0.00530794
0.000195542
-0.00029868
0.00595274
0.000282914
-7.23574e-06
0.00632115
0.000599437
-0.000726624
0.00628441
0.000270299
-0.000940084
0.00599769
0.00042633
-0.000469648
0.0067377
0.000526644
-0.000172628
0.00719653
0.000874436
0.000534575
0.00695933
0.00114687
0.000881054
0.00689065
0.00132259
-0.000577888
0.00603968
2.12877e-05
-0.000369633
0.00744186
0.000279761
-6.27373e-05
0.00840574
0.00075988
0.000354351
0.00781512
0.000920547
0.000981912
0.00741745
0.000976929
0.0011193
0.0072046
0.00107047
0.00103852
0.00700709
0.00109346
-0.00174235
0.00374071
0.000650816
-0.000147255
0.00872163
0.00079269
0.00028324
0.00849086
0.000896175
0.000770128
0.00778063
0.000920745
0.00096745
0.00759422
0.000694693
0.00103919
0.00697007
0.00079806
0.00106692
0.00647447
0.000832161
0.00105776
0.00614661
0.000875407
-0.00156138
0.00687538
0.000640302
-0.000154587
0.00818407
0.000790668
0.000551145
0.00721352
0.000810268
0.000922182
0.0068304
0.000836009
0.000930475
0.00680614
0.00102394
0.00089208
0.00528084
0.000734264
0.000905433
0.00458807
0.000377343
0.0010691
0.00451698
0.000273093
0.000860102
0.00454102
0.000413061
-0.00100163
0.00782586
0.000447166
-0.000164954
0.00412728
0.000466054
0.000437593
0.00286663
0.000144063
0.000815395
0.00332448
0.000239927
0.000831809
0.00386174
0.000456073
0.000725981
0.00310556
0.000402819
0.000774406
0.0029614
9.13636e-05
0.000855099
0.00215249
1.36247e-05
0.000657808
0.00188709
4.37208e-05
0.000207705
0.00160653
0.00014159
2.28901e-05
0.00273445
0.000131546
0.000247857
0.000219579
-8.27215e-05
0.00022744
-0.000316593
-0.000278983
0.000273267
0.00198752
-0.0001369
6.51075e-05
0.00308812
8.41075e-05
0.000330842
0.00170344
-6.35896e-05
0.000214659
0.000711948
-0.000146825
0.000227824
0.000874975
-0.000268553
0.000269977
0.00125229
-0.000309071
8.35912e-05
0.00122672
-0.00026657
-5.19542e-06
0.00105738
-0.0001754
0.000264014
-0.000251014
-0.000101779
0.000134925
0.000305679
-0.000142599
0.000104341
0.00207054
-0.000192232
8.63675e-05
0.00132377
-0.000228206
3.91359e-05
0.000881037
-0.000234443
0.000139287
0.000830771
-0.000266037
0.000134131
0.0006895
-0.000249083
0.000158109
0.00106371
-0.000213072
0.000211515
0.00089454
-0.000223283
0.000128668
0.000747624
-0.00019652
0.000156767
0.000849003
-0.00016696
0.000133259
0.000697294
-0.000177828
0.000124216
-0.00130409
-4.42153e-05
4.0842e-05
-0.000824709
-7.96814e-05
7.21156e-05
0.000967261
-9.43536e-05
-1.79938e-05
0.000566139
-0.000102298
3.52296e-05
0.000504873
-9.86017e-05
4.33031e-05
0.000889956
-8.88008e-05
6.93708e-05
0.000627125
-7.80323e-05
5.42576e-05
0.000998526
-6.71249e-05
5.92913e-05
0.000995237
-7.17452e-05
3.33762e-05
0.000261906
-7.19428e-05
4.72979e-05
0.000497736
-6.37688e-05
4.23954e-05
0.000181611
-6.28976e-05
7.10967e-05
-0.000143629
-5.98814e-05
-0.00157059
0.00256266
-8.8116e-06
-0.0025514
-0.00153453
0.00285359
1.80733e-05
-0.00119931
0.00341614
-6.0667e-05
-0.00336062
-0.00170816
-1.84067e-06
-0.00165236
0.00296558
5.52394e-05
-0.00119566
0.00361086
8.11754e-05
-0.000701963
0.0041931
8.51012e-05
-0.00417626
-0.00141069
1.14075e-05
-0.00155292
0.00329052
5.60767e-05
-0.00121691
0.00384863
0.000150348
-0.000567434
0.0043711
6.05297e-05
-0.000448625
0.00454196
-3.27052e-05
-0.00137585
0.0039854
-5.46405e-05
-0.0010427
0.00466787
2.50073e-06
-0.000512874
0.00505048
-1.02569e-05
-0.000284343
0.00514964
-0.000137198
-0.000246662
0.00537108
0.000142685
-0.00129119
0.00415861
0.000330489
-0.0010966
0.0050355
0.000310646
-0.000485711
0.00545135
0.00015461
-0.000277193
0.00594816
0.000304685
0.000222383
0.00630971
0.000606553
0.000580029
0.00645311
0.00107289
-0.000722315
0.0062295
0.00019934
-0.000603486
0.00606165
0.000440195
-0.000260138
0.0067952
0.000566228
-9.71729e-05
0.0072063
0.000968397
0.000735283
0.00687939
0.001201
0.000926299
0.00676969
0.00146083
0.000974525
0.00673543
0.00144105
-0.00108418
0.00531994
6.1577e-05
-0.000370782
0.00749401
0.000192663
-3.83372e-05
0.00823636
0.000770715
0.00042348
0.00775769
0.00116397
0.000973043
0.00724037
0.00109204
0.00106741
0.00691341
0.0012399
0.00107876
0.00686675
0.00119897
0.000990867
0.00668582
0.00122232
-0.0017171
0.00349955
0.000396884
-3.0231e-05
0.00840204
0.000846043
0.00031776
0.00856146
0.000955475
0.000847224
0.00770476
0.00104701
0.00116294
0.00730028
0.000982209
0.00130373
0.00649857
0.000754546
0.00094278
0.00625808
0.000977103
0.00104961
0.00598909
0.00100917
0.000810832
0.0059723
0.00106952
-0.00141023
0.00681124
0.000472745
-0.000339691
0.00814326
0.000855842
0.000318593
0.00730967
0.000813517
0.000882105
0.00682232
0.000751631
0.000950348
0.00656974
0.000953867
0.000780036
0.00561766
0.000633059
0.00102255
0.00470338
0.00037081
0.00108663
0.00443537
0.000227432
0.0009033
0.00416592
0.000402707
0.000514333
0.00478158
0.000611964
-0.000730469
0.00807753
0.000501687
-7.33879e-06
0.0043661
0.000463542
0.000473478
0.00288136
0.000205282
0.00058623
0.00309224
6.33388e-05
0.000495627
0.00324109
0.000430061
0.000563753
0.00281899
0.000509727
0.000681737
0.00257728
0.000319861
0.00067394
0.00167974
0.000117994
0.000574616
0.00138821
0.000207863
0.000217764
0.00138563
0.000130447
3.91541e-05
0.00147709
0.000133802
7.19838e-05
0.00277523
0.000151251
0.000285803
0.000298901
-9.86535e-05
0.000277683
-0.00023249
-0.000340166
0.000311291
0.00172264
-0.000239024
2.73503e-05
0.00296701
-4.00661e-06
0.000200373
0.0018148
-8.8334e-05
8.406e-05
0.000856198
-0.000157768
0.000124695
0.00101687
-0.000255302
0.000255789
0.00122553
-0.000286068
8.79877e-05
0.00121987
-0.000261543
5.44458e-06
0.00112084
-0.000178709
-3.86934e-06
0.00119542
-0.000180131
0.000242586
-0.000260216
-0.000109168
0.000132921
0.000266813
-0.000154991
0.000118808
0.00206452
-0.000183267
8.9026e-05
0.00124402
-0.000219499
7.49996e-05
0.000845583
-0.000232522
0.000143617
0.000754688
-0.000258673
0.000111386
0.00063354
-0.000252093
0.000148867
0.000926182
-0.000206161
0.000178159
0.000760698
-0.000198098
8.8633e-05
0.000639676
-0.000170591
0.000130808
0.000707003
-0.00013803
0.000121351
0.000600454
-0.000149076
0.000174309
0.00061874
-0.00017141
0.000123091
-0.00138148
-4.5703e-05
3.69486e-05
-0.000827209
-7.8664e-05
7.37558e-05
0.000909056
-9.52327e-05
-1.14314e-05
0.000586417
-0.0001032
3.63105e-05
0.000468749
-0.000102485
4.5393e-05
0.000838823
-9.28615e-05
6.74152e-05
0.000551126
-8.02164e-05
4.77609e-05
0.000940296
-6.75632e-05
5.69033e-05
0.000942383
-7.11737e-05
3.26645e-05
0.000230404
-7.29079e-05
3.83513e-05
0.000452087
-6.46446e-05
4.12268e-05
0.000140223
-6.36073e-05
7.13327e-05
-0.000216847
-6.10117e-05
7.15047e-05
-0.000243333
-5.61629e-05
-0.00149404
0.00262548
-0.000101002
-0.00260102
-0.00154038
0.00262036
-5.18501e-05
-0.00131541
0.00311225
8.78567e-05
-0.00309283
-0.00173939
2.99989e-05
-0.00161459
0.00282274
-6.92687e-06
-0.00120215
0.00345966
-1.89535e-05
-0.000667205
0.00390735
-9.25726e-05
-0.00391021
-0.00137389
-9.38279e-05
-0.00161208
0.00299047
3.42644e-05
-0.00124609
0.00356115
0.000134127
-0.000575994
0.00416734
0.000115503
-0.000730959
0.00427869
0.000293889
-0.00420515
-0.000740659
7.04671e-05
-0.0015472
0.00339859
6.32743e-05
-0.00117991
0.0039183
0.000123615
-0.000612615
0.00450816
0.000113025
-0.000373952
0.00465963
3.2472e-05
-0.000382165
0.00454645
5.00412e-05
-0.00135536
0.00396724
8.23234e-05
-0.00123402
0.00478178
-3.11373e-05
-0.00028461
0.00488083
-2.89523e-05
-0.000232865
0.00523006
-0.000135005
-4.09509e-05
0.00537557
0.000121651
9.85847e-05
0.00544884
0.000609356
-0.00149444
0.00460927
0.00032147
-0.000658018
0.00508333
0.000337194
-0.000293395
0.00557594
0.000219313
-0.000167446
0.00589006
0.000282984
0.000348784
0.00632855
0.000672338
0.000509601
0.00637854
0.00109782
0.00086827
0.00632051
0.00129021
-0.000958846
0.00598807
0.000116094
-0.000836076
0.00627441
0.00045187
-0.000140861
0.00680264
0.000535278
-4.56461e-05
0.00724818
0.000993475
0.000619462
0.00688422
0.00131715
0.000849885
0.00665522
0.001533
0.00104248
0.00662347
0.00160906
0.000935282
0.00658314
0.00150016
-0.00126002
0.00470252
0.000160326
-0.000373573
0.00758901
0.000309921
1.97795e-05
0.00791758
0.000809422
0.000422809
0.00763849
0.00131433
0.00104986
0.00720143
0.00131598
0.00120221
0.00679699
0.00130997
0.00103242
0.00655277
0.00146424
0.00102825
0.00656839
0.00133776
0.000871594
0.00669546
0.00130699
-0.00151599
0.00352356
8.17467e-05
-0.000320123
0.00810843
0.000670931
0.000269984
0.00851739
0.000938721
0.000818159
0.00759545
0.00112873
0.00106962
0.00708025
0.00114778
0.00101044
0.0063042
0.000946171
0.00111681
0.00594726
0.000971105
0.000848846
0.00614166
0.00106232
0.000711638
0.00601349
0.00115964
0.000604639
0.00628824
0.00113843
-0.000952257
0.00669933
0.000333694
-0.000459798
0.00815565
0.000912816
0.000559384
0.00732793
0.00075168
0.000765066
0.00680626
0.00065074
0.00100579
0.00631489
0.000496327
0.000727212
0.00582158
0.000586489
0.00105511
0.00465927
0.000303802
0.000969649
0.0041845
0.000325967
0.000802646
0.00380324
0.00036208
0.000512268
0.00434981
0.000539973
0.00033991
0.00429128
0.000607202
-0.000540636
0.00813912
0.000551034
0.000127133
0.00441513
0.000611328
0.000247641
0.00309767
0.000277282
0.000653433
0.00283688
0.000118497
0.000322947
0.00265322
0.000355615
0.000435035
0.00251915
0.000495246
0.000515129
0.00224052
0.000415411
0.000506655
0.00134195
0.000275691
0.000441157
0.00110863
0.000212209
0.000298086
0.00127709
0.000106307
0.000187934
0.00133234
9.27106e-05
0.000126987
0.00203209
3.64836e-05
0.000169002
0.00267899
0.00016982
0.000302313
0.000378382
-9.76221e-05
0.000258527
-9.66058e-05
-0.000374258
0.000333572
0.001456
-0.000318079
0.00014772
0.00277093
-0.000115662
0.000231614
0.0018612
-0.000138401
7.08195e-05
0.000978947
-0.000170516
0.000107193
0.00114776
-0.000246984
0.000189907
0.00122723
-0.000268755
7.48819e-05
0.00120893
-0.000261377
1.1324e-05
0.00116754
-0.00018876
4.20198e-06
0.00130151
-0.000167648
6.86616e-05
0.00123938
-0.000183568
0.0002401
-0.000262837
-0.000114388
0.000132077
0.000224094
-0.000161578
0.000119416
0.00203503
-0.000171166
7.75918e-05
0.00116863
-0.0001969
9.29466e-05
0.000794097
-0.000224649
0.000133104
0.000683158
-0.000248703
8.65742e-05
0.000604366
-0.000248658
0.00013659
0.000789023
-0.000203763
0.000151543
0.000635103
-0.000175205
5.47269e-05
0.000565311
-0.000145796
0.000101119
0.000582823
-0.000109179
0.0001099
0.000509889
-0.000116138
0.000150342
0.000528784
-0.00013813
0.000195235
0.000626578
-0.000159415
0.000124674
-0.00145976
-4.63932e-05
3.55505e-05
-0.000832353
-7.61097e-05
7.6025e-05
0.000847918
-9.35511e-05
-8.10869e-06
0.000603072
-0.000103779
3.5269e-05
0.000436664
-0.000106384
4.84011e-05
0.000784899
-9.69619e-05
6.0578e-05
0.000481301
-8.36151e-05
4.40119e-05
0.000884679
-6.86113e-05
5.64846e-05
0.000887753
-6.94177e-05
3.5142e-05
0.000197381
-7.32918e-05
3.15908e-05
0.000413117
-6.55285e-05
4.07002e-05
9.8106e-05
-6.32282e-05
6.79763e-05
-0.000287019
-6.14124e-05
6.87546e-05
-0.000316034
-5.70644e-05
3.96898e-05
-0.000509664
-6.12708e-05
-0.00147737
0.00234718
-7.30871e-05
-0.00229076
-0.00147613
0.00258644
-2.52173e-05
-0.00142056
0.00298898
3.81922e-05
-0.00302302
-0.00168351
-6.44919e-05
-0.00259241
-0.00152487
0.00260543
-7.47788e-05
-0.00130062
0.0030937
6.51789e-05
-0.000654494
0.003469
9.23799e-05
-0.00348623
-0.00136721
4.94025e-05
-0.00162676
0.00285796
-2.05379e-05
-0.00125528
0.003503
-4.10794e-05
-0.000616847
0.00399888
-6.96276e-05
-0.00113623
0.00397631
0.000156785
-0.0038204
-0.00103079
-4.21917e-05
-0.00158542
0.00299107
3.76264e-05
-0.0013459
0.0036303
0.000131116
-0.000594356
0.00415681
0.000126396
-0.000540586
0.00431786
0.000242971
-0.000581259
0.00420339
0.000428755
-0.00413916
-0.000927243
0.00019586
-0.00155961
0.00357855
2.42904e-05
-0.00135288
0.00391055
0.00018989
-0.000409908
0.00463556
0.000121512
-0.000211476
0.00472363
2.76341e-05
-0.000320881
0.00471825
0.000140601
-0.000345644
0.00477332
0.000329776
-0.0014347
0.00393393
-2.64397e-05
-0.000802718
0.0049131
9.57113e-05
-0.000359599
0.00493234
-1.64436e-05
-8.33104e-05
0.00523211
-0.000115134
0.000131458
0.00540923
4.86578e-05
-5.16113e-05
0.00557232
0.000559383
0.000539484
0.00558174
0.000861538
-0.00144593
0.00485898
0.000237378
-0.00107643
0.00529927
0.000345877
-9.22229e-05
0.0056084
0.000256102
-0.000160079
0.00596151
0.000262297
0.000121967
0.0064746
0.000634432
0.000633228
0.00617834
0.0010892
0.000802717
0.00628335
0.00137475
0.000747019
0.00640916
0.0014122
-0.00111213
0.00573689
0.000103303
-0.000808644
0.00642221
0.000403371
-7.41419e-05
0.0068433
0.000505131
-9.85305e-05
0.00735857
0.000946227
0.000493072
0.00707193
0.00136256
0.000928604
0.00668606
0.00155991
0.00102749
0.00647958
0.00168183
0.000937118
0.00663663
0.0016467
0.000859085
0.00657781
0.00149632
-0.00137188
0.00428895
0.000269463
-0.00075368
0.00778604
0.000396856
-6.83139e-05
0.0076879
0.000877903
0.000324543
0.00758875
0.00135278
0.000845321
0.00725765
0.0014824
0.000959051
0.00668973
0.00147463
0.00116892
0.0062743
0.00153634
0.000851611
0.00648668
0.00154318
0.000720562
0.0065812
0.0014431
0.000696098
0.0069087
0.00137201
-0.000981679
0.00362093
-6.79515e-05
-0.000606772
0.00784648
0.000490665
0.000527558
0.00815218
0.00106797
0.000768905
0.00733313
0.0011972
0.0010057
0.00707495
0.00113412
0.000930512
0.00623158
0.0010171
0.00111984
0.00584751
0.000981198
0.000879529
0.00610396
0.00109892
0.000653127
0.00605086
0.00117446
0.000511544
0.0062411
0.00120751
0.000431324
0.0061557
0.00123894
-0.00074662
0.00659685
0.000308468
-0.000252561
0.00811326
0.000755777
0.000352215
0.00717449
0.000961679
0.000937682
0.00649663
0.000777059
0.00100485
0.00592111
0.000362611
0.000874999
0.00552366
0.000354289
0.0011677
0.00422846
0.000364723
0.000919414
0.00360245
0.000473097
0.000659174
0.00348579
0.000425398
0.00063516
0.00385367
0.000521144
0.00062947
0.00401738
0.000372333
0.00046506
0.00431559
0.000423253
-0.000288567
0.00793497
0.000661713
8.57297e-05
0.00438792
0.000794823
0.000509543
0.00284674
0.000611239
0.000283982
0.00296387
0.00019988
0.000288274
0.0023571
0.000274056
0.000469811
0.00225568
0.000380882
0.000424339
0.00201354
0.000368708
0.000402929
0.00119691
0.000264721
0.000310943
0.00109148
0.000171803
0.000150119
0.00134663
6.74276e-05
1.75166e-05
0.0013729
5.95476e-05
0.00017742
0.00188981
6.17723e-05
0.000116199
0.00256342
-5.67664e-05
0.000245841
0.0025195
0.000153749
0.000312935
0.000454214
-8.68695e-05
0.000255207
1.15162e-05
-0.000341535
0.000296996
0.00130577
-0.000443427
0.000252339
0.00245823
-0.000164769
0.000217654
0.00185315
-0.000192164
5.24777e-05
0.00105651
-0.000181868
0.000109088
0.00124144
-0.000236696
0.00015377
0.0012274
-0.000249378
5.65429e-05
0.00120193
-0.000263566
1.41409e-05
0.0011972
-0.000204049
2.50949e-05
0.00136415
-0.000166592
2.50617e-05
0.00137398
-0.000176968
8.8616e-05
0.00235572
-0.000135484
0.000253844
-0.000275519
-0.000116489
0.000137247
0.000170196
-0.000162187
0.000135369
0.00196546
-0.000151356
5.09516e-05
0.00111548
-0.00017708
9.55957e-05
0.000745822
-0.000208952
0.000126511
0.000619156
-0.000238757
7.36793e-05
0.00057806
-0.000235499
0.000112189
0.00067054
-0.000198352
0.000127179
0.000520995
-0.00016035
3.68408e-05
0.000517008
-0.0001286
5.88568e-05
0.000494494
-8.47327e-05
9.76259e-05
0.000427026
-8.32411e-05
0.000130861
0.000453388
-0.000103626
0.000192096
0.000501858
-0.000136751
0.000183405
0.000646371
-0.000143933
0.000122023
-0.00153531
-4.64708e-05
3.58308e-05
-0.000838035
-7.65419e-05
8.32233e-05
0.00077829
-8.97047e-05
-6.5266e-06
0.000619284
-0.000103237
3.35597e-05
0.000409012
-0.000109686
5.31536e-05
0.000726228
-0.000100867
4.92058e-05
0.00042234
-8.72066e-05
4.42507e-05
0.000827
-7.01874e-05
5.88735e-05
0.000827498
-6.72301e-05
3.83253e-05
0.000162204
-7.25664e-05
3.31501e-05
0.000372914
-6.62394e-05
4.49215e-05
5.01318e-05
-6.24758e-05
6.44601e-05
-0.000354042