/*--------------------------------*- C++ -*----------------------------------*\
  =========                 |
  \\      /  F ield         | OpenFOAM: The Open Source CFD Toolbox
   \\    /   O peration     | Website:  https://openfoam.org
    \\  /    A nd           | Version:  7
     \\/     M anipulation  |
\*---------------------------------------------------------------------------*/
FoamFile
{
    version     2.0;
    format      ascii;
    class       volVectorField;
    location    "3.5";
    object      U;
}
// * * * * * * * * * * * * * * * * * * * * * * * * * * * * * * * * * * * * * //

dimensions      [0 1 -1 0 0 0 0];

internalField   nonuniform List<vector> 
18750
(
(3.35085 0.169645 -0.981784)
(3.14044 -0.334435 -0.849612)
(3.16239 0.223501 -0.833705)
(2.85498 0.366462 -2.52022)
(1.25684 1.2958 -0.222651)
(2.87177 -0.19834 -0.871001)
(2.19733 0.983462 -0.0399827)
(2.89009 0.256988 -0.758188)
(2.74381 0.37595 -2.33293)
(0.170854 0.966327 -2.29562)
(2.63182 3.54434 0.235307)
(1.2406 1.19053 0.170245)
(0.554009 1.42668 0.181158)
(2.55972 -0.0563254 -0.86021)
(2.57499 1.17252 -0.0901635)
(0.201414 1.3951 -0.305173)
(2.57436 0.257669 -0.730692)
(2.59197 0.377757 -2.0979)
(0.123428 0.944073 -2.25249)
(0.0899893 0.361581 -2.18825)
(-0.917717 4.58733 0.00179607)
(3.03367 3.72906 0.175927)
(2.07119 3.17153 2.05338)
(1.02753 1.15811 0.516652)
(0.770968 1.25397 0.203254)
(-0.663984 0.361004 3.03173)
(2.19246 0.0339708 -0.812782)
(2.63664 1.19257 -0.841411)
(0.54052 1.40364 -0.429419)
(-0.165554 0.517912 -0.403043)
(2.2487 0.232894 -0.726658)
(2.36943 0.364842 -1.88125)
(0.144763 0.949182 -2.26521)
(-0.0249364 0.348585 -2.1673)
(0.452623 0.589748 -1.75992)
(-0.915006 5.45121 -0.170389)
(-1.34967 4.75046 -0.107989)
(-0.215361 4.55441 1.69231)
(0.80405 3.62492 -0.0358747)
(2.36488 3.11342 1.99169)
(0.73721 4.02785 2.46519)
(0.745802 1.10695 0.770932)
(1.53889 1.53964 0.117221)
(-0.714201 0.190872 2.21563)
(-0.561632 2.10636 3.16387)
(1.82359 0.138167 -0.716765)
(2.42748 1.1537 -1.21317)
(0.19765 1.63575 -0.0870735)
(-0.169631 0.573279 -0.511963)
(-0.215901 0.20054 -1.04833)
(1.93967 0.189711 -0.729777)
(2.10025 0.326911 -1.71844)
(0.17186 0.955283 -2.28982)
(-0.079958 0.338528 -2.16996)
(0.477722 0.596913 -1.83873)
(0.215332 0.747404 -1.43733)
(-1.8104 4.26223 0.32665)
(-0.765398 5.48891 -0.0100533)
(-0.926141 5.55345 0.745462)
(-1.86155 4.94582 -0.0840953)
(-0.535201 4.85594 1.75504)
(-0.178909 4.74775 1.60675)
(-0.695581 3.46882 -0.104715)
(2.80644 3.05428 1.81528)
(0.808772 3.98898 2.46522)
(0.228394 4.26998 2.21399)
(0.115708 1.09642 0.960633)
(2.15922 1.1673 0.188555)
(-0.554349 -0.0915735 1.49213)
(-0.870541 2.09417 3.02673)
(0.642506 1.96817 1.44648)
(1.51761 0.238913 -0.604927)
(1.84887 1.03576 -1.54377)
(0.324819 1.52591 -0.299241)
(-0.154435 0.648121 -0.692101)
(-0.229885 0.227348 -1.06776)
(-0.622247 0.689062 -1.14985)
(1.67267 0.137167 -0.730247)
(1.79982 0.265187 -1.63317)
(0.183278 0.945818 -2.28072)
(-0.164314 0.323266 -2.16945)
(0.481571 0.604551 -1.91508)
(0.180803 0.764189 -1.48993)
(0.425875 0.721102 -1.68894)
(-2.16006 2.7698 -0.0462801)
(-1.65051 4.46623 0.24378)
(-1.66897 4.75281 0.398685)
(-0.883731 5.43458 0.0729767)
(-0.97549 5.64411 0.350528)
(-0.218363 5.81006 1.24522)
(-3.27914 4.35684 -0.325054)
(-0.455729 4.85593 1.66878)
(-0.265567 4.81504 1.84421)
(-0.281833 5.01533 1.66113)
(-1.6472 3.43627 0.374709)
(2.70668 3.06217 1.59855)
(0.924437 3.84887 2.42732)
(-0.0353945 4.32123 1.99686)
(1.08016 3.65061 2.10653)
(-0.270805 1.04674 1.07809)
(2.18928 1.09611 0.446707)
(-0.388216 -0.355157 1.15583)
(-1.26722 1.97878 2.7823)
(0.109675 2.16551 1.86954)
(1.29482 1.47431 -1.62243)
(1.28274 0.368815 -0.461854)
(1.25531 0.853445 -1.67193)
(0.360978 1.54906 -0.457568)
(-0.139697 0.737607 -0.91546)
(-0.252729 0.276945 -1.12861)
(-0.431765 0.65628 -1.34772)
(0.31324 0.782725 -1.40044)
(1.47079 0.0923292 -0.721516)
(1.49577 0.190515 -1.60014)
(0.0786594 0.943655 -2.19276)
(-0.184835 0.311328 -2.19402)
(0.481104 0.615774 -1.9858)
(0.154511 0.769508 -1.55643)
(0.428174 0.720471 -1.76297)
(0.447171 0.940538 -1.39386)
(-2.19046 2.54241 -0.00761206)
(-2.18653 2.58044 -0.0400427)
(-1.46705 3.50463 0.959748)
(-1.26142 4.77194 0.0709274)
(-1.65586 4.79197 0.288999)
(-0.920723 4.96774 0.724656)
(-1.13757 5.18789 -0.0588812)
(-0.983457 5.60828 0.239645)
(-0.189947 5.83815 1.23444)
(0.513452 5.83322 1.54314)
(-4.14309 3.79496 -0.105479)
(0.836092 5.26155 1.81911)
(0.125674 4.8766 1.68357)
(-0.132336 5.064 1.81321)
(0.929349 4.81112 0.714118)
(-2.68439 3.33418 0.469493)
(2.0735 2.88963 1.43944)
(0.981779 3.57855 2.34014)
(0.401734 4.01289 2.47693)
(1.00771 3.6142 2.24153)
(1.36318 2.46645 1.51466)
(-0.341076 1.10259 1.11342)
(1.90972 0.859143 0.589381)
(-0.282417 -0.486449 1.04485)
(-1.56301 1.77072 2.32524)
(-0.662137 2.30273 1.96458)
(1.0295 1.5052 -1.60496)
(0.689934 0.9312 -1.17439)
(1.27126 0.524533 -0.501865)
(0.825462 0.70658 -1.4532)
(0.320163 1.63289 -0.612028)
(-0.149473 0.826279 -1.17093)
(-0.269036 0.344397 -1.23014)
(-0.205332 0.654477 -1.53995)
(0.518904 0.782874 -1.61031)
(1.09266 1.01199 -1.03162)
(1.36795 0.0790242 -0.7037)
(1.23745 0.0989192 -1.56944)
(0.0546918 0.916971 -2.05245)
(-0.128628 0.318112 -2.22928)
(0.450053 0.62043 -2.05944)
(0.126607 0.76833 -1.63222)
(0.413889 0.713157 -1.83441)
(0.343466 0.90957 -1.45102)
(0.414982 0.853251 -1.52416)
(-1.61107 2.4405 0.0614609)
(-2.47571 2.30695 -0.051756)
(-1.45478 3.14756 0.224148)
(-1.92476 2.64969 0.0781495)
(-0.728341 3.80456 1.1308)
(-1.72559 3.87018 0.245232)
(-0.649854 5.17504 -0.179852)
(-1.94518 4.5478 0.11622)
(-0.73082 5.12474 0.743878)
(0.444655 5.19693 1.25962)
(-2.47825 3.9112 -0.062591)
(-0.861853 5.71044 0.333847)
(-0.276309 5.67511 1.16486)
(0.393264 5.63486 1.44938)
(1.29081 5.60009 1.07067)
(-4.53205 3.57921 0.165777)
(-0.619823 5.40169 1.87525)
(0.571046 5.07207 1.512)
(0.034488 5.1155 1.76532)
(0.464527 4.97226 1.17472)
(1.91481 3.9307 0.685535)
(-3.68546 3.12705 0.284825)
(1.50955 2.89235 1.3563)
(1.18838 3.13697 2.10256)
(0.685696 3.88142 2.45395)
(0.894413 3.60471 2.56052)
(1.47973 2.46613 1.18112)
(1.56662 2.45337 0.988322)
(-0.220525 1.31687 1.10397)
(1.56975 0.689184 0.367666)
(-0.215315 -0.513319 0.879486)
(-1.441 1.6228 0.716587)
(-0.872473 2.38052 1.80223)
(0.617014 1.50761 -1.34681)
(0.506718 0.739622 -0.847785)
(-0.163143 0.604485 -0.448301)
(1.33349 0.653022 -0.574566)
(0.618154 0.584577 -0.979769)
(0.292751 1.64353 -0.783275)
(-0.247111 0.892891 -1.34986)
(-0.290251 0.414722 -1.34251)
(-0.0198319 0.683608 -1.734)
(0.834439 0.833271 -1.7254)
(1.12895 1.0747 -1.19293)
(1.40179 0.968895 -1.96941)
(1.34744 0.0975166 -0.688859)
(1.00638 0.00954694 -1.53423)
(0.0657318 0.913001 -2.00166)
(-0.163164 0.309536 -2.23143)
(0.38667 0.607495 -2.14183)
(0.112708 0.766277 -1.71091)
(0.356092 0.69215 -1.90338)
(0.293975 0.886862 -1.47633)
(0.332076 0.825478 -1.49579)
(0.0981868 0.274169 -1.67601)
(-1.85846 1.93878 -0.0126266)
(-1.49162 2.53178 -0.0208899)
(-1.25579 2.83071 0.00344849)
(-2.61615 2.12229 -0.0212414)
(-1.56459 3.10781 0.417716)
(-0.667184 3.55031 0.364172)
(-1.80311 2.87357 0.148545)
(-1.83739 3.34492 1.00196)
(-1.86797 3.91676 0.169636)
(0.413114 4.64904 0.708942)
(-0.440964 5.40449 -0.270295)
(-1.74572 4.68202 0.295123)
(-0.897376 5.37277 0.803129)
(0.331352 5.08832 1.22226)
(1.23887 5.11786 1.43725)
(-3.71511 2.62537 -0.019696)
(-1.35168 5.92641 0.789296)
(-0.191373 5.5937 1.09544)
(0.614885 5.50711 1.39251)
(0.828765 5.50665 1.50946)
(1.93198 5.10327 1.02472)
(-5.04121 3.07458 0.498455)
(-1.18717 5.19516 1.78803)
(0.774504 5.21214 1.37695)
(0.324333 5.139 1.97659)
(0.589047 5.02673 1.45967)
(1.49183 3.75392 1.22979)
(1.39781 3.29808 1.89516)
(-4.15467 3.14161 0.669552)
(0.100416 2.5721 1.51825)
(1.27663 2.84988 1.76129)
(0.915294 3.62556 2.24459)
(0.906389 3.60352 2.70695)
(1.60863 2.51968 1.04882)
(1.38572 2.37136 1.09475)
(1.45995 2.17493 0.859824)
(-0.167658 1.62195 1.03386)
(1.23607 0.604472 -0.00302374)
(-0.113454 -0.461864 0.515796)
(-1.1993 1.53359 -0.678506)
(-0.994593 2.40677 1.25229)
(0.425417 1.46638 -0.803753)
(0.489814 0.652081 -0.526318)
(0.0585474 0.566016 -0.683667)
(1.14412 0.829049 -1.1319)
(1.38642 0.796232 -0.655037)
(0.368478 0.542871 -0.725059)
(0.0655159 1.51385 -1.0997)
(-0.362207 0.902064 -1.47981)
(-0.344127 0.451945 -1.4497)
(0.115744 0.725776 -1.89369)
(1.00889 0.849799 -1.86487)
(1.12951 1.08201 -1.35914)
(1.34406 0.954225 -1.98939)
(1.24171 0.793554 -1.99004)
(1.37828 0.0963647 -0.67599)
(0.82213 -0.0744111 -1.48907)
(0.109859 0.94507 -1.9986)
(-0.263795 0.264767 -2.21963)
(0.398854 0.62856 -2.20139)
(0.125484 0.765763 -1.78957)
(0.303442 0.655982 -1.96211)
(0.26017 0.864695 -1.4778)
(0.250213 0.809138 -1.50987)
(0.143141 0.259828 -1.71546)
(0.448688 0.457706 -1.43092)
(-1.50509 1.98831 -0.0559261)
(-2.01687 1.79703 0.012526)
(-1.46527 2.46588 0.200658)
(-1.82114 2.31511 -0.047121)
(-1.43914 2.81459 -0.083627)
(-0.971947 3.18577 0.107335)
(-2.73858 1.9151 0.0439771)
(-1.70113 3.08266 0.552656)
(-0.971611 3.37894 0.397528)
(-0.726255 3.85722 0.184296)
(-1.79182 3.29564 0.167044)
(-2.06132 3.43107 0.82217)
(-1.42464 4.13189 0.545132)
(-0.760826 4.57036 0.802471)
(0.0396215 4.68956 1.46745)
(-1.45799 4.94324 -0.133534)
(-2.0611 4.71625 0.19585)
(-0.711514 5.4684 1.07538)
(0.311439 5.03431 1.24015)
(0.844843 5.2156 1.61761)
(1.7002 5.06408 1.37659)
(-4.21618 1.68534 0.0974179)
(-2.25888 5.60532 1.47921)
(-0.363505 5.75735 1.27185)
(0.715442 5.61615 1.29045)
(1.03709 5.52881 1.29527)
(1.31196 5.0286 1.32764)
(1.87134 4.71053 1.25064)
(-5.38259 2.65728 0.837736)
(-2.04453 5.1878 1.8173)
(0.0382527 5.03173 1.54487)
(0.550164 5.08821 2.16053)
(0.530825 5.00799 1.86603)
(1.05514 3.75118 1.64664)
(1.77311 3.2213 1.63392)
(2.24344 3.02903 1.30808)
(-4.66267 2.81361 0.813263)
(-0.630001 2.3467 1.66402)
(1.08409 2.53 1.60181)
(1.00184 3.33697 1.67047)
(1.24601 3.55986 2.13126)
(1.57836 2.62489 1.08186)
(1.12269 2.38066 0.9994)
(1.34328 2.07591 0.089497)
(0.954968 1.7143 -1.07442)
(-0.0425086 1.96638 0.93117)
(1.10771 0.685784 -0.0573769)
(0.0505472 -0.349107 0.0936497)
(-0.668851 1.4849 -1.57045)
(-0.868465 2.15768 1.14899)
(0.562823 1.42511 -0.470833)
(0.380953 0.563881 -0.264753)
(0.247026 0.582138 -0.962444)
(1.17637 0.92931 -1.43314)
(0.731155 0.78285 -1.42851)
(1.42446 0.907119 -0.686381)
(0.250465 0.485928 -0.70798)
(0.0995172 1.66506 -1.12363)
(-0.395461 0.917422 -1.57249)
(-0.404559 0.470049 -1.53359)
(0.178181 0.728834 -1.99421)
(0.985333 0.853131 -1.9949)
(0.994666 1.08132 -1.56154)
(1.20793 0.939452 -1.90291)
(0.951473 0.739326 -1.96622)
(1.24626 0.74807 -1.41593)
(1.33902 0.1156 -0.691285)
(0.698456 -0.133019 -1.4355)
(0.168746 1.0039 -1.99262)
(-0.333511 0.226029 -2.22034)
(0.44384 0.666104 -2.24848)
(0.142522 0.765648 -1.87519)
(0.332891 0.650164 -1.9615)
(0.140699 0.800109 -1.51121)
(0.221427 0.791622 -1.51846)
(0.211195 0.246185 -1.75416)
(0.336287 0.43074 -1.43935)
(0.127278 0.166858 -1.42774)
(-1.40261 1.81377 -0.0842317)
(-1.66416 1.84217 -0.0842216)
(-1.21428 2.44895 0.0146099)
(-1.44028 2.04156 -0.0476013)
(-2.04092 1.79963 -0.000972246)
(-1.55043 2.39567 0.174048)
(-0.735805 2.71814 0.121892)
(-1.8807 2.2668 -0.0514615)
(-1.59317 2.80208 -0.11896)
(-0.818605 3.22398 0.0423082)
(-0.384412 3.22652 -0.0475076)
(-2.62832 1.93923 0.120773)
(-1.83729 2.99233 0.549113)
(-0.993902 3.33524 0.296386)
(-0.960768 3.89365 0.197313)
(0.0840408 4.19468 0.533977)
(-1.52454 3.80062 0.100578)
(-2.27539 3.36024 0.73997)
(-1.52928 4.10249 0.485254)
(-0.794051 4.60395 0.955749)
(0.592076 4.69241 1.51552)
(1.41825 4.64559 1.78208)
(-3.34332 3.4142 0.164939)
(-2.40027 4.52925 0.240777)
(-1.27735 5.45766 0.885021)
(-0.0469127 5.27812 1.22876)
(0.769918 5.2106 1.51708)
(1.40135 5.00533 1.65563)
(1.62199 4.70179 1.73233)
(-4.34449 0.89063 0.306114)
(-2.5202 5.40445 1.72681)
(-1.17232 5.63975 1.51771)
(0.251722 5.53819 1.7582)
(0.783245 5.42439 1.53439)
(1.12068 5.05041 1.4821)
(1.72389 4.4946 1.3251)
(2.15603 4.19391 1.47406)
(-5.40249 2.42712 0.815061)
(-3.22306 4.73041 1.92917)
(-0.273501 5.07036 1.79975)
(0.929986 5.12836 1.85848)
(0.899283 4.94342 2.28251)
(0.800086 3.68523 2.54302)
(1.83779 3.32069 1.32868)
(2.51352 3.16009 0.896249)
(2.25393 3.15166 0.69437)
(-4.77768 2.94442 0.799089)
(-1.32154 2.31249 1.74909)
(0.598231 2.45584 1.57533)
(0.930494 2.99118 0.327239)
(1.17769 3.4143 1.58325)
(1.40508 2.63384 1.19654)
(1.1103 2.37678 0.774924)
(1.25629 1.81466 -0.612246)
(0.705415 1.55755 -0.514298)
(-0.235525 1.10657 0.537663)
(-0.101246 2.23108 0.876677)
(0.999705 0.782732 0.0677273)
(0.244981 -0.14868 -0.384984)
(0.0135909 1.58846 -1.99286)
(-0.433781 2.07449 1.37454)
(0.685999 1.44277 -0.480102)
(0.209491 0.555495 -0.164663)
(0.430293 0.671257 -1.0557)
(1.05249 1.02467 -1.5658)
(0.675064 0.855836 -1.38415)
(0.453235 0.690116 -0.92297)
(1.40733 0.991924 -0.660105)
(0.277149 0.479715 -0.768437)
(-0.183365 1.64424 -1.19407)
(-0.574201 0.72293 -1.72381)
(-0.454458 0.442047 -1.60258)
(0.169038 0.713714 -2.00207)
(0.908365 0.839595 -2.01934)
(0.940096 1.06771 -1.60596)
(1.00317 0.887575 -1.77905)
(0.622153 0.650944 -1.82542)
(1.05758 0.717391 -1.31418)
(1.04229 0.528786 -1.45779)
(1.33612 0.209072 -0.703376)
(0.647415 -0.161821 -1.37667)
(0.189699 1.00725 -2.04672)
(-0.380945 0.213804 -2.19679)
(0.483679 0.709389 -2.29169)
(0.155926 0.774206 -1.97431)
(0.389737 0.661211 -1.94827)
(0.078418 0.761348 -1.53443)
(0.252549 0.789486 -1.48848)
(0.295747 0.255606 -1.78005)
(0.256348 0.398862 -1.4575)
(0.202461 0.155648 -1.43538)
(0.599587 -0.0509068 -1.41943)
(-1.45225 1.61296 -0.0181934)
(-1.49431 1.78479 -0.0408531)
(-1.06833 2.18366 0.0535429)
(-1.29509 1.88567 -0.02875)
(-1.83907 1.67725 -0.0364152)
(-1.36343 2.28972 0.0938747)
(-0.747502 2.72422 0.0347449)
(-1.17948 2.46781 -0.0662125)
(-2.09522 1.74208 0.0371692)
(-1.63145 2.28018 0.151802)
(-0.849863 2.73645 0.123475)
(-0.60691 2.87799 -0.000268481)
(-2.00666 2.13525 -0.0242376)
(-1.72874 2.80861 -0.0901941)
(-1.00573 3.16365 0.0659431)
(-0.404907 3.31247 -0.105119)
(-0.347808 3.50914 -0.207413)
(-2.72214 1.897 0.253965)
(-2.23754 2.716 0.482945)
(-1.50693 3.2637 0.173591)
(-1.03768 3.84449 0.193515)
(-0.000553034 4.16808 0.525517)
(0.755457 4.37765 1.07703)
(-1.44579 3.99379 0.0202047)
(-1.72588 3.74889 0.637684)
(-1.62121 4.20518 0.579818)
(-0.987591 4.67349 0.966162)
(0.826936 4.72196 1.51901)
(1.27812 4.64733 1.8732)
(1.428 4.51379 2.04245)
(-4.1822 2.20341 0.340277)
(-2.27495 4.46446 -0.0930234)
(-1.63033 5.3953 0.693987)
(-0.326582 5.32713 1.69393)
(0.580772 5.09375 1.7876)
(1.19318 4.88762 1.78759)
(1.46097 4.69396 1.88923)
(1.57333 4.3946 1.95456)
(-4.00644 0.518812 0.476321)
(-2.35272 5.32077 2.12675)
(-1.40158 5.53948 1.4752)
(-0.149022 5.39632 1.96275)
(0.630418 5.33231 1.83946)
(1.58224 4.9378 1.21278)
(1.08104 4.45196 1.75539)
(1.65551 4.12155 1.87311)
(1.51641 3.99885 1.99403)
(-5.46614 1.9129 0.277817)
(-3.54131 4.28355 2.12828)
(-1.44249 4.77258 2.09519)
(0.507604 5.10026 1.93257)
(0.696606 5.06416 2.31006)
(0.82852 3.91779 2.81481)
(1.92662 3.44111 1.0462)
(2.59204 3.38233 0.50695)
(2.40229 3.08292 0.438714)
(1.2737 3.39214 1.22521)
(-4.33105 3.54769 1.16766)
(-1.45343 2.50039 1.62053)
(0.432943 2.36836 1.45145)
(0.280208 2.57451 -0.777386)
(-0.689276 2.39479 1.40196)
(0.583482 2.3676 1.40567)
(0.698156 2.16837 1.14925)
(0.821023 1.54399 -0.18653)
(0.561562 1.14684 0.641963)
(-0.314034 0.926147 0.691253)
(-0.612313 0.950462 0.420185)
(-0.324017 2.2319 0.926574)
(0.838856 0.837293 0.178876)
(0.418497 0.0368471 -0.794697)
(0.334148 1.63758 -2.1728)
(-0.290224 2.1288 1.02145)
(0.695529 1.53884 -0.627904)
(0.125429 0.57988 -0.165633)
(0.334455 0.754925 -1.08)
(0.965858 1.05281 -1.4599)
(0.576942 0.917025 -1.27639)
(0.492792 0.740267 -0.964939)
(0.297263 0.730464 -0.685965)
(1.34658 1.08076 -0.621101)
(0.247331 0.492627 -0.929817)
(-0.196608 1.57548 -1.24641)
(-0.601238 0.659944 -1.68595)
(-0.478314 0.408944 -1.60668)
(0.167556 0.685274 -1.94427)
(0.752055 0.799589 -1.99133)
(0.807212 0.993212 -1.65508)
(0.791618 0.799002 -1.61883)
(0.315389 0.5415 -1.61546)
(0.801568 0.646979 -1.12785)
(0.848573 0.505451 -1.24477)
(1.08678 0.477211 -1.26125)
(1.39574 0.189433 -0.748664)
(0.597659 -0.180432 -1.36024)
(0.2052 1.03186 -2.0776)
(-0.315244 0.267018 -2.17842)
(0.493309 0.743033 -2.33484)
(0.203148 0.792927 -2.08484)
(0.43616 0.667614 -1.9671)
(0.0424956 0.724636 -1.56228)
(0.28771 0.797086 -1.47284)
(0.40087 0.285686 -1.78062)
(0.246683 0.381548 -1.47997)
(0.303611 0.155769 -1.44549)
(0.673824 -0.0574092 -1.45427)
(0.634775 -0.103874 -1.31877)
(-1.14532 1.68878 -0.0580871)
(-1.4886 1.57053 -0.0381313)
(-1.16844 1.97683 0.00764131)
(-1.30784 1.70826 -0.00307434)
(-1.73173 1.59506 -0.040587)
(-1.20453 2.13986 0.0755306)
(-0.695583 2.53439 -0.168801)
(-1.00939 2.20172 0.029745)
(-1.90655 1.60403 -0.011301)
(-1.60028 2.10531 0.136035)
(-0.832096 2.69293 0.0432208)
(-0.501451 2.76623 0.121262)
(-0.32849 2.72415 0.0776102)
(-2.17469 1.67842 0.0894162)
(-1.68547 2.26913 0.0915544)
(-1.03476 2.76233 0.140289)
(-0.792258 2.92946 0.00835699)
(-0.450664 2.91844 -0.0761221)
(-2.09893 2.11851 0.0290264)
(-2.06536 2.54667 -0.11421)
(-1.06945 3.15279 0.092791)
(-0.733769 3.36296 -0.089283)
(-0.148721 3.48333 -0.197193)
(0.415274 3.56338 0.548475)
(-3.11844 1.74395 0.260008)
(-2.43256 2.79092 0.522467)
(-1.3605 3.45593 0.310821)
(-1.14153 3.72463 0.226717)
(-0.132539 4.12753 0.601122)
(0.5254 4.24532 1.08638)
(1.04371 4.20603 1.65892)
(-2.29227 3.46474 -0.0139599)
(-2.35504 3.38894 0.535302)
(-1.79211 4.19974 0.723046)
(-1.08023 4.6508 0.999526)
(0.394752 4.73238 1.82146)
(0.792911 4.57397 2.01927)
(1.15494 4.49122 2.35101)
(1.29525 4.30667 2.16676)
(-4.32482 1.50951 0.533202)
(-2.50325 4.32807 -0.140998)
(-1.88266 5.12655 0.695047)
(-0.345128 5.2716 1.95013)
(0.842796 5.08288 2.07037)
(1.12555 4.84872 1.8677)
(1.01735 4.67659 2.30085)
(1.58463 4.49767 2.07815)
(1.34013 4.44877 2.15716)
(-3.37347 0.590496 0.321592)
(-2.99258 4.81262 1.23524)
(-1.78176 5.50572 1.37261)
(-0.401417 5.37603 2.21348)
(0.400599 5.20346 2.18442)
(0.600271 4.53257 2.07287)
(1.08277 4.31437 1.76572)
(1.27402 4.16199 2.06761)
(1.08686 3.97407 2.16984)
(0.94398 4.18871 2.22532)
(-5.2404 1.89896 -0.257792)
(-3.30415 4.36 1.98596)
(-1.49028 4.84997 2.15665)
(-0.527036 4.97484 1.67707)
(0.813145 4.93572 1.88842)
(0.414585 4.19934 2.53635)
(1.51897 3.78003 0.350911)
(1.85085 3.4365 0.735134)
(1.92951 2.97359 0.536975)
(1.06798 3.09857 1.579)
(0.660537 2.84302 1.85323)
(-4.30157 3.58761 1.04604)
(-1.35554 2.74358 1.62614)
(0.268752 2.58936 1.49288)
(0.0529496 2.28675 -0.37147)
(-1.4398 1.49129 1.24842)
(-0.576572 1.72389 1.42691)
(-0.246469 1.63694 1.61773)
(0.0970076 0.997252 0.956917)
(0.469544 0.912752 0.795877)
(-0.263684 0.837635 0.611607)
(-0.678084 0.840385 0.204038)
(-0.435056 1.32967 0.455345)
(-0.652364 1.98161 1.11327)
(0.687924 0.922393 0.280558)
(0.510318 0.244727 -1.02586)
(0.380354 1.53983 -2.30347)
(0.0178805 2.24088 0.277577)
(0.600114 1.65599 -0.971544)
(-0.0535553 0.63723 -0.223589)
(0.274542 0.853927 -1.17945)
(0.71986 1.04928 -1.31229)
(0.383993 0.913256 -1.1578)
(0.391423 0.849615 -1.01252)
(0.3039 0.849686 -0.670861)
(0.706393 0.670305 -0.97824)
(1.29678 1.17155 -0.62079)
(0.263584 0.495456 -1.07376)
(-0.358855 1.52468 -1.26669)
(-0.599244 0.585606 -1.49527)
(-0.51746 0.331865 -1.51504)
(0.0602429 0.610214 -1.89821)
(0.561103 0.742976 -1.9251)
(0.608464 0.886534 -1.71285)
(0.588654 0.710245 -1.4583)
(0.0733612 0.437526 -1.38299)
(0.502258 0.552583 -0.935451)
(0.604588 0.470678 -0.987519)
(0.944495 0.458888 -1.03061)
(0.974532 0.494163 -1.38715)
(1.43019 0.242062 -0.751161)
(0.582349 -0.188838 -1.35229)
(0.186919 1.0252 -2.03715)
(-0.308958 0.273638 -2.17501)
(0.459952 0.75208 -2.37641)
(0.256908 0.83362 -2.19696)
(0.389778 0.639053 -2.02398)
(0.0376287 0.70241 -1.61528)
(0.339115 0.81487 -1.45494)
(0.469713 0.316851 -1.75564)
(0.274759 0.381461 -1.51291)
(0.402659 0.169846 -1.44986)
(0.72107 -0.0544996 -1.467)
(0.613646 -0.114216 -1.32611)
(0.348591 -0.30672 -1.27202)
(-1.16533 1.45827 0.00788558)
(-1.25601 1.5884 -0.0345326)
(-1.04077 1.89812 -0.0838146)
(-1.09616 1.69728 -0.0177513)
(-1.54346 1.50852 -0.0295582)
(-1.25116 1.9271 -0.0383461)
(-0.598771 2.25087 0.129517)
(-1.04057 2.0601 0.0505737)
(-1.79359 1.52416 -0.0476438)
(-1.32003 2.11682 0.0297493)
(-0.686061 2.51217 -0.112209)
(-1.01656 2.51251 0.0136788)
(-0.72529 2.52297 -0.185855)
(-2.00535 1.49037 0.0129739)
(-1.75041 2.05626 0.0715947)
(-1.06796 2.54995 0.107605)
(-0.518127 2.7766 0.168698)
(-0.514518 2.70728 0.436387)
(-0.446327 2.65031 0.0541086)
(-2.29634 1.61422 0.0867832)
(-1.99183 2.11648 0.0552733)
(-0.855303 2.92809 0.140211)
(-0.750083 3.01653 0.096381)
(-0.564531 2.93952 0.0455468)
(-0.43284 3.03582 0.185348)
(-2.43013 1.79942 -0.0113035)
(-1.26765 3.12953 0.149235)
(-1.18557 2.99999 0.0444638)
(-0.813402 3.35183 -0.154489)
(-0.151814 3.54557 -0.198353)
(0.00648366 3.56406 0.492643)
(0.839472 3.61279 0.838452)
(-3.21288 2.02251 0.159593)
(-2.67291 2.60485 0.502216)
(-1.34076 3.44141 0.358352)
(-1.36979 3.6594 0.2552)
(-0.544824 4.16602 0.49768)
(0.229011 4.1609 1.15195)
(0.942279 4.17153 1.69217)
(1.03848 4.18703 1.6933)
(-2.78508 3.00519 -0.037254)
(-2.63499 3.44832 0.344219)
(-1.86464 4.1 0.836049)
(-1.62026 4.52792 0.813175)
(-0.0835632 4.71817 1.87145)
(0.735666 4.57899 2.05152)
(0.933646 4.47463 2.41087)
(0.979599 4.3991 2.35193)
(1.17638 4.26692 2.17031)
(-4.23553 0.807097 0.680432)
(-3.2023 4.06133 -0.077452)
(-2.23443 4.64765 1.11838)
(-0.810759 5.14178 1.9985)
(0.111799 5.13576 2.35898)
(0.646915 4.81913 2.27859)
(1.18837 4.51871 2.45036)
(0.64088 4.47073 2.65339)
(0.861294 4.42868 2.38018)
(1.08814 4.58412 2.25501)
(-2.28453 1.31041 -0.272421)
(-4.29124 3.5389 0.0614169)
(-1.47781 5.69932 1.67384)
(-0.55415 5.32127 2.23371)
(0.0587685 5.07897 2.28114)
(0.136488 4.4321 2.41767)
(1.15153 4.33348 1.58407)
(1.01228 4.35379 2.0737)
(0.768789 4.10312 2.15531)
(0.644318 4.13395 2.42443)
(0.697526 4.05701 2.41377)
(-4.72372 1.87863 -0.442144)
(-3.13176 4.48343 1.77596)
(-2.97682 3.93835 2.57651)
(-0.0653872 5.04629 1.22426)
(0.401995 4.79442 1.58146)
(0.551147 4.35594 0.7661)
(1.42756 3.61388 0.380143)
(1.56145 3.10511 1.17838)
(1.15284 2.73443 0.724673)
(1.29396 2.91293 1.27056)
(1.35623 2.77187 1.17991)
(0.948815 2.83178 1.26599)
(-3.68297 4.04898 1.35049)
(-1.35474 2.78068 2.01459)
(-0.208356 2.37371 2.28829)
(-0.00394883 2.30553 0.0142174)
(-1.05744 1.33958 1.11539)
(-0.442895 1.52333 1.08679)
(-0.270455 1.39673 1.56167)
(-0.0744298 0.845801 1.13762)
(0.174623 0.792516 0.661635)
(-0.219015 0.808287 0.542177)
(-0.619268 0.785371 0.115764)
(-0.520773 1.23839 0.413425)
(-0.282495 1.63553 -0.274553)
(-0.811699 1.77541 1.12274)
(0.531387 0.929932 0.250311)
(0.517234 0.411508 -1.10795)
(0.283003 1.34899 -2.38102)
(0.168982 2.26475 -0.251394)
(0.464146 1.68769 -1.28808)
(-0.221856 0.66109 -0.315809)
(0.234759 0.936301 -1.21691)
(0.54541 1.02866 -1.13381)
(0.198317 0.870055 -1.11395)
(0.320252 0.842937 -1.10956)
(0.364228 0.923004 -0.714734)
(0.501414 0.968224 -0.860159)
(1.05571 1.61902 -0.64463)
(1.24103 1.25183 -0.612413)
(0.287486 0.531706 -1.13162)
(-0.428387 1.50323 -1.23948)
(-0.568077 0.52654 -1.28261)
(-0.541691 0.262544 -1.35567)
(-0.020205 0.513913 -1.86877)
(0.402533 0.688498 -1.80317)
(0.432522 0.768276 -1.72013)
(0.397128 0.583643 -1.35555)
(-0.0159215 0.378925 -1.17577)
(0.211927 0.436847 -0.777796)
(0.389372 0.407187 -0.736234)
(0.73917 0.445878 -0.781341)
(0.899974 0.453233 -1.10791)
(0.547064 0.494634 -1.02575)
(1.38137 0.285387 -0.758417)
(0.568055 -0.185478 -1.35365)
(0.172806 1.07473 -1.90603)
(-0.332239 0.266485 -2.15063)
(0.407397 0.745508 -2.4015)
(0.312711 0.886732 -2.31013)
(0.306668 0.582511 -2.08001)
(0.0725397 0.706907 -1.68826)
(0.384288 0.843028 -1.43083)
(0.528825 0.356844 -1.69012)
(0.33203 0.396716 -1.5458)
(0.492988 0.187963 -1.44574)
(0.725035 -0.0531868 -1.43384)
(0.555995 -0.134545 -1.32007)
(0.364068 -0.303931 -1.29603)
(0.265806 -0.502139 -1.55488)
(-0.995901 1.38931 -0.0115834)
(-1.20294 1.43471 0.00215319)
(-1.16204 1.65412 -0.103694)
(-1.07705 1.52227 0.0162789)
(-1.35969 1.49867 -0.00215962)
(-1.17769 1.83998 -0.00251726)
(-0.591944 2.15638 0.136399)
(-0.80021 2.03005 -0.0652992)
(-0.899762 1.8083 0.00858031)
(-1.66367 1.37544 0.0256371)
(-1.43882 1.82749 -0.0812843)
(-0.799828 2.16765 0.143533)
(-1.08552 2.211 0.0073864)
(-0.765662 2.23617 0.0115663)
(-1.83098 1.46342 0.0205266)
(-1.59187 2.00141 0.0164149)
(-0.795336 2.51253 -0.105025)
(-0.97059 2.55324 -0.0152667)
(-0.710867 2.44405 0.274084)
(-0.958388 2.40039 0.124734)
(-2.08254 1.35322 0.0471422)
(-2.03544 1.88669 0.0524371)
(-1.20467 2.5616 0.172108)
(-0.586029 2.75006 0.11961)
(-0.624646 2.72134 0.297009)
(-0.457675 2.78572 0.36795)
(-0.380164 2.64065 0.281614)
(-2.38727 1.62225 0.108913)
(-2.33641 1.99076 -0.0252963)
(-1.2491 2.81209 0.303608)
(-0.745449 2.995 0.114553)
(-0.5525 3.10317 -0.0460279)
(-0.718275 3.09525 0.260869)
(0.173698 3.10312 0.49549)
(-2.59501 1.64826 -0.0235952)
(-2.30687 2.49054 -0.0434693)
(-1.15072 3.0504 0.0594746)
(-0.974403 3.27284 -0.0894435)
(-0.796948 3.48122 -0.102811)
(0.0796494 3.72564 0.304642)
(0.270277 3.71179 0.782863)
(0.533983 3.64951 1.17944)
(-3.41839 1.76895 0.120066)
(-2.78844 2.56537 0.400871)
(-1.51143 3.3897 0.406005)
(-1.51012 3.63977 0.270704)
(-0.963853 4.1923 0.401685)
(0.00810894 4.17 1.18134)
(0.590288 4.22543 1.6191)
(0.807212 4.25753 1.88024)
(0.937863 4.18599 1.87065)
(-3.09244 2.51427 0.00394678)
(-3.45809 2.91287 0.307228)
(-2.13996 3.99992 0.888888)
(-2.01194 4.48493 0.59927)
(-0.614517 4.73512 1.88707)
(-0.0238935 4.60347 2.11664)
(0.695435 4.44842 2.44262)
(0.685725 4.46229 2.50324)
(0.68746 4.36016 2.40791)
(0.88493 4.41731 2.22707)
(-3.8388 0.727233 0.627927)
(-3.40591 4.04178 0.108098)
(-2.34806 4.50696 1.37155)
(-1.48778 4.92094 1.78424)
(-0.442326 5.05924 2.50357)
(0.237234 4.72187 2.62415)
(0.623367 4.45991 2.5718)
(0.463587 4.38413 2.74519)
(0.417645 4.37903 2.56221)
(0.519709 4.49099 2.47722)
(0.667238 4.58555 2.3984)
(-2.20254 1.34057 -0.434133)
(-4.14471 3.54924 -0.00116926)
(-1.13311 5.58745 1.943)
(-0.635538 5.1402 2.39397)
(-0.0832751 5.16167 2.47838)
(0.0876857 4.45065 2.271)
(1.36254 4.43999 1.44629)
(0.737164 4.32311 2.24798)
(0.553541 4.14552 2.30055)
(0.580192 4.16768 2.48985)
(0.900697 4.00586 2.46329)
(0.955989 3.87719 2.54753)
(-4.54019 1.76712 -0.413483)
(-3.67234 3.9321 1.88114)
(-1.63996 4.57017 2.03152)
(-2.16132 3.88901 1.85328)
(-0.314527 4.21099 2.49493)
(0.345859 4.1913 -0.0293331)
(0.854633 3.27135 1.09241)
(1.16139 2.77558 1.38873)
(0.651358 2.44239 1.03957)
(0.397778 2.57753 1.36304)
(0.305792 2.71707 1.35776)
(1.13017 2.87704 0.728869)
(0.728238 3.34316 0.911155)
(-3.32238 4.2253 1.69811)
(-1.40351 2.89181 2.37972)
(-0.425066 2.1278 2.94274)
(-0.326338 2.25846 1.18534)
(-0.556523 1.37658 1.22358)
(-0.549268 1.38761 0.628191)
(-0.32109 1.29723 1.22032)
(-0.137828 0.861949 0.926701)
(-0.00349044 0.813104 0.460229)
(-0.261242 0.8893 0.431737)
(-0.611365 0.812913 -0.0742336)
(-0.549434 1.14646 0.274557)
(-0.595204 1.60195 -0.052587)
(-0.607252 1.71083 -0.105275)
(-0.794143 1.71004 0.890229)
(0.390395 0.938213 0.134722)
(0.561573 0.593096 -0.98829)
(-0.0166378 1.12054 -2.02375)
(0.240305 2.09978 -1.27235)
(0.373376 1.71324 -1.16857)
(-0.262241 0.671205 -0.479484)
(0.0189385 1.01869 -1.21421)
(0.402606 1.06003 -0.987725)
(0.00876098 0.864481 -1.09127)
(0.088243 0.861354 -1.16359)
(0.377062 1.01152 -0.749748)
(0.442915 0.993196 -0.773582)
(1.00357 1.60925 -0.717311)
(1.40967 1.65008 -0.58499)
(1.1537 1.31802 -0.583895)
(0.333844 0.588117 -1.15093)
(-0.438881 1.49068 -1.18073)
(-0.563731 0.510862 -1.01484)
(-0.535742 0.184411 -1.2538)
(-0.0721445 0.441459 -1.80424)
(0.200415 0.593068 -1.66491)
(0.318557 0.643916 -1.6383)
(0.317849 0.491847 -1.25738)
(-0.0611846 0.332481 -1.02664)
(0.107142 0.357198 -0.714927)
(0.326878 0.358396 -0.516795)
(0.603832 0.415974 -0.527714)
(0.759372 0.41117 -0.82877)
(0.461874 0.430136 -0.954794)
(0.526444 0.132068 -1.2186)
(1.39139 0.361376 -0.766942)
(0.559856 -0.181802 -1.35365)
(0.0926954 0.942381 -1.91524)
(-0.401645 0.20771 -2.1042)
(0.340155 0.723553 -2.40035)
(0.356652 0.937091 -2.42199)
(0.198492 0.498509 -2.12699)
(0.128656 0.727662 -1.77302)
(0.430727 0.869768 -1.41271)
(0.562451 0.386442 -1.60059)
(0.408248 0.427119 -1.5695)
(0.564672 0.213812 -1.43431)
(0.668565 -0.0661087 -1.39157)
(0.512205 -0.1495 -1.30823)
(0.370117 -0.305255 -1.31421)
(0.267879 -0.502945 -1.57011)
(0.679536 -0.270857 -1.81825)
(-1.06912 1.22583 0.0281079)
(-1.06815 1.37326 -0.023023)
(-1.07489 1.55322 0.0468329)
(-0.858135 1.48048 -0.0308132)
(-1.31406 1.35575 -0.00226421)
(-1.16591 1.65722 -0.070419)
(-0.893062 1.90367 0.152097)
(-0.990868 1.78984 -0.154245)
(-1.05332 1.54267 0.0678957)
(-1.52114 1.3588 0.0178684)
(-1.37302 1.72043 0.00780553)
(-0.734796 2.09317 0.139873)
(-1.00264 2.04243 0.253138)
(-0.612273 2.14958 0.115536)
(-0.714778 2.06376 -0.0488627)
(-1.71417 1.30642 0.0512458)
(-1.60102 1.76786 -0.0762228)
(-0.909917 2.1401 0.103331)
(-0.960735 2.21408 0.0802705)
(-1.05394 2.19078 0.137513)
(-1.05909 2.25042 0.0153085)
(-2.01242 1.1883 0.0604043)
(-1.78165 1.87638 0.00660337)
(-0.996637 2.49404 -0.0331125)
(-0.785339 2.60771 -0.0257516)
(-0.863954 2.48667 0.237726)
(-0.182158 2.56494 0.367294)
(-0.654459 2.38832 0.323677)
(-2.03682 1.43101 0.0393998)
(-2.0164 1.86969 -0.035495)
(-1.29141 2.5655 0.200753)
(-0.747518 2.72176 0.147762)
(-0.628386 2.77361 0.28585)
(-0.589985 2.69516 0.329913)
(-0.369312 2.82832 0.324905)
(-0.480786 2.70016 0.392789)
(-2.50178 1.42129 0.116993)
(-2.27893 2.18771 -0.111266)
(-1.4518 2.81755 0.400567)
(-0.784031 3.01123 0.151229)
(-0.872036 3.1123 0.175456)
(-0.845561 3.1287 0.238673)
(-0.0163284 3.10857 0.473373)
(0.649404 3.02942 0.983832)
(-2.71027 1.56998 0.112311)
(-2.51831 2.34723 -0.118275)
(-1.55735 3.07273 0.0649993)
(-1.11524 3.17903 0.0737588)
(-0.705866 3.5312 -0.175087)
(-0.875182 3.61955 0.158157)
(0.0871498 3.72675 0.741302)