/*--------------------------------*- C++ -*----------------------------------*\
  =========                 |
  \\      /  F ield         | OpenFOAM: The Open Source CFD Toolbox
   \\    /   O peration     | Website:  https://openfoam.org
    \\  /    A nd           | Version:  7
     \\/     M anipulation  |
\*---------------------------------------------------------------------------*/
FoamFile
{
    version     2.0;
    format      ascii;
    class       volVectorField;
    location    "3.5";
    object      U_0;
}
// * * * * * * * * * * * * * * * * * * * * * * * * * * * * * * * * * * * * * //

dimensions      [0 1 -1 0 0 0 0];

internalField   nonuniform List<vector> 
18750
(
(3.32863 0.168505 -0.946552)
(3.13663 -0.333782 -0.849279)
(3.141 0.221358 -0.811777)
(2.82154 0.363717 -2.49132)
(1.25753 1.26483 -0.201605)
(2.86783 -0.197284 -0.871099)
(2.21374 0.98798 -0.0285748)
(2.87276 0.2543 -0.748433)
(2.71396 0.372633 -2.30706)
(0.156374 0.964742 -2.25255)
(2.75995 3.53308 0.195774)
(1.23958 1.15893 0.198459)
(0.578074 1.42881 0.179128)
(2.55405 -0.0567196 -0.862814)
(2.58506 1.17211 -0.0880459)
(0.215969 1.38213 -0.305683)
(2.56203 0.255127 -0.729073)
(2.56823 0.374704 -2.0732)
(0.142964 0.951504 -2.24491)
(0.0758724 0.353894 -2.1812)
(-0.9322 4.60455 -0.0170239)
(2.96009 3.72285 0.156316)
(2.16896 3.17372 2.07744)
(0.998948 1.13849 0.539244)
(0.806047 1.25077 0.20061)
(-0.663366 0.356307 3.02957)
(2.18569 0.0355964 -0.816219)
(2.62912 1.18778 -0.859239)
(0.543303 1.39815 -0.402791)
(-0.176275 0.51981 -0.399653)
(2.24063 0.23115 -0.729649)
(2.35034 0.361809 -1.85873)
(0.16587 0.956904 -2.25707)
(-0.0372959 0.342303 -2.16043)
(0.459414 0.579663 -1.77899)
(-0.868551 5.45575 -0.168528)
(-1.39902 4.76546 -0.107726)
(0.11119 4.58879 1.72775)
(0.419232 3.57076 -0.0564708)
(2.44876 3.09597 2.01432)
(0.79529 4.0528 2.47736)
(0.7139 1.10316 0.787274)
(1.57922 1.53844 0.123877)
(-0.715265 0.179936 2.21572)
(-0.590353 2.11271 3.17048)
(1.81436 0.140914 -0.71812)
(2.41246 1.14363 -1.22512)
(0.204858 1.62238 -0.0899183)
(-0.179695 0.576611 -0.518409)
(-0.21092 0.198997 -1.04013)
(1.93508 0.18883 -0.735117)
(2.08607 0.325349 -1.69772)
(0.191382 0.959892 -2.27693)
(-0.0913358 0.332061 -2.16591)
(0.481538 0.586743 -1.85635)
(0.208476 0.747054 -1.44522)
(-1.78263 4.29471 0.320945)
(-0.70595 5.49102 0.00863284)
(-0.884833 5.53571 0.697985)
(-2.01611 4.90164 -0.110161)
(-0.546933 4.8966 1.76693)
(-0.11015 4.76493 1.63423)
(-0.752139 3.46608 -0.0754209)
(2.833 3.04417 1.83383)
(0.836466 3.99724 2.45961)
(0.24873 4.27951 2.18606)
(0.0896023 1.10383 0.966809)
(2.18671 1.16089 0.205714)
(-0.550018 -0.104255 1.48922)
(-0.923663 2.09648 3.03175)
(0.60281 1.98992 1.51001)
(1.50825 0.243976 -0.603601)
(1.83268 1.02358 -1.54918)
(0.324767 1.51581 -0.302688)
(-0.164092 0.653332 -0.704857)
(-0.228884 0.229247 -1.06072)
(-0.611982 0.682347 -1.15903)
(1.67056 0.137459 -0.736649)
(1.78966 0.264896 -1.61679)
(0.185571 0.948651 -2.24541)
(-0.165611 0.318859 -2.16967)
(0.481334 0.594383 -1.93095)
(0.176469 0.763459 -1.50038)
(0.427338 0.718692 -1.70683)
(-2.14105 2.76878 -0.0426588)
(-1.585 4.51279 0.228653)
(-1.64551 4.75898 0.369462)
(-0.876521 5.41232 0.0654956)
(-0.916108 5.66291 0.27045)
(-0.16317 5.80504 1.24876)
(-3.4166 4.27011 -0.323612)
(-0.272146 4.87461 1.67632)
(-0.187855 4.83615 1.84177)
(-0.21912 5.04282 1.67973)
(-1.76853 3.44314 0.43097)
(2.6693 3.05202 1.61559)
(0.973265 3.83699 2.415)
(0.0436935 4.29831 2.04892)
(1.10791 3.65143 2.12526)
(-0.285835 1.06145 1.0789)
(2.19553 1.08689 0.457584)
(-0.385206 -0.365436 1.14907)
(-1.31193 1.96901 2.76625)
(0.0366211 2.18645 1.91377)
(1.30086 1.47911 -1.60575)
(1.28268 0.375116 -0.466305)
(1.2434 0.84406 -1.66983)
(0.355066 1.54034 -0.465107)
(-0.148328 0.742344 -0.936839)
(-0.253763 0.279697 -1.12606)
(-0.415865 0.651106 -1.35705)
(0.322091 0.773824 -1.41408)
(1.47016 0.0932014 -0.729586)
(1.49345 0.190817 -1.58641)
(0.0564962 0.947297 -2.13847)
(-0.176438 0.309373 -2.19674)
(0.475802 0.605008 -2.0002)
(0.151146 0.76841 -1.56897)
(0.430824 0.717791 -1.78034)
(0.437139 0.936868 -1.40062)
(-2.20569 2.52801 -0.0086945)
(-2.14693 2.59328 -0.0297415)
(-1.45251 3.5022 0.966894)
(-1.16719 4.83173 0.0428968)
(-1.6417 4.78928 0.26961)
(-0.869961 4.97899 0.72446)
(-1.21789 5.11335 -0.0798376)
(-0.921669 5.62038 0.228467)
(-0.143575 5.82835 1.22255)
(0.545542 5.80888 1.51307)
(-4.19738 3.76804 -0.0649836)
(0.735851 5.29937 1.82793)
(0.212994 4.89548 1.64748)
(-0.0639939 5.08339 1.80078)
(0.948353 4.83831 0.755085)
(-2.80496 3.32074 0.445929)
(2.03335 2.87303 1.45357)
(1.03826 3.55829 2.32827)
(0.453337 4.0119 2.47015)
(1.03678 3.61518 2.24743)
(1.38365 2.4705 1.49006)
(-0.323202 1.12958 1.11166)
(1.90826 0.858778 0.592572)
(-0.283562 -0.487927 1.03429)
(-1.58564 1.76616 2.2546)
(-0.699596 2.31323 1.98326)
(1.01444 1.51248 -1.58019)
(0.680238 0.916153 -1.13693)
(1.27765 0.531476 -0.505496)
(0.824115 0.697597 -1.43642)
(0.312636 1.62065 -0.624238)
(-0.161841 0.834013 -1.18417)
(-0.27099 0.349593 -1.22925)
(-0.192332 0.650099 -1.54898)
(0.535812 0.775722 -1.62079)
(1.09975 1.00769 -1.03605)
(1.36455 0.0770735 -0.715173)
(1.23661 0.10038 -1.55898)
(0.0549317 0.916835 -2.00644)
(-0.13144 0.313874 -2.22642)
(0.440214 0.60774 -2.07335)
(0.124666 0.767289 -1.64613)
(0.41207 0.710455 -1.8504)
(0.338205 0.906692 -1.45513)
(0.410568 0.854123 -1.51197)
(-1.61639 2.43546 0.0645272)
(-2.47781 2.30118 -0.0514093)
(-1.46039 3.13864 0.236213)
(-1.88122 2.68077 0.0883132)
(-0.673814 3.82564 1.13659)
(-1.74183 3.86856 0.223429)
(-0.556955 5.22964 -0.207766)
(-1.92983 4.55183 0.0954893)
(-0.682742 5.1509 0.744949)
(0.486506 5.18315 1.24272)
(-2.73003 3.66103 -0.0660006)
(-0.839012 5.73988 0.374976)
(-0.239696 5.64973 1.14251)
(0.452658 5.60501 1.43141)
(1.28498 5.58187 1.09049)
(-4.57743 3.56461 0.196978)
(-0.628448 5.397 1.85841)
(0.673173 5.10385 1.46955)
(0.108226 5.13054 1.76154)
(0.482539 4.98844 1.22115)
(1.89419 3.91256 0.751481)
(-3.77493 3.14273 0.270394)
(1.47071 2.89294 1.37646)
(1.24245 3.11581 2.0865)
(0.771416 3.85455 2.43987)
(0.916838 3.60499 2.59027)
(1.50372 2.46772 1.16543)
(1.57046 2.45843 1.00991)
(-0.198906 1.362 1.09928)
(1.55169 0.690548 0.357577)
(-0.222412 -0.50463 0.879267)
(-1.39283 1.61728 0.431838)
(-0.887306 2.40412 1.75926)
(0.600374 1.51332 -1.3036)
(0.515919 0.731872 -0.828634)
(-0.158044 0.597513 -0.448335)
(1.34513 0.661028 -0.578322)
(0.616195 0.582044 -0.966856)
(0.268565 1.62461 -0.805315)
(-0.262107 0.895019 -1.3566)
(-0.29709 0.415178 -1.34283)
(-0.0127979 0.679294 -1.74234)
(0.849108 0.824844 -1.73372)
(1.12425 1.06676 -1.2063)
(1.40006 0.964533 -1.97343)
(1.33825 0.0950941 -0.701827)
(1.00726 0.0113168 -1.52483)
(0.0671249 0.913572 -1.98077)
(-0.177497 0.303978 -2.22099)
(0.389285 0.59995 -2.15124)
(0.115453 0.766238 -1.72454)
(0.348566 0.685627 -1.92114)
(0.291043 0.883255 -1.4787)
(0.31035 0.824081 -1.49259)
(0.100407 0.273208 -1.68037)
(-1.85503 1.94106 -0.0108601)
(-1.48712 2.5338 -0.0243606)
(-1.257 2.83263 -0.00284874)
(-2.61888 2.11504 -0.0155306)
(-1.55462 3.11269 0.435177)
(-0.663457 3.54602 0.361622)
(-1.77968 2.92049 0.152948)
(-1.91411 3.32572 0.983497)
(-1.8327 3.94161 0.183817)
(0.500427 4.65685 0.702276)
(-0.441321 5.39556 -0.272532)
(-1.71382 4.71136 0.299805)
(-0.858074 5.39736 0.829651)
(0.358607 5.07089 1.21742)
(1.19445 5.12492 1.46757)
(-3.73748 2.57645 -0.0183779)
(-1.48668 5.8883 0.923639)
(-0.157478 5.59509 1.09653)
(0.683926 5.49837 1.37877)
(0.877495 5.49501 1.49092)
(1.92557 5.09284 1.02345)
(-5.09784 3.02743 0.543693)
(-1.22663 5.2129 1.78319)
(0.783305 5.22795 1.37672)
(0.417083 5.13919 2.00878)
(0.640703 5.03086 1.50157)
(1.50387 3.74461 1.27819)
(1.46048 3.28934 1.87906)
(-4.20503 3.16814 0.697358)
(-0.00515413 2.54992 1.55189)
(1.30449 2.84024 1.7572)
(0.978844 3.59505 2.19427)
(0.956085 3.59682 2.67329)
(1.63293 2.52856 1.04186)
(1.38338 2.37011 1.11124)
(1.47029 2.17822 0.848841)
(-0.134536 1.67529 1.02287)
(1.22615 0.613654 -0.0215811)
(-0.121425 -0.454804 0.531028)
(-1.16658 1.53586 -0.725697)
(-0.980314 2.40226 1.20474)
(0.442396 1.46903 -0.745684)
(0.492444 0.64569 -0.507466)
(0.0623763 0.559645 -0.68367)
(1.14991 0.822495 -1.13927)
(1.4041 0.803361 -0.658041)
(0.370879 0.540738 -0.721981)
(0.0505697 1.50193 -1.1056)
(-0.369691 0.902587 -1.47967)
(-0.35271 0.44925 -1.44879)
(0.118038 0.719441 -1.89719)
(1.01278 0.839849 -1.87211)
(1.12786 1.0742 -1.36992)
(1.34115 0.947517 -1.98631)
(1.22738 0.785002 -1.99948)
(1.37208 0.0976742 -0.685604)
(0.82415 -0.0727225 -1.4801)
(0.114452 0.964966 -1.96922)
(-0.279811 0.257241 -2.20837)
(0.411192 0.624909 -2.20646)
(0.131004 0.766109 -1.80338)
(0.303492 0.65392 -1.96895)
(0.251429 0.861696 -1.48056)
(0.249331 0.811008 -1.50883)
(0.14664 0.259203 -1.71938)
(0.440842 0.45638 -1.43081)
(-1.50615 1.98594 -0.0564983)
(-2.01429 1.79959 0.013522)
(-1.465 2.46629 0.196976)
(-1.82244 2.31338 -0.0483054)
(-1.43733 2.81813 -0.0870806)
(-0.962696 3.1875 0.104257)
(-2.72423 1.92486 0.0508195)
(-1.69223 3.08664 0.562636)
(-0.976184 3.37207 0.39164)
(-0.716847 3.86544 0.183142)
(-1.76225 3.36578 0.162203)
(-2.07095 3.44532 0.803071)
(-1.3989 4.1494 0.546603)
(-0.853173 4.57084 0.820306)
(0.058868 4.69285 1.48352)
(-1.64863 4.81633 -0.103188)
(-2.04638 4.7235 0.181713)
(-0.721613 5.47978 1.06286)
(0.328937 5.04168 1.23809)
(0.87108 5.2027 1.61808)
(1.68508 5.05164 1.41385)
(-4.25116 1.57232 0.116668)
(-2.21892 5.61608 1.4915)
(-0.44684 5.75141 1.32649)
(0.777686 5.6213 1.28299)
(1.07563 5.51214 1.2932)
(1.2869 5.01755 1.36736)
(1.89038 4.68557 1.25022)
(-5.38377 2.65761 0.846619)
(-2.18115 5.15956 1.83345)
(-0.0232262 5.03324 1.58699)
(0.60414 5.08991 2.15571)
(0.591864 4.99844 1.91848)
(1.02494 3.75528 1.75276)
(1.83467 3.22225 1.61526)
(2.2873 3.03585 1.29578)
(-4.68437 2.844 0.802053)
(-0.641841 2.35554 1.67892)
(1.08499 2.53735 1.61274)
(1.04749 3.30825 1.55976)
(1.30875 3.54493 2.03812)
(1.58623 2.62758 1.09099)
(1.13393 2.38409 0.988753)
(1.36197 2.06295 0.0152392)
(0.964369 1.71045 -1.05848)
(-0.0116741 2.01667 0.91948)
(1.10224 0.696247 -0.0773854)
(0.0450733 -0.342923 0.103862)
(-0.583409 1.48931 -1.64802)
(-0.789008 2.13834 1.17923)
(0.58157 1.42936 -0.455293)
(0.376517 0.559022 -0.245791)
(0.252388 0.576029 -0.960737)
(1.1687 0.927699 -1.43963)
(0.729869 0.779535 -1.42254)
(1.44452 0.915188 -0.687964)
(0.262842 0.488018 -0.71252)
(0.0740341 1.65059 -1.13025)
(-0.409869 0.904725 -1.57736)
(-0.412331 0.464406 -1.53027)
(0.175687 0.719985 -1.98996)
(0.982056 0.842064 -1.99493)
(0.994215 1.07388 -1.56754)
(1.20345 0.933232 -1.895)
(0.932518 0.730825 -1.96826)
(1.23824 0.743147 -1.41906)
(1.34716 0.11934 -0.692455)
(0.701039 -0.132123 -1.42667)
(0.1738 1.01251 -1.9788)
(-0.347457 0.22003 -2.21022)
(0.456828 0.663792 -2.25092)
(0.146425 0.767045 -1.89041)
(0.346139 0.651875 -1.96022)
(0.119312 0.790096 -1.52129)
(0.224715 0.794358 -1.51045)
(0.215374 0.246249 -1.75785)
(0.321447 0.425933 -1.44278)
(0.124982 0.167562 -1.42814)
(-1.40089 1.81541 -0.0848335)
(-1.66635 1.83902 -0.0843559)
(-1.21355 2.44758 0.0191689)
(-1.44079 2.0402 -0.0480317)
(-2.03662 1.80382 -1.00834e-05)
(-1.54759 2.39584 0.170725)
(-0.732902 2.7202 0.121573)
(-1.87678 2.26781 -0.0512616)
(-1.59042 2.80833 -0.118617)
(-0.799512 3.22662 0.0387409)
(-0.364295 3.23102 -0.0515366)
(-2.62035 1.95255 0.125501)
(-1.83871 2.98422 0.548942)
(-0.990892 3.33948 0.287055)
(-0.952988 3.89973 0.199023)
(0.0823152 4.19364 0.53605)
(-1.47936 3.8585 0.0834591)
(-2.23307 3.39126 0.72899)
(-1.51101 4.11961 0.485365)
(-0.770705 4.61857 0.967273)
(0.646439 4.6844 1.51651)
(1.41917 4.6467 1.79989)
(-3.5214 3.22285 0.199272)
(-2.40042 4.51048 0.224128)
(-1.27086 5.45896 0.865388)
(-0.0538852 5.29321 1.2697)
(0.787909 5.19451 1.52965)
(1.41343 4.98381 1.68148)
(1.61687 4.68199 1.77199)
(-4.30599 0.849052 0.329799)
(-2.47457 5.39093 1.80378)
(-1.13801 5.64953 1.51994)
(0.210428 5.52278 1.83915)
(0.780499 5.39343 1.59238)
(1.18618 5.0359 1.46402)
(1.6779 4.47904 1.38044)
(2.1287 4.18291 1.51822)
(-5.39959 2.39862 0.752297)
(-3.23574 4.72838 1.94323)
(-0.26885 5.09836 1.84832)
(0.981745 5.13331 1.8305)
(0.944022 4.94474 2.31164)
(0.828767 3.68877 2.61881)
(1.8847 3.34481 1.28237)
(2.56893 3.17898 0.851205)
(2.28174 3.15342 0.688171)
(-4.67654 3.0973 0.849868)
(-1.3158 2.3413 1.74185)
(0.601967 2.48053 1.58026)
(0.912494 2.95107 0.175826)
(1.10279 3.36363 1.54207)
(1.36266 2.61888 1.22996)
(1.11999 2.37203 0.783062)
(1.26871 1.79995 -0.620905)
(0.699483 1.53291 -0.444319)
(-0.250047 1.08733 0.561369)
(-0.11595 2.24953 0.879327)
(0.998825 0.785143 0.054608)
(0.233086 -0.153495 -0.362021)
(0.0758818 1.60709 -2.00756)
(-0.420128 2.0789 1.37218)
(0.704309 1.45134 -0.473004)
(0.202613 0.553973 -0.149821)
(0.425322 0.665598 -1.04837)
(1.04769 1.01649 -1.55674)
(0.670543 0.855093 -1.37683)
(0.449255 0.689046 -0.926154)
(1.42634 1.00164 -0.658286)
(0.290464 0.483848 -0.774079)
(-0.18391 1.63588 -1.1854)
(-0.579792 0.713385 -1.71844)
(-0.460202 0.435522 -1.59536)
(0.166028 0.703211 -1.9941)
(0.900727 0.828206 -2.01599)
(0.939914 1.05792 -1.61159)
(0.997016 0.87918 -1.77213)
(0.603989 0.642577 -1.82088)
(1.04593 0.710913 -1.30959)
(1.03812 0.526558 -1.45193)
(1.34078 0.197861 -0.691001)
(0.64639 -0.163538 -1.37108)
(0.202963 1.0229 -2.04096)
(-0.380617 0.219475 -2.18729)
(0.492512 0.705874 -2.29246)
(0.164417 0.776593 -1.99154)
(0.406311 0.66376 -1.94807)
(0.0744358 0.75928 -1.53998)
(0.266193 0.792511 -1.47778)
(0.300596 0.256429 -1.78273)
(0.254591 0.397562 -1.45912)
(0.201381 0.156679 -1.43565)
(0.599896 -0.048772 -1.42113)
(-1.45257 1.61272 -0.0182719)
(-1.49554 1.78432 -0.0402968)
(-1.06601 2.18544 0.0540401)
(-1.29477 1.88553 -0.0294735)
(-1.83929 1.67629 -0.0350646)
(-1.36931 2.28374 0.0970489)
(-0.748116 2.72486 0.0353359)
(-1.1791 2.46783 -0.0615992)
(-2.0898 1.74827 0.0380729)
(-1.6259 2.28341 0.148678)
(-0.848708 2.73995 0.123547)
(-0.607861 2.88194 0.000813323)
(-2.00366 2.13671 -0.0228387)
(-1.72051 2.81523 -0.087538)
(-1.00309 3.16307 0.0662524)
(-0.403856 3.31825 -0.106841)
(-0.334206 3.50863 -0.208813)
(-2.73167 1.91044 0.258986)
(-2.24643 2.71362 0.483757)
(-1.51286 3.27232 0.171491)
(-1.02732 3.83883 0.195216)
(0.010596 4.16632 0.524097)
(0.764318 4.37213 1.08299)
(-1.43112 3.99758 0.0089845)
(-1.69855 3.76984 0.621283)
(-1.61645 4.21913 0.593243)
(-0.962229 4.68314 0.968607)
(0.843364 4.71656 1.5412)
(1.27038 4.63459 1.89626)
(1.407 4.50822 2.08519)
(-4.18869 2.15389 0.352819)
(-2.23005 4.48603 -0.131348)
(-1.6469 5.37338 0.665418)
(-0.294375 5.32193 1.75862)
(0.618797 5.08256 1.81244)
(1.20852 4.85971 1.82045)
(1.45636 4.67929 1.9334)
(1.59504 4.38334 1.97744)
(-3.93453 0.52248 0.47568)
(-2.30411 5.31834 2.10428)
(-1.38408 5.55362 1.46709)
(-0.137763 5.39068 1.99348)
(0.650773 5.31186 1.86419)
(1.61084 4.91049 1.23937)
(1.09794 4.44284 1.77641)
(1.64911 4.11485 1.90958)
(1.4471 3.99085 2.05088)
(-5.46214 1.90766 0.175035)
(-3.47624 4.31364 2.15045)
(-1.56883 4.75155 2.14871)
(0.43319 5.09191 1.94123)
(0.712117 5.06522 2.28407)
(0.814774 3.95998 2.79145)
(1.9647 3.46098 0.995681)
(2.59181 3.39908 0.521434)
(2.41342 3.07204 0.447954)
(1.2141 3.35763 1.34663)
(-4.28882 3.61728 1.16239)
(-1.38919 2.54485 1.60843)
(0.428763 2.40277 1.4621)
(0.257736 2.54421 -0.794145)
(-0.88702 2.2408 1.38654)
(0.46964 2.31503 1.43766)
(0.650681 2.13935 1.18414)
(0.79036 1.51782 -0.119988)
(0.558354 1.12086 0.685776)
(-0.311012 0.922149 0.692451)
(-0.611863 0.952905 0.418411)
(-0.330634 2.22614 0.936498)
(0.838904 0.831966 0.170429)
(0.412388 0.0367049 -0.779676)
(0.352633 1.62782 -2.19175)
(-0.25208 2.1373 0.943819)
(0.699439 1.55219 -0.641363)
(0.112633 0.579772 -0.153293)
(0.32592 0.748195 -1.07458)
(0.956781 1.04632 -1.44462)
(0.569765 0.913561 -1.26745)
(0.490722 0.7403 -0.968462)
(0.296896 0.737119 -0.686539)
(1.36135 1.09005 -0.614068)
(0.260795 0.49591 -0.936743)
(-0.212735 1.56607 -1.23602)
(-0.60222 0.65306 -1.66565)
(-0.483729 0.400227 -1.59512)
(0.165745 0.677861 -1.93332)
(0.744143 0.790274 -1.98579)
(0.803698 0.9827 -1.66282)
(0.786948 0.792855 -1.61108)
(0.300452 0.533844 -1.6076)
(0.78663 0.6394 -1.12041)
(0.83986 0.502155 -1.23641)
(1.08582 0.474854 -1.25357)
(1.38579 0.180342 -0.745557)
(0.596574 -0.18397 -1.3552)
(0.212462 1.03993 -2.05914)
(-0.321039 0.264725 -2.17618)
(0.495341 0.735497 -2.33355)
(0.21515 0.798366 -2.10215)
(0.441789 0.666592 -1.97226)
(0.0391248 0.72177 -1.57104)
(0.290432 0.79932 -1.46644)
(0.40562 0.287278 -1.78075)
(0.246239 0.38081 -1.4825)
(0.303047 0.157069 -1.44558)
(0.675273 -0.0551987 -1.45627)
(0.641427 -0.103829 -1.32292)
(-1.1447 1.68967 -0.0584238)
(-1.48815 1.57109 -0.038318)
(-1.16913 1.97585 0.00649039)
(-1.30786 1.70814 -0.00294684)
(-1.7319 1.59474 -0.040586)
(-1.20364 2.14092 0.0757665)
(-0.688866 2.53623 -0.168931)
(-1.00743 2.20266 0.0285811)
(-1.90618 1.6034 -0.0097562)
(-1.59863 2.106 0.13583)
(-0.832258 2.69169 0.0454891)
(-0.495543 2.7689 0.12558)
(-0.331234 2.72552 0.0762118)
(-2.17163 1.68511 0.090911)
(-1.68475 2.27301 0.0875223)
(-1.02581 2.77053 0.139941)
(-0.78745 2.93573 0.0104923)
(-0.443337 2.92058 -0.074463)
(-2.10273 2.11751 0.0303038)
(-2.05633 2.5518 -0.108588)
(-1.06204 3.15274 0.0905919)
(-0.73496 3.36526 -0.0934658)
(-0.125502 3.48401 -0.196315)
(0.432798 3.56185 0.54737)
(-3.13156 1.76957 0.257425)
(-2.44586 2.79106 0.52199)
(-1.34145 3.47051 0.316315)
(-1.1301 3.72831 0.228723)
(-0.134415 4.12907 0.599384)
(0.517833 4.235 1.0912)
(1.04421 4.20253 1.66124)
(-2.36 3.40026 -0.0179573)
(-2.38497 3.38682 0.516471)
(-1.77142 4.21128 0.724355)
(-1.09172 4.64794 0.989767)
(0.402645 4.73411 1.83215)
(0.788646 4.56826 2.02728)
(1.16243 4.48264 2.36733)
(1.28 4.30706 2.18845)
(-4.31758 1.43689 0.556561)
(-2.53036 4.32577 -0.149347)
(-1.88132 5.08976 0.732116)
(-0.318149 5.26375 1.96443)
(0.84878 5.07615 2.11568)
(1.14559 4.83677 1.88775)
(1.0289 4.65671 2.33344)
(1.51979 4.4892 2.14385)
(1.34041 4.44005 2.17936)
(-3.27902 0.648849 0.279013)
(-3.14868 4.66883 1.01024)
(-1.7326 5.53897 1.37727)
(-0.37274 5.3842 2.23724)
(0.405921 5.19241 2.21251)
(0.574154 4.50701 2.1328)
(1.11573 4.31129 1.75942)
(1.24171 4.17764 2.09926)
(1.09249 3.98044 2.18601)
(0.965807 4.18406 2.24469)
(-5.16798 1.97648 -0.286947)
(-3.20991 4.44734 1.95886)
(-1.56198 4.83574 2.18897)
(-0.52897 4.97937 1.62805)
(0.829186 4.92861 1.82744)
(0.431717 4.21931 2.41842)
(1.52591 3.80395 0.274449)
(1.80429 3.42833 0.790482)
(1.88258 2.95853 0.565113)
(1.09542 3.08021 1.58656)
(0.714002 2.83407 1.83454)
(-4.21568 3.69017 1.02679)
(-1.28718 2.78097 1.65634)
(0.24939 2.61904 1.54481)
(0.0513871 2.28498 -0.307391)
(-1.42255 1.46074 1.24298)
(-0.619608 1.68595 1.41655)
(-0.276912 1.60828 1.62755)
(0.0826271 0.97694 0.992597)
(0.461688 0.900028 0.802352)
(-0.259326 0.834466 0.610493)
(-0.672981 0.838919 0.201263)
(-0.438253 1.33403 0.46684)
(-0.678808 1.95747 1.13093)
(0.693423 0.914997 0.275459)
(0.509476 0.244772 -1.00764)
(0.376967 1.53023 -2.3093)
(0.0392448 2.24167 0.247395)
(0.5957 1.66407 -0.997421)
(-0.0681259 0.636271 -0.216898)
(0.265099 0.850117 -1.16976)
(0.705499 1.04218 -1.29904)
(0.372596 0.908583 -1.1504)
(0.386078 0.84902 -1.01725)
(0.305467 0.855521 -0.671641)
(0.693829 0.680732 -0.981088)
(1.31126 1.17718 -0.61245)
(0.279897 0.499325 -1.07313)
(-0.365173 1.51533 -1.25708)
(-0.598071 0.578732 -1.47101)
(-0.522842 0.322039 -1.4982)
(0.0592344 0.60068 -1.89398)
(0.553449 0.735194 -1.91787)
(0.604443 0.876264 -1.72075)
(0.584138 0.703728 -1.45326)
(0.0641682 0.432653 -1.37445)
(0.486271 0.544858 -0.928408)
(0.593672 0.468097 -0.977195)
(0.937096 0.45784 -1.02083)
(0.983807 0.492991 -1.37692)
(1.42555 0.239815 -0.753851)
(0.577785 -0.191707 -1.34853)
(0.181575 1.03433 -1.99973)
(-0.320692 0.268111 -2.17119)
(0.455477 0.741768 -2.37376)
(0.270499 0.84225 -2.21398)
(0.388473 0.634453 -2.03042)
(0.0419316 0.702733 -1.62885)
(0.350622 0.822092 -1.44234)
(0.47424 0.318767 -1.75284)
(0.277003 0.381595 -1.51557)
(0.402233 0.17152 -1.44983)
(0.723647 -0.0518036 -1.46963)
(0.623601 -0.112829 -1.32844)
(0.34841 -0.303847 -1.26873)
(-1.16487 1.4595 0.0077509)
(-1.25811 1.58662 -0.0338786)
(-1.0418 1.89768 -0.0829625)
(-1.09521 1.69808 -0.018173)
(-1.54449 1.50762 -0.0288019)
(-1.24983 1.92829 -0.0385356)
(-0.596173 2.25152 0.129554)
(-1.04045 2.05999 0.050108)
(-1.79211 1.52477 -0.0474419)
(-1.32124 2.11712 0.0300096)
(-0.681275 2.51427 -0.112485)
(-1.00847 2.51785 0.0120331)
(-0.718359 2.52506 -0.186448)
(-2.00454 1.49105 0.0138181)
(-1.75279 2.05559 0.0706435)
(-1.06876 2.54949 0.110553)
(-0.512648 2.77753 0.169035)
(-0.513445 2.70948 0.434566)
(-0.436847 2.65488 0.0543078)
(-2.29478 1.62264 0.087725)
(-1.99726 2.1191 0.0515615)
(-0.853598 2.93277 0.144452)
(-0.73953 3.02035 0.0987647)
(-0.558476 2.94681 0.0472494)
(-0.437543 3.04146 0.188825)
(-2.43845 1.7933 -0.0118223)
(-1.26804 3.13488 0.15191)
(-1.1762 3.00089 0.0427364)
(-0.803916 3.35479 -0.152936)
(-0.172319 3.54571 -0.194015)
(-0.00431245 3.56806 0.484607)
(0.821558 3.61471 0.831236)
(-3.21762 2.03885 0.152618)
(-2.66628 2.61906 0.499427)
(-1.32679 3.45182 0.363377)
(-1.37405 3.66365 0.25881)
(-0.564431 4.17344 0.48585)
(0.239364 4.15611 1.15087)
(0.944375 4.1697 1.6868)
(1.03621 4.19249 1.69601)
(-2.80178 2.97386 -0.0354598)
(-2.67008 3.44084 0.328344)
(-1.85426 4.1043 0.847123)
(-1.64123 4.53056 0.789963)
(-0.132553 4.72095 1.87524)
(0.738671 4.57743 2.05917)
(0.935481 4.46682 2.41563)
(0.959724 4.40197 2.37216)
(1.15686 4.2698 2.19035)
(-4.20383 0.779433 0.687456)
(-3.23022 4.05798 -0.0488714)
(-2.23419 4.61951 1.16783)
(-0.854394 5.11797 1.9854)
(0.0574357 5.12316 2.38384)
(0.613416 4.80269 2.33501)
(1.20681 4.50231 2.47529)
(0.655837 4.46367 2.66408)
(0.808801 4.41705 2.41792)
(1.04366 4.56844 2.28628)
(-2.20101 1.37537 -0.321645)
(-4.27717 3.53523 0.0175041)
(-1.3709 5.7223 1.71706)
(-0.508949 5.31584 2.25332)
(0.0675708 5.08085 2.29905)
(0.143206 4.42701 2.43377)
(1.19511 4.33856 1.58625)
(1.02951 4.36027 2.09222)
(0.75999 4.11764 2.17678)
(0.648903 4.12982 2.46094)
(0.722011 4.04221 2.44352)
(-4.6582 1.92445 -0.433182)
(-3.14965 4.46917 1.7649)
(-2.98035 3.93992 2.5721)
(-0.138237 5.00536 1.27719)
(0.351635 4.75008 1.65025)
(0.589907 4.35637 0.538437)
(1.44691 3.59085 0.402756)
(1.55228 3.08402 1.21345)
(1.09983 2.71361 0.761665)
(1.29102 2.89955 1.27106)
(1.3738 2.77337 1.16607)
(0.996841 2.83645 1.22762)
(-3.58152 4.14744 1.37504)
(-1.30078 2.80159 2.08793)
(-0.231341 2.37042 2.37392)
(-0.0131432 2.31233 0.0806632)
(-1.00194 1.33407 1.12799)
(-0.431626 1.51438 1.05753)
(-0.262807 1.39149 1.54679)
(-0.0811433 0.835978 1.13877)
(0.158977 0.790234 0.657995)
(-0.222191 0.811747 0.546836)
(-0.618649 0.787621 0.120145)
(-0.517935 1.23695 0.409856)
(-0.316994 1.6467 -0.251147)
(-0.806096 1.75868 1.11498)
(0.540838 0.922758 0.242766)
(0.520091 0.410154 -1.09279)
(0.267164 1.33639 -2.37456)
(0.192057 2.25765 -0.327032)
(0.465966 1.6914 -1.29027)
(-0.231601 0.658171 -0.314984)
(0.225298 0.932594 -1.20993)
(0.537146 1.0241 -1.12235)
(0.188845 0.866843 -1.11049)
(0.310926 0.840969 -1.11561)
(0.368916 0.927663 -0.718635)
(0.497321 0.974523 -0.858957)
(1.055 1.62029 -0.64815)
(1.25613 1.25492 -0.602424)
(0.302292 0.533461 -1.13178)
(-0.430401 1.50205 -1.22474)
(-0.567769 0.523664 -1.25759)
(-0.545544 0.254173 -1.33749)
(-0.0221642 0.503564 -1.86668)
(0.390061 0.680071 -1.79603)
(0.430489 0.759348 -1.72479)
(0.393975 0.578756 -1.35296)
(-0.0191907 0.375893 -1.16975)
(0.197801 0.429026 -0.773401)
(0.381077 0.402821 -0.727496)
(0.731796 0.443481 -0.771712)
(0.903005 0.451753 -1.09646)
(0.549898 0.490481 -1.02661)
(1.37736 0.280019 -0.758157)
(0.567193 -0.187962 -1.35044)
(0.172067 1.08161 -1.86507)
(-0.347357 0.259532 -2.14014)
(0.405327 0.733886 -2.39203)
(0.328895 0.894854 -2.32739)
(0.301215 0.574638 -2.08591)
(0.0826292 0.710374 -1.70413)
(0.391359 0.846976 -1.4222)
(0.531421 0.358024 -1.68498)
(0.336131 0.397795 -1.54757)
(0.492683 0.189661 -1.4456)
(0.730167 -0.0497348 -1.43777)
(0.563638 -0.134215 -1.32181)
(0.363602 -0.301339 -1.29304)
(0.264034 -0.504962 -1.54949)
(-0.996518 1.38936 -0.0115129)
(-1.20262 1.43575 0.0020904)
(-1.16158 1.6547 -0.103897)
(-1.07724 1.52245 0.015768)
(-1.35912 1.49923 -0.00210603)
(-1.17893 1.83982 -0.00114501)
(-0.588248 2.15722 0.136414)
(-0.800587 2.02963 -0.0650482)
(-0.900467 1.808 0.00773403)
(-1.66302 1.37607 0.02613)
(-1.43959 1.82846 -0.081724)
(-0.800084 2.16811 0.142598)
(-1.08136 2.2127 0.00723829)
(-0.763125 2.23631 0.0133627)
(-1.83048 1.46291 0.021727)
(-1.59573 1.99966 0.0168391)
(-0.79643 2.51422 -0.10368)
(-0.963197 2.55667 -0.0149257)
(-0.70667 2.44736 0.273992)
(-0.959775 2.40213 0.123677)
(-2.08108 1.35594 0.0472409)
(-2.03659 1.88653 0.052125)
(-1.20381 2.56472 0.175356)
(-0.583879 2.75085 0.12018)
(-0.617549 2.72487 0.297692)
(-0.452494 2.78793 0.367226)
(-0.378369 2.64352 0.284856)
(-2.38587 1.62907 0.108414)
(-2.33367 2.00199 -0.0293034)
(-1.24945 2.8158 0.307025)
(-0.736619 2.9974 0.116492)
(-0.553241 3.11003 -0.0405736)
(-0.720718 3.10045 0.263105)
(0.168446 3.10585 0.496972)
(-2.60081 1.64848 -0.0210671)
(-2.32063 2.48327 -0.0464444)
(-1.14631 3.05978 0.0600751)
(-0.972698 3.27229 -0.08129)
(-0.786546 3.48491 -0.104203)
(0.0957935 3.73236 0.296667)
(0.277895 3.71204 0.781216)
(0.544703 3.64598 1.17715)
(-3.40531 1.78805 0.115926)
(-2.77887 2.57985 0.404389)
(-1.51609 3.39893 0.403198)
(-1.49953 3.64465 0.272152)
(-0.965851 4.19463 0.398208)
(-0.0111439 4.17128 1.17783)
(0.581258 4.2256 1.60812)
(0.817104 4.2564 1.88077)
(0.924352 4.19051 1.87423)
(-3.12578 2.44538 0.00941364)
(-3.47386 2.90678 0.301544)
(-2.17337 3.98661 0.870622)
(-2.0078 4.49401 0.581517)
(-0.627965 4.735 1.88683)
(-0.0591832 4.6052 2.11831)
(0.672631 4.44687 2.43913)
(0.696711 4.4567 2.50366)
(0.671683 4.36198 2.42231)
(0.874777 4.41803 2.23675)
(-3.79497 0.733718 0.619269)
(-3.39602 4.03004 0.12928)
(-2.34398 4.51244 1.3781)
(-1.49188 4.92357 1.76841)
(-0.405637 5.0611 2.50758)
(0.243297 4.71259 2.6396)
(0.625289 4.46189 2.58708)
(0.470945 4.38106 2.75769)
(0.438584 4.38107 2.56494)
(0.52528 4.49079 2.48917)
(0.641764 4.57154 2.41906)
(-2.15283 1.39714 -0.457582)
(-4.10748 3.55689 0.034644)
(-1.10893 5.51055 1.95372)
(-0.63157 5.11389 2.4209)
(-0.0523561 5.17306 2.50682)
(0.160561 4.46738 2.24281)
(1.35953 4.44754 1.48377)
(0.694837 4.30392 2.30407)
(0.534924 4.13717 2.35062)
(0.566781 4.17288 2.5171)
(0.900395 4.00706 2.48927)
(0.959735 3.87733 2.55669)
(-4.54406 1.80107 -0.410975)
(-3.72784 3.90709 1.80998)
(-1.43671 4.70776 1.96)
(-2.26153 3.80098 1.94359)
(-0.357973 4.15601 2.57163)
(0.367844 4.15721 -0.0016911)
(0.811699 3.21402 1.1734)
(1.09262 2.7397 1.40816)
(0.593912 2.42887 1.06876)
(0.299678 2.54111 1.38783)
(0.22623 2.70188 1.3736)
(1.11768 2.87797 0.736558)
(0.793272 3.32791 0.883126)
(-3.19324 4.31531 1.77345)
(-1.3563 2.90285 2.43644)
(-0.412293 2.11151 3.0079)
(-0.351831 2.26062 1.33853)
(-0.546401 1.37114 1.25345)
(-0.547673 1.37359 0.618945)
(-0.324765 1.29159 1.19744)
(-0.149349 0.865843 0.909374)
(-0.0115766 0.816485 0.460716)
(-0.269982 0.898909 0.432341)
(-0.615768 0.821809 -0.0787714)
(-0.545318 1.15164 0.268042)
(-0.606349 1.60567 -0.0326418)
(-0.590993 1.71421 -0.098661)
(-0.768936 1.71219 0.8587)
(0.405649 0.933273 0.130318)
(0.568231 0.590346 -0.975571)
(-0.0482361 1.10234 -1.98039)
(0.252856 2.08121 -1.35408)
(0.370731 1.71431 -1.13721)
(-0.268271 0.668028 -0.482896)
(0.0140611 1.01559 -1.21077)
(0.398157 1.05689 -0.981793)
(0.00692835 0.864849 -1.08776)
(0.0814951 0.860145 -1.16778)
(0.379872 1.01563 -0.756286)
(0.435281 1.00436 -0.767298)
(0.996454 1.61736 -0.721399)
(1.40703 1.65006 -0.58278)
(1.15786 1.3221 -0.56746)
(0.347344 0.587594 -1.14943)
(-0.424676 1.49079 -1.17818)
(-0.566901 0.507953 -0.985229)
(-0.539712 0.175512 -1.24373)
(-0.0709197 0.439492 -1.79323)
(0.189929 0.5849 -1.65795)
(0.319154 0.636898 -1.63782)
(0.318291 0.486174 -1.25914)
(-0.0647557 0.330062 -1.02301)
(0.103428 0.353851 -0.715851)
(0.326696 0.355866 -0.511069)
(0.601271 0.41484 -0.517957)
(0.759887 0.410621 -0.817868)
(0.465352 0.427178 -0.951715)
(0.52897 0.128858 -1.21856)
(1.38842 0.349678 -0.760918)
(0.564024 -0.18616 -1.35057)
(0.0863523 0.93945 -1.89114)
(-0.416791 0.199231 -2.09166)
(0.331608 0.710925 -2.38467)
(0.369822 0.946983 -2.43604)
(0.195487 0.493735 -2.12881)
(0.139044 0.731364 -1.79046)
(0.436386 0.8727 -1.40703)
(0.562667 0.387267 -1.59382)
(0.413243 0.429371 -1.56972)
(0.564336 0.215294 -1.43394)
(0.674815 -0.0619183 -1.39463)
(0.518057 -0.148944 -1.30966)
(0.370965 -0.302819 -1.3115)
(0.263774 -0.50582 -1.56434)
(0.676727 -0.276086 -1.81067)
(-1.06817 1.22643 0.0278325)
(-1.06832 1.37397 -0.0230784)
(-1.07563 1.55287 0.0463886)
(-0.856998 1.48119 -0.0307461)
(-1.3149 1.35598 -0.00216537)
(-1.16504 1.65827 -0.0700507)
(-0.887648 1.90649 0.150782)
(-0.989314 1.79077 -0.154775)
(-1.05241 1.54361 0.0681804)
(-1.52274 1.35669 0.0184424)
(-1.37437 1.72041 0.00790084)
(-0.735847 2.09189 0.139528)
(-0.99933 2.04331 0.253872)
(-0.608655 2.15013 0.114845)
(-0.711465 2.06512 -0.0483235)
(-1.71293 1.30756 0.0512708)
(-1.60004 1.76962 -0.0762426)
(-0.909175 2.142 0.102432)
(-0.955092 2.21669 0.0809084)
(-1.05544 2.19175 0.138212)
(-1.0566 2.25139 0.0162885)
(-2.01316 1.18709 0.061596)
(-1.78146 1.87663 0.00681699)
(-0.996305 2.49544 -0.0318512)
(-0.774489 2.61302 -0.0255663)
(-0.860675 2.49071 0.236847)
(-0.167366 2.57028 0.366302)
(-0.651777 2.39033 0.323369)
(-2.03611 1.43491 0.0392373)
(-2.01481 1.86972 -0.0382727)
(-1.28642 2.5694 0.202516)
(-0.749661 2.72312 0.149535)
(-0.626112 2.77816 0.287191)
(-0.592747 2.69283 0.329435)
(-0.362633 2.8294 0.325508)
(-0.475975 2.70418 0.392619)
(-2.50166 1.42287 0.116807)
(-2.27183 2.19733 -0.112778)
(-1.45777 2.81967 0.398335)
(-0.783976 3.01529 0.152852)
(-0.870032 3.11514 0.183967)
(-0.842951 3.13507 0.238261)
(-0.0118396 3.1088 0.474996)
(0.654457 3.03186 0.983461)
(-2.72097 1.55393 0.113692)
(-2.52633 2.34544 -0.119619)
(-1.57299 3.07446 0.0643895)
(-1.10664 3.18363 0.0812291)
(-0.691359 3.53521 -0.176556)
(-0.934951 3.61335 0.150888)
(0.088382 3.72649 0.739249)
(0.553622 3.60719 1.27318)