/*--------------------------------*- C++ -*----------------------------------*\
  =========                 |
  \\      /  F ield         | OpenFOAM: The Open Source CFD Toolbox
   \\    /   O peration     | Website:  https://openfoam.org
    \\  /    A nd           | Version:  7
     \\/     M anipulation  |
\*---------------------------------------------------------------------------*/
FoamFile
{
    version     2.0;
    format      ascii;
    class       volScalarField;
    location    "5.5";
    object      nut;
}
// * * * * * * * * * * * * * * * * * * * * * * * * * * * * * * * * * * * * * //

dimensions      [0 2 -1 0 0 0 0];

internalField   nonuniform List<scalar> 
18750
(
0.00110657
0.00150694
0.000629872
0.00111219
0.00310759
0.00258465
0.00137901
0.00144256
0.00051317
0.00109041
0.00319906
0.00144444
0.00378622
0.00109484
0.00265557
0.00159606
0.000405013
0.00137247
0.000422835
0.00118894
0.00341755
0.00215371
0.00322191
0.00213067
0.00126165
0.00391789
0.000760521
0.00124743
0.00263651
0.00147829
0.000629253
0.000465557
0.00116087
0.000335068
0.00117857
0.00309182
0.00199453
0.00383976
0.00138159
0.00254631
0.00328256
0.00140067
0.00266096
0.000966395
0.00436866
0.000729888
0.00076196
0.00153194
0.00197619
0.00116403
0.000493705
0.00069115
0.000557578
0.00120114
0.000331354
0.00124964
0.00261334
0.00222407
0.00292406
0.00192069
0.00182381
0.00358789
0.00125149
0.000238631
0.00254724
0.00336211
0.00141423
0.00300135
0.00134216
0.00115934
0.00362194
0.000730385
0.0007248
0.000954334
0.00171769
0.00106641
0.00127947
0.000726225
0.000540582
0.00074312
0.000611648
0.00137537
0.000437814
0.00134242
0.00287757
0.000902605
0.00259211
0.00184751
0.00220703
0.00289913
0.00126041
0.00181565
0.0025169
0.00255407
0.00177172
0.00169854
0.00200604
0.00169043
0.00381538
0.00145606
0.00194737
0.00341306
0.000967086
0.000746848
0.00281293
0.000678763
0.000765739
0.000651156
0.00126327
0.00173354
0.00180249
0.00111316
0.000529091
0.000780051
0.000584346
0.00077338
0.000641731
0.00135605
0.000545941
0.00139291
0.00262428
0.000619376
0.00275145
0.0016591
0.000983668
0.0027185
0.00168396
0.00225408
0.00219782
0.00268066
0.00140165
0.0011367
0.00189113
0.00239831
0.00257363
0.00191448
0.00120852
0.00158335
0.00291692
0.00215765
0.00363509
0.00212336
0.00126496
0.00220481
0.00178191
0.00145326
0.00136129
0.00265988
0.000604869
0.000740999
0.000799286
0.000719057
0.00190801
0.00211393
0.00156925
0.000972145
0.000152037
0.000573679
0.000834767
0.000617745
0.000789327
0.000666895
0.00135996
0.000603133
0.00140016
0.00275286
0.000650764
0.00264898
0.00132569
0.000763471
0.00276835
0.00114011
0.0010563
0.000574657
0.00259702
0.00125333
0.00178677
0.00215636
0.00381251
0.00270414
0.00121019
0.00149275
0.000661864
0.00135379
0.00253123
0.00283449
0.00172567
0.00149043
0.00214248
0.0014751
0.00067224
0.00167727
0.00330783
0.00176168
0.00136693
0.000851843
0.00210047
0.00169991
0.00109471
0.00138635
0.00254542
0.000503625
0.000634828
0.000739622
0.000818114
0.0007285
0.00265293
0.00289912
0.00131844
0.00103994
0.000285975
0.000179708
0.000620061
0.00087568
0.000640307
0.000777108
0.000845519
0.00128725
0.000635535
0.00134411
0.00266143
0.000500147
0.0027341
0.000609095
0.00052614
0.00270391
0.00106887
0.00112656
0.00142549
0.00267912
0.00101952
0.00119145
0.00126245
0.00206963
0.00269032
0.000849857
0.00109879
0.00185627
0.00213282
0.00152701
0.00269347
0.000907655
0.00105272
0.00149262
0.000906681
0.000624313
0.00122556
0.003287
0.00200184
0.00112189
0.000812148
0.00140341
0.00066524
0.00152441
0.00164637
0.00311763
0.000695778
0.00216455
0.00136457
0.000956364
0.00223902
0.00256149
0.000992566
0.00135545
0.00241983
0.000642759
0.000499709
0.000543969
0.000624286
0.000661189
0.000827323
0.00312094
0.00275231
0.00132479
0.0014031
0.000369622
0.000271375
0.000237089
0.000655444
0.000898378
0.000644561
0.00075387
0.0010416
0.00113774
0.00068209
0.00126472
0.00246002
0.000744615
0.00276229
0.000646955
0.0005497
0.0026815
0.000903913
0.000708983
0.000532688
0.0026444
0.000772232
0.000950764
0.000692508
0.000409056
0.00271162
0.000962138
0.00123258
0.00126284
0.00166595
0.00129401
0.00250204
0.000785599
0.000980095
0.00165269
0.00124694
0.0023044
0.0021726
0.00280747
0.00132417
0.000899841
0.000667152
0.000743987
0.00103379
0.00131861
0.0016056
0.00344989
0.00291472
0.000981852
0.00197953
0.00157604
0.00189157
0.001019
0.00117302
0.00189711
0.00404507
0.000403366
0.000810875
0.00155804
0.00132008
0.00139366
0.0015149
0.0016027
0.00139866
0.00148887
0.00288422
0.000634343
0.000618223
0.000510424
0.000351524
0.000713057
0.000618677
0.00108604
0.00303252
0.00176294
0.00119381
0.00108296
0.000411734
0.000385767
0.000249065
0.000334938
0.000683068
0.00092785
0.000641979
0.000719476
0.00109526
0.00089462
0.000694963
0.00117661
0.00219105
0.000871148
0.00238594
0.0010103
0.000744357
0.00277029
0.000822274
0.000655921
0.000869699
0.00274407
0.000814722
0.000508573
0.000514121
0.00102317
0.0026326
0.00108794
0.00142636
0.0016878
0.000823849
0.00118058
0.00265637
0.000760239
0.000920563
0.000800919
0.0010605
0.0016292
0.000302739
0.00255976
0.000737584
0.000711949
0.00084167
0.00161986
0.00188917
0.00185553
0.00108543
0.00304234
0.0014086
0.000584473
0.000488951
0.000901179
0.000593847
0.000764759
0.00146668
0.00114075
0.00358499
0.00105233
0.00105434
0.00235256
0.00107232
0.00122484
0.0013122
0.00108802
0.00144862
0.00192596
0.00341236
0.000698649
0.000423016
0.00152421
0.000927841
0.00102846
0.0015455
0.00108058
0.00256175
0.00152844
0.00124522
0.00238356
0.000249646
0.000653376
0.000641733
0.000511559
0.000341986
0.000679668
0.000631677
0.00119124
0.00240694
0.00190252
0.00106325
0.00120596
0.000259387
0.000434071
0.000369273
0.000242373
0.000396661
0.000694714
0.000936322
0.000621588
0.000646235
0.00101885
0.0009511
0.000659007
0.00105552
0.00214776
0.000688886
0.00233723
0.000409277
0.000432341
0.0023196
0.000571715
0.000554222
0.00091215
0.00258998
0.000836121
0.000705933
0.000475402
0.00076569
0.00271485
0.000668516
0.00062784
0.000997709
0.000844462
0.000644306
0.00268502
0.000708068
0.000539637
0.00134964
0.000807767
0.00102917
0.000814008
0.00254195
0.0010526
0.000945077
0.00131473
0.00120447
0.00105999
0.00152396
0.00148921
0.00254265
0.000702205
0.00034737
0.00067412
0.000679616
0.00153009
0.00200329
0.00268425
0.00156021
0.00258375
0.00112551
0.00118507
0.000421326
0.000796753
0.00126528
0.00129874
0.000520872
0.000446267
0.00218176
0.00355552
0.00111838
0.0014746
0.00102032
0.00162138
0.00280778
0.00128654
0.000562729
0.000866961
0.00103331
0.00131714
0.00253643
0.00073395
0.000655115
0.000732818
0.00184026
0.00117017
0.00122324
0.00145392
0.000978298
0.00158143
0.00138887
0.0011129
0.00178489
0.000636551
0.000310298
0.000670752
0.000705996
0.000505823
0.000349215
0.000564001
0.000576509
0.00121882
0.00256147
0.00172031
0.000953439
0.00156572
0.000249309
0.000360345
0.000432724
0.000321793
0.000262738
0.000431495
0.000684633
0.000933235
0.000574387
0.000529595
0.000850381
0.00106821
0.000610362
0.000956424
0.00221228
0.000384622
0.00206724
0.000631507
0.000475107
0.0023302
0.000552471
0.000673411
0.000622028
0.00223535
0.000538575
0.000429707
0.000372908
0.000798316
0.00238622
0.000529594
0.000746614
0.000562118
0.00045979
0.000612306
0.00275091
0.000783297
0.00104672
0.00110815
0.00139221
0.000857053
0.000868639
0.00254635
0.000886711
0.000720203
0.00117082
0.000741437
0.000617876
0.000649695
0.000625867
0.00256129
0.000636094
0.000926137
0.00105523
0.000764275
0.000921701
0.00109284
0.00113465
0.000467908
0.00249528
0.000469998
0.000747649
0.000416856
0.000489814
0.000975784
0.00128531
0.000950432
0.00119904
0.000796778
0.00300771
0.00069618
0.00132023
0.000858247
0.000760494
0.00161411
0.000840768
0.00144413
0.0010367
0.00204424
0.00106942
0.00353085
0.000733485
0.00101245
0.00150944
0.00187969
0.00141354
0.00114592
0.00149126
0.000531776
0.000955066
0.00111871
0.00222243
0.00238329
0.000872524
0.00054396
0.000474461
0.000906167
0.00129714
0.00101637
0.00146628
0.0016292
0.0022584
0.0014976
0.00118441
0.00121791
0.00242921
0.000754928
0.000311607
0.000263582
0.000679203
0.000677889
0.000434542
0.000329923
0.000592862
0.000643416
0.00112756
0.00315992
0.00136789
0.00085674
0.00146692
0.000511196
0.000200161
0.000350908
0.000433349
0.000252766
0.000264487
0.000495168
0.000641516
0.000912634
0.000517552
0.000455743
0.000672312
0.000842117
0.000578173
0.000876707
0.00225292
0.000254354
0.00228834
0.000268649
0.000366012
0.00212939
0.000475277
0.000706233
0.000683041
0.00216856
0.000547606
0.00074987
0.000674348
0.000910218
0.00232771
0.000634411
0.000593297
0.000403546
0.000432827
0.000648716
0.00239965
0.000749753
0.000550172
0.000622415
0.00112241
0.000694671
0.000514121
0.00266996
0.000598061
0.000865935
0.000683003
0.00110394
0.000506211
0.000757512
0.000687293
0.00242251
0.000683737
0.00172794
0.00125025
0.00141129
0.000849729
0.000817087
0.000800174
0.000681262
0.00263953
0.000332939
0.000921833
0.000423126
0.000864282
0.000754304
0.00123505
0.00201134
0.00242931
0.000767847
0.00237934
0.000516321
0.000451036
0.000489321
0.000768816
0.000653108
0.00130972
0.00154769
0.00224987
0.00149621
0.00164122
0.00247969
0.0011919
0.000525695
0.000462753
0.000560372
0.00148951
0.00128941
0.00068483
0.000543927
0.00063524
0.000623727
0.00158341
0.00316439
0.00097537
0.00114355
0.000965018
0.00186184
0.00174551
0.00181113
0.00241365
0.00113251
0.000362475
0.0016632
0.00103969
0.00116594
0.00249581
0.000378058
0.00106641
0.000532458
0.000316818
0.000900519
0.00085291
0.000744738
0.00130925
0.00140426
0.00172093
0.00131863
0.00138155
0.00123514
0.00221828
0.000458038
0.000468357
0.000218981
0.000360188
0.000650269
0.000714748
0.000388164
0.00028943
0.000576039
0.000672388
0.00125633
0.00250891
0.00163324
0.000925624
0.00155803
0.000194818
0.000530469
0.000141115
0.000196749
0.000423132
0.000164922
0.00028495
0.000516383
0.000554707
0.000874043
0.000457826
0.000613085
0.000554324
0.00077194
0.000542195
0.000759719
0.00214568
0.000265814
0.0024611
0.00033218
0.00040371
0.00222499
0.000242788
0.000503728
0.000294401
0.00216648
0.000537368
0.000336082
0.000588907
0.000941039
0.00216661
0.00042739
0.000460502
0.00073923
0.000755542
0.000896196
0.00243226
0.000687197
0.000534885
0.00050259
0.000432165
0.000758124
0.000903066
0.0025296
0.00077802
0.000629974
0.000751442
0.00081505
0.000469421
0.000385403
0.000705831
0.00261787
0.000771966
0.000594985
0.000529812
0.000983171
0.000867589
0.000820738
0.000642929
0.000800471
0.0025739
0.000471356
0.000965871
0.000518712
0.00154284
0.000782687
0.000937507
0.0011035
0.000718588
0.000629216
0.00266174
0.000444519
0.000907348
0.000777585
0.00101872
0.000647642
0.000943692
0.00152865
0.000982973
0.000759198
0.00079668
0.00231586
0.000490438
0.000777872
0.00127685
0.000691749
0.000866938
0.0016055
0.000923001
0.00102421
0.00187163
0.00117919
0.00074899
0.00251873
0.0010302
0.00117872
0.00139813
0.00110152
0.000868606
0.00153363
0.000339824
0.000862649
0.000486343
0.000260846
0.00242972
0.00238469
0.00288442
0.000837791
0.00174315
0.00120292
0.000988769
0.00111076
0.000972065
0.00151
0.000860667
0.000828527
0.00121917
0.00138395
0.000429671
0.00180061
0.0025091
0.000454396
0.000530863
0.00100977
0.000383496
0.000380689
0.00158931
0.000797343
0.000889853
0.00098037
0.000353741
0.00123407
0.00141293
0.000922092
0.00137903
0.00223734
0.000338673
0.000427888
0.000395753
0.000233384
0.000604729
0.000602417
0.000716983
0.000369598
0.000339294
0.000590869
0.000680433
0.00162809
0.0020731
0.0021431
0.000738088
0.00134388
0.000280296
0.000250603
0.000486976
8.278e-05
0.000200697
0.000412624
0.000134053
0.000324471
0.000521071
0.000427892
0.000815184
0.000405361
0.00075128
0.000498345
0.000718435
0.000485729
0.000717881
0.00212026
0.000468976
0.00220945
0.000485141
0.000433433
0.00243521
0.000403134
0.00036336
0.000584525
0.00227799
0.000590718
0.000484603
0.000574576
0.000452583
0.00203181
0.00054977
0.000379902
0.000670917
0.000650195
0.000682957
0.00213224
0.000393581
0.000421893
0.00063207
0.000544542
0.000479037
0.00069788
0.00238859
0.000705283
0.000673187
0.000515849
0.000432808
0.000768172
0.000664999
0.000750654
0.00264066
0.00067426
0.000517127
0.000387855
0.00070998
0.00110132
0.000549395
0.000610658
0.000627123
0.00268216
0.000754741
0.000729251
0.0016153
0.000947322
0.000975886
0.000616678
0.000621093
0.000495542
0.000637869
0.00254697
0.000689672
0.000699042
0.00102434
0.000764934
0.000642354
0.000807032
0.00105231
0.000438709
0.000786182
0.000709319
0.00265009
0.000319575
0.000572258
0.000897224
0.000983376
0.00151886
0.000817173
0.000904729
0.00104724
0.00127558
0.00231038
0.000643639
0.00220207
0.00107756
0.000623507
0.000885215
0.000574375
0.000458369
0.000602763
0.00116826
0.00141629
0.00123831
0.00102547
0.00150355
0.00118762
0.002416
0.000693821
0.000804665
0.00131008
0.00192819
0.00115223
0.0012754
0.000731645
0.000748707
0.000808657
0.000765577
0.00108756
0.000701391
0.000971827
0.00255886
0.000726622
0.00056935
0.000995288
0.000764051
0.00195851
0.00151706
0.00133907
0.000971349
0.000860101
0.000278741
0.000715953
0.00196687
0.00123669
0.00133746
0.0023681
0.000372044
0.000382321
0.000610352
0.000893968
0.000427385
0.000620441
0.00159195
0.000807506
0.00107342
0.00113608
0.000480203
0.00207259
0.000767525
0.00106138
0.000934428
0.00209578
0.00042091
0.000799324
0.000504287
0.000357163
0.000313427
0.000444447
0.000631737
0.000667209
0.00036074
0.000434607
0.000632417
0.000841236
0.00151875
0.00146876
0.0018704
0.000935301
0.00119469
9.75493e-05
0.000232678
0.000461676
0.00042959
4.17508e-05
0.000274953
0.000383001
0.00017308
0.000264144
0.000503288
0.000397988
0.000733821
0.000383195
0.000772403
0.000450843
0.000657424
0.000429306
0.000662127
0.00208691
0.000401978
0.00207267
0.000462712
0.000553349
0.00221413
0.000136778
0.000472404
0.00042142
0.0022855
0.000392901
0.000303462
0.000247258
0.000372466
0.00231034
0.000339332
0.000340419
0.000225173
0.000468307
0.000644141
0.00200629
0.000553904
0.000376619
0.000321113
0.00072486
0.000738586
0.000726209
0.00206792
0.000700754
0.000539101
0.000600688
0.000629149
0.000453433
0.000709399
0.000726494
0.00224129
0.000554823
0.000894258
0.000585743
0.000551728
0.000687995
0.000405647
0.000432575
0.000593693
0.00256161
0.000580977
0.000819025
0.000351771
0.000654719
0.000644408
0.000729015
0.000882574
0.000651037
0.000482593
0.00268146
0.000932895
0.000532819
0.000780981
0.000921936
0.00105941
0.000933516
0.000817496
0.000696245
0.000344179
0.00050678
0.00248604
0.000391781
0.00064607
0.00121514
0.000761793
0.00101569
0.000780734
0.000802294
0.00120626
0.000983874
0.000895865
0.000534234
0.00250914
0.000702632
0.000669165
0.000821977
0.000948999
0.00109321
0.000709084
0.00119133
0.00130007
0.000800542
0.00149889
0.000391249
0.00049996
0.0025436
0.00145148
0.000499388
0.000455265
0.000586446
0.000782646
0.00050715
0.0012685
0.000565529
0.00146234
0.00126656
0.000978883
0.00203049
0.000724105
0.0021284
0.0010051
0.00140994
0.00140675
0.000723893
0.000982787
0.00090985
0.00142875
0.000586191
0.000921739
0.000405837
0.000872728
0.000763723
0.00103549
0.00162927
0.00244334
0.000418206
0.000612731
0.000997503
0.00114664
0.000906098
0.0023254
0.00163712
0.000963537
0.000946825
0.000446008
0.000572187
0.00120588
0.00051134
0.00126936
0.00124483
0.00232252
0.000408815
0.000561364
0.000505932
0.000722618
0.000552135
0.000702147
0.000794447
0.000782232
0.000743339
0.00114622
0.000747473
0.000421763
0.00194498
0.00101808
0.00168118
0.00101882
0.00200367
0.000430352
0.000262146
0.00099902
0.000466473
0.000369278
0.000325281
0.000436714
0.000777366
0.000496079
0.000399558
0.00042804
0.00075001
0.000968109
0.00213501
0.00115673
0.00147302
0.00113113
0.0011476
0.000254819
0.000129387
0.000247974
0.000538883
0.00036912
8.64502e-05
0.000290226
0.000342526
0.000165383
0.000186038
0.000459051
0.000544631
0.000646957
0.000398075
0.000752305
0.000473547
0.000608633
0.000386416
0.000603028
0.00211421
0.000380792
0.00210395
0.000305425
0.0003367
0.00212077
0.000421671
0.000365788
0.000523927
0.00204325
0.000310887
0.000359805
0.000337332
0.000420162
0.00218222
0.000405172
0.000264201
0.000318524
0.000289395
0.000240083
0.0021286
0.000499186
0.00050717
0.000337444
0.000395584
0.000408066
0.000498105
0.00199886
0.00079664
0.000520616
0.000392993
0.000339832
0.000375557
0.000776266
0.000660145
0.0020421
0.000982173
0.000414614
0.000521493
0.000523886
0.000704445
0.000662001
0.000736516
0.000801842
0.00234913
0.00051139
0.000585409
0.000626063
0.000481161
0.000709422
0.000724799
0.000391858
0.000506044
0.000681057
0.00236881
0.000900633
0.00059701
0.000620719
0.000471225
0.000860055
0.000950709
0.00088231
0.000508457
0.000449243
0.0004786
0.0026273
0.000810307
0.000695562
0.000888278
0.000946876
0.000552693
0.000593771
0.000542527
0.000935705
0.000594463
0.0004873
0.000742796
0.00251464
0.000462774
0.000712458
0.000619071
0.00101809
0.00104185
0.00161329
0.00100735
0.000992652
0.000742193
0.000801527
0.00058954
0.000712627
0.00267484
0.000650021
0.000834761
0.000743766
0.000949308
0.000893506
0.000656451
0.000620249
0.00104876
0.00100707
0.001294
0.0010564
0.00103168
0.000996582
0.00218077
0.000696175
0.0016089
0.00129346
0.000179944
0.000932064
0.000735371
0.000967041
0.000762185
0.00107737
0.000731989
0.00124829
0.00161183
0.00145771
0.00066668
0.00260438
0.000532799
0.00131658
0.000923912
0.00159011
0.000694474
0.00109908
0.000740105
0.00107473
0.000695191
0.000711826
0.000907447
0.000680397
0.00133089
0.00134615
0.00127026
0.00218587
0.000688471
0.000579849
0.000321494
0.000864324
0.00141088
0.00087936
0.00137216
0.00119949
0.000524035
0.000603748
0.000744683
0.000345967
0.000803097
0.00198658
0.000746894
0.00111161
0.00226039
0.00053172
0.000320864
0.00043407
0.000757277
0.000728241
0.00101281
0.000846581
0.0010382
0.0019107
0.000804652
0.00102954
0.00154102
0.000459253
0.00199283
0.000950435
0.000653185
0.00102495
0.00218503
0.000275945
0.000406923
0.000261294
0.00100399
0.000514302
0.000430479
0.000345232
0.000250233
0.000518008
0.000236388
0.000470608
0.000531603
0.00101443
0.00104509
0.0022517
0.00127784
0.00120415
0.00110205
0.00122535
0.000167676
0.00015673
0.000217018
0.000451297
0.000624324
0.000322201
0.000140043
0.000261193
0.000266978
0.000129956
0.000146325
0.000392191
0.000592423
0.000579909
0.000429855
0.000520678
0.000580169
0.000564155
0.000359474
0.000558178
0.00220228
0.000256804
0.00219546
0.000197018
0.000387022
0.00213237
0.00038379
0.000387036
0.00038757
0.00212589
0.000161963
0.000426928
0.000238628
0.000478899
0.00216831
0.000674145
0.000341436
0.000290437
0.000414699
0.000414852
0.00217105
0.000643205
0.000347728
0.000294355
0.000160198
0.00024087
0.000490412
0.00209805
0.000395364
0.000526074
0.000304484
0.00028993
0.000271899
0.000496806
0.000362913
0.00195963
0.000635905
0.000686341
0.000502857
0.000547917
0.000844832
0.000652129
0.000818887
0.000599763
0.00195748
0.000914759
0.00073827
0.00063359
0.000528021
0.000654553
0.000352585
0.000586706
0.000596454
0.000878912
0.00225254
0.000781377
0.000389366
0.00064949
0.000490805
0.000458068
0.000486706
0.000854619
0.000544483
0.000304349
0.000613061
0.0024154
0.000675197
0.000708819
0.000441843
0.000542543
0.000865475
0.000535
0.000660966
0.000672465
0.000445518
0.000504654
0.000774828
0.00269999
0.000957251
0.000645434
0.000489164
0.00113118
0.00062355
0.000516363
0.000843515
0.00084615
0.000692372
0.000744292
0.000552759
0.000560878
0.0025712
0.00071528
0.000745789
0.00141869
0.00105082
0.000888514
0.00103215
0.000945608
0.0006193
0.000998386
0.0011593
0.000692208
0.000779729
0.000817043
0.00263027
0.00155564
0.000815776
0.000231012
0.000455731
0.000764856
0.000714001
0.000874284
0.0011032
0.00174914
0.00146161
0.000776224
0.00155208
0.00127276
0.000995848
0.00221413
0.000471619
0.00138181
0.000697934
0.000903583
0.000430131
0.000944638
0.000726934
0.000815773
0.000730014
0.00102151
0.000942318
0.000835929
0.000904496
0.00128202
0.000795723
0.00237714
0.000417377
0.000466324
0.00111696
0.000468064
0.00144725
0.000911053
0.000813114
0.00104873
0.000937299
0.00046562
0.000680428
0.00108273
0.000836307
0.000819202
0.00109673
0.00147318
0.00215268
0.000562961
0.000543975
0.00103563
0.0010039
0.000846445
0.00114588
0.00138115
0.00140536
0.000760147
0.00123081
0.00102375
0.000403102
0.000457454
0.000797914
0.00160742
0.000864411
0.0011516
0.0023076
0.000678334
0.000606257
0.000381299
0.000644613
0.000794566
0.000793224
0.000532473
0.000771485
0.000975843
0.001613
0.00100598
0.00121965
0.0011321
0.000379191
0.00145312
0.000914553
0.000869099
0.00115092
0.00228447
0.000344951
0.000436392
0.000410934
0.000366097
0.0014784
0.00080864
0.000258188
0.000274078
0.000296474
0.000847942
0.000337958
0.000609068
0.000590378
0.00102314
0.00131199
0.0017987
0.00147714
0.00128768
0.00104728
0.00126953
0.000113408
0.000134827
0.000110106
0.000203808
0.000558259
0.00068728
0.000297744
5.01937e-05
0.000253656
0.000162233
0.000128165
0.000133133
0.000303888
0.000608468
0.000585284
0.000461927
0.000497024
0.000599654
0.00053609
0.000356763
0.000524196
0.00206553
0.000385707
0.00224707
0.000351181
0.00035471
0.00229221
0.00020623
0.00025074
0.000591941
0.00218501
0.000202567
0.000246657
0.000319027
0.000447787
0.00219755
0.00047206
0.000410541
0.000531565
0.00037496
0.000401392
0.00217596
0.000353135
0.000221774
0.000122396
0.00034361
0.000246581
0.00043384
0.00210143
0.000497338
0.000347703
0.000419733
0.00048402
0.00029151
0.000193481
0.000282153
0.00206974
0.000401663
0.000945957
0.000557779
0.000312958
0.000326506
0.00055059
0.000635683
0.000372991
0.00200319
0.00066634
0.000962814
0.000410253
0.000515442
0.000632951
0.000366501
0.000412839
0.000676383
0.00059973
0.00203909
0.000403582
0.000562628
0.000275235
0.000540275
0.000499532
0.000583412
0.00075521
0.000493888
0.000521061
0.000764722
0.00200195
0.000763936
0.000743636
0.000582137
0.00073324
0.000352321
0.000569779
0.000538243
0.000790082
0.000531209
0.000551012
0.000636098
0.00237579
0.000630893
0.000658001
0.000675979
0.000648346
0.000613031
0.000531655
0.000589281
0.000594139
0.000718894
0.000635805
0.000528698
0.00071601
0.00253274
0.000963834
0.000601678
0.000780545
0.000758365
0.000874433
0.000925159
0.00113339
0.000763098
0.00101465
0.000640696
0.000878581
0.000700779
0.000617654
0.00260318
0.000513163
0.000680055
0.000983928
0.000634243
0.00121213
0.000946982
0.00103677
0.000645662
0.00130183
0.000674486
0.00072771
0.000692883
0.000501012
0.00057832
0.00238721
0.000374883
0.000342973
0.00166651
0.000888197
0.000891256
0.000721954
0.000729977
0.000698864
0.000950966
0.0006443
0.00116077
0.00153517
0.00128168
0.00148504
0.000581138
0.00253254
0.000463416
0.000588074
0.00071092
0.00166952
0.000813597
0.000894095
0.000759646
0.000435927
0.00079808
0.00110734
0.000762422
0.00149259
0.000888919
0.000499057
0.00119419
0.00101974
0.00218138
0.00130887
0.000631963
0.000533196
0.00162642
0.00127
0.000584684
0.00127043
0.000849979
0.000764858
0.000773579
0.000760725
0.00111789
0.000709388
0.000756098
0.00239063
0.00142638
0.00159771
0.00217471
0.000738683
0.000860448
0.000490599
0.000729457
0.000542963
0.000804191
0.000704281
0.00163541
0.0012528
0.00124513
0.000812736
0.000530871
0.000411193
0.000665696
0.000514676
0.000666553
0.000682727
0.000942312
0.00230851
0.000442401
0.000479281
0.000507668
0.000488451
0.000776495
0.000601793
0.000700362
0.000697846
0.000691516
0.000948485
0.000580637
0.00100434
0.00176528
0.000519162
0.000626198
0.000776183
0.000955824
0.000896987
0.00117983
0.00220045
0.000518937
0.000479498
0.000441637
0.000385047
0.000572107
0.00142182
0.000742709
0.000228719
0.000310692
0.000330765
0.000549215
0.000468421
0.000775068
0.000668532
0.00090988
0.00152399
0.00216313
0.00150431
0.00171459
0.000975663
0.00113798
0.000112553
0.000113379
0.000140026
8.17648e-05
0.00023439
0.000466794
0.000716512
0.000308686
6.79997e-05
0.000238843
0.00019095
0.000157988
0.000100732
0.000251465
0.00061705
0.000602541
0.000477849
0.00055113
0.000638365
0.000509865
0.000371373
0.000525996
0.00205447
0.000423066
0.00199352
0.000315761
0.000435156
0.00220742
0.000363591
0.000269398
0.000366772
0.0023081
0.000307821
0.000493138
0.000358094
0.000542163
0.00221281
0.000372031
0.000366273
0.000320156
0.000291569
0.000483061
0.00222429
0.000420539
0.000179615
0.000226328
0.000546262
0.000429538
0.000314028
0.00213363
0.000155678
0.000408866
0.000411033
0.000242356
0.000136085
0.000203749
0.000301661
0.00217309
0.000456839
0.000712595
0.000541542
0.000244287
0.000286307
0.000146879
0.000444835
0.000226303
0.00203
0.000610491
0.000382875
0.000364189
0.000451895
0.000397266
0.000569492
0.000479078
0.000531084
0.000426639
0.00194024
0.000481175
0.00108225
0.000579033
0.000478073
0.000438291
0.000640243
0.0003187
0.000539615
0.000521928
0.000722789
0.00191236
0.000447414
0.000887901
0.000349174
0.000586412
0.000485365
0.000407119
0.00066183
0.000767193
0.000443483
0.000621102
0.000736554
0.00215304
0.000591504
0.000586056
0.000463279
0.000604651
0.000551031
0.000486754
0.00055793
0.00042965
0.000651228
0.000675075
0.00037821
0.000785549
0.00245871
0.000824749
0.000871918
0.00103321
0.000663843
0.000718842
0.000838137
0.00103488
0.00062895
0.000644494
0.000492099
0.000472816
0.000495111
0.000441224
0.00248658
0.000673708
0.000687547
0.000692204
0.000990619
0.00111462
0.000594202
0.000736004
0.00073107
0.00119101
0.000731401
0.00117609
0.000767867
0.000723969
0.000585789
0.00232035
0.000496611
0.000622518
0.00080531
0.00104978
0.000423348
0.000552251
0.00116214
0.00102311
0.00100283
0.00105967
0.0014804
0.000754896
0.00130865
0.00108417
0.000758815
0.00257414
0.000531857
0.000222884
0.000742642
0.000841713
0.000615642
0.000747729
0.000869079
0.000740641
0.000923025
0.000647745
0.000934938
0.00067591
0.000831441
0.000397056
0.000651111
0.000906463
0.00248839
0.000529694
0.000720385
0.000379776
0.000453362
0.00108988
0.000887252
0.000606267
0.000965828
0.000369979
0.000669875
0.000816352
0.000881639
0.00064742
0.0008011
0.000227251
0.000914151
0.000759523
0.00233905
0.000904079
0.000632922
0.000451738
0.00109399
0.00157639
0.000976395
0.00096431
0.000975528
0.000610508
0.00109692
0.00142445
0.000831132
0.00100469
0.00109395
0.00081247
0.000519563
0.00121652
0.000769118
0.00212332
0.00069382
0.000643917
0.000685426
0.000523672
0.000178953
0.000981157
0.000682216
0.000655803
0.00145154
0.00116206
0.00164261
0.00156908
0.000592492
0.000281166
0.000519117
0.000812451
0.000966867
0.000849172
0.0017632
0.00229831
0.000818492
0.000404315
0.00047662
0.000457558
0.000340255
0.000658575
0.000649901
0.000416248
0.000742694
0.000766289
0.00111617
0.00124599
0.00160019
0.000790156
0.00067614
0.00115195
0.00162142
0.000876912
0.000850455
0.000726679
0.00200353
0.000421271
0.000411204
0.000432215
0.000548834
0.000407185
0.000625045
0.000853591
0.000690093
0.00019469
0.000401831
0.000341755
0.000491926
0.000600757
0.000897946
0.000722411
0.00112902
0.00158233
0.00211609
0.00139476
0.00116787
0.000895494
0.00109876
0.000609833
0.000190572
0.000123624
7.70723e-05
0.000161264
0.00014673
0.000421888
0.000511897
0.000667624
0.000309015
0.000230326
0.000229565
0.000201477
0.000116423
9.16996e-05
0.00026385
0.000596188
0.000622759
0.00046373
0.0005137
0.000652338
0.000444974
0.000392176
0.000536515
0.00199001
0.000349069
0.00207886
0.000488496
0.000427261
0.00195902
0.000597629
0.000464924
0.000735687
0.00204193
0.000214465
0.000418909
0.00036968
0.000558192
0.00211358
0.000347872
0.000364221
0.000702385
0.00031192
0.000341239
0.00215376
0.000732899
0.000419613
0.000409997
0.000357958
0.00052484
0.000414421
0.00222161
0.000310765
0.00024758
0.000213176
0.000244447
0.000338068
0.00035685
0.000419774
0.0021349
0.00054475
0.000151949
0.000459849
0.000267139
0.000562123
0.00044306
0.000229592
0.000257751
0.00219193
0.000603872
0.000375545
0.000562665
0.000406302
0.000469733
9.31473e-05
0.000321488
0.000224215
0.00032478
0.00210823
0.000159112
0.00027793
0.000673438
0.000562526
0.000377772
0.000353566
0.000350114
0.000212258
0.000502757
0.000383965
0.00185849
0.000450215
0.000593254
0.000315509
0.000209021
0.000619452
0.000423485
0.000638962
0.000870506
0.000622981
0.000524315
0.000682824
0.00199364
0.00087228
0.000672199
0.000333349
0.000660986
0.000694184
0.000481575
0.000545785
0.000347047
0.000475698
0.000330381
0.000647519
0.000531562
0.00209048
0.000371147
0.000367687
0.000369603
0.000964468
0.000612169
0.000400316
0.000324798
0.000502759
0.000705988
0.000587061
0.000665919
0.000441811
0.000666008
0.00226847
0.00104283
0.000729825
0.000965992
0.000621769
0.000716869
0.000610599
0.000929973
0.000747275
0.000421398
0.000671617
0.000709951
0.000621229
0.000542239
0.000713179
0.00240435
0.00105228
0.00067126
0.000684593
0.000774458
0.000722678
0.000885862
0.00095229
0.00119409
0.000638286
0.00110057
0.000610156
0.000517445
0.000299913
0.000365223
0.00060182
0.00264985
0.000853138
0.000613414
0.000435403
0.000782114
0.000313158
0.00112135
0.000953519
0.000888936
0.000817526
0.000899809
0.000506749
0.000487684
0.00115306
0.000681966
0.000792524
0.000915744
0.00256031
0.00151588
0.000205456
0.000593227
0.000887374
0.000706767
0.00152372
0.000533832
0.000878428
0.000849201
0.000778049
0.000943075
0.00106105
0.00103206
0.000687327
0.000810423
0.000837948
0.000666068
0.00239803
0.000316954
0.000658205
0.000518558
0.000342246
0.000561571
0.000584654
0.00114644
0.000796852
0.000349066
0.000700886
0.000666887
0.000656295
0.000973779
0.000726421
0.00076059
0.00203845
0.000980537
0.000723658
0.00201676
0.000906146
0.00077562
0.000702527
0.00116469
0.000631164
0.0012001
0.00162634
0.000819024
0.0010197
0.00066331
0.00120259
0.000968043
0.000926039
0.000718001
0.000827111
0.000733612
0.00129765
0.000609048
0.000856088
0.00222151
0.000896621
0.000973503
0.000719878
0.000633476
0.000643228
0.000723813
0.00103571
0.00105292
0.000903502
0.000737627
0.00155124
0.00085117
0.000612967
0.000344299
0.000540855
0.000800392
0.00135749
0.000960547
0.0010162
0.00134634
0.00246502
0.00062836
0.000553323
0.000444992
0.000359391
0.000539159