/*--------------------------------*- C++ -*----------------------------------*\
  =========                 |
  \\      /  F ield         | OpenFOAM: The Open Source CFD Toolbox
   \\    /   O peration     | Website:  https://openfoam.org
    \\  /    A nd           | Version:  7
     \\/     M anipulation  |
\*---------------------------------------------------------------------------*/
FoamFile
{
    version     2.0;
    format      ascii;
    class       volScalarField;
    location    "5.5";
    object      p;
}
// * * * * * * * * * * * * * * * * * * * * * * * * * * * * * * * * * * * * * //

dimensions      [0 2 -2 0 0 0 0];

internalField   nonuniform List<scalar> 
18750
(
-77.9814
-84.212
-79.2128
-77.7912
-78.7367
-86.2319
-83.3404
-79.443
-79.0469
-77.5621
-66.749
-88.6483
-77.9439
-85.2527
-85.5461
-82.6154
-78.4761
-79.475
-78.865
-77.2772
-64.7859
-73.449
-66.662
-86.1542
-86.9651
-77.19
-82.8787
-85.56
-84.8594
-81.8158
-78.3294
-78.4965
-79.4625
-78.6841
-77.0084
-60.7579
-70.512
-63.8619
-78.2377
-72.5352
-67.2486
-84.1539
-86.1934
-85.3941
-75.6578
-81.6511
-83.1424
-85.6324
-84.2152
-80.3617
-78.0611
-78.4057
-78.5084
-79.4279
-78.4854
-76.7892
-57.3962
-59.5742
-60.1873
-68.7716
-69.8632
-63.7966
-77.8292
-77.337
-71.943
-67.1427
-82.8233
-84.8031
-85.8823
-83.4105
-73.9637
-78.9627
-82.3586
-83.3857
-85.5024
-83.2773
-79.3841
-78.1392
-78.106
-78.4862
-78.5227
-79.3351
-78.2703
-76.5963
-55.4267
-57.2815
-57.3094
-60.9596
-59.4642
-59.6182
-69.74
-67.6756
-69.3841
-63.1506
-76.6252
-77.6084
-75.7839
-72.169
-67.6888
-80.4364
-83.5066
-85.501
-85.4946
-81.1258
-72.4156
-78.2585
-79.3768
-82.9433
-83.6091
-85.2457
-82.2431
-78.3613
-77.6316
-78.1808
-78.1534
-78.5733
-78.5398
-79.2308
-78.0443
-76.4045
-54.0525
-55.5277
-55.1235
-57.0919
-57.221
-57.0996
-61.3143
-60.9843
-59.0014
-59.409
-68.805
-69.0592
-67.0159
-66.8317
-62.1779
-75.5371
-76.3256
-77.4833
-74.6417
-71.204
-67.7321
-78.6347
-80.9453
-83.9974
-85.6021
-85.3215
-78.9561
-71.0466
-78.0093
-78.5784
-79.8408
-83.3727
-83.8266
-84.8761
-81.295
-77.2562
-76.9409
-77.664
-78.2216
-78.2038
-78.6594
-78.5612
-79.2007
-77.8126
-76.1935
-52.6008
-54.0077
-53.9106
-55.179
-55.5379
-55.107
-57.5892
-57.2166
-57.0496
-56.8484
-61.9314
-61.2763
-61.381
-58.4868
-58.6806
-69.1201
-68.9804
-68.3999
-67.5617
-65.4067
-61.5667
-74.9094
-75.5771
-76.3087
-76.9238
-73.7949
-70.5209
-67.5817
-78.4374
-79.3532
-81.3403
-84.4047
-85.1548
-84.9384
-76.9323
-70.0086
-76.993
-78.2069
-78.9247
-80.3269
-83.7429
-84.1963
-84.3292
-80.2288
-76.1262
-76.1513
-76.968
-77.6953
-78.2615
-78.255
-78.7425
-78.5778
-79.2251
-77.5997
-75.9805
-51.7177
-52.6392
-52.7323
-53.7345
-53.9967
-53.7768
-55.3705
-55.3824
-55.3283
-54.991
-57.997
-57.4989
-57.3725
-56.3967
-56.6855
-63.1738
-61.9656
-61.2854
-61.0546
-60.0829
-58.1804
-68.6366
-69.3192
-68.716
-67.2904
-66.5885
-64.6374
-61.0693
-74.9336
-74.9773
-75.4235
-76.3935
-76.4205
-73.1882
-69.4603
-67.4963
-77.3205
-79.2598
-79.9076
-81.8109
-84.6314
-84.5541
-84.2104
-75.3003
-69.4544
-75.9638
-77.1736
-78.3851
-79.1923
-80.6924
-83.9319
-84.4092
-83.6193
-79.1382
-75.2203
-75.518
-76.1755
-76.9952
-77.726
-78.2965
-78.3085
-78.8129
-78.6196
-79.2564
-77.4481
-75.7619
-51.163
-51.7961
-51.7342
-52.6666
-52.6935
-52.6411
-53.6782
-53.7059
-53.8229
-53.7473
-55.2338
-55.3423
-55.4416
-55.2927
-54.9134
-58.7029
-57.7195
-57.4331
-57.1994
-56.9275
-56.633
-63.3276
-63.0257
-62.1622
-61.1799
-60.8321
-60.2563
-57.7225
-68.2854
-68.5591
-68.704
-68.1191
-66.495
-65.419
-63.8573
-60.2947
-73.8957
-75.4082
-74.9745
-75.3669
-76.4685
-75.1331
-72.3254
-68.3357
-67.27
-75.1576
-78.2348
-80.0183
-80.378
-82.1316
-84.3177
-84.1349
-83.0551
-74.0337
-68.8882
-74.7243
-76.1223
-77.3526
-78.5205
-79.3729
-80.9772
-83.9693
-84.5392
-82.8745
-78.2481
-74.3223
-75.3481
-75.5189
-76.1997
-77.0146
-77.7545
-78.3233
-78.3587
-78.8649
-78.7484
-79.2466
-77.2165
-75.5355
-50.7501
-51.1878
-51.1525
-51.8279
-51.8141
-51.7094
-52.5201
-52.7284
-52.6209
-52.6115
-53.7749
-53.6162
-53.803
-53.4404
-53.7196
-55.662
-55.2819
-55.0774
-55.3094
-54.95
-54.9066
-59.0843
-58.2867
-57.8688
-57.7401
-57.4449
-57.7767
-56.3334
-63.4763
-63.2111
-62.4788
-61.9764
-60.8956
-61.2519
-60.4258
-57.3881
-68.1761
-68.0932
-68.395
-68.3155
-67.4286
-66.1008
-65.0177
-62.8845
-59.229
-71.8889
-74.377
-75.672
-74.9555
-75.7837
-76.1975
-73.4968
-71.3007
-67.8091
-66.4985
-73.2591
-75.6913
-79.2216
-80.442
-80.5658
-82.414
-83.8361
-84.222
-81.6875
-73.1886
-68.9945
-73.8766
-74.7736
-76.285
-77.5248
-78.6618
-79.5132
-81.231
-83.9982
-84.7198
-82.0436
-77.5116
-73.7791
-74.7925
-75.3487
-75.5284
-76.2228
-77.0302
-77.7792
-78.346
-78.4053
-78.8992
-78.9605
-79.157
-76.9832
-75.3206
-50.472
-50.7024
-50.7142
-51.1337
-51.1801
-51.1335
-51.8129
-51.8144
-51.6639
-51.6427
-52.6061
-52.5748
-52.7689
-52.4883
-52.5389
-54.1841
-53.9703
-53.4021
-53.7591
-53.6718
-53.7774
-56.1252
-55.6078
-55.2513
-55.3135
-55.2723
-55.3993
-54.841
-59.1401
-58.6414
-57.9181
-57.2932
-57.7576
-57.6468
-57.5423
-56.2231
-63.6536
-63.3932
-63.0553
-62.3229
-60.7788
-61.916
-61.02
-60.1959
-57.0482
-67.8682
-68.1132
-68.273
-68.5348
-68.3102
-66.6895
-66.3391
-64.7814
-62.144
-59.2817
-70.5552
-72.5082
-74.8464
-75.7545
-74.8654
-75.6084
-75.3486
-72.2005
-70.3383
-66.8789
-65.587
-72.4974
-73.5675
-76.212
-79.9684
-80.48
-80.9187
-82.5834
-83.5167
-84.5492
-80.0539
-72.6158
-69.5114
-73.1916
-73.9037
-74.8435
-76.4721
-77.7032
-78.8225
-79.5956
-81.491
-84.0041
-84.8142
-81.1725
-76.8147
-73.4488
-73.8881
-74.7936
-75.3492
-75.5432
-76.2453
-77.0472
-77.7984
-78.3649
-78.4465
-78.9143
-79.1829
-79.0678
-76.7709
-75.1203
-50.3123
-50.448
-50.4929
-50.7656
-50.7604
-50.6489
-51.176
-51.1355
-51.0018
-51.1022
-51.9194
-51.8451
-51.8031
-51.6565
-51.6155
-52.8152
-52.6427
-52.5405
-52.6091
-52.4661
-52.4345
-54.2631
-53.8406
-53.3084
-53.4053
-53.8256
-53.5975
-53.7716
-56.4578
-55.8916
-55.4681
-55.1666
-55.5511
-55.4466
-55.5652
-54.7876
-59.712
-59.3701
-58.3509
-58.2439
-57.3029
-57.6787
-57.209
-57.8541
-56.1384
-64.1363
-63.5512
-63.2257
-62.926
-62.234
-60.7386
-61.3405
-59.8924
-59.7629
-56.8865
-67.4884
-67.8505
-67.6343
-67.9406
-68.2975
-67.8118
-66.5383
-65.835
-63.7234
-61.3642
-59.364
-70.2025
-70.6398
-72.9585
-75.7647
-75.3162
-74.4086
-75.3662
-74.7729
-71.6281
-69.5118
-66.5226
-64.7364
-71.7219
-72.5649
-73.9165
-76.7721
-80.6335
-80.6127
-81.4934
-82.6185
-83.3584
-85.0597
-78.5683
-72.0933
-69.5209
-72.7387
-73.2101
-73.9652
-74.9412
-76.672
-77.9146
-78.9595
-79.6459
-81.5554
-83.5891
-84.6526
-80.2815
-76.1724
-73.1476
-72.5036
-73.8894
-74.7939
-75.3545
-75.5593
-76.2659
-77.0653
-77.8102
-78.3795
-78.4798
-78.9044
-79.3233
-78.9797
-76.5686
-74.9773
-49.9922
-50.2721
-50.3313
-50.4818
-50.4728
-50.4075
-50.836
-50.7342
-50.6832
-50.6513
-51.309
-51.1285
-51.1758
-50.8856
-51.0185
-51.9726
-51.7685
-51.8025
-51.7724
-51.6356
-51.5102
-52.9621
-52.7415
-52.5453
-52.4107
-52.5831
-52.5583
-52.5515
-54.5642
-54.3011
-53.8155
-53.3699
-53.6355
-53.9125
-53.6793
-53.7593
-56.7099
-56.0307
-55.7882
-55.5495
-55.1246
-55.5619
-55.226
-55.6183
-54.8278
-59.9687
-59.4341
-59.3855
-58.3585
-58.1521
-57.4183
-56.997
-58.1954
-57.5975
-55.9949
-64.3397
-63.8748
-63.2951
-62.8275
-62.6847
-61.8837
-60.9029
-60.3148
-61.5497
-60.206
-57.2096
-67.5014
-67.4783
-67.5661
-67.2131
-67.7354
-67.9859
-67.174
-66.2507
-65.4108
-64.8131
-61.0209
-59.6681
-70.0477
-69.9938
-70.8612
-73.4504
-76.3037
-75.2045
-74.6433
-75.2963
-74.2182
-70.8217
-69.1765
-66.0055
-64.187
-71.4589
-71.7205
-72.657
-74.2962
-77.3286
-80.9944
-80.8236
-81.6684
-82.6488
-82.8523
-85.2882
-78.0117
-71.4765
-69.3446
-72.081
-72.7158
-73.2546
-74.0001
-75.0579
-76.8824
-78.1147
-79.0763
-79.6835
-81.3669
-82.7549
-84.2018
-79.3744
-75.5657
-73.0153
-71.4184
-72.4236
-73.9017
-74.7975
-75.365
-75.5754
-76.2844
-77.0823
-77.8099
-78.3906
-78.5027
-78.8632
-79.3645
-78.8684
-76.3664
-74.9032
-49.8399
-50.0129
-49.9549
-50.2832
-50.2914
-50.3996
-50.4866
-50.4614
-50.4903
-50.3896
-50.8171
-50.79
-50.7386
-50.5349
-50.6119
-51.3465
-51.2609
-51.0817
-51.1472
-50.9413
-50.9884
-52.0876
-51.9562
-51.8453
-51.7032
-51.6828
-51.5683
-51.5566
-53.1252
-52.8742
-52.7445
-52.4517
-52.4856
-52.5798
-52.5226
-52.5984
-54.5291
-54.2414
-54.2072
-53.5228
-53.4925
-53.4968
-53.8587
-53.7943
-53.7985
-57.2465
-56.4752
-55.8465
-55.7388
-55.4699
-55.2725
-55.758
-55.3115
-55.6693
-54.8244
-60.3959
-59.7591
-59.266
-59.0087
-58.3911
-57.6378
-57.5442
-57.8858
-58.6593
-57.3946
-56.0487
-64.3805
-64.2833
-63.6968
-63.0874
-62.6649
-62.0822
-61.069
-61.0411
-61.1631
-60.9506
-59.3162
-57.5549
-68.0902
-67.152
-67.584
-67.0774
-67.0745
-67.6291
-67.1005
-66.5593
-66.2252
-64.963
-64.2698
-61.4615
-60.1775
-70.0834
-69.9036
-69.8482
-71.3855
-73.7295
-76.4152
-75.38
-74.8649
-75.1069
-73.5939
-70.4686
-68.8205
-65.6773
-63.7153
-71.3572
-71.2929
-71.705
-72.7775
-74.7185
-78.0885
-81.3083
-80.8117
-81.6186
-82.4452
-81.7711
-85.4304
-77.8874
-71.017
-69.1476
-71.4304
-71.9892
-72.725
-73.3111
-74.0356
-75.168
-77.1241
-78.2944
-79.1712
-79.7232
-81.1361
-81.7412
-83.3746
-78.4512
-75.0763
-72.991
-70.9371
-71.3216
-72.3583
-73.922
-74.8007
-75.3807
-75.5844
-76.2968
-77.0942
-77.7965
-78.3967
-78.5123
-78.7876
-79.3587
-78.7619
-76.1732
-74.8546
-49.6566
-49.8365
-49.7711
-50.0501
-50.04
-50.0126
-50.2542
-50.2917
-50.2482
-50.3425
-50.4996
-50.5099
-50.4867
-50.3768
-50.4577
-50.9053
-50.8674
-50.7196
-50.6697
-50.6025
-50.5237
-51.4026
-51.3142
-51.238
-51.1846
-51.0736
-50.9001
-50.9187
-52.2504
-52.0262
-51.9644
-51.7543
-51.654
-51.6645
-51.5831
-51.5962
-53.37
-53.0772
-52.8599
-52.4929
-52.3965
-52.5983
-52.6315
-52.564
-52.5093
-55.0936
-54.4663
-54.0944
-53.8278
-53.4665
-53.5578
-53.5888
-53.9483
-53.8361
-53.8918
-57.4275
-57.0937
-56.365
-55.8317
-55.6785
-55.3469
-55.4638
-55.8334
-55.2575
-55.5846
-54.8417
-60.9547
-60.0114
-59.3901
-59.0812
-58.4941
-57.818
-57.5037
-57.6496
-57.7753
-56.9676
-57.2697
-56.1131
-65.0134
-64.132
-64.1766
-63.3537
-62.9411
-62.0846
-61.7098
-60.8596
-60.733
-61.0374
-59.9276
-58.9712
-58.1057
-68.3058
-67.8161
-67.037
-67.5969
-66.9337
-66.8255
-67.3421
-66.7513
-66.3045
-66.131
-64.9778
-63.789
-61.1314
-60.4788
-70.2658
-69.7432
-69.6886
-69.8907
-71.6651
-73.9629
-76.6389
-75.1833
-74.5488
-74.8643
-72.4599
-69.3522
-68.3783
-65.5423
-63.131
-71.4077
-71.1044
-71.1629
-71.6726
-72.9433
-75.0602
-78.978
-81.5633
-80.6955
-81.5439
-82.0331
-80.6804
-85.3788
-76.364
-70.5504
-68.7929
-71.2129
-71.2754
-71.8792
-72.7641
-73.3624
-74.0887
-75.2872
-77.4058
-78.4642
-79.2673
-79.7517
-80.8207
-80.6652
-82.3978
-77.3231
-74.5442
-72.9911
-70.7025
-70.873
-71.2325
-72.3068
-73.9456
-74.8035
-75.4006
-75.5874
-76.3072
-77.1001
-77.7803
-78.3853
-78.5121
-78.6934
-79.2776
-78.6453
-75.9943
-74.8348
-49.5063
-49.652
-49.6713
-49.8169
-49.7727
-49.743
-50.1081
-50.0265
-50.0884
-50.0418
-50.2402
-50.2381
-50.2408
-50.2694
-50.2835
-50.5666
-50.5227
-50.5248
-50.4942
-50.3144
-50.442
-50.9436
-50.9
-50.8634
-50.6766
-50.6246
-50.6032
-50.5468
-51.4088
-51.4051
-51.3194
-51.2242
-51.1646
-51.0297
-50.9531
-50.962
-52.3926
-52.1355
-52.0843
-51.847
-51.6298
-51.7309
-51.8057
-51.607
-51.6579
-53.6253
-53.3059
-53.0355
-52.6987
-52.4163
-52.5148
-52.597
-52.6037
-52.639
-52.5812
-55.1883
-54.9914
-54.366
-53.9244
-53.5094
-53.3862
-53.5803
-53.7527
-53.9581
-53.8239
-53.9394
-57.8729
-57.4391
-56.5996
-56.0979
-55.7192
-55.4718
-55.4137
-54.8442
-55.2831
-55.165
-55.605
-54.8677
-61.4347
-60.1198
-59.7401
-59.3257
-58.7627
-58.2054
-57.9449
-57.9161
-57.3911
-57.2475
-57.4968
-57.2055
-56.0865
-65.5284
-64.668
-64.1093
-63.6453
-63.1446
-62.6855
-62.2108
-61.5203
-61.9681
-60.7452
-60.485
-59.5419
-59.0976
-58.572
-69.4999
-68.0091
-67.266
-67.08
-67.3232
-66.5296
-66.4478
-66.7164
-66.3784
-66.6319
-65.9895
-64.3205
-63.1202
-60.9521
-60.4061
-70.2721
-70.024
-69.3398
-69.4352
-69.9477
-72.0286
-74.7517
-76.7748
-74.9837
-74.3333
-74.3059
-71.5059
-68.6566
-67.798
-65.135
-62.9312
-71.3792
-71.1767
-70.8161
-71.0657
-71.7139
-73.0997
-75.4795
-79.7617
-81.7037
-80.5451
-81.6157
-81.4727
-79.6574
-85.0951
-74.8608
-70.2071
-68.3501
-71.3501
-71.0758
-71.1194
-71.8044
-72.8109
-73.4336
-74.1459
-75.4283
-77.6875
-78.6105
-79.3202
-79.7033
-80.3793
-79.5359
-81.3256
-76.2437
-74.0749
-72.9784
-70.4902
-70.6509
-70.7795
-71.1423
-72.2676
-73.9766
-74.8114
-75.421
-75.5907
-76.3181
-77.098
-77.7553
-78.3563
-78.494
-78.5926
-79.1313
-78.5332
-75.8359
-74.8296
-49.3961
-49.5184
-49.4942
-49.6631
-49.6549
-49.607
-49.8422
-49.8538
-49.7644
-49.8221
-50.0925
-50.0679
-50.0317
-50.056
-49.9978
-50.3045
-50.2522
-50.2709
-50.258
-50.2868
-50.3253
-50.5622
-50.563
-50.5516
-50.3835
-50.4404
-50.3811
-50.4288
-50.9688
-50.9677
-50.8955
-50.7703
-50.7437
-50.6144
-50.6274
-50.6056
-51.4233
-51.5197
-51.3879
-51.3081
-51.2753
-51.0408
-51.0471
-50.9918
-51.0008
-52.619
-52.2405
-52.1804
-52.0051
-51.8179
-51.6656
-51.7683
-51.7251
-51.6532
-51.7641
-53.8897
-53.5791
-53.1145
-52.8189
-52.6996
-52.5832
-52.4308
-52.6315
-52.6668
-52.6824
-52.5691
-55.6424
-55.4253
-54.6782
-54.2536
-53.8787
-53.6185
-53.6809
-53.3668
-53.7821
-53.9564
-53.8106
-54.0286
-58.3402
-57.6059
-57.1916
-56.5668
-56.0065
-55.9683
-55.3679
-55.4193
-54.9587
-55.2379
-55.2299
-55.4827
-54.5789
-61.8452
-60.6613
-59.8839
-59.4032
-59.1998
-58.5435
-58.232
-57.5995
-57.9614
-57.1581
-57.3144
-57.1039
-57.0844
-56.2751
-66.4979
-65.9587
-64.0591
-64.0721
-63.5441
-63.1816
-62.517
-62.0251
-61.2905
-61.4882
-60.3886
-59.8261
-59.363
-58.9122
-58.35
-69.0737
-68.8446
-67.753
-66.8336
-66.9483
-66.724
-66.1193
-66.2665
-66.2212
-66.2233
-66.1763
-65.8656
-64.7459
-62.648
-61.0686
-60.3773
-70.5461
-70.2212
-69.6731
-69.039
-69.2874
-70.0715
-72.1429
-75.5567
-76.5659
-74.5725
-73.936
-73.6896
-70.6467
-68.0072
-67.41
-64.8875
-62.708
-71.5553
-71.3087
-70.9431
-70.5366
-70.9697
-71.8021
-73.3492
-75.9132
-80.2365
-81.7077
-80.3967
-81.5161
-80.7823
-78.8902
-84.1929
-74.2009
-69.7381
-67.9383
-71.6583
-71.2488
-70.9352
-70.9418
-71.7313
-72.8693
-73.5151
-74.2266
-75.5318
-77.891
-78.7525
-79.3051
-79.6107
-79.8658
-78.5654
-80.2917
-75.4181
-73.6698
-72.9454
-70.3818
-70.4505
-70.5938
-70.6888
-71.0399
-72.2426
-74.0159
-74.8285
-75.4416
-75.5874
-76.3237
-77.0866
-77.7211
-78.338
-78.4525
-78.4855
-78.9676
-78.4206
-75.7042
-74.8557
-49.2495
-49.4513
-49.377
-49.5266
-49.492
-49.5049
-49.6534
-49.6626
-49.633
-49.6426
-49.8697
-49.8695
-49.8791
-49.8221
-49.8315
-50.0757
-50.0609
-50.1029
-50.0156
-50.0457
-50.0168
-50.3182
-50.2685
-50.307
-50.2866
-50.3276
-50.262
-50.3033
-50.7503
-50.5748
-50.5908
-50.533
-50.4656
-50.3679
-50.4143
-50.4793
-51.1003
-51.0104
-50.9166
-50.8748
-50.7833
-50.6262
-50.5678
-50.6603
-50.6539
-51.6721
-51.5371
-51.5265
-51.3672
-51.3109
-51.1528
-51.1236
-51.1066
-50.9835
-51.0901
-53.0568
-52.5472
-52.2657
-52.1344
-51.8779
-51.8872
-51.6574
-51.6873
-51.7493
-51.8015
-51.8216
-54.1572
-53.9932
-53.5783
-53.0537
-52.8128
-52.7207
-52.6254
-52.4623
-52.598
-52.6911
-52.5873
-52.5302
-55.9738
-55.585
-55.1875
-54.699
-54.3003
-53.7529
-53.7528
-53.7003
-53.6909
-53.7362
-53.9616
-53.8695
-54.0696
-58.4936
-57.94
-57.6159
-57.0222
-56.6059
-55.9118
-55.8144
-55.2363
-54.9995
-55.157
-55.2187
-55.3322
-55.4573
-54.5958
-61.1677
-61.3929
-60.4649
-60.3508
-59.4123
-59.0789
-58.5251
-57.8648
-57.8033
-57.0156
-57.6358
-57.1571
-56.9859
-56.9777
-56.3153
-66.2247
-65.2781
-64.8309
-63.9258
-63.6909
-63.134
-62.7876
-62.4102
-61.692
-61.7843
-60.4574
-59.893
-59.814
-59.6943
-58.8724
-58.3246
-68.9065
-68.9889
-68.4087
-67.1525
-66.7021
-66.789
-66.1498
-66.0332
-66.1416
-65.8874
-66.0578
-65.9961
-65.4436
-64.7363
-62.2515
-60.8505
-60.3098
-70.6321
-70.5668
-70.0565
-69.2903
-68.7736
-69.1975
-70.3688
-72.446
-76.0946
-76.3742
-73.9791
-73.5575
-73.0403
-69.7669
-67.9257
-66.987
-64.9711
-62.4714
-71.5923
-71.5099
-71.2395
-70.6681
-70.2798
-70.9112
-71.8748
-73.5963
-76.1838
-80.4632
-81.3965
-80.1579
-81.2855
-80.0475
-78.3241
-83.1935
-73.5192
-69.2043
-67.7125
-71.3251
-71.5776
-71.1609
-70.7987
-70.752
-71.7026
-72.9248
-73.605
-74.2967
-75.5919
-77.965
-78.7457
-79.2627
-79.4918
-79.2851
-77.8435
-79.3224
-74.7157
-73.4114
-72.9569
-70.0715
-70.3631
-70.4153
-70.5348
-70.6008
-70.9298
-72.2305
-74.0617
-74.8495
-75.4634
-75.5899
-76.3227
-77.0648
-77.6885
-78.2999
-78.3944
-78.3588
-78.8102
-78.3109
-75.5992
-74.9257
-49.1569
-49.2289
-49.2521
-49.3739
-49.4828
-49.4057
-49.5284
-49.541
-49.5146
-49.5055
-49.6928
-49.6578
-49.6798
-49.7006
-49.6764
-49.8376
-49.8506
-49.8471
-49.8534
-49.8353
-49.8706
-50.1152
-50.0738
-50.0663
-50.0867
-50.1145
-50.0462
-50.0517
-50.3758
-50.2848
-50.3238
-50.3071
-50.3099
-50.2494
-50.3055
-50.3315
-50.8972
-50.4238
-50.6221
-50.5937
-50.481
-50.4291
-50.4509
-50.4836
-50.506
-51.3574
-51.1336
-51.0514
-50.9313
-50.841
-50.8622
-50.7716
-50.6745
-50.6596
-50.7371
-52.1049
-51.7342
-51.7314
-51.4683
-51.3524
-51.2165
-50.9921
-51.1942
-51.1868
-51.044
-51.2278
-52.9904
-52.6518
-52.5765
-52.3251
-52.0579
-51.9062
-51.7372
-51.7476
-51.7554
-51.7964
-51.8283
-51.7029
-54.4532
-54.0328
-53.905
-53.4024
-53.0972
-52.8809
-52.7127
-52.6355
-52.464
-52.7739
-52.7006
-52.6805
-52.5865
-56.1609
-55.7502
-55.5302
-55.2825
-54.7271
-53.8862
-53.6155
-53.8918
-53.5648
-53.8489
-53.8272
-54.048
-53.7456
-53.8042
-58.6223
-58.3857
-57.7677
-57.4223
-57.1036
-56.1544
-55.8
-55.2234
-55.3721
-55.0516
-55.3314
-55.5259
-55.432
-55.3092
-54.8384
-62.0054
-61.5888
-60.7425
-60.3323
-59.7693
-59.4623
-58.833
-58.392
-57.7943
-58.0464
-57.0172
-57.3887
-57.3839
-57.0326
-56.848
-56.1984
-65.8211
-66.2148
-65.1746
-64.0545
-63.706
-63.3209
-62.7735
-62.6713
-62.0778
-61.9921
-61.1633
-60.298
-59.4644
-59.8888
-59.5651
-58.7572
-58.4026
-68.403
-69.0707
-68.894
-67.6933
-66.6555
-66.398
-66.5382
-65.7141
-66.0941
-65.9489
-65.9735
-65.8503
-65.9592
-65.2508
-65.2911
-61.8625
-60.9518
-60.1975
-70.3098
-70.7349
-70.4961
-69.8034
-68.9046
-68.5979
-69.2878
-70.6547
-73.0436
-76.2354
-75.9464
-74.0205
-73.1202
-72.0729
-68.9436
-68.8928
-66.7165
-65.0056
-62.3748
-71.2454
-71.6149
-71.4723
-71.1321
-70.3571
-70.0845
-70.9002
-72.0098
-73.7877
-76.382
-80.6395
-81.0058
-80.0877
-80.9814
-79.0164
-77.6964
-82.4792
-73.0957
-69.0084
-67.6348
-70.7025
-71.3218
-71.5129
-71.0728
-70.6598
-70.5439
-71.6968
-72.9841
-73.6951
-74.3618
-75.7125
-77.9773
-78.6652
-79.1414
-79.3491
-78.6332
-77.0771
-78.4587
-74.1693
-73.2531
-73.0372
-69.922
-70.0959
-70.3533
-70.3835
-70.4741
-70.5041
-70.8137
-72.2318
-74.084
-74.8726
-75.4849
-75.5944
-76.318
-77.0321
-77.6548
-78.2313
-78.3244
-78.2367
-78.6436
-78.2044
-75.5164
-75.0291
-49.0768
-49.1436
-49.1758
-49.2591
-49.2202
-49.2438
-49.3957
-49.4233
-49.5354
-49.3971
-49.5556
-49.5221
-49.5925
-49.5325
-49.5316
-49.6853
-49.6826
-49.6612
-49.6795
-49.7065
-49.701
-49.8833
-49.919
-49.8887
-49.8368
-49.8209
-49.8533
-49.8892
-50.2093
-50.1321
-50.0685
-50.1024
-50.1249
-50.1137
-50.1106
-50.0361
-50.482
-50.3371
-50.3454
-50.3723
-50.318
-50.3372
-50.2634
-50.3044
-50.3551
-50.975
-50.8196
-50.7324
-50.6402
-50.5618
-50.6109
-50.5297
-50.4787
-50.5053
-50.5711
-51.5207
-51.3157
-51.0805
-51.0406
-50.9539
-50.824
-50.7353
-50.8095
-50.7439
-50.7493
-50.8097
-52.2353
-51.8075
-51.9218
-51.6562
-51.4278
-51.3918
-51.1837
-51.1485
-51.2174
-51.1658
-51.1276
-51.1494
-53.3102
-52.9443
-52.6313
-52.5301
-52.3184
-52.1393
-51.9144
-51.8452
-51.8181
-51.8706
-51.8903
-51.783
-51.694
-54.7844
-54.2862
-54.0676
-53.7636
-53.3459
-53.0438
-52.8379
-52.781
-52.5052
-52.6458
-52.8044
-52.7124
-52.6324
-52.591
-56.3053
-56.047
-55.7028
-55.1372
-55.0285
-54.4229
-54.083
-54.2249
-54.0898
-53.6489
-53.4805
-53.9083
-54.0676
-53.8122
-53.7991
-58.8914
-58.5896
-58.3868
-57.7424
-57.0355
-56.7523
-55.8739
-55.6324
-55.4383
-55.3522
-55.3627
-55.0222
-55.5987
-54.8111
-55.0922
-54.7739
-61.8559
-61.9923
-61.504
-61.0286
-60.0024
-59.7443
-59.1451
-58.6776
-58.3052
-58.249
-57.553
-57.7711
-57.2982
-57.8217
-57.1641
-56.7911
-56.1648
-64.7616
-65.7794
-66.1048
-65.0346
-64.3497
-63.1605
-63.0091
-62.9161
-62.3927
-61.841
-61.5266
-60.6003
-60.0888
-59.5
-59.5407
-59.2957
-58.6939
-58.4212
-67.7032
-68.5483
-69.0966
-68.7167
-67.4209
-66.2939
-65.9968
-66.1429
-65.911
-66.0026
-65.9756
-65.9705
-65.584
-65.5052
-65.1954
-64.8157
-61.6655
-60.8016
-60.1568
-69.6007
-70.3154
-70.7434
-70.4911
-69.4623
-68.4463
-68.5321
-69.3553
-70.754
-73.3659
-76.0351
-75.095
-73.2823
-72.5274
-71.0349
-68.5083
-68.7148
-66.5813
-64.9229
-62.3514
-70.7147
-71.2065
-71.6002
-71.3465
-71.0328
-70.0626
-69.9037
-70.9102
-72.2104
-74.0599
-76.4908
-80.4025
-80.4384
-79.7477
-80.6874
-78.1432
-77.3732
-81.0284
-72.1461
-68.9959
-67.6135
-70.0175
-70.7424
-71.3164
-71.4493
-70.9773
-70.4937
-70.3628
-71.641
-73.0651
-73.7887
-74.4496
-75.869
-78.0088
-78.4783
-78.9264
-79.1451
-78.0044
-76.3848
-77.6693
-73.6512
-73.1569
-73.1441
-75.4785
-69.9019
-69.9379
-70.114
-70.3384
-70.3476
-70.3887
-70.3983
-70.7
-72.2448
-74.0844
-74.8975
-75.5014
-75.5836
-76.3075
-76.9992
-77.6197
-78.161
-78.2468
-78.1277
-78.4822
-78.1039
-75.4527
-75.1555
-48.9815
-49.0696
-49.0761
-49.1616
-49.1669
-49.1783
-49.279
-49.2894
-49.1477
-49.3005
-49.4383
-49.3985
-49.4734
-49.3846
-49.3824
-49.5828
-49.5527
-49.543
-49.5867
-49.5842
-49.5567
-49.7205
-49.7053
-49.7835
-49.6607
-49.6844
-49.7215
-49.7331
-50.0181
-49.9377
-49.922
-49.8626
-49.9396
-49.9014
-49.8736
-49.8977
-50.1512
-50.2465
-50.1227
-50.1552
-50.1241
-50.1297
-50.1164
-50.1376
-50.0757
-50.6028
-50.6088
-50.3895
-50.3891
-50.3549
-50.3705
-50.2431
-50.252
-50.3139
-50.3474
-51.1183
-51.1235
-50.7565
-50.7042
-50.6806
-50.577
-50.6385
-50.581
-50.5314
-50.5443
-50.6057
-51.679
-51.5044
-51.3583
-51.2119
-51.0676
-50.9656
-50.8411
-50.7212
-50.8026
-50.7824
-50.8187
-50.8004
-52.311
-52.2581
-52.0119
-51.9157
-51.5691
-51.5649
-51.3546
-51.3464
-51.2755
-51.1361
-51.1729
-51.205
-51.2029
-53.5379
-53.1596
-53.0529
-52.3622
-52.4564
-52.3659
-52.2491
-51.9661
-51.8739
-51.756
-51.872
-51.9355
-51.8199
-51.8439
-54.9145
-54.5044
-54.2472
-53.9043
-53.3918
-53.3506
-53.139
-52.8852
-52.7844
-52.6263
-52.5807
-52.6405
-52.7158
-52.6585
-52.4854
-56.3193
-56.489
-55.85
-55.5793
-55.1977
-54.808
-54.2343
-54.1428
-54.1906
-53.5992
-53.9271
-53.6866
-53.9659
-54.0363
-53.7599
-53.8302
-59.0225
-58.8185
-58.4282
-58.2714
-57.3094
-57.135
-56.5598
-55.6044
-55.8944
-55.5171
-55.4095
-55.3976
-55.2158
-55.5106
-54.9756
-55.104
-54.6749
-61.3962
-61.5254
-61.6491
-61.2644
-60.7891
-59.8434
-59.5108
-59.2498
-58.5072
-58.3342
-57.8355
-57.5251
-57.3971
-57.5766
-57.8586
-57.0578
-56.7147
-56.1091
-64.1676
-64.7524
-65.7183
-65.4661
-64.7054
-63.5931
-62.8597
-62.9213
-62.7365
-62.0611
-61.6806
-61.0384
-60.598
-59.6769
-59.2808
-58.514
-59.1757
-58.7424
-58.5329
-66.9031
-67.671
-68.5235
-69.1172
-68.3233
-67.0466
-65.9034
-65.9641
-65.974
-65.6172
-65.5577
-66.0399
-65.8152
-65.5496
-65.4744
-65.4006
-63.4786
-61.48
-60.1506
-59.7233
-68.9455
-69.5637
-70.3731
-70.6441
-70.3668
-68.9753
-68.036
-68.3619
-69.4494
-70.8619
-73.6763
-75.5489
-73.9753
-72.5823
-71.7292
-70.4511
-68.8362
-68.3614
-66.3174
-64.8779
-62.6034
-69.6469
-70.7856
-71.2139
-71.5653
-71.2513
-70.8607
-69.7952
-69.7705
-70.9107
-72.4461
-74.3499
-76.645
-79.9918
-79.9471
-79.2404
-80.1986
-77.4741
-77.7782
-79.7451
-71.5702
-69.0908
-67.671
-73.5456
-69.6026
-70.0705
-70.7885
-71.3246
-71.3992
-70.8895
-70.3096
-70.2034
-71.6208
-73.1617
-73.8956
-74.5577
-75.9802
-77.9835
-78.2344
-78.6835
-78.9177
-77.4649
-75.8411
-77.0916
-73.2519
-73.0949
-73.2574
-75.3645
-75.3001
-69.8213
-69.9186
-69.9577
-70.1246
-70.3216
-70.3103
-70.296
-70.3049
-70.5983
-72.2583
-74.09
-74.9255
-75.5162
-75.5778
-76.2914
-76.9636
-77.5825
-78.0861
-78.1499
-78.0285
-78.3328
-78.0026
-75.4059
-48.8616
-48.9779
-49.0206
-49.1672
-49.0897
-49.0641
-49.1857
-49.2109
-49.2165
-49.2108
-49.2857
-49.3253
-49.3114
-49.2767
-49.3382
-49.4808
-49.4148
-49.3088
-49.4928
-49.3711
-49.4237
-49.7143
-49.5239
-49.5589
-49.5524
-49.5749
-49.5748
-49.5812
-49.8004
-49.6656
-49.7492
-49.8076
-49.7029
-49.7351
-49.7513
-49.7298
-50.105
-50.0694
-49.9502
-49.965
-49.9321
-49.9363
-49.8963
-49.9474
-49.9281
-50.411
-50.2988
-50.1143
-50.1492
-50.1594
-50.1637
-50.081
-50.0986
-50.1449
-50.1537
-50.8515
-50.6807
-50.5055
-50.4332
-50.418
-50.3933
-50.3005
-50.3453
-50.2924
-50.3322
-50.3905
-51.3063
-51.1648
-50.8017
-50.7954
-50.7574
-50.6879
-50.6106
-50.4439
-50.5865
-50.578
-50.5777
-50.5978
-51.8572
-51.7105
-51.5845
-51.4647
-51.2108
-51.0671
-50.977
-50.8702
-50.8788
-50.8315
-50.7961
-50.8471
-50.8168
-52.6354
-52.4241
-52.2853
-51.9525
-51.7636
-51.6023
-51.6202
-51.398
-51.3034
-51.2256
-51.231
-51.2871
-51.2522
-51.2772
-53.7512
-53.4029
-53.1261
-52.6718
-53.0726
-52.4799
-52.1874
-51.7983
-51.9193
-51.9143
-51.7772
-52.0094
-51.9291
-51.7528
-51.8517
-55.1171
-54.8056
-54.4464
-54.0933
-53.8198
-53.328
-53.1891
-53.0861
-53.0285
-52.4396
-52.6262
-52.6839
-52.7
-52.7513
-52.691
-52.5156
-56.6951
-56.7193
-56.2853
-55.9301
-55.6292
-55.0476
-54.6617
-54.6377
-54.0487
-53.8015
-53.8183
-53.4371
-53.8859
-53.7223
-54.0068
-53.6531
-53.848
-58.9415
-58.8473
-58.5108
-58.2962
-57.6227
-57.4113
-56.9047
-56.2947
-56.3771
-55.8373
-55.2461
-55.2367
-55.1085
-55.334
-55.3483
-55.0459
-55.0576
-54.5789
-61.2942
-61.2795
-61.3745
-61.3949
-61.0164
-60.3175
-60.3284
-59.659
-58.7905
-58.3564
-58.1608
-57.6822
-57.7221
-57.2473
-57.6907
-57.5216
-56.9753
-56.561
-56.2524
-63.9929
-64.0946
-64.8758
-65.4855
-64.8959
-63.8045
-63.1673
-62.7679
-62.8812
-62.1579
-61.8071
-61.1043
-60.4294
-60.4394
-59.2639
-59.2986
-58.6714
-59.0015
-58.6132
-58.3303
-66.1763
-66.8662
-67.7375
-68.5568
-68.977
-67.993
-66.3562
-65.76
-65.7843
-65.6866
-65.5618
-65.7372
-65.696
-65.6508
-65.6829
-65.3038
-64.7067
-63.3221
-61.3679
-60.3508
-59.702
-68.1243
-68.97
-69.6246
-70.3653
-70.5815
-70.0506
-68.5989
-67.8753
-68.3407
-69.5124
-71.0162
-73.9564
-75.1765
-73.1923
-71.9056
-71.2803
-69.3944
-68.3938
-68.3535
-65.9794
-64.5058
-62.7807
-67.9072
-69.0494
-69.6307
-70.8203
-71.2139
-71.4922
-71.1937
-70.6349
-69.5408
-69.7046
-70.9807
-72.7021
-74.6039
-76.8032
-79.6406
-79.3646
-78.9158
-79.6276
-76.6228
-77.928
-78.4573
-71.4083
-69.2248
-67.7733
-73.2987
-73.3877
-69.3477
-69.6137
-70.1348
-70.7867
-71.3389
-71.3489
-70.8023
-70.1314
-70.0397
-71.6459
-73.2922
-74
-74.6161
-76.0439
-77.8747
-77.9956
-78.5572
-78.6672
-77.0546
-75.4487
-76.5591
-72.9285
-73.0887
-77.7564
-75.3757
-69.6401
-69.8181
-69.9388
-69.9835
-70.135
-70.3007
-70.2753
-70.2108
-70.2066
-70.5148
-72.2729
-74.126
-74.955
-75.5276
-75.5727
-76.2711
-76.9198
-77.5437
-78.0084
-78.0524
-77.9383
-78.1987
-77.9112
-48.8431
-48.8797
-48.9759
-49.005
-49.049
-49.0702
-49.077
-49.153
-49.0453
-49.2069
-49.2069
-49.2548
-49.196
-49.224
-49.3084
-49.2648
-49.3667
-49.3678
-49.3471
-49.3668
-49.5514
-49.4955
-49.4711
-49.4395
-49.4785
-49.4062
-49.4275
-49.6677
-49.6116
-49.6272
-49.6406
-49.5294
-49.5562
-49.5724
-49.5772
-49.893
-49.8082
-49.7862
-49.7534
-49.7404
-49.752
-49.7577
-49.7656
-49.7791
-50.1923
-50.1034
-50.036
-49.9633
-50.0172
-49.9391
-49.9055
-49.8652
-49.9609
-49.9449
-50.5405
-50.3965
-50.3514
-50.2182
-50.2018
-50.1263
-50.0997
-50.1853
-50.2134
-50.1604
-50.1973
-50.9128
-50.7871
-50.6455
-50.5776
-50.4852
-50.45
-50.3771
-50.4374
-50.3914
-50.3784
-50.3867
-50.4264
-51.4971
-51.3336
-51.1546
-50.9458
-50.8485
-50.6574
-50.6686
-50.589
-50.6564
-50.6179
-50.6212
-50.6206
-50.6481
-52.2186
-51.9331
-51.5888
-51.536
-51.3188
-51.1956
-51.0683
-51.0057
-50.9459
-50.871
-50.8948
-50.7947
-50.8642
-50.8673
-52.9177
-52.6876
-52.4401
-52.2716
-52.0295
-51.7663
-51.63
-51.5489
-51.438
-51.31
-51.2811
-51.2674
-51.2994
-51.2673
-51.3364
-54.1734
-53.6
-53.4711
-53.1482
-53.0709
-52.5978
-52.4979
-52.2119
-52.029
-51.9107
-51.8105
-51.9828
-51.9473
-51.9984
-51.796
-51.9221
-55.2135
-55.0926
-54.6652
-54.3803
-54.0736
-53.6762
-53.2129
-53.4339
-52.8459
-52.9097
-52.6339
-52.6414
-52.6661
-52.7293
-52.7489
-52.6081
-52.7087
-56.8664
-56.7086
-56.5035
-56.1374
-55.6116
-55.5953
-55.1271
-54.6899
-54.6688
-54.1249
-53.8078
-53.7096
-53.8554
-53.7743
-53.8832
-53.8104
-53.7501
-53.4693
-58.9608
-58.6649
-58.6142
-58.3609
-58.4361
-57.3644
-57.2654
-56.8602
-56.2462
-56.3014
-55.6267
-55.2981
-55.3738
-55.2004
-55.4037
-55.2079
-55.0916
-54.8407
-54.7804
-61.3458
-61.3723
-61.2816
-61.3207
-61.1668
-60.8862
-59.9893
-59.7982
-59.258
-58.5675
-58.4278
-57.7666
-57.6332
-57.5249
-57.6527
-57.6181
-57.4764
-56.8277
-56.4478
-56.1792
-63.6275
-64.0362
-64.1711
-64.9269
-65.0158
-64.8028
-63.6105
-62.7854
-62.5141
-62.335
-62.0629
-61.5278
-60.6399
-60.362
-60.2505
-59.4954
-58.9875
-58.8942
-58.7995
-58.4789
-58.1733
-65.7819
-66.1742
-66.8815
-67.6838
-68.471
-68.3742
-67.5113
-65.763
-65.6255
-65.4994
-65.3406
-65.7169
-65.7682
-65.3787
-65.396
-65.642
-64.6463
-64.0172
-62.8358
-61.5537
-60.3787
-59.9118
-63.3765
-67.7122
-67.9206
-68.8971
-69.6239
-70.3165
-70.4162
-69.6929
-68.1894
-67.6599
-68.4385
-69.6484
-71.3176
-74.1126
-74.4699
-72.4877
-71.4829
-70.4557
-68.6373
-67.7469
-68.0031
-65.6725
-64.6021
-62.9288
-69.8767
-67.8387
-68.707
-68.9971
-69.6504
-70.8344
-71.1884
-71.4047
-71.1074
-70.3183
-69.1957
-69.6442
-71.1165
-72.9856
-74.8424
-76.8106
-79.2201
-78.7866
-78.5977
-79.0397
-76.1377
-77.918
-76.8351
-71.3491
-69.3755
-72.4072
-73.1557
-68.9833
-69.3317
-69.6304
-70.2015
-70.7663
-71.3335
-71.2895
-70.6908
-69.9615
-69.9267
-71.679
-73.4253
-74.1128
-74.6397
-76.0976
-77.7609
-77.7629
-78.3008
-78.3808
-76.7754
-75.349
-76.0741
-72.6516
-77.7757
-77.8402
-69.6488
-69.6275
-69.8211
-69.9596
-70.0139
-70.1434
-70.2771
-70.2399
-70.1244
-70.0946
-70.4527
-72.297
-74.1703
-74.9833
-75.5397
-75.5604
-76.2429
-76.874
-77.5043
-77.9318
-77.9766
-77.8624
-78.0599
-48.8468
-48.8662
-48.8728
-49.0325
-49.0517
-48.9945
-49.1208
-49.0482
-49.1225
-49.0695
-49.0786
-49.0371
-49.3037
-49.234