/*--------------------------------*- C++ -*----------------------------------*\
  =========                 |
  \\      /  F ield         | OpenFOAM: The Open Source CFD Toolbox
   \\    /   O peration     | Website:  https://openfoam.org
    \\  /    A nd           | Version:  7
     \\/     M anipulation  |
\*---------------------------------------------------------------------------*/
FoamFile
{
    version     2.0;
    format      ascii;
    class       surfaceScalarField;
    location    "5.5";
    object      phi;
}
// * * * * * * * * * * * * * * * * * * * * * * * * * * * * * * * * * * * * * //

dimensions      [0 3 -1 0 0 0 0];

internalField   nonuniform List<scalar> 
54125
(
0.000141368
1.1255e-05
0.00103501
0.000353199
6.15949e-05
-0.00235982
0.000101077
-2.52262e-05
0.000518934
0.000157163
1.4265e-05
0.00086358
-0.000805999
0.000507714
-0.00822671
0.000717281
6.3449e-06
-0.000627153
0.000496389
-4.04039e-05
-0.00265864
0.000136536
-2.8792e-05
-0.00087152
9.16596e-05
-1.99608e-05
0.000461501
0.000152423
1.75872e-05
0.00069357
-0.00137552
0.000626021
-0.00912158
0.000686757
0.00057831
-0.00603916
-0.000653028
0.000577421
-0.00765471
8.69366e-05
6.06374e-06
0.000557689
0.000671812
-9.87422e-05
-0.00114897
0.000597734
-0.000117407
-0.00298655
-2.6397e-06
-2.07186e-05
-2.01582e-06
0.0001525
-2.58454e-05
-0.00101814
8.36659e-05
-1.29545e-05
0.000408376
0.000143686
2.26752e-05
0.000527209
-0.00154462
0.000643489
-0.00805746
0.000748741
0.000913625
-0.00899729
-0.00140019
0.000513604
-0.00888802
0.00058601
0.000192595
-0.00335112
0.000818301
0.000564418
-0.00617265
-0.000370119
0.000587243
-0.0072741
-4.27925e-05
7.24795e-05
0.000604675
0.000232679
-4.33256e-05
0.000422093
0.000592708
-0.000201088
-0.00157433
0.000668867
-0.000207648
-0.00330408
-1.87605e-05
-2.53935e-05
0.000285506
-2.63851e-06
-2.29424e-05
-2.2803e-06
0.000158635
-2.18618e-05
-0.00116786
7.66028e-05
-5.36177e-06
0.000359811
0.000130469
2.82686e-05
0.000368471
-0.00139162
-0.00010315
-0.00619711
0.000312648
0.00133115
-0.00955876
-0.00153933
0.000643453
-0.00856178
0.00116501
0.000726499
-0.00738975
0.000728108
0.000700552
-0.00909404
-0.00120155
0.000471853
-0.00852843
0.000360077
-0.00035511
-0.00186031
0.000834186
0.000161637
-0.00354984
0.000829192
0.000505471
-0.00632736
-9.38786e-05
0.000521451
-0.00703281
-0.000163702
-5.6584e-05
0.00239573
-5.42913e-05
5.4498e-05
0.000558505
0.000318156
-9.40859e-05
0.000155569
0.000596096
-0.000303737
-0.00199773
0.000781778
-0.000235277
-0.00372011
-1.16286e-05
-2.73741e-05
-5.69803e-05
-7.13673e-06
-2.61696e-05
0.00029587
-2.63556e-06
-2.55483e-05
4.04166e-06
0.000149924
-1.79946e-05
-0.00130516
7.76506e-05
5.75108e-06
0.000304677
0.000127499
3.43715e-05
0.000206601
-0.00140537
-4.8076e-05
-0.00507704
-0.000736844
0.000499291
-0.00837794
-0.00146239
-0.000142562
-0.00613149
0.000784456
0.00140129
-0.00839852
0.000108776
0.00129145
-0.00958742
-0.0013875
0.000595425
-0.00897126
0.000841399
0.000812226
-0.00655594
0.00130715
0.000662601
-0.00782476
0.00082317
0.000648627
-0.0092648
-0.00109815
0.000456876
-0.00798104
0.000140094
-0.000387606
-0.00407267
0.000322073
-0.000212968
-0.00186207
0.000986136
0.000383305
-0.00409566
0.00100924
0.000424412
-0.00664347
0.000365246
0.000457449
-0.00707372
-0.000158065
-0.000154982
0.00186519
-0.000165515
-7.12001e-05
0.0026798
-3.35946e-05
3.70675e-05
0.00045831
0.000342472
-0.000140818
-0.000199898
0.00062482
-0.000365938
-0.00241424
0.000779192
-0.000184789
-0.00418702
3.67259e-05
-5.81948e-05
-0.000368666
-2.74607e-06
-2.99335e-05
-5.04703e-05
4.15232e-06
-2.71068e-05
0.000293276
-1.35151e-06
-2.82468e-05
1.56453e-05
0.000135031
-1.03805e-05
-0.00142405
9.68424e-05
1.46777e-05
0.000227529
0.000132503
4.06024e-05
3.34955e-05
-0.00158173
0.000109593
-0.00478239
-0.000994426
7.19472e-05
-0.00595643
-0.00147341
-4.59143e-06
-0.00506142
0.000119907
0.00105
-0.0081253
-0.00085903
0.000476875
-0.00802958
-0.00143792
-0.000126873
-0.00595419
0.000880655
0.00115798
-0.00756224
0.0010425
0.00137666
-0.00821908
9.77262e-05
0.00126485
-0.0095314
-0.00137349
0.000413047
-0.00910896
0.000623986
0.000602995
-0.00624594
0.000901673
0.000852435
-0.00732537
0.0012363
0.000673519
-0.00809982
0.00127717
0.00088087
-0.00995672
-0.000731271
0.000479108
-0.00736363
-0.000150913
-0.00011396
-0.00357805
0.000207431
-0.000368089
-0.00429049
0.000338482
0.000220407
-0.00207125
0.000954095
0.000472512
-0.00475538
0.00106727
0.00040466
-0.00703313
0.00057273
0.000439261
-0.00730652
-0.000203478
-0.000112322
0.000761129
-0.000154588
-0.000158402
0.00210423
-0.000128185
-8.58858e-05
0.00293509
4.92978e-05
1.8946e-05
0.000247897
0.000355569
-0.000186707
-0.000599667
0.000606645
-0.000391096
-0.00271774
0.000766233
-0.000140999
-0.00467975
2.13373e-05
-6.76989e-05
-0.000254464
4.13116e-05
-6.22862e-05
-0.000377625
6.87701e-06
-3.27366e-05
-5.17175e-05
2.10108e-05
-2.80919e-05
0.00027211
-3.62964e-06
-3.0869e-05
3.97634e-05
0.000127676
-5.40686e-06
-0.00153165
0.000116778
2.06844e-05
0.000130668
0.000125031
4.64946e-05
-0.00013803
-0.00159482
2.34852e-05
-0.00406545
-0.00112713
4.8288e-05
-0.00524384
-0.0015706
2.04442e-05
-0.00470565
-0.000457814
0.000520273
-0.00697666
-0.00119721
0.000125708
-0.00574855
-0.00149304
2.96359e-06
-0.00500927
0.000610865
0.00107361
-0.00802353
0.000190148
0.00114611
-0.00794218
-0.000954185
0.000524537
-0.00762907
-0.00147595
2.44289e-05
-0.00587616
0.000575504
0.000846917
-0.00741389
0.00101556
0.00128757
-0.00758703
0.00103654
0.00130945
-0.00806392
0.000525064
0.0010116
-0.00937785
-0.00122324
0.000408227
-0.00902522
0.000127435
0.000581662
-0.00549397
0.000757262
0.000674458
-0.0066178
0.000864431
0.000896218
-0.00807402
0.00116211
0.000847104
-0.00827407
0.000798366
0.000956197
-0.0101649
-0.000354999
0.000441704
-0.00687761
-4.33837e-05
6.15754e-05
-0.00264081
-1.20971e-05
-0.000293318
-0.00379531
0.000193011
-0.000256791
-0.00413449
0.000650429
0.000441475
-0.00264135
0.000978845
0.000530206
-0.0055042
0.000854387
0.000478514
-0.00732012
0.000657357
0.00037369
-0.00757134
-0.000198557
-7.60363e-05
5.31621e-05
-0.000212539
-0.000101538
0.000958115
-0.000149529
-0.000163445
0.0023382
-8.49099e-05
-9.36277e-05
0.00315359
5.47353e-05
-8.61506e-06
1.14406e-05
0.000391035
-0.000240209
-0.00101391
0.000625845
-0.00039783
-0.00296997
0.000721578
-0.000121319
-0.00515498
-1.66945e-05
-6.60644e-05
-0.000590902
2.48924e-05
-6.88434e-05
-0.000272799
4.65044e-05
-6.68441e-05
-0.000390022
1.85963e-05
-3.57373e-05
-6.26683e-05
3.39603e-05
-2.906e-05
0.000236341
-1.70415e-05
-3.35453e-05
8.49433e-05
0.000136178
-3.77806e-06
-0.00164336
0.000122053
2.44807e-05
3.0629e-05
0.000106737
5.16987e-05
-0.000296465
-0.00131088
-0.000170311
-0.0041922
-0.00101342
-2.16228e-05
-0.00502649
-0.00157466
4.34685e-05
-0.00410486
-0.000731765
9.6128e-05
-0.00582818
-0.0013086
9.704e-05
-0.00520905
-0.00157747
2.08379e-05
-0.00464205
0.000246905
0.000801831
-0.00738449
-0.000216617
0.000593122
-0.00703731
-0.00131248
0.000157929
-0.00554522
-0.00150055
1.37376e-05
-0.00499841
0.000364868
0.00109737
-0.00820441
0.000572521
0.00116881
-0.0076032
0.000170227
0.00123934
-0.00779067
-0.00104753
0.000533354
-0.00656541
-0.00147215
0.000113628
-0.00574087
0.00022628
0.000826244
-0.00744567
0.000612971
0.00102432
-0.00700635
0.00113006
0.00126866
-0.00781187
0.00116243
0.00119818
-0.00825082
0.000138958
0.000784383
-0.0090946
-0.0011048
0.000413076
-0.0086885
0.000280968
0.000674065
-0.00526404
0.000446486
0.00070964
-0.00598774
0.000740724
0.000704869
-0.00697416
0.00105013
0.000883853
-0.00851047
0.00121361
0.000994585
-0.00854722
0.00060439
0.000712202
-0.0101854
-0.000138932
0.000427669
-0.00650899
-0.000103154
0.000114226
-0.00220943
-9.72417e-05
-0.000187584
-0.00286185
9.85707e-06
-0.000362578
-0.00384891
0.000109201
-0.000139161
-0.00374797
0.000743508
0.000601742
-0.00340166
0.00101503
0.000426325
-0.00607601
0.000741062
0.00044167
-0.00750332
0.000643825
0.000319758
-0.00781334
-0.000164862
-0.000107146
-0.000626829
-0.000195407
-5.76966e-05
0.00022962
-0.000198752
-8.44229e-05
0.00112435
-0.000126893
-0.000168889
0.00255895
-3.608e-05
-0.000115449
0.00333046
0.000109122
-1.63783e-05
-0.000338554
0.000518281
-0.000293412
-0.00150043
0.000608627
-0.000395763
-0.0031821
0.000670833
-8.08107e-05
-0.00563826
1.55684e-05
-7.84786e-05
-0.00064626
-1.82364e-05
-6.3662e-05
-0.000577847
2.85409e-05
-7.0475e-05
-0.000297709
5.20369e-05
-7.18175e-05
-0.000405978
2.94199e-05
-3.89409e-05
-8.22074e-05
4.9179e-05
-3.00019e-05
0.000183619
-4.71212e-05
-3.64569e-05
0.000164743
0.000155119
-4.443e-06
-0.00176956
0.000121463
2.60625e-05
-6.5198e-05
9.27164e-05
5.6033e-05
-0.000445215
-0.00126249
-7.4059e-05
-0.00379574
-0.00131518
2.33929e-05
-0.00446675
-0.00140909
-0.00014481
-0.00421296
-0.000820216
4.98559e-05
-0.00514292
-0.00127762
2.05551e-06
-0.00501606
-0.00164587
4.64492e-05
-0.00408291
-3.89525e-05
0.000418199
-0.00625811
-0.000524082
0.000226098
-0.00564977
-0.00130557
7.27623e-06
-0.0052024
-0.00154698
1.57908e-05
-0.00461142
0.00021002
0.000936043
-0.0075343
0.000192875
0.00084621
-0.00725793
-0.000511798
0.000686988
-0.00688435
-0.00119649
0.00023455
-0.00561707
-0.0014943
-0.000151201
-0.00482506
0.000340632
0.00105329
-0.00812185
0.000451777
0.00109559
-0.00796999
0.000740931
0.00131851
-0.00729324
0.000209459
0.00121408
-0.00751841
-0.000393912
0.000563006
-0.00648192
-0.00148536
0.000218376
-0.00557869
0.000255774
0.000833601
-0.0069624
0.000500473
0.000874226
-0.00734956
0.000702617
0.00107047
-0.00677005
0.00118446
0.00132504
-0.00807306
0.00120311
0.0009653
-0.00842124
8.38749e-05
0.000758768
-0.00891978
-0.00108652
0.000545009
-0.00828593
0.00027134
0.000681395
-0.00593467
0.000286094
0.000771833
-0.00570957
0.000528003
0.000620282
-0.00642129
0.000573205
0.000832256
-0.00738657
0.00114688
0.000892219
-0.00881148
0.000997454
0.000915054
-0.0087325
0.000136137
0.000661539
-0.00981435
3.51447e-05
0.00047201
-0.00637232
-0.000208445
5.08115e-05
-0.00160415
-0.000189172
-2.52403e-05
-0.00237801
-6.27931e-05
-0.00029432
-0.00306606
1.1107e-05
-0.000407184
-0.00371889
0.000243849
1.10319e-06
-0.00342726
0.00089393
0.000567223
-0.00432736
0.00108152
0.0003296
-0.00652718
0.000682023
0.000443008
-0.00769997
0.000643027
0.000315536
-0.00810107
-0.000160844
-0.000114985
-0.00122008
-0.000165155
-9.99601e-05
-0.000437647
-0.000142661
-3.34876e-05
0.000349886
-0.000118682
-7.43101e-05
0.00120049
-6.96421e-05
-0.000177959
0.00272052
4.51237e-05
-0.000114526
0.00343266
8.07522e-05
-4.15193e-05
-0.00071832
0.00064024
-0.000330002
-0.00205132
0.000582273
-0.000373557
-0.00335016
0.000605902
-6.81493e-05
-0.0060833
5.55992e-05
-8.31804e-05
-0.000742937
1.37582e-05
-7.3984e-05
-0.000649696
-1.68121e-05
-6.15673e-05
-0.000569942
3.46212e-05
-7.23764e-05
-0.000331771
5.83618e-05
-7.71836e-05
-0.000426097
4.22905e-05
-4.23156e-05
-0.000112184
6.02012e-05
-3.08753e-05
0.000117836
-8.38831e-05
-3.94616e-05
0.000283645
0.000163244
-7.32416e-06
-0.00189941
0.000114678
2.56394e-05
-0.000149482
8.01225e-05
5.92713e-05
-0.000584608
-0.0013013
9.88583e-05
-0.00335913
-0.00141381
6.23106e-05
-0.00408837
-0.00125749
-0.000136028
-0.00381131
-0.000869746
0.000127602
-0.00454821
-0.00146645
6.91419e-05
-0.00449188
-0.00148623
-0.000121319
-0.00425128
-0.000374808
0.000316965
-0.00548328
-0.000720826
8.013e-05
-0.00502425
-0.001302
2.40542e-06
-0.00497559
-0.00158218
2.67301e-05
-0.00407443
-7.29236e-05
0.000595553
-0.00634489
-0.000139562
0.000402963
-0.00610254
-0.000786381
0.000106017
-0.00547393
-0.00107024
3.45644e-05
-0.00534742
-0.00161333
2.05798e-05
-0.00451297
0.000353878
0.00101012
-0.00755687
0.000196378
0.000965837
-0.00739853
0.000374345
0.000960922
-0.00716528
-0.000576556
0.000723678
-0.00658746
-0.00077998
3.00941e-05
-0.00541229
-0.00149157
6.04434e-05
-0.00487929
0.00047741
0.000983879
-0.00755035
0.000484932
0.00100641
-0.00801713
0.000443013
0.001189
-0.00758089
0.000825358
0.00155873
-0.00727879
0.000184091
0.00112842
-0.00706481
-0.000923727
0.000626814
-0.00588275
-0.00145359
0.00025604
-0.00546765
0.000522558
0.000584606
-0.00713098
0.000382402
0.000944926
-0.00712941
0.000580521
0.000873709
-0.00720532
0.000962638
0.00120706
-0.00704151
0.00116727
0.00115495
-0.0082831
0.00070986
0.00112094
-0.00849581
-0.000439151
0.000729686
-0.00852916
-0.000982211
0.000582686
-0.00785126
0.000167466
0.000317041
-0.00609166
0.000163953
0.000838495
-0.00635446
0.000387024
0.000669224
-0.00620833
0.000452994
0.000331338
-0.00636226
0.000626249
0.00088246
-0.00775921
0.00100967
0.00086272
-0.00887488
0.00106042
0.000933986
-0.00898384
-4.19778e-05
0.00078708
-0.00940541
6.59357e-05
0.000454088
-0.00624931
-0.000300421
-3.15951e-05
-0.00232032
-0.000276764
6.46101e-05
-0.00158239
-7.68907e-06
-0.000155712
-0.00265159
0.000204947
-0.000412014
-0.00338486
5.20291e-05
-0.000355231
-0.00348422
0.000523422
0.000176831
-0.00351516
0.000921785
0.000498102
-0.0053369
0.00106165
0.000496688
-0.00700227
0.000589085
0.000504061
-0.0078953
0.000804591
0.000327108
-0.00862687
-0.000119425
-8.18817e-05
-0.00200107
-0.000156218
-0.000111663
-0.0010384
-0.000164314
-9.23928e-05
-0.00023124
-8.98229e-05
-1.47569e-05
0.000414777
-9.61438e-05
-7.20179e-05
0.00124905
-2.27335e-05
-0.000179494
0.00285051
7.7732e-05
-0.0001295
0.00350311
-4.45639e-05
-7.43433e-05
-0.0010133
0.000708287
-0.000364056
-0.00260586
0.000538927
-0.000328456
-0.00351411
0.00051479
-4.76988e-05
-0.00647027
1.37642e-05
-7.93783e-05
-0.000547637
5.14657e-05
-7.88808e-05
-0.000789506
1.04267e-05
-6.96818e-05
-0.000652009
-1.38247e-05
-5.98426e-05
-0.000568652
4.2193e-05
-7.48813e-05
-0.000376266
6.0873e-05
-8.28281e-05
-0.000446458
5.23525e-05
-4.57996e-05
-0.000149612
7.04103e-05
-3.17165e-05
3.96807e-05
-0.000108961
-4.25574e-05
0.000427839
0.000158715
-1.19594e-05
-0.00202053
0.000109936
2.48661e-05
-0.000225013
7.09124e-05
6.15124e-05
-0.000717033
-0.00142506
0.00010878
-0.00265439
-0.00127657
5.81144e-05
-0.00379847
-0.00124567
7.55501e-05
-0.0034465
-0.000903025
0.000163654
-0.0045614
-0.00146696
1.60765e-06
-0.00422549
-0.0012654
-0.000208365
-0.00382378
-0.000629377
0.000284482
-0.00475753
-0.000588342
0.000129146
-0.00474069
-0.00138117
6.15153e-05
-0.00459553
-0.00150809
-8.3287e-05
-0.00424209
-0.00033703
0.000567843
-0.00568621
-0.000470798
0.000312151
-0.00538407
-0.000835568
5.13639e-05
-0.00502402
-0.00111934
-2.82035e-06
-0.00489694
-0.00166709
4.08604e-06
-0.00402476
0.00011725
0.00078526
-0.00661822
-0.000122679
0.000591377
-0.00621425
-0.000319179
0.000448972
-0.00575197
-0.000744638
0.000156726
-0.00542801
-0.00120072
7.80293e-05
-0.00498413
-0.00163712
-1.4368e-06
-0.00436598
0.00040599
0.00107601
-0.00741865
0.000410619
0.00102949
-0.00754621
0.000523935
0.000976528
-0.00749505
0.000461071
0.000968394
-0.00704571
-0.000539109
0.000654221
-0.00648839
-0.00117769
0.000205854
-0.00530374
-0.001496
-1.8666e-05
-0.00481821
0.00050842
0.000963273
-0.00726552
0.000579806
0.000987667
-0.00772902
0.000573727
0.00106307
-0.00788441
0.000688518
0.00140668
-0.00715472
0.000644728
0.00134892
-0.00697675
-2.644e-05
0.00114754
-0.00684923
-0.000843424
0.000595658
-0.0058181
-0.00139197
0.000283533
-0.00534143
0.000475285
0.000632869
-0.00679615
0.00050991
0.000758795
-0.00729081
0.000522604
0.000877307
-0.00726858
0.000549775
0.000923629
-0.00701866
0.00083167
0.00122642
-0.00731839
0.00110246
0.00110878
-0.00836373
0.000848587
0.00106141
-0.00861571
-0.000687356
0.000791781
-0.00809288
-0.00098234
0.000437169
-0.00724015
-6.50893e-05
0.000140851
-0.00556837
0.000148907
0.000528936
-0.00620777
0.000242115
0.000711906
-0.00664695
0.000538388
0.000219786
-0.00643021
0.000453404
0.000671878
-0.00655306
0.000820776
0.000833763
-0.0080276
0.000869026
0.000950781
-0.00883892
0.00084545
0.00099392
-0.00897448
-0.00011702
0.000843345
-0.00908857
0.000613346
0.000393123
-0.00645119
-0.000185658
-8.81409e-05
-0.0024407
-0.000291991
8.04325e-06
-0.00212799
-0.000155976
1.75905e-05
-0.00176404
0.000256629
-0.000346692
-0.00306336
0.000137176
-0.00040866
-0.00356475
0.000104523
-0.000230311
-0.00320434
0.00057235
0.000277655
-0.00378933
0.000835
0.000614539
-0.00633431
0.000930073
0.00059985
-0.00731985
0.000535874
0.000567026
-0.00813217
0.000692082
0.000260762
-0.00906492
1.12849e-07
-9.04501e-05
-0.00208466
-0.000130572
-7.89889e-05
-0.00185171
-0.000164207
-0.00010692
-0.000849244
-0.000158253
-8.71018e-05
-1.44666e-05
-9.32089e-05
-1.6905e-06
0.000479852
-8.17918e-05
-6.85726e-05
0.0012808
-1.44143e-06
-0.000184066
0.00295887
8.64951e-05
-0.000143846
0.00355653
-0.000126194
-0.000111219
-0.0012489
0.000706232
-0.000382156
-0.00309968
0.00051367
-0.000246563
-0.00371898
0.000495509
-4.0356e-05
-0.00685451
1.75635e-05
-6.84467e-05
-0.000862096
1.61443e-05
-7.73702e-05
-0.000565292
4.79976e-05
-7.40508e-05
-0.000833135
1.32661e-05
-6.58334e-05
-0.000659284
-7.39512e-06
-5.89391e-05
-0.000577199
5.07038e-05
-7.78374e-05
-0.000431961
6.68461e-05
-8.85843e-05
-0.000470519
6.2899e-05
-4.93392e-05
-0.000194889
8.15226e-05
-3.26212e-05
-5.17781e-05
-0.000106869
-4.59497e-05
0.000568699
0.00015252
-1.63067e-05
-0.00213188
9.83275e-05
2.00546e-05
-0.000281883
4.48712e-05
6.26407e-05
-0.000824545
-0.00160282
0.000177429
-0.00233543
-0.00140447
0.000161834
-0.00303217
-0.00139519
0.00012621
-0.00263107
-0.00102083
5.35642e-05
-0.00405867
-0.001421
-1.71158e-05
-0.00375177
-0.00134854
3.03106e-05
-0.00339367
-0.000900842
0.000345218
-0.00447559
-0.000752731
8.21222e-05
-0.00447752
-0.00148547
4.44166e-05
-0.00437398
-0.00139893
-0.000226094
-0.00370685
-0.000540743
0.000516508
-0.00511689
-0.000559954
0.00022694
-0.00476617
-0.000880944
9.16828e-05
-0.00472549
-0.00106964
-3.60272e-05
-0.0046925
-0.0015682
-8.55004e-05
-0.00425548
6.38516e-06
0.00069825
-0.00590035
-0.000266307
0.000515374
-0.0057458
-0.000714289
0.000320668
-0.00525826
-0.00083169
7.53108e-07
-0.00494054
-0.000998433
-4.34912e-06
-0.00509079
-0.00161751
-5.61175e-05
-0.00398825
0.000243576
0.00104127
-0.00670948
0.000247037
0.00073995
-0.00660321
0.000240822
0.000654308
-0.00613647
0.000195339
0.000427635
-0.00575715
-0.00064396
0.000141186
-0.00538632
-0.000993846
2.57893e-05
-0.00519521
-0.00164828
0.000113481
-0.00432718
0.000333743
0.00122814
-0.00724926
0.000387991
0.00107942
-0.00727677
0.000269321
0.00101243
-0.00727771
0.000386685
0.0010391
-0.00726393
0.000191368
0.000908874
-0.006847
-0.000528522
0.000673138
-0.00645359
-0.00101135
0.000107535
-0.00526201
-0.0013988
3.1798e-05
-0.00484319
0.000395263
0.00106394
-0.00745708
0.000584663
0.000987735
-0.00734034
0.000595538
0.00101519
-0.00775407
0.000615509
0.00117607
-0.00771954
0.00057987
0.00137806
-0.00693206
0.000678294
0.00124095
-0.006646
0.000171161
0.00103478
-0.00661093
-0.000927056
0.000491949
-0.00578681
-0.00126651
0.000314976
-0.00537223
0.000188507
0.000836069
-0.00610793
0.000658652
0.000520603
-0.0070677
0.000425308
0.000813459
-0.00741015
0.000469213
0.000843483
-0.00711926
0.000538869
0.00100642
-0.00688413
0.000990747
0.00125361
-0.0076332
0.00133727
0.00096451
-0.00873508
0.000980094
0.00108197
-0.00904054
-0.000688698
0.000755093
-0.00783913
-0.000595872
0.00056769
-0.00659862
7.9259e-05
0.000191666
-0.00462384
7.32177e-05
0.000161207
-0.00556585
0.000282082
0.00055628
-0.00649021
0.000484061
0.000501281
-0.00715587
0.000430096
0.00047723
-0.00652849
0.0005175
0.000865865
-0.00699814
0.000943338
0.000737679
-0.00818549
0.000828939
0.000984298
-0.00882324
0.000813249
0.000962732
-0.00897704
5.79219e-05
0.000829948
-0.00904744
0.000439416
0.000379628
-0.00657815
0.000107876
-9.621e-05
-0.00247766
-0.000256917
-6.25402e-05
-0.00224377
-0.000233958
3.07425e-05
-0.00207139
-0.000158446
-0.000128694
-0.00198184
0.000267131
-0.000414081
-0.00341828
7.90032e-05
-0.000326539
-0.00362932
0.000272243
-0.000109785
-0.00309058
0.000545109
0.000343194
-0.0039766
0.00075999
0.000581863
-0.00720251
0.000839122
0.000603299
-0.00748901
0.000444012
0.000574259
-0.00837601
0.000567589
0.000300603
-0.0094376
0.000134972
-0.000129031
-0.00179428
-1.89392e-05
-8.47552e-05
-0.00204381
-0.000129918
-7.67638e-05
-0.00170395
-0.000158078
-0.000105483
-0.000659519
-0.000126896
-8.19766e-05
0.000185321
-8.09737e-05
7.35124e-06
0.000535606
-5.64083e-05
-6.74749e-05
0.00128746
2.50348e-05
-0.000186421
0.00303931
0.000140901
-0.000146524
0.00353246
-0.000143454
-0.000174797
-0.00141968
0.000681475
-0.000398803
-0.00347639
0.00048717
-0.000211888
-0.00393629
0.000424573
-2.69605e-05
-0.00720725
7.74867e-05
-7.94925e-05
-0.00134866
1.41804e-05
-6.63599e-05
-0.000887286
1.93143e-05
-7.39095e-05
-0.000584747
4.42812e-05
-6.89356e-05
-0.000874314
2.08762e-05
-6.26909e-05
-0.000676408
-3.71933e-06
-5.8719e-05
-0.000592598
5.94559e-05
-8.10306e-05
-0.00049897
7.23826e-05
-9.42535e-05
-0.000497988
7.20236e-05
-5.28917e-05
-0.000246642
8.87876e-05
-3.36512e-05
-0.000152864
-6.55537e-05
-4.94123e-05
0.000667358
0.000139451
-2.38967e-05
-0.00222738
8.90562e-05
1.58004e-05
-0.000324099
2.9395e-05
6.29687e-05
-0.000916909
-0.00173355
8.71649e-05
-0.00224794
-0.00155335
0.000232348
-0.00277822
-0.00157361
0.000183065
-0.00234007
-0.00110685
0.000244316
-0.00353506
-0.00155707
0.000116232
-0.00288612
-0.0013993
4.84161e-06
-0.00258515
-0.00110689
0.000240138
-0.00413621
-0.000994876
7.25171e-05
-0.00390616
-0.00161161
1.8273e-05
-0.00361359
-0.00145245
1.59016e-05
-0.00335605
-0.000651431
0.000418147
-0.00464979
-0.000674622
0.000213211
-0.00449201
-0.00100125
5.65327e-05
-0.00436933
-0.00125739
2.82568e-05
-0.00444058
-0.00139698
-0.00018168
-0.00369638
-0.000123973
0.000637615
-0.00524577
-0.000446382
0.000443227
-0.0051531
-0.00063233
0.000187231
-0.00494368
-0.000964102
3.67979e-05
-0.0046659
-0.00107392
-9.58376e-05
-0.00460668
-0.00148497
-0.000136593
-0.00425142
0.000123426
0.000852275
-0.00584616
-5.23186e-05
0.000658747
-0.00574436
-0.000278226
0.000541537
-0.00544762
-0.000207092
0.000212435
-0.00506751
-0.00077558
3.67847e-05
-0.00485005
-0.00112564
-2.94809e-05
-0.00498563
-0.0015371
-0.000103937
-0.0039955
0.00019074
0.0011764
-0.0066132
0.000177032
0.000990856
-0.00674943
-4.41987e-05
0.000795782
-0.00643116
0.000178478
0.000567078
-0.00606771
-5.66264e-05
0.000378462
-0.00574643
-0.000508899
0.000111216
-0.00549137
-0.00107122
0.000132013
-0.00515387
-0.00155941
0.000174676
-0.00434125
0.000307008
0.00138468
-0.00722364
0.000556843
0.00112189
-0.00726391
0.000376212
0.00112786
-0.00717286
0.000623234
0.00104688
-0.00729322
0.00034772
0.00104938
-0.00717228
0.000254688
0.000972711
-0.00672297
-0.000372349
0.000635996
-0.00643854
-0.000987445
0.000132761
-0.00530258
-0.00133353
2.11448e-05
-0.00479731
0.000326147
0.00122479
-0.00715341
0.000552815
0.00105258
-0.00741609
0.000486382
0.00103398
-0.00742021
0.000567867
0.00109316
-0.00776981
0.00042651
0.0012211
-0.00745021
0.000811495
0.0012872
-0.00679906
0.00105966
0.00128638
-0.00661999
0.00067894
0.000854485
-0.00667231
-0.000930455
0.00045843
-0.00568851
-0.0012367
0.000255816
-0.00498722
3.94708e-05
0.000838088
-0.00581957
0.000186525
0.000637614
-0.00633825
0.000577797
0.000668114
-0.00721807
0.000413357
0.000874964
-0.00737093
0.000486647
0.000898018
-0.00706741
0.000836897
0.00110117
-0.00705109
0.00104214
0.0010888
-0.00785629
0.000862078
0.00100411
-0.00869035
0.000242926
0.00101746
-0.00873259
-0.000566014
0.000767508
-0.00741501
-0.000828785
0.000449391
-0.00577981
0.00036834
0.000100115
-0.00379231
-3.42256e-05
3.02602e-05
-0.00471558
0.000277073
0.000201533
-0.00572213
0.000237507
0.000621211
-0.00700609
0.00055087
0.000233465
-0.00719585
0.000500028
0.000884138
-0.00696778
0.000752594
0.000553284
-0.00729409
0.000909073
0.0007997
-0.00836485
0.000804019
0.000944905
-0.00884944
0.000718514
0.00090369
-0.00893018
-0.000399932
0.000813379
-0.00863725
0.000343448
0.000359313
-0.00671333
0.000147114
-0.000147732
-0.00183095
7.39205e-05
-0.000133601
-0.00249946
-0.000290551
-1.60454e-05
-0.00203635
-0.000218236
1.93031e-05
-0.00215922
-1.70923e-05
-0.00020657
-0.00229916
0.000184757
-0.000431831
-0.00357872
0.000218702
-0.000263129
-0.00375109
0.00033617
4.95488e-05
-0.00310807
0.000570377
0.000398463
-0.00422268
0.000717127
0.000305788
-0.00776558
0.000779323
0.000627235
-0.00763983
0.000397891
0.000521949
-0.00850808
0.000379175
0.000211592
-0.0096038
0.000265587
-0.00020907
-0.00182696
8.83493e-05
-0.000106471
-0.00184673
-2.58213e-05
-8.65071e-05
-0.00198893
-0.000127103
-6.97267e-05
-0.00156832
-0.000144847
-0.00010467
-0.000471104
-8.75437e-05
-6.99991e-05
0.000346495
-5.58674e-05
1.28899e-05
0.000570564
-2.05315e-05
-6.45195e-05
0.00125847
9.81007e-05
-0.000184827
0.00305154
0.000261925
-0.000157481
0.003342
-6.49429e-05
-0.000267976
-0.00155111
0.000647268
-0.000420421
-0.00377568
0.000474394
-0.000171205
-0.00417738
0.00036392
-1.23483e-05
-0.00752943
0.000123126
-9.71789e-05
-0.00136957
6.92641e-05
-7.45021e-05
-0.00140978
1.69814e-05
-6.37119e-05
-0.000914465
2.42249e-05
-7.00044e-05
-0.000607903
4.20876e-05
-6.3988e-05
-0.000915104
2.30882e-05
-6.04149e-05
-0.000697801
3.76377e-06
-5.91324e-05
-0.00061826
6.75672e-05
-8.4081e-05
-0.00057671
7.83972e-05
-9.95605e-05
-0.000529716
7.82906e-05
-5.63604e-05
-0.000302223
8.99674e-05
-3.50761e-05
-0.000257168
-1.3941e-05
-5.29384e-05
0.000710341
0.000138375
-2.94204e-05
-0.00232053
8.4859e-05
1.34766e-05
-0.000359466
1.09972e-05
6.24298e-05
-0.000990336
-0.00168261
-9.93534e-05
-0.00235119
-0.00180883
0.000212891
-0.00271646
-0.00181646
0.000113185
-0.00211829
-0.00122901
0.000289295
-0.00318413
-0.0017314
0.000208875
-0.0026297
-0.00160435
0.000177032
-0.00231206
-0.00112957
0.000232986
-0.00365552
-0.00110878
0.000265617
-0.00357054
-0.00171037
0.000167345
-0.00294987
-0.00150858
-3.68522e-06
-0.00252534
-0.000768157
0.000377916
-0.00430496
-0.000978986
0.000302341
-0.00406167
-0.000953454
0.000126504
-0.00406218
-0.00138628
4.80923e-05
-0.00351688
-0.00145506
6.9079e-05
-0.00336705
-0.000396792
0.000573719
-0.00471743
-0.000638482
0.000331493
-0.00457597
-0.000774815
0.000168305
-0.0044613
-0.000922419
7.03738e-06
-0.0043898
-0.00127217
-2.03607e-05
-0.00440365
-0.0013354
-0.000156868
-0.00368909
-7.23428e-05
0.000814471
-0.00530117
-0.000266756
0.000652716
-0.00524082
-0.00054539
0.000448596
-0.0051473
-0.000574645
0.00021461
-0.00475394
-0.000907244
-5.30724e-05
-0.004577
-0.00113817
-0.000136058
-0.00459468
-0.00135749
-0.000186094
-0.00424494
0.000161998
0.000940815
-0.00608492
0.000213138
0.000750215
-0.00597374
-4.34469e-05
0.000646426
-0.00585
-0.000217321
0.00044833
-0.00528772
-0.000135768
0.000213172
-0.00516476
-0.000579957
4.46164e-06
-0.00481294
-0.000991226
-8.19212e-05
-0.00508764
-0.00148014
-3.92844e-05
-0.00403548
0.00012518
0.00139354
-0.0066967
0.000267982
0.00111004
-0.00644352
0.000124935
0.00086683
-0.0065692
0.000384033
0.00074443
-0.00636931
0.00022424
0.000558992
-0.00612475
-3.67424e-05
0.000393463
-0.00573725
-0.000527205
0.000168891
-0.00537339
-0.000929058
0.000148307
-0.00518589
-0.00149532
0.000153758
-0.00433321
0.000334345
0.00153192
-0.00704564
0.000347343
0.00130426
-0.00720054
0.00079505
0.00109712
-0.00754183
0.000569013
0.00110537
-0.0072325
0.000490547
0.00104343
-0.00735131
0.000370634
0.00108307
-0.00684178
0.000268656
0.00103791
-0.00633388
-0.000503168
0.00057926
-0.00570293
-0.00108439
8.76207e-05
-0.00521512
-0.00132538
9.5264e-05
-0.00480389
0.000278398
0.00130028
-0.00685463
0.000173067
0.0011817
-0.00726908
0.000495687
0.00104294
-0.00734294
0.000507388
0.00106948
-0.00749056
0.000496236
0.00112925
-0.00768755
0.000684774
0.00119111
-0.007202
0.000636877
0.00133418
-0.00644159
0.000290628
0.00126849
-0.00646254
-0.00040591
0.000822875
-0.00638792
-0.000973209
0.000527592
-0.00555309
-0.00117143
0.000282559
-0.00492714
0.000243577
0.000736648
-0.0055734
2.7298e-05
0.00075401
-0.00599748
0.000532955
0.00066832
-0.00659433
0.000517633
0.00070574
-0.00732897
0.000482624
0.000849992
-0.00725466
0.000835391
0.000969106
-0.00727071
0.000857665
0.00114715
-0.0072145
0.00113663
0.00107116
-0.00815089
0.000988809
0.000921279
-0.00877896
0.000919375
0.00097353
-0.00913947
-0.000994266
0.000732067
-0.00710335
-0.000782771
0.000538074
-0.00519167
0.000306791
-5.60437e-05
-0.00307435
0.00034469
-3.81833e-05
-0.00399463
-6.6898e-05
-6.40283e-05
-0.00467367
0.000226339
0.00021463
-0.00576013
0.000263535
0.000459978
-0.00751323
0.000569041
0.00049255
-0.00718855
0.000590644
0.000669085
-0.00745553
0.000826536
0.000550897
-0.00753566
0.000797365
0.000884471
-0.00853141
0.000705936
0.00082967
-0.00876423
0.000718508
0.000821561
-0.00887754
-2.34648e-06
0.00077786
-0.00865556
0.000123736
0.000327112
-0.006785
0.000436008
-0.000226041
-0.00206143
0.000245633
-0.000164108
-0.00195772
-7.80904e-06
-0.000126353
-0.00240716
-0.000299097
1.28321e-05
-0.00185788
-0.000221616
2.97337e-05
-0.00231876
0.000113794
-0.000309071
-0.00262325
0.00019561
-0.000441046
-0.00365228
0.00034179
-0.000146233
-0.00391763
0.000350357
0.000197118
-0.00315899
0.000781807
0.000208516
-0.00464529
0.000735332
0.000259608
-0.00819823
0.00071002
0.0006018
-0.00778243
0.000340927
0.000440977
-0.00860399
0.000143421
0.000276789
-0.00966009
0.000373807
-0.000284645
-0.00191185
0.000251997
-0.000185372
-0.00193079
2.21435e-05
-0.000101899
-0.0018365
-2.39368e-05
-8.34869e-05
-0.00192701
-0.00012064
-5.47597e-05
-0.0014555
-0.00014346
-0.000101272
-0.000273283
-6.49134e-05
-5.89495e-05
0.000487012
-1.08914e-05
1.63631e-05
0.00056814
-7.14498e-06
-5.85863e-05
0.00121777
0.000138086
-0.000182201
0.00301646
0.000279222
-0.00016846
0.00305323
6.31094e-05
-0.000331245
-0.00171734
0.000644166
-0.000411679
-0.00404099
0.000382174
-0.000117573
-0.00436947
0.000288672
-1.70992e-06
-0.00780539
0.000123603
-8.71647e-05
-0.000709666
0.000113114
-9.36509e-05
-0.00146354
6.30027e-05
-7.00887e-05
-0.00146641
1.49771e-05
-6.16349e-05
-0.000937812
2.27774e-05
-6.58705e-05
-0.000628798
4.08045e-05
-5.95715e-05
-0.000956752
2.13246e-05
-5.91677e-05
-0.00071909
9.5314e-06
-5.96701e-05
-0.000652202
7.40801e-05
-8.68764e-05
-0.000663474
8.46038e-05
-0.000104114