/*--------------------------------*- C++ -*----------------------------------*\
  =========                 |
  \\      /  F ield         | OpenFOAM: The Open Source CFD Toolbox
   \\    /   O peration     | Website:  https://openfoam.org
    \\  /    A nd           | Version:  7
     \\/     M anipulation  |
\*---------------------------------------------------------------------------*/
FoamFile
{
    version     2.0;
    format      ascii;
    class       surfaceScalarField;
    location    "5.5";
    object      phi_0;
}
// * * * * * * * * * * * * * * * * * * * * * * * * * * * * * * * * * * * * * //

dimensions      [0 3 -1 0 0 0 0];

internalField   nonuniform List<scalar> 
54125
(
0.0001359
1.12532e-05
0.00108551
0.000323554
7.41137e-05
-0.0024045
9.82293e-05
-2.58614e-05
0.000597916
0.00015271
1.39136e-05
0.000918888
-0.000841551
0.000494205
-0.00834943
0.00070158
1.42223e-05
-0.000589845
0.000452704
-2.92887e-05
-0.00267521
0.000127107
-2.90568e-05
-0.000829372
8.95702e-05
-2.1111e-05
0.000543371
0.000155167
1.73648e-05
0.000746356
-0.00136572
0.000638379
-0.00909541
0.000664946
0.000572653
-0.00608194
-0.000715937
0.000568601
-0.00774939
6.2337e-05
8.6383e-06
0.000520899
0.00067458
-9.14009e-05
-0.00111274
0.000589583
-0.000102774
-0.00300685
-5.15063e-06
-2.0305e-05
-2.19799e-06
0.000144222
-2.6519e-05
-0.000968185
8.29037e-05
-1.47954e-05
0.000492627
0.000143961
2.23034e-05
0.000580092
-0.00154132
0.00065072
-0.00793586
0.000756714
0.000952794
-0.0089457
-0.00141605
0.000536818
-0.00893211
0.000552239
0.000202061
-0.00336316
0.000793685
0.000568224
-0.00620067
-0.000412737
0.000593542
-0.00734062
-4.29896e-05
7.42351e-05
0.000569185
0.000208251
-4.1347e-05
0.000406815
0.000596841
-0.000188945
-0.00154051
0.000619114
-0.00019285
-0.00328915
-2.11619e-05
-2.50452e-05
0.000280769
-5.5826e-06
-2.24729e-05
-6.61501e-07
0.000153063
-2.30477e-05
-0.001113
7.66804e-05
-7.26412e-06
0.000445514
0.000132368
2.7566e-05
0.000420159
-0.00139
-0.000113499
-0.00618932
0.000318289
0.00132807
-0.00950116
-0.00155687
0.000656619
-0.00845167
0.00114199
0.000748566
-0.00733664
0.000702895
0.000737241
-0.00905533
-0.00123607
0.000470118
-0.00857889
0.000354787
-0.000349176
-0.00194025
0.000809313
0.000157
-0.003553
0.000825199
0.000517439
-0.00635293
-0.000219132
0.000544917
-0.00704729
-0.000163463
-5.42063e-05
0.00235325
-5.61558e-05
5.54908e-05
0.00052292
0.000308063
-9.28417e-05
0.000155712
0.000577567
-0.000296407
-0.00193784
0.000772642
-0.000229631
-0.0036998
-1.27604e-05
-2.66253e-05
-6.48912e-05
-9.66203e-06
-2.58101e-05
0.000293768
-6.01031e-06
-2.50406e-05
7.34171e-06
0.000147647
-1.92856e-05
-0.00124862
7.69397e-05
2.81712e-06
0.000393324
0.000124668
3.35192e-05
0.000261971
-0.00140042
-4.97352e-05
-0.005073
-0.000723995
0.00048447
-0.00842912
-0.00146165
-0.000146912
-0.00613762
0.000756859
0.00138125
-0.00844433
0.000118173
0.00129847
-0.00955829
-0.0014146
0.000609101
-0.00888225
0.000814113
0.000808603
-0.00646737
0.00131047
0.000679508
-0.00778006
0.000802884
0.000634954
-0.00919785
-0.00114417
0.000459617
-0.00811348
0.000119841
-0.000376807
-0.00406304
0.000337685
-0.000247999
-0.00192909
0.000980025
0.000376713
-0.00408424
0.000957933
0.000452495
-0.00664087
0.000281349
0.000470841
-0.00702683
-0.000159103
-0.000153974
0.00185194
-0.000170059
-6.9067e-05
0.0026382
-4.34878e-05
3.83933e-05
0.000429163
0.000335716
-0.000139864
-0.0001889
0.000624638
-0.000361838
-0.00235333
0.000779031
-0.000193316
-0.00416084
3.548e-05
-5.72504e-05
-0.000379788
-4.17857e-06
-2.91109e-05
-5.74118e-05
1.09313e-06
-2.67308e-05
0.000294365
-4.19686e-06
-2.77438e-05
1.99968e-05
0.000135515
-1.25008e-05
-0.00136882
9.40205e-05
1.26008e-05
0.000320222
0.000130395
3.9611e-05
9.19647e-05
-0.00157928
0.000108086
-0.00478213
-0.000978956
6.99733e-05
-0.00596915
-0.00147049
-7.84162e-06
-0.00505631
0.000109916
0.00103169
-0.00815551
-0.000846662
0.000471316
-0.00808251
-0.00143912
-0.000141616
-0.00597148
0.00086654
0.00112109
-0.00759338
0.00101751
0.00138562
-0.00823852
8.14892e-05
0.00127835
-0.00950615
-0.00138102
0.000440762
-0.00908615
0.000581885
0.000576852
-0.00619718
0.000908457
0.00085437
-0.00721301
0.00123938
0.000679242
-0.00808371
0.00125601
0.000811575
-0.00984789
-0.000828375
0.000476053
-0.00747981
-0.000170536
-8.47582e-05
-0.00354973
0.000208081
-0.000378626
-0.00431055
0.000321314
0.00018731
-0.00210449
0.000964935
0.000471146
-0.00473211
0.00107772
0.000410911
-0.00703403
0.000537217
0.000449141
-0.00723416
-0.000203652
-0.000111635
0.000736626
-0.000156154
-0.000157398
0.00209224
-0.000137011
-8.40045e-05
0.00289871
4.15319e-05
1.93542e-05
0.000224215
0.000350365
-0.000185587
-0.000580001
0.000611287
-0.000390132
-0.00267378
0.000768079
-0.000141185
-0.00465734
2.08042e-05
-6.72777e-05
-0.000260978
3.9819e-05
-6.12638e-05
-0.000387455
4.79161e-06
-3.18377e-05
-5.70966e-05
1.71169e-05
-2.77021e-05
0.000277207
-5.88584e-06
-3.03669e-05
4.37488e-05
0.000130062
-6.55502e-06
-0.00147972
0.000114938
1.90604e-05
0.000225835
0.000126023
4.54408e-05
-7.94989e-05
-0.00160161
2.58715e-05
-0.00405682
-0.00111659
4.45682e-05
-0.0052522
-0.00156853
2.52688e-05
-0.00470936
-0.000469745
0.000513538
-0.0069804
-0.00118291
0.000122011
-0.00576276
-0.00149
7.74912e-07
-0.0050062
0.000611497
0.00105075
-0.00808904
0.000179983
0.00112434
-0.007971
-0.000946458
0.000519015
-0.0077152
-0.00147664
-1.62717e-06
-0.00587424
0.000560838
0.000813948
-0.00750212
0.000986858
0.00127405
-0.00756022
0.00102634
0.00131975
-0.00806688
0.000504812
0.00106284
-0.00937703
-0.00126067
0.000396693
-0.00905055
7.35683e-05
0.000533677
-0.00543122
0.000756027
0.000672784
-0.00656354
0.000864366
0.000892209
-0.00796903
0.00117935
0.000781529
-0.00826808
0.000863838
0.00099074
-0.0101487
-0.000421319
0.000450423
-0.00697169
-4.31634e-05
8.57988e-05
-0.00263061
-2.52573e-05
-0.00027771
-0.00378154
0.00020911
-0.000274004
-0.00419536
0.000617602
0.000427075
-0.00263649
0.000961109
0.000541244
-0.00547318
0.000887125
0.000481961
-0.00734268
0.000644827
0.00038875
-0.00749966
-0.000198876
-7.49707e-05
2.7101e-05
-0.000214831
-0.000100808
0.000934686
-0.000151585
-0.000162344
0.00232696
-9.1376e-05
-9.2671e-05
0.00311922
4.4572e-05
-8.25161e-06
-3.57784e-06
0.000383131
-0.000237764
-0.000985437
0.000625695
-0.000395486
-0.00293024
0.000727451
-0.000123566
-0.0051352
-1.66853e-05
-6.59085e-05
-0.000601327
2.4108e-05
-6.8389e-05
-0.00027796
4.45641e-05
-6.57373e-05
-0.000398119
1.62553e-05
-3.47628e-05
-6.62912e-05
2.99877e-05
-2.86606e-05
0.000245513
-1.795e-05
-3.30238e-05
8.81676e-05
0.000139537
-4.30454e-06
-0.0015959
0.000122034
2.33564e-05
0.000125885
0.000107505
5.06303e-05
-0.000237634
-0.00131752
-0.000170487
-0.00418439
-0.00100269
-1.99229e-05
-0.0050201
-0.00157305
4.53456e-05
-0.00409765
-0.000739157
9.19061e-05
-0.00584956
-0.00130617
0.000101382
-0.00520505
-0.00158099
2.02603e-05
-0.00463864
0.000249048
0.000793616
-0.0073946
-0.000211365
0.000586983
-0.00705402
-0.0013017
0.000152435
-0.00555917
-0.00150373
1.4976e-05
-0.00499408
0.000349154
0.00108273
-0.00824303
0.000560692
0.00114032
-0.00767885
0.000176464
0.00122614
-0.00782825
-0.00105753
0.000530085
-0.00668457
-0.00147431
9.57968e-05
-0.0057564
0.000198901
0.000801557
-0.00745728
0.000610376
0.00100419
-0.0070866
0.00111709
0.00125324
-0.00774644
0.00114765
0.00122744
-0.00819977
0.000181792
0.000801219
-0.00909951
-0.00111638
0.000391102
-0.00874659
0.000274761
0.000625246
-0.00521885
0.000420703
0.000707948
-0.00591234
0.0007546
0.000686678
-0.0069035
0.00101155
0.000890318
-0.00847176
0.00121804
0.000996484
-0.00853075
0.000671218
0.000747192
-0.0102296
-0.000179406
0.000423295
-0.00657076
-8.72749e-05
0.000120724
-0.00223265
-9.26283e-05
-0.000176063
-0.00285446
1.52407e-05
-0.000353088
-0.00386928
0.00011944
-0.000146159
-0.00383294
0.000727715
0.000583109
-0.0033615
0.00100775
0.000451596
-0.00606744
0.000749926
0.000452048
-0.00753021
0.000644813
0.00032389
-0.00774091
-0.000164325
-0.000105944
-0.000658903
-0.000199045
-5.63468e-05
0.000205793
-0.000208371
-8.33247e-05
0.0011086
-0.000136227
-0.000167699
0.00255447
-5.53162e-05
-0.00011414
0.00331042
9.61155e-05
-1.53823e-05
-0.000340025
0.000511813
-0.000289405
-0.0014638
0.000613891
-0.000392758
-0.0031529
0.000678039
-8.17997e-05
-0.00562394
1.51728e-05
-7.85697e-05
-0.000657487
-1.86568e-05
-6.35042e-05
-0.000587555
2.74503e-05
-7.00173e-05
-0.000301131
4.98916e-05
-7.0623e-05
-0.00041215
2.68354e-05
-3.78881e-05
-8.38992e-05
4.52871e-05
-2.95895e-05
0.000196791
-4.62864e-05
-3.58796e-05
0.000166029
0.00015868
-4.42217e-06
-0.0017268
0.000122326
2.54157e-05
2.87737e-05
9.14462e-05
5.48998e-05
-0.00038398
-0.00126237
-7.6449e-05
-0.00379694
-0.00130843
2.3544e-05
-0.0044659
-0.00140823
-0.000144706
-0.0042045
-0.000820571
4.71612e-05
-0.00514695
-0.00127273
3.543e-06
-0.00501174
-0.00165036
4.82315e-05
-0.00407651
-3.42766e-05
0.000417761
-0.00626768
-0.000521489
0.000226794
-0.00566484
-0.00130388
9.68067e-06
-0.0051923
-0.00154516
1.3413e-05
-0.00461062
0.000211738
0.000928403
-0.00753715
0.000189787
0.000838644
-0.00727536
-0.000491519
0.000674076
-0.00690768
-0.00120623
0.000231044
-0.00562654
-0.0014985
-0.000147467
-0.00482242
0.000338654
0.001047
-0.00812709
0.000441058
0.00108003
-0.00801343
0.000707876
0.00129062
-0.00733412
0.000206159
0.0012277
-0.00758437
-0.000417095
0.000555712
-0.00654559
-0.00148573
0.000207489
-0.00559454
0.000251202
0.000788188
-0.00695799
0.000472833
0.00087242
-0.00737764
0.0006694
0.00103763
-0.00678579
0.00117667
0.00133724
-0.00802136
0.00124034
0.00096441
-0.00838527
0.000146552
0.000766102
-0.00894984
-0.00109458
0.000525258
-0.00835667
0.00029965
0.000610524
-0.00591001
0.000275334
0.000775795
-0.00565466
0.000525379
0.000658353
-0.00639415
0.000591788
0.000818303
-0.00730384
0.00114875
0.000891929
-0.00878824
0.00101156
0.000916955
-0.00870432
0.000195758
0.000650137
-0.00990223
1.92008e-05
0.000465344
-0.00641049
-0.000183283
5.08525e-05
-0.00165071
-0.000198972
-1.47618e-05
-0.00239403
-8.87374e-05
-0.000278668
-0.00304851
7.89215e-06
-0.000404881
-0.00375468
0.000194477
-3.02033e-05
-0.00346942
0.000877881
0.000581733
-0.00427341
0.00106645
0.00032683
-0.00649686
0.000692639
0.000437028
-0.0077221
0.000613704
0.000310051
-0.00798663
-0.00016127
-0.000113921
-0.00125122
-0.000165657
-9.86948e-05
-0.000469555
-0.000152315
-3.17104e-05
0.000333944
-0.000128069
-7.29274e-05
0.00119179
-7.88234e-05
-0.000176665
0.00272265
3.25224e-05
-0.000112534
0.00342033
8.33734e-05
-4.28789e-05
-0.000716211
0.000638664
-0.000327102
-0.00200944
0.000589159
-0.00037305
-0.00332848
0.000611028
-6.68346e-05
-0.00607668
5.63324e-05
-8.34989e-05
-0.000747251
1.34375e-05
-7.41127e-05
-0.000660316
-1.72661e-05
-6.14182e-05
-0.000578888
3.32395e-05
-7.18981e-05
-0.000333095
5.60479e-05
-7.59013e-05
-0.000430185
3.95368e-05
-4.11808e-05
-0.000111845
5.58961e-05
-3.04491e-05
0.000135465
-8.2801e-05
-3.89215e-05
0.000283329
0.000166363
-6.87725e-06
-0.00186087
0.000116211
2.53036e-05
-5.78406e-05
7.83643e-05
5.81276e-05
-0.000520472
-0.00130151
9.83791e-05
-0.00336129
-0.00141805
6.524e-05
-0.0040842
-0.00125897
-0.000135759
-0.00381044
-0.000882201
0.00013039
-0.00454017
-0.00146573
6.852e-05
-0.00448612
-0.00148935
-0.000121385
-0.00424412
-0.000375194
0.000317519
-0.00548449
-0.000719906
8.17672e-05
-0.00502676
-0.00130417
4.24353e-06
-0.00496746
-0.00158062
2.93105e-05
-0.00407036
-6.96015e-05
0.000594801
-0.00634793
-0.000136114
0.000403698
-0.00611869
-0.000776447
0.000109538
-0.00547977
-0.0010865
3.15977e-05
-0.00533021
-0.00161134
1.93208e-05
-0.0045171
0.000352872
0.00100431
-0.00754811
0.000191671
0.000959161
-0.00740828
0.000355058
0.000942205
-0.00719067
-0.000574647
0.000721454
-0.00661728
-0.000806701
3.68789e-05
-0.00542128
-0.00149346
5.40234e-05
-0.00486872
0.000473273
0.000978009
-0.00752279
0.000458716
0.00100246
-0.0080354
0.000442166
0.00116701
-0.00766258
0.000828121
0.0015401
-0.00729797
0.000195587
0.00113833
-0.00712224
-0.000896868
0.000625414
-0.0059201
-0.00146412
0.000245095
-0.00547009
0.000527216
0.000563303
-0.00712442
0.000357709
0.00094387
-0.00711181
0.000565974
0.000866129
-0.00724674
0.000926374
0.00119418
-0.00697733
0.00115802
0.00117249
-0.00823871
0.000729413
0.00111613
-0.00845315
-0.000364291
0.000714291
-0.00857883
-0.000997928
0.000590275
-0.00792982
0.00017508
0.0002712
-0.00610615
0.000160987
0.000838376
-0.00633255
0.000365638
0.000719095
-0.00616978
0.000471004
0.000351336
-0.0063903
0.000593668
0.000878115
-0.00768922
0.00103701
0.000854123
-0.00888454
0.00107903
0.000918101
-0.00898488
-1.90186e-05
0.000766335
-0.00949156
-2.13308e-05
0.000467868
-0.00624332
-0.000296033
-3.21624e-05
-0.00235202
-0.000272481
6.92907e-05
-0.00162794
-3.79194e-05
-0.000138593
-0.0026485
0.000189577
-0.000402809
-0.00336823
4.86492e-05
-0.000363354
-0.003549
0.000490453
0.000158742
-0.00350436
0.000922733
0.000495253
-0.00528119
0.00107658
0.000471091
-0.00696883
0.000601547
0.000490424
-0.00791486
0.000802532
0.00032984
-0.00850797
-0.000117273
-8.12043e-05
-0.00203094
-0.000155448
-0.000110544
-0.00107049
-0.000165365
-9.08344e-05
-0.000262332
-9.27925e-05
-1.26162e-05
0.000399664
-0.000100107
-7.05997e-05
0.00124188
-2.80485e-05
-0.000177802
0.00285551
7.03146e-05
-0.000129495
0.00349253
-3.75451e-05
-7.48527e-05
-0.00101372
0.000706582
-0.000363386
-0.00255932
0.000542505
-0.000330049
-0.00349156
0.000513854
-4.64e-05
-0.00646577
1.44939e-05
-7.94573e-05
-0.000549593
5.23061e-05
-7.92738e-05
-0.000794396
9.64827e-06
-6.98032e-05
-0.000661579
-1.51859e-05
-5.96755e-05
-0.000575925
4.06046e-05
-7.43138e-05
-0.000375287
5.84947e-05
-8.14638e-05
-0.000448397
4.92337e-05
-4.46022e-05
-0.000146925
6.59254e-05
-3.12784e-05
6.18962e-05
-0.000108963
-4.20818e-05
0.000427497
0.000162259
-1.12225e-05
-0.0019866
0.000112888
2.43347e-05
-0.000136936
7.52126e-05
6.04463e-05
-0.000656131
-0.00142402
0.000108192
-0.00265878
-0.00128168
6.13113e-05
-0.00380017
-0.00124346
7.48611e-05
-0.00345167
-0.00091342
0.000169528
-0.00455966
-0.00146858
1.30536e-06
-0.00421841
-0.00126314
-0.00020944
-0.00382721
-0.000635154
0.000288511
-0.00475867
-0.000586718
0.000130342
-0.00473518
-0.00138755
6.22039e-05
-0.00458632
-0.00150821
-8.05475e-05
-0.00423599
-0.000339384
0.000568749
-0.00568678
-0.000459479
0.000311265
-0.00539063
-0.000829844
5.64284e-05
-0.00502555
-0.00113063
-2.30486e-06
-0.00489172
-0.00166828
8.54786e-06
-0.00402196
0.000119997
0.000787834
-0.00661933
-0.000116506
0.000588614
-0.00622466
-0.000330683
0.000445476
-0.00576888
-0.000751653
0.000155777
-0.00542695
-0.00120554
7.74472e-05
-0.0049895
-0.0016345
-6.94527e-06
-0.00436911
0.000413668
0.00107437
-0.00742043
0.00040509
0.00102395
-0.00755927
0.000496623
0.000966474
-0.007487
0.00046854
0.000964727
-0.00707436
-0.000545623
0.000660208
-0.0064994
-0.00116797
0.000207581
-0.00530374
-0.00150127
-2.0416e-05
-0.00481116
0.000504931
0.000965545
-0.00727042
0.000569947
0.000981947
-0.00771452
0.000561907
0.00104133
-0.00790566
0.000653285
0.0013776
-0.00722699
0.000638659
0.00136215
-0.00700242
-1.24747e-05
0.00115039
-0.00690533
-0.000831493
0.000610094
-0.0058179
-0.0014062
0.000277226
-0.00533905
0.000434563
0.000655987
-0.00674203
0.000522163
0.000739823
-0.00728155
0.000521427
0.000884809
-0.00728628
0.000566121
0.000918076
-0.00706574
0.000815496
0.00121499
-0.00724166
0.00111617
0.00111722
-0.00831896
0.000870638
0.00105162
-0.00858209
-0.000655176
0.000787587
-0.00813998
-0.00101432
0.000431015
-0.00736785
-6.68614e-05
0.000149476
-0.00558313
0.000151687
0.000507482
-0.00619943
0.000230863
0.00073462
-0.00661685
0.000538672
0.000270693
-0.00643823
0.000448342
0.000590676
-0.00650255
0.000787037
0.000849693
-0.00798137
0.000884541
0.000930249
-0.0088585
0.000854203
0.000989657
-0.00898583
-0.000132108
0.000837605
-0.00912764
0.000569889
0.000401437
-0.00641212
-0.000175544
-8.63063e-05
-0.00246345
-0.000294129
8.81888e-06
-0.00215287
-0.000170519
2.68993e-05
-0.00178828
0.000228167
-0.000336279
-0.00303599
0.000161796
-0.000410916
-0.00358257
8.7954e-05
-0.000246496
-0.00325976
0.000570069
0.000271532
-0.00378039
0.000838323
0.00059792
-0.00628388
0.000951246
0.000602247
-0.00732532
0.000537429
0.000552344
-0.00813229
0.000721201
0.000272318
-0.00898764
3.40222e-06
-9.0545e-05
-0.00210034
-0.000128915
-7.76617e-05
-0.0018826
-0.000163705
-0.000105569
-0.000882402
-0.000160898
-8.54003e-05
-4.3836e-05
-9.40037e-05
1.27632e-07
0.000463545
-8.88172e-05
-6.69575e-05
0.00127835
-3.20485e-06
-0.000182082
0.00296053
7.98023e-05
-0.000142768
0.00354657
-0.000125708
-0.000109602
-0.00125075
0.000711598
-0.000381601
-0.00305711
0.000516023
-0.000247399
-0.0036937
0.000498899
-4.23242e-05
-0.00684714
1.82028e-05
-6.83902e-05
-0.000860318
1.69161e-05
-7.75481e-05
-0.000568235
4.87379e-05
-7.44934e-05
-0.000838444
1.20763e-05
-6.58999e-05
-0.000667431
-8.88643e-06
-5.86645e-05
-0.000582688
4.89399e-05
-7.72138e-05
-0.000428477
6.4485e-05
-8.71624e-05
-0.000470321
5.98494e-05
-4.80871e-05
-0.000189966
7.72142e-05
-3.216e-05
-2.52398e-05
-0.000109171
-4.54559e-05
0.000570902
0.000154611
-1.56697e-05
-0.00210121
0.000101328
2.186e-05
-0.000199677
4.921e-05
6.16865e-05
-0.000767028
-0.00160299
0.000179106
-0.00233667
-0.00140721
0.000160282
-0.00303596
-0.00139249
0.000124742
-0.00263449
-0.00102263
5.41844e-05
-0.00406547
-0.00141718
-1.82137e-05
-0.0037585
-0.00134552
3.09375e-05
-0.00340022
-0.00090435
0.000348194
-0.00447644
-0.000748868
8.47055e-05
-0.00448091
-0.00148921
4.39657e-05
-0.00437015
-0.00139863
-0.000226077
-0.00371072
-0.000543865
0.000517803
-0.00511636
-0.000558179
0.000230989
-0.00476062
-0.000872984
9.32968e-05
-0.00472313
-0.00107881
-3.05424e-05
-0.00468814
-0.00157288
-8.08896e-05
-0.0042505
9.06131e-06
0.000699364
-0.00589861
-0.000266543
0.000517208
-0.00574269
-0.000721511
0.00032639
-0.00526976
-0.000836121
1.44031e-06
-0.00494482
-0.00100118
-1.29139e-06
-0.00508624
-0.00162262
-5.31117e-05
-0.00398073
0.000252727
0.00104343
-0.00669619
0.000242898
0.000737774
-0.0066063
0.000207545
0.000651487
-0.0061416
0.000190175
0.000429294
-0.00576403
-0.000649334
0.000143206
-0.00538899
-0.000996761
1.97486e-05
-0.00518741
-0.00165342
0.000108045
-0.00432501
0.000337686
0.00123205
-0.0072521
0.00038541
0.00107463
-0.00728658
0.000259427
0.00100402
-0.00729433
0.000393331
0.0010279
-0.00729022
0.000198145
0.000908041
-0.00688168
-0.00051896
0.00067467
-0.00646001
-0.00101675
0.000114658
-0.00525356
-0.00140639
2.64663e-05
-0.00483743
0.000386983
0.0010712
-0.00746726
0.000579899
0.000984221
-0.00733043
0.000598708
0.00100543
-0.0077559
0.000632833
0.00116081
-0.00775558
0.000549488
0.00137585
-0.00697467
0.000681667
0.00124044
-0.00665796
0.000122261
0.0010521
-0.00659896
-0.00091653
0.000502863
-0.00578218
-0.00128009
0.000312821
-0.00538609
0.00019235
0.000849588
-0.00605669
0.000652744
0.000517803
-0.00702107
0.000443068
0.000804098
-0.00741304
0.000479632
0.000846945
-0.00715611
0.000505117
0.000982765
-0.00689029
0.000982184
0.00126308
-0.00758267
0.00134178
0.000967531
-0.0086921
0.00101771
0.0010734
-0.00903141
-0.000707562
0.000753519
-0.00788703
-0.00061753
0.000561858
-0.00674229
9.54765e-05
0.000212128
-0.0045999
4.74218e-05
0.000154756
-0.00557195
0.000268915
0.000548588
-0.00645283
0.000435952
0.000558118
-0.00711206
0.000444381
0.000401082
-0.00653122
0.00049848
0.000867704
-0.00693109
0.000938333
0.000741104
-0.00816049
0.000833102
0.000974715
-0.00883833
0.000837701
0.000968047
-0.00900272
8.73243e-05
0.000832242
-0.00910834
0.000450872
0.000382705
-0.00652449
0.000108768
-9.01825e-05
-0.00247834
-0.000249864
-6.37977e-05
-0.00226988
-0.000241595
3.41706e-05
-0.00208225
-0.000169284
-0.000118639
-0.00199753
0.000277079
-0.000410349
-0.00340764
8.66005e-05
-0.000335252
-0.00366924
0.000254381
-0.00012028
-0.00312554
0.000553055
0.000329603
-0.00398533
0.000755746
0.000618404
-0.0071815
0.000853655
0.000602616
-0.00751765
0.000446995
0.000586408
-0.00837735
0.000590566
0.000304705
-0.00938401
0.000139518
-0.000130662
-0.00179385
-1.69511e-05
-8.34501e-05
-0.00206068
-0.000128789
-7.59343e-05
-0.00173471
-0.0001581
-0.000103996
-0.00069363
-0.000131501
-8.01638e-05
0.00015907
-8.61328e-05
9.57744e-06
0.000522083
-6.06154e-05
-6.58651e-05
0.00128723
1.70719e-05
-0.000184865
0.00304541
0.000116106
-0.000143165
0.00354124
-0.000142931
-0.000172777
-0.00142582
0.000687245
-0.000398535
-0.0034386
0.000488862
-0.000214499
-0.00390906
0.000430134
-2.9427e-05
-0.00719863
7.84579e-05
-7.9734e-05
-0.00134647
1.49044e-05
-6.63214e-05
-0.000886449
1.99533e-05
-7.42118e-05
-0.00058847
4.48727e-05
-6.93691e-05
-0.000879847
1.9499e-05
-6.26706e-05
-0.000682924
-5.65359e-06
-5.83552e-05
-0.000595893
5.75887e-05
-8.03797e-05
-0.000492849
7.0026e-05
-9.28034e-05
-0.000495631
6.91456e-05
-5.15989e-05
-0.000239673
8.49917e-05
-3.31284e-05
-0.000122559
-7.02539e-05
-4.89035e-05
0.00067439
0.000141593
-2.0889e-05
-0.00220005
9.16748e-05
1.64217e-05
-0.000246087
3.32412e-05
6.20945e-05
-0.000862363
-0.00173219
8.79934e-05
-0.00224789
-0.0015518
0.000232882
-0.00277963
-0.00157199
0.000183772
-0.00234094
-0.00110832
0.000241786
-0.0035358
-0.00155274
0.000114686
-0.00289034
-0.00139756
6.17567e-06
-0.00258862
-0.0011078
0.000238259
-0.00413918
-0.000996279
6.96766e-05
-0.00390595
-0.00161219
1.67442e-05
-0.00362133
-0.00145242
1.41963e-05
-0.00336062
-0.00065471
0.000420264
-0.00465068
-0.000675846
0.000216749
-0.00449082
-0.000999666
5.85667e-05
-0.00436882
-0.00126233
2.94527e-05
-0.00444217
-0.00139976
-0.000187713
-0.00369613
-0.000122735
0.000636577
-0.00524378
-0.00044933
0.000446292
-0.00514887
-0.000633196
0.000188249
-0.00494389
-0.00096543
4.28658e-05
-0.00466723
-0.0010702
-9.33958e-05
-0.0046066
-0.00149105
-0.000134661
-0.00424742
0.000121097
0.00085561
-0.00583741
-5.69588e-05
0.000660572
-0.00574211
-0.000281532
0.000538712
-0.00546594
-0.000223365
0.000216167
-0.00507095
-0.000778727
3.89631e-05
-0.00485568
-0.00112695
-2.62149e-05
-0.00498295
-0.00154661
-0.000102893
-0.00398465
0.000196984
0.00118013
-0.00661064
0.000180792
0.000996578
-0.00675037
-4.08839e-05
0.000793158
-0.00644766
0.000179639
0.000567907
-0.00606652
-5.07826e-05
0.000378881
-0.00575078
-0.000509824
0.000110604
-0.00548898
-0.00107953
0.000128341
-0.00514492
-0.00156455
0.000173444
-0.0043403
0.000305782
0.00139294
-0.00721683
0.000526601
0.00112745
-0.00725162
0.000369048
0.00112179
-0.00717468
0.000606636
0.00104211
-0.00728234
0.000342158
0.00103783
-0.00721268
0.000250139
0.000966718
-0.0067422
-0.000375147
0.000645559
-0.0064935
-0.000980999
0.000128463
-0.00529108
-0.00133923
1.40477e-05
-0.00479234
0.000344904
0.00122678
-0.00711265
0.00054655
0.00105632
-0.00743316
0.000495986
0.00102644
-0.00740436
0.000571507
0.00108226
-0.00776923
0.00042454
0.00121247
-0.00751163
0.000811502
0.0012769
-0.00684046
0.00106793
0.00129248
-0.00662449
0.000718965
0.000857163
-0.00665451
-0.000923382
0.000459158
-0.0057127
-0.00124194
0.000251616
-0.0050133
4.61386e-05
0.000844534
-0.00581176
0.000155162
0.000653036
-0.00629967
0.000584813
0.00065247
-0.00718534
0.000394691
0.000872473
-0.00739731
0.000457207
0.000891964
-0.00707814
0.000809832
0.00108261
-0.00702117
0.00102206
0.00110076
-0.00779962
0.000882014
0.000998572
-0.00866619
0.000304036
0.00101853
-0.00876276
-0.000517794
0.000763269
-0.00748332
-0.000826673
0.00044802
-0.00591276
0.000374762
0.000112832
-0.00377621
-2.40536e-05
4.4907e-05
-0.00471586
0.000259014
0.000194785
-0.00571876
0.000237588
0.000632767
-0.00693435
0.000553997
0.000254965
-0.00724286
0.000510933
0.000831583
-0.00691943
0.000723023
0.000612886
-0.00727151
0.000932582
0.000776519
-0.00834182
0.000793122
0.000958916
-0.00886658
0.000726362
0.000911917
-0.00895511
-0.000407954
0.000814103
-0.00868479
0.000373137
0.000366153
-0.00667322
0.000149657
-0.000144732
-0.00183519
8.37738e-05
-0.000130141
-0.00251272
-0.000285795
-1.62472e-05
-0.00206246
-0.000221001
2.32544e-05
-0.00216124
-4.12302e-05
-0.000196859
-0.00230129
0.00019644
-0.000428353
-0.00359711
0.000187144
-0.000265755
-0.00377152
0.000336392
2.46215e-05
-0.00313988
0.000537119
0.000423303
-0.00421124
0.000709599
0.000338863
-0.00777027
0.000785744
0.000629766
-0.0076595
0.000401444
0.000535952
-0.00852118
0.000415468
0.000212064
-0.00958141
0.000267502
-0.000209695
-0.00182646
9.56251e-05
-0.000105796
-0.00185223
-2.43052e-05
-8.54868e-05
-0.00200687
-0.000126204
-6.99137e-05
-0.00159771
-0.000144921
-0.000103087
-0.000506287
-9.11892e-05
-6.79546e-05
0.000322138
-5.81583e-05
1.48961e-05
0.000557069
-2.62405e-05
-6.27348e-05
0.00126137
9.08052e-05
-0.000181949
0.00306253
0.000249164
-0.000156349
0.00336064
-7.20349e-05
-0.000265462
-0.00155711
0.000650604
-0.00042025
-0.00374186
0.000487074
-0.000178351
-0.00415553
0.00037327
-1.61761e-05
-0.00752249
0.000124286
-9.72727e-05
-0.00136249
7.02106e-05
-7.47166e-05
-0.00140829
1.71503e-05
-6.36908e-05
-0.00091412
2.48892e-05
-7.02731e-05
-0.000612455
4.24565e-05
-6.43717e-05
-0.000920603
2.17129e-05
-6.02882e-05
-0.000702704
1.6786e-06
-5.87022e-05
-0.000619249
6.56566e-05
-8.34332e-05
-0.000567876
7.61292e-05
-9.81282e-05
-0.000525231
7.52559e-05
-5.50396e-05
-0.000293017
8.69148e-05
-3.44581e-05
-0.000223919
-1.87592e-05
-5.23417e-05
0.000724602
0.000136495
-2.78372e-05
-0.00229229
8.70654e-05
1.41774e-05
-0.000285236
1.5587e-05
6.18034e-05
-0.000939754
-0.00168167
-9.94318e-05
-0.00235126
-0.00180441
0.000212623
-0.00271839
-0.00181654
0.000114513
-0.00211784
-0.00122837
0.000288626
-0.00318597
-0.00172899
0.000209056
-0.00262866
-0.00160276
0.000177322
-0.00231307
-0.00113018
0.000230938
-0.00365575
-0.00110991
0.000263624
-0.00357111
-0.00171227
0.000166164
-0.00295024
-0.00150755
-3.89038e-06
-0.00252961
-0.000768815
0.000376193
-0.00430725
-0.000982247
0.00030028
-0.00406338
-0.000956441
0.000125441
-0.00405787
-0.00139319
4.64997e-05
-0.00352277
-0.00145506
6.7049e-05
-0.00337237
-0.000396696
0.000574224
-0.00471797
-0.000637521
0.000331994
-0.00457773
-0.000772219
0.000167621
-0.00446085
-0.000925552
8.28826e-06
-0.00438754
-0.00127365
-1.9175e-05
-0.00440726
-0.00133783
-0.000159763
-0.00368958
-8.24287e-05
0.000813426
-0.00529868
-0.000264485
0.000651784
-0.00524175
-0.000539715
0.000447579
-0.00515002
-0.000582681
0.000217054
-0.00475876
-0.000913199
-4.96114e-05
-0.00457655
-0.00114452
-0.000134998
-0.0045887
-0.00136907
-0.000187307
-0.00423765
0.000164665
0.000942924
-0.00607266
0.000213572
0.000753236
-0.00596285
-3.92792e-05
0.000643704
-0.00584871
-0.000228769
0.000454253
-0.00529561
-0.000133786
0.000216326
-0.0051653
-0.000584754
8.46751e-06
-0.00481544
-0.00100038
-7.99442e-05
-0.00508506
-0.00148659
-3.84849e-05
-0.00402413
0.000123771
0.00139917
-0.00669584
0.000240239
0.00111546
-0.00644316
0.000116508
0.00086836
-0.00657304
0.000354372
0.000744397
-0.00637189
0.000222512
0.000556061
-0.00612405
-3.14457e-05
0.000392216
-0.00575081
-0.000521868
0.000166521
-0.00538044
-0.00092682
0.000148716
-0.00517437
-0.00150067
0.000151316
-0.00433017
0.000353854
0.00154013
-0.00702368
0.000339474
0.00131165
-0.00719396
0.000812932
0.00109558
-0.00754236
0.00055979
0.00110257
-0.00722343
0.000496405
0.00103861
-0.00735498
0.000366625
0.00107714
-0.00687822
0.000285999
0.001042
-0.00635671
-0.000495469
0.000584136
-0.00573474
-0.00108589
8.4663e-05
-0.00519919
-0.00132701
8.98692e-05
-0.00479714
0.000281017
0.00129848
-0.00681795
0.000169392
0.00118907
-0.00725963
0.000499388
0.00104065
-0.00736195
0.000494628
0.00106005
-0.00748208
0.000513247
0.00112079
-0.00773358
0.000652586
0.00117403
-0.00725151
0.000628541
0.00132694
-0.00648139
0.000303331
0.0012746
-0.00646325
-0.000336444
0.000828513
-0.00638338
-0.000976852
0.000518867
-0.00552089
-0.00118088
0.00028588
-0.00494497
0.000254528
0.000745657
-0.0055964
3.08798e-05
0.000764204
-0.00597787
0.000498082
0.000671125
-0.00655739
0.00053204
0.000702629
-0.00730995
0.000469963
0.000847243
-0.00726855
0.000776467
0.000955083
-0.00721614
0.000853181
0.00114423
-0.00719481
0.00114126
0.00108368
-0.00809341
0.000980355
0.000925761
-0.00876065
0.000898406
0.000977209
-0.00914874
-0.00101266
0.000729315
-0.00715992
-0.00078746
0.000533143
-0.00528531
0.000311024
-5.11457e-05
-0.00307245
0.000363075
-1.24135e-05
-0.00399819
-6.54174e-05
-5.18306e-05
-0.00468963
0.000209884
0.000202058
-0.00571893
0.000254633
0.000496192
-0.00747144
0.000565519
0.000443795
-0.00722416
0.000561006
0.000733668
-0.00741408
0.000831991
0.000527987
-0.00751858
0.000810165
0.000883144
-0.00853909
0.000706056
0.000850608
-0.00880173
0.000721962
0.00082538
-0.0089026
-7.12856e-06
0.00078377
-0.00869384
0.000186955
0.000330514
-0.00677522
0.000436049
-0.00022619
-0.00205255
0.000239403
-0.000162787
-0.00194632
-9.49795e-07
-0.000128534
-0.00242379
-0.000296603
1.54644e-05
-0.00188427
-0.000216716
3.4068e-05
-0.00232037
0.000104976
-0.000293794
-0.00263201
0.000191736
-0.000434932
-0.00367783
0.000327549
-0.000155441
-0.00394525
0.000351805
0.000195808
-0.00317338
0.000753999
0.000235303
-0.00461251
0.000741033
0.000257817
-0.00821139
0.000721164
0.000609166
-0.00780328
0.000365016
0.00043367
-0.00862073
0.000180034
0.000280491
-0.00966866
0.000375208
-0.000283334
-0.00190905
0.000254711
-0.00018393
-0.00193282
2.90257e-05
-0.000101049
-0.00184854
-2.21542e-05
-8.36595e-05
-0.00194608
-0.000119948
-5.54383e-05
-0.00148295
-0.000144364
-9.94892e-05
-0.000308675
-6.96114e-05
-5.67939e-05
0.000465117
-1.57908e-05
1.83798e-05
0.000557402
-8.44626e-06
-5.64234e-05
0.00122042
0.000132186
-0.000180127
0.00302938
0.000276001
-0.000167773
0.00307386
5.10187e-05
-0.000328856
-0.00171828
0.000640937
-0.000416747
-0.00400791
0.000386062
-0.00012645
-0.00434426
0.000298365
-2.8117e-06
-0.00780245
0.00012304
-8.68678e-05
-0.000695865
0.000114435
-9.40662e-05
-0.00145758
6.34548e-05
-7.02169e-05
-0.00146522
1.56757e-05
-6.14612e-05
-0.000938608
2.39361e-05
-6.61755e-05
-0.000634587
4.09053e-05
-5.98613e-05
-0.000961935
1.99011e-05
-5.88764e-05
-0.000722431
7.36028e-06
-5.9269e-05
-0.000650773
7.22532e-05