/*--------------------------------*- C++ -*----------------------------------*\
  =========                 |
  \\      /  F ield         | OpenFOAM: The Open Source CFD Toolbox
   \\    /   O peration     | Website:  https://openfoam.org
    \\  /    A nd           | Version:  7
     \\/     M anipulation  |
\*---------------------------------------------------------------------------*/
FoamFile
{
    version     2.0;
    format      ascii;
    class       volVectorField;
    location    "5.5";
    object      U;
}
// * * * * * * * * * * * * * * * * * * * * * * * * * * * * * * * * * * * * * //

dimensions      [0 1 -1 0 0 0 0];

internalField   nonuniform List<vector> 
18750
(
(-0.677089 0.675809 0.508657)
(1.12253 -4.75729 0.161899)
(-0.328343 0.155844 -0.072247)
(-0.503189 0.675844 0.618783)
(5.95997 0.746305 0.720463)
(-0.028049 -2.78451 0.577264)
(0.833941 -5.3097 -0.1889)
(0.33163 -2.16176 -0.984453)
(-0.288342 0.0591501 -0.0517342)
(-0.36941 0.659155 0.719454)
(6.63913 3.39481 -0.453531)
(3.67575 -4.87024 3.01488)
(5.41043 -0.680915 1.01032)
(-0.379213 -0.029343 -0.455638)
(0.235848 -2.39907 -0.40286)
(0.801707 -5.31179 -0.421703)
(-0.05747 -0.580733 -0.1957)
(0.240825 -2.48766 -0.792391)
(-0.263266 -0.0420459 -0.00634587)
(-0.209617 0.638501 0.86115)
(5.62138 2.96558 -0.812366)
(5.93438 -1.19164 3.92399)
(6.71011 3.18669 -0.440165)
(2.12009 -1.03759 2.22588)
(3.27433 -5.23511 3.39411)
(4.68718 -2.26097 1.19214)
(-0.31795 1.15068 0.572085)
(-0.35559 0.0414686 -0.957512)
(0.477611 -2.09 -1.31207)
(0.700418 -5.17569 -0.728099)
(-0.250557 -0.495092 -0.691741)
(-0.102383 -0.633675 -0.265864)
(0.134912 -2.72233 -0.549013)
(-0.267875 -0.142645 0.0700701)
(-0.0556062 0.633926 1.01886)
(4.44249 2.22007 -0.232406)
(6.00234 -3.6022 3.44117)
(6.0501 2.46504 -1.03268)
(4.43905 -4.05628 1.43967)
(5.79947 -2.34876 3.28465)
(6.68673 2.27379 -0.35794)
(1.17763 -0.892688 -0.62186)
(1.87431 -2.86085 1.63209)
(3.1639 -5.13853 3.36144)
(4.0412 -3.66914 1.1627)
(-1.37717 1.62325 0.388309)
(-0.202785 1.26453 0.425317)
(-0.190751 0.188243 -1.50424)
(0.73765 -1.84699 -2.32705)
(0.629004 -4.98644 -0.747472)
(0.00827618 -0.276065 -0.365133)
(-0.318274 -0.615371 -0.721378)
(-0.164229 -0.708516 -0.345098)
(0.0569082 -2.78758 -0.308011)
(-0.271779 -0.200374 0.152552)
(0.105054 0.650141 1.18547)
(3.66399 1.87906 0.146823)
(5.91456 1.03125 -0.0800198)
(4.5422 2.05028 -0.192095)
(5.49568 -3.07608 2.98976)
(6.1062 -3.15677 3.67096)
(6.52815 1.46119 -1.07736)
(3.91222 -2.33317 3.07839)
(4.54122 -4.43085 0.797569)
(5.59739 -3.24029 2.93857)
(6.34306 1.36639 -0.139887)
(2.63403 -0.0370475 -2.3985)
(1.02875 -0.915924 -0.232356)
(1.64582 -4.14328 1.10704)
(2.83107 -5.91958 2.85305)
(3.01946 -5.50297 1.00239)
(-1.10461 0.913497 -1.10816)
(-1.45472 1.6412 0.259764)
(-0.0495826 1.40816 0.297921)
(0.116542 0.417222 -1.96369)
(0.908584 -1.91344 -2.73526)
(0.665396 -5.23584 -0.260359)
(0.126087 -1.1292 -0.804368)
(-0.0337428 -0.379713 -0.370453)
(-0.395708 -0.745464 -0.757955)
(-0.249118 -0.800465 -0.424478)
(-0.00331647 -2.66598 0.0876174)
(-0.256577 -0.223433 0.252739)
(0.295714 0.692898 1.35859)
(3.40301 1.61336 -0.0882753)
(4.07371 0.751169 -0.303329)
(3.72956 1.79398 0.192334)
(5.34452 -1.28153 1.83413)
(5.76588 0.712906 -0.271624)
(4.59281 1.70517 -0.0288197)
(4.91463 -2.93391 3.17705)
(4.76633 -4.20308 2.59878)
(6.0642 -3.51707 3.50514)
(6.76435 0.957896 -0.77821)
(3.9391 -1.77417 1.79438)
(4.26121 -2.48577 3.33223)
(4.31296 -4.71595 0.911888)
(5.51457 -4.37727 2.63742)
(5.55051 -0.152934 0.371614)
(2.39417 0.78379 -0.752673)
(2.92353 -0.0910413 -1.6184)
(1.12497 -1.42624 2.18011)
(1.5787 -4.95483 0.910544)
(2.46523 -6.64679 2.54117)
(2.76378 -5.72993 0.85967)
(-0.373568 0.900754 -1.11248)
(-1.21627 0.945205 -1.16269)
(-1.55665 1.6814 0.140592)
(0.183955 1.5092 0.110703)
(0.463273 0.458101 -2.47141)
(0.834499 -2.5495 -2.52032)
(0.457654 -5.76852 -0.0848376)
(0.0631374 -0.957112 -1.63401)
(0.0394242 -1.24529 -0.911056)
(-0.086066 -0.488613 -0.375946)
(-0.483107 -0.87778 -0.79851)
(-0.35003 -0.884982 -0.498944)
(0.0294622 -2.40415 0.367243)
(-0.209935 -0.211776 0.358049)
(0.506978 0.73276 1.52268)
(2.89862 1.91364 0.0106317)
(3.74334 1.4375 0.365651)
(3.45971 1.43289 -0.0638337)
(4.66995 -0.0774572 0.554121)
(4.17683 0.891418 -0.205116)
(3.8708 1.5558 0.173034)
(5.28008 -1.87192 2.07365)
(5.16844 -1.75614 1.95682)
(5.48343 0.403993 -0.361018)
(4.61208 1.49197 0.0586375)
(4.84585 -2.36001 2.22008)
(4.37835 -3.78812 3.44227)
(4.74405 -4.1397 2.68044)
(4.54622 -5.33681 2.47262)
(6.5778 -0.105097 0.20984)
(3.49331 -0.530395 1.73213)
(3.8909 -2.81031 1.79488)
(4.78518 -2.6395 3.22102)
(4.46035 -4.24966 2.70628)
(5.52974 -4.67467 2.32731)
(4.54377 -1.71595 0.956562)
(1.78956 1.21857 -0.177087)
(2.6156 0.644142 -1.36182)
(2.81476 -0.583542 -0.360121)
(0.764194 -2.59912 3.14081)
(1.6318 -5.54448 0.966283)
(2.59793 -6.2587 2.58838)
(2.78577 -5.53073 0.85667)
(0.121769 1.019 -0.520264)
(-0.426619 1.00571 -1.12087)
(-1.31958 0.988623 -1.23147)
(-1.65863 1.719 0.0963128)
(0.516497 1.6951 -0.0322564)
(0.618172 -0.0230032 -3.08601)
(0.558492 -3.25308 -2.05588)
(0.300401 -5.99679 -0.104102)
(0.367632 -0.165351 -1.19833)
(-0.00254801 -1.03791 -1.70967)
(-0.0604339 -1.35748 -1.02865)
(-0.149814 -0.601286 -0.380039)
(-0.577753 -1.00505 -0.841103)
(-0.463876 -0.933101 -0.57414)
(0.137363 -2.05019 0.518135)
(-0.143021 -0.184881 0.460328)
(0.727459 0.744239 1.66007)
(2.86527 1.16598 -0.231543)
(3.43532 0.781921 0.0389734)
(3.04965 1.69056 0.0362581)
(3.94152 0.67762 -0.218147)
(3.73335 1.41996 0.10266)
(3.51023 1.27406 -0.0830939)
(4.91477 -1.12952 1.04066)
(4.71651 -0.486182 0.619019)
(4.17009 1.03508 -0.162762)
(3.90791 1.41287 0.136633)
(5.4131 -1.11108 1.96236)
(4.8962 -2.1187 2.33836)
(4.97719 -2.45927 2.15769)
(4.91175 0.121085 0.0479672)
(4.69159 1.31779 0.132429)
(4.9514 -1.00525 1.6264)
(4.39311 -2.57184 2.60816)
(4.30947 -4.26783 3.12675)
(4.48746 -4.87293 2.49228)
(5.42927 -3.6923 1.53854)
(6.12601 -0.981157 0.957549)
(3.07544 -1.56402 1.72393)
(3.57608 -1.78036 2.14648)
(3.9797 -2.67952 2.26144)
(4.67871 -4.15149 2.38238)
(4.49395 -4.437 3.45243)
(5.70886 -4.36683 1.54175)
(3.66487 -2.83536 1.16129)
(1.43888 0.984146 0.60968)
(2.07402 1.13037 -1.04841)
(2.756 0.478474 -1.71279)
(2.44607 -1.05101 0.578489)
(0.949732 -3.20168 3.6719)
(1.84356 -5.86968 1.40344)
(2.41485 -6.08696 2.0937)
(2.9214 -5.28215 0.880543)
(0.531619 0.62252 -0.491005)
(0.0784244 1.05308 -0.360022)
(-0.473428 1.11258 -1.13797)
(-1.42254 1.02939 -1.28998)
(-1.67267 1.81035 -0.129517)
(1.0456 2.11045 -0.200902)
(0.392629 -1.08098 -3.6817)
(0.268781 -3.56264 -1.72986)
(0.287601 -5.95977 0.0907685)
(0.378072 -0.376154 -1.55481)
(0.345408 -0.182042 -1.183)
(-0.0749903 -1.12107 -1.79558)
(-0.171231 -1.46595 -1.15706)
(-0.223666 -0.711837 -0.381741)
(-0.676328 -1.12202 -0.885947)
(-0.562669 -0.868509 -0.660275)
(0.313814 -1.70336 0.577475)
(-0.0655497 -0.144351 0.560913)
(0.940351 0.721746 1.77041)
(2.66775 1.01941 -0.249325)
(3.08006 0.873301 -0.118776)
(3.04267 0.949433 -0.228458)
(3.45222 0.507095 -0.0827661)
(3.53676 0.822535 0.0539613)
(3.12251 1.45189 0.064398)
(4.17935 -0.429662 0.457738)
(3.89547 -0.235992 0.18535)
(3.7563 1.09052 0.131573)
(3.56165 1.00891 -0.140558)
(4.92084 -1.08678 1.44054)
(4.71061 -1.34528 1.21677)
(4.69376 -0.380522 0.669412)
(3.94774 1.33235 -0.0763768)
(3.94194 1.06311 0.178528)
(5.34653 -0.988959 2.00658)
(5.2161 -1.64153 2.03228)
(4.59143 -2.70653 2.59556)
(4.42989 -3.00683 1.7555)
(4.53625 -0.657178 0.27397)
(4.7341 1.22465 0.188518)
(4.48671 -0.700869 2.16543)
(4.67328 -1.97934 1.99386)
(3.9705 -3.21342 2.82968)
(4.24565 -4.39693 2.94574)
(3.67365 -5.41121 2.20473)
(4.9919 -3.82178 0.819785)
(5.80272 -1.37243 1.24862)
(3.62765 -0.898767 2.2305)
(3.50194 -1.57914 2.1132)
(3.79658 -2.28054 1.84195)
(4.40053 -1.99977 3.07273)
(4.46311 -4.75321 2.51146)
(4.04617 -5.07765 2.77568)
(5.51765 -4.21723 1.30767)
(2.98686 -3.39947 1.06614)
(1.16389 1.06896 0.317067)
(1.71895 0.854751 -0.592153)
(2.17077 0.809019 -1.25886)
(2.71554 0.171829 -1.68567)
(1.98059 -1.59949 1.40472)
(0.700733 -4.6882 2.45919)
(1.46989 -6.29248 1.44218)
(2.36412 -5.95772 1.69785)
(2.9309 -5.25271 0.775284)
(0.87982 0.0769272 -0.997553)
(0.457332 0.634432 -0.408098)
(0.0400523 1.09907 -0.0983988)
(-0.463376 1.20581 -1.16581)
(-1.49619 1.09632 -1.36148)
(-1.71939 1.83617 -0.0746178)
(1.82309 2.70132 -0.40683)
(-0.0485731 -2.45692 -4.00937)
(0.0638962 -3.79906 -1.31656)
(0.271588 -6.03427 0.050845)
(0.408921 -0.753717 -1.73406)
(0.361129 -0.362773 -1.48317)
(0.32754 -0.22502 -1.17919)
(-0.154086 -1.20542 -1.89013)
(-0.291778 -1.55809 -1.29751)
(-0.305096 -0.81628 -0.380608)
(-0.777119 -1.22245 -0.930124)
(-0.62921 -0.710568 -0.74959)
(0.517709 -1.43479 0.543425)
(0.0207652 -0.108421 0.650991)
(1.13157 0.669722 1.85125)
(2.24844 0.866373 0.0873507)
(2.84067 1.2973 0.109407)
(2.67097 1.05326 -0.375289)
(3.01885 0.706766 0.16304)
(3.1569 1.00958 -0.0669581)
(3.08124 1.03436 -0.19534)
(3.62972 -0.236241 0.206347)
(3.46909 0.388154 -0.0454688)
(3.56045 0.709177 0.040369)
(3.22835 1.20761 0.0635368)
(4.14504 -0.428887 0.69759)
(4.07046 -0.62756 0.410556)
(3.77022 0.0511042 -0.115752)
(3.88981 0.11679 0.176233)
(3.56401 0.913681 -0.22921)
(4.90072 -1.20478 1.46539)
(4.7428 -1.52279 1.44351)
(4.40074 -1.93752 1.49256)
(4.50058 -0.39788 0.780314)
(4.02617 -0.96967 -0.633066)
(3.91884 0.746125 0.200582)
(4.79732 -1.32588 1.95051)
(5.11754 -1.78835 1.98736)
(4.95888 -1.89999 2.33407)
(3.87341 -3.30295 2.98184)
(3.8811 -2.94018 1.77689)
(4.18709 -0.664417 0.578278)
(4.73711 1.01725 0.299795)
(4.61302 -1.46194 1.59493)
(4.54219 -1.33104 2.08007)
(4.37152 -2.52481 2.01102)
(3.66214 -3.68503 3.19799)
(3.9345 -4.93653 2.26868)
(4.23031 -4.36306 2.83332)
(5.42977 -2.33514 1.15117)
(5.37371 -1.89088 1.46829)
(4.03479 -0.287395 1.7586)
(4.06144 -0.640872 2.39098)
(3.5878 -1.94668 1.93675)
(3.73181 -2.37767 1.81613)
(4.4095 -2.80657 2.96148)
(4.35028 -4.79118 2.75631)
(3.84622 -5.6782 2.67614)
(4.89454 -4.27174 1.73288)
(2.4923 -3.93693 0.806988)
(1.76454 1.48381 0.146531)
(1.22917 0.997802 0.371977)
(1.78612 0.119294 -1.34283)
(2.1879 -0.335745 -1.67136)
(2.41325 -0.529192 -1.34659)
(1.40228 -2.43513 2.3157)
(0.60043 -5.67653 1.60133)
(1.42401 -6.42483 1.83225)
(2.39782 -5.78591 1.84692)
(3.00529 -5.21084 0.631433)
(1.33303 -0.439894 -0.591179)
(0.753947 0.0217267 -0.991986)
(0.361836 0.614767 -0.347581)
(0.048286 1.0843 0.0750309)
(-0.432545 1.25714 -1.22505)
(-1.59745 1.11943 -1.41301)
(-1.67168 1.91003 -0.234205)
(2.66206 3.23693 -0.65651)
(-0.462211 -3.44092 -4.11742)
(-0.066195 -3.86371 -1.0958)
(0.313613 -6.22003 -0.00879779)
(0.35028 -0.0825286 -1.79233)
(0.38972 -0.75949 -1.62602)
(0.343987 -0.359717 -1.41408)
(0.301896 -0.277522 -1.17741)
(-0.240457 -1.29229 -1.99109)
(-0.419347 -1.63227 -1.44918)
(-0.393497 -0.910441 -0.377776)
(-0.875661 -1.30477 -0.974829)
(-0.698292 -0.538183 -0.839977)
(0.697553 -1.279 0.436099)
(0.117969 -0.0840852 0.723176)
(1.29693 0.588178 1.90146)
(1.85222 0.973344 0.0881587)
(2.61201 0.818078 0.0821584)
(2.42049 0.51883 0.128819)
(3.07693 0.509304 0.0043807)
(2.96223 1.07565 0.106741)
(2.81843 0.700536 -0.5048)
(3.1721 0.424461 0.125005)
(3.17424 0.215435 0.202434)
(3.25948 0.766928 -0.0468043)
(3.19916 0.699507 -0.103253)
(3.71697 -0.134899 0.527572)
(3.64136 -0.278634 0.233755)
(3.49615 0.321083 -0.0380967)
(3.51215 0.460635 0.0145791)
(3.29993 1.1012 0.00399238)
(4.31049 -0.727063 0.855444)
(4.17401 -0.503975 0.712275)
(3.73659 -1.01257 0.43229)
(3.69336 -0.187099 -0.0750717)
(3.7018 0.675599 0.29272)
(3.63076 0.725987 -0.28805)
(4.86002 -1.27665 1.64949)
(4.85708 -1.49978 1.51844)
(4.61965 -1.85828 1.49357)
(4.33641 -2.06454 1.50229)
(4.39215 -0.707442 0.714449)
(3.97963 0.74325 -0.041751)
(3.88237 0.39931 0.220533)
(4.65036 -1.60473 1.75799)
(4.84649 -1.85003 1.78694)
(4.89409 -2.13531 2.05744)
(4.06323 -2.93871 2.89407)
(3.89583 -3.22038 2.52663)
(4.00581 -2.58938 1.8032)
(4.1229 -0.532609 0.569509)
(4.6777 0.658062 0.328043)
(4.20652 -1.53668 1.06671)
(4.46874 -1.7839 2.21904)
(4.42406 -2.07167 2.05726)
(4.14132 -2.55589 2.33968)
(3.6359 -3.85338 3.09385)
(3.93728 -4.87737 2.33227)
(3.94809 -4.80852 2.39638)
(5.46147 -1.71031 1.09655)
(4.97205 -1.64192 0.958822)
(3.67387 -0.166854 0.166843)
(4.06368 -0.110693 2.55099)
(4.06224 -1.56426 1.92094)
(3.52604 -3.13423 0.277884)
(3.65517 -2.3036 2.25361)
(3.95233 -4.29583 2.45927)
(4.31787 -4.60331 3.05215)
(3.42622 -5.93336 2.97332)
(4.61274 -4.33979 1.89866)
(1.21077 -5.38891 0.419254)
(1.80816 1.51249 -0.386405)
(1.69587 1.39523 0.222654)
(1.31006 0.960029 0.0261639)
(1.78999 -0.622186 -1.94444)
(2.18363 -0.789062 -1.60286)
(2.00228 -0.993166 -0.770958)
(1.25496 -2.83115 2.61156)
(1.05949 -5.81665 2.6044)
(1.42304 -6.44339 2.25267)
(2.45776 -5.66904 2.07466)
(3.61048 -5.05067 0.0336091)
(1.3256 -0.467986 -0.548272)
(1.21694 -0.456198 -0.541761)
(0.634217 0.040686 -0.959845)
(0.254746 0.596784 -0.274662)
(0.0632991 1.04825 0.161865)
(-0.322174 1.36768 -1.1894)
(-1.60616 1.17868 -1.4795)
(-1.60097 1.95326 -0.432779)
(3.37837 3.40278 -1.09696)
(-0.669665 -3.96029 -3.69807)
(-0.259524 -3.94005 -0.731257)
(0.0642242 -6.2273 -0.0200264)
(0.542708 -0.194846 -1.54001)
(0.337868 -0.219595 -1.73209)
(0.376565 -0.743392 -1.52277)
(0.322146 -0.381187 -1.35298)
(0.247199 -0.379248 -1.19375)
(-0.332157 -1.378 -2.09496)
(-0.551007 -1.68855 -1.60861)
(-0.484574 -0.992394 -0.373885)
(-0.965461 -1.36672 -1.02189)
(-0.792911 -0.401292 -0.936747)
(0.806331 -1.22373 0.330267)
(0.208174 -0.0738627 0.783184)
(1.41689 0.461808 1.91689)
(1.62882 0.95201 0.167778)
(2.16434 0.879184 0.0895979)
(1.88866 0.91353 0.121294)
(2.75976 0.607905 0.0166971)
(2.6795 0.753013 -0.00667946)
(2.44706 0.563716 0.109112)
(2.96367 0.293951 0.314408)
(3.03984 -0.0268437 -0.103146)
(3.0505 0.708873 0.119142)
(2.79987 0.723222 -0.567103)
(3.36638 0.202062 0.449336)
(3.20335 0.237613 0.0876485)
(3.25747 0.112308 0.161539)
(3.29145 0.227446 -0.0610645)
(3.21936 0.605808 -0.0826466)
(3.84481 -0.336505 0.77953)
(3.80475 -0.47214 0.472935)
(3.5485 0.16662 0.179314)
(3.45689 0.0081849 -0.0264406)
(3.58699 -0.0478066 0.0101784)
(3.3425 0.95696 -0.0721427)
(4.30293 -0.808791 1.26621)
(4.1964 -1.22163 0.829269)
(3.80572 -1.65694 0.779722)
(3.46027 -1.62442 0.509105)
(3.64045 -0.533098 -0.0938688)
(3.74298 -0.34988 0.277657)
(3.62905 0.722078 -0.232919)
(4.60784 -1.08581 1.79801)
(4.56753 -1.74942 1.73792)
(4.47956 -2.06324 1.55384)
(4.53537 -2.0427 1.55692)
(4.27526 -2.0999 1.31068)
(4.38951 -1.0416 0.690034)
(3.92878 -0.306989 -0.30507)
(3.84926 0.0944493 0.243306)
(4.82722 -1.24228 1.80231)
(4.56077 -1.79118 1.93659)
(4.72318 -2.2648 1.92469)
(4.65111 -2.55781 2.27264)
(4.00799 -2.78059 2.59175)
(3.73236 -3.56557 2.44261)
(3.76188 -3.05529 1.65436)
(4.18176 -0.692477 0.634139)
(4.53994 0.137827 0.418396)
(3.81442 -0.271024 1.8421)
(4.2879 -2.22476 1.2383)
(4.56649 -1.87208 1.98474)
(4.32371 -2.22358 1.96029)
(3.76285 -3.15556 2.53925)
(3.62254 -3.97652 2.89213)
(3.93454 -4.93069 2.42123)
(4.64727 -4.09317 2.62551)
(5.19482 -1.78731 0.963544)
(3.76444 -2.96279 1.51702)
(2.88762 -0.886198 0.682355)
(3.6593 -0.461457 0.659536)
(4.00274 -1.31775 2.31313)
(3.89558 -3.1289 0.871258)
(3.58435 -2.63006 1.89834)
(3.78191 -2.57838 2.51869)
(3.62957 -4.64039 2.6273)
(4.00814 -4.64777 3.21392)
(3.44954 -5.62875 3.12057)
(4.13967 -4.65142 1.96123)
(0.863368 -5.58255 0.337267)
(1.63839 0.254849 -0.385256)
(1.80855 1.50122 -0.144472)
(1.68086 1.38863 0.168415)
(1.55528 0.825395 -0.991306)
(2.00531 -0.731298 -1.95528)
(2.11282 -1.21589 -1.15365)
(1.69411 -1.2411 -0.205781)
(1.20418 -2.98652 2.70679)
(1.43467 -5.98263 2.9956)
(1.40345 -6.21705 2.62851)
(2.44672 -5.70322 2.09036)
(3.6492 -5.32113 0.715464)
(1.122 -0.392544 -0.706858)
(1.29324 -0.426193 -0.570401)
(1.07737 -0.51134 -0.502022)
(0.503521 -0.0462311 -0.971818)
(0.159057 0.600504 -0.185875)
(0.0746171 0.993554 0.173648)
(-0.268098 1.36914 -1.17464)
(-1.64063 1.22371 -1.525)
(-1.54449 1.93059 -0.479349)
(3.62756 3.02096 -1.85995)
(-0.795939 -4.25384 -2.89208)
(-0.280288 -3.92437 -0.606522)
(0.398115 -6.01589 0.0485606)
(0.792108 -0.794405 -1.33854)
(0.538284 -0.266029 -1.52939)
(0.311141 -0.331767 -1.64186)
(0.368011 -0.715964 -1.43082)
(0.297907 -0.427715 -1.30604)
(0.214139 -0.448938 -1.2287)
(-0.427502 -1.45874 -2.19774)
(-0.683799 -1.72561 -1.77264)
(-0.574425 -1.05561 -0.371922)
(-1.03518 -1.39455 -1.07317)
(-0.927965 -0.346309 -1.0246)
(0.916442 -1.22385 0.0549875)
(0.282757 -0.0693949 0.829759)
(1.49148 0.332745 1.90911)
(1.60229 1.11757 0.10113)
(1.9463 0.964215 0.0809978)
(1.69029 0.763928 0.212581)
(2.36136 0.615376 0.159114)
(2.11429 0.920102 0.0698688)
(1.96462 0.752131 -0.0978996)
(2.77958 0.784798 0.0797289)
(2.69932 0.488699 -0.0188793)
(2.64896 0.806935 -0.0481871)
(2.45666 0.484228 0.151587)
(3.07275 0.28923 0.325753)
(2.96278 -0.0730911 0.251049)
(2.98976 0.272465 -0.0441888)
(3.138 0.169479 0.148946)
(2.84034 0.585018 -0.42794)
(3.36894 -0.400054 0.628551)
(3.38326 -0.123027 0.37217)
(3.28248 -0.0329221 0.0510173)
(3.22817 0.00773529 -0.0242703)
(3.26385 -0.0952198 -0.0890471)
(3.20074 0.213841 -0.169986)
(3.66766 -0.568502 0.906369)
(3.70873 -0.681427 0.782425)
(3.60286 -0.694312 0.562132)
(3.30841 -0.972243 0.0317798)
(3.35731 -0.271367 -0.0228362)
(3.58631 -0.121046 -0.0477179)
(3.35995 0.597785 -0.145198)
(4.31164 -0.710514 1.55116)
(4.31294 -0.83413 1.1861)
(4.21781 -0.714274 0.956537)
(3.66345 -1.58362 0.676539)
(3.55121 -1.39118 0.463664)
(3.61828 -0.803359 -0.204393)
(3.70659 -0.192328 0.507273)
(3.60702 0.290638 -0.156303)
(4.63255 -1.06383 1.97252)
(4.54153 -1.76999 1.66933)
(4.32894 -1.99503 1.69494)
(4.28503 -2.33886 1.67738)
(4.23222 -2.35689 1.63795)
(3.76368 -2.44274 1.42332)
(3.97518 -1.71637 0.628762)
(3.91533 -0.375299 -0.171073)
(3.78927 -0.306215 0.191396)
(4.42545 -1.30927 2.0869)
(4.61942 -1.90132 1.72638)
(4.49999 -2.00192 1.91774)
(4.54796 -2.48678 2.1749)
(4.53502 -2.37981 2.47092)
(3.29835 -3.74005 2.43336)
(2.01855 -4.6724 2.40946)
(1.74249 -4.61857 1.18383)
(4.04456 -0.954978 0.670793)
(4.36919 -0.154707 0.46738)
(3.7702 -0.139887 2.00077)
(4.06016 -1.23973 1.12361)
(4.33833 -2.29427 1.70619)
(4.47323 -2.12382 1.93483)
(3.98386 -2.71669 2.17168)
(3.37054 -3.79392 2.82495)
(3.3568 -4.84349 2.18779)
(3.64846 -5.03078 2.48193)
(3.87206 -4.68661 2.56042)
(4.6465 -2.8096 1.04254)
(3.83302 -1.95285 0.991304)
(2.27804 -1.47834 0.414333)
(2.9911 -0.711136 0.3326)
(3.50555 -1.1998 1.09412)
(4.03106 -1.59467 2.16228)
(3.74567 -3.67088 0.825471)
(3.80999 -2.19929 2.84751)
(3.43282 -3.93392 1.82552)
(3.54419 -4.82591 2.60803)
(3.9037 -4.82025 2.93354)
(3.14016 -5.66387 2.94566)
(3.92752 -4.52008 2.01876)
(0.954975 -5.29413 0.327399)
(1.07755 -1.23445 -0.396747)
(1.70529 0.207879 -0.413429)
(1.77578 1.45223 0.105597)
(1.8728 1.31558 -0.0076876)
(1.65903 0.363695 -1.61004)
(2.14002 -1.01233 -1.67881)
(1.92791 -1.59724 -0.715748)
(1.52996 -1.45882 0.245638)
(0.913463 -3.54925 2.18741)
(1.64548 -6.09775 2.50977)
(1.30939 -6.02938 2.7995)
(2.26323 -5.86306 1.80023)
(3.4809 -5.62221 0.592149)
(1.06057 -1.04817 -1.11752)
(1.15983 -0.329288 -0.613712)
(1.28486 -0.450795 -0.592583)
(0.94697 -0.565692 -0.465714)
(0.321404 -0.190307 -0.997328)
(0.0828527 0.634659 -0.0579897)
(0.0739124 0.928686 0.168267)
(-0.18814 1.34635 -1.14031)
(-1.62688 1.25221 -1.54514)
(-1.43328 1.90582 -0.584019)
(3.17776 1.90529 -3.00421)
(-0.875351 -4.28401 -2.50776)
(-0.32618 -3.93368 -0.480329)
(0.46395 -5.93007 0.0305823)
(0.776628 -1.11958 -1.9698)
(0.788252 -0.764726 -1.27698)
(0.506477 -0.426042 -1.48699)
(0.284259 -0.41029 -1.52695)
(0.361506 -0.694971 -1.35372)
(0.267327 -0.49126 -1.27555)
(0.160176 -0.541635 -1.2765)
(-0.521165 -1.5282 -2.29366)
(-0.812615 -1.74258 -1.93679)
(-0.655505 -1.09518 -0.373678)
(-1.06089 -1.37204 -1.13329)
(-1.08656 -0.344508 -1.08525)
(0.918256 -1.30318 -0.179373)
(0.347787 -0.0704452 0.863909)
(1.52345 0.172322 1.8734)
(1.61513 0.891034 -0.0508733)
(1.93152 0.940893 0.0130761)
(1.61408 1.0649 0.129802)
(2.16189 0.699692 0.260152)
(1.92759 0.913924 0.0553027)
(1.70307 0.697789 0.196363)
(2.43176 0.609987 0.211724)
(2.39763 0.405792 0.120001)
(2.11857 0.935138 0.105811)
(1.98559 0.779443 -0.0845568)
(2.8535 0.346155 0.316494)
(2.79169 0.356514 0.1437)
(2.71622 0.328546 0.0726541)
(2.58788 0.528151 -0.116957)
(2.45222 0.283846 0.236364)
(3.09122 0.0271765 0.475602)
(3.03968 -0.00185482 0.16662)
(2.99858 -0.0899136 0.154745)
(3.07086 0.148826 -0.103213)
(3.16464 0.126772 0.0741175)
(2.83672 0.45035 -0.176178)
(3.40261 -0.399539 0.724368)
(3.40145 -0.362313 0.570455)
(3.41615 -0.251708 0.343098)
(3.18762 -0.450976 0.116772)
(3.12957 -0.243579 -0.129752)
(3.26844 -0.0695525 -0.127617)
(3.15598 -0.0265008 -0.199303)
(3.94139 -0.558149 1.06041)
(3.77696 -0.932813 0.748636)
(3.68883 -1.01718 0.717035)
(3.30868 -1.0076 0.457196)
(3.2043 -0.995393 0.120646)
(3.18703 -0.773019 -0.0384738)
(3.52096 -0.524831 -0.0902438)
(3.34331 0.397765 -0.0665966)
(4.3152 -0.694928 1.62379)
(4.15776 -1.27408 1.49744)
(4.24084 -1.07331 1.21241)
(3.77746 -1.98775 0.842373)
(3.63987 -1.65622 0.621817)
(3.46841 -1.56355 0.493141)
(3.54785 -0.965201 -0.102333)
(3.6718 -0.743799 0.587446)
(3.56026 0.0635379 -0.0767093)
(4.44274 -0.730065 2.36418)
(4.47461 -1.54275 1.84185)
(4.61957 -1.77219 1.74836)
(4.28044 -2.26649 1.67568)
(4.26551 -2.49585 1.64358)
(3.86591 -2.51741 1.7432)
(3.46066 -2.49094 1.52369)
(3.70952 -1.55623 0.646778)
(3.90725 -0.559795 -0.139867)
(3.71992 -0.456284 0.234596)
(4.24991 -0.820275 2.52936)
(4.59948 -0.917863 2.13267)
(4.43054 -2.11187 1.91859)
(4.36789 -2.27967 1.9973)
(4.49245 -2.63902 2.20484)
(3.82402 -3.32386 2.31992)
(3.15955 -3.54285 2.52634)
(3.10559 -3.46023 2.24411)
(4.45673 -2.24498 1.06052)
(4.07332 -0.880677 0.39433)
(4.19808 -0.352515 0.431208)
(3.65326 -0.890935 1.79995)
(3.84782 -0.220733 1.86283)
(3.75373 -2.10063 1.38785)
(4.17404 -2.39343 2.07682)
(4.21396 -2.49322 1.99253)
(3.30499 -4.08545 2.39105)
(3.13575 -4.16943 2.80302)
(3.1382 -5.0491 2.21553)
(3.38491 -5.35088 2.26258)
(4.01013 -4.7327 2.44926)
(5.33902 -0.96936 1.03918)
(3.32815 -1.8348 1.16996)
(1.99684 0.0450445 0.176987)
(2.32827 -1.49835 -0.177138)
(2.96542 -0.734812 0.159216)
(3.45584 -1.6188 1.63021)
(4.28977 -2.65975 0.556609)
(3.61496 -3.21964 2.32531)
(3.69868 -3.35092 1.68863)
(2.98462 -4.46082 2.24554)
(3.49634 -4.89434 2.65011)
(3.48352 -5.07853 2.80884)
(2.8909 -5.85249 2.71678)
(3.70892 -4.54852 1.92923)
(1.65824 -4.65265 0.395907)
(1.12584 -1.88019 -0.855089)
(1.09026 -0.978333 -0.68894)
(1.67313 0.11879 -0.257055)
(1.75116 1.38726 0.186824)
(2.01811 1.24644 0.000935732)
(1.68977 -0.260354 -2.10478)
(2.02081 -1.35392 -1.55366)
(1.73262 -2.14703 0.178734)
(1.06806 -2.112 1.22508)
(0.0647812 -4.72834 0.356718)
(1.69643 -6.11135 2.39351)
(1.30385 -6.10832 2.68919)
(1.85515 -6.03686 1.22084)
(3.37679 -5.71768 0.491908)
(1.04412 -1.65998 -1.76256)
(1.06806 -1.0609 -0.898661)
(1.17677 -0.287496 -0.621026)
(1.16974 -0.554325 -0.541059)
(0.828741 -0.640808 -0.428381)
(0.186375 -0.149021 -0.959798)
(0.00936996 0.633835 0.0289707)
(0.077288 0.861064 0.165571)
(-0.119816 1.28272 -1.07706)
(-1.58706 1.29552 -1.63269)
(-1.24785 1.84474 -0.736664)
(2.3852 0.73683 -3.76635)
(-1.0782 -4.45239 -2.0381)
(-0.473778 -4.02655 -0.241883)
(0.713023 -5.83252 0.0313607)
(0.313963 -1.33828 -2.10121)
(0.781292 -1.08738 -1.82872)
(0.789346 -0.74233 -1.22777)
(0.485164 -0.480444 -1.44948)
(0.261626 -0.454578 -1.40314)
(0.357062 -0.693203 -1.2966)
(0.235325 -0.540952 -1.25855)
(0.100215 -0.63452 -1.32641)
(-0.608231 -1.57769 -2.3753)
(-0.932976 -1.73959 -2.09531)
(-0.722043 -1.11156 -0.386009)
(-1.00107 -1.26601 -1.22177)
(-1.21778 -0.365102 -1.10032)
(0.838603 -1.44078 -0.312786)
(0.402094 -0.0803002 0.888058)
(1.50116 0.0170694 1.81808)
(1.4177 0.980886 0.0355936)
(1.76812 1.1275 -0.0767226)
(1.65099 0.853615 -0.0720113)
(2.03599 0.671066 0.277133)
(1.84773 1.05188 0.0287077)
(1.63647 1.01309 0.132272)
(2.12147 0.706145 0.151456)
(2.15921 0.615864 0.251543)
(1.96523 0.92175 0.0486506)
(1.76301 0.594891 0.0973077)
(2.48557 0.406154 0.168799)
(2.50468 0.487256 0.290551)
(2.46209 0.13993 0.151046)
(2.20687 0.524941 0.0818312)
(2.01357 0.723055 -0.0967488)
(2.94535 0.127105 0.34033)
(2.85648 0.24262 0.359493)
(2.6898 0.21387 0.163105)
(2.82172 -0.118086 0.187091)
(2.54984 0.243783 -0.106054)
(2.4596 -0.00329449 0.161428)
(3.19262 -0.0895553 0.589109)
(3.07962 -0.143854 0.445184)
(3.03308 -0.0943064 0.17381)
(2.99046 -0.152127 0.121164)
(3.01685 -0.048676 -0.115438)
(3.09042 -0.17302 -0.129589)
(2.86489 0.0569504 0.0365175)
(3.35478 -0.537375 0.972113)
(3.376 -0.748136 0.809276)
(3.40202 -0.524719 0.592876)
(3.3513 -0.445782 0.320353)
(2.99226 -0.97731 0.0247511)
(3.07676 -0.58027 -0.164743)
(3.27801 -0.41816 -0.204025)
(3.15441 -0.357735 -0.171376)
(3.82702 -0.42314 1.19922)
(3.90308 -0.691978 1.01551)
(3.85985 -1.12133 0.763025)
(3.58702 -1.24282 0.588439)
(3.15995 -1.49909 0.403267)
(3.10916 -1.3109 0.05829)
(3.023 -0.897587 -0.128228)
(3.45409 -0.811989 -0.0238372)
(3.34494 0.0345191 0.0083393)
(4.25151 -1.05548 2.04614)
(4.21924 -0.884935 1.54152)
(3.52349 -2.60214 1.1395)
(3.92973 -1.90248 1.14224)
(3.68248 -1.98768 0.86535)
(3.57846 -1.96188 0.630059)
(3.23879 -1.85321 0.52402)
(3.54355 -1.04764 -0.124864)
(3.68394 -0.709343 0.453913)
(3.56351 -0.287157 -0.149997)
(4.45025 -1.04672 2.42112)
(4.50991 -1.24105 2.22759)
(4.42576 -1.72816 1.79711)
(4.38933 -2.14107 1.75582)
(4.25398 -2.45167 1.6606)
(3.95739 -2.78712 1.63532)
(3.72358 -2.56778 1.6953)
(3.99216 -1.97838 1.15617)
(3.62075 -1.75229 0.433912)
(3.75229 -0.960251 0.0180008)
(3.61904 -0.910524 0.2859)
(4.18577 -0.909368 2.33162)
(4.40002 -1.26817 2.31256)
(4.43642 -1.9446 1.98356)
(4.29835 -2.26437 1.96899)
(4.28704 -2.77046 2.09845)
(4.20122 -3.05671 2.22181)
(3.37771 -3.38363 2.52529)
(2.41818 -4.00881 2.47793)
(2.70382 -4.03369 2.20698)
(1.17821 -4.59451 1.71809)
(3.86503 -1.46457 0.542569)
(4.02813 -0.665224 0.338064)
(3.17449 -2.1102 1.48591)
(3.37032 -1.14798 1.59728)
(3.91358 -0.516226 1.77205)
(3.99322 -1.98338 1.21521)
(4.40323 -2.23793 1.95259)
(3.67887 -3.55838 2.09994)
(3.44411 -4.10214 2.60774)
(2.84772 -4.42742 2.8112)
(3.15437 -5.08188 2.05637)
(3.62257 -5.12562 2.26165)
(3.59696 -4.91476 2.22397)
(3.84301 -3.23631 1.32188)
(3.0482 -1.90772 0.922316)
(1.66562 -1.2166 -0.519398)
(1.92631 -1.17092 -0.0631501)
(2.40501 -1.08406 -0.548028)
(2.96371 -0.91754 -0.305459)
(3.47089 -1.92475 2.3023)
(3.95589 -3.32304 0.521299)
(3.70112 -3.43702 2.20573)
(3.49775 -4.17728 1.22987)
(3.26874 -4.29067 2.74638)
(3.08962 -5.35546 2.06067)
(2.70979 -5.75218 2.58711)
(2.72423 -5.8556 2.58825)
(3.70864 -4.39256 1.67418)
(2.48468 -3.8645 0.427615)
(1.18755 -2.2845 -1.02014)
(1.07088 -1.90935 -0.697162)
(1.23014 -0.501716 -0.799295)
(1.62521 0.0656407 -0.0941352)
(1.74313 1.30687 0.265133)
(2.16817 1.08728 -0.351774)
(1.65367 -0.610035 -2.34868)
(1.69828 -1.90783 -1.41764)
(1.54184 -2.36394 0.45852)
(0.800117 -2.52428 1.37328)
(-0.11511 -4.97153 0.102654)
(1.56416 -6.35801 2.18513)
(1.28393 -6.22286 2.55602)
(2.39485 -5.57096 1.93889)
(3.15913 -5.79231 0.534847)
(0.776929 -1.15794 -2.19442)
(1.04232 -1.63453 -1.66773)
(1.06242 -1.12312 -0.836539)
(1.15966 -0.274085 -0.641)
(1.09435 -0.532788 -0.365671)
(0.692386 -0.691724 -0.42202)
(0.10413 -0.0206527 -0.896392)
(-0.027012 0.647662 0.0841856)
(0.0868158 0.798137 0.184474)
(-0.0750427 1.1874 -0.962134)
(-1.5337 1.30722 -1.68465)
(-1.02072 1.73425 -0.861516)
(1.69658 -0.164212 -4.15057)
(-1.29061 -4.56765 -1.50876)
(-0.532273 -4.03853 -0.0723237)
(0.88016 -5.75147 0.027813)
(-0.171289 -1.47046 -1.57062)
(0.319635 -1.33746 -2.10916)
(0.787471 -1.04913 -1.69576)
(0.789218 -0.726304 -1.19639)
(0.461813 -0.530256 -1.41015)
(0.241038 -0.471456 -1.28204)
(0.3444 -0.709516 -1.26902)
(0.181511 -0.606249 -1.24288)
(0.0324873 -0.724222 -1.38067)
(-0.677974 -1.59548 -2.43131)
(-1.03873 -1.7202 -2.24097)
(-0.772001 -1.1064 -0.415876)
(-0.865849 -1.10747 -1.30771)
(-1.29585 -0.401629 -1.07846)
(0.811644 -1.53052 -0.474271)
(0.438995 -0.0965155 0.90465)
(1.44882 -0.132044 1.74687)
(1.39577 0.807019 -0.0599209)
(1.74572 0.845052 0.0250893)
(1.45565 0.949834 0.0642323)
(1.95223 0.777102 -0.0452413)
(1.8766 0.935324 0.0571034)
(1.79819 0.536852 -0.216251)
(2.05028 0.486363 0.221911)
(2.10862 0.598771 0.194957)
(1.96101 0.74563 0.036511)
(1.72834 0.874397 0.191944)
(2.33178 0.423094 0.0845592)
(2.27249 0.394541 0.20615)
(2.16592 0.433821 0.284666)
(2.04459 0.750575 0.0573294)
(1.82746 0.453502 0.0159382)
(2.64074 0.150401 0.257591)
(2.5005 0.330261 0.235869)
(2.48873 0.42247 0.315506)
(2.48087 0.0793996 0.148272)
(2.17394 0.213388 0.0850685)
(2.00115 0.622341 -0.0239412)
(2.95172 0.0235333 0.417995)
(2.90401 -0.0163437 0.389788)
(2.77112 0.130625 0.362415)
(2.7366 -0.0974593 0.0302807)
(2.81898 -0.295687 0.151726)
(2.60964 -0.0422728 -0.05881)
(2.41414 -0.133905 0.0746016)
(3.25948 0.0479056 0.660422)
(3.0263 -0.39579 0.578288)
(3.10801 -0.340178 0.474253)
(3.07037 -0.200232 0.248523)
(2.90087 -0.377168 0.0524351)
(2.89338 -0.657138 -0.139123)
(2.93867 -0.654719 -0.0441306)
(2.78341 -0.237484 -0.136812)
(3.48982 -0.262203 1.12875)
(3.30413 -0.840771 0.943571)
(3.39325 -0.663522 0.817469)
(3.23623 -0.890675 0.69459)
(3.12097 -0.894267 0.280384)
(3.00911 -0.569183 -0.0122167)
(3.05753 -0.581923 -0.0633312)
(3.1875 -0.797728 -0.127073)
(3.08195 -0.617688 -0.191831)
(3.85347 -0.402981 1.30903)
(3.84417 -0.645029 1.23632)
(3.71966 -0.970941 1.09452)
(3.53639 -1.29562 0.890365)
(3.28817 -1.60667 0.588106)
(3.11662 -1.63511 0.401979)
(3.09427 -1.27671 -0.0259852)
(2.94479 -1.17333 -0.155335)
(3.39819 -1.16102 -0.100366)
(3.3171 -0.316298 0.00129532)
(4.22019 -0.837874 2.17091)
(4.33017 -0.662216 1.84336)
(4.08686 -1.24772 1.50301)
(4.11897 -1.24336 1.31245)
(3.61506 -2.49222 0.899401)
(3.55647 -2.339 0.842063)
(3.49152 -2.1896 0.615577)
(3.12541 -2.25743 0.500153)
(3.38575 -1.376 -0.0617769)
(3.6038 -1.21347 0.485545)
(3.57013 -0.415951 -0.187855)