/*--------------------------------*- C++ -*----------------------------------*\
  =========                 |
  \\      /  F ield         | OpenFOAM: The Open Source CFD Toolbox
   \\    /   O peration     | Website:  https://openfoam.org
    \\  /    A nd           | Version:  7
     \\/     M anipulation  |
\*---------------------------------------------------------------------------*/
FoamFile
{
    version     2.0;
    format      ascii;
    class       volVectorField;
    location    "5.5";
    object      U_0;
}
// * * * * * * * * * * * * * * * * * * * * * * * * * * * * * * * * * * * * * //

dimensions      [0 1 -1 0 0 0 0];

internalField   nonuniform List<vector> 
18750
(
(-0.704103 0.697984 0.509317)
(1.16516 -4.6397 0.220184)
(-0.376597 0.208188 -0.0737032)
(-0.540207 0.69672 0.606832)
(6.05827 0.932262 0.674362)
(-0.0523421 -2.7818 0.680903)
(0.909544 -5.20085 -0.114261)
(0.317091 -2.03325 -1.00813)
(-0.334838 0.109844 -0.056411)
(-0.396361 0.679371 0.721074)
(6.61058 3.41728 -0.496483)
(3.74765 -4.7057 2.94402)
(5.53882 -0.348931 0.939679)
(-0.342448 0.0165159 -0.438926)
(0.212581 -2.41318 -0.309954)
(0.742834 -5.3887 -0.391599)
(-0.053489 -0.547299 -0.184138)
(0.227874 -2.36806 -0.834828)
(-0.305077 0.017818 -0.0194098)
(-0.243089 0.657231 0.856848)
(5.53901 2.93159 -0.761154)
(5.87811 -1.21786 4.02009)
(6.73465 3.23613 -0.480958)
(2.13785 -0.829571 2.24387)
(3.29253 -5.25283 3.37318)
(4.77959 -2.07765 1.22659)
(-0.292418 1.17902 0.58774)
(-0.329743 0.0740574 -0.943804)
(0.435829 -2.13881 -1.1352)
(0.738395 -5.21329 -0.63264)
(-0.244172 -0.47264 -0.684602)
(-0.0964353 -0.595622 -0.252393)
(0.120506 -2.62595 -0.613102)
(-0.309359 -0.0935299 0.0581487)
(-0.0866844 0.648487 1.01043)
(4.43623 2.23291 -0.242402)
(5.96649 -3.5976 3.41875)
(5.98342 2.52872 -0.983684)
(4.4088 -4.01239 1.59072)
(5.81469 -2.1595 3.4411)
(6.72685 2.36922 -0.381977)
(1.24212 -0.938505 -0.561377)
(1.92438 -2.63817 1.70172)
(3.16082 -5.13817 3.41126)
(4.26302 -3.08402 1.2084)
(-1.34965 1.65209 0.403753)
(-0.171891 1.29637 0.434585)
(-0.184313 0.195756 -1.50283)
(0.690783 -1.89234 -2.21813)
(0.579239 -5.04647 -0.719747)
(0.014601 -0.265511 -0.358234)
(-0.311415 -0.588982 -0.71402)
(-0.156054 -0.665989 -0.330689)
(0.0289915 -2.73866 -0.376537)
(-0.315309 -0.153441 0.131075)
(0.0710553 0.658415 1.17408)
(3.66283 1.87233 0.144816)
(5.95613 1.00378 -0.108631)
(4.54846 2.05192 -0.215536)
(5.53871 -2.98755 2.99677)
(6.05653 -3.19914 3.67117)
(6.45441 1.56768 -1.09721)
(3.88938 -2.24077 3.05831)
(4.49548 -4.47591 0.872332)
(5.57893 -3.18767 2.93628)
(6.47031 1.567 -0.196164)
(2.63223 -0.0836975 -2.40635)
(1.05566 -0.946671 -0.33757)
(1.67185 -4.04607 1.14953)
(2.93392 -5.66031 3.03251)
(3.08755 -5.30024 1.05253)
(-1.09469 0.927225 -1.09348)
(-1.42293 1.66936 0.269373)
(-0.0171031 1.44422 0.311048)
(0.111544 0.420034 -1.96131)
(0.855842 -1.92887 -2.67787)
(0.66067 -5.15295 -0.369978)
(0.135178 -1.11397 -0.779864)
(-0.0268553 -0.365775 -0.36314)
(-0.388257 -0.715136 -0.75014)
(-0.239322 -0.758917 -0.410644)
(-0.0405742 -2.669 -0.0159036)
(-0.30364 -0.182974 0.226975)
(0.256246 0.69624 1.34491)
(3.40352 1.60195 -0.0885179)
(4.07593 0.72261 -0.306991)
(3.72302 1.79652 0.191089)
(5.35716 -1.26673 1.81142)
(5.78499 0.705287 -0.264679)
(4.60123 1.71558 -0.0537694)
(4.96024 -2.88143 3.08788)
(4.80225 -4.1619 2.64565)
(6.08564 -3.44034 3.56937)
(6.75542 0.98236 -0.892531)
(3.93869 -1.56091 1.79239)
(4.16856 -2.55946 3.35519)
(4.30991 -4.74567 0.840366)
(5.45852 -4.27218 2.70218)
(5.77446 0.171266 0.235188)
(2.37417 0.774185 -0.660105)
(2.90376 -0.0837059 -1.80578)
(1.18203 -1.36327 2.08975)
(1.5887 -4.88136 0.964781)
(2.47761 -6.60177 2.58361)
(2.70093 -5.7554 0.874218)
(-0.354225 0.907879 -1.11026)
(-1.20495 0.960935 -1.14658)
(-1.5182 1.70685 0.146855)
(0.21081 1.53352 0.120448)
(0.456902 0.474627 -2.46276)
(0.82039 -2.49024 -2.5302)
(0.495974 -5.68995 -0.072353)
(0.0679865 -0.952721 -1.61953)
(0.0493006 -1.22899 -0.883763)
(-0.0781116 -0.470932 -0.368233)
(-0.475067 -0.843823 -0.790318)
(-0.33834 -0.845046 -0.48537)
(-0.031081 -2.44618 0.305526)
(-0.260293 -0.17801 0.327778)
(0.461469 0.737684 1.50836)
(2.89359 1.9182 0.0111485)
(3.75006 1.41784 0.362922)
(3.46028 1.42359 -0.0652394)
(4.67426 -0.0653239 0.553103)
(4.17811 0.847504 -0.214431)
(3.86993 1.54611 0.175536)
(5.31602 -1.88047 2.02379)
(5.19669 -1.70635 1.93294)
(5.53838 0.392043 -0.387677)
(4.61678 1.48732 0.0426419)
(4.90115 -2.3587 2.1349)
(4.3918 -3.72165 3.4335)
(4.7516 -4.1213 2.69898)
(4.55751 -5.301 2.70139)
(6.62339 0.0340695 0.00370372)
(3.48667 -0.36684 1.57823)
(3.86686 -2.80197 1.77667)
(4.71046 -2.5818 3.32701)
(4.39903 -4.38093 2.22256)
(5.44581 -4.7854 2.43521)
(4.73753 -1.4658 0.865511)
(1.76158 1.19827 -0.0310696)
(2.59674 0.640319 -1.26696)
(2.87334 -0.535386 -0.548764)
(0.78818 -2.5617 3.07684)
(1.61381 -5.49381 0.991958)
(2.56107 -6.35285 2.64929)
(2.688 -5.61178 0.853087)
(0.139245 1.02583 -0.514007)
(-0.409916 1.01686 -1.11988)
(-1.30838 1.00606 -1.21433)
(-1.62359 1.75075 0.0923515)
(0.536034 1.6974 -0.024959)
(0.618753 0.0263804 -3.05353)
(0.5516 -3.20452 -2.08295)
(0.293014 -5.98293 -0.125945)
(0.374208 -0.168278 -1.19428)
(0.00206092 -1.03201 -1.69451)
(-0.0498402 -1.33749 -0.998397)
(-0.140523 -0.579822 -0.37203)
(-0.569007 -0.967612 -0.832749)
(-0.451027 -0.898555 -0.559978)
(0.0679064 -2.11239 0.479908)
(-0.195482 -0.157513 0.427482)
(0.680164 0.754132 1.64563)
(2.85581 1.18196 -0.23003)
(3.42996 0.774719 0.0441454)
(3.04776 1.69203 0.0368405)
(3.95606 0.700933 -0.226339)
(3.73392 1.42001 0.115766)
(3.50919 1.27612 -0.0807861)
(4.92648 -1.12923 1.02292)
(4.71627 -0.507727 0.617353)
(4.1785 1.00223 -0.171545)
(3.9057 1.42236 0.1448)
(5.44555 -1.06726 1.93063)
(4.94905 -2.07988 2.27622)
(5.00178 -2.44494 2.1652)
(4.99574 0.150338 -0.00994393)
(4.69086 1.31014 0.113693)
(4.95759 -0.890687 1.57137)
(4.43563 -2.57208 2.55059)
(4.26106 -4.28562 3.15266)
(4.50015 -4.82691 2.5189)
(5.34515 -3.87578 1.69859)
(6.18371 -0.943782 0.834868)
(3.05393 -1.53039 1.59419)
(3.53322 -1.68138 2.15479)
(3.89512 -2.85636 2.12123)
(4.68766 -3.94997 2.48801)
(4.53213 -4.36812 3.55458)
(5.66215 -4.48944 1.6784)
(3.81804 -2.68176 1.14533)
(1.45113 0.969199 0.661175)
(2.07942 1.12611 -1.01402)
(2.75668 0.46679 -1.67177)
(2.48389 -1.04695 0.521846)
(0.971482 -3.10635 3.73039)
(1.85211 -5.83206 1.40065)
(2.42276 -6.12245 2.21235)
(2.83452 -5.32893 0.883771)
(0.553238 0.625548 -0.481893)
(0.0970106 1.06353 -0.351888)
(-0.456622 1.12833 -1.13685)
(-1.41283 1.05101 -1.27359)
(-1.64131 1.84287 -0.129858)
(1.03919 2.07828 -0.196074)
(0.400783 -1.02111 -3.61435)
(0.254769 -3.54413 -1.74852)
(0.282283 -5.9536 0.0890795)
(0.385835 -0.372973 -1.55159)
(0.35132 -0.181365 -1.17811)
(-0.0706154 -1.11335 -1.77962)
(-0.16005 -1.44519 -1.12369)
(-0.212922 -0.6875 -0.373413)
(-0.666871 -1.08194 -0.877436)
(-0.551258 -0.846338 -0.643793)
(0.24024 -1.76609 0.563431)
(-0.115907 -0.125002 0.527609)
(0.895266 0.734634 1.75553)
(2.66881 1.01659 -0.250074)
(3.07949 0.857292 -0.120199)
(3.04027 0.945298 -0.226208)
(3.45352 0.501551 -0.0846487)
(3.5318 0.817964 0.0573791)
(3.11595 1.46008 0.0656287)
(4.17858 -0.436116 0.457251)
(3.90788 -0.233856 0.184047)
(3.75487 1.08887 0.127651)
(3.56037 1.00954 -0.136106)
(4.91893 -1.07968 1.43009)
(4.71613 -1.35813 1.20149)
(4.69887 -0.426147 0.664375)
(3.9571 1.31541 -0.080088)
(3.94749 1.08043 0.180189)
(5.33257 -0.99268 1.98849)
(5.24508 -1.63353 1.99048)
(4.65881 -2.64371 2.5376)
(4.47495 -3.00243 1.79715)
(4.59846 -0.657949 0.233209)
(4.74151 1.19992 0.183282)
(4.49539 -0.701743 2.10284)
(4.68965 -1.93795 1.96748)
(4.06332 -3.08986 2.73008)
(4.2158 -4.36889 3.04197)
(3.5981 -5.50269 2.12621)
(4.92263 -4.02824 0.84694)
(5.83918 -1.37646 1.20816)
(3.60327 -0.994883 2.08007)
(3.46655 -1.59391 2.09382)
(3.7616 -2.29159 1.87346)
(4.31648 -2.07229 3.00684)
(4.4545 -4.74471 2.43252)
(4.0062 -5.06183 2.85551)
(5.54703 -4.29009 1.28674)
(3.03984 -3.35513 1.09158)
(1.1853 1.05019 0.319207)
(1.73086 0.870545 -0.524863)
(2.17402 0.888676 -1.21997)
(2.75107 0.233206 -1.69599)
(2.09803 -1.46496 1.19633)
(0.743076 -4.50555 2.67327)
(1.47254 -6.28474 1.43205)
(2.34082 -6.01505 1.71803)
(2.83484 -5.28167 0.813492)
(0.90128 0.0792569 -0.988785)
(0.480401 0.643186 -0.396781)
(0.0583935 1.11397 -0.0851787)
(-0.447885 1.22513 -1.16419)
(-1.48176 1.11841 -1.34557)
(-1.69471 1.86498 -0.0643124)
(1.79342 2.64503 -0.413595)
(-0.0395695 -2.39408 -3.94538)
(0.0518847 -3.78837 -1.32868)
(0.287766 -5.96595 0.0908555)
(0.411797 -0.760643 -1.742)
(0.368895 -0.358515 -1.4807)
(0.333386 -0.226676 -1.17524)
(-0.149749 -1.19538 -1.87336)
(-0.280301 -1.53705 -1.26087)
(-0.292678 -0.789462 -0.371791)
(-0.766808 -1.17983 -0.92163)
(-0.619711 -0.695348 -0.734432)
(0.447852 -1.48528 0.550171)
(-0.0362496 -0.0899925 0.616149)
(1.08544 0.68502 1.83692)
(2.2497 0.867915 0.0849356)
(2.83803 1.29995 0.106294)
(2.67006 1.05757 -0.373422)
(3.01642 0.711719 0.164679)
(3.1529 1.00389 -0.0690579)
(3.07571 1.04111 -0.193854)
(3.63011 -0.241182 0.20283)
(3.46853 0.379759 -0.0445119)
(3.55819 0.70853 0.0434261)
(3.22594 1.2024 0.0671264)
(4.14551 -0.442501 0.694211)
(4.08665 -0.610911 0.413657)
(3.77554 0.0310431 -0.10373)
(3.88286 0.157456 0.166189)
(3.56186 0.90971 -0.225362)
(4.89119 -1.19151 1.45292)
(4.75414 -1.50042 1.43229)
(4.42707 -1.90943 1.45475)
(4.51922 -0.414625 0.77943)
(4.04033 -0.894398 -0.62132)
(3.92269 0.765396 0.199108)
(4.77987 -1.30602 1.94083)
(5.14571 -1.71493 1.97423)
(4.97939 -1.9064 2.29112)
(3.88081 -3.30345 2.99428)
(3.90071 -3.00253 1.78199)
(4.2028 -0.730606 0.553445)
(4.74751 1.02914 0.283408)
(4.61844 -1.50129 1.44946)
(4.53876 -1.24897 2.09399)
(4.42217 -2.49614 1.96003)
(3.63442 -3.66406 3.16596)
(3.9067 -4.92487 2.33173)
(4.18803 -4.42291 2.84155)
(5.31954 -2.5833 1.1112)
(5.44018 -1.90667 1.50451)
(4.03035 -0.447316 1.48962)
(4.04766 -0.585825 2.4398)
(3.57173 -1.83773 2.13128)
(3.7257 -2.438 1.79636)
(4.41388 -2.60053 3.04373)
(4.31389 -4.85382 2.68736)
(3.89912 -5.59473 2.64199)
(4.94122 -4.32483 1.65598)
(2.68052 -3.69972 0.899933)
(1.78353 1.47375 0.145355)
(1.25357 0.979209 0.392645)
(1.80867 0.203047 -1.25129)
(2.19938 -0.247352 -1.64048)
(2.47557 -0.463284 -1.40069)
(1.44405 -2.35994 2.23208)
(0.59543 -5.62219 1.59468)
(1.37087 -6.44821 1.76662)
(2.36363 -5.86385 1.7464)
(2.86004 -5.27045 0.694162)
(1.35152 -0.448541 -0.587726)
(0.775171 0.018368 -0.984318)
(0.385764 0.627559 -0.335594)
(0.0639981 1.10301 0.0922221)
(-0.418923 1.28008 -1.22163)
(-1.59146 1.14552 -1.39644)
(-1.64043 1.9468 -0.249271)
(2.63214 3.18949 -0.674845)
(-0.457874 -3.37757 -4.10036)
(-0.0738597 -3.85416 -1.11632)
(0.405215 -6.16868 -0.00580035)
(0.351248 -0.0851736 -1.79811)
(0.392091 -0.767832 -1.63462)
(0.352213 -0.352682 -1.41179)
(0.312339 -0.268057 -1.17346)
(-0.235974 -1.27949 -1.97367)
(-0.407492 -1.61083 -1.40928)
(-0.379415 -0.881341 -0.368259)
(-0.864588 -1.26011 -0.966722)
(-0.688735 -0.524887 -0.827551)
(0.638256 -1.30938 0.456455)
(0.0496449 -0.0600102 0.687519)
(1.25531 0.609629 1.89018)
(1.85432 0.971967 0.0876435)
(2.61038 0.823584 0.0843353)
(2.42216 0.516805 0.126236)
(3.07317 0.532134 0.0127851)
(2.95992 1.08151 0.105233)
(2.81919 0.700856 -0.506281)
(3.17507 0.429864 0.129985)
(3.16775 0.222441 0.203281)
(3.25662 0.773542 -0.0479563)
(3.19603 0.704491 -0.0989374)
(3.7161 -0.128998 0.530842)
(3.64027 -0.306735 0.235367)
(3.49683 0.314737 -0.0373148)
(3.5098 0.471021 0.0169847)
(3.29663 1.10242 0.008532)
(4.30686 -0.736071 0.856839)
(4.17247 -0.517841 0.710526)
(3.75478 -0.995814 0.428832)
(3.69562 -0.17757 -0.0734934)
(3.70471 0.676347 0.285431)
(3.63039 0.713822 -0.288097)
(4.85584 -1.28084 1.64311)
(4.86388 -1.48768 1.50822)
(4.61867 -1.85381 1.47462)
(4.34793 -2.08131 1.49825)
(4.40919 -0.691949 0.723498)
(3.98382 0.705236 -0.0566606)
(3.88512 0.416541 0.219373)
(4.65886 -1.58977 1.74724)
(4.83203 -1.83131 1.7826)
(4.91399 -2.12035 2.01485)
(4.18271 -2.83447 2.8123)
(3.92094 -3.20473 2.56088)
(4.0172 -2.61765 1.81524)
(4.10725 -0.575861 0.554498)
(4.69347 0.686225 0.316988)
(4.17677 -1.39799 1.1172)
(4.44855 -1.82716 2.19752)
(4.42664 -2.0681 2.07525)
(4.14807 -2.58046 2.31008)
(3.578 -3.85765 3.11789)
(3.88276 -4.9187 2.29694)
(3.80489 -4.97707 2.37344)
(5.44339 -1.83331 1.09661)
(5.0658 -1.609 0.946875)
(3.67049 -0.186511 0.161155)
(4.0666 -0.123402 2.49879)
(4.07721 -1.46057 2.02691)
(3.52693 -3.10382 0.4103)
(3.63286 -2.36839 2.14269)
(3.98967 -4.14918 2.48484)
(4.32686 -4.64588 2.98052)
(3.3892 -5.99111 2.94155)
(4.62962 -4.36397 1.88188)
(1.31855 -5.23898 0.480272)
(1.81859 1.4917 -0.390688)
(1.7145 1.37829 0.242071)
(1.33198 0.94112 0.0826642)
(1.78946 -0.612586 -1.90472)
(2.19649 -0.774942 -1.61642)
(2.06411 -0.976518 -0.845481)
(1.25625 -2.80722 2.59637)
(0.998641 -5.81221 2.45743)
(1.38055 -6.47585 2.24542)
(2.4311 -5.71527 2.02293)
(3.43175 -5.10692 0.0412659)
(1.33354 -0.484606 -0.541076)
(1.23604 -0.467122 -0.536161)
(0.656832 0.0423461 -0.9487)
(0.279458 0.611672 -0.26235)
(0.0806077 1.06564 0.178214)
(-0.307861 1.39166 -1.18139)
(-1.59129 1.20664 -1.46138)
(-1.57331 1.99773 -0.423701)
(3.36239 3.38689 -1.09845)
(-0.687776 -3.9351 -3.70558)
(-0.291704 -3.94971 -0.719068)
(-0.00620337 -6.27518 -0.0335719)
(0.541503 -0.190794 -1.53794)
(0.339267 -0.22471 -1.7406)
(0.378434 -0.753031 -1.53068)
(0.331085 -0.37021 -1.34984)
(0.253067 -0.370487 -1.1862)
(-0.327316 -1.36255 -2.07714)
(-0.538969 -1.6667 -1.56649)
(-0.468849 -0.961746 -0.363309)
(-0.954267 -1.32137 -1.01383)
(-0.782145 -0.388237 -0.924715)
(0.773212 -1.23384 0.345414)
(0.139225 -0.0479126 0.747792)
(1.38303 0.490389 1.90993)
(1.62892 0.951771 0.167616)
(2.16455 0.882922 0.088853)
(1.89152 0.910648 0.120444)
(2.76357 0.604824 0.0190527)
(2.68308 0.749766 -0.00541112)
(2.45091 0.557737 0.108261)
(2.9651 0.300938 0.316881)
(3.0426 -0.0359542 -0.102133)
(3.04843 0.717672 0.117613)
(2.80325 0.71889 -0.569179)
(3.36776 0.202369 0.451971)
(3.20096 0.23896 0.0896643)
(3.25494 0.105081 0.164064)
(3.28912 0.243674 -0.0599761)
(3.21865 0.611015 -0.0759797)
(3.84536 -0.335697 0.778805)
(3.80263 -0.474381 0.47095)
(3.55732 0.173886 0.191539)
(3.46066 0.015201 -0.0274361)
(3.5847 -0.0377348 0.0164926)
(3.342 0.96126 -0.069878)
(4.29099 -0.827029 1.27298)
(4.19722 -1.22236 0.824325)
(3.83253 -1.58512 0.776035)
(3.46301 -1.63313 0.505836)
(3.64155 -0.529131 -0.0878954)
(3.74461 -0.341105 0.259608)
(3.62947 0.723681 -0.237189)
(4.60665 -1.08857 1.79992)
(4.58116 -1.7309 1.7278)
(4.50185 -2.04307 1.53637)
(4.53274 -2.0534 1.54021)
(4.29173 -2.10764 1.3189)
(4.38933 -1.06139 0.704355)
(3.92394 -0.290909 -0.307831)
(3.85482 0.114353 0.241477)
(4.82891 -1.21899 1.81995)
(4.55724 -1.80037 1.92175)
(4.7224 -2.26561 1.8888)
(4.64857 -2.60636 2.24239)
(4.06777 -2.71372 2.6044)
(3.73123 -3.57903 2.44639)
(3.89344 -2.94747 1.7119)
(4.16462 -0.715447 0.628903)
(4.56091 0.16502 0.40484)
(3.77823 -0.232503 1.89677)
(4.25733 -2.21627 1.17617)
(4.54443 -1.91745 2.0027)
(4.32962 -2.25095 1.96707)
(3.83478 -3.05746 2.46599)
(3.58716 -3.92796 2.97376)
(3.88403 -4.9662 2.38776)
(4.67713 -4.08535 2.60958)
(5.25595 -1.70721 0.949806)
(3.88057 -2.97686 1.51183)
(2.85671 -0.930022 0.739045)
(3.67264 -0.433027 0.581058)
(4.01588 -1.19757 2.34173)
(3.91745 -2.91752 1.03394)
(3.52954 -2.82971 1.51109)
(3.75809 -2.47819 2.58084)
(3.61319 -4.6374 2.5883)
(4.01344 -4.64485 3.21266)
(3.41526 -5.71084 3.11718)
(4.19567 -4.64073 1.94163)
(0.817298 -5.581 0.36128)
(1.63347 0.239183 -0.364443)
(1.82191 1.48285 -0.15808)
(1.68814 1.37009 0.195472)
(1.56689 0.824825 -0.934835)
(1.98179 -0.743166 -1.96712)
(2.15009 -1.17701 -1.2187)
(1.71442 -1.2583 -0.244408)
(1.20793 -2.97934 2.70555)
(1.42909 -5.95881 3.02758)
(1.38056 -6.29887 2.55698)
(2.44292 -5.70086 2.16788)
(3.62923 -5.27881 0.631764)
(1.11868 -0.416843 -0.715562)
(1.30083 -0.44103 -0.556501)
(1.09695 -0.51947 -0.49605)
(0.527044 -0.0425675 -0.958925)
(0.184469 0.616942 -0.170786)
(0.093021 1.01041 0.188498)
(-0.254355 1.39326 -1.16529)
(-1.63785 1.24955 -1.51721)
(-1.52002 1.97205 -0.454717)
(3.65588 3.05444 -1.83765)
(-0.82942 -4.24886 -2.92268)
(-0.308803 -3.93219 -0.62191)
(0.318158 -6.08017 0.0398229)
(0.790027 -0.803524 -1.33826)
(0.538159 -0.266158 -1.52873)
(0.312194 -0.338472 -1.65305)
(0.369426 -0.72562 -1.43713)
(0.307795 -0.413416 -1.30104)
(0.223027 -0.435912 -1.21892)
(-0.422471 -1.44139 -2.1795)
(-0.671687 -1.70389 -1.72897)
(-0.557772 -1.02484 -0.360048)
(-1.02582 -1.35153 -1.06407)
(-0.915402 -0.327349 -1.01363)
(0.866902 -1.22645 0.173656)
(0.216382 -0.0449085 0.794763)
(1.46866 0.357382 1.90527)
(1.60187 1.11777 0.101652)
(1.94622 0.96448 0.0828281)
(1.69084 0.762271 0.21292)
(2.36245 0.619889 0.157855)
(2.11827 0.915154 0.0686187)
(1.96623 0.751387 -0.0952439)
(2.78178 0.783555 0.0789068)
(2.70241 0.489327 -0.0218522)
(2.65476 0.804422 -0.0464502)
(2.45995 0.484281 0.148172)
(3.07423 0.294366 0.329098)
(2.96145 -0.0765919 0.254822)
(2.98776 0.264837 -0.043412)
(3.13723 0.17445 0.150957)
(2.84127 0.589783 -0.44246)
(3.36786 -0.407069 0.629445)
(3.38048 -0.118259 0.378186)
(3.28215 -0.0257955 0.0514947)
(3.22909 0.0104213 -0.0120205)
(3.26346 -0.0986962 -0.0861112)
(3.20275 0.225294 -0.167466)
(3.66357 -0.570821 0.909804)
(3.70766 -0.668754 0.785871)
(3.61474 -0.686612 0.561031)
(3.31964 -0.953438 0.0347887)
(3.36328 -0.264633 -0.0222636)
(3.58632 -0.123026 -0.0432436)
(3.35889 0.610789 -0.145506)
(4.30387 -0.720109 1.55086)
(4.30497 -0.849992 1.18564)
(4.22487 -0.71649 0.951994)
(3.65981 -1.59672 0.682359)
(3.54656 -1.40814 0.465013)
(3.6154 -0.811213 -0.204804)
(3.70383 -0.183662 0.498296)
(3.60877 0.296487 -0.162321)
(4.62913 -1.06309 1.98301)
(4.53983 -1.74427 1.67035)
(4.32989 -2.00238 1.68845)
(4.2759 -2.34882 1.66473)
(4.26471 -2.34941 1.61963)
(3.78923 -2.44252 1.41317)
(4.00123 -1.71227 0.645647)
(3.90809 -0.377647 -0.185577)
(3.79652 -0.290608 0.189107)
(4.38388 -1.35994 2.09697)
(4.62978 -1.88552 1.72676)
(4.48235 -2.02679 1.91599)
(4.5445 -2.50321 2.15215)
(4.57312 -2.37065 2.45078)
(3.31315 -3.75341 2.42506)
(2.05715 -4.65508 2.42828)
(1.61974 -4.72958 1.21022)
(4.04042 -0.981171 0.674783)
(4.39205 -0.153213 0.458945)
(3.76772 -0.172311 2.00579)
(4.0458 -1.12445 1.17156)
(4.31059 -2.33303 1.64062)
(4.50686 -2.0922 1.94063)
(4.06799 -2.5828 2.13123)
(3.36374 -3.76847 2.78378)
(3.35135 -4.79611 2.23809)
(3.60935 -5.05922 2.4562)
(3.84639 -4.71152 2.55914)
(4.56596 -3.01689 1.01692)
(3.88736 -2.04526 1.00875)
(2.27296 -1.46401 0.478656)
(2.98371 -0.738482 0.370481)
(3.52242 -1.13488 1.01173)
(4.00888 -1.51499 2.34571)
(3.73721 -3.71829 0.757399)
(3.76255 -2.30263 2.78788)
(3.48401 -3.78598 1.87905)
(3.49422 -4.86789 2.55907)
(3.91477 -4.79946 2.96958)
(3.15135 -5.68151 2.99204)
(3.93233 -4.5754 2.00921)
(0.815149 -5.38615 0.331159)
(1.08255 -1.25534 -0.369162)
(1.71033 0.197794 -0.409838)
(1.79004 1.43363 0.107718)
(1.8708 1.3018 0.0130304)
(1.67076 0.387243 -1.55314)
(2.15285 -0.980142 -1.69242)
(1.95484 -1.59083 -0.768016)
(1.57499 -1.43 0.130567)
(1.03427 -3.35579 2.45799)
(1.59732 -6.13033 2.59611)
(1.29643 -6.06489 2.81595)
(2.27272 -5.87274 1.89692)
(3.49063 -5.59118 0.628182)
(1.05876 -1.05893 -1.13172)
(1.15826 -0.351602 -0.609599)
(1.29374 -0.460662 -0.586252)
(0.965361 -0.571608 -0.459105)
(0.347564 -0.19007 -0.985385)
(0.108093 0.651077 -0.0395488)
(0.0933947 0.945118 0.182064)
(-0.174892 1.3704 -1.12808)
(-1.61536 1.26796 -1.5219)
(-1.40865 1.94029 -0.578489)
(3.25357 1.97849 -2.96396)
(-0.898786 -4.2719 -2.5378)
(-0.34374 -3.92509 -0.505949)
(0.381746 -5.986 0.0273412)
(0.772618 -1.12957 -1.98012)
(0.785879 -0.773797 -1.27603)
(0.507265 -0.41945 -1.48884)
(0.284481 -0.419369 -1.53921)
(0.362968 -0.702053 -1.35813)
(0.27793 -0.475431 -1.26892)
(0.169164 -0.526154 -1.26571)
(-0.516531 -1.50987 -2.27561)
(-0.800553 -1.72133 -1.89241)
(-0.638617 -1.06538 -0.359855)
(-1.05836 -1.33578 -1.12273)
(-1.07244 -0.321017 -1.07475)
(0.924871 -1.27842 -0.117874)
(0.283425 -0.046816 0.829742)
(1.50847 0.214769 1.87886)
(1.61598 0.889373 -0.0509065)
(1.93243 0.937437 0.01311)
(1.61403 1.06375 0.131343)
(2.16291 0.697993 0.259769)
(1.92823 0.911487 0.0559294)
(1.70369 0.695628 0.19649)
(2.43175 0.612193 0.208913)
(2.39817 0.407153 0.118524)
(2.12022 0.93601 0.105323)
(1.98794 0.777861 -0.0844066)
(2.85351 0.347298 0.313847)
(2.79435 0.362027 0.141287)
(2.715 0.333775 0.0688162)
(2.59353 0.531405 -0.116743)
(2.45566 0.282493 0.23485)
(3.09369 0.0307783 0.47646)
(3.04093 -0.000215668 0.168987)
(2.997 -0.0950009 0.157006)
(3.06997 0.14812 -0.103242)
(3.16795 0.122168 0.0769025)
(2.83917 0.449874 -0.183377)
(3.40372 -0.391634 0.721343)
(3.39977 -0.365107 0.571006)
(3.41453 -0.258043 0.344732)
(3.19363 -0.434541 0.117939)
(3.1299 -0.244303 -0.127067)
(3.26668 -0.0661726 -0.125031)
(3.15673 -0.0134436 -0.20149)
(3.93341 -0.56121 1.06531)
(3.76713 -0.924007 0.75377)
(3.68506 -1.02489 0.714844)
(3.32014 -0.996817 0.462473)
(3.20606 -0.992377 0.124578)
(3.19405 -0.76476 -0.0339048)
(3.52434 -0.510069 -0.0877136)
(3.34211 0.408722 -0.0703587)
(4.31405 -0.691458 1.63173)
(4.17545 -1.20831 1.51103)
(4.25052 -1.05049 1.21148)
(3.80339 -1.93131 0.841083)
(3.6359 -1.65908 0.620313)
(3.47772 -1.56498 0.491704)
(3.54467 -0.975558 -0.105596)
(3.66404 -0.749257 0.589898)
(3.5603 0.0666363 -0.0780015)
(4.42414 -0.73636 2.37798)
(4.47152 -1.53747 1.85363)
(4.61503 -1.77793 1.73712)
(4.27902 -2.25912 1.67053)
(4.25245 -2.51082 1.63248)
(3.8952 -2.52542 1.73299)
(3.43869 -2.54928 1.54512)
(3.73455 -1.57612 0.652647)
(3.90132 -0.556581 -0.156617)
(3.7237 -0.451066 0.230761)
(4.23003 -0.813367 2.52751)
(4.58263 -0.906093 2.14602)
(4.44957 -2.10905 1.89086)
(4.37411 -2.24999 1.97523)
(4.47339 -2.67287 2.19186)
(3.90157 -3.2593 2.29345)
(3.20908 -3.52284 2.52554)
(3.08082 -3.48262 2.24742)
(4.29357 -2.42603 1.06571)
(4.07264 -0.86744 0.387298)
(4.21866 -0.351756 0.432677)
(3.66969 -0.938654 1.82306)
(3.833 -0.240997 1.88387)
(3.74617 -2.06553 1.38295)
(4.13359 -2.45591 2.05619)
(4.23317 -2.46259 2.00426)
(3.30968 -4.01924 2.34848)
(3.11817 -4.15925 2.80569)
(3.07973 -5.07181 2.21432)
(3.3819 -5.33168 2.27112)
(3.99767 -4.76757 2.45633)
(5.41813 -0.921819 1.0068)
(3.38042 -1.88792 1.19356)
(1.99762 0.0502694 0.187671)
(2.3133 -1.55388 -0.130116)
(2.9668 -0.748449 0.199588)
(3.45557 -1.59022 1.50411)
(4.28155 -2.52955 0.771585)
(3.61465 -3.35851 2.07887)
(3.7285 -3.11397 1.98898)
(2.95327 -4.49918 2.14909)
(3.48213 -4.89077 2.6989)
(3.57278 -5.02907 2.82179)
(2.87454 -5.87511 2.73758)
(3.69789 -4.59837 1.96682)
(1.43059 -4.81373 0.389584)
(1.12348 -1.88688 -0.856482)
(1.08117 -1.03083 -0.66419)
(1.68097 0.106506 -0.260636)
(1.76384 1.36992 0.200857)
(2.02138 1.23045 0.0196382)
(1.70485 -0.251837 -2.05486)
(2.04005 -1.3603 -1.52876)
(1.76863 -2.10711 0.0796637)
(1.10795 -2.07946 1.17061)
(0.122979 -4.64857 0.571612)
(1.70153 -6.15993 2.39614)
(1.28124 -6.12512 2.71414)
(1.75046 -6.15159 1.16903)
(3.37026 -5.71753 0.490481)
(1.03981 -1.67422 -1.75633)
(1.06698 -1.06998 -0.892623)
(1.17773 -0.304325 -0.613281)
(1.18347 -0.56267 -0.550227)
(0.846938 -0.646471 -0.419288)
(0.210399 -0.151795 -0.947666)
(0.0366192 0.650658 0.0454435)
(0.097316 0.876747 0.179668)
(-0.106992 1.30473 -1.06066)
(-1.57769 1.31909 -1.62501)
(-1.22955 1.88229 -0.743905)
(2.46466 0.812135 -3.73136)
(-1.07092 -4.41596 -2.12368)
(-0.474348 -4.01465 -0.290608)
(0.587197 -5.90521 0.0293203)
(0.304732 -1.33401 -2.09447)
(0.774438 -1.10026 -1.83881)
(0.787349 -0.753223 -1.22481)
(0.484555 -0.482639 -1.44894)
(0.261485 -0.466136 -1.41495)
(0.358676 -0.69621 -1.29775)
(0.244448 -0.528303 -1.25046)
(0.110287 -0.617931 -1.31546)
(-0.604689 -1.56017 -2.35856)
(-0.921465 -1.71884 -2.05143)
(-0.705394 -1.08298 -0.369212)
(-1.0134 -1.24504 -1.20659)
(-1.20739 -0.338323 -1.0928)
(0.8373 -1.4168 -0.247943)
(0.34109 -0.0561011 0.855207)
(1.50197 0.0495896 1.82902)
(1.41798 0.98068 0.0354884)
(1.76942 1.12536 -0.0770305)
(1.65003 0.855163 -0.0705811)
(2.03477 0.671272 0.277392)
(1.84807 1.04999 0.0290393)
(1.63519 1.01271 0.133317)
(2.12148 0.705443 0.150494)
(2.1603 0.616071 0.250998)
(1.96334 0.924206 0.0489062)
(1.76301 0.594228 0.0981276)
(2.48704 0.405805 0.168352)
(2.50538 0.486391 0.288954)
(2.46219 0.140356 0.149779)
(2.20791 0.530973 0.0814727)
(2.0161 0.722158 -0.0968217)
(2.94589 0.123836 0.339937)
(2.8593 0.23831 0.358569)
(2.6913 0.214104 0.164714)
(2.82038 -0.110322 0.184019)
(2.55291 0.247931 -0.107987)
(2.46319 -0.00154802 0.163974)
(3.19847 -0.0773316 0.588711)
(3.07848 -0.14509 0.444366)
(3.03183 -0.0988742 0.170831)
(2.99138 -0.152916 0.123782)
(3.01941 -0.0357986 -0.115568)
(3.09616 -0.16145 -0.127817)
(2.86794 0.0701852 0.0307111)
(3.35545 -0.538718 0.972386)
(3.37339 -0.754401 0.806839)
(3.40165 -0.526928 0.590432)
(3.35792 -0.435183 0.324664)
(2.99513 -0.987101 0.0290164)
(3.07651 -0.578414 -0.165665)
(3.27808 -0.412126 -0.20551)
(3.15495 -0.350169 -0.170227)
(3.82299 -0.42169 1.19721)
(3.90314 -0.691107 1.01273)
(3.86072 -1.12538 0.75707)
(3.59546 -1.22909 0.596845)
(3.1648 -1.49025 0.407361)
(3.10452 -1.32516 0.0653646)
(3.02361 -0.902951 -0.12559)
(3.45287 -0.810457 -0.0180601)
(3.34482 0.0501953 0.00757918)
(4.23967 -1.10247 2.05412)
(4.22411 -0.868005 1.54416)
(3.50795 -2.64436 1.14135)
(3.93397 -1.88594 1.14218)
(3.68036 -1.98594 0.860166)
(3.58186 -1.95325 0.629314)
(3.24565 -1.84427 0.523351)
(3.54165 -1.05566 -0.125454)
(3.67944 -0.694882 0.448626)
(3.56244 -0.286657 -0.147704)
(4.43604 -1.05979 2.43391)
(4.49607 -1.23345 2.2407)
(4.41585 -1.74398 1.80078)
(4.39171 -2.12954 1.75311)
(4.23672 -2.46401 1.65432)
(3.98378 -2.77645 1.62871)
(3.7286 -2.58929 1.68914)
(3.99583 -2.00052 1.16231)
(3.62301 -1.74717 0.449911)
(3.75026 -0.942108 0.00686512)
(3.6264 -0.885339 0.276114)
(4.18241 -0.909062 2.32333)
(4.37311 -1.25438 2.32998)
(4.46051 -1.84177 2.00406)
(4.30557 -2.2632 1.95726)
(4.27996 -2.75151 2.07677)
(4.34242 -2.90993 2.18178)
(3.41111 -3.38551 2.49784)
(2.44236 -3.99267 2.49626)
(2.709 -4.01954 2.21584)
(1.28002 -4.5109 1.6892)
(3.85199 -1.46145 0.549307)
(4.05039 -0.658999 0.333849)
(3.16386 -2.13664 1.50697)
(3.38 -1.18153 1.61823)
(3.90127 -0.506441 1.79045)
(3.9928 -1.90844 1.2204)
(4.36899 -2.30074 1.92457)
(3.75054 -3.41024 2.07767)
(3.38966 -4.14935 2.58899)
(2.85338 -4.39626 2.87066)
(3.08811 -5.10408 2.07025)
(3.54265 -5.20081 2.25549)
(3.6118 -4.92192 2.2418)
(3.91278 -3.21902 1.2717)
(3.01667 -1.99697 0.95799)
(1.66716 -1.20995 -0.501823)
(1.93815 -1.06627 0.0379461)
(2.40361 -1.1331 -0.515334)
(2.9665 -0.918546 -0.254606)
(3.42707 -1.93148 2.28839)
(3.98696 -3.27573 0.494404)
(3.68874 -3.40528 2.29833)
(3.54533 -4.14541 1.19089)
(3.21699 -4.34166 2.68842)
(3.16079 -5.28762 2.1746)
(2.68323 -5.78158 2.5895)
(2.69008 -5.91579 2.58819)
(3.70353 -4.42448 1.70538)
(2.28335 -4.02245 0.428817)
(1.18041 -2.27873 -1.02)
(1.05943 -1.92554 -0.710698)
(1.2045 -0.553849 -0.814143)
(1.63174 0.0455919 -0.0861325)
(1.75266 1.29108 0.284125)
(2.15928 1.08941 -0.272799)
(1.66273 -0.585357 -2.3169)
(1.73852 -1.87222 -1.40395)
(1.56555 -2.39324 0.499848)
(0.819939 -2.50961 1.39579)
(-0.13429 -4.96668 0.0917832)
(1.54058 -6.35443 2.2256)
(1.28647 -6.24215 2.55772)
(2.3443 -5.60742 1.96394)
(3.20259 -5.77611 0.53251)
(0.775062 -1.14705 -2.18405)
(1.04049 -1.64783 -1.65348)
(1.06553 -1.11818 -0.830444)
(1.16496 -0.291507 -0.633707)
(1.0985 -0.548914 -0.384622)
(0.709986 -0.698459 -0.410168)
(0.130665 -0.0184525 -0.880501)
(0.00114884 0.665843 0.1006)
(0.106216 0.813576 0.199952)
(-0.062467 1.20703 -0.941059)
(-1.53407 1.3267 -1.66598)
(-1.00881 1.76972 -0.862546)
(1.71547 -0.157751 -4.13272)
(-1.28878 -4.53467 -1.59753)
(-0.568293 -4.03474 -0.0890711)
(0.782098 -5.80817 0.0219917)
(-0.177375 -1.46592 -1.56561)
(0.313332 -1.33289 -2.11615)
(0.781491 -1.06189 -1.70395)
(0.78589 -0.736603 -1.18954)
(0.462904 -0.530526 -1.41186)
(0.240249 -0.48366 -1.29308)
(0.348166 -0.711142 -1.26555)
(0.195669 -0.586453 -1.2365)
(0.0422646 -0.706811 -1.36969)
(-0.67887 -1.58281 -2.41824)
(-1.02798 -1.69962 -2.19869)
(-0.755811 -1.08069 -0.395137)
(-0.888773 -1.09672 -1.29309)
(-1.28945 -0.374712 -1.07475)
(0.801013 -1.51601 -0.405883)
(0.383057 -0.0718051 0.873588)
(1.45397 -0.0947083 1.7635)
(1.39545 0.807457 -0.0604102)
(1.74569 0.846266 0.024478)
(1.45543 0.950697 0.0641299)
(1.95123 0.777382 -0.0427571)
(1.87448 0.940617 0.054313)
(1.79634 0.540786 -0.214171)
(2.0486 0.490145 0.221911)
(2.10787 0.597143 0.196952)
(1.95919 0.749115 0.0368235)
(1.72644 0.875455 0.193924)
(2.33352 0.42747 0.0831854)
(2.2726 0.395892 0.204216)
(2.16653 0.434429 0.284082)
(2.04448 0.752358 0.0569791)
(1.82752 0.453249 0.0166041)
(2.64123 0.14979 0.25823)
(2.50082 0.328295 0.231662)
(2.48999 0.424248 0.313824)
(2.48256 0.0740883 0.147677)
(2.177 0.21489 0.0844756)
(2.00404 0.622313 -0.0253995)
(2.95113 0.0242075 0.41698)
(2.90663 -0.0162195 0.388237)
(2.77382 0.13101 0.364381)
(2.73593 -0.0915439 0.0316708)
(2.81997 -0.29929 0.149344)
(2.61265 -0.044417 -0.0607473)
(2.42013 -0.136627 0.0764141)
(3.26064 0.0557291 0.659285)
(3.03056 -0.39169 0.579123)
(3.10667 -0.339982 0.472523)
(3.06837 -0.20013 0.246246)
(2.90118 -0.380803 0.0540734)
(2.89512 -0.653984 -0.144049)
(2.94385 -0.655492 -0.0445419)
(2.78955 -0.237669 -0.133106)
(3.48993 -0.260702 1.12757)
(3.30032 -0.839752 0.947548)
(3.38869 -0.681628 0.81891)
(3.24102 -0.881813 0.690988)
(3.13186 -0.883878 0.283487)
(3.00994 -0.576121 -0.011278)
(3.05637 -0.585771 -0.0670015)
(3.18981 -0.793416 -0.129717)
(3.08373 -0.611426 -0.191122)
(3.85266 -0.414603 1.30944)
(3.84104 -0.647818 1.23358)
(3.72078 -0.966676 1.09429)
(3.54573 -1.29242 0.885848)
(3.30117 -1.59546 0.592183)
(3.11539 -1.64213 0.40514)
(3.09372 -1.28302 -0.0211399)
(2.94288 -1.17214 -0.154918)
(3.3971 -1.15603 -0.0913568)
(3.31649 -0.310379 0.00374653)
(4.21269 -0.841224 2.17163)
(4.32718 -0.67037 1.85288)
(4.08581 -1.23521 1.50573)
(4.11212 -1.23802 1.31365)
(3.62094 -2.48693 0.902889)
(3.55488 -2.34042 0.837011)
(3.49405 -2.18466 0.615864)
(3.11148 -2.26678 0.503856)
(3.38959 -1.36945 -0.0658894)
(3.59975 -1.20524 0.486893)
(3.56615 -0.419204 -0.187259)