/*--------------------------------*- C++ -*----------------------------------*\
  =========                 |
  \\      /  F ield         | OpenFOAM: The Open Source CFD Toolbox
   \\    /   O peration     | Website:  https://openfoam.org
    \\  /    A nd           | Version:  7
     \\/     M anipulation  |
\*---------------------------------------------------------------------------*/
FoamFile
{
    version     2.0;
    format      ascii;
    class       volScalarField;
    location    "3.5";
    object      nut;
}
// * * * * * * * * * * * * * * * * * * * * * * * * * * * * * * * * * * * * * //

dimensions      [0 2 -1 0 0 0 0];

internalField   nonuniform List<scalar> 
18630
(
0.000125799
0.000286046
0.000182112
4.19423e-05
0.000314441
0.00027954
0.000471634
0.000324553
0.000271368
0.000333679
0.000426878
0.000466301
0.000366373
0.000405026
0.000543255
0.000242841
0.00033053
0.000250445
0.000325059
0.000133612
0.00047949
0.000448946
0.000427212
0.000402944
0.000274619
0.000315242
0.000365979
0.000548649
0.000314848
0.0002625
0.000192276
0.000127072
0.00018396
0.000151806
0.000380905
0.000680306
0.000894562
0.00026806
0.000324341
0.000345501
0.000190079
0.0006068
0.000378296
0.000312676
0.000171675
0.000358194
0.000425038
0.000159335
0.000215238
0.000281863
0.000145221
0.000126781
0.000205479
0.000169308
0.000218964
0.000738658
0.000396604
0.000172489
0.000406505
0.000424301
0.000153744
0.000399201
0.000461179
0.000298951
0.000367341
0.000227192
0.000551407
0.000440505
0.000420802
0.000249843
0.000603954
0.000377998
0.000295226
0.000345343
0.000246271
0.000331255
0.000186306
0.000324641
0.000138975
0.000404549
0.000187651
9.44826e-05
0.000232054
0.000509882
0.000582679
0.000707318
0.00027222
0.000608782
0.000551719
0.000271272
0.000338003
0.000566393
0.000356591
0.000545956
0.000260568
0.000282977
0.000461128
0.000354096
0.000598941
0.000351533
0.000329177
0.000328042
6.07729e-05
0.000423668
0.000384926
0.000262056
0.000351264
0.000165423
0.000332956
0.000180085
0.000183091
0.000237601
0.000269097
0.000281457
0.000425484
0.000127485
0.000178588
0.000103561
0.000440069
0.000155698
0.00066545
0.000557974
0.000798901
0.000963194
0.000312513
0.000656568
0.000976515
0.000465085
0.000448028
0.000767866
0.000326936
0.000582755
0.000504488
0.000567553
0.000817253
0.000301412
0.000440488
0.000627827
0.000613585
0.000436876
0.00041859
0.000403774
0.000331946
0.00046637
0.000133852
0.000448701
0.000338854
0.00050838
0.000159393
0.000386076
0.000193457
0.000418284
0.000199061
0.000259969
0.000338042
0.00045481
0.000103249
0.000191416
0.000322811
0.000164973
0.000126506
0.000196363
0.000162351
0.000191959
0.000105177
0.000914279
0.00116305
0.000975659
0.00119298
0.000926085
0.000595106
0.000983203
0.000456586
0.000836059
0.000446909
0.000718047
0.000284102
0.000602417
0.000447642
0.000469061
0.000397407
0.000289772
0.000237307
0.000448648
0.000637719
0.000782058
0.000304641
0.000474444
0.000638335
0.00104388
0.000308741
0.000485971
0.000902289
0.000277031
0.000510931
0.000208513
0.000473577
0.000418584
0.000382533
0.000677626
0.000288962
0.000187029
0.000354331
0.000451702
0.000277243
0.000284962
0.000245806
0.000323861
0.00028847
0.00030539
0.000217674
0.000236918
0.000264187
0.000209153
0.000132219
8.71634e-05
7.35581e-05
0.000807785
0.00020871
0.000170616
0.000855748
0.000987106
0.000800902
0.00134172
0.000638963
0.000593537
0.000854388
0.000582619
0.000780698
0.000511963
0.000859365
0.000445917
0.000708145
0.000617054
0.0010877
0.000497327
0.000603441
0.000493026
0.00059246
0.000602144
0.000551503
0.000449571
0.000231915
0.000275169
0.000441792
0.00065171
0.000659436
0.000634286
0.000461526
0.000420865
0.000328783
0.000618102
0.000375378
0.000400541
0.000515682
0.000551677
0.000201234
0.000579079
0.000321239
0.000174344
0.000391491
0.000291947
0.000592954
0.000467781
0.000416816
0.000269345
0.000337847
0.000463549
0.000458881
0.000386635
0.00028764
0.000366002
0.000562733
0.000205862
0.000258256
0.000189739
0.000422459
0.000208515
0.000136975
0.00012595
0.000411837
0.000899842
0.000313999
0.000262771
0.000200227
0.00036771
0.000911163
0.00157069
0.000583332
0.00131937
0.000685161
0.000806827
0.000619877
0.000760891
0.000901514
0.000737234
0.000458673
0.000875867
0.000787215
0.00057556
0.000868649
0.000771818
0.000301744
0.000332476
0.000330373
0.000787327
0.000364309
0.000258099
0.000760858
0.000313573
0.00053448
0.000581407
0.000497813
0.000447065
0.000367501
0.000160177
0.000418354
0.000336013
0.000721533
0.000663852
0.000586134
0.00124857
0.000341152
0.000301938
0.000318056
0.000805131
0.000627951
0.000438281
0.00027514
0.000664633
0.000580521
0.000421535
0.000252882
0.000365297
0.000365819
0.000347926
0.0004098
0.00047649
0.00030127
0.000480849
0.000501791
0.000203101
0.000299141
0.000370137
0.000451132
0.00036402
0.000226004
0.000412911
0.000337064
0.000171786
0.000265385
0.000218139
0.000203856
0.000304836
0.00011639
8.68247e-05
0.000219145
0.000215883
0.000226267
0.000305292
9.23994e-05
7.87069e-05
7.06594e-05
0.000216404
0.000982271
0.000980387
0.00115698
0.000949758
0.00141568
0.00050578
0.000581926
0.0007746
0.000697394
0.000768563
0.00066486
0.000817912
0.000958643
0.000703674
0.000601339
0.000404404
0.000871936
0.000690507
0.000448841
0.000655404
0.000891721
0.000865925
0.000669023
0.000236964
0.000371819
0.00068462
0.00068974
0.000353139
0.000501438
0.000584276
0.000479245
0.000221186
0.000563262
0.000645707
0.000473381
0.000860272
0.000831302
0.000555838
0.000219769
0.000530346
0.000555529
0.000609571
0.000612859
0.00047333
0.00104346
0.000744873
0.000139941
0.000369969
0.000313305
0.000538446
0.0005685
0.000618836
0.000314042
0.000739875
0.000517692
0.000443325
0.00046743
0.000421395
0.000682748
0.000277053
0.000392373
0.000454305
0.000389645
0.000229749
0.000517755
0.000492826
0.000436411
0.00029756
0.000329829
0.000315032
0.000362528
0.000445358
0.000148654
0.000445487
0.000428309
0.000419744
0.00034928
0.000293244
0.000230031
0.000122291
0.000283537
0.000152869
0.000107766
0.000262785
6.99672e-05
0.00013584
0.000497523
0.000105419
7.25014e-05
5.95772e-05
6.95961e-05
6.5746e-05
0.000707753
0.000992315
0.000824803
0.00146045
0.000870866
0.000667354
0.000724877
0.000402698
0.000550532
0.000502559
0.000289088
0.000442866
0.000651998
0.000615831
0.000791248
0.000612956
0.000313266
0.000941393
0.000864639
0.000598087
0.000387447
0.000440227
0.00045189
0.000484886
0.000617724
0.000334125
0.000565466
0.000947985
0.000459197
0.000349197
0.000369318
0.000362493
0.000568583
0.00072471
0.000452956
0.000197888
0.000695412
0.000890528
0.000670753
0.000824384
0.000384517
0.000630599
0.000696877
0.000572102
0.000770995
0.000822117
0.00060049
0.000335225
0.000355272
0.000587313
0.000458064
0.000603887
0.000497999
0.000601222
0.000758705
0.000597331
0.000989398
0.000241068
0.000491681
0.000167814
0.000691802
0.000498861
0.000639958
0.00028951
0.000758002
0.000647744
0.000557876
0.000372454
0.00035454
0.000248878
0.000420123
0.000331841
0.000503448
0.000341578
0.000430936
0.000439662
0.000628069
0.000456326
0.000304499
0.000311667
0.000341504
0.00041279
0.000524392
0.000368488
0.000398467
0.000308877
0.000580853
0.000371776
0.000380804
0.000228226
0.000203677
0.000264999
0.000267035
0.000196232
0.000327127
0.000579535
0.000161076
0.000127396
0.00025949
0.000269657
0.000206247
0.000539636
0.000274815
0.000244598
8.40358e-05
0.000127003
0.000153205
0.000637341
0.000568116
0.00111445
0.000603557
0.00100101
0.000717121
0.000352938
0.000904797
0.000621428
0.000543645
0.000606698
0.000684529
0.000346448
0.000582799
0.000509784
0.00034788
0.000321791
0.000299451
0.000964444
0.000529964
0.000512275
0.000476059
9.25191e-05
0.000354616
0.000557132
0.00117167
0.000738582
0.00033142
0.000370269
0.000483637
0.000391103
0.0006216
0.000524258
0.000551039
0.000398494
0.000458959
0.00067341
0.000307672
0.000445846
0.000484435
0.000224522
0.000449796
0.000294976
0.00023876
0.000488686
0.000217585
0.000621643
0.00091745
0.000938461
0.000585648
0.000463746
0.000278769
0.000237167
0.00095905
0.00053588
0.000883713
0.000684987
0.000827564
0.00124825
0.000299066
0.000386797
0.000664454
0.000363277
0.000646849
0.000521877
0.000253625
0.000707946
0.000658841
0.0012287
0.000519026
0.000583345
0.000482774
0.000365435
0.000490794
0.00058495
0.000619804
0.00043365
0.00105738
0.000930425
0.000411226
0.000650484
0.000478952
0.000636182
0.000136749
0.000342237
0.000482262
0.000394551
0.000380612
0.000419518
0.000475386
0.000625357
0.00045957
0.000379264
0.000308779
0.000439913
0.000450923
0.000425029
0.000434265
0.000293682
0.0003405
0.00101655
0.000321647
0.000265499
0.000294561
0.000292669
0.000216949
0.000295096
0.000252785
0.000275072
0.000313566
0.000242487
0.000570695
0.000159619
0.00013312
0.000601207
0.000400218
0.000384497
4.92365e-05
9.11453e-05
0.000164172
8.72831e-05
8.94815e-05
0.000163464
0.000217378
0.000276528
0.000529585
0.000691144
0.00064583
0.000561887
0.000790104
0.000349326
0.000310625
0.000831331
0.000413944
0.000642228
0.00059071
0.000638824
0.000443142
0.000584225
0.000734946
0.000563866
0.000537303
0.000338015
0.00052697
0.000631441
0.000139518
0.000483261
0.00044978
0.00037384
0.000411755
0.000566596
0.000650312
0.000524108
0.000679931
0.000672002
0.000758602
0.000858197
0.000783622
0.000758469
0.000384848
0.000489401
0.000363796
0.000439076
0.000347171
0.000760623
0.000529854
0.000476145
0.000466085
0.000242309
0.000397998
0.000432783
0.00024476
0.000287619
0.000384508
0.000565841
0.000361278
0.000356442
0.000301221
0.00039158
0.000330591
0.000630772
0.000723804
0.000892703
0.00111634
0.000555531
0.000408352
0.000507365
0.000297686
0.000584801
0.000928518
0.000879895
0.00100971
0.000692267
0.000765571
0.000847688
0.000865078
0.000264459
0.000387612
0.000723577
0.000863296
0.000751196
0.000501993
0.000656903
0.00048218
0.000961331
0.000694405
0.000495663
0.000491584
0.000561212
0.000382639
0.000192525
0.000630669
0.000649252
0.000811387
0.000488263
0.00104731
0.000754968
0.000351397
0.000461128
0.000463734
0.00045788
0.000340998
0.000288108
0.000348811
0.000738627
0.000587722
0.000505182
0.000477656
0.000457534
0.000484532
0.000530436
0.000435345
0.000387322
0.000320273
0.000301971
0.000354959
0.000601704
0.000427632
0.000369519
0.000454367
0.000495131
0.000358136
0.000268774
0.000318538
0.000356533
0.000267135
0.000241147
0.000301611
0.000241535
0.000225497
0.000163008
0.000209006
0.000238632
7.89754e-05
0.000194945
0.000134357
0.000290705
0.000253431
0.000100031
7.49889e-05
0.000116085
6.60416e-05
7.87409e-05
0.000122716
0.000214238
0.000290269
0.000592607
0.000338021
0.000464501
0.000678012
0.000603847
0.000513665
0.000766745
0.000852241
0.000887473
0.000717245
0.000409494
0.000784468
0.000682756
0.000666541
0.0004728
0.00065822
0.000687364
0.000720213
0.000646499
0.000539564
0.000522232
0.000596712
0.00077371
0.000317738
0.000409619
0.000554017
0.00056489
0.000401423
0.000553926
0.000354939
0.00036625
0.000432275
0.000410231
0.000366001
0.000581044
0.000566073
0.000807975
0.000443405
0.000329576
0.000681903
0.000946356
0.000728035
0.000651205
0.000736726
0.000698824
0.000714291
0.000254389
0.000328103
0.00029646
0.000312464
0.000590257
0.000581574
0.000841344
0.000697946
0.000598765
0.000269393
0.000403334
0.000639931
0.000269829
0.000603517
0.000401505
0.000517709
0.000686669
0.000601864
0.000245745
0.000202793
0.000470172
0.000376553
0.000413044
0.000991593
0.000958874
0.00107399
0.000697284
0.000964078
0.000394485
0.000321787
0.000210824
0.000666519
0.000942865
0.00096426
0.000791597
0.000678865
0.000709109
0.000788707
0.000879713
0.00103202
0.000188073
0.000365329
0.00051737
0.000473977
0.000680423
0.000531853
0.000930558
0.000496863
0.000792662
0.000668632
0.000534055
0.000471835
0.000429058
0.000328139
0.000330178
0.000270308
0.00113789
0.000756891
0.000953584
0.00056163
0.000951106
0.000943947
0.000498879
0.000498256
0.000543281
0.000477173
0.000617766
0.000594439
0.000582055
0.000132199
0.000922153
0.000518485
0.000819022
0.000403493
0.000393459
0.000406143
0.000714156
0.00041414
0.000352309
0.000346543
0.000169911
0.000323685
0.000298407
0.00041126
0.000540938
0.000327912
0.000378201
0.000375776
0.000435905
0.000197781
0.000309466
0.000409518
0.000260403
0.000242832
0.000218468
0.000235783
0.000210016
0.000426
5.92024e-05
0.000347157
0.000211056
0.000108819
0.000173852
0.000107251
0.000346187
0.00013293
0.000139763
0.000136823
0.000163197
7.39954e-05
9.83223e-05
0.000216031
0.000214543
0.000282385
0.000133513
0.000569674
0.000524468
0.000546612
0.000447502
0.000648278
0.000650864
0.000555528
0.000391183
0.000794199
0.000620363
0.000604979
0.000751956
0.000747921
0.000678009
0.000369952
0.000538206
0.000639325
0.000799306
0.000711801
0.000521798
0.00046415
0.000619912
0.000719995
0.000828748
0.000981742
0.000727873
0.000640905
0.000658129
0.000780364
0.000752184
0.000739024
0.000474799
0.000525999
0.000812567
0.0010839
0.000928438
0.000942423
0.000971296
0.000558189
0.000307966
0.000578865
0.000731649
0.000489542
0.000575597
0.00075258
0.000733045
0.000699877
0.00037612
0.000627186
0.00057699
0.000468252
0.00065539
0.000597091
0.000695626
0.00133734
0.000738563
0.000341362
0.000183316
0.000592233
0.000380021
0.000639604
0.000735299
0.000914404
0.000588052
0.000930552
0.000291896
0.00021909
0.00014198
0.000750752
0.00043209
0.000365687
0.000691988
0.000610362
0.000695919
0.000778381
0.00090387
0.00060317
0.000473094
0.000605647
0.000471715
0.000448554
0.000380149
0.000709423
0.000717382
0.0012015
0.000729478
0.000942461
0.000433161
0.000523617
0.000376324
0.00034004
0.000870659
0.000927371
0.00102797
0.00109552
0.00068221
0.000817752
0.000666506
0.000828274
0.000870986
0.00114128
0.000623613
0.000332883
0.000801958
0.000467716
0.000659653
0.000493999
0.000572438
0.000405584
0.000608675
0.00075591
0.000858815
0.000676968
0.000612138
0.000761416
0.000378947
0.000434753
0.000291836
0.00076377
0.00092365
0.000718604
0.000605995
0.000760331
0.000720109
0.00052221
0.00051677
0.000377994
0.00036253
0.000580004
0.000313541
0.000291907
0.000695166
0.000192002
0.000501534
0.000815441
0.000955365
0.000541421
0.000340509
0.000455808
0.000576583
0.000417002
0.000401809
0.000228163
0.000260318
0.000319016
0.000444711
0.000255015
0.000391512
0.000468378
0.000353038
0.000352464
0.000460251
0.00086987
0.000167037
0.000323866
0.000345792
0.00026417
0.000231846
0.000205373
0.000283614
0.000198858
0.000421925
0.000217502
9.96127e-05
0.000334894
0.000225941
0.000119797
0.000113218
0.00057522
0.000230354
0.000145764
0.000209648
8.61919e-05
0.000171377
0.000118071
0.000125135
0.000221546
0.000210715
0.000277981
0.000139595
6.1523e-05
0.000902119
0.000634476
0.000719272
0.000542575
0.000610446
0.000593206
0.000446092
0.000528698
0.000555306
0.000654859
0.00048998
0.000552328
0.000688787
0.000721971
0.000667899
0.000538564
0.000384009
0.000475943
0.00100714
0.000681498
0.000519086
0.00047105
0.000512669
0.000851627
0.000766062
0.000696
0.000517223
0.000394783
0.000679297
0.000789929
0.000790474
0.000756659
0.000803786
0.000587315
0.000446105
0.000689661
0.000849912
0.000948874
0.000750498
0.000974964
0.000620716
0.000580919
0.000826003
0.00109113
0.000855445
0.000724699
0.000619236
0.000620778
0.000569257
0.000615568
0.000932048
0.000871187
0.000994151
0.000686102
0.000628947
0.000747289
0.00102024
0.000520814
0.000783665
0.000679642
0.000282288
0.000685784
0.000776452
0.00068697
0.000548903
0.000508317
0.000685933
0.000419456
0.000466458
0.00029192
0.000450017
0.000669527
0.000843955
0.000609102
0.000885669
0.000867054
0.000566779
0.000369272
0.000838541
0.000623552
0.000379239
0.000317303
0.00034471
0.00078404
0.00040998
0.000728288
0.000655082
0.000851121
0.000687721
0.000737119
0.00025287
0.000304516
0.000671163
0.000506697
0.00054512
0.000508199
0.000819276
0.000860506
0.00108515
0.000747152
0.000864344
0.000478447
0.000336475
0.000265087
0.000633985
0.000408864
0.00119706
0.00089642
0.000917086
0.000924913
0.00075826
0.00103867
0.000734655
0.000832572
0.00103537
0.000623156
0.000505903
0.000410886
0.000486707
0.000789451
0.000791606
0.000565746
0.000463169
0.000569149
0.000371542
0.00071719
0.000661484
0.000852295
0.000420803
0.000433339
0.000421999
0.000631657
0.000319175
0.000362182
0.000710802
0.000570598
0.000863091
0.000594365
0.000575018
0.000448206
0.00038292
0.000330103
0.000366566
0.000452566
0.000605921
0.000514604
0.000357156
0.000744307
0.000487617
0.000728157
0.000119483
0.000466703
0.000768896
0.000700108
0.00100216
0.000363174
0.000563256
0.000423999
0.000357037
0.000437341
0.000226577
0.000321673
0.000335671
0.000164149
0.000341908
0.000316483
0.000506858
0.000306699
0.000311846
0.000285401
0.000263075
0.000306312
0.000195293
0.000279533
0.000330476
0.000262499
0.000211952
0.000240146
0.00023702
0.00021989
0.000388989
0.000133429
0.000288154
0.000102089
0.000262965
0.000221088
0.000116471
0.000115974
0.000200272
0.000219882
0.000175614
0.000112671
0.000116732
0.000266084
0.00010913
7.87928e-05
0.000153655
0.000196517
0.000270396
0.000121699
7.63793e-05
8.86447e-05
0.00107809
0.000809562
0.00092325
0.000622296
0.000742599
0.000617875
0.000598195
0.000549755
0.000575238
0.000642828
0.000546408
0.000664052
0.000507677
0.000524027
0.000626805
0.000658737
0.000787981
0.00103375
0.000634159
0.000670799
0.000719268
0.00056974
0.000503195
0.000971811
0.000974304
0.000826571
0.000863926
0.00055948
0.000574462
0.000505679
0.000667498
0.000715146
0.00086538
0.00111445
0.000589625
0.000419514
0.000681502
0.000643405
0.00066177
0.000870043
0.0016012
0.000885543
0.000434503
0.000724997
0.000818016
0.000604293
0.000652844
0.000805689
0.000724179
0.00066869
0.00064956
0.00085338
0.0010683
0.000344289
0.000393231
0.000419522
0.000332179
0.00092726
0.000897377
0.000608139
0.000646221
0.000745188
0.00097213
0.000657747
0.000829037
0.000738237
0.000450299
0.000839129
0.000741973
0.00164989
0.000727903
0.000408775
0.000797733
0.00094045
0.000621194
0.000666315
0.00056131
0.00072885
0.00118891
0.00111549
0.00139302
0.00014667
0.000347518
0.000354642
0.000807996
0.00068914
0.000834458
0.000766339
0.000682973
0.000966629
0.00122446
0.000519
0.000178269
0.000545084
0.000439016
0.000284281
0.00073172
0.000838767
0.000557355
0.000321417
0.0004709
0.000754096
0.000761302
0.000759824
0.000608706
0.000314951
0.000740588
0.00057761
0.000284212
0.000354385
0.000450176
0.000677493
0.000994446
0.00110709
0.000814444
0.000828433
0.000526024
0.000480055
0.000500199
0.000132996
0.000353132
0.00064231
0.000870501
0.000887207
0.000974126
0.000878628
0.000744926
0.000879141
0.000612702
0.000835797
0.000904976
0.000927498
0.00085097
0.000703453
0.00044608
0.000582246
0.000937691
0.000664926
0.000565393
0.000470589
0.000413009
0.00050574
0.000519197
0.00051546
0.000515868
0.000827211
0.000721855
0.000645934
0.000455378
0.000627266
0.00058628
0.000791439
0.000358752
0.000424402
0.000604296
0.000496107
0.000492077
0.000362853
0.000702244
0.000288329
0.000388787
0.00048772
0.000712162
0.000241912
0.000415889
0.000545643
0.000620681
0.000389687
0.00036381
0.000247493
0.000515113
0.000477704
0.000578762
0.000981747
0.000486095
0.000511832
0.000384538
0.000395153
0.000347106
0.000280989
0.000307152
0.000329427
0.000263057
0.000574446
0.00025775
0.00034265
0.000341048
0.000265143
0.000473589
0.000520297
0.000350643
0.00102254
0.000302957
0.000309785
0.000323249
0.000280396
0.000224014
0.000278989
0.000228837
0.000239503
0.000370731
6.58969e-05
0.000287097
0.00017842
7.39866e-05
0.000329354
0.000191643
0.000114829
0.000326529
0.000356089
0.000331241
0.000327926
0.000183175
0.000108077
0.000286389
8.22113e-05
0.000134454
0.000115877
0.000181412
0.000259496
0.000113777
0.000104574
9.94847e-05
0.000119751
0.00142049
0.00102849
0.00115506
0.000687455
0.000815136
0.000878327
0.000654456
0.000803347
0.000597577
0.000581296
0.000655024
0.000663051
0.000776596
0.000485599
0.000488044
0.000454313
0.000581968
0.000590272
0.000709205
0.000586214
0.000533517
0.000750101
0.000615722
0.000658083
0.000547865
0.000695014
0.000488583
0.000584141
0.000433662
0.000555195
0.000835902
0.000586492
0.000810793
0.000704841
0.00043739
0.000400165
0.00042287
0.000507479
0.000591759
0.000791576
0.000656957
0.000499637
0.000782998
0.000686087
0.000876425
0.000862512
0.000775585
0.00076624
0.000726244
0.00042019
0.000732782
0.00119711
0.000348171
0.000983809
0.00115324
0.00101168
0.000980941
0.00115232
0.000717985
0.00155193
0.00129171
0.000896403
0.00106785
0.000651891
0.000795994
0.000979379
0.00107604
0.000744685
0.000647692
0.00152276
0.000420844
0.000913249
0.000675083
0.000915698
0.0011498
0.000365434
0.000670818
0.00136477
0.000876675
0.000590265
0.000703938
0.000344962
0.000689529
0.000671941
0.000635704
0.00100271
0.000712927
0.000561793
0.000751859
0.000622695
0.00108
0.000616699
0.000656037
0.000870359
0.000428671
0.000413698
0.00056265
0.000456376
0.00068814
0.000744892
0.000558459
0.000654155
0.000775072
0.00110106
0.000797594
0.000624599
0.000630525
0.000418158
0.00073944
0.00025457
0.000808819
0.000487114
0.000533379
0.000686068
0.000570532
0.000516622
0.000808074
0.000860926
0.000817132
0.000540091
0.000319733
0.00040295
0.000781467
0.000478064
0.000476805
0.000222239
0.000558954
0.000635372
0.000522064
0.000880815
0.000856779
0.000745079
0.00053191
0.000507003
0.000468879
0.000441072
0.000716816
0.000642054
0.000493114
0.0010071
0.000817221
0.00105479
0.000934177
0.000914225
0.000929482
0.000753352
0.00106285
0.000907233
0.00139546
0.000577293
0.000745693
0.000655783
0.00041353
0.000603284
0.00100328
0.000573094
0.000569336
0.000454042
0.000373581
0.000800204
0.000654607
0.000369194
0.000770623
0.000894098
0.000491677
0.000364105
0.000718801
0.000656988
0.000470254
0.000768268
0.000946146
0.000405747
0.000342306
0.000466074
0.000422069
0.000355601
0.000365595
0.000788504
0.000435773
0.000283644
0.000439848
0.000813864
0.00027475
0.000320207
0.000861774
0.000713716
0.000356093
0.000374238
0.000303606
0.000480807
0.000532833
0.000560338
0.00063696
0.000610498
0.000784206
0.000512517
0.000380697
0.000448771
0.000330096
0.000359666
0.000347055
0.000402781
0.000285505
0.000639568
0.000221686
0.000192833
0.00040238
0.000331298
0.000282361
0.00078109
0.000705598
0.000518145
0.000638941
0.000364668
0.000261678
0.000339008
0.000326478
0.000201763
0.000243028
0.000249306
0.00027036
0.000345602
8.27291e-05
0.000245227
0.000155759
0.00030669
9.35565e-05
0.000322025
0.000152103
0.000116676
0.000247954
0.000340031
0.000215746
0.000446191
0.000194138
8.45233e-05
0.000273515
8.23558e-05
5.98317e-05
0.000124094
0.000181425
0.000246303
9.53839e-05
9.46643e-05
0.000121443
9.42554e-05
8.13277e-05
0.000889641
0.00121681
0.00118243
0.000937935
0.00116136
0.00108447
0.000762378
0.000870715
0.000955126
0.000723297
0.000722212
0.00072348
0.000588377
0.000696813
0.000682127
0.000660461
0.000582294
0.000711219
0.000636846
0.000672839
0.000534385
0.000519749
0.000465374
0.000638504
0.000706296
0.000929091
0.000809783
0.000506751
0.000668338
0.000696898
0.000764774
0.000566747
0.000628715
0.000829863
0.000509224
0.00036626
0.00048138
0.000573325
0.000736718
0.00043377
0.000475912
0.000658377
0.000664426
0.000547848
0.000606459
0.00049614
0.000495883
0.000655835
0.00067679
0.000692131
0.000777474
0.000931111
0.000772752
0.00123363
0.000826277
0.000637854
0.000522691
0.000562069
0.00053819
0.00034599
0.000563938
0.00115216
0.000640517
0.00106481
0.00113974
0.000625291
0.000365403
0.000898614
0.000695378
0.000623937
0.000554652
0.000422473
0.00116177
0.000982691
0.00125978
0.000671269
0.000614988
0.00103818
0.000937714
0.000894275
0.000962995
0.000631049
0.000457443
0.000779153
0.000977044
0.00122795
0.000958222
0.000567825
0.00102783
0.000803098
0.00114718
0.000826399
0.000829075
0.000758763
0.00133643
0.000404547
0.00051251
0.000997126
0.000673818
0.00064902
0.000553803
0.000928486
0.000783268
0.00075859
0.00072023
0.00118201
0.000721924
0.000274333
0.000443665
0.000722122
0.000539979
0.000513945
0.000356065
0.000760645
0.00083333
0.000761929
0.000718306
0.00076361
0.000822224
0.000578852
0.000602558
0.000623125
0.000579668
0.000331429
0.000609872
0.000221855
0.000351386
0.000382908
0.000632161
0.000594056
0.000620367
0.000513225
0.000775557
0.000481816
0.000586801
0.000481807
0.000511828
0.000667371
0.000653588
0.000403151
0.00105188
0.000769552
0.000540479
0.000536608
0.000635345
0.00064925
0.00068041
0.000814708
0.000774041
0.000543296
0.000386374
0.000408122
0.000418804
0.000593901
0.000757766
0.000316763
0.000508565
0.00100809
0.000916141
0.000939263
0.0010876
0.000877535
0.000924509
0.000705587
0.0010376
0.00073038
0.000515395
0.000708229
0.000676998
0.000852622
0.000848169
0.000718117
0.00128679
0.00067407
0.000995787
0.000523285
0.000493697
0.000384953
0.000520988
0.000686373
0.000291032
0.000827266
0.000544851
0.000351949
0.000340084
0.000605122
0.00047229
0.000363033
0.000743741
0.00066306
0.000397575
0.000792442
0.000261797
0.000373532
0.000436395
0.000415253
0.000349156
0.000542809
0.000479249
0.000293811
0.000538132
0.000837281
0.000482244
0.00054091
0.000763605
0.00048349
0.000300027
0.000501901
0.000464019
0.00047431
0.0004068
0.000719776
0.000940382
0.00104197
0.000446392
0.000472299
0.000566661
0.000326497
0.000451325
0.000392387
0.000532048
0.000422699
0.000381415
0.000296852
0.000625161
0.00026182
0.000283588
0.000204419
0.000609844
0.000356664
0.000247306
0.000495362
0.000433042
0.000472861
0.000482592
0.000333967
0.00035914
0.000335731
0.000319557
0.000222185
0.000260669
0.00027483
0.00030552
0.000322047
4.28619e-05
0.000218125
0.000139369
0.000232648
0.000127754
0.000341452
0.00030185
0.000155953
6.40763e-05
0.000225681
0.000273455
0.000233994
0.000419375
0.000158365
0.000101024
0.000312135
0.000110564
0.000151614
0.000141001
0.000149915
0.000226536
0.000121679
9.28561e-05
0.000115948
8.62665e-05
8.34744e-05
0.000115358
0.000189375
0.00240748
0.00102061
0.00086852
0.00107227
0.00118796
0.00124533
0.000958438
0.00104281
0.00113149
0.00111921
0.000755771
0.000891959
0.00106611
0.000826736
0.000670624
0.000574236
0.000677038
0.000695224
0.000748729
0.000750657
0.00058499
0.000496244
0.000514157
0.000703966
0.00051765
0.00050405
0.000662294
0.000886205
0.000535369
0.000523994
0.000481954
0.000742133
0.000621901
0.000659839
0.000748181
0.000647376
0.000758123
0.000729545
0.000685573
0.000600748
0.000695599
0.000672798
0.000540189
0.000716445
0.000425035
0.000487441
0.000543848
0.000636861
0.000579011
0.000674536
0.000460904
0.000566321
0.00115811
0.000951254
0.000453727
0.000640871
0.000751436
0.00072945
0.000917039
0.000740866
0.000683894
0.000585925
0.000934485
0.000501887
0.00104962
0.000536451
0.00061121
0.000747576
0.000934134
0.000660368
0.000580606
0.00104044
0.000544249
0.000722047
0.000622869
0.00127248
0.000972521
0.00079054
0.000879962
0.000764439
0.000773612
0.000411703
0.000634911
0.000712467
0.000763006
0.000477874
0.00103324
0.000895575
0.000644902
0.00124325
0.00120448
0.00111001
0.00110914
0.00045319
0.000792269
0.000826377
0.000671162
0.00121994
0.00124056
0.000731777
0.000721554
0.000938496
0.00115637
0.00106258
0.000709334
0.000606755
0.00104725
0.0010717
0.000942105
0.000847155
0.000238299
0.00055658
0.000727853
0.000944874
0.000743883
0.00104883
0.00150273
0.000827585
0.000696556
0.000422022
0.00143022
0.000405291
0.000406848
0.00035039
0.000400874
0.000705503
0.000983907
0.000593418
0.000520726
0.000667266
0.000640751
0.00107817
0.000733743
0.0007148
0.000445501
0.000787862
0.000579711
0.000520124
0.000618569
0.000465748
0.000419377
0.000598736
0.000452294
0.000536815
0.000627982
0.000745748
0.000544506
0.000616849
0.000617374
0.000602152
0.000632828
0.000433892
0.000611425
0.000646619
0.000481519
0.000541993
0.000900888
0.000872263
0.000603989
0.000634459
0.000818277
0.000592164
0.000529836
0.000636818
0.000654536
0.000981783
0.000640174
0.000558427
0.000544849
0.000476363
0.000300314
0.000384378
0.00046434
0.000750054
0.000644121
0.000735185
0.000872568
0.00118018
0.00107824
0.00101376
0.000710725
0.00101022
0.000739458
0.00064129
0.000843884
0.000728418
0.000765654
0.000627485
0.000811546
0.000692369
0.000337188
0.000425796
0.000954869
0.00100625
0.000858218
0.000481683
0.000368467
0.000385472
0.000614209
0.000735652
0.000571259
0.000640839
0.000547494
0.000248562
0.000334254
0.000439562
0.00051943
0.00030462
0.000687671
0.000434961
0.000717361
0.00046746
0.000667356
0.000436998
0.000267336
0.000354502
0.000300708
0.000408869
0.000431953
0.000235637
0.000342927
0.000641922
0.000587288
0.000613973
0.000527426
0.000853362
0.000697527
0.000269695
0.000525735
0.000522697
0.000492187
0.000427024
0.000288287
0.000870562
0.00105753
0.0010682
0.000351922
0.000330993
0.000665635
0.000439474
0.000450233
0.000570102
0.000622684
0.000500001
0.000341713
0.000458411
0.000640781
0.000326203
0.000198789
0.000295085
0.000332186
0.000946498
0.000443734
0.000260808
0.000498279
0.000674677
0.000985598
0.000565366
0.000364053
0.000736777
0.000360757
0.00031341
0.00026727
0.000449316
0.000338123
0.00034902
0.000343827
0.000169427
0.000245979
0.000141625
0.00018307
0.000107624
0.000102516
0.000577603
0.000136278
0.000282265
0.00014538
4.71978e-05
0.000202239
0.000263865
0.000562381
0.000326661
4.80486e-05
8.20553e-05
0.000202186
0.000114503
0.000289303
0.00014786
0.000114949
0.000226957
0.000110424
8.2665e-05
0.000121731
8.81543e-05
9.06702e-05
0.000154888
0.000142371
0.000346302
0.00241391
0.0022454
0.000928391
0.000814212
0.000886808
0.00105711
0.000967686
0.00118052
0.00120166
0.00095535
0.00101606
0.00103058
0.001145
0.00115112
0.000778691
0.000885055
0.00104992
0.000967804
0.000746164
0.000704977
0.000517483
0.000723157
0.000624479
0.000679312
0.000631384
0.000607476
0.000551204
0.00044707
0.000537663
0.000637123
0.000638451
0.000505345
0.000545897
0.000620604
0.000647849
0.000674995
0.000529767
0.000533711
0.000612287
0.000562077
0.00045521
0.000427873
0.000606963
0.000583389
0.000775476
0.000622988
0.000626913
0.000654982
0.000779067
0.00056
0.000425893
0.000699657
0.000639272
0.000525485
0.000577851
0.000472246
0.000481921
0.000370951
0.000702538
0.000477395
0.000400964
0.00056527