/*--------------------------------*- C++ -*----------------------------------*\
  =========                 |
  \\      /  F ield         | OpenFOAM: The Open Source CFD Toolbox
   \\    /   O peration     | Website:  https://openfoam.org
    \\  /    A nd           | Version:  7
     \\/     M anipulation  |
\*---------------------------------------------------------------------------*/
FoamFile
{
    version     2.0;
    format      ascii;
    class       volScalarField;
    location    "3.5";
    object      p;
}
// * * * * * * * * * * * * * * * * * * * * * * * * * * * * * * * * * * * * * //

dimensions      [0 2 -2 0 0 0 0];

internalField   nonuniform List<scalar> 
18630
(
-70.3609
-71.2256
-70.409
-69.7438
-72.1307
-71.381
-71.1231
-70.4633
-69.8066
-68.4683
-72.6542
-72.3803
-72.4347
-71.5214
-71.2493
-69.6273
-70.5278
-69.8726
-68.5025
-66.98
-72.5048
-73.0299
-73.4555
-72.5197
-72.6281
-71.5017
-71.6514
-71.3423
-69.7103
-68.1952
-70.5891
-69.9392
-68.4911
-66.9952
-66.1015
-72.2402
-72.7728
-73.8779
-73.2793
-73.5871
-72.7354
-72.6963
-72.7921
-71.5899
-69.8282
-71.7748
-71.4229
-69.7975
-68.1984
-67.4798
-70.6484
-69.9918
-68.4573
-66.9971
-66.1015
-65.3896
-71.5364
-72.7009
-73.8936
-73.1588
-74.0388
-73.9177
-73.5059
-73.6936
-72.7676
-71.4611
-72.9078
-72.902
-71.6526
-69.8313
-68.7634
-71.8917
-71.4832
-69.8585
-68.1837
-67.4374
-67.0164
-70.7062
-70.0252
-68.4045
-67.0003
-66.0966
-65.4628
-64.7662
-70.2781
-71.9235
-73.4694
-72.9194
-73.8983
-74.2447
-73.5075
-74.1669
-73.7915
-72.7725
-73.7366
-73.7341
-72.7658
-71.3492
-70.341
-73.084
-72.9702
-71.6888
-69.8229
-68.6968
-68.3929
-72
-71.5344
-69.8941
-68.1435
-67.3729
-66.9532
-66.2465
-70.7563
-70.0257
-68.333
-66.9933
-66.0679
-65.5112
-64.7644
-64.1891
-68.5644
-70.8481
-72.0043
-72.13
-73.4248
-73.8756
-73.0107
-73.8856
-73.9619
-73.4235
-73.7101
-74.1881
-73.6595
-72.7453
-71.8202
-73.8971
-73.7298
-72.7883
-71.264
-70.2533
-69.7825
-73.2352
-72.9884
-71.6839
-69.7587
-68.5956
-68.2528
-67.2962
-72.0952
-71.5691
-69.9137
-68.0972
-67.3242
-66.8693
-66.1878
-65.1289
-70.789
-70.0053
-68.2693
-66.9724
-66.0251
-65.4764
-64.7482
-64.1126
-63.0967
-66.3722
-69.0597
-70.2486
-70.8048
-71.7856
-72.7801
-72.0422
-73.3546
-73.6878
-74.1753
-73.2519
-73.959
-73.8435
-73.2516
-72.7997
-73.8619
-74.1077
-73.4649
-72.6064
-71.5927
-70.849
-73.9844
-73.6755
-72.7584
-71.4208
-70.132
-69.561
-68.6254
-73.3656
-72.9488
-71.6303
-69.6487
-68.4888
-68.1006
-67.1432
-66.0066
-72.1769
-71.5878
-69.9049
-68.0409
-67.2654
-66.7678
-66.1192
-65.0647
-63.951
-70.8182
-69.9702
-68.2363
-66.9671
-65.9829
-65.4313
-64.6567
-64.0601
-63.0729
-61.9662
-63.7599
-66.7859
-67.7473
-69.2101
-70.2438
-70.9511
-70.8607
-71.801
-72.5724
-73.2816
-72.0454
-73.3632
-73.6215
-73.9729
-73.5708
-73.4663
-73.9579
-73.7855
-73.0915
-72.5549
-72.2538
-73.9919
-74.02
-73.2557
-72.422
-71.3517
-70.4913
-69.4026
-74.0329
-73.5923
-72.6242
-71.0806
-69.9509
-69.3348
-68.2613
-66.2147
-73.438
-72.8953
-71.5672
-69.5085
-68.3639
-67.9047
-66.9899
-65.8424
-64.3671
-72.2416
-71.6002
-69.8499
-67.9776
-67.1817
-66.6513
-66.0524
-64.995
-63.8566
-62.6751
-70.8468
-69.935
-68.2103
-66.9188
-65.9265
-65.3724
-64.5759
-64.0273
-63.0421
-61.9471
-61.4947
-62.0152
-63.807
-64.8311
-66.9381
-67.6273
-68.1381
-69.4412
-70.0555
-70.6454
-71.2523
-70.844
-71.6284
-72.4254
-73.0343
-72.6577
-72.1318
-73.4366
-73.5967
-73.7834
-73.3411
-72.9725
-73.6886
-73.9529
-73.675
-72.9078
-72.4011
-71.9691
-70.7472
-74.0193
-73.8087
-73.0194
-72.255
-71.16
-70.1166
-69.1443
-67.8351
-74.0064
-73.5353
-72.5076
-70.723
-69.7027
-69.0856
-67.9461
-65.9476
-65.0797
-73.4512
-72.8183
-71.459
-69.3451
-68.21
-67.6966
-66.8371
-65.65
-64.1854
-63.2937
-72.2842
-71.5834
-69.8043
-67.9101
-67.0956
-66.5416
-65.9683
-64.9121
-63.7468
-62.5546
-61.9184
-70.8724
-69.9103
-68.1797
-66.8423
-65.859
-65.345
-64.5818
-64.0086
-63.006
-61.9295
-61.4772
-60.7674
-58.9843
-60.4284
-61.771
-62.4705
-63.9388
-65.1499
-65.5193
-66.744
-67.4889
-67.8187
-68.2179
-69.3431
-69.9307
-70.5546
-71.0214
-71.5303
-70.7505
-71.5562
-72.4158
-72.7414
-72.3004
-72.0316
-72.3014
-73.458
-73.5248
-73.4883
-73.1735
-72.5154
-70.788
-73.8616
-73.8973
-73.4892
-72.7033
-72.0996
-71.5571
-70.1067
-68.0993
-73.8955
-73.5748
-72.7308
-72.0205
-70.8536
-69.739
-68.7407
-67.5576
-65.2852
-73.9754
-73.4275
-72.3612
-70.4498
-69.5041
-68.7758
-67.664
-65.8363
-64.9873
-63.7298
-73.4298
-72.7287
-71.3287
-69.2183
-68.04
-67.4985
-66.6863
-65.4198
-63.9748
-63.1621
-62.6548
-72.3017
-71.5531
-69.7463
-67.8201
-67.0019
-66.4363
-65.8898
-64.8079
-63.6276
-62.4295
-61.8165
-61.159
-70.8885
-69.8798
-68.1283
-66.8215
-65.8242
-65.3033
-64.5852
-63.998
-62.9467
-61.8987
-61.4506
-60.7443
-60.352
-58.2928
-58.9777
-59.8356
-60.1609
-61.0738
-61.8515
-62.6552
-63.3561
-63.9357
-64.9998
-65.3737
-65.8259
-66.7981
-67.2113
-67.6016
-68.0683
-68.3308
-69.2001
-69.8028
-70.5651
-70.9664
-71.0861
-70.3831
-70.9023
-71.6084
-72.4444
-72.5846
-71.8977
-71.7321
-70.5626
-72.4683
-73.3631
-73.3536
-73.2092
-72.8378
-71.9999
-69.961
-68.2506
-73.7958
-73.7213
-73.4398
-72.3286
-71.78
-70.9198
-69.6213
-67.5744
-65.9887
-73.8674
-73.3192
-72.6007
-71.8477
-70.4899
-69.3545
-68.4525
-67.1018
-64.8767
-63.6614
-73.914
-73.2417
-72.1392
-70.1887
-69.2944
-68.4368
-67.3225
-65.6616
-64.7852
-63.5425
-62.8481
-73.3899
-72.6613
-71.2059
-69.0141
-67.8796
-67.3209
-66.53
-65.1844
-63.8156
-63.0372
-62.5887
-61.4734
-72.2887
-71.5166
-69.6575
-67.7223
-66.9029
-66.3528
-65.7982
-64.7018
-63.4907
-62.2947
-61.752
-61.079
-60.4714
-70.8885
-69.8472
-68.0831
-66.8097
-65.7889
-65.2021
-64.5638
-63.9796
-62.8542
-61.8516
-61.3921
-60.7323
-60.3326
-60.019
-57.1692
-57.4994
-58.2937
-59.0003
-58.9913
-59.9547
-60.2371
-60.254
-61.1574
-61.5378
-61.9828
-62.7419
-63.2798
-63.5099
-64.0104
-64.7273
-65.2212
-65.6399
-65.8322
-66.5474
-66.9969
-67.5907
-68.0258
-68.0476
-67.9047
-69.0428
-69.8904
-70.5258
-70.962
-70.7539
-69.9119
-68.8844
-71.0622
-71.7297
-72.4525
-72.1664
-71.4934
-71.2237
-69.7897
-68.3041
-72.5404
-73.1293
-73.2379
-72.9096
-72.3809
-71.4084
-69.3222
-67.5887
-65.8247
-73.7726
-73.7149
-73.2804
-72.4564
-71.3186
-70.4453
-68.904
-67.0283
-65.3834
-63.6512
-73.834
-73.0732
-72.2617
-71.5765
-70.1252
-68.8839
-68.1476
-66.712
-64.4589
-63.3135
-62.3742
-73.8574
-72.9618
-71.8405
-70.1337
-69.0708
-68.1145
-67.0009
-65.5417
-64.4963
-63.3657
-62.5952
-62.2848
-73.3461
-72.5493
-71.0605
-68.6929
-67.6287
-67.1368
-66.348
-65.0218
-63.7235
-62.9216
-62.4194
-61.2926
-60.6514
-72.2594
-71.4741
-69.5837
-67.6107
-66.8094
-66.2955
-65.6655
-64.582
-63.3433
-62.1556
-61.6988
-60.9899
-60.4109
-60.1351
-70.8822
-69.8125
-68.0522
-66.7854
-65.7478
-65.1228
-64.5192
-63.958
-62.7705
-61.8187
-61.3453
-60.7229
-60.3144
-60.0027
-59.9229
-56.8812
-57.1173
-57.4311
-57.4682
-58.2118
-58.1708
-58.9743
-59.3011
-59.0278
-59.9173
-60.2776
-60.5072
-60.5578
-61.0557
-61.4497
-61.6786
-62.0852
-62.6016
-63.0672
-63.2934
-63.4922
-63.9453
-64.5475
-65.0048
-65.3392
-65.5525
-65.3009
-66.2746
-66.8152
-67.4605
-67.6887
-67.6261
-67.2774
-66.9159
-69.0306
-69.889
-70.4547
-70.6344
-70.1494
-69.3366
-68.0459
-66.7343
-71.0857
-71.8253
-72.2811
-71.8896
-71.1702
-70.6072
-69.0307
-67.4153
-65.6601
-72.5363
-73.037
-72.9884
-72.5787
-71.8337
-70.7012
-68.6028
-66.9556
-65.065
-63.5332
-73.7946
-73.5822
-73.3551
-71.7479
-70.8205
-69.6949
-68.1681
-66.434
-64.8551
-63.2271
-62.2488
-73.8118
-72.8666
-71.8463
-70.9973
-69.7138
-68.5001
-67.8816
-66.375
-64.0993
-62.9876
-62.1297
-62.0288
-73.7761
-72.6981
-71.5407
-69.8283
-68.8131
-67.7709
-66.7071
-65.3803
-64.1441
-63.1745
-62.4324
-62.2373
-61.0886
-73.2247
-72.375
-70.8628
-68.3386
-67.4112
-66.9553
-66.1497
-64.8788
-63.6461
-62.8095
-62.1895
-61.0875
-60.5898
-60.2336
-72.227
-71.4081
-69.5135
-67.49
-66.7072
-66.1759
-65.5002
-64.4546
-63.1929
-62.0889
-61.6443
-60.9022
-60.3491
-60.0916
-60.0399
-70.8756
-69.7759
-68.0201
-66.7687
-65.709
-65.0724
-64.4666
-63.9353
-62.7022
-61.7806
-61.3085
-60.7115
-60.2961
-59.9953
-59.901
-60.4209
-56.5606
-56.8185
-57.0817
-57.0699
-57.382
-57.7722
-57.5795
-58.3129
-58.5053
-58.3108
-58.8784
-59.2289
-59.3891
-59.2173
-59.7504
-60.1065
-60.3674
-60.6248
-60.4924
-60.8814
-61.2831
-61.5318
-61.7344
-61.9157
-62.3919
-62.8105
-63.0691
-63.338
-63.3457
-63.8861
-64.3139
-64.8248
-64.9663
-65.094
-64.8035
-64.6365
-66.0899
-66.8658
-67.3269
-67.5571
-67.1026
-66.6872
-66.2141
-65.0553
-68.9973
-69.6929
-70.2517
-70.1738
-69.7812
-68.8099
-67.2929
-65.9915
-64.5526
-71.191
-71.6528
-72.1723
-71.6266
-70.6663
-69.9655
-68.2096
-66.5665
-64.9841
-63.3476
-72.5673
-72.9711
-72.6669
-72.0989
-71.216
-69.9104
-67.7894
-66.3217
-64.3449
-63.0491
-62.083
-73.771
-73.4415
-73.0584
-71.5162
-70.1081
-68.9451
-67.4412
-65.8678
-64.3584
-62.8814
-61.9258
-60.8877
-73.7748
-72.6732
-71.5817
-70.6536
-69.3419
-68.0587
-67.5831
-65.9259
-63.957
-62.7067
-61.8923
-61.8459
-61.1596
-73.6
-72.4392
-71.2649
-69.7359
-68.4716
-67.4149
-66.4167
-65.2629
-63.7031
-62.9822
-62.296
-62.2115
-60.951
-60.2391
-73.0536
-72.188
-70.6297
-68.199
-67.2824
-66.7822
-65.9685
-64.6902
-63.5545
-62.6582
-61.9789
-60.8638
-60.5273
-60.1761
-59.9181
-72.1776
-71.3207
-69.4014
-67.3525
-66.5833
-66.014
-65.3375
-64.3334
-63.0226
-62.0608
-61.5866
-60.8127
-60.2841
-60.0417
-60.0173
-60.3181
-70.8578
-69.7361
-67.9557
-66.7505
-65.6939
-64.9899
-64.4351
-63.9118
-62.6479
-61.7236
-61.2719
-60.696
-60.2806
-60.0005
-59.8797
-60.4031
-60.9863
-56.2807
-56.5805
-56.7394
-56.8405
-57.1301
-57.294
-57.1097
-57.4096
-57.6808
-58.0596
-57.7198
-58.1434
-58.4809
-58.5008
-58.3534
-58.7822
-59.2461
-59.2413
-59.7269
-59.16
-59.6752
-60.0105
-60.2421
-60.3569
-60.6088
-60.3883
-60.7975
-61.2419
-61.4747
-61.5995
-61.6693
-61.8062
-62.3757
-62.6184
-62.9198
-63.1597
-62.9772
-62.7266
-63.6158
-64.1002
-64.6203
-64.7663
-64.9165
-64.6052
-64.2086
-63.4943
-65.8145
-66.8866
-67.1943
-67.0981
-66.671
-66.1821
-65.5343
-64.4745
-63.3456
-69.0552
-69.5009
-69.8519
-69.7501
-69.3578
-68.0833
-66.6155
-65.2226
-63.9387
-62.6667
-71.5473
-71.5724
-71.814
-71.1772
-70.0949
-69.0626
-67.3938
-65.7827
-64.2599
-62.8778
-61.5836
-72.5007
-72.7412
-72.1483
-71.5365
-70.4931
-69.0243
-67.0992
-65.7683
-63.6913
-62.617
-61.7211
-61.0821
-73.6823
-73.2208
-72.7228
-70.8596
-69.4871
-68.1944
-66.5754
-65.3444
-63.8985
-62.5725
-61.6613
-60.791
-60.3828
-73.6608
-72.4682
-71.2558
-70.46
-68.9178
-67.6123
-67.122
-65.4058
-63.7664
-62.4473
-61.6431
-61.6667
-61.0338
-60.0268
-73.428
-72.1413
-70.8689
-69.451
-68.0695
-67.0967
-66.1868
-65.3197
-63.385
-62.8014
-62.1518
-62.2733
-60.8312
-60.1635
-59.6453
-72.913
-71.9802
-70.3044
-68.1861
-67.1259
-66.5644
-65.6683
-64.5092
-63.3701
-62.4273
-61.7886
-60.7252
-60.4697
-60.1097
-59.8623
-60.2001
-72.1107
-71.2244
-69.2779
-67.201
-66.4446
-65.843
-65.1781
-64.2118
-62.8373
-61.9898
-61.5125
-60.727
-60.213
-59.989
-59.9976
-60.2976
-60.8987
-70.8214
-69.6892
-67.8873
-66.7246
-65.6798
-64.8877
-64.4331
-63.8846
-62.5839
-61.6669
-61.23
-60.6962
-60.2679
-60.0034
-59.8596
-60.3867
-60.9661
-61.4933
-56.1281
-56.3718
-56.4351
-56.6025
-56.5985
-56.9128
-56.8538
-57.0972
-57.3181
-57.5285
-57.1803
-57.4376
-57.7398
-57.9465
-58.2494
-57.6985
-58.0709
-58.404
-58.445
-58.8739
-58.3569
-58.6578
-59.145
-59.1571
-59.4438
-59.6549
-59.0939
-59.5802
-60.0133
-60.124
-60.3247
-60.4365
-60.5653
-60.2772
-60.7961
-61.0336
-61.2669
-61.4328
-61.4037
-61.2585
-61.7597
-62.3645
-62.4566
-62.5784
-62.841
-62.6357
-62.3242
-61.9988
-63.2633
-63.9283
-64.2717
-64.4283
-64.5055
-64.1634
-63.697
-62.9967
-62.3804
-65.6475
-66.8244
-66.7468
-66.4861
-66.0627
-65.4289
-64.7716
-63.8336
-62.8295
-61.8856
-68.8676
-69.3514
-69.4322
-69.3086
-68.715
-67.2627
-65.8454
-64.4242
-63.284
-62.1621
-61.6726
-70.8744
-71.3495
-71.4357
-70.583
-69.4571
-68.2009
-66.6684
-65.0387
-63.6249
-62.3207
-61.1856
-60.56
-72.4228
-72.5543
-71.7099
-70.8827
-69.6879
-68.1872
-66.4054
-65.1587
-63.1136
-62.2218
-61.4425
-60.8672
-60.261
-73.5391
-72.9065
-72.3351
-70.2309
-68.7855
-67.4881
-65.8173
-64.7982
-63.4821
-62.2485
-61.4054
-60.6717
-60.2104
-59.7569
-73.4965
-72.0936
-70.8814
-69.791
-68.4626
-67.1499
-66.5298
-64.9164
-63.5958
-62.2688
-61.4442
-61.4757
-60.9979
-60.1034
-59.6999
-73.2633
-71.8526
-70.5485
-68.9763
-67.6709
-66.7937
-65.9483
-65.2302
-63.2992
-62.6644
-62.0217
-62.1708
-60.7282
-60.0846
-59.5685
-59.5486
-72.7356
-71.7379
-69.9211
-68.0886
-66.988
-66.3777
-65.5148
-64.3299
-63.1539
-62.2513
-61.6357
-60.6852
-60.4232
-60.0452
-59.804
-60.1587
-60.4022
-72.045
-71.128
-69.1006
-67.0081
-66.3094
-65.6894
-65.0452
-64.089
-62.6562
-61.9115
-61.4251
-60.644
-60.1534
-59.9384
-59.9748
-60.2965
-60.8566
-61.2141
-70.777
-69.6315
-67.8286
-66.6843
-65.629
-64.8261
-64.3865
-63.8591
-62.5525
-61.6107
-61.1834
-60.6798
-60.2518
-59.9928
-59.8401
-60.3715
-60.9463
-61.4745
-61.9696
-56.0046
-56.1103
-56.2547
-56.3628
-56.4698
-56.5937
-56.6009
-56.6385
-56.8934
-57.1392
-56.8221
-56.9624
-57.2766
-57.5221
-57.824
-57.1285
-57.3929
-57.5684
-57.9122
-58.0925
-58.4256
-57.5894
-57.9601
-58.3287
-58.5356
-58.6702
-58.8639
-58.2135
-58.5915
-58.9612
-59.0033
-59.2541
-59.379
-59.6011
-59.0847
-59.5231
-59.9084
-60.08
-60.2544
-60.2584
-59.8394
-60.2896
-60.1585
-60.6334
-60.9004
-61.1403
-61.2566
-61.0765
-61.0644
-60.7413
-61.9706
-61.924
-62.1019
-62.4165
-62.6134
-62.3421
-61.9378
-61.5507
-61.3329
-63.1106
-63.5988
-64.1549
-64.2364
-64.1198
-63.7916
-63.2249
-62.4221
-61.7238
-61.0911
-65.1581
-66.5465
-66.3788
-66.0157
-65.5217
-64.8227
-64.1322
-63.1656
-62.3866
-61.4203
-60.6502
-68.6229
-69.0693
-68.9713
-68.6538
-67.8185
-66.2591
-65.0222
-63.8142
-62.7236
-61.6726
-61.0477
-60.2851
-70.8281
-70.989
-70.9071
-69.862
-68.516
-67.2249
-65.8361
-64.3556
-63.0685
-61.8814
-60.845
-60.23
-59.9011
-72.2562
-72.2417
-71.2122
-70.224
-68.8981
-67.3963
-65.6778
-64.3314
-62.6246
-61.8126
-61.1605
-60.6445
-60.0976
-59.5818
-73.3664
-72.6947
-71.7602
-69.8011
-68.12
-66.8576
-65.2704
-64.2753
-63.1147
-61.9715
-61.1468
-60.4859
-59.9121
-59.6321
-59.3269
-73.2726
-71.8131
-70.3979
-69.5442
-68.0013
-66.7012
-65.9336
-64.407
-63.4
-62.0897
-61.2815
-61.3235
-60.8344
-60.0656
-59.6442
-59.4332
-72.9955
-71.595
-70.378
-68.7034
-67.3688
-66.521
-65.6863
-65.0175
-63.3207
-62.5149
-61.8321
-61.944
-60.6282
-59.9978
-59.4856
-59.4731
-59.8362
-72.5816
-71.5348
-69.5998
-67.9413
-66.8539
-66.1674
-65.2667
-64.1564
-62.983
-62.1092
-61.4998
-60.6301
-60.3618
-59.9792
-59.7466
-60.1488
-60.3198
-60.9246
-71.9733
-71.0206
-68.8622
-66.7363
-66.1452
-65.5836
-64.9593
-63.9617
-62.4817
-61.8238
-61.3319
-60.5613
-60.1021
-59.8986
-59.9539
-60.2971
-60.813
-61.1874
-61.6674
-70.7195
-69.5656
-67.7632
-66.6391
-65.5454
-64.784
-64.2793
-63.8142
-62.5327
-61.5637
-61.1413
-60.661
-60.2337
-59.9708
-59.8206
-60.3571
-60.9256
-61.4587
-61.9494
-62.3086
-55.8067
-56.0015
-56.1291
-56.1182
-56.234
-56.3913
-56.3548
-56.3924
-56.5887
-56.8307
-56.5252
-56.7032
-56.768
-57.1393
-57.329
-56.8257
-57.0148
-57.2979
-57.4452
-57.7596
-57.9454
-57.1028
-57.3872
-57.5698
-57.8675
-58.0508
-58.3503
-58.408
-57.5972
-57.8815
-58.1526
-58.4987
-58.4909
-58.7249
-58.8617
-58.1943
-58.5188
-58.8262
-59.0923
-59.2106
-59.2801
-59.2867
-59.3519
-58.976
-59.3137
-59.7911
-60.0134
-60.0732
-60.0202
-59.9337
-60.1258
-59.7485
-60.1065
-60.4872
-60.7067
-60.9391
-61.0148
-60.8563
-60.6756
-60.1953
-60.1261
-61.6834
-61.564
-61.9897
-62.3647
-62.2276
-61.9457
-61.6048
-61.1592
-60.6771
-60.29
-62.9561
-63.4998
-63.8366
-63.8351
-63.6087
-63.2956
-62.5966
-61.9718
-61.4963
-60.9165
-60.2994
-65.6633
-65.7288
-65.8238
-65.6444
-64.978
-64.2103
-63.3962
-62.655
-61.8529
-61.3126
-60.3857
-59.7432
-68.2494
-68.5109
-68.3455
-67.8211
-67.0072
-65.5583
-64.2041
-63.1302
-62.0283
-61.3192
-60.4657
-60.128
-59.5222
-70.6362
-70.6759
-70.3466
-68.9623
-67.683
-66.3129
-65.0188
-63.6672
-62.5203
-61.4935
-60.4944
-59.902
-59.7653
-59.65
-72.0105
-71.6285
-70.4978
-69.4362
-68.2116
-66.5984
-65.0411
-63.796
-62.3759
-61.5192
-60.9023
-60.409
-59.9132
-59.4426
-59.2562
-73.0899
-72.1515
-71.1489
-68.8955
-67.4895
-66.2348
-64.7194
-63.7661
-62.692
-61.7416
-60.9283
-60.3315
-59.7019
-59.5169
-59.185
-59.1323
-72.9972
-71.3767
-69.9363
-69.1854
-67.5462
-66.2658
-65.4232
-63.997
-63.0489
-61.88
-61.1068
-61.1929
-60.6577
-60.0289
-59.5835
-59.3659
-59.3251
-72.7113
-71.3526
-70.0178
-68.5165
-67.0611
-66.2455
-65.412
-64.7433
-63.3052
-62.3427
-61.6602
-61.6821
-60.5306
-59.9059
-59.4248
-59.3999
-59.6895
-60.3068
-72.43
-71.4038
-69.4676
-67.7906
-66.6779
-65.9038
-65.0057
-63.9894
-62.8284
-62.0075
-61.3677
-60.5662
-60.2844
-59.9086
-59.6879
-60.1367
-60.256
-60.8506
-61.0939
-71.8894
-70.9209
-68.6459
-66.4421
-65.9709
-65.504
-64.86
-63.8234
-62.3184
-61.7308
-61.2356
-60.4937
-60.0515
-59.8693
-59.9319
-60.292
-60.7706
-61.1602
-61.6307
-62.0386
-70.6409
-69.4893
-67.6953
-66.596
-65.4864
-64.7119
-64.1764
-63.7463
-62.5029
-61.5209
-61.0961
-60.6369
-60.2151
-59.9504
-59.8043
-60.3431
-60.9057
-61.4474
-61.925
-62.2858
-62.289
-55.8428
-55.8089
-55.9694
-55.9812
-56.0801
-56.2923
-56.0875
-56.2045
-56.4062
-56.6041
-56.2603
-56.3743
-56.6327
-56.8343
-57.0232
-56.5586
-56.7211
-56.6718
-57.0538
-57.3009
-57.4734
-56.8036
-56.9749
-57.2257
-57.3901
-57.5567
-57.924
-58.1315
-57.0882
-57.3423
-57.4217
-57.8331
-57.9632
-58.2225
-58.4031
-58.4893
-57.544
-57.8096
-58.0812
-58.4008
-58.4424
-58.5589
-58.7561
-58.9891
-58.155
-58.5353
-58.8051
-58.9777
-59.1344
-59.1037
-59.0514
-59.3423
-59.0936
-58.6345
-59.2361
-59.7139
-59.848
-59.932
-59.6515
-59.7385
-59.9213
-59.5567
-59.2779
-59.9287
-60.3474
-60.3988
-60.8835
-60.7114
-60.3965
-60.3589
-60.2187
-60.2208
-59.4482
-61.1865
-61.0434
-61.6861
-62.3647
-61.7779
-61.6081
-61.195
-60.8294
-60.445
-59.9881
-59.6728
-63.1626
-63.0659
-63.4896
-63.4864
-63.0747
-62.9194
-62.0563
-61.4143
-60.8513
-60.5618
-59.7986
-59.6268
-65.24
-65.4068
-65.3633
-65.0974
-64.5342
-63.7179
-62.8407
-62.0165
-61.2543
-60.5616
-60.2003
-59.5886
-59.1445
-67.9224
-68.1575
-67.7137
-66.8576
-66.104
-64.7008
-63.58
-62.6397
-61.5384
-60.7394
-60.5091
-59.9134
-59.359
-58.9091
-70.3135
-69.9888
-69.4916
-68.2115
-66.884
-65.3594
-64.2589
-63.2312
-62.0446
-61.1185
-60.3546
-59.7734
-59.5848
-59.5446
-59.0549
-71.7536
-70.9249
-69.4447
-68.5322
-67.4505
-65.8153
-64.4156
-63.3764
-62.0319
-61.2705
-60.647
-60.2958
-59.8489
-59.2609
-59.0927
-58.9528
-72.6576
-71.5914
-70.4102
-68.2657
-66.7486
-65.5523
-64.2107
-63.3083
-62.2741
-61.5041
-60.7621
-60.0609
-59.8083
-59.3947
-59.0813
-59.1419
-59.0351
-72.5866
-70.7922
-69.5061
-68.4472
-67.12
-65.8359
-64.989
-63.6909
-62.6707
-61.7271
-60.885
-61.1188
-60.5412
-59.9778
-59.5207
-59.3249
-59.253
-59.6719
-72.4501
-71.075
-69.5571
-68.3359
-66.7844
-65.9821
-65.0991
-64.4298
-63.1383
-62.1374
-61.5134
-61.4374
-60.4205
-59.796
-59.3547
-59.323
-59.6565
-60.2221
-60.6789
-72.2361
-71.2417
-69.4841
-67.7212
-66.5435
-65.6533
-64.7999
-63.8763
-62.6813
-61.9417
-61.2468
-60.5028
-60.198
-59.8406
-59.6365
-60.1232
-60.2319
-60.7715
-61.0376
-61.3581
-71.7885
-70.8169
-68.4742
-66.2995
-65.8483
-65.4313
-64.7726
-63.7184
-62.1538
-61.6424
-61.142
-60.412
-60.0006
-59.8399
-59.9035
-60.2891
-60.7286
-61.1326
-61.5947
-61.9889
-62.1064
-70.5906
-69.406
-67.6347
-66.533
-65.4275
-64.5962
-64.0613
-63.728
-62.4711
-61.4752
-61.0513
-60.6103
-60.1913
-59.9425
-59.7954
-60.3296
-60.8854
-61.4363
-61.897
-62.2643
-62.2545
-62.2194
-70.555
-55.6974
-55.8133
-55.941
-55.8218
-55.925
-56.115
-55.9482
-56.0437
-56.258
-56.501
-56.0629
-56.1837
-56.3257
-56.5755
-56.8307
-56.2807
-56.3405
-56.5305
-56.7618
-56.9543
-57.2758
-56.5077
-56.6565
-56.7146
-57.0307
-57.2244
-57.4212
-57.6317
-56.7674
-56.9943
-57.1893
-57.337
-57.5125
-57.7251
-57.9044
-58.0731
-57.0364
-57.2202
-57.48
-57.8303
-57.9147
-57.9923
-58.1938
-58.4177
-58.3919
-57.4949
-57.7531
-57.9719
-58.2656
-58.3356
-58.4454
-58.6802
-58.6086
-58.8517
-58.0938
-58.3487
-58.6203
-58.8196
-58.8398
-58.8843
-58.9489
-58.9985
-58.9257
-58.8726
-58.6024
-59.0772
-59.3253
-59.6171
-59.7285
-59.4424
-59.515
-59.5086
-59.5772
-59.1339
-58.886
-59.8476
-60.038
-60.2152
-60.3588
-60.3827
-60.2323
-60.0752
-59.8882
-59.8356
-59.5238
-59.2331
-61.0756
-61.342
-61.571
-61.4435
-61.4918
-60.8873
-60.7742
-60.4695
-59.8758
-59.8514
-59.4696
-58.958
-62.7784
-63.0196
-63.0782
-62.8572
-62.5757
-62.3136
-61.6705
-61.0108
-60.512
-59.5818
-59.5926
-59.3299
-59.0134
-64.9586
-64.869
-64.8009
-64.47
-63.7479
-63.0355
-62.3402
-61.6719
-61.0405
-60.138
-59.8717
-59.3955
-59.0729
-58.905
-67.4951
-67.2793
-66.8059
-65.9384
-65.0788
-63.8751
-62.878
-62.097
-61.2614
-60.5273
-60.2356
-59.6809
-59.1998
-58.8022
-58.4951
-69.9599
-69.1448
-68.4252
-67.3579
-65.918
-64.4574
-63.5903
-62.5904
-61.6806
-60.848
-60.0879
-59.6327
-59.3072
-59.3302
-58.9984
-58.905
-71.3281
-70.1465
-68.8298
-67.7042
-66.4609
-64.9997
-63.821
-62.8446
-61.6544
-61.0099
-60.4643
-60.1599
-59.6217
-59.0389
-58.9307
-58.8706
-58.7879
-72.0848
-71.0747
-69.5369
-67.6259
-65.9996
-64.9445
-63.7806
-62.9193
-61.8608
-61.3039
-60.6226
-59.8336
-59.659
-59.2592
-58.9935
-58.8348
-58.9166
-59.2107
-72.2202
-70.4987
-69.0356
-67.8679
-66.7149
-65.4239
-64.5384
-63.4104
-62.4092
-61.5345
-60.6865
-60.9835
-60.4105
-59.8813
-59.5433
-59.2679
-59.2402
-59.5668
-60.003
-72.1025
-70.7267
-69.118
-67.9928
-66.5462
-65.7307
-64.7866
-64.0971
-62.9301
-61.9289
-61.3516
-61.1785
-60.2864
-59.6886
-59.2913
-59.2552
-59.6641
-60.1663
-60.6034
-60.8243
-72.0249
-71.0246
-69.3726
-67.5121
-66.2874
-65.3813
-64.58
-63.7391
-62.5259
-61.8412
-61.1247
-60.494
-60.0952
-59.7704
-59.5956
-60.0957
-60.169
-60.6963
-60.9875
-61.2818
-61.288
-71.6459
-70.6953
-68.2786
-66.1889
-65.7664
-65.3844
-64.6578
-63.5931
-61.9845
-61.5579
-61.0513
-60.3311
-59.9453
-59.8001
-59.8755
-60.2815
-60.6843
-61.1045
-61.5577
-61.9497
-62.0514
-62.1547
-71.4745
-70.5748
-69.3192
-67.5774
-66.4538
-65.3619
-64.4767
-63.938
-63.6964
-62.4396
-61.4315
-61.0128
-60.5868
-60.173
-59.9377
-59.7946
-60.3169
-60.8625
-61.4261
-61.8789
-62.2446
-62.2193
-62.1945
-61.8722
-69.1282
-55.7303
-55.8008
-55.8292
-55.9253
-56.0662
-55.787
-55.9439
-56.0915
-56.2784
-55.9267
-56.015
-56.2426
-56.4522
-56.6183
-56.0783
-56.1968
-56.3172
-56.5169
-56.7766
-56.9925
-56.2698
-56.34
-56.5002
-56.7553
-56.9658
-57.1674
-57.4037
-56.4583
-56.6354
-56.8443
-56.957
-57.2502
-57.3869
-57.5313
-57.8125
-56.6912
-56.9253
-57.0866
-57.3557
-57.4795
-57.7289
-57.7979
-57.952
-58.0115
-56.937
-57.2211
-57.3889
-57.694
-57.7639
-57.9526
-58.1831
-58.113
-58.2702
-58.3068
-57.464
-57.7912
-57.8983
-58.1117
-58.142
-58.3673
-58.6104
-58.5046
-58.3614
-58.4961
-57.9287
-58.2541
-58.4237
-58.6384
-58.6901
-58.7741
-58.8588
-58.7747
-58.7606
-58.6573
-58.6101
-58.7699
-59.137
-59.3594
-59.1414
-59.3563
-59.2632
-59.3573
-59.2596
-59.1362
-58.9712
-58.9203
-58.6204
-59.7259
-59.8989
-60.0379
-59.9863
-59.9893
-60.0177
-59.7532
-59.5631
-59.3568
-59.1793
-59.0329
-58.798
-60.9842
-61.0378
-61.2591
-61.1196
-60.9126
-60.5122
-60.5834
-60.1693
-59.8619
-59.5246
-59.0886
-58.8715
-58.618
-62.4031
-62.8306
-62.4041
-62.4182
-61.9665
-61.6577
-61.0618
-60.7218
-60.4093
-59.9312
-59.607
-59.0501
-58.871
-58.6065
-64.6423
-64.5677
-64.3941
-63.8255
-63.2106
-62.3622
-61.8047
-61.1652
-60.7166
-60.3161
-59.6242
-59.1769
-58.8329
-58.6635
-58.438
-66.7742
-66.4898
-66.0113
-65.0228
-64.2177
-63.3371
-62.5364
-61.4896
-60.9239
-60.2873
-59.9303
-59.3248
-58.9956
-58.5251
-58.3161
-58.2895
-69.3216
-68.2853
-67.5922
-66.3688
-64.8303
-63.7784
-62.9253
-62.0932
-61.2913
-60.5387
-59.8099
-59.2773
-59.1639
-59.1022
-58.8768
-58.745
-58.506
-70.6746
-69.4199
-67.8922
-66.8548
-65.4964
-64.325
-63.3028
-62.3972
-61.3138
-60.8315
-60.2646
-60.0357
-59.3983
-58.8672
-58.7406
-58.5748
-58.604
-58.6831
-71.4078
-70.3439
-68.5588
-66.8089
-65.3737
-64.4572
-63.3935
-62.5861
-61.5866
-61.0743
-60.4826
-59.6671
-59.4269
-59.119
-58.9211
-58.8043
-58.9197
-59.1286
-59.559
-71.7104
-70.1229
-68.5469
-67.3825
-66.2843
-65.0295
-64.1016
-63.1603
-62.2157
-61.3598
-60.4834
-60.6536
-60.3047
-59.8177
-59.5747
-59.2033
-59.2193
-59.5514
-59.9593
-60.2909
-71.7369
-70.2992
-68.6679
-67.5752
-66.2898
-65.4572
-64.4755
-63.7683
-62.731
-61.7211
-61.1839
-60.8986
-60.131
-59.5843
-59.2575
-59.1931
-59.5951
-60.1125
-60.5319
-60.7623
-60.7406
-71.7841
-70.7613
-69.1262
-67.2285
-66.0255
-65.1275
-64.3585
-63.5889
-62.3732
-61.6741
-60.9974
-60.4438
-59.9845
-59.7027
-59.559
-60.0655
-60.1286
-60.6278
-60.9383
-61.2053
-61.1934
-61.3295
-71.2268
-71.5301
-70.568
-68.069
-66.0272
-65.6594
-65.3064
-64.5607
-63.4512
-61.8843
-61.4818
-60.9586
-60.2714
-59.8872
-59.7609
-59.8488
-60.278
-60.6507
-61.0758
-61.512
-61.9188
-61.9937
-62.1272
-61.7579
-70.298
-69.2243
-67.5169
-66.3728
-65.2933
-64.3667
-63.8722
-63.6039
-62.4048
-61.3845
-60.9776
-60.5629
-60.1675
-59.9236
-59.7997
-60.3045
-60.8356
-61.4155
-61.8713
-62.2291
-62.1842
-62.1859
-61.8679
-61.4513
-67.3913
-55.7321
-55.8181
-55.9309
-55.7664
-55.9118
-56.0403
-56.2058
-55.7545
-55.8713
-56.0574
-56.2396
-56.4343
-55.9418
-55.9809
-56.1896
-56.4162
-56.6072
-56.8117
-56.0165
-56.1917
-56.3463
-56.531
-56.7242
-56.9558
-57.2494
-56.2121
-56.2943
-56.4631
-56.7225
-56.9253
-57.1057
-57.4002
-57.5438
-56.3827
-56.5658
-56.7281
-56.9529
-57.1107
-57.3545
-57.5328
-57.6582
-57.7553
-56.5505
-56.8996
-57.0093
-57.194
-57.32
-57.6332
-57.6894
-57.8741
-57.8445
-57.9672
-56.9293
-57.1276
-57.4064
-57.6433
-57.669
-57.9088
-58.0051
-58.2221
-58.1098
-58.0612
-58.0526
-57.2751
-57.6452
-57.8792
-58.0873
-58.2772
-58.3326
-58.3703
-58.4857
-58.3896
-58.324
-58.04
-57.8522
-58.0531
-58.3802
-58.385
-58.7305
-58.7184
-58.6952
-58.6671
-58.6456
-58.4697
-58.3842
-58.3634
-58.4533
-58.8061
-59.1147
-59.387
-59.1169
-59.2233
-59.1036
-58.9702
-58.829
-58.7911
-58.3499
-58.4768
-58.2035
-59.5113
-59.4721
-59.839
-59.9284
-60.04
-59.6891
-59.4876
-59.3654
-59.1956
-59.0378
-58.7959
-58.3918
-58.3928
-60.6378
-61.013
-60.8454
-60.8565
-60.7246
-60.2462
-60.1819
-59.9856
-59.5996
-59.3617
-59.0062
-58.8994
-58.4522
-58.2204
-62.0741
-62.6372
-62.1653
-61.9818
-61.5785
-61.1468
-60.7564
-60.3658
-59.9969
-59.5548
-59.1245
-58.8765
-58.71
-58.2673
-58.3113
-64.1098
-64.089
-63.8126
-63.1485
-62.5582
-61.8749
-61.4256
-60.7505
-60.3025
-59.752
-59.4784
-59.0374
-58.4617
-58.3992
-58.3053
-58.0064
-66.0197
-65.9449
-65.184
-64.1891
-63.394
-62.7952
-62.1073
-61.1855
-60.6677
-59.9667
-59.6666
-59.2233
-58.8216
-58.5156
-58.2456
-57.9663
-58.0886
-68.367
-67.5992
-66.8368
-65.4704
-64.161
-63.1263
-62.3441
-61.6786
-60.9578
-60.2565
-59.5732
-59.0259
-59.0294
-58.9279
-58.7559
-58.4908
-58.3634
-58.5169
-69.8577
-68.5403
-66.8723
-65.9471
-64.7838
-63.8475
-62.853
-61.9663
-61.1329
-60.5283
-60.0601
-59.8318
-59.2225
-58.7592
-58.4719
-58.7692
-58.4995
-58.6257
-58.8017
-70.7059
-69.3999
-67.6625
-66.1503
-64.7621
-63.9966
-63.0191
-62.2557
-61.3562
-60.8173
-60.3201
-59.5249
-59.3459
-58.992
-58.8012
-59.1319
-58.898
-59.111
-59.4924
-59.7692
-71.0802
-69.6126
-67.9043
-66.7581
-65.8518
-64.6441
-63.7545
-62.919
-62.0026
-61.191
-60.3258
-60.3563
-60.2595
-59.754
-59.5478
-59.2917
-59.2114
-59.5578
-59.8849
-60.1835
-60.2869
-71.3696
-69.8827
-68.225
-67.1302
-65.9944
-65.166
-64.1598
-63.4626
-62.5324
-61.5461
-61.0163
-60.6526
-59.9841
-59.4976
-59.2262
-59.1184
-59.6054
-60.0488
-60.4748
-60.7053
-60.6702
-60.6034
-70.5898
-71.5144
-70.4833
-68.8076
-67.0095
-65.8178
-64.9093
-64.1706
-63.4269
-62.2152
-61.49
-60.849
-60.3764
-59.884
-59.6401
-59.5385
-60.0449
-60.1198
-60.5528
-60.8855
-61.1548
-61.1218
-61.2793
-61.1568
-69.9584
-70.4406
-67.8609
-65.8732
-65.5572
-65.2344
-64.4329
-63.3644
-61.8249
-61.4055
-60.8631
-60.2194
-59.8308
-59.732
-59.8255
-60.2771
-60.6313
-61.049
-61.4591
-61.8941
-61.9345
-62.0883
-61.7229
-61.1039
-67.5335
-67.4549
-66.3053
-65.2169
-64.3146
-63.8774
-63.5465
-62.3577
-61.3442
-60.9502
-60.5365
-60.1673
-59.9078
-59.813
-60.2976
-60.8102
-61.4044
-61.8648
-62.2173
-62.1512
-62.1949
-61.861
-61.4425
-61.2916
-66.1726
-55.6944
-55.7904
-55.9448
-56.0979
-55.7445
-55.8894
-56.0221
-56.2108
-56.3764
-55.7136
-55.8871
-56.0233
-56.2187
-56.4217
-56.6501
-55.8641
-55.992
-56.1689
-56.3691
-56.582
-56.7815
-57.013
-56.0439
-56.097
-56.3148
-56.4514
-56.6854
-56.9287
-57.1832
-57.3869
-56.1945
-56.3069
-56.4199
-56.6355
-56.8363
-57.0598
-57.2989
-57.4665
-57.5765
-56.2798
-56.5334
-56.7309
-56.9654
-57.013
-57.2342
-57.4466
-57.572
-57.7231
-57.7648
-56.5949
-56.7956
-57.0259
-57.1736
-57.3143
-57.5468
-57.5863
-57.7094
-57.9388
-57.8168
-57.8798
-56.8902
-57.0075
-57.2794
-57.5454
-57.6144
-57.8732
-57.9205
-58.048
-57.8138
-58.0403
-57.8904
-58.02
-57.4131
-57.6118
-57.6556
-57.889
-58.085
-58.1987
-58.256
-58.178
-58.2063
-58.1523
-58.0888
-58.1559
-57.7524
-58.0548
-58.3334
-58.3496
-58.5413
-58.482
-58.5373
-58.5328
-58.352
-58.4043
-58.2908
-58.1769
-57.9042
-58.4927
-58.8134
-58.9738
-58.9661
-58.9622
-59.0811
-58.95
-58.7236
-58.5826
-58.7009
-58.3805
-58.1771
-58.096
-57.9901
-59.3207
-59.4944
-59.7143
-59.6347
-59.6965
-59.4817
-59.239
-59.0762
-58.8806
-58.7863
-58.6126
-58.3431
-58.2759
-58.0205
-60.3422
-60.4612
-60.3987
-60.55
-60.2555
-59.9859
-59.7811
-59.4426
-59.2451
-59.0622
-58.7622
-58.5135
-58.379
-57.9189
-58.0332
-61.6511
-61.9267
-61.6228
-61.4524
-61.0525
-60.7817
-60.4639
-59.7957
-59.4302
-59.1783
-58.8355
-58.6296
-58.3285
-58.0219
-58.1517
-57.8491
-63.7388
-63.5955
-63.1508
-62.6163
-61.9523
-61.3859
-61.0702
-60.4142
-60.0109
-59.4814
-59.0961
-58.9453
-58.349
-58.2384
-58.1615
-57.8222
-57.9163
-65.5382
-65.1874
-64.5675
-63.5595
-62.9136
-62.1235
-61.5048
-60.7979
-60.3796
-59.7337
-59.3352
-59.0856
-58.6639
-58.4666
-58.1784
-57.8874
-58.0992
-58.0794
-67.4157
-66.8243
-65.7618
-64.698
-63.6339
-62.5876
-61.8474
-61.3875
-60.7548
-59.9506
-59.3876
-58.8784
-58.9289
-58.7219
-58.5586
-58.4708
-58.4257
-58.4301
-58.7384
-68.9888
-67.6809
-66.2028