/*--------------------------------*- C++ -*----------------------------------*\
  =========                 |
  \\      /  F ield         | OpenFOAM: The Open Source CFD Toolbox
   \\    /   O peration     | Website:  https://openfoam.org
    \\  /    A nd           | Version:  7
     \\/     M anipulation  |
\*---------------------------------------------------------------------------*/
FoamFile
{
    version     2.0;
    format      ascii;
    class       surfaceScalarField;
    location    "3.5";
    object      phi;
}
// * * * * * * * * * * * * * * * * * * * * * * * * * * * * * * * * * * * * * //

dimensions      [0 3 -1 0 0 0 0];

internalField   nonuniform List<scalar> 
53739
(
0.000135976
-0.00115499
-8.85497e-05
0.00036982
1.52563e-05
-0.000243116
0.000131314
-0.00128217
-8.8617e-05
9.76566e-05
-0.0023955
-7.85868e-05
0.000651061
1.91763e-05
-0.000321869
0.000370005
-0.000248991
-0.000225627
0.000265223
-0.00185664
-0.000192275
0.000125497
-0.00140254
-8.92468e-05
0.000101896
-0.00250607
-7.99385e-05
9.93363e-06
-0.00376797
-5.40692e-05
0.000951925
0.00101292
-0.000170142
0.000655665
-0.000290306
-0.000289134
0.000449536
-0.00166533
-0.00023126
0.00037918
-0.000540013
-0.000207095
0.000290519
-0.00209119
-0.000179698
6.7322e-05
-0.00377287
-0.000145124
0.000117898
-0.00151453
-8.97378e-05
9.18712e-05
-0.00260695
-8.02376e-05
-3.3395e-06
-0.00379052
-5.40455e-05
-2.48442e-05
-0.00458869
-5.12422e-05
0.00126268
0.0015378
0.000115042
0.000927067
0.00068531
-7.94174e-05
0.000653546
-0.000659655
-0.000152203
0.00065412
-0.000586363
-0.0002408
0.000410951
-0.00186693
-0.000207966
8.82463e-05
-0.00318551
-0.000116276
0.000360468
-0.000815699
-0.000194337
0.0002639
-0.00230833
-0.000161992
2.07134e-05
-0.00383855
-0.00013807
1.23037e-05
-0.00411909
-0.000148926
0.000105419
-0.00161342
-9.01058e-05
7.09487e-05
-0.00268778
-7.98583e-05
-1.71444e-05
-0.00379943
-5.41852e-05
-4.30401e-05
-0.00455063
-4.90635e-05
-1.15298e-06
-0.00331326
-6.42725e-05
0.00149704
0.00219516
0.000383602
0.001233
0.00106927
0.000143708
0.000734238
-1.76073e-05
0.000109627
0.000928187
0.000340062
-3.40613e-05
0.00060558
-0.000836363
-9.73373e-05
0.000100465
-0.00218071
-0.000186659
0.000597006
-0.000839507
-0.000221465
0.000335036
-0.00201001
-0.000168851
4.11034e-05
-0.00328532
-0.000128541
3.17055e-05
-0.00384648
-0.000134486
0.000311354
-0.00105732
-0.00018065
0.000183359
-0.00245907
-0.000156001
-5.55655e-06
-0.00388118
-0.000130946
-2.69992e-05
-0.00413086
-0.000142345
2.89681e-05
-0.0030764
-0.000173439
9.38311e-05
-0.00170035
-9.04746e-05
5.52358e-05
-0.00275358
-7.95477e-05
-3.36909e-05
-0.00379284
-5.27512e-05
-6.03653e-05
-0.00449559
-4.88604e-05
-2.07266e-05
-0.00328177
-5.98243e-05
1.59958e-05
-0.00308196
-6.81461e-05
0.00178849
0.00359559
0.000788061
0.00134914
0.00187629
0.000430695
0.000745744
0.00103302
0.000376099
0.00118081
0.000768985
0.000164343
0.00067693
-9.75108e-05
0.000152261
4.74464e-05
-0.00144832
5.62842e-06
0.000856534
-3.27195e-06
-1.91969e-05
0.000470402
-0.000962686
-4.31044e-05
9.44605e-07
-0.00206689
-0.000170994
3.22836e-06
-0.00317714
-0.000198912
0.000517318
-0.00105748
-0.000206321
0.000224119
-0.00213032
-0.000141914
1.18043e-05
-0.00336066
-0.000110873
-8.51023e-06
-0.00384766
-0.000145852
8.7328e-05
-0.00259617
-0.000221856
0.000270031
-0.00126912
-0.000167976
0.000136908
-0.0025799
-0.000141493
-3.1117e-05
-0.00391599
-0.000123769
-6.1362e-05
-0.00412236
-0.000138451
-1.71164e-05
-0.00305342
-0.000168932
-1.14446e-05
-0.00268622
-0.000181679
8.53277e-05
-0.00177721
-9.13032e-05
4.21985e-05
-0.00280744
-7.8811e-05
-5.43006e-05
-0.00376591
-5.21786e-05
-7.6992e-05
-0.00442351
-4.78393e-05
-4.08862e-05
-0.00322675
-6.2991e-05
-7.69848e-06
-0.00307056
-6.35293e-05
-5.80648e-05
-0.00306318
-6.75744e-05
0.00203781
0.00528461
0.000899844
0.00145616
0.00340225
0.000815212
0.000873791
0.0027045
0.000727451
0.0010018
0.00185601
0.000540523
0.000588449
0.0011429
0.000409295
0.000159396
0.000154052
0.000257161
0.00104833
0.000599021
0.000197544
0.000554216
-0.00021157
0.000194588
-8.59082e-05
-0.00129905
8.9848e-05
6.78442e-05
-0.00189626
-0.000106017
0.000758208
-0.000309615
-3.25795e-05
0.000271389
-0.00103827
9.11437e-06
-2.17891e-05
-0.00194643
-0.000129973
-9.88487e-05
-0.00306564
-0.000192153
7.90863e-05
-0.00248032
-0.00018076
0.000451351
-0.00125605
-0.000180449
0.000146563
-0.00223897
-0.000107324
-3.56784e-05
-0.00340236
-9.56521e-05
-6.73107e-05
-0.00382269
-0.0001299
1.31443e-05
-0.00256608
-0.000206202
-9.47938e-05
-0.0024722
-0.00021219
0.00024029
-0.00145043
-0.000163283
9.25857e-05
-0.00265722
-0.000141049
-8.82396e-05
-0.00391474
-0.000108808
-9.92623e-05
-0.00409085
-0.000133012
-5.71814e-05
-0.00301021
-0.00016536
-4.26051e-05
-0.00264025
-0.000179996
-0.000230379
-0.0019846
-0.000126757
8.12224e-05
-0.00184804
-9.22548e-05
2.59419e-05
-0.00284556
-7.9126e-05
-7.25581e-05
-0.00372139
-5.0773e-05
-9.57067e-05
-0.00433225
-4.77311e-05
-4.66687e-05
-0.00316669
-6.12327e-05
-1.52298e-05
-0.00305315
-6.51673e-05
-7.35567e-05
-0.00298746
-6.56877e-05
-0.000149703
-0.00297682
-5.71635e-05
0.00192425
0.00640831
0.00152727
0.00161076
0.00489383
0.001112
0.000804061
0.00413061
0.00133543
0.000924166
0.00323022
0.000898403
0.000528289
0.0027544
0.000825477
0.000126275
0.00170064
0.000720654
0.000732748
0.00197331
0.000563253
0.000545858
0.00123402
0.000457756
5.98882e-05
6.48049e-05
0.000352746
7.99499e-05
-0.000462778
8.62237e-05
0.000936386
0.000422482
0.000256949
0.000317257
-0.000310849
0.000250954
-9.69704e-05
-0.00115347
0.000124192
-8.4503e-05
-0.00179349
-2.72682e-05
-0.000331854
-0.0017302
9.17748e-05
0.000659628
-0.000575839
3.16644e-05
0.000131635
-0.00114799
9.20663e-05
-5.89534e-05
-0.0018356
-7.84466e-05
-0.00018767
-0.00290396
-0.000171287
-3.88274e-05
-0.00246939
-0.000151106
-0.000228337
-0.00195489
-5.49342e-05
0.000389603
-0.00146888
-0.000152081
3.61763e-05
-0.00230183
-6.11784e-05
-0.000121896
-0.0034059
-7.01325e-05
-0.000136884
-0.00375535
-0.000125366
-5.51139e-05
-0.00252028
-0.000177764
-0.000157359
-0.00238849
-0.000175162
-0.000453621
-0.00194815
-0.000178697
0.000213923
-0.00160927
-0.000152099
3.30624e-05
-0.00269702
-0.000130596
-0.00012428
-0.00389346
-0.000110604
-0.000144265
-0.00402511
-0.000125986
-7.06868e-05
-0.00295705
-0.000162153
-7.7068e-05
-0.00255927
-0.000184502
-0.000260384
-0.00184925
-0.000128515
-0.00039285
-0.00250769
-0.000105592
7.53576e-05
-0.00191269
-9.20118e-05
1.23635e-05
-0.00287025
-7.99245e-05
-9.20022e-05
-0.00365881
-4.97091e-05
-0.000113752
-0.00422141
-4.78595e-05
-6.00114e-05
-0.00309302
-6.13911e-05
-3.11867e-05
-0.00301913
-6.40668e-05
-7.68387e-05
-0.00291087
-6.49203e-05
-0.000160858
-0.00282537
-5.62782e-05
-0.000136072
-0.00320784
-4.9508e-05
0.00159523
0.00664974
0.00283602
0.00168188
0.00599557
0.00175045
0.000512697
0.00557362
0.00203378
0.00100524
0.00452197
0.00122606
0.000365749
0.00390465
0.0015005
-2.77819e-05
0.00318457
0.0015599
0.000337768
0.00330952
0.000929037
0.000479028
0.00283917
0.000880461
0.000138267
0.00163403
0.000813702
-0.000117763
0.000674335
0.000779967
0.00066362
0.002082
0.000505111
0.000491578
0.0011268
0.00049615
0.000129062
-8.82712e-05
0.0003848
1.32477e-05
-0.000379228
0.000171445
-0.000301801
-0.000287947
-4.50498e-05
0.000739852
0.00032584
0.000278135
0.000124137
-0.000294117
0.000247716
-7.60825e-05
-0.00104482
0.00015943
-0.000289957
-0.00158786
2.08509e-05
-0.000406617
-0.00150913
0.000119451
-0.000618839
-0.00178731
0.000252729
0.000525707
-0.000706241
2.51513e-05
-2.04066e-05
-0.00121603
0.000156296
-0.000191582
-0.00176404
9.01972e-05
-0.000290477
-0.0026753
-0.000153517
-0.000142365
-0.00241482
-0.00013861
-0.000368583
-0.00191113
1.6358e-05
-0.000715384
-0.0017843
-8.28742e-05
0.000318518
-0.00167145
-0.000122237
-5.556e-05
-0.00230263
-6.26577e-05
-0.000173225
-0.00337669
-4.14413e-05
-0.000347623
-0.00351831
-0.000103819
-0.000102575
-0.0024484
-0.000165357
-0.000228051
-0.00226932
-0.00014595
-0.000531047
-0.00171285
-0.000139799
-0.000535567
-0.00198249
-0.000195643
0.000190415
-0.00175578
-0.000143777
-3.76339e-05
-0.00268692
-0.000112208
-0.000166396
-0.00384951
-0.000100154
-0.000179634
-0.00395608
-0.000113752
-0.000107353
-0.00287544
-0.000160254
-0.000112531
-0.00246091
-0.000179171
-0.000274599
-0.00171569
-0.000120304
-0.000414096
-0.00228208
-0.000100883
-0.000273771
-0.00328694
-0.000108715
6.65523e-05
-0.00196906
-9.10553e-05
-4.2881e-06
-0.00287673
-8.12474e-05
-0.000111795
-0.0035783
-4.86395e-05
-0.000130631
-0.00409369
-4.67934e-05
-7.45817e-05
-0.0030052
-6.10996e-05
-3.97329e-05
-0.00297726
-6.35277e-05
-8.70405e-05
-0.00282712
-6.07739e-05
-0.00017721
-0.00265689
-5.61929e-05
-0.000152094
-0.00306297
-4.9055e-05
-0.00011727
-0.00233713
-4.11494e-05
0.00124405
0.00640701
0.00399629
0.00152011
0.006497
0.00298861
0.00042107
0.00634838
0.00308071
0.000820357
0.00574383
0.0020504
8.62586e-05
0.00539133
0.00221223
-1.71652e-05
0.00526821
0.00221749
0.000483783
0.00415822
0.00149889
0.000267283
0.00376134
0.00158112
7.75197e-05
0.00315865
0.00158717
5.75641e-05
0.0030379
0.00139344
0.000334116
0.00341136
0.000965437
0.000458734
0.00283989
0.000961164
0.0002822
0.00151044
0.000850915
-0.000311179
0.000988158
0.000824305
-0.000390879
0.00136152
0.000911864
0.000556327
0.00213617
0.000529529
0.000391916
0.000848244
0.000515893
7.41463e-05
-0.000193734
0.000451385
-0.000261368
-0.000163586
0.000140568
-0.000310555
-0.000212842
2.78395e-07
-0.000732237
-0.000415734
-3.53313e-05
0.00059457
0.000244991
0.000295095
-2.16095e-05
-0.00029395
0.00027917
-0.000170765
-0.000966931
0.00014901
-0.000412902
-0.00134349
3.74881e-05
-0.000481492
-0.00128221
0.000133051
-0.000726045
-0.00146733
0.000156931
-0.000931377
-0.00103126
0.000104431
0.000359935
-0.000721624
5.59458e-05
-0.000166155
-0.00122295
0.000142665
-0.000203332
-0.00164637
6.87302e-05
-0.00054419
-0.00233701
-5.15262e-05
-0.000275025
-0.00225846
-0.000137422
-0.000510662
-0.0017797
1.25759e-05
-0.00081466
-0.00143913
-4.51985e-05
-0.000634234
-0.00120117
-0.000152463
0.000222891
-0.00179828
-9.97302e-05
-0.000149105
-0.00226131
-5.20853e-05
-0.000259412
-0.00330469
-4.16394e-05
-0.000256965
-0.00338113
-0.000101286
-0.000164504
-0.00234739
-0.000147683
-0.000289484
-0.00213249
-0.000125237
-0.000591807
-0.00144955
-9.20451e-05
-0.000576853
-0.00178525
-0.000174283
-0.00051926
-0.00168779
-0.000149522
0.000170118
-0.0018954
-0.000130168
-9.23528e-05
-0.00264687
-9.57584e-05
-0.00022265
-0.00377389
-7.69713e-05
-0.000217931
-0.00386393
-0.000105006
-0.000142951
-0.00277059
-0.000150232
-0.000132768
-0.00235823
-0.000169893
-0.000305949
-0.00156882
-0.000107137
-0.000459271
-0.0020363
-8.40266e-05
-0.000315113
-0.00312173
-0.000103068
-0.000322844
-0.00210646
-4.84235e-05
5.78094e-05
-0.00201761
-8.97617e-05
-2.44108e-05
-0.00286303
-8.0339e-05
-0.000124133
-0.00348501
-5.04012e-05
-0.000149479
-0.00394699
-4.58653e-05
-9.20861e-05
-0.00290074
-5.91696e-05
-5.34565e-05
-0.00292423
-6.06683e-05
-0.000103455
-0.00272522
-6.19713e-05
-0.000203821
-0.00246382
-5.00241e-05
-0.000162681
-0.0029076
-4.88758e-05
-0.000124386
-0.00222139
-4.04128e-05
-0.000167038
-0.00177262
-1.84225e-05
0.000972281
0.00619874
0.00452035
0.0011199
0.00656336
0.00409325
0.000291542
0.00641022
0.00416555
0.000477623
0.0064923
0.00325099
8.10592e-05
0.00608673
0.00325545
-0.000209566
0.00576543
0.00332947
0.00046039
0.00531361
0.00226723
4.03823e-06
0.00533089
0.00237408
-8.97754e-05
0.00525939
0.00238834
-3.69922e-05
0.00511561
0.0024257
0.000282965
0.00401711
0.00152385
0.000238826
0.00383043
0.00164971
0.000161428
0.0032361
0.00162444
-0.000113957
0.00300857
0.00141927
-0.000767168
0.00191612
0.00148603
0.000412499
0.00346601
0.000949945
0.000495826
0.0027347
0.000966714
0.000204726
0.00141427
0.000926755
-0.00048477
0.00118751
0.000874964
-0.000427365
0.00136489
0.000937744
-0.000797747
0.000787043
0.00106679
0.000566848
0.00209627
0.000542105
0.000230447
0.000635719
0.000489997
-8.05772e-05
-0.000175751
0.000407722
-0.000370487
-6.33577e-05
0.000308742
-0.00035259
-0.000201995
8.19907e-07
-0.00103763
-0.000171175
6.73073e-05
-0.00131579
0.00144491
0.000121843
0.000344455
0.000236816
0.000335587
-0.000255379
-0.000216695
0.000307064
-0.000236387
-0.000861493
0.000206787
-0.00063103
-0.00111703
9.38273e-06
-0.000711295
-0.00097916
0.000170711
-0.000868454
-0.00106593
8.94419e-05
-0.00107364
-0.000748789
0.00013344
-0.00115506
0.000627503
8.46222e-05
0.0002225
-0.000690181
0.000104493
-0.000189037
-0.0013037
0.000176622
-0.000296319
-0.00157164
0.000104846
-0.000370548
-0.00206821
-8.64877e-05
-0.000424329
-0.00193408
-0.000116081
-0.000611268
-0.00160742
1.20744e-05
-0.000904584
-0.00113046
1.66819e-05
-0.000676788
-0.00100137
-0.000145062
-0.000948271
2.76494e-05
-8.97804e-05
0.000179408
-0.00186117
-7.26513e-05
-0.000226169
-0.00223608
8.85377e-06
-0.000346245
-0.00318389
-4.92964e-05
-0.000413959
-0.00313876
-8.79824e-05
-0.000230136
-0.00220439
-0.000157101
-0.000351377
-0.00195106
-0.000110504
-0.000642555
-0.00115676
-8.14199e-05
-0.000637738
-0.00156769
-0.000131133
-0.000559061
-0.00148277
-0.000135354
-0.000648223
-0.000932445
-2.9374e-05
0.000136039
-0.00200738
-0.000119232
-0.000128559
-0.00258308
-8.98081e-05
-0.000277835
-0.00365439
-6.15596e-05
-0.000254054
-0.00375015
-8.61777e-05
-0.00017672
-0.00264671
-0.000144261
-0.000139521
-0.00226267
-0.000159732
-0.000335018
-0.00141363
-9.35115e-05
-0.000483835
-0.00178971
-7.37157e-05
-0.000341441
-0.00292467
-0.000102329
-0.000329939
-0.00195999
-4.39863e-05
-0.000392941
-0.00167764
-3.29858e-06
4.57542e-05
-0.00205445
-8.84503e-05
-4.33516e-05
-0.00283059
-7.88574e-05
-0.000137345
-0.00337762
-5.03885e-05
-0.000166564
-0.00378492
-4.59089e-05
-0.000105096
-0.00278261
-5.88961e-05
-6.54119e-05
-0.00285525
-6.27389e-05
-0.000120232
-0.00261073
-5.49292e-05
-0.000204271
-0.00226897
-5.25518e-05
-0.000177823
-0.0027327
-4.7103e-05
-0.000134592
-0.00209518
-4.04895e-05
-0.000174325
-0.00162099
-1.77235e-05
-0.000190846
-0.00102849
-1.20515e-05
0.000245828
0.00590402
0.00489578
0.000898227
0.00655603
0.00467045
0.000569612
0.00640914
0.00458514
2.34531e-06
0.00622178
0.00477636
0.000238464
0.00652413
0.00424172
0.000115413
0.0061924
0.0042767
-0.000319924
0.0061378
0.00431626
0.000159613
0.00647999
0.00340448
-4.88117e-05
0.00602069
0.00336989
-0.000363467
0.00587548
0.00341909
-0.000345081
0.00597097
0.00346534
0.000181856
0.00511835
0.00246188
-2.08696e-05
0.00525226
0.00260556
0.000213651
0.00502354
0.00255771
-8.06654e-05
0.00497963
0.00249103
-0.000829651
0.00483763
0.00244545
0.000121898
0.00419608
0.00154827
0.000357112
0.00383621
0.00165678
0.000171749
0.00331041
0.00160837
-0.000227902
0.00294972
0.00142642
-0.000870761
0.00223896
0.00153983
-0.0013814
0.00308192
0.0013901
0.000448964
0.00349219
0.000965439
0.000388088
0.00257788
0.000949122
-5.36356e-05
0.00137503
0.000979019
-0.000577303
0.00140088
0.000920197
-0.000494174
0.00132808
0.00105336
-0.00106333
0.000761934
0.000988551
-0.0016493
0.000265953
0.00105586
0.000433353
0.00188827
0.000628565
-1.56259e-05
0.000465395
0.000472675
-0.000288073
-4.03609e-05
0.000406294
-0.000521199
3.8641e-05
0.000195892
-0.00063894
-0.000107913
0.000142305
-0.00116256
-4.39782e-05
0.000167726
-0.00147846
0.00177247
0.000144562
-0.00180004
0.000947655
0.000467597
5.50358e-05
0.000344543
0.000340699
-0.000177605
-0.000232432
0.000339892
-0.000264556
-0.000822994
0.000236802
-0.000684002
-0.00062832
3.15357e-05
-0.000901412
-0.000619724
0.00012703
-0.00101001
-0.000666534
0.00017006
-0.00115307
-0.000504503
9.36461e-05
-0.00125977
0.00110276
0.000241158
-0.00128496
0.00100758
-4.13098e-05
0.00020212
-0.000735391
0.00014806
-0.000275139
-0.00132017
0.000169938
-0.000405012
-0.00144502
0.00010877
-0.000599511
-0.0017354
-4.24135e-05
-0.000525035
-0.00165794
-6.77365e-05
-0.000738143
-0.00138694
5.02096e-05
-0.000948294
-0.000846658
3.40109e-05
-0.000741463
-0.000806302
-7.46654e-05
-0.00096718
0.000332453
-4.17466e-05
-0.000991231
0.000574967
-4.22811e-05
0.000112471
-0.00187139
-4.26541e-05
-0.000278241
-0.0021979
3.88449e-05
-0.000467527
-0.00298844
3.09914e-06
-0.000437432
-0.00292025
-8.44329e-05
-0.000297128
-0.0020215
-0.000150461
-0.000366017
-0.00176413
-0.00011753
-0.000679096
-0.000871785
-5.13976e-05
-0.000677578
-0.00133859
-0.000116784
-0.000584411
-0.00125252
-0.000118414
-0.000656396
-0.000725745
-1.5597e-05
-0.000576048
-0.000838659
3.26281e-05
9.26565e-05
-0.0020872
-0.000112564
-0.000151701
-0.00252416
-6.98069e-05
-0.000301628
-0.00352574
-5.41736e-05
-0.00029407
-0.00360806
-7.61366e-05
-0.000207695
-0.0024929
-0.000137388
-0.000156379
-0.0021633
-0.000152665
-0.000365374
-0.0012504
-7.78228e-05
-0.000508656
-0.00153068
-4.81578e-05
-0.000366809
-0.00270138
-0.000108025
-0.000338301
-0.00181718
-4.14213e-05
-0.00040461
-0.00149682
5.48052e-06
-0.000346008
-0.00135878
-1.15538e-05
3.50433e-05
-0.00208102
-8.69107e-05
-6.52389e-05
-0.00277616
-7.76336e-05
-0.000162763
-0.00324368
-5.00273e-05
-0.000182757
-0.00360739
-4.51566e-05
-0.000119032
-0.00265088
-5.86024e-05
-8.12002e-05
-0.00277554
-5.74103e-05
-0.000125273
-0.00248963
-5.85703e-05
-0.000223386
-0.00205355
-4.69646e-05
-0.000195212
-0.00254228
-4.7758e-05
-0.000139177
-0.00196197
-4.11349e-05
-0.00018261
-0.00146148
-1.7391e-05
-0.000198202
-0.000836934
-1.10796e-05
-0.000151741
-0.00059468
-2.00562e-05
9.60926e-05
0.0053477
0.00517934
0.000549379
0.00588469
0.0049393
-0.000406624
0.00563691
0.00510293
0.000265415
0.00636903
0.00479559
-0.000162563
0.00584716
0.00503169
0.00016789
0.00634203
0.00452911
-2.82364e-05
0.00619977
0.00475079
-0.000195905
0.00581523
0.0047124
8.32154e-05
0.00640087
0.00424324
-0.000102244
0.00619605
0.0042915
-0.000256175
0.00595709
0.00435012
-0.000376218
0.00599997
0.0042278
0.000136154
0.00625765
0.00341782
-0.0001275
0.0060308
0.003501
6.16516e-05
0.00598839
0.00340898
-0.000390215
0.00624266
0.00345695
-0.000931013
0.00591366
0.00345705
-0.000182602
0.00524147
0.00259394
0.000174459
0.005216
0.00268079
0.00028426
0.00487352
0.00264307
-1.12921e-05
0.00479377
0.00252695
-0.000817164
0.00487355
0.00240152
-0.00134789
0.00468921
0.00227996
0.000342663
0.00415182
0.00153048
0.000284997
0.00381894
0.00166864
0.000110696
0.00326331
0.00153956
-0.000476716
0.00300682
0.00145069
-0.00101883
0.00273149
0.00145855
-0.0014065
0.00353412
0.0014308
-0.00213623
0.00332438
0.00147797
0.000368687
0.00345706
0.000989573
0.00019019
0.00231691
0.0010206
-0.000250941
0.00127171
0.0010153
-0.000587517
0.00139235
0.00105388
-0.000841585
0.00136738
0.00108354
-0.00127096
0.000839183
0.00108451
-0.0018062
0.000473188
0.00110906
-0.00205
0.000908519
0.000945269
0.000109725
0.00164593
0.000738937
-0.000116181
0.000404262
0.000628274
-0.000346187
5.41108e-05
0.000459835
-0.000579178
2.92016e-05
0.00031091
-0.000783549
-0.000146171
0.000116287
-0.00138014
0.000214769
0.00025369
-0.00158268
0.0021758
0.000194001
-0.00189078
0.00130083
0.000422396
-0.00193377
0.00125811
0.000604977
8.21387e-05
0.0004114
0.000327134
-0.000221551
-0.000244537
0.000299215
-0.000287524
-0.000883066
0.000282476
-0.000781435
-0.00026982
6.02255e-05
-0.00101736
-0.000226497
0.000130633
-0.00114098
-0.000308001
0.000171338
-0.00123202
-0.00022682
0.000176099
-0.00130591
0.00153311
0.000227744
-0.0012789
0.00140729
0.00015317
-0.00119013
0.00148718
-0.000146549
0.000114805
-0.000810071
0.00020796
-0.000397372
-0.00127025
0.000217274
-0.000635332
-0.00124431
0.000137027
-0.000634146
-0.00137313
-5.67894e-05
-0.000622977
-0.00132771
-4.67894e-05
-0.000811668
-0.00108256
7.35336e-05
-0.000987387
-0.000576271
8.81141e-05
-0.000795664
-0.000611227
-4.29774e-05
-0.000962211
0.000644263
-8.67544e-06
-0.00101966
0.000878289
1.81911e-05
-0.000746885
0.00195431
-4.71684e-05
4.83839e-05
-0.00186317
-1.20791e-05
-0.000305796
-0.0021468
6.03433e-05
-0.00051895
-0.00275107
1.88019e-05
-0.000502892
-0.00264902
-5.93061e-05
-0.00034578
-0.00180845
-0.000159401
-0.000395171
-0.00157582
-9.99795e-05
-0.0007312
-0.000582274
-4.12146e-05
-0.000713177
-0.00112235
-6.31155e-05
-0.000587409
-0.00104934
-9.93658e-05
-0.00065892
-0.000526188
2.64815e-06
-0.000607772
-0.00069668
4.55859e-05
-0.000428384
-0.000903971
1.88153e-05
5.19337e-05
-0.00213099
-0.000108659
-0.000212538
-0.00242999
-5.94331e-05
-0.000373965
-0.00334938
-3.49612e-05
-0.000331472
-0.00344954
-6.39803e-05
-0.000263738
-0.00229899
-0.000125333
-0.000186916
-0.00205676
-0.000138216
-0.000391795
-0.00106947
-6.70716e-05
-0.000518553
-0.00127425
-3.90872e-05
-0.000411373
-0.00244561
-8.7764e-05
-0.000337217
-0.00168043
-4.67358e-05
-0.000415663
-0.00131657
1.13801e-05
-0.000367588
-0.00118015
-3.76565e-06
-0.000270499
-0.000184158
-7.05421e-06
2.08005e-05
-0.00209412
-8.54453e-05
-8.52552e-05
-0.00270506
-7.27558e-05
-0.000175991
-0.00309519
-5.01342e-05
-0.000196339
-0.00341542
-4.56548e-05
-0.000133993
-0.00250496
-5.70824e-05
-9.73559e-05
-0.00267718
-5.96094e-05
-0.00015482
-0.0023403
-5.19131e-05
-0.000225683
-0.00184096
-4.54719e-05
-0.000204906
-0.0023378
-4.65399e-05
-0.000147917
-0.00182073
-4.10787e-05
-0.000188771
-0.00129647
-1.73699e-05
-0.000205424
-0.000638133
-1.07678e-05
-0.000156399
-0.000429487
-1.98742e-05
-0.000116392
-0.00016486
-1.57832e-05
0.000228735
0.004777
0.00503816
2.90445e-05
0.00530784
0.00497869
8.61207e-05
0.00549296
0.00521592
-0.000151151
0.00520526
0.00512833
-0.000120438
0.00603461
0.00487579
-0.000434559
0.00583557
0.00501264
0.000336515
0.00565108
0.00510156
2.88061e-05
0.00618906
0.0047799
-0.000192597
0.00589774
0.00490936
4.60896e-05
0.00564747
0.00497363
0.000114598
0.00624338
0.00453707
-0.000257042
0.00618809
0.00469559
-6.27991e-05
0.0057044
0.00466824
-0.000158595
0.00590503
0.00461095
1.43168e-05
0.00640928
0.00421406
-0.000157357
0.00619797
0.00427118
4.79411e-05
0.00600808
0.00425422
-0.000373569
0.00611095
0.00422249
-0.000708722
0.00581584
0.00395205
-6.0006e-05
0.0059556
0.00354606
4.99657e-05
0.00605656
0.00351656
0.000270752
0.00606074
0.00344216
-3.32208e-05
0.00628121
0.00339235
-0.000842425
0.00595885
0.00343703
-0.00105092
0.00576726
0.00320158
0.000225648
0.00549439
0.00257177
0.000167934
0.00529562
0.00263138
0.000192611
0.0048591
0.00261329
-0.000433919
0.0048885
0.00250555
-0.000912846
0.00494007
0.00235444
-0.00146407
0.00485739
0.00229091
-0.00201436
0.00480782
0.00209332
0.000305931
0.00404375
0.00158387
0.000137151
0.00373932
0.00166313
-0.000214968
0.00332259
0.00157338
-0.000686722
0.00315746
0.00148812
-0.00114946
0.00297497
0.00151509
-0.00157872
0.00395172
0.00134871
-0.00220995
0.00370101
0.00145792
-0.00236347
0.00377546
0.00145559
0.000190213
0.00329853
0.00103838
-9.70923e-05
0.00230866
0.000978728
-0.000378767
0.00128847
0.00103641
-0.000670426
0.00137919
0.0011197
-0.00097286
0.00139375
0.00121682
-0.00153864
0.00100215
0.00107907
-0.00196044
0.000679509
0.00125595
-0.00213435
0.00119124
0.0010699
-0.00215431
0.00166949
0.000881518
0.000124091
0.00143136
0.00071026
-0.000203442
0.000509785
0.000615305
-0.000507321
0.000357853
0.000544329
-0.000780986
8.9516e-05
0.000399072
-0.00100936
-7.06106e-05
0.000227355
-0.00151406
0.000396554
0.000307582
-0.00163801
0.00258856
0.000246925
-0.00190077
0.00162765
0.000462048
-0.00191976
0.00165883
0.000662533
-0.00157639
0.00212012
0.000559515
-8.76215e-06
0.000507023
0.000329445
-0.000314081
-0.000291115
0.000290421
-0.000554295
-0.000750425
8.55372e-05
-0.000909639
0.000142391
0.000145757
-0.0011392
0.0001747
0.000175249
-0.00122582
7.17653e-05
0.000165019
-0.00131788
5.80855e-05
0.000216921
-0.00134165
0.00193427
0.000320917
-0.00125617
0.0017821
0.000146891
-0.00115362
0.00176197
1.23361e-05
-0.000862037
0.00258617
-4.09105e-05
5.72018e-05
-0.000887129
0.000228935
-0.000444781
-0.00121272
0.000289409
-0.000725651
-0.000938152
0.00011782
-0.000754195
-0.00101409
2.92934e-05
-0.000712958
-0.000992105
-2.5217e-05
-0.00084963
-0.000790161
0.000115272
-0.00106917
-0.000324744
0.000159975
-0.000838982
-0.000438933
4.16249e-05
-0.000932695
0.000928255
1.83165e-05
-0.00101892
0.00117018
5.94357e-05
-0.000736651
0.00208227
1.91063e-05
-0.000588865
0.000985755
-3.81011e-05
-9.70543e-05
-0.00173576
-4.6214e-06
-0.000374388
-0.00209261
9.55806e-05
-0.000585578
-0.00252169
4.25742e-05
-0.000544804
-0.00231977
-9.71116e-05
-0.000429728
-0.00155037
-0.0001514
-0.000433676
-0.00135766
-0.000130802
-0.00072522
-0.000358337
9.50861e-06
-0.000717041
-0.000908314
-5.676e-05
-0.000599093
-0.000860635
-6.41011e-05
-0.000667179
-0.000306929
1.1337e-05
-0.000630302
-0.00054056
6.11681e-05
-0.000460319
-0.000804486
3.88311e-05
-0.000368128
0.000310076
2.49313e-05
-7.30938e-06
-0.00210889
-0.000113688
-0.000243874
-0.00232371
-5.63214e-05
-0.000417153
-0.00314295
-2.47049e-05
-0.000359091
-0.0032689
-5.28528e-05
-0.000269378
-0.00213396
-9.36346e-05
-0.000222439
-0.00191918
-0.000137827
-0.000404448
-0.000900983
-5.70779e-05
-0.000517927
-0.00102232
-2.67566e-05
-0.00042909
-0.00216309
-9.74219e-05
-0.000348157
-0.00152628
-4.16736e-05
-0.000432172
-0.00113574
1.58368e-05
-0.000384606
-0.000991361
1.77521e-06
-0.000278701
-6.41318e-05
-1.4901e-06
-0.000258388
0.000646468
2.26065e-05
1.73934e-06
-0.00208823
-8.44926e-05
-9.22758e-05
-0.00262833
-6.98988e-05
-0.000201069
-0.00292025
-4.6623e-05
-0.000209858
-0.00320977
-4.59319e-05
-0.000142263
-0.00235337
-5.49883e-05
-0.000128884
-0.00254677
-5.86059e-05
-0.000150704
-0.00219638
-5.28296e-05
-0.00023318
-0.00161416
-4.5533e-05
-0.000217707
-0.00212123
-4.43357e-05
-0.000151984
-0.00167479
-4.05006e-05
-0.000193223
-0.00112655
-1.77784e-05
-0.000211888
-0.000433267
-1.03471e-05
-0.000159925
-0.000260077
-2.02521e-05
-0.000114491
-5.37264e-05
-1.65169e-05
-6.68865e-05
-0.00102135
-4.11686e-06
0.000247531
0.00447953
0.00536605
0.000226079
0.00461844
0.00510169
6.48489e-05
0.0049087
0.00518686
3.69825e-05
0.00533744
0.00503125
0.000125465
0.00579314
0.00486046
-0.000116682
0.00537757
0.00512404
-0.000425742
0.00534321
0.00506915
0.000340867
0.00557831
0.00514941
-0.000198105
0.00603821
0.00486781
-0.000108903
0.00570442
0.00492324
0.00014596
0.00551075
0.0050531
0.000132572
0.00528444
0.00516202
-7.29055e-05
0.00623573
0.00471618
-0.000176452
0.00579256
0.0048045
-6.10588e-05
0.00560343
0.00495165
-9.54531e-05
0.00517756
0.00502266
7.42264e-05
0.00614593
0.0045659
-0.000117484
0.00605929
0.004626
0.000117765
0.00570302
0.00462715
-0.000248379
0.00582673
0.00462136
-0.000447382
0.00554371
0.00456228
2.13533e-05
0.00629468
0.00422116
-0.000118337
0.00631055
0.00426978
0.00015775
0.00615051
0.00424175
-6.64486e-05
0.00621242
0.00418598
-0.00069915
0.00588906
0.00400599
-0.000839044
0.00602359
0.00376217
0.000197761
0.00598467
0.0035294
-3.29185e-05
0.00626981
0.00353367
-4.40918e-05
0.00634433
0.00346966
-0.000324008
0.0062599
0.00335356
-0.000701674
0.0058025
0.00333752
-0.00115114
0.00571672
0.00317463
-0.00167283
0.00567249
0.00305945
0.000250566
0.00566765
0.00249666
0.000216433
0.0052417
0.00254641
-0.000298956
0.00503954
0.00253493
-0.000770084
0.00507986
0.00250529
-0.00124973
0.00515955
0.00238634
-0.0017181
0.00504896
0.00230226
-0.00215626
0.00490563
0.0021394
-0.00238544
0.00521307
0.00202743
-3.61315e-05
0.00411305
0.00164001
-0.000211501
0.00375863
0.00167896
-0.000462576
0.00348555
0.00158398
-0.00078665
0.0034174
0.00142967
-0.00125943
0.0032594
0.00149026
-0.00163007
0.00416143
0.00139682
-0.00228421
0.00398029
0.0013932
-0.00245809
0.00409484
0.00146229
-0.00238634
0.0039579
0.00150334
0.000228906
0.00313106
0.00106284
-0.000144298
0.00223903
0.00104887
-0.000653045
0.00149805
0.000914876
-0.000991555
0.00148113
0.00114504
-0.00129159
0.00148433
0.00131135
-0.00175561
0.00122308
0.00123744
-0.00214198
0.000971686
0.00129086
-0.00216563
0.00152339
0.00118866
-0.00213868
0.00199979
0.000958519
-0.00203442
0.00313115
0.000988899
-6.87438e-05
0.00138316
0.000696165
-0.000381492
0.000680204
0.000607251
-0.000722206
0.000608309
0.00053276
-0.00107695
0.000272779
0.000528374
-0.00126086
9.72853e-05
0.000352838
-0.00160201
0.000586004
0.000414093
-0.00164021
0.00287426
0.000344212
-0.00191819
0.00202751
0.000423598
-0.00189865
0.0020297
0.000733661
-0.00146978
0.00249821
0.000600601
-0.00114645
0.00244778
0.000543015
-6.30371e-05
0.00059189
0.000352007
-0.000405022
-0.000322998
0.000321569
-0.000675614
-0.000563262
5.3222e-05
-0.00102966
0.000452031
5.13604e-05
-0.00126903
0.000668175
0.000208354
-0.00136181
0.000478647
0.000280547
-0.00141472
0.000404825
0.000163835
-0.00134105
0.00225191
0.000401354
-0.00127611
0.00222082
0.000225614
-0.00117143
0.00202707
3.43105e-05
-0.00082599
0.00272198
-3.41331e-05
-0.000872732
0.00420702
3.3955e-05
-0.000146701
-0.000915884
0.00027479
-0.000507595
-0.00112565
0.00027507
-0.000773509
-0.000647095
0.000186284
-0.000875665
-0.000592537
2.7128e-05
-0.000799228
-0.000653395
6.0084e-05
-0.000879391
-0.000512368
0.000142705
-0.00104279
-0.000118238
0.000226336
-0.000878736
-0.000263909
0.000146646
-0.000878888
0.00117525
7.44202e-05
-0.00102682
0.00146291
8.52236e-05
-0.000762303
0.0022318
4.19132e-05
-0.000620528
0.00115471
1.03592e-05
-0.000624666
0.00129814
3.72968e-05
-0.00020649
-0.00157455
5.87025e-05
-0.000445334
-0.00198479
8.9021e-05
-0.000668562
-0.00225496
8.02609e-05
-0.000540918
-0.00201922
-7.61524e-05
-0.00045607
-0.00129869
-0.000162099
-0.000475497
-0.00111653
-0.000139472
-0.000717056
-0.000178338
1.80705e-06
-0.000728966
-0.000679151
-8.61441e-06
-0.000650845
-0.000655946
-3.9695e-05
-0.000669035
-7.08842e-05
2.07315e-05
-0.00063865
-0.000403295
8.05498e-05
-0.000462837
-0.000710931
4.58446e-05
-0.000381813
0.000410217
4.18029e-05
-0.000379529
0.00088167
5.0738e-05
-2.04052e-05
-0.00207417
-0.000123704
-0.000259914
-0.00221134
-5.84189e-05
-0.000471908
-0.00291554
-1.2892e-05
-0.00039774
-0.00306582
-3.99027e-05
-0.000294048
-0.00194012
-9.49076e-05
-0.000312782
-0.00171177
-0.00011714
-0.00040063
-0.000731229
-5.76554e-05
-0.00051694
-0.000767372
-2.82626e-05
-0.000441293
-0.0018824
-8.38615e-05
-0.00035399
-0.00137581
-4.58869e-05
-0.000449686
-0.000941431