/*--------------------------------*- C++ -*----------------------------------*\
  =========                 |
  \\      /  F ield         | OpenFOAM: The Open Source CFD Toolbox
   \\    /   O peration     | Website:  https://openfoam.org
    \\  /    A nd           | Version:  7
     \\/     M anipulation  |
\*---------------------------------------------------------------------------*/
FoamFile
{
    version     2.0;
    format      ascii;
    class       surfaceScalarField;
    location    "3.5";
    object      phi_0;
}
// * * * * * * * * * * * * * * * * * * * * * * * * * * * * * * * * * * * * * //

dimensions      [0 3 -1 0 0 0 0];

internalField   nonuniform List<scalar> 
53739
(
0.000136107
-0.00115183
-8.83363e-05
0.000370036
1.05138e-05
-0.000243307
0.000131729
-0.0012796
-8.83448e-05
9.69399e-05
-0.0023766
-7.85285e-05
0.000651905
1.39302e-05
-0.000320564
0.000369232
-0.000251613
-0.000226798
0.000264217
-0.00185196
-0.000192334
0.000126644
-0.00140135
-8.88514e-05
0.000100232
-0.00248573
-7.94472e-05
7.6912e-06
-0.00373601
-5.42124e-05
0.000951827
0.00100298
-0.000166057
0.000655416
-0.000292232
-0.000289504
0.000448328
-0.00166496
-0.000230698
0.000378792
-0.000540688
-0.000207578
0.000285527
-0.00208347
-0.000180588
6.67023e-05
-0.00376332
-0.000145532
0.00011911
-0.00151484
-8.93402e-05
9.20696e-05
-0.00258662
-8.00324e-05
-6.23455e-06
-0.00375527
-5.39563e-05
-2.64141e-05
-0.00458476
-5.15463e-05
0.00126045
0.00151298
0.00011673
0.000927244
0.00067327
-7.70568e-05
0.000651546
-0.000663807
-0.00015139
0.000654004
-0.000587359
-0.000240294
0.000408688
-0.00186908
-0.000208544
8.71964e-05
-0.00317748
-0.000113885
0.000361357
-0.000815747
-0.000194619
0.000266035
-0.00230217
-0.000162841
1.901e-05
-0.00383074
-0.00013842
1.02585e-05
-0.00411507
-0.000149515
0.000106458
-0.00161503
-8.97016e-05
7.12883e-05
-0.00266722
-8.00237e-05
-1.83886e-05
-0.00376287
-5.40444e-05
-4.43989e-05
-0.00454467
-4.96437e-05
-1.87282e-06
-0.00331802
-6.4494e-05
0.0014896
0.00217224
0.000382849
0.00123036
0.00105151
0.000146548
0.000728643
-1.61861e-05
0.000111167
0.000927668
0.000328424
-3.24126e-05
0.000603298
-0.000838911
-9.65634e-05
0.000100306
-0.00218167
-0.000184841
0.00059797
-0.000839946
-0.0002206
0.000335805
-0.00200927
-0.000169879
3.77864e-05
-0.00327914
-0.000125655
2.66938e-05
-0.00384879
-0.00013254
0.000312461
-0.00105672
-0.000181367
0.000185395
-0.00245448
-0.000156409
-7.65239e-06
-0.00387296
-0.000131349
-2.92706e-05
-0.00412616
-0.000142461
2.75836e-05
-0.00307691
-0.00017381
9.43047e-05
-0.00170281
-8.99545e-05
5.53105e-05
-0.0027327
-7.95333e-05
-3.31913e-05
-0.00375622
-5.34745e-05
-6.24266e-05
-0.0044875
-4.87865e-05
-1.89069e-05
-0.00328784
-6.09086e-05
1.58015e-05
-0.00307434
-6.85382e-05
0.00177046
0.00358562
0.0007844
0.00133434
0.00187106
0.000431023
0.000735801
0.00103802
0.000376472
0.00117655
0.000760667
0.000166925
0.000673204
-9.4629e-05
0.000155086
4.60616e-05
-0.00144553
6.01989e-06
0.000855213
-1.21508e-05
-1.82126e-05
0.000468911
-0.000961609
-4.28212e-05
-1.30787e-06
-0.00206951
-0.000169628
9.48808e-08
-0.00318008
-0.000197871
0.000518489
-0.00105687
-0.000206013
0.000224919
-0.00212616
-0.000143229
8.27463e-06
-0.00335464
-0.000110307
-1.22472e-05
-0.00384808
-0.000143384
8.53295e-05
-0.00259342
-0.000222929
0.000271037
-0.0012687
-0.000168243
0.000137158
-0.00257622
-0.000141482
-3.15652e-05
-0.00390591
-0.000125089
-6.52443e-05
-0.00411672
-0.000137967
-1.74293e-05
-0.00305176
-0.00016909
-1.16385e-05
-0.00268743
-0.000182117
8.43566e-05
-0.00177926
-9.0703e-05
4.203e-05
-0.0027854
-7.92809e-05
-5.4552e-05
-0.00372883
-5.23776e-05
-7.85731e-05
-0.00441414
-4.82673e-05
-4.28166e-05
-0.00323096
-6.28586e-05
-5.26239e-06
-0.00306494
-6.50409e-05
-5.71407e-05
-0.0030615
-6.79954e-05
0.00201412
0.00526201
0.000905612
0.00142521
0.00340147
0.000814515
0.000854896
0.00271437
0.000727602
0.000981123
0.00186521
0.000541716
0.000585109
0.00114812
0.000409021
0.000159007
0.000164552
0.000257877
0.00104387
0.000593521
0.000199648
0.000550613
-0.000206074
0.000196668
-8.91682e-05
-0.00129392
9.13402e-05
6.64404e-05
-0.00189306
-0.000104811
0.000756649
-0.000315205
-3.09417e-05
0.000270277
-0.00103414
8.96196e-06
-2.43139e-05
-0.00195017
-0.00012957
-0.000102981
-0.00306816
-0.000190814
7.50414e-05
-0.00247639
-0.000181211
0.00045194
-0.00125427
-0.00018012
0.000146454
-0.0022329
-0.000108571
-3.66254e-05
-0.00339728
-9.55297e-05
-7.10125e-05
-0.0038239
-0.000128726
1.10969e-05
-0.00255819
-0.000207142
-9.597e-05
-0.00245981
-0.000212807
0.000240767
-0.00145109
-0.000163687
9.38149e-05
-0.00265553
-0.000140719
-8.88671e-05
-0.0039039
-0.000109174
-0.000101134
-0.00408532
-0.000133925
-6.0538e-05
-0.00300663
-0.000165372
-4.30184e-05
-0.0026388
-0.000179957
-0.000231474
-0.00198067
-0.000129636
8.03769e-05
-0.00184955
-9.18961e-05
2.46883e-05
-0.00282183
-7.89649e-05
-6.99205e-05
-0.00368675
-5.1442e-05
-9.70237e-05
-0.00432193
-4.75599e-05
-4.86725e-05
-0.00316901
-6.1538e-05
-1.59972e-05
-0.0030468
-6.50063e-05
-7.14015e-05
-0.00298838
-6.6759e-05
-0.000148295
-0.0029663
-5.72556e-05
0.00190645
0.0063866
0.00153979
0.00156309
0.00487893
0.00111765
0.000774258
0.00412662
0.00134384
0.000888308
0.00323672
0.000898771
0.000525032
0.00276273
0.000826224
0.00012783
0.00170101
0.000721093
0.000725216
0.00198322
0.000562404
0.00054484
0.00123694
0.000458665
5.95895e-05
7.01809e-05
0.000354634
7.71654e-05
-0.000456238
8.78393e-05
0.000931533
0.000418628
0.000257944
0.00031448
-0.000303364
0.000252734
-0.000100419
-0.00114585
0.000124699
-8.69323e-05
-0.00179239
-2.5376e-05
-0.000336504
-0.0017222
9.29635e-05
0.000657264
-0.000577725
3.27598e-05
0.000129632
-0.00114049
9.22235e-05
-6.1515e-05
-0.00183774
-7.85773e-05
-0.000190621
-0.00290763
-0.000170497
-4.06896e-05
-0.00246434
-0.000151082
-0.000231717
-0.00193265
-5.82751e-05
0.000389879
-0.00146657
-0.000151682
3.77734e-05
-0.0022946
-6.23821e-05
-0.000123441
-0.00340096
-7.03224e-05
-0.000138649
-0.0037576
-0.000124318
-5.7399e-05
-0.00251151
-0.000178541
-0.000158419
-0.0023744
-0.000177149
-0.000455604
-0.0019329
-0.00017856
0.00021388
-0.00161017
-0.00015276
3.39423e-05
-0.00269615
-0.000132319
-0.000126062
-0.00387781
-0.000110668
-0.00014612
-0.00401857
-0.000126833
-7.39863e-05
-0.00295315
-0.000162096
-7.72349e-05
-0.00255846
-0.000184479
-0.000261232
-0.00184126
-0.000129546
-0.000391333
-0.00250393
-0.000108669
7.51044e-05
-0.00191368
-9.22283e-05
1.13606e-05
-0.00284575
-7.93395e-05
-9.08864e-05
-0.00362431
-5.0516e-05
-0.000115498
-0.00421012
-4.77521e-05
-6.12977e-05
-0.00309395
-6.13213e-05
-3.17791e-05
-0.00301194
-6.46134e-05
-7.79729e-05
-0.0029101
-6.53137e-05
-0.000159402
-0.00281708
-5.65696e-05
-0.000136694
-0.00319795
-4.95483e-05
0.00158053
0.00663754
0.00285154
0.00162245
0.00597586
0.00177198
0.000473483
0.0055647
0.00205006
0.000974361
0.00450143
0.00123828
0.000360284
0.00390406
0.00150495
-2.30914e-05
0.00318809
0.00156157
0.000330825
0.00331687
0.000928907
0.000481551
0.00284346
0.000881335
0.000140857
0.00163189
0.000814081
-0.000121887
0.000681375
0.000782366
0.000661117
0.00208765
0.000504272
0.000492392
0.00112455
0.000496878
0.000129004
-8.71384e-05
0.000386561
1.10587e-05
-0.000372978
0.000173383
-0.000304204
-0.000281885
-4.20223e-05
0.00073259
0.000325431
0.000278977
0.000120759
-0.000286243
0.000249696
-7.94623e-05
-0.00103682
0.000161657
-0.000293868
-0.00158704
2.25942e-05
-0.000411435
-0.00149914
0.000122303
-0.000622983
-0.00177205
0.00025642
0.000523073
-0.000705651
2.67895e-05
-1.98644e-05
-0.00120751
0.000157421
-0.000195099
-0.00176177
8.79048e-05
-0.000292579
-0.00267996
-0.000152319
-0.000144327
-0.00240991
-0.000137997
-0.000369096
-0.00189144
1.83782e-05
-0.000718162
-0.00177036
-8.5311e-05
0.000318703
-0.00166732
-0.000123658
-5.59906e-05
-0.00229601
-6.03329e-05
-0.000173751
-0.00337416
-4.14894e-05
-0.000348272
-0.00352245
-0.00010332
-0.000105045
-0.00243893
-0.000165845
-0.000228534
-0.00225335
-0.000148293
-0.00053129
-0.00169965
-0.000140343
-0.000537282
-0.00197047
-0.000195351
0.000189539
-0.00175541
-0.000144762
-3.45369e-05
-0.00268961
-0.000113405
-0.000165785
-0.00383263
-0.000102605
-0.000181964
-0.00394769
-0.000115079
-0.000108384
-0.00287221
-0.00016069
-0.000113072
-0.00245896
-0.000180301
-0.000274196
-0.00170783
-0.000121679
-0.000414304
-0.00227607
-0.000102502
-0.000273422
-0.00328218
-0.000109103
6.71461e-05
-0.00197029
-9.13647e-05
-2.60148e-06
-0.00285424
-8.1134e-05
-0.000113266
-0.00354182
-4.8562e-05
-0.00013182
-0.00408147
-4.73427e-05
-7.47161e-05
-0.00300568
-6.13043e-05
-4.04199e-05
-0.00296894
-6.3903e-05
-8.56655e-05
-0.00282724
-6.18059e-05
-0.000175366
-0.00265022
-5.68127e-05
-0.000152372
-0.00305309
-4.90645e-05
-0.00011747
-0.00233221
-4.14344e-05
0.00123088
0.00641166
0.00400172
0.00147028
0.00647667
0.00300728
0.00038897
0.00633724
0.00309418
0.000786461
0.00572144
0.00206579
8.23042e-05
0.00539071
0.00222395
-1.15183e-05
0.00526922
0.00222814
0.000464261
0.00415515
0.00150248
0.000266436
0.00377093
0.00158652
9.09083e-05
0.00315583
0.00158716
6.13846e-05
0.00302596
0.00139233
0.000341357
0.0034183
0.000963658
0.000465729
0.00283714
0.000961886
0.000285529
0.00150533
0.000851366
-0.000315639
0.0009957
0.000826454
-0.000389332
0.0013696
0.000912379
0.000555206
0.00213379
0.000531174
0.000392354
0.00084081
0.000516422
7.11534e-05
-0.000192496
0.000451621
-0.000265727
-0.000157003
0.000142445
-0.000315833
-0.00020749
3.38621e-06
-0.000742138
-0.000405366
-3.18414e-05
0.000589515
0.000245718
0.000296269
-2.4382e-05
-0.00028343
0.000280681
-0.000174558
-0.000958643
0.000150973
-0.000418885
-0.00134028
4.12017e-05
-0.000485903
-0.00127128
0.000136313
-0.00072856
-0.00145282
0.000162532
-0.000936606
-0.00101417
0.000108399
0.000357108
-0.000717838
5.71613e-05
-0.000166536
-0.00121496
0.000144789
-0.000206274
-0.00164269
7.08703e-05
-0.000545174
-0.00234205
-5.31031e-05
-0.000276227
-0.00225394
-0.000137109
-0.000511371
-0.00176157
1.49721e-05
-0.000816516
-0.00142405
-4.27038e-05
-0.000635959
-0.00119391
-0.000150827
0.000222205
-0.0017921
-0.000100354
-0.000144912
-0.00225456
-5.47357e-05
-0.000259682
-0.00330197
-3.86244e-05
-0.000260768
-0.00338489
-0.000100238
-0.000165947
-0.00233782
-0.000146866
-0.000289197
-0.00211695
-0.000126114
-0.000590609
-0.00143715
-9.43809e-05
-0.000579256
-0.00177281
-0.000173053
-0.000517907
-0.00168746
-0.000149815
0.0001694
-0.00189313
-0.000131283
-9.13403e-05
-0.00264754
-9.80927e-05
-0.000222487
-0.00375771
-7.91033e-05
-0.000220011
-0.00385541
-0.000106695
-0.000144082
-0.00276673
-0.000151191
-0.000134403
-0.0023546
-0.000171072
-0.000304194
-0.00156005
-0.00010956
-0.000458958
-0.00202886
-8.52979e-05
-0.000315151
-0.00311844
-0.000103467
-0.000322722
-0.00210566
-4.87818e-05
5.80873e-05
-0.00201862
-9.02854e-05
-2.20009e-05
-0.00284273
-8.0872e-05
-0.000125896
-0.00344705
-5.00081e-05
-0.000150232
-0.00393377
-4.60335e-05
-9.26599e-05
-0.00290064
-5.97282e-05
-5.38564e-05
-0.00291539
-6.09943e-05
-0.000102366
-0.00272634
-6.24387e-05
-0.000201527
-0.00245955
-5.09527e-05
-0.000162782
-0.00289789
-4.92297e-05
-0.000124687
-0.0022158
-4.07946e-05
-0.000166945
-0.00175793
-1.87298e-05
0.000951587
0.00620417
0.00452489
0.00108259
0.00655964
0.00410096
0.000280746
0.00639181
0.00416925
0.000433967
0.00648567
0.00326513
7.89212e-05
0.00608559
0.00326231
-0.000207093
0.00576869
0.00333952
0.000431888
0.0053025
0.00228774
7.02613e-06
0.00532614
0.00238977
-6.73497e-05
0.00525304
0.00239838
-2.25338e-05
0.00510868
0.00242677
0.00028799
0.00402082
0.00152375
0.000249894
0.00383785
0.0016514
0.000173157
0.00323108
0.00162365
-0.000121032
0.00300114
0.00141737
-0.000773856
0.00192592
0.00148508
0.000421987
0.00346298
0.000948392
0.000502367
0.00272504
0.000965751
0.000203255
0.00140766
0.000927459
-0.000486906
0.0011916
0.000876648
-0.000425448
0.00136867
0.000937004
-0.000803203
0.000777336
0.00106569
0.000569178
0.00208596
0.000541675
0.000226773
0.000630515
0.000490313
-8.74447e-05
-0.00017182
0.000408632
-0.000376001
-5.71106e-05
0.000308844
-0.000357962
-0.000196114
3.12807e-06
-0.00104746
-0.000153955
7.08743e-05
-0.0013224
0.00146326
0.000123775
0.000335328
0.000242334
0.000336786
-0.000257332
-0.00020542
0.000309056
-0.00024057
-0.000851737
0.000208071
-0.000637593
-0.00110922
1.23363e-05
-0.000714276
-0.000966088
0.00017406
-0.000871694
-0.00105048
9.42965e-05
-0.00107741
-0.000728854
0.000138109
-0.00115362
0.000639895
8.53409e-05
0.000221242
-0.000686538
0.000104915
-0.000189731
-0.00129179
0.000178805
-0.000297489
-0.00156641
0.000106316
-0.000375771
-0.0020721
-8.40689e-05
-0.000424848
-0.00193094
-0.000117202
-0.000610885
-0.00158997
1.29842e-05
-0.000906616
-0.001113
1.99249e-05
-0.000677658
-0.000994191
-0.000144021
-0.000947806
3.27943e-05
-8.78297e-05
0.00017947
-0.0018545
-7.36779e-05
-0.000226249
-0.0022263
6.29503e-06
-0.000345397
-0.0031847
-4.90968e-05
-0.000414369
-0.00314223
-8.69304e-05
-0.000231755
-0.00219431
-0.000156067
-0.000352708
-0.00193553
-0.000109987
-0.00064267
-0.00114323
-8.15542e-05
-0.000639923
-0.00155427
-0.000131956
-0.000558761
-0.00148144
-0.000135463
-0.0006474
-0.000935797
-2.90284e-05
0.000136089
-0.00200481
-0.00011967
-0.000128927
-0.00258025
-9.16446e-05
-0.000278715
-0.00363937
-6.36121e-05
-0.000256258
-0.00374026
-8.82239e-05
-0.000178408
-0.0026428
-0.000144877
-0.000140874
-0.0022577
-0.000161068
-0.000333787
-0.00140464
-9.50592e-05
-0.000484182
-0.00178012
-7.56423e-05
-0.000341808
-0.00292275
-0.00010196
-0.000329975
-0.00195938
-4.44596e-05
-0.000394198
-0.00166511
-3.65377e-06
4.50354e-05
-0.00205422
-8.90688e-05
-4.11065e-05
-0.00281217
-7.97437e-05
-0.000137181
-0.00334018
-5.05605e-05
-0.00016798
-0.00376993
-4.58655e-05
-0.000105682
-0.00278188
-5.9111e-05
-6.4879e-05
-0.00284742
-6.28264e-05
-0.000119896
-0.0026117
-5.5741e-05
-0.0002044
-0.00226474
-5.28506e-05
-0.000177882
-0.00272354
-4.7416e-05
-0.000134451
-0.00208965
-4.09228e-05
-0.000174286
-0.00160635
-1.80792e-05
-0.000191359
-0.00100818
-1.21785e-05
0.000232873
0.00589018
0.00489507
0.000880999
0.00653129
0.0046778
0.000547743
0.00640889
0.00458369
1.60411e-06
0.00621174
0.00477427
0.000199326
0.00651853
0.00424438
0.000115162
0.00617703
0.0042795
-0.000317314
0.00613222
0.00431691
0.000148577
0.00646248
0.00341282
-4.12019e-05
0.00602416
0.00337479
-0.000346063
0.00588755
0.00342217
-0.000336321
0.00598762
0.00346983
0.000180789
0.00512393
0.00247165
-6.43714e-06
0.00525131
0.0026189
0.000241013
0.00500999
0.00256497
-7.17477e-05
0.00496845
0.00248934
-0.000832432
0.00483146
0.00244233
0.000130497
0.0042009
0.00154818
0.000373195
0.0038344
0.00165637
0.000182419
0.00329923
0.00160409
-0.000225966
0.00294095
0.0014229
-0.00087279
0.00225177
0.00153886
-0.00137983
0.00310114
0.0013889
0.000456217
0.00348297
0.000964048
0.000386718
0.00256422
0.00094926
-6.3883e-05
0.00137024
0.000979611
-0.000581464
0.0014034
0.000921122
-0.000499908
0.0013324
0.00105486
-0.00107129
0.000751113
0.000987055
-0.00165772
0.000284588
0.00105543
0.000427963
0.00187222
0.000630365
-1.84091e-05
0.000460287
0.00047298
-0.000290624
-3.93001e-05
0.000407847
-0.000525236
4.36469e-05
0.000195519
-0.000646144
-9.90453e-05
0.000143644
-0.00117203
-1.90921e-05
0.0001686
-0.0014819
0.00179206
0.000146569
-0.00180127
0.000980782
0.000468552
4.97723e-05
0.000352065
0.000342075
-0.000178475
-0.000222411
0.000342521
-0.000268061
-0.000810782
0.000238674
-0.000689344
-0.000621378
3.37985e-05
-0.000905457
-0.000603337
0.000130194
-0.00101288
-0.000648376
0.000173951
-0.00115557
-0.000484493
9.88941e-05
-0.00125599
0.00111472
0.000241619
-0.0012825
0.00102403
-3.89674e-05
0.000200895
-0.000730385
0.00014797
-0.000277518
-0.00130787
0.000172269
-0.000406278
-0.00143844
0.000111715
-0.00059995
-0.00173927
-4.09334e-05
-0.000525802
-0.00165264
-6.83222e-05
-0.000736824
-0.00137289
4.98323e-05
-0.000950005
-0.000828571
3.58894e-05
-0.000742476
-0.000799446
-7.22674e-05
-0.000966281
0.000335841
-3.95479e-05
-0.000992197
0.000585928
-3.94117e-05
0.000112076
-0.00186407
-4.31289e-05
-0.000280033
-0.00218662
3.77528e-05
-0.000467478
-0.00299146
1.81878e-06
-0.000440923
-0.00292376
-8.29015e-05
-0.000298761
-0.00201178
-0.00014911
-0.000366397
-0.00174905
-0.000117027
-0.000678549
-0.00085722
-5.12368e-05
-0.000680257
-0.00132408
-0.000115672
-0.000584003
-0.00125189
-0.000119305
-0.000655498
-0.000730411
-1.53263e-05
-0.000576537
-0.00085371
3.48364e-05
9.19878e-05
-0.00208436
-0.000113078
-0.000151615
-0.00251763
-7.17756e-05
-0.000301228
-0.00351086
-5.61033e-05
-0.000295735
-0.00359888
-7.72439e-05
-0.000208979
-0.00248954
-0.000138186
-0.000157623
-0.00215606
-0.000153772
-0.000362857
-0.00124269
-8.00506e-05
-0.000509576
-0.00151954
-5.04632e-05
-0.000367217
-0.0027006
-0.000108455
-0.000338553
-0.00181574
-4.14973e-05
-0.000405944
-0.001483
5.09243e-06
-0.000347379
-0.00134112
-1.16784e-05
3.46218e-05
-0.00207982
-8.76013e-05
-6.24295e-05
-0.00275999
-7.88113e-05
-0.000162215
-0.00320736
-5.03501e-05
-0.000184255
-0.00359107
-4.517e-05
-0.00011937
-0.00264948
-5.88916e-05
-8.09943e-05
-0.0027668
-5.87354e-05
-0.000126028
-0.00249017
-5.83298e-05
-0.000222323
-0.00204986
-4.82955e-05
-0.000194832
-0.00253351
-4.80492e-05
-0.000139323
-0.00195629
-4.14519e-05
-0.000182477
-0.0014471
-1.77029e-05
-0.000198613
-0.000816414
-1.12374e-05
-0.000152071
-0.000590322
-2.01655e-05
8.79856e-05
0.00534138
0.00517721
0.000532157
0.00588332
0.00493826
-0.000408566
0.00564098
0.00509723
0.000240026
0.00635589
0.00479573
-0.000157558
0.00583599
0.00502749
0.000142297
0.00633605
0.00452538
-2.76525e-05
0.00619186
0.00474639
-0.000185313
0.00580636
0.00470606
8.7702e-05
0.00639044
0.00423953
-9.90315e-05
0.00619077
0.00428847
-0.000239063
0.00596055
0.00434417
-0.000362985
0.00600567
0.0042223
0.000141317
0.00624185
0.0034224
-0.000106455
0.00603246
0.00350453
9.67911e-05
0.00599779
0.00340877
-0.000371679
0.00625583
0.00345389
-0.000925993
0.00591897
0.00345272
-0.000174746
0.00526338
0.0025982
0.000199056
0.00521428
0.00268282
0.000304346
0.00486929
0.00263767
-3.63796e-07
0.00478538
0.00252243
-0.000814948
0.00486941
0.00239355
-0.00134734
0.00468816
0.00227697
0.000362551
0.00414161
0.00152956
0.000297023
0.00380651
0.00166576
0.000106296
0.00324966
0.00153576
-0.000495835
0.00300976
0.00144964
-0.00102341
0.0027409
0.00145727
-0.00140987
0.00354859
0.00143
-0.00214381
0.00331904
0.00148129
0.000363641
0.0034466
0.000989813
0.000185865
0.00230349
0.00102051
-0.000253189
0.00126592
0.00101614
-0.000591073
0.00139323
0.00105561
-0.000848413
0.00137144
0.00108435
-0.00128141
0.000829136
0.00108621
-0.00181182
0.000491431
0.00111013
-0.00205318
0.000919309
0.000948343
0.000106358
0.00162698
0.000740074
-0.000121638
0.000403982
0.000629833
-0.00034925
5.38119e-05
0.000461056
-0.000585203
3.76583e-05
0.000309694
-0.000792833
-0.000132077
0.000115926
-0.00138948
0.00024591
0.000255239
-0.00158464
0.00219638
0.000193355
-0.00189043
0.00133822
0.000423573
-0.00193197
0.00129078
0.000606945
8.12597e-05
0.000416398
0.000329856
-0.000224413
-0.000235004
0.000301563
-0.000290533
-0.000867955
0.000283948
-0.000788926
-0.000255987
6.22586e-05
-0.00102157
-0.000207386
0.000133616
-0.00114377
-0.000286675
0.000175441
-0.00123419
-0.000207538
0.000181177
-0.00130145
0.00154402
0.000228562
-0.00127539
0.0014229
0.000151852
-0.00118842
0.00149065
-0.000144486
0.000112955
-0.000803424
0.000208704
-0.000400653
-0.00125785
0.000218567
-0.0006375
-0.001236
0.00013985
-0.000638793
-0.00137504
-5.46507e-05
-0.000623162
-0.00132228
-4.68927e-05
-0.000810726
-0.00107054
7.36548e-05
-0.000987951
-0.000558693
8.93562e-05
-0.000795679
-0.000605997
-4.21366e-05
-0.00096071
0.000646644
-6.36259e-06
-0.00101891
0.000887593
2.21944e-05
-0.000747597
0.00194695
-4.39404e-05
4.84137e-05
-0.00185616
-1.20388e-05
-0.000306846
-0.00213436
5.98355e-05
-0.000519157
-0.00275456
1.87774e-05
-0.000503795
-0.00265569
-5.8193e-05
-0.000347044
-0.00179922
-0.000157394
-0.000394813
-0.00156126
-9.97097e-05
-0.000730348
-0.000565967
-4.07904e-05
-0.00071608
-0.0011061
-6.27106e-05
-0.000587775
-0.00104798
-9.9022e-05
-0.000658144
-0.000532998
2.87386e-06
-0.000608847
-0.000713433
4.72998e-05
-0.000430604
-0.000908127
2.0318e-05
5.1484e-05
-0.00212919
-0.000108502
-0.000209675
-0.00242281
-6.06535e-05
-0.00037242
-0.00333529
-3.71485e-05
-0.000333298
-0.00344027
-6.56628e-05
-0.00026413
-0.00229583
-0.000126196
-0.000186922
-0.00204907
-0.000139254
-0.000389659
-0.00106381
-6.90285e-05
-0.000519798
-0.00126178
-4.03406e-05
-0.000410443
-0.00244638
-8.9079e-05
-0.000337589
-0.00167904
-4.6895e-05
-0.000416559
-0.00130182
1.14046e-05
-0.000368779
-0.001162
-3.85989e-06
-0.000271541
-0.000177592
-7.06545e-06
2.14392e-05
-0.00209311
-8.60423e-05
-8.38035e-05
-0.00268825
-7.55421e-05
-0.000175898
-0.00305947
-5.08051e-05
-0.000197934
-0.00339804
-4.54427e-05
-0.000135045
-0.00250204
-5.75737e-05
-9.69605e-05
-0.00266888
-5.98491e-05
-0.000152375
-0.00234308
-5.34508e-05
-0.000226074
-0.00183696
-4.51514e-05
-0.000203866
-0.00233056
-4.73858e-05
-0.000147998
-0.00181494
-4.14074e-05
-0.00018858
-0.00128222
-1.77513e-05
-0.000205753
-0.000617448
-1.09153e-05
-0.00015673
-0.000424884
-1.99454e-05
-0.000116459
-0.000163767
-1.59404e-05
0.00022024
0.0047726
0.00503577
2.65401e-05
0.00531839
0.00497165
6.7959e-05
0.00549477
0.00521111
-0.000156152
0.00520566
0.0051221
-0.000144893
0.00604019
0.00487009
-0.000421481
0.00583379
0.00500937
0.000358003
0.00563774
0.00509756
1.89225e-05
0.00617354
0.00477595
-0.000187265
0.00588684
0.00490449
5.61381e-05
0.00563187
0.00496983
0.000122902
0.00623406
0.00453448
-0.000250949
0.00617845
0.00469071
-4.51101e-05
0.00569568
0.00466313
-0.000144911
0.00590357
0.00460704
1.78082e-05
0.00640446
0.0042109
-0.000141803
0.00619812
0.00426753
7.84457e-05
0.00601995
0.00424741
-0.000357196
0.00611996
0.0042154
-0.000711954
0.00582532
0.00395
-5.4595e-05
0.00595544
0.00354911
6.80051e-05
0.00607038
0.00351554
0.000289757
0.00607501
0.0034419
-1.44761e-05
0.00628973
0.00338899
-0.000824199
0.00595321
0.0034289
-0.00104246
0.00576786
0.00319446
0.000256088
0.00551554
0.00256475
0.000188671
0.00529769
0.00262314
0.000190952
0.0048614
0.00260606
-0.000468783
0.00489733
0.00249867
-0.000932405
0.00495049
0.00235034
-0.00147986
0.00486387
0.00228783
-0.00202998
0.00481392
0.00209428
0.000303679
0.00402995
0.00158601
0.000133818
0.0037266
0.00166152
-0.00022938
0.00331989
0.00157172
-0.000689833
0.00315782
0.00148646
-0.00115048
0.00297744
0.00151517
-0.00158387
0.00395903
0.0013493
-0.0022154
0.00369185
0.00146077
-0.0023653
0.00376813
0.00146025
0.000190614
0.00328549
0.00103769
-0.000103193
0.00229723
0.00097763
-0.00038444
0.00128589
0.00103573
-0.000676398
0.00137869
0.00112188
-0.000982067
0.00139751
0.00121878
-0.00155258
0.000994464
0.00108212
-0.00196602
0.000700044
0.00125898
-0.00213734
0.00120383
0.00107252
-0.00215649
0.00168569
0.000885044
0.000121389
0.00141596
0.000709914
-0.000207103
0.000511805
0.000614941
-0.000508902
0.000355973
0.000546041
-0.000790263
0.000101883
0.000398169
-0.00101946
-5.04779e-05
0.000225985
-0.0015212
0.000431448
0.000307813
-0.0016369
0.00260753
0.000246802
-0.00189857
0.00166692
0.000461777
-0.00191598
0.00168961
0.000665338
-0.00156911
0.00214561
0.00055797
-9.4224e-06
0.000509082
0.000332497
-0.000318315
-0.000280754
0.000293269
-0.000558888
-0.00073226
8.72568e-05
-0.000915797
0.000158222
0.000146744
-0.00114295
0.000196765
0.000177897
-0.00122766
9.42107e-05
0.000169663
-0.00131975
7.86989e-05
0.000221006
-0.00133675
0.00194018
0.000326087
-0.0012527
0.00179789
0.000145564
-0.0011518
0.00176398
1.1412e-05
-0.000859307
0.00259908
-4.36526e-05
5.77316e-05
-0.000881553
0.000230342
-0.000447842
-0.00119929
0.000291144
-0.00072916
-0.000928305
0.000120872
-0.000756241
-0.00101359
3.0845e-05
-0.000712418
-0.000984903
-2.66507e-05
-0.000847704
-0.000779619
0.000115077
-0.00106883
-0.000307851
0.000161292
-0.000840043
-0.000434117
4.14391e-05
-0.000929257
0.000926565
1.94246e-05
-0.00101752
0.00117787
6.27334e-05
-0.000738223
0.00207482
2.36974e-05
-0.000587661
0.000962811
-3.51421e-05
-9.72805e-05
-0.00172856
-5.47363e-06
-0.000374968
-0.00207659
9.54875e-05
-0.000585214
-0.00252403
4.21077e-05
-0.000548195
-0.00232668
-9.5336e-05
-0.000429416
-0.00154179
-0.00015034
-0.000432308
-0.00134358
-0.000129686
-0.000724573
-0.000339503
8.74162e-06
-0.000718431
-0.000892754
-5.55023e-05
-0.000598879
-0.000858053
-6.42058e-05
-0.000666498
-0.000314613
1.15021e-05
-0.00063135
-0.000558266
6.24982e-05
-0.000463174
-0.00080665
4.02168e-05
-0.000369393
0.000318687
2.59032e-05
-6.68645e-06
-0.00210875
-0.000112731
-0.000244075
-0.00231424
-5.68026e-05
-0.00041657
-0.00312916
-2.61121e-05
-0.000360909
-0.00326048
-5.39631e-05
-0.00027121
-0.00212974
-9.55846e-05
-0.000221969
-0.00191156
-0.000138698
-0.000403266
-0.00089363
-5.8538e-05
-0.000519156
-0.00100992
-2.7807e-05
-0.000430303
-0.00216306
-9.72155e-05
-0.000348584
-0.00152571
-4.18169e-05
-0.00043276
-0.00112049
1.59477e-05
-0.000385712
-0.000972321
1.68853e-06
-0.000279685
-5.68704e-05
-1.62609e-06
-0.000258286
0.000652225
2.27474e-05
1.79312e-06
-0.00208681
-8.50036e-05
-9.30194e-05
-0.00260919
-7.20779e-05
-0.000197252
-0.00288888
-4.88811e-05
-0.000211557
-0.00319147
-4.58202e-05
-0.000143354
-0.00234868
-5.54401e-05
-0.000127896
-0.00253922
-5.93358e-05
-0.000151593
-0.00219808
-5.32513e-05
-0.000232736
-0.0016119
-4.57736e-05
-0.000218424
-0.0021132
-4.4081e-05
-0.000152248
-0.00166922
-4.08561e-05
-0.000192966
-0.00111246
-1.82004e-05
-0.000212066
-0.000412605
-1.05288e-05
-0.00016024
-0.00025531
-2.02503e-05
-0.000114597
-5.2464e-05
-1.66509e-05
-6.70048e-05
-0.00102687
-4.23077e-06
0.000241357
0.00447873
0.00536276
0.00022059
0.00461673
0.00510009
6.11532e-05
0.00491095
0.00518625
3.47563e-05
0.00533691
0.0050226
0.000126413
0.00578448
0.00485825
-0.000127257
0.00537481
0.00511402
-0.000419121
0.00535084
0.00506357
0.000360619
0.0055804
0.00514703
-0.000193259
0.00603226
0.00486311
-9.84903e-05
0.00569732
0.00491778
0.000149439
0.00550393
0.00504988
0.000126638
0.00528062
0.0051603
-6.79713e-05
0.00622537
0.00471337
-0.000167053
0.005778
0.00480089
-5.3486e-05
0.00559534
0.0049494
-9.29443e-05
0.00517385
0.00502046
7.6007e-05
0.00614007
0.00456444
-0.000106034
0.00605233
0.00462483
0.000139193
0.00570122
0.00462441
-0.000234841
0.00582812
0.00461622
-0.000460915
0.00553979
0.00455851
3.3732e-05
0.00628577
0.0042187
-0.000103445
0.0063138
0.00426667
0.000176367
0.00616056
0.00424031
-5.3449e-05
0.00622268
0.00418366
-0.000690673
0.00589927
0.00400793
-0.000836189
0.0060381
0.00376563
0.000221208
0.00600175
0.00352502
-1.43171e-05
0.00629342
0.00352906
-4.38216e-05
0.0063592
0.00346612
-0.000335979
0.00624783
0.003351
-0.000716024
0.00579486
0.00333095
-0.00116284
0.00571368
0.00316606
-0.00169282
0.00566956
0.00305863
0.000262375
0.00567556
0.00249136
0.000222762
0.00523359
0.00253991
-0.000315285
0.00504605
0.00252439
-0.000784574
0.00509595
0.00250218
-0.00125382
0.005165
0.00238751
-0.00172586
0.00505516
0.00230104
-0.00216641
0.00491463
0.00213811
-0.00238828
0.0052268
0.00202793
-3.88722e-05
0.00410303
0.00164165
-0.000226543
0.00375951
0.00167645
-0.000463878
0.00347743
0.00158342
-0.000789916
0.00341414
0.00142891
-0.00126728
0.00326214
0.00148698
-0.00163821
0.00415994
0.00139989
-0.00229201
0.00396825
0.00139888
-0.00246066
0.00408329
0.00146893
-0.0023879
0.00393861
0.00151031
0.000230965
0.00311487
0.00106161
-0.000146995
0.00222635
0.00104846
-0.000656293
0.0014954
0.000915518
-0.0010038
0.0014818
0.00114616
-0.00130504
0.0014896
0.00131537
-0.00177205
0.00122117
0.00124292
-0.00214345
0.000993424
0.00129529
-0.00216627
0.00153913
0.00119137
-0.002137
0.00201625
0.000962977
-0.00203315
0.00315619
0.000991566
-7.19163e-05
0.00137568
0.000695971
-0.000386492
0.000683133
0.000606763
-0.000729944
0.000608575
0.000533394
-0.00108653
0.000291166
0.000527495
-0.00127072
0.000124207
0.000351257
-0.00160614
0.000625463
0.000410451
-0.00163987
0.00289297
0.000342487
-0.00191412
0.00206873
0.000422362
-0.00189387
0.00205852
0.000734026
-0.00145962
0.00251831
0.000600469
-0.00113517
0.00246738
0.000538792
-6.49775e-05
0.000594049
0.000355189
-0.000409548
-0.000311632
0.000325081
-0.000680692
-0.000542449
5.49893e-05
-0.00103483
0.00047146
5.26083e-05
-0.00127134
0.000691865
0.000210568
-0.00136209
0.000501976
0.000284519
-0.00141701
0.000427025
0.000169524
-0.00133693
0.00225699
0.000401087
-0.00127301
0.00224025
0.000227491
-0.00117059
0.00202762
3.4993e-05
-0.000824447
0.00273125
-3.45314e-05
-0.000867071
0.00420965
3.27217e-05
-0.000148701
-0.000909181
0.000276423
-0.000509959
-0.00111309
0.00027913
-0.000777538
-0.000634363
0.000189525
-0.000878942
-0.000590462
2.84944e-05
-0.000797574
-0.000644222
5.83221e-05
-0.000876239
-0.000503898
0.000141559
-0.00104205
-0.000103272
0.00022797
-0.000877822
-0.000261247
0.000147813
-0.00087735
0.00117153
7.49424e-05
-0.00102537
0.00146638
8.97827e-05
-0.000763829
0.00222444
4.55913e-05
-0.000619158
0.00112949
1.30069e-05
-0.000625119
0.00128729
3.9978e-05
-0.000206906
-0.00156474
5.64467e-05
-0.000445873
-0.00196975
8.94842e-05
-0.000668385
-0.00225676
8.00263e-05
-0.000543512
-0.00202572
-7.62432e-05
-0.000457154
-0.00128844
-0.000162743
-0.000473773
-0.00110217
-0.000139945
-0.000716423
-0.000157395
1.36157e-06
-0.000729888
-0.00066468
-8.60145e-06
-0.000650909
-0.000652853
-4.00959e-05
-0.000668256
-7.98383e-05
2.06909e-05
-0.000639963
-0.000421503
8.19424e-05
-0.000466263
-0.00071053
4.69283e-05
-0.000382661
0.000419122
4.27564e-05
-0.000379394
0.000890227
5.16039e-05
-2.06434e-05
-0.00207389
-0.000124137
-0.000260118
-0.00220165
-5.82206e-05
-0.000469778
-0.0028987
-1.47291e-05
-0.000399452
-0.00305785
-4.08471e-05
-0.000294861
-0.00193639
-9.58046e-05
-0.000310585
-0.00170517
-0.000119281
-0.000399915
-0.000725261
-5.87455e-05
-0.000518145
-0.000753853
-2.91923e-05
-0.000442368
-0.00188229
-8.46412e-05
-0.0003538
-0.00137554
-4.58393e-05
-0.000450161
-0.000925575