/*--------------------------------*- C++ -*----------------------------------*\
  =========                 |
  \\      /  F ield         | OpenFOAM: The Open Source CFD Toolbox
   \\    /   O peration     | Website:  https://openfoam.org
    \\  /    A nd           | Version:  7
     \\/     M anipulation  |
\*---------------------------------------------------------------------------*/
FoamFile
{
    version     2.0;
    format      ascii;
    class       volVectorField;
    location    "3.5";
    object      U;
}
// * * * * * * * * * * * * * * * * * * * * * * * * * * * * * * * * * * * * * //

dimensions      [0 1 -1 0 0 0 0];

internalField   nonuniform List<vector> 
18630
(
(0.327984 0.966444 -1.98407)
(-0.381314 1.45402 -1.98562)
(0.344229 0.952188 -1.96947)
(0.983168 0.911572 -2.04496)
(-0.409134 1.5076 -1.78151)
(-0.344899 1.42538 -1.86449)
(0.666843 1.13274 -1.73619)
(0.377986 0.902658 -1.97221)
(0.993254 0.919528 -2.04945)
(1.8436 0.371644 -1.50335)
(-0.952553 1.86528 -0.865141)
(-0.365277 1.56576 -1.65151)
(0.498792 1.34048 -1.16873)
(-0.302949 1.46791 -1.75301)
(0.609357 1.34591 -1.59678)
(1.76342 0.617357 -1.1094)
(0.426813 0.84061 -1.98494)
(1.03708 0.934119 -2.05729)
(1.85034 0.438242 -1.54893)
(2.33732 0.129687 -0.934298)
(-1.3611 1.78904 0.25464)
(-0.968166 1.78105 -0.453732)
(-0.00328873 1.29093 -0.25751)
(-0.346468 1.64605 -1.39768)
(0.545776 1.40349 -1.00525)
(1.46195 0.612742 -0.886594)
(-0.264487 1.52295 -1.57611)
(0.713352 1.37405 -1.41035)
(1.84311 0.543328 -1.03606)
(2.00454 0.457721 -1.04915)
(0.466814 0.789555 -1.99548)
(1.04928 0.929965 -2.05143)
(1.86889 0.467634 -1.54394)
(2.35618 0.129975 -0.886225)
(1.67742 0.24564 -1.38728)
(-1.5743 1.80017 0.408195)
(-1.15454 1.72891 0.318909)
(-0.327606 1.42562 0.277685)
(-0.856513 1.68932 -0.275627)
(0.0764828 1.10736 -0.0654369)
(1.05008 0.443236 -0.67257)
(-0.234368 1.49596 -1.28323)
(0.561855 1.30154 -0.80877)
(1.53515 0.559215 -0.815858)
(1.8521 0.466937 -0.11071)
(-0.199274 1.46273 -1.45128)
(0.822435 1.15722 -1.37075)
(1.87716 0.509977 -0.950383)
(2.02389 0.428584 -1.0092)
(1.4736 0.464076 -1.22075)
(0.482569 0.772137 -2.00276)
(1.07568 0.914712 -2.04291)
(1.89195 0.449367 -1.51761)
(2.36163 0.133482 -0.886057)
(1.69894 0.209546 -1.32845)
(1.45468 0.417578 -1.57109)
(-2.26061 1.63953 1.197)
(-1.46953 1.66287 0.544555)
(-0.697528 0.854542 1.14562)
(-1.02423 1.81646 0.225957)
(-0.347688 1.40784 0.339662)
(0.697035 0.316508 0.251223)
(-0.763189 1.58354 -0.271202)
(0.176148 0.888903 0.0517611)
(0.958248 0.384771 -0.523647)
(1.55932 0.434113 -0.472765)
(-0.06587 1.23989 -1.26849)
(0.689936 1.04343 -0.73834)
(1.54644 0.626583 -0.651192)
(1.88125 0.408649 -0.283714)
(1.27445 0.376911 -1.07934)
(-0.107885 1.37108 -1.36927)
(0.869226 1.07107 -1.27368)
(1.90016 0.503617 -0.883074)
(2.05071 0.409908 -0.973804)
(1.51102 0.340502 -1.15156)
(1.30568 0.396661 -1.44913)
(0.483661 0.807199 -2.01142)
(1.08729 0.912341 -2.04044)
(1.92273 0.431737 -1.48992)
(2.38216 0.139254 -0.837134)
(1.66754 0.144188 -1.31886)
(1.61966 0.339077 -1.44615)
(1.58344 -0.0334544 -1.5324)
(-3.07686 1.5347 1.13264)
(-2.14203 1.25099 1.2828)
(-1.52682 0.699121 1.43122)
(-1.4879 1.34633 0.901286)
(-0.756387 0.637909 1.21441)
(-0.0976855 -0.0221978 0.337345)
(-1.0312 1.53136 0.336596)
(-0.326883 1.09921 0.534864)
(0.654276 0.0543548 0.442399)
(0.951327 0.106259 -0.214049)
(-0.630987 1.5212 -0.400367)
(0.247952 0.682693 0.147425)
(0.948704 0.299239 -0.304098)
(1.41279 0.464867 -0.521727)
(1.1283 0.621382 -0.758002)
(0.0420569 1.10057 -1.14375)
(0.769426 0.918507 -0.603201)
(1.56979 0.652241 -0.480752)
(1.9185 0.396743 -0.286314)
(1.23914 0.294748 -1.00469)
(1.28677 0.0290203 -0.993996)
(-0.0198138 1.28001 -1.3243)
(0.941218 1.03298 -1.15233)
(2.00021 0.43056 -0.749321)
(2.06045 0.410989 -0.907245)
(1.50818 0.254189 -1.12405)
(1.28524 0.332796 -1.43468)
(1.16436 -0.509097 -1.26595)
(0.462514 0.879199 -2.00493)
(1.09355 0.937328 -2.05205)
(1.99178 0.366522 -1.42736)
(2.38924 0.144299 -0.830288)
(1.67225 0.170296 -1.31338)
(1.49367 0.360496 -1.53335)
(1.66739 -0.104971 -1.4429)
(1.70196 -0.612194 -1.54589)
(-3.56388 1.32181 1.48788)
(-2.87141 0.871235 1.38914)
(-2.39314 0.650935 1.53997)
(-1.90843 0.393513 1.51948)
(-1.5259 0.327842 1.42775)
(-1.01475 0.225247 1.0964)
(-1.4782 1.12718 0.859708)
(-0.797647 0.47701 1.25897)
(-0.041615 -0.156174 0.401977)
(0.12352 0.391755 0.755584)
(-0.906994 1.24444 0.581289)
(-0.0772506 0.574104 0.599783)
(0.655995 0.141922 0.462008)
(1.05415 -0.262705 0.0284864)
(0.919852 0.108621 -0.320809)
(-0.551394 1.40191 -0.114313)
(0.356624 0.530105 0.2042)
(0.978431 0.195594 -0.0801759)
(1.44608 0.386723 -0.483106)
(1.1648 0.449992 -0.680669)
(1.01039 -0.0875575 -0.451315)
(0.110698 1.076 -0.922366)
(0.861489 0.796469 -0.478633)
(1.65133 0.51006 -0.308292)
(1.90655 0.321527 -0.320011)
(1.26985 0.240522 -0.855974)
(1.23879 -0.0212879 -0.914482)
(1.25534 -0.935881 -0.872436)
(0.0284322 1.23829 -1.26984)
(1.01875 0.889202 -1.112)
(1.97153 0.474831 -0.87461)
(2.08662 0.368525 -0.796869)
(1.4865 0.343198 -1.1071)
(1.28544 0.295075 -1.39508)
(1.12335 -0.509797 -1.25253)
(1.63314 -1.43655 -0.638445)
(0.453917 0.898435 -1.99155)
(1.08007 0.987501 -2.07889)
(2.03696 0.351545 -1.40903)
(2.40527 0.154248 -0.821034)
(1.67934 0.170239 -1.3063)
(1.52962 0.331552 -1.44513)
(1.64354 -0.0878254 -1.42501)
(1.67427 -0.623677 -1.53524)
(1.84599 -0.843613 -1.03611)
(-3.48346 0.801622 2.99811)
(-3.45531 0.788249 1.80272)
(-2.83324 -0.123936 2.46435)
(-2.70841 0.31916 1.47928)
(-2.02698 0.0387608 1.91651)
(-1.46545 -0.453121 2.33652)
(-1.66757 -0.267867 1.56244)
(-1.51203 0.239541 1.43858)
(-0.821502 0.0834715 1.42401)
(-0.225641 -0.242647 1.31449)
(-1.53828 0.909288 0.685451)
(-0.74769 0.242373 1.34045)
(0.094413 -0.203073 0.551082)
(0.174194 0.383557 1.06534)
(0.355749 -0.974404 -0.427583)
(-0.777159 1.00355 0.640883)
(0.0254115 0.25082 0.653462)
(0.460988 0.144841 0.676939)
(0.988633 -0.433118 0.171583)
(0.844013 -0.0871726 -0.157001)
(1.04138 -0.403732 0.752576)
(-0.39872 1.23262 -0.0215971)
(0.544184 0.223546 0.325165)
(0.969381 0.0263084 0.391293)
(1.56175 0.277004 -0.393143)
(1.19973 0.270045 -0.588473)
(1.0791 -0.26661 -0.329216)
(1.25345 -1.13366 0.0753542)
(0.230579 1.05268 -0.810982)
(0.938496 0.66313 -0.430539)
(1.72337 0.393825 -0.0285673)
(1.90384 0.222307 -0.260539)
(1.2572 0.196183 -0.779662)
(1.2799 -0.100451 -0.798334)
(1.23747 -1.0772 -0.618661)
(1.30889 -1.25302 -0.727538)
(0.0640142 1.23011 -1.21302)
(1.10747 0.807689 -0.986436)
(2.04058 0.469549 -0.758672)
(2.11815 0.335084 -0.7036)
(1.48397 0.290238 -1.11308)
(1.26935 0.236945 -1.35526)
(1.07932 -0.409594 -1.35532)
(1.62639 -1.40852 -0.663346)
(1.8454 -0.65651 -0.941843)
(0.487313 0.86957 -1.96533)
(1.09258 0.983767 -2.06064)
(2.06733 0.376318 -1.39924)
(2.41665 0.154059 -0.792021)
(1.68513 0.171175 -1.31232)
(1.49624 0.350791 -1.44873)
(1.56348 -0.0779972 -1.43118)
(1.70534 -0.654488 -1.50616)
(1.86396 -0.853632 -1.00228)
(1.34745 -0.615579 -1.20719)
(-3.261 0.512873 3.92674)
(-3.5297 0.476524 3.19296)
(-3.22329 -0.193152 3.43447)
(-2.97903 -0.170631 2.42306)
(-2.60001 -0.613658 2.69999)
(-2.59417 -0.472372 2.7009)
(-2.04146 -0.435231 2.13414)
(-1.90623 -0.18404 2.07003)
(-1.53167 -0.405806 2.37903)
(-1.46651 -0.378064 2.08761)
(-1.61027 -0.413897 1.56955)
(-1.60021 0.169494 1.44222)
(-0.944499 0.278639 1.5818)
(-0.333628 -0.425335 1.25922)
(-0.665247 0.0367622 1.3286)
(-1.47807 0.40258 0.830429)
(-0.569278 -0.0520979 1.29239)
(0.148964 -0.163713 0.652588)
(0.125445 -0.0980303 1.03946)
(0.396166 -0.969502 -0.398124)
(0.601182 -1.43834 0.22805)
(-0.622515 0.703784 0.749936)
(0.151044 0.0806443 0.691304)
(0.63848 -0.0631777 0.604084)
(1.05537 -0.522234 0.118157)
(0.795406 -0.214884 -0.0610827)
(1.03666 -0.65327 0.72406)
(0.954506 -1.28651 0.484148)
(-0.310131 1.01531 0.127619)
(0.689581 0.0331719 0.195077)
(0.920032 0.0347466 0.632509)
(1.41867 -0.740604 0.212323)
(1.16394 0.175968 -0.532124)
(1.12278 -0.439613 -0.333127)
(1.13839 -1.31375 0.422655)
(0.842477 -1.11193 -0.545268)
(0.297222 1.00328 -0.741359)
(1.13735 0.422544 -0.265371)
(1.76645 0.340078 -0.0978826)
(1.89538 0.204465 -0.293187)
(1.28943 0.121857 -0.656566)
(1.25923 -0.195645 -0.752584)
(1.25387 -1.20481 -0.470571)
(1.35832 -1.29293 -0.626772)
(1.09322 -0.933884 -0.983582)
(0.0739509 1.25922 -1.115)
(1.14087 0.719336 -0.907005)
(2.12142 0.349891 -0.604577)
(2.11897 0.337725 -0.657179)
(1.51548 0.23569 -1.01971)
(1.22058 0.229818 -1.30792)
(1.07855 -0.454078 -1.30879)
(1.65918 -1.50851 -0.42878)
(1.86396 -0.709048 -0.840631)
(1.28628 -0.862788 -0.661779)
(0.524598 0.855346 -1.93769)
(1.14974 0.935271 -2.02228)
(2.02573 0.42451 -1.46906)
(2.42871 0.159078 -0.744194)
(1.69478 0.128685 -1.28542)
(1.52836 0.345099 -1.42742)
(1.63573 -0.123695 -1.39141)
(1.76998 -0.868955 -1.30422)
(1.8846 -0.839276 -1.00536)
(1.37438 -0.609198 -1.20809)
(1.17828 -1.04089 -0.682845)
(-3.11912 -0.0213279 4.06255)
(-3.42067 0.266258 3.94128)
(-3.11496 -0.425675 4.19169)
(-3.23391 -0.37284 3.55406)
(-2.94268 -0.740817 3.61649)
(-2.72656 -0.692614 3.63298)
(-2.73553 -0.534364 2.70247)
(-2.51019 -0.810906 2.79296)
(-2.49296 -0.563565 2.894)
(-2.50748 -0.352054 2.92103)
(-1.99281 -0.50814 2.09462)
(-1.87497 -0.389743 2.16829)
(-1.49251 -0.419758 2.43941)
(-1.31373 -0.752362 2.13482)
(-0.649228 -1.2189 2.08314)
(-1.7144 -0.433404 1.53624)
(-1.59411 0.128731 1.53728)
(-0.77968 0.122425 1.84941)
(-0.262632 -0.790452 1.20544)
(-0.680135 -0.0219267 1.52077)
(-0.279702 -0.561198 1.66316)
(-1.35383 0.226484 1.06762)
(-0.234402 -0.215576 1.28594)
(0.200562 -0.155687 0.783589)
(0.204538 -0.325719 1.20067)
(0.476741 -1.05587 -0.50594)
(0.558085 -1.4998 0.394441)
(-0.332137 -1.83908 -0.371875)
(-0.390862 0.314606 0.81149)
(0.242735 -0.193586 0.684265)
(0.538763 -0.0976753 0.720168)
(0.925697 -0.633542 0.113703)
(0.910267 -0.582103 0.0738659)
(0.970317 -0.96647 0.696681)
(0.828125 -1.56482 0.0239665)
(0.194814 -1.4632 0.00385754)
(-0.141126 0.678656 0.282653)
(0.798178 0.0265536 0.24051)
(1.11128 -0.160001 0.664873)
(1.41571 0.148868 -0.159494)
(1.13831 0.0478294 -0.520661)
(1.16204 -0.56873 -0.383977)
(1.18794 -1.40409 0.406036)
(0.964863 -1.14322 -0.674499)
(0.386818 -1.75589 -0.485581)
(0.345566 0.947162 -0.583714)
(1.25101 0.237564 -0.128957)
(1.83939 0.292614 -0.170757)
(1.85086 0.0782147 -0.233659)
(1.26827 0.050979 -0.598915)
(1.23138 -0.242762 -0.702065)
(1.24455 -1.32438 -0.339826)
(1.345 -1.40995 -0.339447)
(1.10693 -1.03231 -0.88614)
(0.815803 -1.38832 -0.374067)
(0.0605278 1.29321 -0.991798)
(1.21748 0.639211 -0.787416)
(2.17505 0.32279 -0.432599)
(2.16916 0.307147 -0.463518)
(1.50356 0.181282 -0.934449)
(1.22901 0.177666 -1.23347)
(1.08691 -0.54904 -1.21696)
(1.6739 -1.54155 -0.273198)
(1.84886 -0.720239 -0.816987)
(1.28019 -0.838344 -0.664526)
(1.16228 -1.32414 -0.0898388)
(0.525965 0.875567 -1.90526)
(1.22288 0.880628 -1.97279)
(2.03712 0.436088 -1.45983)
(2.43029 0.160472 -0.744686)
(1.69341 0.129568 -1.28368)
(1.57612 0.321719 -1.35508)
(1.74071 -0.146877 -1.27775)
(1.69926 -0.743437 -1.38802)
(1.9024 -0.871141 -0.919755)
(1.37858 -0.637752 -1.18114)
(1.20493 -1.02452 -0.657559)
(0.897248 -1.4328 -0.126836)
(-2.88667 -0.334263 3.62318)
(-3.43079 -0.0522056 3.68632)
(-3.05549 -0.390759 4.08755)
(-2.96624 -0.407836 4.30288)
(-3.0424 -0.922611 4.22517)
(-2.97764 -0.762395 4.30542)
(-2.87708 -0.86481 4.34681)
(-3.05842 -0.926079 3.71394)
(-2.77662 -1.00277 3.78095)
(-2.61964 -1.02229 3.76665)
(-2.66936 -0.819075 3.84357)
(-2.34294 -1.02725 2.9364)
(-2.42419 -0.928872 3.04166)
(-2.4548 -0.623415 3.14686)
(-2.40302 -0.526403 3.13275)
(-2.16636 -1.07457 3.2367)
(-1.97762 -0.579697 2.09483)
(-1.83567 -0.45282 2.25018)
(-1.46956 -0.550141 2.46224)
(-1.25469 -0.856441 2.20597)
(-0.631743 -1.33478 2.09593)
(-0.98604 -1.63411 2.12411)
(-1.80796 -0.385457 1.50627)
(-1.48256 -0.0688322 1.50321)
(-0.641435 -0.315451 1.7605)
(-0.375376 -0.926174 1.19551)
(-0.65295 -0.0545327 1.74678)
(-0.0695797 -1.25868 1.55991)
(0.302459 -1.69656 2.04444)
(-1.22304 -0.197125 1.187)
(0.0515402 -0.657857 1.11305)
(0.258255 -0.374979 0.653425)
(0.423079 -0.892984 0.881556)
(0.601204 -1.27183 -0.0219424)
(0.605438 -1.62115 0.505738)
(-0.176767 -1.98594 -0.101285)
(0.0615728 -2.25673 0.909377)
(-0.315137 0.148868 0.717493)
(0.248181 -0.13695 0.828149)
(0.532373 -0.0956675 0.856765)
(0.978704 -0.628918 0.244542)
(0.877021 -1.05064 -0.0600134)
(0.961508 -1.16007 0.783759)
(0.919878 -1.74266 -0.276948)
(-0.0504659 -1.6221 0.613744)
(0.0108199 -1.96029 0.458616)
(-0.0873405 0.625786 0.35507)
(0.878245 -0.0172459 0.381555)
(1.21839 -0.372947 0.820303)
(1.34199 -0.604231 0.0458907)
(1.13153 -0.167319 -0.405507)
(1.19959 -0.770165 -0.250983)
(1.13676 -1.48488 0.456448)
(0.885169 -1.3167 -0.276281)
(0.475153 -1.80765 -0.309029)
(0.227155 -2.07599 -0.0566349)
(0.502736 0.815494 -0.375727)
(1.28827 0.246622 -0.0435631)
(1.92376 0.106716 0.206261)
(1.87059 0.0868607 -0.218952)
(1.2728 -0.0262045 -0.54012)
(1.13928 -0.1241 -0.830935)
(1.24114 -1.37571 -0.286029)
(1.3662 -1.40432 -0.366203)
(1.10167 -1.10632 -0.789504)
(0.809329 -1.38119 -0.331624)
(0.801903 -1.52473 0.0896192)
(0.1425 1.22435 -0.960635)
(1.24254 0.607285 -0.734378)
(2.17929 0.400408 -0.468019)
(2.17195 0.290139 -0.412708)
(1.50943 0.137888 -0.841172)
(1.19608 0.179961 -1.21572)
(1.13427 -0.634785 -1.14453)
(1.67791 -1.55984 -0.1524)
(1.82556 -0.720491 -0.812437)
(1.27525 -0.828473 -0.665369)
(1.18645 -1.32175 -0.0205869)
(1.01334 -1.33804 0.0428207)
(0.500926 0.907175 -1.87251)
(1.2398 0.858169 -1.92278)
(2.05332 0.420005 -1.43126)
(2.44159 0.174173 -0.745615)
(1.73119 0.126727 -1.27791)
(1.55132 0.285431 -1.32723)
(1.59827 -0.065653 -1.4188)
(1.76852 -0.897751 -1.17258)
(1.86539 -0.866951 -0.950159)
(1.34424 -0.625912 -1.18653)
(1.16049 -1.03179 -0.667083)
(0.894495 -1.43984 -0.110712)
(0.595813 -1.16608 -0.43254)
(-2.5729 -0.226803 3.67907)
(-2.76525 -0.0819869 3.76757)
(-2.61031 -0.506416 3.9875)
(-3.06523 -0.492648 3.84839)
(-2.68643 -0.807505 4.24358)
(-3.00658 -0.80417 4.09863)
(-2.92444 -0.682266 4.32323)
(-2.69138 -0.811154 4.49599)
(-2.90167 -1.24857 4.27477)
(-2.84048 -1.01689 4.35353)
(-2.72618 -1.09484 4.43693)
(-2.75376 -0.947512 4.43496)
(-2.97749 -1.16938 3.72323)
(-2.66655 -1.22401 3.91882)
(-2.81079 -0.728947 3.76812)
(-2.7971 -1.05584 3.85504)
(-2.6194 -1.37495 4.01081)
(-2.04079 -1.47217 3.1301)
(-2.37715 -0.872925 3.20925)
(-2.31055 -0.667066 3.41322)
(-2.20295 -0.851994 3.31562)
(-2.06046 -1.34473 3.18822)
(-1.91177 -1.80835 3.08236)
(-1.92645 -0.866255 2.03792)
(-1.80806 -0.706641 2.2622)
(-1.4417 -0.855918 2.36931)
(-1.13462 -1.0766 2.21115)
(-0.758543 -1.58742 2.02004)
(-1.20118 -1.71213 2.22478)
(-1.05709 -2.51981 1.99899)
(-1.79821 -0.519341 1.55701)
(-1.36418 -0.220382 1.59584)
(-0.419962 -0.640384 1.73146)
(-0.385011 -0.735889 1.45001)
(-0.472645 -0.624735 1.86697)
(0.139773 -1.42906 1.75292)
(0.305252 -2.01076 1.89057)
(0.208459 -2.58939 1.55877)
(-0.545336 -0.70121 1.39248)
(0.070879 -0.390879 1.35006)
(0.306061 -0.456226 0.729857)
(0.492646 -0.959577 1.00001)
(0.741368 -1.41653 -0.144863)
(0.732409 -1.80155 0.59127)
(-0.265809 -2.11067 0.186632)
(0.152264 -2.48803 0.718832)
(0.0118676 -2.46119 0.917457)
(-0.357639 0.114737 0.70457)
(0.373272 -0.279668 0.929051)
(0.680253 -0.113923 0.841059)
(0.779518 -1.01366 0.233751)
(0.945297 -1.14186 -0.0766486)
(0.946623 -1.41515 0.702254)
(1.00763 -1.8546 0.00389986)
(-0.0865229 -1.73343 0.708875)
(-0.038821 -1.96518 0.654219)
(-0.244019 -2.02582 -0.680351)
(-0.0816595 0.548855 0.440484)
(1.01505 -0.0832077 0.57945)
(1.41414 -0.620473 0.643397)
(1.4839 -0.441736 -0.0819689)
(1.14638 -0.378472 -0.334175)
(1.21354 -0.912479 -0.0420872)
(1.11318 -1.53249 0.57866)
(0.970275 -1.45161 -0.213038)
(0.307744 -1.87083 -0.23257)
(0.236597 -2.0932 0.0675376)
(-0.608562 -1.67681 -0.221043)
(0.593364 0.743144 -0.233013)
(1.33868 0.318104 0.00967759)
(1.96466 0.0944382 0.384584)
(1.86834 -0.0108406 -0.172836)
(1.29268 -0.0664847 -0.519708)
(1.12801 -0.175419 -0.82657)
(1.23848 -1.44401 -0.222987)
(1.33063 -1.45324 -0.147891)
(1.08419 -1.18855 -0.636243)
(0.806043 -1.38535 -0.271632)
(0.855963 -1.58245 0.174231)
(0.716892 -1.07574 0.213548)
(0.216269 1.14169 -0.886694)
(1.3924 0.482777 -0.659941)
(2.283 0.221196 -0.230113)
(2.19382 0.277333 -0.275127)
(1.53348 0.0670105 -0.730007)
(1.21072 0.133202 -1.19969)
(1.20439 -0.753957 -1.06354)
(1.68664 -1.51812 0.0186377)
(1.85343 -0.841365 -0.54762)
(1.26795 -0.748159 -0.747884)
(1.20081 -1.3398 0.0162915)
(1.0253 -1.36053 0.106408)
(0.359115 -1.11059 -0.208111)
(0.52437 0.891518 -1.84701)
(1.29881 0.812498 -1.86316)
(2.06312 0.433005 -1.41497)
(2.44264 0.180758 -0.747637)
(1.75005 0.0839815 -1.23674)
(1.55954 0.269727 -1.31302)
(1.71821 -0.197275 -1.20803)
(1.7316 -0.846633 -1.18722)
(1.91616 -0.866258 -0.896801)
(1.36524 -0.62185 -1.17633)
(1.17137 -1.01679 -0.672426)
(0.89219 -1.44874 -0.100381)
(0.600956 -1.17712 -0.401155)
(0.293604 -0.821997 -0.470571)
(-2.33307 -0.120805 3.18579)
(-2.48597 -0.423914 3.39336)
(-2.58783 -0.433047 3.67778)
(-2.4345 -0.762983 3.78406)
(-2.8603 -0.836117 3.59665)
(-2.73271 -0.567912 3.89285)
(-2.75899 -0.267442 3.97653)
(-2.83016 -0.977756 3.96532)
(-2.68765 -0.93275 4.16833)
(-2.681 -0.600825 4.24314)
(-2.90513 -1.03706 4.13951)
(-2.82641 -1.10087 4.23274)
(-2.68317 -0.797257 4.42371)
(-2.82145 -0.787031 4.27255)
(-2.79056 -1.3906 4.24177)
(-2.71842 -1.23921 4.30538)
(-2.69038 -1.07509 4.34126)
(-2.69498 -1.13789 4.39201)
(-2.55826 -1.26364 4.20418)
(-2.5396 -1.4689 3.89757)
(-2.69681 -1.21492 3.86723)
(-2.80649 -0.843002 3.85784)
(-2.91642 -0.927919 3.81499)
(-2.59407 -1.36864 4.00794)
(-2.55335 -1.54463 3.85033)
(-2.35706 -1.15406 3.11126)
(-2.36275 -1.06265 3.27354)
(-2.28072 -0.716767 3.42131)
(-1.99469 -1.32033 3.2721)
(-1.95186 -1.63907 3.08613)
(-1.84045 -2.01893 2.96837)
(-1.92015 -2.41182 2.77305)
(-1.71897 -1.10299 2.12225)
(-1.49692 -1.11126 2.26997)
(-1.26499 -1.00531 2.40532)
(-0.969701 -1.37525 2.11964)
(-0.742401 -1.88987 2.04408)
(-1.2713 -2.12928 2.05803)
(-0.987175 -2.6653 2.04112)
(-1.22546 -2.63256 2.27781)
(-1.62153 -0.683136 1.74345)
(-0.903137 -0.621823 1.65337)
(-0.225695 -0.621363 1.82773)
(-0.304816 -0.822697 1.57939)
(-0.369731 -0.820719 2.05678)
(0.245389 -1.8726 1.7609)
(0.544666 -2.16487 2.01079)
(0.191837 -2.64508 1.7754)
(-0.163869 -2.76851 1.67361)
(-0.453009 -0.594605 1.37198)
(0.0607316 -0.358205 1.54105)
(0.238444 -0.439709 1.02451)
(0.662161 -0.946748 1.09171)
(0.966615 -1.53806 0.18235)
(0.78373 -1.97074 0.610699)
(-0.451489 -2.18119 0.42706)
(0.130473 -2.61571 0.630739)
(-0.0749275 -2.52714 0.967941)
(-0.476719 -1.99304 1.5846)
(-0.199255 -0.159364 0.731793)
(0.610653 -0.450375 0.853608)
(0.935857 -0.550766 0.500521)
(1.01448 -1.04277 0.489843)
(0.849829 -1.35511 0.0841748)
(0.931779 -1.5369 0.735518)
(0.973746 -2.01336 0.0804855)
(-0.126994 -1.82049 0.858452)
(-0.192715 -2.02936 0.485718)
(-0.220586 -2.15303 0.0556357)
(-0.904127 -1.62456 -0.0119051)
(0.0844978 0.535423 0.50928)
(0.989708 -0.132437 0.875627)
(1.435 -0.735754 0.736266)
(1.33287 -0.769377 0.265483)
(1.11748 -0.557676 -0.302933)
(1.17461 -0.951157 0.0292946)
(1.19035 -1.6346 0.517255)
(1.07682 -1.55554 0.00855135)
(0.380149 -1.73067 -0.0816032)
(0.189854 -2.09661 0.185302)
(-0.569613 -1.75305 0.0407643)
(-0.17835 -1.24597 -0.0984499)
(0.673538 0.699356 -0.0902088)
(1.41081 0.194452 0.13593)
(2.03794 -0.0725671 0.500981)
(1.77992 -0.146904 -0.193001)
(1.30247 -0.355995 -0.337223)
(1.11724 -0.285005 -0.932253)
(1.18894 -1.43391 -0.0664591)
(1.43589 -1.37753 -0.11828)
(1.12137 -1.28268 -0.385426)
(0.801152 -1.39203 -0.259979)
(0.830367 -1.59333 0.288048)
(0.737862 -1.13491 0.265568)
(0.0794895 -0.973772 -0.0338494)
(0.264249 1.09688 -0.748797)
(1.47059 0.453524 -0.677186)
(2.33666 0.263194 -0.150687)
(2.19291 0.285611 -0.240052)
(1.51522 0.0339643 -0.682576)
(1.30246 0.081486 -1.14806)
(1.27013 -0.89761 -0.853751)
(1.64143 -1.48349 0.108263)
(1.79402 -0.854813 -0.579179)
(1.23125 -0.789281 -0.711922)
(1.22451 -1.35805 0.0182846)
(1.04115 -1.38363 0.162011)
(0.378655 -1.12646 -0.157852)
(-0.0494299 -1.09159 0.101059)
(0.548348 0.908678 -1.81885)
(1.32383 0.814416 -1.80676)
(2.15848 0.419407 -1.24881)
(2.45617 0.205566 -0.757574)
(1.72262 0.117556 -1.25013)
(1.61567 0.266674 -1.28491)
(1.58631 -0.0915364 -1.30951)
(1.74216 -0.879144 -1.10216)
(1.95051 -0.883383 -0.808279)
(1.38294 -0.609926 -1.15346)
(1.18217 -0.985311 -0.687822)
(0.903207 -1.45526 -0.092356)
(0.59593 -1.18197 -0.392003)
(0.281692 -0.816371 -0.492267)
(0.584289 -0.225954 -0.232921)
(-2.12942 -0.0678184 3.2232)
(-2.20976 -0.260421 3.23475)
(-2.36645 -0.297959 3.19192)
(-2.50373 -0.558267 3.39274)
(-2.83382 -0.203495 3.23263)
(-2.48929 -0.799131 3.6643)
(-2.32344 -1.03941 3.75291)
(-2.7226 -0.154328 3.66587)
(-2.75111 -0.908294 3.67644)
(-2.64422 -0.813427 3.87068)
(-2.64328 -0.485566 3.94347)
(-2.50004 -0.256745 4.054)
(-2.78928 -1.1659 3.88629)
(-2.63201 -1.14118 4.05378)
(-2.58985 -0.755596 4.14957)
(-2.45247 -0.556734 4.22327)
(-2.72452 -1.29035 4.16378)
(-2.69244 -1.25964 4.19305)
(-2.64065 -0.691985 4.36114)
(-2.6416 -0.89313 4.23852)
(-2.52341 -0.872125 4.23866)
(-2.67779 -1.5968 4.25533)
(-2.73327 -1.35058 4.25255)
(-2.75984 -0.98823 4.30115)
(-2.7934 -1.10168 4.25184)
(-2.52301 -1.48408 4.18696)
(-2.72351 -1.26456 3.86284)
(-2.51059 -1.48682 3.85759)
(-2.59734 -1.36186 3.91923)
(-2.69813 -1.2956 3.92448)
(-2.74278 -1.40186 3.82233)
(-2.52371 -1.50466 3.89508)
(-2.38714 -1.78898 3.7704)
(-2.35993 -2.14552 3.41317)
(-2.48471 -1.29543 3.05826)
(-2.38193 -1.10713 3.20935)
(-2.01308 -1.36644 3.26672)
(-1.89755 -1.62269 3.17789)
(-1.88511 -1.80987 3.0463)
(-1.75882 -2.20799 2.92048)
(-1.69447 -2.56396 2.91717)
(-1.87731 -2.7621 2.65032)
(-1.40085 -1.36834 2.26258)
(-1.27433 -1.29648 2.32724)
(-1.09262 -1.3171 2.38682)
(-0.918421 -1.57996 2.13859)
(-0.619449 -2.06241 2.19178)
(-1.11504 -2.35643 2.19959)
(-0.978794 -2.91604 1.9543)
(-1.18003 -2.87563 2.14842)
(-1.32118 -2.74092 2.03888)
(-1.49086 -0.746099 1.79305)
(-0.741339 -0.908485 1.61097)
(-0.13455 -1.14565 1.57768)
(-0.030774 -1.21835 1.59519)
(-0.105506 -1.18304 2.16239)
(0.374425 -1.94795 2.02839)
(0.514747 -2.45342 1.9691)
(0.224787 -2.61506 2.10896)
(-0.185121 -2.74099 1.91691)
(-0.805783 -2.66869 1.31343)
(-0.401697 -0.560875 1.42127)
(-0.0346825 -0.474853 1.43323)
(0.369363 -0.822846 0.772255)
(0.666232 -1.17382 1.18171)
(1.0962 -1.70025 0.507387)
(0.873498 -2.0772 0.729152)
(-0.33671 -2.25376 0.651272)
(0.165338 -2.71928 0.597153)
(-0.0187124 -2.48973 1.20992)
(-0.675048 -1.87556 1.73767)
(-0.818257 -1.55316 0.637378)
(-0.139507 -0.228693 0.731519)
(0.752406 -0.482059 0.863772)
(1.09206 -0.643079 0.577253)
(0.773928 -1.48809 -0.0847675)
(0.934079 -1.52492 0.254236)
(0.962379 -1.67572 0.785139)
(1.17477 -2.15318 -0.00085638)
(-0.225942 -1.91245 1.00263)
(-0.0870017 -2.07088 0.798136)
(-0.227247 -2.20632 0.193137)
(-0.881609 -1.64927 0.0119112)
(-1.71281 -1.61554 -0.21823)
(0.543763 0.13372 0.706512)
(1.12641 -0.106081 0.948038)
(1.43716 -0.777084 0.878727)
(1.38447 -0.846388 0.0396199)
(1.15617 -0.695786 -0.106484)
(1.1446 -1.01105 0.144404)
(1.16392 -1.58791 0.704443)
(1.08421 -1.63533 0.514166)
(0.230261 -1.71518 0.23927)
(0.192247 -2.13045 0.210037)
(-0.422645 -1.84785 0.192712)
(-0.170584 -1.36304 0.0559013)
(-0.375176 -1.13211 -0.125832)
(0.824139 0.399197 0.237186)
(1.46586 0.240571 0.0579609)
(2.1074 -0.203843 0.689304)
(1.74617 -0.170995 -0.0866785)
(1.2584 -0.247472 -0.656475)
(1.10321 -0.353205 -1.04285)
(1.14287 -1.30679 -0.226626)
(1.35028 -1.40515 0.159801)
(1.23158 -1.31931 -0.361325)
(0.785044 -1.40327 -0.203101)
(0.901798 -1.58139 0.348347)
(0.795874 -1.14328 0.297414)
(0.107094 -1.01828 0.0896282)
(-0.158409 -1.09269 0.24399)
(0.39733 0.999245 -0.715398)
(1.38477 0.503562 -0.890982)
(2.43107 0.176405 -0.0870752)
(2.19571 0.281565 -0.168883)
(1.52724 0.00921579 -0.552727)
(1.53393 -0.308672 -0.726166)
(1.26532 -0.862866 -0.886305)
(1.62172 -1.41495 0.0447328)
(1.78624 -0.864667 -0.484084)
(1.24629 -0.705529 -0.825069)
(1.24774 -1.37279 0.0605131)
(1.06675 -1.40489 0.230321)
(0.396208 -1.14115 -0.133028)
(-0.0561813 -1.0566 0.135353)
(-0.372005 -0.982226 0.245179)
(0.543556 0.942105 -1.7974)
(1.28643 0.843577 -1.77171)
(2.15952 0.383059 -1.17611)
(2.45316 0.212811 -0.751811)
(1.7345 0.0989545 -1.24858)
(1.68258 0.233341 -1.17648)
(1.61461 -0.0893741 -1.2664)
(1.77421 -0.91201 -1.03283)
(1.89801 -0.862668 -0.896878)
(1.35597 -0.62085 -1.14528)
(1.17322 -0.979903 -0.687736)
(0.902811 -1.46964 -0.0880382)
(0.591724 -1.18757 -0.375795)
(0.284054 -0.811264 -0.517928)
(0.574449 -0.214283 -0.241072)
(0.666601 -0.191502 0.0348855)
(-2.27342 -0.0966182 2.8412)
(-2.13294 -0.185531 3.23362)
(-2.33037 -0.0696668 3.15288)
(-2.15325 -0.400145 3.249)
(-2.27887 -0.427003 3.21229)
(-2.32676 -0.309831 3.35395)
(-2.45913 -0.701151 3.36671)
(-2.61969 -0.505263 3.29965)
(-2.6414 -0.286143 3.39504)
(-2.34458 -1.11851 3.6149)
(-2.49517 -0.739871 3.65528)
(-2.63388 -0.462563 3.62158)
(-2.47648 -0.343623 3.79787)
(-2.63097 -1.17335 3.66336)
(-2.60712 -0.905129 3.78217)
(-2.52089 -0.74591 3.86694)
(-2.4692 -0.6295 3.93768)
(-2.47236 -0.479492 4.03418)
(-2.74325 -1.27628 3.80416)
(-2.5398 -1.07332 4.02228)
(-2.54029 -0.919636 4.05024)
(-2.31206 -0.844439 4.20128)
(-2.39076 -0.816402 4.23345)
(-2.61472 -1.36508 4.1638)
(-2.54327 -1.42391 4.17699)
(-2.59957 -1.00384 4.25084)
(-2.67904 -0.88066 4.19136)
(-2.50864 -0.962367 4.23892)
(-2.42137 -1.11171 4.21484)
(-2.64938 -1.50776 4.26579)
(-2.60667 -1.66197 4.22492)
(-2.64056 -1.39942 4.27664)
(-2.64791 -1.3966 4.23474)
(-2.48788 -1.45984 4.22648)
(-2.57237 -1.50957 3.97372)
(-2.6665 -1.63541 3.82201)
(-2.37708 -1.72024 3.91113)
(-2.67062 -1.69254 3.85177)
(-2.59435 -1.80553 3.90658)
(-2.39592 -1.91084 3.82851)
(-2.10824 -2.1358 3.77344)
(-2.10087 -2.27329 3.63481)
(-2.13185 -2.45262 3.40818)
(-1.97905 -2.40063 3.58545)
(-2.22204 -1.80644 3.08698)
(-1.99439 -1.67081 3.10514)
(-1.8703 -1.71642 3.12364)
(-1.84564 -1.8631 3.08558)
(-1.81531 -2.05396 3.09158)
(-1.71457 -2.3063 3.01425)
(-1.58556 -2.67824 2.97625)
(-1.8896 -2.96433 2.57953)
(-1.92824 -2.80101 2.55339)
(-1.50549 -1.47596 2.31447)
(-1.40228 -1.35086 2.33469)
(-0.998295 -1.64498 2.36276)
(-0.781747 -1.9766 2.16626)
(-0.620686 -2.51826 2.00532)
(-0.91139 -2.876 2.01578)
(-0.875916 -3.16818 1.93706)
(-1.11604 -3.06614 2.10691)
(-1.20665 -2.89547 2.16232)
(-1.2689 -2.56916 2.30856)
(-0.99543 -1.18916 1.76663)
(-0.277907 -1.26665 1.606)
(0.136223 -1.15305 1.83805)
(0.343696 -1.81702 1.45609)
(0.138385 -1.62661 2.22166)
(0.467624 -2.1444 2.22585)
(0.610912 -2.42231 2.21694)
(0.167035 -2.67398 2.24655)
(-0.119947 -2.76558 1.99135)
(-0.971876 -2.72938 1.2523)
(-1.13314 -2.08578 1.98625)
(-0.269723 -0.655174 1.40246)
(0.161797 -0.545047 1.30856)
(0.462584 -1.06219 0.827482)
(1.01978 -1.29355 1.3821)
(1.23322 -1.83983 0.887953)
(1.03866 -2.19058 0.880041)
(-0.368181 -2.36672 0.952842)
(0.163447 -2.76865 0.724712)
(-0.13306 -2.60732 1.07683)
(-0.647482 -2.0144 1.75222)
(-0.84623 -1.54994 0.655704)
(-1.12506 -1.71884 1.55001)
(-0.0266186 -0.351123 0.787763)
(0.90008 -0.497436 0.980297)
(1.15357 -0.727772 0.717778)
(1.36145 -1.49256 -0.346873)
(0.89306 -1.80402 0.338632)
(0.928864 -1.8612 0.759386)
(1.03361 -2.18373 0.479762)
(-0.22518 -2.02811 0.846004)
(-0.297208 -2.12986 1.03484)
(-0.174543 -2.26843 0.249737)
(-0.824848 -1.73076 -0.0117425)
(-1.64085 -1.72506 -0.202686)
(-1.23566 -1.87539 0.392479)
(0.759551 0.0871228 0.725113)
(1.28856 -0.292443 1.0306)
(1.57163 -0.909568 0.695174)
(1.29093 -0.867704 0.31053)
(1.19141 -0.919449 0.108979)
(1.18631 -1.10789 0.487897)
(1.22031 -1.63413 0.765626)
(1.1934 -1.64426 0.713478)
(0.295292 -1.85984 0.439527)
(0.161552 -2.15961 0.246094)
(-0.39807 -1.94376 0.326898)
(-0.153455 -1.3569 0.0360058)
(-0.338471 -1.17342 0.0275069)
(-0.330512 -1.06209 0.353895)
(0.644942 0.53642 0.0082841)
(1.54419 0.18753 0.259088)
(2.22114 -0.200754 0.722084)
(1.85587 -0.213301 0.0655409)
(1.26034 -0.346131 -0.607162)
(1.17092 -0.474092 -0.809513)
(1.15245 -1.27192 -0.188345)
(1.37951 -1.36481 0.246549)
(1.19865 -1.35642 -0.230518)
(0.822681 -1.47074 -0.00623614)
(0.951819 -1.58904 0.373132)
(0.845737 -1.20249 0.409292)
(0.128683 -1.06728 0.110973)
(-0.170146 -1.07064 0.268603)
(-0.703737 -0.853796 0.234664)
(0.447882 0.938618 -0.634867)
(1.34284 0.499373 -1.06108)
(2.52701 0.056393 0.0992554)
(2.20495 0.26978 -0.0699709)
(1.53345 -0.0624812 -0.438268)
(1.33513 -0.125285 -0.85284)
(1.21933 -0.811958 -0.966406)
(1.60127 -1.40013 0.0623725)
(1.74991 -0.909044 -0.437845)
(1.27891 -0.769635 -0.727303)
(1.2693 -1.37999 0.112235)
(1.07206 -1.43665 0.260443)
(0.415623 -1.15688 -0.0462011)
(-0.0521184 -1.02585 0.140334)
(-0.34968 -1.00354 0.276015)
(-0.392117 -0.950819 0.721529)
(0.51872 0.939748 -1.78387)
(1.30658 0.836816 -1.71653)
(2.17393 0.366695 -1.11984)
(2.44462 0.216867 -0.758429)
(1.73673 0.128537 -1.26135)
(1.57836 0.216053 -1.21178)
(1.63157 -0.109488 -1.22202)
(1.78249 -0.926821 -1.00761)
(1.90527 -0.876071 -0.857396)
(1.36536 -0.614176 -1.13789)
(1.16189 -0.958953 -0.714605)
(0.907894 -1.47786 -0.0880914)
(0.590986 -1.19639 -0.382016)
(0.28487 -0.81594 -0.47941)
(0.565031 -0.202967 -0.250773)
(0.659232 -0.159708 0.0134812)
(-0.0682694 -0.966327 0.905348)
(-2.09804 -0.0930713 2.6915)
(-2.20677 -0.265873 2.83265)
(-2.1474 -0.0856951 2.93795)
(-2.05246 -0.391513 3.28613)
(-2.16061 -0.261473 3.21383)
(-2.28374 -0.19499 3.1236)
(-1.98446 -0.667977 3.34868)
(-2.35104 -0.350334 3.24849)
(-2.34561 -0.41096 3.27934)
(-2.31772 -0.319329 3.45546)
(-2.33949 -0.873462 3.34492)
(-2.33479 -0.855864 3.3633)
(-2.5677 -0.633891 3.28689)
(-2.52802 -0.173207 3.55553)
(-2.36071 -1.14881 3.60986)
(-2.47706 -1.01276 3.5859)
(-2.50239 -0.891894 3.61175)
(-2.36078 -0.657785 3.75894)
(-2.36603 -0.48841 3.87223)
(-2.57246 -1.30523 3.57927)
(-2.48255 -1.16803 3.71339)
(-2.56751 -0.834075 3.74215)
(-2.45045 -0.932673 3.82117)
(-2.40767 -0.746839 4.02739)
(-2.17597 -0.771181 4.21578)
(-2.60128 -1.39016 3.74857)