/*--------------------------------*- C++ -*----------------------------------*\
  =========                 |
  \\      /  F ield         | OpenFOAM: The Open Source CFD Toolbox
   \\    /   O peration     | Website:  https://openfoam.org
    \\  /    A nd           | Version:  7
     \\/     M anipulation  |
\*---------------------------------------------------------------------------*/
FoamFile
{
    version     2.0;
    format      ascii;
    class       volScalarField;
    location    "5.5";
    object      nut;
}
// * * * * * * * * * * * * * * * * * * * * * * * * * * * * * * * * * * * * * //

dimensions      [0 2 -1 0 0 0 0];

internalField   nonuniform List<scalar> 
150000
(
0.000715265
0.000679884
0.000785354
0.00122645
0.000698562
0.00132263
0.000739531
0.00101923
0.000661305
0.00073635
0.00105934
0.00151217
0.00140227
0.00073168
0.00230207
0.000961244
0.00471481
0.00258325
0.0005991
0.000932201
0.000610129
0.00187318
0.00143259
0.000632588
0.000832625
0.00154166
0.000457053
0.00149504
0.00147464
0.000778034
0.00317856
0.0024348
0.00195088
0.00223122
0.000881453
0.000564558
0.000879303
0.000628725
0.00192542
0.000458271
0.000847956
0.000747547
0.000273854
0.000423063
0.00151024
0.00192038
0.000515082
0.000606324
0.00150043
0.000588159
0.00028686
0.000414026
0.00132503
0.00131181
0.000942328
0.00259753
0.00364606
0.00248456
0.00294977
0.00251495
0.00217774
0.00106577
0.00160583
0.00261341
0.000714655
0.000976386
0.000980582
0.000997112
0.00144555
0.00269621
0.00120594
0.000390088
0.000656028
0.000769474
0.000422662
0.000484114
0.000659228
0.00023952
0.000975078
0.00204656
0.000411711
0.000450812
0.00142625
0.000779272
0.000250756
0.000309309
0.000282691
0.000399086
0.00116097
0.0010598
0.00107066
0.00305654
0.00302835
0.00226806
0.00280385
0.00411259
0.00217346
0.00151402
0.00198578
0.002654
0.00300468
0.00349423
0.000451896
0.00121772
0.00163677
0.00152822
0.00268724
0.000742972
0.00182996
0.000999132
0.000669134
0.000686326
0.000998722
0.00227141
0.000481321
0.00128573
0.000393986
0.00054437
0.000863705
0.000569877
0.000303105
0.000385063
0.000411751
0.00116653
0.000501297
0.00104676
0.00198269
0.000384312
0.000408257
0.00132454
0.000975463
0.000290775
0.000274652
0.000108215
0.000297934
0.000271208
0.000403451
0.000950131
0.00113432
0.00115766
0.00288881
0.00302785
0.00253057
0.00327498
0.00299678
0.00258174
0.00201693
0.00247236
0.00294517
0.00363249
0.00297599
0.00115415
0.000633616
0.00125202
0.00184804
0.00312744
0.00360708
0.002725
0.00062178
0.000907659
0.000710468
0.000713366
0.00193985
0.00307182
0.00283544
0.00112746
0.0016321
0.00067325
0.000592016
0.00097418
0.000924315
0.000458178
0.000783972
0.00204345
0.00416463
0.00137619
0.000433287
0.000585578
0.000818287
0.000463479
0.000484778
0.000329761
0.000551443
0.000311363
0.000238267
0.000642004
0.000432215
0.000937834
0.00187887
0.000306898
0.000397977
0.00135552
0.00114918
0.00021248
0.000230268
0.000122101
0.000322517
0.000171605
0.000321166
0.000270801
0.000430806
0.000775984
0.00143076
0.00118836
0.0024578
0.00291559
0.00108408
0.0029524
0.00313474
0.00196393
0.00190762
0.00190579
0.00307374
0.00291062
0.00220232
0.0017592
0.000810109
0.000281058
0.00238586
0.00289018
0.00416455
0.00273564
0.00130873
0.000712856
0.000987453
0.00127912
0.00112311
0.00151669
0.00301658
0.00338595
0.00121062
0.000718514
0.000302533
0.000842536
0.000856316
0.000760981
0.00097273
0.00182088
0.00227309
0.00285177
0.00156741
0.00156512
0.000549023
0.000516723
0.000753981
0.000752101
0.00111964
0.000874248
0.000770711
0.000568442
0.000987674
0.000709872
0.001676
0.000463879
0.000711593
0.000569592
0.000317313
0.000251322
0.000212997
0.000501364
0.000371027
0.00052256
0.00057568
0.000335216
0.000440812
0.000558761
0.000767361
0.00174472
0.000231734
0.000382346
0.00134127
0.00127813
0.000296078
0.00023123
0.000184099
0.000328905
0.000241579
0.00022177
0.000189954
0.000430461
0.000278754
0.000442935
0.000633719
0.00163565
0.00119183
0.0023992
0.002561
0.00124107
0.00270114
0.00285995
0.00137669
0.000809235
0.00144604
0.00294167
0.00315732
0.00188533
0.00154147
0.00143531
0.00172112
0.00158319
0.0030188
0.00330245
0.00213412
0.00132991
0.000931908
0.00135618
0.00124167
0.00242555
0.00149091
0.00303618
0.00484217
0.00285798
0.00111154
0.000653144
0.00048474
0.000778949
0.000866962
0.000780391
0.00162237
0.00147184
0.00329422
0.00312317
0.000871773
0.00048975
0.00054273
0.000913789
0.000931852
0.00128413
0.000920326
0.000698905
0.00106864
0.00181516
0.00159372
0.00282211
0.00197132
0.00132334
0.00072231
0.000665444
0.000494501
0.000753508
0.00101422
0.0006464
0.00102203
0.000470132
0.000566562
0.000464771
0.00107943
0.00123567
0.00264223
0.000507249
0.000715242
0.000697653
0.000246697
0.000970346
0.000397175
0.000585295
0.000376197
0.00073273
0.000431063
0.00049186
0.000560089
0.000391551
0.000532161
0.000521789
0.000885284
0.00189265
0.000220771
0.000387628
0.00118572
0.00134518
0.000279774
0.000186957
0.000260643
0.000352156
0.000301263
0.000151321
0.000209557
0.000191796
0.000135251
0.000457526
0.000284028
0.000548893
0.000601277
0.00173101
0.00128229
0.00244734
0.00252435
0.000836981
0.00261831
0.00245897
0.00124509
0.00104394
0.001217
0.00260024
0.00287526
0.00110408
0.0010594
0.000416469
0.00184675
0.00104887
0.00288021
0.00307763
0.00147041
0.000938862
0.0012795
0.000675901
0.00181423
0.00185279
0.00158012
0.00324755
0.00405267
0.00248031
0.000893695
0.00131699
0.000431396
0.00104327
0.00111327
0.00140266
0.00183506
0.0011788
0.00314129
0.00528322
0.00270666
0.00143194
0.000864607
0.00152508
0.000755424
0.00113167
0.000878576
0.000700644
0.00131842
0.00116714
0.00149907
0.00399361
0.00216967
0.000902595
0.000749448
0.000149874
0.000961008
0.000757833
0.00221281
0.000858382
0.00128282
0.000964763
0.000863176
0.00126396
0.00124862
0.000677727
0.0030533
0.00198707
0.000905009
0.000915259
0.000797585
0.000212632
0.000597019
0.000666278
0.000532525
0.000441467
0.00073582
0.00184632
0.00087541
0.000653912
0.000818833
0.000997701
0.00180817
0.00209162
0.00088413
0.000686706
0.000849576
0.000556522
0.000611176
0.000317759
0.000363848
0.000373905
0.000644808
0.000223687
0.00055531
0.000367908
0.000234094
0.000262406
0.000153535
0.000535127
0.00100986
0.000940651
0.00213269
0.000234113
0.000390264
0.00107353
0.00134032
0.000287846
0.000139415
0.000277062
0.000371832
0.000324059
0.000230231
0.000165552
0.000133761
0.000239305
0.000271979
0.000154013
0.000396693
0.000286079
0.000537309
0.000500842
0.00173199
0.001341
0.00247697
0.00238684
0.000931584
0.00271907
0.00251898
0.00100871
0.000722942
0.00107761
0.00266059
0.00271173
0.000904075
0.00102648
0.000738433
0.000786374
0.00124071
0.00275781
0.00283245
0.00094129
0.00109465
0.00140804
0.000912476
0.000974947
0.000647685
0.00106101
0.00305674
0.00304815
0.0014559
0.00170455
0.00186039
0.00175095
0.000809818
0.0019373
0.00107073
0.0015212
0.00113655
0.00313253
0.00301737
0.0021596
0.00260258
0.00129454
0.00193618
0.00058496
0.000106151
0.000807953
0.000285858
0.000964061
0.00145585
0.00142098
0.00310317
0.00472578
0.0026378
0.00145651
0.000335534
0.000733922
0.00131903
0.000875642
0.000846537
0.00119055
0.000890004
0.000736168
0.000604814
0.000945834
0.00192408
0.00383568
0.00165581
0.000992174
0.000734331
0.000362925
0.00107098
0.0012794
0.000852513
0.000542607
0.000692696
0.0009066
0.00213072
0.000584761
0.000813523
0.0018215
0.00137472
0.0011436
0.00297161
0.00134411
0.000567453
0.000939052
0.000773761
0.00035892
0.000494281
0.000622754
0.000572628
0.000703806
0.000385123
0.00108415
0.000790467
0.000851516
0.00103867
0.000538436
0.00146357
0.00111303
0.00161726
0.00189438
0.000881696
0.000698713
0.000894707
0.000814565
0.000283144
0.000289664
0.00034356
0.000321964
0.000207673
0.000268538
0.000331842
0.000192855
0.00045468
0.000432671
0.000235135
0.000309051
0.000224992
0.000564522
0.00100416
0.000995728
0.00214734
0.000250836
0.000395895
0.00095189
0.00128445
0.000336683
0.000269473
0.00032405
0.000352623
0.000323208
0.000228075
0.000146605
7.81537e-05
0.000201457
0.000208745
0.000254612
0.00027142
0.000210572
0.000406716
0.000283488
0.000374582
0.000394392
0.00166571
0.00124736
0.00249127
0.00256055
0.000654564
0.00264229
0.00241045
0.000764312
0.000699865
0.00103388
0.00276158
0.00241089
0.00104437
0.000715841
0.000538483
0.000773969
0.00101102
0.00273809
0.00278452
0.000834662
0.000823206
0.00067308
0.000794992
0.000838127
0.000598323
0.00113369
0.00266334
0.00276829
0.00146895
0.000760604
0.000812108
0.0010686
0.000669636
0.000903381
0.00103431
0.00105155
0.000977111
0.0030362
0.00317023
0.00132732
0.00115758
0.00105883
0.000693834
0.0012702
0.000471511
0.00119521
0.00077621
0.000817674
0.00167413
0.0015855
0.00318296
0.00413063
0.00117243
0.00176162
0.000897124
0.00104387
0.00175762
0.000825054
0.000527608
0.000978792
0.000220607
0.00108075
0.000918231
0.00116074
0.00180805
0.00275838
0.00574004
0.00139985
0.000956386
0.000712241
0.000575065
0.000943675
0.000251979
0.000416493
0.000722231
0.000606786
0.0012473
0.000658581
0.00104811
0.00092219
0.000678679
0.00155479
0.00317546
0.00400769
0.00222282
0.000512764
0.000545443
0.000871673
0.0017584
0.000493181
0.000772713
0.000928981
0.000713093
0.000717685
0.00176905
0.00179942
0.000537241
0.000699974
0.00125005
0.00187693
0.00132687
0.0029504
0.000831315
0.000837282
0.000972272
0.000836407
0.00043364
0.000776534
0.000597448
0.00043886
0.000460757
0.000475721
0.000375248
0.000357676
0.000662881
0.00136284
0.000548439
0.000524887
0.000744402
0.00125613
0.00126645
0.00198266
0.00144185
0.000606871
0.000704932
0.000853575
0.000875513
0.000327156
0.000537385
0.000479632
0.000253884
0.000439757
0.00029884
0.000317727
0.000329119
0.000263463
0.000277199
0.000318849
0.00058825
0.000299945
0.000411
0.000218122
0.000491797
0.000736352
0.00116868
0.00194861
0.00028785
0.0004285
0.000818366
0.00120973
0.000473781
0.000201981
0.000316008
0.000327947
0.000311675
0.000218498
0.000144165
7.81071e-05
3.54189e-05
9.6456e-05
0.000224097
0.00029615
0.000228026
0.000260361
0.000301728
0.000413907
0.00027425
0.000326012
0.000383418
0.00157051
0.00111112
0.00198233
0.00230958
0.000798568
0.00252608
0.00240967
0.000971681
0.000602154
0.000895548
0.00247609
0.00234937
0.000757852
0.000688001
0.000222468
0.000540205
0.00105509
0.00266455
0.00233035
0.000872421
0.000787032
0.000763478
0.000623812
0.000760406
0.000705835
0.000883889
0.00277852
0.00278042
0.000901714
0.00097932
0.000753558
0.000641527
0.00074234
0.00093292
0.000701684
0.000832238
0.000956694
0.00278897
0.00278723
0.00119354
0.0010053
0.000882407
0.00089277
0.000955844
0.000631983
0.00110505
0.00141497
0.0011673
0.00132713
0.00101664
0.00282843
0.00316666
0.00153364
0.00103569
0.00147844
0.000756704
0.000748958
0.00075904
0.000722919
0.00129032
0.00102411
0.0014298
0.00178893
0.0006811
0.00115009
0.00308666
0.0039263
0.00262147
0.00184449
0.00177637
0.000838576
0.00094051
0.00109326
0.000843042
0.000570343
0.000360691
0.000328563
0.000443766
0.00147824
0.00138401
0.001236
0.00193817
0.00268505
0.00511581
0.00262192
0.0018289
0.00116819
0.000665617
0.000671724
0.000326688
0.000524318
0.000791379
0.00107451
0.0004879
0.000595728
0.00113624
0.000582564
0.000400726
0.000659763
0.00109914
0.00223927
0.00302593
0.00403524
0.00130095
0.000257244
0.000385835
0.000764453
0.000784128
0.000682448
0.000677928
0.000747436
0.000509703
0.000323238
0.000841733
0.000628536
0.00162528
0.0011836
0.000944971
0.00112623
0.000762378
0.00170621
0.00149495
0.00318735
0.000749773
0.000826781
0.00097319
0.00100233
0.000564181
0.000919824
0.000518332
0.000369902
0.000463741
0.000470883
0.000483542
0.000405491
0.000564551
0.000494366
0.000500676
0.00130524
0.000701005
0.00057303
0.000648128
0.00103448
0.00159027
0.00212795
0.00169261
0.000648678
0.000697156
0.000823114
0.000858335
0.000549666
0.000349742
0.00021473
0.000250199
0.000576823
0.000271998
0.000306174
0.000227473
9.93781e-05
0.000307133
0.00020668
0.000671501
0.000541427
0.000631332
0.000253885
0.000307162
0.000167338
0.000501895
0.000975202
0.00129699
0.00162693
0.000246122
0.000422306
0.0006789
0.00107855
0.000548363
0.000171587
0.000305556
0.000291456
0.000303952
0.00021911
0.000123777
8.82143e-05
5.91021e-05
0.000141458
4.54225e-05
0.000100493
0.00025629
0.00042115
0.000170658
0.000251522
0.000384183
0.000460655
0.000265524
0.000288251
0.000386348
0.00141776
0.000949155
0.00216261
0.00195159
0.000530205
0.00218848
0.00225962
0.00078734
0.00077004
0.000732162
0.00249643
0.0023912
0.000851663
0.000685919
0.000705827
0.000471504
0.000662071
0.00250456
0.00237415
0.000694837
0.000877057
0.000460187
0.000676079
0.000425491
0.00059945
0.000915531
0.00266861
0.00262814
0.000672308
0.00104335
0.000743144
0.000617252
0.000590957
0.000813026
0.000786837
0.000888781
0.000845872
0.00275303
0.00282758
0.00101758
0.00101874
0.00105358
0.000739169
0.000997485
0.000694194
0.000723951
0.000919289
0.000703442
0.000789589
0.000967211
0.00286873
0.00286398
0.00103552
0.00118998
0.00101312
0.00112483
0.00122799
0.00104298
0.000994498
0.000952327
0.00106107
0.000955875
0.000934145
0.000977306
0.00107675
0.00291868
0.00296427
0.00118412
0.00102025
0.000951599
0.00117854
0.000940382
0.000863636
0.000784238
0.000936953
0.000793053
0.000983254
0.000635547
0.000941621
0.0007826
0.000913198
0.0013672
0.00301381
0.00344309
0.00219979
0.00157564
0.000802903
0.00123249
0.000661996
0.000845157
0.00041644
0.000341341
0.000745434
0.000651207
0.000313803
0.000268509
0.000616348
0.00104541
0.0012993
0.00141328
0.00179251
0.00277596
0.00445152
0.000921945
0.000891832
0.000554541
0.000458631
0.000407061
0.000473866
0.00124988
0.000846892
0.000525201
0.000437687
0.00118228
0.000708522
0.00127464
0.000842754
0.000618661
0.000698775
0.000356167
0.000870279
0.00207882
0.00284479
0.00199829
0.000660125
0.000188934
0.000925068
0.000750078
0.000747054
0.00100769
0.000777005
0.000616242
0.00043163
0.000435088
0.000562382
0.000449848
0.000710169
0.000792222
0.000963065
0.00111682
0.00069671
0.00117227
0.00123965
0.0013518
0.00150123
0.00268374
0.000918826
0.000985174
0.00081391
0.000992353
0.000716394
0.000901248
0.000825766
0.000330504
0.000513697
0.000431941
0.000390853
0.000694208
0.000701627
0.000592643
0.000472601
0.000402346
0.000670711
0.000727005
0.000808211
0.000474112
0.000630081
0.00197878
0.00203985
0.00203555
0.00311348
0.000632864
0.000723558
0.000772107
0.000629143
0.000682781
0.000301941
0.000304583
0.000316209
0.000437169
0.00026719
0.000257455
0.000380242
0.000204201
0.000272629
0.000144624
0.00030652
0.000503673
0.0006177
0.000700814
0.00057647
0.000223804
0.000405314
0.000188876
0.000926256
0.000937119
0.00151698
0.00145379
0.000521456
0.000441052
0.000556399
0.000871707
0.000666424
0.00013741
0.000315128
0.000279142
0.000253537
0.000119927
0.000127177
0.000111538
6.80256e-05
9.62378e-05
0.000136421
0.000210947
0.000103871
0.00010158
0.000281876
0.000523701
0.000139852
0.000272827
0.000461704
0.000488802
0.000258871
0.000297285
0.000565551
0.00145562
0.000809884
0.00231944
0.00227623
0.000537127
0.00243662
0.00221523
0.000538933
0.000356467
0.000601658
0.00218843
0.00224581
0.000728156
0.000682039
0.000548011
0.00073298
0.000904116
0.00243578
0.00229608
0.000700081
0.000799029
0.000683101
0.000571307
0.000467834
0.000457195
0.000637327
0.00256693
0.00231273
0.000980447
0.000695956
0.000663882
0.000398199
0.00068927
0.000462185
0.000876827
0.000640016
0.000688303
0.0026917
0.00247844
0.000894711
0.000856055
0.000676731
0.000464158
0.00095579
0.000649284
0.000717323
0.000931403
0.000555361
0.00100849
0.000937071
0.00267941
0.00279459
0.00106493
0.000873439
0.000878376
0.00105716
0.000695854
0.000840971
0.000695951
0.000541445
0.00083115
0.000556448
0.000710121
0.000713038
0.00114745
0.00290823
0.00279233
0.000855663
0.000751294
0.00074903
0.00107092
0.000884649
0.00113313
0.00089174
0.00091388
0.000905419
0.0012877
0.000698478
0.0010749
0.000813931
0.00069075
0.00121088
0.00266133
0.00280232
0.000858208
0.00126184
0.000954626
0.000912893
0.000888259
0.000900052
0.000829255
0.000861582
0.000696499
0.000693069
0.000923957
0.000598235
0.00124141
0.00129733
0.00144765
0.00126937
0.00114792
0.00331927
0.00384597
0.00152279
0.00126956
0.000941256
0.000871468
0.000780682
0.000517763
0.000471966
0.000440408
0.000273473
0.000380637
0.000676678
0.000517182
0.000424789
0.000436334
0.000917119
0.0016069
0.0010869
0.00217757
0.00145591
0.00286069
0.00408582
0.000911414
0.000627636
0.000968093
0.000352372
0.000762414
0.000395446
0.000644863
0.000275286
0.000352957
0.000506566
0.000430626
0.000745737
0.000487039
0.000724489
0.00167424
0.00122499
0.000713737
0.000487953
0.00137137
0.000849295
0.00216171
0.00278423
0.0019305
0.000925342
0.000637044
0.000816755
0.000791853
0.000525563
0.000575647
0.000807648
0.000663317
0.000627475
0.000596117
0.000672943
0.00044592
0.000595948
0.000672034
0.000712962
0.000935514
0.0020037
0.00111573
0.000709784
0.00119822
0.00101926
0.000923756
0.00109159
0.00313409
0.00103577
0.00113395
0.000733943
0.00100509
0.000733057
0.00103177
0.000979388
0.000421645
0.00047517
0.000517175
0.000417236
0.000351903
0.000529599
0.00105968
0.000458488
0.000742906
0.000476919
0.000486359
0.000640874
0.000710658
0.000462832
0.000520497
0.00034555
0.00172041
0.00240693
0.00320377
0.00271662
0.000641198
0.000762231
0.000607112
0.000411809
0.000549545
0.000685983
0.000291799
0.000508242
0.000614866
0.000224932
0.000206835
0.000406256
0.000160493
0.000127056
9.95702e-05
0.000191307
0.000243749
0.000266283
0.00050156
0.000507168
0.000640577
0.000494554
0.000263947
0.000405409
0.000257429
0.00111247
0.000980444
0.00193394
0.0013419
0.000311016
0.000477214
0.000471182
0.000624184
0.00065538
0.0001687
0.000291999
0.000261144
0.000158778
9.97729e-05
0.000128384
0.000103126
6.29878e-05
9.67326e-05
0.000123211
0.000166784
0.000142372
0.000216614
0.00019547
0.000109115
0.000314665
0.000582981
0.000140848
0.000287062
0.000524757
0.000521568
0.000248144
0.00028216
0.000634181
0.00137924
0.000685172
0.00223055
0.00216816
0.000479011
0.00248328
0.00210731
0.000450983
0.000402412
0.000453688
0.00246388
0.00221927
0.000921214
0.000658815
0.000311301
0.000490217
0.000513382
0.00220868
0.00228209
0.000605997
0.000701606
0.000380235
0.00027542
0.000830097
0.000750658
0.000768132
0.00232656
0.00243585
0.000635563
0.000642498
0.000701668
0.00036506
0.000735847
0.000719557
0.000571563
0.000742909
0.000636572
0.00238117
0.00244532
0.000887157
0.000761813
0.000647744
0.000505113
0.000957468
0.000733181
0.000374577
0.000564575
0.000497412
0.000593181
0.00081041
0.00271068
0.00246609
0.000818066
0.000861203
0.000460078
0.000335896
0.000525604
0.000643567
0.000511825
0.000810361
0.000717191
0.000711955
0.000702346
0.000863152
0.000762066
0.0026558
0.00277961
0.000878836
0.000826347
0.00060355
0.000722442
0.000672518
0.000750175
0.000446355
0.000655215
0.00108427
0.00064266
0.000722899
0.000851869
0.000827533
0.000659099
0.00115119
0.00269507
0.00296385
0.00108512
0.000723468
0.000804511
0.000906648
0.000927912
0.000914788
0.000927561
0.000696905
0.00086639
0.000847231
0.00103837
0.000689146
0.000960374
0.000810606
0.000796073
0.000749785
0.000842145
0.00292212
0.00317477
0.00142371
0.00136895
0.0012994
0.000989502
0.000920733
0.000866446
0.000911597
0.000527579
0.000669334
0.000527448
0.000654513
0.00079864
0.000595249
0.000723507
0.000847265
0.00133685
0.00103322
0.000669849
0.00108522
0.00314735
0.00389314
0.00143437
0.000951515
0.000464418
0.00023497
0.000373127
0.000695559
0.000554918
0.000208244
0.000529746
0.00052855
0.000411075
0.000537762
0.00050873
0.000237688
0.000485654
0.00054952
0.000866357
0.00104504
0.00133696
0.00195698
0.00142896
0.00282291
0.00506054
0.000946893
0.000995374
0.000225809
0.000796327
0.000380751
0.00058241
0.000430566
0.000434473
0.000671579
0.000797812
0.000245085
0.000903081
0.000486754
0.000743226
0.000771429
0.00101853
0.00168761
0.000911015
0.00164418
0.00102871
0.000254156
0.00133301
0.00189346
0.00263624
0.00221102
0.00117757
0.00110587
0.00107582
0.000905249
0.000654348
0.000802118
0.00105903
0.000581241
0.00054072
0.000474058
0.000487891
0.000650807
0.000845762
0.000656114
0.000683898
0.000588753
0.000673262
0.000690647
0.00161593
0.000468637
0.000675492
0.00168068
0.00175332
0.00152793
0.000661627
0.00260512
0.000887051
0.00123539
0.000639076
0.001181
0.000775993
0.00103241
0.0011249
0.000551526
0.000481293
0.000565888
0.000344654
0.000532182
0.000506411
0.000454301
0.000505681
0.000617531
0.0006051
0.000560079
0.000371866
0.000536832
0.000578522
0.000861118
0.000434152
0.000574734
0.000457378
0.00109318
0.00207876
0.00286507
0.00197058
0.00070597
0.000778068
0.000390316
0.000439204
0.00067805
0.000533819
0.000321733
0.000384486
0.000500318
0.000176438
0.000157294
0.000434363
3.50329e-05
0.000241193
0.00018401
0.000274872
0.000234273
0.000154432
0.000191134
0.000212249
0.000428293
0.000387353
0.000617978
0.00037928
0.00020656
0.000413732
0.000460982
0.000601206
0.00108218
0.00219203
0.00140144
0.00026185
0.000499112
0.00039418
0.000472639
0.00065764
0.000148817
0.000257339
0.000211876
9.68046e-05
0.000164184
0.000128942
9.63942e-05
6.9088e-05
0.000100111
0.000119541
0.000305722
0.000250901
0.000175031
0.000121726
0.000170808
0.000231679
9.14775e-05
0.000348846
0.000592596
0.000208362
0.000252868
0.000568243
0.000512375
0.000249067
0.000224285
0.000557851
0.00106971
0.000464171
0.00205855
0.00227103
0.000421304
0.00237576
0.00211623
0.000621052
0.000246325
0.00040722
0.00249796
0.0022024
0.000516748
0.000491854
0.000371341
0.000441405
0.000321233
0.00239132
0.00229541
0.000702612
0.000686218
0.000464191
0.000400578
0.000370773
0.000446181
0.000628874
0.00230322
0.00235764
0.00055445
0.000691896
0.00062056
0.000594851
0.000334665
0.000560978
0.000775526
0.000730248
0.000670645
0.00235961
0.00238063
0.000667711
0.000556608
0.000573183
0.000879973
0.000289393
0.000783524
0.000487439
0.000434133
0.00063304
0.000930415
0.000673709
0.00245108
0.0024511
0.000679918
0.000929185
0.000437908
0.000778494
0.000593655
0.000916156
0.000587441
0.00071502
0.000704269
0.000724848
0.000405356
0.000715566
0.000834783
0.00248329
0.00263078
0.001037
0.000824556
0.000720954
0.0005358
0.000633919
0.000801561
0.000611653
0.000473015
0.000725607
0.00070823
0.000789623
0.000644412
0.000683187
0.00047665
0.000888775
0.00262217
0.002976
0.0010015
0.000982698
0.000866068
0.000747405
0.000705662
0.000734161
0.000600848
0.000459335
0.000721889
0.000577464
0.000538402
0.000780981
0.000617476
0.000748256
0.000520978
0.000624522
0.00106577
0.00285837
0.00319484
0.00110587
0.00145412
0.00101061
0.000992681
0.00112811
0.000895483
0.000811272
0.00073525
0.000857745
0.000859396
0.000623
0.00109836
0.000863795
0.000689538
0.00116015
0.00057992
0.00088373
0.000894681
0.000685889
0.00288075
0.00284097
0.00109601
0.00145186
0.00115626
0.000914971
0.00102089
0.000874819
0.000846904
0.000625681
0.000646187
0.000630845
0.000883897
0.000583875
0.000548522
0.000818878
0.000545537
0.000926443
0.000685205
0.00118241
0.00124253
0.00147146
0.000849509
0.00300162
0.00318443
0.00116499
0.00119129
0.000540603
0.000441184
0.000737199
0.000756632
0.000293641
0.00065536
0.000351996
0.000613297
0.000780174
0.000830346
0.000515704
0.00066941
0.00114702
0.000412574
0.000755599
0.00061302
0.00160654
0.000638144
0.00157661
0.00133997
0.00195987
0.00279897
0.00469782
0.00110102
0.000987893
0.00116153
0.00102648
0.00101432
0.000619071
0.000427106
0.000350712
0.000574938
0.000494504
0.000901996
0.00203122
0.000638233
0.000655588
0.000778532
0.000747257
0.000671946
0.000851956
0.00120229
0.000576032
0.000868794
0.00103372
0.00193708
0.000988723
0.00205512
0.0022017
0.00229346
0.00111529
0.00117377
0.000851409
0.0008936
0.00105226
0.00103243
0.000852962
0.000884993
0.000431081
0.000291846
0.000489446
0.000667796
0.000857271
0.00105629
0.00075971
0.000598002
0.00054217
0.000534106
0.000618984
0.000687991
0.00140253
0.000783767
0.00119305
0.00121535
0.00098882
0.00115971
0.00159372
0.00219064
0.000735041
0.00137779
0.000579656
0.00104147
0.000920796
0.000924191
0.00148076
0.000665238
0.000566392
0.000299388
0.000331674
0.000488262
0.000291952
0.000797124
0.000441609
0.000609127
0.00128608
0.000572083
0.00057317
0.000503548
0.000412367
0.000540415
0.00043857
0.000437055
0.000611026
0.000364003
0.000837625
0.00205898
0.00140071
0.00288489
0.00251062
0.000723283
0.000797837
0.000497993
0.000522953
0.000673422
0.000508372
0.000381763
0.000343672
0.000245463
0.00011562
0.00010904
0.000124774
9.27959e-05
0.000192106
0.000178321
0.000277102
0.000429589
0.000282922
0.00023539
0.000136992
0.000252055
0.000568752
0.000474445
0.000265001
0.000550983
0.000381029
0.000205854
0.000364574
0.000577116
0.00059566
0.000781559
0.00211991
0.00122164
0.000296606
0.000567335
0.000325618
0.000350435
0.000607157
0.000335435
0.000239787
0.000178639
0.00015181
0.000197634
0.000130144
0.000104758
6.51563e-05
8.66393e-05
0.000128688
0.000228689
0.000243226
0.000261786
0.000318626
0.000205595
0.000136685
0.000127844
0.000232453
0.000149879
0.000387669
0.000562344
0.000159305
0.000222477
0.000608424
0.000553394
0.000264305
0.000299656
0.000706282
0.000896946
0.000513062
0.00210809
0.00210845
0.00027946
0.00230496
0.0022693
0.000216051
0.000414325
0.00037729
0.00228953
0.00213691
0.000676992
0.000419426
0.000350993
0.000337229
0.000540387
0.00242728
0.00218866
0.000238693
0.000567665
0.000237032
0.000262814
0.00048425
0.000376935
0.000456992
0.00239204
0.00223016
0.000750877
0.000595224
0.000740126
0.000463981
0.00027679
0.00050961
0.000476434
0.000430735
0.000615765
0.00229895
0.00231321
0.000672135
0.000583135
0.00075844
0.000369857
0.000499616
0.000506775
0.000371715
0.000670092
0.000697753
0.00102389
0.000776349
0.00236031
0.00230192
0.000673743
0.000725445
0.000574028
0.000250608
0.000508145
0.000525079
0.000515587
0.000655451
0.000604241
0.000419732
0.000461263
0.000530336
0.000821348
0.00257778
0.00245843
0.000774015
0.000924085
0.000636016
0.000804623
0.000514397
0.000741839
0.000620617
0.000489434
0.000497631
0.000700789
0.000633655
0.000575664
0.000571977
0.000767444
0.000843949
0.00256203
0.00256773
0.00104877
0.000730324
0.000498276
0.000898235
0.000649792
0.000796979
0.00066077
0.000569166
0.000458528
0.000521462
0.000906745
0.000575657
0.000636761
0.000699858
0.000579319
0.000470747
0.000890863
0.00260111
0.00278663
0.000736485
0.000833423
0.000728336
0.000618879
0.000573026
0.000684979
0.000849329
0.000496722
0.000321066
0.000582542
0.00078463
0.000820291
0.000619146
0.000743371
0.000805943
0.000743338
0.000758078
0.000493726
0.000875492
0.00300381
0.00299131
0.000780859
0.00123295
0.00105246
0.000814721
0.000856628
0.00079046
0.000846859
0.000771493
0.000737261
0.000678772
0.000707942
0.000786505
0.000611027
0.00100081
0.000683819
0.000906008
0.000860871
0.00077671
0.000789367
0.000561788
0.000690341
0.00277097
0.00285325
0.00087361
0.00132012
0.000874864
0.000953351
0.000803482
0.000812414
0.000854492
0.000934837
0.000729931
0.000548515
0.00065799
0.000668405
0.000641005
0.000749676
0.000639354
0.000611943
0.000765112
0.000751738
0.00190239
0.00112122
0.00123621
0.00184121
0.00124003
0.00304383
0.00312141
0.00098995
0.00171701
0.000927763
0.000550492
0.000604425
0.000571298
0.000392245
0.00037138
0.000162045
0.000309432
0.000861821
0.000732974
0.00120001
0.000292461
0.000492088
0.000396263
0.000887197
0.000570121
0.000279253
0.00116291
0.000626647
0.00136368
0.00109515
0.00137687
0.00132955
0.00271224
0.00467533
0.00268125
0.00124047
0.000361635
0.00103646
0.00148792
0.000568238
0.000536668
0.000524897
0.00105031
0.000321377
0.000890008
0.000434012
0.00068544
0.000818976
0.000647788
0.000586855
0.00064521
0.000526968
0.000903108
0.000903931
0.000508496
0.000886818
0.00140269
0.000922224
0.00131514
0.000903262
0.00188048
0.00220478
0.00173609
0.00121957
0.000976716
0.000754029
0.00076405
0.00129453
0.00108917
0.00109397
0.000545417
0.000440348
0.000484079
0.00053146
0.00104586
0.000447936
0.000645699
0.000662646
0.000906213
0.000668871
0.000975198
0.000448967
0.000644496
0.00059775
0.000792771
0.00118838
0.00106465
0.00129065
0.000691637
0.00172032
0.00139902
0.00236722
0.00210376
0.000826044
0.00146157
0.000763465
0.000890104
0.00101681
0.000869742
0.00162741
0.000749495
0.000388794
0.000491117
0.000439085
0.000462587
0.000419844
0.000506544
0.000709629
0.000546774
0.000552336
0.000675437
0.000545042
0.000654926
0.000964515
0.000412764
0.00039301
0.000597478
0.000413759
0.00068551
0.000444675
0.000592989
0.000518145
0.00247797
0.00165403
0.00228844
0.00241371
0.000796614
0.000744047
0.000642156
0.0005012
0.000841834
0.000619706
0.000346676
0.000587702
0.000254618
0.000188724
0.000131753
9.20041e-05
6.89455e-05
0.00019566
0.000184231
0.000325256
0.000434336
0.00018134
0.000256887
0.000294616
0.000171919
0.000278305
0.000199922
0.000637222
0.00058565
0.000353122
0.000434343
0.000342037
0.000138352
0.000720454
0.000668976
0.00108307
0.000587704
0.00180083
0.00109878
0.000263176
0.00057834
0.000292784
0.000257665
0.000535868
0.000195793
0.000225278
0.000128799
0.000197716
0.00023254
0.000110533
0.000113769
6.56877e-05
7.89306e-05
0.000129357
0.000166086
0.000290754
0.000203535
0.000152274
0.000202054
0.000237526
0.000232881
0.000133887
0.000134215
0.000243569
0.000182985
0.000420515
0.000500739
0.000220247
0.000248055
0.000630454
0.000537264
0.000271547
0.000410122
0.000914618
0.000738514
0.000357177
0.00214246
0.00218164
0.000299987
0.00222983
0.00204997
0.000297923
0.000335503
0.000377713
0.00217276
0.00219137
0.000496261
0.000444494
0.000483062
0.000423032
0.000441737
0.00223438
0.0021542
0.000607536
0.000262467
0.000531204
0.000314682
0.000328403
0.000363742
0.000426078
0.00234291
0.0021161
0.000313852
0.000483121
0.000434792
0.000195288
0.000307296
0.000551434
0.000372953
0.000438003
0.000605604
0.00234524
0.00215243
0.000723061
0.000597823
0.000564877
0.000414444
0.000431627
0.000410057
0.000371788
0.000292587
0.000532391
0.00089402
0.000704221
0.00235686
0.00239006
0.000580227
0.000732891
0.000583454
0.000388806
0.000672727
0.000446947
0.0004111
0.000594549
0.00052971
0.000444997
0.000456223