/*--------------------------------*- C++ -*----------------------------------*\
  =========                 |
  \\      /  F ield         | OpenFOAM: The Open Source CFD Toolbox
   \\    /   O peration     | Website:  https://openfoam.org
    \\  /    A nd           | Version:  7
     \\/     M anipulation  |
\*---------------------------------------------------------------------------*/
FoamFile
{
    version     2.0;
    format      ascii;
    class       volScalarField;
    location    "5.5";
    object      p;
}
// * * * * * * * * * * * * * * * * * * * * * * * * * * * * * * * * * * * * * //

dimensions      [0 2 -2 0 0 0 0];

internalField   nonuniform List<scalar> 
150000
(
-73.5522
-74.1551
-73.6879
-74.2844
-73.4517
-69.2579
-74.3597
-73.7925
-73.9907
-73.8476
-74.5188
-74.7936
-74.0635
-73.4258
-66.7167
-70.1141
-64.394
-68.3849
-74.5784
-73.9729
-75.327
-73.644
-73.8742
-74.0163
-74.739
-74.8544
-76.3274
-74.8395
-73.8951
-73.4876
-63.2739
-66.8849
-70.3352
-66.5016
-70.7968
-68.2192
-73.2643
-63.302
-67.6627
-74.7617
-74.2148
-75.4616
-76.5945
-75.2494
-73.7342
-73.8374
-74.1847
-74.9185
-75.0203
-76.3369
-77.3495
-76.3323
-74.9715
-73.8361
-73.6054
-63.5378
-63.0978
-70.0372
-63.3705
-67.7592
-71.1353
-74.0996
-70.0475
-66.3162
-71.5722
-71.0021
-74.055
-74.6814
-72.7421
-53.5594
-67.3853
-74.9693
-74.4902
-75.6811
-76.6626
-76.9306
-76.5344
-75.2376
-74.1183
-73.9746
-74.354
-75.0614
-75.2269
-76.3725
-77.3914
-77.6119
-77.3119
-76.3457
-75.1487
-73.8746
-73.8067
-60.3239
-63.5048
-64.2536
-62.8914
-63.4393
-70.8196
-69.8525
-69.4809
-63.715
-69.0564
-72.161
-75.4027
-75.9926
-72.9718
-69.8369
-66.6058
-72.7126
-72.6075
-74.7208
-74.9806
-75.4773
-74.3946
-72.6717
-61.2434
-67.3053
-75.1566
-74.7081
-75.9241
-76.7537
-77.0426
-76.7131
-76.8811
-76.5043
-75.3262
-74.4896
-74.2358
-74.5459
-75.179
-75.5298
-76.4501
-77.4268
-77.6302
-77.6206
-77.5901
-77.279
-76.3667
-75.3445
-73.9782
-74.0926
-57.0323
-60.7864
-59.1922
-59.8951
-63.8696
-64.8514
-64.8201
-63.9288
-62.526
-64.2691
-71.6825
-70.9466
-72.5805
-70.2551
-68.8652
-64.046
-70.7755
-73.341
-76.5149
-76.2786
-75.4362
-75.6908
-72.2521
-70.088
-67.0571
-74.1225
-73.9453
-75.2272
-75.1817
-75.6225
-75.863
-75.325
-74.1348
-72.8157
-61.5354
-67.4343
-75.2793
-74.8516
-76.1478
-76.8772
-77.1176
-76.7
-76.9399
-76.7277
-76.834
-76.4831
-75.4943
-74.868
-74.5642
-74.7574
-75.2866
-75.8736
-76.5778
-77.4727
-77.6568
-77.6327
-77.2559
-77.6096
-77.5585
-77.2502
-76.4003
-75.5426
-74.2093
-74.4445
-55.35
-57.1241
-57.1345
-56.7482
-60.9105
-59.2459
-62.2156
-59.2063
-59.3003
-63.9824
-65.3625
-63.8403
-65.6655
-65.9461
-63.7485
-62.9102
-64.3043
-71.2665
-72.3663
-72.9469
-72.3385
-72.3331
-69.6841
-68.4627
-64.2698
-72.9012
-75.3371
-77.7269
-76.6211
-75.7199
-75.965
-75.3053
-75.3039
-72.0038
-71.1912
-67.8385
-75.7309
-75.2947
-75.6859
-75.2984
-75.7921
-75.9373
-75.6538
-75.8388
-75.215
-73.8996
-73.0599
-64.5109
-67.7251
-75.3858
-74.9914
-76.4104
-77.027
-77.143
-76.7255
-76.9557
-76.6225
-76.9846
-76.7324
-76.7715
-76.4487
-75.7328
-75.4394
-74.96
-74.857
-75.3895
-76.2084
-76.7487
-77.5091
-77.6703
-77.6442
-77.2751
-76.845
-77.2369
-77.6008
-77.5346
-77.226
-76.4708
-75.7625
-74.6173
-74.8468
-53.857
-55.3661
-55.2545
-55.2674
-57.2851
-57.1128
-57.218
-56.3097
-56.6354
-60.818
-59.4987
-61.4119
-60.7342
-60.7576
-59.6391
-58.8584
-64.566
-66.2022
-64.3521
-66.5835
-66.2602
-65.6441
-64.9311
-63.6033
-62.8724
-64.8366
-71.1199
-73.481
-73.4857
-73.2475
-72.387
-72.1978
-71.3865
-69.6103
-68.5241
-64.2009
-75.954
-77.3994
-79.1349
-76.9416
-76.004
-76.2801
-76.1601
-75.6426
-75.2033
-74.9627
-72.5397
-73.0102
-68.2202
-77.3995
-76.7024
-76.06
-75.4298
-75.9127
-76.1028
-75.663
-74.7135
-75.5989
-75.7999
-75.1366
-73.7335
-73.3882
-66.1314
-67.9461
-75.5204
-75.1631
-76.6893
-77.2191
-77.2106
-76.7269
-76.9578
-76.6764
-76.318
-76.5655
-77.0275
-76.7662
-76.7166
-76.4218
-76.0471
-76.1084
-75.2545
-74.8385
-75.4924
-76.5113
-76.9531
-77.5538
-77.6767
-77.6681
-77.2972
-76.8906
-76.354
-76.811
-77.2256
-77.5977
-77.5132
-77.2072
-76.577
-75.9923
-75.1892
-75.2751
-52.8109
-53.8202
-53.7156
-53.845
-55.3798
-55.0583
-55.3505
-55.134
-55.0232
-57.3478
-57.1358
-57.161
-57.0586
-56.3841
-56.663
-56.5468
-60.7133
-60.139
-60.8695
-61.1573
-60.7725
-60.4656
-60.3605
-59.7399
-58.4706
-65.4531
-65.9936
-66.1087
-66.2316
-66.6163
-66.55
-66.1244
-65.2233
-64.3406
-63.0785
-62.8018
-66.0078
-72.3366
-73.7643
-74.051
-73.127
-72.8416
-71.8678
-72.1734
-71.9172
-70.9326
-69.8966
-69.0203
-64.0829
-79.4125
-79.2437
-80.574
-77.3669
-76.3869
-76.6106
-76.1464
-74.6207
-75.7534
-75.438
-75.1986
-74.8021
-73.1106
-74.407
-67.3821
-79.0746
-78.0627
-76.2916
-75.6183
-75.995
-76.2045
-75.4629
-74.6971
-74.3613
-74.6988
-75.6681
-75.8796
-75.0444
-73.5275
-73.6318
-67.039
-67.99
-75.6596
-75.3193
-76.8821
-77.395
-77.1584
-76.7414
-76.9662
-76.7167
-76.4225
-76.0614
-76.2435
-76.5188
-77.0254
-76.7493
-76.6672
-76.384
-76.323
-76.7789
-75.4871
-74.8589
-75.6144
-76.7785
-77.169
-77.5993
-77.6952
-77.7004
-77.3237
-76.9472
-76.3658
-75.978
-76.337
-76.8024
-77.2174
-77.5967
-77.4854
-77.1967
-76.6691
-76.1642
-75.8574
-75.7065
-52.0633
-52.9611
-52.9214
-52.7269
-53.7642
-53.735
-53.8276
-53.7299
-53.6475
-55.2724
-55.0774
-55.5002
-55.3651
-55.2423
-55.0087
-54.9369
-57.352
-57.6142
-57.035
-56.7437
-57.579
-57.0687
-57.1228
-56.8164
-56.4745
-60.6462
-60.3049
-60.9469
-61.0946
-60.4176
-61.3432
-61.128
-61.0011
-60.0342
-59.2546
-58.1416
-65.3668
-66.098
-66.3055
-66.4375
-66.7845
-66.986
-66.4538
-66.6507
-66.2716
-65.2185
-64.4286
-62.5124
-62.7682
-66.6828
-73.824
-74.8865
-74.8761
-73.82
-72.5727
-72.3991
-71.6212
-71.2966
-71.6869
-71.5224
-71.0122
-69.6964
-69.3952
-64.2205
-83.9599
-81.104
-81.7207
-77.7927
-76.5377
-76.9755
-76.0704
-74.7288
-73.3425
-74.4349
-75.3824
-75.4514
-75.2065
-74.5863
-72.4293
-75.3264
-66.6251
-80.6337
-79.0138
-76.3846
-75.8214
-76.0148
-76.1838
-75.3321
-74.6653
-74.3853
-74.487
-74.342
-74.7597
-75.8735
-75.89
-75.0653
-73.3831
-73.8366
-67.8591
-67.9055
-75.7043
-75.3953
-76.9774
-77.5275
-77.2309
-76.7829
-76.9832
-76.7598
-76.5682
-76.0968
-75.757
-76.0324
-76.1953
-76.4809
-77.0628
-76.7178
-76.6249
-76.3137
-76.5986
-77.4952
-75.6418
-74.889
-75.6975
-76.995
-77.3735
-77.6413
-77.71
-77.7142
-77.3416
-77.0049
-76.3806
-75.9891
-75.6884
-75.9667
-76.3148
-76.785
-77.2117
-77.5948
-77.4568
-77.196
-76.7541
-76.2954
-76.5474
-76.1405
-51.3535
-52.0496
-52.0943
-52.0495
-52.9426
-52.9109
-52.9393
-52.8379
-52.6429
-53.9152
-53.7709
-53.9926
-53.8864
-53.6318
-53.64
-53.5286
-55.1792
-55.1191
-55.5652
-55.2359
-55.4403
-55.2995
-55.3201
-55.0072
-54.91
-57.3834
-57.528
-57.0744
-57.7799
-57.3846
-57.801
-57.6096
-57.1602
-57.1935
-56.883
-56.504
-60.4092
-60.2917
-62.0828
-60.87
-62.0413
-60.9223
-61.6874
-61.2164
-61.1094
-60.5134
-59.9468
-58.6149
-57.9419
-65.261
-66.4466
-65.205
-66.8598
-66.2735
-67.0991
-66.454
-66.2914
-66.5185
-66.3954
-65.7937
-65.0451
-64.1338
-62.2108
-62.4511
-69.1447
-75.2746
-77.5242
-75.6144
-74.7349
-72.9479
-72.5638
-71.609
-70.638
-71.5374
-70.9455
-71.3849
-71.3326
-71.1074
-68.934
-68.9452
-64.2537
-87.0654
-83.5466
-82.2731
-78.298
-76.783
-76.9022
-76.1251
-74.4421
-73.3257
-73.2553
-73.4286
-74.3735
-75.1608
-75.2851
-74.8573
-74.1291
-72.0193
-75.5317
-66.0805
-81.2285
-79.1033
-76.4231
-75.8969
-75.9872
-75.9789
-75.1861
-74.6716
-74.3974
-74.5328
-74.7684
-74.4582
-74.3672
-74.7748
-76.0642
-75.8209
-75.0544
-73.3943
-73.9847
-68.1519
-67.9393
-75.6816
-75.4223
-77.0597
-77.6021
-77.335
-76.8003
-77.0289
-76.813
-76.7199
-76.1423
-75.7894
-75.5071
-75.7256
-76.0014
-76.1614
-76.4317
-77.0757
-76.728
-76.5769
-76.2935
-76.9149
-78.1468
-75.7512
-74.8039
-75.7044
-77.1561
-77.5759
-77.6805
-77.7248
-77.719
-77.355
-77.0569
-76.3958
-75.9987
-75.6982
-75.4339
-75.6796
-75.9554
-76.2977
-76.7739
-77.2071
-77.5891
-77.4319
-77.2048
-76.841
-76.4188
-77.2011
-76.5824
-50.9809
-51.4498
-51.3511
-51.2738
-52.0781
-52.0052
-52.1288
-51.984
-52.0526
-52.9884
-52.8854
-52.9378
-52.9263
-52.8493
-52.8788
-52.6491
-53.9536
-53.9139
-53.9116
-53.8444
-53.9096
-53.7363
-53.6784
-53.6639
-53.4989
-55.264
-55.1624
-55.3123
-55.3247
-55.4409
-55.5919
-55.3574
-55.2944
-55.1947
-55.0444
-54.8586
-57.3028
-57.389
-57.2592
-57.8166
-57.6666
-57.7168
-58.1067
-57.4475
-57.0358
-57.0459
-56.9123
-56.7848
-56.447
-60.027
-60.4186
-61.823
-61.0797
-61.9412
-61.8829
-61.4382
-61.8105
-61.2324
-61.1521
-60.7697
-59.7073
-59.6879
-58.4573
-57.8136
-62.1482
-66.4142
-64.9666
-67.1372
-66.7367
-66.6163
-66.7253
-66.1008
-66.3026
-66.2271
-66.6497
-66.1173
-65.6364
-64.4128
-63.9061
-61.9456
-61.7768
-72.6129
-76.8248
-78.6449
-75.9376
-75.3173
-73.2866
-72.5177
-71.4879
-70.5999
-70.0333
-70.7099
-71.3343
-71.0425
-71.0507
-71.3831
-70.7595
-68.6556
-68.1073
-64.3164
-89.1363
-84.3338
-82.7279
-78.6841
-77.1244
-76.6896
-76.0564
-74.3018
-73.3305
-73.3213
-73.6586
-73.217
-73.5764
-74.3219
-74.9569
-75.1047
-74.4117
-73.2935
-71.7936
-74.4813
-66.1132
-81.23
-78.9383
-76.4569
-75.9549
-75.9627
-75.8265
-75.0237
-74.6583
-74.4639
-74.6031
-74.8252
-74.7976
-74.6807
-74.4478
-74.3532
-74.8913
-76.1546
-75.8293
-75.0285
-73.3238
-73.9331
-67.976
-67.8454
-75.6199
-75.4127
-77.13
-77.6242
-77.3256
-76.812
-77.0886
-76.8635
-76.8464
-76.204
-75.8228
-75.5369
-75.3645
-75.4931
-75.7038
-75.9531
-76.1274
-76.408
-77.0775
-76.6928
-76.5476
-76.3876
-77.2525
-78.7932
-75.9838
-74.7061
-75.8411
-77.2634
-77.7444
-77.7291
-77.746
-77.7246
-77.3635
-77.1021
-76.4123
-76.0092
-75.7126
-75.4613
-74.9956
-75.404
-75.6715
-75.9457
-76.2764
-76.7651
-77.2058
-77.5822
-77.4069
-77.221
-76.9237
-76.5136
-77.8044
-77.0196
-50.6221
-50.9811
-50.9279
-50.9309
-51.4862
-51.4102
-51.3592
-51.377
-51.2381
-52.0917
-51.9766
-51.9659
-52.0875
-52.148
-51.9826
-51.9051
-52.9682
-53.0066
-52.785
-52.9214
-52.8882
-52.8475
-52.7443
-52.8146
-52.6568
-53.8748
-53.9374
-53.8559
-53.8464
-53.93
-54.0869
-53.8922
-53.8284
-53.677
-53.6312
-53.4994
-55.2719
-55.3728
-55.3022
-55.3979
-55.5177
-55.5249
-55.876
-55.5658
-55.2381
-55.2551
-55.0291
-55.082
-54.7802
-57.2042
-57.4926
-57.2675
-57.5202
-57.5121
-57.8014
-58.0281
-58.1876
-58.0953
-57.4661
-57.2633
-57.0693
-57.0342
-56.599
-56.3503
-59.8129
-60.0481
-61.2405
-60.6434
-61.3241
-61.5933
-61.6853
-61.7494
-61.8002
-61.5412
-61.4193
-61.0886
-60.4264
-59.7111
-59.2343
-58.394
-57.5749
-62.5587
-64.6313
-66.0109
-66.8956
-66.8771
-66.4721
-66.5732
-66.3127
-66.1866
-65.8429
-66.3929
-66.2943
-66.4701
-66.136
-65.1374
-64.0323
-64.205
-61.5885
-60.9374
-74.106
-78.6655
-77.7455
-75.9288
-75.539
-73.6443
-72.5758
-71.4382
-70.6812
-70.2203
-70.2129
-70.0435
-70.7324
-70.8067
-70.81
-70.9345
-70.8006
-70.2509
-68.2596
-67.5167
-64.4619
-89.5492
-84.8004
-82.789
-78.4227
-77.0731
-76.5563
-75.9219
-74.3428
-73.4112
-73.4365
-73.764
-73.9298
-73.5663
-73.2377
-73.674
-73.9745
-74.8416
-74.9019
-74.152
-72.8452
-71.441
-73.4944
-66.1037
-80.7429
-78.5813
-76.47
-76.0011
-75.9438
-75.704
-74.9224
-74.6203
-74.5292
-74.6562
-74.8358
-74.7068
-74.857
-74.7793
-74.6274
-74.4547
-74.3799
-75.1125
-76.2496
-75.7817
-75.0079
-73.3435
-73.8396
-67.7577
-67.6692
-75.4787
-75.3802
-77.1827
-77.6071
-77.2303
-76.8497
-77.1122
-76.9055
-76.9478
-76.2776
-75.8545
-75.5705
-75.3801
-74.9229
-75.3542
-75.4538
-75.6798
-75.8964
-76.0842
-76.4144
-77.0828
-76.6313
-76.5316
-76.5515
-77.6249
-79.4136
-76.5248
-74.7376
-76.1047
-77.3232
-77.8647
-77.7797
-77.7545
-77.7258
-77.356
-77.1415
-76.4292
-76.0187
-75.73
-75.4852
-75.0173
-73.6867
-74.9742
-75.3908
-75.6639
-75.9325
-76.2539
-76.7534
-77.2084
-77.5758
-77.3908
-77.2434
-77.0112
-76.64
-78.3082
-77.3934
-50.3512
-50.6014
-50.6781
-50.5999
-50.9971
-50.9161
-50.8895
-50.9252
-50.8911
-51.5146
-51.4989
-51.325
-51.4189
-51.3706
-51.1807
-51.1977
-52.1389
-52.0605
-51.9019
-52.0312
-52.1349
-52.0776
-51.9775
-51.9773
-51.9582
-52.9795
-52.9266
-52.9459
-52.9544
-52.9993
-52.9999
-52.8975
-52.7415
-52.7093
-52.7424
-52.5602
-53.8611
-53.8376
-53.8733
-53.773
-54.0311
-53.9762
-54.2459
-54.0272
-53.7837
-53.8656
-53.5736
-53.6716
-53.5519
-55.2265
-55.4551
-55.3446
-55.3725
-55.5573
-55.6495
-55.8443
-56.1047
-55.8793
-55.4482
-55.1654
-55.2503
-55.1781
-54.8972
-54.6015
-57.1441
-57.5881
-57.4214
-57.5835
-57.4971
-57.8225
-57.8892
-58.1381
-58.2459
-57.9893
-57.8197
-57.6689
-57.2812
-57
-57.005
-56.3396
-56.2699
-59.9469
-60.8743
-60.9214
-60.9974
-61.1888
-61.6114
-61.7933
-61.7238
-61.8811
-61.9065
-61.7399
-61.3104
-61.3343
-60.8899
-59.7138
-59.7351
-58.9382
-58.6818
-57.2322
-62.4291
-64.3839
-66.314
-66.6343
-66.7124
-66.4163
-66.2653
-66.4797
-66.2504
-66.1405
-66.0866
-65.9831
-66.4179
-66.3081
-66.3892
-65.9568
-64.4892
-63.7058
-64.3577
-61.1808
-60.4994
-73.5702
-78.3451
-77.8673
-75.3832
-75.5239
-73.3843
-72.6793
-71.5215
-70.9441
-70.5636
-70.3275
-70.3224
-70.1396
-70.0899
-70.7572
-70.2305
-71.0067
-70.7255
-70.5708
-69.9152
-67.6456
-66.63
-64.3546
-87.5328
-84.7382
-82.1601
-78.3288
-76.7993
-76.3851
-76.0228
-74.3211
-73.4399
-73.5847
-73.7148
-73.8591
-74.4994
-73.9217
-73.616
-73.2435
-73.7291
-73.8205
-75.152
-74.8048
-73.5616
-72.7531
-70.9951
-73.0597
-65.9682
-79.8567
-78.1457
-76.4384
-76.0472
-75.8929
-75.5084
-74.7782
-74.5973
-74.6008
-74.69
-74.8613
-74.7547
-74.7196
-74.2891
-74.895
-74.6996
-74.5892
-74.4213
-74.4362
-75.31
-76.3595
-75.8095
-74.961
-73.4253
-73.8962
-67.8937
-68.6444
-75.3002
-75.3348
-77.1949
-77.5943
-77.2085
-76.8675
-77.1314
-76.9533
-77.0263
-76.3668
-75.8839
-75.5867
-75.4128
-75.0091
-73.7897
-74.8689
-75.2843
-75.4204
-75.6478
-75.8225
-76.0446
-76.4179
-77.0819
-76.6128
-76.5095
-76.7429
-78.0219
-79.7884
-77.286
-74.8817
-76.1415
-77.3479
-77.9109
-77.843
-77.7516
-77.7238
-77.373
-77.1694
-76.4452
-76.0242
-75.7442
-75.5098
-75.035
-73.7021
-72.5017
-73.6712
-74.9353
-75.3894
-75.6541
-75.9156
-76.2351
-76.7422
-77.2178
-77.5706
-77.3883
-77.2729
-77.1212
-76.8346
-78.6353
-77.7149
-50.0942
-50.3649
-50.402
-50.3613
-50.6388
-50.7477
-50.6464
-50.6919
-50.5872
-51.0012
-50.929
-50.91
-50.9818
-50.9244
-50.8926
-50.85
-51.5009
-51.4789
-51.3543
-51.4653
-51.546
-51.4143
-51.2896
-51.2114
-51.2132
-52.1561
-52.122
-52.069
-51.9748
-52.2347
-52.1295
-52.0922
-51.9302
-51.885
-51.9498
-51.9223
-52.957
-52.9666
-52.8601
-52.8671
-53.0481
-53.0108
-53.1143
-53.0054
-52.8388
-52.7503
-52.58
-52.622
-52.4765
-53.8986
-53.9541
-53.8456
-53.9034
-54.137
-54.0954
-54.1773
-54.3766
-54.2189
-53.9398
-53.8458
-53.6764
-53.5413
-53.6396
-53.4846
-55.1566
-55.4459
-55.5479
-55.5573
-55.6476
-55.9003
-55.9303
-56.1297
-56.4277
-56.0989
-55.7342
-55.4331
-55.3549
-54.9919
-55.1488
-54.7602
-54.5238
-56.8968
-57.591
-57.6645
-57.7084
-57.7119
-57.8078
-57.9883
-58.1424
-58.391
-58.5974
-58.368
-58.2426
-58.0304
-57.6193
-57.1993
-56.7412
-56.7929
-56.4195
-56.0452
-59.5546
-60.7324
-60.9822
-60.8129
-61.4626
-61.5855
-61.7993
-61.8925
-61.9625
-62.0536
-62.0895
-61.9875
-61.6832
-61.4989
-61.3215
-60.4448
-59.8455
-59.7143
-59.2613
-58.5155
-57.1933
-61.6172
-64.101
-65.3138
-67.135
-66.576
-66.6422
-66.1918
-66.3238
-66.3639
-66.3408
-66.1824
-65.9392
-66.0244
-66.0851
-66.3145
-66.4138
-66.7741
-65.369
-64.6554
-63.871
-63.271
-60.84
-60.1343
-71.44
-78.7869
-77.3634
-75.8336
-74.7546
-73.2223
-72.7713
-71.7451
-71.2081
-70.6539
-70.3363
-70.3797
-70.2748
-70.1783
-70.101
-70.0002
-70.6331
-70.4093
-71.2056
-70.5755
-70.0664
-69.9361
-67.5247
-65.7352
-64.3173
-83.823
-83.9333
-80.9291
-78.3894
-76.4812
-76.1051
-75.9932
-74.3137
-73.4589
-73.6274
-73.6897
-73.8833
-74.4418
-73.7371
-74.4945
-73.9232
-73.5828
-73.2453
-73.7146
-73.8454
-75.1955
-74.6777
-73.0226
-72.1869
-70.3502
-72.0761
-65.7462
-78.8203
-77.6166
-76.3852
-76.1
-75.8323
-75.3403
-74.6606
-74.5873
-74.7053
-74.7845
-74.9074
-74.8045
-74.6694
-74.2045
-73.7323
-74.3806
-74.8993
-74.6866
-74.5476
-74.3781
-74.4958
-75.4705
-76.4333
-75.8039
-74.9728
-73.4015
-73.9573
-68.3805
-70.0632
-75.0813
-75.285
-77.1725
-77.5865
-77.1739
-76.8387
-77.1338
-77.0232
-77.0796
-76.4692
-75.8938
-75.6126
-75.4514
-75.0582
-73.7534
-72.7129
-73.7844
-74.8385
-75.2469
-75.3857
-75.6151
-75.7473
-76.0034
-76.4232
-77.0746
-76.6613
-76.5109
-76.964
-78.518
-80.0167
-78.0207
-74.9937
-76.1251
-77.3477
-77.8976
-77.8877
-77.7533
-77.7193
-77.3984
-77.174
-76.4703
-76.0278
-75.7571
-75.5342
-75.0498
-73.7189
-72.4849
-71.3963
-72.5272
-73.6538
-74.8798
-75.3803
-75.6418
-75.8984
-76.2189
-76.7306
-77.2333
-77.569
-77.4003
-77.308
-77.2421
-77.0928
-78.832
-77.9205
-49.9177
-50.0817
-50.1
-50.0696
-50.3561
-50.4569
-50.3898
-50.3179
-50.3102
-50.6325
-50.6794
-50.6658
-50.6879
-50.6507
-50.7223
-50.5799
-50.9238
-50.9523
-50.9088
-51.0217
-51.0732
-50.9938
-50.9119
-50.8078
-50.7976
-51.475
-51.5391
-51.4118
-51.4321
-51.5486
-51.6562
-51.4761
-51.2859
-51.1988
-51.196
-51.2535
-52.1278
-52.2417
-52.0401
-51.9542
-52.1988
-52.2471
-52.2018
-52.1929
-52.1277
-51.9686
-51.8089
-51.8953
-51.8213
-52.9468
-52.9692
-52.8971
-52.9448
-53.0421
-53.0539
-53.137
-53.3192
-53.093
-52.8549
-52.8707
-52.6734
-52.5613
-52.5393
-52.5128
-53.7834
-53.9697
-53.9035
-53.9879
-54.0509
-54.222
-54.3024
-54.4265
-54.7212
-54.5162
-54.2303
-53.9744
-53.8615
-53.6685
-53.6532
-53.4594
-53.3687
-55.0846
-55.3411
-55.4816
-55.5459
-55.698
-55.8669
-55.9917
-56.2632
-56.444
-56.5698
-56.295
-55.9588
-55.7035
-55.4634
-55.238
-55.0592
-55.0083
-54.5254
-54.4064
-56.5211
-57.392
-57.7157
-57.7143
-57.7476
-57.8753
-58.0223
-58.0217
-58.3957
-58.5285
-58.7288
-58.6399
-58.3489
-58.241
-58.143
-57.4
-57.1789
-56.7833
-56.6833
-56.4066
-55.9666
-59.2773
-60.5033
-60.7169
-61.0601
-61.4469
-61.6672
-61.9303
-61.8749
-61.8612
-62.2526
-62.1641
-62.303
-62.0207
-61.8897
-61.5357
-61.6582
-60.9832
-60.6537
-60.0207
-59.5362
-58.1882
-58.7847
-57.2912
-61.5328
-64.2055
-64.8178
-66.7617
-66.5552
-66.4006
-66.1171
-66.399
-66.3805
-66.2722
-66.2416
-65.962
-65.8165
-65.8704
-65.8968
-66.1299
-66.2828
-66.548
-66.1371
-65.8412
-64.3026
-63.2077
-62.5076
-60.5443
-59.944
-69.9471
-78.4958
-75.9753
-75.5447
-74.3025
-73.2456
-72.802
-71.9072
-71.1202
-70.6899
-70.5625
-70.5055
-70.1671
-69.7923
-70.3595
-70.085
-70.0347
-70.0772
-70.8103
-70.7195
-71.413
-70.7019
-69.9934
-69.4079
-67.3131
-65.3533
-64.4691
-80.7325
-82.6308
-79.8589
-77.791
-76.1588
-75.6986
-75.8487
-74.3853
-73.4713
-73.7665
-73.7301
-73.9737
-74.4515
-73.4857
-73.0359
-73.9935
-74.5262
-73.9361
-73.5405
-73.2697
-73.7715
-74.0094
-75.5095
-74.3808
-72.8089
-71.6264
-69.7208
-70.4759
-65.5762
-77.725
-76.9519
-76.3634
-76.0894
-75.7212
-75.1775
-74.6037
-74.5905
-74.8081
-74.8902
-74.9169
-74.7831
-74.6599
-74.121
-73.685
-73.1845
-73.7882
-74.5222
-74.8395
-74.6435
-74.474
-74.358
-74.5302
-75.6158
-76.4711
-75.7184
-74.9474
-73.4174
-74.1366
-69.2833
-71.7912
-74.7804
-75.2495
-77.1483
-77.5705
-77.1631
-76.8436
-77.1378
-77.1038
-77.1065
-76.5602
-75.8935
-75.6427
-75.4607
-75.0511
-73.689
-72.6577
-72.3008
-72.7489
-73.7927
-74.7742
-75.1862
-75.3452
-75.5696
-75.6803
-75.984
-76.4238
-77.0327
-76.6306
-76.5838
-77.2602
-79.094
-80.4327
-79.0153
-75.0517
-76.1239
-77.3238
-77.8608
-77.9096
-77.7571
-77.7158
-77.4076
-77.155
-76.5004
-76.0319
-75.7679
-75.5583
-75.0616
-73.7351
-72.4899
-71.3467
-70.6108
-71.4465
-72.5382
-73.633
-74.8288
-75.3609
-75.6262
-75.8819
-76.2015
-76.7235
-77.2503
-77.5741
-77.4194
-77.3503
-77.3396
-77.3761
-78.9534
-78.0086
-49.7451
-49.8439
-49.957
-49.8538
-50.0266
-50.0797
-50.092
-50.0526
-50.0505
-50.3925
-50.3711
-50.4176
-50.3722
-50.3571
-50.2888
-50.2705
-50.6282
-50.6097
-50.635
-50.7086
-50.7426
-50.6442
-50.6624
-50.6504
-50.5139
-50.9369
-50.9403
-50.925
-50.9413
-51.0804
-51.1583
-51.0684
-50.9114
-50.8494
-50.8284
-50.8362
-51.4982
-51.5
-51.5027
-51.4231
-51.5662
-51.7163
-51.6914
-51.6037
-51.4259
-51.3045
-51.0033
-51.1861
-51.2631
-52.1589
-52.1869
-52.0215
-52.0158
-52.1419
-52.2168
-52.3138
-52.4388
-52.2642
-52.1948
-52.0151
-51.942
-51.9173
-51.7822
-51.6976
-52.926
-52.8521
-52.8875
-52.8237
-53.0518
-53.1764
-53.1859
-53.4053
-53.5601
-53.3002
-53.0086
-52.9295
-52.836
-52.6569
-52.6355
-52.5019
-52.5439
-53.767
-53.8862
-53.8459
-53.984
-54.1116
-54.2541
-54.3926
-54.4347
-54.7432
-54.8375
-54.6408
-54.2854
-54.1935
-53.9652
-53.825
-53.6067
-53.5925
-53.5155
-53.2398
-55.0406
-55.2898
-55.3513
-55.5538
-55.5597
-55.8368
-56.051
-56.2165
-56.4762
-56.6089
-56.663
-56.4795
-56.0536
-55.8841
-55.6489
-55.4039
-55.2408
-54.9507
-54.9169
-54.6212
-54.3008
-56.2159
-57.4182
-57.568
-57.6246
-57.8181
-57.9224
-58.1173
-58.0874
-58.3001
-58.6423
-58.8154
-58.8247
-58.792
-58.577
-58.3789
-58.3369
-57.99
-57.8145
-57.0384
-56.8279
-57.1894
-56.2043
-55.8585
-59.2524
-60.4905
-60.6694
-61.0844
-61.3178
-61.7713
-61.8406
-61.8895
-61.7216
-62.2303
-62.4274
-62.3459
-62.1604
-62.4069
-61.8724
-61.895
-61.6448
-61.3231
-60.9332
-60.8227
-60.0782
-58.8775
-57.7989
-58.4263
-57.1711
-63.1134
-63.7288
-64.7924
-65.8381
-66.4058
-66.1586
-66.1708
-66.471
-66.47
-66.3884
-66.2617
-65.8721
-65.6241
-65.606
-65.7773
-65.8906
-65.8451
-66.1747
-66.2817
-66.5297
-65.9796
-65.7514
-63.9587
-62.7558
-62.0513
-60.8163
-60.2074
-69.9447
-77.3062
-74.3864
-74.3951
-73.9796
-72.8339
-72.7633
-71.9755
-71.4012
-70.7611
-70.6335
-70.8319
-70.9517
-69.6152
-69.4267
-70.2037
-70.3594
-70.1783
-69.9822
-70.0025
-70.5643
-70.8546
-71.6
-70.2413
-69.4397
-68.6308
-66.8373
-65.2393
-64.4859
-77.9423
-80.8944
-79.1413
-77.114
-75.7943
-75.2233
-75.6546
-74.2619
-73.5297
-73.9598
-73.7223
-73.7526
-73.7033
-73.4575
-72.9485
-72.2881
-73.313
-74.2601
-74.4017
-73.8915
-73.5458
-73.3334
-73.8236
-74.2009
-75.5937
-73.9699
-72.6692
-70.7549
-69.2305
-69.0175
-65.7209
-76.6239
-76.215
-76.35
-76.0594
-75.5922
-75.0125
-74.5653
-74.5999
-74.8576
-74.9199
-74.878
-74.7655
-74.6032
-73.9829
-73.5588
-73.0357
-72.5736
-73.3216
-74.0237
-74.5168
-74.7219
-74.6064
-74.3988
-74.3159
-74.5593
-75.7189
-76.4533
-75.5884
-74.9224
-73.5729
-74.332
-70.743
-73.9308
-74.4562
-75.2046
-77.0967
-77.5385
-77.1574
-76.8763
-77.1431
-77.1689
-77.1439
-76.6452
-75.8925
-75.6482
-75.4608
-74.9947
-73.6568
-72.579
-72.1954
-71.7154
-72.3987
-72.7574
-73.7996
-74.6864
-75.1286
-75.3022
-75.5106
-75.6218
-75.9582
-76.4324
-76.9804
-76.5483
-76.6508
-77.6597
-79.6614
-81.0913
-80.1907
-75.0868
-76.0553
-77.2806
-77.8174
-77.9108
-77.7508
-77.7189
-77.4077
-77.1326
-76.5279
-76.0385
-75.7798
-75.5808
-75.0724
-73.7507
-72.4948
-71.3066
-70.5502
-70.0946
-70.6838
-71.4916
-72.5427
-73.6112
-74.7834
-75.3383
-75.6099
-75.8621
-76.1844
-76.7235
-77.2653
-77.5883
-77.4538
-77.4082
-77.426
-77.6187
-79.0068
-78.0949
-49.5163
-49.7365
-49.7714
-49.725
-49.8688
-49.9471
-49.8907
-49.9002
-49.8745
-50.0978
-50.0216
-50.0082
-50.0864
-50.0644
-50.0096
-50.0221
-50.3608
-50.3595
-50.3578
-50.3716
-50.4309
-50.3057
-50.3498
-50.2589
-50.2583
-50.6222
-50.6315
-50.6671
-50.6698
-50.7831
-50.7567
-50.714
-50.6318
-50.5333
-50.5612
-50.4501
-50.982
-50.9166
-50.9393
-51.0016
-51.0765
-51.1538
-51.2238
-51.152
-50.9794
-50.903
-50.7811
-50.8726
-50.7932
-51.4727
-51.406
-51.4701
-51.5046
-51.5689
-51.6064
-51.7978
-51.8929
-51.6614
-51.5955
-51.4114
-51.2518
-51.3109
-51.1599
-51.1902
-52.1088
-52.0988
-51.9532
-51.9848
-52.0856
-52.3168
-52.358
-52.4918
-52.6363
-52.4313
-52.2282
-52.108
-52.0126
-51.9177
-51.7783
-51.7148
-51.7517
-52.8431
-52.8676
-52.8066
-52.8919
-52.8424
-53.1611
-53.3254
-53.4367
-53.5902
-53.681
-53.4876
-53.2186
-53.0473
-52.903
-52.7669
-52.6985
-52.6938
-52.5528
-52.3705
-53.8153
-53.9244
-53.7705
-53.8587
-54.1247
-54.2555
-54.4553
-54.4683
-54.6638
-54.9115
-55.0842
-54.7625
-54.6156
-54.3316
-54.1173
-53.8486
-53.6634
-53.5303
-53.5229
-53.4823
-53.1477
-55.1095
-55.3861
-55.3477
-55.3649
-55.6101
-55.84
-56.1928
-56.2177
-56.4919
-56.6896
-56.7554
-56.8516
-56.6898
-56.4463
-56.0192
-55.8728
-55.6649
-55.2658
-55.1788
-54.9065
-54.7424
-54.3484
-54.1956
-56.1553
-57.2328
-57.3524
-57.6898
-57.7959
-58.0072
-58.196
-58.2795
-58.3018
-58.5373
-58.9098
-59.051
-59.0332
-58.8382
-58.7335
-58.513
-58.2998
-58.315
-57.9639
-57.4184
-57.0758
-56.8581
-56.7409
-56.325
-55.8074
-59.0824
-60.166
-60.3968
-60.8396
-61.0716
-61.5777
-61.8154
-61.8904
-62.2383
-62.1024
-62.3973
-62.4132
-62.1742
-62.3452
-62.2934
-62.3013
-62.008
-61.6508
-61.428
-61.3975
-61.2176
-60.3393
-60.0646
-59.0022
-57.9702
-58.1581
-57.5135
-63.1908
-63.6655
-64.3553
-65.6464
-66.1698
-66.2391
-66.1338
-66.6127
-66.5033
-66.3241
-66.1717
-65.7985
-65.2322
-65.5362
-65.542
-65.8671
-65.8973
-65.8202
-65.85
-66.0884
-66.3261
-66.5321
-66.3918
-65.2193
-64.4365
-62.5633
-61.9103
-60.8629
-60.3033
-68.5775
-75.8742
-72.9884
-73.2882
-73.5684
-72.2681
-72.5396
-71.963
-71.5334
-70.9434
-70.7262
-70.7764
-71.0677
-69.5424
-69.2332
-69.1116
-69.6939
-70.5079
-70.5749
-70.235
-69.8924
-69.9913
-70.312
-70.8566
-71.5785
-70.1417
-69.703
-68.8567
-66.5809
-65.6727
-64.7978
-75.4625
-78.7006
-78.1187
-76.2843
-75.3298
-74.9976
-75.3828
-74.0969
-73.6178
-73.9923
-73.6728
-73.6012
-73.5829
-73.187
-72.7139
-72.0212
-71.5588
-72.4174
-73.5038
-74.4291
-74.4272
-73.9016
-73.441
-73.3715
-73.772
-74.5266
-75.5212
-73.694
-72.2931
-70.4986
-69.1978
-68.8713
-66.0133
-75.5596
-75.5216
-76.2623
-75.9932
-75.4521
-74.8143
-74.5751
-74.6494
-74.8565
-74.8801
-74.8041
-74.7165
-74.4923
-73.8862
-73.4132
-72.8755
-72.3033
-71.6492
-72.7614
-73.4019
-74.0402
-74.4638
-74.6736
-74.5845
-74.3088
-74.2287
-74.6046
-75.7142
-76.319
-75.5076
-74.9489
-74.0325
-74.9975
-72.6827
-76.3134
-74.1743
-75.1585
-77.0074
-77.423
-77.1167
-76.9067
-77.1587
-77.2119
-77.1735
-76.7467
-75.8899
-75.6629
-75.4665
-74.9295
-73.6626
-72.5026
-72.103
-71.5175
-70.6298
-71.8963
-72.4425
-72.7711
-73.8081
-74.6065
-75.0593
-75.2539
-75.4585
-75.5772
-75.9131
-76.4476
-76.908
-76.513
-76.7571
-78.0156
-80.2296
-81.8258
-81.503
-75.12
-76.084
-77.2345
-77.7635
-77.8942
-77.7552
-77.7237
-77.4101
-77.1148
-76.5596
-76.0463
-75.7932
-75.6006
-75.0839
-73.7672
-72.4788
-71.2713
-70.4904
-70.0351
-69.7921
-70.1563
-70.7467
-71.5272
-72.549
-73.5886
-74.7372
-75.3114
-75.5964
-75.8395
-76.1664
-76.7292
-77.2773
-77.6077
-77.4967
-77.4684
-77.5368
-77.8475
-79.0288
-78.1662
-49.427
-49.5359
-49.5944
-49.5226
-49.71
-49.7634
-49.7381
-49.7243
-49.6859
-49.8714
-49.8823
-49.9111
-49.9324
-49.8995
-49.8814
-49.8665
-50.0735
-50.1043
-50.0834
-50.037
-50.1498
-50.0929
-50.0485
-49.9591
-49.993
-50.3328
-50.3918
-50.3709
-50.3558
-50.3915
-50.4264
-50.3629
-50.3483
-50.2833
-50.2489
-50.2076
-50.6095
-50.6231
-50.652
-50.7099
-50.712
-50.7174
-50.8525
-50.7501
-50.6944
-50.5697
-50.6041
-50.4881
-50.4486
-50.8764
-50.8722
-50.8555
-51.0323
-51.0597
-51.1786
-51.2604
-51.3589
-51.2108
-51.076
-50.9726
-50.8823
-50.7134
-50.708
-50.7354
-51.3094
-51.4169
-51.374
-51.4465
-51.4506
-51.6647
-51.7966
-51.8943
-52.0244
-51.8035
-51.6661
-51.5216
-51.3881
-51.3344
-51.3377
-51.1768
-51.1137
-52.0477
-52.1268
-52.0183
-51.9595
-52.0466
-52.3058
-52.41
-52.5223
-52.6126
-52.7556
-52.6493
-52.4083
-52.233
-52.1538
-51.9825
-51.8275
-51.8054
-51.6751
-51.8134
-52.8291
-52.8928
-52.698
-52.6865
-52.9393
-53.1417
-53.2672
-53.467
-53.6353
-53.6899
-53.8501
-53.6518
-53.45
-53.1986
-53.0511
-52.806
-52.746
-52.6066
-52.6088
-52.5904
-52.1671
-53.7511
-53.9452
-53.8877
-53.9418
-53.9851
-54.3307
-54.382
-54.5667
-54.7054
-54.8241
-55.0428
-55.2196
-54.9113
-54.8647
-54.5686
-54.2177
-54.1133
-53.7222
-53.608
-53.5518
-53.5051
-53.2615
-53.0563
-54.8928
-55.2643
-55.4362
-55.4264
-55.5771
-55.8373
-56.0602
-56.2884
-56.3762
-56.6839
-56.7604
-56.9274
-57.043
-56.8032
-56.6548
-56.2096
-56.1022
-55.8559
-55.6038
-55.29
-55.0582
-54.8499
-54.693
-54.3719
-54.1658
-56.03
-56.8789
-57.2195
-57.6819
-57.7923
-57.9498
-58.1295
-58.3603
-58.4851
-58.5057
-58.7735
-58.9863
-59.0102
-59.4249
-59.0497
-59.0292
-58.6986
-58.562
-58.4784
-58.0843
-57.9497
-57.146
-57.0232
-56.8169
-56.5501
-56.172
-55.6499
-58.9012
-59.6355
-60.1865
-60.5493
-61.0036
-61.2449
-61.8966
-61.8256
-62.039
-62.0685
-62.3756
-62.3575
-62.1509
-62.1158
-62.1635
-62.2008
-62.4594
-62.2314
-62.0205
-61.8203
-61.5614
-61.5964
-61.1517
-60.3175
-60.3884
-59.0998
-58.3245
-58.2393
-57.8731
-63.1717
-63.9985
-64.2272
-65.3889
-65.9333
-66.1231
-66.1303
-66.4926
-66.4997
-66.2138
-66.1099
-66.0885
-65.8676
-65.4609
-65.437
-65.1814
-65.5248
-65.7397
-65.9462
-65.6947
-65.7683
-66.0151
-66.2308
-66.7489
-66.0246
-65.2752
-64.3329
-62.7036
-62.0408
-60.6074
-60.3126
-67.86
-73.7653
-71.896
-72.5575
-72.8142
-71.9319
-72.2647
-71.9418
-71.0672
-71.0397
-70.705
-70.3612
-70.2196
-69.4199
-69.1275
-68.8751
-68.5926
-69.3024
-70.1024
-70.7763
-70.8091
-69.8695
-69.7563
-70.1543
-70.1523
-71.127
-71.2807
-69.9507
-69.4093
-68.1275
-66.6865
-66.4509
-64.9731
-73.5245
-76.5076
-76.8084
-75.3842
-74.758
-74.8422
-75.2108
-74.032
-73.467
-73.7568
-73.7179
-73.5261
-73.3518
-72.8155
-72.306
-71.7578
-71.2792
-70.8604
-71.7708
-72.6041
-73.7234
-74.397
-74.4423
-73.8967
-73.3591
-73.3374
-73.8373
-74.7425
-75.3279
-73.2689
-71.8794
-70.213
-69.3329
-69.2154
-66.5026
-74.5377
-75.0032
-76.1016
-75.8486
-75.2716
-74.7534
-74.7099
-74.7042
-74.8446
-74.8227
-74.7498
-74.6818
-74.4276
-73.7892
-73.2628
-72.6591
-72.0698
-71.4186
-70.5043
-71.8868
-72.9059
-73.475
-74.0437
-74.5029
-74.6117
-74.5845
-74.2212
-74.1383
-74.6381
-75.629
-76.0166
-75.4017
-75.0379
-74.634
-76.0836
-75.0215
-78.8582
-73.954
-75.1282
-76.9497
-77.2885
-77.097
-76.8859
-77.1603
-77.2294
-77.1937
-76.8487
-75.8916
-75.673
-75.4628
-74.8848
-73.7462
-72.429
-72.0262
-71.302
-70.4692
-69.683
-70.7779
-72.0659
-72.4759
-72.7951
-73.8209
-74.5268
-74.9943
-75.1811
-75.3995
-75.556
-75.8811
-76.4553
-76.8181
-76.4642
-76.9147
-78.3894
-80.796
-82.6878
-82.8175
-75.1697
-76.1793
-77.1859
-77.7049
-77.8626
-77.7393
-77.7264
-77.4039
-77.0917
-76.5858
-76.053
-75.8084
-75.6198
-75.0938
-73.7833
-72.46
-71.2313
-70.4441
-69.9735
-69.7519
-69.6218
-69.8263
-70.219
-70.7874
-71.5558
-72.5557
-73.5622
-74.6899
-75.282
-75.5815
-75.8201