/*--------------------------------*- C++ -*----------------------------------*\
  =========                 |
  \\      /  F ield         | OpenFOAM: The Open Source CFD Toolbox
   \\    /   O peration     | Website:  https://openfoam.org
    \\  /    A nd           | Version:  7
     \\/     M anipulation  |
\*---------------------------------------------------------------------------*/
FoamFile
{
    version     2.0;
    format      ascii;
    class       volScalarField;
    location    "4.5";
    object      nut;
}
// * * * * * * * * * * * * * * * * * * * * * * * * * * * * * * * * * * * * * //

dimensions      [0 2 -1 0 0 0 0];

internalField   nonuniform List<scalar> 
18750
(
0.000523617
0.000680391
0.000599783
0.00173089
0.00225396
0.00061645
0.000447724
0.000671509
0.00153381
0.000299398
0.00221806
0.00146594
0.00341145
0.000605814
0.000778384
0.000345853
0.000691496
0.0015367
0.000284655
0.000140886
0.00464578
0.00261178
0.00170959
0.00104218
0.00110393
0.00133175
0.000525736
0.000950696
0.000323125
0.000349777
0.000671659
0.0016829
0.000320738
0.000151774
0.000312925
0.00285391
0.00438358
0.00186985
0.00267563
0.00155001
0.00210575
0.0013601
0.00121626
0.00147958
0.00102812
0.000445761
0.00100274
0.000415296
0.000379823
0.000372479
0.000630543
0.00170305
0.000385714
0.000153997
0.000332339
0.000307541
0.00329192
0.00317157
0.00217143
0.00385367
0.00177868
0.00160419
0.00233638
0.00163534
0.00115234
0.000980042
0.00133117
0.000892
0.00144089
0.000912966
0.00037625
0.000370971
0.000930575
0.000445356
0.000435367
0.000285523
0.000459934
0.00058732
0.00161275
0.000426948
0.000160938
0.00034012
0.000307692
0.000233555
0.00274662
0.00340015
0.00218488
0.00311358
0.00227663
0.00136469
0.00423076
0.00153242
0.000819919
0.00101098
0.00257315
0.00153326
0.000786676
0.00108295
0.00108849
0.00134822
0.000696155
0.00108765
0.000751491
0.000495461
0.000683835
0.000317528
0.00081801
0.000448436
0.000470729
0.000307381
0.000418323
0.000443827
0.000554611
0.0013977
0.000434682
0.000161021
0.000345369
0.000303452
0.000225624
0.00041738
0.00254007
0.00283805
0.0010153
0.00304627
0.00146637
0.000936724
0.00317732
0.00193508
0.00105021
0.000824634
0.00510758
0.00204079
0.000838122
0.00109201
0.000869732
0.00231816
0.00113055
0.00084849
0.00102534
0.000728646
0.000677739
0.00137055
0.000492123
0.000906591
0.000536426
0.00068382
0.000584502
0.000751324
0.000325122
0.000737228
0.000435329
0.000472495
0.000406613
0.000361368
0.000460044
0.000286468
0.000539512
0.00106825
0.000421264
0.000127252
0.000364037
0.000296783
0.000225544
0.000442596
0.000469408
0.00266543
0.00243149
0.000923467
0.00281146
0.00166818
0.00105504
0.00292168
0.00166091
0.00128051
0.000907517
0.00327746
0.00207291
0.000829912
0.000793285
0.000512588
0.00539942
0.00224276
0.000803651
0.000663698
0.000979348
0.000911773
0.00225174
0.00227677
0.000861681
0.00111267
0.000716619
0.00135292
0.000893358
0.00116974
0.000440785
0.000775378
0.000305003
0.000775673
0.000343316
0.000607429
0.00104031
0.000295299
0.000696992
0.000363014
0.000472285
0.000440848
0.000302656
0.000483356
0.000328866
0.000412655
0.000537259
0.000696809
0.000409265
0.000103044
0.000387795
0.000288884
0.000225555
0.000443773
0.000449722
0.000336623
0.00239814
0.00268217
0.000573265
0.00243202
0.000792737
0.000743885
0.00303232
0.0015346
0.0011401
0.00105142
0.00273346
0.00155712
0.00137768
0.000852098
0.00103588
0.0039391
0.00223076
0.00100299
0.00107989
0.000368499
0.000730604
0.00462886
0.00340983
0.00158319
0.000729921
0.000883836
0.000973964
0.000624675
0.00278
0.00232154
0.00109286
0.000841886
0.00089686
0.00129916
0.00126564
0.00102763
0.000942822
0.000541637
0.000553079
0.000313075
0.000846425
0.000362423
0.000635096
0.000993032
0.000745992
0.000302384
0.000702251
0.000335128
0.000480406
0.000501908
0.000264538
0.000489547
0.000408626
0.000378069
0.000395368
0.000544359
0.000427667
0.000405435
0.000122397
0.000401279
0.000280751
0.000230808
0.000441726
0.000429228
0.000323213
0.000164364
0.00241198
0.00248729
0.000754908
0.00263569
0.000638459
0.000695574
0.00238103
0.000703432
0.000806931
0.000986125
0.00330804
0.00115489
0.000842391
0.000981126
0.000732741
0.00255612
0.00169205
0.00155042
0.00161943
0.00131668
0.00180111
0.0042185
0.00149138
0.00104787
0.00101864
0.000886059
0.000532833
0.000802288
0.00450335
0.00209554
0.00178109
0.00101425
0.000861934
0.000741196
0.000616112
0.000432052
0.00335031
0.00161886
0.0014158
0.00108505
0.00105934
0.00127924
0.00120009
0.00094392
0.00102316
0.000981421
0.000766092
0.000782015
0.000388199
0.000791376
0.000366759
0.000693541
0.000913831
0.000710017
0.000566934
0.000376976
0.000752962
0.000266491
0.000498685
0.000508674
0.00027585
0.000476138
0.000479397
0.000407735
0.000309886
0.000196111
0.000550777
0.000326877
0.000403201
0.000114525
0.000410077
0.000263587
0.000238616
0.000434134
0.000406308
0.000319682
0.000150862
0.000145561
0.00238727
0.00246979
0.000570912
0.00253674
0.00252984
0.000483522
0.000765657
0.00277376
0.00038968
0.000479377
0.000673436
0.00243533
0.000975109
0.000998673
0.000925586
0.00103075
0.00296258
0.00191323
0.00139495
0.0011001
0.00101842
0.000774415
0.00295814
0.00203345
0.00138152
0.00101563
0.000852824
0.000765132
0.00071947
0.0039547
0.00305312
0.00185573
0.0010613
0.000578064
0.000508928
0.000417174
0.000605917
0.00485629
0.00132865
0.00109127
0.00113952
0.000937233
0.000766957
0.000556033
0.000647374
0.000620303
0.00242429
0.00187862
0.00139553
0.00122637
0.00108197
0.00164434
0.00111039
0.00118105
0.000945133
0.000658395
0.00114346
0.000956353
0.000926094
0.000406693
0.000620104
0.000435536
0.000716526
0.000799179
0.000591079
0.000432119
0.000583484
0.000473521
0.000777949
0.000252463
0.000542672
0.000477009
0.000337993
0.000443793
0.00051156
0.000427959
0.00030109
0.000167989
0.000285751
0.000547771
0.000288434
0.000410204
0.000100101
0.000415369
0.000255239
0.000243381
0.000419665
0.00037796
0.000300604
0.000133775
0.000154712
0.000176307
0.00230238
0.00244296
0.000489192
0.00256177
0.00246274
0.000434216
0.00053096
0.000563932
0.00262238
0.000749218
0.000752093
0.000227341
0.00272821
0.000964707
0.000684794
0.000281829
0.000554046
0.0026544
0.00123108
0.00115053
0.00111419
0.000921509
0.000822922
0.00293592
0.00113486
0.00136261
0.00160954
0.00116237
0.000808864
0.000764262
0.00324711
0.00165553
0.00202575
0.00169857
0.00105854
0.000546066
0.000578876
0.000723905
0.00296114
0.00197844
0.00191646
0.00172205
0.000932144
0.000729465
0.000363033
0.000324497
0.000217024
0.00391707
0.000964793
0.000837025
0.000692906
0.000955986
0.000812394
0.000522014
0.000469559
0.000621051
0.000288906
0.00259652
0.00124473
0.00138201
0.00133282
0.00100052
0.00118312
0.00100986
0.00102277
0.00103314
0.000765985
0.000684267
0.00115578
0.000993963
0.00122734
0.000513139
0.000750578
0.000468043
0.000753083
0.000748306
0.000644844
0.000424648
0.000706958
0.000673193
0.000563848
0.000847144
0.000323234
0.000452505
0.000440712
0.000305698
0.000383113
0.000512512
0.000406023
0.000346888
0.000215216
0.000380304
0.0003648
0.000541887
0.000312812
0.00043168
0.000242098
0.000419492
0.000236819
0.000250053
0.000398239
0.000346239
0.000284114
0.000168517
0.000129995
0.000175662
0.000147235
0.0024352
0.00231682
0.000512525
0.00243503
0.00237575
0.000447124
0.000674957
0.000554651
0.00244007
0.000562103
0.000540334
0.000558808
0.000785612
0.00232284
0.000933157
0.000571614
0.000492862
0.000465944
0.00248182
0.0007166
0.000476745
0.000831122
0.000609017
0.000582346
0.00274593
0.000830227
0.000961707
0.00077715
0.000768375
0.000896908
0.000726931
0.00268641
0.000566473
0.00142778
0.0015929
0.00115814
0.00114522
0.00111166
0.000782234
0.00343098
0.00155595
0.0014202
0.00218482
0.00134206
0.0010562
0.000853063
0.00057772
0.000689231
0.00311291
0.000908843
0.00129071
0.000981286
0.000814826
0.000524993
0.00059503
0.000421267
0.00104182
0.000195022
0.00375612
0.000828525
0.00155764
0.000649051
0.00101063
0.000912397
0.000737554
0.000610129
0.000679551
0.000325886
0.000687442
0.00257043
0.000718576
0.0015985
0.00130291
0.00123181
0.000805348
0.00106031
0.000898815
0.00106072
0.00078991
0.000832126
0.000998316
0.00114376
0.000979916
0.00126274
0.0008715
0.00094924
0.00051824
0.000687089
0.000703627
0.000776572
0.000392427
0.000708021
0.00067389
0.000968967
0.000640518
0.000897457
0.000366021
0.000325174
0.000394121
0.000300799
0.00033833
0.000467757
0.00034954
0.000371445
0.000275307
0.000374372
0.000378516
0.000437233
0.000536802
0.00031114
0.000463842
0.000182179
0.000419024
0.000256255
0.000254182
0.000370814
0.000312651
0.000289984
0.000183207
0.000162629
0.000185741
0.000133624
0.000146142
0.00237007
0.00232481
0.000470487
0.00247832
0.00222748
0.000383488
0.00055707
0.000647943
0.00243711
0.000431283
0.000674245
0.000402368
0.000557515
0.00241652
0.000473406
0.000446022
0.000724044
0.000683466
0.000745824
0.00264281
0.000415011
0.000668592
0.000918581
0.00068259
0.00060038
0.00273426
0.000647901
0.000736938
0.000712283
0.000751609
0.000683511
0.00053387
0.00266304
0.000911631
0.000894057
0.000544118
0.000475918
0.000839716
0.00103544
0.000653634
0.00251112
0.00156176
0.000596632
0.00053511
0.000816327
0.000935129
0.00113845
0.000673098
0.000426431
0.00356755
0.00247941
0.00116477
0.00087841
0.000622358
0.000956765
0.000578103
0.000895299
0.000486964
0.000665041
0.00294542
0.0010884
0.00169366
0.00122462
0.000985872
0.000597307
0.000643342
0.000673054
0.000375489
0.000250189
0.000595269
0.00355533
0.00044124
0.000975257
0.000625899
0.00128598
0.00124097
0.000590398
0.000551043
0.000412472
0.000206803
0.00053571
0.000305906
0.00238764
0.000564503
0.001147
0.00124894
0.00128779
0.000717165
0.000818899
0.000883365
0.000866737
0.00079147
0.000850482
0.00114006
0.00102204
0.00129289
0.00107064
0.00106978
0.00130267
0.000935048
0.00045797
0.000614818
0.000671233
0.000960399
0.000389212
0.00061263
0.000800748
0.00101252
0.000752407
0.000712227
0.000917164
0.000445277
0.000389212
0.000377125
0.000324587
0.000302112
0.000398254
0.000284638
0.000382562
0.000307968
0.000293734
0.000405776
0.000466622
0.000453478
0.000538216
0.00032821
0.000508307
0.00014107
0.00041872
0.000191907
0.000253742
0.000337041
0.00027573
0.000279056
0.000161455
0.000216219
0.000193686
0.000140202
0.000127636
6.5729e-05
0.0022186
0.00226379
0.000487166
0.00244189
0.00226099
0.000568087
0.000443968
0.000505513
0.00245154
0.00224158
0.000419254
0.000476561
0.000196038
0.000618619
0.00245894
0.00064175
0.000470357
0.000411731
0.000404424
0.000567028
0.00254873
0.000674434
0.000549098
0.000488473
0.000565517
0.000762765
0.000402871
0.00274603
0.00063419
0.000793827
0.000400424
0.000393272
0.000479234
0.000384412
0.00254259
0.000998817
0.000686769
0.000577317
0.000572656
0.000701803
0.00090276
0.000567952
0.00246346
0.000839567
0.000810173
0.000675009
0.00109272
0.0010231
0.000969599
0.000858232
0.000654001
0.0026884
0.00110766
0.00105732
0.00116097
0.00109733
0.00101795
0.000804657
0.000759578
0.000826605
0.000662588
0.00319682
0.000940311
0.001191
0.00119596
0.00082398
0.00070543
0.00062043
0.000659453
0.000782196
0.000694738
0.000828409
0.00255956
0.00110061
0.000832229
0.000937175
0.000661392
0.00044688
0.000993955
0.00036095
0.000690141
0.000170137
0.000700352
0.000370411
0.00297449
0.000126749
0.000557873
0.000753382
0.000956116
0.000842971
0.000779285
0.000494303
0.000425543
0.000342801
0.000378652
0.000759365
0.000601187
0.00237419
0.000714889
0.00102038
0.00102302
0.00133548
0.000640973
0.000985387
0.000660895
0.000632812
0.000825021
0.00101289
0.00135658
0.000996997
0.000460331
0.00116872
0.00109358
0.000931835
0.00110309
0.000855546
0.000500637
0.000713838
0.000644233
0.000718547
0.000522329
0.000574296
0.000886894
0.00104578
0.00073173
0.000431426
0.000816898
0.000935209
0.00055898
0.000492319
0.000412591
0.000413492
0.000314519
0.000322232
0.000255256
0.00039284
0.000311046
0.000286732
0.000481455
0.000502308
0.000507932
0.000483535
0.000545395
0.000343936
0.000548346
0.000122409
0.0004206
0.000251869
0.000242373
0.000301444
0.000238089
0.000266144
0.000149238
0.000243031
0.000208467
0.000171295
0.000111216
5.6141e-05
7.28118e-05
0.00216831
0.0022731
0.000453743
0.00240051
0.00223406
0.000458393
0.000325622
0.000570473
0.00249681
0.00228899
0.000389196
0.00062478
0.000325095
0.000458914
0.000490125
0.00229774
0.000507266
0.000326834
0.000597263
0.000410873
0.000549597
0.00252334
0.000775919
0.000438985
0.000670917
0.000595803
0.000590079
0.000541001
0.0024437
0.000433574
0.00048478
0.000395118
0.00046457
0.000461843
0.000365682
0.00081714
0.00251356
0.000707543
0.000256575
0.000508192
0.000382138
0.000369462
0.000321373
0.000292156
0.00231251
0.000555389
0.000536492
0.000676031
0.000682951
0.000616258
0.000623623
0.000620178
0.000540901
0.00284038
0.000815427
0.000838953
0.000532831
0.00106121
0.000915326
0.000715777
0.000826658
0.000702853
0.000670898
0.00280992
0.00126047
0.00130911
0.000897065
0.000741862
0.000803622
0.000835643
0.000694786
0.000284591
0.000753229
0.000581914
0.00302673
0.00125279
0.000850325
0.000903443
0.00102826
0.000726632
0.000855791
0.000704555
0.000565483
0.000754864
0.000682405
0.000727714
0.00261466
0.000711072
0.00099831
0.000834148
0.000429528
0.000486824
0.000491457
0.000481602
0.000443001
0.000142762
0.000576069
0.000532003
0.000854076
0.00334953
0.000625952
0.000705754
0.000585247
0.000524004
0.00123859
0.000586927
0.000616308
0.000600152
0.000274875
0.000358838
0.000457853
0.000920317
0.000886111
0.00216614
0.000750754
0.000904455
0.00103729
0.00137569
0.000923301
0.000668181
0.000591469
0.00073225
0.000729479
0.00122205
0.00168136
0.00080819
0.000196105
0.000562274
0.0012841
0.000878684
0.000891503
0.000850285
0.000852925
0.000536686
0.000577352
0.000567174
0.000364452
0.000692255
0.000632316
0.00102199
0.00101694
0.000718851
0.000476691
0.000574152
0.000867596
0.000960981
0.000612787
0.000555168
0.000503451
0.000378952
0.000361118
0.000215066
0.000239081
0.000378132
0.000270063
0.00031475
0.000504357
0.00051394
0.00053879
0.000465726
0.000401819
0.000549755
0.000353708
0.000575327
0.000279384
0.000414471
0.000189267
0.000301565
0.000264317
0.000205721
0.000250742
0.000125222
0.000242185
0.000220169
0.000138803
0.000107778
4.37756e-05
0.000151047
0.000168197
0.00224246
0.0021746
0.000428237
0.00229417
0.0022293
0.000538272
0.000560261
0.00051473
0.00236037
0.00231646
0.000509571
0.000356769
0.000438146
0.00051777
0.000683897
0.00229586
0.000577802
0.00056764
0.000561485
0.000534119
0.000489357
0.000478655
0.00228704
0.000624145
0.00041607
0.000592797
0.000569292
0.000894262
0.000420765
0.00252546
0.000510652
0.00050596
0.000393874
0.000316707
0.000519732
0.000561024
0.000530856
0.00243554
0.00048656
0.00042083
0.000608349
0.000330863
0.000402762
0.000589779
0.000309187
0.000661919
0.00271165
0.000493701
0.000410539
0.000438452
0.00071643
0.000444452
0.000634006
0.000596115
0.000548224
0.00251179
0.000459357
0.000602237
0.00042478
0.000541279
0.000595756
0.000573982
0.000726509
0.000622014
0.000753731
0.00254313
0.000856093
0.00100299
0.000584651
0.000428987
0.000666601
0.000912454
0.000799909
0.000524354
0.000605084
0.000381976
0.00253761
0.00160762
0.00101362
0.000987107
0.00104516
0.00102156
0.00105472
0.000931226
0.000584039
0.000423851
0.00100273
0.000532238
0.00310435
0.0011615
0.000951705
0.000914452
0.000613647
0.000884739
0.000740585
0.000682172
0.000804101
0.000689819
0.000655557
0.000545867
0.000874193
0.00258666
0.000615801
0.000670146
0.000489407
0.000433193
0.000213285
0.000768824
0.000670691
0.00059294
0.000371342
0.000619921
0.000943461
0.000149889
0.000552181
0.00303975
0.00105059
0.000571729
0.000661797
0.000397706
0.000522698
0.000505653
0.000604833
0.000502264
0.000653823
0.000678823
0.000899953
0.000744753
0.000428428
0.000672409
0.00223996
0.000906374
0.000779438
0.000989792
0.00130864
0.000940278
0.00104106
0.000957971
0.000671474
0.00104122
0.00148516
0.00174267
0.000478287
0.000411504
0.000447264
0.000500109
0.00179519
0.000836138
0.00066275
0.00108077
0.000891633
0.000565749
0.0004675
0.000600466
0.000485006
0.00072295
0.000671836
0.00109294
0.000949724
0.000779139
0.000515726
0.000669372
0.000689693
0.000906677
0.000995275
0.000639719
0.000559811
0.000509129
0.000399172
0.000473691
0.000178676
0.000221975
0.000343269
0.000249814
0.000388135
0.000526753
0.000509254
0.000550468
0.000431587
0.000404686
0.000281649
0.000549289
0.000354999
0.00059568
0.000340031
0.000417482
0.000113342
0.000401388
0.000236909
0.000174702
0.000238412
0.000119108
0.000216372
0.000220164
0.000110384
0.000110335
8.18415e-05
0.000144999
0.000146549
5.38497e-05
0.00237
0.00222051
0.000441529
0.00235741
0.00219146
0.000416559
0.000468073
0.000609221
0.0023105
0.002239
0.000506291
0.000690899
0.000693202
0.000546088
0.00064989
0.00223904
0.00050071
0.000442
0.000278336
0.000316552
0.000355611
0.000585653
0.00218748
0.000659914
0.000415536
0.000268103
0.000444342
0.000375963
0.000536612
0.000396589
0.00234009
0.000422674
0.000374605
0.000502897
0.000470671
0.000585695
0.000844828
0.000539809
0.00244371
0.000593846
0.000262845
0.000552107
0.000459804
0.000379539
0.000475637
0.000381034
0.000385382
0.00250034
0.000594687
0.000363364
0.000262327
0.000545366
0.000400189
0.000383199
0.000531368
0.000462229
0.000284869
0.00255252
0.000417878
0.000754421
0.00028826
0.000613426
0.000481413
0.000473792
0.000466373
0.000294486
0.000550815
0.00249183
0.00081402
0.000640922
0.000413168
0.000623846
0.000619251
0.000568486
0.000492595
0.000527735
0.000458639
0.000658295
0.00250992
0.000961275
0.000745029
0.000708498
0.000810946
0.00078657
0.000722908
0.000809852
0.00117743
0.000601945
0.000805882
0.000543723
0.00274621
0.00132465
0.000683425
0.000891959
0.0011437
0.000986664
0.000901525
0.000930742
0.00122825
0.000781915
0.000303165
0.000657881
0.000260725
0.0028867
0.00123999
0.00111306
0.00103905
0.00122149
0.000460426
0.000728141
0.000628623
0.000559305
0.000784794
0.000430051
0.000898648
0.000926366
0.000452214
0.00203553
0.00117537
0.000603574
0.000313169
0.000596833
0.000176083
0.000486239
0.000748433
0.000407993
0.000882389
0.000923673
0.000549246
0.000577396
0.000246835
0.000680384
0.00308801
0.00083112
0.000861852
0.000371021
0.000375463
0.000636557
0.000594902
0.000647961
0.000521609
0.00111224
0.000659673
0.00106087
0.00114829
0.000945102
0.000525828
0.000411793
0.00238097
0.00104706
0.000814198
0.000994928
0.00123876
0.000922233
0.00066332
0.000737681
0.000642175
0.00126595
0.00149604
0.000767067
0.000731811
0.000451142
0.000455648
0.000393264
0.000581753
0.00176671
0.000906819
0.000772476
0.00111122
0.000975091
0.00056391
0.000488136
0.000572923
0.000542873
0.00064618
0.000649823
0.000948521
0.000911484
0.000779538
0.000639625
0.000775524
0.000782668
0.000531606
0.000961872
0.0010053
0.000623296
0.000637295
0.000645199
0.000361253
0.000507969
0.00019118
0.000218499
0.000333639
0.000256862
0.000429131
0.000543438
0.00048646
0.000530705
0.000414466
0.000337372
0.000320426
0.000337369
0.000532583
0.000349054
0.000611284
0.000442319
0.000411498
0.000244681
0.000372525
0.000186203
0.000150596
0.000230111
0.000180748
0.000175241
0.000209465
9.89657e-05
0.000106464
0.000103807
0.000123144
0.000110284
4.59637e-05
0.000106728
0.00212833
0.00237104
0.000432703
0.00245212
0.00228233
0.000298085
0.000275142
0.000426356
0.00235621
0.00229765
0.000443078
0.000329948
0.000469587
0.000533369
0.000550286
0.00230226
0.000426437
0.000461283
0.000426975
0.000409283
0.000485828
0.000646282
0.00225209
0.000368378
0.000499784
0.000387091
0.000494641
0.000414274
0.000576105
0.000489468
0.0023215
0.000424138
0.000467397
0.000551263
0.000478507
0.000224467
0.000696849
0.000861881
0.000546753
0.00242079
0.000411414
0.000291344
0.000380178
0.000492788
0.000513976
0.000427522
0.000456639
0.000570719
0.00255905
0.00059843
0.000434669
0.000109073
0.000556149
0.000506309
0.000605791
0.00051036
0.000471569
0.000439958
0.00266509
0.000449589
0.00061872
0.000300854
0.000411737
0.000357844
0.000368615
0.000406359
0.000514899
0.000313755
0.000172033
0.00226005
0.000824788
0.000584602
0.000616198
0.000438295
0.000506424
0.000325991
0.000307408
0.00038013
0.000378556
0.000352415
0.00254554
0.000824809
0.000702141
0.000635022
0.000535905
0.000594523
0.000513971
0.000612348
0.000718049
0.000620754
0.00052273
0.000417129
0.00277507
0.000858439
0.000549221
0.000875596
0.000566095
0.000737222
0.000542251
0.000601707
0.00060597
0.000935778
0.000697913
0.000648342
0.000631961
0.00274682
0.00136445
0.00105371
0.000769422
0.000800092
0.000877386
0.000883027
0.000794291
0.000515464
0.00099493
0.000633873
0.000747558
0.000780454
0.000670631
0.00301152
0.00150385
0.000738473
0.00100006
0.000750043
0.000817962
0.00105184
0.000663272
0.000495378
0.000526905
0.000634289
0.000399689
0.000672891
0.000764063
0.000539011
0.00323934
0.00126456
0.000815765
0.000663161
0.000324743
0.0013353
0.000270166
0.000516935
0.000613833
0.000781303
0.000957893
0.000814657
0.000982411
0.00059827
0.000593977
0.00083476
0.00340922
0.00129247
0.000604947
0.000517908
0.000842823
0.0018009
0.000516107
0.000646517
0.000719845
0.000741166
0.00133186
0.00168966
0.00102078
0.000852351
0.000735284
0.000511185
0.000458321
0.00251631
0.00107326
0.000742461
0.00118946
0.00116913
0.000783115
0.00062213
0.000815074
0.000789287
0.00113744
0.000828186
0.000858405
0.00141995
0.000421856
0.000617941
0.000461801
0.0004741
0.000579992
0.00164266
0.000968485
0.00108217
0.000989665
0.000956919
0.000613885
0.000491198
0.000565933
0.00054149
0.000595015
0.000544414
0.000654024
0.000965058
0.000785184
0.0007413
0.000835408
0.000791492
0.000764379
0.000662761
0.000993932
0.00101354
0.000599207
0.000682342
0.00066869
0.000621638
0.00038086
0.000210272
0.000212415
0.000330602
0.00026697
0.000426231
0.000548766
0.000446734
0.000447364
0.0003751
0.000290778
0.000341812
0.000370239
0.000392239
0.000506792
0.000345601
0.000629299
0.000527242
0.000407746
0.000171288
0.000339171
0.00015873
0.000149125
0.000221782
0.000202687
0.000183525
0.00018689
8.89852e-05
9.8829e-05
7.09198e-05
0.000137176
9.71012e-05
3.64572e-05
9.15813e-05
6.85377e-05
0.00191958
0.00212119
0.00044272
0.00221973
0.00232368
0.000394607
0.000383664
0.000494232
0.00235521
0.00226401
0.000256232
0.000313167
0.000329013
0.000260655
0.000431257
0.00231529
0.000520159
0.000263843
0.000305381
0.000349055
0.000670494
0.000490274
0.00228733
0.000473746
0.000291773
0.000370663
0.000450173
0.000312354
0.000210319
0.000623408
0.00218374
0.000408481
0.000312429
0.000386648
0.000452521
0.000568498
0.000423387
0.000371252
0.000606086
0.00232454
0.00051077
0.000406681
0.000476585
0.000432286
0.000325321
0.000369437
0.00037062
0.000458263
0.000555531
0.00246676
0.000745841
0.000524912
0.000234864
0.000181988
0.000429819
0.000566734
0.000438397
0.000510422
0.000436265
0.00251401
0.000574276
0.000500324
0.000570084
0.000372998
0.000477226
0.000545682
0.000355855
0.000363585
0.000325471
0.000393821
0.00246426
0.000507605
0.000299993
0.000654282
0.000466579
0.000398061
0.000404294
0.000381812
0.000584897
0.000235238
0.000367833
0.000605659
0.00241915
0.000839016
0.000452494
0.000692225
0.000491562
0.000409935
0.000514705
0.000320632
0.000826577
0.000335826
0.00044455
0.000267793
0.0025552
0.000804446
0.000907771
0.000488873
0.000445606
0.000506714
0.000557934
0.00060453
0.000649969
0.000528184
0.000501926
0.000525992
0.000676282
0.002492
0.00117694
0.000857881
0.000802054
0.000882913
0.000627164
0.000786771
0.000803223
0.000760124
0.000614137
0.00109431
0.000578543
0.000553594
0.000697231
0.00252165
0.000941314
0.000888786
0.000688536
0.000677866
0.000773443
0.00095159
0.000809282
0.000818719
0.000651819
0.00145123
0.000753617
0.000772599
0.000777851
0.000662042
0.00319507
0.000913963
0.000589332
0.000655125
0.00057612
0.000456076
0.000646996
0.000695389
0.000542547
0.000578095
0.000722113
0.000554047
0.00121444
0.000779986
0.000321479
0.000486254
0.00337171
0.000810519
0.000700255
0.0011961
0.000841133
0.000988646
0.000283731
0.000406087
0.000574563
0.000515853
0.000663535
0.000563757
0.000632958
0.000838852
0.000440556
0.000294065
0.000508941
0.00294542
0.00180108
0.000698534
0.000502079
0.000306995
0.0007805
0.000687522
0.00051055
0.000604603
0.000935596
0.0012167
0.00133044
0.000670016
0.000331559
0.000337206
0.000641283
0.00048129
0.000619745
0.00240939
0.00107364
0.000389052
0.000717583
0.000991628
0.00124693
0.000902672
0.000585157
0.000681533
0.000415463
0.000808972
0.00168688
0.00122741
0.000577723
0.00057471
0.000616715
0.000699686
0.000658548
0.000620039
0.00166665
0.000943555
0.00131363
0.000891236
0.000863165
0.000666613
0.000467705
0.000514723
0.000536265
0.000472155
0.000407175
0.000566517
0.00102444
0.000840159
0.000770029
0.000809501
0.000600813
0.000705624
0.000671547
0.000682682
0.00094783
0.00105386
0.000708567
0.000650278
0.000628079
0.000522462
0.000418125
0.000268652
0.000209844
0.000336802
0.000322132
0.000441415
0.000538537
0.000384408
0.000395451
0.00034689
0.000316603
0.000338551
0.000374626
0.000400932
0.000396716
0.000493902
0.000341515
0.000628787
0.000590742
0.000400784
0.000190281
0.000341412
0.000158627
0.000157212
0.000210067
0.00018688
0.000244422
0.000154172
7.79746e-05
5.51476e-05
3.39376e-05
9.47199e-05
0.000106375
5.83965e-05
5.08021e-05
5.92507e-05
0.00013082
0.00201837
0.00197072
0.000412484
0.00205286
0.00218449
0.000496738
0.000732424
0.00057199
0.00218147
0.00233527
0.000471471
0.000464693
0.000597977
0.000343708
0.000236008
0.00230372
0.000294098
0.000328283
0.000370964
0.00054053
0.000289122
0.000255313
0.00229888
0.00042976
0.000338793
0.000359172
0.000230368
0.000233535
0.000371613
0.000613801
0.00239574
0.000253217
0.000485977
0.000424588
0.00015935
0.000269558
0.000376633
0.00059518
0.000453079
0.00220443
0.0004986
0.000314376
0.000388309
0.000241468
0.00059455
0.00051759
0.000755684
0.000763194
0.0003915
0.00226837
0.0004552
0.000618034
0.000434079
0.000472373
0.000306514
0.000479138
0.000563806
0.000586661
0.000523074
0.000304587
0.00235581
0.000430064
0.000375705
0.000387729
0.000504454
0.000262314
0.000285802
0.000326216
0.000469397
0.000400049
0.00048424
0.00235309
0.000558705
0.000358696
0.000421296
0.000434652
0.000308441
0.00015653
0.000216175
0.0003062
0.000402628
0.000275955
0.000425152
0.00249994
0.000561487
0.000448663
0.000298711
0.00039851
0.000301231
0.000337572
0.000314017
0.00028394
0.000386616
0.000347107
0.000487799
0.000549813
0.00252548
0.000782252
0.000617008
0.000381385
0.000376645
0.000528371
0.000412073
0.000574858
0.000481433
0.000332942
0.000804964
0.000603218
0.000560567
0.00246314
0.000813451
0.000917382
0.00053484
0.000760512
0.000677747
0.000599766
0.000778912
0.000685129
0.00067192
0.000691317
0.000663606
0.000511756
0.000556765
0.00254001
0.00089465
0.00078838
0.000676957
0.00103731
0.000780687
0.000817241
0.000775277
0.000887115
0.000806264
0.000363323
0.000656687
0.000416003
0.000528856
0.000722033
0.00279051
0.00089501
0.000915701
0.000843104
0.000881672
0.000830307
0.000823062
0.000895724
0.000946937
0.000743359
0.000555309
0.000698624
0.000372646
0.000672973
0.000804558
0.000792164
0.0029463
0.00148618
0.00122461
0.000602788
0.0010472
0.0006791
0.000496335
0.000896254
0.000658815
0.000398232
0.000607357
0.000685348
0.000554118
0.00101221
0.000695619
0.000334977
0.000948534
0.00231758
0.000414699
0.000871751
0.000489591
0.000571813
0.00132406
0.000492597
2.43961e-05
0.000549199
0.000799265
0.000762033
0.000917973
0.000956576
0.000799593
0.000737836
0.000338816
0.000603284
0.000497299
0.00296687
0.00105765
0.000727538
0.000363786
0.000454675
0.00185624
0.000346931
0.000438091
0.000864311
0.00128089
0.001772
0.00131956
0.00125469
0.000566976
0.000423438
0.000383122
0.000387823
0.0004464
0.000660077
0.00233172
0.000703351
0.000495891
0.000487892
0.000903671
0.00101449
0.000626192
0.000407545
0.00125362
0.00184369
0.00236187
0.00150046
0.00106596
0.000692331
0.000441846
0.000641135
0.00062326
0.000730778
0.000678546
0.000797777
0.00169689
0.000848365
0.00128732
0.000983976
0.000822944
0.000689377
0.000511434
0.000473147
0.000523856
0.000444149
0.000505601
0.000629075
0.0010412
0.000838532
0.000789874
0.000678654
0.000428718
0.000511126
0.000605421
0.000750027
0.000406971
0.000913479
0.0010779
0.000771389
0.000613055
0.000574376
0.000470327
0.000450172
0.000306609
0.000234605
0.000348393
0.000318731
0.000488963
0.000509334
0.00032484
0.000382589
0.000309897
0.000333752
0.000295767
0.000385056
0.00043844
0.000521005
0.000423992
0.000480721
0.000325943
0.000624154
0.000647559
0.00038349
0.000189934
0.000326761
0.000167405
0.000166263
0.000219962
0.000192761
0.000273454
0.000120057
7.65012e-05
5.06266e-05
7.86344e-05
0.000166084
9.62024e-05
7.33074e-05
3.37261e-05
0.000178757
0.000121028
0.000156266
0.0020084
0.00199401
0.000356501
0.00209161
0.00198899
0.00040138
0.00028873
0.000343287
0.00194844
0.00214312
0.000478241
0.000535856
0.000433465
0.000735197
0.000426209
0.00227212
0.000507839
0.000307566
0.000570865
0.000567531
0.000572441
0.000344589
0.00228868
0.000342535
0.000357853
0.000300699
0.000444025
0.000451129
0.000292588
0.000381306
0.00227215
0.000419426
0.000404498
0.000364743
0.000285144
0.000419812
0.00056838
0.000306368
0.000511797
0.00235906
0.000452647
0.000379754
0.00040598
0.000347306
0.000373841
0.000377111
0.000443693
0.000627953
0.000483891
0.00234031
0.000423501
0.000382058
0.000285231
0.000404637
0.00039399
0.000535178
0.000520153
0.00064393
0.000501601
0.000352496
0.00238664
0.000344059
0.000543047
0.000310577
0.000497831
0.000519109
0.000373623
0.000599221
0.000480323
0.000591972
0.000641804
0.000386957
0.00247523
0.000361105
0.000325866
0.000323887
0.00051681
0.000368286
0.000439001
0.000622236
0.000339708
0.000518375
0.000600962
0.000439423
0.00256421
0.000578444
0.000218578
0.000288266
0.000248773
0.000392919
0.000381624
0.00057337
0.000344811
0.000423683
0.00042813
0.000575081
0.000331117
0.00241009
0.00074219
0.000489671
0.000374487
0.000283111
0.000425733
0.000288359
0.000731256
0.000294132
0.000520009
0.000449587
0.000399302
0.000343121
0.000327489
0.00240615
0.000834356
0.000703022
0.000514631