/*--------------------------------*- C++ -*----------------------------------*\
  =========                 |
  \\      /  F ield         | OpenFOAM: The Open Source CFD Toolbox
   \\    /   O peration     | Website:  https://openfoam.org
    \\  /    A nd           | Version:  7
     \\/     M anipulation  |
\*---------------------------------------------------------------------------*/
FoamFile
{
    version     2.0;
    format      ascii;
    class       volScalarField;
    location    "4.5";
    object      p;
}
// * * * * * * * * * * * * * * * * * * * * * * * * * * * * * * * * * * * * * //

dimensions      [0 2 -2 0 0 0 0];

internalField   nonuniform List<scalar> 
18750
(
-60.52
-62.4018
-60.4627
-60.4673
-62.6288
-62.7532
-62.9311
-60.4061
-60.3675
-62.7343
-60.0524
-63.9503
-63.6679
-62.9546
-63.0582
-63.5697
-60.3579
-60.4293
-62.7383
-62.7053
-52.483
-60.7436
-66.9984
-65.0466
-64.9567
-65.3254
-63.1276
-63.1777
-63.5944
-63.6643
-60.3165
-60.6554
-62.7543
-62.6958
-62.4508
-53.9107
-51.8917
-64.0628
-60.7083
-67.4018
-67.2002
-66.0424
-66.0629
-65.3863
-64.3965
-63.2914
-63.2917
-63.6159
-63.6258
-63.485
-60.2758
-61.0116
-62.7797
-62.6861
-62.4502
-62.5249
-48.2312
-52.945
-54.5907
-51.3814
-64.8534
-62.8433
-61.8575
-67.8472
-67.1887
-66.4403
-67.1356
-67.1047
-65.5361
-64.5037
-64.2692
-63.4398
-63.4163
-63.6254
-63.5812
-63.4564
-62.954
-60.2287
-61.4243
-62.8099
-62.6752
-62.4541
-62.5397
-63.0965
-46.4814
-48.2579
-48.697
-52.673
-55.3931
-55.4107
-51.483
-65.4911
-62.9901
-63.8579
-63.4168
-68.5961
-67.2206
-66.6269
-67.1962
-68.0065
-68.0692
-65.7804
-64.6592
-64.1591
-63.7084
-63.5612
-63.5244
-63.6263
-63.5324
-63.4178
-62.9169
-62.9946
-60.1713
-61.8055
-62.8407
-62.6626
-62.4608
-62.5569
-63.0945
-63.4008
-45.7879
-46.4391
-46.9997
-48.8959
-48.7966
-50.1692
-51.9121
-56.0928
-55.8613
-56.0147
-51.3979
-65.6639
-63.1537
-63.6346
-62.7494
-64.5916
-69.5676
-67.3657
-66.924
-67.2373
-64.8524
-68.8371
-68.8332
-66.001
-64.8267
-64.0709
-63.4382
-63.0461
-63.6444
-63.5771
-63.6132
-63.4739
-63.3696
-62.8877
-62.9277
-63.414
-60.103
-62.0906
-62.8687
-62.6491
-62.4674
-62.5775
-63.0934
-63.3916
-63.4212
-44.5338
-45.7638
-45.5418
-46.3328
-46.8729
-47.0572
-49.1069
-49.0093
-50.3708
-51.0896
-51.157
-56.4793
-56.1974
-56.2394
-56.7776
-52.8754
-66.544
-63.4138
-63.8135
-62.7547
-61.5523
-65.9528
-70.1308
-67.6766
-67.1418
-67.0352
-64.339
-64.1472
-69.645
-69.1838
-66.1832
-64.9764
-64.0018
-63.2786
-62.7787
-62.6617
-63.6682
-63.5456
-63.5752
-63.4029
-63.305
-62.8561
-62.8705
-63.3705
-63.57
-60.0273
-62.2523
-62.8917
-62.6324
-62.4732
-62.6003
-63.092
-63.3804
-63.4114
-63.617
-43.5028
-44.4214
-44.3796
-45.7192
-45.4216
-45.6915
-46.1037
-46.7688
-46.9992
-47.5968
-49.1865
-49.3027
-50.72
-51.1772
-51.7267
-51.7791
-56.7422
-55.9902
-56.5742
-56.8726
-56.7328
-53.3804
-65.8669
-63.675
-63.7628
-62.4751
-61.1421
-61.3106
-66.765
-69.4092
-67.6528
-67.1596
-66.545
-63.8529
-63.7699
-62.9258
-70.0299
-69.3428
-66.3359
-65.0772
-63.9372
-63.0953
-62.5879
-62.4692
-63.1343
-63.6233
-63.4626
-63.5161
-63.3191
-63.2324
-62.8212
-62.8232
-63.3333
-63.5471
-63.7154
-59.9483
-62.336
-62.9098
-62.6144
-62.4792
-62.6243
-63.09
-63.3676
-63.4011
-63.6102
-63.6383
-42.8152
-43.4068
-43.4317
-44.4289
-44.407
-44.474
-45.7427
-45.5639
-45.6871
-45.7502
-46.0523
-46.723
-47.0528
-47.519
-48.0146
-49.8397
-49.7548
-50.7525
-51.1879
-51.5563
-52.1362
-52.5976
-57.327
-55.6167
-57.1548
-56.9453
-56.5377
-57.1235
-53.9958
-64.9125
-63.9681
-63.3588
-62.1825
-60.741
-60.8275
-60.5455
-67.2248
-68.8337
-67.0766
-66.8211
-65.739
-63.4594
-63.1363
-62.7592
-62.6668
-70.0124
-69.0466
-66.4243
-65.118
-63.8635
-62.9666
-62.4687
-62.3141
-63.1251
-63.6787
-63.4753
-63.3563
-63.4415
-63.2223
-63.1554
-62.7791
-62.7883
-63.3011
-63.5249
-63.6949
-63.936
-59.8714
-62.3858
-62.9237
-62.5963
-62.4857
-62.649
-63.0871
-63.3534
-63.3908
-63.6014
-63.638
-63.1719
-42.2774
-42.7539
-42.7898
-42.867
-43.3655
-43.5046
-43.4832
-44.2605
-44.4748
-44.402
-44.4345
-45.5098
-45.5851
-45.5239
-45.72
-45.913
-46.509
-46.6965
-47.0833
-47.4637
-47.8626
-48.5194
-50.0824
-50.1256
-50.8656
-51.213
-51.8989
-51.8413
-52.1197
-52.3647
-57.9041
-55.1076
-57.5808
-57.0595
-56.7459
-56.7528
-56.9219
-54.3801
-63.3052
-63.6968
-63.0299
-61.5483
-60.4262
-60.4402
-60.2104
-60.0166
-66.9433
-68.3549
-66.6975
-66.2682
-64.9278
-63.0352
-62.7641
-62.4775
-62.6148
-63.0961
-69.5822
-68.3831
-66.4505
-65.0901
-63.7609
-62.9443
-62.4172
-62.2208
-63.1376
-63.6371
-63.6059
-63.2227
-63.2136
-63.3364
-63.1189
-63.0761
-62.7281
-62.761
-63.2709
-63.5042
-63.6711
-63.8746
-63.5943
-59.8036
-62.3535
-62.9327
-62.5797
-62.4922
-62.6729
-63.0828
-63.3375
-63.3811
-63.5994
-63.6388
-63.1577
-62.9134
-41.8427
-42.2492
-42.2679
-42.2936
-42.8051
-42.8164
-42.8621
-42.8226
-43.4041
-43.4329
-43.4217
-43.5072
-44.3029
-44.3365
-44.3704
-44.549
-44.6853
-45.4121
-45.6245
-45.5247
-45.6064
-45.9072
-46.1505
-46.3576
-47.0152
-47.0963
-47.2476
-47.8933
-48.7029
-48.5952
-49.4452
-50.1309
-50.2123
-51.5736
-51.5992
-51.7068
-51.9775
-51.701
-51.9116
-56.5507
-55.5058
-56.3377
-57.1075
-56.6854
-56.7232
-56.5017
-56.6365
-54.5998
-61.8874
-63.0759
-62.8932
-60.9526
-59.9568
-60.1186
-59.832
-60.0039
-60.2727
-65.9693
-67.1955
-66.1212
-65.7738
-64.2027
-62.8329
-62.6
-62.325
-62.5686
-63.1427
-62.9473
-68.5601
-67.4631
-66.3521
-65.0469
-63.6275
-62.9452
-62.404
-62.2003
-63.1542
-63.5735
-63.5127
-63.025
-62.8724
-63.0144
-63.2062
-63.046
-62.9971
-62.673
-62.7337
-63.2405
-63.4857
-63.6465
-63.8268
-63.4902
-62.9903
-59.7439
-62.2815
-62.938
-62.5647
-62.4987
-62.6972
-63.0763
-63.3201
-63.3741
-63.5985
-63.6298
-63.1427
-62.9127
-62.89
-41.4469
-41.823
-41.8616
-41.8564
-42.294
-42.3201
-42.1971
-42.3057
-42.8329
-42.8413
-42.8038
-42.9074
-42.7708
-43.6604
-43.4254
-43.4829
-43.5333
-43.6937
-44.4464
-44.4942
-44.5241
-44.4629
-44.6851
-44.7637
-45.2362
-45.7749
-45.4064
-45.7507
-45.8165
-46.0817
-46.2597
-46.3824
-47.3412
-47.0395
-46.9673
-48.0769
-48.2589
-48.5135
-48.7333
-49.5488
-50.1155
-50.2656
-51.5557
-51.7563
-51.6356
-51.4884
-51.7045
-52.0735
-52.0853
-55.9743
-55.9811
-56.3241
-56.7587
-56.6953
-56.5837
-56.3405
-56.547
-56.3093
-54.5294
-60.7296
-62.2432
-62.497
-60.545
-59.5691
-59.6596
-59.6206
-59.752
-60.1912
-59.7545
-64.6561
-65.9461
-65.1871
-65.3127
-63.4689
-62.7299
-62.4351
-62.3087
-62.4768
-63.1425
-62.7368
-61.8409
-67.2545
-66.4889
-66.082
-65.0014
-63.4706
-62.8553
-62.4477
-62.2301
-63.1859
-63.5301
-63.4236
-62.8736
-63.1528
-62.432
-62.7662
-63.0726
-62.9427
-62.9129
-62.6261
-62.7021
-63.2106
-63.4691
-63.6219
-63.7899
-63.3922
-62.9673
-63.1779
-59.6921
-62.2234
-62.9421
-62.549
-62.5051
-62.7229
-63.067
-63.302
-63.367
-63.5884
-63.6119
-63.1269
-62.9117
-62.8938
-62.6809
-41.1639
-41.5142
-41.5562
-41.5393
-41.8842
-41.8987
-41.7963
-41.876
-42.2992
-42.3678
-42.1918
-42.3552
-42.3487
-42.8141
-42.8975
-42.9175
-42.8653
-42.9527
-42.7382
-43.5363
-43.5356
-43.455
-43.5082
-43.5895
-43.7727
-44.3457
-44.5686
-44.5711
-44.5337
-44.7264
-44.8279
-44.9753
-45.2766
-45.7762
-45.436
-45.8325
-46.0802
-46.0018
-46.1729
-46.5304
-46.7287
-47.0256
-47.6135
-48.1813
-47.9998
-48.2018
-48.3783
-48.7277
-49.0446
-49.4156
-49.6206
-50.2915
-51.4679
-51.9383
-51.6213
-51.4476
-51.5999
-51.7364
-52.0223
-52.0268
-55.5789
-55.9055
-56.5094
-56.5409
-56.451
-56.5785
-56.2929
-56.3381
-56.2317
-56.184
-53.6229
-59.6716
-61.3271
-62.0077
-60.2489
-59.4237
-59.3607
-59.3929
-59.6
-60.0614
-59.7922
-59.2374
-63.1751
-64.6689
-64.1046
-64.7962
-62.7761
-62.5172
-62.3627
-62.3225
-62.5474
-63.1013
-62.7435
-61.8463
-62.1627
-65.8111
-65.4793
-65.7058
-64.879
-63.2802
-62.7787
-62.5227
-62.3301
-63.2516
-63.5186
-63.3693
-62.8308
-63.2887
-63.9048
-61.9421
-62.4993
-62.9093
-62.8072
-62.8206
-62.5944
-62.6682
-63.1818
-63.4542
-63.5964
-63.756
-63.3012
-62.9504
-63.187
-63.3365
-59.6495
-62.167
-62.9469
-62.5286
-62.5109
-62.7523
-63.0532
-63.2875
-63.3612
-63.5753
-63.5973
-63.1168
-62.9078
-62.8958
-62.6922
-62.5302
-40.9226
-41.2784
-41.2242
-41.2014
-41.5681
-41.5681
-41.5901
-41.5133
-41.5487
-41.8933
-41.8901
-41.9072
-41.9176
-41.806
-42.3439
-42.366
-42.3026
-42.3948
-42.3684
-42.2335
-42.817
-42.911
-42.9623
-42.9029
-43.0557
-43.1123
-42.8502
-43.5064
-43.5973
-43.4545
-43.6472
-43.7204
-43.8256
-43.9627
-44.3697
-44.4678
-44.7099
-44.6741
-44.7334
-44.8458
-44.9126
-45.1227
-45.3672
-45.7036
-45.6101
-45.9563
-45.9497
-45.9071
-46.0863
-46.4657
-46.7807
-46.6428
-47.0061
-47.7312
-48.1779
-48.0494
-48.2813
-48.5158
-48.6951
-48.9494
-49.1203
-49.4236
-49.8847
-50.1065
-51.1435
-51.9073
-51.6411
-51.6664
-51.5924
-51.5828
-51.8316
-52.1329
-51.9461
-54.8124
-55.6352
-56.3773
-56.3995
-56.3919
-56.5249
-56.2502
-56.219
-56.2717
-56.4027
-55.7785
-53.3586
-59.5838
-60.4583
-61.4035
-60.2248
-59.0232
-59.1243
-59.1853
-59.5148
-59.9068
-59.7044
-59.2033
-58.3734
-61.8794
-63.5507
-63.3907
-64.3548
-62.3011
-62.3141
-62.3372
-62.2645
-62.6655
-63.0603
-62.7655
-61.9114
-62.4028
-63.4531
-64.3731
-64.4525
-65.2338
-64.6511
-63.0585
-62.6224
-62.5055
-62.4532
-63.2758
-63.5307
-63.3637
-62.867
-63.5064
-64.0274
-64.0777
-61.4161
-62.2296
-62.7077
-62.6577
-62.7278
-62.5727
-62.6357
-63.1541
-63.4403
-63.5681
-63.7162
-63.211
-62.9376
-63.1955
-63.3378
-63.2526
-59.6189
-62.115
-62.9521
-62.5098
-62.5162
-62.779
-63.0358
-63.2758
-63.3521
-63.5619
-63.5844
-63.1122
-62.9009
-62.9002
-62.7027
-62.5395
-62.5636
-40.7262
-40.9392
-40.9169
-40.8996
-41.288
-41.2715
-41.2495
-41.1828
-41.2127
-41.5458
-41.5856
-41.5886
-41.4962
-41.4331
-41.5803
-41.9338
-41.8771
-41.9093
-41.8968
-41.8868
-41.8407
-42.4084
-42.3125
-42.3629
-42.3633
-42.4201
-42.4986
-42.3614
-42.8714
-42.8584
-42.9921
-43.0186
-43.0874
-43.1578
-43.2393
-42.9824
-43.6529
-43.5923
-43.5877
-43.7517
-43.7786
-43.8864
-43.9847
-44.2205
-44.4496
-44.5215
-44.7612
-44.7695
-44.7418
-44.8458
-45.0709
-45.1378
-45.3065
-45.2986
-45.6825
-45.6629
-45.9683
-46.04
-46.1615
-46.2422
-46.4474
-46.695
-46.8909
-46.7144
-46.9954
-47.3291
-47.9986
-48.3197
-48.4347
-48.5566
-48.7435
-48.8748
-49.0931
-49.484
-49.6562
-50.1134
-49.7186
-51.0394
-51.6894
-51.3833
-51.4341
-51.6225
-51.4502
-51.8515
-51.9989
-52.0498
-52.1591
-54.5581
-55.5396
-56.1932
-56.3439
-56.1562
-56.423
-56.2036
-56.1047
-56.1196
-56.3681
-55.9004
-55.4135
-53.4203
-59.5439
-59.4688
-60.9261
-59.9899
-58.7807
-58.9625
-59.0348
-59.3427
-59.7396
-59.521
-59.1963
-58.4035
-59.2853
-60.756
-62.7751
-62.5875
-63.9177
-61.9558
-62.0709
-62.3728
-62.3207
-62.8568
-63.1078
-62.7724
-62.0867
-62.6605
-63.7158
-64.3022
-63.0322
-63.5327
-64.6824
-64.3392
-62.8073
-62.513
-62.5171
-62.5707
-63.3326
-63.5476
-63.4084
-63.028
-63.809
-64.1652
-64.0013
-63.8196
-60.8979
-61.964
-62.5065
-62.5175
-62.6406
-62.5532
-62.6055
-63.1258
-63.4184
-63.5332
-63.6685
-63.1247
-62.9261
-63.2005
-63.3313
-63.2257
-62.941
-59.6076
-62.0663
-62.9562
-62.4985
-62.5201
-62.7825
-63.0182
-63.265
-63.3392
-63.5491
-63.5731
-63.1061
-62.8946
-62.9065
-62.7125
-62.5481
-62.5644
-62.5064
-40.6451
-40.7734
-40.6756
-40.6909
-40.9721
-40.9609
-40.9303
-40.8999
-40.919
-41.2829
-41.2606
-41.258
-41.1697
-41.1919
-41.1678
-41.5397
-41.522
-41.5236
-41.5142
-41.4899
-41.562
-41.5484
-41.9832
-41.8475
-41.901
-41.9434
-41.9154
-41.9391
-41.9348
-42.3999
-42.4064
-42.3313
-42.4581
-42.4445
-42.481
-42.5403
-42.3545
-42.8825
-42.918
-43.0516
-42.9553
-43.0496
-43.2212
-43.3523
-43.4464
-43.1255
-43.6424
-43.7789
-43.6901
-43.6992
-43.7534
-43.9013
-44.0931
-44.2523
-44.3555
-44.4376
-44.6948
-44.7477
-44.7356
-44.7985
-44.8754
-44.9574
-45.1773
-45.3661
-45.491
-45.383
-45.5918
-45.4605
-46.1094
-46.1596
-46.1699
-46.2406
-46.5051
-46.7341
-46.8737
-47.2128
-47.0209
-46.9819
-47.567
-47.9332
-48.2229
-48.4131
-48.4908
-48.6955
-48.9665
-49.1663
-49.4414
-49.6478
-49.7849
-49.9983
-49.8685
-50.9571
-51.6745
-51.2589
-51.2413
-51.5577
-51.5471
-51.7124
-52.0636
-52.4123
-52.2695
-52.2872
-54.2485
-54.9337
-55.9296
-56.1484
-56.1599
-56.5399
-56.1368
-56.1248
-56.1458
-56.3057
-55.774
-55.8209
-55.9175
-53.1763
-58.3767
-58.6328
-60.3619
-59.6383
-58.9016
-58.7061
-58.8466
-59.2834
-59.6222
-59.3543
-58.9093
-59.1892
-59.4485
-60.4391
-59.8607
-61.6203
-61.7632
-63.3459
-61.6941
-61.8431
-62.3257
-62.3335
-62.957
-63.2322
-62.8422
-62.413
-62.9799
-63.84
-64.1775
-63.8681
-61.7885
-62.7253
-64.039
-63.8959
-62.5932
-62.4006
-62.5635
-62.7041
-63.4351
-63.5866
-63.5281
-63.355
-64.1053
-64.2265
-63.9518
-63.7117
-63.5459
-60.4518
-61.7052
-62.2982
-62.3932
-62.5593
-62.5217
-62.5756
-63.0995
-63.3843
-63.4975
-63.6075
-63.0512
-62.9164
-63.2046
-63.3196
-63.1962
-62.9124
-62.8131
-59.6102
-62.0306
-62.9593
-62.4898
-62.522
-62.765
-63.0209
-63.2542
-63.3275
-63.537
-63.5599
-63.097
-62.8883
-62.91
-62.7218
-62.5527
-62.5661
-62.4966
-62.543
-40.3971
-40.6512
-40.6959
-40.6206
-40.7674
-40.7574
-40.7147
-40.6646
-40.6811
-41.0374
-40.9888
-40.9324
-40.9466
-40.8538
-40.8454
-41.3507
-41.2527
-41.2701
-41.2314
-41.2278
-41.2618
-41.1836
-41.6077
-41.5443
-41.5326
-41.5771
-41.5337
-41.5228
-41.511
-41.5598
-42.0226
-41.9961
-41.946
-41.8907
-41.9326
-41.9399
-42.0807
-41.9313
-42.4244
-42.4698
-42.44
-42.3729
-42.4033
-42.5029
-42.6309
-42.7074
-42.4211
-42.8499
-42.9186
-43.0535
-43.0507
-42.9838
-43.1553
-43.3399
-43.3901
-43.5341
-43.3131
-43.5341
-43.78
-43.5971
-43.8279
-43.7574
-43.8575
-43.9757
-44.1372
-44.3238
-44.4854
-44.3464
-44.6095
-44.5597
-44.7977
-44.8345
-44.947
-45.0325
-45.2213
-45.4815
-45.5624
-45.7325
-45.5924
-45.5495
-45.836
-46.0296
-46.1401
-46.2098
-46.2388
-46.4628
-46.7265
-46.8215
-47.0566
-47.3659
-47.2529
-47.0655
-47.8182
-48.0579
-48.2358
-48.3702
-48.4523
-48.7285
-48.8962
-49.2205
-49.3538
-49.5433
-49.9551
-49.5937
-49.7213
-49.9526
-50.9368
-51.3671
-51.3068
-51.4233
-51.4809
-51.6736
-51.3917
-52.2287
-51.9938
-52.1917
-52.6308
-53.1133
-53.5514
-54.418
-55.7901
-55.7678
-56.1719
-56.3204
-55.851
-56.0994
-56.1351
-55.9511
-55.6822
-55.9236
-56.2506
-56.0632
-53.6003
-57.9733
-58.0688
-59.9172
-59.4817
-58.6787
-58.4855
-58.7698
-59.2246
-59.5154
-59.0861
-58.9921
-59.603
-59.861
-60.3632
-60.347
-59.1034
-60.7356
-61.2438
-62.896
-61.5715
-61.6988
-62.2029
-62.5343
-63.1765
-63.2383
-63.0905
-62.891
-63.3184
-63.9754
-64.0977
-63.6962
-63.2772
-60.7163
-61.9775
-63.3945
-63.327
-62.39
-62.2227
-62.5954
-62.8711
-63.5438
-63.6773
-63.7105
-63.7129
-64.215
-64.2255
-63.8947
-63.5858
-63.4518
-63.0275
-60.0647
-61.462
-62.1103
-62.2666
-62.4783
-62.4672
-62.5555
-63.0764
-63.351
-63.4657
-63.5408
-62.9935
-62.9041
-63.2047
-63.3074
-63.1645
-62.8927
-62.7643
-62.5352
-59.6011
-62.0051
-62.961
-62.4872
-62.5252
-62.7466
-63.0419
-63.2445
-63.3158
-63.5256
-63.5595
-63.0869
-62.882
-62.9119
-62.7293
-62.5569
-62.5666
-62.4851
-62.5363
-62.5365
-40.2743
-40.3874
-40.4718
-40.3904
-40.6895
-40.7502
-40.5708
-40.6178
-40.565
-40.8086
-40.7733
-40.7394
-40.7524
-40.6643
-40.6563
-41.078
-41.0404
-40.9785
-41.0012
-40.9981
-40.9066
-40.8746
-41.3825
-41.3815
-41.3357
-41.266
-41.2812
-41.1969
-41.2009
-41.2266
-41.5837
-41.6326
-41.5943
-41.5242
-41.5136
-41.5729
-41.6455
-41.5502
-41.5084
-42.0191
-42.0053
-42.0022
-41.9386
-42.0027
-41.9695
-42.0444
-42.1974
-42.09
-42.404
-42.4686
-42.4087
-42.5126
-42.4644
-42.5583
-42.5986
-42.6601
-42.8179
-42.6241
-42.8249
-42.9571
-42.9289
-43.0817
-43.1753
-43.1618
-43.3096
-43.4312
-43.5369
-43.7132
-43.4959
-43.5264
-43.7137
-43.6956
-43.8317
-43.9039
-43.9519
-44.0765
-44.2054
-44.3828
-44.5523
-44.5921
-44.4529
-44.6114
-44.6576
-44.676
-44.8748
-44.9384
-45.0801
-45.2578
-45.2917
-45.5895
-45.6872
-45.9003
-45.5946
-45.6427
-45.9724
-46.0039
-46.1762
-46.2676
-46.4338
-46.5077
-46.5264
-46.6031
-47.0722
-47.2524
-47.5847
-47.2303
-47.0189
-47.7791
-48.1143
-48.1903
-48.437
-48.516
-48.6914
-49.0453
-49.0259
-49.3767
-49.5502
-49.4324
-49.7979
-49.3776
-49.7106
-49.9245
-50.8412
-51.3378
-51.2207
-51.42
-51.5741
-51.8498
-51.4291
-51.426
-52.0919
-52.5248
-52.3734
-52.7028
-52.5008
-53.4839
-53.8394
-55.6696
-55.4947
-56.0815
-56.1092
-55.8362
-55.9187
-56.0397
-55.6967
-55.7258
-55.9306
-56.4634
-56.193
-56.2978
-53.7251
-58.2594
-57.4294
-59.4209
-59.3302
-58.5532
-58.4632
-58.7216
-59.206
-59.4698
-59.2834
-59.1611
-59.5393
-60.295
-60.4266
-60.2222
-60.6563
-58.5205
-59.9069
-60.7336
-62.595
-61.4226
-61.5941
-62.309
-62.7992
-63.4213
-63.4201
-63.436
-63.4331
-63.5387
-64.1106
-64.0536
-63.4586
-63.0365
-62.2788
-59.8468
-61.18
-62.7674
-62.8017
-62.1998
-62.0332
-62.6242
-63.0359
-63.6777
-63.8012
-63.8796
-63.9244
-64.0971
-64.1967
-63.8342
-63.4647
-63.3561
-62.9436
-62.407
-59.7483
-61.2471
-61.9481
-62.1379
-62.3983
-62.4119
-62.5392
-63.0526
-63.3234
-63.4331
-63.4771
-62.9431
-62.8886
-63.2009
-63.2995
-63.1575
-62.8814
-62.7291
-62.452
-62.4282
-59.59
-61.9859
-62.962
-62.4949
-62.5298
-62.7371
-63.0564
-63.2328
-63.304
-63.5153
-63.5472
-63.0744
-62.8761
-62.9126
-62.7367
-62.565
-62.5645
-62.4727
-62.5358
-62.5323
-62.5408
-40.1664
-40.2916
-40.2563
-40.2527
-40.4662
-40.4942
-40.4709
-40.3955
-40.4203
-40.6867
-40.7548
-40.5759
-40.5961
-40.5529
-40.596
-40.8577
-40.8193
-40.7749
-40.8014
-40.773
-40.6349
-40.6948
-41.1193
-41.0469
-41.0725
-41.0349
-40.9833
-41.024
-40.9838
-40.8476
-41.4155
-41.3866
-41.3637
-41.2437
-41.2678
-41.2704
-41.1693
-41.2892
-41.2154
-41.5925
-41.6134
-41.6467
-41.6536
-41.6305
-41.6023
-41.663
-41.6784
-41.6694
-41.5647
-42.0764
-42.0128
-41.9582
-42.0619
-42.0346
-42.0668
-41.9568
-42.1023
-42.2411
-42.1792
-42.4611
-42.4846
-42.5004
-42.5007
-42.5765
-42.6207
-42.7329
-42.8395
-42.854
-42.993
-42.7975
-42.9529
-43.0128
-43.1371
-43.0002
-43.2017
-43.2599
-43.3375
-43.5106
-43.5225
-43.7759
-43.8034
-43.607
-43.7079
-43.7793
-43.7503
-43.7938
-43.8903
-44.0333
-44.0627
-44.1905
-44.3496
-44.551
-44.6358
-44.8279
-44.5678
-44.5664
-44.6776
-44.7307
-44.9047
-45.0196
-45.114
-45.2371
-45.2371
-45.52
-45.7115
-45.9625
-45.9611
-45.6319
-45.5734
-45.8627
-46.0727
-46.1564
-46.3443
-46.4337
-46.4585
-46.7236
-46.9866
-46.6781
-47.4798
-47.5056
-47.6358
-47.271
-47.3479
-47.5696
-48.1988
-48.4832
-48.3998
-48.3803
-48.6289
-48.9822
-49.0319
-49.3273
-49.427
-49.5026
-49.5032
-49.8566
-49.2421
-49.7582
-50.2266
-50.6209
-51.2851
-51.2385
-51.4255
-51.621
-51.6734
-51.7379
-51.8358
-52.0588
-52.3941
-52.5262
-52.5919
-52.7295
-52.1314
-53.6485
-53.3861
-55.1627
-55.2415
-55.9344
-55.9958
-55.771
-55.7564
-56.0293
-55.6478
-55.7468
-55.9438
-55.9763
-56.2742
-56.2897
-55.9872
-54.1362
-57.1727
-57.0345
-58.7586
-59.1022
-58.5828
-58.4378
-58.6673
-59.3446
-59.4229
-59.6083
-59.4434
-60.3209
-60.2486
-60.585
-60.0954
-60.2833
-60.0633
-58.1892
-59.0364
-60.1531
-62.37
-61.384
-61.4842
-62.3785
-62.9341
-63.671
-63.6828
-63.8971
-63.8248
-63.6867
-64.162
-64.0163
-63.3007
-62.7884
-62.0335
-61.1305
-59.1543
-60.6813
-62.006
-62.2969
-61.9822
-61.8635
-62.6625
-63.2077
-63.7973
-63.9235
-63.9144
-63.8045
-63.8775
-64.096
-63.763
-63.3507
-63.2653
-62.8817
-62.3372
-62.137
-59.497
-61.0689
-61.8206
-62.0295
-62.3213
-62.3617
-62.5107
-63.0268
-63.2968
-63.3975
-63.4148
-62.888
-62.8726
-63.1952
-63.2672
-63.1177
-62.8653
-62.7143
-62.379
-62.3913
-62.2669
-59.5855
-61.9732
-62.9628
-62.5118
-62.5349
-62.7473
-63.0611
-63.2194
-63.2941
-63.5064
-63.5332
-63.0664
-62.8708
-62.9126
-62.7452
-62.5728
-62.5577
-62.4596
-62.5261
-62.5316
-62.5267
-62.4054
-40.0886
-40.1816
-40.165
-40.1592
-40.3025
-40.2708
-40.3029
-40.238
-40.2928
-40.4436
-40.5477
-40.4861
-40.4729
-40.4292
-40.4631
-40.6892
-40.6952
-40.6344
-40.6424
-40.638
-40.5222
-40.5268
-40.8748
-40.83
-40.8361
-40.808
-40.7807
-40.7929
-40.8437
-40.6745
-41.0898
-41.1019
-41.0726
-41.0194
-41.0555
-41.0748
-41.016
-40.9969
-40.9333
-41.375
-41.4039
-41.3543
-41.3157
-41.2973
-41.2733
-41.316
-41.2982
-41.3088
-41.2272
-41.6769
-41.6171
-41.6133
-41.685
-41.6666
-41.7074
-41.6728
-41.7254
-41.7862
-41.7542
-41.6556
-42.1538
-42.0933
-42.1012
-42.0491
-42.0551
-42.1152
-42.2273
-42.2502
-42.2621
-42.3907
-42.2268
-42.5958
-42.5849
-42.5865
-42.5398
-42.5719
-42.6836
-42.764
-42.9115
-42.8654
-43.0149
-43.1558
-42.9151
-42.9938
-43.05
-43.1338
-43.139
-43.1634
-43.3219
-43.3849
-43.5106
-43.6446
-43.721
-43.8516
-43.9165
-43.7607
-43.6782
-43.7505
-43.6979
-43.8775
-43.8874
-44.0418
-44.1354
-44.1622
-44.4063
-44.5105
-44.6198
-44.8423
-44.9489
-44.5889
-44.556
-44.4838
-44.8091
-44.8431
-44.9767
-45.078
-45.0867
-45.3248
-45.551
-45.6599
-45.9137
-46.047
-46.1381
-45.7294
-45.7598
-45.9036
-46.0397
-46.0988
-46.3299
-46.3609
-46.5156
-46.5498
-46.9485
-47.4054
-47.3558
-47.5112
-47.6772
-47.7293
-47.1178
-47.4902
-47.7467
-48.2087
-48.4806
-48.5153
-48.4126
-48.5101
-48.8229
-48.9349
-49.2075
-49.3924
-49.4994
-49.3101
-49.787
-49.9178
-49.2259
-49.3655
-50.3682
-50.3143
-51.0249
-51.1078
-51.4033
-51.5706
-51.8066
-51.8029
-52.0066
-52.1665
-52.2666
-52.5185
-52.4879
-52.7386
-52.544
-52.9997
-53.2531
-53.0343
-54.8873
-54.9109
-55.5796
-55.8343
-55.5948
-55.6678
-55.9442
-55.471
-55.6442
-56.2275
-56.1041
-56.3659
-56.2819
-56.0989
-55.6489
-54.5184
-56.3252
-56.6603
-58.5603
-58.905
-58.6022
-58.3425
-58.8111
-59.635
-59.4414
-59.6622
-60.1438
-60.8509
-60.4556
-60.6274
-60.1469
-59.7849
-59.7052
-59.0467
-58.089
-58.6489
-59.8392
-62.1679
-61.367
-61.3213
-62.4182
-63.1977
-63.9321
-64.0652
-63.9392
-63.8639
-63.8086
-64.1892
-63.9787
-63.132
-62.6019
-61.801
-60.9241
-60.4416
-58.761
-60.271
-61.2094
-61.8566
-61.719
-61.7361
-62.6449
-63.3178
-63.7999
-63.9174
-63.7547
-63.578
-63.6496
-63.9549
-63.6592
-63.2382
-63.1452
-62.8048
-62.3049
-62.0812
-62.1079
-59.3527
-60.93
-61.7383
-61.9378
-62.2386
-62.3047
-62.4754
-62.9981
-63.2674
-63.3591
-63.3538
-62.8297
-62.8606
-63.1891
-63.2151
-63.094
-62.8329
-62.705
-62.3203
-62.3666
-62.2423
-62.1202
-59.5966
-61.9714
-62.9617
-62.5353
-62.5398
-62.7509
-63.0612
-63.2057
-63.2857
-63.4974
-63.5188
-63.0527
-62.8668
-62.9124
-62.753
-62.5837
-62.553
-62.4459
-62.5144
-62.5378
-62.5066
-62.4059
-62.456
-40.0052
-40.1305
-40.0901
-40.1137
-40.2226
-40.1997
-40.2159
-40.1875
-40.187
-40.3097
-40.3043
-40.3505
-40.3382
-40.2733
-40.2432
-40.4508
-40.4851
-40.5767
-40.434
-40.4748
-40.4327
-40.4117
-40.6652
-40.6863
-40.6856
-40.6364
-40.6648
-40.6894
-40.6692
-40.5587
-40.8486
-40.8726
-40.8264
-40.8166
-40.835
-40.8029
-40.8298
-40.7606
-40.7201
-41.1302
-41.1091
-41.0575
-41.0918
-41.061
-41.0694
-41.0992
-41.0922
-41.0379
-40.9642
-41.4039
-41.3471
-41.3802
-41.3833
-41.3438
-41.3106
-41.3476
-41.4123
-41.4375
-41.4017
-41.3119
-41.657
-41.7126
-41.696
-41.709
-41.6583
-41.7067
-41.7438
-41.8107
-41.8143
-41.9094
-41.7832
-41.787
-42.1354
-42.1559
-42.1362
-42.1357
-42.0854
-42.1404
-42.2102
-42.2364
-42.3521
-42.3855
-42.4442
-42.3678
-42.5212
-42.5978
-42.5997
-42.6475
-42.597
-42.7222
-42.8331
-42.8311
-42.9656
-43.0267
-43.1717
-43.1541
-43.0685
-43.0218
-43.0637
-43.0659
-43.2444
-43.2447
-43.2645
-43.3839
-43.3127
-43.6733
-43.737
-43.7171
-43.9541
-44.119
-43.9337
-43.7676
-43.7665
-43.6551
-43.8577
-43.9081
-44.0215
-44.0977
-44.2261
-44.3046
-44.5351
-44.6568
-44.7941
-45.0624
-45.1027
-44.5908
-44.7323
-44.6294
-44.8082
-44.8709
-44.9623
-45.036
-45.1524
-45.2665
-45.4468
-45.7884
-45.9463
-46.0213
-46.1315
-46.2261
-45.7153
-45.9024
-46.0882
-46.0625
-46.2834
-46.3631
-46.4023
-46.4761
-46.7012
-46.8302
-47.3077
-47.3891
-47.5335
-47.6528
-47.797
-47.9091
-47.059
-47.4062
-47.7044
-48.2406
-48.5554
-48.4891
-48.5101
-48.5324
-48.7474
-48.9331
-49.087
-49.3643
-49.5044
-49.7855
-49.7253
-49.9367
-49.9975
-49.1356
-49.3162
-50.3132
-50.5269
-51.2467
-51.0268
-51.4079
-51.5686
-51.8482
-51.9162
-52.0175
-52.407
-52.0252
-51.9914
-52.5791
-52.803
-52.4653
-52.6863
-52.9881
-52.8247
-53.3057
-54.826
-54.7066
-56.0447
-55.5707
-55.7066
-55.6345
-55.5857
-55.5346
-55.7152
-56.1126
-56.3748
-56.4027
-56.3312
-56.208
-55.4242
-55.2829
-54.7989
-56.0053
-56.4448
-58.3664
-58.7257
-58.5776
-58.2477
-58.9068
-59.659
-59.9538
-60.4903
-60.6193
-61.2527
-60.8624
-60.2779
-59.9247
-59.5813
-59.251
-58.7549
-58.0365
-58.0149
-58.2188
-59.3878
-61.9051
-61.4717
-61.4563
-62.4121
-63.3204
-64.0581
-64.3416
-63.9095
-63.8052
-63.8774
-64.1164
-63.8043
-63.0397
-62.4444
-61.6581
-60.7375
-60.2688
-60.0998
-58.4261
-59.8252
-60.6003
-61.5496
-61.4843
-61.5994
-62.629
-63.3857
-63.7597
-63.8424
-63.6009
-63.3426
-63.4443
-63.8098
-63.5043
-63.1047
-62.9827
-62.6914
-62.2658
-62.0613
-62.1617
-61.9939
-59.3018
-60.8291
-61.6964
-61.8711
-62.1564
-62.2449
-62.4386
-62.9649
-63.234
-63.3156
-63.2902
-62.7694
-62.8553
-63.1859
-63.1603
-63.0654
-62.7736
-62.6865
-62.2723
-62.3483
-62.216
-62.1154
-62.6561
-59.6375
-61.9842
-62.9577
-62.5621
-62.5529
-62.7583
-63.0583
-63.1909
-63.2784
-63.4908
-63.5031
-63.0402
-62.8631
-62.912
-62.7557
-62.5971
-62.5542
-62.4297
-62.5019
-62.5245
-62.4854
-62.408
-62.4602
-62.4307
-39.9049
-40.0326
-40.0476
-40.0057
-40.1612
-40.1555
-40.0438
-40.0922
-40.0423
-40.212
-40.2561
-40.198
-40.234
-40.2124
-40.1567
-40.33
-40.301
-40.2844
-40.3361
-40.3604
-40.3387
-40.2809
-40.467
-40.4683
-40.5932
-40.506
-40.4915
-40.5963
-40.4106
-40.392
-40.6669
-40.6916
-40.664
-40.7172
-40.6576
-40.7552
-40.7337
-40.5949
-40.6044
-40.924
-40.8387
-40.8874
-40.867
-40.8241
-40.7901
-40.8619
-40.9169
-40.8152
-40.7428
-41.2183
-41.1654
-41.1329
-41.1166
-41.0828
-41.0748
-41.0896
-41.1418
-41.2147
-41.1269
-41.0367
-41.4195
-41.42
-41.4424
-41.3906
-41.3746
-41.3062
-41.3648
-41.425
-41.5107
-41.5536
-41.4814
-41.4159
-41.6688
-41.668
-41.7143
-41.6793
-41.7057
-41.7398
-41.7897
-41.7853
-41.9092
-41.9446
-41.9634
-41.9218
-41.7884
-42.1268
-42.1218
-42.1689
-42.0877
-42.1583
-42.189
-42.1864
-42.225
-42.3554
-42.4012
-42.4846
-42.6139
-42.4751
-42.5775
-42.5238
-42.6423
-42.6462
-42.6808
-42.6876
-42.806
-42.8421
-42.9437
-42.9804
-43.1555
-43.1795
-43.5037
-43.2153
-43.1029
-43.0557
-43.1496
-43.1812
-43.2215
-43.3094
-43.3849
-43.549
-43.5286
-43.7228
-43.8827
-43.9923
-44.1706
-44.1958
-43.9771
-43.7732
-43.7963
-43.7669
-43.8293
-43.9111
-44.0603
-44.0832
-44.2558
-44.3098
-44.5445
-44.6248
-44.8738
-44.9759
-45.0508
-45.2457
-44.6054
-44.7242
-44.6641
-44.8946
-44.931
-45.0213
-45.082
-45.1968
-45.3851
-45.4467
-45.8376
-45.8683
-45.9634
-46.1397
-46.2241
-46.4219
-45.7861
-45.8293
-46.0764
-46.0328
-46.3179
-46.4604
-46.4451
-46.5648
-46.614
-46.826
-47.1577
-47.3705
-47.4195
-47.6348
-47.8715
-47.9803
-48.0662
-47.1776
-47.6409
-47.8102
-48.339
-48.4891
-48.5914
-48.4372
-48.7411
-48.7919
-48.819
-49.1159
-49.331
-49.4898
-49.6408
-49.6548
-49.8539
-49.8448
-49.7154
-48.6743
-49.3825
-50.3877
-50.4298
-51.1755
-50.9129
-51.2655
-51.5675
-51.7455
-51.9947
-52.3414
-52.2824
-52.2872
-51.9934
-52.5538
-52.5777
-52.6708
-52.5558
-52.5005
-52.5445
-52.4826
-53.3027
-54.3972
-54.5342
-55.8803
-55.3679
-55.5943
-55.5525
-55.8326
-55.5412
-55.8773
-56.0807
-56.3993
-56.411
-56.367
-55.9238
-55.5681
-55.1396
-55.0532
-54.8978
-55.547
-56.3154
-58.1412
-58.5025
-58.5621
-58.3589
-58.9574
-59.8677
-60.5393
-61.03
-61.1903
-61.5346
-61.0492
-60.3865
-59.7905
-59.3492
-59.0028
-58.5176
-57.6748
-57.3809
-57.5348
-57.9678
-59.0502
-61.584
-61.0809
-61.4035
-62.3539
-63.2546
-64.0859
-64.423
-64.2919
-63.6132
-63.9429
-64.1679
-63.5724
-62.8732
-62.164
-61.4803
-60.6003
-60.2278
-60.176
-60.0903
-58.0865
-59.3895
-60.1334
-61.2649
-61.3063
-61.4721
-62.6604
-63.39
-63.6735
-63.714
-63.4553
-63.1202
-63.2635
-63.6865
-63.3267
-62.9404
-62.779
-62.5982
-62.2415
-62.0449
-62.1603
-62.0791
-61.5897
-59.2905
-60.8121
-61.6615
-61.7883
-62.0812
-62.1943
-62.39
-62.9269
-63.1962
-63.2687
-63.221
-62.7112
-62.85
-63.1703
-63.105
-62.9766
-62.6917
-62.6333
-62.2475
-62.3431
-62.1779
-62.1057
-62.6468
-61.9717
-62.0021
-62.9495
-62.5875
-62.5724
-62.7541
-63.0515
-63.175
-63.2719
-63.4784
-63.4866
-63.0304
-62.8586
-62.9119
-62.7521
-62.5985
-62.5575
-62.4092
-62.4889
-62.5153
-62.4746
-62.4083
-62.4615
-62.4085
-62.3557
-39.8781
-39.8666
-39.8723
-39.9964
-40.0863
-40.0664
-40.0633
-40.0138
-40.0807
-40.1578
-40.0169
-40.1071
-40.0682
-40.0498
-40.2422
-40.1816
-40.163
-40.3118
-40.3083
-40.2715
-40.1932
-40.3599
-40.3558
-40.2379
-40.498
-40.3352
-40.4332
-40.382
-40.3858
-40.4876
-40.4945
-40.4915
-40.5976
-40.4806
-40.5102
-40.6229
-40.4251
-40.4738
-40.7079
-40.6815
-40.7282
-40.744
-40.6963
-40.6031
-40.7361
-40.7718
-40.6644
-40.6321
-40.9357
-40.9595
-40.9312
-40.8679
-40.8706
-40.8787
-40.8704
-40.9325
-41.0278
-40.9204
-40.8525
-41.2107
-41.2535
-41.1508
-41.1111
-41.1395
-41.1312
-41.1467
-41.1715
-41.2721
-41.3823
-41.1859
-41.1429
-41.401
-41.3802
-41.4453
-41.3623
-41.3992
-41.4623
-41.3844
-41.4497
-41.5148
-41.6168
-41.6711
-41.5968
-41.4319
-41.7196
-41.688
-41.7352
-41.701
-41.7031
-41.812
-41.7678
-41.8652
-41.8564
-41.9399
-41.9586
-42.2421
-42.121
-41.9972
-42.1781
-42.1288
-42.2096
-42.1473
-42.2149
-42.2319
-42.2395
-42.4306
-42.3245
-42.3984
-42.5313
-42.6504
-42.9006
-42.6216
-42.6319
-42.5956
-42.6236
-42.6387
-42.6692
-42.7129
-42.7411
-42.9556
-43.0011
-43.0268
-43.1266
-43.2193
-43.5148
-43.5659
-43.422
-43.1084
-43.0908
-43.0647
-43.2031
-43.2289
-43.348
-43.3356
-43.5292
-43.6648
-43.8443
-43.7905
-43.9514
-44.1344
-44.2826
-44.4058
-44.1763
-43.797
-43.7708
-43.6819
-43.8288
-43.9611
-44.0379
-44.0686
-44.337
-44.3275
-44.5344
-44.7313
-44.8123
-44.8549
-45.142
-45.217
-45.4281
-44.6528
-44.6954
-44.4272
-44.8449
-44.9468
-44.977
-45.0893
-45.1949
-45.3794
-45.5933
-45.7266
-45.8759
-45.9288
-46.165
-46.2696
-46.3642
-46.4708
-45.8006
-45.8577
-46.1594
-45.988
-46.2835
-46.4218
-46.4438
-46.5495
-46.6932
-46.707
-47.049
-47.2452
-47.3446
-47.5368
-47.7972
-47.957
-47.9547
-48.1434
-47.1037
-47.6135
-47.8168
-48.2665
-48.5244
-48.5393
-48.4461
-48.6345
-48.812
-49.0335
-48.8987
-49.2523
-49.3131
-49.4565
-49.6746
-49.7807
-49.7254
-49.8728
-49.854
-48.5652
-49.2877
-50.2904
-50.4358
-51.0186
-51.0278
-51.46
-51.5159
-51.8543
-51.824
-51.7968
-52.0544
-52.1374
-52.628
-52.6224
-52.6512
-52.6531
-52.5026
-52.5261
-52.574
-52.2405
-52.3607
-53.3774