/*--------------------------------*- C++ -*----------------------------------*\
  =========                 |
  \\      /  F ield         | OpenFOAM: The Open Source CFD Toolbox
   \\    /   O peration     | Website:  https://openfoam.org
    \\  /    A nd           | Version:  7
     \\/     M anipulation  |
\*---------------------------------------------------------------------------*/
FoamFile
{
    version     2.0;
    format      ascii;
    class       surfaceScalarField;
    location    "4.5";
    object      phi;
}
// * * * * * * * * * * * * * * * * * * * * * * * * * * * * * * * * * * * * * //

dimensions      [0 3 -1 0 0 0 0];

internalField   nonuniform List<scalar> 
54095
(
0.000187624
-0.00161731
-6.51324e-05
0.000428102
-0.0012694
-8.25678e-05
0.000173958
-0.00171602
-7.52511e-05
0.000301673
0.000263073
-4.90849e-05
0.000588094
0.00254954
-0.000118212
0.000314811
-0.0013326
-7.7652e-05
0.00041176
-0.00183564
-2.0948e-05
0.000157182
-0.00178849
-8.47105e-05
0.000306324
-5.83411e-05
-6.01607e-05
-3.82475e-05
-0.000773733
-2.35042e-05
0.000463674
0.00952407
0.000493801
0.000469457
0.00263164
-0.000236753
0.000768006
0.00261133
7.91095e-05
0.000243486
-0.00134582
-7.30882e-05
0.000347308
-0.00193398
-2.02939e-05
-4.50733e-05
-0.000477062
9.31779e-06
0.000139221
-0.0018368
-9.09156e-05
0.000289252
-0.000361044
-7.126e-05
-4.60032e-05
-0.000764419
-2.34716e-05
-5.5492e-05
-0.00038843
-2.49588e-05
0.000245673
0.00773311
0.000631895
0.000638213
0.00893467
0.000420644
0.00113988
0.00420388
0.000114099
0.00043128
0.00272143
-0.000277585
0.000617588
0.00210977
-5.46953e-06
-4.09246e-06
0.000936586
-5.48635e-05
0.000212608
-0.00135576
-6.34423e-05
0.000282195
-0.0019717
-2.83148e-05
-4.23827e-05
-0.000501036
5.93281e-08
-3.9447e-05
-0.00011689
-1.26523e-05
0.000121308
-0.00186505
-9.30538e-05
0.000254202
-0.000626261
-7.98999e-05
-4.88316e-05
-0.000763014
-2.38335e-05
-5.7981e-05
-0.000328891
-2.50292e-05
-9.01936e-06
5.30571e-05
-6.6359e-05
-0.000632922
0.00608878
0.00037606
0.000225983
0.00732969
0.000815656
0.000706571
0.00647281
0.00156491
0.000575845
0.00841259
0.000377517
0.000982345
0.00421251
4.72571e-05
0.000279728
0.00319025
-0.00028535
0.000437893
0.00276309
-0.000266937
0.000494782
0.00173684
-0.000117242
1.69259e-05
0.000998379
-0.000126571
-3.48948e-05
0.00067359
-0.000280771
0.000188858
-0.00137107
-5.22406e-05
0.00022033
-0.00197738
-2.38822e-05
-3.17012e-05
-0.000531627
-1.48541e-05
-3.39478e-05
-0.000124508
-1.63553e-05
3.94444e-06
-0.000308518
8.24412e-06
0.000103823
-0.00187619
-9.26787e-05
0.000213021
-0.000847269
-8.50667e-05
-4.96219e-05
-0.000769065
-2.42277e-05
-6.04236e-05
-0.000267166
-2.51351e-05
-1.31457e-05
0.000108493
-6.73191e-05
-2.19087e-05
0.000412163
-0.000111102
-0.00120253
0.00653557
0.000193789
-0.000674464
0.00660122
0.000388012
-0.000116482
0.00856875
0.00101384
-0.000134604
0.00715129
0.000888844
0.000422518
0.00629053
0.00155777
0.000499583
0.00663761
0.00153
0.000450362
0.00803771
0.000362415
0.000842208
0.00426537
-2.27692e-05
0.000198014
0.00335542
-0.000299001
8.62642e-06
0.00205208
-0.000312222
0.000404241
0.00277569
-0.000227991
0.000466139
0.00140338
-0.000179286
5.90956e-05
0.00101591
-0.000225574
-1.36927e-05
0.000844982
-0.000318218
-1.60165e-05
-0.000107935
-0.000280709
0.000162969
-0.00138967
-4.05463e-05
0.000167048
-0.00196837
-1.52851e-05
-2.85631e-05
-0.000554633
-2.19348e-05
-3.45498e-05
-0.000141102
-2.41339e-05
-1.82843e-05
-0.000333362
1.36274e-05
-2.4033e-05
-8.11571e-05
-0.000100863
8.63874e-05
-0.00187158
-9.09985e-05
0.000171527
-0.00102349
-8.79892e-05
-5.08676e-05
-0.000778427
-2.48369e-05
-6.19859e-05
-0.000204129
-2.52786e-05
-1.43694e-05
0.000166112
-6.83849e-05
-2.44008e-05
0.000480213
-0.000110968
4.05413e-06
0.000283079
-0.000125603
-0.00149334
0.00419253
0.000288557
-0.00119936
0.00690498
0.000155488
-0.000756521
0.00725159
0.000648546
-0.000814757
0.0068879
0.000393471
-0.000428111
0.00877302
0.00103438
0.000203155
0.00813262
0.00117272
-0.000489837
0.00728816
0.000803328
0.000199823
0.00630737
0.00151438
0.00038419
0.00649476
0.00151444
0.000337531
0.00500359
0.00115248
6.99653e-05
0.00800979
0.000362192
0.00088106
0.0042592
-4.63329e-05
0.000189415
0.00345024
-0.000247906
5.46898e-05
0.0020013
-0.000316597
-0.000192515
0.00202365
2.55471e-06
0.000306245
0.00281273
-0.000180315
0.000454776
0.00111078
-0.000223119
6.09675e-05
0.0010398
-0.000292702
-2.77868e-06
0.000949024
-0.000361387
-3.56937e-05
-0.000125415
-0.000283329
-0.000170758
-9.05098e-05
-0.000273346
0.000131346
-0.00140529
-2.9341e-05
0.000112156
-0.00194381
-5.72916e-06
-3.49354e-05
-0.000562043
-2.38066e-05
-3.25226e-05
-0.000153773
-3.87279e-05
-5.12137e-05
-0.000333573
1.29206e-05
-2.39747e-05
2.9166e-05
-9.71218e-05
2.01824e-05
-0.000164163
-0.000203512
6.88911e-05
-0.00185157
-8.88996e-05
0.000133618
-0.00115844
-8.96665e-05
-5.15888e-05
-0.000789285
-2.55423e-05
-6.27841e-05
-0.000140353
-2.58287e-05
-1.26436e-05
0.000223142
-6.96647e-05
-2.56475e-05
0.000548275
-0.0001108
1.6608e-06
0.000293357
-0.000122907
1.19e-06
-0.00014387
-0.000120011
-0.00139124
0.00389076
4.95959e-05
-0.00158952
0.00428766
0.000295035
-0.000675217
0.00576493
0.000450772
-0.00113344
0.00697034
0.00025332
-0.000866585
0.00728602
0.000559533
-0.000242388
0.00768793
0.00104928
-0.000936137
0.00689272
0.000441483
-0.000586795
0.00892382
0.00102928
0.0002516
0.00813156
0.00116803
0.000150683
0.00694394
0.00132189
-0.00120693
0.00782568
0.000739373
0.00012737
0.0062467
0.00161768
0.000308756
0.00637701
0.0015128
0.000283414
0.00513659
0.00115272
0.000114789
0.00524837
0.000766919
-0.000140474
0.00795827
0.00049824
0.000908018
0.00422463
-5.6483e-05
0.000188752
0.00341918
-0.000143052
9.30829e-05
0.00192029
-0.000262762
-0.000270354
0.00201093
-6.92173e-05
-0.000449159
0.0029785
0.000299776
0.000344433
0.00272954
-0.000129892
0.000300921
0.00098351
-0.000241812
0.000111491
0.00102156
-0.000351305
1.14746e-06
0.00100233
-0.000379674
-9.74422e-05
-0.000146797
-0.000293777
-0.000150312
1.84446e-05
-0.000265946
-0.000155205
-0.000355701
-0.000303226
8.45039e-05
-0.00140208
-1.8823e-05
4.60162e-05
-0.00188769
2.13731e-06
-4.27755e-05
-0.000553331
-2.32545e-05
-3.80201e-05
-0.000150931
-5.1412e-05
-8.34242e-05
-0.000306022
4.50172e-06
-3.12666e-05
0.000139734
-9.20284e-05
7.14953e-06
-6.36793e-05
-0.000203094
4.30884e-05
0.000345751
-0.000227076
5.12899e-05
-0.00181584
-8.70219e-05
0.000101149
-0.00125762
-9.08602e-05
-5.25483e-05
-0.000799735
-2.66681e-05
-6.25213e-05
-7.66076e-05
-2.67665e-05
-8.68888e-06
0.000277454
-7.14525e-05
-2.57498e-05
0.000614962
-0.000110602
-9.59022e-07
0.000303542
-0.000120026
-4.44672e-06
-0.00014706
-0.000115271
7.34079e-06
-4.93222e-05
-0.000123973
-0.00132809
0.00429715
-8.39584e-05
-0.00149861
0.00373099
6.8856e-05
-0.000806125
0.00516283
0.000187786
-0.00162892
0.00458347
0.000199663
-0.000703173
0.00546758
0.000428974
-0.000189306
0.00629938
0.000564725
-0.000957499
0.00679127
0.000200436
-0.00109657
0.00747269
0.000576422
-0.000277985
0.00764988
0.00112716
-0.000174111
0.00702209
0.00125587
-0.00131674
0.00642729
0.000575244
-0.000712361
0.00907603
0.00112901
0.000221215
0.00791249
0.00133589
0.000135144
0.00689495
0.0013653
6.36245e-05
0.0066607
0.00130222
-0.00142971
0.00813539
0.000979536
0.000160719
0.00603271
0.00170066
0.00028291
0.0063543
0.00154623
0.000494908
0.00507307
0.00117449
5.00156e-05
0.00529663
0.000784082
-0.000183466
0.00549704
0.000601874
3.76468e-06
0.00768906
0.000609884
0.000475684
0.00436443
0.000183686
0.000219356
0.00335083
-9.60047e-05
-1.11115e-05
0.00200434
-0.000214846
-0.000357494
0.00216683
-0.000158613
-0.000507405
0.00308584
0.000180534
-0.000414597
0.00339269
0.000263658
0.000329135
0.00254282
-5.79149e-05
3.9903e-05
0.00109977
-0.00024004
9.69728e-05
0.00102699
-0.00038699
-9.0626e-06
0.000989825
-0.000367761
-0.000174266
-0.000147031
-0.000288597
-0.000110564
5.05712e-05
-0.000246606
-0.000123777
-0.000216201
-0.000274519
-6.99676e-05
0.000700662
-0.0003649
2.94224e-05
-0.00137201
-8.20325e-06
-1.6129e-05
-0.00179661
7.3771e-06
-5.41948e-05
-0.000526547
-2.30009e-05
-4.16845e-05
-0.000132507
-6.2516e-05
-0.000104813
-0.000258834
-2.47541e-06
-3.63539e-05
0.00024233
-8.74904e-05
-2.34265e-06
4.17924e-05
-0.000196116
3.36714e-05
0.000320974
-0.000216435
8.12104e-05
0.000465706
-0.000219699
3.46488e-05
-0.00176452
-8.59694e-05
7.6227e-05
-0.00132872
-9.2153e-05
-5.34656e-05
-0.000809265
-2.78648e-05
-6.06128e-05
-1.43459e-05
-2.8317e-05
-3.24903e-06
0.000327705
-7.37681e-05
-2.47877e-05
0.000678703
-0.000110406
-3.56579e-06
0.0003135
-0.000116994
-1.03073e-05
-0.000146175
-0.000110604
4.17128e-06
-4.85435e-05
-0.000120221
3.90084e-06
0.000277228
-0.000128062
-0.00144849
0.00373468
1.93433e-05
-0.00145046
0.00429864
-4.96331e-05
-0.00102223
0.00499067
6.34294e-05
-0.0015532
0.00360616
4.91163e-05
-0.000878733
0.00523787
0.00016938
-0.000330295
0.0054271
0.000291022
-0.00148112
0.00497695
0.000130143
-0.000990252
0.00527167
0.000289251
-0.000439135
0.00637767
0.000511838
-0.000279781
0.00635991
0.000695706
-0.000980807
0.00629031
0.000165029
-0.0011431
0.00764656
0.000457311
-0.000167071
0.00755397
0.00106063
-7.90008e-05
0.00707823
0.00128517
-0.000178602
0.0069146
0.00126822
-0.00165187
0.00596773
0.000681708
-0.000679204
0.00906635
0.00142485
8.91007e-05
0.00782647
0.00140884
0.000204962
0.00701351
0.00150727
7.18394e-05
0.00664444
0.00135973
-0.000221569
0.00680624
0.00115064
-0.00133998
0.00858631
0.000892828
3.80223e-05
0.00603507
0.00141484
0.000241594
0.00646879
0.00156393
0.000230997
0.0051927
0.0011845
-0.000126339
0.00537552
0.00086445
-0.00023216
0.00538701
0.00061887
-0.000296413
0.00554435
0.000513015
0.000225119
0.00719274
0.000600331
-0.00021104
0.00484943
0.000375825
3.12866e-05
0.00350323
9.69757e-05
-2.62154e-05
0.00204569
-0.000120195
-0.000475214
0.00243881
-0.000185877
-0.000450058
0.0032057
6.10154e-05
-0.000350537
0.00363749
0.000162489
-0.000214671
0.00339415
0.000208428
-4.13905e-05
0.00261912
-5.48767e-06
-0.000116735
0.00134151
-0.000199051
7.25172e-05
0.00107123
-0.000410996
-2.73307e-05
0.000919091
-0.00033061
-0.000240506
-0.000129364
-0.000249736
-0.000105393
5.57506e-05
-0.000224738
-0.00011119
-0.000119901
-0.000234058
-5.24597e-05
0.000823518
-0.000311244
6.23158e-05
0.00156393
-0.000358063
-3.05348e-05
-0.00130828
1.46015e-06
-6.52206e-05
-0.00167508
1.17122e-05
-7.06212e-05
-0.000479053
-2.29606e-05
-4.48771e-05
-9.81859e-05
-7.30574e-05
-0.000118993
-0.000193943
-1.16628e-05
-3.84451e-05
0.000334523
-8.10105e-05
-8.86202e-06
0.000142778
-0.00018318
2.25595e-05
0.000294975
-0.000202984
6.70353e-05
0.000391668
-0.000205261
6.22524e-05
0.000433771
-0.00022714
1.76766e-05
-0.001697
-8.52021e-05
5.83618e-05
-0.00137901
-9.40403e-05
-5.42792e-05
-0.000817985
-2.91541e-05
-5.77133e-05
4.55658e-05
-3.00633e-05
2.95372e-06
0.000372953
-7.65185e-05
-2.30155e-05
0.000738178
-0.000110227
-5.79649e-06
0.000322753
-0.000113862
-1.63096e-05
-0.000140861
-0.000105998
-9.46274e-07
-4.15054e-05
-0.000116696
-2.3315e-06
0.000285735
-0.000126396
-5.17372e-06
-0.000181133
-0.000122899
-0.00152692
0.00334017
2.59218e-05
-0.00328767
-0.00146374
0.00372657
2.13917e-05
-0.00121832
0.00449055
0.000150754
-0.0014265
0.00421746
-4.55326e-05
-0.00110632
0.00505751
0.000111119
-0.000718331
0.00524179
0.000246904
-0.0015769
0.00357017
0.000131767
-0.000921754
0.00511881
9.96714e-05
-0.000453385
0.0053774
0.000233331
-0.000435064
0.00544732
0.000393372
-0.00140422
0.00521262
0.00018775
-0.000972127
0.00506927
0.000161576
-0.000371931
0.00638214
0.000489637
-0.000406436
0.00646734
0.000731844
-0.000254348
0.00678806
0.000794243
-0.00116584
0.00591995
-0.000115665
-0.00125535
0.00797923
0.000408503
-0.000398229
0.00753646
0.000962147
-0.00016963
0.00732929
0.00118416
-0.000179361
0.00729038
0.00116059
-0.000327203
0.00755463
0.0011186
-0.00165441
0.00555924
0.00072291
-0.000430381
0.00865646
0.00156
8.0456e-05
0.00785884
0.00155361
-2.35958e-05
0.00713523
0.00154171
-0.000189258
0.006848
0.00136663
-0.000245559
0.00700928
0.00117008
-0.000332773
0.00733001
0.0009701
-0.000947628
0.00878112
0.000977934
-0.000455866
0.00603111
0.00114162
-3.1705e-05
0.00662874
0.00131788
0.000141098
0.00542787
0.00116144
-0.00020858
0.00544194
0.000851446
-0.000299567
0.0054004
0.000700561
-0.000303019
0.0055651
0.000550595
-0.000184741
0.00568367
0.000558336
-0.000564375
0.00710356
0.000612165
-0.000393654
0.00521203
0.000514645
-7.06886e-05
0.00384228
0.000179974
-0.000193291
0.00239428
-8.56517e-05
-0.000503911
0.00275734
-0.000175316
-0.000450568
0.00333409
3.09083e-05
-0.000324698
0.00379085
0.000121166
-0.000193824
0.0034829
0.000215097
-0.000114632
0.00363004
0.000212178
-0.0001763
0.00272905
3.58394e-05
-0.00032429
0.00175465
-0.000159552
-7.39952e-05
0.00128374
-0.000408185
-3.52828e-05
0.000800391
-0.000301891
-0.000282861
-0.000110508
-0.000185598
-6.98239e-05
3.22873e-05
-0.000194894
-9.42463e-05
-7.05025e-05
-0.000188752
-2.51357e-05
0.000899849
-0.000262694
5.43886e-05
0.00158213
-0.0003168
7.735e-05
0.00152476
-0.000291825
-9.84497e-05
-0.0012026
1.04371e-05
-0.000118303
-0.00151069
1.37333e-05
-7.77204e-05
-0.000422169
-2.17313e-05
-4.17293e-05
-5.71552e-05
-7.99752e-05
-0.000120718
-0.000113862
-2.94675e-05
-4.67113e-05
0.000421202
-7.46464e-05
-9.59437e-06
0.000231793
-0.000166228
9.10573e-06
0.000272005
-0.000185625
5.01063e-05
0.000329226
-0.000191595
3.50113e-05
0.000410753
-0.000219585
-1.17044e-05
0.000274067
-0.000214891
4.7012e-07
-0.00161207
-8.53923e-05
4.49601e-05
-0.00141264
-9.65347e-05
-5.53855e-05
-0.00082584
-3.08001e-05
-5.40759e-05
0.000102419
-3.19311e-05
8.91208e-06
0.000413476
-7.94988e-05
-1.92965e-05
0.00079111
-0.000110155
-7.81763e-06
0.00033104
-0.000110696
-2.20172e-05
-0.000131144
-0.000101561
-6.78198e-06
-2.74084e-05
-0.000113313
-6.06136e-06
0.000299972
-0.000124871
-8.82332e-06
-0.000175271
-0.000123435
-1.84586e-05
-0.000367852
-0.00012386
-0.00157306
0.00282236
2.9051e-05
-0.00280527
-0.00152894
0.00339465
1.07157e-05
-0.00138237
0.00397987
0.000131122
-0.00392101
-0.00179119
3.09417e-06
-0.00149645
0.00381694
-2.04113e-05
-0.00122612
0.00448646
0.000145278
-0.000829518
0.00468395
0.000335179
-0.00139138
0.0040607
-2.87523e-05
-0.000954015
0.00498691
5.733e-05
-0.000698624
0.0052724
0.00032575
-0.00077227
0.00524398
0.000399207
-0.00168925
0.00366753
0.00018766
-0.000835275
0.00491214
0.000201589
-0.000504421
0.00542335
0.000186214
-0.000532754
0.00548717
0.000319793
-0.000397741
0.00558871
0.000507841
-0.00136256
0.00504578
0.000363554
-0.00117788
0.00501302
0.000166533
-0.000688056
0.00648029
0.000353256
-0.00043484
0.00649051
0.000731681
-0.000373501
0.006888
0.000826045
-0.000317207
0.0069652
0.000893304
-0.0012125
0.00569175
-0.00021371
-0.00142493
0.00851506
0.000343054
-0.000504822
0.00757493
0.000955313
-0.000435778
0.00764688
0.00105673
-0.000347048
0.00753562
0.00109671
-0.000387085
0.00783653
0.00102021
-0.000213643
0.00784469
0.000934757
-0.00162395
0.00582077
0.000414794
-0.000355766
0.00798257
0.0012967
1.7672e-05
0.0080321
0.00133737
0.00022013
0.00708145
0.00152837
-0.000121867
0.00695831
0.00134469
-0.000104504
0.00709288
0.00108796
-0.000295623
0.00749614
0.000996557
-0.000294711
0.00778541
0.000906233
-0.00120509
0.00843667
0.000985163
-0.00104246
0.00658634
0.00107151
-0.000330943
0.00685263
0.00117798
-0.000295199
0.00578562
0.00106204
-0.000317992
0.00561289
0.00080457
-0.000339818
0.00545935
0.000681748
-0.00025095
0.00556103
0.000630881
-0.000278219
0.00569159
0.000627065
-1.11963e-05
0.00564564
0.000704874
-0.000782017
0.00709421
0.000615064
-0.000712094
0.00564098
0.00057102
-0.00028074
0.00418109
0.000382589
-0.000233034
0.00284122
-6.92198e-05
-0.000460789
0.00308556
-0.000235948
-0.000425147
0.00355272
-3.86182e-05
-0.000325672
0.00395417
9.90125e-05
-0.000185929
0.00361954
0.000145319
-0.000101296
0.00375486
0.000245958
-1.04245e-05
0.0037984
0.000254405
-0.000369686
0.00290574
9.45436e-05
-0.000519013
0.00227736
-8.6163e-05
-0.000147065
0.00158239
-0.000388854
-6.17549e-05
0.000715045
-0.000302812
-0.000302295
-0.000106563
-0.000124258
-3.49058e-05
-1.02761e-05
-0.00015484
-5.96562e-05
-7.10288e-05
-0.000144305
1.2706e-05
0.000920895
-0.000213398
7.2603e-05
0.00158944
-0.000292495
6.67784e-05
0.00145396
-0.000277765
-5.78679e-05
0.00186187
-0.000182567
-0.000172511
-0.00104777
1.81576e-05
-0.000151898
-0.00131769
1.4295e-05
-0.00010093
-0.000338242
-2.46487e-05
-3.33563e-05
-1.38261e-05
-8.57802e-05
-0.000109295
-3.20673e-05
-4.35627e-05
-4.83415e-05
0.000497345
-7.65655e-05
-7.15034e-06
0.000303894
-0.000147415
-4.10255e-06
0.000253147
-0.000165285
3.19757e-05
0.000281419
-0.000176576
2.78826e-05
0.000396839
-0.000211626
-3.90709e-06
0.000262529
-0.000212963
-4.2166e-05
-8.6823e-05
-0.000183928
-1.2055e-05
-0.00151439
-8.56255e-05
3.17523e-05
-0.00142962
-0.000100162
-5.60209e-05
-0.000832439
-3.39146e-05
-4.81615e-05
0.000153892
-3.41115e-05
1.44259e-05
0.000449747
-8.26278e-05
-1.63127e-05
0.000838018
-0.000110093
-8.8724e-06
0.000337341
-0.000107583
-2.72448e-05
-0.000117191
-9.74048e-05
-1.27685e-05
-6.14733e-06
-0.000110054
-8.85695e-06
0.000318827
-0.000123312
-1.08216e-05
-0.000165503
-0.000123818
-1.99125e-05
-0.000346213
-0.000125161
-3.62023e-06
-0.000234605
-0.000129148
-0.00155554
0.00278421
-4.49673e-07
-0.00280127
-0.00164423
0.00289331
4.43464e-05
-0.0014514
0.00358442
6.49194e-05
-0.00355127
-0.00180636
4.94994e-05
-0.00156406
0.003445
1.72554e-05
-0.00130494
0.00397721
9.22052e-05
-0.00104204
0.00432015
0.000352271
-0.00432877
-0.00147979
0.00015826
-0.00148727
0.00391663
-3.8049e-06
-0.00102626
0.00444797
9.03217e-05
-0.000833455
0.00463879
0.000325269
-0.000802527
0.00478597
0.000409296
-0.00152981
0.00397131
-7.00521e-05
-0.000984785
0.00498983
0.000117838
-0.000784442
0.00533337
0.000276385
-0.000612122
0.00528525
0.000363853
-0.000596907
0.00518784
0.000527675
-0.00160316
0.00371649
0.000191642
-0.00114257
0.00474543
0.000319054
-0.000710286
0.00541074
0.000236434
-0.000662261
0.00555345
0.000347355
-0.000545077
0.00561118
0.0004689
-0.000349844
0.00571978
0.000639448
-0.00136358
0.00489462
0.000302239
-0.00155019
0.00520675
0.00029507
-0.000839835
0.00658878
0.000393058
-0.000745622
0.00654062
0.000612985
-0.00036697
0.00690225
0.00073736
-0.000302775
0.00687507
0.000831859
-0.000204448
0.00688887
0.00094663
-0.00147187
0.00567142
-0.000131736
-0.00116358
0.00883433
0.000274831
-0.000585644
0.00776011
0.000761191
-0.000139699
0.0079059
0.00105612
-0.000427085
0.00789647
0.0010011
-0.000187335
0.00800558
0.00101049
-0.000170042
0.0078246
0.000914724
-0.0003106
0.00786915
0.000906138
-0.00153513
0.00561755
0.000533263
-0.000812094
0.00747517
0.000691823
-0.000469557
0.00834252
0.00112489
-0.000650505
0.00747183
0.00130229
-0.000283193
0.00724729
0.00120459
-0.000229305
0.00730058
0.00102648
-0.000183593
0.00765109
0.000865659
-0.000354349
0.00792412
0.000933978
-2.08859e-05
0.0077128
0.000924528
-0.00138195
0.00813966
0.00089694
-0.00098065
0.00689727
0.000942782
-0.000371952
0.00689874
0.00111662
-0.000398019
0.00612099
0.0010076
-0.000336689
0.00577399
0.000776843
-0.000420389
0.00562651
0.000632654
-0.000346464
0.00563334
0.000630237
-0.000130034
0.00559153
0.000675052
-0.000199454
0.00562437
0.000746495
-2.83331e-05
0.0058225
0.000747699
-0.000797967
0.00688043
0.000642065
-0.000959655
0.00614588
0.000550807
-0.000472775
0.004623
0.000454821
-0.000238175
0.00333425
6.59791e-05
-0.000403928
0.00336233
-0.000244355
-0.000320203
0.00372513
-0.000123066
-0.000269589
0.00405575
6.97317e-05
-0.000119306
0.00376134
8.92268e-05
-4.38694e-05
0.00386692
0.000149733
2.54452e-06
0.00385545
0.000253139
-8.23325e-05
0.00417106
0.00031569
-0.000588297
0.00318992
0.000131604
-0.000583399
0.00279611
7.29906e-06
-0.000316557
0.00201988
-0.000308031
-7.0046e-05
0.00066197
-0.00029909
-0.000320094
-0.000111211
-8.73649e-05
-5.74267e-05
-1.55762e-05
-0.000109873
-3.36172e-05
-9.69744e-05
-0.000102428
2.572e-05
0.000909336
-0.000162569
6.77018e-05
0.00160823
-0.000267911
7.411e-05
0.00139146
-0.000276217
-2.43464e-05
0.00178485
-0.000180302
-3.60713e-05
0.00191368
-7.41871e-05
-0.000230009
-0.000853796
2.39789e-05
-0.000188932
-0.00109414
1.52971e-05
-0.000119195
-0.000234328
-2.64446e-05
-2.33729e-05
3.21235e-05
-9.5387e-05
-8.76324e-05
4.07194e-05
-5.65086e-05
-4.97505e-05
0.00056588
-7.86602e-05
-1.98368e-06
0.000349104
-0.000128663
-1.92116e-05
0.000241914
-0.000144215
1.66861e-05
0.000246821
-0.000160141
2.80028e-05
0.000382291
-0.000198887
8.30958e-06
0.000245376
-0.000213604
-5.27817e-05
-8.06305e-05
-0.000186286
-4.039e-05
-0.000130134
-0.000180638
-2.39113e-05
-0.00140438
-8.6105e-05
2.66479e-05
-0.00143855
-0.000103343
-5.6478e-05
-0.000838364
-3.77589e-05
-4.39967e-05
0.000201661
-3.76868e-05
1.86663e-05
0.000482794
-8.58252e-05
-1.47759e-05
0.000880208
-0.000110042
-1.06965e-05
0.000342501
-0.000104558
-3.27975e-05
-9.83557e-05
-9.3621e-05
-1.78252e-05
2.12801e-05
-0.000107007
-1.12408e-05
0.000341559
-0.000121545
-1.36452e-05
-0.000151484
-0.000123686
-1.84028e-05
-0.000325221
-0.000126406
-5.41879e-06
-0.000224725
-0.000129623
1.2909e-05
-0.000273197
-0.000125096
-0.0015738
0.00252438
6.51757e-05
-0.0025713
-0.00169072
0.0027997
3.09932e-05
-0.00145079
0.00327003
9.7698e-05
-0.00336878
-0.00178751
1.62194e-05
-0.00161677
0.0028881
5.79197e-05
-0.00138733
0.00365649
5.46688e-05
-0.00123471
0.00376016
0.000222112
-0.00372469
-0.00148393
7.03747e-05
-0.00158509
0.00350985
3.29658e-05
-0.001206
0.00411416
6.00491e-05
-0.00104106
0.00434493
0.000275024
-0.000787264
0.00439889
0.000485628
-0.00454751
-0.00104691
0.00037994
-0.00158364
0.00391002
6.04466e-05
-0.00114903
0.00446047
0.000147934
-0.000926755
0.00466683
0.000204594
-0.000659142
0.00477896
0.000379301
-0.000569031
0.00477804
0.000482048
-0.0014331
0.00382314
-2.18812e-05
-0.00117224
0.00487636
7.30861e-05
-0.000713539
0.00521972
0.000234735
-0.000688773
0.00523038
0.000357766
-0.000664097
0.00513787
0.000532846
-0.000565786
0.00498546
0.000702129
-0.0015771
0.0036813
0.000248713
-0.00122736
0.0043457
0.000268553
-0.000812448
0.0054205
0.000281906
-0.000924722
0.00561725
0.000351741
-0.000581343
0.00569173
0.000481178
-0.000387903
0.00564123
0.000632575
-0.000206413
0.00579669
0.000770431
-0.00152972
0.00479579
0.000156674
-0.00137137
0.00550262
0.00021417
-0.000986143
0.00689907
0.000385274
-0.000837992
0.0070037
0.000628273
-0.00052779
0.00694897
0.000666966
-0.000337535
0.00699429
0.000768337
-0.000172869
0.00682508
0.000898478
-0.000351205
0.00669399
0.000981333
-0.00152896
0.00572546
-6.02126e-05
-0.000702772
0.00826295
0.000330323
-0.000873297
0.00777177
0.000666911
-0.000766762
0.00795689
0.000826463
-0.000461427
0.00820246
0.000928367
-0.000262795
0.00809622
0.000943954
-0.000249969
0.00798862
0.000912842
-0.000202684
0.00773242
0.000899786
-0.000261025
0.00770257
0.000996487
-0.0015828
0.00537013
0.000448268
-0.000903075
0.00724201
0.000688851
-0.000410082
0.00812944
0.00094303
-0.000625448
0.00772938
0.00109477
-0.000323543
0.00741854
0.00111789
-0.000296765
0.00742218
0.00095936
-0.000234665
0.00774466
0.000821111
-8.03847e-05
0.0078978
0.000842331
-0.000250336
0.00776565
0.000932018
-0.000122793
0.00769868
0.000930013
-0.00115369
0.00753513
0.000960254
-0.00108718
0.00714571
0.000776028
-0.000697382
0.00708202
0.000984113
-0.000394962
0.00647379
0.000920597
-0.000418886
0.00606014
0.000736402
-0.000368873
0.00584255
0.000609475
-0.000411799
0.00578582
0.000622377
-0.000226112
0.00561759
0.000710977
-0.000222768
0.00567953
0.00079879
-4.6266e-05
0.00585667
0.000761135
4.77323e-05
0.00597066
0.000776725
-0.00104075
0.00669686
0.000636024
-0.00102837
0.00666297
0.000569954
-0.000773729
0.00517546
0.000455514
-0.000271864
0.00384818
0.000142704
-0.000372471
0.00364109
-0.000160406
-0.000280787
0.00387037
-0.000166235
-0.000218801
0.00411141
6.46204e-06
-9.65097e-05
0.00387945
7.38562e-05
-5.71061e-06
0.00394982
7.97387e-05
4.16965e-07
0.00386875
0.000210134
-0.000159107
0.00423201
0.000326953
-3.29456e-05
0.0051651
0.000279252
-0.000728843
0.00352308
0.000165671
-0.000641787
0.00328342
9.7144e-05
-0.000392872
0.00247999
-0.000179129
-8.14571e-05
0.000669713
-0.00025769
-0.000312791
-0.000119016
-6.61273e-05
-9.65854e-05
8.21912e-06
-6.43253e-05
-1.09437e-06
-0.000146147
-6.15899e-05
3.18197e-05
0.00085381
-9.79329e-05
0.000128414
0.00156776
-0.000233827
8.1543e-05
0.00134191
-0.000271909
1.65724e-05
0.00168666
-0.000186293
-9.09838e-06
0.00176166
-7.19663e-05
0.000101823
0.000717378
-1.51783e-05
-0.000271369
-0.000633689
2.73502e-05
-0.000203296
-0.000854634
1.44137e-05
-0.000130457
-0.000115875
-2.9177e-05
-2.96485e-05
9.45148e-05
-0.000103184
-6.54253e-05
9.97692e-05
-7.03452e-05
-5.41069e-05
0.000631399
-8.26966e-05
-2.13314e-06
0.000374917
-0.000113037
-3.46001e-05
0.000241339
-0.000126286
3.35457e-06
0.000225309
-0.000143883
2.29207e-05
0.000370751
-0.000182763
1.30472e-05
0.000226328
-0.000206532
-4.25587e-05
-7.82231e-05
-0.000191855
-3.87981e-05
-9.08193e-05
-0.000192222
2.4358e-06
0.000103658
-0.000195306
-3.3085e-05
-0.00128421
-8.70841e-05
2.06776e-05
-0.00143833
-0.000107006
-5.7391e-05
-0.000844202
-4.01141e-05
-3.80721e-05
0.000243726
-4.17525e-05
2.16335e-05
0.000512518
-8.90435e-05
-1.13463e-05
0.000915744
-0.000110015
-1.21199e-05
0.000346231
-0.000101652
-3.75359e-05
-7.50954e-05
-9.0282e-05
-2.13402e-05
5.31843e-05
-0.000104185
-1.37352e-05
0.000367877
-0.00011959
-1.76671e-05
-0.000132132
-0.00012323
-2.00717e-05
-0.000301295
-0.000127541
-9.15433e-06
-0.000211848
-0.000130128
1.11386e-05
-0.000289184
-0.000124774
1.18202e-05
-0.00056679
-0.000114875
-0.00154515
0.0025628
-9.98266e-06
-0.00258147
-0.00168416
0.00244244
7.53831e-05
-0.00150651
0.00315565
0.00013582
-0.00317058
-0.00176318
-5.34618e-05
-0.00254217
-0.00164
0.00280809
1.48467e-05
-0.00148104
0.00328085
0.000113888
-0.00116164
0.00353092
0.000172977
-0.00367926
-0.00157122
0.000139584
-0.00163644
0.00290565
3.38089e-05
-0.0012814
0.00372854
6.12601e-05
-0.00126493
0.00382707
0.000211624
-0.000998944
0.00423033
0.000301162
-0.0040977
-0.00108706
0.00023
-0.00159955
0.00355284
-2.70782e-05
-0.00112626
0.00401414
0.000110221
-0.00108379
0.0043245
0.000237513
-0.000800366
0.00438377
0.000431366
-0.000617977
0.00461303
0.000597616
-0.00467607
-0.000884087
0.000533253
-0.00126881
0.00377133
-2.5604e-05
-0.00122989
0.00442619
0.000152377
-0.00077773
0.0046074
0.000271557
-0.000842065
0.00477539
0.000361462
-0.000735596
0.00475424
0.000474595
-0.000724397
0.00467584
0.000615655
-0.00158819
0.00375476
7.94681e-05
-0.00106529
0.00461997
7.24354e-05
-0.000854366
0.00507879
0.000255939
-0.000891872
0.00511194
0.000320322
-0.000734754
0.00513923
0.000509815
-0.000602712
0.00502307
0.000710037
-0.000401598
0.00502325
0.000821473
-0.00171371
0.0035969
0.000268391
-0.00126021
0.00420016
0.00028309
-0.000950036
0.00537777
0.00027517
-0.00083549
0.00553601
0.000360645
-0.000647147
0.00571776
0.000445063
-0.000464515
0.00564703
0.000602361
-0.000310835
0.00579939
0.000767849
-0.000391543
0.00587559
0.000888229
-0.00166914
0.00482897
0.000107007
-0.00121894
0.00594161
0.000233844
-0.000976062
0.00683464
0.000381366
-0.000707699
0.00690515
0.000424758
-0.000391324
0.00690349
0.000603655
-0.000319087
0.00697792
0.00073963
-0.00039791
0.00685957
0.000881787
-0.00027283
0.00667959
0.00098303
-0.000269532
0.0065895
0.00104583
-0.00154719
0.00561043
7.94135e-05
-0.000957763
0.00788826
0.000369166
-0.000620766
0.00778082
0.000531955
-0.000723722
0.00790361
0.000818467
-0.000480076
0.00836167
0.000823788
-0.000375433
0.00819873
0.000904517
-0.000241823
0.00801961
0.00092012
-0.000183835
0.00781497
0.000933742
-0.000163797
0.00755386
0.000961954
-0.000156184
0.00747453
0.00107302
-0.00162648
0.00544247
0.000400446
-0.000994415
0.00701523
0.000582287
-0.000720958
0.00815464
0.00068723
-0.000719622
0.00808593
0.000911147
-0.000419071
0.0076046
0.000908901
-0.000310145
0.00758944
0.000891903
-0.000308285
0.00777278
0.000827732
-0.00020465
0.00786306
0.000834387
-0.000265972
0.00771077
0.00094041
-0.000116345
0.00772823
0.00097255
2.04403e-05
0.00792445
0.000927026
-0.00116384
0.00684707
0.000811162
-0.00124017
0.00755163
0.000766125
-0.000895114
0.00711586
0.00086357
-0.000441301
0.00680271
0.000824638
-0.000429031
0.00654057
0.000496726
-0.000371613
0.00608669
0.000583083
-0.000120339
0.00568464
0.000612199
-0.000232687
0.0056671
0.000709048
8.64684e-06
0.00562369
0.000752462
-3.34036e-05
0.00587739
0.000811892
-3.43115e-05
0.0058191
0.000787891
-2.03885e-05
0.00578047
0.000841165
-0.00118692
0.0065341
0.000620838
-0.000982895
0.00696339
0.000676711
-0.000854118
0.00570229
0.000504368
-0.000321605
0.00431683
0.000227013
-0.000333504
0.00388368
-7.91699e-05
-0.000259445
0.00399726
-0.000124432
-0.000172445
0.00414684
-3.03144e-05
-8.90366e-05
0.00395316
5.36089e-05
5.39517e-05
0.00403524
6.29023e-05
-2.20896e-05
0.00387127
0.00018085
-0.000146203
0.00429933
0.000305586
-1.62009e-05
0.00525219
0.000246965
0.000182679
0.00535111
0.000179257
-0.000831276
0.00390115
0.000181844
-0.000666605
0.00373388
0.000178522
-0.000380009
0.00285077
-2.40869e-05
-0.000117934
0.000746647
-0.000167777
-0.000277046
-0.000114665
-5.04189e-05
-0.000110257
1.69406e-05
-1.86982e-05
-7.67866e-06
-0.000188429
-1.64976e-05
4.96627e-05
0.000741403
-3.34457e-05
0.000121121
0.00152167
-0.000169613
9.00188e-05
0.00129615
-0.000255164
5.45534e-05
0.00155252
-0.000179274
4.89694e-05
0.00156206
-7.82255e-05
0.000141922
0.000510763
-4.60715e-05
0.000109659
0.000861399
8.81481e-06
-0.000295679
-0.000399397
2.83011e-05
-0.000211089
-0.000608755
1.32381e-05
-0.000146239
2.17738e-05
-3.43869e-05
-4.03784e-05
0.000179669
-0.000112024
-5.03747e-05
0.000153771
-8.51777e-05
-5.30908e-05
0.000692627
-8.98286e-05
-4.44454e-06
0.000387085
-0.000102539
-4.62999e-05
0.000250338
-0.000113273
-1.26347e-05
0.00022044
-0.000130123
1.15757e-05
0.000367888
-0.000166331
5.74447e-06
0.000216355
-0.000196202
-4.25195e-05
-6.36081e-05
-0.000198699
-4.10085e-05
-4.5335e-05
-0.000205485
1.76714e-06