/*--------------------------------*- C++ -*----------------------------------*\
  =========                 |
  \\      /  F ield         | OpenFOAM: The Open Source CFD Toolbox
   \\    /   O peration     | Website:  https://openfoam.org
    \\  /    A nd           | Version:  7
     \\/     M anipulation  |
\*---------------------------------------------------------------------------*/
FoamFile
{
    version     2.0;
    format      ascii;
    class       volVectorField;
    location    "4.5";
    object      U;
}
// * * * * * * * * * * * * * * * * * * * * * * * * * * * * * * * * * * * * * //

dimensions      [0 1 -1 0 0 0 0];

internalField   nonuniform List<vector> 
18750
(
(2.16796 -1.04325 -1.42298)
(2.06647 -0.742273 -0.318895)
(2.08635 -0.988011 -1.3968)
(3.51151 0.372326 -1.54241)
(2.73655 1.78824 -0.716926)
(1.95242 -0.699128 -0.306636)
(3.29689 -1.06247 -0.991102)
(1.96784 -0.942385 -1.36912)
(3.73521 0.402118 -2.02052)
(-0.575141 -0.542127 -0.76921)
(1.40469 6.83178 1.63445)
(1.31257 1.93019 -1.62347)
(1.37834 1.82901 -0.357246)
(1.7956 -0.642803 -0.267316)
(3.08727 -1.01204 -0.911591)
(-0.172839 -0.326034 0.680609)
(1.83351 -0.902244 -1.32527)
(3.64068 0.417794 -2.47081)
(-0.628797 -0.577919 -0.794846)
(-0.593098 -0.311474 -0.252371)
(1.20654 5.50135 -1.83827)
(1.6346 6.48536 1.34859)
(4.16262 2.87716 1.21261)
(0.497132 1.97823 -1.72615)
(0.62933 1.69111 -0.640469)
(-0.412469 0.578182 1.01351)
(1.62689 -0.591084 -0.207752)
(2.7701 -0.926554 -0.868488)
(-0.239331 -0.364848 0.605445)
(-0.754187 -0.101902 -0.542148)
(1.69768 -0.867645 -1.27303)
(3.27095 0.379516 -2.79125)
(-0.62833 -0.613253 -0.838862)
(-0.592205 -0.307891 -0.218691)
(0.155291 0.0224391 -0.873658)
(-0.694153 3.90042 -0.608661)
(1.29906 5.19527 -0.91999)
(2.09386 4.61316 4.52287)
(1.79348 6.11487 1.40923)
(3.55359 3.14063 1.04175)
(0.320015 2.09742 -0.361084)
(0.245065 1.95116 -1.56596)
(0.0918796 1.35114 -0.910615)
(-0.311772 0.642898 0.586409)
(0.457946 0.391796 -1.45246)
(1.46539 -0.559936 -0.131662)
(2.40572 -0.86622 -0.772744)
(-0.230684 -0.371491 0.438653)
(-0.779747 -0.151523 -0.603424)
(-0.563674 -0.213656 0.34262)
(1.57155 -0.838415 -1.21844)
(2.81349 0.29168 -2.93681)
(-0.584925 -0.649322 -0.889386)
(-0.594822 -0.30325 -0.187172)
(0.141729 0.0669338 -0.907932)
(-0.155608 0.256308 -2.16828)
(-1.74066 4.20334 0.21192)
(-1.34636 4.20669 -0.772107)
(1.0307 5.69192 2.0484)
(0.111137 4.93696 -0.279497)
(1.26405 4.36315 4.40146)
(1.22272 4.52668 3.88104)
(1.60772 6.00727 1.7249)
(3.01798 3.38201 0.670391)
(0.171523 2.21651 -0.665284)
(-0.925049 1.35668 -1.4078)
(0.0568308 1.9818 -1.30437)
(-0.234827 0.997051 -0.967936)
(-0.199815 0.644606 -0.0912861)
(0.525379 0.56499 -1.666)
(0.749467 -0.0401074 -1.19503)
(1.30297 -0.547721 -0.0498267)
(2.04442 -0.836571 -0.67413)
(-0.206722 -0.431652 0.40958)
(-0.794358 -0.210454 -0.653863)
(-0.660474 -0.285419 0.345639)
(-0.425516 -0.103407 -0.197962)
(1.46019 -0.812546 -1.16638)
(2.35174 0.172295 -2.97238)
(-0.519779 -0.681183 -0.950434)
(-0.602667 -0.300708 -0.152602)
(0.123106 0.112425 -0.941512)
(-0.185956 0.293063 -2.16754)
(-0.0240737 0.185419 -2.97781)
(-2.40872 2.79311 0.06294)
(-1.76878 4.34785 0.490404)
(-1.80833 4.69189 0.482871)
(-2.39797 4.27818 -0.771146)
(-0.115564 5.85227 2.19517)
(0.889042 5.48026 2.19773)
(-1.15814 4.72954 -0.987863)
(0.480624 4.38886 4.12535)
(0.457343 4.45664 3.91968)
(0.923813 3.34847 3.4841)
(1.02385 5.86871 1.78364)
(2.99894 3.52833 0.291698)
(0.146847 2.37753 -0.764398)
(-0.920865 1.26126 -1.26089)
(-1.07636 1.32217 -0.764425)
(-0.132904 1.96995 -1.03048)
(-0.417147 0.742934 -0.876984)
(-0.194715 0.647249 -0.545605)
(0.4975 0.699583 -1.8976)
(0.650275 -0.0157201 -1.30064)
(0.221727 -0.0784265 -1.3177)
(1.13073 -0.568118 0.0383819)
(1.71519 -0.828136 -0.575099)
(-0.237079 -0.458399 0.442064)
(-0.767193 -0.272999 -0.726909)
(-0.661896 -0.334745 0.27554)
(-0.480984 -0.0633601 -0.114262)
(0.163922 -0.137013 -1.3648)
(1.36196 -0.787693 -1.11896)
(1.94439 0.0375266 -2.94887)
(-0.447852 -0.709902 -1.01844)
(-0.612259 -0.299677 -0.118539)
(0.101906 0.157034 -0.980084)
(-0.21533 0.326868 -2.17149)
(-0.064601 0.187027 -2.9504)
(-0.238812 -0.102735 -2.8008)
(-2.11759 2.55874 -0.0241197)
(-2.71839 2.52557 0.0316059)
(-1.0572 3.94441 0.734197)
(-1.84172 4.482 0.703697)
(-2.39034 4.66888 0.0695841)
(-0.484676 5.13372 1.62458)
(-3.39178 4.15863 -0.956131)
(-1.03596 5.91832 2.17824)
(0.521762 5.4866 2.17415)
(0.520057 4.63308 2.50678)
(-3.59534 4.2455 -1.86254)
(0.235491 4.3503 4.47146)
(-0.00880474 4.38881 3.90615)
(0.931387 3.45282 3.40619)
(0.0240028 3.51474 2.34449)
(-0.0809455 5.7424 1.82555)
(2.8939 3.74388 0.204868)
(-0.0203159 2.34676 -0.509002)
(-0.90525 1.18286 -0.873494)
(-1.22219 1.20223 -0.922983)
(-1.8003 1.95587 0.797893)
(-0.350477 1.91218 -0.712897)
(-0.607858 0.521785 -0.701711)
(-0.259267 0.661099 -0.97703)
(0.453817 0.750403 -2.08306)
(0.301516 -0.0439757 -1.43962)
(0.287311 -0.00293989 -1.25017)
(0.0886936 -0.28502 -1.14285)
(0.941234 -0.622626 0.133206)
(1.42858 -0.824644 -0.48805)
(-0.255445 -0.503125 0.489245)
(-0.710484 -0.309745 -0.785714)
(-0.576088 -0.353153 0.124926)
(-0.51357 -0.0216554 -0.0558519)
(0.140648 -0.0684837 -1.3791)
(0.424188 0.249461 -1.79158)
(1.271 -0.761116 -1.07613)
(1.6223 -0.0908599 -2.90444)
(-0.378305 -0.734452 -1.08953)
(-0.62327 -0.299329 -0.0832321)
(0.0878875 0.201874 -1.03672)
(-0.24506 0.359195 -2.17969)
(-0.107163 0.184951 -2.91694)
(-0.270694 -0.124473 -2.6822)
(-0.102688 -0.0378108 -2.70203)
(-1.4885 2.80749 -0.186711)
(-2.36433 2.33956 0.00486229)
(-1.08431 3.39214 0.16675)
(-2.8205 2.55144 0.108485)
(-1.33908 3.69865 0.788088)
(-0.553052 4.26583 0.647385)
(-1.91898 4.39306 0.674917)
(-2.68812 4.58161 0.205115)
(-0.566393 5.11622 1.74154)
(-0.259108 4.57442 2.00906)
(-4.6642 3.38858 -1.4137)
(-1.77201 5.8014 2.50362)
(0.0477216 5.5061 2.19092)
(-0.292508 4.73445 2.47256)
(0.322616 4.30159 2.84919)
(-4.26371 4.31681 0.0668303)
(0.0282099 4.28303 4.89429)
(-0.263677 4.29589 4.02989)
(0.855978 3.57577 3.36511)
(-0.514369 3.5122 2.41151)
(-0.713246 3.7167 1.57019)
(-0.000374715 5.76552 1.76756)
(1.69715 3.70053 1.01078)
(0.227847 2.40081 -0.504292)
(-0.949408 1.13829 -0.456857)
(-1.45054 1.19023 -0.917549)
(-1.80469 1.86193 0.573193)
(-1.51556 1.91894 1.04689)
(-0.634558 1.67913 -0.255356)
(-0.967474 0.355223 -0.524425)
(-0.337184 0.621489 -1.29337)
(0.239593 0.787122 -2.20181)
(-0.15648 -0.129974 -1.40123)
(0.212435 0.0761451 -1.20158)
(-0.0396177 -0.191288 -1.12085)
(0.0485855 0.412662 -1.56122)
(0.726019 -0.705007 0.243054)
(1.18062 -0.823507 -0.414387)
(-0.281576 -0.51817 0.517007)
(-0.625715 -0.324696 -0.823941)
(-0.448947 -0.330318 -0.00805534)
(-0.525533 0.0154501 -0.0419493)
(0.105709 0.00964913 -1.34858)
(0.299985 0.249902 -1.76043)
(0.364113 0.345277 -1.64483)
(1.18143 -0.734505 -1.03554)
(1.40095 -0.184129 -2.86706)
(-0.31279 -0.755211 -1.1601)
(-0.631745 -0.295648 -0.0639819)
(0.080962 0.246581 -1.11221)
(-0.274718 0.388694 -2.19271)
(-0.148094 0.178737 -2.87849)
(-0.299161 -0.147741 -2.56225)
(-0.12778 -0.0473781 -2.58159)
(-0.0598172 0.177624 -3.01511)
(-1.68425 2.41378 -0.0130411)
(-1.81531 2.67385 -0.0722194)
(-1.16632 3.2247 0.00440181)
(-2.6705 2.05439 -0.0396611)
(-1.34375 3.32878 0.190694)
(-0.255719 3.62251 0.303868)
(-2.61404 2.75317 0.0712694)
(-2.22184 3.19329 0.441652)
(-1.12984 4.02798 0.515708)
(-0.550943 4.23409 0.985938)
(-2.40179 3.96208 0.437878)
(-3.06112 4.49814 0.0293423)
(-0.826149 4.99727 1.6549)
(-0.0378036 4.68688 2.11749)
(-0.337413 4.4313 2.27667)
(-5.33137 2.57208 -1.59895)
(-1.98989 5.76072 3.43492)
(-0.371365 5.29368 2.31823)
(0.315016 4.53888 3.04153)
(0.0562896 4.50884 2.97239)
(-0.293192 4.44821 2.52839)
(-4.22838 4.22445 0.662627)
(-1.60134 3.92603 4.17695)
(-0.787142 4.18893 4.04962)
(-0.0235384 3.55537 3.41199)
(-1.02934 3.3937 2.59003)
(-1.37454 3.48726 1.58909)
(-0.805823 3.65593 1.36189)
(-0.124029 5.63665 1.66421)
(-0.129332 3.36969 1.86263)
(0.0247433 2.43889 0.366157)
(-0.949169 1.1361 -0.154015)
(-1.66681 1.2277 -0.963976)
(-1.50994 1.87909 0.0251756)
(-1.25373 2.36127 0.505202)
(-0.759134 2.12464 0.71283)
(-0.932105 1.47403 0.0149241)
(-1.37933 0.243598 -0.290784)
(-0.458373 0.560024 -1.46404)
(0.0578336 0.723791 -2.21375)
(-0.566328 -0.259391 -1.14518)
(0.147471 0.0700999 -1.18651)
(-0.129807 -0.127958 -0.990581)
(0.0278185 0.523534 -1.31057)
(0.524 1.04609 -1.82789)
(0.523008 -0.773808 0.337241)
(0.983021 -0.828276 -0.356908)
(-0.298429 -0.533035 0.515374)
(-0.52345 -0.305498 -0.846109)
(-0.305782 -0.274689 -0.136021)
(-0.514653 0.055553 -0.0243845)
(0.0667999 0.0752584 -1.28319)
(0.171465 0.231149 -1.67484)
(0.302716 0.312565 -1.50218)
(0.192085 0.308439 -1.6884)
(1.08798 -0.710851 -0.995319)
(1.29659 -0.243559 -2.85645)
(-0.249101 -0.773068 -1.22901)
(-0.636183 -0.301862 -0.0463562)
(0.0756396 0.28993 -1.19912)
(-0.305416 0.414027 -2.21024)
(-0.187254 0.168229 -2.83535)
(-0.326844 -0.171973 -2.44147)
(-0.150994 -0.0565319 -2.46747)
(-0.11382 0.172975 -2.94146)
(-0.141984 -0.122616 -2.88237)
(-1.41207 2.13843 0.0867552)
(-1.8881 2.33191 -0.0402059)
(-1.28273 2.89067 0.0576284)
(-1.90193 2.64101 -0.0137174)
(-1.47801 3.20118 -0.0433474)
(-0.799568 3.34406 0.138363)
(-2.79745 1.8525 -0.0440007)
(-1.65907 3.23958 0.159905)
(-0.857546 3.44739 0.230748)
(-0.512623 3.5124 0.448166)
(-2.54897 2.82605 0.294787)
(-2.42331 3.05529 0.27518)
(-1.08342 4.15225 0.430139)
(-1.00926 4.0692 0.96694)
(-0.509469 4.49334 1.0428)
(-3.11348 3.17323 -0.461639)
(-3.4185 4.45778 0.123773)
(-1.50507 4.82215 1.48582)
(-0.957667 4.75235 1.94674)
(-0.625439 4.62689 2.23373)
(-0.767142 4.9933 2.06494)
(-5.24427 1.9238 -0.868683)
(-1.5333 5.84841 4.01966)
(-0.585807 5.26798 2.60616)
(-0.624927 4.71528 3.12011)
(-0.677938 4.45601 3.08696)
(-0.350803 4.46111 2.63018)
(-0.768142 4.80781 2.09634)
(-3.65396 4.99969 1.38248)
(-3.75143 2.77264 3.22083)
(-2.12 3.94865 3.2426)
(-0.388636 3.51949 3.44624)
(-1.76175 3.33045 2.53394)
(-1.68952 3.33544 1.79328)
(-1.10565 3.58549 1.4194)
(-0.549735 3.7577 1.23071)
(-2.57106 4.08383 1.6723)
(-1.12728 3.22276 1.93908)
(-0.254218 2.60928 0.715471)
(-1.05087 1.19424 0.16117)
(-1.82022 1.31564 -0.593901)
(-1.52082 1.90449 -0.105125)
(-1.15897 2.32987 0.327654)
(-0.765501 2.23212 0.586164)
(-0.255485 2.30937 0.632548)
(-1.44768 1.2457 0.19236)
(-1.81919 0.158927 -0.0693499)
(-0.684175 0.547289 -1.36161)
(-0.113799 0.586663 -2.25035)
(-0.926597 -0.394068 -0.765984)
(0.0788284 0.0611898 -1.09595)
(-0.17629 -0.0932304 -0.814466)
(-0.0157352 0.578975 -1.06538)
(0.334809 1.07785 -1.59118)
(0.457118 1.04514 -1.48252)
(0.321437 -0.862165 0.431783)
(0.76905 -0.819624 -0.310882)
(-0.308343 -0.542011 0.516214)
(-0.410466 -0.263995 -0.841041)
(-0.167842 -0.186728 -0.270657)
(-0.484604 0.0965623 -0.0214691)
(0.0295428 0.137541 -1.19569)
(0.0470959 0.201547 -1.5328)
(0.190081 0.269256 -1.37337)
(0.0640665 0.28121 -1.59543)
(0.0639743 0.184944 -1.83157)
(0.988969 -0.689596 -0.955577)
(1.26099 -0.272596 -2.86683)
(-0.188377 -0.788484 -1.3011)
(-0.640502 -0.311929 -0.0299081)
(0.0679457 0.331297 -1.29196)
(-0.335565 0.434025 -2.23526)
(-0.22584 0.152467 -2.78796)
(-0.354716 -0.197458 -2.32201)
(-0.173758 -0.0639521 -2.35858)
(-0.167795 0.168951 -2.87356)
(-0.173493 -0.135273 -2.85842)
(-0.176546 -0.263581 -2.73183)
(-1.5711 1.82286 0.0616744)
(-1.50101 2.11384 0.0609813)
(-1.40052 2.54088 -0.0342445)
(-1.37622 2.20346 0.00757669)
(-2.04829 2.20083 -0.135424)
(-1.52254 2.82367 0.0795721)
(-0.973605 3.04837 0.260919)
(-2.02904 2.40028 -0.0444195)
(-1.63272 3.13465 -0.100505)
(-0.909679 3.41991 0.311304)
(-0.815065 3.31242 0.419778)
(-2.94639 1.64212 -0.102936)
(-1.77744 3.08966 0.363508)
(-1.19414 3.47952 0.111968)
(-0.883518 3.55442 0.367135)
(-0.47744 3.65577 0.56346)
(-2.66959 2.74394 0.662315)
(-2.82348 2.68871 0.214479)
(-1.67716 4.03286 0.218222)
(-0.921511 4.22706 0.991394)
(-0.754057 4.41216 1.16072)
(-0.577997 4.55319 1.28637)
(-3.37768 2.85461 -0.830608)
(-3.68832 4.52143 0.0429066)
(-1.94595 4.65754 1.26749)
(-1.47182 4.66805 1.71767)
(-1.39939 4.78766 1.99711)
(-1.37165 4.97184 1.76591)
(-0.67368 5.15446 1.78102)
(-4.88792 1.85101 0.209956)
(-1.7872 5.44574 3.44219)
(-1.02299 5.23959 2.54134)
(-1.22326 4.64121 3.36084)
(-0.810829 4.44005 3.17773)
(-0.876037 4.62271 2.41823)
(-1.0138 4.77944 2.0727)
(-0.551161 5.11501 1.88886)
(-5.12835 3.78168 1.54251)
(-4.16528 2.71792 2.93515)
(-2.88909 3.73785 2.72959)
(-1.59749 3.45091 3.06715)
(-2.13728 3.25124 2.35871)
(-2.04012 3.29347 1.75664)
(-1.46182 3.49684 1.58969)
(-0.785466 3.71374 1.3451)
(-0.538661 3.76697 1.56103)
(-3.26467 3.69663 1.71709)
(-2.53234 2.87448 2.03282)
(-1.33171 2.27755 1.47473)
(-1.10483 1.43828 0.317125)
(-1.81401 1.40929 -0.671764)
(-1.28861 1.97864 -0.421783)
(-1.11314 2.34288 0.277096)
(-0.666827 2.27096 0.465229)
(-0.33019 2.4133 0.789607)
(-0.0746074 2.48185 0.666943)
(-2.06448 0.889467 0.484187)
(-2.3204 0.102368 0.166059)
(-0.833231 0.593653 -1.26795)
(-0.208591 0.457212 -2.31194)
(-1.10926 -0.538525 -0.439677)
(-0.0775877 -0.0259631 -0.906757)
(-0.163923 -0.0955355 -0.634802)
(-0.0946554 0.596604 -0.826344)
(0.175674 1.08339 -1.39448)
(0.205425 1.01721 -1.30853)
(-0.254531 1.21766 -1.1146)
(0.11989 -0.927947 0.502065)
(0.557608 -0.801046 -0.268017)
(-0.335833 -0.528543 0.497064)
(-0.290122 -0.195155 -0.820884)
(-0.0688994 -0.0909091 -0.376714)
(-0.415995 0.162981 -0.140692)
(-0.00327424 0.185335 -1.09865)
(-0.0585509 0.162888 -1.35284)
(0.0470585 0.214348 -1.24442)
(0.010064 0.269569 -1.50386)
(0.00838194 0.17501 -1.79774)
(-0.282403 -0.0611595 -1.42347)
(0.890142 -0.669633 -0.913321)
(1.18714 -0.284516 -2.92095)
(-0.127617 -0.797269 -1.37826)
(-0.63946 -0.322832 -0.0249071)
(0.0571801 0.370379 -1.38865)
(-0.367245 0.450148 -2.26373)
(-0.262074 0.131334 -2.73845)
(-0.382624 -0.224629 -2.20624)
(-0.198208 -0.0692683 -2.25751)
(-0.218066 0.155589 -2.80887)
(-0.198307 -0.147573 -2.83466)
(-0.177113 -0.260851 -2.75904)
(0.0662805 -0.157046 -2.95117)
(-1.27106 1.80634 -0.00685433)
(-1.72466 1.70377 0.0910136)
(-1.33727 2.27073 -0.0156134)
(-1.52044 1.86461 0.0737011)
(-1.68854 2.00496 0.127476)
(-1.48299 2.50139 -0.0437995)
(-0.931294 2.80106 0.2706)
(-1.1948 2.61088 -0.00137389)
(-2.16884 2.16602 -0.121893)
(-1.36815 2.85206 0.0954863)
(-1.20748 2.97391 0.234371)
(-1.07936 3.07645 0.420588)
(-2.36079 2.03745 0.0435405)
(-1.61067 3.09158 -0.0169408)
(-1.14648 3.37741 0.246074)
(-1.1246 3.43224 0.406512)
(-0.758489 3.36702 0.504818)
(-2.95683 1.64193 -0.0528814)
(-2.20684 2.70631 0.559947)
(-1.89717 3.24529 0.187028)
(-1.55076 3.44986 0.344684)
(-1.07348 3.56442 0.445805)
(-0.546164 3.76947 0.747595)
(-2.8134 2.48955 0.812317)
(-3.56139 2.18546 0.343814)
(-2.09869 3.8897 0.279679)
(-1.80203 4.04727 0.800012)
(-1.05456 4.44563 1.10494)
(-0.743804 4.55336 1.24133)
(-0.298074 4.51456 1.38054)
(-3.88137 2.30338 -0.850775)
(-3.77712 4.78613 0.0904153)
(-2.36454 4.63442 1.17728)
(-0.631398 5.25437 1.87078)
(-1.61689 4.90734 1.84404)
(-0.935178 5.11541 1.81334)
(-0.898326 5.13853 1.69169)
(-0.742449 5.1038 1.4453)
(-4.69343 1.90813 0.0872767)
(-4.18901 3.60689 1.20351)
(-2.13803 5.04774 2.00304)
(-2.36279 4.33337 2.62861)
(-1.48197 4.49281 2.85697)
(-1.20207 4.63086 2.24723)
(-0.960112 4.9041 1.96991)
(-1.27554 5.01732 1.97703)
(0.252202 5.11785 1.78315)
(-5.85407 2.87507 1.66782)
(-4.80661 2.51783 2.78771)
(-3.25013 3.60025 2.52644)
(-2.23903 3.3634 2.90025)
(-2.30575 3.19503 2.25486)
(-2.48711 3.0882 1.63356)
(-1.88703 3.36974 1.52688)
(-1.2125 3.5547 1.54615)
(-0.752975 3.62958 1.76934)
(-0.156112 3.79472 1.89745)
(-4.10288 2.99168 1.83601)
(-3.69371 2.31188 2.01986)
(-2.07755 2.34872 1.7157)
(-1.39906 1.58349 0.789359)
(-1.87367 1.59904 -0.719942)
(-0.997585 2.20726 -0.777483)
(-1.03391 2.49549 0.132274)
(-0.484167 2.3677 0.359816)
(-0.255772 2.53414 0.462823)
(-0.0967817 2.50242 0.710057)
(-0.337596 2.7447 0.998533)
(-2.68423 0.450103 0.58748)
(-2.66091 0.189929 0.42974)
(-1.23953 0.622981 -0.907596)
(-0.261156 0.362483 -2.20801)
(-1.09475 -0.617085 -0.328672)
(-0.207036 -0.10248 -0.687633)
(-0.126352 -0.0935452 -0.459456)
(-0.181982 0.591137 -0.605326)
(0.0447285 1.10138 -1.17865)
(0.116982 0.960578 -1.24647)
(-0.183191 1.18386 -1.16715)
(-0.195677 1.29335 -0.473811)
(-0.0376309 -0.964595 0.565306)
(0.369948 -0.77222 -0.228063)
(-0.360458 -0.514521 0.461486)
(-0.13574 -0.0891394 -0.841073)
(0.0101424 0.00836353 -0.48029)
(-0.376003 0.20959 -0.236745)
(-0.0130387 0.234322 -1.0016)
(-0.142188 0.124312 -1.15567)
(-0.0874588 0.154989 -1.11128)
(-0.015258 0.257873 -1.39335)
(-0.00303531 0.165543 -1.75456)
(-0.287208 -0.0856372 -1.40352)
(-0.206109 -0.105743 -1.31544)
(0.793334 -0.651227 -0.878625)
(1.20425 -0.25117 -2.95144)
(-0.0646771 -0.799322 -1.46314)
(-0.60735 -0.314626 -0.0792628)
(0.0429171 0.407479 -1.48752)
(-0.40298 0.455017 -2.29406)
(-0.29446 0.105738 -2.68577)
(-0.410126 -0.253395 -2.09644)
(-0.22463 -0.073926 -2.16692)
(-0.260201 0.152405 -2.74403)
(-0.223951 -0.154969 -2.80543)
(-0.181773 -0.258584 -2.78125)
(0.073683 -0.147231 -2.96511)
(0.255356 -0.163121 -3.01379)
(-1.30147 1.65725 -0.00844951)
(-1.4341 1.67512 -0.00477046)
(-1.27742 2.07696 0.00560918)
(-1.20537 1.87113 -0.00423083)
(-1.80609 1.66143 0.101474)
(-1.39013 2.25172 -0.0226126)
(-1.12748 2.39885 0.137652)
(-1.17471 2.38821 0.00132)
(-1.77934 1.96014 0.15063)
(-1.58399 2.43647 -0.0933226)
(-1.04011 2.7661 0.221509)
(-0.727395 2.92714 0.406416)
(-0.721697 2.82569 0.27249)
(-2.36021 1.96712 -0.0713385)
(-1.82616 2.52749 0.115841)
(-1.5236 2.84241 0.0872435)
(-0.783302 3.12458 0.422683)
(-0.757656 3.15926 0.417278)
(-2.48888 1.88148 0.0478264)
(-2.20479 2.67268 -0.203221)
(-1.35019 3.27792 0.26947)
(-1.17925 3.37798 0.381588)
(-0.945914 3.32887 0.445589)
(-0.563216 3.21245 0.721719)
(-3.02018 1.41841 0.014803)
(-2.64521 2.24125 0.499505)
(-2.30338 3.08013 0.298249)
(-1.98731 3.32987 0.386012)
(-1.24178 3.57325 0.534117)
(-0.817607 3.65037 0.761978)
(-0.51341 3.80749 0.903979)
(-3.19421 1.9938 0.63304)
(-3.36409 2.58201 0.00897601)
(-2.58929 3.8067 0.544883)
(-2.40059 3.92476 0.870168)
(-1.73039 4.30739 0.945896)
(-1.128 4.41806 1.08267)
(-0.522765 4.46997 1.24262)
(-0.568115 4.34667 1.397)
(-4.1105 2.12121 -0.72015)
(-3.16715 5.11328 0.378079)
(-3.52882 4.10609 0.881577)
(-3.18373 4.48456 1.24945)
(-2.13428 4.907 1.70197)
(-1.65065 5.06052 1.62216)
(-1.15169 5.0312 1.60633)
(-0.841302 5.07827 1.4471)
(-0.649308 4.93411 1.62238)
(-4.5769 1.35446 -0.0267987)
(-3.8063 3.56018 1.77167)
(-2.60828 4.97405 1.72791)
(-2.72036 4.32563 2.34284)
(-1.94017 4.53181 2.56667)
(-1.5961 4.59695 1.99781)
(-1.48723 4.91144 1.83382)
(-0.691344 5.23154 1.56187)
(-0.927773 5.01285 1.79525)
(-0.218132 4.97286 1.9658)
(-5.29178 2.94209 1.82722)
(-5.29284 2.27149 2.30971)
(-3.98562 3.16179 2.04141)
(-2.48899 3.50127 2.79191)
(-2.40179 3.23762 2.16238)
(-2.63547 3.0883 1.55759)
(-2.06375 3.34716 1.41514)
(-1.41398 3.47103 1.60092)
(-0.909005 3.59323 1.80427)
(-0.467211 3.83181 1.87745)
(-0.251418 3.95184 1.86439)
(-4.82959 1.92762 1.68805)
(-4.32267 2.20545 2.05459)
(-3.12341 1.89044 1.57827)
(-1.68232 1.85542 0.97355)
(-2.07261 1.62766 -0.31024)
(-1.22286 2.28333 -0.833426)
(-1.02488 2.53396 -0.045762)
(-0.519699 2.48387 0.318713)
(-0.378897 2.55503 0.212376)
(-0.170865 2.56623 0.434015)
(-0.37302 2.69962 0.964203)
(-0.222864 3.34814 1.14292)
(-3.19258 0.116821 0.667253)
(-3.04242 0.126562 0.662823)
(-1.63691 0.695028 -0.391192)
(-0.354305 0.276073 -1.82886)
(-0.942991 -0.627263 -0.359845)
(-0.307644 -0.146971 -0.46781)
(-0.0721601 -0.132603 -0.279761)
(-0.270138 0.529891 -0.4112)
(-0.0412987 1.07725 -0.929594)
(0.080234 0.934754 -1.21646)
(-0.088756 1.14173 -1.20802)
(-0.379868 1.17572 -0.403294)
(-0.293407 0.517486 -0.225411)
(-0.190603 -0.975829 0.607799)
(0.222909 -0.723356 -0.215517)
(-0.389075 -0.50557 0.433684)
(-0.0970793 -0.0324462 -0.830126)
(0.0518412 0.0872753 -0.599105)
(-0.37366 0.23922 -0.318598)
(-0.0399817 0.250304 -0.92784)
(-0.225925 0.076362 -0.965284)
(-0.186432 0.0979947 -0.986348)
(-0.0432913 0.242994 -1.26691)
(-0.0352393 0.146756 -1.6603)
(-0.197393 -0.0825241 -1.42946)
(-0.241382 -0.0902148 -1.36944)
(-0.0312816 0.0597473 -1.48674)
(0.699872 -0.631064 -0.859526)
(1.18003 -0.220379 -2.98682)
(-0.00360898 -0.797637 -1.56125)
(-0.556778 -0.287334 -0.153346)
(0.023873 0.440187 -1.5875)
(-0.43011 0.467964 -2.32422)
(-0.322932 0.0762598 -2.63081)
(-0.436637 -0.283246 -1.99496)
(-0.251751 -0.0796667 -2.08877)
(-0.294601 0.141726 -2.67897)
(-0.252641 -0.175442 -2.76874)
(-0.198058 -0.25993 -2.78213)
(0.0791216 -0.136669 -2.98094)
(0.243909 -0.161805 -2.99741)
(0.269692 -0.344575 -2.72798)
(-1.15994 1.6178 0.00106983)
(-1.53688 1.43294 0.0206841)
(-1.17912 2.04177 0.0974723)
(-1.28105 1.71766 -0.0980935)
(-1.50674 1.62765 -0.0120735)
(-1.37562 2.01497 0.0497595)
(-1.15698 2.27148 0.160203)
(-0.972992 2.29464 0.0249009)
(-1.9621 1.50866 0.0428763)
(-1.40633 2.22149 -0.010158)
(-1.32335 2.34226 0.128456)
(-0.926392 2.67503 0.220326)
(-0.893112 2.48413 0.105477)
(-1.9468 1.85429 0.0736066)
(-1.65012 2.40014 -0.0913916)
(-1.24223 2.6614 0.197841)
(-1.1075 2.75008 0.305312)
(-0.585315 3.00626 0.491209)
(-0.529363 2.97255 0.386105)
(-2.1916 2.13265 -0.250007)
(-1.94785 2.49888 0.193312)
(-1.51334 2.82233 0.184629)
(-1.29018 2.91398 0.343806)
(-1.06732 2.98638 0.364415)
(-0.871351 2.95717 0.598776)
(-2.53322 1.73939 0.0923601)
(-2.21889 2.6742 -0.100466)
(-1.55997 3.099 0.359207)
(-1.72176 3.01059 0.280942)
(-1.27649 3.18529 0.419033)
(-0.804522 3.19239 0.760563)
(-0.230519 3.23845 0.865586)
(-3.15283 1.16147 0.0962579)
(-2.72904 1.97318 0.566263)
(-2.59292 2.88281 0.23401)
(-2.10548 3.24218 0.373403)
(-1.46862 3.48112 0.505354)
(-1.03866 3.55197 0.7153)
(-0.677212 3.74558 0.881991)
(-0.63462 3.84657 1.0772)
(-3.42757 1.70928 0.472446)
(-3.17609 2.72138 -0.176364)
(-2.83478 3.81268 0.607141)
(-2.34091 4.15037 0.514199)
(-1.92225 4.20747 0.906262)
(-1.25045 4.40549 1.01928)
(-1.113 4.33764 1.142)
(-0.678861 4.32129 1.3699)
(-0.49033 4.30559 1.47855)
(-4.32128 1.72233 -0.264192)
(-3.94543 3.78358 0.530491)
(-3.47323 4.17539 0.786305)
(-3.35513 4.40992 1.25496)
(-2.51739 4.95777 1.53262)
(-2.10611 4.99722 1.48973)
(-1.42788 5.07365 1.54335)
(-1.12285 4.94357 1.49738)
(-0.800261 4.97883 1.57391)
(-0.497017 4.85228 1.80011)
(-4.51767 1.1217 0.0943159)
(-4.00673 3.08106 1.58932)
(-3.61009 4.18421 1.11291)
(-3.14175 4.3274 1.92038)
(-2.71313 4.29442 2.02202)
(-1.7828 4.62612 1.95206)
(-2.11747 4.72778 1.79156)
(-1.42912 4.96102 1.52578)
(-1.39054 4.92782 1.8004)
(-0.522737 4.98694 1.94988)
(0.198082 5.17887 1.82073)
(-5.09203 1.79485 0.967468)
(-5.51113 1.89453 2.44854)
(-4.78328 2.56655 1.64294)
(-2.99044 3.45764 2.59332)
(-2.57985 3.39428 1.84016)
(-2.63102 3.20242 1.42962)
(-2.19815 3.29798 1.36556)
(-1.63673 3.39613 1.66142)
(-0.983049 3.6066 1.8831)
(-0.789427 3.70252 2.08789)
(-1.05127 3.75541 1.95533)
(-0.154663 3.77445 2.06442)
(-5.2749 1.22265 1.50223)
(-4.76754 2.11752 2.15417)
(-3.70687 1.78873 1.6468)
(-1.93007 2.01941 1.08654)
(-2.23084 1.61576 0.0229682)
(-1.54351 2.15503 -0.734779)
(-0.936031 2.54974 -0.243696)
(-0.584051 2.5447 0.0889074)
(-0.0797043 2.65484 0.141858)
(-0.281118 2.54364 0.261334)
(-0.412179 2.73706 0.962018)
(-0.0724192 3.39773 1.22682)
(0.925087 3.49624 0.596055)
(-3.55496 -0.129505 0.712791)
(-3.31416 0.213018 0.887408)
(-1.94651 0.746927 0.10973)
(-0.533805 0.198399 -1.19611)
(-0.743904 -0.593349 -0.354787)
(-0.38477 -0.212323 -0.248773)
(-0.0591744 -0.148622 -0.101034)
(-0.348282 0.428488 -0.23516)
(-0.135876 1.04755 -0.525236)
(-0.00901597 0.894098 -1.14186)
(-0.0569051 1.07753 -1.19663)
(-0.420406 1.04086 -0.40703)
(-0.247209 0.375239 -0.286846)
(0.0380301 0.594808 0.0632145)
(-0.300334 -0.958561 0.63286)
(0.0840228 -0.65934 -0.220653)
(-0.457074 -0.481257 0.407406)
(-0.0795562 0.0506662 -0.837221)
(0.0625269 0.144576 -0.718676)
(-0.362718 0.29559 -0.398788)
(-0.0575575 0.259205 -0.895002)
(-0.284618 0.0399589 -0.797963)
(-0.238649 0.0532467 -0.901693)
(-0.0839678 0.225212 -1.13693)
(-0.0897727 0.120691 -1.53262)
(-0.180063 -0.0927891 -1.39397)
(-0.331229 -0.10217 -1.41685)
(-0.0497449 0.0713157 -1.5991)
(-0.113587 -0.0153206 -1.52238)
(0.612653 -0.606468 -0.858255)
(1.13267 -0.193224 -3.03046)
(0.0587037 -0.789299 -1.67521)
(-0.528118 -0.276955 -0.146036)
(0.00307647 0.472175 -1.68844)
(-0.487274 0.436928 -2.35402)
(-0.349444 0.0423131 -2.57616)
(-0.46446 -0.315135 -1.90262)
(-0.279003 -0.0872046 -2.02317)
(-0.323053 0.13399 -2.6132)
(-0.27053 -0.182334 -2.72509)
(-0.243174 -0.26997 -2.772)
(0.0687123 -0.12623 -3.01007)
(0.237505 -0.158268 -2.97962)
(0.23989 -0.345434 -2.70754)
(0.158391 -0.639802 -2.5424)
(-1.08075 1.48646 -0.0653434)
(-1.26806 1.53315 0.0173487)
(-1.18198 1.88557 -0.0163535)
(-0.999903 1.76526 -0.0353907)
(-1.56891 1.37884 -0.00550337)
(-1.34375 1.91707 0.0827076)
(-0.833241 2.34086 0.0988572)
(-1.1841 2.04211 0.028048)
(-1.26485 1.77776 0.0114681)
(-1.57365 1.56248 -0.0997533)
(-1.41556 1.96159 0.0348964)
(-1.29078 2.15703 0.127985)
(-0.933192 2.37604 0.0938024)
(-0.619769 2.48239 0.187414)
(-2.05234 1.42008 0.0138877)
(-1.44796 2.21402 0.0113206)
(-1.50654 2.30395 0.120583)
(-0.903377 2.65384 0.205891)
(-0.742646 2.7379 0.31642)
(-0.799873 2.66988 0.262483)
(-1.88495 1.90236 0.0753896)
(-1.8961 2.18739 -0.124298)
(-1.29918 2.62797 0.298453)
(-1.31267 2.6679 0.261902)
(-0.986865 2.84239 0.476159)
(-0.790398 2.88205 0.636943)
(-0.382373 3.11829 0.501643)
(-2.554 1.43057 -0.185766)
(-2.03935 2.42148 0.193468)
(-1.89988 2.55404 0.136671)
(-1.54225 2.84422 0.35312)
(-1.27737 2.92693 0.378806)
(-1.08072 2.94675 0.59613)
(-0.839766 3.00344 0.660232)
(-2.72478 1.29337 0.242868)
(-2.34877 2.2348 0.078806)
(-1.90267 2.80663 0.261951)
(-1.76824 3.01374 0.233676)
(-1.59165 3.07812 0.431803)
(-1.17623 3.15611 0.744575)
(-0.768114 3.22546 0.857563)
(-0.552684 3.19532 1.03989)
(-3.34436 0.757361 0.0854928)
(-2.8272 1.65192 0.542732)
(-2.7061 2.69858 0.195712)
(-2.25552 3.09057 0.419315)
(-1.38538 3.58267 0.573733)
(-1.3272 3.51523 0.667533)
(-1.16463 3.61389 0.826584)
(-0.779478 3.75506 1.07188)
(-0.471965 3.86032 1.21149)
(-3.51404 1.66275 0.349206)
(-3.26419 2.65545 -0.169956)
(-2.67215 3.76517 0.803398)
(-2.55407 3.84617 0.506209)
(-2.17066 4.07118 0.743636)
(-1.74403 4.29047 0.858377)
(-1.39163 4.28525 1.13357)
(-0.885322 4.24363 1.43286)
(-0.569985 4.22276 1.5242)
(-0.285629 4.1746 1.62412)
(-4.56657 1.21866 -0.0236057)
(-4.36929 3.33914 0.495709)
(-3.76968 3.70244 0.714731)
(-3.73832 3.92851 0.925146)
(-2.67704 4.91344 1.44796)
(-2.59695 4.85654 1.2903)
(-1.646 4.99535 1.52884)
(-1.36683 4.90059 1.56548)
(-0.981383 4.77096 1.6312)
(-0.739824 4.7673 1.75675)
(-0.402867 4.69447 1.85883)
(-4.50078 1.05769 0.0168407)
(-4.44249 2.42375 1.30878)
(-4.02144 3.86564 0.808163)
(-3.50524 4.31758 1.51909)
(-3.16332 4.11793 1.71205)
(-2.38751 4.49454 1.59214)
(-1.19358 4.95913 1.53459)
(-1.75052 4.85051 1.57403)
(-0.804606 4.94239 1.77924)
(-0.664011 4.99969 1.95731)
(0.131828 5.11877 2.00172)
(-0.191183 4.94014 1.94824)
(-5.29605 1.12352 0.441352)
(-5.6726 2.06924 2.5666)
(-5.04509 2.25161 1.42082)
(-3.55042 3.23694 2.40803)
(-2.79777 3.54645 1.55313)
(-2.6207 3.38297 0.631082)
(-2.36541 3.05921 1.36179)
(-1.92552 3.29853 1.65556)
(-1.32065 3.45803 1.79475)
(-1.18521 3.75183 1.79156)
(-1.33592 3.65236 2.00086)
(-0.673541 3.73183 2.009)
(-0.0978963 3.83838 2.20177)
(-5.55453 0.415866 1.21499)
(-5.08581 1.7379 2.25779)
(-3.87207 2.0045 2.18959)
(-2.29295 2.0617 1.28419)
(-2.31472 1.64538 0.46793)
(-1.69375 2.11346 -0.555526)
(-1.17663 2.51192 -0.0647608)
(-0.556873 2.61987 0.0591498)
(-0.314541 2.76392 0.244579)
(-0.325891 2.53942 0.22897)
(-0.430224 2.82327 0.932197)
(0.0995069 3.50119 1.06612)
(0.930581 3.57645 0.300269)
(0.626696 2.79922 0.508692)
(-3.8093 -0.315116 0.768168)
(-3.4303 0.18586 0.967687)
(-2.23974 0.678093 0.549599)
(-0.756999 0.0765112 -0.327782)
(-0.608881 -0.53973 -0.195704)
(-0.4332 -0.250826 -0.110332)
(-0.074435 -0.178135 0.082413)
(-0.409406 0.324817 -0.0275503)
(-0.302061 0.945301 -0.0985358)
(-0.14727 0.838975 -0.961251)
(-0.126965 0.966795 -1.11834)
(-0.475142 0.861601 -0.354514)
(-0.168578 0.226831 -0.348856)
(0.0199718 0.505702 -0.163049)
(0.00384554 0.512035 0.0230575)
(-0.405886 -0.897346 0.619947)
(-0.0366528 -0.583822 -0.242572)
(-0.514227 -0.473224 0.397577)
(-0.0659311 0.150331 -0.880782)
(0.0663973 0.215168 -0.833305)
(-0.353634 0.341019 -0.493686)
(-0.0401188 0.283946 -0.91054)
(-0.345645 -0.000458894 -0.668216)
(-0.256121 0.0402488 -0.868619)
(-0.143255 0.205067 -1.00633)
(-0.1524 0.0962999 -1.40613)
(-0.193642 -0.0870212 -1.34919)
(-0.312068 -0.0791527 -1.55779)
(-0.073957 0.0879313 -1.74334)
(-0.144339 0.0019066 -1.66541)
(-0.0976858 -0.0735965 -1.77444)
(0.52911 -0.577358 -0.877628)
(1.10606 -0.161455 -3.06304)
(0.123639 -0.77254 -1.80442)
(-0.51345 -0.274612 -0.129899)
(-0.0274089 0.491328 -1.79087)
(-0.461217 0.476743 -2.37542)
(-0.373282 0.00448626 -2.52074)
(-0.494317 -0.347854 -1.82185)
(-0.305019 -0.0950968 -1.96933)
(-0.344871 0.129455 -2.549)
(-0.272404 -0.185641 -2.68262)
(-0.294048 -0.285061 -2.76331)
(0.0756215 -0.114363 -3.04424)
(0.263709 -0.152647 -2.95582)
(0.210569 -0.347855 -2.69193)
(0.131161 -0.640956 -2.54606)
(-0.000634368 -0.629875 -2.56196)
(-0.842616 1.47663 0.0197644)
(-1.2505 1.35317 -0.0469524)
(-1.17098 1.70566 0.00631175)
(-0.948594 1.58958 -0.0214303)
(-1.3707 1.4402 -0.0063459)
(-1.1818 1.88942 -0.014764)
(-0.69039 2.27781 0.0838853)
(-1.04541 1.94003 -0.0606916)
(-1.01728 1.78189 -0.0640072)
(-1.60804 1.27582 -0.0154977)
(-1.49592 1.75526 0.065638)
(-1.08095 2.14666 0.0910664)
(-0.758426 2.27885 -0.0413818)
(-0.802139 2.3586 -0.019282)
(-1.11381 2.10015 0.0833647)
(-1.69588 1.45187 -0.123282)
(-1.42589 1.94846 0.0255796)
(-1.33191 2.10391 0.162957)
(-0.632949 2.55464 0.108722)
(-0.747516 2.49146 0.150526)
(-0.572171 2.54625 0.126814)
(-2.06304 1.36886 0.0291412)
(-1.7961 1.99543 0.0143601)
(-1.61459 2.23049 0.115433)
(-1.29922 2.39288 0.250198)
(-0.87729 2.69732 0.312053)
(-0.633071 2.8133 0.442299)
(-0.693082 2.76431 0.3069)