/*--------------------------------*- C++ -*----------------------------------*\
  =========                 |
  \\      /  F ield         | OpenFOAM: The Open Source CFD Toolbox
   \\    /   O peration     | Website:  https://openfoam.org
    \\  /    A nd           | Version:  7
     \\/     M anipulation  |
\*---------------------------------------------------------------------------*/
FoamFile
{
    version     2.0;
    format      ascii;
    class       volVectorField;
    location    "4.5";
    object      U_0;
}
// * * * * * * * * * * * * * * * * * * * * * * * * * * * * * * * * * * * * * //

dimensions      [0 1 -1 0 0 0 0];

internalField   nonuniform List<vector> 
18750
(
(2.15544 -1.04899 -1.41717)
(2.05591 -0.755529 -0.315246)
(2.07196 -0.996127 -1.39028)
(3.5391 0.381393 -1.55694)
(2.61745 1.7826 -0.863887)
(1.93436 -0.710541 -0.307378)
(3.28455 -1.08885 -0.983637)
(1.95388 -0.949408 -1.36276)
(3.76127 0.409791 -2.0369)
(-0.568457 -0.537225 -0.774189)
(1.43744 6.81206 1.64)
(1.19194 1.92434 -1.68468)
(1.33941 1.81705 -0.371065)
(1.77442 -0.652253 -0.269956)
(3.07172 -1.03294 -0.905267)
(-0.183292 -0.329452 0.67805)
(1.81962 -0.908997 -1.31909)
(3.66216 0.427242 -2.48772)
(-0.622085 -0.572695 -0.803357)
(-0.60173 -0.309184 -0.252347)
(1.54351 5.47151 -1.6319)
(1.77924 6.41035 1.28058)
(4.12848 2.88931 1.23613)
(0.486004 1.96891 -1.72272)
(0.576113 1.67066 -0.655044)
(-0.429835 0.577932 1.02279)
(1.60384 -0.601697 -0.211681)
(2.75234 -0.94681 -0.861203)
(-0.249183 -0.36622 0.609475)
(-0.76347 -0.0985929 -0.537541)
(1.68395 -0.873759 -1.26729)
(3.28887 0.389647 -2.80597)
(-0.624992 -0.608463 -0.848995)
(-0.6011 -0.305803 -0.218161)
(0.144765 0.0192888 -0.856784)
(-0.691664 3.94646 -0.615851)
(1.21012 5.13422 -0.776133)
(2.029 4.56831 4.50933)
(1.83638 6.06713 1.46625)
(3.5309 3.15164 1.03835)
(0.324907 2.10936 -0.363908)
(0.243225 1.94875 -1.54922)
(0.0562038 1.33099 -0.917444)
(-0.326762 0.638705 0.592699)
(0.444363 0.393454 -1.44728)
(1.44057 -0.572371 -0.136099)
(2.38753 -0.883372 -0.765565)
(-0.245278 -0.372316 0.440479)
(-0.790436 -0.148101 -0.59723)
(-0.570637 -0.209538 0.347328)
(1.55774 -0.843898 -1.2134)
(2.82802 0.302078 -2.95002)
(-0.585054 -0.644959 -0.900583)
(-0.603686 -0.30138 -0.185996)
(0.13242 0.0637375 -0.892475)
(-0.160418 0.25557 -2.15263)
(-1.71302 4.23336 0.227647)
(-1.42808 4.25465 -0.80031)
(1.00475 5.71489 2.05384)
(0.0568594 4.9214 -0.258757)
(1.15235 4.35174 4.34426)
(1.09386 4.4948 3.91734)
(1.62484 5.97742 1.74413)
(3.03283 3.39553 0.66208)
(0.190488 2.24989 -0.668817)
(-0.917392 1.34588 -1.41259)
(0.0513413 1.9793 -1.27884)
(-0.254888 0.975147 -0.962267)
(-0.216672 0.635481 -0.0726417)
(0.510399 0.565178 -1.66286)
(0.732801 -0.0317913 -1.19208)
(1.27766 -0.560974 -0.0546124)
(2.02689 -0.852201 -0.667019)
(-0.2204 -0.432714 0.409543)
(-0.80732 -0.207044 -0.645473)
(-0.669842 -0.281771 0.351694)
(-0.433826 -0.0989759 -0.190877)
(1.4461 -0.817365 -1.16222)
(2.36339 0.18286 -2.98433)
(-0.522602 -0.677311 -0.962123)
(-0.61078 -0.298887 -0.151782)
(0.114207 0.10901 -0.925937)
(-0.190072 0.292497 -2.15318)
(-0.0238761 0.190849 -2.97523)
(-2.41153 2.79905 0.0620452)
(-1.73699 4.38138 0.519858)
(-1.85079 4.70034 0.429417)
(-2.50602 4.29833 -0.783175)
(-0.180262 5.85917 2.20912)
(0.906298 5.47164 2.17659)
(-1.4218 4.68629 -1.18483)
(0.475609 4.39883 4.11796)
(0.403492 4.438 3.90585)
(0.951691 3.35288 3.45146)
(0.892419 5.83622 1.79211)
(3.04176 3.55741 0.265727)
(0.169048 2.3981 -0.740921)
(-0.905561 1.24842 -1.24246)
(-1.07546 1.29966 -0.789857)
(-0.146425 1.96281 -1.00284)
(-0.427166 0.715894 -0.861204)
(-0.21476 0.636415 -0.524514)
(0.481499 0.697729 -1.89608)
(0.635638 -0.00771885 -1.29573)
(0.222476 -0.0665343 -1.31819)
(1.10494 -0.581622 0.0332767)
(1.69793 -0.842239 -0.568285)
(-0.253125 -0.458514 0.443518)
(-0.78244 -0.269822 -0.717903)
(-0.673469 -0.330155 0.285308)
(-0.488302 -0.0598394 -0.106788)
(0.159811 -0.134424 -1.35779)
(1.34751 -0.791943 -1.11588)
(1.95343 0.0482322 -2.95977)
(-0.451994 -0.706252 -1.03071)
(-0.619107 -0.297705 -0.119923)
(0.0925043 0.153274 -0.963194)
(-0.21893 0.326702 -2.15849)
(-0.063955 0.192911 -2.94936)
(-0.240481 -0.0972269 -2.80687)
(-2.12414 2.54883 -0.0202415)
(-2.7116 2.54269 0.0365034)
(-1.07192 3.93136 0.732002)
(-1.81466 4.49679 0.700756)
(-2.40697 4.6746 0.0562792)
(-0.466356 5.13014 1.65062)
(-3.52596 4.13662 -1.0065)
(-1.07317 5.91999 2.20395)
(0.48287 5.46881 2.16245)
(0.542457 4.62352 2.50166)
(-3.8075 4.22562 -1.63585)
(0.242662 4.34199 4.54762)
(0.0295697 4.38936 3.9031)
(0.967416 3.46824 3.37428)
(0.0205199 3.53201 2.31701)
(-0.0489089 5.74826 1.81595)
(2.88304 3.74298 0.260464)
(-0.00160069 2.35759 -0.457656)
(-0.893019 1.17167 -0.840973)
(-1.22222 1.18812 -0.935042)
(-1.81102 1.95348 0.796802)
(-0.366985 1.8924 -0.671591)
(-0.629765 0.504988 -0.681448)
(-0.281581 0.644006 -0.953164)
(0.437417 0.746862 -2.0824)
(0.28571 -0.0372516 -1.43639)
(0.289807 0.00658376 -1.24824)
(0.0883578 -0.277935 -1.14179)
(0.915184 -0.635913 0.127202)
(1.41205 -0.836086 -0.481709)
(-0.273827 -0.503965 0.495189)
(-0.727475 -0.307426 -0.776626)
(-0.588858 -0.34887 0.13509)
(-0.520208 -0.0182967 -0.0481838)
(0.138267 -0.0651576 -1.3733)
(0.424469 0.252667 -1.79209)
(1.25641 -0.764564 -1.07443)
(1.62956 -0.0803434 -2.91441)
(-0.382904 -0.730789 -1.10241)
(-0.630529 -0.29714 -0.0825069)
(0.0784659 0.197949 -1.01916)
(-0.248033 0.359411 -2.16823)
(-0.106426 0.191027 -2.91749)
(-0.272987 -0.119102 -2.68941)
(-0.10461 -0.038363 -2.69377)
(-1.48904 2.80677 -0.183919)
(-2.37783 2.32624 0.00854964)
(-1.0885 3.39114 0.167033)
(-2.80839 2.57779 0.113846)
(-1.37412 3.68225 0.774674)
(-0.554585 4.25751 0.649192)
(-1.92543 4.37667 0.653686)
(-2.6771 4.59699 0.19607)
(-0.535813 5.10734 1.73722)
(-0.263223 4.56875 2.0043)
(-4.7983 3.28973 -1.46062)
(-1.75355 5.80451 2.60155)
(0.0977547 5.47944 2.20792)
(-0.273106 4.72577 2.49992)
(0.390246 4.29889 2.86231)
(-4.17951 4.37321 0.0949554)
(-0.0254823 4.28389 4.88005)
(-0.267427 4.28178 4.04902)
(0.855188 3.57905 3.35096)
(-0.565148 3.51025 2.40702)
(-0.755165 3.707 1.57452)
(0.139163 5.7935 1.72774)
(1.47573 3.66152 1.13994)
(0.273838 2.42361 -0.441057)
(-0.940135 1.13287 -0.430917)
(-1.44928 1.18778 -0.927056)
(-1.77698 1.86456 0.540412)
(-1.50149 1.94573 1.02608)
(-0.671839 1.63657 -0.198693)
(-1.0046 0.342906 -0.500777)
(-0.360339 0.603289 -1.26135)
(0.226978 0.784355 -2.19732)
(-0.168885 -0.123422 -1.39787)
(0.21079 0.0843577 -1.19768)
(-0.0408968 -0.186598 -1.12086)
(0.0440074 0.417103 -1.55058)
(0.697168 -0.716754 0.236137)
(1.16581 -0.834239 -0.408331)
(-0.3014 -0.519153 0.524869)
(-0.644761 -0.322993 -0.814593)
(-0.461187 -0.326056 0.000711643)
(-0.531077 0.0187169 -0.0351355)
(0.105107 0.0134045 -1.34376)
(0.301356 0.253053 -1.76235)
(0.365183 0.346118 -1.63983)
(1.16704 -0.736709 -1.03551)
(1.40734 -0.174925 -2.87588)
(-0.31745 -0.751443 -1.17322)
(-0.638886 -0.29364 -0.0626467)
(0.0723914 0.24279 -1.09513)
(-0.277119 0.389399 -2.18282)
(-0.14709 0.185249 -2.88077)
(-0.301803 -0.142632 -2.57006)
(-0.129315 -0.0481631 -2.57341)
(-0.0613099 0.178911 -3.00964)
(-1.68061 2.41935 -0.0149292)
(-1.82433 2.66714 -0.0656539)
(-1.16581 3.22714 0.00386087)
(-2.67773 2.04848 -0.0389319)
(-1.35425 3.32577 0.193654)
(-0.24837 3.62459 0.299365)
(-2.58149 2.79565 0.0744816)
(-2.254 3.17998 0.418929)
(-1.13477 4.02783 0.509861)
(-0.553802 4.23462 0.981996)
(-2.45929 3.90055 0.362945)
(-3.06436 4.5142 0.0258415)
(-0.836235 4.9819 1.64202)
(-0.033616 4.69608 2.11558)
(-0.358617 4.44432 2.27251)
(-5.32734 2.54107 -1.56379)
(-1.86122 5.7745 3.5827)
(-0.345788 5.28154 2.35294)
(0.336302 4.5254 3.09316)
(0.0177668 4.5089 3.00058)
(-0.28133 4.46193 2.52932)
(-4.117 4.29299 0.755161)
(-1.88026 3.80768 4.05181)
(-0.866054 4.17541 3.99585)
(-0.0678113 3.55864 3.39366)
(-1.09004 3.38626 2.58028)
(-1.40877 3.47062 1.59459)
(-0.823979 3.65667 1.36015)
(-0.265652 5.52856 1.64447)
(-0.175907 3.36198 1.87604)
(0.00957447 2.46593 0.45043)
(-0.940725 1.1445 -0.139672)
(-1.66857 1.23582 -0.957455)
(-1.47629 1.88786 0.00217351)
(-1.23823 2.37289 0.495496)
(-0.748127 2.13898 0.709065)
(-0.955006 1.45112 0.0245517)
(-1.4212 0.236144 -0.270763)
(-0.478487 0.547542 -1.42117)
(0.0438269 0.720309 -2.20844)
(-0.574231 -0.253432 -1.14183)
(0.14413 0.0758414 -1.18323)
(-0.130271 -0.12434 -0.990189)
(0.0255785 0.526315 -1.3013)
(0.512194 1.05102 -1.81718)
(0.485255 -0.787526 0.335527)
(0.966593 -0.837348 -0.351609)
(-0.320146 -0.533504 0.522563)
(-0.543848 -0.303951 -0.836744)
(-0.3169 -0.270433 -0.12862)
(-0.518892 0.0597759 -0.0180894)
(0.0673426 0.0795984 -1.27927)
(0.173828 0.234592 -1.67703)
(0.302476 0.313779 -1.49995)
(0.18909 0.310764 -1.68338)
(1.07389 -0.712113 -0.996902)
(1.30037 -0.232301 -2.86312)
(-0.253718 -0.76897 -1.242)
(-0.643204 -0.300196 -0.0435678)
(0.0684479 0.286588 -1.18329)
(-0.307304 0.415238 -2.20194)
(-0.186114 0.175142 -2.83916)
(-0.329703 -0.167202 -2.44977)
(-0.152142 -0.0575815 -2.45945)
(-0.115784 0.174807 -2.93597)
(-0.14219 -0.116144 -2.88542)
(-1.40866 2.14185 0.0877769)
(-1.89371 2.33154 -0.0456113)
(-1.28538 2.8916 0.0601971)
(-1.90078 2.63756 -0.0135614)
(-1.47641 3.20386 -0.0430444)
(-0.798113 3.34913 0.142856)
(-2.80425 1.84708 -0.0428804)
(-1.66157 3.23356 0.165933)
(-0.88012 3.44376 0.224504)
(-0.52594 3.51252 0.445102)
(-2.53145 2.84698 0.317112)
(-2.43114 3.05673 0.265689)
(-1.08577 4.16001 0.415322)
(-1.00332 4.0747 0.967291)
(-0.494622 4.49758 1.0534)
(-3.14247 3.12973 -0.52962)
(-3.41183 4.49038 0.131461)
(-1.51066 4.81494 1.47415)
(-0.963138 4.76118 1.93463)
(-0.662983 4.6502 2.21336)
(-0.78566 5.00319 2.02871)
(-5.1827 1.9303 -0.710003)
(-1.43726 5.83669 4.00695)
(-0.542099 5.26712 2.64043)
(-0.680529 4.70815 3.13939)
(-0.658197 4.46242 3.08201)
(-0.353844 4.47639 2.62063)
(-0.744016 4.81822 2.08785)
(-3.66591 5.03554 1.45657)
(-3.77829 2.76506 3.17535)
(-2.28172 3.90852 3.10279)
(-0.466831 3.5263 3.41262)
(-1.82904 3.31965 2.48692)
(-1.70413 3.32789 1.79939)
(-1.12099 3.58558 1.43162)
(-0.537841 3.76063 1.2357)
(-2.7384 3.96325 1.66139)
(-1.30446 3.1883 1.94133)
(-0.312099 2.63417 0.786815)
(-1.04984 1.2164 0.186234)
(-1.80583 1.32678 -0.602651)
(-1.4984 1.91489 -0.119292)
(-1.13898 2.3451 0.315819)
(-0.751881 2.24394 0.58247)
(-0.242435 2.31958 0.642517)
(-1.51722 1.21336 0.215003)
(-1.87098 0.156409 -0.0452794)
(-0.715217 0.538211 -1.30412)
(-0.126623 0.581838 -2.25071)
(-0.931216 -0.38839 -0.761313)
(0.0749729 0.0624551 -1.0909)
(-0.175693 -0.0920816 -0.813729)
(-0.0174449 0.579099 -1.05645)
(0.327036 1.08084 -1.5814)
(0.449082 1.04682 -1.4729)
(0.293922 -0.867398 0.426135)
(0.751245 -0.826014 -0.305865)
(-0.331297 -0.542045 0.520938)
(-0.431493 -0.262745 -0.831969)
(-0.176296 -0.181446 -0.266654)
(-0.488004 0.101189 -0.0170652)
(0.030826 0.142533 -1.19259)
(0.0503384 0.205378 -1.5348)
(0.189098 0.270255 -1.37188)
(0.0643239 0.284284 -1.59092)
(0.0659275 0.192755 -1.83372)
(0.975052 -0.690707 -0.958313)
(1.26317 -0.262417 -2.87112)
(-0.192716 -0.784004 -1.31398)
(-0.647312 -0.310669 -0.0258472)
(0.0619374 0.3284 -1.27717)
(-0.336973 0.435814 -2.22856)
(-0.224864 0.159657 -2.79312)
(-0.357782 -0.193006 -2.33054)
(-0.174584 -0.0651616 -2.3508)
(-0.170046 0.169752 -2.86801)
(-0.174132 -0.129253 -2.86056)
(-0.181456 -0.261473 -2.72658)
(-1.5698 1.82438 0.062685)
(-1.50119 2.11634 0.0603748)
(-1.40092 2.54234 -0.0344207)
(-1.3724 2.20543 0.00886933)
(-2.04617 2.20634 -0.13726)
(-1.51715 2.82729 0.0804094)
(-0.97709 3.04782 0.262403)
(-2.04096 2.38147 -0.0419981)
(-1.63223 3.13394 -0.100428)
(-0.915066 3.42327 0.311478)
(-0.823993 3.31817 0.42011)
(-2.94734 1.64555 -0.100868)
(-1.79087 3.07122 0.380434)
(-1.22168 3.47675 0.109488)
(-0.908852 3.55594 0.363723)
(-0.479764 3.65624 0.559715)
(-2.66165 2.75264 0.673172)
(-2.84962 2.6791 0.206096)
(-1.68802 4.0361 0.217024)
(-0.942318 4.23287 0.982485)
(-0.743715 4.42084 1.16005)
(-0.555041 4.55075 1.28653)
(-3.41535 2.81024 -0.883233)
(-3.65894 4.58631 0.0465957)
(-1.94388 4.66971 1.25307)
(-1.45144 4.69279 1.69755)
(-1.41546 4.808 1.976)
(-1.33396 4.99385 1.75452)
(-0.671763 5.1637 1.76413)
(-4.84821 1.89565 0.267494)
(-1.92019 5.30806 3.22074)
(-1.12519 5.21296 2.47232)
(-1.25125 4.64365 3.3309)
(-0.839877 4.4492 3.1438)
(-0.871819 4.6334 2.39626)
(-1.00509 4.79569 2.05484)
(-0.566568 5.12268 1.87765)
(-5.27571 3.63645 1.55994)
(-4.20681 2.73525 2.90981)
(-2.84142 3.76999 2.73301)
(-1.65929 3.44943 3.03145)
(-2.12898 3.25893 2.33616)
(-2.07074 3.28423 1.7349)
(-1.49146 3.48656 1.59391)
(-0.799311 3.71027 1.37001)
(-0.587854 3.74524 1.60783)
(-3.3514 3.65855 1.72617)
(-2.68097 2.82695 2.02535)
(-1.4156 2.26775 1.53393)
(-1.10925 1.47025 0.343019)
(-1.80232 1.4282 -0.676659)
(-1.24267 1.99554 -0.453932)
(-1.08963 2.36224 0.266908)
(-0.638163 2.28589 0.455019)
(-0.310057 2.43482 0.7664)
(-0.0812044 2.48795 0.651555)
(-2.135 0.853382 0.50404)
(-2.36349 0.111911 0.184115)
(-0.860182 0.593872 -1.22156)
(-0.214427 0.456007 -2.31667)
(-1.10947 -0.533176 -0.435523)
(-0.0811501 -0.0275355 -0.900007)
(-0.162897 -0.0968845 -0.633428)
(-0.0959084 0.593654 -0.818197)
(0.170255 1.08609 -1.38559)
(0.202079 1.01862 -1.30331)
(-0.247281 1.2222 -1.11724)
(0.0878173 -0.930487 0.49781)
(0.542429 -0.804708 -0.264681)
(-0.359075 -0.528587 0.501064)
(-0.310745 -0.195361 -0.81205)
(-0.0776684 -0.0865377 -0.372723)
(-0.418883 0.168173 -0.13912)
(-0.00157843 0.190899 -1.09638)
(-0.0547906 0.166994 -1.35478)
(0.0451357 0.214932 -1.24316)
(0.010182 0.272595 -1.49922)
(0.0110569 0.182926 -1.79952)
(-0.280472 -0.0531221 -1.42541)
(0.875733 -0.670507 -0.917404)
(1.19265 -0.277221 -2.92352)
(-0.131827 -0.79249 -1.39143)
(-0.646628 -0.322229 -0.0183765)
(0.0522008 0.368042 -1.37474)
(-0.368223 0.452426 -2.25857)
(-0.261154 0.138762 -2.74489)
(-0.3859 -0.220537 -2.21482)
(-0.198808 -0.0708336 -2.25009)
(-0.219996 0.158263 -2.80301)
(-0.199373 -0.140022 -2.83598)
(-0.182624 -0.258917 -2.75353)
(0.0588228 -0.159009 -2.94629)
(-1.272 1.80528 -0.00654701)
(-1.72469 1.70489 0.0918012)
(-1.33675 2.27148 -0.0158298)
(-1.52112 1.86391 0.0745414)
(-1.6891 2.00651 0.127515)
(-1.48153 2.50279 -0.0448868)
(-0.928505 2.80364 0.271111)
(-1.19367 2.61217 -0.00216745)
(-2.16668 2.16944 -0.122841)
(-1.36655 2.85162 0.0961801)
(-1.2194 2.96979 0.229062)
(-1.07033 3.07857 0.420085)
(-2.35952 2.03229 0.0423678)
(-1.60221 3.09475 -0.0137071)
(-1.13888 3.37934 0.246854)
(-1.12355 3.43698 0.404742)
(-0.757434 3.36908 0.503233)
(-2.95338 1.65013 -0.0489981)
(-2.21824 2.69051 0.560922)
(-1.91969 3.24018 0.192169)
(-1.57365 3.44688 0.346807)
(-1.08617 3.5662 0.444694)
(-0.54629 3.76471 0.749207)
(-2.82812 2.47284 0.799316)
(-3.56949 2.20645 0.322117)
(-2.11079 3.89977 0.29587)
(-1.82224 4.05494 0.798661)
(-1.08916 4.44397 1.0919)
(-0.744045 4.55381 1.23224)
(-0.295972 4.51064 1.37472)
(-3.91523 2.27867 -0.857193)
(-3.71708 4.84758 0.116671)
(-2.42583 4.6248 1.15461)
(-0.816323 5.22033 1.8124)
(-1.61984 4.93082 1.82971)
(-0.915533 5.13682 1.80548)
(-0.903308 5.13803 1.67916)
(-0.730807 5.10431 1.44576)
(-4.66807 1.92701 0.0938811)
(-4.27501 3.49547 1.11941)
(-2.17626 5.0295 1.95588)
(-2.39402 4.34705 2.56778)
(-1.48824 4.50378 2.82253)
(-1.25227 4.63605 2.18884)
(-0.949367 4.9243 1.94433)
(-1.26886 5.02823 1.96679)
(0.342644 5.13127 1.77022)
(-5.84339 2.87662 1.68789)
(-4.87648 2.50801 2.71675)
(-3.28068 3.60306 2.48398)
(-2.25367 3.37462 2.887)
(-2.30313 3.20603 2.23302)
(-2.49017 3.08922 1.61571)
(-1.88299 3.37159 1.51546)
(-1.22694 3.54604 1.56596)
(-0.737717 3.62385 1.78433)
(-0.168522 3.79716 1.90384)
(-4.20529 2.88016 1.82421)
(-3.79809 2.2839 2.00962)
(-2.16099 2.35052 1.72184)
(-1.41677 1.61421 0.825635)
(-1.87544 1.6161 -0.70049)
(-0.966283 2.22849 -0.805302)
(-1.01058 2.51293 0.103403)
(-0.456179 2.38674 0.351391)
(-0.242607 2.54329 0.450468)
(-0.0887519 2.51034 0.690744)
(-0.332292 2.74834 1.00777)
(-2.74664 0.427443 0.589775)
(-2.69583 0.206221 0.446209)
(-1.27421 0.625943 -0.854688)
(-0.269837 0.365433 -2.19805)
(-1.09216 -0.609877 -0.327356)
(-0.209742 -0.10282 -0.681299)
(-0.124447 -0.0964537 -0.457489)
(-0.182052 0.585974 -0.599523)
(0.0416087 1.10308 -1.16781)
(0.118525 0.963171 -1.24442)
(-0.171242 1.18711 -1.17102)
(-0.209951 1.29446 -0.461516)
(-0.0678231 -0.964313 0.562394)
(0.357268 -0.773092 -0.227211)
(-0.38467 -0.513283 0.465722)
(-0.153584 -0.0887077 -0.834792)
(0.00147773 0.0127915 -0.476697)
(-0.378576 0.214628 -0.236473)
(-0.0120244 0.240004 -1.00027)
(-0.138405 0.128486 -1.15777)
(-0.0896175 0.155236 -1.11014)
(-0.0155891 0.260578 -1.38843)
(-0.00078028 0.173069 -1.75456)
(-0.286346 -0.0776438 -1.4052)
(-0.208468 -0.106088 -1.31539)
(0.779088 -0.651801 -0.881277)
(1.1998 -0.241476 -2.95817)
(-0.0689708 -0.794116 -1.47655)
(-0.614399 -0.314315 -0.0713373)
(0.0387769 0.405765 -1.47443)
(-0.403171 0.458066 -2.29032)
(-0.293603 0.113429 -2.69332)
(-0.413614 -0.249734 -2.10495)
(-0.225201 -0.0756132 -2.15988)
(-0.261894 0.154226 -2.73796)
(-0.225705 -0.1495 -2.80591)
(-0.186215 -0.256901 -2.77609)
(0.0670071 -0.149104 -2.96146)
(0.253696 -0.162036 -3.01604)
(-1.30327 1.65482 -0.0076385)
(-1.43294 1.67625 -0.00490562)
(-1.27859 2.0756 0.00525195)
(-1.20554 1.87019 -0.00469208)
(-1.80675 1.66189 0.101522)
(-1.38755 2.25377 -0.022856)
(-1.12973 2.39971 0.138261)
(-1.17587 2.38734 0.00116328)
(-1.7796 1.9631 0.148892)
(-1.58059 2.43914 -0.0932928)
(-1.04024 2.76622 0.219915)
(-0.731968 2.92473 0.405967)
(-0.720995 2.82722 0.273107)
(-2.36274 1.96342 -0.0702964)
(-1.82978 2.52526 0.117587)
(-1.52182 2.84384 0.0859169)
(-0.778077 3.12478 0.420904)
(-0.757013 3.1564 0.412459)
(-2.48799 1.8745 0.0474207)
(-2.22336 2.65614 -0.205604)
(-1.35524 3.27174 0.27221)
(-1.1855 3.37164 0.376849)
(-0.951091 3.32563 0.442937)
(-0.55798 3.21266 0.723882)
(-3.02089 1.41901 0.0202711)
(-2.65556 2.22321 0.498205)
(-2.3248 3.07211 0.294669)
(-1.98898 3.33161 0.387729)
(-1.2328 3.57676 0.538108)
(-0.816666 3.64835 0.761285)
(-0.513705 3.80592 0.901758)
(-3.19331 1.99914 0.6178)
(-3.354 2.61347 -0.00422986)
(-2.60198 3.81894 0.561602)
(-2.40039 3.94027 0.852607)
(-1.72502 4.31276 0.942873)
(-1.12688 4.42394 1.07344)
(-0.53666 4.46673 1.23272)
(-0.562145 4.34715 1.39574)
(-4.11461 2.13131 -0.721707)
(-3.09402 5.12476 0.421421)
(-3.56189 4.09107 0.868189)
(-3.18334 4.48679 1.2468)
(-2.15434 4.92263 1.68447)
(-1.6788 5.06362 1.60648)
(-1.14404 5.04111 1.59789)
(-0.831304 5.07282 1.45378)
(-0.650335 4.94317 1.61889)
(-4.55476 1.34102 -0.0146874)
(-3.77771 3.55806 1.7707)
(-2.65034 4.9452 1.67585)
(-2.73792 4.3431 2.28151)
(-1.97426 4.53636 2.51867)
(-1.58069 4.60665 1.9852)
(-1.5519 4.90177 1.8165)
(-0.638319 5.24613 1.51584)
(-1.06089 4.99789 1.80108)
(-0.207177 4.97635 1.96391)
(-5.19161 2.94246 1.80111)
(-5.30265 2.27742 2.29065)
(-4.05021 3.12912 1.98339)
(-2.49385 3.52899 2.77944)
(-2.38904 3.26177 2.13058)
(-2.61743 3.10425 1.52982)
(-2.05234 3.35285 1.40131)
(-1.40057 3.47253 1.60897)
(-0.894164 3.60107 1.81462)
(-0.487419 3.83126 1.89082)
(-0.322529 3.93446 1.87346)
(-4.89161 1.86586 1.65958)
(-4.36843 2.23154 2.05398)
(-3.19021 1.89008 1.56733)
(-1.69472 1.89139 0.986409)
(-2.07852 1.63723 -0.277116)
(-1.25231 2.27648 -0.829778)
(-1.00485 2.542 -0.0621787)
(-0.510166 2.49805 0.302264)
(-0.360091 2.56786 0.188785)
(-0.161055 2.57159 0.423356)
(-0.357361 2.70723 0.968448)
(-0.194902 3.35754 1.17323)
(-3.23961 0.116097 0.66829)
(-3.07887 0.141394 0.678363)
(-1.66116 0.705662 -0.33722)
(-0.363083 0.278647 -1.8132)
(-0.938057 -0.618763 -0.359758)
(-0.308733 -0.145578 -0.462263)
(-0.069241 -0.136163 -0.277854)
(-0.268537 0.522308 -0.40789)
(-0.0425162 1.07685 -0.912744)
(0.0807129 0.937273 -1.21339)
(-0.0781732 1.14406 -1.2086)
(-0.377881 1.17688 -0.40414)
(-0.28743 0.510747 -0.230091)
(-0.217717 -0.971518 0.605467)
(0.212746 -0.721536 -0.216586)
(-0.412663 -0.503454 0.436855)
(-0.117008 -0.0316044 -0.824362)
(0.0451012 0.0918948 -0.596729)
(-0.376004 0.244877 -0.318847)
(-0.0394695 0.256078 -0.928242)
(-0.22222 0.0805604 -0.967952)
(-0.18832 0.0980826 -0.985697)
(-0.0443534 0.245407 -1.26212)
(-0.0334962 0.153989 -1.65881)
(-0.194271 -0.0738771 -1.43114)
(-0.244376 -0.0907618 -1.36927)
(-0.037707 0.0575891 -1.48687)
(0.684886 -0.631631 -0.859019)
(1.1832 -0.209284 -2.99044)
(-0.00731149 -0.791835 -1.57447)
(-0.564221 -0.287334 -0.143771)
(0.0206047 0.439165 -1.57524)
(-0.430749 0.471324 -2.32176)
(-0.322303 0.0841742 -2.6392)
(-0.440062 -0.280279 -2.00336)
(-0.252361 -0.0814974 -2.08231)
(-0.296452 0.143939 -2.67276)
(-0.255045 -0.169369 -2.76941)
(-0.201466 -0.258836 -2.77736)
(0.0738369 -0.138048 -2.97814)
(0.242331 -0.160461 -3.00019)
(0.268778 -0.341634 -2.73267)
(-1.16025 1.61716 0.00154641)
(-1.53601 1.43297 0.0203007)
(-1.17774 2.04208 0.0983663)
(-1.27981 1.71769 -0.098214)
(-1.50711 1.62771 -0.0134948)
(-1.37497 2.01485 0.0497903)
(-1.15769 2.26987 0.159584)
(-0.971762 2.29385 0.0245201)
(-1.96271 1.50932 0.0434029)
(-1.40341 2.22355 -0.0102301)
(-1.32408 2.34352 0.127881)
(-0.921818 2.67635 0.220579)
(-0.896818 2.48303 0.10556)
(-1.94556 1.85791 0.0716156)
(-1.65041 2.40019 -0.0915457)
(-1.24187 2.66073 0.197912)
(-1.11146 2.74786 0.302992)
(-0.593303 3.00035 0.490471)
(-0.538183 2.97045 0.390543)
(-2.19219 2.1304 -0.252496)
(-1.94557 2.50088 0.196607)
(-1.51325 2.82148 0.185957)
(-1.29643 2.91161 0.342317)
(-1.06888 2.98399 0.361936)
(-0.869971 2.95597 0.597862)
(-2.53381 1.73182 0.0972196)
(-2.21852 2.66439 -0.0895004)
(-1.56676 3.08924 0.359255)
(-1.73162 3.00145 0.277148)
(-1.28283 3.18123 0.419256)
(-0.808772 3.19206 0.761731)
(-0.2242 3.24187 0.866097)
(-3.15925 1.15365 0.0983747)
(-2.72845 1.96587 0.566574)
(-2.59 2.88685 0.233185)
(-2.10962 3.23633 0.373965)
(-1.46566 3.4822 0.506541)
(-1.03645 3.55424 0.71342)
(-0.692474 3.74314 0.878157)
(-0.622327 3.84699 1.0774)
(-3.4293 1.71726 0.455086)
(-3.15528 2.76528 -0.200033)
(-2.82151 3.82304 0.615804)
(-2.32186 4.15242 0.50254)
(-1.92311 4.2062 0.894555)
(-1.2727 4.40454 1.0024)
(-1.11972 4.33686 1.13959)
(-0.671546 4.31944 1.37082)
(-0.476525 4.30368 1.47991)
(-4.34068 1.68574 -0.216688)
(-3.97283 3.72215 0.549428)
(-3.45026 4.18534 0.775842)
(-3.34503 4.41658 1.24464)
(-2.51451 4.97247 1.51829)
(-2.12966 4.99611 1.46692)
(-1.41287 5.08156 1.53988)
(-1.11502 4.94054 1.50224)
(-0.779791 4.9777 1.57729)
(-0.493703 4.84452 1.80193)
(-4.50011 1.14542 0.105123)
(-4.03864 3.00906 1.55392)
(-3.6505 4.14548 1.06311)
(-3.15499 4.3378 1.86491)
(-2.73894 4.29054 1.97549)
(-1.75963 4.64289 1.93477)
(-2.06585 4.74227 1.77474)
(-1.44499 4.94913 1.52651)
(-1.3632 4.92772 1.80667)
(-0.520279 4.99218 1.95109)
(0.290973 5.18516 1.79289)
(-5.0956 1.66647 0.857761)
(-5.52112 1.91942 2.45626)
(-4.83269 2.52935 1.57986)
(-3.02518 3.46667 2.57315)
(-2.574 3.42598 1.79008)
(-2.60432 3.22066 1.38276)
(-2.18383 3.29505 1.36372)
(-1.64023 3.39461 1.66867)
(-0.972207 3.61154 1.88618)
(-0.802326 3.70348 2.09199)
(-1.05561 3.74686 1.96301)
(-0.179356 3.76426 2.09175)
(-5.31775 1.16239 1.46533)
(-4.80273 2.10795 2.15624)
(-3.71714 1.83176 1.69106)
(-1.941 2.04706 1.09722)
(-2.23455 1.62499 0.0652798)
(-1.53716 2.1568 -0.727333)
(-0.921535 2.55918 -0.251393)
(-0.570199 2.55695 0.0743045)
(-0.0503774 2.67122 0.141301)
(-0.271716 2.55055 0.252038)
(-0.396379 2.75023 0.969397)
(-0.0246164 3.41566 1.21745)
(0.95665 3.50723 0.564654)
(-3.58536 -0.109378 0.714649)
(-3.33625 0.237582 0.890742)
(-1.96553 0.755075 0.155361)
(-0.550016 0.201923 -1.16594)
(-0.738568 -0.584242 -0.354819)
(-0.385301 -0.210339 -0.24342)
(-0.0567858 -0.150347 -0.0994468)
(-0.344392 0.420081 -0.232313)
(-0.140562 1.04521 -0.499946)
(-0.0119549 0.895336 -1.13399)
(-0.0518032 1.07733 -1.19289)
(-0.415775 1.03659 -0.408087)
(-0.241133 0.367299 -0.292509)
(0.0353334 0.587146 0.050985)
(-0.325456 -0.950646 0.631372)
(0.0763836 -0.655051 -0.2245)
(-0.479015 -0.478173 0.410239)
(-0.0980471 0.0531264 -0.833367)
(0.0569482 0.148977 -0.717261)
(-0.364576 0.302452 -0.399571)
(-0.0568299 0.265249 -0.897525)
(-0.282183 0.043488 -0.801368)
(-0.239605 0.0538261 -0.902273)
(-0.0859008 0.227399 -1.13253)
(-0.088866 0.127764 -1.53023)
(-0.178202 -0.0851762 -1.39424)
(-0.336794 -0.104574 -1.41585)
(-0.0567156 0.0689605 -1.59945)
(-0.120004 -0.0145546 -1.51938)
(0.597182 -0.607512 -0.853757)
(1.13148 -0.180448 -3.03608)
(0.05512 -0.783028 -1.68858)
(-0.535783 -0.278275 -0.132637)
(0.000258176 0.471723 -1.67708)
(-0.485634 0.441915 -2.35376)
(-0.349223 0.0498771 -2.58519)
(-0.465798 -0.310551 -1.91192)
(-0.279918 -0.0891775 -2.01737)
(-0.32508 0.136497 -2.6068)
(-0.273505 -0.176387 -2.72578)
(-0.246414 -0.267688 -2.76766)
(0.0665865 -0.127321 -3.00723)
(0.234687 -0.157281 -2.98307)
(0.239702 -0.342372 -2.71206)
(0.160401 -0.640131 -2.54165)
(-1.08171 1.48603 -0.0656684)
(-1.26926 1.53164 0.0178819)
(-1.18109 1.8861 -0.015611)
(-0.999614 1.76505 -0.0351039)
(-1.56811 1.37872 -0.00600309)
(-1.34538 1.9148 0.0822079)
(-0.835098 2.33822 0.101105)
(-1.18141 2.04339 0.0284856)
(-1.26332 1.77797 0.0113736)
(-1.57349 1.56377 -0.0999416)
(-1.41266 1.96344 0.0340973)
(-1.29199 2.15496 0.128236)
(-0.93402 2.37547 0.0936076)
(-0.629759 2.47816 0.185992)
(-2.05176 1.42163 0.0151073)
(-1.44983 2.21465 0.0110219)
(-1.50458 2.30569 0.120783)
(-0.904644 2.65121 0.205774)
(-0.740734 2.73815 0.317127)
(-0.806165 2.6705 0.262778)
(-1.87862 1.9098 0.0748542)
(-1.89961 2.18512 -0.125122)
(-1.2979 2.62831 0.300986)
(-1.31907 2.66552 0.2609)
(-0.98919 2.84017 0.475916)
(-0.802741 2.87636 0.636272)
(-0.37963 3.1179 0.502982)
(-2.56096 1.4161 -0.184516)
(-2.0393 2.41885 0.1962)
(-1.90529 2.54959 0.133729)
(-1.54346 2.84313 0.351829)
(-1.27838 2.9258 0.377633)
(-1.08465 2.94709 0.594048)
(-0.839829 3.00483 0.660178)
(-2.72625 1.28293 0.241527)
(-2.35179 2.2147 0.0882318)
(-1.90937 2.79561 0.259584)
(-1.76266 3.01573 0.23088)
(-1.60039 3.07492 0.431598)
(-1.1848 3.15626 0.741797)
(-0.79252 3.22092 0.854278)
(-0.549153 3.19434 1.03909)
(-3.34988 0.756437 0.0873712)
(-2.82355 1.65712 0.540948)
(-2.70104 2.70226 0.197628)
(-2.24661 3.09894 0.420225)
(-1.40371 3.57766 0.567247)
(-1.33949 3.51449 0.666488)
(-1.15735 3.61718 0.826722)
(-0.782088 3.75162 1.07134)
(-0.464474 3.85813 1.21043)
(-3.51948 1.6638 0.336438)
(-3.26234 2.67353 -0.1701)
(-2.65015 3.76714 0.834687)
(-2.5597 3.82599 0.508041)
(-2.16506 4.07489 0.735043)
(-1.72669 4.29688 0.854958)
(-1.38677 4.28598 1.13361)
(-0.877904 4.24178 1.43703)
(-0.568277 4.21758 1.52922)
(-0.284326 4.17281 1.6301)
(-4.56948 1.21212 -0.0148469)
(-4.38659 3.31174 0.50327)
(-3.79578 3.66721 0.693838)
(-3.73733 3.92398 0.907098)
(-2.67287 4.91774 1.43796)
(-2.5881 4.86374 1.28093)
(-1.64455 4.98008 1.53111)
(-1.36224 4.89564 1.57443)
(-0.975375 4.74849 1.64505)
(-0.738781 4.76031 1.75908)
(-0.392605 4.69013 1.86703)
(-4.49363 1.06695 0.016979)
(-4.43559 2.41144 1.31394)
(-4.05718 3.82522 0.78273)
(-3.52962 4.32384 1.47654)
(-3.196 4.11262 1.65888)
(-2.41361 4.49567 1.54853)
(-1.10188 4.98481 1.50704)
(-1.73926 4.84774 1.58333)
(-0.726077 4.9479 1.77822)
(-0.630464 5.00386 1.95672)
(0.112108 5.10405 2.02512)
(-0.172568 4.926 1.94436)
(-5.28376 1.12475 0.450931)
(-5.64114 2.12675 2.56196)
(-4.99781 2.29868 1.42226)
(-3.56595 3.25465 2.38937)
(-2.77256 3.58144 1.52595)
(-2.5998 3.37228 0.679836)
(-2.36964 3.02673 1.36818)
(-1.92515 3.29621 1.65548)
(-1.35744 3.44338 1.78509)
(-1.22262 3.74105 1.78506)
(-1.34621 3.64443 2.01151)
(-0.695624 3.72929 2.01937)
(-0.0955629 3.84463 2.19157)
(-5.57174 0.394724 1.19019)
(-5.09527 1.74816 2.25258)
(-3.86928 2.0549 2.22927)
(-2.30934 2.08305 1.29443)
(-2.31205 1.65447 0.522713)
(-1.69257 2.11754 -0.54474)
(-1.19808 2.50676 -0.0221044)
(-0.555757 2.63074 0.0533566)
(-0.331862 2.77181 0.205177)
(-0.315961 2.5495 0.224763)
(-0.407494 2.8437 0.928803)
(0.151145 3.52705 1.02165)
(0.952801 3.58542 0.274129)
(0.624114 2.79902 0.539373)
(-3.83188 -0.286161 0.749139)
(-3.44077 0.208389 0.958058)
(-2.25529 0.682301 0.589125)
(-0.771567 0.0802173 -0.29949)
(-0.604507 -0.530409 -0.193289)
(-0.432604 -0.248095 -0.105273)
(-0.0710663 -0.180093 0.0810047)
(-0.404135 0.317087 -0.0264112)
(-0.309763 0.938009 -0.0855631)
(-0.152739 0.839226 -0.947609)
(-0.126688 0.962696 -1.11137)
(-0.47022 0.85259 -0.354226)
(-0.161499 0.21646 -0.3547)
(0.0192704 0.498587 -0.169754)
(-0.00247826 0.516158 0.0220223)
(-0.425827 -0.885999 0.620288)
(-0.0423333 -0.576639 -0.249092)
(-0.534981 -0.469739 0.401076)
(-0.0834647 0.153896 -0.877593)
(0.064199 0.22383 -0.834128)
(-0.357324 0.346735 -0.495655)
(-0.0385844 0.291157 -0.914288)
(-0.344579 0.00240771 -0.672343)
(-0.256964 0.0418352 -0.870004)
(-0.14619 0.207168 -1.00227)
(-0.152606 0.1031 -1.40323)
(-0.193694 -0.0803207 -1.3479)
(-0.318615 -0.0817144 -1.55599)
(-0.0817884 0.0854414 -1.74376)
(-0.150379 0.00279471 -1.66304)
(-0.103736 -0.0716134 -1.77297)
(0.513744 -0.578556 -0.870419)
(1.10568 -0.15079 -3.06705)
(0.120531 -0.76589 -1.81801)
(-0.521813 -0.275851 -0.113512)
(-0.029705 0.491358 -1.78046)
(-0.462976 0.481724 -2.37606)
(-0.373269 0.0123832 -2.53005)
(-0.494853 -0.343136 -1.83175)
(-0.308479 -0.0991347 -1.96379)
(-0.346796 0.132171 -2.54252)
(-0.275122 -0.179622 -2.6828)
(-0.297526 -0.283755 -2.75836)
(0.0707906 -0.115402 -3.0422)
(0.256356 -0.15153 -2.96089)
(0.210979 -0.344539 -2.69599)
(0.129193 -0.64133 -2.54498)
(0.00211732 -0.634067 -2.56361)
(-0.841639 1.47754 0.0198676)
(-1.2515 1.35279 -0.0473083)
(-1.17087 1.70589 0.00639515)
(-0.94686 1.59084 -0.021468)
(-1.37087 1.4393 -0.00624739)
(-1.17931 1.89055 -0.0142203)
(-0.688799 2.27852 0.0847626)
(-1.04538 1.93961 -0.0600777)
(-1.01596 1.78222 -0.0635791)
(-1.60793 1.27508 -0.0155933)
(-1.49659 1.7537 0.0660203)
(-1.08682 2.14118 0.091254)
(-0.761549 2.27881 -0.0418362)
(-0.802294 2.35809 -0.0182566)
(-1.11395 2.09987 0.0831296)
(-1.69572 1.45334 -0.12361)
(-1.42414 1.95079 0.0250189)
(-1.33041 2.10521 0.163594)
(-0.629285 2.55697 0.109934)
(-0.745385 2.49268 0.152148)
(-0.574362 2.54532 0.125686)
(-2.06258 1.36916 0.0317106)
(-1.80207 1.99183 0.0148631)
(-1.61254 2.23239 0.115655)
(-1.30142 2.3912 0.251029)
(-0.882334 2.69519 0.312201)
(-0.639323 2.81085 0.438997)
(-0.688099 2.76575 0.30777)