/*--------------------------------*- C++ -*----------------------------------*\
  =========                 |
  \\      /  F ield         | OpenFOAM: The Open Source CFD Toolbox
   \\    /   O peration     | Website:  https://openfoam.org
    \\  /    A nd           | Version:  7
     \\/     M anipulation  |
\*---------------------------------------------------------------------------*/
FoamFile
{
    version     2.0;
    format      ascii;
    class       volScalarField;
    location    "0.5";
    object      nut;
}
// * * * * * * * * * * * * * * * * * * * * * * * * * * * * * * * * * * * * * //

dimensions      [0 2 -1 0 0 0 0];

internalField   nonuniform List<scalar> 
18870
(
3.83846e-06
6.15455e-06
3.33013e-06
4.53139e-06
4.10304e-06
6.21168e-06
6.49494e-06
4.2898e-06
3.63201e-06
4.95129e-06
5.52038e-06
4.2783e-06
7.37791e-06
6.21151e-06
6.54044e-06
6.91256e-06
3.88911e-06
4.0301e-06
3.64637e-06
6.13326e-06
1.1399e-05
5.57343e-06
7.98432e-06
4.49639e-06
7.47244e-06
9.15829e-06
6.14312e-06
6.53792e-06
6.94835e-06
8.43343e-06
3.33302e-06
3.78586e-06
3.96888e-06
4.39308e-06
7.91263e-06
2.24556e-05
1.27211e-05
1.22922e-05
5.89211e-06
8.13543e-06
1.27515e-05
4.63866e-06
7.53151e-06
9.18507e-06
1.05847e-05
6.18545e-06
6.49241e-06
6.98402e-06
8.50159e-06
9.6707e-06
4.06937e-06
3.71048e-06
3.7127e-06
4.82262e-06
5.11551e-06
7.53415e-06
4.58978e-05
1.70281e-05
2.42025e-05
1.12314e-05
1.24155e-05
1.63299e-05
6.69349e-06
8.19625e-06
1.28808e-05
1.46266e-05
4.99242e-06
7.61339e-06
9.16992e-06
1.0638e-05
1.21034e-05
6.27265e-06
6.4911e-06
7.00972e-06
8.54392e-06
9.72403e-06
1.01706e-05
4.57229e-06
4.34053e-06
3.67698e-06
4.43826e-06
5.28197e-06
5.18049e-06
6.5442e-06
3.5205e-05
4.20958e-05
4.16639e-05
1.72671e-05
1.79355e-05
2.48756e-05
1.03382e-05
1.2132e-05
1.59499e-05
1.83445e-05
9.07957e-06
8.40459e-06
1.29307e-05
1.47496e-05
1.62132e-05
5.78223e-06
7.73721e-06
9.13997e-06
1.0622e-05
1.21706e-05
1.32426e-05
6.32298e-06
6.54804e-06
7e-06
8.58814e-06
9.78209e-06
1.02295e-05
1.07421e-05
1.46163e-05
4.59851e-06
4.45366e-06
4.47712e-06
4.93983e-06
4.90419e-06
5.38205e-06
5.917e-06
4.30803e-05
3.44219e-05
3.67121e-05
3.20104e-05
3.37741e-05
3.292e-05
1.47593e-05
1.84044e-05
2.33047e-05
2.28543e-05
9.60581e-06
1.1669e-05
1.60767e-05
1.80915e-05
2.04101e-05
6.88055e-06
8.51223e-06
1.30523e-05
1.47582e-05
1.6327e-05
1.73401e-05
6.05149e-06
7.79918e-06
9.18676e-06
1.0625e-05
1.2117e-05
1.32807e-05
1.45324e-05
6.40051e-06
6.53333e-06
7.13076e-06
8.57226e-06
9.80061e-06
1.02953e-05
1.08264e-05
1.12097e-05
1.91185e-05
9.87384e-06
4.67319e-06
4.84519e-06
5.05347e-06
5.00718e-06
5.26005e-06
5.71076e-06
5.64535e-06
4.40603e-05
4.75228e-05
3.3817e-05
2.93143e-05
2.92934e-05
3.32586e-05
2.94667e-05
1.81877e-05
2.7834e-05
3.033e-05
1.75964e-05
1.6342e-05
2.35546e-05
2.2428e-05
2.55732e-05
8.27261e-06
1.18609e-05
1.6225e-05
1.80848e-05
2.03625e-05
2.12639e-05
6.0072e-06
8.4242e-06
1.3152e-05
1.48498e-05
1.63029e-05
1.73985e-05
1.8291e-05
5.8881e-06
7.78031e-06
9.28105e-06
1.06915e-05
1.21827e-05
1.32502e-05
1.45469e-05
1.56257e-05
5.58815e-06
6.53342e-06
7.14272e-06
8.67066e-06
9.76223e-06
1.03642e-05
1.0849e-05
1.13032e-05
1.1115e-05
6.72279e-06
1.58438e-05
7.82663e-06
4.53411e-06
5.11665e-06
5.05304e-06
5.30998e-06
5.76232e-06
5.54588e-06
6.0811e-06
6.41483e-05
4.49566e-05
4.51259e-05
4.35112e-05
3.55182e-05
3.45946e-05
3.28961e-05
2.71187e-05
3.23209e-05
3.11239e-05
2.87298e-05
1.77743e-05
2.46363e-05
2.85925e-05
3.11279e-05
1.84661e-05
1.66314e-05
2.2755e-05
2.26681e-05
2.49089e-05
2.71604e-05
8.1401e-06
1.20898e-05
1.63502e-05
1.82768e-05
2.03845e-05
2.13114e-05
2.23133e-05
6.0954e-06
8.41978e-06
1.31547e-05
1.49474e-05
1.63712e-05
1.73983e-05
1.83183e-05
1.91439e-05
6.0076e-06
7.76676e-06
9.17774e-06
1.07981e-05
1.2272e-05
1.32922e-05
1.45649e-05
1.57019e-05
1.56758e-05
5.4444e-06
6.20894e-06
7.11041e-06
8.80835e-06
9.79026e-06
1.02921e-05
1.09551e-05
1.13449e-05
1.12545e-05
1.09698e-05
3.71267e-06
9.98572e-06
1.46362e-05
8.09412e-06
6.0821e-06
5.62829e-06
5.2293e-06
5.59811e-06
5.4972e-06
5.98692e-06
6.44062e-06
7.97398e-05
6.88254e-05
5.98655e-05
4.43437e-05
4.46402e-05
4.99275e-05
5.10323e-05
3.73922e-05
3.39358e-05
3.74787e-05
3.11852e-05
2.65408e-05
2.93816e-05
3.27982e-05
3.11763e-05
2.6367e-05
1.80995e-05
2.34871e-05
2.78461e-05
3.02922e-05
3.29971e-05
1.95899e-05
1.53451e-05
2.27361e-05
2.29992e-05
2.50549e-05
2.68432e-05
2.67139e-05
8.1259e-06
1.2075e-05
1.63896e-05
1.83075e-05
2.04719e-05
2.13212e-05
2.23917e-05
2.34373e-05
5.99933e-06
8.51055e-06
1.31036e-05
1.50097e-05
1.64383e-05
1.74675e-05
1.83529e-05
1.9206e-05
1.96657e-05
6.05904e-06
7.78584e-06
9.06368e-06
1.0683e-05
1.23111e-05
1.33165e-05
1.46121e-05
1.58016e-05
1.57329e-05
1.53476e-05
5.38734e-06
5.92398e-06
7.00362e-06
8.78281e-06
1.00193e-05
1.02677e-05
1.09671e-05
1.13848e-05
1.12965e-05
1.11103e-05
1.10822e-05
3.86328e-06
5.83719e-06
1.35518e-05
1.40099e-05
9.71423e-06
7.98074e-06
6.14711e-06
5.62522e-06
5.50846e-06
5.53291e-06
6.87482e-06
5.57962e-06
0.000114792
7.85523e-05
7.54249e-05
6.98732e-05
6.25173e-05
6.21052e-05
4.87222e-05
4.01596e-05
5.04713e-05
5.22971e-05
5.0462e-05
4.02657e-05
3.71147e-05
3.70968e-05
4.02768e-05
3.13998e-05
2.66138e-05
3.07204e-05
3.2327e-05
3.2786e-05
3.39496e-05
2.89726e-05
1.75783e-05
2.36286e-05
2.72033e-05
3.01648e-05
3.22415e-05
3.25782e-05
1.84237e-05
1.52713e-05
2.24069e-05
2.30052e-05
2.59559e-05
2.6855e-05
2.66774e-05
2.7074e-05
7.93236e-06
1.19509e-05
1.63655e-05
1.82491e-05
2.04864e-05
2.13301e-05
2.23793e-05
2.35109e-05
2.35545e-05
5.88661e-06
8.5234e-06
1.31346e-05
1.49673e-05
1.64968e-05
1.75341e-05
1.83809e-05
1.91975e-05
1.97383e-05
1.96772e-05
6.13381e-06
7.76459e-06
9.09533e-06
1.0652e-05
1.22094e-05
1.3377e-05
1.46307e-05
1.58306e-05
1.60328e-05
1.53499e-05
1.53524e-05
5.41412e-06
5.67348e-06
6.83157e-06
8.61415e-06
9.96623e-06
1.05199e-05
1.0973e-05
1.14939e-05
1.12847e-05
1.11127e-05
1.11528e-05
1.1406e-05
2.54206e-06
3.29763e-06
8.95292e-06
1.55895e-05
1.39957e-05
1.08511e-05
8.4029e-06
6.88039e-06
5.53452e-06
5.6033e-06
5.59553e-06
6.03095e-06
5.76094e-06
0.000101178
0.000106988
0.000105723
7.6902e-05
7.15048e-05
6.76301e-05
6.12015e-05
6.52849e-05
6.30403e-05
5.40029e-05
4.8411e-05
4.32007e-05
4.67732e-05
5.30583e-05
5.18207e-05
5.98277e-05
4.13303e-05
3.54681e-05
3.89799e-05
4.04482e-05
4.36755e-05
3.37101e-05
2.51974e-05
2.94183e-05
3.21078e-05
3.32192e-05
3.50181e-05
3.59241e-05
2.53613e-05
1.72558e-05
2.35545e-05
2.7354e-05
2.9564e-05
3.26998e-05
3.22546e-05
3.13031e-05
1.66537e-05
1.49746e-05
2.25739e-05
2.30113e-05
2.59138e-05
2.76223e-05
2.65963e-05
2.71049e-05
2.7188e-05
7.81085e-06
1.18617e-05
1.63146e-05
1.82238e-05
2.04701e-05
2.13287e-05
2.24689e-05
2.35496e-05
2.36334e-05
2.31982e-05
5.84443e-06
8.55832e-06
1.31609e-05
1.4988e-05
1.64983e-05
1.75924e-05
1.84759e-05
1.92416e-05
1.96914e-05
1.97572e-05
1.95638e-05
6.27075e-06
7.71444e-06
9.0933e-06
1.07773e-05
1.22516e-05
1.33477e-05
1.46977e-05
1.58791e-05
1.60356e-05
1.56667e-05
1.52974e-05
1.58761e-05
5.35601e-06
5.75984e-06
6.55834e-06
8.56905e-06
9.67521e-06
1.048e-05
1.11038e-05
1.15014e-05
1.14424e-05
1.11561e-05
1.11063e-05
1.14e-05
1.17379e-05
4.92347e-06
2.78983e-06
3.32321e-06
1.22112e-05
1.65275e-05
1.3752e-05
1.08498e-05
7.72749e-06
5.86079e-06
5.52831e-06
5.41534e-06
6.72094e-06
5.78377e-06
6.03119e-06
0.000158055
0.000110601
0.000116737
8.86636e-05
9.7553e-05
9.13762e-05
7.17634e-05
7.23627e-05
6.53591e-05
6.66093e-05
6.66014e-05
5.99289e-05
6.48205e-05
5.5074e-05
5.09844e-05
4.76742e-05
4.21311e-05
4.96727e-05
5.10102e-05
5.21278e-05
4.7749e-05
5.15701e-05
4.61209e-05
3.56719e-05
3.75977e-05
4.12074e-05
4.37255e-05
4.19641e-05
3.01755e-05
3.2183e-05
2.94219e-05
3.15411e-05
3.25115e-05
3.53412e-05
3.65845e-05
3.71889e-05
2.50175e-05
1.64797e-05
2.27732e-05
2.74639e-05
2.97021e-05
3.23039e-05
3.26892e-05
3.12592e-05
3.10093e-05
1.54509e-05
1.51469e-05
2.24785e-05
2.31225e-05
2.60731e-05
2.75226e-05
2.70648e-05
2.70803e-05
2.72075e-05
2.62607e-05
7.93751e-06
1.19344e-05
1.63507e-05
1.81277e-05
2.05436e-05
2.13298e-05
2.24819e-05
2.36056e-05
2.36669e-05
2.33116e-05
2.29216e-05
5.7626e-06
8.59052e-06
1.31752e-05
1.50515e-05
1.64835e-05
1.75939e-05
1.85298e-05
1.93825e-05
1.97228e-05
1.97192e-05
1.96379e-05
2.00311e-05
6.38797e-06
7.66565e-06
8.99562e-06
1.07752e-05
1.24521e-05
1.33589e-05
1.4818e-05
1.58538e-05
1.6021e-05
1.56707e-05
1.55212e-05
1.5767e-05
1.63963e-05
5.35155e-06
5.81064e-06
6.71486e-06
8.39921e-06
9.71795e-06
1.024e-05
1.10241e-05
1.14112e-05
1.14001e-05
1.12485e-05
1.11614e-05
1.13861e-05
1.16436e-05
1.21042e-05
2.68498e-06
3.5638e-06
3.46479e-06
4.58193e-06
1.29844e-05
1.4324e-05
1.09909e-05
8.55585e-06
6.57623e-06
5.60977e-06
5.39171e-06
6.2002e-06
6.1049e-06
5.92351e-06
6.22417e-06
0.000250613
0.000140217
0.000130796
9.5141e-05
0.000123233
0.000108017
9.84913e-05
8.95269e-05
8.5333e-05
8.18956e-05
7.3091e-05
6.82154e-05
6.53924e-05
6.60218e-05
6.56351e-05
8.05274e-05
6.38032e-05
6.34158e-05
5.53057e-05
5.17062e-05
5.40876e-05
6.35196e-05
4.35833e-05
5.0382e-05
5.41004e-05
5.14417e-05
4.78625e-05
4.62342e-05
5.41252e-05
4.06815e-05
3.4932e-05
3.77374e-05
4.09571e-05
4.35079e-05
4.20035e-05
3.95367e-05
3.3615e-05
2.86834e-05
3.33952e-05
3.19245e-05
3.20718e-05
3.40785e-05
3.73852e-05
3.75185e-05
3.59961e-05
2.33094e-05
1.67101e-05
2.28184e-05
2.70882e-05
2.98263e-05
3.22753e-05
3.27648e-05
3.13835e-05
3.10857e-05
3.03022e-05
1.55879e-05
1.47941e-05
2.26645e-05
2.32509e-05
2.60148e-05
2.76372e-05
2.70285e-05
2.73077e-05
2.72702e-05
2.63594e-05
2.58931e-05
8.13595e-06
1.18144e-05
1.64969e-05
1.81896e-05
2.052e-05
2.13982e-05
2.25368e-05
2.36634e-05
2.37164e-05
2.3389e-05
2.29866e-05
2.34588e-05
5.79818e-06
8.51716e-06
1.31424e-05
1.50419e-05
1.64876e-05
1.75931e-05
1.85432e-05
1.94476e-05
1.98308e-05
1.97199e-05
1.96823e-05
2.01365e-05
2.0471e-05
6.50499e-06
7.67148e-06
8.93172e-06
1.074e-05
1.24263e-05
1.34711e-05
1.48945e-05
1.60344e-05
1.59834e-05
1.57109e-05
1.55305e-05
1.59471e-05
1.62812e-05
1.67173e-05
5.40558e-06
5.70119e-06
6.91833e-06
8.48661e-06
9.54408e-06
1.02713e-05
1.09044e-05
1.13269e-05
1.1252e-05
1.12322e-05
1.12555e-05
1.1419e-05
1.17614e-05
1.20513e-05
1.25909e-05
1.73496e-05
6.4486e-06
6.25832e-06
5.53496e-06
4.94219e-06
9.15583e-06
7.54014e-06
7.23121e-06
7.67033e-06
5.71751e-06
5.61202e-06
6.25726e-06
6.16687e-06
5.98942e-06
6.22027e-06
6.76097e-06
0.000629647
0.00021728
0.000192111
0.000137865
0.000126847
0.000127184
0.00010082
0.000116694
0.000106115
0.000104236
9.73325e-05
8.86952e-05
8.15428e-05
8.11611e-05
8.40546e-05
7.42467e-05
7.05198e-05
6.24995e-05
6.60486e-05
6.66417e-05
6.328e-05
6.62899e-05
7.70416e-05
6.34953e-05
5.58402e-05
5.02486e-05
5.44569e-05
5.22107e-05
4.99687e-05
6.52605e-05
5.13153e-05
5.48074e-05
5.28204e-05
4.73552e-05
4.63417e-05
4.51386e-05
4.39288e-05
4.08286e-05
3.51656e-05
3.65074e-05
4.10656e-05
4.36791e-05
4.17218e-05
3.95928e-05
3.91249e-05
4.22885e-05
2.74509e-05
3.13274e-05
3.27959e-05
3.24569e-05
3.38839e-05
3.62511e-05
3.84497e-05
3.60798e-05
3.4052e-05
2.60967e-05
1.47917e-05
2.32065e-05
2.71578e-05
2.97466e-05
3.2353e-05
3.27611e-05
3.17406e-05
3.10252e-05
3.04197e-05
2.97046e-05
1.42742e-05
1.52032e-05
2.27331e-05
2.33243e-05
2.61329e-05
2.75699e-05
2.70834e-05
2.73085e-05
2.73504e-05
2.64357e-05
2.5992e-05
2.6558e-05
8.41042e-06
1.21836e-05
1.63968e-05
1.83206e-05
2.05455e-05
2.14134e-05
2.2554e-05
2.37319e-05
2.38083e-05
2.34497e-05
2.315e-05
2.34877e-05
2.41479e-05
5.69843e-06
8.50131e-06
1.30769e-05
1.50336e-05
1.64786e-05
1.75937e-05
1.85585e-05
1.94833e-05
1.98928e-05
1.97836e-05
1.96217e-05
2.01709e-05
2.06694e-05
2.07518e-05
6.56549e-06
7.67383e-06
8.87157e-06
1.08374e-05
1.23601e-05
1.35095e-05
1.48608e-05
1.62188e-05
1.60266e-05
1.56487e-05
1.56502e-05
1.5967e-05
1.64528e-05
1.65932e-05
1.73681e-05
5.57569e-06
5.7332e-06
7.00224e-06
8.41815e-06
9.31302e-06
1.02275e-05
1.09876e-05
1.1305e-05
1.1152e-05
1.12885e-05
1.12498e-05
1.1545e-05
1.17722e-05
1.21185e-05
1.26543e-05
1.34139e-05
1.92607e-05
1.42414e-05
1.03429e-05
9.64699e-06
6.69275e-06
5.09638e-06
5.96847e-06
5.81897e-06
6.53187e-06
6.32536e-06
5.67839e-06
6.46409e-06
5.97163e-06
6.11903e-06
6.36531e-06
6.76934e-06
7.49636e-06
0.00106427
0.000657062
0.000301048
0.00019963
0.000197462
0.000154398
0.000149083
0.00014002
0.000133863
0.000118807
0.000101715
0.000113665
0.000108065
0.000100249
0.000100777
0.000104452
8.32615e-05
8.14568e-05
7.82517e-05
8.55784e-05
7.72052e-05
8.37213e-05
6.58345e-05
6.3773e-05
6.51622e-05
6.7061e-05
6.35604e-05
5.97603e-05
8.42126e-05
5.97146e-05
7.02589e-05
5.56392e-05
5.15828e-05
5.24862e-05
5.2392e-05
5.2517e-05
4.74485e-05
5.73148e-05
6.41258e-05
5.50438e-05
5.31732e-05
4.72771e-05
4.56614e-05
4.49471e-05
4.32741e-05
4.09984e-05
3.31031e-05
3.65872e-05
3.94243e-05
4.04296e-05
4.35821e-05
4.1681e-05
3.96991e-05
3.92457e-05
3.67966e-05
4.44275e-05
2.91189e-05
2.86547e-05
3.28945e-05
3.18335e-05
3.41666e-05
3.61799e-05
3.79611e-05
3.66155e-05
3.41998e-05
3.27942e-05
2.18348e-05
1.39132e-05
2.27373e-05
2.80946e-05
2.96478e-05
3.22888e-05
3.29151e-05
3.17609e-05
3.1279e-05
3.03405e-05
2.97876e-05
3.03316e-05
1.78085e-05
1.41513e-05
2.27004e-05
2.36035e-05
2.61188e-05
2.76093e-05
2.70529e-05
2.73401e-05
2.74223e-05
2.65007e-05
2.60968e-05
2.66042e-05
2.72113e-05
9.19771e-06
1.1804e-05
1.65232e-05
1.84675e-05
2.05547e-05
2.13919e-05
2.25449e-05
2.37526e-05
2.39143e-05
2.35683e-05
2.32232e-05
2.37226e-05
2.41644e-05
2.43665e-05
5.78387e-06
8.49193e-06
1.29969e-05
1.50107e-05
1.6453e-05
1.7615e-05
1.85776e-05
1.95209e-05
1.99287e-05
1.98601e-05
1.96776e-05
2.01678e-05
2.0644e-05
2.10041e-05
2.15994e-05
6.59693e-06
7.63895e-06
8.86318e-06
1.08324e-05
1.25043e-05
1.35137e-05
1.48209e-05
1.61538e-05
1.62399e-05
1.56199e-05
1.55648e-05
1.61043e-05
1.64583e-05
1.67501e-05
1.72547e-05
1.86201e-05
6.42355e-06
6.00043e-06
6.90723e-06
8.64901e-06
9.27367e-06
9.78795e-06
1.12841e-05
1.14203e-05
1.11778e-05
1.12218e-05
1.12486e-05
1.16247e-05
1.18753e-05
1.20223e-05
1.26147e-05
1.34851e-05
1.473e-05
3.01867e-06
1.17848e-05
1.14417e-05
1.23613e-05
1.03525e-05
5.7748e-06
5.90579e-06
6.33485e-06
5.83982e-06
6.42272e-06
6.27341e-06
5.88769e-06
5.73473e-06
6.68487e-06
6.27601e-06
6.65589e-06
7.39583e-06
8.39194e-06
0.000752301
0.00105383
0.000774609
0.000611245
0.000334896
0.00020061
0.000211019
0.000202531
0.000145916
0.00012966
0.000154258
0.000140001
0.000127282
0.000118776
0.000118127
0.000123044
0.000114172
0.000106759
0.000104846
0.000103206
7.90606e-05
0.000115754
8.38343e-05
8.08457e-05
7.55636e-05
8.52083e-05
7.88049e-05
6.30766e-05
7.81619e-05
7.58778e-05
5.99152e-05
6.4251e-05
6.64188e-05
6.38608e-05
6.04985e-05
5.5996e-05
8.42065e-05
7.57939e-05
6.28149e-05
5.64562e-05
5.11962e-05
5.35761e-05
5.1398e-05
5.30482e-05
5.04866e-05
5.72291e-05
4.62928e-05
6.03864e-05
5.89968e-05
5.33013e-05
4.72013e-05
4.50931e-05
4.45129e-05
4.32055e-05
4.09959e-05
3.46793e-05
3.54573e-05
3.4399e-05
4.00022e-05
4.24506e-05
4.31531e-05
4.16561e-05
3.94849e-05
3.94138e-05
3.68807e-05
3.45281e-05
3.71133e-05
3.40039e-05
2.84898e-05
3.05113e-05
3.26759e-05
3.3668e-05
3.62824e-05
3.79688e-05
3.65054e-05
3.43837e-05
3.2883e-05
3.20036e-05
3.03401e-05
1.75397e-05
2.29426e-05
2.78864e-05
3.0396e-05
3.23679e-05
3.28729e-05
3.18457e-05
3.13162e-05
3.04403e-05
2.97402e-05
3.03998e-05
3.02894e-05
1.52663e-05
1.87279e-05
2.30586e-05
2.33402e-05
2.63748e-05
2.75637e-05
2.71039e-05
2.74281e-05
2.74517e-05
2.66181e-05
2.61798e-05
2.67672e-05
2.72328e-05
2.75462e-05
9.7809e-06
1.18288e-05
1.65081e-05
1.85402e-05
2.06605e-05
2.13891e-05
2.25432e-05
2.37893e-05
2.39158e-05
2.36788e-05
2.33103e-05
2.37636e-05
2.44154e-05
2.44006e-05
2.50532e-05
5.68131e-06
8.68077e-06
1.29202e-05
1.49475e-05
1.64671e-05
1.759e-05
1.86328e-05
1.95836e-05
1.99254e-05
1.99154e-05
1.97956e-05
2.02651e-05
2.06335e-05
2.09401e-05
2.1769e-05
2.32461e-05
6.58183e-06
7.65082e-06
8.80287e-06
1.07738e-05
1.25755e-05
1.35878e-05
1.50051e-05
1.60468e-05
1.63196e-05
1.58491e-05
1.55104e-05
1.60436e-05
1.66164e-05
1.67591e-05
1.734e-05
1.85703e-05
2.04783e-05
6.50489e-06
6.42049e-06
7.10521e-06
8.83648e-06
9.58424e-06
9.78708e-06
1.10007e-05
1.18683e-05
1.12505e-05
1.12138e-05
1.14397e-05
1.15007e-05
1.20382e-05
1.21351e-05
1.26637e-05
1.34784e-05
1.49193e-05
1.65315e-05
1.12416e-05
3.74645e-06
8.17554e-06
1.04869e-05
1.23821e-05
7.6e-06
5.80805e-06
6.13878e-06
5.90433e-06
5.70179e-06
7.16713e-06
5.9438e-06
5.80638e-06
6.89477e-06
6.88892e-06
6.57212e-06
7.50552e-06
8.22713e-06
9.13998e-06
0.000358508
0.000783156
0.000903097
0.00104715
0.000754494
0.000440648
0.000611177
0.000345243
0.000236861
0.000190376
0.000217856
0.000194919
0.000140319
0.000120011
0.000121956
0.000119022
0.000127212
0.000127219
0.000114537
0.000113
0.000104614
0.000112124
0.000114874
0.000108943
0.000108853
0.000102187
7.70355e-05
6.32069e-05
0.000111459
9.36822e-05
8.29316e-05
7.76461e-05
8.71714e-05
7.73083e-05
6.35674e-05
5.63128e-05
6.93947e-05
6.79701e-05
6.412e-05
6.28508e-05
6.67798e-05
6.53379e-05
6.07482e-05
5.59155e-05
5.69981e-05
7.93276e-05
7.34394e-05
7.07096e-05
5.54657e-05
5.08381e-05
5.30772e-05
5.19548e-05
5.24242e-05
5.05211e-05
4.49627e-05
3.23832e-05
4.8589e-05
4.89837e-05
5.71416e-05
5.26042e-05
4.64774e-05
4.50512e-05
4.37486e-05
4.31156e-05
4.13681e-05
3.60742e-05
4.20352e-05
3.02005e-05
3.59448e-05
4.05365e-05
4.21928e-05
4.36743e-05
4.16636e-05
3.95768e-05
3.92304e-05
3.72305e-05
3.45822e-05
3.50231e-05
4.95684e-05
2.39307e-05
3.22482e-05
3.04619e-05
3.22273e-05
3.42187e-05
3.62511e-05
3.80063e-05
3.64081e-05
3.4461e-05
3.30128e-05
3.20123e-05
3.27782e-05
3.21231e-05
1.49909e-05
2.53568e-05
2.81798e-05
3.01577e-05
3.25624e-05
3.30409e-05
3.19945e-05
3.13022e-05
3.05279e-05
2.97345e-05
3.0369e-05
3.03591e-05
2.91267e-05
2.06908e-05
1.71013e-05
2.4153e-05
2.36883e-05
2.61486e-05
2.78144e-05
2.71127e-05
2.74937e-05
2.75013e-05
2.66632e-05
2.62328e-05
2.6817e-05
2.73783e-05
2.75215e-05
2.81187e-05
1.18003e-05
1.21404e-05
1.62257e-05
1.88237e-05
2.06737e-05
2.14748e-05
2.25198e-05
2.37856e-05
2.40394e-05
2.36581e-05
2.33396e-05
2.38019e-05
2.44056e-05
2.45398e-05
2.51146e-05
2.7124e-05
6.28255e-06
8.74657e-06
1.29903e-05
1.49633e-05
1.65172e-05
1.76381e-05
1.86572e-05
1.96624e-05
1.99912e-05
1.9858e-05
1.98636e-05
2.03078e-05
2.07869e-05
2.08924e-05
2.1738e-05
2.33308e-05
2.56275e-05
6.55417e-06
7.51458e-06
8.7383e-06
1.08435e-05
1.24538e-05
1.36409e-05
1.51319e-05
1.61916e-05
1.62093e-05
1.59796e-05
1.57216e-05
1.59778e-05
1.65752e-05
1.69336e-05
1.73764e-05
1.85722e-05
2.0522e-05
2.28028e-05
6.245e-06
6.48973e-06
7.31658e-06
8.85818e-06
9.75234e-06
1.01343e-05
1.07819e-05
1.1892e-05
1.15385e-05
1.1125e-05
1.14851e-05
1.16994e-05
1.18755e-05
1.22674e-05
1.26815e-05
1.37051e-05
1.48991e-05
1.65618e-05
1.84285e-05
5.02055e-06
9.4979e-06
4.07218e-06
8.58669e-06
1.00337e-05
9.76522e-06
5.96136e-06
7.11579e-06
5.79855e-06
5.57124e-06
6.28108e-06
6.20178e-06
6.10919e-06
6.16093e-06
7.54326e-06
6.81329e-06
7.38189e-06
8.34964e-06
9.032e-06
1.04088e-05
0.000443075
0.000399031
0.000635643
0.000786099
0.000881481
0.000865737
0.000978448
0.0007925
0.000485619
0.00021087
0.000631236
0.000382743
0.00021736
0.000188457
0.00014714
0.000265671
0.000200908
0.000139657
0.000124268
0.000125971
0.000114964
0.000132736
0.000125377
0.000119952
0.000118023
0.000112663
0.000100637
6.80446e-05
0.00010921
0.000104072
0.000101492
0.000107291
0.000100317
7.76871e-05
6.65464e-05
6.72804e-05
9.97289e-05
0.000104485
8.60447e-05
7.86388e-05
8.7352e-05
7.73498e-05
6.35953e-05
5.80716e-05
5.60694e-05
7.28835e-05
7.20299e-05
6.22758e-05
6.34772e-05
6.66295e-05
6.58308e-05
6.16365e-05
5.65876e-05
5.69296e-05
4.80154e-05
6.59295e-05
6.34798e-05
6.27507e-05
5.71949e-05
5.15948e-05
5.37247e-05
5.16527e-05
5.29449e-05
5.0034e-05
4.48629e-05
4.04804e-05
3.65764e-05
4.22222e-05
4.98295e-05
5.16483e-05
5.2212e-05
4.61701e-05
4.43888e-05
4.35269e-05
4.28872e-05
4.13751e-05
3.55876e-05
3.46954e-05
3.48311e-05
3.70602e-05
3.20069e-05
4.30817e-05
4.25928e-05
4.37387e-05
4.15503e-05
3.95233e-05
3.93248e-05
3.71577e-05
3.46776e-05
3.53128e-05
3.38765e-05
5.15389e-05
4.51864e-05
3.16388e-05
3.09747e-05
3.18536e-05
3.5555e-05
3.66695e-05
3.80677e-05
3.63978e-05
3.44746e-05
3.30724e-05
3.2085e-05
3.28844e-05
3.31119e-05
3.136e-05
2.33723e-05
2.43936e-05
2.85771e-05
3.02831e-05
3.25094e-05
3.30429e-05
3.21304e-05
3.14743e-05
3.05979e-05
2.98137e-05
3.03988e-05
3.03195e-05
2.91464e-05
3.0141e-05
2.4793e-05
1.56753e-05
2.32905e-05
2.36764e-05
2.63221e-05
2.77861e-05
2.72244e-05
2.75325e-05
2.76835e-05
2.6667e-05
2.62306e-05
2.68494e-05
2.74354e-05
2.76289e-05
2.80884e-05
3.00628e-05
1.07709e-05
1.23506e-05
1.66516e-05
1.86418e-05
2.08018e-05
2.14596e-05
2.26738e-05
2.37792e-05
2.41242e-05
2.37741e-05
2.33513e-05
2.3773e-05
2.44534e-05
2.45316e-05
2.5165e-05
2.71774e-05
3.01704e-05
6.06459e-06
9.0395e-06
1.29658e-05
1.49679e-05
1.65478e-05
1.76563e-05
1.87149e-05
1.97201e-05
2.00862e-05
1.99087e-05
1.98422e-05
2.03508e-05
2.08332e-05
2.10841e-05
2.17094e-05
2.33642e-05
2.56863e-05
2.85544e-05
6.56901e-06
7.40709e-06
8.54893e-06
1.09215e-05
1.24917e-05
1.35731e-05
1.50918e-05
1.63525e-05
1.62179e-05
1.59036e-05
1.58495e-05
1.61395e-05
1.65103e-05
1.68818e-05
1.75966e-05
1.86107e-05
2.05663e-05
2.28313e-05
2.5406e-05
5.87743e-06
6.27911e-06
7.50264e-06
9.12671e-06
9.85633e-06
1.01649e-05
1.10177e-05
1.15911e-05
1.17978e-05
1.1204e-05
1.12763e-05
1.17871e-05
1.20029e-05
1.21634e-05
1.27356e-05
1.35691e-05
1.50061e-05
1.67619e-05
1.82368e-05
2.05594e-05
6.97955e-06
5.20976e-06
6.58154e-06
5.57751e-06
7.09241e-06
9.07166e-06
6.28338e-06
6.92823e-06
6.49018e-06
5.58917e-06
5.68884e-06
6.62128e-06
6.03941e-06
6.12437e-06
6.43244e-06
7.38208e-06
7.47436e-06
8.32977e-06
9.23819e-06
1.02869e-05
1.19072e-05
0.000593415
0.000438245
0.000479904
0.000390382
0.000641313
0.000794187
0.000732265
0.000848695
0.000975915
0.000512345
0.0010185
0.000773867
0.000501567
0.00022112
0.000209841
0.000622186
0.000384878
0.000203489
0.000173946
0.000158739
0.000132816
0.000240095
0.000192262
0.000143962
0.00012918
0.000129288
0.000115605
9.56298e-05
0.000135082
0.000127939
0.000129111
0.000115531
0.000119634
0.000104033
7.52583e-05
6.46645e-05
0.000106505
0.000105412
0.00010175
0.000103431
0.00010051
8.32636e-05
6.66943e-05
6.39335e-05
6.73963e-05
0.00010628
9.67722e-05
0.000100764
8.2366e-05
8.6862e-05
7.75082e-05
6.7234e-05
5.74292e-05
5.55579e-05
5.37203e-05
6.88146e-05
7.73211e-05
7.40026e-05
6.14357e-05
6.8795e-05
6.57731e-05
6.25632e-05
5.71533e-05
5.7752e-05
4.90614e-05
4.0243e-05
7.17887e-05
4.79728e-05
5.89319e-05
5.27361e-05
5.08786e-05
5.33241e-05
5.25426e-05
5.30733e-05
4.94497e-05
4.54906e-05
4.10479e-05
3.87248e-05
3.93273e-05
4.1686e-05
4.8922e-05
5.20992e-05
5.40712e-05
4.5136e-05
4.4823e-05
4.35233e-05
4.28973e-05
4.16733e-05
3.60918e-05
3.49249e-05
3.76467e-05
5.03409e-05
4.00846e-05
3.92232e-05
4.05895e-05
4.39102e-05
4.41166e-05
4.16898e-05
3.95139e-05
3.92738e-05
3.71859e-05
3.46769e-05
3.54967e-05
3.37651e-05
3.29601e-05
4.29794e-05
3.16986e-05
4.05387e-05
3.43236e-05
3.14996e-05
3.5291e-05
3.78708e-05
3.84919e-05
3.65256e-05
3.44774e-05
3.31571e-05
3.21361e-05
3.29263e-05
3.32361e-05
3.16502e-05
7.15531e-05
1.62704e-05
2.90686e-05
2.84416e-05
3.01374e-05
3.24861e-05
3.31362e-05
3.2325e-05
3.15141e-05
3.06458e-05
2.99132e-05
3.04502e-05
3.03584e-05
2.91021e-05
3.0243e-05
3.29634e-05
4.43344e-05
1.82128e-05
2.14055e-05
2.3117e-05
2.65004e-05
2.78967e-05
2.73196e-05
2.7505e-05
2.76659e-05
2.68479e-05
2.623e-05
2.68634e-05
2.74644e-05
2.7708e-05
2.81665e-05
3.00493e-05
3.36227e-05
1.55574e-05
1.34764e-05
1.63311e-05
1.89882e-05
2.07731e-05
2.1565e-05
2.26767e-05
2.38616e-05
2.42012e-05
2.38951e-05
2.34656e-05
2.37992e-05
2.44259e-05
2.46289e-05
2.51681e-05
2.71983e-05
3.01491e-05
3.35899e-05
8.10798e-06
8.95341e-06
1.28711e-05
1.49404e-05
1.6419e-05
1.76241e-05
1.8749e-05
1.97495e-05
2.01684e-05
2.00047e-05
1.99455e-05
2.04334e-05
2.08477e-05
2.11577e-05
2.18993e-05
2.33641e-05
2.58343e-05
2.86499e-05
3.19569e-05
6.54445e-06
7.42166e-06
8.41215e-06
1.07916e-05
1.2678e-05
1.3564e-05
1.51274e-05
1.63444e-05
1.63869e-05
1.58686e-05
1.58095e-05
1.62569e-05
1.66506e-05
1.68205e-05
1.75135e-05
1.89284e-05
2.05395e-05
2.30584e-05
2.54294e-05
2.85451e-05
6.1972e-06
6.06341e-06
7.31983e-06
9.33886e-06
1.0114e-05
1.03239e-05
1.09972e-05
1.17032e-05
1.16024e-05
1.14768e-05
1.12706e-05
1.18947e-05
1.20037e-05
1.22512e-05
1.26887e-05
1.36555e-05
1.50022e-05
1.65946e-05
1.869e-05
2.03974e-05
2.33253e-05
7.27277e-06
7.19235e-06
4.66489e-06
5.36651e-06
5.36229e-06
7.12752e-06
7.01313e-06
5.92965e-06
7.15674e-06
5.83608e-06
5.68756e-06
6.06079e-06
6.10933e-06
5.89417e-06
6.41779e-06
6.82794e-06
7.89067e-06
8.40475e-06
9.36847e-06
1.03474e-05
1.18751e-05
1.34142e-05
0.00108058
0.000647382
0.000634429
0.000414646
0.000494548
0.000576727
0.000349272
0.000593439
0.000846078
0.000873725
0.000699879
0.000894242
0.000871007
0.000437148
0.000260305
0.00102133
0.000793391
0.00050997
0.000216109
0.000179253
0.000161867
0.000701352
0.000412122
0.000204151
0.000197599
0.000159239
0.000146329
0.000108106
0.000224369
0.00017354
0.00015304
0.000144824
0.00012804
0.000106544
0.00010215
9.18044e-05
0.000146213
0.000121394
0.000121116
0.000123592
0.000121161
0.000100772
7.63286e-05
7.09216e-05
8.16447e-05
0.00011169
0.000102833
0.000106031
0.000105396
0.000101694
8.06406e-05
6.81552e-05
6.71337e-05
7.11941e-05
4.94004e-05
8.99125e-05
9.41994e-05
0.000101829
8.99022e-05
8.87045e-05
7.79371e-05
6.67618e-05
5.83541e-05
5.64107e-05
5.34967e-05
4.15866e-05
6.58814e-05
6.39998e-05
7.68876e-05
7.23029e-05
6.85895e-05
6.68247e-05
6.39268e-05
5.76322e-05
5.79325e-05
4.72132e-05
3.83287e-05
3.96052e-05
7.06517e-05
5.78561e-05
4.79588e-05
5.39522e-05
5.62369e-05
5.55262e-05
5.24351e-05
5.33766e-05
4.93201e-05
4.54117e-05
4.03298e-05
3.90979e-05
3.56157e-05
7.2562e-05
4.2374e-05
5.08062e-05
5.10422e-05
5.44546e-05
4.99131e-05
4.47289e-05
4.39743e-05
4.28403e-05
4.18422e-05
3.5713e-05
3.48827e-05
3.78347e-05
3.41828e-05
5.36352e-05
4.12621e-05
4.05143e-05
4.45237e-05
4.35004e-05
4.41019e-05
4.20582e-05
3.96799e-05
3.93378e-05
3.72457e-05
3.47188e-05
3.56407e-05
3.38829e-05
3.30778e-05
3.59073e-05
4.6441e-05
3.3031e-05
3.06691e-05
3.56414e-05
3.358e-05
3.55212e-05
3.77189e-05
3.87774e-05
3.68433e-05
3.45918e-05
3.32081e-05
3.21947e-05
3.29561e-05
3.32581e-05
3.17336e-05
3.44489e-05
6.5318e-05
5.45736e-05
2.7747e-05
3.0953e-05
3.01877e-05
3.30573e-05
3.31962e-05
3.24513e-05
3.16433e-05
3.06555e-05
2.99559e-05
3.0536e-05
3.04542e-05
2.91317e-05
3.03038e-05
3.30204e-05
3.63238e-05
2.87344e-05
4.1195e-05
2.2461e-05
2.32871e-05
2.5718e-05
2.80058e-05
2.74136e-05
2.75238e-05
2.76857e-05
2.68828e-05
2.63874e-05
2.68994e-05
2.75e-05
2.77368e-05
2.82636e-05
3.01357e-05
3.36449e-05
3.78387e-05
1.76994e-05
1.75612e-05
1.68831e-05
1.89301e-05
2.09647e-05
2.16374e-05
2.27503e-05
2.38761e-05
2.4267e-05
2.39647e-05
2.35806e-05
2.39077e-05
2.44303e-05
2.46295e-05
2.52783e-05
2.72375e-05
3.01351e-05
3.36133e-05
3.74731e-05
8.52346e-06
1.04327e-05
1.29165e-05
1.48487e-05
1.64148e-05
1.7594e-05
1.87791e-05
1.98191e-05
2.02358e-05
2.003e-05
1.99967e-05
2.05965e-05
2.0906e-05
2.11522e-05
2.1986e-05
2.35404e-05
2.58365e-05
2.88024e-05
3.20145e-05
3.59912e-05
6.45019e-06
7.8516e-06
8.61553e-06
1.07654e-05
1.26252e-05
1.37576e-05
1.51412e-05
1.64302e-05
1.64508e-05
1.60359e-05
1.57466e-05
1.62534e-05
1.67615e-05
1.69877e-05
1.74399e-05
1.88261e-05
2.0858e-05
2.29663e-05
2.57414e-05
2.85789e-05
3.22998e-05
6.27174e-06
6.27536e-06
7.30357e-06
9.21454e-06
1.03279e-05
1.05012e-05
1.09956e-05
1.17266e-05
1.16305e-05
1.13897e-05
1.13975e-05
1.16199e-05
1.23607e-05
1.21651e-05
1.27769e-05
1.37671e-05
1.50234e-05
1.67205e-05
1.86034e-05
2.08894e-05
2.32043e-05
2.63515e-05
1.1442e-05
6.56687e-06
5.19719e-06
4.93452e-06
5.00488e-06
5.91224e-06
6.67196e-06
6.19372e-06
5.86101e-06
6.37602e-06
5.65658e-06
5.95695e-06
6.11084e-06
6.07358e-06
7.02142e-06
6.89815e-06
7.60181e-06
8.69059e-06
9.21788e-06
1.03447e-05
1.18836e-05
1.38835e-05
1.51754e-05
0.00154379
0.00106205
0.00110055
0.000676248
0.000697166
0.000605714
0.000396012
0.000483177
0.000601247
0.00068063
0.000340123
0.000595668
0.000880566
0.000813295
0.000600158
0.000744388
0.000933977
0.000903894
0.000547506
0.000339751
0.0001376
0.0010116
0.000766991
0.000505637
0.000187445
0.000172152
0.000191962
0.000169142
0.000685673
0.000392131
0.000197755
0.000177224
0.000155236
0.000133336
9.04212e-05
9.32553e-05
0.000203717
0.000200645
0.000146608
0.00014422
0.00012489
0.000112716
0.000100541
9.16327e-05
9.98304e-05
0.000162377
0.000120429
0.00011602
0.000121776
0.000122759
0.000101892
7.84838e-05
7.39656e-05
8.0145e-05
7.76526e-05
0.000101282
0.000113555
0.000103775
0.000110854
0.000101102
8.00626e-05
6.58633e-05
7.14027e-05
7.53779e-05
5.14416e-05
4.85626e-05
9.12805e-05
8.4515e-05
0.000101346
8.86219e-05
8.92014e-05
7.82647e-05
6.57673e-05
5.88036e-05
5.77837e-05
6.1342e-05
4.2674e-05
4.35529e-05
9.30808e-05
6.55526e-05
7.17769e-05
7.1681e-05
6.86139e-05
6.55448e-05
6.36695e-05
5.80238e-05
5.90871e-05
4.82287e-05
4.24314e-05
4.3818e-05
4.27432e-05
5.61056e-05
6.536e-05
5.46685e-05
4.75122e-05
5.54288e-05
6.19649e-05
5.38061e-05
5.41119e-05
4.99078e-05
4.54156e-05
4.06801e-05
4.09862e-05
3.48989e-05
3.51416e-05
4.42132e-05
6.1413e-05
5.29646e-05
5.20435e-05
5.1912e-05
5.02341e-05
4.93297e-05
4.45532e-05
4.30919e-05
4.19776e-05
3.58685e-05
3.51772e-05
3.87754e-05
3.37246e-05
3.20426e-05
4.77545e-05
3.64725e-05
3.58074e-05
4.29185e-05
4.35105e-05
4.41868e-05
4.18199e-05
4.03565e-05
3.96178e-05
3.73191e-05
3.47025e-05
3.5591e-05
3.39151e-05
3.31169e-05
3.60294e-05
3.64588e-05
6.10655e-05
2.95566e-05
3.51507e-05
3.32604e-05
3.28697e-05
3.62544e-05
3.77353e-05
3.84121e-05
3.72299e-05
3.4678e-05
3.32113e-05
3.22964e-05
3.30289e-05
3.32853e-05
3.17331e-05
3.45753e-05
3.92685e-05
5.48433e-05
3.82051e-05
3.52401e-05
3.05812e-05
3.11521e-05
3.30781e-05
3.35394e-05
3.24843e-05
3.20754e-05
3.0766e-05
2.99013e-05
3.05545e-05
3.05778e-05
2.91997e-05