/*--------------------------------*- C++ -*----------------------------------*\
  =========                 |
  \\      /  F ield         | OpenFOAM: The Open Source CFD Toolbox
   \\    /   O peration     | Website:  https://openfoam.org
    \\  /    A nd           | Version:  7
     \\/     M anipulation  |
\*---------------------------------------------------------------------------*/
FoamFile
{
    version     2.0;
    format      ascii;
    class       volScalarField;
    location    "0.5";
    object      p;
}
// * * * * * * * * * * * * * * * * * * * * * * * * * * * * * * * * * * * * * //

dimensions      [0 2 -2 0 0 0 0];

internalField   nonuniform List<scalar> 
18870
(
-100.839
-100.844
-100.839
-100.866
-100.853
-100.844
-100.872
-100.839
-100.866
-100.881
-100.869
-100.854
-100.883
-100.844
-100.872
-100.886
-100.839
-100.866
-100.881
-100.884
-100.889
-100.869
-100.898
-100.854
-100.883
-100.895
-100.844
-100.873
-100.887
-100.888
-100.839
-100.866
-100.881
-100.884
-100.876
-100.912
-100.888
-100.916
-100.87
-100.899
-100.907
-100.855
-100.884
-100.895
-100.896
-100.845
-100.873
-100.887
-100.888
-100.881
-100.84
-100.866
-100.881
-100.884
-100.876
-100.862
-100.944
-100.913
-100.938
-100.887
-100.916
-100.922
-100.87
-100.899
-100.907
-100.905
-100.855
-100.884
-100.896
-100.896
-100.888
-100.845
-100.873
-100.887
-100.889
-100.881
-100.866
-100.84
-100.866
-100.881
-100.884
-100.877
-100.863
-100.843
-100.975
-100.945
-100.961
-100.915
-100.939
-100.94
-100.887
-100.917
-100.923
-100.919
-100.869
-100.899
-100.908
-100.906
-100.897
-100.855
-100.884
-100.896
-100.896
-100.888
-100.873
-100.845
-100.873
-100.887
-100.889
-100.881
-100.867
-100.847
-100.84
-100.866
-100.881
-100.884
-100.877
-100.863
-100.843
-100.818
-101.012
-100.975
-100.989
-100.947
-100.963
-100.962
-100.915
-100.94
-100.941
-100.934
-100.886
-100.917
-100.923
-100.919
-100.908
-100.868
-100.899
-100.908
-100.907
-100.897
-100.88
-100.856
-100.884
-100.896
-100.897
-100.889
-100.873
-100.852
-100.845
-100.873
-100.888
-100.889
-100.882
-100.867
-100.847
-100.822
-100.84
-100.866
-100.881
-100.884
-100.877
-100.863
-100.843
-100.818
-100.79
-101.057
-101.013
-101.024
-100.978
-100.99
-100.987
-100.947
-100.963
-100.963
-100.952
-100.916
-100.94
-100.942
-100.935
-100.921
-100.887
-100.918
-100.924
-100.92
-100.909
-100.89
-100.868
-100.899
-100.909
-100.907
-100.898
-100.881
-100.859
-100.856
-100.884
-100.897
-100.897
-100.889
-100.874
-100.853
-100.827
-100.845
-100.873
-100.888
-100.89
-100.882
-100.867
-100.847
-100.822
-100.794
-100.84
-100.866
-100.881
-100.884
-100.877
-100.863
-100.843
-100.818
-100.79
-100.758
-101.114
-101.058
-101.061
-101.013
-101.024
-101.015
-100.978
-100.991
-100.988
-100.973
-100.948
-100.964
-100.964
-100.953
-100.936
-100.917
-100.941
-100.943
-100.936
-100.922
-100.901
-100.889
-100.918
-100.924
-100.921
-100.909
-100.891
-100.867
-100.868
-100.899
-100.909
-100.908
-100.899
-100.882
-100.86
-100.834
-100.856
-100.884
-100.897
-100.898
-100.89
-100.874
-100.854
-100.828
-100.799
-100.845
-100.873
-100.888
-100.89
-100.882
-100.868
-100.848
-100.823
-100.794
-100.762
-100.84
-100.866
-100.881
-100.884
-100.877
-100.863
-100.843
-100.818
-100.79
-100.758
-100.724
-101.176
-101.115
-101.107
-101.059
-101.062
-101.046
-101.015
-101.025
-101.016
-100.996
-100.979
-100.992
-100.989
-100.974
-100.953
-100.949
-100.964
-100.965
-100.954
-100.937
-100.914
-100.917
-100.942
-100.943
-100.937
-100.923
-100.902
-100.877
-100.891
-100.919
-100.925
-100.921
-100.91
-100.892
-100.868
-100.841
-100.868
-100.899
-100.909
-100.908
-100.899
-100.882
-100.861
-100.835
-100.805
-100.856
-100.885
-100.897
-100.898
-100.89
-100.875
-100.854
-100.829
-100.8
-100.768
-100.846
-100.873
-100.888
-100.89
-100.882
-100.868
-100.848
-100.823
-100.795
-100.763
-100.729
-100.84
-100.866
-100.881
-100.884
-100.877
-100.863
-100.843
-100.819
-100.79
-100.759
-100.724
-100.687
-101.251
-101.177
-101.155
-101.118
-101.109
-101.081
-101.062
-101.064
-101.048
-101.022
-101.015
-101.025
-101.017
-100.997
-100.972
-100.979
-100.993
-100.99
-100.975
-100.954
-100.928
-100.948
-100.964
-100.966
-100.955
-100.939
-100.915
-100.887
-100.916
-100.942
-100.944
-100.937
-100.924
-100.903
-100.878
-100.85
-100.891
-100.92
-100.925
-100.922
-100.911
-100.893
-100.869
-100.842
-100.812
-100.868
-100.899
-100.91
-100.909
-100.9
-100.883
-100.861
-100.836
-100.806
-100.774
-100.857
-100.885
-100.897
-100.898
-100.89
-100.875
-100.855
-100.829
-100.8
-100.769
-100.734
-100.846
-100.874
-100.888
-100.89
-100.883
-100.868
-100.848
-100.824
-100.795
-100.764
-100.729
-100.692
-100.839
-100.866
-100.882
-100.884
-100.877
-100.863
-100.844
-100.819
-100.79
-100.759
-100.725
-100.688
-100.647
-101.334
-101.251
-101.212
-101.184
-101.157
-101.12
-101.12
-101.11
-101.083
-101.049
-101.062
-101.065
-101.049
-101.024
-100.992
-101.016
-101.026
-101.019
-100.999
-100.974
-100.944
-100.979
-100.994
-100.991
-100.976
-100.956
-100.929
-100.9
-100.945
-100.964
-100.966
-100.956
-100.94
-100.917
-100.889
-100.859
-100.917
-100.942
-100.944
-100.938
-100.925
-100.904
-100.88
-100.852
-100.821
-100.892
-100.92
-100.926
-100.923
-100.912
-100.893
-100.871
-100.844
-100.814
-100.781
-100.868
-100.899
-100.91
-100.909
-100.9
-100.884
-100.862
-100.837
-100.807
-100.775
-100.741
-100.857
-100.885
-100.898
-100.898
-100.891
-100.876
-100.855
-100.83
-100.801
-100.77
-100.735
-100.699
-100.846
-100.874
-100.888
-100.89
-100.883
-100.869
-100.849
-100.824
-100.796
-100.764
-100.73
-100.693
-100.652
-100.839
-100.866
-100.882
-100.884
-100.877
-100.863
-100.844
-100.819
-100.79
-100.759
-100.725
-100.688
-100.647
-100.603
-101.41
-101.333
-101.277
-101.254
-101.214
-101.163
-101.183
-101.159
-101.122
-101.081
-101.122
-101.111
-101.085
-101.051
-101.015
-101.064
-101.066
-101.05
-101.025
-100.994
-100.959
-101.018
-101.027
-101.02
-101
-100.975
-100.945
-100.912
-100.98
-100.994
-100.992
-100.978
-100.957
-100.931
-100.901
-100.87
-100.944
-100.965
-100.967
-100.957
-100.941
-100.918
-100.891
-100.861
-100.83
-100.917
-100.942
-100.945
-100.939
-100.926
-100.906
-100.881
-100.853
-100.822
-100.79
-100.892
-100.92
-100.926
-100.923
-100.912
-100.894
-100.872
-100.845
-100.815
-100.783
-100.749
-100.868
-100.899
-100.91
-100.909
-100.901
-100.884
-100.863
-100.838
-100.809
-100.777
-100.742
-100.706
-100.857
-100.885
-100.898
-100.899
-100.891
-100.876
-100.856
-100.831
-100.802
-100.77
-100.736
-100.7
-100.66
-100.846
-100.874
-100.888
-100.89
-100.883
-100.869
-100.849
-100.824
-100.796
-100.765
-100.731
-100.694
-100.653
-100.609
-100.839
-100.866
-100.882
-100.884
-100.877
-100.863
-100.844
-100.819
-100.79
-100.759
-100.725
-100.688
-100.647
-100.603
-100.554
-101.525
-101.413
-101.342
-101.33
-101.278
-101.21
-101.255
-101.216
-101.165
-101.113
-101.186
-101.161
-101.124
-101.083
-101.037
-101.124
-101.113
-101.086
-101.053
-101.017
-100.976
-101.064
-101.067
-101.052
-101.027
-100.996
-100.961
-100.925
-101.019
-101.028
-101.021
-101.001
-100.977
-100.947
-100.914
-100.881
-100.98
-100.995
-100.993
-100.978
-100.958
-100.932
-100.903
-100.872
-100.839
-100.944
-100.965
-100.968
-100.958
-100.942
-100.919
-100.892
-100.863
-100.832
-100.799
-100.917
-100.942
-100.945
-100.939
-100.927
-100.906
-100.882
-100.854
-100.824
-100.792
-100.757
-100.892
-100.92
-100.926
-100.924
-100.913
-100.895
-100.873
-100.846
-100.817
-100.785
-100.751
-100.714
-100.868
-100.899
-100.911
-100.91
-100.901
-100.885
-100.864
-100.838
-100.81
-100.778
-100.744
-100.707
-100.668
-100.857
-100.884
-100.898
-100.899
-100.891
-100.876
-100.856
-100.831
-100.803
-100.771
-100.737
-100.701
-100.661
-100.617
-100.846
-100.874
-100.889
-100.891
-100.883
-100.869
-100.849
-100.825
-100.796
-100.765
-100.731
-100.694
-100.654
-100.61
-100.56
-100.839
-100.866
-100.882
-100.884
-100.877
-100.863
-100.844
-100.819
-100.79
-100.759
-100.725
-100.688
-100.648
-100.603
-100.554
-100.499
-101.608
-101.519
-101.423
-101.418
-101.348
-101.264
-101.337
-101.28
-101.211
-101.147
-101.256
-101.218
-101.167
-101.116
-101.06
-101.186
-101.162
-101.125
-101.085
-101.039
-100.993
-101.124
-101.114
-101.088
-101.054
-101.019
-100.979
-100.938
-101.065
-101.069
-101.052
-101.028
-100.997
-100.963
-100.927
-100.892
-101.021
-101.028
-101.021
-101.003
-100.978
-100.949
-100.916
-100.883
-100.849
-100.981
-100.995
-100.993
-100.979
-100.959
-100.934
-100.905
-100.874
-100.842
-100.808
-100.943
-100.965
-100.968
-100.959
-100.943
-100.92
-100.894
-100.865
-100.834
-100.801
-100.767
-100.917
-100.942
-100.946
-100.94
-100.927
-100.907
-100.883
-100.856
-100.826
-100.793
-100.76
-100.724
-100.892
-100.92
-100.927
-100.924
-100.914
-100.896
-100.873
-100.847
-100.818
-100.786
-100.752
-100.716
-100.677
-100.868
-100.899
-100.911
-100.91
-100.902
-100.886
-100.864
-100.839
-100.81
-100.779
-100.745
-100.709
-100.669
-100.626
-100.857
-100.884
-100.898
-100.899
-100.892
-100.877
-100.857
-100.832
-100.803
-100.772
-100.738
-100.702
-100.662
-100.618
-100.569
-100.846
-100.874
-100.889
-100.891
-100.883
-100.869
-100.85
-100.825
-100.797
-100.766
-100.732
-100.695
-100.655
-100.61
-100.561
-100.506
-100.839
-100.866
-100.882
-100.884
-100.877
-100.863
-100.844
-100.819
-100.791
-100.759
-100.725
-100.688
-100.648
-100.603
-100.554
-100.499
-100.437
-101.722
-101.603
-101.487
-101.522
-101.428
-101.318
-101.422
-101.351
-101.268
-101.181
-101.337
-101.281
-101.214
-101.151
-101.081
-101.25
-101.22
-101.169
-101.118
-101.062
-101.008
-101.183
-101.163
-101.126
-101.087
-101.041
-100.995
-100.95
-101.123
-101.115
-101.089
-101.056
-101.02
-100.981
-100.94
-100.902
-101.065
-101.069
-101.053
-101.029
-100.999
-100.965
-100.93
-100.894
-100.86
-101.023
-101.029
-101.022
-101.004
-100.979
-100.95
-100.918
-100.885
-100.852
-100.818
-100.981
-100.995
-100.994
-100.98
-100.96
-100.935
-100.907
-100.876
-100.844
-100.811
-100.777
-100.943
-100.965
-100.969
-100.959
-100.944
-100.922
-100.895
-100.866
-100.836
-100.803
-100.769
-100.735
-100.916
-100.942
-100.946
-100.94
-100.928
-100.908
-100.884
-100.857
-100.827
-100.795
-100.762
-100.726
-100.688
-100.891
-100.92
-100.927
-100.924
-100.914
-100.896
-100.874
-100.848
-100.819
-100.788
-100.754
-100.718
-100.68
-100.637
-100.868
-100.899
-100.911
-100.91
-100.902
-100.886
-100.865
-100.84
-100.811
-100.78
-100.746
-100.71
-100.671
-100.628
-100.58
-100.857
-100.884
-100.898
-100.899
-100.892
-100.877
-100.857
-100.832
-100.804
-100.773
-100.739
-100.703
-100.663
-100.619
-100.571
-100.517
-100.846
-100.873
-100.889
-100.891
-100.883
-100.87
-100.85
-100.825
-100.797
-100.766
-100.732
-100.696
-100.655
-100.611
-100.562
-100.507
-100.445
-100.839
-100.866
-100.882
-100.884
-100.877
-100.863
-100.844
-100.819
-100.791
-100.759
-100.725
-100.689
-100.648
-100.604
-100.554
-100.499
-100.437
-100.367
-101.738
-101.702
-101.549
-101.607
-101.499
-101.375
-101.538
-101.434
-101.32
-101.215
-101.418
-101.352
-101.268
-101.185
-101.104
-101.344
-101.282
-101.216
-101.153
-101.084
-101.021
-101.25
-101.22
-101.171
-101.12
-101.065
-101.01
-100.96
-101.181
-101.163
-101.127
-101.088
-101.043
-100.997
-100.952
-100.913
-101.121
-101.116
-101.09
-101.057
-101.022
-100.983
-100.943
-100.905
-100.869
-101.067
-101.07
-101.054
-101.03
-101
-100.967
-100.932
-100.897
-100.863
-100.828
-101.023
-101.029
-101.023
-101.004
-100.98
-100.952
-100.92
-100.888
-100.855
-100.821
-100.788
-100.982
-100.995
-100.994
-100.981
-100.961
-100.936
-100.908
-100.877
-100.846
-100.813
-100.78
-100.746
-100.942
-100.965
-100.969
-100.96
-100.944
-100.922
-100.896
-100.868
-100.837
-100.805
-100.772
-100.737
-100.7
-100.915
-100.942
-100.946
-100.941
-100.929
-100.909
-100.885
-100.858
-100.829
-100.797
-100.764
-100.729
-100.691
-100.65
-100.89
-100.919
-100.927
-100.925
-100.914
-100.897
-100.875
-100.849
-100.82
-100.789
-100.756
-100.72
-100.682
-100.639
-100.593
-100.868
-100.899
-100.911
-100.91
-100.902
-100.886
-100.866
-100.841
-100.812
-100.781
-100.747
-100.712
-100.673
-100.63
-100.582
-100.528
-100.857
-100.884
-100.898
-100.899
-100.892
-100.877
-100.857
-100.833
-100.804
-100.773
-100.74
-100.704
-100.664
-100.621
-100.572
-100.518
-100.457
-100.846
-100.873
-100.889
-100.891
-100.884
-100.87
-100.85
-100.826
-100.797
-100.767
-100.733
-100.696
-100.656
-100.612
-100.563
-100.508
-100.446
-100.376
-100.84
-100.866
-100.882
-100.884
-100.877
-100.863
-100.844
-100.819
-100.791
-100.759
-100.725
-100.689
-100.648
-100.604
-100.555
-100.5
-100.437
-100.367
-100.288
-101.723
-101.733
-101.61
-101.7
-101.562
-101.406
-101.624
-101.513
-101.382
-101.238
-101.554
-101.44
-101.321
-101.218
-101.122
-101.421
-101.352
-101.27
-101.187
-101.108
-101.035
-101.334
-101.281
-101.217
-101.155
-101.087
-101.025
-100.971
-101.245
-101.221
-101.172
-101.122
-101.067
-101.013
-100.963
-100.921
-101.18
-101.163
-101.128
-101.089
-101.045
-101
-100.955
-100.916
-100.878
-101.12
-101.116
-101.091
-101.058
-101.024
-100.984
-100.945
-100.908
-100.872
-100.837
-101.068
-101.071
-101.055
-101.031
-101.001
-100.968
-100.934
-100.899
-100.865
-100.831
-100.797
-101.023
-101.03
-101.023
-101.005
-100.981
-100.953
-100.921
-100.89
-100.857
-100.823
-100.791
-100.758
-100.982
-100.995
-100.995
-100.981
-100.962
-100.938
-100.91
-100.879
-100.848
-100.816
-100.782
-100.749
-100.714
-100.945
-100.965
-100.97
-100.96
-100.945
-100.923
-100.897
-100.869
-100.839
-100.807
-100.774
-100.74
-100.703
-100.664
-100.915
-100.942
-100.946
-100.941
-100.929
-100.91
-100.886
-100.86
-100.83
-100.799
-100.766
-100.731
-100.694
-100.653
-100.607
-100.889
-100.919
-100.927
-100.925
-100.915
-100.898
-100.876
-100.85
-100.821
-100.79
-100.757
-100.722
-100.684
-100.642
-100.595
-100.543
-100.869
-100.899
-100.911
-100.911
-100.902
-100.887
-100.866
-100.841
-100.813
-100.782
-100.749
-100.713
-100.674
-100.631
-100.584
-100.531
-100.47
-100.857
-100.884
-100.898
-100.899
-100.892
-100.878
-100.858
-100.833
-100.805
-100.774
-100.741
-100.705
-100.665
-100.622
-100.574
-100.52
-100.459
-100.389
-100.846
-100.873
-100.889
-100.891
-100.884
-100.87
-100.85
-100.826
-100.798
-100.767
-100.733
-100.697
-100.657
-100.613
-100.564
-100.509
-100.448
-100.378
-100.298
-100.84
-100.866
-100.882
-100.884
-100.877
-100.863
-100.844
-100.819
-100.791
-100.76
-100.726
-100.689
-100.648
-100.604
-100.555
-100.5
-100.438
-100.368
-100.288
-100.199
-101.686
-101.697
-101.568
-101.757
-101.608
-101.421
-101.708
-101.587
-101.414
-101.277
-101.639
-101.52
-101.381
-101.241
-101.13
-101.539
-101.437
-101.324
-101.221
-101.126
-101.045
-101.424
-101.35
-101.271
-101.189
-101.112
-101.038
-100.972
-101.333
-101.281
-101.219
-101.157
-101.089
-101.028
-100.973
-100.93
-101.246
-101.218
-101.173
-101.123
-101.069
-101.015
-100.966
-100.924
-100.886
-101.179
-101.163
-101.129
-101.091
-101.047
-101.001
-100.958
-100.918
-100.882
-100.845
-101.12
-101.116
-101.091
-101.059
-101.025
-100.986
-100.948
-100.91
-100.875
-100.84
-100.808
-101.068
-101.071
-101.055
-101.032
-101.002
-100.969
-100.935
-100.901
-100.868
-100.834
-100.801
-100.77
-101.023
-101.03
-101.024
-101.006
-100.983
-100.954
-100.923
-100.891
-100.859
-100.826
-100.794
-100.761
-100.727
-100.98
-100.995
-100.995
-100.982
-100.963
-100.939
-100.911
-100.881
-100.85
-100.818
-100.785
-100.752
-100.717
-100.679
-100.944
-100.966
-100.97
-100.961
-100.945
-100.924
-100.898
-100.87
-100.841
-100.809
-100.776
-100.743
-100.706
-100.667
-100.624
-100.917
-100.941
-100.947
-100.941
-100.93
-100.91
-100.887
-100.861
-100.831
-100.8
-100.767
-100.733
-100.696
-100.655
-100.61
-100.56
-100.888
-100.918
-100.927
-100.925
-100.915
-100.898
-100.876
-100.851
-100.822
-100.791
-100.758
-100.724
-100.686
-100.644
-100.598
-100.546
-100.487
-100.869
-100.899
-100.911
-100.911
-100.903
-100.887
-100.867
-100.842
-100.814
-100.783
-100.75
-100.714
-100.676
-100.633
-100.586
-100.533
-100.473
-100.405
-100.857
-100.884
-100.898
-100.899
-100.892
-100.878
-100.858
-100.833
-100.805
-100.775
-100.741
-100.706
-100.666
-100.623
-100.575
-100.521
-100.46
-100.391
-100.313
-100.845
-100.873
-100.889
-100.891
-100.884
-100.87
-100.851
-100.826
-100.798
-100.767
-100.734
-100.697
-100.657
-100.613
-100.565
-100.51
-100.449
-100.379
-100.3
-100.211
-100.84
-100.866
-100.882
-100.884
-100.877
-100.863
-100.844
-100.819
-100.791
-100.76
-100.726
-100.689
-100.649
-100.604
-100.555
-100.5
-100.438
-100.368
-100.289
-100.2
-100.1
-101.663
-101.725
-101.487
-101.707
-101.577
-101.431
-101.74
-101.618
-101.412
-101.265
-101.734
-101.589
-101.421
-101.278
-101.145
-101.658
-101.514
-101.383
-101.252
-101.137
-101.048
-101.527
-101.434
-101.327
-101.231
-101.13
-101.052
-100.98
-101.419
-101.35
-101.272
-101.192
-101.113
-101.041
-100.976
-100.933
-101.331
-101.281
-101.219
-101.158
-101.091
-101.032
-100.977
-100.933
-100.892
-101.246
-101.22
-101.172
-101.124
-101.071
-101.017
-100.968
-100.927
-100.89
-100.853
-101.18
-101.163
-101.129
-101.092
-101.048
-101.003
-100.96
-100.921
-100.885
-100.848
-100.816
-101.122
-101.117
-101.092
-101.06
-101.027
-100.988
-100.95
-100.912
-100.877
-100.843
-100.812
-100.781
-101.067
-101.072
-101.056
-101.033
-101.003
-100.971
-100.937
-100.903
-100.87
-100.837
-100.804
-100.774
-100.742
-101.018
-101.031
-101.024
-101.006
-100.983
-100.955
-100.924
-100.893
-100.861
-100.829
-100.797
-100.765
-100.731
-100.696
-100.981
-100.994
-100.996
-100.982
-100.963
-100.94
-100.912
-100.882
-100.851
-100.82
-100.787
-100.755
-100.721
-100.683
-100.642
-100.945
-100.966
-100.97
-100.961
-100.946
-100.925
-100.899
-100.872
-100.842
-100.811
-100.778
-100.745
-100.709
-100.67
-100.628
-100.579
-100.916
-100.941
-100.947
-100.942
-100.93
-100.911
-100.888
-100.861
-100.832
-100.801
-100.769
-100.735
-100.698
-100.658
-100.614
-100.564
-100.507
-100.888
-100.917
-100.927
-100.925
-100.915
-100.898
-100.877
-100.851
-100.823
-100.792
-100.76
-100.725
-100.687
-100.646
-100.6
-100.549
-100.49
-100.424
-100.869
-100.899
-100.911
-100.911
-100.903
-100.887
-100.867
-100.842
-100.814
-100.784
-100.751
-100.715
-100.677
-100.635
-100.588
-100.535
-100.475
-100.407
-100.33
-100.856
-100.883
-100.898
-100.899
-100.892
-100.878
-100.858
-100.834
-100.806
-100.775
-100.742
-100.706
-100.667
-100.624
-100.576
-100.523
-100.462
-100.393
-100.315
-100.227
-100.845
-100.873
-100.889
-100.891
-100.884
-100.87
-100.851
-100.826
-100.798
-100.768
-100.734
-100.698
-100.658
-100.614
-100.566
-100.511
-100.45
-100.38
-100.301
-100.212
-100.113
-100.84
-100.866
-100.881
-100.884
-100.877
-100.863
-100.844
-100.819
-100.791
-100.76
-100.726
-100.689
-100.649
-100.604
-100.555
-100.5
-100.438
-100.368
-100.289
-100.2
-100.101
-99.991
-101.602
-101.671
-101.396
-101.681
-101.521
-101.366
-101.704
-101.588
-101.435
-101.236
-101.762
-101.626
-101.43
-101.281
-101.132
-101.734
-101.6
-101.406
-101.284
-101.151
-101.049
-101.634
-101.509
-101.384
-101.256
-101.138
-101.053
-100.969
-101.518
-101.435
-101.33
-101.232
-101.135
-101.053
-100.981
-100.933
-101.42
-101.349
-101.274
-101.193
-101.116
-101.044
-100.979
-100.936
-100.899
-101.324
-101.281
-101.219
-101.159
-101.094
-101.034
-100.977
-100.937
-100.896
-100.861
-101.251
-101.22
-101.173
-101.124
-101.072
-101.019
-100.971
-100.929
-100.894
-100.857
-100.825
-101.179
-101.165
-101.129
-101.092
-101.049
-101.005
-100.962
-100.923
-100.888
-100.852
-100.821
-100.795
-101.121
-101.118
-101.093
-101.061
-101.028
-100.989
-100.951
-100.915
-100.88
-100.846
-100.815
-100.785
-100.756
-101.067
-101.072
-101.056
-101.033
-101.004
-100.972
-100.938
-100.905
-100.873
-100.839
-100.807
-100.778
-100.746
-100.712
-101.02
-101.03
-101.024
-101.007
-100.984
-100.956
-100.925
-100.895
-100.863
-100.831
-100.799
-100.768
-100.735
-100.7
-100.662
-100.981
-100.995
-100.996
-100.983
-100.964
-100.94
-100.913
-100.884
-100.853
-100.822
-100.79
-100.758
-100.724
-100.686
-100.646
-100.601
-100.944
-100.966
-100.97
-100.961
-100.946
-100.925
-100.9
-100.873
-100.843
-100.812
-100.78
-100.747
-100.712
-100.673
-100.631
-100.584
-100.529
-100.914
-100.941
-100.947
-100.942
-100.93
-100.911
-100.888
-100.862
-100.833
-100.803
-100.771
-100.737
-100.7
-100.661
-100.616
-100.567
-100.511
-100.446
-100.887
-100.917
-100.927
-100.925
-100.915
-100.899
-100.877
-100.852
-100.824
-100.793
-100.761
-100.727
-100.689
-100.648
-100.603
-100.552
-100.493
-100.427
-100.352
-100.868
-100.898
-100.911
-100.911
-100.903
-100.888
-100.867
-100.843
-100.815
-100.784
-100.751
-100.716
-100.678
-100.636
-100.589
-100.537
-100.478
-100.41
-100.333
-100.246
-100.856
-100.883
-100.898
-100.899
-100.892
-100.878
-100.858
-100.834
-100.806
-100.776
-100.743
-100.707
-100.668
-100.625
-100.577
-100.524
-100.464
-100.395
-100.317
-100.229
-100.131
-100.845
-100.873
-100.889
-100.891
-100.884
-100.87
-100.851
-100.826
-100.799
-100.768
-100.734
-100.698
-100.658
-100.615
-100.566
-100.512
-100.451
-100.381
-100.303
-100.214
-100.115
-100.005
-100.84
-100.866
-100.881
-100.884
-100.877
-100.863
-100.844
-100.819
-100.791
-100.76
-100.726
-100.689
-100.649
-100.605
-100.555
-100.501
-100.439
-100.369
-100.289
-100.201
-100.101
-99.9915
-99.8727
-101.399
-101.566
-101.296
-101.695
-101.399
-101.231
-101.685
-101.498
-101.337
-101.181
-101.712
-101.593
-101.43
-101.239
-101.114
-101.753
-101.621
-101.45
-101.287
-101.132
-101.037
-101.735
-101.592
-101.428
-101.307
-101.16
-101.048
-100.964
-101.586
-101.503
-101.389
-101.263
-101.145
-101.057
-100.974
-100.929
-101.526
-101.433
-101.33
-101.237
-101.138
-101.059
-100.987
-100.937
-100.893
-101.414
-101.348
-101.274
-101.195
-101.117
-101.047
-100.982
-100.94
-100.905
-100.862
-101.327
-101.278
-101.219
-101.159
-101.095
-101.036
-100.98
-100.94
-100.9
-100.862
-100.83
-101.251
-101.221
-101.173
-101.124
-101.074
-101.021
-100.973
-100.932
-100.897
-100.86
-100.829
-100.802
-101.18
-101.165
-101.131
-101.092
-101.05
-101.006
-100.964
-100.926
-100.891
-100.855
-100.823
-100.799
-100.769
-101.12
-101.118
-101.093
-101.062
-101.029
-100.99
-100.953
-100.917
-100.882
-100.849
-100.819
-100.789
-100.761
-100.731
-101.067
-101.072
-101.057
-101.033
-101.005
-100.973
-100.94
-100.906
-100.875
-100.842
-100.81
-100.782
-100.75
-100.717
-100.684
-101.02
-101.03
-101.025
-101.007
-100.984
-100.957
-100.926
-100.896
-100.865
-100.833
-100.802
-100.771
-100.738
-100.704
-100.666
-100.624
-100.981
-100.994
-100.996
-100.983
-100.964
-100.941
-100.914
-100.885
-100.855
-100.824
-100.792
-100.76
-100.727
-100.69
-100.65
-100.606
-100.554
-100.944
-100.966
-100.97
-100.961
-100.947
-100.926
-100.901
-100.874
-100.845
-100.814
-100.782
-100.749
-100.714
-100.676
-100.635
-100.587
-100.533
-100.472
-100.915
-100.941
-100.946
-100.942
-100.93
-100.912
-100.889
-100.863
-100.834
-100.804
-100.772
-100.739
-100.703
-100.663
-100.619
-100.57
-100.514
-100.45
-100.377
-100.887
-100.916
-100.927
-100.925
-100.915
-100.899
-100.878
-100.853
-100.825
-100.794
-100.762
-100.728
-100.691
-100.65
-100.605
-100.554
-100.496
-100.431
-100.355
-100.27
-100.868
-100.898
-100.911
-100.911
-100.903
-100.888
-100.867
-100.843
-100.815
-100.785
-100.752
-100.717
-100.679
-100.637
-100.591
-100.539
-100.48
-100.413
-100.336
-100.249
-100.152
-100.856
-100.883
-100.898
-100.899
-100.892
-100.878
-100.859
-100.834
-100.806
-100.776
-100.743
-100.708
-100.669
-100.626
-100.579
-100.525
-100.465
-100.397
-100.319
-100.231
-100.133
-100.024
-100.845
-100.873
-100.888
-100.891
-100.884
-100.87
-100.851
-100.826
-100.799
-100.768
-100.735
-100.699
-100.659
-100.615
-100.567
-100.513
-100.452
-100.382
-100.304
-100.215
-100.116
-100.007
-99.8878
-100.84
-100.866
-100.881
-100.884
-100.877
-100.863
-100.844
-100.819
-100.791
-100.76
-100.726
-100.689
-100.649
-100.605
-100.556
-100.501
-100.439
-100.369
-100.29
-100.201
-100.102
-99.992
-99.8732
-99.7458
-101.278
-101.45
-101.153
-101.611
-101.283
-101.083
-101.686
-101.423
-101.242
-101.087
-101.665
-101.515
-101.342
-101.196
-101.079
-101.72
-101.598
-101.448
-101.232
-101.125
-101.007
-101.753
-101.617
-101.446
-101.265
-101.134
-101.047
-100.958
-101.73
-101.569
-101.441
-101.31
-101.161
-101.053
-100.975
-100.924
-101.593
-101.499
-101.39
-101.268
-101.147
-101.06
-100.979
-100.934
-100.895
-101.523
-101.43
-101.327
-101.236
-101.139
-101.06
-100.984
-100.941
-100.896
-100.873
-101.409
-101.346
-101.273
-101.194
-101.119
-101.05
-100.985
-100.943
-100.905
-100.865
-100.836
-101.331
-101.281
-101.218
-101.16
-101.095
-101.037
-100.983
-100.942
-100.903
-100.871
-100.84
-100.817
-101.253
-101.222
-101.174
-101.125
-101.074
-101.022
-100.975
-100.934
-100.9
-100.864
-100.831
-100.808
-100.78
-101.179
-101.166
-101.131
-101.093
-101.051
-101.007
-100.966
-100.928
-100.894
-100.858
-100.828
-100.804
-100.774
-100.747
-101.123
-101.118
-101.094
-101.062
-101.03
-100.991
-100.954
-100.919
-100.885
-100.852
-100.822
-100.793
-100.765
-100.736
-100.704
-101.072
-101.071
-101.057
-101.034
-101.006
-100.974
-100.941
-100.908
-100.876
-100.844
-100.813
-100.785
-100.754
-100.721
-100.689
-100.649
-101.021
-101.029
-101.025
-101.007
-100.985
-100.958
-100.927
-100.897
-100.867
-100.835
-100.804
-100.774
-100.742
-100.708
-100.671
-100.629
-100.581
-100.981
-100.993
-100.996
-100.983
-100.965
-100.941
-100.914
-100.886
-100.856
-100.825
-100.794
-100.763
-100.73
-100.693
-100.654
-100.61
-100.559
-100.5
-100.944
-100.966
-100.97
-100.961
-100.947
-100.926
-100.901
-100.875
-100.846
-100.815
-100.784
-100.751
-100.717
-100.679
-100.638
-100.591
-100.538
-100.477
-100.406
-100.917
-100.941
-100.946
-100.942
-100.93
-100.912
-100.889
-100.864
-100.835
-100.805
-100.773
-100.74
-100.704
-100.665
-100.622
-100.573
-100.518
-100.454
-100.382
-100.298
-100.888
-100.916
-100.926
-100.925
-100.915
-100.899
-100.878
-100.853
-100.825
-100.795
-100.763
-100.729
-100.692
-100.651
-100.607
-100.556
-100.499
-100.434
-100.359
-100.274
-100.178
-100.868
-100.898
-100.91
-100.911
-100.903
-100.888
-100.868
-100.843
-100.816
-100.785
-100.753
-100.718
-100.68
-100.639
-100.593
-100.541
-100.482
-100.415
-100.339
-100.252
-100.155
-100.047
-100.855
-100.883
-100.898
-100.899
-100.892
-100.878
-100.859
-100.834
-100.807
-100.776
-100.744
-100.708
-100.67
-100.627
-100.58
-100.527
-100.467
-100.398
-100.321
-100.234
-100.136
-100.027
-99.9083
-100.845
-100.873
-100.888
-100.891
-100.884
-100.87
-100.851
-100.827
-100.799
-100.768
-100.735
-100.699
-100.659
-100.616
-100.568
-100.514
-100.452
-100.383
-100.305
-100.217
-100.118
-100.009
-99.8897
-99.7624
-100.84
-100.866
-100.881
-100.884
-100.877
-100.863
-100.844
-100.819
-100.791
-100.76
-100.726
-100.689
-100.649
-100.605
-100.556
-100.501
-100.439
-100.369
-100.29
-100.201
-100.102
-99.9925
-99.8737
-99.7464
-99.6131
-101.314
-101.053
-101.43
-101.183
-100.98
-101.593
-101.313
-101.123
-100.96
-101.657
-101.414
-101.242
-101.108
-100.976
-101.68
-101.509
-101.358
-101.198
-101.072
-100.966
-101.7
-101.565
-101.436
-101.257
-101.143
-101.009
-100.925
-101.739
-101.613
-101.435
-101.271
-101.17
-101.059
-100.963
-100.903
-101.686
-101.565
-101.42
-101.322
-101.161
-101.052
-100.978
-100.931
-100.874
-101.609
-101.502
-101.386
-101.266
-101.149
-101.061
-100.983
-100.939
-100.899
-100.85
-101.508
-101.425
-101.326
-101.236
-101.141
-101.063
-100.993
-100.947
-100.899
-100.876
-100.838
-101.418
-101.343
-101.272
-101.195
-101.119
-101.052
-100.987
-100.944
-100.912
-100.872
-100.843
-100.822
-101.333
-101.28
-101.219
-101.16
-101.096
-101.039
-100.985
-100.944
-100.905
-100.869
-100.836
-100.82
-100.792
-101.251
-101.222
-101.174
-101.125
-101.076
-101.024
-100.977
-100.936
-100.903
-100.867
-100.836
-100.809
-100.79
-100.768
-101.176
-101.166
-101.132
-101.093
-101.052
-101.008
-100.967
-100.93
-100.896
-100.861
-100.831
-100.807
-100.774
-100.754
-100.731
-101.124
-101.119
-101.093
-101.063
-101.03
-100.992
-100.955
-100.92
-100.887
-100.855
-100.825
-100.797
-100.769
-100.741
-100.71
-100.675
-101.07
-101.071
-101.057
-101.034
-101.006
-100.974
-100.942
-100.91
-100.878
-100.847
-100.816
-100.788
-100.758
-100.726
-100.694
-100.655
-100.61
-101.021
-101.029
-101.024
-101.007
-100.985
-100.958
-100.928
-100.898
-100.868
-100.837
-100.807
-100.777
-100.745
-100.712
-100.675
-100.634
-100.587
-100.532
-100.981
-100.993
-100.996
-100.983
-100.965
-100.942
-100.915
-100.887
-100.857
-100.827
-100.796
-100.765
-100.732
-100.696
-100.658
-100.614
-100.564
-100.506
-100.439
-100.943
-100.966
-100.97
-100.961
-100.947
-100.927
-100.902
-100.875
-100.847
-100.816
-100.785
-100.753
-100.719
-100.682
-100.641
-100.595
-100.542
-100.481
-100.411
-100.331
-100.914
-100.941
-100.946
-100.942
-100.931
-100.912
-100.889
-100.864
-100.836
-100.806
-100.774
-100.742
-100.706
-100.667
-100.624
-100.576
-100.521
-100.458
-100.386
-100.303
-100.209
-100.887
-100.915
-100.926
-100.925
-100.915
-100.899
-100.878
-100.853
-100.826
-100.796
-100.764
-100.73
-100.693
-100.653
-100.609
-100.559
-100.502
-100.437
-100.363
-100.278
-100.182
-100.076
-100.867
-100.898
-100.91
-100.91
-100.903
-100.888
-100.868
-100.843
-100.816
-100.786
-100.754
-100.719
-100.681
-100.64
-100.594
-100.542
-100.484
-100.417
-100.341
-100.255
-100.159
-100.051
-99.9328
-100.855
-100.882
-100.897
-100.899
-100.892
-100.878
-100.859
-100.834
-100.807
-100.777
-100.744
-100.709
-100.67
-100.628
-100.581
-100.528
-100.468
-100.4
-100.323
-100.236
-100.138
-100.029
-99.9112
-99.7843
-100.845
-100.873
-100.888
-100.89
-100.883
-100.87
-100.851
-100.827
-100.799
-100.768
-100.735
-100.699
-100.66
-100.616
-100.568
-100.514
-100.453
-100.384
-100.306
-100.218
-100.119
-100.01
-99.8915
-99.7645
-99.6314
-100.84
-100.866
-100.881
-100.884
-100.877
-100.863
-100.844
-100.819
-100.791
-100.76
-100.726
-100.689
-100.649
-100.605
-100.556
-100.501
-100.439
-100.37
-100.29
-100.202
-100.102
-99.993
-99.8742
-99.7471
-99.6138
-99.4563
-101.275
-101.042
-100.885
-101.412
-101.146
-100.969
-100.851
-101.579
-101.291
-101.104
-100.961
-100.88
-101.626
-101.378
-101.254
-101.087
-100.976
-100.89
-101.671
-101.475
-101.338
-101.226