/*--------------------------------*- C++ -*----------------------------------*\
  =========                 |
  \\      /  F ield         | OpenFOAM: The Open Source CFD Toolbox
   \\    /   O peration     | Website:  https://openfoam.org
    \\  /    A nd           | Version:  7
     \\/     M anipulation  |
\*---------------------------------------------------------------------------*/
FoamFile
{
    version     2.0;
    format      ascii;
    class       surfaceScalarField;
    location    "0.5";
    object      phi;
}
// * * * * * * * * * * * * * * * * * * * * * * * * * * * * * * * * * * * * * //

dimensions      [0 3 -1 0 0 0 0];

internalField   nonuniform List<scalar> 
54451
(
-5.0102e-07
7.76579e-06
9.29742e-05
-1.12345e-06
1.07266e-05
0.000284873
-4.91586e-07
8.49524e-06
9.33229e-05
-4.44697e-07
8.97047e-06
9.26776e-05
-1.47846e-06
1.27342e-05
0.000479727
-1.02483e-06
1.1955e-05
0.000285996
-1.35017e-07
1.12712e-05
0.000283297
-4.70909e-07
9.21205e-06
9.37096e-05
-4.24393e-07
9.6987e-06
9.30191e-05
-1.99824e-07
1.03753e-05
9.20267e-05
-1.99514e-06
1.21576e-05
0.000677089
-1.28836e-06
1.43066e-05
0.000481668
1.74558e-06
1.03056e-05
0.000476607
-9.23808e-07
1.31045e-05
0.000287132
-6.571e-08
1.24885e-05
0.00028442
8.34332e-07
1.28423e-05
0.000281059
-4.4702e-07
9.90814e-06
9.4116e-05
-3.99859e-07
1.04031e-05
9.3405e-05
-1.61977e-07
1.12031e-05
9.23533e-05
-9.945e-08
1.08986e-05
9.11565e-05
-2.26565e-07
7.44994e-06
0.000878192
-1.1324e-06
1.32047e-05
0.000680118
4.10197e-06
1.02653e-05
0.000673332
-1.18019e-06
1.58379e-05
0.000483601
1.9723e-06
1.14207e-05
0.000478515
3.69339e-06
1.07878e-05
0.000472612
-8.11314e-07
1.41588e-05
0.00028828
8.0317e-09
1.36575e-05
0.000285555
8.92429e-07
1.40279e-05
0.00028218
1.29675e-06
1.33084e-05
0.000278391
-4.19478e-07
1.05781e-05
9.44868e-05
-3.78254e-07
1.11001e-05
9.37972e-05
-1.25141e-07
1.19962e-05
9.2737e-05
-4.91186e-08
1.18308e-05
9.14702e-05
1.10048e-07
1.17556e-05
9.01644e-05
-5.01366e-06
2.48763e-05
0.0010857
1.70867e-06
8.02661e-06
0.000881371
7.0061e-06
1.14907e-05
0.000873054
-8.14684e-07
1.39675e-05
0.000683063
4.7871e-06
1.14123e-05
0.000676156
8.13114e-06
1.03682e-05
0.000667611
-9.39906e-07
1.72036e-05
0.000485528
2.10863e-06
1.24999e-05
0.000480421
3.83478e-06
1.18582e-05
0.000474502
4.74059e-06
1.19704e-05
0.000467885
-6.96614e-07
1.51264e-05
0.000289421
7.94904e-08
1.47912e-05
0.000286689
9.50796e-07
1.52194e-05
0.000283287
1.36408e-06
1.45619e-05
0.000279513
2.06163e-06
1.3964e-05
0.000275178
-3.69589e-07
1.11983e-05
9.48387e-05
-3.44029e-07
1.17645e-05
9.41664e-05
-9.75336e-08
1.27708e-05
9.31202e-05
-4.71685e-09
1.27187e-05
9.18538e-05
1.66254e-07
1.25878e-05
9.04718e-05
2.68569e-07
1.38169e-05
8.90572e-05
-4.53496e-06
1.48283e-05
0.00129996
1.01877e-05
2.16611e-05
0.00109078
3.8656e-06
2.10807e-05
0.00107844
2.70161e-06
8.15445e-06
0.000884762
9.71772e-06
1.15732e-05
0.000876358
1.34333e-05
9.95914e-06
0.000866061
-2.44939e-07
1.43527e-05
0.000686153
5.20458e-06
1.24135e-05
0.000678966
8.33759e-06
1.16794e-05
0.000670342
1.08919e-05
1.04401e-05
0.000660109
-5.19508e-07
1.82127e-05
0.000487475
2.30956e-06
1.3453e-05
0.000482345
3.89404e-06
1.29331e-05
0.000476403
4.82608e-06
1.32497e-05
0.000469761
6.06245e-06
1.37998e-05
0.000462555
-5.85601e-07
1.60152e-05
0.000290575
1.75746e-07
1.58651e-05
0.000287828
1.04642e-06
1.635e-05
0.000284414
1.42112e-06
1.58277e-05
0.000280596
2.15649e-06
1.51912e-05
0.000276295
2.67501e-06
1.57798e-05
0.000271517
-2.97611e-07
1.17512e-05
9.51793e-05
-3.01841e-07
1.2373e-05
9.4532e-05
-6.08873e-08
1.35101e-05
9.3488e-05
3.53141e-08
1.35663e-05
9.22374e-05
2.2049e-07
1.33813e-05
9.08398e-05
3.26813e-07
1.45881e-05
8.93738e-05
3.09575e-07
1.55792e-05
8.78273e-05
1.4671e-05
-1.5367e-05
0.00152228
1.53995e-05
1.67031e-05
0.00130418
1.06317e-05
5.10898e-06
0.00129036
1.22891e-05
1.83797e-05
0.00109531
1.82471e-05
2.00226e-05
0.0010833
1.76606e-05
1.45039e-05
0.00106882
2.46737e-06
9.25816e-06
0.00088811
9.93309e-06
1.17349e-05
0.000879872
1.48853e-05
1.0384e-05
0.000869385
1.93342e-05
1.04942e-05
0.000855902
-4.00356e-09
1.49118e-05
0.000689257
5.69523e-06
1.33907e-05
0.00068179
8.51942e-06
1.29442e-05
0.000673076
1.09189e-05
1.1927e-05
0.000662762
1.30754e-05
1.27387e-05
0.000652023
4.27586e-07
1.83136e-05
0.000489427
2.54409e-06
1.42865e-05
0.000484273
4.08134e-06
1.39157e-05
0.000478327
4.91024e-06
1.44946e-05
0.000471669
6.20451e-06
1.50928e-05
0.00046442
7.41258e-06
1.555e-05
0.00045652
-4.77908e-07
1.68568e-05
0.00029173
2.54465e-07
1.69109e-05
0.000288973
1.16799e-06
1.73993e-05
0.000285549
1.53864e-06
1.70282e-05
0.00028171
2.25147e-06
1.64e-05
0.000277356
2.78947e-06
1.69958e-05
0.000272617
2.9609e-06
1.74628e-05
0.000267543
-2.42651e-07
1.22449e-05
9.55558e-05
-2.61456e-07
1.29588e-05
9.4855e-05
-2.42113e-08
1.42037e-05
9.38626e-05
7.81149e-08
1.43832e-05
9.2593e-05
2.71742e-07
1.41299e-05
9.1217e-05
3.84376e-07
1.53221e-05
8.97214e-05
3.70126e-07
1.64317e-05
8.81513e-05
2.72879e-07
1.71751e-05
8.65138e-05
3.14225e-05
1.31573e-05
0.00173482
1.62003e-05
-8.58231e-06
0.00152646
3.71388e-05
-5.28422e-06
0.00150179
2.39221e-05
1.31018e-05
0.00130927
2.42957e-05
9.03816e-06
0.00129421
3.0629e-05
2.20387e-06
0.00127807
9.43369e-06
1.68854e-05
0.00109936
2.01523e-05
1.7262e-05
0.00108786
2.37914e-05
1.58397e-05
0.00107306
3.09433e-05
1.17727e-05
0.00105538
3.07275e-06
9.94441e-06
0.000891248
9.26418e-06
1.29176e-05
0.000883358
1.47111e-05
1.11734e-05
0.000872891
1.99092e-05
1.16485e-05
0.000859241
2.28548e-05
1.33915e-05
0.000844842
1.35912e-06
1.62801e-05
0.00069245
6.04347e-06
1.45588e-05
0.00068459
8.73369e-06
1.42897e-05
0.000675792
1.10708e-05
1.3386e-05
0.000665456
1.31727e-05
1.38705e-05
0.000654662
1.52187e-05
1.51431e-05
0.000643276
4.49557e-07
1.84365e-05
0.000491389
2.80197e-06
1.49847e-05
0.000486182
4.24516e-06
1.48692e-05
0.000480243
5.1124e-06
1.56736e-05
0.000473574
6.39018e-06
1.62653e-05
0.000466358
7.62593e-06
1.67696e-05
0.000458364
8.3989e-06
1.71369e-05
0.000449798
-3.74857e-07
1.76467e-05
0.000292895
3.16623e-07
1.7927e-05
0.000290136
1.22378e-06
1.84411e-05
0.000286683
1.67116e-06
1.8146e-05
0.000282839
2.37734e-06
1.75456e-05
0.000278459
2.92203e-06
1.81455e-05
0.000273669
3.0936e-06
1.87461e-05
0.00026861
2.9954e-06
1.92073e-05
0.000263432
-3.38425e-07
1.27414e-05
9.61866e-05
-2.13941e-07
1.35064e-05
9.52221e-05
4.50842e-09
1.4858e-05
9.41962e-05
1.19631e-07
1.51605e-05
9.29656e-05
3.18229e-07
1.48445e-05
9.15602e-05
4.43494e-07
1.60179e-05
9.00777e-05
4.31308e-07
1.72375e-05
8.84843e-05
3.3598e-07
1.81472e-05
8.68431e-05
1.84301e-07
1.92739e-05
8.51386e-05
5.00009e-05
5.46435e-06
0.00197956
3.10187e-05
1.19896e-05
0.00174257
5.23528e-05
1.49138e-05
0.00171717
2.23249e-05
1.53848e-06
0.00152987
3.74351e-05
8.57336e-08
0.00150796
5.22574e-05
3.31886e-06
0.00148208
1.75221e-05
1.19532e-05
0.00131445
2.52182e-05
1.43705e-05
0.00129888
3.47049e-05
4.29448e-06
0.0012812
4.8976e-05
6.4541e-06
0.00126101
1.03693e-05
1.6267e-05
0.00110451
1.75791e-05
1.5728e-05
0.00109258
2.48607e-05
1.61624e-05
0.00107738
3.15723e-05
1.37614e-05
0.00105941
3.73049e-05
1.22798e-05
0.00104055
3.5226e-06
1.19521e-05
0.000894525
1.012e-05
1.32099e-05
0.000886879
1.47221e-05
1.22042e-05
0.000876339
1.99095e-05
1.30233e-05
0.000862677
2.30872e-05
1.45043e-05
0.000848214
2.57056e-05
1.53359e-05
0.000833144
1.74286e-06
1.71709e-05
0.000695251
6.51897e-06
1.59077e-05
0.000687384
8.89516e-06
1.57173e-05
0.000678512
1.12351e-05
1.49319e-05
0.000668124
1.33944e-05
1.49962e-05
0.000657327
1.54545e-05
1.60825e-05
0.000645894
1.66801e-05
1.71346e-05
0.000633991
4.7898e-07
1.86144e-05
0.000493319
2.88863e-06
1.568e-05
0.000488122
4.32455e-06
1.58149e-05
0.000482135
5.29332e-06
1.68335e-05
0.00047546
6.59662e-06
1.73885e-05
0.000468232
7.85998e-06
1.78776e-05
0.000460312
8.64872e-06
1.83285e-05
0.000451617
8.84305e-06
1.87201e-05
0.000442728
-2.84429e-07
1.82439e-05
0.000294064
4.19894e-07
1.88955e-05
0.000291292
1.27065e-06
1.94327e-05
0.000287878
1.75124e-06
1.92366e-05
0.000283961
2.50146e-06
1.85989e-05
0.000279602
3.04896e-06
1.92394e-05
0.00027476
3.24705e-06
1.99387e-05
0.00026966
3.1444e-06
2.05503e-05
0.000264459
2.93598e-06
2.13666e-05
0.00025922
-2.69609e-07
1.31132e-05
9.6663e-05
-2.14881e-07
1.41243e-05
9.57835e-05
6.3891e-08
1.54324e-05
9.45838e-05
1.62383e-07
1.58659e-05
9.33284e-05
3.67753e-07
1.55145e-05
9.19279e-05
5.01299e-07
1.6657e-05
9.04198e-05
4.96247e-07
1.79966e-05
8.88224e-05
4.02122e-07
1.90555e-05
8.7174e-05
2.53494e-07
2.03699e-05
8.54936e-05
3.64135e-08
2.14311e-05
8.37585e-05
6.35529e-05
1.83126e-05
0.00222388
4.64554e-05
9.79327e-06
0.00198843
7.82192e-05
6.07206e-06
0.00195358
3.25858e-05
1.27424e-05
0.00175225
5.4242e-05
1.63726e-05
0.00172431
6.87134e-05
1.40421e-05
0.00169754
1.57529e-05
9.39658e-06
0.00153321
3.31188e-05
9.14221e-06
0.00151292
5.19649e-05
5.00245e-06
0.00148901
6.63503e-05
1.16098e-05
0.00146365
1.53996e-05
1.29014e-05
0.00131963
2.80684e-05
1.4051e-05
0.00130428
3.23005e-05
9.99714e-06
0.00128573
4.76874e-05
7.4178e-06
0.00126412
5.60418e-05
1.16118e-05
0.00124158
1.0664e-05
1.618e-05
0.00110906
1.85134e-05
1.47739e-05
0.00109707
2.45406e-05
1.60375e-05
0.00108289
3.19927e-05
1.54089e-05
0.00106365
3.65132e-05
1.3592e-05
0.00104467
4.08126e-05
1.29874e-05
0.00102512
5.90617e-06
1.25337e-05
0.000897987
1.09189e-05
1.28763e-05
0.000890459
1.50515e-05
1.30769e-05
0.00087985
2.03019e-05
1.42206e-05
0.000866075
2.32979e-05
1.56136e-05
0.000851664
2.59545e-05
1.65493e-05
0.0008365
2.77157e-05
1.70751e-05
0.0008208
2.0266e-06
1.77126e-05
0.000698016
6.82366e-06
1.70442e-05
0.000690179
9.11355e-06
1.70611e-05
0.000681251
1.14538e-05
1.64811e-05
0.000670802
1.35966e-05
1.61632e-05
0.000659957
1.56966e-05
1.70524e-05
0.00064852
1.70177e-05
1.80806e-05
0.000636579
1.75725e-05
1.87656e-05
0.000624088
5.24712e-07
1.88328e-05
0.000495277
3.00481e-06
1.63592e-05
0.000490055
4.39368e-06
1.6739e-05
0.000484074
5.38171e-06
1.79999e-05
0.000477338
6.81832e-06
1.84574e-05
0.000470075
8.05714e-06
1.89509e-05
0.00046215
8.89299e-06
1.94559e-05
0.000453539
9.0881e-06
1.98713e-05
0.000444522
8.93893e-06
2.05798e-05
0.000435493
-1.84209e-07
1.87723e-05
0.000295254
5.44573e-07
1.97666e-05
0.000292433
1.39261e-06
2.03602e-05
0.000289036
1.83647e-06
2.02855e-05
0.000285155
2.63057e-06
1.95807e-05
0.000280716
3.17572e-06
2.02455e-05
0.000275922
3.38561e-06
2.10646e-05
0.000270745
3.30844e-06
2.17985e-05
0.000265506
3.09513e-06
2.27884e-05
0.000260195
2.68161e-06
2.36818e-05
0.000255041
-1.72996e-07
1.333e-05
9.71023e-05
-1.81321e-07
1.46744e-05
9.62943e-05
1.28661e-07
1.59845e-05
9.51028e-05
2.21739e-07
1.64853e-05
9.37427e-05
4.24843e-07
1.60906e-05
9.23274e-05
5.62604e-07
1.7235e-05
9.07872e-05
5.63572e-07
1.86879e-05
8.9165e-05
4.7369e-07
1.9897e-05
8.75071e-05
3.27561e-07
2.13849e-05
8.58314e-05
1.18491e-07
2.266e-05
8.41462e-05
-7.13538e-08
2.36674e-05
8.23876e-05
0.000100277
1.58855e-06
0.00247108
6.24392e-05
2.40512e-05
0.00223232
0.00011233
1.09351e-05
0.00218563
4.81628e-05
1.43678e-05
0.00199303
7.81848e-05
8.35671e-06
0.00196221
9.64525e-05
8.43711e-06
0.00192468
2.99088e-05
1.19778e-05
0.00175848
5.57554e-05
1.19313e-05
0.00173406
6.97537e-05
1.54298e-05
0.00170513
8.6432e-05
1.35569e-05
0.00167588
1.24719e-05
1.83963e-05
0.00153909
3.92384e-05
1.26373e-05
0.00151854
4.6004e-05
8.87209e-06
0.00149534
6.59588e-05
1.16386e-05
0.00147071
7.51674e-05
1.51391e-05
0.00144289
1.63247e-05
1.26366e-05
0.0013246
2.93221e-05
1.33189e-05
0.00130955
3.59601e-05
1.18143e-05
0.00129104
4.61086e-05
1.01255e-05
0.00126891
5.44088e-05
1.25052e-05
0.00124533
5.9166e-05
1.4748e-05
0.00122137
1.50458e-05
1.53907e-05
0.00111381
1.86917e-05
1.4668e-05
0.0011014
2.48005e-05
1.62288e-05
0.00108713
3.30333e-05
1.6427e-05
0.00106914
3.65599e-05
1.51036e-05
0.00104888
4.02667e-05
1.40721e-05
0.00102928
4.30793e-05
1.53203e-05
0.0010091
6.21528e-06
1.33104e-05
0.000901511
1.09465e-05
1.27151e-05
0.000894025
1.55728e-05
1.37062e-05
0.000883371
2.05383e-05
1.54446e-05
0.000869541
2.36511e-05
1.65286e-05
0.000855106
2.6362e-05
1.76254e-05
0.000839923
2.81449e-05
1.83308e-05
0.000824117
2.94017e-05
1.85111e-05
0.000807739
2.25117e-06
1.79714e-05
0.000700751
7.08754e-06
1.80501e-05
0.000692927
9.34039e-06
1.82607e-05
0.000684033
1.17337e-05
1.78554e-05
0.000673525
1.39019e-05
1.72783e-05
0.000662604
1.59197e-05
1.80275e-05
0.000651119
1.72732e-05
1.9056e-05
0.000639165
1.78859e-05
1.99054e-05
0.000626642
1.78848e-05
2.04674e-05
0.000613867
6.04192e-07
1.90483e-05
0.000497227
3.12531e-06
1.70302e-05
0.000492025
4.56759e-06
1.75917e-05
0.000486027
5.50696e-06
1.90996e-05
0.000479304
7.00324e-06
1.94646e-05
0.000471958
8.279e-06
1.99599e-05
0.000463962
9.10349e-06
2.05449e-05
0.000455344
9.33295e-06
2.10168e-05
0.000446369
9.18143e-06
2.17574e-05
0.000437258
8.45518e-06
2.27146e-05
0.000428347
-9.03062e-08
1.92897e-05
0.000296434
6.42401e-07
2.0557e-05
0.00029364
1.56013e-06
2.12273e-05
0.000290134
1.97125e-06
2.12645e-05
0.000286308
2.77797e-06
2.0546e-05
0.000281837
3.34157e-06
2.116e-05
0.000277023
3.52676e-06
2.21298e-05
0.000271893
3.46046e-06
2.29597e-05
0.000266597
3.27226e-06
2.41108e-05
0.000261239
2.85365e-06
2.51736e-05
0.000255968
2.47201e-06
2.62266e-05
0.000250822
-1.10993e-07
1.34743e-05
9.7511e-05
-1.34141e-07
1.51164e-05
9.67944e-05
1.75677e-07
1.64804e-05
9.56228e-05
3.00643e-07
1.70438e-05
9.42436e-05
4.89253e-07
1.65767e-05
9.27674e-05
6.33455e-07
1.77289e-05
9.12001e-05
6.36225e-07
1.92982e-05
8.95407e-05
5.49184e-07
2.06648e-05
8.7848e-05
4.05916e-07
2.23291e-05
8.6157e-05
1.98291e-07
2.38011e-05
8.44921e-05
4.45239e-09
2.50558e-05
8.27533e-05
-1.62992e-07
2.61804e-05
8.0998e-05
0.000149868
1.19075e-06
0.00274196
0.000100155
3.04559e-06
0.00248091
0.000160751
-1.63208e-06
0.00242572
7.66809e-05
2.01264e-05
0.00223894
0.000114547
1.25564e-05
0.00219434
0.000133856
1.08145e-05
0.00214672
5.02644e-05
1.19463e-05
0.0020039
7.6682e-05
1.23732e-05
0.00196808
9.79507e-05
9.40065e-06
0.00193304
0.000121018
9.7825e-06
0.00189023
2.87334e-05
9.09293e-06
0.00176491
5.98699e-05
1.04498e-05
0.00173933
7.03604e-05
1.14502e-05
0.00171368
8.70754e-05
1.42448e-05
0.00168333
0.000102916
1.25961e-05
0.00164809
1.36366e-05
2.65122e-05
0.00154478
3.81042e-05
1.79736e-05
0.00152497
5.18375e-05
1.13141e-05
0.00150022
6.35301e-05
1.12883e-05
0.00147827
7.54966e-05
1.51149e-05
0.00144965
7.98277e-05
1.4749e-05
0.00142071
1.76621e-05
1.52908e-05
0.00133
2.91133e-05
1.27587e-05
0.00131474
3.83591e-05
1.14556e-05
0.00129635
4.76909e-05
1.21099e-05
0.0012744
5.52049e-05
1.25834e-05
0.00125019
5.88008e-05
1.57667e-05
0.00122578
6.15226e-05
1.77708e-05
0.00120111
1.46521e-05
1.53821e-05
0.00111808
1.9467e-05
1.42375e-05
0.00110572
2.49926e-05
1.67722e-05
0.00109143
3.33359e-05
1.7448e-05
0.00107331
3.76055e-05
1.63993e-05
0.00105389
4.03544e-05
1.54968e-05
0.00103346
4.32205e-05
1.63061e-05
0.00101321
4.46816e-05
1.73678e-05
0.000992744
5.35524e-06
1.51029e-05
0.000905091
1.0822e-05
1.29415e-05
0.00089755
1.56101e-05
1.45423e-05
0.000886919
2.08694e-05
1.665e-05
0.00087303
2.39411e-05
1.74712e-05
0.00085856
2.67556e-05
1.85184e-05
0.000843377
2.86701e-05
1.93395e-05
0.000827517
2.98015e-05
1.9679e-05
0.000811034
3.00052e-05
2.0062e-05
0.00079437
2.39748e-06
1.81005e-05
0.000703506
7.32099e-06
1.89449e-05
0.00069566
9.57447e-06
1.94322e-05
0.000686749
1.19979e-05
1.90915e-05
0.000676306
1.42254e-05
1.82739e-05
0.000665307
1.62405e-05
1.89347e-05
0.000653735
1.76325e-05
1.99293e-05
0.000641717
1.81959e-05
2.09894e-05
0.000629218
1.8182e-05
2.17359e-05
0.000616373
1.72207e-05
2.27887e-05
0.000603732
7.25422e-07
1.92414e-05
0.000499172
3.23262e-06
1.7698e-05
0.000493969
4.78304e-06
1.84052e-05
0.000487989
5.70793e-06
2.01335e-05
0.000481257
7.22586e-06
2.03465e-05
0.000473974
8.55292e-06
2.08681e-05
0.000465839
9.31984e-06
2.15779e-05
0.000457136
9.5694e-06
2.21023e-05
0.000448149
9.43646e-06
2.29851e-05
0.000438977
8.72836e-06
2.40115e-05
0.000430087
8.08068e-06
2.49836e-05
0.000421204
-2.25084e-08
1.98266e-05
0.000297574
7.1958e-07
2.13211e-05
0.000294816
1.6671e-06
2.20126e-05
0.000291363
2.15055e-06
2.21734e-05
0.000287376
2.91931e-06
2.14511e-05
0.000282973
3.53021e-06
2.20443e-05
0.000278056
3.7118e-06
2.31013e-05
0.000272976
3.62014e-06
2.4085e-05
0.000267697
3.4429e-06
2.53461e-05
0.000262324
3.03993e-06
2.65759e-05
0.000256995
2.65501e-06
2.78152e-05
0.000251729
2.33652e-06
2.9099e-05
0.000246475
-6.492e-08
1.36267e-05
9.79111e-05
-6.77947e-08
1.54852e-05
9.721e-05
2.18016e-07
1.691e-05
9.61467e-05
3.61344e-07
1.75381e-05
9.47672e-05
5.64635e-07
1.69967e-05
9.32589e-05
7.05907e-07
1.8142e-05
9.16484e-05
7.18126e-07
1.983e-05
8.99502e-05
6.30169e-07
2.13561e-05
8.82192e-05
4.89281e-07
2.31915e-05
8.64963e-05
2.83494e-07
2.48624e-05
8.48122e-05
9.64919e-08
2.63459e-05
8.31055e-05
-7.14788e-08
2.76824e-05
8.13228e-05
-2.73219e-07
2.90156e-05
7.95638e-05
0.000203871
2.13862e-05
0.00301639
0.00014107
6.88585e-07
0.00274699
0.000227829
-7.65717e-08
0.0026836
0.000123259
-7.54705e-06
0.0024932
0.000160639
-1.94459e-06
0.00243513
0.000179593
-1.09698e-06
0.00238246
6.77577e-05
2.57876e-05
0.00224802
0.000119194
1.05048e-05
0.00219848
0.000136452
1.11009e-05
0.00215555
0.000160035
1.16242e-05
0.00210875
4.52167e-05
1.22032e-05
0.0020122
8.12169e-05
1.58994e-05
0.00197903
9.60661e-05
1.21416e-05
0.00193964
0.000121373
1.05305e-05
0.001898
0.000138015
1.16711e-05
0.00185521
2.99909e-05
6.75486e-06
0.00177174
5.85477e-05
8.68641e-06
0.00174623
7.36422e-05
9.5713e-06
0.0017194
8.77758e-05
1.28643e-05
0.00169082
0.00010363
1.25896e-05
0.0016552
0.000109985
1.11589e-05
0.00161862
2.64726e-05
2.65187e-05
0.0015518
3.99145e-05
2.06212e-05
0.00153133
5.36831e-05
1.45141e-05
0.00150645
6.45115e-05
1.26646e-05
0.00148203
7.70423e-05
1.39738e-05
0.00145757
8.08335e-05
1.54009e-05
0.00142696
8.42637e-05
1.68939e-05
0.00139664
1.95577e-05
1.54454e-05
0.0013351
2.91973e-05
1.31725e-05
0.00131985
3.85078e-05
1.12472e-05
0.00130143
4.94961e-05
1.25852e-05
0.00127972
5.51702e-05
1.37129e-05
0.00125571
6.08428e-05
1.49274e-05
0.00123054
6.20638e-05
1.88789e-05
0.00120583
6.29867e-05
1.83553e-05
0.001181
1.34939e-05
1.53669e-05
0.00112228
1.84875e-05
1.4608e-05
0.00111004
2.5215e-05
1.7141e-05
0.00109575
3.36871e-05
1.84772e-05
0.00107759
3.80494e-05
1.75196e-05
0.00105808
4.11948e-05
1.69507e-05
0.001038
4.35433e-05
1.752e-05
0.00101737
4.50857e-05
1.84258e-05
0.000996872
4.50621e-05
1.92298e-05
0.000976494
5.6797e-06
1.65654e-05
0.000908771
1.08092e-05
1.34635e-05
0.000901081
1.55972e-05
1.56363e-05
0.000890433
2.1012e-05
1.79915e-05
0.000876564
2.42454e-05
1.84688e-05
0.000862012
2.70613e-05
1.94452e-05
0.000846812
2.91311e-05
2.02754e-05
0.000830942
3.03157e-05
2.06784e-05
0.000814398
3.04011e-05
2.12728e-05
0.000797604
2.90032e-05
2.20815e-05
0.000781226
2.60618e-06
1.80936e-05
0.000706246
7.44303e-06
1.98211e-05
0.000698419
9.83718e-06
2.05907e-05
0.000689447
1.22541e-05
2.02942e-05
0.000679
1.45226e-05
1.92073e-05
0.000668076
1.65731e-05
1.98063e-05
0.000656416
1.79497e-05
2.07681e-05
0.000644266
1.86099e-05
2.19232e-05
0.000631742
1.85455e-05
2.29103e-05
0.000618934
1.76117e-05
2.40867e-05
0.000606191
1.6711e-05
2.49404e-05
0.00059358
8.63114e-07
1.93676e-05
0.000501156
3.36125e-06
1.83093e-05
0.000495919
4.93305e-06
1.91971e-05
0.000489911
5.95425e-06
2.11448e-05
0.000483174
7.44494e-06
2.11749e-05
0.000475903
8.8467e-06
2.16666e-05
0.000467859
9.63462e-06
2.24863e-05
0.000459008
9.79738e-06
2.3126e-05
0.000449935
9.70417e-06
2.41426e-05
0.00044073
9.0001e-06
2.53332e-05
0.000431695
8.3816e-06
2.64196e-05
0.000422924
7.95062e-06
2.7647e-05
0.000413933
6.55788e-08
2.03204e-05
0.000298733
8.43621e-07
2.20582e-05
0.000295925
1.74577e-06
2.27524e-05
0.000292548
2.29101e-06
2.30071e-05
0.0002886
3.07205e-06
2.22387e-05
0.000284081
3.6877e-06
2.2865e-05
0.00027917
3.91749e-06
2.39917e-05
0.000273966
3.81479e-06
2.5107e-05
0.000268769
3.62111e-06
2.65449e-05
0.000263366
3.23022e-06
2.78989e-05
0.000258055
2.85694e-06
2.93073e-05
0.000252742
2.53381e-06
3.08226e-05
0.0002474
2.20611e-06
3.21338e-05
0.000242014
-1.79014e-08
1.37229e-05
9.83005e-05
-8.44318e-09
1.58212e-05
9.75836e-05
2.88695e-07
1.72443e-05
9.6587e-05
4.15597e-07
1.79538e-05
9.53154e-05
6.34687e-07
1.73494e-05
9.37798e-05
7.82951e-07
1.84863e-05
9.21316e-05
8.00651e-07
2.02968e-05
9.03809e-05
7.18883e-07
2.1979e-05
8.86084e-05
5.79211e-07
2.3975e-05
8.68565e-05
3.78419e-07
2.58316e-05
8.51487e-05
1.92391e-07
2.75096e-05
8.34561e-05
1.24954e-08
2.91105e-05
8.16649e-05
-1.69633e-07
3.06349e-05
7.98731e-05
-3.86836e-07
3.19637e-05
7.80627e-05
0.000288437
7.26856e-05
0.00329348
0.000211457
3.76199e-06
0.00302285
0.000294284
1.62246e-05
0.00295177
0.000157895
8.65899e-06
0.0027496
0.000216552
-1.36375e-06
0.00269236
0.000248941
4.75631e-06
0.00261963
0.000100929
-5.61441e-06
0.00249948
0.000171675
-7.57763e-06
0.00244636
0.000179396
-2.18623e-06
0.00239327
0.000210396
5.22983e-06
0.00233527
7.11303e-05
2.33639e-05
0.00225484
0.000116653
1.3597e-05
0.00220949
0.00013751
8.34322e-06
0.00215979
0.000161187
9.93751e-06
0.00211742
0.000176012
1.1097e-05
0.0020709
4.67853e-05
1.156e-05
0.00202035
8.05209e-05
1.83749e-05
0.00198775
0.000101184
1.49298e-05
0.0019487
0.000120699
1.27077e-05
0.00190454
0.000138633
1.22207e-05
0.00186245
0.000143579
1.1645e-05
0.00182097
3.74104e-05
8.74351e-06
0.0017876
6.10017e-05
7.3614e-06
0.00175198
7.33751e-05
1.01613e-05
0.00172595
8.76653e-05
1.21637e-05
0.00169695
0.000104429
1.38276e-05
0.00166219
0.000110452
1.13458e-05
0.00162539
0.000112876
1.48311e-05
0.00159022
2.53874e-05
2.85234e-05
0.00155637
4.74817e-05
1.76004e-05
0.00153653
5.53876e-05
1.6148e-05
0.00151281
6.60183e-05
1.45492e-05
0.00148804
7.46533e-05
1.50221e-05
0.00146149
8.40479e-05
1.53726e-05
0.0014344
8.5565e-05
1.7791e-05
0.00140256
8.61985e-05
1.72008e-05
0.00137227
1.61801e-05
1.78732e-05
0.00134075
2.71607e-05
1.47257e-05
0.00132488
3.73036e-05
1.26549e-05
0.00130636
5.01098e-05
1.26696e-05
0.00128493
5.60208e-05
1.45257e-05
0.00126093
6.02764e-05
1.56283e-05
0.00123592
6.41147e-05
1.83448e-05
0.0012105
6.37908e-05
1.97128e-05
0.00118577
6.34766e-05
1.93136e-05
0.00116117
1.29146e-05
1.62389e-05
0.00112661
1.82907e-05
1.49991e-05
0.00111441
2.47477e-05
1.7975e-05
0.00110006
3.38764e-05
1.94419e-05
0.00108192
3.84736e-05
1.85411e-05
0.00106234
4.16784e-05
1.82301e-05
0.00104218
4.41538e-05
1.8879e-05
0.00102161
4.55471e-05
1.95709e-05
0.001001
4.55525e-05
2.0366e-05
0.000980585
4.38894e-05
2.1903e-05
0.000960488
6.1246e-06
1.75997e-05
0.000912421
1.07235e-05
1.41945e-05
0.00090476
1.58071e-05
1.68646e-05
0.000893883
2.11172e-05
1.94921e-05
0.000880069
2.44991e-05
1.95291e-05
0.000865527
2.74116e-05
2.03944e-05
0.000850224
2.95521e-05
2.11478e-05
0.000834337
3.0814e-05
2.16372e-05
0.000817779
3.09463e-05
2.23557e-05
0.000800914
2.95028e-05
2.33923e-05
0.000784402
2.82804e-05
2.40567e-05
0.0007682
2.77004e-06
1.80283e-05
0.000708972
7.62504e-06
2.06153e-05
0.000701188
1.00672e-05
2.16761e-05
0.0006922
1.25482e-05
2.14798e-05
0.000681668
1.47787e-05
2.01061e-05
0.000670767
1.69553e-05
2.06133e-05
0.00065916
1.82938e-05
2.1626e-05
0.000646899
1.89354e-05
2.2821e-05
0.00063423
1.89776e-05
2.39596e-05
0.000621419
1.79838e-05
2.53038e-05
0.000608733
1.71664e-05
2.63612e-05
0.000595986
1.65402e-05
2.73774e-05
0.000583346
1.04859e-06
1.93789e-05
0.000503133
3.50181e-06
1.88516e-05
0.000497955
5.0818e-06
1.99008e-05
0.00049188
6.16342e-06
2.20893e-05
0.000485094
7.67765e-06
2.20084e-05
0.000477734
9.09625e-06
2.24014e-05
0.00046976
9.94527e-06
2.33531e-05
0.000460965
1.01144e-05
2.40224e-05
0.000451812
9.96385e-06
2.52085e-05
0.000442527
9.29496e-06
2.65756e-05
0.000433423
8.67427e-06
2.78455e-05
0.000424452
8.27738e-06
2.91943e-05
0.000415633
7.89956e-06
3.04551e-05
0.000406442
1.68435e-07
2.06954e-05
0.000299947
9.57138e-07
2.27337e-05
0.000297091
1.93176e-06
2.34438e-05
0.000293591
2.41181e-06
2.37711e-05
0.000289788
3.24367e-06
2.29585e-05
0.000285271
3.83345e-06
2.35802e-05
0.000280315
4.09351e-06
2.4807e-05
0.000275062
4.02281e-06
2.5986e-05
0.000269783
3.82332e-06
2.76326e-05
0.000264437
3.43279e-06
2.9143e-05
0.000259068
3.0667e-06
3.07096e-05
0.000253778
2.75928e-06
3.24325e-05
0.000248385
2.42253e-06
3.39753e-05
0.000242966
2.10422e-06
3.52792e-05
0.000237349
1.12496e-08
1.3759e-05
9.86559e-05
5.20749e-08
1.61102e-05
9.79595e-05
3.63534e-07
1.75027e-05
9.69616e-05
4.80921e-07
1.82889e-05
9.5771e-05
6.99889e-07
1.76496e-05
9.43153e-05
8.64048e-07
1.87891e-05
9.2613e-05
8.85625e-07
2.07075e-05
9.08354e-05
8.0987e-07
2.25361e-05
8.9014e-05
6.7399e-07
2.46939e-05
8.72155e-05
4.78208e-07
2.67144e-05
8.54955e-05
2.97786e-07
2.85698e-05
8.37907e-05
1.27705e-07
3.04114e-05
8.20275e-05
-7.04523e-08
3.2172e-05
8.01983e-05
-2.70883e-07
3.37416e-05
7.8366e-05
-4.9172e-07
3.50375e-05
7.6485e-05
0.000345313
0.000242738
0.00357148
0.000299426
5.67154e-05
0.00331436
0.000364476
4.04263e-05
0.00321748
0.000210889
1.03789e-05
0.00303959
0.000297688
5.38409e-07
0.0029574
0.000335
7.31694e-06
0.00286891
0.000146615
8.83911e-06
0.00275545
0.000212727
9.03314e-06
0.00269815
0.000239867
3.46964e-06
0.00263318
0.00027904
1.19115e-05
0.00255444
0.000110421
-1.43689e-05
0.002512
0.000160583
-7.93776e-06
0.00245591
0.000183356
-4.59838e-06
0.00240292
0.00020948
4.77582e-06
0.00234544
0.000223625
1.17846e-05
0.00228726
8.13771e-05
1.57724e-05
0.00226511
0.000120882
1.19669e-05
0.00221611
0.000139074
8.506e-06
0.00217144
0.000161271
7.21992e-06
0.00212194
0.000177361
1.04061e-05
0.00207939
0.000182054
1.06614e-05
0.0020329
7.7496e-05
-1.31948e-05
0.00202836
8.2078e-05
2.23984e-05
0.00199525
0.000102019
1.72898e-05
0.00195675
0.000123308
1.40653e-05
0.0019117
0.00013787
1.43093e-05
0.00186901
0.000144147
1.23537e-05
0.00182804
0.000145411
1.5801e-05
0.00178795
3.74313e-05
8.78666e-06
0.00179134
6.67849e-05
9.2912e-06
0.00176636
7.46296e-05
1.08921e-05
0.001732
8.76604e-05
1.30229e-05
0.00170344
0.00010296
1.39456e-05
0.00166853
0.000111402
1.39172e-05
0.00163227
0.000113829
1.51784e-05
0.00159678
0.000113919
1.58843e-05
0.00156208
2.48539e-05
2.93375e-05
0.00156238
4.32165e-05
1.62283e-05
0.00154169
5.72948e-05
1.51609e-05
0.00151753
6.67785e-05
1.63977e-05
0.0014943
7.51277e-05
1.66583e-05
0.0014673
8.14502e-05
1.66228e-05
0.00143907
8.87158e-05
1.82797e-05
0.00140931
8.73301e-05
1.81878e-05
0.00137804
8.65749e-05
1.84891e-05
0.00134798
1.47539e-05
2.11862e-05
0.00134568
2.52598e-05
1.77804e-05
0.00133072
3.41818e-05
1.6703e-05
0.00131139
4.89931e-05
1.40222e-05
0.00128989
5.67413e-05
1.50133e-05
0.00126617
6.04905e-05
1.67489e-05
0.001241
6.40834e-05
1.86807e-05
0.00121566
6.53668e-05
1.99927e-05
0.0011904
6.42557e-05
2.0496e-05
0.00116588
6.20147e-05
2.17236e-05
0.00114179
1.57388e-05
1.4581e-05
0.00113104
1.70811e-05
1.63402e-05
0.00111891
2.54163e-05
1.84469e-05
0.00110433
3.3854e-05
2.05235e-05
0.00108624
3.87809e-05
1.95256e-05
0.00106665
4.22172e-05
1.93807e-05
0.00104638
4.47126e-05
2.01181e-05
0.00102578
4.60694e-05
2.08187e-05
0.00100511
4.61058e-05
2.15612e-05
0.000984643
4.44245e-05
2.30549e-05
0.000964511
4.27528e-05
2.37206e-05
0.000944738
6.28241e-06
1.83842e-05
0.000916042
1.08885e-05
1.49077e-05
0.000908445
1.5947e-05
1.82557e-05
0.000897489
2.14039e-05
2.1021e-05
0.000883498
2.47602e-05
2.0588e-05
0.000869029
2.78396e-05
2.13463e-05
0.000853691
2.99566e-05
2.20014e-05
0.000837708
3.12731e-05
2.25111e-05
0.000821126
3.14696e-05
2.34012e-05
0.000804242
3.00759e-05
2.45599e-05
0.000787655
2.8797e-05
2.55008e-05
0.000771327
2.81903e-05
2.69236e-05
0.000755089
2.83127e-06
1.80781e-05
0.00071166
7.69208e-06
2.14486e-05
0.000703948
1.03503e-05
2.26256e-05
0.00069497
1.28377e-05
2.25916e-05
0.000684414
1.5087e-05
2.09277e-05
0.000673437
1.72986e-05
2.13352e-05
0.000661843
1.86526e-05
2.24738e-05
0.000649605
1.93193e-05
2.36915e-05
0.000636823
1.93341e-05
2.49603e-05
0.000623859
1.83908e-05
2.64255e-05
0.000611202
1.75506e-05
2.77079e-05
0.00059851
1.70254e-05
2.89245e-05
0.000585691
1.66749e-05
3.0231e-05
0.000572863
1.23155e-06
1.9298e-05
0.000505107
3.69843e-06
1.93009e-05
0.000499942
5.32504e-06
2.05196e-05
0.000493943
6.35768e-06
2.29302e-05
0.000487093
7.91884e-06
2.27618e-05
0.000479665
9.34576e-06
2.30907e-05
0.000471533
1.02217e-05
2.41738e-05
0.000462811
1.0419e-05
2.49043e-05
0.000453687
1.0279e-05
2.61647e-05
0.0004444
9.59749e-06
2.77111e-05
0.000435227
8.98558e-06
2.92005e-05
0.000426149
8.59659e-06
3.07159e-05
0.000417093
8.25353e-06
3.21359e-05
0.000408122
7.93258e-06
3.33349e-05
0.000398659
2.706e-07
2.09826e-05
0.000301133
1.06716e-06
2.32789e-05
0.000298387
2.08233e-06
2.4061e-05
0.000294755
2.59859e-06
2.44547e-05
0.000290789
3.41388e-06
2.35861e-05
0.000286447
4.02948e-06
2.42355e-05
0.00028145
4.25577e-06
2.55451e-05
0.000276207
4.21991e-06
2.67658e-05
0.000270872
4.03563e-06
2.85457e-05
0.000265508
3.64735e-06
3.02613e-05
0.00026015
3.2899e-06
3.20097e-05
0.000254776
2.99239e-06
3.39487e-05
0.000249397
2.66537e-06
3.57301e-05
0.000243895
2.34278e-06
3.73453e-05
0.000238286
2.04778e-06
3.86432e-05
0.000232436
9.09022e-08
1.39009e-05
9.89738e-05
1.07061e-07
1.63779e-05
9.82811e-05
4.3825e-07
1.77196e-05
9.73044e-05
5.56369e-07
1.85629e-05
9.61312e-05
7.61858e-07
1.79201e-05
9.47387e-05
9.42258e-07
1.90972e-05
9.30649e-05
9.73988e-07
2.11008e-05
9.12458e-05
9.01256e-07
2.3034e-05
8.94362e-05
7.71543e-07
2.53415e-05
8.75948e-05
5.81266e-07
2.75171e-05
8.58315e-05
4.06053e-07
2.95711e-05
8.40881e-05
2.43082e-07
3.15991e-05
8.23599e-05
3.14417e-08
3.36431e-05
8.0525e-05
-1.57571e-07
3.5422e-05
7.86754e-05
-3.62399e-07
3.69889e-05
7.6777e-05
-5.54459e-07
3.82416e-05
7.47727e-05
0.000418942
0.000721763
0.00382524
0.000379157
0.000251421
0.00357577
0.000456042
0.000188024
0.00346386
0.000283173
5.87089e-05
0.00332492
0.000376118
4.61799e-05
0.00323017
0.000446113
1.26668e-05
0.00311779
0.000185545
2.25587e-05
0.00305347
0.000283126
-1.41322e-06
0.00297114
0.000321894
2.50179e-06
0.00288019
0.000361952
1.39019e-05
0.0027844
0.000145669
1.81453e-05
0.00276487
0.000210651
1.03717e-05
0.00270404
0.000234197