# Probe 0 (0 0 0)
# Probe 1 (1 0 0)
# Probe 2 (-1 0 0)
# Probe 3 (0 1 0)
#       Probe             0             1             2             3
#        Time
      2.50044      -76.9181      -69.3827      -69.7253      -69.6865
      2.50088      -66.8385       -56.799      -57.0213      -57.0344
      2.50132      -66.8129      -57.0658      -57.2928      -57.2946
      2.50176      -67.7168      -58.2032      -58.4441      -58.4426
       2.5022      -66.4281      -57.0706      -57.3066      -57.3065
      2.50264      -66.8015      -57.4636      -57.6954      -57.6991
      2.50308      -67.3774      -57.7386      -57.9719      -57.9768
      2.50352      -67.4589      -57.8981      -58.1399      -58.1479
      2.50396      -67.3171       -58.093      -58.3353      -58.3341
      2.50441      -66.8019      -57.2822      -57.5249      -57.5271
      2.50485      -67.0373      -57.4828      -57.7281      -57.7211
       2.5053      -67.0115      -57.6398      -57.8929      -57.8771
      2.50574      -66.8315      -57.6529      -57.9066       -57.897
      2.50619      -66.8581      -57.5844      -57.8383       -57.823
      2.50663      -66.8577      -57.5035      -57.7675      -57.7505
      2.50708       -66.987       -57.444      -57.7104      -57.6905
      2.50753      -67.0465      -57.5955      -57.8546      -57.8477
      2.50798      -67.6022      -58.0189      -58.2769      -58.2469
      2.50843      -67.2743      -58.0305      -58.2869      -58.2594
      2.50888      -67.1976      -57.8997      -58.1621       -58.131
      2.50933      -67.3747      -58.1606      -58.4284      -58.4016
      2.50978      -67.0826      -57.7454      -58.0067      -57.9716
      2.51023      -67.3758      -58.0958      -58.3539      -58.3259
      2.51068      -67.2637      -57.9475      -58.1989      -58.1616
      2.51113      -67.1538      -57.9548      -58.2129      -58.1929
      2.51158      -66.9906      -57.9995      -58.2496      -58.2177
      2.51203      -66.9873      -57.8596      -58.1086      -58.0856
      2.51248      -66.9964      -57.8288      -58.0861      -58.0513
      2.51294       -67.055      -57.9905      -58.2425      -58.2137
      2.51339      -66.6829      -57.4127      -57.6542      -57.6327
      2.51384      -66.4202      -57.0045      -57.2441      -57.2321
      2.51428      -66.3807      -57.1581       -57.406      -57.4111
      2.51473      -66.4138      -57.2526      -57.4884      -57.4797
      2.51518      -66.2534      -56.9898      -57.2189      -57.2266
      2.51563      -66.3479      -56.9488       -57.178       -57.177
      2.51607      -65.8028      -56.5917      -56.8107      -56.8219
      2.51651      -65.6523      -56.5388      -56.7623      -56.7605
      2.51696      -65.6825      -56.5813      -56.8126      -56.8282
       2.5174      -65.2338      -56.0849      -56.3142       -56.319
      2.51784      -65.2881      -56.1643      -56.3921      -56.4047
      2.51828      -65.6079      -56.2442      -56.4699      -56.4851
      2.51872      -65.5997      -56.1462      -56.3626      -56.3837
      2.51915       -65.632      -56.3811      -56.6024      -56.6251
      2.51959      -65.7187      -56.4652      -56.6865      -56.7111
      2.52003      -65.2939      -56.1726       -56.393      -56.4168
      2.52047       -65.669      -56.4778      -56.6964      -56.7181
      2.52091      -65.6908      -56.5796      -56.7916      -56.8137
      2.52135      -65.9154      -56.6323      -56.8512      -56.8726
      2.52178      -64.3719      -55.1404      -55.3577      -55.3777
      2.52222      -64.4261      -55.1513      -55.3662      -55.3826
      2.52266      -64.3605      -54.9715      -55.1828      -55.2044
       2.5231      -65.4359      -56.0103      -56.2245      -56.2428
      2.52354      -65.3295      -56.1153       -56.332      -56.3518
      2.52397      -65.3266      -56.1668      -56.3849      -56.4043
      2.52441      -64.2056      -54.9958      -55.2178      -55.2343
      2.52485      -64.0424      -54.7645      -54.9926      -55.0154
      2.52528      -63.9144      -54.3889      -54.6096      -54.6288
      2.52572      -63.8985      -54.4202      -54.6417      -54.6526
      2.52616      -64.8282      -55.6038      -55.8237      -55.8403
      2.52659      -64.8981      -55.7036      -55.9159      -55.9388
      2.52703      -64.5396      -55.1743      -55.3948       -55.409
      2.52746      -64.3799      -55.1508      -55.3765      -55.3879
       2.5279      -64.2894      -54.8852       -55.111      -55.1169
      2.52833      -65.5131      -56.1512      -56.3672      -56.3822
      2.52877      -64.7027      -55.3859      -55.6054      -55.6197
      2.52921      -65.5386      -56.0892      -56.3097      -56.3189
      2.52964       -64.968      -55.4989      -55.7343      -55.7259
      2.53008      -64.6863      -55.0041      -55.2461      -55.2313
      2.53051      -63.9446      -54.3338      -54.5653       -54.559
      2.53095      -64.5286      -55.0454      -55.2686      -55.2752
      2.53139      -66.0618      -56.4768       -56.702      -56.7082
      2.53182      -65.9133       -56.265      -56.4866      -56.4883
      2.53226      -65.0546      -55.5257      -55.7594      -55.7561
       2.5327      -64.8372      -55.4186      -55.6404      -55.6468
      2.53314      -64.7663      -55.4293      -55.6683      -55.6635
      2.53357      -64.9739      -55.5473       -55.775      -55.7615
      2.53401      -64.9624      -55.6628      -55.8889       -55.884
      2.53445      -66.3313      -57.0384      -57.2564      -57.2516
      2.53489       -65.632      -56.4218      -56.6451       -56.646
      2.53533      -65.7907      -56.4225      -56.6615      -56.6503
      2.53577      -64.2893      -54.8557      -55.0841      -55.0818
      2.53621      -64.2276       -54.696      -54.9258      -54.9174
      2.53665      -64.5735      -55.0937      -55.3256      -55.3123
      2.53709      -64.2641      -54.7208      -54.9477      -54.9405
      2.53752      -66.0155      -56.6136      -56.8457      -56.8402
      2.53796      -66.3936      -56.9329      -57.1743      -57.1675
       2.5384      -66.5919      -56.9865      -57.2241      -57.2191
      2.53884      -65.2893      -55.5415       -55.772      -55.7615
      2.53928      -64.4897      -55.0674      -55.3013       -55.299
      2.53972      -64.6001      -54.5952      -54.8282      -54.8252
      2.54017       -64.219      -54.7348       -54.972      -54.9615
      2.54061      -66.1765      -56.5984      -56.8296      -56.8212
      2.54105      -66.3027      -56.6825      -56.9031       -56.909
      2.54149      -66.9414      -57.3439      -57.5679      -57.5714
      2.54194      -67.1212      -57.4459      -57.6762      -57.6736
      2.54238      -65.0134      -55.2205      -55.4435       -55.446
      2.54282      -64.5796      -54.7806      -55.0222      -55.0229
      2.54327      -64.7108      -54.8606      -55.0965       -55.099
      2.54371      -64.4674      -54.7386      -54.9696      -54.9782
      2.54415      -64.4764      -54.6867      -54.9225       -54.935
      2.54459      -64.8249       -55.093      -55.3473      -55.3432
      2.54503      -65.0175       -55.328      -55.5874      -55.5871
      2.54547      -65.1222      -55.3117      -55.5616      -55.5696
      2.54591      -65.6111      -55.9569      -56.1949      -56.2165
      2.54635      -66.2568      -56.4787      -56.7188      -56.7337
      2.54679      -66.2915      -56.4498       -56.675      -56.7065
      2.54723       -66.965      -57.1785      -57.4123      -57.4321
      2.54768      -66.1896      -56.3971      -56.6268      -56.6637
      2.54812      -66.5196      -56.7745      -57.0166      -57.0242
      2.54857      -68.5509       -58.761      -59.0077      -59.0214
      2.54901      -67.6833      -58.0376       -58.281      -58.2935
      2.54946      -68.5803      -58.9166      -59.1762      -59.1831
       2.5499      -68.8069      -59.0461      -59.2954      -59.3049
      2.55035      -69.0873      -59.2824      -59.5361      -59.5426
       2.5508      -69.2741      -59.4578      -59.7019      -59.7153
      2.55125      -69.6287      -59.8856      -60.1306      -60.1414
       2.5517      -70.0076      -60.1602      -60.4123      -60.4164
      2.55215      -69.9792      -60.2461      -60.4866      -60.4958
       2.5526      -69.9997       -60.201      -60.4413       -60.442
      2.55305      -70.0245      -60.2025      -60.4372      -60.4409
      2.55351      -70.2545      -60.3969      -60.6444      -60.6343
      2.55396      -70.1728      -60.2011      -60.4409      -60.4368
      2.55441      -70.5499      -60.7783      -61.0204       -61.012
      2.55486      -70.4806      -60.6518       -60.891      -60.8845
      2.55531       -70.925       -61.003      -61.2351      -61.2288
      2.55577      -70.6764      -60.7508      -60.9857      -60.9779
      2.55622      -71.0586      -61.2198      -61.4426      -61.4417
      2.55667      -71.0786      -61.0655      -61.3047      -61.2926
      2.55713      -71.1154      -61.0806      -61.3183      -61.3155
      2.55758      -71.3885      -61.4723      -61.6451      -61.6483
      2.55804      -71.2697      -61.4523      -61.6248      -61.6305
      2.55849      -71.0291      -61.1169      -61.2826      -61.2854
      2.55895      -71.0296      -61.2455      -61.4074      -61.3991
       2.5594       -70.889       -61.175      -61.3243      -61.3195
      2.55986      -71.0467      -61.3489      -61.4983      -61.5003
      2.56032      -71.4466      -61.6066      -61.7707      -61.7673
      2.56077      -71.2143      -61.5654      -61.7155      -61.7173
      2.56123      -71.5869      -61.9113      -62.0713      -62.0682
      2.56169      -70.9567      -61.1152      -61.2682      -61.2679
      2.56215      -70.7721      -60.8966      -61.0545      -61.0515
      2.56261      -70.8336      -60.9503      -61.0894      -61.0955
      2.56307      -70.5889      -60.6946      -60.8384      -60.8456
      2.56353      -70.3521      -60.5135      -60.6446      -60.6545
      2.56398      -70.2206      -60.3729      -60.5235      -60.5306
      2.56444      -70.2652      -60.5064      -60.6409      -60.6417
      2.56489      -70.0423      -60.2249      -60.3664       -60.374
      2.56535      -70.3228         -60.6      -60.7515      -60.7575
       2.5658      -68.8261      -59.0324      -59.1864      -59.1843
      2.56625      -69.5174      -59.6193      -59.7844      -59.7751
       2.5667       -69.429      -59.6279      -59.7966      -59.7928
      2.56715      -69.4375       -59.343      -59.5131      -59.5079
       2.5676      -68.1538      -58.1932      -58.3654      -58.3608
      2.56805      -67.8768      -57.7892      -57.9464      -57.9541
       2.5685      -68.2277      -58.1725      -58.3485      -58.3388
      2.56895       -69.323      -59.3029      -59.4481      -59.4573
       2.5694      -67.8625      -57.7538      -57.9085      -57.9143
      2.56984      -67.7607      -57.6678      -57.8111      -57.8092
      2.57029      -67.6686      -57.6321      -57.7707       -57.772
      2.57073      -68.8182      -58.8007        -58.95      -58.9538
      2.57118       -67.665       -57.705      -57.8501      -57.8467
      2.57162      -67.2465       -57.368      -57.5055      -57.5067
      2.57206      -67.0958      -57.1923      -57.3405      -57.3395
       2.5725      -66.8698      -56.9445      -57.0912      -57.0882
      2.57294      -66.8082       -56.993       -57.132      -57.1345
      2.57338      -66.7645      -56.9113      -57.0591      -57.0606
      2.57381      -66.8309      -56.9148      -57.0541      -57.0556
      2.57425       -66.198      -56.1853      -56.3302      -56.3332
      2.57468      -65.9806      -55.9094      -56.0573      -56.0617
      2.57511      -67.7086      -57.6511      -57.7926      -57.7963
      2.57554      -65.9218      -55.7523      -55.9115      -55.9088
      2.57597      -65.8664      -55.7311      -55.8903      -55.8871
       2.5764      -65.6379      -55.5644      -55.7119      -55.7069
      2.57683      -65.3591      -55.2379       -55.399      -55.3929
      2.57725      -66.0001       -55.808      -55.9599      -55.9555
      2.57768      -65.7514      -55.4648      -55.6176       -55.611
       2.5781      -66.4346      -56.4336      -56.5904      -56.5872
      2.57852       -66.198      -56.0344         -56.2      -56.1962
      2.57894      -65.1115       -54.873      -55.0434       -55.033
      2.57936       -64.964      -54.8389      -55.0083      -54.9964
      2.57977      -65.1346      -54.8731      -55.0504      -55.0333
      2.58019      -65.1706      -54.9524      -55.1096      -55.0978
      2.58061       -64.857      -54.7184      -54.8628      -54.8483
      2.58102      -66.3697      -56.1862      -56.3339      -56.3298
      2.58143      -66.1574      -55.9973      -56.1429       -56.136
      2.58185      -64.8851      -54.7115      -54.8678      -54.8666
      2.58226      -64.5975      -54.4978      -54.6336      -54.6334
      2.58266         -64.2      -53.9455      -54.0842      -54.0817
      2.58307      -63.9307      -53.7487      -53.9105      -53.9062
      2.58348      -63.9813      -53.8041      -53.9688      -53.9694
      2.58388      -65.3643      -55.2336      -55.3975      -55.3888
      2.58429      -65.2188      -55.0828      -55.2509       -55.235
      2.58469      -63.5864      -53.4684      -53.6345      -53.6279
      2.58509      -63.3071      -53.0271      -53.1906      -53.1783
      2.58549      -63.1234      -52.8555       -53.025      -53.0115
      2.58588      -64.3373      -54.0271      -54.1996      -54.1913
      2.58628      -63.5187      -53.2312      -53.3816      -53.3726
      2.58667      -63.3145      -52.9996       -53.169      -53.1573
      2.58706      -62.8241      -52.6022      -52.7271      -52.7278
      2.58746      -63.2978      -52.9102      -53.0455      -53.0389
      2.58785      -64.5699      -54.1963      -54.3347      -54.3239
      2.58824      -64.4479      -54.1977      -54.3278      -54.3244
      2.58863      -63.0557      -52.7288      -52.8623       -52.853
      2.58902      -64.2466      -54.0587      -54.2003      -54.1913
       2.5894      -63.0483      -52.7662      -52.9063      -52.9054
      2.58979      -63.9268      -53.6737      -53.8041      -53.8058
      2.59018      -64.2595      -54.0577      -54.2035      -54.1983
      2.59056      -63.4667      -53.2984      -53.4417      -53.4334
      2.59095      -63.1512      -53.0092      -53.1453      -53.1443
      2.59133      -64.1659      -53.9577      -54.0994      -54.0886
      2.59172      -64.7537      -54.6928      -54.8202       -54.815
       2.5921      -63.3736      -53.2349      -53.3754      -53.3593
      2.59249      -64.5533      -54.3555      -54.4955      -54.4777
      2.59287      -64.6554      -54.4492      -54.6016       -54.584
      2.59325      -64.7619      -54.6046      -54.7552       -54.744
      2.59364      -64.9185      -54.7631      -54.9254       -54.905
      2.59402      -64.7112      -54.5262      -54.6977      -54.6745
       2.5944      -64.7911      -54.6311      -54.7945      -54.7772
      2.59479      -65.0518      -54.7864      -54.9546      -54.9325
      2.59517      -64.8899      -54.7652      -54.9291       -54.919
      2.59555      -64.8117      -54.5184      -54.6805       -54.668
      2.59593      -64.9292      -54.7455      -54.9078      -54.8882
      2.59631      -64.9735      -54.7348      -54.9003      -54.8812
       2.5967      -63.6342      -53.3831      -53.5548       -53.529
      2.59708      -64.6383      -54.3324      -54.4911      -54.4716
      2.59746      -64.7064      -54.4053      -54.5595      -54.5398
      2.59785      -64.8856      -54.5209      -54.6959      -54.6758
      2.59823      -64.7966      -54.4818      -54.6519      -54.6307
      2.59861      -64.6901      -54.2871       -54.451       -54.427
      2.59899      -64.6004       -54.341      -54.5036      -54.4803
      2.59938      -64.7488      -54.5103      -54.6862      -54.6632
      2.59976      -64.7114      -54.4273      -54.5932      -54.5726
      2.60014      -64.8315      -54.4832      -54.6562      -54.6231
      2.60052      -64.8472      -54.6378      -54.8041       -54.778
       2.6009      -64.6506       -54.395      -54.5616       -54.527
      2.60129      -64.5504      -54.3554      -54.5324      -54.4975
      2.60167      -64.5569      -54.3499      -54.5153      -54.4782
      2.60205      -64.6481      -54.3075      -54.4728      -54.4485
      2.60243      -64.7754      -54.5809       -54.751       -54.726
      2.60281      -64.9728       -54.692       -54.858      -54.8315
      2.60319      -65.1596      -54.8614      -55.0357      -55.0043
      2.60358       -65.148      -54.8712      -55.0325      -55.0085
      2.60396       -64.862      -54.6962      -54.8694      -54.8351
      2.60434      -64.8542      -54.6063      -54.7735      -54.7357
      2.60472      -64.7481      -54.5139      -54.6852       -54.652
      2.60511      -64.8558      -54.6784      -54.8435      -54.8111
      2.60549      -64.6531      -54.5344      -54.7046      -54.6666
      2.60588      -64.4692      -54.3315      -54.5041      -54.4551
      2.60626      -64.7959      -54.7657      -54.9325      -54.8924
      2.60664       -64.458       -54.373      -54.5438      -54.4986
      2.60703      -64.2356      -54.1146      -54.2894      -54.2484
      2.60741      -64.5762      -54.4194      -54.5813      -54.5459
       2.6078      -64.3599      -54.2592      -54.4219      -54.3881
      2.60819      -64.5181      -54.4573      -54.6199      -54.5753
      2.60857      -64.2966       -54.196       -54.374      -54.3308
      2.60896        -64.65      -54.5188      -54.6824      -54.6412
      2.60934      -64.5486      -54.3536      -54.5122      -54.4671
      2.60973      -64.7365      -54.5964      -54.7667      -54.7211
      2.61012       -64.634      -54.4644      -54.6239      -54.5781
       2.6105      -64.7608      -54.4954      -54.6531      -54.6106
      2.61089      -64.8545      -54.6112      -54.7608      -54.7125
      2.61128      -64.7501      -54.5659      -54.7057      -54.6698
      2.61166      -65.0418      -54.9075      -55.0483      -55.0034
      2.61205      -65.0111      -54.9752      -55.1201      -55.0738
      2.61244      -64.8793      -54.7178      -54.8743      -54.8346
      2.61282      -64.8252      -54.6641       -54.821      -54.7787
      2.61321      -65.1295      -55.0259      -55.1717      -55.1297
       2.6136      -65.0112      -54.8604      -55.0047      -54.9613
      2.61398      -65.2147      -55.1311       -55.283      -55.2318
      2.61437      -64.7009      -54.6426      -54.7896      -54.7427
      2.61476      -64.7116      -54.5419      -54.6867      -54.6462
      2.61515       -64.756      -54.5326      -54.6826      -54.6282
      2.61553      -65.1893      -54.9923      -55.1464      -55.0878
      2.61592       -65.227      -55.1153      -55.2685      -55.2142
      2.61631      -65.0811      -54.9117      -55.0677      -55.0084
       2.6167      -64.9996      -54.9001      -55.0536      -54.9974
      2.61709      -65.2849      -55.2114      -55.3653      -55.3017
      2.61748      -65.0622      -54.9824      -55.1406      -55.0743
      2.61787      -64.9165      -54.8491      -55.0168       -54.953
      2.61826      -64.9726      -54.8926      -55.0542      -54.9861
      2.61865      -65.1577       -55.065      -55.2395      -55.1652
      2.61904      -65.2249      -55.1475       -55.318      -55.2512
      2.61943      -65.2906      -55.1592      -55.3293      -55.2624
      2.61982      -65.2071      -55.1287      -55.2923      -55.2277
      2.62021      -64.5741      -54.4273      -54.5979      -54.5379
       2.6206      -64.1436      -53.9188      -54.0852      -54.0249
      2.62098      -64.2345      -54.0401      -54.2083      -54.1523
      2.62137       -64.126      -53.9282      -54.0982      -54.0345
      2.62175      -64.3086      -54.1675      -54.3372      -54.2743
      2.62214      -64.2774      -54.1007      -54.2635      -54.2046
      2.62252      -64.5427      -54.4366      -54.5991      -54.5442
      2.62291       -64.681      -54.6142      -54.7864      -54.7193
      2.62329      -64.3756      -54.2659      -54.4309      -54.3731
      2.62367      -64.5869      -54.5035      -54.6667      -54.6043
      2.62405      -64.7303      -54.6881      -54.8608      -54.7925
      2.62443      -64.4727       -54.362      -54.5307      -54.4658
      2.62481      -64.4316      -54.3156      -54.4935      -54.4143
      2.62519      -63.9598      -53.7692      -53.9471      -53.8666
      2.62557      -64.0058      -53.8368      -54.0175      -53.9368
      2.62595      -64.0596      -53.9756      -54.1552      -54.0722
      2.62632      -63.7368       -53.706      -53.8806      -53.7989
       2.6267      -63.7423      -53.5533       -53.734      -53.6526
      2.62707      -63.5761      -53.3516      -53.5214      -53.4454
      2.62745      -63.7007      -53.4546      -53.6285      -53.5542
      2.62782      -63.7165      -53.4218      -53.5892      -53.5155
      2.62819      -63.7849      -53.5065      -53.6768      -53.5993
      2.62857      -63.8398      -53.6258      -53.7913      -53.7179
      2.62894      -63.4449      -53.1922      -53.3659      -53.2885
      2.62931      -63.5715      -53.5503       -53.729      -53.6437
      2.62968      -63.5686       -53.496      -53.6701      -53.5939
      2.63005      -63.2769       -53.159      -53.3291      -53.2541
      2.63041       -63.039      -52.9059      -53.0913       -53.006
      2.63078      -63.0786      -52.9945        -53.18      -53.0942
      2.63115      -62.7597      -52.6774      -52.8515      -52.7756
      2.63152      -62.6845      -52.5246      -52.6972      -52.6215
      2.63188      -62.5539      -52.4159      -52.6046      -52.5194
      2.63225      -62.8594      -52.6701      -52.8528      -52.7718
      2.63261       -62.778      -52.6235      -52.8012      -52.7246
      2.63298      -62.5411      -52.3645      -52.5424      -52.4574
      2.63334      -62.6781      -52.6081       -52.782      -52.6999
       2.6337      -62.5796      -52.4793      -52.6629       -52.571
      2.63407      -62.7075      -52.6827      -52.8706       -52.777
      2.63443      -62.5368      -52.4077      -52.5882       -52.494
      2.63479      -62.2939       -52.225      -52.4032       -52.308
      2.63515      -62.2826      -52.2493      -52.4298      -52.3372
      2.63551      -62.3927      -52.3146       -52.493      -52.3984
      2.63587       -62.374      -52.3153      -52.4858      -52.3988
      2.63623       -62.122      -52.0725      -52.2377      -52.1495
      2.63659        -62.25      -52.1864      -52.3514      -52.2565
      2.63695      -62.0447      -51.9344      -52.0975      -52.0067
      2.63731      -62.2996      -52.3566      -52.5203      -52.4237
      2.63767      -62.3248      -52.2523      -52.4232      -52.3273
      2.63803      -62.1719       -52.056      -52.2217      -52.1252
      2.63839      -62.3289      -52.2549       -52.416      -52.3219
      2.63874      -62.3373      -52.2716      -52.4378      -52.3411
       2.6391      -62.5249      -52.5084      -52.6782      -52.5811
      2.63946      -62.4917      -52.4796      -52.6578      -52.5431
      2.63982      -62.4925      -52.4987      -52.6832      -52.5653
      2.64018      -62.6552       -52.701      -52.8801      -52.7663
      2.64054      -62.4751      -52.4731      -52.6549       -52.541
       2.6409      -62.3817      -52.3646      -52.5374      -52.4305
      2.64126       -62.364      -52.3751      -52.5479       -52.446
      2.64162       -62.642      -52.7296       -52.906      -52.7954
      2.64198       -62.659      -52.7045      -52.8743      -52.7714
      2.64235      -62.4778      -52.4936      -52.6593      -52.5574
      2.64271      -62.7405       -52.746      -52.9178      -52.8159
      2.64307      -62.6071      -52.6563      -52.8202        -52.72
      2.64343      -62.6185      -52.6242      -52.7854      -52.6843
      2.64379      -62.7344      -52.8159      -52.9675      -52.8701
      2.64415      -62.8583      -52.9858      -53.1494      -53.0506
      2.64452      -62.7839      -52.8169      -52.9798      -52.8803
      2.64488      -62.9731       -53.052       -53.219      -53.1195
      2.64524      -62.8051      -52.8303      -52.9973       -52.893
       2.6456      -62.9659      -53.0973      -53.2734      -53.1635
      2.64597       -62.876      -52.9359      -53.1056      -53.0003
      2.64633      -62.9531      -52.9893       -53.149      -53.0486
      2.64669      -63.1831      -53.2896      -53.4536        -53.35
      2.64706      -63.2637      -53.3687      -53.5332      -53.4321
      2.64742      -63.2624      -53.3128      -53.4894      -53.3772
      2.64778       -63.394      -53.4478      -53.6191      -53.5063
      2.64815      -63.4734       -53.461      -53.6519      -53.5338
      2.64851      -63.6166      -53.6599      -53.8312       -53.715
      2.64888      -63.5571      -53.7386      -53.9094      -53.7926
      2.64925      -63.6417      -53.7264      -53.9073      -53.8017
      2.64961      -63.6726       -53.752      -53.9325      -53.8259
      2.64998      -63.5792      -53.6572      -53.8232        -53.72
      2.65034      -63.5959      -53.6965      -53.8688      -53.7638
      2.65071       -63.882      -54.0378      -54.2107      -54.1057
      2.65108      -63.9033      -54.0414      -54.2067      -54.1018
      2.65144      -64.1102      -54.2371      -54.4145      -54.3067
      2.65181        -64.08      -54.2027      -54.3736      -54.2676
      2.65218      -64.0089      -54.2159      -54.3907      -54.2811
      2.65255      -64.0561      -54.2533      -54.4211      -54.3155
      2.65292      -64.3184      -54.4994      -54.6766      -54.5674
      2.65329      -64.1052      -54.2735      -54.4498      -54.3396
      2.65366      -64.3792      -54.6032      -54.7737      -54.6722
      2.65403      -64.2774      -54.3695      -54.5446      -54.4413
       2.6544      -64.3804      -54.5997      -54.7899      -54.6811
      2.65478      -64.3629      -54.4534      -54.6212      -54.5222
      2.65515      -64.4993      -54.5324      -54.7082      -54.6027
      2.65552      -64.0979      -54.1684      -54.3331      -54.2353
      2.65589      -63.7316      -53.8552      -54.0345      -53.9278
      2.65626      -63.9616      -54.0786      -54.2443      -54.1404
      2.65663      -63.8423      -53.7529      -53.9193      -53.8119
        2.657      -63.6999      -53.6871      -53.8534      -53.7483
      2.65737      -63.8236      -53.9554      -54.1257       -54.021
      2.65774      -63.8331      -53.9617      -54.1255       -54.021
      2.65811      -63.5166      -53.5887      -53.7577      -53.6511
      2.65848      -63.6462      -53.7705      -53.9424      -53.8378
      2.65884      -63.4931       -53.545      -53.7185      -53.6117
      2.65921      -63.3701       -53.469      -53.6411      -53.5322
      2.65958      -63.2928       -53.397      -53.5662      -53.4586
      2.65994      -63.3543      -53.2847      -53.4464      -53.3302
       2.6603      -63.1168      -53.0249      -53.1837      -53.0723
      2.66066      -63.0423      -52.9156      -53.0731      -52.9575
      2.66103      -63.1081      -53.0969       -53.263      -53.1473
      2.66139       -63.067        -53.09      -53.2553      -53.1378
      2.66175      -63.1298      -52.9803      -53.1498      -53.0213
       2.6621      -63.0572      -52.9824       -53.151      -53.0163
      2.66246      -62.7593      -52.5742      -52.7462      -52.6105
      2.66282      -62.7469      -52.6221       -52.789      -52.6539
      2.66317      -62.9127      -52.7591      -52.9273      -52.7939
      2.66353      -62.8589      -52.7218      -52.9019      -52.7608
      2.66388      -62.7125      -52.6624      -52.8281      -52.6904
      2.66424      -62.7242      -52.5343      -52.7201      -52.5783
      2.66459      -62.7511      -52.5889      -52.7582      -52.6171
      2.66494      -62.9167      -52.7647      -52.9418      -52.7994
      2.66529      -62.8207      -52.7133      -52.8869      -52.7477
      2.66564      -62.6972      -52.5969      -52.7779      -52.6312
        2.666      -62.9473       -52.616      -52.8072      -52.6561
      2.66635      -62.7029       -52.372      -52.5611      -52.4092
       2.6667      -62.7373      -52.5735      -52.7678      -52.6151
      2.66704      -62.8999      -52.6553      -52.8519      -52.7011
      2.66739      -62.6565      -52.5702      -52.7726      -52.6173
      2.66774      -62.8479      -52.5901      -52.7946      -52.6414
      2.66809       -62.773      -52.4101      -52.6024      -52.4538
      2.66844      -62.3246      -52.0321      -52.2333      -52.0776
      2.66878       -62.389      -51.9719       -52.167      -52.0096
      2.66913      -62.5272      -52.3161      -52.5067      -52.3532
      2.66947      -62.5305      -52.2254      -52.4215      -52.2751
      2.66982      -62.3215      -52.0927      -52.2915      -52.1477
      2.67016      -62.4889      -52.2288       -52.424       -52.266
      2.67051       -62.059      -51.6387      -51.8432      -51.6964
      2.67085      -61.8155      -51.6299      -51.8242      -51.6669
      2.67119      -61.6697      -51.5744      -51.7711      -51.6283
      2.67154      -61.6691      -51.4295      -51.6458      -51.4807
      2.67188      -61.6017      -51.2506       -51.453       -51.304