# Probe 0 (0 0 0)
# Probe 1 (1 0 0)
# Probe 2 (-1 0 0)
# Probe 3 (0 1 0)
#       Probe             0             1             2             3
#        Time
      2.50044             (3.16249 -0.309132 -1.12228)             (-0.682359 0.941476 -0.015193)             (0.546524 -1.01673 -0.0923136)             (-0.99786 -0.556212 -0.0173828)
      2.50088             (3.17368 -0.308 -1.12625)             (-0.682719 0.941074 -0.0149749)             (0.546229 -1.01666 -0.0919117)             (-0.997698 -0.556482 -0.0174494)
      2.50132             (3.18657 -0.305612 -1.13097)             (-0.683075 0.940671 -0.0147524)             (0.545933 -1.01659 -0.091502)             (-0.997537 -0.556748 -0.0175172)
      2.50176             (3.19962 -0.302812 -1.13572)             (-0.683429 0.940268 -0.0145241)             (0.54564 -1.01653 -0.0910869)             (-0.997372 -0.557012 -0.0175888)
       2.5022             (3.21384 -0.302907 -1.14002)             (-0.68378 0.939867 -0.0142905)             (0.545351 -1.01645 -0.0906671)             (-0.997205 -0.557271 -0.0176618)
      2.50264             (3.22874 -0.302762 -1.14389)             (-0.684129 0.939465 -0.0140517)             (0.545066 -1.01637 -0.0902428)             (-0.997037 -0.557527 -0.0177353)
      2.50308             (3.24236 -0.297505 -1.14846)             (-0.684476 0.939061 -0.0138092)             (0.544784 -1.01628 -0.089814)             (-0.996867 -0.557779 -0.0178097)
      2.50352             (3.25605 -0.292045 -1.1529)             (-0.684664 0.938749 -0.0135254)             (0.544506 -1.01619 -0.0893803)             (-0.996698 -0.558028 -0.0178833)
      2.50396             (3.27087 -0.289697 -1.15659)             (-0.684796 0.938463 -0.0132233)             (0.54423 -1.0161 -0.0889417)             (-0.996531 -0.558275 -0.0179562)
      2.50441             (3.2862 -0.287193 -1.16045)             (-0.684907 0.93819 -0.0129115)             (0.543956 -1.016 -0.0884989)             (-0.996365 -0.558519 -0.018029)
      2.50485             (3.30172 -0.284839 -1.16424)             (-0.685008 0.93792 -0.0125922)             (0.543686 -1.01591 -0.0880531)             (-0.9962 -0.558761 -0.0181016)
       2.5053             (3.32852 -0.282821 -1.14934)             (-0.685101 0.937652 -0.0122694)             (0.54342 -1.01581 -0.0876039)             (-0.996039 -0.559 -0.0181735)
      2.50574             (3.35631 -0.281783 -1.13317)             (-0.685188 0.937388 -0.0119436)             (0.543158 -1.01572 -0.0871512)             (-0.995876 -0.559236 -0.0182454)
      2.50619             (3.38207 -0.281304 -1.12015)             (-0.68527 0.937128 -0.0116146)             (0.542899 -1.01562 -0.0866948)             (-0.995892 -0.559195 -0.018407)
      2.50663             (3.40572 -0.280812 -1.11042)             (-0.685345 0.936867 -0.0112814)             (0.542641 -1.01552 -0.0862354)             (-0.995781 -0.559336 -0.0184967)
      2.50708             (3.4277 -0.277567 -1.10343)             (-0.685502 0.936593 -0.0110431)             (0.542387 -1.01541 -0.0857725)             (-0.995814 -0.559263 -0.018655)
      2.50753             (3.44868 -0.273912 -1.09821)             (-0.685681 0.936316 -0.0108356)             (0.542136 -1.0153 -0.0853084)             (-0.99571 -0.559395 -0.0187353)
      2.50798             (3.46869 -0.267681 -1.09451)             (-0.685862 0.936042 -0.0106372)             (0.54189 -1.01519 -0.084843)             (-0.995743 -0.559314 -0.0188855)
      2.50843             (3.48885 -0.264116 -1.09142)             (-0.686039 0.935774 -0.0104414)             (0.54165 -1.01508 -0.0843771)             (-0.995821 -0.559162 -0.0190553)
      2.50888             (3.50921 -0.261608 -1.08914)             (-0.686211 0.935517 -0.0102458)             (0.541414 -1.01497 -0.0839118)             (-0.995916 -0.558986 -0.0192281)
      2.50933             (3.52896 -0.25903 -1.08796)             (-0.686377 0.935263 -0.0100504)             (0.541183 -1.01485 -0.0834454)             (-0.995826 -0.559086 -0.0193033)
      2.50978             (3.54847 -0.255229 -1.08728)             (-0.68654 0.935015 -0.00986233)             (0.540958 -1.01473 -0.0829801)             (-0.995864 -0.558994 -0.0194425)
      2.51023             (3.56709 -0.250992 -1.08706)             (-0.686668 0.934782 -0.00968378)             (0.540737 -1.01461 -0.0825145)             (-0.995944 -0.558839 -0.0196008)
      2.51068             (3.58494 -0.245615 -1.08752)             (-0.686781 0.934555 -0.00950907)             (0.540521 -1.01448 -0.0820491)             (-0.996039 -0.558664 -0.0197642)
      2.51113             (3.60257 -0.240643 -1.08858)             (-0.686885 0.934335 -0.00933506)             (0.54031 -1.01436 -0.0815833)             (-0.995951 -0.558767 -0.0198336)
      2.51158             (3.62051 -0.238648 -1.08955)             (-0.686984 0.934119 -0.00915997)             (0.540106 -1.01423 -0.0811177)             (-0.995997 -0.558674 -0.0199699)
      2.51203             (3.63791 -0.237282 -1.09167)             (-0.687081 0.933917 -0.00897132)             (0.539908 -1.01411 -0.0806512)             (-0.996087 -0.558517 -0.0201268)
      2.51248             (3.65581 -0.233387 -1.09223)             (-0.687158 0.933751 -0.00877865)             (0.539715 -1.01398 -0.0801849)             (-0.996192 -0.558339 -0.0202884)
      2.51294             (3.67435 -0.230439 -1.09075)             (-0.687227 0.933597 -0.008585)             (0.539527 -1.01385 -0.0797173)             (-0.996302 -0.558154 -0.0204491)
      2.51339             (3.6927 -0.22614 -1.08883)             (-0.687291 0.93345 -0.00839044)             (0.539362 -1.01372 -0.0792939)             (-0.996412 -0.557967 -0.020607)
      2.51384             (3.71041 -0.221016 -1.08725)             (-0.687352 0.933309 -0.00819646)             (0.539213 -1.01359 -0.0788915)             (-0.99643 -0.557906 -0.0207743)
      2.51428             (3.72726 -0.217702 -1.08622)             (-0.68741 0.933173 -0.00800308)             (0.539072 -1.01346 -0.0784967)             (-0.996217 -0.558184 -0.0208456)
      2.51473             (3.74295 -0.214783 -1.08608)             (-0.687466 0.933037 -0.00781046)             (0.538916 -1.01334 -0.0780978)             (-0.996128 -0.558278 -0.0209803)
      2.51518             (3.75762 -0.211405 -1.0869)             (-0.68752 0.9329 -0.00761892)             (0.538758 -1.01323 -0.0776982)             (-0.995881 -0.558607 -0.0210394)
      2.51563             (3.77089 -0.206131 -1.08897)             (-0.687571 0.932766 -0.00742832)             (0.538602 -1.01312 -0.0772985)             (-0.995865 -0.558593 -0.0211353)
      2.51607             (3.78346 -0.202915 -1.09184)             (-0.687618 0.932637 -0.00723656)             (0.53845 -1.01301 -0.0768987)             (-0.995643 -0.558885 -0.0211808)
      2.51651             (3.7953 -0.200835 -1.09544)             (-0.687662 0.932509 -0.00704437)             (0.538301 -1.0129 -0.0764996)             (-0.995637 -0.558857 -0.0212676)
      2.51696             (3.80705 -0.197928 -1.09862)             (-0.687704 0.932387 -0.00685178)             (0.538155 -1.01279 -0.0761027)             (-0.995422 -0.559146 -0.0213093)
       2.5174             (3.81787 -0.195482 -1.10133)             (-0.687744 0.932271 -0.00665915)             (0.538012 -1.01268 -0.0757107)             (-0.995422 -0.559119 -0.0213893)
      2.51784             (3.82734 -0.191967 -1.10389)             (-0.687781 0.932157 -0.00646655)             (0.537873 -1.01257 -0.0753231)             (-0.995297 -0.559279 -0.0213896)
      2.51828             (3.83491 -0.186572 -1.10672)             (-0.687812 0.932032 -0.00627644)             (0.537735 -1.01246 -0.0749392)             (-0.99513 -0.559506 -0.0213658)
      2.51872             (3.84093 -0.179201 -1.11044)             (-0.68784 0.931903 -0.00608723)             (0.537605 -1.01237 -0.0745782)             (-0.994948 -0.559753 -0.021335)
      2.51915             (3.84589 -0.17317 -1.11468)             (-0.687867 0.931775 -0.00589821)             (0.537479 -1.01228 -0.0742265)             (-0.994763 -0.560004 -0.0213029)
      2.51959             (3.84963 -0.169838 -1.11952)             (-0.687893 0.931648 -0.00570933)             (0.537354 -1.01218 -0.0738796)             (-0.994578 -0.560255 -0.021272)
      2.52003             (3.85312 -0.166018 -1.12461)             (-0.687918 0.931523 -0.00552027)             (0.537233 -1.01208 -0.0735401)             (-0.994395 -0.560503 -0.0212429)
      2.52047             (3.85539 -0.160342 -1.13001)             (-0.687941 0.9314 -0.00533066)             (0.537113 -1.01198 -0.0732049)             (-0.994214 -0.560749 -0.0212147)
      2.52091             (3.85692 -0.154658 -1.13537)             (-0.687965 0.931283 -0.00514071)             (0.536996 -1.01187 -0.0728768)             (-0.994034 -0.560991 -0.0211869)
      2.52135             (3.85764 -0.148727 -1.14097)             (-0.687979 0.931173 -0.00493699)             (0.536885 -1.01175 -0.0725586)             (-0.993862 -0.561231 -0.0211609)
      2.52178             (3.8584 -0.144524 -1.1467)             (-0.687989 0.931064 -0.00472703)             (0.536776 -1.01164 -0.0722464)             (-0.993696 -0.561468 -0.0211359)
      2.52222             (3.85857 -0.139969 -1.15259)             (-0.687999 0.930955 -0.0045146)             (0.53667 -1.01152 -0.0719388)             (-0.993533 -0.561701 -0.0211105)
      2.52266             (3.85768 -0.133422 -1.15873)             (-0.688012 0.930849 -0.00430156)             (0.536566 -1.01141 -0.0716362)             (-0.993371 -0.561931 -0.0210851)
       2.5231             (3.85585 -0.125219 -1.16535)             (-0.688026 0.930742 -0.00408772)             (0.536465 -1.01129 -0.0713387)             (-0.993207 -0.562159 -0.0210604)
      2.52354             (3.85393 -0.119252 -1.17192)             (-0.688041 0.930635 -0.00387266)             (0.536368 -1.01117 -0.0710456)             (-0.993043 -0.562385 -0.021037)
      2.52397             (3.85195 -0.114062 -1.17854)             (-0.688056 0.930529 -0.00365633)             (0.536273 -1.01106 -0.0707565)             (-0.992879 -0.562609 -0.0210146)
      2.52441             (3.85006 -0.108997 -1.18507)             (-0.68807 0.930419 -0.00343814)             (0.536179 -1.01094 -0.0704711)             (-0.992716 -0.562831 -0.0209927)
      2.52485             (3.84803 -0.103535 -1.19189)             (-0.688084 0.930312 -0.00321844)             (0.536087 -1.01081 -0.0701886)             (-0.992556 -0.563051 -0.0209716)
      2.52528             (3.84546 -0.101543 -1.1991)             (-0.688299 0.930073 -0.00305587)             (0.535997 -1.01069 -0.0699096)             (-0.992398 -0.563269 -0.0209518)
      2.52572             (3.84235 -0.0964621 -1.20606)             (-0.688578 0.929786 -0.00291103)             (0.535908 -1.01057 -0.0696321)             (-0.992236 -0.563484 -0.0209327)
      2.52616             (3.83919 -0.0915389 -1.21216)             (-0.68888 0.929499 -0.00275068)             (0.535822 -1.01044 -0.069356)             (-0.992074 -0.563696 -0.0209148)
      2.52659             (3.83595 -0.0892301 -1.21753)             (-0.689191 0.92921 -0.00258805)             (0.535736 -1.01031 -0.0690806)             (-0.991911 -0.563905 -0.0208978)
      2.52703             (3.83184 -0.0857799 -1.22248)             (-0.689502 0.928922 -0.00242424)             (0.535652 -1.01019 -0.0688062)             (-0.991746 -0.564112 -0.0208816)
      2.52746             (3.82742 -0.0821588 -1.22668)             (-0.689813 0.928632 -0.00225992)             (0.535569 -1.01008 -0.0685404)             (-0.991584 -0.564318 -0.0208669)
       2.5279             (3.8227 -0.0769294 -1.23023)             (-0.690121 0.92834 -0.00209403)             (0.535487 -1.00997 -0.0682776)             (-0.991428 -0.564516 -0.0208545)
      2.52833             (3.8179 -0.0699232 -1.23309)             (-0.690425 0.928046 -0.00192815)             (0.535406 -1.00986 -0.0680132)             (-0.991272 -0.56471 -0.0208436)
      2.52877             (3.81298 -0.0654009 -1.23522)             (-0.690726 0.927749 -0.00176171)             (0.535327 -1.00975 -0.0677476)             (-0.991122 -0.564909 -0.0208485)
      2.52921             (3.80851 -0.0607677 -1.2363)             (-0.691023 0.927456 -0.00159335)             (0.535251 -1.00963 -0.0674835)             (-0.990969 -0.56511 -0.0208579)
      2.52964             (3.80472 -0.0563041 -1.2358)             (-0.691318 0.927165 -0.00142365)             (0.53517 -1.00949 -0.0671956)             (-0.990821 -0.565311 -0.0208706)
      2.53008             (3.8006 -0.0529823 -1.23577)             (-0.691612 0.926865 -0.00125558)             (0.535089 -1.00933 -0.0669)             (-0.990675 -0.565512 -0.0208847)
      2.53051             (3.79691 -0.0496231 -1.2363)             (-0.691906 0.926567 -0.00108835)             (0.535009 -1.00916 -0.0666032)             (-0.990531 -0.565713 -0.0208999)
      2.53095             (3.7926 -0.0475213 -1.23743)             (-0.692199 0.926271 -0.000920948)             (0.534937 -1.009 -0.0663278)             (-0.990392 -0.565911 -0.020916)
      2.53139             (3.78782 -0.0451568 -1.23865)             (-0.692491 0.925985 -0.000751973)             (0.534863 -1.00883 -0.0660355)             (-0.990253 -0.566105 -0.0209314)
      2.53182             (3.77115 -0.0415015 -1.26311)             (-0.692781 0.925692 -0.000583276)             (0.534788 -1.00866 -0.0657367)             (-0.990116 -0.566294 -0.0209446)
      2.53226             (3.75287 -0.0385013 -1.28864)             (-0.693071 0.925398 -0.000414147)             (0.534715 -1.00848 -0.0654362)             (-0.989983 -0.566485 -0.0209602)
       2.5327             (3.73605 -0.0352227 -1.30973)             (-0.693359 0.925102 -0.000244493)             (0.53465 -1.00832 -0.0651571)             (-0.98984 -0.56668 -0.0209811)
      2.53314             (3.7228 -0.0337096 -1.32342)             (-0.693647 0.924806 -7.45545e-05)             (0.534583 -1.00815 -0.0648606)             (-0.98966 -0.566879 -0.0209922)
      2.53357             (3.71091 -0.0320483 -1.33315)             (-0.693934 0.924509 9.52065e-05)             (0.534517 -1.00797 -0.0645601)             (-0.98964 -0.566825 -0.021062)
      2.53401             (3.70002 -0.0305454 -1.33997)             (-0.694222 0.924213 0.00026486)             (0.534452 -1.00781 -0.0642525)             (-0.989668 -0.566685 -0.0211462)
      2.53445             (3.68957 -0.026778 -1.34475)             (-0.694509 0.923918 0.00043483)             (0.534389 -1.00764 -0.0639443)             (-0.989713 -0.566516 -0.021229)
      2.53489             (3.68074 -0.0229535 -1.34791)             (-0.694631 0.923734 0.000650957)             (0.534316 -1.00748 -0.0636403)             (-0.989761 -0.566339 -0.0213065)
      2.53533             (3.67259 -0.0169135 -1.35009)             (-0.694698 0.923584 0.00088251)             (0.534234 -1.0073 -0.063322)             (-0.989813 -0.566159 -0.021378)
      2.53577             (3.66485 -0.0137925 -1.352)             (-0.694748 0.923444 0.00112017)             (0.534161 -1.00713 -0.062978)             (-0.989867 -0.565978 -0.021444)
      2.53621             (3.65697 -0.0110741 -1.35341)             (-0.694791 0.923303 0.00135966)             (0.534094 -1.00697 -0.0626208)             (-0.989919 -0.565797 -0.021504)
      2.53665             (3.64865 -0.00785289 -1.35424)             (-0.694832 0.923161 0.00160035)             (0.534034 -1.00681 -0.0622562)             (-0.989973 -0.565614 -0.0215573)
      2.53709             (3.64059 -0.0023614 -1.35454)             (-0.69487 0.92302 0.00184514)             (0.533993 -1.00665 -0.0618739)             (-0.990031 -0.56543 -0.0216064)
      2.53752             (3.63276 0.00440923 -1.354)             (-0.694915 0.922876 0.0021013)             (0.533967 -1.00651 -0.0615047)             (-0.990092 -0.565246 -0.0216536)
      2.53796             (3.62479 0.0106318 -1.35265)             (-0.694964 0.922735 0.00236005)             (0.533943 -1.00635 -0.0611154)             (-0.990156 -0.565061 -0.0216969)
       2.5384             (3.61678 0.015648 -1.35056)             (-0.695014 0.922592 0.00261952)             (0.533923 -1.00619 -0.0607177)             (-0.99022 -0.564874 -0.0217384)
      2.53884             (3.60865 0.0190008 -1.34822)             (-0.695065 0.922443 0.00287916)             (0.533905 -1.00604 -0.0603154)             (-0.990283 -0.564701 -0.0217664)
      2.53928             (3.60122 0.0251437 -1.34454)             (-0.695115 0.922302 0.0031416)             (0.533893 -1.00588 -0.059909)             (-0.990262 -0.56467 -0.0218478)
      2.53972             (3.59266 0.0276446 -1.34104)             (-0.695167 0.922155 0.00340329)             (0.533883 -1.00571 -0.0595001)             (-0.990219 -0.564686 -0.021948)
      2.54017             (3.58482 0.0321053 -1.33641)             (-0.695218 0.922012 0.00366793)             (0.533876 -1.00555 -0.0590886)             (-0.990172 -0.564716 -0.022055)
      2.54061             (3.57637 0.035511 -1.33133)             (-0.695271 0.921866 0.00393294)             (0.533871 -1.00539 -0.0586762)             (-0.990129 -0.564754 -0.0221655)
      2.54105             (3.56771 0.0394805 -1.32614)             (-0.695324 0.921726 0.00419962)             (0.53387 -1.00523 -0.058264)             (-0.990078 -0.5648 -0.0222741)
      2.54149             (3.55829 0.0406601 -1.32075)             (-0.695378 0.921579 0.00446682)             (0.533877 -1.00505 -0.0578514)             (-0.990034 -0.564839 -0.0223818)
      2.54194             (3.54837 0.0420539 -1.31545)             (-0.695431 0.921433 0.00473964)             (0.533886 -1.00487 -0.0574365)             (-0.989995 -0.564874 -0.022486)
      2.54238             (3.53877 0.0427589 -1.31025)             (-0.695483 0.921282 0.00501395)             (0.533896 -1.0047 -0.0570219)             (-0.989957 -0.564907 -0.0225892)
      2.54282             (3.52797 0.0437918 -1.30861)             (-0.695531 0.921131 0.00529121)             (0.533908 -1.00451 -0.0566107)             (-0.989922 -0.564938 -0.0226924)
      2.54327             (3.5123 0.0476264 -1.30455)             (-0.695576 0.920981 0.00557199)             (0.533929 -1.00432 -0.0562093)             (-0.989886 -0.564966 -0.0227937)
      2.54371             (3.49479 0.0504409 -1.30323)             (-0.695619 0.920831 0.00585677)             (0.53395 -1.00413 -0.055809)             (-0.989857 -0.564979 -0.0228883)
      2.54415             (3.47653 0.0520744 -1.30536)             (-0.695658 0.920681 0.00614571)             (0.533972 -1.00395 -0.0554097)             (-0.989841 -0.564977 -0.0229753)
      2.54459             (3.45818 0.0539604 -1.30892)             (-0.695693 0.920528 0.00644081)             (0.534001 -1.00377 -0.0549952)             (-0.989838 -0.564964 -0.0230484)
      2.54503             (3.44056 0.0541121 -1.31295)             (-0.695722 0.920378 0.00674485)             (0.534032 -1.00361 -0.054574)             (-0.989839 -0.564939 -0.0231147)
      2.54547             (3.42383 0.0547461 -1.3164)             (-0.695748 0.920228 0.00705574)             (0.53407 -1.00344 -0.0541711)             (-0.989848 -0.5649 -0.0231716)
      2.54591             (3.40811 0.0539041 -1.31918)             (-0.695775 0.920097 0.00738112)             (0.53406 -1.0033 -0.0537902)             (-0.989863 -0.56485 -0.0232274)
      2.54635             (3.39276 0.0538429 -1.32131)             (-0.695799 0.919974 0.00771766)             (0.534032 -1.00316 -0.053403)             (-0.989874 -0.564797 -0.0232814)
      2.54679             (3.37828 0.0543574 -1.32249)             (-0.69582 0.919856 0.00806191)             (0.534004 -1.00302 -0.0530361)             (-0.989891 -0.564736 -0.023333)
      2.54723             (3.36393 0.0547116 -1.323)             (-0.695838 0.919743 0.00841093)             (0.533975 -1.00289 -0.05266)             (-0.989916 -0.564663 -0.0233777)
      2.54768             (3.35019 0.0546172 -1.32321)             (-0.695851 0.919643 0.00876799)             (0.533952 -1.00275 -0.0523032)             (-0.98995 -0.564579 -0.0234199)
      2.54812             (3.33695 0.0546352 -1.323)             (-0.695909 0.919462 0.0090322)             (0.533921 -1.00258 -0.051985)             (-0.989988 -0.564488 -0.0234653)
      2.54857             (3.32397 0.0551726 -1.32274)             (-0.695971 0.919262 0.00926831)             (0.533885 -1.0024 -0.0516668)             (-0.990031 -0.564389 -0.0235111)
      2.54901             (3.31192 0.053361 -1.32229)             (-0.696021 0.919056 0.00948775)             (0.533852 -1.00222 -0.051371)             (-0.990081 -0.564281 -0.0235552)
      2.54946             (3.30032 0.0513752 -1.32185)             (-0.696057 0.918853 0.00970324)             (0.533817 -1.00205 -0.0510692)             (-0.990142 -0.564163 -0.0235971)
       2.5499             (3.28903 0.0493974 -1.32168)             (-0.696075 0.918654 0.00991873)             (0.533784 -1.00188 -0.0507871)             (-0.990209 -0.564035 -0.0236338)
      2.55035             (3.27762 0.0477542 -1.32189)             (-0.696079 0.918463 0.0101366)             (0.53375 -1.0017 -0.0504985)             (-0.99029 -0.563893 -0.0236666)
       2.5508             (3.26647 0.0460087 -1.32236)             (-0.696069 0.918275 0.0103582)             (0.533718 -1.00154 -0.0502285)             (-0.990378 -0.563741 -0.0236926)
      2.55125             (3.2552 0.0441507 -1.32336)             (-0.696044 0.918084 0.0105857)             (0.533698 -1.00137 -0.0499813)             (-0.990472 -0.563581 -0.0237152)
       2.5517             (3.24399 0.0422025 -1.3245)             (-0.696006 0.917896 0.0108198)             (0.533681 -1.00119 -0.0497281)             (-0.990572 -0.563414 -0.0237332)
      2.55215             (3.23325 0.0394035 -1.32599)             (-0.695957 0.917708 0.0110597)             (0.533677 -1.00103 -0.0494487)             (-0.990672 -0.563241 -0.0237487)
       2.5526             (3.22291 0.0367677 -1.32803)             (-0.6959 0.917524 0.0113044)             (0.533665 -1.00085 -0.0491879)             (-0.990774 -0.563063 -0.0237604)
      2.55305             (3.21275 0.0345944 -1.33091)             (-0.695834 0.917341 0.0115557)             (0.533668 -1.00071 -0.0489255)             (-0.990882 -0.562881 -0.0237699)
      2.55351             (3.20265 0.0317534 -1.33458)             (-0.695758 0.917169 0.0118144)             (0.53366 -1.00055 -0.0486723)             (-0.990991 -0.562696 -0.0237781)
      2.55396             (3.19249 0.0296956 -1.33966)             (-0.695673 0.917006 0.0120807)             (0.533662 -1.0004 -0.0483987)             (-0.991103 -0.562502 -0.023787)
      2.55441             (3.18263 0.0258921 -1.3458)             (-0.695579 0.916855 0.0123553)             (0.533659 -1.00025 -0.0481609)             (-0.991216 -0.562301 -0.023795)
      2.55486             (3.17414 0.0206481 -1.34934)             (-0.695476 0.916712 0.0126372)             (0.533664 -1.00012 -0.047886)             (-0.991332 -0.562097 -0.0238007)
      2.55531             (3.16722 0.0168021 -1.34948)             (-0.695366 0.916575 0.0129274)             (0.533673 -0.999997 -0.0476085)             (-0.991431 -0.561891 -0.0238128)
      2.55577             (3.16198 0.012688 -1.34717)             (-0.69525 0.916446 0.0132231)             (0.533675 -0.999853 -0.0473668)             (-0.991519 -0.561685 -0.0238242)
      2.55622             (3.15702 0.00837133 -1.34367)             (-0.695135 0.916317 0.0135208)             (0.533687 -0.999713 -0.0471009)             (-0.991599 -0.561479 -0.0238305)
      2.55667             (3.15184 0.00511932 -1.34068)             (-0.695017 0.916192 0.0138227)             (0.533693 -0.999552 -0.046854)             (-0.99168 -0.561271 -0.0238308)
      2.55713             (3.14644 0.00217778 -1.33868)             (-0.694897 0.916072 0.014131)             (0.533712 -0.999415 -0.0466057)             (-0.991779 -0.561053 -0.0238257)
      2.55758             (3.14078 -0.000777026 -1.33791)             (-0.694629 0.915879 0.0144087)             (0.533737 -0.999291 -0.0463342)             (-0.991878 -0.560832 -0.0238127)
      2.55804             (3.13669 -0.0067436 -1.344)             (-0.694317 0.91567 0.0146828)             (0.533768 -0.999177 -0.046071)             (-0.991981 -0.560622 -0.0238081)
      2.55849             (3.13369 -0.0120418 -1.35045)             (-0.693989 0.91544 0.0149639)             (0.533801 -0.999067 -0.0458107)             (-0.992079 -0.560423 -0.0238068)
      2.55895             (3.1313 -0.0171818 -1.35613)             (-0.693661 0.915192 0.0152564)             (0.533832 -0.998957 -0.0455347)             (-0.992178 -0.56023 -0.0237938)
       2.5594             (3.12928 -0.0224225 -1.36122)             (-0.693348 0.91496 0.0155649)             (0.533864 -0.998855 -0.0452682)             (-0.992275 -0.560046 -0.0237755)
      2.55986             (3.12688 -0.0276722 -1.36595)             (-0.693054 0.914738 0.0158853)             (0.533894 -0.998756 -0.0450034)             (-0.992363 -0.55987 -0.0237546)
      2.56032             (3.12372 -0.0312075 -1.37126)             (-0.692822 0.914512 0.0161738)             (0.533921 -0.998652 -0.0447229)             (-0.992449 -0.559701 -0.0237289)
      2.56077             (3.12036 -0.035026 -1.37699)             (-0.692624 0.914283 0.0164588)             (0.533944 -0.998564 -0.0444519)             (-0.992529 -0.559538 -0.023697)
      2.56123             (3.11652 -0.037443 -1.3839)             (-0.692452 0.914048 0.0167491)             (0.533962 -0.998487 -0.0441833)             (-0.9926 -0.559379 -0.023658)
      2.56169             (3.11239 -0.0403394 -1.39226)             (-0.692314 0.913806 0.0170428)             (0.533977 -0.998418 -0.0439151)             (-0.992657 -0.55923 -0.0236066)
      2.56215             (3.10743 -0.0433413 -1.40259)             (-0.692211 0.913547 0.0173488)             (0.533988 -0.998351 -0.0436477)             (-0.992712 -0.559084 -0.0235501)
      2.56261             (3.10065 -0.046431 -1.41632)             (-0.69212 0.91329 0.01766)             (0.533996 -0.998284 -0.0433807)             (-0.992764 -0.558939 -0.0234874)
      2.56307             (3.09428 -0.0492516 -1.4295)             (-0.692031 0.913041 0.017972)             (0.534 -0.998219 -0.0431145)             (-0.992821 -0.558793 -0.0234146)
      2.56353             (3.08892 -0.053462 -1.44109)             (-0.691913 0.912842 0.0183348)             (0.534003 -0.998156 -0.04285)             (-0.992876 -0.55865 -0.023341)
      2.56398             (3.09629 -0.0569285 -1.42637)             (-0.691781 0.912655 0.0187161)             (0.534005 -0.998093 -0.0425882)             (-0.992926 -0.558507 -0.0232617)
      2.56444             (3.10431 -0.0606099 -1.40955)             (-0.691643 0.912475 0.0191073)             (0.534007 -0.998028 -0.0423295)             (-0.992973 -0.558366 -0.0231809)
      2.56489             (3.11043 -0.0646136 -1.39648)             (-0.691503 0.912304 0.0195037)             (0.534009 -0.99796 -0.042073)             (-0.993016 -0.558226 -0.0230984)
      2.56535             (3.11351 -0.0686459 -1.3889)             (-0.690968 0.912406 0.0197673)             (0.534011 -0.997895 -0.0418172)             (-0.993057 -0.558084 -0.0230073)
       2.5658             (3.11452 -0.0727774 -1.38492)             (-0.69031 0.912578 0.0199925)             (0.534012 -0.997837 -0.0415622)             (-0.993092 -0.557943 -0.0229117)
      2.56625             (3.11463 -0.0777819 -1.38242)             (-0.689618 0.912769 0.020206)             (0.534034 -0.997787 -0.04132)             (-0.993123 -0.557802 -0.0228105)
       2.5667             (3.11409 -0.0832224 -1.38055)             (-0.688921 0.912966 0.0204157)             (0.534067 -0.997751 -0.0410923)             (-0.993152 -0.557663 -0.0227044)
      2.56715             (3.11261 -0.0864482 -1.3791)             (-0.688228 0.913166 0.0206244)             (0.534104 -0.99772 -0.0408727)             (-0.993187 -0.557528 -0.022595)
       2.5676             (3.11094 -0.0915896 -1.37716)             (-0.68754 0.91337 0.0208339)             (0.534145 -0.997694 -0.0406577)             (-0.993219 -0.557393 -0.0224808)
      2.56805             (3.10865 -0.0955036 -1.37545)             (-0.686861 0.913578 0.0210388)             (0.534188 -0.99767 -0.0404474)             (-0.993243 -0.557261 -0.0223641)
       2.5685             (3.10535 -0.0986149 -1.3738)             (-0.686189 0.913784 0.0212402)             (0.534228 -0.997621 -0.0402506)             (-0.993267 -0.557132 -0.0222468)
      2.56895             (3.10163 -0.101502 -1.37212)             (-0.685526 0.913988 0.0214355)             (0.534275 -0.997589 -0.0400539)             (-0.993279 -0.557004 -0.0221252)
       2.5694             (3.09794 -0.104367 -1.37032)             (-0.684872 0.91419 0.0216241)             (0.534326 -0.997561 -0.0398596)             (-0.993295 -0.556879 -0.0220004)
      2.56984             (3.09385 -0.106697 -1.36859)             (-0.684228 0.91439 0.0218064)             (0.534373 -0.99751 -0.0396765)             (-0.993312 -0.556749 -0.0218738)
      2.57029             (3.08939 -0.10912 -1.36663)             (-0.683597 0.914595 0.021982)             (0.534424 -0.997479 -0.0394909)             (-0.99333 -0.556622 -0.021748)
      2.57073             (3.08448 -0.111025 -1.36447)             (-0.682975 0.914804 0.02215)             (0.534479 -0.997456 -0.0393078)             (-0.993336 -0.556507 -0.0216207)
      2.57118             (3.07936 -0.11391 -1.36218)             (-0.682368 0.915007 0.0223087)             (0.534534 -0.997442 -0.0391264)             (-0.993337 -0.556392 -0.0214909)