/*--------------------------------*- C++ -*----------------------------------*\
  =========                 |
  \\      /  F ield         | OpenFOAM: The Open Source CFD Toolbox
   \\    /   O peration     | Website:  https://openfoam.org
    \\  /    A nd           | Version:  7
     \\/     M anipulation  |
\*---------------------------------------------------------------------------*/
FoamFile
{
    version     2.0;
    format      ascii;
    class       volScalarField;
    location    "6";
    object      p;
}
// * * * * * * * * * * * * * * * * * * * * * * * * * * * * * * * * * * * * * //

dimensions      [0 2 -2 0 0 0 0];

internalField   nonuniform List<scalar> 
18780
(
-80.4656
-80.674
-80.4818
-80.5333
-81.0951
-80.6888
-80.639
-80.4898
-80.5415
-80.8199
-82.6083
-81.0734
-80.9746
-80.6933
-80.6748
-80.7246
-80.4948
-80.5591
-80.8323
-81.1153
-84.0646
-82.6583
-81.8908
-81.033
-81.0313
-80.6286
-80.6882
-80.7085
-80.7657
-80.8461
-80.4978
-80.5753
-80.8441
-81.1378
-81.3704
-85.7321
-84.2141
-83.3308
-82.641
-82.1002
-80.8388
-80.9651
-81.0602
-80.7095
-80.0795
-80.668
-80.7361
-80.8076
-80.8941
-81.1493
-80.4996
-80.5897
-80.8555
-81.1594
-81.3802
-81.1295
-84.9665
-85.838
-83.9388
-84.301
-83.5882
-81.9908
-82.5712
-82.2685
-81.0497
-80.2082
-80.8642
-81.0733
-80.7684
-80.1498
-79.9899
-80.6397
-80.7565
-80.8475
-80.9545
-81.1491
-80.9371
-80.5002
-80.6039
-80.8681
-81.1805
-81.3849
-81.1148
-80.3063
-84.5045
-85.2057
-83.6559
-85.7788
-84.3607
-82.485
-84.1558
-83.8213
-82.2831
-80.3297
-82.4635
-82.3683
-81.2404
-80.3844
-79.6767
-80.7329
-81.0747
-80.8017
-80.2473
-80.0772
-79.541
-80.6127
-80.7678
-80.8874
-81.0091
-81.1267
-80.8836
-79.9341
-80.4989
-80.6178
-80.8803
-81.1965
-81.3828
-81.0987
-80.2827
-79.8474
-81.8751
-84.815
-82.8529
-85.4312
-84.3412
-82.5822
-85.7259
-84.7195
-83.0359
-80.2478
-83.9324
-83.9452
-82.496
-80.6205
-79.489
-82.3158
-82.4218
-81.4254
-80.5956
-79.8869
-79.1258
-80.5843
-81.0585
-80.821
-80.3667
-80.1507
-79.651
-78.5606
-80.5854
-80.7708
-80.9333
-81.0646
-81.1334
-80.8607
-79.8961
-79.3118
-80.4953
-80.6317
-80.8903
-81.2103
-81.3721
-81.0856
-80.2611
-79.8177
-79.4161
-75.6767
-78.3977
-82.3604
-80.375
-85.0043
-83.5485
-80.5355
-85.4887
-85.0066
-83.2713
-80.3077
-85.5079
-84.9756
-83.5225
-80.7856
-78.9801
-83.654
-84.0405
-82.8364
-80.9315
-79.8218
-78.7483
-82.124
-82.4206
-81.5708
-80.8188
-80.1392
-79.357
-78.0753
-80.423
-81.0157
-80.8362
-80.4852
-80.2722
-79.8182
-78.6584
-78.2278
-80.5691
-80.7646
-80.9786
-81.1128
-81.1349
-80.8336
-79.8606
-79.28
-78.8045
-80.4909
-80.6466
-80.8985
-81.222
-81.3624
-81.0672
-80.2416
-79.7942
-79.3917
-79.4871
-73.9872
-75.8788
-75.4737
-78.8877
-77.8544
-82.8395
-81.0944
-78.7803
-85.1231
-84.19
-81.5943
-79.0703
-85.4651
-85.4532
-83.8897
-80.8644
-78.0349
-85.2655
-85.1209
-83.9506
-81.3917
-79.3617
-78.0415
-83.3823
-84.0498
-82.934
-81.2557
-80.1915
-79.0598
-77.5101
-81.8972
-82.3626
-81.6907
-81.017
-80.3818
-79.6315
-78.3297
-77.3382
-80.2967
-80.9612
-80.848
-80.6172
-80.3985
-79.9543
-78.7282
-78.2726
-77.6757
-80.5382
-80.7414
-81.0176
-81.1548
-81.1538
-80.7922
-79.8373
-79.2704
-78.7969
-78.7169
-80.485
-80.6612
-80.9057
-81.2294
-81.3544
-81.0471
-80.226
-79.7769
-79.3696
-79.4859
-79.1217
-72.8589
-74.0384
-73.9446
-76.2363
-75.5668
-74.9679
-79.3922
-78.5675
-76.9429
-83.3608
-81.9076
-79.7234
-77.4201
-85.0799
-84.7097
-82.3847
-79.6764
-77.224
-85.3796
-85.7078
-84.4544
-81.5322
-78.466
-76.8522
-84.8824
-85.0889
-84.3542
-81.9833
-79.809
-78.4243
-76.8399
-83.1397
-83.9921
-83.1885
-81.6195
-80.5929
-79.4208
-77.8172
-76.4568
-81.6398
-82.2609
-81.7817
-81.1965
-80.6058
-79.902
-78.6084
-77.5237
-76.8471
-80.212
-80.8793
-80.8586
-80.7445
-80.4938
-80.0766
-78.9276
-78.3317
-77.6972
-77.395
-80.487
-80.7309
-81.0519
-81.1946
-81.1649
-80.774
-79.82
-79.278
-78.795
-78.7082
-78.3126
-80.4841
-80.6701
-80.9112
-81.2333
-81.3396
-81.0289
-80.2119
-79.7634
-79.3511
-79.49
-79.1155
-78.5643
-71.3113
-72.0268
-72.8581
-72.8458
-74.4065
-74.0115
-73.5792
-76.5107
-76.0387
-75.2349
-74.2002
-80.1305
-79.0383
-77.1229
-75.9128
-83.6379
-82.6362
-80.7182
-78.0384
-76.1088
-85.0213
-85.0688
-83.347
-80.5036
-77.7216
-76.0268
-85.1703
-85.7063
-85.033
-82.22
-78.8991
-77.1899
-75.7187
-84.4035
-85.1206
-84.6415
-82.5111
-80.2389
-78.8277
-77.2271
-76.1278
-82.8687
-83.9344
-83.4962
-82.0249
-80.9709
-79.8195
-78.1631
-76.6977
-75.4028
-81.3647
-82.14
-81.8561
-81.3556
-80.8458
-80.1946
-78.9156
-77.7612
-76.9209
-76.6179
-80.1117
-80.7853
-80.8731
-80.848
-80.6015
-80.1995
-79.1179
-78.4316
-77.7599
-77.3604
-76.8435
-80.444
-80.7463
-81.0793
-81.2318
-81.1744
-80.7493
-79.8079
-79.2967
-78.7632
-78.6996
-78.253
-78.1128
-80.4889
-80.6701
-80.9144
-81.235
-81.3226
-81.0106
-80.1986
-79.753
-79.3387
-79.4985
-79.0993
-78.5476
-77.8678
-70.87
-71.4018
-71.3679
-72.076
-72.0288
-73.0358
-73.0636
-72.6457
-74.5127
-74.1156
-73.7842
-73.031
-76.7179
-76.4154
-75.2324
-74.5223
-73.5656
-80.6959
-79.5048
-78.0637
-76.1523
-74.9759
-83.7015
-83.3041
-81.5636
-78.8936
-76.4305
-74.9981
-84.9394
-85.3585
-84.3265
-81.4935
-78.342
-76.3945
-74.9593
-84.9469
-85.6113
-85.4852
-82.9525
-79.4286
-77.5969
-75.9848
-74.7656
-83.9088
-85.1298
-84.835
-82.9551
-80.6823
-79.261
-77.5599
-76.2627
-75.3164
-82.5111
-83.8335
-83.7289
-82.3726
-81.3494
-80.2361
-78.5777
-76.9687
-75.5975
-75.2086
-81.0849
-81.9822
-81.8984
-81.5042
-81.0379
-80.4846
-79.2291
-77.9699
-77.0814
-76.6428
-76.042
-79.9908
-80.6948
-80.8852
-80.9346
-80.7064
-80.331
-79.2864
-78.4995
-77.8778
-77.3519
-76.7839
-77.1093
-80.408
-80.7617
-81.0998
-81.2648
-81.1874
-80.7303
-79.8013
-79.2744
-78.7624
-78.7545
-78.2061
-78.0638
-77.6527
-80.4933
-80.6719
-80.9156
-81.2335
-81.3108
-80.9938
-80.1867
-79.7476
-79.3334
-79.5109
-79.0865
-78.5311
-77.8503
-77.3951
-70.5874
-70.9126
-70.9048
-71.4358
-71.3837
-71.2844
-72.0214
-72.2174
-72.0095
-73.1415
-73.0469
-72.9077
-72.4769
-74.5746
-74.5479
-74.0163
-73.3422
-72.8082
-76.8523
-76.7029
-75.8089
-74.793
-73.9505
-73.1415
-81.0121
-80.1899
-78.7032
-76.7875
-75.2828
-74.0637
-83.9622
-83.8191
-82.4313
-79.6336
-76.9535
-75.3318
-74.2746
-84.7269
-85.5059
-85.044
-82.3704
-78.9178
-76.8182
-75.2593
-73.8667
-84.5715
-85.5827
-85.7922
-83.7226
-80.0037
-78.0141
-76.3633
-74.9119
-74.6129
-83.4561
-85.0182
-84.9775
-83.3618
-81.1221
-79.7234
-77.893
-76.437
-75.4993
-74.656
-82.0982
-83.6186
-83.8262
-82.686
-81.7436
-80.6487
-79.0033
-77.3277
-75.8422
-75.3475
-74.9744
-80.7441
-81.7995
-81.893
-81.6321
-81.2242
-80.7338
-79.5346
-78.1594
-77.2403
-76.6818
-75.9165
-75.8966
-79.8489
-80.6056
-80.8878
-81.01
-80.8107
-80.4619
-79.4608
-78.5821
-77.9225
-77.3599
-76.75
-76.9903
-77.2169
-80.378
-80.7663
-81.1125
-81.2917
-81.1942
-80.7143
-79.8006
-79.2348
-78.8647
-78.7707
-78.1597
-78.0085
-77.5936
-77.3728
-80.4963
-80.6802
-80.9148
-81.2296
-81.2997
-80.9759
-80.1735
-79.7442
-79.3335
-79.5239
-79.0736
-78.5154
-77.8341
-77.3868
-76.7798
-70.2606
-70.5415
-70.6
-70.9322
-70.991
-70.9258
-71.4661
-71.4619
-71.4906
-71.2475
-72.1758
-72.3214
-72.0081
-71.9034
-73.1799
-73.1904
-73.0377
-72.6056
-72.2376
-74.6442
-74.756
-74.1184
-73.5866
-72.9748
-72.5407
-77.1276
-77.0041
-76.2873
-75.0729
-74.3248
-73.3517
-72.6098
-81.1975
-80.8286
-79.481
-77.4937
-75.7006
-74.2667
-73.324
-83.8079
-84.112
-83.3119
-80.5539
-77.6029
-75.7204
-74.492
-73.559
-84.3665
-85.5154
-85.6462
-83.2196
-79.667
-77.2799
-75.605
-74.1411
-73.2773
-83.9368
-85.4628
-86.0911
-84.3289
-80.6189
-78.4758
-76.7217
-75.1059
-74.7407
-73.9632
-82.9376
-84.8105
-85.0806
-83.7007
-81.5832
-80.1819
-78.3423
-76.7138
-75.7016
-74.9369
-74.3624
-81.6286
-83.3971
-83.7949
-82.962
-82.1425
-81.0745
-79.4122
-77.7522
-76.1033
-75.5301
-74.9375
-74.7625
-80.5234
-81.5866
-81.8591
-81.7476
-81.3931
-80.915
-79.8541
-78.3387
-77.3777
-76.6564
-75.8309
-75.793
-76.1038
-79.7578
-80.5232
-80.8781
-81.0683
-80.9123
-80.5674
-79.6442
-78.7264
-77.9707
-77.3648
-76.7331
-76.8891
-77.1514
-77.1525
-80.3537
-80.7654
-81.1137
-81.3073
-81.1972
-80.7023
-79.8041
-79.2377
-78.8721
-78.7593
-78.1255
-77.9687
-77.552
-77.3394
-77.0667
-80.5006
-80.6863
-80.9127
-81.2242
-81.2839
-80.9618
-80.161
-79.7435
-79.3413
-79.538
-79.0633
-78.5012
-77.8202
-77.3788
-76.7735
-76.4645
-70.0383
-70.2344
-70.267
-70.5553
-70.662
-70.6124
-70.9667
-70.9607
-71.0421
-70.9131
-71.5567
-71.6184
-71.4877
-71.3928
-71.0277
-72.2098
-72.1236
-72.1684
-71.9186
-71.597
-73.3135
-73.3393
-73.0252
-72.8535
-72.3213
-71.8584
-74.4124
-75.0227
-74.5412
-73.7805
-73.1908
-72.5721
-72.0528
-77.1314
-77.3501
-76.7875
-75.5747
-74.4723
-73.7011
-72.7289
-72.2624
-81.3085
-81.5677
-80.2212
-78.2722
-76.2393
-74.6096
-73.5385
-72.8465
-83.2766
-84.2827
-83.9455
-81.4207
-78.3041
-76.0527
-74.8619
-73.7701
-72.9076
-83.8984
-85.3216
-86.1557
-84.0957
-80.4622
-77.7968
-76.0329
-74.461
-73.4087
-72.9622
-83.2224
-85.132
-86.1233
-84.8402
-81.2633
-78.9654
-77.0892
-75.4675
-74.8646
-74.1311
-73.8675
-82.1919
-84.5004
-85.1892
-84.0925
-82.0728
-80.6848
-78.8141
-77.0727
-75.922
-75.0658
-74.3175
-74.0513
-81.0016
-83.1018
-83.7426
-83.2063
-82.5088
-81.5303
-79.8759
-78.1978
-76.4561
-75.7387
-74.9866
-74.6584
-74.8443
-80.3309
-81.3266
-81.7707
-81.8419
-81.576
-81.1016
-80.143
-78.5545
-77.5342
-76.6715
-75.8652
-75.6999
-75.8619
-76.2114
-79.7335
-80.4404
-80.8742
-81.112
-80.999
-80.6539
-79.8053
-78.8765
-78.132
-77.4007
-76.7391
-76.7924
-77.0391
-76.9953
-77.2094
-80.3363
-80.7691
-81.107
-81.3151
-81.192
-80.6937
-79.8079
-79.2337
-78.8218
-78.7887
-78.1085
-77.9453
-77.53
-77.3268
-76.9871
-76.8029
-80.5063
-80.6883
-80.9084
-81.2184
-81.2641
-80.949
-80.1504
-79.7446
-79.3555
-79.5527
-79.0614
-78.4885
-77.8088
-77.3701
-76.7721
-76.4546
-76.021
-69.9542
-70.0997
-70.1191
-70.3049
-70.3115
-70.3235
-70.6889
-70.6498
-70.5428
-70.6334
-70.9911
-70.9703
-71.0317
-70.9008
-70.8085
-71.5815
-71.7258
-71.5273
-71.435
-71.1284
-70.9575
-72.2086
-72.3607
-72.2839
-72.0206
-71.7338
-71.3878
-73.2035
-73.3237
-73.2627
-73.0125
-72.508
-72.0098
-71.6109
-74.1948
-75.3745
-74.7261
-74.02
-73.425
-72.8161
-72.2426
-71.6899
-77.1434
-77.6968
-77.2983
-76.0267
-74.9045
-73.8797
-72.9568
-72.3487
-71.8489
-81.1394
-82.305
-80.893
-79.0808
-76.7208
-75.1253
-73.7722
-73.0647
-72.3013
-82.5149
-84.3605
-84.4229
-82.4287
-79.0728
-76.5996
-75.1578
-74.0151
-73.0849
-72.5492
-82.8882
-85.1517
-86.4779
-84.8213
-81.2342
-78.3174
-76.447
-74.7539
-73.722
-73.1074
-72.7732
-82.4098
-84.7099
-85.9388
-85.3068
-81.9459
-79.4363
-77.5424
-75.8789
-75.007
-74.2705
-73.9842
-73.7799
-81.3314
-84.0932
-85.0478
-84.4152
-82.5365
-81.1453
-79.2529
-77.4504
-76.2467
-75.2567
-74.4297
-74.0101
-74.1474
-80.5053
-82.6982
-83.6355
-83.4447
-82.7933
-81.9883
-80.3962
-78.6564
-76.832
-75.8734
-75.0083
-74.5182
-74.542
-75.2836
-80.124
-81.0899
-81.6473
-81.8857
-81.7666
-81.2812
-80.4346
-78.8804
-77.7344
-76.8127
-75.8911
-75.6667
-75.6275
-76.0469
-76.6027
-79.6934
-80.3687
-80.8528
-81.1335
-81.0761
-80.7319
-79.9352
-78.9911
-78.2359
-77.4575
-76.7729
-76.7214
-76.8936
-76.8967
-76.796
-76.6274
-80.3229
-80.7694
-81.0948
-81.3165
-81.1781
-80.6821
-79.8122
-79.2262
-78.8796
-78.8722
-78.1225
-77.9267
-77.5082
-77.3269
-76.8973
-76.7424
-76.4508
-80.5122
-80.6849
-80.9011
-81.2076
-81.2449
-80.9351
-80.1414
-79.7435
-79.3744
-79.5684
-79.0611
-78.4778
-77.7999
-77.3628
-76.7753
-76.4455
-76.0157
-76.1715
-69.7957
-69.9709
-70.0374
-70.1301
-70.1727
-70.2025
-70.3143
-70.3863
-70.356
-70.155
-70.6716
-70.6924
-70.7253
-70.3849
-70.4401
-70.9507
-71.0968
-71.0435
-70.942
-70.8092
-70.641
-71.5624
-71.6768
-71.6975
-71.4538
-71.2795
-70.9969
-70.7836
-72.2295
-72.4004
-72.3576
-72.1719
-71.8269
-71.5253
-71.1941
-73.098
-73.4777
-73.4317
-72.9822
-72.7477
-72.1552
-71.763
-71.2996
-74.3037
-75.2887
-75.155
-74.4003
-73.6547
-73.0985
-72.4096
-71.8441
-71.5218
-77.2645
-78.1995
-77.7992
-76.6455
-75.2402
-74.1214
-73.1938
-72.4793
-71.9926
-71.6252
-80.7096
-82.5527
-81.7077
-79.7204
-77.4104
-75.4421
-74.0904
-73.1986
-72.4914
-72.069
-82.1024
-84.5625
-84.6797
-83.2883
-80.0232
-77.1738
-75.4129
-74.1904
-73.2143
-72.7173
-72.4324
-81.7343
-85.0355
-86.2976
-85.4152
-82.0457
-78.9114
-76.909
-75.0622
-74.0338
-73.3591
-72.973
-72.6812
-81.5719
-84.0944
-85.7229
-85.7122
-82.6912
-79.954
-77.9391
-76.313
-75.2268
-74.3808
-74.0501
-73.9203
-73.5993
-80.5992
-83.4444
-84.8968
-84.6258
-82.9915
-81.6128
-79.7916
-77.8761
-76.5058
-75.4985
-74.6422
-73.9925
-73.7087
-73.8579
-80.2014
-82.2861
-83.5227
-83.4763
-83.0122
-82.4104
-80.9858
-79.0586
-77.2003
-76.0666
-75.0357
-74.5017
-74.553
-75.1155
-75.2598
-79.9984
-80.9175
-81.5237
-81.896
-81.9049
-81.5022
-80.7159
-79.235
-77.9449
-76.9216
-75.9427
-75.6516
-75.5624
-75.9214
-76.1437
-76.2553
-79.7033
-80.315
-80.8028
-81.1332
-81.1386
-80.8012
-80.0563
-79.1185
-78.3571
-77.5365
-76.7967
-76.6803
-76.8345
-76.68
-76.36
-76.4666
-76.4686
-80.3213
-80.768
-81.0742
-81.3112
-81.1521
-80.6672
-79.8257
-79.236
-78.9378
-78.8755
-78.148
-77.8985
-77.4956
-77.3314
-76.8101
-76.6667
-76.4034
-76.1488
-80.5166
-80.6741
-80.8922
-81.1887
-81.2226
-80.9207
-80.1316
-79.7383
-79.3981
-79.5896
-79.0616
-78.4689
-77.7921
-77.3566
-76.7784
-76.432
-76.0062
-76.1667
-76.5764
-69.7827
-69.8293
-69.8694
-69.9926
-70.0772
-70.0834
-70.0992
-70.1844
-70.204
-70.0706
-70.3188
-70.3043
-70.372
-70.3412
-70.1646
-70.6592
-70.7272
-70.6742
-70.592
-70.4869
-70.3262
-71.0406
-71.1528
-71.136
-71.0663
-70.8715
-70.6725
-70.5508
-71.4972
-71.7687
-71.7744
-71.5794
-71.3389
-71.0996
-70.89
-70.672
-72.3105
-72.4219
-72.55
-72.2989
-72.0104
-71.6485
-71.3077
-70.9288
-73.0439
-73.6068
-73.5165
-73.3836
-72.8142
-72.3243
-71.8883
-71.4602
-71.0846
-74.6723
-75.3497
-75.5958
-74.6727
-73.992
-73.1264
-72.5917
-71.9709
-71.6098
-71.2459
-77.2666
-78.5929
-78.425
-77.2274
-75.4929
-74.4309
-73.3414
-72.6809
-72.1459
-71.6973
-71.4086
-80.2124
-83.2606
-82.2319
-80.5719
-78.1311
-75.8539
-74.4804
-73.4058
-72.6523
-72.1094
-71.9722
-81.0284
-84.2191
-84.7175
-84.0805
-80.8347
-77.6893
-75.8717
-74.4416
-73.4429
-72.8363
-72.5657
-72.1764
-80.617
-84.5673
-86.2013
-85.9291
-82.8535
-79.6322
-77.4527
-75.4227
-74.2392
-73.4721
-73.059
-72.7463
-72.4845
-80.6232
-83.3842
-85.4385
-85.7997
-83.3705
-80.5956
-78.5451
-76.7637
-75.4238
-74.5924
-74.184
-73.9095
-73.5571
-73.1756
-80.0284
-82.6393
-84.7012
-84.7579
-83.3976
-82.0952
-80.3271
-78.2559
-76.7192
-75.7516
-74.827
-74.0779
-73.8593
-73.8491
-74.2945
-79.8018
-81.6569
-83.3086
-83.4899
-83.2312
-82.7456
-81.6556
-79.514
-77.5851
-76.2144
-75.1528
-74.6443
-75.2821
-75.1734
-75.0571
-75.0809
-79.9066
-80.7282
-81.3986
-81.8838
-82.0012
-81.7352
-80.9184
-79.541
-78.1895
-77.0887
-76.0265
-75.639
-75.8571
-75.8985
-75.7611
-75.9683
-76.402
-79.7494
-80.277
-80.7501
-81.1082
-81.1846
-80.8598
-80.164
-79.2818
-78.5367
-77.6355
-76.8274
-76.653
-76.8215
-76.5798
-76.0942
-76.2842
-76.2972
-76.174
-80.3214
-80.765
-81.0499
-81.3046
-81.1171
-80.6552
-79.8458
-79.2551
-78.9981
-78.8623
-78.1612
-77.877
-77.4892
-77.3586
-76.7667
-76.5995
-76.3528
-76.1443
-76.4806
-80.5197
-80.6592
-80.8824
-81.1667
-81.1972
-80.9066
-80.1185
-79.7324
-79.4262
-79.6118
-79.0634
-78.4622
-77.7846
-77.3524
-76.7738
-76.415
-75.9927
-76.1616
-76.5741
-76.8049
-69.6781
-69.8593
-69.8265
-69.8338
-69.8606
-69.8554
-70.043
-70.1179
-70.1399
-70.1311
-70.2044
-70.2074
-70.1472
-70.1505
-69.9899
-70.3756
-70.3989
-70.4053
-70.3295
-70.2676
-70.1246
-70.5306
-70.7437
-70.7389
-70.6657
-70.5079
-70.3714
-70.1962
-70.951
-71.1222
-71.2179
-71.0938
-70.9845
-70.7403
-70.5811
-70.3976
-71.5275
-71.7692
-71.8008
-71.6361
-71.4518
-71.2069
-70.9369
-70.6125
-70.4271
-72.2543
-72.4846
-72.5717
-72.4183
-72.2072
-71.7954
-71.4392
-71.1501
-70.7519
-72.972
-73.3605
-73.7421
-73.461
-73.0375
-72.4445
-71.9908
-71.5806
-71.1723
-70.9293
-74.7209
-75.7027
-75.8308
-75.2154
-74.1911
-73.3962
-72.7266
-72.1411
-71.7456
-71.3961
-71.1274
-76.1599
-79.2838
-78.9916
-77.7419
-76.145
-74.7441
-73.6381
-72.8293
-72.2904
-71.8016
-71.456
-71.2992
-78.6676
-82.89
-82.941
-81.3166
-78.848
-76.3952
-74.7012
-73.732
-72.7871
-72.2741
-72.02
-71.7531
-80.0766
-83.8007
-84.8522
-84.6933
-81.6429
-78.4686
-76.358
-74.7296
-73.7324
-72.9509
-72.6078
-72.3095
-72.0671
-79.6177
-83.5881
-86.1113
-86.3429
-83.6681
-80.3879
-78.0686
-75.8882
-74.5428
-73.7223
-73.0213
-72.7906
-72.5926
-72.4414
-79.7187
-82.5733
-85.0203
-85.7538
-83.8997
-81.2213
-79.2406
-77.1857
-75.4618
-74.7701
-74.4019
-73.9967
-73.5957
-73.1125
-73.2768
-79.5384
-81.8336
-84.1487
-84.7005
-83.8078
-82.5796
-81.0018
-78.8192
-77.1344
-76.07
-74.8986
-74.1408
-73.9596
-73.8431
-74.0816
-73.6246
-79.4267
-81.1136
-83.058
-83.425
-83.4295
-82.9996
-82.3147
-80.0077
-78.0001
-76.4068
-75.3013
-74.5942
-75.0546
-74.9793
-74.8584
-74.8434
-75.8369
-79.7679
-80.5585
-81.2677
-81.8495
-82.0579
-81.9195
-81.0404
-79.8562
-78.4291
-77.4418
-76.1272
-75.6338
-75.7814
-75.8588
-75.4658
-75.71
-75.9559
-76.1073
-79.7645
-80.2617
-80.7171
-81.0614
-81.2131
-80.9014
-80.2562
-79.4377
-78.6732
-77.7099
-76.8884
-76.6566
-76.7651
-76.7501
-75.9222
-76.1111
-76.1276
-76.0507
-76.7576
-80.322
-80.7587
-81.0184
-81.2941
-81.0766
-80.6502
-79.8698
-79.2855
-79.0548
-78.918
-78.1851
-77.8691
-77.4843
-77.3893
-76.7507
-76.5397
-76.2954
-76.1374
-76.4458
-76.8324
-80.5221
-80.6443
-80.8703
-81.1425
-81.173
-80.8931
-80.1009
-79.7255
-79.4573
-79.6311
-79.0708
-78.4574
-77.7803
-77.3507
-76.7647
-76.3991
-75.976
-76.1498
-76.5708
-76.8034
-76.6024
-69.5891
-69.7345
-69.6372
-69.8769
-69.8787
-69.8035
-69.9537
-69.9114
-69.9046
-69.8416
-69.9809
-70.1749
-70.1353
-70.0237
-69.9306
-70.2438
-70.2528
-70.2379
-70.1943
-70.1095
-69.93
-70.2536
-70.3993
-70.471
-70.4247
-70.294
-70.1619
-69.9716
-70.5654
-70.7571
-70.7767
-70.7081
-70.5887
-70.4412
-70.268
-70.0489
-70.9324
-71.2205
-71.1957
-71.16
-70.9663
-70.853
-70.6041
-70.4804
-70.2874
-71.4607
-71.7644
-71.8399
-71.7554
-71.5616
-71.3459
-71.0101
-70.7369
-70.4692
-70.2779
-72.0218
-72.509
-72.6623
-72.5494
-72.271
-71.9054
-71.5803
-71.2529
-70.8736
-70.6069
-72.9419
-73.3616
-73.7586
-73.6096
-73.2709
-72.7234
-72.1812
-71.7682
-71.3218
-71.0439
-70.8028
-74.4237
-75.2323
-76.3824
-75.3333
-74.6512
-73.8367
-73.0575
-72.3218
-71.883
-71.4735
-71.2351
-70.9644
-76.5899
-79.4629
-79.5978
-78.2449
-76.8197
-75.1081
-74
-73.0152
-72.4271
-71.9383
-71.5195
-71.3735
-71.1439
-77.7537
-81.9016
-83.53
-82.2616
-79.6564
-76.8178
-75.1028
-73.8967
-72.9973
-72.4548
-72.041
-71.7946
-71.5627
-79.0258
-83.2552
-84.9548
-85.1801
-82.6231
-79.283
-76.8003
-75.083
-73.9389
-73.1064
-72.6811
-72.4013
-72.0771
-71.8827
-78.8558
-82.3941
-85.7449
-86.5382
-84.4422
-81.1447
-78.5727
-76.3487
-74.9003
-74.005
-73.0699
-72.8142
-72.7734
-72.6357
-72.6732
-78.9802
-81.5399
-84.3779
-85.6144
-84.2988
-81.9169
-79.7878
-77.6782
-75.9954
-74.982
-74.4996
-74.0583
-73.6851
-73.2466
-73.3634
-73.4171
-79.081
-81.0543
-83.4279
-84.554
-84.2229
-83.108
-81.6448
-79.4161
-77.6073
-76.3406
-75.1157
-74.2023
-73.7177
-73.5082
-73.7098
-74.4225
-74.4684
-79.1379
-80.6716
-82.6421
-83.2924
-83.5526
-83.2545
-82.9608
-80.4446
-78.3714
-76.6783
-75.4655
-74.6301
-74.3495
-74.7012
-74.8213
-74.8482
-75.3468
-76.1189
-79.6872
-80.3971
-81.1102
-81.7893
-82.0696
-82.0511
-81.2561
-80.1429
-78.6979
-77.5129
-76.1926
-75.6293
-75.6527
-75.7542
-75.5213
-75.4366
-75.5954
-75.9068
-76.5035
-79.7908
-80.2489
-80.6946
-81.0106
-81.2281
-80.9348
-80.3388
-79.5749
-78.7878
-77.7931
-76.9661
-76.6673
-76.7383
-76.6324
-75.8412
-75.9673
-75.9682
-75.9796
-76.6678
-76.894
-80.3241
-80.7617
-80.966
-81.2807
-81.0333
-80.6447
-79.8905
-79.3296
-79.112
-78.9532
-78.2486
-77.8685
-77.4832
-77.3607
-76.7197
-76.4892
-76.2349
-76.1074
-76.4071
-76.8062
-76.8574
-80.524
-80.6312
-80.8549
-81.1165
-81.146
-80.8798
-80.0793
-79.7206
-79.4888
-79.6527
-79.0793
-78.4552
-77.7776
-77.3501
-76.7555
-76.3841
-75.9566
-76.1254
-76.5683
-76.7988
-76.6031
-76.6026
-69.3835
-69.6143
-69.6211
-69.782
-69.7039
-69.5843
-69.8781
-69.9231
-69.8418
-69.8594
-69.9445
-69.9288
-69.9514
-69.9062
-69.7412
-70.0526
-70.1442
-70.1451
-70.1154
-69.935
-69.7748
-70.1875
-70.29
-70.2609
-70.1994
-70.097
-69.9455
-69.8063
-70.3251
-70.3947
-70.4522
-70.4345
-70.3663
-70.2286
-70.0803
-69.8213
-70.5858
-70.7379
-70.8009
-70.7408
-70.5781
-70.5098
-70.3257
-70.1606
-69.9423
-70.9431
-71.168
-71.2423
-71.1984
-71.0707
-70.9427
-70.6889
-70.4398
-70.3527
-70.046
-71.3635
-71.6772
-71.8327
-71.842
-71.6519
-71.4031
-71.1535
-70.8935
-70.5876
-70.3119
-70.1792
-72.021
-72.5581
-72.7232
-72.6057
-72.4013
-72.056
-71.6619
-71.3999
-70.9738
-70.7016
-70.4596
-72.7811
-73.2005
-74.0119
-73.7944
-73.3741
-72.9081
-72.2923
-71.9472
-71.5022
-71.1518
-70.833
-70.5993
-74.0245
-75.7554
-76.4638
-75.7328
-75.0032
-73.9887
-73.258
-72.5378
-72.0647
-71.5771
-71.2928
-71.0131
-70.831
-75.9566
-79.4229
-79.8732
-78.913
-77.4093
-75.5648
-74.2147
-73.2928
-72.5484
-72.007
-71.6842
-71.4129
-71.2166
-71.0034
-77.196
-81.2359
-83.5358
-83.0053
-80.336
-77.5119
-75.5564
-73.9949
-73.237
-72.6096
-72.0647
-71.8532
-71.6321
-71.3559
-77.711
-81.9781
-84.7759
-85.5274
-83.5603
-80.1497
-77.4254
-75.6716
-74.2705
-73.4212
-72.8977
-72.4441
-72.134
-71.929
-72.1301
-78.2439
-81.4469
-85.5012
-86.6755
-85.0306
-81.8336
-79.0073
-76.6407
-75.213
-74.1269
-73.2434
-72.811
-72.8014
-72.5966
-72.5702
-72.6392
-78.4511
-80.4519
-83.3983
-85.5402
-84.6602
-82.6171
-80.4534
-78.3018
-76.5792
-75.2313
-74.4918
-74.033
-73.7076
-73.3376
-73.2054
-73.3983
-73.3895
-78.3852
-80.4329
-82.7316
-84.3844
-84.4437
-83.6103
-82.3137
-79.9698
-77.9583
-76.5367
-75.332
-74.2904
-73.9076
-73.3751
-74.0928
-74.1479
-74.0427
-74.9888
-78.8312
-80.1439
-81.9586
-83.0028
-83.5392
-83.4357
-83.3957
-80.9069
-78.7428
-77.0289
-75.6298
-74.7022
-74.7307
-74.9241
-74.6961
-74.5007
-74.9259
-75.5642
-76.5135
-79.6714
-80.2486
-80.9232
-81.7167
-82.0727
-82.1221
-81.5959
-80.371
-79.006
-77.4483
-76.2621
-75.6356
-75.6439
-75.6254
-75.2695
-75.2093
-75.3438
-75.6721
-76.3417
-76.5588
-79.8173
-80.2404
-80.6804
-80.9472
-81.233
-80.976
-80.4156
-79.7021
-78.9155
-77.907
-77.0729
-76.6653
-76.7522
-76.4582
-75.8093
-75.8459
-75.8017
-75.951
-76.5684
-76.8578
-76.7125
-80.3272
-80.7647
-80.9111
-81.2674
-80.9904
-80.6256
-79.9047
-79.3783
-79.1821
-78.9826
-78.27
-77.8706
-77.4912
-77.3338
-76.6823
-76.4479
-76.175
-76.0663
-76.3694
-76.7867
-76.8464
-76.694
-80.5265
-80.6199
-80.8388
-81.088
-81.1155
-80.8683
-80.0625
-79.7183
-79.5192
-79.678
-79.0813
-78.4555
-77.7744
-77.3494
-76.746
-76.3688
-75.9371
-76.0929
-76.5701
-76.7937
-76.6008
-76.5965
-76.3415
-69.4547
-69.4128
-69.6772
-69.6519
-69.5926
-69.7267
-69.7186
-69.6272
-69.5742
-69.8678
-69.8819
-69.8826
-69.8221
-69.641
-69.896
-69.9985
-69.9301
-69.8953
-69.701
-69.5849
-70.0939
-70.1451
-70.1649
-70.0927
-69.9866
-69.8158
-69.6389
-70.1437
-70.2727
-70.2727
-70.2353
-70.1028
-69.9842
-69.8169
-69.6803
-70.3806
-70.3992
-70.4712
-70.4024
-70.3789
-70.2869
-70.1512
-69.9369
-69.7124
-70.611
-70.6926
-70.7695
-70.7166
-70.648
-70.5198
-70.4114
-70.1384
-69.9795
-69.8007
-70.8323
-71.1881
-71.2093
-71.2311
-71.131
-70.9399
-70.7682
-70.5422
-70.3643
-70.1291
-69.9385
-71.2639
-71.5746
-71.9014
-71.821
-71.7165
-71.5172
-71.2041
-70.9641
-70.7102
-70.3941
-70.2194
-70.0285
-72.0505
-72.3599
-72.7993
-72.7824
-72.5104
-72.1676
-71.6432
-71.4899
-71.0948
-70.842
-70.5453
-70.3832
-72.3608
-73.4593
-74.3206
-73.7737
-73.6447
-73.0912
-72.5017
-72.0546
-71.6021
-71.2269
-70.8837
-70.7073
-70.4615
-73.7091
-76.1023
-76.4682
-76.1433
-75.2421
-74.3304
-73.4624
-72.7807
-72.1476
-71.6833
-71.3582
-71.0856
-70.8545
-70.6686
-75.7076
-78.7643
-79.7061
-79.5299
-78.0195
-76.051
-74.7154
-73.517
-72.7858
-72.1028
-71.7691
-71.4678
-71.209
-71.0558
-71.1084
-76.3307
-80.1163
-83.2984
-83.4712
-81.3735
-78.4164
-75.9448
-74.5814
-73.432
-72.7799
-72.1651
-71.948
-71.6617
-71.4559
-71.4038
-76.8844
-80.7393
-84.6296
-85.5789
-84.2679
-80.9868
-77.9841
-76.1969
-74.5552
-73.6178
-72.9731
-72.6577
-72.186
-72.0347
-71.9664
-71.7779
-77.3869
-80.8108
-84.6798
-86.5356
-85.5033
-82.5034
-79.5339
-77.0541
-75.6304
-74.326
-73.3633
-72.9083
-72.7696
-72.5445
-72.4467
-72.4406
-72.3009
-78.1366
-79.8734
-82.4236
-85.1608
-84.915
-83.2967
-81.1102
-78.958
-76.9769
-75.3645
-74.4885
-73.9984
-73.7134
-73.3001
-73.0825
-72.9168
-72.814
-74.7399
-77.8286
-79.9469
-82.0953
-84.1248
-84.495
-84.0565
-82.9266
-80.5614
-78.4072
-76.8013
-75.5668
-74.3994
-73.9341
-73.3627
-73.6334
-73.4691
-73.9816
-74.7741
-75.9466
-78.659
-79.7892
-81.2497
-82.6782
-83.4323
-83.5406
-83.6339
-81.3765
-79.1651
-77.3185
-75.8076
-74.8659
-74.7243
-74.779
-74.5759
-74.4224
-74.6495
-75.1288
-76.1585
-76.6343
-79.6878
-80.1024
-80.7431
-81.5989
-82.0395
-82.1512
-81.8225
-80.5642
-79.2436
-77.712
-76.3593
-75.6305
-75.6639
-75.5927
-75.1379
-75.063
-75.1767
-75.4219
-76.1563
-76.4637
-76.5818
-79.862
-80.2164
-80.6385
-80.8842
-81.2583
-81.019
-80.4805
-79.8126
-79.0404
-78.0097
-77.152
-76.6905
-76.767
-76.4366
-75.8047
-75.7313
-75.6355
-75.8378
-76.4796
-76.8199
-76.726
-76.4795
-80.3309
-80.7708
-80.8568
-81.2468
-80.971
-80.593
-79.934
-79.4294
-79.2604
-79.0072
-78.3067
-77.8672
-77.5002
-77.3088
-76.6464
-76.409
-76.1164
-76.0527
-76.3502
-76.7756
-76.8328
-76.7018
-76.5244
-80.5299
-80.6111
-80.8252
-81.0582
-81.0864
-80.8597
-80.042
-79.7155
-79.5481
-79.6986
-79.0867
-78.458
-77.7713
-77.3498
-76.7364
-76.3546
-75.9179
-76.0688
-76.5768
-76.7874
-76.5943
-76.5884
-76.3296
-76.4072
-69.4116
-69.4319
-69.3891
-69.7002
-69.617
-69.5924
-69.5111
-69.7544
-69.7261
-69.6414
-69.5711
-69.4143
-69.8173
-69.8653
-69.91
-69.8135
-69.614
-69.4764
-69.9126
-69.9788
-69.9799
-69.8774
-69.7757
-69.6108
-69.4522
-69.9792
-70.1922
-70.2
-70.1109
-69.9844
-69.8567
-69.7073
-69.5265
-70.155
-70.2902
-70.2986
-70.2487
-70.1578
-70.0027
-69.9162
-69.7002
-69.5455
-70.3513
-70.5006
-70.4842
-70.4708
-70.3297
-70.3322
-70.1764
-69.976
-69.7608
-69.64
-70.5428
-70.6466
-70.7643
-70.7663
-70.6993
-70.5319
-70.427
-70.2556
-70.0272
-69.8864
-69.6301
-71.0238
-71.1084
-71.2491
-71.2531
-71.1872
-71.0132
-70.8777
-70.5929
-70.4367
-70.2076
-69.9553
-69.7771
-71.3117
-71.5339
-71.8509
-71.8943
-71.8275
-71.6257
-71.3125
-71.0724
-70.8206
-70.5301
-70.2698
-70.0899
-69.9106
-71.9176
-72.2855
-72.9943
-72.792
-72.6856
-72.3493
-71.8985
-71.5751
-71.1345
-70.8722
-70.6486
-70.4118
-70.2132
-72.3151
-73.4528
-74.2996
-74.1866
-73.8076
-73.3101
-72.6437
-72.213
-71.7146
-71.3984
-70.9555
-70.7594
-70.5269
-70.3644
-72.9547
-75.873
-76.8132
-76.3785
-75.7199
-74.6695
-73.6253
-72.9112
-72.2878
-71.8159
-71.4932
-71.1062
-70.9047
-70.7081
-70.6165
-74.9903
-78.6607
-79.8743
-80.0692
-78.7484
-76.7073
-75.071
-73.7632
-72.9981
-72.2329
-71.8932
-71.527
-71.3249
-71.0828
-70.709
-70.7396
-76.002
-79.6297
-82.7678
-83.8594
-82.2893
-79.2432
-76.4385
-74.8757
-73.6944
-72.9005
-72.3337
-71.9458
-71.6722
-71.3864
-71.4197
-71.1865
-76.1764
-79.4307
-83.9807
-85.7873
-84.8889
-81.8293
-78.7267
-76.4078
-74.9313
-73.8303
-73.052
-72.7555
-72.2767
-72.0219
-71.9033
-71.8488
-71.6107
-76.7315
-80.0398
-83.6171
-86.2827
-85.8023
-83.2311
-80.063
-77.6752
-76.1263
-74.6441
-73.5301
-73.0043
-72.682
-72.58
-72.4655
-72.4595
-72.2802
-73.2537
-77.9511
-79.636
-81.3846
-84.73
-85.0512
-83.9426
-81.7242
-79.5557
-77.4722
-75.6114
-74.5411
-73.8962
-73.6728
-73.335
-73.057
-73.2001
-73.0105
-74.2804
-75.1125
-77.4726
-79.5033
-81.4903
-83.75
-84.4831
-84.4157
-83.4679
-81.1924
-78.9239
-77.1117
-75.8735
-74.5207
-74.0752
-73.5627
-73.6659
-73.6545
-73.6556
-74.332
-75.5498
-76.8017
-78.6039
-79.5688
-80.7306
-82.3042
-83.2875
-83.6603
-83.7854
-81.8664
-79.607
-77.7096
-75.9678
-75.0344
-74.7861
-74.5163
-74.4332
-74.3053
-74.527
-74.8139
-75.7115
-76.3725
-76.6596
-79.7003
-79.9916
-80.5656
-81.4307
-81.9673
-82.1489
-81.9386
-80.7104
-79.5004
-77.9311
-76.482
-75.6489
-75.6844
-75.6186
-75.1058
-74.9268
-75.0178
-75.2472
-75.9601
-76.3551
-76.5864
-76.4829
-79.9111
-80.1897
-80.594
-80.7921
-81.343
-81.0445
-80.5381
-79.9142
-79.1558
-78.09
-77.2545
-76.7228
-76.7828
-76.4391
-75.7815
-75.6316
-75.5261
-75.6746
-76.3588
-76.774
-76.7388
-76.5084
-76.3655
-80.3456
-80.7759
-80.8012
-81.2135
-80.9784
-80.552
-79.9678
-79.4811
-79.3458
-79.0731
-78.3298
-77.8911
-77.5233
-77.2835
-76.6151
-76.3627
-76.0533
-76.0029
-76.3365
-76.7593
-76.8126
-76.7021
-76.5252
-76.6635
-80.6046
-80.8135
-81.0233
-81.0584
-80.8548
-80.0232
-79.712
-79.578
-79.7115
-79.1002
-78.4615
-77.7682
-77.3528
-76.7279
-76.3422
-75.8983
-76.0401
-76.5876
-76.7795
-76.5825
-76.5796
-76.319
-76.4107
-76.5587
-69.4071
-69.5322
-69.3884
-69.3198
-69.6279
-69.827
-69.6202
-69.5352
-69.3493
-69.7381
-69.7259
-69.676
-69.5851
-69.4151
-69.2891
-69.7862
-69.9866
-69.9066
-69.8085
-69.6813
-69.5096
-69.3618
-69.8736
-69.9595
-69.983
-69.9426
-69.7768
-69.6473
-69.4875
-69.3561
-70.0849
-70.1346
-70.214
-70.1621
-70.0138
-69.8624
-69.7485
-69.5627
-69.3923
-70.1749
-70.2743
-70.3163
-70.3197
-70.1742
-70.0038
-70.0068
-69.763
-69.5743
-69.4468
-70.353
-70.4062
-70.5084
-70.4461
-70.4168
-70.3566
-70.2319
-70.06
-69.8557
-69.6416
-69.4469
-70.632
-70.6855
-70.7473
-70.8283
-70.7677
-70.6284
-70.442
-70.3111
-70.1006
-69.9484
-69.719
-69.5708
-70.9125
-71.1181
-71.2857
-71.2028
-71.2468
-71.1041
-70.8513
-70.7206
-70.4679
-70.2841
-70.0331
-69.8078
-69.648
-71.4893
-71.3864
-71.8708
-72.0527
-71.8541
-71.716
-71.3455
-71.1214
-70.8952
-70.5795
-70.3602
-70.1211
-69.9762
-69.849
-71.7906
-72.2918
-73.0323
-72.8641
-72.8228
-72.4761
-72.0747
-71.6469
-71.2791
-70.9677
-70.6987
-70.4669
-70.2894
-70.0834
-72.1417
-73.3394
-74.6075
-74.5068
-74.0157
-73.5007
-72.8607
-72.3238
-71.8739
-71.4713
-71.124
-70.8275
-70.5919
-70.4038
-70.2964
-72.6122
-76.0491
-76.8758
-76.6599
-76.1167
-75.0373
-73.8829
-72.8398
-72.4046
-71.9635
-71.5701
-71.2099
-71.014
-70.759
-70.5417
-70.4931
-74.1178
-77.1526
-79.6081
-80.5226
-79.5843
-77.4841