/*--------------------------------*- C++ -*----------------------------------*\
  =========                 |
  \\      /  F ield         | OpenFOAM: The Open Source CFD Toolbox
   \\    /   O peration     | Website:  https://openfoam.org
    \\  /    A nd           | Version:  7
     \\/     M anipulation  |
\*---------------------------------------------------------------------------*/
FoamFile
{
    version     2.0;
    format      ascii;
    class       volVectorField;
    location    "6";
    object      U;
}
// * * * * * * * * * * * * * * * * * * * * * * * * * * * * * * * * * * * * * //

dimensions      [0 1 -1 0 0 0 0];

internalField   nonuniform List<vector> 
18780
(
(-0.241649 0.524186 -1.67199)
(0.28758 0.366584 -2.10246)
(-0.230982 0.510002 -1.67658)
(-0.00350352 0.759735 -1.59832)
(0.273056 0.340836 -1.95006)
(0.311129 0.290444 -2.12601)
(0.23273 0.74516 -1.96115)
(-0.228041 0.487415 -1.68221)
(0.000866496 0.736681 -1.599)
(-0.163118 0.55443 -1.19845)
(-0.131232 0.251269 -1.41539)
(0.306782 0.165992 -2.0152)
(0.131838 0.666067 -1.87885)
(0.329419 0.192861 -2.14553)
(0.250275 0.689691 -1.96675)
(0.58955 0.826059 -1.63407)
(-0.219982 0.467789 -1.68352)
(0.00324935 0.731936 -1.5917)
(-0.160895 0.544353 -1.1987)
(-0.354733 0.503603 -0.945668)
(-0.241122 0.0251979 -1.1145)
(-0.0896145 0.171039 -1.54967)
(-0.148567 0.766681 -1.29933)
(0.320421 -0.00385155 -2.08376)
(0.145831 0.668565 -1.84994)
(0.555457 0.904925 -1.52999)
(0.342419 0.0537327 -2.16099)
(0.27236 0.654289 -1.96691)
(0.578416 0.802313 -1.62604)
(0.767616 0.809809 -1.59136)
(-0.209832 0.451848 -1.68179)
(0.00800174 0.730919 -1.58479)
(-0.164592 0.519651 -1.20505)
(-0.358438 0.490139 -0.951777)
(-0.550517 0.0945705 -0.909233)
(0.613125 0.264229 0.445272)
(-0.232446 -0.0234605 -1.27065)
(0.0705506 1.20257 -0.632873)
(-0.0433354 0.105894 -1.66064)
(-0.136042 0.77187 -1.2102)
(0.211801 1.18146 -0.805445)
(0.338701 -0.137991 -2.12545)
(0.192802 0.556718 -1.91865)
(0.528306 0.933403 -1.46417)
(0.805265 0.954572 -1.33013)
(0.361481 -0.0479644 -2.16567)
(0.290517 0.609876 -1.97222)
(0.564551 0.77905 -1.62289)
(0.748035 0.672154 -1.64327)
(1.04726 0.469047 -2.00049)
(-0.202518 0.433411 -1.67963)
(0.0115693 0.722437 -1.58116)
(-0.161306 0.535394 -1.19742)
(-0.360109 0.477834 -0.957661)
(-0.557831 0.0769897 -0.904857)
(-0.452349 -0.110463 -1.162)
(1.73568 0.564931 1.04584)
(0.713055 0.58963 -0.461838)
(0.961153 1.4067 0.985387)
(-0.257681 -0.146193 -1.18114)
(0.184938 1.24499 -0.542354)
(0.169737 2.04878 0.502164)
(-0.0214468 -0.030774 -1.69252)
(-0.153543 0.588302 -1.41281)
(0.164995 1.16491 -0.726449)
(0.59541 1.29164 -0.35839)
(0.362071 -0.25911 -2.17152)
(0.243512 0.520969 -1.92671)
(0.563956 0.896534 -1.42668)
(0.772589 0.859109 -1.39511)
(1.1054 1.06623 -1.39114)
(0.376373 -0.090947 -2.16058)
(0.305223 0.549728 -1.97967)
(0.538552 0.724814 -1.63846)
(0.703989 0.67293 -1.64177)
(0.915161 0.179637 -2.11694)
(1.12437 0.318124 -2.35187)
(-0.190817 0.420141 -1.67526)
(0.0210726 0.71725 -1.5769)
(-0.163395 0.5158 -1.20014)
(-0.359967 0.486045 -0.956742)
(-0.572678 0.070521 -0.907271)
(-0.462812 -0.126214 -1.15793)
(-0.0308927 -0.0255741 -0.960585)
(2.39725 0.764453 2.37312)
(1.76147 0.167566 0.911313)
(1.84978 1.7823 0.728802)
(0.570583 -0.171917 -0.344562)
(0.969363 1.34861 0.897646)
(1.11808 1.83354 0.428677)
(-0.153746 -0.246198 -1.19893)
(0.234959 0.932721 -0.856281)
(0.149619 1.90315 0.413375)
(0.931041 1.71308 0.604148)
(-0.0064722 -0.257725 -1.7423)
(-0.11748 0.40647 -1.55381)
(0.175115 1.12504 -0.670286)
(0.536517 1.20491 -0.435873)
(0.870038 1.07718 -0.321516)
(0.395388 -0.396396 -2.22097)
(0.320491 0.42426 -1.93205)
(0.512755 0.873527 -1.42636)
(0.746828 0.804368 -1.41585)
(1.00803 0.867253 -1.59256)
(1.14091 1.43123 -1.36679)
(0.3948 -0.178238 -2.13001)
(0.311016 0.481528 -1.98658)
(0.518472 0.677512 -1.64578)
(0.641874 0.52655 -1.69886)
(0.881928 0.135775 -2.09384)
(0.990643 0.192592 -2.39424)
(1.0823 0.108172 -2.10832)
(-0.190445 0.39372 -1.67098)
(0.0266876 0.712209 -1.57223)
(-0.173646 0.474642 -1.20892)
(-0.372337 0.473459 -0.959356)
(-0.577245 0.0560364 -0.908224)
(-0.473774 -0.14577 -1.15408)
(-0.0307377 -0.0341043 -0.986833)
(0.0544835 -0.141631 -0.945588)
(3.54972 0.750064 3.14731)
(2.22719 0.473458 2.19064)
(2.45374 0.892995 2.73226)
(1.76515 0.313255 0.503123)
(1.94747 1.39175 0.620996)
(2.62301 0.894867 0.713381)
(0.623055 -0.633362 -0.68393)
(0.936618 0.839049 1.18861)
(1.28814 1.50031 0.164784)
(1.49797 1.84659 0.0293531)
(-0.0521001 -0.507568 -1.3168)
(0.333105 0.780678 -0.965585)
(0.259793 1.73878 0.348937)
(0.884314 1.62001 0.451711)
(1.17695 1.67748 0.66238)
(0.00273078 -0.506118 -1.80644)
(-0.0845206 0.359476 -1.59833)
(0.188139 1.12872 -0.601327)
(0.484734 1.11848 -0.520271)
(0.809548 1.04166 -0.311653)
(1.1891 1.44233 -0.253423)
(0.4496 -0.530938 -2.29893)
(0.340699 0.34092 -1.93864)
(0.520019 0.78215 -1.47596)
(0.717758 0.676453 -1.49452)
(0.985306 0.809927 -1.59564)
(1.03466 1.22066 -1.57859)
(1.19105 1.08974 -1.35135)
(0.407177 -0.235096 -2.07333)
(0.316546 0.395423 -1.99614)
(0.48715 0.62394 -1.65462)
(0.591115 0.50915 -1.6899)
(0.722379 -0.106262 -2.13969)
(0.96581 0.148667 -2.37632)
(1.04087 0.101858 -2.10253)
(1.30141 -0.128324 -1.55262)
(-0.174977 0.389063 -1.66262)
(0.041609 0.712437 -1.56407)
(-0.183842 0.442605 -1.21402)
(-0.369711 0.464009 -0.959188)
(-0.582281 0.0355862 -0.897627)
(-0.478945 -0.158478 -1.15292)
(-0.0348558 -0.0448098 -1.01436)
(0.0647763 -0.157798 -0.966537)
(0.659661 0.00241453 -0.170806)
(3.18156 1.21314 3.97466)
(3.69668 0.783989 3.95543)
(3.49467 0.346948 2.94178)
(3.06699 1.70891 3.64493)
(2.25128 -0.248244 2.01031)
(2.56363 0.721964 2.46454)
(2.00563 2.16642 2.98696)
(1.49374 -0.240932 0.710423)
(2.06432 0.945816 0.276515)
(2.59536 0.555804 0.469373)
(2.34608 1.75717 1.5542)
(0.553723 -1.009 -0.576503)
(0.966761 0.740333 1.02255)
(1.27455 1.36813 -0.158095)
(1.52603 1.59966 -0.100426)
(2.11652 1.64193 0.577196)
(0.113562 -0.58375 -1.26316)
(0.39585 0.766429 -0.920106)
(0.343495 1.64794 0.266352)
(0.883157 1.48991 0.253744)
(1.12356 1.5407 0.659067)
(1.58299 1.6442 1.29835)
(0.00850278 -0.704847 -1.83956)
(-0.0469371 0.386897 -1.5488)
(0.198864 1.12826 -0.669809)
(0.405312 1.02769 -0.605698)
(0.76493 0.933274 -0.428792)
(1.10435 1.37912 -0.294973)
(1.07059 1.74628 -0.486131)
(0.513862 -0.580834 -2.43033)
(0.367678 0.229133 -1.95773)
(0.455418 0.665625 -1.56303)
(0.619209 0.544834 -1.6128)
(0.901659 0.714708 -1.69226)
(1.05892 1.24196 -1.49734)
(1.03504 1.16487 -1.41377)
(1.3047 0.551561 -1.46025)
(0.440168 -0.272394 -1.98552)
(0.313964 0.307179 -1.99497)
(0.445861 0.52754 -1.67749)
(0.557834 0.438644 -1.69613)
(0.646032 -0.134265 -2.11217)
(0.81774 -0.114421 -2.42)
(1.00257 0.105122 -2.0938)
(1.28159 -0.0596338 -1.53928)
(1.60325 0.12347 -1.16903)
(-0.169993 0.379119 -1.65348)
(0.0460685 0.693452 -1.55936)
(-0.193125 0.413942 -1.21302)
(-0.378772 0.430312 -0.964358)
(-0.586051 0.0238854 -0.893333)
(-0.500959 -0.180438 -1.14185)
(-0.0419273 -0.0546778 -1.04385)
(0.0655796 -0.174827 -0.989558)
(0.657825 -0.0147607 -0.229552)
(0.741044 0.436844 -0.752847)
(2.86925 1.00905 3.69277)
(3.02765 0.93301 4.21581)
(3.27391 1.38294 3.73493)
(3.64618 0.997081 3.98312)
(3.59915 0.847739 4.12148)
(3.24226 0.119954 2.78484)
(3.26791 1.40098 3.4317)
(2.78989 2.09327 3.63215)
(2.15614 -0.378435 1.86766)
(2.48678 0.377427 2.15717)
(2.14774 1.94451 2.84617)
(2.25133 2.40877 2.97804)
(1.3842 -0.415277 0.486792)
(1.97886 0.315966 0.37281)
(2.44098 0.496782 0.335357)
(2.30057 1.68131 1.4794)
(2.50393 1.60901 1.50545)
(0.576657 -0.999659 -0.546717)
(0.989926 0.49395 0.613173)
(1.2317 1.16759 -0.584857)
(1.55104 1.4075 -0.22601)
(2.20007 1.50647 0.298254)
(2.3695 1.84463 0.89124)
(0.192274 -0.611976 -1.21695)
(0.395575 0.424998 -0.912461)
(0.364162 1.57555 -0.109705)
(0.750167 1.39076 0.0846794)
(1.17324 1.40831 0.42809)
(1.54521 1.56663 1.25041)
(1.93617 1.26264 1.28223)
(0.00672525 -0.806216 -1.88794)
(-0.0308028 0.200225 -1.5476)
(0.163532 0.966043 -0.816669)
(0.315031 0.869679 -0.758837)
(0.639206 0.886089 -0.427556)
(1.04681 1.289 -0.41326)
(0.95518 1.62336 -0.791615)
(1.14305 1.31803 -1.03966)
(0.493633 -0.662761 -2.45097)
(0.386443 0.0504825 -1.94716)
(0.40831 0.451522 -1.69234)
(0.647504 0.458412 -1.65578)
(0.729347 0.487941 -1.84555)
(0.884767 0.882533 -1.81584)
(0.976091 1.03994 -1.38924)
(1.24112 0.586122 -1.48338)
(1.93784 0.497055 -0.731786)
(0.466994 -0.27516 -1.85791)
(0.285357 0.213151 -1.97911)
(0.409992 0.443022 -1.68431)
(0.477102 0.337066 -1.71939)
(0.593288 -0.141365 -2.09082)
(0.688335 -0.162922 -2.41159)
(0.975562 0.166721 -2.06699)
(1.29409 0.047214 -1.52165)
(1.58921 0.134039 -1.18476)
(1.95609 0.0559208 -1.41522)
(-0.16684 0.374215 -1.6462)
(0.0665075 0.688209 -1.54294)
(-0.202737 0.382956 -1.20744)
(-0.396949 0.402963 -0.960853)
(-0.587861 0.019567 -0.895671)
(-0.508238 -0.198922 -1.13862)
(-0.0529549 -0.0666199 -1.0723)
(0.0604343 -0.19207 -1.01348)
(0.649279 -0.0116274 -0.302392)
(0.735236 0.418655 -0.790671)
(0.783537 0.326764 -1.21189)
(2.90648 0.708958 3.35348)
(2.98506 0.481051 3.85848)
(2.81376 0.810637 3.63003)
(3.2985 0.582141 4.22352)
(3.19663 1.17282 3.81527)
(3.07417 0.94494 3.79645)
(3.67753 0.461891 3.96945)
(3.68825 0.97327 4.1526)
(3.46909 1.1714 3.93492)
(3.04798 -0.39693 2.55089)
(3.36157 0.837557 3.1931)
(3.2564 1.05256 3.70131)
(2.93113 1.93648 3.27572)
(1.82973 -1.22323 1.70034)
(2.57491 -0.101616 1.56674)
(2.12518 2.06126 2.66681)
(2.33504 2.12686 2.94532)
(2.56278 1.9395 2.87368)
(1.26971 -0.809664 0.453473)
(1.84886 -0.178679 0.507509)
(2.33973 0.125884 -0.0477517)
(2.25811 1.73124 1.30976)
(2.46076 1.74568 1.34727)
(2.66204 1.50785 1.66233)
(0.56884 -1.1436 -0.698242)
(1.07412 0.38996 -0.103683)
(1.18397 0.934607 -0.780122)
(1.53399 1.21208 -0.467262)
(2.18475 1.34183 0.213082)
(2.46761 1.73173 0.690572)
(2.70556 1.62904 1.27885)
(0.266931 -0.836387 -1.10768)
(0.280042 0.157511 -0.887003)
(0.504245 1.27519 -0.403671)
(0.767032 1.12021 -0.0149179)
(1.164 1.25295 0.331355)
(1.61693 1.49195 1.04657)
(1.94889 1.21599 1.32311)
(2.06132 1.00848 1.1336)
(0.109762 -0.818917 -1.92593)
(-0.0355385 0.0204764 -1.58556)
(0.0518454 0.736623 -0.953963)
(0.168649 0.583644 -1.03147)
(0.594563 0.737107 -0.462759)
(0.909973 1.21207 -0.52306)
(0.902808 1.57259 -0.737244)
(1.09303 1.31486 -1.06451)
(1.58782 0.934747 -0.497715)
(0.387423 -0.9753 -2.25518)
(0.378594 -0.0721026 -1.94327)
(0.386332 0.332509 -1.76077)
(0.580341 0.366439 -1.72083)
(0.753722 0.575383 -1.77906)
(0.790152 0.927513 -1.77529)
(0.915084 1.15032 -1.35559)
(1.13978 0.30491 -1.56742)
(1.85731 0.344758 -0.728647)
(2.47809 0.173177 -0.92729)
(0.488272 -0.309985 -1.69163)
(0.233899 0.0310249 -1.93552)
(0.371556 0.356463 -1.67365)
(0.419752 0.251038 -1.72103)
(0.396671 -0.355974 -2.09001)
(0.670751 -0.130105 -2.38095)
(0.935401 0.17691 -2.05367)
(1.29068 0.122923 -1.50338)
(1.583 0.112458 -1.19326)
(1.93173 0.0655379 -1.4333)
(1.61552 -0.382556 -1.69425)
(-0.199397 0.310884 -1.64857)
(0.098089 0.697111 -1.51766)
(-0.221329 0.343952 -1.19939)
(-0.382074 0.403542 -0.957698)
(-0.593649 0.0140849 -0.897783)
(-0.534501 -0.219008 -1.1228)
(-0.0692042 -0.0810808 -1.09835)
(0.0487013 -0.207908 -1.03828)
(0.645794 0.0145817 -0.366862)
(0.718093 0.415536 -0.823777)
(0.785374 0.282812 -1.25574)
(0.503212 0.303107 -1.28497)
(2.52437 0.645979 3.17619)
(2.64526 0.513089 3.34103)
(2.84416 0.733848 3.42325)
(2.64588 0.804551 3.4103)
(3.04969 0.29944 4.09599)
(2.96439 0.811549 3.63822)
(2.60926 0.501425 3.62922)
(3.44399 0.323009 4.2663)
(3.19253 0.891884 4.00545)
(3.23358 1.02244 3.71233)
(2.8375 0.575608 3.73175)
(3.71094 0.123936 3.97537)
(3.84012 1.03702 4.12734)
(3.46143 0.826174 4.03377)
(3.32026 1.36629 3.58926)
(2.81178 -0.617754 2.37865)
(3.15225 0.356496 3.14161)
(3.25335 1.2609 3.62187)
(3.24817 0.918452 3.46432)
(3.12985 1.3357 2.97805)
(1.71839 -0.999552 1.65955)
(2.49568 -0.162545 1.1869)
(2.22712 1.61715 2.5303)
(2.4603 2.12845 2.80788)
(2.46818 2.16816 2.83687)
(2.53709 1.72524 2.86904)
(1.19686 -0.92169 0.45213)
(1.61516 -1.0613 0.318411)
(2.20448 0.124342 -0.16718)
(2.17218 1.64941 1.07217)
(2.3395 1.62369 1.37647)
(2.64272 1.39679 1.6733)
(2.60763 1.80309 1.69438)
(0.565012 -1.21662 -0.67609)
(1.11282 0.248074 -0.394569)
(1.21478 0.706166 -1.08251)
(1.47189 0.968168 -0.543856)
(2.21033 1.12096 -0.0233978)
(2.49369 1.55452 0.609013)
(2.73628 1.65193 1.19721)
(2.95024 0.923509 1.77499)
(0.159343 -1.21056 -1.29141)
(0.292208 0.0884828 -1.01709)
(0.401478 1.09576 -0.402747)
(0.711833 0.958734 -0.137125)
(1.14435 1.12603 0.187187)
(1.54804 1.35677 1.01411)
(1.88462 1.16637 1.26262)
(2.06774 1.00399 1.22482)
(1.70321 0.995938 0.684077)
(0.129496 -1.05865 -2.06351)
(-0.0406993 -0.114323 -1.46534)
(0.0203502 0.562861 -1.05579)
(0.161469 0.543743 -0.857358)
(0.499643 0.643992 -0.480546)
(0.804141 1.09147 -0.64328)
(0.810696 1.54573 -0.82347)
(1.05008 1.36988 -0.995273)
(1.59031 0.717417 -0.517026)
(2.23599 0.780537 -0.206547)
(0.286142 -1.129 -2.07473)
(0.322878 -0.308658 -2.03864)
(0.309633 0.120664 -1.84092)
(0.50386 0.244526 -1.8066)
(0.603431 0.379053 -1.97013)
(0.803389 0.991508 -1.71433)
(0.860632 1.20952 -1.33197)
(1.141 0.638828 -1.50185)
(1.8942 0.147972 -0.648833)
(2.34326 0.344005 -1.052)
(2.43821 0.0258462 -0.811653)
(0.526842 -0.348602 -1.49606)
(0.202855 -0.10508 -1.82558)
(0.332051 0.270606 -1.65449)
(0.338858 0.153775 -1.71095)
(0.375943 -0.314383 -2.05049)
(0.443997 -0.346033 -2.39614)
(0.869966 0.156868 -2.05494)
(1.2699 0.112274 -1.50613)
(1.53274 0.0978392 -1.21003)
(1.88061 0.0546107 -1.44519)
(1.61094 -0.445256 -1.65843)
(1.30246 -0.62432 -1.61763)
(-0.246995 0.261226 -1.65044)
(0.144111 0.738217 -1.47933)
(-0.245002 0.300535 -1.1894)
(-0.401905 0.376059 -0.94919)
(-0.597594 0.00981615 -0.89442)
(-0.538199 -0.226581 -1.12124)
(-0.0865837 -0.0965579 -1.12508)
(0.0356953 -0.22061 -1.06519)
(0.643801 0.0431192 -0.43164)
(0.705774 0.4164 -0.845212)
(0.803324 0.264982 -1.28573)
(0.52635 0.266705 -1.26611)
(0.246623 0.244715 -1.25543)
(2.52598 0.339689 3.01586)
(2.60448 0.462567 3.18306)
(2.50146 0.606802 3.06275)
(2.7329 0.391443 3.44701)
(2.62856 0.72763 3.16974)
(2.84039 -0.0392248 3.57043)
(2.93093 0.521826 3.4151)
(2.66797 0.630124 3.35368)
(3.17324 0.070219 4.23449)
(2.96869 0.318961 3.88976)
(3.05383 0.651044 3.37666)
(2.70632 0.763171 3.3933)
(3.55077 -0.249283 4.29496)
(3.48235 0.506379 4.17543)
(3.11706 0.88841 3.74713)
(3.05474 0.800844 3.67299)
(2.88746 0.8871 3.23601)
(3.73376 -0.601508 3.80533)
(3.81718 0.756033 4.1635)
(3.73168 1.07827 3.99176)
(3.36275 1.22784 3.65978)
(2.95675 1.35517 3.35241)
(2.6799 -1.12674 2.33042)
(3.00156 0.0335034 2.99876)
(3.48563 0.893501 3.37272)
(3.22737 1.4439 3.35957)
(3.14481 1.38561 3.03826)
(3.06535 1.38821 2.72675)
(1.55272 -1.28342 1.57052)
(2.29634 -0.524984 0.911328)
(2.29662 1.34448 2.29636)
(2.46037 1.92572 2.77457)
(2.62313 2.005 2.6691)
(2.54239 1.75116 2.87343)
(2.36893 1.40448 2.87779)
(1.05255 -1.37585 0.177827)
(1.4576 -0.920644 0.400065)
(2.0111 -0.20261 -0.721671)
(2.12589 1.46538 0.785171)
(2.34749 1.54534 1.09856)
(2.75399 1.27916 1.41256)
(2.66567 1.6571 1.72183)
(3.05158 1.01933 1.57321)
(0.575029 -1.37342 -0.589344)
(1.22036 0.120729 -0.755831)
(1.18182 0.428579 -1.05379)
(1.4094 0.762646 -0.634278)
(2.14222 0.934477 -0.0818211)
(2.6092 1.29201 0.472321)
(2.79973 1.62688 1.09052)
(2.94785 0.913664 1.72194)
(2.42674 0.839089 1.93141)
(-0.0143003 -1.52812 -1.5843)
(0.0512109 -0.123469 -1.10608)
(0.378165 0.801608 -0.779593)
(0.595744 0.758524 -0.46055)
(1.12438 0.964715 0.0938124)
(1.57629 1.16486 0.876262)
(1.98222 1.32315 0.797427)
(1.98187 0.967183 1.39918)
(1.69263 0.902939 0.588513)
(1.82912 0.749629 0.396545)
(0.146058 -1.33775 -2.12678)
(-0.0726877 -0.365995 -1.47385)
(-0.0597787 0.350476 -1.11183)
(0.103011 0.429563 -0.789443)
(0.411691 0.5144 -0.566085)
(0.703061 0.970483 -0.778866)
(0.737023 1.49974 -0.892216)
(1.02056 1.46489 -0.966161)
(1.60461 0.812323 -0.388722)
(2.23757 0.808876 -0.0714309)
(2.79206 0.19129 0.198235)
(0.184076 -1.24015 -1.7819)
(0.288896 -0.487057 -2.1351)
(0.24314 -0.00829369 -1.91807)
(0.450674 0.121566 -1.90753)
(0.514577 0.290926 -2.03432)
(0.677891 0.773485 -1.87718)
(0.799876 1.19821 -1.34323)
(1.09173 0.727104 -1.494)
(1.89939 0.34892 -0.630803)
(2.34646 0.321686 -0.829205)
(2.39964 0.0738567 -0.709555)
(2.25981 -0.240145 -1.36052)
(0.577736 -0.374092 -1.29808)
(0.159315 -0.228859 -1.66626)
(0.288501 0.178667 -1.62153)
(0.261171 0.0417732 -1.67769)
(0.233883 -0.420392 -2.02161)
(0.43768 -0.285609 -2.37405)
(0.837318 0.17449 -2.04337)
(1.22117 0.197253 -1.51644)
(1.52603 0.0904937 -1.22235)
(1.88021 0.0184746 -1.44221)
(1.61739 -0.417543 -1.6481)
(1.31207 -0.63925 -1.59767)
(1.2343 -0.721024 -1.60581)
(-0.258723 0.256745 -1.64361)
(0.171015 0.709256 -1.45488)
(-0.269987 0.257933 -1.1789)
(-0.391791 0.369949 -0.94041)
(-0.596178 -0.00870759 -0.891042)
(-0.570862 -0.247304 -1.09864)
(-0.111069 -0.117283 -1.14688)
(0.0173492 -0.232575 -1.09263)
(0.645988 0.081454 -0.492369)
(0.693291 0.411637 -0.86698)
(0.803454 0.281269 -1.29069)
(0.54338 0.226198 -1.24833)
(0.274331 0.217029 -1.23005)
(0.0626891 0.297241 -0.846178)
(2.43051 0.462849 3.02549)
(2.60657 0.151839 3.02035)
(2.28132 0.575219 3.07471)
(2.66312 0.192849 3.24585)
(2.55338 0.467589 3.06758)
(2.42441 0.56824 3.06584)
(2.78989 0.141656 3.43472)
(2.70448 0.457855 3.28735)
(2.76356 0.542992 3.15894)
(2.9138 -0.0771746 3.61789)
(2.86644 0.40961 3.50334)
(2.59975 0.20184 3.57483)
(2.55819 0.822512 3.19632)
(3.32468 -0.103976 4.21146)
(3.13209 0.10641 4.02704)
(3.02777 0.670984 3.54699)
(2.74047 0.706062 3.37543)
(2.78386 0.63352 3.37081)
(3.645 -0.572352 4.30135)
(3.59415 0.204306 4.29783)
(3.30735 0.562842 3.86827)
(3.14711 0.551491 3.66326)
(2.98638 0.757562 3.35478)
(2.70024 1.41629 2.87903)
(3.69429 -0.885747 3.59052)
(3.89188 0.378604 4.04947)
(3.76577 0.939258 4.13126)
(3.42043 1.15805 3.7637)
(3.10703 1.22816 3.43691)
(2.8092 1.279 3.03511)
(2.38529 -1.65894 2.20357)
(2.83301 -0.385183 2.74104)
(3.44357 0.54339 3.18576)
(3.36613 1.28461 3.29406)
(3.22218 1.2721 2.99518)
(3.13147 1.20733 2.82283)
(3.05723 1.12559 2.71427)
(1.42215 -1.6298 1.36728)
(2.13885 -0.944805 0.73729)
(2.13881 0.55263 2.21366)
(2.49933 1.74386 2.61279)
(2.61991 1.79087 2.6682)
(2.59772 1.62144 2.83326)
(2.38858 1.40324 2.90579)
(2.46141 1.24237 2.2603)
(0.839499 -1.78821 0.268007)
(1.44314 -1.33462 -0.191203)
(1.89271 -0.146875 -0.762406)
(2.04839 1.29021 0.496467)
(2.28256 1.51158 0.912514)
(2.76328 1.18373 1.30748)
(2.79481 1.34084 1.66515)
(2.89897 1.06007 1.67137)
(3.39932 -0.0237027 1.08726)
(0.408685 -1.79638 -1.01347)
(0.982397 -0.348197 -0.881882)
(1.12408 0.149152 -1.20596)
(1.33374 0.597177 -0.770519)
(2.09928 0.745409 -0.253675)
(2.62366 1.09159 0.485863)
(2.84206 1.39277 0.979202)
(2.96623 0.90094 1.64556)
(2.71349 0.66709 1.70467)
(2.13832 0.768822 1.5473)
(-0.140809 -1.87483 -1.80515)
(-0.0858314 -0.436542 -1.19049)
(0.0875069 0.420511 -1.05409)
(0.513715 0.557429 -0.746882)
(1.08603 0.818924 0.0329107)
(1.48665 1.07353 0.75072)
(1.94753 1.13203 0.918774)
(2.07663 0.923263 1.29948)
(1.68467 0.878594 0.528481)
(1.83056 0.91834 0.638631)
(2.57391 0.718121 0.637465)
(0.188607 -1.5104 -2.11193)
(-0.182085 -0.723994 -1.59555)
(-0.0956087 0.165335 -1.12919)
(0.0397806 0.256876 -0.84101)
(0.281374 0.395554 -0.66405)
(0.540308 0.849568 -0.995671)
(0.677892 1.45802 -0.945796)
(1.06493 1.52295 -0.97094)
(1.63808 1.15955 -0.130889)
(2.22717 0.686105 -0.0322861)
(2.74192 0.165878 0.257389)
(2.69937 -0.446436 0.0940468)
(0.097122 -1.27376 -1.36828)
(0.24253 -0.61403 -2.13921)
(0.228533 -0.137841 -1.99988)
(0.400409 -0.00999025 -2.00654)
(0.413181 0.169995 -2.11499)
(0.558619 0.60084 -1.95335)
(0.765838 1.20374 -1.29456)
(1.04583 0.894222 -1.38144)
(1.8268 0.615237 -0.603659)
(2.28125 0.298674 -0.86595)
(2.34588 0.0885954 -0.672504)
(2.20799 -0.439741 -1.28118)
(2.23544 -0.234514 -1.47028)
(0.616631 -0.417978 -1.1082)
(0.122204 -0.319408 -1.46045)
(0.229935 0.0799763 -1.5619)
(0.163527 -0.0711319 -1.61386)
(0.139287 -0.487316 -1.98142)
(0.286072 -0.371523 -2.35686)
(0.748304 0.10354 -2.05852)
(1.16253 0.148549 -1.53265)
(1.54395 0.0463072 -1.24572)
(1.82712 -0.018698 -1.47844)
(1.59127 -0.381843 -1.65843)
(1.33286 -0.627465 -1.58614)
(1.26279 -0.696422 -1.61159)
(1.01155 -0.0967748 -1.24834)
(-0.253616 0.26259 -1.62997)
(0.185598 0.693644 -1.42112)
(-0.31116 0.204176 -1.16542)
(-0.424762 0.317232 -0.923203)
(-0.598654 -0.0094345 -0.88688)
(-0.585776 -0.253261 -1.09249)
(-0.136978 -0.137434 -1.17074)
(-0.00321622 -0.244964 -1.12202)
(0.651997 0.12609 -0.548948)
(0.682802 0.404133 -0.880117)
(0.811197 0.256546 -1.28359)
(0.556614 0.184472 -1.23183)
(0.296521 0.180826 -1.20968)
(0.077074 0.295218 -0.853457)
(-0.173916 0.168854 -0.807723)
(2.46471 0.25021 2.61338)
(2.40023 0.402716 3.0343)
(2.2801 0.44926 2.96683)
(2.64245 0.0621203 3.03128)
(2.40136 0.683101 3.05577)
(2.28075 0.665886 3.01106)
(2.62292 -0.00101261 3.33746)
(2.55914 0.366131 3.08688)
(2.60446 0.401267 3.07453)
(2.35373 0.536319 3.04774)
(2.79381 -0.200222 3.46397)
(2.77901 0.271384 3.41633)
(2.66018 0.389775 3.24976)
(2.69965 0.375932 3.09669)
(2.84476 -0.590345 3.74927)
(2.8376 -0.474851 3.56815)
(2.94102 0.345116 3.48442)
(2.48269 0.360273 3.38741)
(2.67882 0.552393 3.00651)
(3.33792 -0.411894 4.20071)
(3.27106 -0.058267 4.11085)
(3.07033 0.100636 3.71282)
(2.98082 0.629798 3.33033)
(2.81446 0.582474 3.33062)
(2.62249 0.763093 3.1324)
(3.52725 -1.01004 4.28635)
(3.79562 -0.262257 4.30932)
(3.60693 0.353941 3.95528)
(3.1694 0.595245 3.61227)
(3.12303 0.597514 3.45563)
(2.80674 0.835447 3.06044)
(2.75743 0.920298 2.84572)
(3.68123 -1.49236 3.36242)
(3.70473 -0.640024 3.88848)
(3.83531 0.643068 4.08778)
(3.68141 1.15265 3.76497)
(3.26504 1.26564 3.39154)
(2.91346 1.17049 3.1121)
(3.00236 0.928769 2.84961)
(2.01756 -2.11265 2.06752)
(2.70472 -1.05106 2.28556)
(3.28089 0.293565 2.85795)
(3.448 0.907121 3.16942)
(3.29892 1.17531 3.02822)
(3.24936 1.0573 2.76472)
(3.11567 0.947897 2.73258)
(2.85405 0.64272 2.69412)
(1.25309 -2.01982 1.15552)
(1.81828 -1.43516 0.675857)
(2.20818 0.201299 1.7774)
(2.41758 1.37681 2.50292)
(2.65043 1.6681 2.55318)
(2.59562 1.57614 2.75192)
(2.42336 1.41028 2.87995)
(2.51921 0.987972 2.13547)
(2.87198 0.515775 1.80901)
(0.713391 -2.10176 -0.0704857)
(1.37268 -1.32655 -0.372017)
(1.8484 -0.27604 -1.24751)
(1.90776 1.04986 0.130988)
(2.23725 1.39122 0.791733)
(2.79235 1.0615 1.15393)
(2.77537 1.27132 1.5942)
(2.83063 1.03785 1.55591)
(3.35438 0.00160862 1.2515)
(2.84927 -0.0717402 1.512)
(0.153224 -2.12682 -1.54993)
(0.681316 -0.82731 -0.888449)
(0.961459 -0.287132 -1.28827)
(1.23293 0.479832 -0.909841)
(2.06797 0.537239 -0.408442)
(2.58967 0.963651 0.459745)
(2.95458 1.16806 0.677995)
(3.0332 0.851285 1.55914)
(2.75082 0.480267 1.86569)
(2.15855 0.823198 2.03988)
(2.25305 0.738853 1.89265)
(-0.160132 -1.88049 -2.17878)
(-0.110738 -0.592103 -1.02514)
(0.145916 0.264155 -1.03959)
(0.43509 0.404053 -0.804802)
(1.01664 0.661582 0.00188756)
(1.44227 0.89581 0.569488)
(1.97451 1.14627 0.741434)
(2.05534 0.890353 1.45367)
(1.68611 0.939785 0.599924)
(1.9014 0.957665 0.603142)
(2.51624 0.616218 0.686687)
(2.85278 0.216155 0.434165)
(0.189339 -1.51833 -2.05643)
(-0.295221 -1.03474 -1.78698)
(-0.197216 -0.0234425 -1.20605)
(-0.0588207 0.106267 -0.905597)
(0.116228 0.257861 -0.794233)
(0.417205 0.731781 -1.03669)
(0.598889 1.39785 -0.984626)
(1.04935 1.41686 -1.07442)
(1.66835 1.23423 -0.0324162)
(2.10788 0.945753 0.0942852)
(2.62219 0.14083 0.264999)
(2.49752 -0.502949 0.486678)
(2.60832 -0.803688 -0.165507)
(0.128333 -1.24195 -0.878221)
(0.1859 -0.813508 -1.91936)
(0.196786 -0.250966 -2.05355)
(0.279361 -0.130111 -2.09869)
(0.301762 0.030656 -2.19368)
(0.561234 0.64382 -1.92288)
(0.724741 1.13644 -1.31974)
(0.99283 0.735135 -1.42126)
(1.8174 0.472906 -0.650635)
(2.20919 0.379 -0.85424)
(2.27655 0.0639721 -0.680139)
(2.14105 -0.555108 -1.2206)
(2.25315 -0.464138 -1.33588)
(2.01767 -0.87677 -1.47573)
(0.620481 -0.472783 -0.952104)
(0.0935358 -0.397139 -1.25662)
(0.151759 -0.0226095 -1.47323)
(0.0617376 -0.190422 -1.51508)
(0.0268311 -0.564302 -1.93155)
(0.175871 -0.430383 -2.33536)
(0.708875 0.121742 -2.05742)
(1.15547 0.153091 -1.50956)
(1.37508 0.200676 -1.3929)
(1.69761 -0.0591167 -1.48871)
(1.57336 -0.407462 -1.62071)
(1.35485 -0.636962 -1.55255)
(1.28867 -0.67233 -1.59832)
(1.1036 -0.172013 -1.31063)
(0.146083 -0.170309 -0.70787)
(-0.238712 0.276312 -1.61196)
(0.193897 0.669396 -1.38827)
(-0.299167 0.200613 -1.15827)
(-0.402031 0.308321 -0.916595)
(-0.602269 -0.0131541 -0.878305)
(-0.5994 -0.263517 -1.07872)
(-0.168443 -0.160381 -1.19221)
(-0.0278332 -0.259479 -1.15201)
(0.66088 0.166422 -0.598668)
(0.667052 0.391646 -0.890536)
(0.788933 0.178636 -1.32192)
(0.564837 0.143539 -1.21798)
(0.312429 0.140321 -1.19411)
(0.0908761 0.286878 -0.860719)
(-0.168744 0.155362 -0.821858)
(0.0245562 -0.0906856 -0.871898)
(2.07077 0.451038 2.75883)
(2.4815 0.144549 2.63889)
(2.26457 0.371781 2.70134)
(2.3942 0.254028 3.04686)
(2.33619 0.44092 2.96268)
(2.41386 0.445688 2.76015)
(2.54654 0.0703055 3.14651)
(2.40169 0.35085 3.16088)
(2.35616 0.120035 3.12111)
(2.3754 0.646445 2.96141)
(2.6576 -0.0972331 3.34901)
(2.62057 0.0484228 3.23769)
(2.60547 0.294025 3.05342)
(2.55305 0.359119 3.03992)
(2.47827 0.435673 2.98525)
(2.75633 -0.247407 3.49168)
(2.73489 0.00412185 3.45494)
(2.71964 -0.0335406 3.35921)
(2.77448 0.258966 3.09405)
(2.6052 0.269441 2.98949)
(2.90138 -0.753956 3.78632)
(2.88094 -0.334191 3.67652)
(2.93063 -0.112914 3.47404)
(2.69418 0.323356 3.43328)
(2.69387 0.443761 3.06556)
(2.62686 0.464941 2.8784)
(3.29971 -0.676116 4.17204)
(3.33091 -0.247591 4.09937)
(3.18506 -0.136155 3.80285)
(2.97545 0.686697 3.42803)
(2.85934 0.628815 3.26723)
(2.78872 0.632906 3.11141)
(2.59059 0.659223 2.7068)
(3.43307 -1.80087 3.99579)
(3.90478 -0.280558 4.30468)
(3.69719 0.316123 4.1068)
(3.43171 0.225859 3.67215)
(2.98357 0.461846 3.60654)
(2.94151 0.689144 3.16859)
(2.72596 0.915833 2.87141)
(2.7331 0.269492 2.81437)
(3.34242 -1.98794 3.15054)
(3.4874 -0.814051 3.62428)
(3.73025 0.074408 4.08273)
(3.67583 0.824592 3.92949)
(3.3851 1.18917 3.48476)
(2.96581 0.832437 3.25533)
(3.03815 0.883864 2.8875)
(3.05679 0.54933 2.62938)
(1.83883 -2.40989 1.87223)
(2.45061 -0.967234 2.07524)
(3.19228 -0.175328 2.44056)
(3.47274 0.890932 2.88059)
(3.36315 1.29143 2.94082)
(3.26395 0.952143 2.73912)
(3.22238 0.864193 2.68387)
(2.92487 0.539275 2.6774)
(2.68313 0.416231 2.41416)
(0.926615 -2.89797 0.46644)
(1.52281 -1.6334 0.549033)
(2.0877 -0.426298 1.45727)
(2.35296 1.18229 2.13502)
(2.52969 1.44141 2.56834)
(2.66998 1.48056 2.61821)
(2.44544 1.37378 2.86598)
(2.51885 0.863177 2.18754)
(2.72466 0.498915 1.8988)
(2.92672 0.0263515 1.75972)
(0.584966 -2.50456 -0.187485)
(1.11726 -1.54867 -0.81751)
(1.83721 -0.451595 -1.38275)
(1.80768 0.647928 -0.354028)
(2.23981 1.35421 0.525316)
(2.81879 0.961219 0.934222)
(2.77708 1.18936 1.50673)
(2.8628 0.996162 1.43183)
(3.29367 0.0248045 1.42598)
(3.05801 -0.292089 1.73041)
(2.54009 -0.112364 2.03613)
(-0.162092 -2.5306 -1.62685)
(0.534861 -1.08861 -0.717221)
(0.904794 -0.522922 -1.23714)
(1.32046 0.400142 -0.921848)
(1.96822 0.465254 -0.424299)
(2.56833 0.806354 0.368536)
(2.95546 1.06469 0.734596)
(3.06422 0.943923 1.53769)
(2.98092 0.442239 1.75104)
(2.60385 0.709212 1.90731)
(2.1325 0.665135 2.21425)
(2.4511 0.350818 1.31109)
(-0.0530993 -1.8945 -2.10801)
(-0.265158 -0.913939 -1.11901)
(-0.0284725 0.0246356 -1.04691)
(0.31698 0.245658 -0.813783)
(0.886792 0.431968 -0.134668)
(1.31609 0.821288 0.320478)
(2.00144 1.10328 0.629531)
(2.12034 0.928403 1.39365)
(1.78554 0.876786 0.833993)
(1.90724 0.908737 0.731565)
(2.50615 0.616282 0.773086)
(2.71762 0.26632 0.698288)
(2.72652 -0.63238 0.808287)
(0.0634971 -1.64678 -1.76758)
(-0.434999 -1.36925 -1.8802)
(-0.280543 -0.267351 -1.32255)
(-0.119254 -0.0618784 -0.952291)
(0.00846208 0.144803 -0.815794)
(0.268347 0.61483 -1.0397)
(0.521669 1.33588 -1.00017)
(0.931234 1.26482 -1.13501)
(1.69745 1.22337 -0.306247)
(2.1215 0.752776 -0.0127345)
(2.57331 0.150212 0.23807)
(2.35137 -0.494311 -0.567369)
(2.46846 -0.327782 -0.25319)
(2.50545 -0.081839 -1.31504)
(0.241959 -1.18915 -0.501461)
(0.0487054 -1.03839 -1.50517)
(0.116798 -0.433051 -2.01401)
(0.221269 -0.256032 -2.13384)
(0.199659 -0.0846824 -2.24208)
(0.48231 0.509905 -1.98312)
(0.688289 1.1184 -1.31799)
(1.0136 0.892856 -1.26819)
(1.8299 0.607723 -0.669967)
(2.14203 0.377024 -0.809617)
(2.20108 0.0274456 -0.709077)
(2.05503 -0.591092 -1.25461)
(2.20616 -0.444519 -1.42637)
(2.01406 -0.843608 -1.51135)
(0.801694 -1.66478 -0.807387)
(0.622683 -0.517479 -0.843193)
(0.0920432 -0.480819 -1.08934)
(0.0633454 -0.145952 -1.35792)
(-0.0469294 -0.301209 -1.39177)
(-0.104427 -0.644059 -1.86205)
(0.0490337 -0.496143 -2.3066)
(0.635338 0.0924742 -2.06975)
(1.09043 0.18307 -1.54256)
(1.38106 0.055307 -1.32534)
(1.68417 -0.14635 -1.48244)
(1.5678 -0.349367 -1.5893)
(1.35996 -0.656983 -1.53589)
(1.32166 -0.607485 -1.58795)
(1.18067 -0.31716 -1.36598)
(0.264334 0.00937068 -0.617187)
(0.203717 -0.652956 -1.21459)
(-0.216442 0.293293 -1.59196)
(0.195984 0.632445 -1.36183)
(-0.388804 0.112361 -1.14085)
(-0.393944 0.302256 -0.920784)
(-0.629906 -0.0459536 -0.842288)
(-0.616624 -0.271882 -1.06124)
(-0.206385 -0.18682 -1.21279)
(-0.0582641 -0.275661 -1.18265)
(0.676132 0.211917 -0.644697)
(0.631385 0.350048 -0.941732)
(0.776366 0.151549 -1.35069)
(0.570541 0.11027 -1.20469)
(0.319965 0.0987793 -1.18364)
(0.105197 0.272454 -0.868256)
(-0.167099 0.127289 -0.831738)
(0.0450862 -0.0748421 -0.865741)
(-0.0162173 -0.928715 -0.553899)
(1.98024 0.352473 2.46047)
(2.02321 0.437117 2.79726)
(1.7654 0.604817 2.89249)
(2.4433 0.131689 2.67424)
(2.2638 0.319463 2.69869)
(2.27939 0.38829 2.68428)
(2.44643 -0.040695 3.12672)
(2.38594 0.314774 2.99626)
(2.35707 0.311548 2.79388)
(2.38813 0.375014 2.75568)
(2.6834 -0.260583 3.13018)
(2.53672 -0.0832634 3.11875)
(2.45265 0.337523 3.14361)
(2.37157 0.0921371 3.0639)
(2.47302 0.434023 2.8543)