/*--------------------------------*- C++ -*----------------------------------*\
  =========                 |
  \\      /  F ield         | OpenFOAM: The Open Source CFD Toolbox
   \\    /   O peration     | Website:  https://openfoam.org
    \\  /    A nd           | Version:  7
     \\/     M anipulation  |
\*---------------------------------------------------------------------------*/
FoamFile
{
    version     2.0;
    format      ascii;
    class       volVectorField;
    location    "6";
    object      U_0;
}
// * * * * * * * * * * * * * * * * * * * * * * * * * * * * * * * * * * * * * //

dimensions      [0 1 -1 0 0 0 0];

internalField   nonuniform List<vector> 
18780
(
(-0.243466 0.523679 -1.6715)
(0.287591 0.374215 -2.10128)
(-0.231154 0.509814 -1.67626)
(-0.00235399 0.762673 -1.59822)
(0.275341 0.348885 -1.95194)
(0.310811 0.295651 -2.12624)
(0.234432 0.742052 -1.96653)
(-0.228639 0.488343 -1.68153)
(0.00128732 0.736935 -1.59986)
(-0.163615 0.551551 -1.20047)
(-0.125711 0.264844 -1.41452)
(0.307497 0.177485 -2.01702)
(0.13607 0.672693 -1.88412)
(0.328459 0.199205 -2.14654)
(0.251535 0.687205 -1.97218)
(0.591954 0.825244 -1.63717)
(-0.221012 0.468813 -1.68315)
(0.00464498 0.731191 -1.59303)
(-0.161499 0.541003 -1.20116)
(-0.354336 0.500422 -0.944485)
(-0.235648 0.039223 -1.1103)
(-0.0847207 0.181329 -1.55055)
(-0.140231 0.771937 -1.30535)
(0.320412 0.00536661 -2.08647)
(0.150343 0.670032 -1.85757)
(0.561645 0.900038 -1.54416)
(0.340607 0.0602297 -2.1629)
(0.273383 0.651012 -1.97238)
(0.580953 0.80201 -1.62852)
(0.772555 0.804532 -1.58961)
(-0.21091 0.452752 -1.68166)
(0.00920428 0.729895 -1.58626)
(-0.164605 0.516946 -1.20754)
(-0.358351 0.489281 -0.949754)
(-0.553202 0.0915586 -0.905785)
(0.612682 0.26392 0.477715)
(-0.229168 -0.00766561 -1.27238)
(0.0722144 1.20394 -0.640051)
(-0.0403766 0.119587 -1.66155)
(-0.12909 0.775671 -1.21803)
(0.223134 1.17777 -0.82217)
(0.337077 -0.13202 -2.12928)
(0.195349 0.557721 -1.92648)
(0.533259 0.930915 -1.4769)
(0.815023 0.948412 -1.34091)
(0.35954 -0.0443967 -2.16827)
(0.291257 0.606103 -1.97773)
(0.567693 0.779354 -1.62482)
(0.752413 0.676185 -1.63768)
(1.05252 0.468152 -1.99074)
(-0.203699 0.434054 -1.67975)
(0.0125486 0.721384 -1.58272)
(-0.161461 0.53388 -1.19937)
(-0.361275 0.47559 -0.95623)
(-0.561098 0.0742633 -0.901627)
(-0.461494 -0.111251 -1.15594)
(1.74091 0.598322 1.04947)
(0.714625 0.612638 -0.46015)
(0.967009 1.41444 0.989485)
(-0.254787 -0.130055 -1.17972)
(0.186755 1.24856 -0.548582)
(0.185701 2.05437 0.508347)
(-0.0208375 -0.0134512 -1.69278)
(-0.147506 0.591934 -1.42206)
(0.175368 1.16448 -0.738591)
(0.603691 1.29262 -0.363103)
(0.358239 -0.254902 -2.1765)
(0.245602 0.522822 -1.93444)
(0.570652 0.895015 -1.43753)
(0.782866 0.856361 -1.40216)
(1.11696 1.05331 -1.40401)
(0.37402 -0.0862549 -2.16415)
(0.305717 0.545747 -1.98534)
(0.542041 0.725138 -1.64046)
(0.709668 0.677367 -1.63602)
(0.925883 0.198439 -2.10204)
(1.13222 0.318243 -2.34654)
(-0.192138 0.420348 -1.6757)
(0.0221542 0.716705 -1.57841)
(-0.164433 0.511651 -1.20272)
(-0.360408 0.489531 -0.954215)
(-0.576996 0.0671774 -0.904147)
(-0.471522 -0.127935 -1.15183)
(-0.0396234 -0.0297464 -0.954221)
(2.39953 0.78576 2.3947)
(1.76547 0.178459 0.920461)
(1.85283 1.79983 0.74402)
(0.568796 -0.155138 -0.336121)
(0.974146 1.36356 0.894072)
(1.10366 1.86135 0.458124)
(-0.151933 -0.230503 -1.19902)
(0.234814 0.935965 -0.864243)
(0.161911 1.91135 0.420397)
(0.94932 1.71171 0.618481)
(-0.00681396 -0.243067 -1.74345)
(-0.111901 0.409152 -1.56246)
(0.185799 1.12592 -0.680045)
(0.544789 1.20545 -0.441253)
(0.883936 1.07081 -0.328051)
(0.390196 -0.393301 -2.22592)
(0.321737 0.427688 -1.93975)
(0.518224 0.874194 -1.43537)
(0.757048 0.806914 -1.41963)
(1.02465 0.869087 -1.59045)
(1.15811 1.43199 -1.3701)
(0.392673 -0.173507 -2.13535)
(0.311162 0.477788 -1.99244)
(0.522224 0.677719 -1.6479)
(0.648285 0.53459 -1.69249)
(0.885175 0.14159 -2.08465)
(0.995129 0.18775 -2.3926)
(1.07729 0.0924923 -2.11209)
(-0.192244 0.393321 -1.67175)
(0.0279449 0.712168 -1.57364)
(-0.174415 0.469622 -1.21241)
(-0.375515 0.471918 -0.958351)
(-0.581345 0.053728 -0.905651)
(-0.482684 -0.148321 -1.14769)
(-0.0391634 -0.0383815 -0.980043)
(0.0403859 -0.146204 -0.945295)
(3.55198 0.764119 3.17313)
(2.23324 0.49257 2.20401)
(2.45273 0.905845 2.74629)
(1.77452 0.323725 0.502669)
(1.94986 1.41678 0.633367)
(2.63653 0.908118 0.718791)
(0.621778 -0.612969 -0.680878)
(0.941956 0.859474 1.18481)
(1.27704 1.52636 0.198134)
(1.49684 1.85977 0.058728)
(-0.0574088 -0.50709 -1.3215)
(0.331706 0.783189 -0.974436)
(0.272986 1.74768 0.355449)
(0.899109 1.62203 0.464814)
(1.18276 1.6735 0.672559)
(0.00161206 -0.495719 -1.81002)
(-0.080742 0.363506 -1.60604)
(0.197498 1.1317 -0.610098)
(0.492795 1.12014 -0.524878)
(0.8233 1.03796 -0.315785)
(1.20296 1.44082 -0.257836)
(0.442013 -0.531012 -2.30029)
(0.341648 0.345708 -1.94619)
(0.525622 0.780314 -1.48571)
(0.728757 0.675935 -1.49766)
(0.998996 0.801391 -1.603)
(1.04872 1.21096 -1.59459)
(1.2066 1.06527 -1.36641)
(0.404984 -0.232593 -2.08058)
(0.316454 0.391809 -2.002)
(0.490701 0.62601 -1.65615)
(0.596342 0.512747 -1.68589)
(0.733037 -0.0915126 -2.12971)
(0.969189 0.146855 -2.37528)
(1.03766 0.0857099 -2.10977)
(1.29416 -0.156555 -1.55933)
(-0.175772 0.390259 -1.66327)
(0.0430677 0.712505 -1.56543)
(-0.184168 0.440231 -1.21714)
(-0.370204 0.460557 -0.959081)
(-0.586485 0.0357152 -0.896955)
(-0.487462 -0.160898 -1.14759)
(-0.0430982 -0.04919 -1.00703)
(0.0518916 -0.161458 -0.965971)
(0.65004 -0.000684051 -0.152947)
(3.19559 1.20649 3.96354)
(3.70245 0.777465 3.96447)
(3.5127 0.351514 2.95639)
(3.05312 1.72873 3.66637)
(2.25761 -0.231864 2.02171)
(2.56703 0.735774 2.48578)
(2.02674 2.1574 2.98676)
(1.50503 -0.220328 0.712242)
(2.06935 0.977934 0.289586)
(2.61324 0.556454 0.478121)
(2.36088 1.74654 1.54323)
(0.550936 -0.99518 -0.576436)
(0.968967 0.758324 1.03116)
(1.26938 1.3907 -0.120147)
(1.52691 1.61189 -0.0798379)
(2.11369 1.64357 0.600085)
(0.110229 -0.578419 -1.26697)
(0.394207 0.784226 -0.938158)
(0.355151 1.6582 0.273414)
(0.89783 1.49368 0.265381)
(1.12748 1.53829 0.671)
(1.59133 1.63499 1.30812)
(0.00644962 -0.693912 -1.84355)
(-0.0441721 0.394805 -1.55567)
(0.207465 1.13244 -0.675913)
(0.415663 1.03114 -0.607677)
(0.77928 0.930754 -0.43168)
(1.11872 1.37633 -0.300217)
(1.08305 1.75055 -0.482587)
(0.51053 -0.585818 -2.42944)
(0.368825 0.235498 -1.96571)
(0.462329 0.672589 -1.56665)
(0.631099 0.548925 -1.61194)
(0.913099 0.7037 -1.70062)
(1.07194 1.23195 -1.51372)
(1.05848 1.14868 -1.4193)
(1.31545 0.506494 -1.46558)
(0.435821 -0.269839 -1.99578)
(0.313232 0.303668 -2.00091)
(0.449544 0.529366 -1.67956)
(0.56405 0.442118 -1.69184)
(0.649682 -0.13419 -2.10527)
(0.82825 -0.105461 -2.41656)
(0.998353 0.0838728 -2.10261)
(1.27372 -0.0881151 -1.54559)
(1.60038 0.105458 -1.16437)
(-0.171788 0.379448 -1.65436)
(0.0469825 0.692821 -1.56106)
(-0.193467 0.412244 -1.21573)
(-0.380067 0.426361 -0.964651)
(-0.590114 0.0241303 -0.89345)
(-0.509806 -0.182767 -1.13585)
(-0.0500044 -0.05923 -1.03592)
(0.054401 -0.178037 -0.988578)
(0.648927 -0.0215825 -0.209041)
(0.735894 0.433904 -0.732637)
(2.87034 1.00597 3.68188)
(3.03021 0.946976 4.20491)
(3.27875 1.36783 3.73583)
(3.65791 0.995218 3.98874)
(3.59598 0.849998 4.12477)
(3.26361 0.117971 2.80039)
(3.25696 1.41315 3.46343)
(2.7768 2.11396 3.6262)
(2.17275 -0.360458 1.87123)
(2.48857 0.40782 2.18832)
(2.15712 1.9443 2.84892)
(2.26982 2.39229 2.97749)
(1.39057 -0.400133 0.490712)
(1.98891 0.353033 0.370163)
(2.45794 0.498326 0.345477)
(2.31283 1.67158 1.47168)
(2.5116 1.59758 1.49822)
(0.569555 -0.988975 -0.546386)
(0.989431 0.511102 0.643026)
(1.23159 1.19624 -0.545343)
(1.55439 1.41602 -0.205481)
(2.19967 1.50855 0.322763)
(2.36908 1.84156 0.913981)
(0.18933 -0.602799 -1.22786)
(0.398881 0.438618 -0.914502)
(0.374696 1.5886 -0.102418)
(0.762983 1.39822 0.095675)
(1.17711 1.40674 0.439365)
(1.54995 1.55666 1.2653)
(1.93133 1.25939 1.27327)
(0.00352182 -0.798961 -1.88902)
(-0.0282422 0.209123 -1.55391)
(0.172676 0.974524 -0.818796)
(0.325942 0.876771 -0.758424)
(0.652205 0.886164 -0.430685)
(1.06117 1.28587 -0.416752)
(0.966827 1.62581 -0.793301)
(1.15061 1.31333 -1.04194)
(0.495143 -0.644535 -2.47163)
(0.387368 0.0597039 -1.95565)
(0.414379 0.456534 -1.69553)
(0.658735 0.460347 -1.65492)
(0.743356 0.479969 -1.85082)
(0.904613 0.883755 -1.81783)
(0.992151 1.02378 -1.39836)
(1.25737 0.584023 -1.48267)
(1.94069 0.444661 -0.764501)
(0.463397 -0.277253 -1.87104)
(0.286626 0.210407 -1.98517)
(0.413636 0.445437 -1.68615)
(0.482761 0.341106 -1.71567)
(0.601143 -0.133673 -2.08224)
(0.685149 -0.177734 -2.41288)
(0.970841 0.142743 -2.07684)
(1.2868 0.0175691 -1.52847)
(1.58595 0.121516 -1.17976)
(1.95018 0.0353778 -1.41125)
(-0.170102 0.369612 -1.64817)
(0.0686807 0.689584 -1.54444)
(-0.203109 0.381102 -1.21007)
(-0.396529 0.403012 -0.960961)
(-0.591249 0.0210962 -0.897033)
(-0.517537 -0.202394 -1.13232)
(-0.0606944 -0.07131 -1.06416)
(0.0503816 -0.195173 -1.01217)
(0.640522 -0.02415 -0.281391)
(0.730695 0.414689 -0.771532)
(0.772958 0.340928 -1.19918)
(2.90336 0.703318 3.35047)
(2.98201 0.49285 3.84334)
(2.80865 0.796565 3.62913)
(3.29105 0.588809 4.22008)
(3.21314 1.15612 3.80768)
(3.05925 0.906428 3.81183)
(3.68824 0.471617 3.9715)
(3.68901 0.932342 4.15998)
(3.46402 1.17348 3.92866)
(3.06718 -0.396615 2.56756)
(3.36981 0.856981 3.21282)
(3.23955 1.07911 3.70184)
(2.92907 1.95136 3.26022)
(1.84694 -1.21353 1.70915)
(2.57756 -0.0903635 1.59883)
(2.13442 2.06854 2.66989)
(2.3448 2.12667 2.94121)
(2.57637 1.90882 2.87527)
(1.27339 -0.797491 0.453718)
(1.86582 -0.116167 0.51653)
(2.35791 0.129554 -0.040273)
(2.27098 1.71617 1.30971)
(2.47829 1.72071 1.33746)
(2.66613 1.51275 1.6531)
(0.561494 -1.13807 -0.697064)
(1.07073 0.40218 -0.0971029)
(1.18299 0.9659 -0.747097)
(1.5391 1.22461 -0.447237)
(2.18889 1.34325 0.231679)
(2.4651 1.73353 0.717199)
(2.71408 1.60226 1.30842)
(0.266573 -0.819865 -1.11809)
(0.281936 0.169255 -0.890787)
(0.513139 1.29058 -0.394895)
(0.778617 1.12804 -0.00795769)
(1.16755 1.25204 0.342306)
(1.62103 1.48487 1.06135)
(1.94782 1.20951 1.31892)
(2.05335 1.00547 1.09998)
(0.104244 -0.808669 -1.92704)
(-0.0333401 0.0303243 -1.59251)
(0.0613079 0.745411 -0.956676)
(0.178962 0.59083 -1.03293)
(0.60734 0.737025 -0.464901)
(0.924814 1.20911 -0.527697)
(0.913369 1.57327 -0.739379)
(1.09697 1.31018 -1.07512)
(1.59554 0.886922 -0.525769)
(0.394131 -0.963661 -2.27256)
(0.380077 -0.06164 -1.94911)
(0.393063 0.338123 -1.76319)
(0.591844 0.369758 -1.71925)
(0.76616 0.568067 -1.78329)
(0.798799 0.909437 -1.79363)
(0.929643 1.1352 -1.36381)
(1.14668 0.282982 -1.56455)
(1.8593 0.362422 -0.735932)
(2.48842 0.137893 -0.916714)
(0.482152 -0.308631 -1.70868)
(0.233843 0.0342307 -1.94365)
(0.375316 0.35943 -1.67563)
(0.42505 0.254161 -1.71782)
(0.404038 -0.350035 -2.08336)
(0.676091 -0.13261 -2.37967)
(0.932177 0.15799 -2.06231)
(1.28668 0.107231 -1.50727)
(1.5804 0.100785 -1.18911)
(1.93608 0.0514279 -1.42435)
(1.615 -0.368498 -1.69598)
(-0.209253 0.30065 -1.65154)
(0.101475 0.700036 -1.51914)
(-0.222185 0.341752 -1.20212)
(-0.381644 0.404665 -0.958009)
(-0.596296 0.0161837 -0.89974)
(-0.542142 -0.221158 -1.11725)
(-0.076837 -0.0858199 -1.09005)
(0.0391661 -0.211178 -1.0366)
(0.636721 -0.000669714 -0.346376)
(0.713675 0.409377 -0.806878)
(0.77914 0.287451 -1.23657)
(0.498368 0.306289 -1.28123)
(2.52207 0.642358 3.17128)
(2.64113 0.519484 3.33167)
(2.84707 0.74647 3.41548)
(2.63899 0.799281 3.41322)
(3.04175 0.293833 4.08146)
(2.96441 0.81358 3.62719)
(2.60894 0.501247 3.62593)
(3.43839 0.339079 4.26728)
(3.19353 0.903443 3.98579)
(3.2379 1.00773 3.71812)
(2.83512 0.564478 3.72762)
(3.71544 0.15835 3.98343)
(3.8454 1.02301 4.13027)
(3.45993 0.815158 4.03164)
(3.31104 1.37099 3.57633)
(2.82399 -0.608195 2.38879)
(3.17078 0.363007 3.15466)
(3.2422 1.25092 3.63927)
(3.24121 0.930114 3.45789)
(3.13086 1.32786 2.96984)
(1.73081 -0.999911 1.65695)
(2.51299 -0.139816 1.2034)
(2.23197 1.63309 2.53893)
(2.46501 2.12187 2.81191)
(2.46945 2.16019 2.84158)
(2.53746 1.70828 2.8723)
(1.19955 -0.905868 0.456942)
(1.622 -1.06692 0.314382)
(2.22077 0.130203 -0.158361)
(2.18701 1.64302 1.06915)
(2.35249 1.60849 1.36857)
(2.64912 1.39413 1.66864)
(2.62385 1.78979 1.68919)
(0.554347 -1.21669 -0.680217)
(1.1093 0.264362 -0.375919)
(1.21884 0.731367 -1.06831)
(1.47898 0.98052 -0.52738)
(2.21543 1.12484 -0.0023837)
(2.49247 1.55981 0.630114)
(2.74235 1.62972 1.22369)
(2.94644 0.907878 1.79196)
(0.165931 -1.19703 -1.28774)
(0.294679 0.0996127 -1.02161)
(0.409625 1.11038 -0.3965)
(0.723762 0.965721 -0.129353)
(1.14815 1.12604 0.197443)
(1.55085 1.35803 1.02286)
(1.87732 1.14927 1.27495)
(2.06341 0.998333 1.19722)
(1.70856 0.993933 0.670628)
(0.125859 -1.04387 -2.07023)
(-0.0372626 -0.100155 -1.47088)
(0.0279843 0.573043 -1.06133)
(0.172338 0.55176 -0.857591)
(0.512007 0.645612 -0.481703)
(0.818035 1.08943 -0.646502)
(0.819822 1.54356 -0.823753)
(1.05347 1.35301 -1.01501)
(1.59571 0.70784 -0.514797)
(2.2456 0.755227 -0.22716)
(0.290268 -1.12232 -2.09441)
(0.323808 -0.298765 -2.0406)
(0.315673 0.126409 -1.84173)
(0.514136 0.248363 -1.80448)
(0.614277 0.369828 -1.97428)
(0.820045 0.988588 -1.72023)
(0.877059 1.1953 -1.33892)
(1.14813 0.619434 -1.49817)
(1.89132 0.120887 -0.659187)
(2.35321 0.312692 -1.06183)
(2.44307 0.0057601 -0.824164)
(0.520368 -0.348944 -1.51504)
(0.205036 -0.103913 -1.83514)
(0.335483 0.273518 -1.65694)
(0.344358 0.157471 -1.70804)
(0.381425 -0.312889 -2.04394)
(0.44308 -0.354432 -2.3954)
(0.865808 0.137536 -2.06331)
(1.26523 0.0998685 -1.50803)
(1.53276 0.0853569 -1.20476)
(1.88255 0.0419562 -1.44235)
(1.61174 -0.448734 -1.65592)
(1.29756 -0.629111 -1.61981)
(-0.249067 0.258768 -1.65285)
(0.147631 0.741603 -1.48081)
(-0.245985 0.298306 -1.19231)
(-0.402372 0.37629 -0.949738)
(-0.600569 0.0101604 -0.894646)
(-0.54607 -0.228919 -1.11515)
(-0.0941257 -0.101264 -1.11683)
(0.0263315 -0.224864 -1.06315)
(0.634588 0.0266357 -0.411663)
(0.701374 0.411504 -0.82921)
(0.798124 0.255805 -1.27253)
(0.521561 0.270274 -1.26269)
(0.243788 0.245286 -1.25445)
(2.5185 0.345912 3.01654)
(2.60237 0.467142 3.17716)
(2.49964 0.605424 3.05965)
(2.72951 0.394526 3.44144)
(2.63107 0.726583 3.16667)
(2.83963 -0.02385 3.56257)
(2.92804 0.509815 3.41477)
(2.67201 0.637584 3.34399)
(3.16552 0.0623071 4.22739)
(2.97005 0.328455 3.87188)
(3.04563 0.633264 3.37822)
(2.71648 0.761885 3.39401)
(3.54645 -0.214885 4.29509)
(3.47708 0.511517 4.16178)
(3.12111 0.870536 3.74733)
(3.0495 0.790363 3.67541)
(2.8868 0.909511 3.21851)
(3.73803 -0.562982 3.83354)
(3.82296 0.750531 4.16985)
(3.72812 1.05125 3.98963)
(3.36295 1.22411 3.65206)
(2.95188 1.35433 3.33716)
(2.69675 -1.10358 2.33746)
(3.01792 0.0416664 3.01625)
(3.48133 0.900955 3.39019)
(3.22255 1.42718 3.36221)
(3.14251 1.38629 3.03329)
(3.06575 1.38082 2.72868)
(1.55914 -1.28158 1.56502)
(2.31314 -0.503125 0.923984)
(2.30367 1.37322 2.30304)
(2.46866 1.92418 2.77663)
(2.62572 2.00002 2.67274)
(2.54336 1.73518 2.87844)
(2.3658 1.40251 2.87073)
(1.0593 -1.34883 0.181963)
(1.45984 -0.903649 0.418379)
(2.02727 -0.194534 -0.708976)
(2.13893 1.45952 0.782105)
(2.36186 1.52667 1.09329)
(2.76287 1.27183 1.40877)
(2.67261 1.67119 1.71131)
(3.07528 0.998045 1.56743)
(0.569025 -1.35503 -0.591652)
(1.22645 0.145818 -0.74902)
(1.18688 0.457065 -1.03565)
(1.41857 0.774904 -0.614666)
(2.14989 0.935479 -0.0633069)
(2.6091 1.2986 0.490675)
(2.80512 1.6139 1.11774)
(2.94812 0.897384 1.73921)
(2.40261 0.847036 1.94265)
(-0.00791247 -1.51524 -1.57822)
(0.0554162 -0.111232 -1.11061)
(0.389217 0.819723 -0.772655)
(0.605747 0.765874 -0.451931)
(1.12858 0.965269 0.103186)
(1.578 1.16441 0.885684)
(1.97387 1.31467 0.8016)
(1.97926 0.963106 1.36967)
(1.69343 0.897976 0.579208)
(1.83602 0.727894 0.379571)
(0.141917 -1.32192 -2.13835)
(-0.0691364 -0.349791 -1.47926)
(-0.0509203 0.362222 -1.11451)
(0.114244 0.437428 -0.789828)
(0.424192 0.517142 -0.565108)
(0.715241 0.966409 -0.78161)
(0.744836 1.49724 -0.893365)
(1.01995 1.44596 -0.986099)
(1.60903 0.773364 -0.406793)
(2.24555 0.800178 -0.0828268)
(2.79456 0.167803 0.16956)
(0.185927 -1.24229 -1.8093)
(0.2894 -0.479211 -2.13752)
(0.24738 -0.00312636 -1.91826)
(0.460109 0.123774 -1.90472)
(0.526163 0.284874 -2.03706)
(0.689874 0.764363 -1.88723)
(0.815475 1.18589 -1.34983)
(1.10281 0.703151 -1.49206)
(1.8972 0.320972 -0.640961)
(2.35254 0.311226 -0.844638)
(2.40508 0.0559399 -0.72096)
(2.26375 -0.239226 -1.35972)
(0.570967 -0.373424 -1.31795)
(0.161512 -0.227207 -1.67777)
(0.291966 0.181696 -1.62491)
(0.266773 0.0452491 -1.67575)
(0.240325 -0.416544 -2.01541)
(0.438979 -0.291188 -2.37262)
(0.834716 0.158674 -2.05099)
(1.22232 0.177297 -1.5154)
(1.52517 0.077093 -1.21798)
(1.87582 0.00877093 -1.44168)
(1.61746 -0.429804 -1.64275)
(1.30756 -0.64891 -1.59542)
(1.22942 -0.729217 -1.60369)
(-0.261865 0.252754 -1.64595)
(0.174753 0.712917 -1.45649)
(-0.271156 0.255875 -1.1819)
(-0.392855 0.369648 -0.940779)
(-0.601682 -0.00701717 -0.888762)
(-0.578319 -0.249259 -1.0932)
(-0.118298 -0.121716 -1.1388)
(0.00835642 -0.237659 -1.09046)
(0.636471 0.0645257 -0.473417)
(0.68858 0.408143 -0.852077)
(0.796565 0.277436 -1.28221)
(0.538921 0.230276 -1.24484)
(0.271752 0.218156 -1.22858)
(0.062232 0.298228 -0.841584)
(2.42863 0.46011 3.02351)
(2.60165 0.157554 3.01971)
(2.27743 0.577064 3.07382)
(2.66376 0.196636 3.23831)
(2.55368 0.464382 3.06546)
(2.42135 0.569511 3.06425)
(2.78909 0.149775 3.43248)
(2.70301 0.459157 3.27814)
(2.7695 0.540258 3.15475)
(2.91321 -0.0822784 3.60784)
(2.86962 0.41233 3.50084)
(2.58812 0.193658 3.57523)
(2.56263 0.822222 3.18706)
(3.32209 -0.106277 4.21039)
(3.12646 0.0992444 4.01299)
(3.03049 0.679075 3.5332)
(2.73836 0.695992 3.38119)
(2.78423 0.631908 3.36823)
(3.65275 -0.571669 4.30129)
(3.58661 0.211254 4.28991)
(3.29642 0.562187 3.85847)
(3.15107 0.537439 3.66749)
(2.98329 0.760348 3.34287)
(2.70245 1.41073 2.87654)
(3.68947 -0.892439 3.60828)
(3.897 0.426739 4.06384)
(3.7683 0.925291 4.12833)
(3.41333 1.14428 3.75968)
(3.09881 1.2197 3.43306)
(2.81742 1.2697 3.02355)
(2.40849 -1.6424 2.21127)
(2.8463 -0.357643 2.7675)
(3.45286 0.55702 3.2005)
(3.35897 1.28879 3.29998)
(3.22002 1.26608 2.9927)
(3.12885 1.20428 2.8236)
(3.05263 1.11687 2.7192)
(1.4277 -1.6158 1.37302)
(2.15138 -0.928901 0.741668)
(2.14451 0.578275 2.23289)
(2.50741 1.74748 2.616)
(2.6277 1.78429 2.66926)
(2.59574 1.61048 2.84194)
(2.38866 1.39097 2.90159)
(2.47506 1.23553 2.25905)
(0.839698 -1.7669 0.272453)
(1.44489 -1.32971 -0.166933)
(1.9017 -0.140768 -0.752341)
(2.06137 1.28751 0.495553)
(2.29874 1.4943 0.905442)
(2.7764 1.1728 1.3012)
(2.80464 1.34739 1.65654)
(2.92684 1.03167 1.66864)
(3.39684 -0.0292722 1.09249)
(0.412369 -1.77529 -0.997239)
(0.990357 -0.323989 -0.882444)
(1.13223 0.17608 -1.19426)
(1.345 0.608418 -0.752743)
(2.10702 0.746221 -0.233029)
(2.62904 1.09118 0.497871)
(2.8405 1.39547 1.01672)
(2.96698 0.884172 1.66151)
(2.68674 0.680865 1.7171)
(2.1173 0.758014 1.54642)
(-0.140073 -1.87266 -1.79551)
(-0.0848211 -0.42377 -1.20054)
(0.0941805 0.43827 -1.05168)
(0.524819 0.567659 -0.736183)
(1.09117 0.820099 0.0405371)
(1.48757 1.07282 0.758005)
(1.93734 1.12823 0.919385)
(2.06438 0.922339 1.28154)
(1.68454 0.870006 0.508749)
(1.8348 0.898975 0.62483)
(2.5868 0.712472 0.618638)
(0.187403 -1.50311 -2.12532)
(-0.177832 -0.707556 -1.59828)
(-0.0867382 0.178396 -1.13162)
(0.0520479 0.265818 -0.841277)
(0.294564 0.399299 -0.662452)
(0.554723 0.847972 -0.991149)
(0.684445 1.45514 -0.945981)
(1.06297 1.50987 -0.99096)
(1.64156 1.12782 -0.139436)
(2.23173 0.673585 -0.0421162)
(2.74963 0.154378 0.248687)
(2.7123 -0.459257 0.0615887)
(0.0965567 -1.27643 -1.40446)
(0.242879 -0.603777 -2.15214)
(0.232747 -0.132929 -1.99988)
(0.410691 -0.00720321 -2.00269)
(0.425738 0.170988 -2.1145)
(0.568192 0.590275 -1.96306)
(0.782035 1.19634 -1.29856)
(1.05612 0.886737 -1.37751)
(1.83117 0.578787 -0.612754)
(2.29166 0.276439 -0.866933)
(2.35349 0.0764039 -0.674812)
(2.21307 -0.422425 -1.28322)
(2.23301 -0.228953 -1.4801)
(0.614187 -0.415345 -1.12652)
(0.12427 -0.3197 -1.47269)
(0.233282 0.0831297 -1.56661)
(0.168769 -0.0675825 -1.61357)
(0.145341 -0.483041 -1.9758)
(0.286458 -0.376464 -2.35545)
(0.743975 0.087272 -2.06584)
(1.16178 0.13859 -1.53357)
(1.54157 0.0394741 -1.24084)
(1.83853 -0.0171349 -1.47)
(1.59258 -0.389257 -1.65521)
(1.32742 -0.636105 -1.58535)
(1.25877 -0.706815 -1.60962)
(1.00647 -0.0979366 -1.24131)
(-0.256552 0.25945 -1.63217)
(0.189902 0.697318 -1.42269)
(-0.311297 0.20334 -1.16869)
(-0.427191 0.314955 -0.923811)
(-0.603094 -0.00669481 -0.886041)
(-0.592906 -0.254989 -1.08738)
(-0.14396 -0.141673 -1.16273)
(-0.0122977 -0.250753 -1.11966)
(0.642461 0.108803 -0.530999)
(0.677758 0.402737 -0.86545)
(0.805736 0.258697 -1.27281)
(0.55238 0.18895 -1.22801)
(0.294397 0.18253 -1.20765)
(0.0765531 0.296371 -0.848697)
(-0.17578 0.171981 -0.804798)
(2.46284 0.250465 2.61266)
(2.39903 0.405759 3.03252)
(2.28157 0.44942 2.96096)
(2.63936 0.0618169 3.0307)
(2.3972 0.682128 3.05521)
(2.28125 0.672169 3.00891)
(2.62343 -0.00138822 3.33282)
(2.55865 0.370036 3.0809)
(2.6046 0.397088 3.07447)
(2.35 0.540815 3.04841)
(2.79329 -0.203401 3.46223)
(2.77757 0.274396 3.41171)
(2.66192 0.387785 3.24759)
(2.69328 0.380616 3.09273)
(2.84397 -0.586758 3.7403)
(2.84085 -0.462457 3.56157)
(2.93446 0.347293 3.48611)
(2.48671 0.372241 3.37404)
(2.68091 0.54582 3.00404)
(3.33955 -0.420304 4.19661)
(3.26703 -0.0711854 4.10234)
(3.0678 0.116438 3.70006)
(2.97739 0.618718 3.32965)
(2.81734 0.572874 3.33602)
(2.61623 0.767785 3.11989)
(3.54453 -0.974002 4.29648)
(3.78342 -0.271442 4.30813)
(3.60045 0.342369 3.94283)
(3.16379 0.587153 3.61528)
(3.12452 0.597478 3.44828)
(2.80069 0.861811 3.04692)
(2.76015 0.901354 2.84844)
(3.68273 -1.44863 3.38904)
(3.72186 -0.612888 3.91428)
(3.83458 0.640916 4.09115)
(3.67898 1.1509 3.75564)
(3.25853 1.25053 3.38868)
(2.91524 1.16705 3.10404)
(3.00805 0.916136 2.84829)
(2.03283 -2.08004 2.08264)
(2.72504 -1.03606 2.31059)
(3.29283 0.309071 2.88018)
(3.44259 0.906656 3.18307)
(3.29559 1.15074 3.03211)
(3.24886 1.05138 2.76709)
(3.11014 0.944889 2.7376)
(2.84729 0.63676 2.69418)
(1.2667 -1.97559 1.18133)
(1.83928 -1.41141 0.680243)
(2.21542 0.229486 1.79662)
(2.42695 1.38546 2.51467)
(2.65598 1.6662 2.5542)
(2.5944 1.56476 2.76202)
(2.42409 1.39783 2.87759)
(2.53034 0.984021 2.12724)
(2.89522 0.490846 1.79567)
(0.707638 -2.08295 -0.0557639)
(1.37359 -1.3213 -0.353333)
(1.8566 -0.266593 -1.23206)
(1.91921 1.05454 0.137528)
(2.25315 1.37422 0.785022)
(2.80366 1.04837 1.15501)
(2.78961 1.26555 1.58438)
(2.84132 1.01804 1.57406)
(3.36514 -0.0283971 1.23435)
(2.81394 -0.0370885 1.5255)
(0.158448 -2.10442 -1.54605)
(0.686344 -0.812514 -0.894438)
(0.970274 -0.266086 -1.28086)
(1.2443 0.489519 -0.895255)
(2.07785 0.534606 -0.392861)
(2.59473 0.960783 0.476272)
(2.95728 1.16582 0.704741)
(3.0342 0.830451 1.57853)
(2.73107 0.487011 1.86977)
(2.13551 0.823699 2.03287)
(2.25632 0.73429 1.87659)
(-0.170125 -1.89017 -2.17372)
(-0.109605 -0.577905 -1.03348)
(0.152971 0.280319 -1.03899)
(0.444443 0.413483 -0.800412)
(1.02221 0.66418 0.00770282)
(1.44198 0.893676 0.574035)
(1.96126 1.14053 0.744617)
(2.04682 0.884127 1.4334)
(1.68147 0.936258 0.572244)
(1.9038 0.947284 0.598142)
(2.52708 0.60642 0.670437)
(2.85673 0.210362 0.45496)
(0.191538 -1.50824 -2.08184)
(-0.291179 -1.01732 -1.78935)
(-0.189985 -0.0104417 -1.20974)
(-0.0478469 0.114547 -0.907101)
(0.130439 0.26196 -0.792681)
(0.430364 0.729354 -1.03209)
(0.605267 1.39499 -0.984388)
(1.05152 1.4136 -1.08529)
(1.67306 1.21603 -0.0210069)
(2.12367 0.917335 0.0761729)
(2.63342 0.130893 0.271165)
(2.51159 -0.517035 0.544619)
(2.61677 -0.828447 -0.195223)
(0.118459 -1.24784 -0.916856)
(0.187428 -0.804977 -1.94476)
(0.200206 -0.24746 -2.05552)
(0.287923 -0.12649 -2.09525)
(0.312229 0.0287475 -2.19366)
(0.569181 0.630059 -1.93343)
(0.739427 1.12603 -1.32604)
(1.00016 0.725542 -1.4211)
(1.81438 0.448788 -0.655037)
(2.2188 0.357138 -0.863033)
(2.28606 0.0581302 -0.676782)
(2.14501 -0.555527 -1.2191)
(2.24958 -0.460548 -1.34315)
(2.01889 -0.882946 -1.46596)
(0.618077 -0.469741 -0.967747)
(0.0922933 -0.399044 -1.26775)
(0.155105 -0.0201821 -1.47926)
(0.0667224 -0.187448 -1.51619)
(0.0336998 -0.559304 -1.92706)
(0.176106 -0.434897 -2.33354)
(0.704667 0.105982 -2.064)
(1.15453 0.141687 -1.50967)
(1.38446 0.189217 -1.37713)
(1.70387 -0.0606657 -1.48944)
(1.57231 -0.419607 -1.62281)
(1.3493 -0.643702 -1.55371)
(1.28165 -0.688267 -1.59876)
(1.09917 -0.164407 -1.30588)
(0.135597 -0.177343 -0.708474)
(-0.241061 0.273947 -1.61418)
(0.197332 0.672107 -1.39018)
(-0.301413 0.19823 -1.16145)
(-0.399755 0.312275 -0.920472)
(-0.60712 -0.0135017 -0.876699)
(-0.607047 -0.265021 -1.07341)
(-0.174683 -0.164325 -1.18444)
(-0.037047 -0.266041 -1.14949)
(0.6511 0.149129 -0.582352)
(0.661492 0.391368 -0.874881)
(0.786245 0.193249 -1.30373)
(0.56075 0.1476 -1.21398)
(0.310895 0.142583 -1.19147)
(0.0901771 0.28843 -0.855876)
(-0.170479 0.156914 -0.819256)
(0.0199675 -0.0842178 -0.869298)
(2.06601 0.451467 2.76137)
(2.4798 0.144566 2.63757)
(2.2634 0.374686 2.70137)
(2.39219 0.258295 3.04433)
(2.33411 0.438798 2.95887)
(2.41676 0.445785 2.75746)
(2.54289 0.0751644 3.14513)
(2.39722 0.359778 3.16122)
(2.35442 0.110974 3.11951)
(2.37755 0.649482 2.95739)
(2.65817 -0.0969185 3.34537)
(2.618 0.0528352 3.22992)
(2.60799 0.294141 3.05292)
(2.55041 0.356676 3.03824)
(2.47955 0.435779 2.98635)
(2.75495 -0.248597 3.4893)
(2.73417 0.00914254 3.45351)
(2.72099 -0.0447874 3.35296)
(2.774 0.257735 3.09085)
(2.60462 0.269628 2.98607)
(2.89709 -0.759646 3.77856)
(2.87912 -0.340189 3.67004)
(2.93063 -0.113257 3.47527)
(2.68544 0.324345 3.42603)
(2.70144 0.436967 3.06115)
(2.62329 0.46609 2.87431)
(3.3064 -0.658743 4.17249)
(3.3312 -0.249904 4.09005)
(3.17657 -0.145573 3.79446)
(2.97736 0.700859 3.41835)
(2.8611 0.612268 3.27141)
(2.7854 0.632957 3.10708)
(2.59107 0.64477 2.69715)
(3.43256 -1.76832 4.02746)
(3.91054 -0.297962 4.30187)
(3.68767 0.328183 4.09328)
(3.41917 0.216473 3.66967)
(2.98658 0.461966 3.60525)
(2.9391 0.692619 3.15743)
(2.73154 0.902857 2.87122)
(2.73403 0.247555 2.81025)
(3.35817 -1.9406 3.18609)
(3.49933 -0.822183 3.64655)
(3.73819 0.106536 4.09751)
(3.67506 0.819537 3.92531)
(3.37359 1.1855 3.4798)
(2.9656 0.823389 3.24994)
(3.04448 0.871111 2.88615)
(3.05782 0.537807 2.62382)
(1.83992 -2.40016 1.87785)
(2.4716 -0.961666 2.09549)
(3.20468 -0.15227 2.46825)
(3.46822 0.896132 2.90461)
(3.36209 1.28792 2.94087)
(3.26423 0.942549 2.74025)
(3.21603 0.855301 2.69241)
(2.91617 0.531299 2.68014)
(2.68526 0.410482 2.404)
(0.933808 -2.85864 0.500896)
(1.54352 -1.61826 0.54995)
(2.09666 -0.391147 1.48374)
(2.35835 1.20575 2.15268)
(2.53655 1.43544 2.57419)
(2.67032 1.47103 2.62601)
(2.44523 1.36346 2.86615)
(2.53132 0.848617 2.16866)
(2.73728 0.485076 1.89711)
(2.92531 0.0244736 1.76592)
(0.578729 -2.48085 -0.171552)
(1.11842 -1.54158 -0.800974)
(1.85694 -0.422022 -1.38765)
(1.81467 0.652471 -0.353435)
(2.25671 1.33559 0.522425)
(2.83346 0.946466 0.930702)
(2.78961 1.19014 1.49896)
(2.87327 0.974581 1.4279)
(3.30719 -0.0127365 1.41027)
(3.03148 -0.280668 1.74339)
(2.51528 -0.0784808 2.03521)
(-0.154792 -2.51155 -1.62797)
(0.543915 -1.06103 -0.734479)
(0.911074 -0.503098 -1.23892)
(1.32927 0.406975 -0.909283)
(1.97859 0.458549 -0.412322)
(2.57415 0.801558 0.385014)
(2.95468 1.05449 0.760737)
(3.0609 0.906901 1.56596)
(2.96071 0.435825 1.76357)
(2.57792 0.724349 1.90648)
(2.1247 0.66777 2.20414)
(2.45422 0.353641 1.30509)
(-0.0741447 -1.894 -2.12964)
(-0.262868 -0.89465 -1.12645)
(-0.0203436 0.0407189 -1.04723)
(0.329783 0.256451 -0.810431)
(0.89506 0.436311 -0.126247)
(1.31522 0.81782 0.322787)
(1.98677 1.09718 0.632558)
(2.10685 0.91835 1.38037)
(1.77876 0.877875 0.785435)
(1.90409 0.913572 0.718657)
(2.51499 0.601195 0.752969)
(2.7309 0.26287 0.695599)
(2.74176 -0.67172 0.79406)
(0.0880605 -1.63702 -1.8058)
(-0.426601 -1.34985 -1.8885)
(-0.275034 -0.2542 -1.32615)
(-0.107121 -0.0521985 -0.953575)
(0.0210805 0.148096 -0.815979)
(0.281495 0.612545 -1.03594)
(0.52906 1.3322 -1.00027)
(0.931394 1.26055 -1.15683)
(1.69998 1.2081 -0.293325)
(2.12544 0.74822 -0.00420907)
(2.58195 0.131844 0.247567)
(2.36142 -0.494236 -0.539084)
(2.47157 -0.360438 -0.263179)
(2.51154 -0.0807873 -1.3506)
(0.228971 -1.19357 -0.529828)
(0.0546998 -1.02614 -1.54194)
(0.126488 -0.419089 -2.02197)
(0.227754 -0.254902 -2.13178)
(0.208599 -0.0864253 -2.24127)
(0.488993 0.49798 -1.9933)
(0.702997 1.11002 -1.32436)
(1.02116 0.874129 -1.27662)
(1.83367 0.589148 -0.666478)
(2.15411 0.365752 -0.811468)
(2.21047 0.0210007 -0.701108)
(2.06149 -0.580554 -1.26009)
(2.21273 -0.458927 -1.41412)
(2.01023 -0.85886 -1.4964)
(0.794061 -1.64506 -0.795476)
(0.621769 -0.514741 -0.854885)
(0.0935475 -0.48001 -1.09652)
(0.0660852 -0.142139 -1.36474)
(-0.0425408 -0.298796 -1.39416)
(-0.0975588 -0.638568 -1.85923)
(0.0497372 -0.499527 -2.30468)
(0.631209 0.0786976 -2.07552)
(1.093 0.169195 -1.54199)
(1.38084 0.0477352 -1.3209)
(1.68423 -0.153903 -1.47496)
(1.567 -0.365133 -1.59179)
(1.35315 -0.661196 -1.53749)
(1.31707 -0.624821 -1.5855)
(1.1767 -0.311003 -1.36113)
(0.253143 0.00128938 -0.622481)
(0.197497 -0.654037 -1.21134)
(-0.218175 0.291588 -1.59428)
(0.197936 0.63441 -1.3638)
(-0.389956 0.110954 -1.14393)
(-0.395183 0.303897 -0.923976)
(-0.63903 -0.0491001 -0.838386)
(-0.622819 -0.272475 -1.05687)
(-0.212342 -0.190158 -1.20486)
(-0.0678386 -0.282458 -1.18)
(0.666376 0.194769 -0.630031)
(0.625792 0.348554 -0.925912)
(0.769291 0.148052 -1.33925)
(0.566292 0.113389 -1.20063)
(0.319009 0.101195 -1.18033)
(0.104437 0.274312 -0.863269)
(-0.168042 0.128817 -0.829068)
(0.041216 -0.0684113 -0.862943)
(-0.019366 -0.920628 -0.560293)
(1.97997 0.352199 2.46082)
(2.02187 0.436829 2.79773)
(1.7655 0.60477 2.89223)
(2.44298 0.131738 2.67223)
(2.26109 0.322129 2.69874)
(2.2786 0.389595 2.68414)
(2.44522 -0.0399319 3.12469)
(2.38444 0.313909 2.99375)
(2.35988 0.31149 2.78982)
(2.38769 0.373943 2.75319)
(2.68049 -0.261518 3.12888)
(2.53356 -0.0802305 3.1184)
(2.45251 0.334901 3.14185)
(2.37283 0.0968103 3.05962)