/*--------------------------------*- C++ -*----------------------------------*\
  =========                 |
  \\      /  F ield         | OpenFOAM: The Open Source CFD Toolbox
   \\    /   O peration     | Website:  https://openfoam.org
    \\  /    A nd           | Version:  7
     \\/     M anipulation  |
\*---------------------------------------------------------------------------*/
FoamFile
{
    version     2.0;
    format      ascii;
    class       volScalarField;
    location    "4";
    object      nut;
}
// * * * * * * * * * * * * * * * * * * * * * * * * * * * * * * * * * * * * * //

dimensions      [0 2 -1 0 0 0 0];

internalField   nonuniform List<scalar> 
18870
(
0.000242749
0.000412294
0.000207556
0.000242015
0.000501754
0.000275197
0.000562375
0.000240576
0.000256695
8.82883e-05
0.000496967
0.000311287
0.00072997
0.000288768
0.000254312
0.000215099
0.000164454
0.000223557
0.000161571
0.000230106
9.87251e-05
0.000507493
0.000656848
0.000535497
0.000322831
0.000615562
0.000213253
0.000365227
0.000140519
0.000738267
0.000112849
0.000259796
0.000122033
0.000211252
0.000193887
0.000225298
0.000415874
0.000302788
0.000783023
0.000431946
0.000645171
0.000498634
0.000199768
0.000232786
0.000396114
0.000329231
0.000488069
0.000267741
0.000326099
0.000737602
0.000264179
0.000342814
0.000131243
0.000183198
0.000206914
0.000281348
0.000440355
0.000570353
0.000858233
0.000486544
0.000438812
0.000533446
0.000888255
0.000592656
0.000463975
0.000715634
0.00041613
0.000438396
0.000420989
0.000350906
0.000516506
0.000346021
0.000649847
0.000231158
0.000600939
0.000463657
0.000392852
0.000478096
0.000201219
0.000224562
0.000221108
0.000204584
0.000288375
0.000316905
0.000316926
0.000303193
0.000446786
0.000154425
0.000872686
0.000385582
0.000343674
0.000365847
0.00029444
0.00027442
0.000618156
0.000442336
0.000365994
0.000358904
0.000658035
0.00036246
0.000520789
0.000337521
0.000298934
0.000200425
0.000164007
0.00022275
0.000628778
0.000451335
0.000670434
0.000651937
0.000256267
0.000624418
5.87427e-05
0.000232302
0.00024393
0.000322149
0.00018193
0.000139887
0.000267085
8.80013e-05
0.000411296
0.00075243
0.000452742
0.000315944
0.000589351
0.000697196
0.000283703
0.00044324
0.000480777
0.000447424
0.0004356
0.000243613
0.000625239
0.000358867
0.000931182
0.000851763
0.000574114
0.000470101
0.000514107
0.000395542
0.00044923
0.000398831
0.000177492
0.000215858
0.000240425
0.00048206
0.000259291
0.000324377
0.000309547
0.000253622
0.000436783
0.000318908
0.000227472
0.000212871
0.000351363
0.000250005
6.77339e-05
0.000192104
0.000122167
0.000289231
0.000135164
0.000111472
0.000150809
0.000107574
0.000170694
0.000627364
0.000396491
0.000588436
0.00064031
0.000168048
0.000489644
0.00023426
0.000686486
0.000578093
0.000568083
0.000467153
0.000606978
0.000297895
0.00071569
0.00032808
0.000588503
0.000578007
0.000504441
0.000881381
0.000679489
0.000374055
0.000853152
0.000531478
0.000486869
0.000516427
0.000234711
0.000625067
0.000328982
0.000329345
0.00040481
0.000294678
0.000199631
0.000210728
0.000160602
0.000374451
0.000394921
0.000462475
0.000475907
0.000120754
0.00018678
0.000228875
0.000318902
0.000593659
0.000225498
0.000286665
0.000401387
0.000111482
0.00010587
0.000254425
0.000143193
0.000213187
0.000261655
0.000128703
0.000173553
0.000207342
0.000255938
0.000525963
0.000370333
0.000251853
0.000411183
0.000569184
0.000330344
0.000316543
0.000680569
0.000329847
0.000234502
0.000677171
0.000529037
0.000204697
0.00038612
0.000185842
0.000506052
0.000328057
0.000368154
0.000429298
0.000552598
0.000816191
0.000236047
0.000263594
0.000704315
0.000752209
0.000417727
0.000499131
0.000572379
0.000447556
0.000517573
0.000335173
0.000445198
0.000325586
0.000598838
0.000466776
0.000402529
0.000575348
0.000713424
0.000206765
0.000202685
0.00018603
0.000324964
0.000468767
0.000319399
0.00037138
0.000460613
0.000287299
0.000242438
0.000220795
0.00032406
0.000319091
0.000247805
0.000139699
0.00023147
0.000362552
0.000185972
0.000269395
0.000416595
0.000213379
0.000167983
0.000369122
7.54805e-05
0.000188077
0.000679032
0.000150607
0.000284695
0.000331895
0.000157932
0.00040674
0.000425078
0.000571089
0.000445999
0.000481052
0.000663941
0.000514908
0.000314447
0.000776626
0.00034364
0.000482588
0.000552514
0.000885233
0.000704462
0.000574197
0.000147207
0.000184581
0.00033076
0.00043217
0.000363765
0.00052279
0.000581855
0.000499508
0.000544084
0.00011342
0.000780307
0.000352868
0.000554751
0.000501762
0.000828124
0.000328475
0.000403702
0.00049023
0.00077443
0.000621248
0.000377084
0.000376519
0.000351357
0.000310165
0.000501534
0.000517813
0.000738344
0.000767507
0.000359304
0.000189417
0.000236324
9.58458e-05
0.000304485
0.000400585
0.000393979
0.000353712
0.00032151
0.000372863
0.000196047
0.000323707
0.000264436
0.000275281
0.000225469
0.00057206
0.000317306
0.000143316
0.000239804
0.000313257
6.78548e-05
0.000290563
0.000166173
0.00025236
0.000256529
0.000141594
0.000254394
9.65321e-05
0.00020912
0.000200187
0.000197574
0.000125909
0.000296135
0.000352452
0.000329473
0.000461737
0.000257481
0.000421376
0.000304374
0.000375061
0.000385392
0.000638983
0.000411058
0.000213506
0.000277429
0.000281799
0.000340423
0.000446966
0.000575075
0.000362225
0.000489066
0.000553653
0.000419525
0.000779149
0.000551031
0.00042113
0.000164078
0.000223013
0.000401806
0.000553982
0.000986278
0.000295555
0.000271655
0.00081632
0.000290803
0.000184943
0.000277591
0.000600704
0.000562225
0.000455842
0.000966783
0.000453065
0.000721444
0.000668082
0.000594738
0.000386451
0.000264581
0.000714711
0.000510094
0.000446303
0.000387411
0.000235109
0.000343423
0.000386382
0.000256483
0.000312594
0.000444686
0.000462666
0.000170326
0.000541116
0.000231218
0.000224715
0.000317065
0.000377875
0.000448522
0.000273755
0.000344947
0.000563911
0.000449041
0.00031664
0.000259084
0.000267625
0.00024136
0.000295855
0.000814638
0.000544644
0.000165485
0.000267577
0.000401946
0.000142631
5.90264e-05
0.000210082
9.49052e-05
0.000278148
0.000217745
0.000284902
0.000280051
0.000142264
0.000162114
0.000227918
0.000108166
0.000133887
4.91723e-05
0.000443881
0.000343614
0.000330186
0.000156488
0.000293574
0.00023597
0.000345461
0.000386206
0.000434388
0.000282613
0.000427457
0.000291055
0.000302762
0.000559502
0.000263018
0.000338339
0.000477901
0.000348172
0.000426191
0.000204689
0.00042558
0.000519408
0.000590378
0.000453416
0.000388484
0.000408474
0.000489452
0.00062088
0.000576715
0.000365454
0.000353972
0.000337161
0.000307055
0.00031484
0.000383603
0.000429568
0.000986526
0.000443613
0.000957929
0.000708703
0.00046479
0.000276515
0.000103802
0.000479122
0.000436524
0.000407839
0.000329963
0.000820045
0.000997182
0.000903923
0.000745464
0.000428186
0.000639383
0.000292807
0.000419446
0.000603912
0.000560907
0.000467047
0.000478293
0.000301531
0.000412694
0.000499557
0.000310859
0.000413083
0.000493049
0.000555663
0.000760783
0.000385291
0.000528444
0.00035439
0.000388473
0.000256593
0.000300586
0.000392397
0.000231501
0.00039407
0.000349843
0.000158442
0.00041247
0.000260099
0.00045667
0.000311197
0.000282428
0.000333516
0.00021499
0.000631584
0.0001845
0.000290821
0.000177092
0.000200604
0.00020579
0.000210471
0.000140656
0.000216224
0.000254011
0.000221726
0.000269572
0.000306753
9.82872e-05
0.000137313
0.00032838
0.000160339
0.000136687
3.73237e-05
7.87263e-05
0.000441182
0.000304363
0.000264909
0.000329825
0.000231875
0.00025525
0.000229657
0.000116461
0.000309473
0.000344529
0.000312703
0.000231868
0.000566525
0.00043904
0.000486228
0.000642477
0.000282181
0.000331793
0.000247318
0.000343934
0.000542045
0.000560781
0.000622407
0.000312226
0.000382608
0.000320076
0.000162752
0.000613575
0.00062515
0.000669843
0.000419209
0.000365656
0.000402885
0.000582489
0.000691174
0.000619233
0.000544967
0.000441403
0.000571289
0.000602075
0.000278946
0.000368699
0.000300217
0.000506633
0.000544304
0.00032123
0.000429975
0.000919512
0.000605238
0.000595066
0.000426677
0.000255902
0.000434023
0.000407405
0.00044499
0.000508076
0.000631595
0.000424322
0.000657277
0.00104792
0.000810755
0.000665374
0.000445969
0.000263429
0.000437578
0.000404967
0.000605741
0.000639832
0.000451693
0.000413221
0.000548272
0.000401936
0.000323323
0.000321744
0.000434961
0.000556304
0.000555986
0.000240322
0.000885652
0.000417168
0.000415671
0.000327712
0.000151845
0.000528141
0.000402773
0.000519559
0.000277191
0.00052973
0.000423852
0.000157171
0.000457657
0.000129257
0.000226826
0.000503585
0.000309728
0.000293248
0.000281862
0.000225297
0.000243855
0.000158146
0.000181977
0.000176643
0.000228014
0.000170026
0.000252977
0.000144466
0.000275556
0.000173786
0.000193075
0.000158382
0.000166521
0.000244545
0.000123667
0.000217751
0.000210573
0.000108263
0.000125051
4.45177e-05
0.000105212
0.00021983
0.000262989
0.000466725
0.000354103
0.000361296
0.000313082
0.000158524
0.000366906
0.000181578
0.000223964
0.000275906
0.000218553
0.000241748
0.000317173
0.000367905
0.000386285
0.000300576
0.000433484
0.000253194
0.000315533
0.000346962
0.000444275
0.000541228
0.000269456
0.000160734
0.000193973
0.000357494
0.000340604
0.000441619
0.000441575
0.000530531
0.000405175
0.000427637
0.000340026
0.000266366
0.000377719
0.000456128
0.000523606
0.000481287
0.000486782
0.000442618
0.000519531
0.000518507
0.000376411
0.000298672
0.000516767
0.000638753
0.000561919
0.000683713
0.000664568
0.000700632
0.000267241
0.000305067
0.000345628
0.000324071
0.000432355
0.000745785
0.000563859
0.000579347
0.000494552
0.000894887
0.00051363
0.000339158
0.00030759
0.000456131
0.000437787
0.000437807
0.000476986
0.000899396
0.000309541
0.000576222
0.000711614
0.000735735
0.000774122
0.000446121
0.000480472
0.000463687
0.00044702
0.000273519
0.00031369
0.000356644
0.000590698
0.00042031
0.000330359
0.000282436
0.000393692
0.000522903
0.000348039
0.000540876
0.00056734
0.000347022
0.000948492
0.000391129
0.000191019
0.000392115
0.000273462
0.00017724
0.0002353
0.000456591
0.000475631
0.000221881
0.000434255
0.000355662
0.000192798
0.000584997
0.000522418
0.000386636
0.000273001
0.000463456
0.000305088
0.000256845
0.000190773
0.000601634
0.000336209
0.000179902
0.000257051
0.000126845
0.000314051
0.000165582
0.000363486
0.000576703
9.04887e-05
0.000240717
0.000109535
0.000249006
0.000190738
0.000231915
0.000181542
8.4072e-05
0.000210483
0.000135064
0.000150789
0.00011768
5.0603e-05
0.000387244
0.000126829
0.000320602
0.000349849
0.000474994
0.000279547
0.000204568
0.000293031
0.000248274
0.000284952
0.000348639
0.000242755
0.000421974
0.000142368
0.000226275
0.000370621
0.000462822
0.000222397
0.000219065
0.000280776
0.000275894
0.000295194
0.000344395
0.000409466
0.000307466
0.00037516
0.00025336
0.00030212
0.000266843
0.000361938
0.0003598
0.00025283
0.00047842
0.000312555
0.000349772
0.000462193
0.000317542
0.00030493
0.000358175
0.000603333
0.000623374
0.000529248
0.000577016
0.000335409
0.000327129
0.000186573
0.000391767
0.000621491
0.000627286
0.000603956
0.000667036
0.000524722
0.00058808
0.000315177
0.000446772
0.000378821
0.00060573
0.000415768
0.000693158
0.000612463
0.000628587
0.000554095
0.000493581
0.000468827
0.000325906
0.000499992
0.000433572
0.000341085
0.000467392
0.000871017
0.000435078
0.000732021
0.000557651
0.000456922
0.000294864
0.000361857
0.000500599
0.000566502
0.000409499
0.000564438
0.000224803
0.000291078
0.000475236
0.000634681
0.000666302
0.0013854
0.000817558
0.000747568
0.000445427
0.000303215
0.000470408
0.000475824
0.000350481
0.000749192
0.000515263
0.000543265
0.000488786
0.000238973
0.000481728
0.000321513
0.000525652
0.000739113
0.000401274
0.000715519
0.000621273
0.00057932
0.0013318
0.00237057
0.000788189
0.000546666
0.000354156
0.000381536
0.000213051
0.000362989
0.000384667
0.000544923
0.000110923
0.00029677
0.000199667
0.000238292
0.000346732
0.000562372
0.00224239
0.000314576
0.000213545
0.000693761
0.000246709
0.000264834
0.000189068
0.000563853
0.000813517
0.000174247
0.000359932
0.000192942
0.000373097
0.0001264
0.000207507
0.000865613
0.00111309
0.000153648
0.00025011
0.000212597
0.000185941
0.000178621
0.000197011
0.000168852
0.000119654
0.000334892
0.000189169
0.000230256
0.000123973
5.42436e-05
9.70889e-05
0.000114121
0.00018683
0.00101757
0.000248098
0.000171339
0.00047249
0.000321933
0.000297102
0.000243058
0.000263166
0.000378891
0.000140635
0.000252073
0.000279112
0.00024437
0.00034945
0.000362456
0.000194091
0.000233232
0.000252781
0.000287236
0.000383195
0.000278177
0.000368381
0.000235855
0.000214739
0.000351148
0.000314713
0.000508546
0.000410286
0.000439026
0.000399163
0.000508254
0.000317117
0.000298518
0.000252193
0.000364351
0.000461713
0.000455727
0.000497733
0.000495019
0.000386392
0.000400933
0.000178769
0.000373244
0.000291888
0.000341502
0.000285023
0.000585853
0.000256024
0.000567715
0.000432483
0.000285525
0.000430221
0.000287624
0.000308336
0.000309835
0.000318913
0.000465632
0.000345263
0.000707239
0.000553008
0.000695053
0.000542084
0.000438794
0.000606364
0.000476678
0.000301863
0.000326145
0.000398499
0.000524922
0.000593333
0.000365201
0.000406365
0.000408138
0.000264175
0.000340721
0.000361102
0.000413082
0.000491734
0.000519982
0.000500333
0.000561117
0.000384547
0.000365633
0.000495425
0.00035115
0.000667339
0.000425529
0.000569291
0.000447877
0.000409717
0.000382591
0.000456305
0.000389922
0.000426506
0.00042634
0.000632253
0.000449191
0.000558174
0.000474288
0.0006129
0.000494244
0.000347038
0.000457012
0.000392006
0.00054459
0.00105587
0.000698988
0.000462461
0.000546735
0.00037846
0.000401575
0.000361754
0.000486768
0.000654982
0.000537022
0.00133664
0.00048328
0.000349044
0.00121968
0.00138237
0.00176848
0.000501361
0.00049987
0.000567012
0.000456456
0.000226634
0.000294514
0.000354335
0.000421965
0.000127811
0.00027221
0.000258429
0.000348046
0.000331631
0.000696212
0.00150983
0.000696775
7.83454e-05
0.000240968
0.000434954
0.000258466
0.000282323
0.000243291
0.000460713
0.000458155
0.00020851
0.000221725
0.000223134
0.000326436
0.000120731
0.000298766
0.00124112
0.0011155
0.000591705
0.000100926
0.000310568
0.000166791
0.000201885
0.00018049
0.000183803
0.000272249
0.00015434
0.000226194
0.000229245
0.000376044
0.000114187
0.000126109
0.000113102
0.000100982
0.000262037
0.00102383
0.000255974
0.000669547
0.000339619
0.000359234
0.000230512
0.000359425
0.000242399
0.000266381
0.000350163
0.000113153
0.000261884
0.000309627
0.000334658
0.000298661
0.000273761
0.000372172
0.000327285
0.000363845
0.000284839
0.000351623
0.000270338
0.000459836
0.000307964
0.000383577
0.000354475
0.000341965
0.000333651
0.000257641
0.000448267
0.000176856
0.000327328
0.000480074
0.000247107
0.000368963
0.000316538
0.000541513
0.000348642
0.000436928
0.00045989
0.000378436
0.000378512
0.000347962
0.000271368
0.000413289
0.000382845
0.000455118
0.000462867
0.000439185
0.000556447
0.000473378
0.000335799
0.000296764
0.000215537
0.000446886
0.000302719
0.000376184
0.00048011
0.000448056
0.00062335
0.000322674
0.000565822
0.000442075
0.000237474
0.000314983
0.000369841
0.000435041
0.000247968
0.000560743
0.000491937
0.000558054
0.000715134
0.000728296
0.000613107
0.00057404
0.000411126
0.00054499
0.000321518
0.000203845
0.000352472
0.000493886
0.000724773
0.000399102
0.000488755
0.000562194
0.000498297
0.000489625
0.000430453
0.000323873
0.000292697
0.000561294
0.000645908
0.000435711
0.000356445
0.00115105
0.000624817
0.00049517
0.00041729
0.000990736
0.000516006
0.000976101
0.00054438
0.000392922
0.000339515
0.000358744
0.000392786
0.00163448
0.000483374
0.000434276
0.000561026
0.000698554
0.000956947
0.000983465
0.000376942
0.00100295
0.000705809
0.000306709
0.000790687
0.000334143
0.00115388
0.00165194
0.00146906
0.000545509
0.000369
0.000541802
0.000438048
0.00039332
0.00042101
0.000361376
0.000423545
0.000628693
0.00100075
0.000412837
0.000408029
0.00121357
0.00113367
0.00219275
0.000725075
0.000337317
0.000453768
0.000278925
0.000367418
0.000240671
0.000289448
0.00037561
0.000426414
0.000205162
0.000408033
0.000284124
0.000361571
0.000441403
0.000925053
0.00113867
0.00104025
0.00029594
0.000238289
0.000255104
0.000556283
0.000373754
0.000336902
0.000228768
0.000389642
0.000421905
0.000388396
0.000221192
0.00028299
0.000376149
0.00014364
0.000323799
0.000907618
0.00105901
0.000500601
0.000171286
0.000113315
0.000296039
0.000177749
0.000196383
0.000146249
0.000125251
0.000135207
0.000116528
0.000231784
0.000195501
0.000185508
7.66424e-05
0.000141153
0.000119905
0.000122972
0.000332046
0.000950818
0.000139284
0.000228268
0.000431279
0.000246538
0.000227744
0.000233351
0.00020762
0.000306887
0.000281247
0.000319351
0.000236536
0.000253243
0.000173265
0.000301492
0.000291805
0.000223666
0.000349054
0.00022817
0.000327578
0.000187362
0.00025191
0.000381881
0.000288586
0.000322896
0.000280012
0.000341014
0.000292105
0.000277321
0.000430511
0.000511989
0.000237051
0.000355854
0.00026594
0.000390051
0.000386857
0.000308876
0.00038629
0.000301219
0.000420599
0.000384736
0.000319046
0.000136031
0.000476513
0.000357498
0.000369409
0.000320943
0.000198349
0.000305374
0.000324136
0.000369433
0.000254766
0.00031648
0.000438957
0.000408181
0.000385662
0.00021832
0.000505162
0.000358692
0.000426212
0.000397324
0.000623127
0.000265975
0.00044494
0.000247521
0.0003578
0.000346529
0.000407193
0.000465882
0.00046344
0.000409771
0.000514363
0.000534562
0.000475659
0.000380379
0.000363719
0.000505235
0.000540657
0.00028374
0.000339224
0.000286192
0.000559892
0.000712167
0.000488073
0.00056879
0.000441337
0.000541253
0.000434982
0.000420155
0.000402995
0.000293839
0.000332568
0.000392098
0.000767975
0.000693783
0.000889874
0.00031292
0.000452475
0.000444913
0.000314494
0.000322223
0.000494923
0.000212533
0.000407347
0.000446924
0.000617774
0.000530763
0.000705834
0.00038404
0.00067954
0.000485412
0.000392805
0.000468487
0.000483881
0.000690441
0.000622736
0.000529241
0.000246913
0.000269603
0.000399935
0.000392021
0.000795704
0.00118562
0.000296744
0.000645296
0.000295107
0.0004982
0.000911355
0.00051057
0.000973945
6.59163e-05
0.000586166
0.000365463
0.000585792
0.000491939
0.00104953
0.00237766
0.00124317
0.000587114
0.000592244
0.000635804
0.000382488
0.000564396
0.00043963
0.000477218
0.000266586
0.000450476
0.000751724
0.000671472
0.000201592
0.000443637
0.000664125
0.00131809
0.000582995
0.000545882
0.000275414
0.000427085
0.000455819
0.000477444
0.0002343
0.000258362
0.000222222
0.000467205
0.000584272
0.000373555
0.000189267
0.000226809
0.000228162
0.000588154
0.00076589
0.00223335
0.00099244
0.000315987
0.000493852
0.000321364
0.000362007
0.00030808
0.000419448
0.000332
0.000227444
0.000384967
0.000362803
0.000557692
0.000353131
0.000298913
0.00027353
0.000192631
0.000453143
0.000351642
0.00107642
0.000480628
0.000180898
0.000380504
0.000172264
0.000312394
0.000165983
0.000188532
0.000133087
0.000112739
0.000175322
9.2978e-05
0.000213325
0.00027407
0.000183844
7.21186e-05
7.76836e-05
9.18705e-05
0.00017777
0.000374766
0.000860215
0.000121525
0.000187138
0.000262868
0.000522011
0.000346118
0.000255658
0.000326065
0.00039412
0.000519598
0.000236729
0.000213033
0.000255703
0.000382139
0.000221043
0.000188135
0.000229481
0.000186922
0.000283251
0.000200614
0.000240181
0.000172859
0.000332362
0.000398327
0.000201714
0.000394954
0.000344973
0.00018996
0.000343556
0.000396796
0.000350727
0.000217122
0.000484765
0.000455119
0.000250073
0.000462176
0.000334606
0.000414452
0.000209787
0.000210335
0.000457289
0.000462465
0.000168673
0.000305333
0.000356854
0.000366215
0.000334302
0.000291305
0.000456646
0.000291742
0.000486228
0.000460459
0.000399934
0.000269343
0.000441713
0.000253312
0.000416846
0.000372798
0.000463144
0.000325776
0.000337352
0.000551637
0.000508046
0.000505549
0.000241828
0.000601461
0.000541145
0.000790179
0.000284649
0.000253777
0.000384136
0.000322774
0.000622374
0.00066899
0.000358327
0.000301132
0.000579415
0.000478731
0.000347005
0.000309209
0.000388931
0.000271525
0.000496406
0.000449278
0.000514049
0.000489657
0.000271424
0.000456725
0.000425292
0.000303334
0.00035795
0.000450603
0.000187042
0.000148265
0.00108254
0.000591339
0.000433347
0.000455765
0.000404888
0.000519005
0.000482929
0.00096175
0.00048308
0.000597395
0.000421463
0.000397056
0.000290746
0.000998212
0.000225166
0.000550973
0.000421107
0.000207657
0.000463683
0.000449699
0.000173769
0.00089412
0.000335394
0.000466173
0.000494066
0.000440303
0.000503644
0.000403485
0.00101574
0.000901093
0.000464084
0.000420608
0.00052044
0.000660329
0.000175163
0.000908252
0.000879738
0.000413265
0.000519258
0.000305193
0.000331925
0.000453093
0.000398615
0.00141766
0.00105913
0.00162845
0.000475651
0.000555325
0.000519896
0.000286045
0.000541139
0.000453112
0.000692572
0.000312669
0.000438841
0.000397437
0.00068708
0.000602212
0.00123076
0.00109937
0.000777055
0.0007125
0.000862947
0.000466128
0.000710039
0.000392825
0.000398005
0.000356466
0.000408208
0.000387772
0.000418726
0.000629806
0.00096855
0.000634811
0.000527312
0.00109078
0.000639656
0.000653039
0.00050686
0.000394893
0.000814857
0.000582562
0.000368822
0.00022371
0.000241127
0.000264966
0.000346295
0.000465697
0.000558403
0.000543951
0.000264804
0.000286526
0.000316831
0.000449835
0.000468991
0.00166854
0.000978814
0.00033909
0.000918962
0.00060653
0.000223145
0.000425473
0.000380399
0.000428056
0.000282615
0.000246371
0.000388898
0.000252085
0.000719219
0.000228479
0.000349201
0.000199628
0.000255728
0.000369968
0.000278112
0.0010916
0.000472993
0.000265451
0.000404604
0.000462604
0.000159129
0.000302757
0.0001322
0.000199012
0.000197549
0.000105057
0.000271904
8.55618e-05
0.00013655
0.000295766
7.93694e-05
8.20681e-05
0.000118531
9.11968e-05
0.000229418
0.000386083
0.000638861
0.000103427
0.000196335
0.000281088
0.000409308
0.000889473
0.000469847
0.000540975
0.000425134
0.000414036
0.000451533
0.000222484
0.0001921
0.000456895
0.000249291
0.000191204
0.000294912
0.000369229
0.000376928
0.000283941
0.000292345
0.000265646
0.000334891
0.000398117
0.00033049
0.00023754
0.000412733
0.000307618
0.00034125
0.000403467
0.000259996
0.000320653
0.000181282
0.000543395
0.00044074
0.000192833
0.000225144
0.000322849
0.000235968
0.000280299
0.000512363
0.00054339
0.000481731
0.000244683
0.000304331
0.000326799
0.000366395
0.000358998
0.000235464
0.000282922
0.000310847
0.000411631
0.000471058
0.000360997
0.000329741
0.000616099
0.000345908
0.000280757
0.000308708
0.000333678
0.000268397
0.000558986
0.000391282
0.00032962
0.000280509
0.000559629
0.000576144
0.000441509
0.000255601
0.000251663
0.000526287
0.000450632
0.000399896
0.000468408
0.000200017
0.000397624
0.00032496
0.000564628
0.000501618
0.000327017
0.000341771
0.000495189
0.000349722
0.000285957
0.000330542
0.000430226
0.000357596
0.000296686
0.000322604
0.000210074
0.000431609
0.000546224
0.000226335
7.33792e-05
0.000538909
0.000749738
0.000503002
0.00029138
0.000448185
0.000442186
0.000354511
0.000439203
0.000421147
0.000572991
0.000517277
0.000254639
0.000286892
0.000657458
0.000909851
0.00032998
0.000576972
0.000474793
0.000594128
0.000422213
0.000535372
0.000376593
0.000633376
0.000541374
0.000403697
0.000326869
0.000486961
0.00025812
0.00103426
0.000787293
0.000957559
0.000990797
0.000359426
0.000513881
0.000266908
0.000337497
0.000417098
0.000492057
0.000361347
0.000356945
0.000580318
0.000358746
0.000563416
0.000498695
0.000478697
0.000609212
0.00125895
0.000537886
0.000808039
0.000424191
0.000640803
0.000331762
0.000831557
0.000295532
0.000526142
0.000287028
0.000476106
0.000479169
0.000561126
0.000579738
0.00125952
0.000947526
0.00100334
0.000251985
0.000561179
0.000586846
0.000471557
0.000343728
0.000412111
0.000283503
0.000354658
0.00047775
0.000410496
0.000533863
0.00092408
0.000818501
0.00203597
0.00110766
0.000904192
0.00101023
0.000565857
0.000621611
0.000430326
0.000398279
0.000547716
0.000514895
0.000376937
0.000512364
0.000546921
0.000484049
0.00062611
0.000718513
0.00038331
0.000546224
0.000744537
0.000654683
0.00103554
0.000479678
0.000584276
0.000959982
0.000771029
0.000464514
0.000227509
0.00050666
0.000280165
0.000329805
0.000369141
0.00053382
0.000370548
0.00055748
0.000304724
0.000248949
0.000523338
0.000369019
0.000946931
0.00123606
0.00107847
0.000651893
0.00068105
0.000574567
0.000452191
0.000158012
0.000492824
0.000284504
0.000453952
0.000247683
0.000255968
0.000321284
0.000259422
0.000529847
0.000328179
0.000365987
0.000247131
0.000266013
0.000339572
0.000374854
0.00123758
0.000411977
0.000307775
0.000385708
0.000526408
0.000230101
0.000143047
0.000338187
0.000189458
0.000181826
0.000166674
0.000131436
0.000149317
0.000106741
0.000182269
0.000136881
0.00025281
7.86542e-05
0.000134596
7.87194e-05
0.000281862
0.000385355
0.0004597
0.000392768
0.000237653
0.000302755
0.000154506
0.000189575
0.0014125
0.000906386
0.000718748
0.000601365
0.000582051
0.000611595
0.00033093
0.000443025
0.000278814
0.000435568
0.00029855
0.000280011
0.000242664
0.00043039
0.000299005
0.000213617
0.000260639
0.000318274
0.000321208
0.000391431
0.000236246
0.000172074
0.00022531
0.000286749
0.000115642
0.000138658
0.000223649
0.000321389
0.000291856
0.000271533
0.000198223
0.000168253
0.000436522
0.000377276
0.000315002
0.000409668
0.000413406
0.000404375
0.000307236
0.000400616
0.000603195
0.000268815
0.000475956
0.00038154
0.000308919
0.000207945
0.000418389
0.000363588
0.000421727
0.000475806
0.000544538
0.000280646
0.000188226
0.000411239
0.000234576
0.000310464
0.000305121
0.00036097
0.000309627
0.000361185
0.000558083
0.000486266
0.000358148
0.000298665
0.000307349
0.000470264
0.000431198
0.000399391
0.000290825
0.0003745
0.000291643
0.000408589
0.000357235
0.000112407
0.000378088
0.000445585
0.000533082
0.000499882
0.000293193
0.000537152
0.00037395
0.000371248
0.000380603
0.000498247
0.000383193
0.000607612
0.000529361
0.000638279
0.000446145
0.000717638
0.000341123
0.000262594
0.000408985
0.000279392
0.000551166
0.000411627
0.000376717
0.000368578
0.000437628
0.000162059
0.000237531
0.000284138
0.00061969
0.000316804
0.000846542
0.000430338
0.000359767
0.00061991
0.000445649
0.00032752
0.000413638
0.000326235
0.000686441
0.000640628
0.000339701
0.000250593
0.000493549
0.000788481
0.00073445
0.000549869
0.000838687
0.000655355
0.000609895
0.000478278
0.00043737
0.000340723
0.000473001
0.000656767
0.00050118
0.000403384
0.000447435
0.000508962
0.000888481
0.00084637
0.00084818
0.000894354
0.000341484
0.000306343
0.000545975
0.000373994
0.000386317
0.000282258
0.000656387
0.000414146
0.00034937
0.000290792
0.000400613
0.00027153
0.00110684
0.000444814
0.000524425
0.00131375
0.000760172
0.000397382
0.000601819
0.000570091
0.000476773
0.000459172
0.000674028
0.000425144
0.000493182
0.000456376
0.000218205
0.000498175
0.000597241
0.00103908
0.000968807
0.00123623
0.000790657
0.000833752
0.000468885
0.000492455
0.00060792
0.000450009
0.0003855
0.00048706
0.000253352
0.000366451
0.000371532
0.000431876
0.000379536
0.000633318
0.000903444
0.00110075
0.00111671
0.000723867
0.000643097
0.000481282
0.000519674
0.00057499
0.000488865
0.000510882
0.000552658
0.000473946
0.000291945
0.000482197
0.000842237
0.000622359
0.000569299
0.000325341
0.000783905
0.000680557
0.00146699
0.00111738
0.000851927
0.000416459
0.00076658
0.00105571
0.000830947
0.000812953
0.000418958
0.000398199
0.000271869
0.000218579
0.000245825
0.000276277
0.000576962
0.000291303
0.000556284
0.000330289
0.000571161
0.000778608
0.000514799
0.000929474
0.000951008
0.000823046
0.000769961
0.000694891
0.000606836
0.00048411
0.000438751
0.000273387
0.000434569
0.000387827
0.000401455
0.000243833
0.000195474
0.000271852
0.000264374
0.000249275
0.000240111
0.000359273
0.000190738
0.000398538
0.000427991
0.00057277
0.00120875
0.000323867
0.000364602
0.000346659
0.000585693
0.000306444
0.00046171
0.000165137
0.000367819
0.00034876
0.000250034
0.0001427
0.000185865
0.000145775
0.000140874
0.000204644
0.000105866
0.000274688
8.78751e-05
9.27118e-05
0.000116031
0.000331481
0.000390666
0.000571311
0.000287114
0.000325411
0.000316379
0.000123515
0.00020761
0.000196891
0.00120671
0.00143504
0.00127986
0.000989335
0.000802414
0.00071043
0.000556098
0.000573215
0.000563937
0.000542851
0.000436404
0.000372921
0.000424211
0.000502991
0.000342114
0.000199834
0.000267066
0.000471066
0.000423895
0.000317104
0.000356336
0.000213085
0.000270659
0.000317834
0.00024448
0.000245711
0.000313346
0.000349636
0.000333838
0.00033663
0.000236642
0.000320298
0.00031905
0.000381728
0.000415061
0.000287837
0.000349197
0.000458905
0.000332536
0.000338412
0.000296413
0.000459001
0.000371851
0.000254798
0.0002197
0.000397379
0.000569206
0.000208534
0.000267709
0.000178312
0.000286895
0.000329491
0.000423326
0.000288903
0.000338345
0.00036767
0.000421951
0.00019424
0.000435488
0.000355171
0.000282865
0.000321663
0.000329432
0.000317922
0.0002405
0.000389215
0.000503612
0.000380412
0.000288527
0.000292426
0.000281071
0.000288585
0.000256755
0.000288904
0.000630552
0.000222153
0.000213348
0.000509843
0.00036999
0.00036125
0.000415977
0.000408213
0.000389878
0.000368897
0.000451975
0.000606228
0.000350309
0.000404187
0.000379457
0.000475404
0.000383127
0.00029136
0.000373926
0.000406399
0.000346764
0.000441626
0.000269242
0.000581555
0.000662151
0.000353285
0.000410518
0.000332114
0.000199634
0.000469828
0.000566499
0.000250488
0.000414149
0.000405222
0.000242142
0.00037131
0.000283735
0.000302266
0.000167304
0.000507119
0.000215661
0.000293599
0.000496113
0.000395246
0.000450145
0.000771584
0.000478884
0.00032873
0.000604341
0.000337453
0.000232217
0.000384472
0.00038395
0.000488632
0.000553313
0.000399384
0.000315394
0.000315004
0.000529135
0.00100395
0.000837461
0.0012302
0.000355286
0.00038924
0.000705261
0.000376188
0.000380016
0.000357862
0.000463269
0.000561568
0.000376875
0.000598952
0.000206672
0.000432714
0.000755888
0.000794884
0.00108665
0.000834081
0.000833578
0.00059894
0.000627307
0.000521655
0.000633682
0.000308405
0.000301741
0.000450659
0.000382227
0.000345665
0.000415864
0.000431522
0.000792627
0.00106286
0.000673869
0.000463803
0.00112765
0.000639537