/*--------------------------------*- C++ -*----------------------------------*\
  =========                 |
  \\      /  F ield         | OpenFOAM: The Open Source CFD Toolbox
   \\    /   O peration     | Website:  https://openfoam.org
    \\  /    A nd           | Version:  7
     \\/     M anipulation  |
\*---------------------------------------------------------------------------*/
FoamFile
{
    version     2.0;
    format      ascii;
    class       volScalarField;
    location    "4";
    object      p;
}
// * * * * * * * * * * * * * * * * * * * * * * * * * * * * * * * * * * * * * //

dimensions      [0 2 -2 0 0 0 0];

internalField   nonuniform List<scalar> 
18870
(
-72.5813
-72.091
-72.4977
-70.9752
-70.5432
-71.9923
-70.3565
-72.414
-70.9
-69.8315
-68.1467
-70.3677
-69.3363
-71.8177
-70.2647
-69.1656
-72.3399
-70.8302
-69.7082
-68.3575
-66.223
-67.9766
-66.9019
-70.1851
-69.2302
-67.7492
-71.6335
-70.2145
-69.0629
-67.6119
-72.2741
-70.769
-69.6121
-68.2505
-67.6134
-64.4749
-66.1157
-65.2381
-67.7506
-66.7392
-65.8349
-69.9774
-69.2197
-67.6013
-66.547
-71.5133
-70.1067
-68.8959
-67.5453
-66.478
-72.1811
-70.7179
-69.5547
-68.1809
-67.4784
-66.7074
-63.0514
-64.2313
-63.6868
-65.8091
-64.9931
-64.2742
-67.4303
-66.581
-65.6124
-64.8944
-69.8439
-69.0816
-67.4374
-66.3827
-65.3856
-71.3776
-69.9162
-68.7745
-67.4819
-66.3948
-65.2602
-72.101
-70.6483
-69.5335
-68.1342
-67.3629
-66.6568
-65.4793
-61.8112
-62.8336
-62.501
-63.9885
-63.3767
-62.9992
-65.6097
-64.7957
-64.2012
-63.6603
-67.297
-66.4578
-65.5411
-64.7334
-63.816
-69.6871
-68.9325
-67.3329
-66.2096
-65.2225
-64.3106
-71.2636
-69.7931
-68.6416
-67.2743
-66.3221
-65.1832
-63.9556
-72.054
-70.5885
-69.527
-68.0483
-67.2915
-66.6397
-65.4595
-64.1006
-60.8551
-61.5833
-61.3279
-62.6098
-62.385
-61.8334
-63.9565
-63.2653
-62.866
-62.9682
-65.5912
-64.6704
-64.0167
-63.5108
-62.739
-67.0945
-66.2048
-65.3725
-64.5535
-63.6451
-62.8648
-69.4877
-68.8359
-67.189
-66.0458
-65.119
-64.1385
-63.0688
-71.1597
-69.8272
-68.5094
-67.1446
-66.2091
-65.1549
-63.9037
-63.7884
-72.0251
-70.5324
-69.5245
-68.0495
-67.2467
-66.6025
-65.4504
-64.0705
-63.2786
-60.0589
-60.649
-60.5562
-61.4234
-61.3158
-61.0208
-62.6227
-62.2613
-61.7526
-61.4684
-63.7211
-63.0537
-62.758
-62.3726
-61.7055
-65.4148
-64.465
-63.7962
-63.2505
-62.6327
-61.8188
-66.8983
-66.0213
-65.1961
-64.3257
-63.5079
-62.709
-61.9848
-69.3842
-68.7049
-67.087
-65.9159
-64.9581
-64.0048
-62.9907
-62.2572
-70.9797
-69.7302
-68.5307
-67.0772
-66.0947
-65.0985
-63.8536
-63.752
-62.5389
-71.9023
-70.4619
-69.4769
-68.0655
-67.2307
-66.5514
-65.3969
-64.041
-63.298
-62.4449
-59.5158
-60.016
-59.8426
-60.7747
-60.4993
-60.261
-61.4651
-61.1696
-60.909
-60.5432
-62.5851
-62.073
-61.5806
-61.2959
-60.9001
-63.551
-62.9232
-62.6319
-62.1987
-61.6119
-61.0968
-65.3247
-64.4844
-63.7689
-63.0597
-62.4586
-61.8723
-61.2835
-66.7539
-66.0115
-65.1476
-64.2049
-63.3743
-62.7376
-61.9179
-61.505
-69.2708
-68.5081
-66.9937
-65.7992
-64.8304
-63.897
-62.9271
-62.225
-61.6468
-70.8231
-69.5756
-68.4488
-66.9582
-66.0025
-65.0539
-63.7843
-63.7103
-62.4806
-61.8742
-71.814
-70.3726
-69.3598
-68.0179
-67.2434
-66.5118
-65.4149
-64.0184
-63.3126
-62.4807
-62.114
-59.0788
-59.5826
-59.3468
-59.9159
-59.8126
-59.5783
-60.7371
-60.3818
-60.1122
-59.9586
-61.289
-60.9524
-60.696
-60.4914
-60.2978
-62.3727
-61.8969
-61.4432
-61.2034
-60.8843
-60.5237
-63.394
-62.7804
-62.4291
-62.1914
-61.6464
-60.9475
-60.542
-65.1726
-64.4238
-63.6627
-63.028
-62.1573
-61.8591
-61.2307
-60.6277
-66.5912
-65.8387
-65.03
-64.1107
-63.2592
-62.6589
-61.9031
-61.4398
-60.7751
-69.1551
-68.3695
-66.9382
-65.6554
-64.7293
-63.8036
-62.8535
-62.1922
-61.5787
-61.0997
-70.752
-69.4901
-68.3612
-66.8379
-65.9218
-65.016
-63.7739
-63.6364
-62.4444
-61.8304
-61.2874
-71.7689
-70.2833
-69.2801
-68.0044
-67.3261
-66.4857
-65.4619
-63.9932
-63.3042
-62.5168
-62.0961
-61.749
-58.5808
-59.0508
-58.9753
-59.5012
-59.2514
-59.1752
-59.7831
-59.8044
-59.4989
-59.5236
-60.59
-60.2622
-60.0758
-59.8308
-59.7235
-61.065
-60.8883
-60.6467
-60.3861
-60.1656
-59.9306
-62.1206
-61.8163
-61.3386
-61.1544
-60.7885
-60.4737
-60.3086
-63.2319
-62.6225
-62.3474
-62.0898
-61.5907
-60.8337
-60.4895
-60.1116
-65.0085
-64.2284
-63.4081
-62.8546
-62.0947
-61.6529
-61.2991
-60.6367
-60.3159
-66.4589
-65.6996
-64.8221
-64.0055
-63.1773
-62.5798
-61.8173
-61.3313
-60.7766
-60.2638
-69.0816
-68.4059
-66.7868
-65.5224
-64.6297
-63.7164
-62.7695
-62.1561
-61.5388
-61.0877
-60.5359
-70.6188
-69.4247
-68.2941
-66.7426
-65.8783
-64.9732
-63.7183
-63.5623
-62.416
-61.7868
-61.2755
-61.0338
-71.7315
-70.2084
-69.2288
-68.0214
-67.4114
-66.4275
-65.4897
-63.9657
-63.2986
-62.5434
-62.091
-61.7495
-61.4298
-58.3799
-58.592
-58.6498
-58.9646
-58.9241
-58.9201
-59.3101
-59.2388
-59.1827
-58.9866
-59.7108
-59.7332
-59.579
-59.4699
-59.2615
-60.4472
-60.3632
-60.0625
-59.765
-59.7189
-59.4423
-61.0368
-60.7981
-60.5579
-60.292
-60.0727
-59.8583
-59.5522
-61.9406
-61.673
-61.2161
-61.0818
-60.6595
-60.3603
-60.2116
-59.7666
-63.2035
-62.4492
-62.2653
-61.9089
-61.4656
-60.8241
-60.392
-60.0838
-59.819
-64.9171
-64.145
-63.3076
-62.7926
-61.8704
-61.5122
-61.2194
-60.6096
-60.2759
-59.9733
-66.4236
-65.6302
-64.7466
-63.8997
-63.1611
-62.4853
-61.771
-61.2902
-60.7726
-60.2509
-59.9456
-68.9789
-68.2879
-66.5913
-65.4171
-64.521
-63.6623
-62.7417
-62.1204
-61.5395
-61.077
-60.5404
-60.2489
-70.4751
-69.3537
-68.1598
-66.6537
-65.8316
-64.9131
-63.6992
-63.4634
-62.3936
-61.7711
-61.2663
-61.0254
-60.8232
-71.6323
-70.1268
-69.1545
-68.0197
-67.4262
-66.336
-65.4778
-63.98
-63.2719
-62.5685
-62.0761
-61.7571
-61.4502
-61.1846
-58.3597
-58.3198
-58.288
-58.5628
-58.6603
-58.5802
-58.9198
-58.9106
-58.8427
-58.7954
-59.2199
-59.2482
-59.0876
-59.0083
-58.9788
-59.6993
-59.6062
-59.5269
-59.3729
-59.1892
-59.0955
-60.2867
-60.266
-59.9664
-59.7552
-59.6361
-59.423
-59.1985
-60.8646
-60.6899
-60.3826
-60.283
-60.0435
-59.8244
-59.4866
-59.306
-61.9274
-61.4788
-61.1047
-60.9989
-60.562
-60.3688
-60.0457
-59.7509
-59.5164
-63.0938
-62.442
-62.228
-61.7242
-61.4297
-60.7728
-60.3676
-60.1269
-59.7992
-59.5622
-64.846
-64.079
-63.2726
-62.7673
-61.5952
-61.5115
-61.0386
-60.6767
-60.2753
-59.976
-59.6394
-66.3784
-65.4497
-64.7079
-63.8756
-63.1017
-62.3815
-61.7426
-61.2955
-60.7016
-60.2415
-59.9451
-59.6861
-68.8841
-68.156
-66.4864
-65.3272
-64.4498
-63.6128
-62.7009
-62.0453
-61.4953
-61.0727
-60.5694
-60.2665
-59.9461
-70.4496
-69.2571
-68.1371
-66.5777
-65.7432
-64.8737
-63.7145
-63.3236
-62.4019
-61.7428
-61.2612
-61.0172
-60.8513
-60.8386
-71.5436
-70.0208
-69.0861
-68.0062
-67.3883
-66.2602
-65.4483
-64.0141
-63.2247
-62.5428
-62.0665
-61.7694
-61.4726
-61.2069
-61.4882
-58.0149
-58.201
-58.1207
-58.2905
-58.3055
-58.3586
-58.5148
-58.6112
-58.5423
-58.532
-58.8851
-58.8906
-58.8046
-58.711
-58.5559
-59.1764
-59.1338
-59.0527
-58.9649
-58.9
-58.7312
-59.5735
-59.5119
-59.4938
-59.3456
-59.1569
-59.1306
-58.9592
-60.1466
-60.2092
-59.9254
-59.713
-59.5682
-59.3937
-59.1436
-59.0642
-60.7729
-60.5669
-60.3014
-60.1597
-59.9454
-59.7643
-59.4651
-59.3845
-59.2213
-61.9192
-61.3592
-61.0189
-60.916
-60.5151
-60.2775
-59.9502
-59.7859
-59.5344
-59.3234
-62.9704
-62.3207
-62.1949
-61.7122
-61.2026
-60.6992
-60.3309
-60.0914
-59.7678
-59.5735
-59.5
-64.6767
-63.9263
-63.1422
-62.6914
-61.9566
-61.3929
-60.948
-60.6697
-60.3064
-59.9853
-59.6832
-59.494
-66.3511
-65.3452
-64.5596
-63.6829
-62.884
-62.3915
-61.6921
-61.2436
-60.6849
-60.2471
-59.9731
-59.7238
-58.9991
-68.863
-68.0822
-66.4218
-65.2683
-64.4171
-63.5543
-62.6678
-62.0419
-61.4488
-61.0627
-60.587
-60.3085
-60.0079
-60.2811
-70.3641
-69.1702
-68.1514
-66.5205
-65.6878
-64.8216
-63.6367
-63.2397
-62.4237
-61.7098
-61.2837
-61.021
-60.8813
-60.8988
-61.4052
-71.4818
-69.9509
-69.0289
-67.9781
-67.2334
-66.2142
-65.4142
-64.0326
-63.1955
-62.5555
-62.0709
-61.7803
-61.4988
-61.2262
-61.5414
-61.7044
-57.8455
-57.9601
-58.0567
-58.0923
-58.0503
-58.1156
-58.2862
-58.2922
-58.3514
-58.2605
-58.5188
-58.5231
-58.5085
-58.3858
-58.372
-58.8474
-58.7969
-58.7805
-58.7174
-58.661
-58.5328
-59.1638
-59.0183
-59.0753
-58.9253
-58.822
-58.758
-58.6715
-59.6245
-59.4753
-59.4419
-59.2128
-59.1542
-59.0701
-58.9347
-58.6796
-60.118
-60.0376
-59.7847
-59.5817
-59.5767
-59.3441
-59.172
-59.1001
-58.9143
-60.6031
-60.5397
-60.2435
-60.0522
-59.807
-59.7152
-59.4897
-59.3558
-59.1858
-59.0926
-61.7945
-61.3272
-60.9397
-60.8549
-60.4629
-60.1879
-59.9976
-59.7137
-59.5691
-59.3931
-59.252
-62.8845
-62.1571
-62.0042
-61.5157
-60.9975
-60.6298
-60.3764
-60.0365
-59.7584
-59.6031
-59.5564
-59.4288
-64.6227
-63.7922
-63.0303
-62.7562
-61.8782
-61.3021
-60.946
-60.6375
-60.2952
-60.0123
-59.6962
-59.5625
-59.0912
-66.2574
-65.3071
-64.4504
-63.6047
-62.9138
-62.385
-61.6997
-61.1799
-60.7176
-60.2519
-59.9966
-59.7661
-59.2172
-59.9025
-68.6848
-67.915
-66.3221
-65.1953
-64.3767
-63.532
-62.6108
-62.0397
-61.4478
-61.0809
-60.6031
-60.3448
-60.0623
-60.3967
-61.6177
-70.2239
-69.0495
-67.9993
-66.4928
-65.6501
-64.7623
-63.6165
-63.1619
-62.4391
-61.7021
-61.2899
-61.0434
-60.9106
-60.951
-61.428
-61.5606
-71.4096
-69.9109
-68.9466
-67.9519
-67.0582
-66.2059
-65.3847
-64.0493
-63.1869
-62.5737
-62.0762
-61.7857
-61.525
-61.2704
-61.5833
-61.7352
-61.9933
-57.8047
-57.7689
-57.8576
-57.9481
-58.0696
-57.9767
-58.0782
-58.0481
-58.1594
-58.0842
-58.2476
-58.2466
-58.2687
-58.212
-58.1875
-58.4921
-58.5032
-58.4121
-58.3527
-58.3789
-58.2798
-58.7766
-58.8106
-58.7613
-58.6341
-58.5961
-58.4841
-58.4175
-59.0681
-58.9696
-58.9474
-58.8816
-58.7388
-58.7552
-58.6435
-58.5123
-59.5238
-59.4213
-59.3556
-59.1406
-59.1626
-59.03
-58.8512
-58.7366
-58.7593
-60.0064
-59.8844
-59.5791
-59.5736
-59.5341
-59.349
-59.161
-59.1181
-58.9281
-58.9606
-60.5968
-60.4523
-60.1947
-60.0555
-59.8361
-59.6824
-59.4332
-59.1795
-59.1216
-59.1888
-59.0764
-61.6341
-61.3614
-60.9102
-60.7596
-60.3787
-60.1832
-59.9028
-59.691
-59.5917
-59.3524
-59.2988
-59.2978
-62.75
-62.245
-61.8824
-61.4109
-61.1542
-60.6475
-60.3309
-60.0654
-59.7268
-59.634
-59.5882
-59.5122
-59.2978
-64.5241
-63.7571
-62.9603
-62.5376
-62.1015
-61.2437
-60.8832
-60.5782
-60.3221
-60.0426
-59.747
-59.6348
-59.2657
-60.0951
-66.0964
-65.0951
-64.4144
-63.5584
-62.718
-62.3179
-61.6975
-61.1031
-60.7105
-60.2703
-60.0156
-59.8229
-59.5313
-60.4631
-61.4422
-68.492
-67.7022
-66.2485
-65.1086
-64.3662
-63.5139
-62.561
-62.033
-61.4642
-61.0967
-60.6272
-60.3639
-60.1234
-60.542
-61.8615
-62.5509
-70.1394
-68.9425
-67.8945
-66.4546
-65.6016
-64.7435
-63.6622
-63.0517
-62.4553
-61.7356
-61.3031
-61.0733
-60.9434
-60.9919
-61.4109
-61.5241
-61.6672
-71.3431
-69.8792
-68.9184
-67.9436
-66.9534
-66.1942
-65.3687
-64.0659
-63.1906
-62.551
-62.0895
-61.7959
-61.5415
-61.3223
-61.6167
-61.7604
-62.0233
-61.9646
-57.6581
-57.8533
-57.896
-57.8277
-57.8953
-57.8689
-57.9529
-57.9617
-57.9591
-57.9237
-58.0187
-58.0225
-58.0632
-58.1127
-57.991
-58.1872
-58.2379
-58.261
-58.1548
-58.1274
-58.0724
-58.3955
-58.4724
-58.3761
-58.3602
-58.3385
-58.2415
-58.2419
-58.6534
-58.631
-58.6572
-58.5535
-58.5659
-58.4949
-58.3528
-58.2723
-58.9912
-58.8791
-58.8984
-58.8225
-58.7621
-58.7502
-58.5939
-58.4122
-58.3694
-59.4074
-59.3705
-59.183
-59.1244
-59.0697
-58.9841
-58.8258
-58.7004
-58.7343
-58.7088
-59.9334
-59.8508
-59.6328
-59.573
-59.3848
-59.325
-59.141
-59.0732
-58.9342
-58.9181
-58.9487
-60.566
-60.3893
-60.1602
-60.005
-59.7356
-59.6143
-59.4424
-59.1384
-59.1466
-59.1934
-59.095
-59.0736
-61.6499
-61.2277
-60.9498
-60.5734
-60.5034
-60.1216
-59.8387
-59.796
-59.5862
-59.395
-59.2728
-59.3713
-59.3339
-62.6535
-62.2024
-61.7904
-61.4375
-60.997
-60.5679
-60.444
-60.0402
-59.7611
-59.6913
-59.6418
-59.6245
-59.4315
-59.4919
-64.3628
-63.6724
-62.8816
-62.3398
-62.3414
-61.1713
-60.9169
-60.5918
-60.2763
-60.0795
-59.7918
-59.682
-59.3657
-60.1808
-61.0996
-66.1263
-65.1433
-64.3184
-63.5149
-62.6808
-62.2951
-61.6638
-61.0882
-60.6945
-60.2998
-60.0437
-59.9031
-59.8461
-60.8676
-61.9745
-62.5384
-68.496
-67.6336
-66.2911
-65.0403
-64.384
-63.4614
-62.5501
-62.0483
-61.4843
-61.0864
-60.6389
-60.3897
-60.1533
-60.6638
-61.5736
-62.5338
-62.8665
-70.0514
-68.8692
-67.9512
-66.4047
-65.5814
-64.7373
-63.6556
-62.96
-62.4827
-61.7716
-61.3288
-61.1038
-60.9808
-61.0155
-61.3786
-61.5087
-61.7596
-62.0388
-71.2894
-69.8506
-68.9145
-67.9279
-66.9151
-66.1834
-65.3545
-64.0827
-63.1836
-62.5197
-62.1213
-61.8195
-61.5591
-61.3619
-61.645
-61.7818
-62.0445
-62.0029
-62.0115
-57.7733
-57.7706
-57.8621
-57.8693
-57.8498
-57.8244
-57.8001
-57.8377
-57.8741
-57.8527
-57.9049
-57.9438
-58.0013
-57.9715
-57.867
-57.9761
-57.9711
-58.0265
-58.0351
-57.96
-57.973
-58.1318
-58.1663
-58.1854
-58.1569
-58.1425
-58.088
-57.9664
-58.3442
-58.3722
-58.3445
-58.3242
-58.3291
-58.2436
-58.1981
-58.1455
-58.5809
-58.5486
-58.601
-58.536
-58.441
-58.5303
-58.3811
-58.2557
-58.2252
-58.9558
-58.9034
-58.8801
-58.7904
-58.7184
-58.6812
-58.6358
-58.4052
-58.5314
-58.3217
-59.3712
-59.3493
-59.1736
-59.0404
-58.9901
-58.9615
-58.905
-58.7703
-58.6712
-58.7161
-58.6591
-59.931
-59.7872
-59.5983
-59.4716
-59.3505
-59.1855
-59.1531
-58.9783
-58.9547
-58.9326
-58.9588
-58.972
-60.4709
-60.2846
-60.0814
-59.9116
-59.6916
-59.5734
-59.3867
-59.3064
-59.1584
-59.2707
-59.1872
-59.1682
-59.0835
-61.6151
-61.1054
-60.8834
-60.6335
-60.5025
-60.1406
-59.9816
-59.7992
-59.5908
-59.4498
-59.3516
-59.4182
-59.4825
-59.5466
-62.6993
-62.1262
-61.6705
-61.3845
-60.9339
-60.8473
-60.3003
-60.0398
-59.8209
-59.7482
-59.7345
-59.7385
-59.6778
-60.0987
-60.9446
-64.4148
-63.6607
-62.9094
-62.3091
-61.7288
-61.3848
-60.8556
-60.6336
-60.2685
-60.1088
-59.807
-59.7528
-59.6776
-60.4516
-61.1298
-63.2117
-66.0752
-65.0706
-64.2126
-63.4566
-62.7503
-62.2756
-61.6142
-61.066
-60.6807
-60.3606
-60.1318
-59.95
-60.0838
-60.9729
-62.4052
-62.8363
-63.7543
-68.4187
-67.5271
-66.207
-65.0149
-64.337
-63.4826
-62.5568
-62.0746
-61.5102
-61.094
-60.6472
-60.4208
-60.1863
-60.7569
-61.2344
-62.4794
-62.8215
-63.0302
-69.98
-68.8017
-67.8998
-66.3848
-65.5915
-64.7568
-63.6651
-62.8614
-62.5044
-61.7965
-61.377
-61.1399
-61.0169
-61.0299
-61.3611
-61.5011
-61.843
-62.0776
-61.8368
-71.2405
-69.8263
-68.9116
-67.9199
-66.9179
-66.1767
-65.3319
-64.1209
-63.1811
-62.5279
-62.1606
-61.8459
-61.5776
-61.4044
-61.6699
-61.8004
-62.0604
-62.0403
-62.0818
-61.9067
-57.7674
-57.7426
-57.7384
-57.6908
-57.8156
-57.761
-57.8819
-57.8114
-57.8026
-57.7785
-57.7843
-57.8077
-57.7871
-57.813
-57.802
-57.8565
-57.9422
-57.9051
-57.9436
-57.8498
-57.835
-57.9184
-57.9748
-58.0013
-57.9654
-57.8759
-57.9265
-57.8629
-58.0567
-58.1872
-58.1459
-58.0897
-58.0954
-58.0215
-58.0468
-58.0093
-58.2654
-58.2284
-58.3129
-58.2471
-58.2743
-58.1972
-58.1793
-58.1447
-58.0586
-58.511
-58.6011
-58.4661
-58.5428
-58.4958
-58.5585
-58.3173
-58.2555
-58.2687
-58.2697
-58.9165
-58.8651
-58.7546
-58.742
-58.6766
-58.6575
-58.5859
-58.481
-58.2879
-58.566
-58.4333
-59.3598
-59.2715
-59.1329
-58.9665
-58.9446
-58.8912
-58.8724
-58.7455
-58.6932
-58.7247
-58.7828
-58.8211
-59.8191
-59.7794
-59.6267
-59.5115
-59.3312
-59.1537
-59.088
-58.9291
-58.9684
-59.0528
-59.0311
-59.0135
-59.1044
-60.4249
-60.2545
-60.0505
-59.8054
-59.7326
-59.6316
-59.2581
-59.348
-59.1764
-59.2704
-59.2633
-59.2483
-59.1317
-59.5486
-61.4896
-61.1998
-60.8727
-60.6428
-60.4935
-60.171
-59.9846
-59.8257
-59.6313
-59.5417
-59.4946
-59.5525
-59.7252
-59.8792
-60.9922
-62.6897
-62.128
-61.6145
-61.3439
-60.9188
-60.8877
-60.1817
-60.0178
-59.8359
-59.8254
-59.8321
-59.8716
-59.7312
-60.4402
-61.6622
-63.3897
-64.4201
-63.5944
-62.8597
-62.3318
-61.5511
-61.4075
-60.9299
-60.6594
-60.2966
-60.1279
-59.8112
-59.8611
-59.9107
-60.8466
-62.1
-63.7375
-65.5307
-65.9737
-64.9513
-64.1195
-63.4492
-62.7878
-62.2446
-61.6152
-61.0603
-60.6735
-60.4219
-60.1799
-60.0083
-60.2614
-61.1724
-62.6044
-63.0697
-63.9751
-65.2953
-68.3258
-67.4331
-66.1565
-64.9884
-64.3415
-63.5302
-62.5881
-62.0963
-61.5375
-61.1293
-60.6601
-60.4464
-60.2386
-60.8312
-61.1623
-62.3948
-62.7898
-62.9762
-62.91
-69.9144
-68.7594
-67.8574
-66.3761
-65.6222
-64.7662
-63.6769
-62.8079
-62.5166
-61.8558
-61.4347
-61.1836
-61.0579
-61.0446
-61.3525
-61.5107
-61.928
-62.0819
-61.8086
-62.0549
-71.2079
-69.8088
-68.9075
-67.9203
-66.9248
-66.1752
-65.3264
-64.1536
-63.1827
-62.559
-62.1841
-61.8629
-61.5941
-61.4409
-61.6964
-61.8164
-62.0708
-62.0676
-62.139
-61.946
-62.2718
-57.7868
-57.7115
-57.8182
-57.7204
-57.6725
-57.6864
-57.7094
-57.7173
-57.6596
-57.6776
-57.7527
-57.7984
-57.7512
-57.715
-57.7196
-57.7619
-57.8089
-57.7766
-57.7653
-57.7668
-57.7162
-57.7685
-57.8898
-57.8345
-57.921
-57.8331
-57.743
-57.7832
-57.7873
-57.9197
-57.9515
-57.9693
-57.8374
-57.9239
-57.8774
-57.8865
-57.9899
-58.053
-58.0802
-58.08
-58.0303
-57.9989
-57.9787
-57.9671
-58.0015
-58.2131
-58.1988
-58.2724
-58.2581
-58.2523
-58.2436
-58.1437
-58.0756
-58.0616
-58.101
-58.5069
-58.4434
-58.3989
-58.4617
-58.4212
-58.2396
-58.4693
-58.2977
-58.2766
-58.2642
-58.2674
-58.8666
-58.8491
-58.7491
-58.6919
-58.6602
-58.5845
-58.5144
-58.4896
-58.5573
-58.6389
-58.4289
-58.5636
-59.2789
-59.2069
-59.0878
-59.0026
-58.981
-58.9112
-58.9243
-58.7608
-58.7657
-58.7724
-58.81
-58.8451
-58.918
-59.7548
-59.7209
-59.6278
-59.5152
-59.2957
-59.0764
-59.0191
-59.1174
-58.8426
-59.1246
-59.1362
-59.0881
-59.2387
-59.3594
-60.4591
-60.3141
-59.9801
-59.8181
-59.6389
-59.6005
-59.3929
-59.4479
-59.2585
-59.2882
-59.3246
-59.3881
-59.3305
-59.7119
-60.2118
-61.3217
-61.211
-60.8413
-60.5579
-60.4305
-60.116
-59.9045
-59.7948
-59.705
-59.6276
-59.6077
-59.7537
-59.9194
-60.2294
-61.4165
-62.2939
-62.6172
-61.9788
-61.5312
-61.2871
-60.9301
-60.489
-60.3112
-60.0755
-59.8684
-59.883
-59.9305
-60.0348
-59.9843
-60.7865
-62.3687
-64.1416
-66.4191
-64.3964
-63.5044
-62.8402
-62.3098
-61.6497
-61.3483
-60.9522
-60.6767
-60.3209
-60.126
-59.8499
-59.9735
-60.1417
-61.0505
-62.7106
-64.0762
-65.59
-67.6383
-65.8788
-64.9494
-64.1056
-63.3905
-62.7608
-62.2228
-61.6292
-61.0905
-60.6608
-60.4435
-60.2162
-60.0693
-60.3223
-61.4673
-62.5019
-63.2317
-64.1277
-65.0815
-64.2158
-68.2539
-67.3852
-66.1373
-64.9748
-64.3462
-63.5318
-62.6697
-62.1246
-61.5773
-61.1564
-60.7224
-60.4778
-60.3017
-60.8991
-61.2075
-62.3448
-62.7122
-62.9721
-62.932
-62.6251
-69.8906
-68.7234
-67.853
-66.3744
-65.6481
-64.7637
-63.6934
-62.8335
-62.5233
-61.912
-61.4999
-61.2284
-61.1068
-61.0673
-61.3724
-61.5444
-61.9897
-62.056
-61.8039
-62.0617
-62.8548
-71.1858
-69.7973
-68.9002
-67.9147
-66.9353
-66.1729
-65.3263
-64.1691
-63.1947
-62.5853
-62.2071
-61.8729
-61.6122
-61.4639
-61.7236
-61.8316
-62.0821
-62.092
-62.185
-61.9883
-62.3251
-62.1735
-57.7366
-57.7442
-57.7393
-57.714
-57.7436
-57.7209
-57.7392
-57.608
-57.6764
-57.6156
-57.6964
-57.7367
-57.7221
-57.6562
-57.5889
-57.7242
-57.7212
-57.6774
-57.7133
-57.723
-57.6179
-57.6613
-57.7735
-57.7362
-57.7935
-57.728
-57.6814
-57.6528
-57.7923
-57.8345
-57.8962
-57.9121
-57.7785
-57.7125
-57.7366
-57.7331
-57.8075
-57.9354
-57.922
-57.9203
-57.8088
-57.9169
-57.8005
-57.8743
-57.8614
-58.0547
-57.9842
-58.0611
-58.0815
-58.0524
-57.9078
-57.9898
-57.9447
-57.9611
-57.9007
-58.184
-58.188
-58.2623
-58.15
-58.1756
-58.2291
-58.0523
-58.0974
-58.1645
-58.0378
-58.025
-58.4087
-58.4191
-58.5249
-58.3855
-58.4291
-58.3317
-58.474
-58.2798
-58.2649
-58.35
-58.3784
-58.2808
-58.8225
-58.7766
-58.7085
-58.7388
-58.6033
-58.604
-58.6485
-58.4998
-58.6385
-58.4264
-58.6334
-58.6904
-58.7024
-59.2616
-59.1663
-59.0407
-59.0137
-58.9153
-58.8539
-58.8486
-58.9128
-58.69
-58.8766
-58.8563
-58.8741
-59.0775
-58.9186
-59.7551
-59.6952
-59.5783
-59.4976
-59.288
-59.1531
-59.0626
-59.196
-58.9572
-59.0931
-59.1703
-59.2161
-59.3977
-59.5775
-59.842
-60.308
-60.2488
-59.8463
-59.7772
-59.6896
-59.573
-59.4279
-59.4788
-59.2969
-59.3999
-59.4115
-59.5321
-59.6392
-59.9654
-60.6634
-61.5472
-61.651
-61.0514
-60.8273
-60.5384
-60.361
-60.055
-59.8855
-59.8102
-59.7577
-59.6848
-59.7426
-59.9421
-59.9147
-60.5967
-61.9197
-62.8967
-64.4941
-62.6816
-61.8966
-61.4496
-61.2281
-60.9758
-60.5106
-60.3779
-60.0681
-59.9827
-59.9072
-60.0926
-60.2223
-60.3
-61.3405
-63.1569
-64.8709
-67.1111
-68.0914
-64.2982
-63.5615
-62.8239
-62.2335
-61.7798
-61.4107
-60.8717
-60.6741
-60.3353
-60.1982
-59.9059
-60.112
-60.5236
-61.434
-63.2919
-64.2869
-65.5884
-67.5729
-67.1474
-65.9017
-64.8712
-64.1189
-63.3535
-62.7608
-62.1967
-61.6292
-61.1112
-60.6953
-60.4705
-60.2383
-60.155
-60.393
-61.5657
-62.4215
-63.3627
-64.3751
-64.7298
-64.0584
-63.459
-68.1775
-67.3161
-66.1154
-64.9425
-64.3428
-63.5523
-62.7057
-62.1776
-61.6231
-61.2044
-60.7531
-60.5333
-60.3729
-60.9774
-61.294
-62.371
-62.703
-62.9516
-62.9046
-62.6362
-62.8397
-69.8824
-68.7252
-67.8328
-66.4069
-65.6597
-64.7791
-63.7322
-62.8512
-62.5358
-61.9274
-61.5666
-61.2824
-61.1598
-61.0929
-61.4031
-61.6083
-62.0444
-61.9898
-61.7859
-62.0699
-62.8736
-61.8711
-71.158
-69.7929
-68.8972
-67.9011
-66.9622
-66.1678
-65.3182
-64.1926
-63.2427
-62.6287
-62.2409
-61.8944
-61.6303
-61.4869
-61.7503
-61.848
-62.0988
-62.094
-62.2266
-62.0344
-62.3684
-62.2284
-61.5911
-57.6276
-57.6903
-57.7293
-57.7059
-57.7286
-57.6325
-57.7406
-57.6858
-57.6801
-57.5707
-57.6936
-57.6994
-57.6273
-57.627
-57.5713
-57.6149
-57.6993
-57.6681
-57.6183
-57.6119
-57.5402
-57.7157
-57.6889
-57.6688
-57.7052
-57.6867
-57.5768
-57.5798
-57.721
-57.6818
-57.7608
-57.7166
-57.7379
-57.6055
-57.6136
-57.6365
-57.7418
-57.8214
-57.7932
-57.7935
-57.7783
-57.7753
-57.6759
-57.6719
-57.7378
-57.823
-57.819
-57.8833
-57.813
-57.8272
-57.8643
-57.7944
-57.8013
-57.8244
-57.9075
-57.9494
-57.9785
-58.0423
-57.9819
-58.0774
-58.0427
-57.9664
-57.9398
-57.9497
-57.8967
-57.9606
-58.1204
-58.1528
-58.2208
-58.1163
-58.1056
-58.1386
-58.2685
-58.0967
-58.1093
-58.075
-58.2097
-58.1758
-58.4309
-58.377
-58.4203
-58.3428
-58.4103
-58.324
-58.2582
-58.3098
-58.4011
-58.2928
-58.2693
-58.4137
-58.4965
-58.8167
-58.7514
-58.6407
-58.6897
-58.6309
-58.6263
-58.4452
-58.5145
-58.4852
-58.5764
-58.7321
-58.6604
-58.8188
-58.5984
-59.2436
-59.1589
-59.0269
-58.936
-58.8228
-58.8709
-58.8616
-58.8832
-58.7592
-58.8814
-58.9722
-58.9033
-59.2188
-59.2363
-59.3883
-59.7226
-59.6404
-59.4912
-59.3817
-59.3963
-59.1735
-59.0674
-59.1132
-59.0523
-59.1092
-59.3238
-59.3993
-59.4593
-59.7305
-60.1062
-60.7313
-60.3836
-60.2077
-59.7769
-59.7914
-59.753
-59.6368
-59.4297
-59.4266
-59.4313
-59.449
-59.5553
-59.698
-59.8977
-60.2779
-61.0529
-61.6325
-62.4935
-61.6723
-61.173
-60.8519
-60.4974
-60.2946
-60.0488
-59.9516
-59.8611
-59.7408
-59.8224
-59.8414
-59.9197
-60.1919
-60.9894
-62.5363
-63.6202
-65.0264
-64.8587
-62.7064
-61.9157
-61.4457
-61.2187
-60.9763
-60.6775
-60.3757
-60.0816
-60.0279
-60.1133
-60.0789
-60.4153
-60.664
-61.6883
-63.7585
-65.5839
-67.7604
-67.9674
-65.7493
-64.3224
-63.5225
-62.8344
-62.2559
-61.8488
-61.4028
-60.8777
-60.6515
-60.3192
-60.2044
-59.9785
-60.3802
-60.9155
-62.0841
-63.681
-64.312
-65.8288
-67.4014
-66.6345
-64.271
-65.915
-64.8693
-64.1394
-63.3755
-62.779
-62.1557
-61.6201
-61.1154
-60.7846
-60.5356
-60.3049
-60.2488
-60.5346
-61.7
-62.4188
-63.3757
-64.3454
-64.5954
-63.977
-63.361
-62.6929
-68.0848
-67.25
-66.0892
-64.9389
-64.344
-63.6205
-62.7844
-62.2318
-61.6854
-61.2646
-60.7473
-60.599
-60.4565
-61.0468
-61.4048
-62.4278
-62.7064
-62.9404
-62.9198
-62.6426
-62.9248
-62.6418
-69.8821
-68.7352
-67.8076
-66.4512
-65.6914
-64.8095
-63.7901
-62.8756
-62.5532
-62.0325
-61.6259
-61.3416
-61.224
-61.1274
-61.4418
-61.681
-62.0919
-61.9468
-61.753
-62.0799
-62.874
-61.9597
-61.3317
-71.1441
-69.8003
-68.9166
-67.8984
-66.9849
-66.1836
-65.2911
-64.2383
-63.3151
-62.6889
-62.3101
-61.924
-61.6498
-61.5166
-61.7763
-61.8656
-62.122
-62.0884
-62.2636
-62.086
-62.4063
-62.305
-61.6257
-61.4655
-57.4867
-57.5581
-57.6299
-57.662
-57.6856
-57.5879
-57.7449
-57.6442
-57.6283
-57.5203
-57.7897
-57.6813
-57.6337
-57.545
-57.5055
-57.7098
-57.6933
-57.5697
-57.549
-57.5185
-57.4707
-57.6639
-57.6141
-57.647
-57.5681
-57.5694
-57.5048
-57.4682
-57.6707
-57.6603
-57.6548
-57.6675
-57.6099
-57.5726
-57.5471
-57.5171
-57.6172
-57.6373
-57.6935
-57.7131
-57.7176
-57.6077
-57.5874
-57.6248
-57.617
-57.7362
-57.6975
-57.8418
-57.8034
-57.7271
-57.6656
-57.6698
-57.6728
-57.7045
-57.7251
-57.7229
-57.7901
-57.851
-57.8291
-57.8341
-57.8477
-57.8009
-57.8081
-57.8207
-57.761
-57.7772
-57.9412
-57.9572
-58.0296
-57.9736
-57.9323
-58.0417
-57.9541
-57.9667
-57.9475
-57.9429
-58.0156
-58.01
-58.1472
-58.1136
-58.1143
-58.0928
-58.1312
-58.1431
-58.1923
-58.1276
-58.2409
-58.1147
-58.1244
-58.1677
-58.2384
-58.3798
-58.4121
-58.349
-58.2904
-58.3094
-58.3285
-58.1967
-58.287
-58.2297
-58.4086
-58.3742
-58.4398
-58.5534
-58.5114
-58.7685
-58.7161
-58.6611
-58.6582
-58.6175
-58.5338
-58.5613
-58.6158
-58.5208
-58.6973
-58.6695
-58.7124
-58.86
-58.6442
-58.7426
-59.1864
-59.1566
-58.8679
-58.9429
-58.9246
-58.7838
-58.8346
-58.9018
-58.904
-58.8968
-59.1234
-59.1471
-59.3368
-59.295
-59.4606
-59.6949
-59.6752
-59.6461
-59.4843
-59.2798
-59.4387
-59.1865
-59.138
-59.1042
-59.1273
-59.1998
-59.4075
-59.4147
-59.5878
-59.9109
-60.5848
-60.9623
-61.0325
-60.3401
-60.0338
-59.9026
-59.8049
-59.7006
-59.6103
-59.4535
-59.502
-59.4659
-59.5871
-59.6464
-59.8805
-60.1561
-60.6063
-61.5921
-62.0151
-62.8208
-63.2019
-61.3659
-61.251
-60.7154
-60.4485
-60.3086
-60.0135
-60.0107
-59.8086
-59.7812
-59.9187
-59.8904
-60.0973
-60.4514
-61.3445
-63.0986
-64.2378
-65.4797
-65.1269
-63.9928
-62.6984
-61.8981
-61.4215
-61.1814
-60.9169
-60.7078
-60.4611
-60.0921
-60.1106
-60.1908
-60.2563
-60.5632
-60.8753
-62.1076
-64.3662
-66.2037
-67.991
-67.4904
-65.1454
-63.7895
-64.2575
-63.4969
-62.7332
-62.358
-61.7845
-61.4941
-60.9779
-60.6574
-60.3255
-60.1933
-60.1327
-60.7688
-61.3435
-62.5179
-64.0734
-64.6366
-66.2052
-67.2947
-65.8738
-63.9566
-63.2586
-65.8409
-64.9467
-64.1331
-63.3694
-62.8072
-62.1518
-61.6165
-61.1326
-60.8565
-60.6059
-60.39
-60.3805
-60.7283
-61.6688
-62.5056
-63.4134
-64.1209
-64.4055
-63.8335
-63.1701
-62.7378
-62.2336
-68.0543
-67.2293
-66.1288
-64.9694
-64.3472
-63.6454
-62.8481
-62.2843
-61.7621
-61.3283
-60.8256
-60.6892
-60.5496
-61.1138
-61.5458
-62.5249
-62.6975
-62.932
-62.9624
-62.6441
-63.0422
-62.7372
-61.6808
-69.8747
-68.7332
-67.7925
-66.4975
-65.7312
-64.8535
-63.8564
-62.9099
-62.628
-62.1108
-61.6832
-61.4104
-61.2985
-61.1829
-61.485
-61.7459
-62.0963
-61.9328
-61.7373
-62.0939
-62.8783
-62.0603
-61.4328
-61.4462
-71.1482
-69.8184
-68.9476
-67.9062
-66.9693
-66.2709
-65.282
-64.2846
-63.3946
-62.7508
-62.3864
-61.9662
-61.6781
-61.5579
-61.8004
-61.8854
-62.1431
-62.0996
-62.301
-62.1433
-62.4491
-62.3867
-61.6586
-61.5005
-61.3035
-57.4648
-57.4798
-57.556
-57.5325
-57.5071
-57.6704
-57.6508
-57.6039
-57.4148
-57.7592
-57.6335
-57.5584
-57.4754
-57.4059
-57.7365
-57.6812
-57.5483
-57.5166
-57.4399
-57.3651
-57.6641
-57.554
-57.629
-57.491
-57.5211
-57.4393
-57.4087
-57.6081
-57.6654
-57.6286
-57.5919
-57.5204
-57.4416
-57.4265
-57.4197
-57.6092
-57.5901
-57.6513
-57.638
-57.5359
-57.5596
-57.4759
-57.4875
-57.5359
-57.5643
-57.6446
-57.6518
-57.6813
-57.6755
-57.614
-57.5579
-57.5976
-57.6103
-57.6199
-57.692
-57.6835
-57.7851
-57.7184
-57.7196
-57.6666
-57.6977
-57.6939
-57.6514
-57.7479
-57.8072
-57.7139
-57.6875
-57.802
-57.805
-57.8936
-57.8207
-57.7996
-57.8137
-57.8093
-57.7986
-57.775
-57.8403
-57.8975
-57.9195
-57.9291
-57.9239
-57.8869
-58.0286
-57.9862
-57.9317
-57.9445
-57.9899
-58.03
-58.1075
-58.0713
-58.0622
-58.042
-58.0032
-58.0813
-58.1253
-58.0592
-58.1011
-58.1
-58.0843
-58.3158
-58.1632
-58.2523
-58.1803
-58.3946
-58.3486
-58.3853
-58.3188
-58.3312
-58.3207
-58.2515
-58.2757
-58.3617
-58.4494
-58.3602
-58.4844
-58.4784
-58.6986
-58.377
-58.7187
-58.7114
-58.6076
-58.6768
-58.6206
-58.5001
-58.6218
-58.5952
-58.5178
-58.6567
-58.6226
-58.7699
-58.6743
-59.0962
-58.9548
-59.0792
-59.0013
-59.0993
-59.1358
-59.0292
-58.9031
-58.9709
-58.8538
-58.9265
-58.8582
-58.7787
-58.9745
-59.1412
-59.2201
-59.5549
-59.5484
-59.8812
-60.2642
-59.7934
-59.7046
-59.6228
-59.4636
-59.2512
-59.3941
-59.1553
-59.1275
-59.2069
-59.2206
-59.2237
-59.4545
-59.6185
-59.8192
-60.1393
-60.6225
-61.1832
-61.2738
-61.5107
-60.2166
-59.9858
-59.7879
-59.8255
-59.6736
-59.6127
-59.5585
-59.577
-59.5134
-59.7159
-59.7797
-60.0663
-60.2383
-61.0553
-62.0917
-62.4633
-63.1688
-63.3128
-62.4342
-61.4265
-61.1977
-60.7991
-60.453
-60.2617
-60.0907
-59.9544
-59.8156
-59.8465
-59.9916
-59.9667
-60.2581
-60.6086
-61.9167
-63.5613
-64.7658
-65.8159
-65.2439
-63.9069
-62.4776
-62.4481
-61.8832
-61.4494
-61.1534
-60.9695
-60.6049
-60.4683
-60.1454
-60.1995
-60.3376
-60.3547
-60.7487
-61.2731
-62.7278
-64.9099
-66.5981
-67.839
-66.8817
-64.8301
-63.3784
-62.3902
-64.2887
-63.511
-62.7554
-62.4174
-61.8367
-61.5215
-60.9944
-60.6625
-60.3485
-60.2247
-60.3094
-61.2291
-61.8549
-62.8306
-64.2286
-65.065
-66.4359
-67.0585
-65.2323
-63.6798
-63.0538
-62.0686
-65.8992
-65.0008
-64.1402
-63.429
-62.8658
-62.2299
-61.6658
-61.2178
-60.9205
-60.7013
-60.5451
-60.6034
-61.0241
-61.7874
-62.6501
-63.4507
-63.9652
-64.1937
-63.6504
-62.9968
-62.8242
-62.3596
-61.6225
-68.0426
-67.2164
-66.1715
-65.0128
-64.3725
-63.6546
-62.8812
-62.3216
-61.8424
-61.4039
-60.912
-60.7882
-60.67
-61.1885
-61.6637
-62.6246
-62.7238
-62.9192
-62.9938
-62.6535
-63.1212
-62.8128
-61.7858
-61.6029
-69.8671
-68.7462
-67.7868
-66.5558
-65.7872
-64.9063
-63.9305
-62.9612
-62.6842
-62.1303
-61.7427
-61.4735
-61.3567
-61.1852
-61.5325
-61.8223
-62.0836
-61.9284
-61.7411
-62.1146
-62.8893
-62.1737
-61.5312
-61.5141
-61.1347
-71.1581
-69.8574
-68.9694
-67.918
-66.9612
-66.3234
-65.2837
-64.3359
-63.4764
-62.8103
-62.4487
-62.0288
-61.7141
-61.6041
-61.8221
-61.9081
-62.16
-62.1243
-62.3374
-62.2029
-62.4886
-62.452
-61.693
-61.5308
-61.3456
-60.8593
-57.3918
-57.476
-57.4094
-57.6007
-57.5222
-57.484
-57.3899
-57.7291
-57.5803
-57.5483
-57.4097
-57.301
-57.7552
-57.6216
-57.5016
-57.4456
-57.3677
-57.3177
-57.6666
-57.6744
-57.5428