/*--------------------------------*- C++ -*----------------------------------*\
  =========                 |
  \\      /  F ield         | OpenFOAM: The Open Source CFD Toolbox
   \\    /   O peration     | Website:  https://openfoam.org
    \\  /    A nd           | Version:  7
     \\/     M anipulation  |
\*---------------------------------------------------------------------------*/
FoamFile
{
    version     2.0;
    format      ascii;
    class       volVectorField;
    location    "4";
    object      U_0;
}
// * * * * * * * * * * * * * * * * * * * * * * * * * * * * * * * * * * * * * //

dimensions      [0 1 -1 0 0 0 0];

internalField   nonuniform List<vector> 
18870
(
(-2.04927 0.257457 0.318122)
(-2.01926 1.72134 0.72888)
(-2.04345 0.237054 0.291585)
(-1.78863 0.532321 0.226551)
(-1.83556 2.6587 0.589135)
(-2.06754 1.68435 0.669952)
(-1.70697 1.58897 1.07648)
(-2.02709 0.257143 0.269059)
(-1.77395 0.504542 0.250401)
(-1.84655 1.13461 0.486678)
(-2.00871 2.90988 2.10952)
(-1.86019 2.79655 0.478216)
(-1.5147 3.03474 0.784602)
(-2.08015 1.6533 0.644257)
(-1.82928 1.47272 1.02797)
(-1.9798 1.81642 1.25667)
(-2.01681 0.227229 0.263547)
(-1.75013 0.504992 0.230804)
(-1.84568 1.12644 0.483116)
(-1.46598 1.614 0.291719)
(-2.07498 3.42482 2.81744)
(-2.13081 2.91274 2.15213)
(-2.11526 2.98038 2.19124)
(-2.07025 2.70831 0.379404)
(-1.59082 3.01815 0.896418)
(-2.08727 2.77562 1.26748)
(-2.13709 1.58688 0.633131)
(-1.85032 1.47233 1.00394)
(-2.02144 1.79282 1.2221)
(-1.51133 1.91853 1.54052)
(-2.01414 0.253799 0.245941)
(-1.72268 0.540635 0.151828)
(-1.84464 1.11227 0.454757)
(-1.49681 1.59456 0.304771)
(-1.57682 2.04408 -0.0115459)
(-1.75607 3.19726 3.12106)
(-1.96066 3.47434 2.88273)
(-2.06307 2.97419 3.02725)
(-2.12071 2.8483 2.1652)
(-2.11849 2.99489 2.15309)
(-1.93132 3.03472 2.43931)
(-2.22922 2.63189 0.324492)
(-1.8764 2.9622 0.94964)
(-2.07355 2.82232 1.2295)
(-2.1746 2.5244 1.39051)
(-2.13752 1.58901 0.6231)
(-1.93798 1.31602 0.998238)
(-2.09739 1.75397 1.18432)
(-2.02615 1.61706 1.4532)
(-1.25862 2.0867 1.70607)
(-2.01847 0.274715 0.239184)
(-1.71062 0.529759 0.14011)
(-1.85232 1.13016 0.45171)
(-1.50099 1.64425 0.30485)
(-1.61445 2.02507 0.0250723)
(-1.72349 2.25645 -0.00427157)
(-1.69007 2.8743 2.89194)
(-1.82161 3.1417 3.0793)
(-1.67299 3.13503 2.91283)
(-1.87632 3.3788 2.82361)
(-1.82684 3.13763 2.82676)
(-1.76054 2.98261 3.02794)
(-2.22369 2.60222 2.22529)
(-2.1583 3.00041 2.08941)
(-2.06819 2.94885 2.42585)
(-1.8109 2.92854 2.37977)
(-2.38449 2.5679 0.348477)
(-1.82194 2.95912 1.00301)
(-2.15594 2.68256 1.40762)
(-2.10494 2.53691 1.54635)
(-1.68508 2.61383 1.62848)
(-2.14735 1.49855 0.67107)
(-1.7137 1.46268 0.984982)
(-2.16971 1.67696 1.18625)
(-1.72411 1.91249 1.54589)
(-1.29627 2.12275 1.721)
(-1.49223 2.45996 1.39082)
(-1.97808 0.23691 0.239815)
(-1.69722 0.471905 0.148178)
(-1.85622 1.1422 0.390444)
(-1.49513 1.65126 0.353156)
(-1.64394 2.03325 0.0398293)
(-1.76197 2.22867 0.00845899)
(-1.42593 2.27784 -0.178606)
(-1.28252 2.95998 2.32967)
(-1.73845 2.76094 2.93817)
(-0.793117 2.83677 2.93224)
(-1.9139 3.08517 3.07068)
(-1.93504 2.92837 2.8411)
(-1.65424 3.18261 2.40456)
(-2.02572 3.30839 2.79109)
(-2.08807 2.92307 2.74898)
(-2.02056 3.12602 2.71745)
(-1.42259 3.15823 2.77848)
(-2.27277 2.54549 2.13146)
(-2.2304 2.86663 2.11346)
(-2.15185 2.93038 2.39471)
(-1.93331 2.90803 2.34659)
(-1.45361 3.09207 2.05165)
(-2.42937 2.51061 0.344119)
(-1.9616 2.7715 0.97184)
(-2.06595 2.7278 1.47151)
(-2.11825 2.49303 1.57811)
(-1.97072 2.51351 1.50248)
(-1.50439 2.69992 1.60045)
(-2.1631 1.46744 0.692402)
(-1.9449 1.10062 0.96449)
(-2.0478 1.77217 1.11891)
(-1.72525 1.81107 1.6178)
(-1.62758 2.07311 1.50518)
(-1.56627 2.41553 1.42789)
(-1.55761 2.55633 1.08329)
(-1.97266 0.213742 0.23427)
(-1.67011 0.554255 0.0558624)
(-1.84399 1.09627 0.418258)
(-1.47631 1.66118 0.341087)
(-1.65316 2.04496 0.0810254)
(-1.78466 2.21893 0.00147137)
(-1.46848 2.263 -0.11911)
(-0.827539 1.93262 0.234668)
(-1.13519 2.85502 2.52633)
(-1.21975 2.95383 2.26546)
(-1.05696 3.02242 2.21379)
(-1.66446 2.75776 2.97636)
(-1.12877 2.84203 2.79486)
(-1.28635 2.85201 2.26203)
(-1.71862 3.23527 3.03582)
(-1.86793 2.8396 2.95669)
(-1.68612 3.13816 2.40267)
(-1.18349 3.31513 2.47833)
(-2.13225 3.2067 2.79271)
(-1.81313 3.06634 2.73427)
(-1.96368 3.06098 2.66911)
(-1.53208 3.24972 2.58241)
(-1.00553 3.23608 2.38901)
(-2.25675 2.48529 2.05014)
(-2.21519 2.93569 1.92281)
(-2.23486 2.82383 2.3516)
(-1.98689 2.89615 2.28934)
(-1.61655 3.02035 1.88895)
(-1.29543 3.09504 1.79274)
(-2.45603 2.46434 0.265567)
(-2.18985 2.63188 0.994452)
(-2.4417 2.46256 1.42591)
(-2.1102 2.49714 1.58823)
(-1.66657 2.65494 1.65176)
(-1.59793 2.67294 1.60544)
(-1.17025 2.73565 1.6119)
(-2.18991 1.41389 0.718662)
(-1.95165 1.16076 0.967506)
(-2.13808 1.56498 1.19805)
(-1.79085 1.72822 1.64491)
(-1.68035 2.05385 1.48448)
(-1.61693 2.43783 1.38377)
(-1.57413 2.52747 1.20604)
(-1.08311 2.55608 0.601049)
(-2.00646 0.250774 0.229)
(-1.65493 0.556379 0.0700297)
(-1.84622 1.11198 0.382789)
(-1.53947 1.63207 0.329509)
(-1.66476 2.04287 0.0606632)
(-1.81201 2.2466 0.0301189)
(-1.4955 2.28833 -0.0994909)
(-0.829259 1.93844 0.231814)
(-0.555631 2.4845 0.49869)
(-0.827119 2.65464 2.51219)
(-1.2036 2.77767 2.49724)
(-1.13372 2.68763 2.54124)
(-1.66527 2.64 2.34587)
(-1.25751 3.02112 2.19749)
(-1.13629 2.93156 2.30573)
(-1.68484 2.71025 3.07439)
(-1.30484 2.83952 2.70655)
(-1.52865 2.9006 2.09761)
(-1.32487 2.91596 2.08198)
(-1.90487 3.00691 3.12817)
(-1.97326 2.83296 2.85534)
(-1.84588 3.02344 2.42586)
(-1.09608 3.16465 2.48016)
(-0.685742 3.06549 2.33943)
(-2.15696 3.14828 2.67275)
(-2.06162 3.01467 2.56569)
(-2.11332 2.8572 2.57761)
(-1.52235 3.12655 2.60979)
(-1.6437 3.19253 2.00157)
(-0.885238 3.10175 1.95161)
(-2.51139 2.16031 2.01376)
(-2.56336 2.67741 1.87341)
(-2.28668 2.76458 2.3096)
(-2.13711 2.75453 2.26985)
(-1.68272 3.03149 1.82977)
(-1.61337 2.85204 1.90595)
(-0.950904 2.91072 1.74764)
(-2.50361 2.42019 0.253954)
(-2.1188 2.70295 0.94363)
(-2.20862 2.62611 1.51312)
(-2.19579 2.42961 1.64498)
(-1.74175 2.59771 1.64796)
(-1.6588 2.65275 1.58236)
(-0.975333 2.72935 1.69564)
(-0.65276 2.98195 0.938129)
(-2.1519 1.38756 0.707735)
(-1.90106 1.17774 0.958259)
(-2.19807 1.57637 1.19763)
(-1.83306 1.74068 1.6804)
(-1.66528 2.06498 1.50272)
(-1.67248 2.4114 1.32775)
(-1.59177 2.55565 1.18274)
(-1.16662 2.54316 0.535857)
(-0.624416 2.14255 1.29619)
(-1.99992 0.244485 0.223213)
(-1.63841 0.550994 0.0575655)
(-1.86319 1.15287 0.340718)
(-1.43214 1.738 0.335103)
(-1.63615 2.06488 0.0987106)
(-1.81491 2.24412 0.040253)
(-1.54763 2.2692 -0.0871897)
(-0.82646 1.93272 0.232282)
(-0.578904 2.48672 0.507985)
(-0.507724 2.36325 -0.0728063)
(-0.91074 2.48208 2.63902)
(-1.1973 2.58168 2.40893)
(-0.773302 2.61279 2.53448)
(-1.20069 2.80752 2.44336)
(-1.12304 2.59749 2.52655)
(-0.648409 2.78 2.52009)
(-1.55446 2.72724 2.2905)
(-0.873321 3.15456 2.09548)
(-1.22128 2.70188 2.3985)
(-0.975842 2.77437 2.36998)
(-1.62455 2.90738 2.95574)
(-1.52431 2.67707 2.59919)
(-1.49174 2.88838 2.08997)
(-1.21668 2.95991 1.96392)
(-0.89544 2.8686 1.8938)
(-1.91837 3.06443 3.13761)
(-2.16399 2.77681 2.76484)
(-1.84807 3.10118 2.40416)
(-1.01192 3.05791 2.60496)
(-0.7841 3.06616 2.22741)
(-0.6084 2.87124 2.07112)
(-2.37466 2.90563 2.64818)
(-2.20553 2.96213 2.52903)
(-2.2133 2.80116 2.58965)
(-1.83706 2.91912 2.59152)
(-1.35269 3.2791 1.82684)
(-1.00546 3.10567 1.95795)
(-0.882874 2.84912 1.84034)
(-2.47352 2.19782 1.9673)
(-2.51799 2.733 1.78865)
(-2.52289 2.59207 2.22785)
(-2.17356 2.77449 2.24421)
(-1.70987 2.9797 1.79368)
(-1.62987 2.863 1.84171)
(-1.08725 2.87604 1.66516)
(-0.485486 3.05523 1.23098)
(-2.51024 2.42853 0.261578)
(-2.14696 2.51188 0.913085)
(-2.4231 2.37947 1.43943)
(-2.21202 2.44418 1.6396)
(-1.83701 2.54249 1.63316)
(-1.67159 2.65232 1.57241)
(-1.18229 2.69951 1.57344)
(-0.645478 3.00017 0.784761)
(-0.4397 2.8495 0.607184)
(-2.23095 1.19391 0.777228)
(-1.92228 1.00783 0.934003)
(-2.18205 1.56123 1.21373)
(-1.96565 1.68697 1.63287)
(-1.68455 2.0811 1.46252)
(-1.74272 2.35105 1.32117)
(-1.45076 2.52574 1.531)
(-1.18084 2.48372 0.704851)
(-0.648656 2.12248 1.35464)
(-0.35269 2.25561 0.770087)
(-1.95437 0.202471 0.231175)
(-1.64378 0.57194 0.0479043)
(-1.84386 1.12211 0.370589)
(-1.56789 1.6387 0.328036)
(-1.67223 2.04534 0.0504073)
(-1.78983 2.23263 0.0813457)
(-1.4846 2.28134 -0.0686212)
(-0.835204 1.92692 0.221912)
(-0.604344 2.4937 0.482526)
(-0.198771 2.41706 0.0786882)
(-0.0382621 2.00416 -0.0988477)
(-0.86592 2.23747 2.61109)
(-0.853616 2.50212 2.61067)
(-0.918996 2.42508 2.62069)
(-1.20298 2.48732 2.44495)
(-0.806039 2.50389 2.58013)
(-0.512174 2.63141 2.49042)
(-1.37184 2.73544 2.41562)
(-1.1878 2.56349 2.50341)
(-0.860868 2.55748 2.59785)
(-1.05026 2.43829 2.46768)
(-1.41898 2.77305 2.27168)
(-1.24766 2.89216 2.1166)
(-1.15919 2.60369 2.39086)
(-1.01275 2.80112 2.19431)
(-1.03704 2.83587 2.03417)
(-1.64638 2.76528 3.00773)
(-1.50132 2.71573 2.4998)
(-1.51052 2.84696 2.16504)
(-1.10262 3.013 1.95444)
(-1.0165 2.92952 1.88223)
(-0.726111 2.87017 2.03797)
(-1.77598 3.027 3.17816)
(-2.23307 2.69467 2.79534)
(-1.7442 3.00044 2.72958)
(-1.29723 3.02952 2.53778)
(-0.765049 3.02068 2.12105)
(-0.790352 2.82308 1.987)
(-0.833589 2.69433 1.9574)
(-2.58995 2.6335 2.58213)
(-2.1329 3.00838 2.45198)
(-2.30228 2.72736 2.57522)
(-2.04211 2.94295 2.38078)
(-1.52242 2.95603 1.82382)
(-1.15683 3.0099 1.99509)
(-0.933627 2.96696 1.53908)
(-0.365553 2.9561 1.31106)
(-2.58204 2.06602 1.97053)
(-2.58684 2.53101 1.78096)
(-2.56446 2.55709 2.23915)
(-2.31476 2.71789 2.15782)
(-1.89627 2.87562 1.70321)
(-1.69155 2.78721 1.85045)
(-0.967027 3.04379 1.31742)
(-0.455103 3.04636 0.951225)
(-0.369252 2.62286 1.54342)
(-2.75493 2.18359 0.346225)
(-2.29796 2.33944 0.914992)
(-2.63432 2.18465 1.39895)
(-2.23578 2.41551 1.61889)
(-1.73181 2.60398 1.66495)
(-1.7314 2.63905 1.54728)
(-1.02091 2.72833 1.54653)
(-0.597052 2.96904 0.748684)
(-0.519068 2.77246 0.658469)
(-0.0946974 2.40801 1.05252)
(-2.24229 1.17605 0.76803)
(-1.93867 0.978177 0.921514)
(-2.16523 1.55511 1.11437)
(-1.98849 1.68057 1.62264)
(-1.71262 2.05188 1.47612)
(-1.81202 2.34089 1.27701)
(-1.73233 2.50908 1.09593)
(-1.10214 2.5086 0.589317)
(-0.648749 2.10852 1.37354)
(-0.363136 2.2653 0.761419)
(0.145234 2.18494 0.644206)
(-1.94766 0.216648 0.21531)
(-1.60683 0.565743 0.0659416)
(-1.83375 1.12839 0.30435)
(-1.54164 1.69529 0.29511)
(-1.66361 2.05703 0.073609)
(-1.78505 2.24968 0.0931719)
(-1.4542 2.30323 -0.0411168)
(-0.84747 1.93052 0.214345)
(-0.623365 2.49249 0.452599)
(-0.346005 2.41072 0.156478)
(0.00856391 2.013 -0.0899711)
(0.303679 1.64206 -0.24075)
(-0.890008 2.21311 2.42945)
(-0.937975 2.26463 2.56315)
(-0.716827 2.48868 2.38277)
(-1.05707 2.35892 2.55939)
(-0.975594 2.41131 2.57363)
(-0.526465 2.36566 2.6696)
(-1.17737 2.51696 2.34976)
(-1.14104 2.5109 2.42659)
(-0.724918 2.60634 2.44623)
(-0.470591 2.50642 2.49537)
(-1.48776 2.62542 2.42717)
(-1.08848 2.64093 2.56074)
(-1.1033 2.47686 2.58032)
(-0.798059 2.44734 2.40757)
(-0.549382 2.48769 2.49951)
(-1.50533 2.80996 2.16302)
(-1.45888 2.71769 2.20781)
(-1.18338 2.58972 2.39778)
(-0.970678 2.77731 2.07379)
(-0.736613 2.71952 2.11296)
(-0.520357 2.53133 2.40128)
(-2.13172 2.58439 2.75521)
(-1.96078 2.4653 2.48443)
(-1.56528 2.84202 2.25934)
(-1.06872 3.10801 1.96179)
(-0.994279 2.92631 1.87276)
(-0.819911 2.82005 1.97978)
(-0.65467 2.83053 1.8297)
(-1.93369 3.0444 2.90957)
(-2.22242 2.76504 2.69175)
(-1.77581 2.95016 2.79594)
(-1.57124 2.8179 2.57001)
(-0.807366 3.0887 1.99025)
(-0.987811 2.83862 1.89203)
(-0.858143 2.68798 1.95082)
(-0.417925 2.60387 1.98674)
(-2.75268 2.43497 2.5515)
(-2.19315 2.88147 2.36956)
(-2.27755 2.51056 2.68743)
(-2.03143 2.89405 2.33891)
(-1.54332 2.95783 1.82599)
(-1.15468 2.99854 1.88156)
(-0.927811 2.89723 1.72844)
(-0.266829 2.99988 1.25617)
(-0.235673 2.88453 1.56576)
(-2.72701 1.98452 2.08438)
(-2.67834 2.41569 1.79524)
(-2.62925 2.4458 2.3073)
(-2.26047 2.70957 2.13713)
(-1.95853 2.85335 1.68809)
(-1.73646 2.73141 1.93305)
(-1.2894 2.82742 1.57363)
(-0.424395 3.00014 0.929362)
(-0.484166 2.58942 1.59313)
(-0.133398 2.44743 1.62111)
(-2.91362 1.98148 0.439513)
(-2.45707 2.19043 0.947471)
(-2.41196 2.39365 1.37803)
(-2.36024 2.29269 1.59109)
(-1.96754 2.48409 1.6034)
(-1.84753 2.57638 1.51411)
(-1.04137 2.74804 1.51623)
(-0.801891 2.89233 0.765204)
(-0.614399 2.72362 0.770012)
(-0.186191 2.40492 1.02289)
(0.482779 2.2609 0.48625)
(-2.16774 1.20658 0.717437)
(-1.95267 0.916962 0.919526)
(-2.2664 1.37321 1.16986)
(-2.00741 1.63917 1.60488)
(-1.75497 2.05364 1.46152)
(-1.82769 2.34362 1.21391)
(-1.54287 2.39083 1.3694)
(-1.16757 2.45757 0.573579)
(-0.611592 2.10892 1.40111)
(-0.359512 2.27171 0.738864)
(-0.0350784 2.12807 0.762193)
(0.249148 1.89863 0.544065)
(-1.99212 0.226983 0.200064)
(-1.57753 0.609986 0.0030628)
(-1.85253 1.15632 0.275812)
(-1.49573 1.74986 0.285249)
(-1.64896 2.05785 0.105033)
(-1.75708 2.26337 0.117233)
(-1.49716 2.28113 -0.0385194)
(-0.814374 1.94368 0.230444)
(-0.625464 2.48351 0.441554)
(-0.107132 2.47664 0.110959)
(0.0254469 2.0287 -0.0888509)
(0.305799 1.64511 -0.251995)
(0.547251 1.45837 -0.129805)
(-0.96155 2.09477 2.38216)
(-0.977749 2.22829 2.4168)
(-0.694579 2.2878 2.40442)
(-1.10867 2.29958 2.49869)
(-0.83976 2.39013 2.49223)
(-0.387227 2.26478 2.61547)
(-1.1707 2.3001 2.52968)
(-0.944811 2.32442 2.6232)
(-0.65643 2.33997 2.64393)
(-0.50834 2.48061 2.53072)
(-1.20061 2.45075 2.40453)
(-1.05662 2.47137 2.47275)
(-0.76971 2.65784 2.31769)
(-0.910157 2.45904 2.27906)
(-0.871105 2.26567 2.41668)
(-1.57205 2.58955 2.40889)
(-1.15822 2.5664 2.60953)
(-1.06967 2.43565 2.58329)
(-0.94717 2.46116 2.3621)
(-0.499974 2.57517 2.35298)
(-0.589221 2.46792 2.38112)
(-1.7092 2.67703 2.20648)
(-1.53859 2.56682 2.31188)
(-1.22907 2.52439 2.39985)
(-1.03149 2.81305 2.00751)
(-0.758844 2.64366 2.13539)
(-0.562001 2.65386 2.17067)
(-0.311419 2.92378 1.73664)
(-2.17732 2.71934 2.61999)
(-1.82201 2.62379 2.47691)
(-1.45674 2.87389 2.31595)
(-1.10139 3.12772 1.95316)
(-0.904086 2.95307 1.79631)
(-0.929554 2.75523 1.89221)
(-0.91184 2.68738 1.77598)
(-0.728191 2.46136 2.03791)
(-2.60931 2.55968 2.75242)
(-2.23503 2.73507 2.71646)
(-1.72198 2.95232 2.68774)
(-1.75025 2.67335 2.43221)
(-0.841151 2.99942 2.05745)
(-0.681456 2.81647 2.12899)
(-0.905368 2.66465 1.95472)
(-0.354765 2.65536 1.91883)
(-0.368312 2.6793 1.7882)
(-2.97871 2.32607 2.49518)
(-2.37202 2.76943 2.30819)
(-2.61226 2.1907 2.61463)
(-1.96379 2.97699 2.18048)
(-1.95431 2.64673 1.75928)
(-1.01323 2.80237 2.15406)
(-1.1116 3.05931 1.33142)
(-0.422512 2.99962 1.27318)
(-0.227725 2.83379 1.60609)
(0.219603 2.56209 1.55608)
(-2.86202 1.84324 2.14528)
(-2.84492 2.23059 1.83189)
(-2.7231 2.39576 2.26197)
(-2.4241 2.61959 2.0045)
(-1.96894 2.86995 1.69846)
(-1.70946 2.72494 1.95263)
(-1.18242 3.05124 1.34883)
(-0.477205 2.9466 1.07132)
(-0.459096 2.49405 1.69614)
(-0.143888 2.44338 1.60599)
(0.826304 2.46672 0.794628)
(-2.58936 2.33455 0.396497)
(-2.41852 2.19141 0.940962)
(-2.73568 1.88696 1.35138)
(-2.25339 2.36299 1.56421)
(-1.90272 2.46587 1.67234)
(-1.5803 2.71825 1.59001)
(-1.27565 2.73123 1.36647)
(-0.747657 2.92655 0.464708)
(-0.690235 2.68904 0.832497)
(-0.196581 2.4179 0.973873)
(0.546504 2.23596 0.324069)
(0.618319 1.88984 0.423471)
(-2.23008 0.94785 0.820127)
(-1.97944 0.805193 0.943368)
(-2.22151 1.54634 0.925493)
(-2.02513 1.59909 1.58841)
(-1.80356 2.04744 1.41834)
(-1.7603 2.30782 1.29455)
(-1.52156 2.49595 1.50853)
(-1.43924 2.27738 0.425124)
(-0.573061 2.12168 1.41947)
(-0.455375 2.25064 0.812498)
(-0.0210741 2.10225 0.795308)
(0.227614 1.90268 0.518891)
(0.416094 1.67496 0.0808386)
(-1.98737 0.221001 0.194602)
(-1.5963 0.640094 -0.0200896)
(-1.84449 1.153 0.266065)
(-1.54224 1.72512 0.242087)
(-1.65707 2.03715 0.0134412)
(-1.68653 2.32368 0.154593)
(-1.59229 2.22571 -0.0563087)
(-0.844726 1.9372 0.220438)
(-0.620546 2.49068 0.436808)
(-0.278548 2.47974 0.173866)
(-0.029793 2.027 -0.100973)
(0.298737 1.6486 -0.274842)
(0.545424 1.46122 -0.129039)
(0.693323 1.39767 0.0859934)
(-0.752478 2.13207 2.43009)
(-1.0661 2.03619 2.40006)
(-0.600034 2.20996 2.36723)
(-1.09488 2.25729 2.42598)
(-0.853603 2.27196 2.45607)
(-0.550957 2.244 2.47822)
(-1.11645 2.31928 2.48397)
(-0.840693 2.39341 2.5336)
(-0.451652 2.31611 2.5478)
(-0.344696 2.35678 2.32394)
(-1.27596 2.20415 2.56701)
(-1.12693 2.18774 2.62941)
(-0.832727 2.27538 2.57392)
(-0.528355 2.39901 2.50373)
(-0.425545 2.42582 2.46119)
(-1.3523 2.48404 2.39084)
(-1.02885 2.65941 2.26065)
(-0.830793 2.50899 2.37219)
(-0.953761 2.31854 2.34402)
(-0.583272 2.36994 2.31421)
(-0.224655 2.4602 2.27054)
(-1.68949 2.49792 2.46903)
(-1.37973 2.31606 2.72885)
(-1.09331 2.37898 2.52774)
(-0.839898 2.58576 2.24241)
(-0.579312 2.50852 2.37535)
(-0.68844 2.46794 2.35516)
(-0.325257 2.30573 2.43068)
(-1.89284 2.53538 2.23196)
(-1.73118 2.35385 2.33409)
(-1.16861 2.56486 2.32425)
(-0.958307 2.90822 1.84971)
(-0.748538 2.63498 2.10591)
(-0.524711 2.59714 2.02677)
(-0.394422 2.70857 1.80441)
(-0.590451 2.35057 2.18266)
(-2.3589 2.55229 2.6571)
(-2.01248 2.46619 2.5486)
(-1.46875 2.86996 2.28743)
(-1.06747 3.03573 1.96533)
(-0.751019 3.04376 1.76018)
(-0.788699 2.81164 1.77897)
(-0.780753 2.70676 1.62256)
(-0.500597 2.58707 1.8463)
(0.116082 2.46711 1.86759)
(-2.64055 2.55438 2.66617)
(-2.44663 2.63152 2.68789)
(-2.13082 2.34213 2.85243)
(-1.68331 2.56983 2.42637)
(-0.718438 2.95388 2.10068)
(-0.788748 2.78 2.14037)
(-0.838162 2.66544 2.06009)
(-0.533773 2.73619 1.87782)
(-0.226048 2.68152 1.70662)
(0.347128 2.6548 1.39719)
(-3.04685 2.20044 2.46084)
(-2.43701 2.71991 2.31921)
(-2.61652 2.23373 2.55996)
(-2.53551 2.79342 1.58596)
(-1.04443 2.78495 2.09519)
(-1.46471 2.6672 2.03068)
(-1.07384 3.01028 1.41137)
(-0.466295 2.89058 1.48714)
(-0.418247 2.74992 1.63579)
(0.317082 2.57835 1.47655)
(1.10217 2.2993 0.994485)
(-2.88181 1.79266 2.17901)
(-2.94724 2.04568 1.84322)
(-2.82399 2.31141 2.19312)
(-2.49573 2.57171 1.88647)
(-1.95525 2.75049 1.72985)
(-1.81917 2.61794 1.9649)
(-1.16925 3.10242 1.31657)
(-0.492006 2.92654 1.06093)
(-0.412659 2.43722 1.68315)
(-0.103833 2.44471 1.54427)
(0.843127 2.42109 0.666382)
(0.58893 2.16628 0.717617)
(-3.07439 1.49646 0.633785)
(-2.5427 1.9466 1.01053)
(-2.54389 2.09063 1.4048)
(-2.26232 2.28631 1.56922)
(-1.78644 2.57984 1.62166)
(-1.8952 2.57713 1.47963)
(-1.05495 2.76432 1.39564)
(-0.902825 2.76913 0.706206)
(-0.726402 2.63134 0.869733)
(-0.116549 2.42681 0.90066)
(0.426981 2.19747 0.414843)
(0.607893 1.871 0.422247)
(0.475084 1.5724 0.245845)
(-2.2504 0.95382 0.828847)
(-1.9938 0.754433 0.963866)
(-2.18833 1.30614 1.23563)
(-1.99606 1.59659 1.59664)
(-1.72685 2.05377 1.45876)
(-1.89544 2.23623 1.20266)
(-1.70478 2.49981 1.45003)
(-1.48721 2.2374 0.461892)
(-0.550114 2.12706 1.42474)
(-0.292495 2.33469 0.657917)
(0.0110339 2.10034 0.79366)
(0.196802 1.90362 0.488304)
(0.365877 1.67056 0.0522032)
(0.455753 1.421 0.527081)
(-1.96874 0.196142 0.182036)
(-1.58505 0.642544 -0.0305372)
(-1.8207 1.1601 0.247738)
(-1.57835 1.71963 0.250016)
(-1.67581 2.06321 0.00494969)
(-1.74941 2.27524 0.161464)
(-1.60895 2.22178 -0.0548367)
(-0.868673 1.92776 0.212007)
(-0.632993 2.50132 0.372072)
(-0.27738 2.46349 0.201195)
(-0.0458508 2.02628 -0.113426)
(0.275559 1.64583 -0.291972)
(0.546 1.46274 -0.129321)
(0.667943 1.45144 0.119566)
(0.561794 1.2169 0.0147584)
(-0.331462 2.06542 2.4258)
(-0.858093 1.92549 2.51596)
(-0.687842 2.02748 2.28913)
(-0.9965 2.07558 2.47219)
(-0.70988 2.18277 2.3955)
(-0.456587 2.12475 2.4197)
(-1.14503 2.12603 2.5223)
(-0.854976 2.27558 2.46448)
(-0.526945 2.31074 2.42144)
(-0.309571 2.39912 2.26311)
(-1.19988 2.23562 2.50571)
(-0.898091 2.3301 2.54896)
(-0.73253 2.24905 2.5152)
(-0.478199 2.34443 2.30561)
(-0.317715 2.44982 2.23124)
(-1.29224 2.15708 2.5982)
(-1.0285 2.23743 2.58511)
(-0.932459 2.28612 2.52861)
(-0.71599 2.31742 2.45133)
(-0.670469 2.31501 2.37352)
(-0.0325999 2.38777 2.30322)
(-1.6249 2.25182 2.49321)
(-1.14106 2.52201 2.36767)
(-0.875644 2.57586 2.23948)
(-0.95586 2.3548 2.29106)
(-0.598863 2.39136 2.31687)
(-0.29487 2.35745 2.38603)
(-0.38945 2.44241 2.11743)
(-1.88881 2.3634 2.46868)
(-1.56766 2.18352 2.7385)
(-1.03563 2.47029 2.3919)
(-0.770141 2.64512 2.19145)
(-0.617992 2.54848 2.32981)
(-0.36158 2.48106 2.33882)
(-0.366748 2.36534 2.30749)
(-0.102416 2.61653 1.99401)
(-2.16546 2.53166 1.89447)
(-1.82579 2.29499 2.31499)
(-1.20413 2.62137 2.28173)
(-0.820062 2.95802 1.81256)
(-0.779316 2.6498 2.04438)
(-0.678947 2.52699 1.80216)
(-0.496217 2.58581 1.8475)
(-0.565187 2.26074 2.24265)
(-0.0968227 2.28049 2.0292)
(-2.55141 2.50161 2.35764)
(-1.95625 2.74183 2.1647)
(-1.70832 2.75562 2.18005)
(-1.23574 2.87035 1.87656)
(-0.919518 3.06447 1.73884)
(-0.699028 2.89634 1.63524)
(-0.740683 2.57851 1.80441)
(-0.50787 2.58246 1.87343)
(0.114582 2.5 1.83457)
(0.715543 2.44982 1.73696)
(-2.5017 2.60538 2.6665)
(-2.44918 2.49735 2.71426)
(-2.33111 2.35194 2.58432)
(-1.74554 2.49193 2.378)
(-1.18871 2.6622 2.13424)
(-0.847271 2.58834 2.15763)
(-0.710796 2.71527 2.01918)
(-0.401294 2.8299 1.86617)
(-0.255183 2.69086 1.62271)
(0.375003 2.65866 1.44249)
(0.914367 2.34933 1.34919)
(-3.09518 2.05559 2.34824)
(-2.71061 2.33053 2.31773)
(-2.33309 2.38365 2.6432)
(-1.56938 3.18862 1.90998)
(-1.39269 2.60009 2.22314)
(-1.64734 2.60187 1.91317)
(-1.03999 3.07919 1.04359)
(-0.670837 2.98785 1.10695)
(-0.250719 2.74128 1.53292)
(0.368347 2.56379 1.45291)
(0.998214 2.31259 1.08071)
(1.02223 2.0538 1.03873)
(-2.95182 1.77753 2.16733)
(-3.0217 1.92679 1.88423)
(-2.83152 2.17518 2.20562)
(-2.42794 2.51773 1.90234)
(-1.93834 2.66704 1.72984)
(-1.8681 2.64818 1.9451)
(-1.19289 3.06087 1.36229)
(-0.597494 2.81328 1.12456)
(-0.402589 2.32029 1.75895)
(-0.0617615 2.46678 1.4127)
(0.624472 2.43722 0.637215)
(0.539446 2.14085 0.72862)
(0.878081 1.69168 0.581875)
(-3.00023 1.6893 0.543178)
(-2.67846 1.79048 0.937704)
(-2.60364 2.09116 1.26432)
(-2.21784 2.31213 1.53138)
(-1.95401 2.47648 1.54827)
(-1.9243 2.52565 1.50134)
(-1.21969 2.7352 1.25231)
(-0.89523 2.74805 0.666019)
(-0.739869 2.58612 0.886188)
(-0.0671842 2.46292 0.68037)
(0.287179 2.12963 0.582771)
(0.551752 1.868 0.401846)
(0.409348 1.61528 -0.0111749)
(0.44567 1.18609 -0.931944)
(-2.24434 0.87831 0.828824)
(-2.01079 0.680858 0.965718)
(-2.29856 1.31555 1.00725)
(-1.96477 1.60652 1.60532)
(-1.81508 2.0281 1.38383)
(-1.9008 2.24493 1.20631)
(-1.58996 2.45488 1.44527)
(-1.52653 2.18639 0.507907)
(-0.523808 2.13035 1.43351)
(-0.420928 2.2651 0.809147)
(0.019191 2.10301 0.791661)
(0.185698 1.90658 0.43974)
(0.301413 1.65382 0.0645003)
(0.409123 1.39944 0.658192)
(0.543797 1.48914 0.678635)
(-1.98338 0.189053 0.172894)
(-1.56286 0.666084 -0.0689328)
(-1.82799 1.16645 0.223362)
(-1.55521 1.76983 0.283401)
(-1.6899 2.0448 -0.0432221)
(-1.81981 2.23181 0.138618)
(-1.64945 2.1865 -0.0506726)
(-0.885292 1.92566 0.215103)
(-0.648414 2.49595 0.326655)
(-0.277646 2.46354 0.166313)
(-0.0202143 2.04633 -0.0772098)
(0.255932 1.64501 -0.303497)
(0.543745 1.4718 -0.116935)
(0.722921 1.43114 0.0628727)
(0.553275 1.22549 -0.00373793)
(0.448629 1.08159 -0.590624)
(-0.5973 2.00315 2.24833)
(-0.729662 1.97356 2.47975)
(-0.6079 2.0453 2.29213)
(-0.869628 1.90889 2.53434)
(-0.698039 2.05013 2.28359)
(-0.368622 2.00689 2.30767)
(-1.02636 2.07911 2.50241)
(-0.763928 2.17389 2.38496)
(-0.345545 2.15858 2.37224)
(-0.25392 2.13368 2.31465)
(-1.19358 2.14404 2.53971)
(-0.902055 2.28996 2.43385)
(-0.605811 2.22539 2.4265)
(-0.502351 2.31634 2.29371)
(-0.357037 2.13659 2.45288)
(-1.24704 2.16888 2.52149)
(-1.02636 2.22302 2.54033)
(-0.641515 2.27127 2.4563)
(-0.614802 2.39004 2.2524)
(-0.382583 2.44005 2.25332)
(-0.0117984 2.40521 2.25353)
(-1.40774 2.12653 2.53587)
(-1.13231 2.29215 2.43125)
(-0.888467 2.33917 2.47496)
(-0.753722 2.2802 2.45523)
(-0.645343 2.32334 2.33145)
(-0.214003 2.39571 2.2599)
(-0.13622 2.4735 2.08268)
(-1.62829 2.28149 2.46598)
(-1.12252 2.5261 2.34946)
(-0.874418 2.50803 2.25893)
(-0.974106 2.38076 2.23251)
(-0.887529 2.35281 2.29346)
(-0.396709 2.33567 2.35563)
(-0.429169 2.42851 2.11508)
(0.0727055 2.6237 1.8884)
(-1.93712 2.25026 2.49245)
(-1.69757 1.97524 2.74132)
(-1.14529 2.48557 2.25783)
(-0.84634 2.73082 2.15304)
(-0.74276 2.56185 2.36427)
(-0.481398 2.48036 2.27687)
(-0.415365 2.40011 2.28859)
(-0.285817 2.4 2.20208)
(-0.0247899 2.18142 2.26752)
(-2.12593 2.35736 2.00618)
(-1.88464 2.19842 2.4199)
(-1.43086 2.5155 2.33521)
(-1.18588 2.79655 1.93731)
(-0.887512 2.6317 2.08494)
(-0.466672 2.59705 1.78305)
(-0.342022 2.60992 1.76303)
(-0.416151 2.29614 2.09513)
(-0.0812561 2.4116 1.89171)
(0.237318 2.40226 1.92155)
(-2.60669 2.3117 2.22608)
(-1.96741 2.43377 2.39181)
(-1.82779 2.62667 2.0376)
(-1.54215 2.70391 1.75645)
(-1.34129 2.87858 1.81354)
(-0.910401 2.71985 1.80275)
(-0.730644 2.58493 1.7723)
(-0.289766 2.68521 1.69503)
(0.139554 2.54083 1.74253)
(0.468151 2.53655 1.75647)
(0.830352 2.34349 1.848)
(-3.01086 2.07344 2.40959)
(-2.4488 2.38632 2.71995)
(-2.32431 2.09869 2.61763)
(-1.80661 2.57876 2.1583)
(-1.47902 2.54082 2.1414)
(-0.910387 2.54119 2.084)
(-0.698991 2.76735 1.81214)
(-0.547372 2.83348 1.73865)
(-0.170229 2.63223 1.66048)
(0.460141 2.71327 1.32529)
(0.846065 2.45114 1.32306)
(0.940367 2.0973 1.28288)
(-3.22342 1.94195 2.28549)
(-2.81559 2.11715 2.26016)
(-2.59415 2.27645 2.47596)
(-2.34085 2.80127 1.71202)
(-1.86032 2.57168 1.8699)
(-1.71175 2.56007 1.71846)
(-0.931034 3.16526 0.793059)
(-0.40227 2.85434 1.52547)
(-0.292097 2.75372 1.3472)
(0.465825 2.59793 1.30848)
(0.848821 2.32698 1.11099)
(0.991405 2.02241 0.969077)
(1.38294 1.99841 1.01442)
(-2.97909 1.72271 2.12748)
(-3.1124 1.91825 1.75082)
(-2.96055 2.02863 2.10517)
(-2.52112 2.42665 1.91311)
(-2.01625 2.63784 1.72022)
(-1.92696 2.72369 1.84238)
(-1.17978 3.11385 1.13501)
(-0.705806 2.64265 1.21724)
(-0.482929 2.26317 1.70302)
(0.00828869 2.49537 1.31128)
(0.458616 2.39023 0.642919)
(0.581905 2.08556 0.612724)
(0.912049 1.78428 0.384819)
(1.07634 0.894333 -1.75935)
(-2.97841 1.46739 0.562146)
(-2.62578 1.83624 1.02913)
(-2.74006 1.76023 1.34294)
(-2.44491 2.05938 1.44766)
(-1.88938 2.45955 1.56127)
(-1.96051 2.50374 1.49195)
(-1.33154 2.60148 1.34542)
(-0.839908 2.76445 0.367926)
(-0.74933 2.57986 0.901159)
(-0.13335 2.41171 0.722391)
(0.239318 2.09128 0.606664)
(0.455277 1.83808 0.48791)
(0.410593 1.60799 -0.0385738)
(0.494153 1.16096 -0.934542)
(0.976621 1.0527 -0.381294)
(-2.18543 0.799379 0.908165)
(-2.00678 0.629493 1.00604)
(-2.17731 1.43724 0.966107)
(-1.98625 1.6154 1.55083)
(-1.86497 2.00889 1.33057)
(-1.91433 2.24229 1.1974)
(-1.6611 2.40396 1.28979)
(-1.47559 2.1801 0.265531)
(-0.502194 2.13882 1.43611)
(-0.353534 2.31801 0.678834)
(0.0269511 2.1037 0.789019)
(0.181587 1.91907 0.330265)
(0.250529 1.63246 0.111167)
(0.399631 1.38964 0.693728)
(0.466026 1.43851 0.468614)
(0.497018 1.62914 0.773808)
(-1.97626 0.175237 0.175044)
(-1.56596 0.694794 -0.10358)
(-1.83862 1.16218 0.178942)
(-1.57733 1.79921 0.277889)
(-1.74582 2.01985 -0.0373444)
(-1.83573 2.22552 0.126361)
(-1.6331 2.19293 -0.0252735)
(-0.908007 1.94929 0.188846)
(-0.651755 2.49376 0.301309)
(-0.347121 2.46065 0.163808)
(0.00350971 2.08481 -0.0873555)
(0.246974 1.63493 -0.318402)
(0.535774 1.4739 -0.133701)
(0.720854 1.41672 0.0599545)
(0.525812 1.24995 -0.0274968)
(0.412095 1.08755 -0.57273)
(0.771879 0.428596 -1.25576)
(-0.272552 1.91476 2.32518)
(-0.560914 1.97391 2.27994)
(-0.433688 1.86069 2.31084)
(-0.831482 1.90494 2.50679)
(-0.581541 2.05821 2.29539)
(-0.461239 1.97369 2.2587)
(-0.968306 1.90905 2.54347)
(-0.758591 1.98482 2.43079)
(-0.359486 1.9887 2.37963)
(-0.319919 1.90452 2.36263)
(-1.0448 2.07858 2.50025)
(-0.823078 2.1878 2.39199)
(-0.415975 2.10338 2.41872)
(-0.41522 2.13598 2.28803)
(-0.299119 2.07861 2.3579)
(-1.17975 2.17477 2.52632)
(-0.982786 2.31193 2.37396)
(-0.72126 2.16078 2.40311)
(-0.620081 2.23416 2.31412)
(-0.237624 2.17481 2.43321)
(-0.193346 2.30855 2.29138)
(-1.3507 2.06544 2.51359)
(-1.08357 2.22579 2.46456)
(-0.618193 2.35031 2.36167)
(-0.785158 2.35189 2.21024)
(-0.482944 2.30063 2.342)
(-0.157733 2.41091 2.2585)
(0.0711412 2.37577 2.06696)
(-1.47757 2.04016 2.56899)
(-1.08731 2.36297 2.36847)
(-0.966119 2.28784 2.36841)
(-0.89672 2.20584 2.42757)
(-0.75714 2.32376 2.30683)
(-0.343627 2.41787 2.21383)
(-0.116077 2.43144 2.00839)
(-0.114025 2.29866 1.95266)
(-1.69629 2.23052 2.43128)
(-1.41272 2.28979 2.34278)
(-0.955407 2.55723 2.0774)
(-0.996155 2.42606 2.20425)
(-0.986776 2.37621 2.26576)
(-0.559307 2.3715 2.25551)
(-0.439593 2.47461 2.04805)
(-0.114001 2.60788 1.91536)
(0.243898 2.3748 2.00915)
(-2.0602 1.98613 2.52935)
(-1.75296 1.82219 2.80004)
(-1.29165 2.41841 2.28724)
(-1.07064 2.80529 2.0682)
(-0.786239 2.68606 2.26344)
(-0.5451 2.468 2.28591)
(-0.425975 2.43981 2.19979)
(-0.318067 2.35666 2.17142)
(-0.0150124 2.15507 2.30152)
(0.384682 2.34832 1.96729)
(-2.17238 2.38416 1.9985)
(-1.90057 2.29319 2.32939)
(-1.56075 2.40244 2.3805)
(-1.31238 2.70545 1.97917)
(-1.13723 2.43376 2.15121)
(-0.659034 2.61951 1.80237)
(-0.52068 2.36136 1.98064)
(-0.278221 2.32055 2.01058)
(-0.0386074 2.43941 1.81686)
(0.210532 2.49342 1.83245)
(0.53718 2.33643 1.92761)
(-2.68623 2.31241 2.00115)
(-2.25727 2.51406 2.02007)
(-1.90691 2.46914 1.97339)
(-1.6265 2.60724 1.7923)
(-1.35463 2.9806 1.64324)
(-1.03822 2.65624 1.78383)
(-0.402237 2.75659 1.5845)
(-0.20808 2.73895 1.61934)
(0.263215 2.58977 1.57839)
(0.480684 2.57821 1.66179)
(0.494279 2.45537 1.8634)
(1.02483 2.30965 1.55043)
(-2.92305 1.98922 2.48897)
(-2.55311 2.31932 2.54622)
(-2.50731 2.02007 2.44406)
(-1.84508 2.55134 2.16525)
(-1.71268 2.36929 2.19164)
(-0.967934 2.45653 2.12999)
(-0.596684 2.68518 1.97539)
(-0.420616 2.79681 1.85769)
(0.0335288 2.69787 1.40352)
(0.456611 2.70606 1.33092)
(0.737147 2.51569 1.29813)
(0.944519 2.12006 1.21704)
(1.12271 2.12778 1.37476)
(-3.23002 2.00838 2.21929)
(-2.66252 2.13703 2.3113)
(-2.63797 2.27457 2.34603)
(-2.11169 2.95972 1.53501)
(-1.1343 2.30715 2.81067)
(-1.81208 2.5759 1.53776)
(-0.933888 3.23752 0.708231)
(-0.59794 2.99025 0.839465)
(-0.365778 2.56354 1.53651)
(0.472962 2.58092 1.2244)