/*--------------------------------*- C++ -*----------------------------------*\
  =========                 |
  \\      /  F ield         | OpenFOAM: The Open Source CFD Toolbox
   \\    /   O peration     | Website:  https://openfoam.org
    \\  /    A nd           | Version:  7
     \\/     M anipulation  |
\*---------------------------------------------------------------------------*/
FoamFile
{
    version     2.0;
    format      ascii;
    class       volScalarField;
    location    "10";
    object      p;
}
// * * * * * * * * * * * * * * * * * * * * * * * * * * * * * * * * * * * * * //

dimensions      [0 2 -2 0 0 0 0];

internalField   nonuniform List<scalar> 
18750
(
-87.6163
-88.9935
-87.6918
-87.6452
-88.793
-89.0056
-88.7842
-86.9914
-87.7267
-87.6959
-85.8528
-87.7874
-88.7141
-87.0911
-89.2693
-88.5187
-87.0224
-87.0599
-87.7449
-87.7434
-80.434
-87.9685
-85.5344
-87.2038
-88.8004
-88.4086
-87.3985
-87.1274
-89.4764
-88.3242
-87.5616
-87.0438
-87.1426
-87.7542
-87.7713
-79.4364
-85.1819
-80.3386
-86.6861
-89.1905
-84.9303
-87.2087
-87.5143
-89.3118
-88.2938
-87.7427
-87.4702
-87.1582
-89.52
-88.1636
-88.0742
-87.6806
-87.091
-87.2271
-87.7681
-87.807
-76.6971
-81.2853
-79.7133
-86.0691
-86.7465
-80.1769
-86.582
-87.1776
-89.9011
-84.2572
-87.4439
-87.4256
-87.8867
-89.8254
-88.229
-88.0648
-87.8465
-87.5364
-87.1833
-89.4239
-87.983
-88.8985
-88.1136
-87.7842
-87.1761
-87.3031
-87.7887
-87.8658
-74.514
-75.1026
-76.7718
-81.1079
-82.1627
-79.2436
-86.2953
-86.3231
-87.4517
-80.1795
-87.1609
-87.1383
-87.4942
-90.323
-83.5354
-88.0325
-87.6114
-87.6471
-88.24
-90.2179
-87.9592
-88.7579
-88.1605
-87.936
-87.5928
-87.2089
-89.2674
-87.7813
-88.9499
-88.9594
-88.1711
-87.8422
-87.2439
-87.381
-87.839
-87.9056
-73.7324
-74.6815
-74.3548
-77.3244
-74.9062
-76.9598
-82.4887
-80.9608
-82.4913
-78.581
-85.845
-86.7115
-86.2799
-87.07
-80.3613
-88.0564
-87.5386
-87.4357
-87.6942
-89.7082
-83.0334
-88.8598
-88.1188
-87.805
-87.8881
-88.4358
-90.3823
-87.613
-88.8997
-88.8467
-88.2528
-88.0275
-87.6415
-87.2434
-89.1592
-87.5725
-89.3593
-88.9942
-89.0152
-88.2774
-87.8699
-87.2961
-87.4513
-87.9504
-87.8967
-72.923
-73.6789
-73.4029
-74.9376
-74.811
-74.5251
-78.4863
-77.1797
-75.2715
-76.9722
-82.6584
-82.6434
-81.5737
-81.4322
-78.6542
-85.8152
-86.2087
-86.823
-86.5715
-86.3126
-80.4178
-88.5117
-88.2547
-87.8693
-87.7167
-87.5079
-88.3697
-83.1118
-89.3216
-89.1192
-88.2967
-88.0215
-88.1181
-88.4606
-90.2235
-87.2077
-89.3255
-89.0816
-88.9259
-88.3285
-88.1152
-87.6829
-87.2886
-89.0626
-87.4279
-89.7656
-89.4114
-89.0745
-89.0666
-88.3721
-87.9226
-87.3845
-87.5143
-88.0064
-87.892
-71.846
-72.6232
-72.8141
-74.0409
-73.5083
-73.3963
-75.7665
-74.7598
-74.9222
-74.739
-79.2946
-78.7902
-77.5159
-75.1476
-76.8606
-82.7944
-83.1819
-83.1333
-82.0771
-80.8438
-77.9302
-85.7233
-85.9037
-86.6251
-87.3292
-86.4979
-85.6578
-81.0297
-86.9089
-88.7342
-88.3996
-88.1676
-87.7989
-86.6633
-87.1317
-82.9444
-88.8481
-89.4695
-89.3814
-88.5225
-88.2485
-88.3353
-88.0364
-90.2195
-86.9177
-89.7095
-89.4677
-89.2497
-89.0361
-88.4071
-88.1928
-87.7209
-87.3599
-88.854
-87.365
-89.8743
-89.8039
-89.4592
-89.1451
-89.1122
-88.4696
-88.0331
-87.5521
-87.5747
-87.9983
-87.9335
-71.0762
-71.7853
-71.9195
-73.01
-72.635
-72.4693
-74.3285
-73.7765
-73.5563
-73.6833
-76.0912
-75.8737
-74.7367
-74.6073
-74.8037
-79.4644
-79.5734
-78.6842
-77.5676
-75.2928
-76.7414
-82.6373
-82.9929
-83.2081
-82.974
-81.8519
-80.1313
-77.6213
-84.8587
-85.944
-85.9919
-86.5712
-87.2584
-85.9529
-84.8497
-81.197
-86.2143
-87.1995
-88.9422
-88.3875
-88.3803
-87.6538
-85.9727
-86.2933
-82.5986
-88.6087
-88.9668
-89.7472
-89.6839
-88.7458
-88.4934
-88.5347
-87.394
-90.138
-86.893
-89.3893
-89.7956
-89.6027
-89.3993
-89.1421
-88.5077
-88.2597
-87.7657
-87.5072
-88.576
-87.3525
-89.7062
-89.9126
-89.8367
-89.5061
-89.2098
-89.1583
-88.5819
-88.1078
-87.7074
-87.6233
-88.0388
-87.9593
-70.5188
-71.2202
-71.2725
-72.0314
-71.6354
-71.7393
-73.0348
-72.813
-72.5663
-72.5684
-74.5234
-74.179
-73.6446
-73.6755
-73.5532
-76.1737
-75.9386
-75.7562
-74.8643
-74.4686
-74.739
-79.4967
-79.5617
-79.1873
-78.1266
-77.237
-75.3849
-76.0797
-82.4992
-82.9077
-83.01
-83.0066
-82.8172
-81.2403
-79.154
-77.8491
-84.0841
-85.197
-86.2327
-86.0188
-86.4526
-86.928
-85.2651
-84.1077
-81.1975
-85.5769
-86.4281
-87.5098
-89.096
-88.4155
-88.4007
-87.4524
-85.9654
-85.8422
-82.3056
-87.8174
-88.7116
-89.2106
-89.9758
-89.9703
-88.9437
-88.773
-88.7626
-86.9807
-89.6201
-86.8342
-89.089
-89.4644
-89.9094
-89.7216
-89.5452
-89.2265
-88.6077
-88.3216
-87.8003
-87.7124
-88.3242
-87.3774
-89.6635
-89.7386
-89.9542
-89.8678
-89.5488
-89.2751
-89.1929
-88.6565
-88.1391
-87.774
-87.6563
-88.1411
-87.9716
-70.0877
-70.6236
-70.5105
-71.2931
-71.0711
-71.0718
-72.1005
-71.8706
-71.7092
-71.7
-73.2349
-72.9096
-72.6571
-72.5753
-72.5872
-74.6263
-74.308
-74.1531
-73.6588
-73.4837
-73.4892
-76.5402
-76.1134
-75.924
-75.6128
-74.7599
-74.7878
-74.8594
-79.0987
-79.7366
-79.6212
-79.2334
-78.4422
-76.8783
-76.0565
-76.0637
-81.8266
-82.5877
-83.2222
-83.3527
-82.8497
-82.5326
-80.702
-78.8616
-77.674
-83.6052
-84.121
-85.4899
-86.3277
-86.1449
-86.3446
-86.322
-84.5525
-83.0144
-81.1078
-85.5891
-85.854
-86.6985
-87.7385
-89.29
-88.3933
-88.7348
-87.5628
-85.7587
-85.6119
-82.1706
-87.3733
-87.8927
-88.7358
-89.4644
-90.16
-90.2094
-89.1282
-89.1384
-88.9104
-86.7661
-88.9898
-87.0661
-89.23
-89.1468
-89.5622
-90.0227
-89.8669
-89.6872
-89.3035
-88.7038
-88.3817
-87.8276
-87.9552
-88.1161
-87.4657
-90.1697
-89.6554
-89.7769
-89.9957
-89.9008
-89.5869
-89.342
-89.2182
-88.7081
-88.1718
-87.7558
-87.6624
-88.1914
-88.0143
-69.7165
-70.0741
-70.0603
-70.6993
-70.5371
-70.4637
-71.3227
-71.1976
-71.0622
-71.0385
-72.2062
-71.9618
-71.7577
-71.6794
-71.6952
-73.3465
-73.0762
-72.7448
-72.5862
-72.5667
-72.596
-74.6825
-74.5697
-74.3752
-74.1986
-73.6077
-73.6289
-73.3773
-76.5712
-76.2871
-76.0196
-75.7537
-75.5561
-74.837
-74.9799
-75.0982
-78.862
-79.2435
-79.746
-79.8672
-79.2047
-78.2859
-77.3184
-76.4714
-76.1235
-81.5391
-82.0557
-82.8782
-83.572
-83.884
-82.6093
-82.1154
-80.7535
-78.5318
-77.6928
-83.3616
-83.8301
-84.5003
-85.6946
-86.4847
-86.4949
-85.9732
-85.9197
-83.858
-82.2476
-81.0479
-85.2632
-85.8428
-86.1655
-86.845
-87.9335
-89.4734
-88.4759
-89.1693
-87.5721
-85.5921
-85.527
-82.294
-87.3068
-87.5194
-88.0351
-88.8565
-89.6756
-90.3613
-90.3003
-89.3489
-89.6628
-88.7427
-86.8398
-88.3081
-87.5089
-89.3826
-89.2074
-89.2082
-89.6772
-90.1577
-90.0071
-89.8224
-89.3892
-88.7903
-88.4266
-87.8717
-88.2759
-87.9601
-87.6228
-90.7263
-90.1617
-89.6572
-89.8188
-90.0386
-89.9344
-89.6232
-89.4009
-89.2429
-88.7502
-88.2522
-87.7342
-87.6768
-88.1663
-88.0508
-69.4538
-69.6624
-69.6914
-70.1662
-70.038
-69.9675
-70.7188
-70.5836
-70.4546
-70.4262
-71.3734
-71.2669
-71.1278
-71.0521
-70.9312
-72.251
-72.1442
-71.9149
-71.7248
-71.5802
-71.623
-73.5599
-73.141
-72.9744
-72.681
-72.6188
-72.4676
-72.6642
-74.7508
-74.62
-74.4598
-74.3054
-73.86
-73.622
-73.8454
-73.5033
-76.5037
-76.4105
-76.172
-76.0637
-75.6685
-75.615
-75.2141
-75.1436
-75.0395
-78.7261
-78.9325
-79.4351
-79.7987
-80.0046
-79.3042
-78.2288
-77.4094
-76.8101
-76.3149
-81.3196
-81.6738
-82.0534
-83.2141
-83.9396
-83.9438
-82.4349
-81.6835
-80.3823
-78.8624
-77.6483
-83.2387
-83.6381
-84.1211
-85.1071
-86.0686
-86.7144
-86.4082
-85.6669
-85.4108
-83.4038
-81.9668
-81.1954
-85.141
-85.5598
-86.0741
-86.4201
-87.0922
-88.2427
-89.5226
-88.7326
-89.4876
-87.1489
-86.4137
-85.3467
-82.5793
-87.5366
-87.5056
-87.708
-88.2829
-89.0235
-89.8942
-90.5387
-90.3866
-89.5857
-90.1109
-88.3827
-87.1826
-88.0022
-87.8022
-90.0732
-89.355
-89.2098
-89.3001
-89.798
-90.2924
-90.1383
-89.9517
-89.48
-88.8699
-88.4573
-87.9614
-88.6067
-87.8848
-87.6611
-90.7214
-90.7068
-90.1669
-89.6699
-89.8637
-90.0844
-89.9709
-89.6428
-89.4572
-89.273
-88.7957
-88.2686
-87.7605
-87.6947
-88.1491
-87.9954
-69.2541
-69.4328
-69.4032
-69.7504
-69.6369
-69.5997
-70.249
-70.0898
-69.9726
-69.9693
-70.7798
-70.6287
-70.5578
-70.3995
-70.3864
-71.3463
-71.3369
-71.1595
-71.0767
-70.9262
-70.8796
-72.3639
-72.168
-71.9278
-71.8309
-71.6759
-71.6138
-71.686
-73.4671
-73.3853
-73.0066
-72.8276
-72.6578
-72.6313
-72.6454
-72.412
-74.8008
-74.7557
-74.568
-74.4079
-74.0025
-73.7011
-73.6481
-73.8093
-73.8292
-76.3545
-76.5801
-76.3366
-76.1107
-76.0994
-76.0099
-75.6808
-74.9517
-75.3646
-75.059
-78.9405
-78.9377
-79.027
-79.8002
-79.8223
-79.2898
-79.0849
-78.3965
-77.3207
-77.0222
-76.2321
-81.2681
-81.4289
-81.7848
-82.2254
-83.2415
-83.6974
-83.7004
-82.0389
-81.6266
-80.2023
-79.2356
-77.7198
-83.4262
-83.5481
-83.8868
-84.4449
-85.3165
-86.3278
-86.893
-86.3823
-85.7771
-84.8215
-82.9803
-81.8682
-81.3899
-85.1344
-85.3673
-85.8098
-86.4317
-86.6773
-87.3751
-88.5414
-89.5741
-89.0081
-89.8489
-86.7614
-87.5987
-85.0512
-83.0201
-87.6716
-87.6454
-87.6387
-87.8873
-88.3799
-89.1712
-90.0984
-90.6998
-90.5519
-89.8157
-90.0953
-88.0276
-87.749
-88.1192
-87.9737
-89.8976
-89.9034
-89.4136
-89.2195
-89.3602
-89.9022
-90.3902
-90.2676
-90.0735
-89.5682
-88.9495
-88.4878
-88.0607
-88.9203
-87.8782
-87.697
-90.0807
-90.738
-90.6889
-90.1678
-89.6884
-89.9161
-90.1326
-90.0109
-89.6797
-89.5055
-89.2897
-88.8108
-88.2456
-87.8186
-87.6709
-88.2111
-87.9309
-69.0477
-69.2977
-69.185
-69.4977
-69.4041
-69.3586
-69.7206
-69.75
-69.6152
-69.5953
-70.2633
-70.1482
-69.8912
-69.9759
-69.9544
-70.7698
-70.6748
-70.6543
-70.5105
-70.3487
-70.3379
-71.5093
-71.3285
-71.2584
-71.0575
-71.0011
-70.8241
-70.7198
-72.3747
-72.2721
-72.0747
-71.8627
-71.739
-71.6265
-71.7086
-71.7905
-73.6619
-73.4358
-73.1787
-72.9574
-72.7792
-72.6473
-72.632
-72.5446
-72.3447
-75.0938
-74.8201
-74.5204
-74.5628
-74.2758
-73.9198
-73.7256
-73.755
-74.0324
-73.6986
-76.5669
-76.4621
-76.6353
-76.4731
-75.9741
-76.1535
-75.9108
-75.7897
-75.3863
-75.1836
-75.1187
-79.1209
-79.0026
-78.8218
-79.2546
-79.7172
-79.5209
-79.3813
-78.9972
-78.2831
-77.4726
-77.1942
-76.2241
-81.2508
-81.3992
-81.489
-81.9837
-82.3198
-83.2218
-83.6882
-83.5203
-81.837
-81.2704
-80.2216
-79.3762
-77.9012
-83.269
-83.6842
-83.7583
-84.086
-84.5439
-85.526
-86.555
-87.0027
-86.2716
-85.9152
-84.068
-82.7144
-81.7848
-81.2287
-84.8432
-85.3486
-85.7348
-86.0937
-86.6615
-86.9952
-87.6885
-88.888
-89.7842
-89.2508
-89.9054
-86.4959
-88.4538
-84.8446
-83.1658
-87.5935
-87.6055
-87.5975
-87.7271
-88.0952
-88.5387
-89.3355
-90.2666
-90.8284
-90.6923
-90.0305
-89.8315
-87.8398
-88.2412
-88.2849
-88.3916
-89.1938
-89.9449
-89.7419
-89.4387
-89.2453
-89.4084
-90.0028
-90.4884
-90.3874
-90.1681
-89.6463
-89.0264
-88.5306
-88.1688
-89.1155
-87.8845
-87.8307
-89.4557
-90.1101
-90.748
-90.6659
-90.1668
-89.7172
-89.9682
-90.1833
-90.0515
-89.7114
-89.5474
-89.3016
-88.8002
-88.2257
-87.841
-87.7019
-88.2921
-87.983
-68.8391
-69.0897
-68.9866
-69.2128
-69.2214
-69.1381
-69.4527
-69.4358
-69.3513
-69.2915
-69.7845
-69.7543
-69.611
-69.6117
-69.6194
-70.3206
-70.1295
-70.1077
-69.9778
-69.8934
-69.8746
-70.8916
-70.6859
-70.647
-70.5091
-70.366
-70.3721
-70.2866
-71.5342
-71.4508
-71.2821
-71.1454
-71.0075
-71.012
-70.7856
-70.78
-72.5117
-72.2794
-72.2454
-72.0202
-71.7986
-71.6548
-71.702
-71.6905
-71.5527
-73.7516
-73.5285
-73.332
-73.1347
-72.8473
-72.5949
-72.5715
-72.5619
-72.5862
-72.7766
-75.0028
-74.8761
-74.8003
-74.4758
-74.3602
-73.9918
-73.9495
-73.7467
-73.9337
-74.1816
-73.6945
-76.7764
-76.6295
-76.5646
-76.6194
-76.5281
-76.5008
-76.2529
-76.1397
-75.5285
-75.8909
-75.4528
-75.098
-79.0768
-79.1281
-79.0327
-78.9834
-79.414
-79.7354
-79.5717
-79.7725
-79.0542
-77.9607
-77.809
-77.0573
-76.4384
-81.1578
-81.396
-81.4525
-81.6945
-82.1275
-82.557
-83.525
-83.6815
-83.3233
-81.7426
-81.2588
-80.3944
-79.5201
-78.1695
-82.8459
-83.4801
-83.9882
-84.0787
-84.2638
-84.5942
-85.8361
-86.8777
-87.0105
-86.2308
-85.9224
-83.6498
-82.6105
-81.8959
-80.9672
-84.6105
-84.9574
-85.4633
-85.9562
-86.3847
-86.8733
-87.253
-88.0731
-89.2438
-89.9059
-89.3625
-89.4171
-86.5901
-88.8659
-84.7676
-83.7981
-87.1997
-87.6142
-87.6586
-87.5843
-87.9013
-88.2914
-88.6364
-89.5157
-90.4174
-90.9534
-90.7948
-90.1933
-89.479
-87.8671
-88.3597
-88.1441
-88.6039
-88.7513
-89.2592
-89.9734
-89.6325
-89.5095
-89.3216
-89.4981
-90.1232
-90.5975
-90.4936
-90.2618
-89.702
-89.1043
-88.5947
-88.3089
-89.0529
-87.9925
-87.9834
-88.9107
-89.505
-90.1374
-90.7518
-90.6455
-90.1807
-89.7565
-90.0161
-90.2389
-90.0898
-89.7398
-89.5835
-89.3351
-88.8316
-88.336
-87.8354
-87.7855
-88.2775
-88.11
-68.6999
-68.8294
-68.8346
-69.0383
-69.0154
-68.9474
-69.2663
-69.1893
-69.1422
-69.0981
-69.5394
-69.4452
-69.3803
-69.3247
-69.2936
-69.8951
-69.7959
-69.7068
-69.6075
-69.5961
-69.5773
-70.3725
-70.1567
-70.1458
-70.0273
-69.8957
-69.855
-69.9264
-70.8912
-70.8116
-70.6729
-70.5229
-70.4361
-70.4203
-70.326
-70.2457
-71.6507
-71.4732
-71.3659
-71.2039
-71.0345
-70.8657
-70.8995
-70.8019
-70.7384
-72.277
-72.4322
-72.2295
-72.1127
-71.941
-71.72
-71.6896
-71.5752
-71.5536
-71.6145
-73.6526
-73.6382
-73.4952
-73.2374
-73.0334
-72.7578
-72.6059
-72.5468
-72.7431
-72.7851
-72.7153
-75.0749
-74.9566
-74.9745
-74.6653
-74.5573
-74.3033
-73.8579
-73.7901
-73.8718
-74.1218
-74.1441
-73.7868
-76.9569
-76.9097
-76.8124
-76.5217
-76.6519
-76.5561
-76.5393
-76.3003
-75.999
-75.7152
-76.1696
-75.5144
-75.0892
-79.3475
-79.1483
-79.2666
-79.0008
-79.1274
-79.5121
-79.6303
-79.8088
-79.6004
-78.5584
-78.0102
-77.8893
-77.4793
-76.5655
-81.0746
-81.2529
-81.383
-81.5234
-81.8473
-82.1959
-82.7644
-83.7402
-83.7262
-82.7636
-81.507
-81.2601
-80.2992
-79.478
-78.539
-82.5665
-83.1021
-83.7731
-84.3902
-84.2979
-84.4546
-84.8239
-86.2694
-87.2734
-87.1586
-86.3852
-85.6657
-83.4554
-82.5853
-82.0843
-80.8006
-84.454
-84.7405
-85.257
-85.8335
-86.2635
-86.6612
-87.0833
-87.4681
-88.3743
-89.5834
-90.0231
-89.4036
-88.7954
-86.9526
-88.9537
-84.8571
-84.3866
-86.9275
-87.2594
-87.6443
-87.7753
-87.7162
-88.0435
-88.4319
-88.8073
-89.7361
-90.5816
-91.0646
-90.9166
-90.2644
-89.1093
-87.9419
-88.2137
-88.0458
-88.8188
-88.0408
-88.8158
-89.3211
-90.0082
-89.5278
-89.5777
-89.3745
-89.5905
-90.2253
-90.7151
-90.5893
-90.3457
-89.7455
-89.1833
-88.6797
-88.467
-88.8095
-88.1438
-88.1322
-88.5496
-88.9473
-89.5477
-90.1625
-90.754
-90.6306
-90.1834
-89.7987
-90.0553
-90.2924
-90.1259
-89.7681
-89.6121
-89.363
-88.8845
-88.4366
-87.8533
-87.8477
-88.2659
-88.2326
-68.5861
-68.7119
-68.682
-68.8403
-68.8477
-68.7865
-69.0328
-69.0095
-68.9567
-68.9224
-69.2988
-69.2219
-69.1633
-69.128
-69.0833
-69.5962
-69.5086
-69.4075
-69.3175
-69.3054
-69.2604
-69.9561
-69.8889
-69.7226
-69.6938
-69.5807
-69.4861
-69.5872
-70.4567
-70.315
-70.2058
-70.0823
-69.9469
-69.8419
-69.9307
-69.8562
-71.0381
-70.8318
-70.7012
-70.6035
-70.5139
-70.357
-70.3327
-70.2577
-70.2283
-71.7049
-71.5901
-71.4216
-71.2864
-71.1007
-70.9885
-70.8755
-70.9512
-70.7773
-70.8511
-72.6785
-72.496
-72.4156
-72.1878
-72.0395
-71.794
-71.7567
-71.6407
-71.53
-71.642
-71.7392
-73.6543
-73.748
-73.59
-73.4349
-73.1769
-72.8023
-72.7378
-72.5352
-72.573
-72.6868
-72.7351
-72.6861
-75.3786
-75.0781
-74.9191
-74.8255
-74.6992
-74.4089
-74.1295
-74.0141
-73.7051
-74.0171
-74.1678
-74.2172
-73.7347
-77.4207
-77.1202
-76.9132
-76.743
-76.6833
-76.655
-76.6783
-76.5628
-75.7799
-75.7242
-75.6952
-75.8435
-75.5286
-75.0972
-79.523
-79.5315
-79.3616
-79.3528
-79.0456
-79.3032
-79.5328
-79.7236
-79.7132
-78.93
-78.32
-78.113
-77.7941
-77.6719
-76.7345
-81.5705
-81.2161
-81.3719
-81.5026
-81.6678
-81.9393
-82.2747
-83.1202
-83.7585
-83.3474
-82.2308
-81.5471
-81.1928
-80.3525
-79.4022
-78.5857
-82.7751
-82.6794
-83.289
-84.0971
-84.5586
-84.4351
-84.5995
-85.0293
-86.7675
-87.467
-87.4219
-86.2448
-85.3171
-83.3181
-82.6178
-82.1365
-81.0027
-84.9989
-84.486
-84.8878
-85.4392
-86.0406
-86.5369
-86.9275
-87.282
-87.686
-88.6542
-89.9387
-90.0795
-89.2839
-87.9254
-87.1128
-88.7226
-85.0958
-84.4565
-86.685
-87.0202
-87.3268
-87.7309
-87.7659
-87.8257
-88.1603
-88.5858
-89.0767
-89.916
-90.7288
-91.1475
-91.023
-90.1899
-88.772
-88.0989
-88.0147
-88.2099
-89.0844
-87.5191
-88.0782
-88.8918
-89.3805
-90.0373
-89.5196
-89.6276
-89.4373
-89.6817
-90.3192
-90.8193
-90.6879
-90.4082
-89.7828
-89.2739
-88.7875
-88.6358
-88.5483
-88.3206
-88.2884
-87.883
-88.5401
-88.9836
-89.5905
-90.1881
-90.7519
-90.6226
-90.18
-89.8428
-90.0899
-90.3426
-90.1582
-89.7936
-89.6458
-89.3706
-88.9123
-88.48
-87.9001
-87.914
-88.3987
-88.2857
-68.4662
-68.564
-68.5442
-68.7248
-68.6976
-68.6658
-68.8644
-68.8121
-68.8128
-68.7813
-69.0751
-69.0409
-68.9806
-68.9518
-68.8987
-69.3543
-69.2095
-69.1744
-69.1054
-69.1387
-69.1125
-69.6562
-69.5298
-69.4153
-69.3618
-69.3018
-69.2008
-69.2583
-70.0531
-69.9453
-69.7743
-69.7506
-69.591
-69.5281
-69.598
-69.6013
-70.5239
-70.3946
-70.2499
-70.1566
-69.9576
-69.9925
-69.8898
-69.892
-69.9267
-71.1124
-70.9579
-70.8154
-70.6369
-70.5771
-70.4029
-70.3117
-70.3286
-70.2885
-70.2714
-71.8391
-71.7351
-71.5744
-71.4084
-71.1669
-71.0335
-70.9721
-70.9663
-70.9258
-70.8813
-70.9561
-72.7421
-72.5938
-72.5441
-72.3446
-72.0867
-71.8413
-71.7599
-71.6726
-71.5396
-71.4734
-71.737
-71.7185
-74.1061
-73.8044
-73.7476
-73.5368
-73.3062
-73.0521
-72.7563
-72.6664
-72.5969
-72.6323
-72.7469
-72.6732
-72.6628
-75.5471
-75.366
-75.1373
-74.8803
-74.8
-74.6213
-74.4031
-74.0822
-73.9889
-73.6282
-74.0538
-73.9594
-74.1989
-73.7746
-77.6727
-77.4835
-77.0555
-76.8741
-76.8316
-76.7807
-76.7478
-76.3734
-76.4522
-75.7813
-75.7557
-75.6761
-75.9392
-75.5725
-74.9827
-79.8728
-79.5773
-79.4374
-79.2932
-79.3582
-79.2084
-79.3205
-79.4905
-79.8285
-79.4563
-78.3072
-78.176
-77.9077
-77.7127
-77.5749
-76.7106
-82.0814
-81.4011
-81.3512
-81.5476
-81.5755
-81.748
-82.0195
-82.3291
-83.2219
-83.6016
-82.8267
-81.7375
-81.3067
-81.0382
-80.0305
-79.5212
-78.6278
-83.5698
-82.7631
-82.8228
-83.5046
-84.4108
-84.6923
-84.5332
-84.7332
-85.1642
-86.9108
-87.7051
-87.0799
-86.0831
-84.8952
-83.3224
-82.5709
-82.0687
-81.0261
-85.0634
-85.0763
-84.5825
-84.9334
-85.7177
-86.136
-86.748
-87.1598
-87.5303
-87.8877
-88.9182
-89.9121
-90.0772
-88.9622
-87.4137
-87.7683
-88.0787
-85.3555
-84.3136
-86.3622
-86.7804
-87.1195
-87.4007
-87.8445
-87.8245
-87.9088
-88.3206
-88.7095
-89.2299
-90.0779
-90.8665
-91.2068
-91.1263
-89.9445
-88.5587
-88.3209
-87.9786
-88.598
-89.4124
-87.303
-87.5178
-88.1414
-88.978
-89.44
-90.0432
-89.579
-89.6777
-89.5135
-89.7826
-90.4152
-90.93
-90.7807
-90.4484
-89.8162
-89.3656
-88.8925
-88.8088
-88.4521
-88.5173
-88.4473
-87.0957
-87.8856
-88.5332
-88.9945
-89.6201
-90.2115
-90.743
-90.6201
-90.1846
-89.8886
-90.126
-90.3848
-90.1861
-89.8289
-89.6799
-89.3729
-88.9125
-88.5018
-87.941
-87.9694
-88.5398
-88.2922
-68.3488
-68.4684
-68.4499
-68.657
-68.5429
-68.5164
-68.7051
-68.6934
-68.6989
-68.6599
-68.8925
-68.8493
-68.8009
-68.7755
-68.7707
-69.139
-69.0482
-68.9915
-68.9416
-68.9555
-68.908
-69.3593
-69.2488
-69.1564
-69.1432
-69.1077
-69.0379
-69.0491
-69.7147
-69.6208
-69.4537
-69.4148
-69.3473
-69.2039
-69.301
-69.2677
-70.1261
-70.0184
-69.8766
-69.8096
-69.6293
-69.5495
-69.5811
-69.6405
-69.6353
-70.59
-70.5084
-70.4008
-70.1796
-70.0761
-69.9331
-69.794
-69.9501
-69.8908
-69.8647
-71.228
-71.0371
-70.9246
-70.7289
-70.6504
-70.5492
-70.4027
-70.4039
-70.3267
-70.3619
-70.3793
-71.9955
-71.813
-71.6484
-71.535
-71.3106
-71.1632
-71.0659
-71.0406
-70.9037
-70.8993
-70.8918
-70.9429
-72.8842
-72.7744
-72.4621
-72.4973
-72.2929
-72.0239
-71.7966
-71.6764
-71.5885
-71.6008
-71.4729
-71.6783
-71.7145
-74.1796
-74.0258
-73.9102
-73.6916
-73.4998
-73.2066
-72.8458
-72.7632
-72.7389
-72.6609
-72.5612
-72.854
-72.7518
-72.6998
-76.1006
-75.6146
-75.2487
-75.0736
-74.914
-74.6959
-74.5034
-74.4964
-74.1434
-73.9264
-73.9224
-74.0029
-74.0934
-74.2873
-73.6771
-78.5588
-77.5504
-77.4835
-77.1527
-77.0074
-76.8655
-76.7329
-76.5097
-76.6022
-76.3643
-75.8396
-75.7603
-75.8037
-75.94
-75.3772
-75.0006
-80.913
-80.0198
-79.4682
-79.3845
-79.3644
-79.4142
-79.2089
-79.2536
-79.499
-79.5015
-79.1968
-78.3813
-77.8617
-77.8093
-77.7884
-77.5985
-76.7427
-83.8455
-81.8047
-81.379
-81.5177
-81.754
-81.5534
-81.8789
-82.2204
-82.4971
-83.2923
-83.1438
-82.4707
-81.6984
-81.0179
-80.7511
-79.8108
-79.6595
-78.5788
-84.3055
-83.3856
-82.7249
-83.1712
-84.126
-84.79
-84.8739
-84.6611
-84.9434
-85.4338
-86.9121
-87.6858
-86.2248
-85.6552
-84.3247
-83.3463
-82.6358
-82.1781
-81.0961
-85.0938
-85.0841
-84.9861
-84.7267
-85.1503
-85.7972
-86.4121
-86.9474
-87.322
-87.6496
-88.0625
-89.144
-89.9259
-90.1383
-88.719
-87.4825
-88.5724
-87.449
-85.7031
-84.2732
-86.1575
-86.4118
-86.8852
-87.2164
-87.4601
-87.9354
-88.0576
-88.0124
-88.4767
-88.795
-89.3915
-90.2719
-91.0123
-91.2525
-91.17
-89.6878
-88.5999
-88.681
-88.2299
-89.1056
-89.714
-86.8176
-87.2749
-87.5287
-88.1922
-89.062
-89.5025
-90.0335
-89.6253
-89.7239
-89.587
-89.8737
-90.5221
-91.0276
-90.8438
-90.46
-89.8514
-89.4663
-88.9888
-88.962
-88.5301
-88.7276
-88.6193
-88.3913
-86.5264
-87.0971
-87.8857
-88.5319
-89.0042
-89.6443
-90.2356
-90.7247
-90.6192
-90.1864
-89.9338
-90.1623
-90.4184
-90.2079
-89.8759
-89.7197
-89.395
-88.9269
-88.5457
-87.9352
-87.9936
-88.5952
-88.3141
-68.2812
-68.3437
-68.3374
-68.49
-68.4411
-68.4134
-68.6072
-68.5643
-68.5336
-68.5179
-68.7717
-68.7221
-68.7244
-68.6639
-68.6265
-68.9674
-68.8902
-68.814
-68.7907
-68.7802
-68.7164
-69.1494
-69.0995
-69.0195
-69.0208
-68.9272
-68.8796
-68.9061
-69.4453
-69.3738
-69.2304
-69.1445
-69.1108
-69.0018
-69.0374
-69.0609
-69.7197
-69.694
-69.5473
-69.4428
-69.3818
-69.2203
-69.2256
-69.2821
-69.3199
-70.2638
-70.1191
-69.9859
-69.9019
-69.7319
-69.6064
-69.6158
-69.5979
-69.6225
-69.602
-70.7587
-70.5447
-70.4907
-70.3013
-70.1069
-70.0311
-69.9641
-69.8899
-69.9605
-69.8919
-69.9724
-71.2311
-71.2348
-71.0524
-70.924
-70.7173
-70.575
-70.5057
-70.4295
-70.4011
-70.3693
-70.3014
-70.2929
-72.257
-72.0663
-71.8418
-71.6119
-71.5158
-71.2807
-71.1416
-70.9745
-70.9435
-70.9236
-70.9089
-70.9261
-70.9496
-73.1981
-72.9588
-72.8606
-72.5435
-72.4203
-72.1779
-72.0001
-71.8324
-71.6913
-71.639
-71.5568
-72.0757
-71.7569
-71.7284
-74.4483
-74.2105
-74.0678
-73.8918
-73.6057
-73.4276
-73.1803
-72.8712
-72.8771
-72.7051
-72.6695
-72.7713
-72.815
-72.8227
-72.6917
-76.5717
-76.0688
-75.5323
-75.223
-75.0426
-74.9348
-74.6677
-74.4436
-74.029
-74.0925
-74.0568
-73.9444
-74.0408
-74.1564
-74.1174
-73.5518
-79.5245
-78.3939
-77.4595
-77.4139
-77.2731
-76.9995
-76.8379
-76.7388
-76.4277
-77.0646
-76.679
-76.3298
-75.9367
-76.0263
-75.828
-75.3647
-75.0795
-82.5448
-80.7188
-79.6101
-79.407
-79.6004
-79.5149
-79.5363
-79.3517
-79.3612
-79.7405
-79.4508
-79.4004
-79.1196
-77.7727
-77.8394
-77.6718
-77.1246
-76.7219
-85.3653
-83.2566
-81.7431
-81.297
-81.9658
-81.9596
-81.61
-81.9802
-82.2136
-82.6996
-83.0035
-82.8442
-82.5546
-81.5809
-80.9623
-80.6891
-79.9304
-79.3732
-78.2853
-84.4473
-84.1898
-83.1621
-82.6991
-83.4091
-84.3339
-85.0213
-84.9452
-84.8948
-84.9549
-85.7539
-86.9499
-87.3004
-86.3919
-85.3125
-84.014
-83.6094
-82.9077
-82.5585
-81.0992
-84.903
-85.0236
-85.0538
-85.0558
-84.8799
-85.4908
-86.0233
-86.5225
-87.2212
-87.4896
-87.7445
-88.2111
-89.2651
-90.0446
-90.273
-88.5202
-87.519
-89.1469
-87.2649
-86.0173
-84.2381
-85.895
-86.0986
-86.5183
-87.0356
-87.2444
-87.5344
-88.0742
-88.1285
-88.1058
-88.6358
-89.1195
-89.5242
-90.4602
-91.0641
-91.3072
-91.1904
-89.6473
-88.6918
-89.1874
-88.5831
-89.6655
-90.0065
-89.0478
-86.3592
-86.7995
-87.2568
-87.5914
-88.2431
-89.1488
-89.5782
-90.025
-89.6906
-89.7686
-89.67
-89.9415
-90.6044
-91.0971
-90.8799
-90.4476
-89.8956
-89.5846
-89.101
-89.0815
-88.6731
-88.9486
-88.7751
-88.8803
-88.3684
-86.2569
-86.4983
-87.0947
-87.8826
-88.5367
-89.0471
-89.6775
-90.2588
-90.7061
-90.6125
-90.1897
-89.9771
-90.1962
-90.4518
-90.2212
-89.9186
-89.7613
-89.4126
-88.9464
-88.6361
-87.9148
-88.0203
-88.6598
-68.1778
-68.2769
-68.2733
-68.3585
-68.3306
-68.3174
-68.5359
-68.4807
-68.4216
-68.4167
-68.6311
-68.5693
-68.5838
-68.5182
-68.51
-68.8154
-68.7696
-68.7593
-68.669
-68.6576
-68.654
-68.978
-68.9416
-68.829
-68.8246
-68.7815
-68.7473
-68.7011
-69.2232
-69.177
-69.0542
-68.9547
-68.9878
-68.8534
-68.8785
-68.8974
-69.54
-69.4388
-69.3437
-69.2041
-69.1208
-69.1126
-69.0481
-69.0499
-69.0795
-69.7984
-69.7792
-69.668
-69.5824
-69.4262
-69.2854
-69.1876
-69.2847
-69.3252
-69.3461
-70.4096
-70.2568
-70.0955
-69.977
-69.794
-69.6883
-69.6347
-69.5445
-69.6357
-69.6242
-69.605
-70.8446
-70.7172
-70.5775
-70.4281
-70.2385
-70.1829
-69.9735
-69.952
-70.0162
-69.9255
-69.8918
-69.9477
-71.4336
-71.3701
-71.2464
-71.0083
-70.8505
-70.6782
-70.5093
-70.4534
-70.4346
-70.3555
-70.4046
-70.2788
-70.3349
-72.4917
-72.2722
-72.1041
-71.8698
-71.6917
-71.3989
-71.2537
-71.136
-71.0071
-70.9834
-70.9256
-70.9623
-70.9346
-70.9793
-73.5903
-73.2078
-72.9032
-72.9499
-72.6694
-72.3954
-72.1627
-71.9468
-71.8561
-71.7472
-71.6155
-71.6796
-71.7836
-71.7678
-71.7317
-75.0373
-74.6478
-74.2377
-73.9616
-73.7155
-73.5448
-73.3403
-73.0349
-72.955
-72.784
-72.674
-72.7156
-72.9063
-72.8752
-72.7999
-72.5459
-77.5515
-76.4378
-75.904
-75.6519
-75.1997
-75.0629
-74.8586
-74.6626
-74.4243
-74.1941
-74.1018
-74.4219
-74.0037
-74.1522
-73.9001
-74.0034
-73.7064
-80.7759
-79.492
-78.2756
-77.4791
-77.3445
-77.2461
-76.9882
-76.7871
-76.7658
-76.6795
-76.9019
-76.6834
-75.979
-75.9738
-75.8218
-75.5704
-75.3757
-75.038
-84.8711
-82.0993
-80.3454
-79.548
-79.4827
-79.5353
-79.4482
-79.532
-79.3972
-79.4659
-79.5014
-79.4055
-79.2817
-78.5342
-78.2775
-77.7304
-77.3329
-76.8148
-76.5505
-85.7165
-84.8128
-82.7288
-81.2726
-81.5142
-82.4154
-82.1508
-81.7184
-81.7862
-82.3773
-82.6018
-82.77
-82.5481
-82.17
-81.3472
-80.9877
-80.5778
-79.6516
-79.3366
-78.4166
-84.4209
-84.3787
-84.0364
-83.0521
-82.6424
-83.5675
-84.6541
-85.2575
-85.1119
-84.8686
-85.1288
-85.7545
-87.068
-87.3783
-86.9175
-85.0269
-84.0225
-83.7197
-82.9868
-82.926
-81.2438
-84.609
-84.8833
-84.9264
-84.9689
-85.1094
-85.0577
-85.6271
-86.2031
-86.8272
-87.3482
-87.6186
-87.7905
-88.2294
-89.188
-90.1107
-89.9734
-88.5337
-87.8039
-89.58
-87.8631
-86.3174
-84.4103
-90.6975
-85.983
-85.8434
-86.0946
-86.5819
-87.1429
-87.2833
-87.6247
-88.1923
-88.2276
-88.2292
-88.7677
-89.2408
-89.5943
-90.5705
-91.0369
-91.3002
-91.2254
-89.8613
-88.9785
-89.7212
-89.004
-90.3443
-90.2709
-89.4768
-88.9083
-86.1457
-86.3158
-86.7908
-87.2312
-87.6277
-88.3507
-89.2409
-89.6648
-90.0168
-89.8384
-89.7958
-89.7535
-90.0134
-90.6672
-91.1336
-90.9064
-90.4349
-89.9632
-89.7422
-89.2144
-89.1708
-88.8001
-89.147
-87.8932
-88.7939
-85.9069
-86.2017
-86.4696
-87.0895
-87.8757
-88.5465
-89.0886
-89.7069
-90.2782
-90.692
-90.61
-90.1949
-90.021
-90.2274
-90.4821
-90.2279
-89.9546
-89.7856
-89.3902
-88.9557
-88.7102
-87.931
-88.0477
-68.175
-68.1557
-68.2734
-68.2722
-68.2401
-68.3673
-68.3524
-68.2866
-68.3145
-68.5246
-68.504
-68.4827
-68.4214
-68.4117
-68.6588
-68.5794
-68.5033
-68.5562
-68.5088
-68.5036
-68.844
-68.8284
-68.7898
-68.7502
-68.6564
-68.661
-68.5662
-69.088
-68.9574
-68.8992
-68.7674
-68.7822
-68.7212
-68.7116
-68.7411
-69.3493
-69.2423
-69.1971
-69.0006
-68.9699
-68.9581
-68.9203
-68.9048
-68.8943
-69.4591
-69.5105
-69.4327
-69.2772
-69.1869
-69.0317
-69.0415
-69.0432
-69.067
-69.0917
-69.9845
-69.9015
-69.7741
-69.6802
-69.5314
-69.3887
-69.2633
-69.2446
-69.3122
-69.3664
-69.373
-70.4173
-70.3788
-70.1042
-70.0318
-69.8298
-69.7981
-69.6774
-69.6353
-69.6388
-69.6815
-69.6589
-69.5745
-71.1487
-70.8298
-70.7582
-70.6452
-70.3518
-70.2277
-70.0528
-70.1704
-69.9768
-69.9521
-69.9016
-69.8832
-69.971
-71.7446
-71.5119
-71.3857
-71.1258
-71.0081
-70.8713
-70.6444
-70.584
-70.4723
-70.4255
-70.4072
-70.0597
-70.3094
-70.3827
-72.7031
-72.3819
-72.2489
-72.1008
-71.8402
-71.695
-71.38
-71.1851
-71.0977
-71.0587
-70.967
-70.9451
-71.0552
-70.9571
-70.9641
-73.9396
-73.4757
-73.2281
-72.8535
-72.8689
-72.4829
-72.3457
-72.1507
-71.9248
-71.8402
-71.7128
-71.6642
-71.738
-71.8451
-71.7562
-71.6844
-75.5097
-75.1587
-74.4947
-74.2468
-74.0603
-73.7509
-73.4795
-73.3188
-73.0322
-72.9143
-72.7673
-72.8613
-72.7707
-72.8688
-72.8455
-72.6209
-72.5827
-78.4995
-77.4707
-76.5619
-75.8917
-75.4889
-75.3331
-75.0766
-74.6827
-74.6219
-74.431
-74.366
-74.1641
-73.501
-74.0751
-74.1554
-73.9656
-73.8714
-73.6739
-82.6203
-80.5994
-78.9249
-78.0496
-77.6735
-77.4409
-77.105
-76.9924
-76.9886
-76.6525
-76.8082
-76.8051
-76.0478
-75.9176
-76.0292
-75.8021
-75.4736
-75.1877
-74.93
-85.7145
-84.2722
-81.7227
-79.9405
-79.4367
-79.5593
-79.4267
-79.4543
-79.3982
-79.4557
-79.5816
-79.4057
-79.0967
-78.8757
-78.4306
-77.8456
-77.5744
-77.1519
-76.5335
-76.5303
-85.132
-85.602
-84.2114
-82.2022
-81.373
-82.0937
-82.4509
-81.8339
-81.6226
-81.6475
-82.2678
-82.6841
-82.6689
-82.2278
-81.5914
-81.3083
-81.0078
-80.5084
-79.8568
-79.6617
-78.5279
-83.8789
-84.4984
-84.2978
-83.8714
-82.9997
-83.0821
-83.8858
-85.1436
-85.5652
-85.0907
-84.9163
-85.0405
-85.7193
-87.0874
-87.2367
-86.6544
-84.7462
-83.8479
-83.8003
-83.1606
-83.1168
-81.4557
-84.371
-84.8384
-84.4994
-84.8017
-84.8195
-84.9785
-85.1168
-85.3085
-85.7998
-86.2914
-87.0664
-87.4111
-87.6829
-87.9199
-88.2573
-89.1272
-90.1038
-89.7013
-88.7021
-88.2123
-89.8011
-87.6875
-86.6715
-84.4824
-91.9489
-90.4876
-85.6174
-85.714
-85.7609
-86.0889
-86.6416
-87.2158
-87.3111
-87.726
-88.2978
-88.4106
-88.3251
-88.8623
-89.2841
-89.6883
-90.5745
-90.968
-91.227
-91.2263
-90.1545
-89.3732
-90.2604
-89.4844
-90.9446
-89.1701
-89.3156
-85.7848
-86.0757
-86.2638
-86.7774
-87.2165
-87.6698
-88.424
-89.3287
-89.7512
-90.0293
-89.9233
-89.85
-89.8536
-90.0768
-90.7303
-91.1485
-90.9213
-90.4434
-90.0749
-89.8954
-89.3185
-89.2333
-88.9292
-87.9423
-87.9875
-85.849
-85.5736
-86.148
-86.4424
-87.0785
-87.8678
-88.5627
-89.126
-89.7359
-90.2925
-90.6797
-90.617
-90.2004
-90.0571
-90.2588
-90.5101
-90.233
-89.9875
-89.8064
-89.3625
-88.9773
-88.7413
-87.9292
-68.1297
-68.1231
-68.1363
-68.2874
-68.2778
-68.264
-68.2287
-68.4585
-68.4058
-68.322
-68.267
-68.3104
-68.5481
-68.469
-68.4983
-68.4448
-68.4337