/*--------------------------------*- C++ -*----------------------------------*\
  =========                 |
  \\      /  F ield         | OpenFOAM: The Open Source CFD Toolbox
   \\    /   O peration     | Website:  https://openfoam.org
    \\  /    A nd           | Version:  7
     \\/     M anipulation  |
\*---------------------------------------------------------------------------*/
FoamFile
{
    version     2.0;
    format      ascii;
    class       surfaceScalarField;
    location    "10";
    object      phi_0;
}
// * * * * * * * * * * * * * * * * * * * * * * * * * * * * * * * * * * * * * //

dimensions      [0 3 -1 0 0 0 0];

internalField   nonuniform List<scalar> 
54125
(
8.89381e-06
9.97472e-06
0.000965154
0.000154485
5.3212e-05
0.00268168
-6.00166e-05
-2.62125e-05
0.000493719
4.09822e-06
1.04543e-05
0.000950601
1.16197e-05
0.000271574
-0.00269565
-0.000217803
8.11023e-05
0.00221221
0.000241669
5.55878e-05
0.00238852
-6.84512e-05
-6.0522e-05
0.00073331
-6.2522e-05
-2.36683e-05
0.000590364
-4.24404e-06
1.07074e-05
0.000944138
-0.000570626
0.000556454
-0.00773279
-0.000255974
0.000345885
-0.00103722
0.000204644
0.00028655
-0.00294517
-0.000119672
-2.45829e-05
0.00039327
-0.000146399
8.63161e-05
0.00226536
0.000220699
5.662e-05
0.00210696
-6.02058e-05
-5.98907e-05
0.0013676
-7.03612e-05
-5.90045e-05
0.000839007
-6.46185e-05
-2.187e-05
0.00068756
-1.50296e-05
1.02912e-05
0.000948876
-0.00107496
0.000709569
-0.00712354
-0.000500614
0.000697099
-0.00560072
-0.000576451
0.000582374
-0.00753407
-2.44964e-05
0.000153399
0.000920016
-5.513e-05
0.000339066
-0.001181
0.000149426
0.000322674
-0.00319657
-9.24138e-05
-0.000105527
0.000195897
-0.000122861
-2.2711e-05
0.000554797
-9.0398e-05
8.86834e-05
0.00225908
0.000177664
5.41307e-05
0.00186013
-7.36392e-05
-6.00568e-05
0.00126545
-5.69341e-05
-5.86136e-05
0.00142415
-7.0447e-05
-5.85383e-05
0.000946122
-6.42234e-05
-1.99828e-05
0.000782057
-2.34251e-05
1.10562e-05
0.000961245
-0.0014894
0.000299117
-0.00507456
-0.00071726
0.00103247
-0.00552384
-0.00127126
0.000710404
-0.00713913
0.000107201
0.000491501
-0.00108376
-0.000367598
0.000591822
-0.0052977
-0.000733103
0.000555662
-0.0072072
-7.46062e-05
3.15325e-06
8.60698e-05
-2.62441e-05
0.000189771
0.000972695
8.71859e-05
0.000352711
-0.00138863
0.00011638
0.000358724
-0.00349401
-0.00012944
-0.000130876
-9.99343e-05
-8.81109e-05
-0.000101147
0.000305509
-0.000111471
-2.17622e-05
0.000706266
1.93766e-05
8.61108e-05
0.0021435
0.000177201
4.89296e-05
0.00161058
-9.4637e-05
-5.48395e-05
0.000915987
-7.07113e-05
-5.83298e-05
0.00133588
-5.28852e-05
-5.92702e-05
0.00147776
-6.93347e-05
-5.76878e-05
0.00105316
-6.50404e-05
-1.87378e-05
0.000876891
-2.73183e-05
1.04291e-05
0.000978134
-0.00141246
1.01769e-05
-0.00481086
-0.000983692
0.000953725
-0.00745093
-0.00169036
0.000464521
-0.00511998
-0.000219075
0.000952929
-0.00418371
-0.000313994
0.000986896
-0.00585393
-0.00143093
0.000649026
-0.00709034
-7.71043e-05
0.000247918
7.15227e-05
0.000244263
0.000393772
-0.00115622
-8.70371e-05
0.000480902
-0.00504872
-0.000723849
0.000511536
-0.00687851
-0.000215691
-7.67523e-05
-0.000608281
-9.27744e-05
2.34492e-05
0.000257055
-4.338e-05
0.000215992
0.00104132
0.000290614
0.000354697
-0.00165584
0.000211463
0.000321713
-0.00384999
-0.000167082
-0.000144337
7.25673e-05
-0.000129375
-0.000126027
-1.63906e-05
-7.99039e-05
-9.66095e-05
0.000407375
-0.000102544
-2.13301e-05
0.000846916
4.37806e-05
7.82744e-05
0.00200533
0.000183898
4.22644e-05
0.0013571
-0.000106769
-5.2155e-05
0.0002621
-9.03733e-05
-5.32882e-05
0.00100132
-6.83786e-05
-5.79288e-05
0.00140292
-4.92185e-05
-5.90651e-05
0.00152836
-6.781e-05
-5.68388e-05
0.00115907
-6.47553e-05
-1.76579e-05
0.000969734
-3.19991e-05
8.04321e-06
0.00100209
-0.00155254
0.000283969
-0.00372079
-0.00109963
0.000294579
-0.00665994
-0.00156329
-5.011e-05
-0.00488782
-0.000529686
0.00114639
-0.00667208
-0.000358572
0.00121275
-0.00815458
-0.00157078
0.000505611
-0.00548573
-0.000248401
0.00088271
-0.00371467
0.000118344
0.000971833
-0.00404273
6.01915e-05
0.000905966
-0.0062581
-0.00137975
0.000623955
-0.00705839
-0.000107208
0.000188457
-0.000992777
-9.16847e-05
0.0003104
0.000153805
0.00013564
0.000346998
-0.00120134
0.00061547
0.000388187
-0.00525022
-0.000623039
0.000388493
-0.0064325
-0.000174157
-0.000167547
-4.53005e-07
-0.000232441
-6.70108e-05
-0.000414754
-0.000121198
4.49927e-05
0.000469349
-6.68772e-05
0.000237505
0.00112285
0.000567943
0.000313455
-0.00217174
0.000257948
9.86451e-05
-0.00402268
-0.000215247
-0.000142456
-0.000583396
-0.000167776
-0.000135033
0.000158976
-0.00012927
-0.000123793
7.16849e-05
-7.10708e-05
-8.79936e-05
0.000495891
-9.04717e-05
-2.63673e-05
0.00097422
5.0784e-05
6.48893e-05
0.00186717
0.000198023
3.57316e-05
0.00109134
-0.000112333
-4.44131e-05
-0.000164596
-0.000103854
-5.11242e-05
0.000363791
-8.51879e-05
-5.25918e-05
0.00108117
-6.44319e-05
-5.82763e-05
0.00146656
-4.57113e-05
-5.83586e-05
0.00157559
-6.39323e-05
-5.6767e-05
0.00126211
-6.70017e-05
-1.84672e-05
0.00106325
-3.69249e-05
7.02972e-06
0.00103199
-0.00167982
0.000308888
-0.00356011
-0.00119667
0.000471969
-0.0048882
-0.0017266
0.000203308
-0.00376078
-0.000923883
0.000870589
-0.00657675
-0.000826289
0.000361089
-0.00660342
-0.00139514
-3.97501e-05
-0.00502372
-0.000512457
0.00114976
-0.0062876
-0.000243107
0.00126431
-0.00636219
-0.000229753
0.00120474
-0.00856377
-0.00145353
0.000527934
-0.00593989
-6.71799e-05
0.000834928
-0.00280385
-5.57689e-05
0.000973291
-0.00375204
0.000106352
0.000903352
-0.00401083
0.000883654
0.0008806
-0.00678293
-0.00121145
0.000465697
-0.00693568
2.06961e-05
0.000302086
-0.00197632
-0.000134484
0.000335437
-0.00111577
-9.32621e-05
0.000427489
4.53777e-05
-7.92933e-06
0.000340604
-0.0012127
0.00107703
0.000214404
-0.00558522
-0.000442924
0.000310128
-0.00604175
-0.000272869
-9.99337e-05
-0.000872743
-0.000174388
-0.000145408
8.4557e-05
-0.000219793
-5.63831e-05
-0.000222855
-7.53954e-05
5.97225e-05
0.000651456
-4.48328e-05
0.000257453
0.00113321
0.000693886
0.000119992
-0.00283619
0.000336084
-9.20709e-05
-0.00406867
-0.000239751
-9.89465e-05
-0.000931526
-0.000220062
-0.00012697
-0.000475251
-0.000159559
-0.00013018
0.000239733
-0.000131426
-0.000118706
0.000169391
-5.99299e-05
-8.60055e-05
0.000569748
-6.27334e-05
-3.11691e-05
0.00106908
4.01269e-05
5.11514e-05
0.00174462
0.000199021
3.379e-05
0.000821607
-0.000104387
-3.49546e-05
-0.000485066
-0.000111572
-4.36822e-05
-6.04655e-05
-9.99714e-05
-4.92229e-05
0.000460393
-8.1131e-05
-5.25778e-05
0.0011566
-6.2016e-05
-5.72393e-05
0.00152746
-4.19831e-05
-5.88406e-05
0.00161965
-6.07277e-05
-5.62036e-05
0.00136058
-6.44136e-05
-1.97553e-05
0.00115444
-4.05431e-05
7.83196e-06
0.0010647
-0.00162428
5.27249e-05
-0.00376783
-0.00133386
0.000522208
-0.00469849
-0.00174981
0.000211076
-0.00374797
-0.00118082
0.00066185
-0.00565598
-0.00104208
0.000365264
-0.00483436
-0.00145646
0.000170617
-0.00387008
-0.00048364
0.00102331
-0.00682064
-0.000839613
0.000972009
-0.00659116
-0.000983751
0.000522682
-0.00641186
-0.00154924
3.30105e-05
-0.00496102
-0.000349327
0.00120757
-0.00614449
-0.00011801
0.00115706
-0.00611811
0.000137572
0.00127366
-0.00646232
-0.000275148
0.00124242
-0.00811945
-0.00124616
0.000583154
-0.00648834
0.000102451
0.000829344
-0.00356563
-5.36282e-05
0.000971996
-0.00288341
6.13134e-05
0.000957998
-0.00396126
0.000294888
0.000747798
-0.00418085
0.00116221
0.000846506
-0.00724892
-0.00114001
0.000404645
-0.00664323
-0.000180777
0.000255009
-0.00327602
-0.000105091
0.000364245
-0.00207442
-9.94351e-05
0.000501655
-0.00131029
9.14406e-05
0.000490172
-0.000271026
0.000452038
0.000309806
-0.00180497
0.00121288
0.00013107
-0.00592515
-0.000189285
0.00051166
-0.00602804
-0.000409778
-3.11848e-07
-0.00281441
-0.000278926
-9.30943e-05
-0.000866194
-0.000193864
-0.000129628
0.000192107
-0.00019337
-4.43603e-05
-5.68276e-05
-2.30302e-05
6.84469e-05
0.000803562
1.10108e-05
0.000273013
0.000906447
0.000579776
-2.56873e-05
-0.00344222
0.00051301
-7.48607e-05
-0.0043078
-0.000203046
-6.53009e-05
-0.00114331
-0.000246476
-9.14367e-05
-0.000832156
-0.000216887
-0.000120536
-0.000367979
-0.000149339
-0.000121824
0.000311059
-0.000127053
-0.00011257
0.000260993
-5.42814e-05
-7.51939e-05
0.000626071
-6.08833e-05
-4.33746e-05
0.00116376
5.85295e-05
3.44646e-05
0.001621
0.000157217
3.94487e-05
0.000584398
-5.79167e-05
-2.97667e-05
-0.000522977
-0.000101399
-3.4942e-05
-0.000392407
-0.000109441
-4.30871e-05
4.28402e-05
-9.67179e-05
-4.84217e-05
0.000552955
-7.76539e-05
-5.16394e-05
0.00122866
-6.01485e-05
-5.66543e-05
0.00158542
-3.62301e-05
-5.88133e-05
0.00165849
-5.62909e-05
-5.59854e-05
0.0014531
-5.7432e-05
-1.96808e-05
0.00123939
-4.79763e-05
4.0519e-06
0.00110862
-0.00141586
-9.06548e-05
-0.0037348
-0.00140933
0.000316994
-0.0044946
-0.0018528
0.00012542
-0.00379026
-0.00114676
0.00050388
-0.00516183
-0.00120379
0.000430516
-0.00475622
-0.00153189
0.000173945
-0.00384649
-0.000662601
0.000780926
-0.00623164
-0.00115559
0.000740547
-0.00571529
-0.00112747
0.000372307
-0.00489233
-0.00166972
0.000107645
-0.00385724
-0.000187095
0.0010532
-0.00682373
-0.000123855
0.00110957
-0.00695236
-0.000200005
0.00116448
-0.00689538
-0.000878487
0.00065117
-0.00642668
-0.00157355
0.000126099
-0.00475972
-0.00020376
0.00147042
-0.00577302
-0.000367576
0.00120304
-0.00587652
-0.000108314
0.00127343
-0.00594826
0.000498229
0.00135308
-0.00677633
0.000202839
0.00116783
-0.00774474
-0.00139423
0.000650051
-0.00688418
-0.000224855
0.000903191
-0.00442658
-0.000227037
0.00098713
-0.00345881
0.000106921
0.000988424
-0.00312019
0.00039068
0.000791448
-0.00430415
0.000876399
0.000878732
-0.00463743
0.001141
0.00061347
-0.00738587
-0.00077059
0.000421796
-0.00648372
-0.000502865
0.000170878
-0.00401067
-0.000279759
0.000273793
-0.00318474
-0.000114021
0.000468239
-0.00212085
2.44439e-05
0.000550266
-0.0015882
0.000157117
0.000485976
-0.000627344
0.000589009
0.000302845
-0.00255475
0.00105641
0.000463593
-0.00635371
0.000243053
0.000601856
-0.00635994
-0.000271875
4.29041e-05
-0.00363546
-0.000414354
6.37197e-06
-0.002746
-0.000305895
-0.000100821
-0.000805993
-0.000198572
-9.56231e-05
0.000292603
-0.000174975
-2.81588e-05
8.77002e-05
1.63166e-05
7.30778e-05
0.000932898
8.77112e-05
0.000262122
0.000470043
0.000504744
-1.66552e-05
-0.00394664
0.000502371
9.33271e-05
-0.00474628
-0.000118771
-8.25283e-06
-0.00206825
-0.000210157
-6.67139e-05
-0.00105927
-0.000233481
-9.26575e-05
-0.000735996
-0.000220285
-0.000113167
-0.00025307
-0.000150776
-0.000117299
0.00038891
-0.000129336
-0.00010267
0.000357656
-4.29747e-05
-8.17811e-05
0.000671222
-6.93627e-05
-5.68874e-05
0.00126818
0.00013887
2.45268e-05
0.00143962
0.000119873
3.95196e-05
0.000377029
-1.18867e-05
-3.04572e-05
-0.000768726
-5.68023e-05
-2.85035e-05
-0.000472613
-9.52079e-05
-3.55644e-05
-0.000304722
-0.000108395
-4.31774e-05
0.000145991
-9.07163e-05
-4.72548e-05
0.000639286
-7.587e-05
-5.08637e-05
0.00129874
-5.4178e-05
-5.64704e-05
0.00163725
-3.23288e-05
-5.91277e-05
0.00169396
-4.97271e-05
-5.6288e-05
0.00153943
-5.14462e-05
-2.04197e-05
0.00131531
-5.27139e-05
2.25703e-06
0.00115908
-0.0015418
0.000166507
-0.00338024
-0.00147339
0.000103325
-0.00420649
-0.00185755
-1.89526e-05
-0.0037111
-0.000985624
0.000318137
-0.0048376
-0.00122937
0.000319741
-0.00466333
-0.00170528
0.000117149
-0.00373402
-0.000779847
0.000702157
-0.00560906
-0.00117137
0.000516504
-0.00523204
-0.00112749
0.000324824
-0.00490709
-0.00168567
0.000137465
-0.003968
-0.000231603
0.000909958
-0.00642276
-0.000396362
0.000864377
-0.00608297
-0.000742431
0.000783426
-0.00558398
-0.000968105
0.000418054
-0.00511312
-0.00164287
5.14973e-05
-0.00383942
-0.00024493
0.00116728
-0.00670952
-0.000279709
0.00114988
-0.0069519
-0.000201804
0.00110439
-0.00679877
-0.000201679
0.00122427
-0.00676858
-0.000517133
0.000761622
-0.00634223
-0.0016
0.000240921
-0.00479487
-0.000421996
0.0014981
-0.00572286
-0.000394376
0.00139161
-0.00579425
-0.000111505
0.00131111
-0.00569577
0.000257599
0.00130755
-0.00576964
0.000560078
0.00122898
-0.00652116
0.000479265
0.00109382
-0.00752677
-0.00121781
0.000514953
-0.00695191
-0.00046382
0.000893262
-0.00456457
-0.000490183
0.000945913
-0.00417494
-0.000141478
0.00101569
-0.00345863
0.000240466
0.000922933
-0.0034677
0.000306143
0.000845502
-0.00441995
0.00118178
0.000708195
-0.00532492
0.000974486
0.000551659
-0.00743382
-0.000340874
0.0004675
-0.00636729
-0.000488818
0.000226621
-0.00462334
-0.00044287
0.000209913
-0.00391827
-0.000317224
0.000323961
-0.00302913
-0.000135444
0.000506674
-0.00214039
0.00013523
0.000522111
-0.00193454
0.000355693
0.000468788
-0.00113266
0.000828656
0.000426446
-0.00325854
0.000904284
0.000753812
-0.00690521
0.000313546
0.000442835
-0.00661395
-0.000180441
8.03806e-05
-0.00433894
-0.000329102
6.78562e-05
-0.003578
-0.000415201
-6.68069e-07
-0.00266443
-0.00031819
-6.27823e-05
-0.000740929
-0.000200057
-6.56942e-05
0.00037942
-0.000185119
-2.60234e-05
0.000242585
5.39254e-05
5.59096e-05
0.00104221
0.000233444
0.000216659
-6.60781e-05
0.000662432
8.44805e-05
-0.00446136
0.000381546
0.0001413
-0.00514926
-5.29965e-05
5.73147e-05
-0.00278683
-0.000121804
-8.92849e-06
-0.00206103
-0.000200562
-6.56626e-05
-0.000980912
-0.000248686
-9.58733e-05
-0.000612998
-0.000206808
-0.000109881
-0.000144395
-0.000150313
-0.000113502
0.000474185
-0.000116602
-0.000105148
0.000443447
-3.62495e-05
-8.4447e-05
0.000702703
-9.68042e-05
-6.59327e-05
0.00140572
0.000150927
1.09924e-05
0.00126577
8.32722e-05
3.72934e-05
0.00020375
2.02088e-05
-2.32492e-05
-0.000755178
-2.03272e-05
-2.7243e-05
-0.000749659
-5.39146e-05
-2.73235e-05
-0.000426939
-8.98869e-05
-3.59728e-05
-0.00022204
-0.000107127
-4.33475e-05
0.000249211
-8.14005e-05
-4.60798e-05
0.000715903
-7.04196e-05
-5.02278e-05
0.00136291
-5.22671e-05
-5.68865e-05
0.00168728
-2.78759e-05
-5.82135e-05
0.00172376
-4.74882e-05
-5.53302e-05
0.00162183
-4.90294e-05
-2.30642e-05
0.00138966
-5.06128e-05
2.93674e-06
0.00120675
-0.00170602
6.54358e-05
-0.00312339
-0.00128053
0.000139985
-0.00407314
-0.00187091
2.0978e-05
-0.00338786
-0.00100353
0.000211601
-0.00451093
-0.00124738
0.000189
-0.00439643
-0.00171789
5.35135e-05
-0.003752
-0.000725903
0.000396466
-0.00514268
-0.00115836
0.000293454
-0.00482432
-0.00109494
0.000257255
-0.00483599
-0.00170383
5.40957e-06
-0.00372127
-0.000241736
0.000789238
-0.00561564
-0.000709057
0.000751285
-0.00553114
-0.00103328
0.000539733
-0.0051561
-0.00105069
0.000352249
-0.00503929
-0.00174018
0.000123322
-0.00399401
-0.000177364
0.000821652
-0.00649132
-0.000251407
0.000856028
-0.00644271
-0.000291634
0.000888538
-0.00609825
-0.000572417
0.000822048
-0.00561724
-0.000794933
0.000378699
-0.00516252
-0.00159442
3.92692e-05
-0.00388427
-0.000290169
0.00101376
-0.00685061
-0.000277212
0.00118839
-0.00686519
-0.000206481
0.00101197
-0.00676451
-5.51948e-05
0.00129994
-0.00656165
-3.76032e-05
0.00119494
-0.00660421
-0.000282097
0.000842613
-0.00618256
-0.00161299
0.000317481
-0.00471717
-0.000390304
0.00130959
-0.0061499
-0.000597307
0.00143425
-0.00565838
-0.000316074
0.00137482
-0.00568337
-9.06757e-05
0.001326
-0.00538308
0.000143192
0.00128045
-0.00565816
0.000844031
0.0011871
-0.0062767
0.000403752
0.000930063
-0.00737115
-0.00100219
0.000432744
-0.00672334
-0.000440889
0.000791487
-0.00516365
-0.000490619
0.000910003
-0.00448091
-0.000431477
0.00102909
-0.00407408
-0.000169002
0.000953965
-0.0034561
0.000328307
0.000842348
-0.00365762
0.000594664
0.000911379
-0.0048621
0.0013185
0.000769216
-0.00603232
0.00083861
0.000613175
-0.00751382
-0.000273603
0.000461009
-0.00624115
-0.000414965
0.000420916
-0.0051116
-0.000573553
0.000270173
-0.00443915
-0.000538856
0.000239185
-0.00370984
-0.000271055
0.000405629
-0.00297522
-7.98348e-05
0.000496507
-0.00223501
0.000121907
0.000495284
-0.00226807
0.000484212
0.000453419
-0.00158992
0.0010344
0.000733768
-0.00403946
0.000986149
0.000645901
-0.00743199
0.00024469
0.000391165
-0.00686826
-0.000210984
0.00011734
-0.00432402
-0.000205599
0.000106039
-0.00429333
-0.000342139
0.000103205
-0.0035403
-0.000461785
1.42544e-05
-0.00252837
-0.000324579
-4.87249e-05
-0.000640128
-0.000198752
-2.35342e-05
0.000425369
-0.000169986
-3.73774e-05
0.000389255
4.91769e-05
2.73033e-05
0.00114614
0.000288289
0.000119509
-0.000486199
0.000683923
4.36356e-05
-0.00489669
0.000288997
0.000103686
-0.00545867
-2.06273e-05
5.44382e-05
-0.00272428
-0.000105311
4.66711e-05
-0.00275745
-0.000141732
-9.81074e-06
-0.00202907
-0.000205572
-6.2204e-05
-0.000898897
-0.000237307
-9.69304e-05
-0.000495769
-0.000187418
-0.000104996
-4.68824e-05
-0.00013939
-0.000114273
0.00055228
-0.000113042
-0.000101551
0.000521326
-2.92029e-05
-8.92117e-05
0.000727309
-0.000146414
-8.0913e-05
0.00159655
0.000140931
-8.97881e-06
0.00112209
5.33665e-05
3.04973e-05
6.92732e-05
6.31561e-05
-1.03391e-05
-0.000712796
1.26823e-05
-1.90515e-05
-0.000776052
-2.48807e-05
-2.44505e-05
-0.000727651
-5.35267e-05
-2.61428e-05
-0.000383242
-8.50775e-05
-3.60195e-05
-0.00014429
-0.000107487
-4.29812e-05
0.000353599
-7.08595e-05
-4.48361e-05
0.000781371
-6.48624e-05
-5.08283e-05
0.00142172
-4.62886e-05
-5.63146e-05
0.00173167
-2.32744e-05
-5.93128e-05
0.00175102
-3.71874e-05
-5.72113e-05
0.00169317
-4.32481e-05
-2.09429e-05
0.00145679
-5.32794e-05
-1.26548e-07
0.00126016
-0.00171135
-6.93937e-05
-0.00286775
-0.00133821
0.000160997
-0.00402498
-0.00169312
-2.40918e-05
-0.00327708
-0.00107248
0.000201614
-0.00417529
-0.00125868
0.00019518
-0.00423605
-0.00174341
3.48304e-05
-0.00339717
-0.00073155
0.000241171
-0.00470739
-0.0011645
0.000205568
-0.00452136
-0.00121142
0.000208452
-0.00443489
-0.00175564
-2.79942e-05
-0.0036722
-0.000249093
0.00052999
-0.00526797
-0.000819935
0.000457542
-0.00519589
-0.00107895
0.000301596
-0.00482299
-0.00120332
0.000221146
-0.00489909
-0.00183697
-1.71713e-05
-0.00360731
-0.000126804
0.000895757
-0.00547479
-0.000362677
0.000816251
-0.00556934
-0.000484627
0.000785491
-0.00558391
-0.000685165
0.000510315
-0.00520141
-0.00100427
0.000335703
-0.00504234
-0.00167624
0.000111788
-0.00402398
-3.65348e-05
0.000610405
-0.00668427
-0.000199803
0.000750509
-0.00646321
-0.000207568
0.00086119
-0.00641428
-0.000254876
0.000940341
-0.00601686
-0.000410645
0.000842251
-0.00570774
-0.000575981
0.00035268
-0.00518205
-0.0016261
4.39591e-05
-0.00391512
-0.000283346
0.000884956
-0.00694708
-0.000367565
0.0010593
-0.00695126
-0.00030332
0.00106796
-0.00693394
-0.000181526
0.00121283
-0.00658654
-4.85087e-05
0.00125015
-0.00642516
1.3782e-05
0.00117228
-0.00610362
-0.000284538
0.000925727
-0.00610252
-0.00157525
0.000331084
-0.00447519
-0.000297985
0.00116542
-0.00642161
-0.000550702
0.00130483
-0.0059604
-0.000519454
0.0013791
-0.00557468
-0.00036793
0.00140776
-0.0055662
2.0062e-05
0.00138967
-0.00518406
0.000238889
0.00132954
-0.00544481
0.000970732
0.00121054
-0.00620941
0.000163665
0.000745985
-0.00700945
-0.000976116
0.000474099
-0.00649493
-0.000378168
0.000825426
-0.00560306
-0.000495761
0.000828207
-0.00515965
-0.000638209
0.000972842
-0.00432532
-0.000215449
0.000939941
-0.00411566
-0.000176462
0.000888864
-0.00340599
0.000393228
0.00089016
-0.00390773
0.000869695
0.00100923
-0.0054876
0.00130261
0.000901001
-0.00658835
0.000623461
0.000686264
-0.00737639
-0.000186302
0.000347552
-0.00615771
-0.000268368
0.00052764
-0.00503112
-0.000454416
0.000431721
-0.00502433
-0.000500708
0.000310696
-0.00435209
-0.000556743
0.000317287
-0.00352654
-0.000292575
0.000356071
-0.00286679
-2.53736e-05
0.000460549
-0.00237365
0.000174116
0.000409362
-0.00256811
0.000423824
0.000698271
-0.00192907
0.00107444
0.000913319
-0.00509303
0.00105065
0.000520391
-0.00792794
0.000112333
0.000470158
-0.00716176
-0.000169778
0.000178893
-0.00397197
-0.000280725
0.000147323
-0.00418989
-0.000298448
0.000121195
-0.0041546
-0.000386583
0.000106697
-0.00345173
-0.00043883
-9.89613e-06
-0.00236567
-0.000294506
9.02937e-06
-0.000565604
-0.000194189
-3.96489e-05
0.000482439
-0.000249279
-3.29241e-05
0.000585719
0.000156808
1.71422e-05
0.0010625
0.000202652
1.55666e-05
-0.000807197
0.000540408
8.66032e-06
-0.00520114
0.000335935
0.00012004
-0.00586128
6.39689e-05
5.25686e-05
-0.00254036
-3.85607e-05
4.8542e-05
-0.0026749
-0.000114169
2.97072e-05
-0.00270768
-0.000145398
-8.03422e-06
-0.00199136
-0.000213466
-6.18205e-05
-0.000805618
-0.000241094
-9.29639e-05
-0.000374195
-0.000156125
-0.000103073
2.71838e-05
-0.000133373
-0.00010523
0.00062447
-0.00010622
-0.000101954
0.000594
-2.77521e-05
-9.43297e-05
0.000745203
-0.000199973
-9.55757e-05
0.00184594
0.00012526
-2.94128e-05
0.00101349
9.43519e-06
1.71788e-05
-1.06202e-05
5.70634e-05
-2.7318e-05
-0.000874813
5.08477e-05
-6.46724e-06
-0.000776228
6.00583e-06
-1.51598e-05
-0.000791349
-3.05806e-05
-2.20573e-05
-0.000701156
-5.51088e-05
-2.47793e-05
-0.000339374
-8.01177e-05
-3.61113e-05
-7.10424e-05
-0.000104513
-4.29856e-05
0.000456261
-6.44759e-05
-4.50655e-05
0.000840084
-5.97788e-05
-5.00011e-05
0.00147518
-4.13306e-05
-5.66877e-05
0.00177038
-1.75196e-05
-5.9432e-05
0.00177076
-3.50473e-05
-5.47754e-05
0.00176205
-4.43921e-05
-2.6429e-05
0.00152748
-4.68892e-05
5.28988e-07
0.00130652
-0.00167921
-4.10985e-05
-0.00252249
-0.00139325
-7.69468e-05
-0.00342917
-0.00176219
5.13828e-06
-0.00280383
-0.0009176
0.000119298
-0.00415389
-0.00138527
4.47776e-05
-0.00396726
-0.00168373
-9.71479e-05
-0.00323961
-0.00079439
0.000249658
-0.00427998
-0.00110467
0.000167932
-0.00420787
-0.00135275
0.000147274
-0.00420717
-0.0017286
-1.82065e-05
-0.003406
-0.000416024
0.000399205
-0.00471881
-0.00103388
0.000307343
-0.00459522
-0.00111356
0.000256547
-0.00453485
-0.00132884
9.56214e-05
-0.00443298
-0.0017744
-3.33206e-05
-0.00370145
-0.000176143
0.000673774
-0.00512321
-0.000406406
0.000566166
-0.00533286
-0.000681416
0.000452767
-0.00515028
-0.000871517
0.000394558
-0.00481005
-0.00117392
0.000187976
-0.00493459
-0.00184694
5.01663e-05
-0.00348678
2.28635e-06
0.00103589
-0.00519049
-0.000177036
0.000852371
-0.00553368
-0.000270868
0.000869851
-0.0055904
-0.000456004
0.000774259
-0.00564672
-0.000596872
0.000523269
-0.00520275
-0.000782917
0.000265247
-0.00498886
-0.00173523
7.8048e-05
-0.0039929
-4.39309e-05
0.00064095
-0.00621801
-0.000267912
0.00057512
-0.00660853
-4.88817e-05
0.000757099
-0.00661356
-0.00010278
0.000888814
-0.0064415
-7.856e-05
0.000962963
-0.00610752
-0.000387732
0.000816666
-0.00577022
-0.000583844
0.000355851
-0.00519463
-0.00165064
7.67362e-05
-0.00391646
-0.000235188
0.000905187
-0.0071357
-0.000443992
0.000922612
-0.0069171
-0.000427593
0.00111993
-0.00709509
-0.00031497
0.00117732
-0.00695139
-6.59524e-05
0.00118257
-0.00643295
-1.25261e-05
0.00126606
-0.00626753
0.000254476
0.00123674
-0.00569838
-0.000459334
0.000793012
-0.00594144
-0.00159055
0.000357808
-0.00421856
-0.000222798
0.00107995
-0.00637365
-0.000381004
0.00118934
-0.00642087
-0.000580004
0.00127061
-0.00591011
-0.000363795
0.00144326
-0.00546184
-0.000422416
0.0013437
-0.00527428
7.30207e-05
0.0015285
-0.00506282
0.000695428
0.00140152
-0.00546153
0.00121274
0.00107359
-0.00644715
-0.000148313
0.000722675
-0.00648625
-0.000947681
0.000492204
-0.00622575
-9.19204e-05
0.000861076
-0.00591627
-0.000383848
0.000872453
-0.00571787
-0.000400301
0.000853156
-0.00514037
-0.000592653
0.000935846
-0.00428531
-0.000315989
0.000922416
-0.0041258
0.000285704
0.000820017
-0.00364693
0.000525054
0.000862421
-0.00411185
0.000909423
0.00102168
-0.00609388
0.00111509
0.000922917
-0.00686565
0.000668686
0.000596186
-0.00724306
-0.000308898
0.000261545
-0.00599803
-0.000230304
0.000484568
-0.00478442
-0.000291987
0.000520706
-0.00510884
-0.000491379
0.000463589
-0.00498429
-0.000572977
0.000363264
-0.00421167
-0.000521563
0.000241822
-0.00332956
-0.000230305
0.000349161
-0.0028196
-6.77278e-05
0.000442196
-0.00253294
0.000140444
0.000455699
-0.00271526
0.000619408
0.000879689
-0.00235804
0.00102472
0.000858001
-0.0062527
0.000670629
0.000652828
-0.00824083
0.000338827
0.000440548
-0.0076052
-8.21731e-05
0.000257849
-0.00397115
-0.0002154
0.000174939
-0.00382274
-0.00029043
0.000154994
-0.00404743
-0.000290807
0.000124309
-0.00402681
-0.000416908
9.26664e-05
-0.00335085
-0.000454442
3.35001e-05
-0.0021768
-0.0001297
1.84412e-05
-0.00065012
-0.000208203
-4.03059e-05
0.000564651
-0.000298892
-3.25837e-05
0.000828117
0.000267205
1.10738e-05
0.000772031
2.54721e-05
-3.9426e-06
-0.00102004
0.000474553
5.59029e-05
-0.0054863
0.000159135
0.000167037
-0.00617801
0.000132943
8.44019e-05
-0.00284821
3.28718e-05
6.2405e-05
-0.00253624
-3.38817e-05
3.70497e-05
-0.00264236
-0.000130797
2.18317e-05
-0.00263733
-0.00015873
-1.07603e-06
-0.00194849
-0.000196107
-5.47431e-05
-0.00072785
-0.000236859
-8.92963e-05
-0.000255625
-0.000153141
-9.31835e-05
0.000103802
-0.00011908
-9.88834e-05
0.0006807
-9.10344e-05
-0.000101088
0.000650462
-4.60021e-05
-9.70215e-05
0.000775131
-0.000221077
-0.000105625
0.00210818
8.85755e-05
-4.96669e-05
0.000947367
2.69429e-05
-1.20807e-06
-8.32443e-05
5.83966e-05
-2.81324e-05
-0.00088518
4.46836e-05
-2.49127e-05
-0.000901051
3.92844e-05
-2.93602e-06
-0.000827736
-1.51848e-06
-1.18457e-05
-0.000800042
-3.57961e-05
-1.99885e-05
-0.000670151
-5.58273e-05
-2.3574e-05
-0.000296084
-7.63353e-05
-3.59138e-05
-1.77888e-06
-9.78931e-05
-4.34598e-05
0.000552549
-6.18721e-05
-4.34875e-05
0.000895442
-5.71302e-05
-4.94207e-05
0.00152505
-3.371e-05
-5.63844e-05
0.00180104
-1.2341e-05
-5.86943e-05
0.00178702
-2.36997e-05
-5.71507e-05
0.00181647
-4.04388e-05
-2.62796e-05
0.00159473
-4.63382e-05
-1.04181e-06
0.0013539
-0.00168937
6.50112e-05
-0.00245399
-0.00146805
3.53083e-06
-0.00306889
-0.00163349
-7.0288e-05
-0.0025809
-0.0010599
1.49602e-05
-0.0038925
-0.00138862
2.42166e-06
-0.0034231
-0.00175765
4.05748e-05
-0.00277048
-0.000735056
9.09135e-05
-0.00406045
-0.0011379
0.000117543
-0.00419343
-0.0013993
-5.89495e-05
-0.0039589
-0.0016659
-8.39583e-05
-0.00321835
-0.000576299
0.000392836
-0.0043893
-0.000966847
0.000191218
-0.0043703
-0.0010582
0.000140506
-0.00425647
-0.00135417
6.80439e-05
-0.00426809
-0.00177299
4.27256e-05
-0.00345013
-0.000471147
0.000628891
-0.0047856
-0.000479331
0.000415334
-0.00475387
-0.000848447
0.000359078
-0.00453072
-0.00100834
0.000243413
-0.00454582
-0.00128947
0.000123857
-0.00447461
-0.00168514
-8.70413e-05
-0.00377622
-9.37548e-05
0.00077104
-0.00508728
-0.000157095
0.000724145
-0.00530113
-0.00042185
0.000568841
-0.00529795
-0.000682366
0.000507995
-0.00503735
-0.000793037
0.000392207
-0.00481812
-0.000893025
0.000173301
-0.00494762
-0.00178299
9.1254e-05
-0.00353027
-4.62012e-05
0.00110542
-0.00505708
-0.000274605
0.00100872
-0.00534014
1.39909e-05
0.000937347
-0.00566405
-0.000131752
0.000892501
-0.00567967
-0.000232633
0.000709872
-0.00567925
-0.000532333
0.000472246
-0.00526515
-0.000905135
0.000229524
-0.00481904
-0.0017129
4.44666e-05
-0.00397511
-9.61606e-05
0.000751706
-0.00570856
-0.000153991
0.000444764
-0.00637766
-9.03243e-05
0.000414642
-0.00660334
-7.89836e-05
0.000735689
-0.00669642
-0.000120874
0.000985898
-0.00640951
-8.86603e-05
0.00101516
-0.00622988
-0.000241757
0.000820801
-0.00573893
-0.000652423
0.000403447
-0.00532825
-0.00164479
0.000111668
-0.00397389
-0.000127663
0.000857688
-0.00715295
-0.000323473
0.000876932
-0.00714755
-0.000363487
0.00100597
-0.00701966
-0.00051193
0.00124435
-0.00701399
-0.000328533
0.00115921
-0.00702191
1.56642e-05
0.00120568
-0.00631521
0.000290576
0.00134333
-0.00596927
0.000635122
0.00118034
-0.00550809
-0.000589013
0.000768211
-0.00591115
-0.0014636
0.00034817
-0.00405081
3.70433e-05
0.00108409
-0.00662199
-0.000195266
0.00113274
-0.00650564
-0.000476209
0.0011743
-0.00624865
-0.000528224
0.00136156
-0.00589284
-0.00047693
0.00138142
-0.00533861
0.000177934
0.00150279
-0.0051408
0.000248264
0.00146582
-0.00485032
0.000898642
0.00132883
-0.00570599
0.00101517
0.000954497
-0.00657906
6.20698e-06
0.000796527
-0.00612809
-0.00104916
0.000483102
-0.0059686
-1.45944e-05
0.000881522
-0.00564323
-9.00041e-05
0.000895735
-0.00614154
-0.000353185
0.000863513
-0.00586643
-0.000478106
0.000886997
-0.00518639
-0.000523101
0.00087736
-0.00423872
-0.000140635
0.000826347
-0.0042218
7.67295e-05
0.000757943
-0.0036869
0.000858056
0.000830115
-0.0046379
0.00103923
0.000833387
-0.00642417
0.000923545
0.000873033
-0.00704132
0.000559776
0.000529843
-0.0074005
-0.000276065
0.000250664
-0.0056338
-0.000223375
0.000431591
-0.00466793
-0.000231129
0.000499927
-0.00474791
-0.000307856
0.000493817
-0.00512165
-0.00049396
0.000522446
-0.00494032
-0.000569592
0.000319599
-0.00413677
-0.000516335
0.000247728
-0.00316623
-5.7297e-05
0.000397561
-0.00284737
-0.000137625
0.000346029
-0.00249385
8.71571e-05
0.00046777
-0.00268939
0.000808597
0.00102289
-0.00306432
0.000766721
0.000775352
-0.00711648
0.000404246
0.0006934
-0.00842338
0.000160355
0.000402782
-0.0080092
6.06824e-05
0.000242728
-0.00411359
-0.000132998
0.000201245
-0.00383159
-0.000200143
0.000201921
-0.00370341
-0.00025234
0.000129146
-0.00393073
-0.000325024
0.000128224
-0.00389607
-0.000392318
0.000128717
-0.00324985
-0.000436294
5.46697e-05
-0.00201359
-0.000190566
3.04961e-05
-0.000683496
-0.000198253
-4.25027e-05
0.000653743
-8.10294e-05
-3.66287e-05
0.000865815
0.000306907
1.56631e-05
0.000399517
-3.98838e-05
5.15764e-05
-0.00119691
0.000376811
0.000159012
-0.00576651
6.23983e-05
0.000178613
-0.00639208
0.000146772
7.83913e-05
-0.00258982
5.98215e-05
9.83449e-05
-0.00289929
1.16765e-05
6.74765e-05
-0.00253906
-6.45506e-05
3.54622e-05
-0.00259296
-0.000133541
4.76399e-05
-0.0025883
-0.000167222
6.92994e-06
-0.00189877
-0.000192917
-4.8545e-05
-0.000652019
-0.00022238
-8.59821e-05
-0.000138339
-0.000152417
-8.1625e-05
0.000177089
-0.000111377
-9.29586e-05
0.000726818
-7.49274e-05
-0.000102643
0.0006973
-7.15893e-05
-9.41303e-05
0.000822885
-0.000174861
-0.000114941
0.00232461
6.15702e-05
-6.12635e-05
0.000905413
4.09325e-05
-1.01518e-05
-0.000160363
-7.13402e-05
-4.43302e-06
-0.000450181
5.7727e-05
-2.81359e-05
-0.000939684
2.97345e-05
-2.15609e-05
-0.000912161
2.75249e-05
2.63822e-07
-0.000867371
-1.54846e-05