/*--------------------------------*- C++ -*----------------------------------*\
  =========                 |
  \\      /  F ield         | OpenFOAM: The Open Source CFD Toolbox
   \\    /   O peration     | Website:  https://openfoam.org
    \\  /    A nd           | Version:  7
     \\/     M anipulation  |
\*---------------------------------------------------------------------------*/
FoamFile
{
    version     2.0;
    format      ascii;
    class       volVectorField;
    location    "10";
    object      U;
}
// * * * * * * * * * * * * * * * * * * * * * * * * * * * * * * * * * * * * * //

dimensions      [0 1 -1 0 0 0 0];

internalField   nonuniform List<vector> 
18750
(
(-0.704775 0.27692 0.289357)
(-1.99034 -0.446327 -0.246166)
(-0.261799 0.621337 0.108586)
(-0.638119 0.379797 0.249929)
(1.71316 -1.36073 0.963688)
(-1.49553 0.933924 0.88613)
(-1.85806 -0.327472 -0.354354)
(-0.428282 0.751155 -1.17198)
(-0.285766 0.654079 0.170727)
(-0.592045 0.456115 0.222719)
(5.41985 0.440498 1.179)
(0.860886 1.13431 1.45075)
(1.50069 -2.32615 1.09435)
(-0.151659 0.737392 0.320367)
(-1.42711 1.10325 1.03024)
(-1.64705 -0.0927526 -0.440472)
(-0.913059 0.628307 -1.3603)
(-0.454821 0.804725 -1.13426)
(-0.300003 0.687872 0.219807)
(-0.527902 0.548398 0.161197)
(4.93644 1.30504 0.753503)
(3.9278 0.170441 2.05076)
(5.24324 -0.17733 1.17693)
(-0.523379 0.643492 1.26049)
(0.791387 0.256771 1.35014)
(1.54886 -2.33794 1.20597)
(-0.0155222 0.85013 -0.715214)
(-0.211533 0.775292 0.307761)
(-1.28344 1.24322 1.12094)
(-1.3878 0.175667 -0.482221)
(-0.794819 0.878016 -1.22737)
(-0.928056 0.664419 -1.33979)
(-0.460039 0.846855 -1.11641)
(-0.327955 0.702802 0.263416)
(-0.494612 0.617921 0.176105)
(3.73106 2.72093 -0.803735)
(3.8322 1.62582 2.30409)
(5.21206 1.3656 0.608744)
(0.665371 -0.571114 2.03935)
(3.64508 -0.71699 2.04747)
(5.04386 -0.120689 1.06409)
(-0.0212016 0.0596288 0.0655131)
(-0.591841 0.724604 1.41283)
(0.665257 -0.542816 1.45961)
(1.66785 -2.28226 1.34156)
(0.160675 0.770157 -0.7416)
(-0.0429972 0.822996 -0.677053)
(-0.263267 0.79712 0.287888)
(-1.1925 1.37687 1.12748)
(-1.1302 0.391833 -0.496293)
(-0.505221 1.08629 -1.24926)
(-0.809302 0.912613 -1.19473)
(-0.90147 0.683816 -1.3516)
(-0.493157 0.890697 -1.08609)
(-0.345247 0.725121 0.28286)
(-0.454888 0.676201 0.119646)
(3.37764 1.66777 0.471469)
(5.02369 0.462514 1.83339)
(4.00221 2.97437 -1.06551)
(3.07601 -0.365435 2.29696)
(4.16863 1.12043 2.29688)
(5.28884 1.60137 0.171845)
(0.0421436 0.439525 0.873354)
(0.703623 -0.649726 1.5488)
(3.28025 -1.18264 1.88184)
(4.80695 -0.572585 1.00324)
(0.488527 0.440733 -0.0239837)
(-0.122575 0.0683013 0.193819)
(-0.507968 0.632359 1.53102)
(0.590958 -1.74916 1.50072)
(1.67402 -2.70769 1.26598)
(0.0553978 0.853267 -1.01119)
(0.15114 0.714346 -0.725455)
(-0.07263 0.790259 -0.644196)
(-0.315056 0.812656 0.249754)
(-1.01903 1.45587 1.08557)
(-0.895054 0.496382 -0.508454)
(-0.0575461 1.15445 -1.08767)
(-0.550971 1.08101 -1.23018)
(-0.758087 0.939326 -1.18713)
(-0.917037 0.706907 -1.3489)
(-0.496664 0.939859 -1.05969)
(-0.401216 0.748573 0.323357)
(-0.375372 0.697691 0.0863677)
(2.74293 1.89045 0.126397)
(4.521 1.43506 -0.421416)
(3.47906 1.53702 0.303127)
(4.6338 0.220394 1.95617)
(5.18475 -1.61968 2.66113)
(4.23139 2.60009 -0.947065)
(2.59884 -0.222763 2.25435)
(2.57617 -0.997724 2.20702)
(4.21814 -0.552482 2.43097)
(5.44722 1.3988 -0.309382)
(0.706287 1.03499 0.646114)
(-0.0326795 0.615446 0.778108)
(0.71018 -0.457842 1.12997)
(3.15283 -1.60298 1.62427)
(4.31545 -1.29153 1.15108)
(0.0969065 0.826837 -0.628661)
(0.402992 0.488791 0.0275474)
(-0.247929 0.0791633 0.281138)
(-0.608715 0.659293 1.60684)
(0.563681 -2.11 1.11718)
(1.59161 -3.07126 1.13438)
(0.508251 0.898234 -1.07284)
(0.0544025 0.836417 -0.961753)
(0.130138 0.689533 -0.701022)
(-0.0946257 0.778337 -0.598983)
(-0.358968 0.825241 0.181052)
(-0.795413 1.50727 1.02156)
(-0.648409 0.565837 -0.509744)
(0.217606 1.05938 -1.01479)
(-0.0604961 1.12574 -1.07548)
(-0.503544 1.08859 -1.22493)
(-0.786907 0.945341 -1.20157)
(-0.899325 0.747194 -1.34975)
(-0.51216 0.969965 -1.05574)
(-0.380386 0.798014 0.262509)
(-0.368242 0.733562 0.0784902)
(2.56923 1.75328 -0.167273)
(3.32811 1.19558 0.61202)
(2.76842 2.06046 0.140444)
(4.45125 0.582654 1.2543)
(4.71643 0.855888 -0.40148)
(3.76555 0.962557 0.277974)
(4.2305 0.468226 2.31747)
(4.15466 -0.761514 2.21273)
(5.43764 -2.35598 2.62319)
(4.39493 1.82114 -0.75462)
(1.80105 -0.722523 1.87247)
(2.38404 -0.488912 2.31625)
(2.36321 -0.800452 2.00162)
(3.40117 -4.37808 2.72964)
(5.49574 1.09518 -0.619862)
(1.27762 0.323179 0.492398)
(0.87788 1.04864 1.11906)
(0.0547878 0.855953 0.904116)
(0.789466 -0.317657 0.860611)
(2.65408 -3.76827 0.706152)
(3.82698 -1.56069 1.19036)
(0.718077 1.28832 -0.778229)
(0.103604 0.885329 -0.593255)
(0.316685 0.52303 0.123845)
(-0.387237 0.0936208 0.338183)
(-0.548717 0.617288 1.69043)
(0.919893 -2.39276 -0.842655)
(1.24391 -3.43539 0.906362)
(0.761398 1.07458 -0.780433)
(0.471271 0.873992 -0.991119)
(0.0345811 0.782117 -0.959093)
(0.126632 0.716672 -0.633283)
(-0.114356 0.741755 -0.603818)
(-0.399305 0.829705 0.0487698)
(-0.597053 1.51791 0.945262)
(-0.379121 0.668551 -0.451652)
(0.394793 0.741184 -0.838105)
(0.228243 1.04997 -0.983256)
(-0.0630369 1.10814 -1.05224)
(-0.480363 1.09797 -1.22856)
(-0.796571 1.00058 -1.16526)
(-0.914884 0.773771 -1.3559)
(-0.525931 1.01638 -1.0406)
(-0.356042 0.807462 0.219139)
(-0.426805 0.739086 0.0404197)
(2.73746 1.63374 -0.152153)
(3.19038 1.27049 0.885408)
(2.59968 1.69854 -0.09931)
(3.92713 1.27979 0.687625)
(3.44144 0.555913 0.386427)
(3.09506 1.61696 0.0394116)
(4.49428 0.2268 1.53633)
(4.40287 0.0872552 1.44852)
(4.61888 0.811542 -0.345509)
(3.78276 1.01038 0.214666)
(4.16603 0.482878 1.98967)
(4.14163 -0.500833 2.34162)
(4.10323 -1.31111 2.17758)
(5.0897 -2.48598 2.54582)
(5.03431 0.503707 -0.407021)
(2.24546 -0.818436 1.85544)
(1.7416 -0.799888 2.19959)
(2.4018 -0.905393 2.14099)
(2.87293 -0.871976 1.72792)
(3.32793 -4.78013 2.45781)
(5.05787 0.0464168 -0.483011)
(2.18278 0.382219 1.2302)
(1.43511 0.168127 0.914862)
(1.01514 0.843857 1.65991)
(0.231524 0.514931 1.07805)
(0.871884 -0.484867 0.672176)
(2.13237 -4.67835 0.357148)
(3.4747 -2.09894 0.9277)
(2.01028 1.3356 -0.0322654)
(0.803664 1.33519 -0.641509)
(0.111817 0.903514 -0.587127)
(0.235392 0.537918 0.192397)
(-0.501977 0.129709 0.372131)
(-0.592122 0.413564 1.75068)
(1.09078 -2.47611 -1.92681)
(0.98123 -3.67239 0.721526)
(0.925395 1.41113 -0.580144)
(0.744425 1.06338 -0.677073)
(0.452481 0.814847 -0.923321)
(0.0131971 0.746405 -0.960811)
(0.0925868 0.703429 -0.60889)
(-0.122637 0.753511 -0.541959)
(-0.416363 0.843844 -0.079513)
(-0.430034 1.47083 0.862296)
(-0.01843 0.766873 -0.28667)
(0.359101 0.295964 -0.641482)
(0.374199 0.716418 -0.845162)
(0.237395 1.05298 -0.939914)
(-0.0674611 1.08081 -1.03891)
(-0.508547 1.1016 -1.23452)
(-0.732544 0.998095 -1.17891)
(-0.898735 0.803915 -1.37246)
(-0.529339 1.0536 -1.0426)
(-0.453623 0.883944 0.283357)
(-0.333568 0.773885 -0.0364042)
(2.6512 1.16257 -0.0694498)
(3.00025 1.16115 0.279982)
(2.78252 1.58932 -0.0948886)
(3.5314 1.12695 0.362122)
(3.34199 1.06047 0.590198)
(2.99273 0.958598 -0.0772513)
(4.18696 0.276543 1.01246)
(3.94992 0.961946 0.638305)
(3.40519 0.615139 0.382669)
(3.16663 1.61823 -0.0452091)
(4.54841 -0.165522 1.66922)
(4.65471 -0.654368 1.64724)
(4.41237 -1.34671 1.88358)
(4.55283 0.359588 -0.0354766)
(3.77654 0.956538 0.149931)
(3.78894 -0.103077 2.49033)
(4.10609 0.101255 2.08542)
(3.9757 -0.84685 2.40999)
(3.97585 -2.90491 2.33117)
(4.31084 -3.45042 2.49096)
(5.18482 0.62329 -0.137292)
(2.99434 -0.0560269 2.00648)
(2.32153 -0.261746 2.2194)
(1.88271 -1.032 2.3115)
(2.51279 -1.85629 1.58695)
(1.83885 -3.22581 1.71451)
(3.37882 -4.5857 2.09542)
(4.40726 -1.08007 -0.0495659)
(2.75779 0.824325 0.434936)
(2.23906 0.158049 1.21775)
(1.46962 0.201501 1.35425)
(1.16461 0.549384 1.84178)
(0.365853 0.102167 1.09486)
(1.27688 -0.896468 0.666725)
(2.3813 -4.23205 2.19102)
(2.91243 -3.42579 0.435672)
(2.49392 0.356227 0.0543781)
(2.03901 1.24626 -0.112942)
(0.8714 1.33474 -0.520145)
(0.0945845 0.907506 -0.549787)
(0.1821 0.554876 0.236069)
(-0.582902 0.172506 0.433463)
(-0.322636 0.36486 1.71186)
(1.13438 -3.02106 -1.31096)
(1.13611 -3.73536 0.700624)
(1.4718 0.887459 -0.357659)
(0.95241 1.31011 -0.594627)
(0.762413 0.983507 -0.68115)
(0.463101 0.79414 -0.808796)
(0.0177751 0.758876 -0.90365)
(0.095543 0.733731 -0.527419)
(-0.14201 0.687175 -0.592756)
(-0.454117 0.886639 -0.251496)
(-0.29114 1.38384 0.78044)
(0.19976 0.794384 -0.178885)
(0.497147 0.0691505 -0.594151)
(0.346787 0.287463 -0.641143)
(0.357154 0.659139 -0.877847)
(0.224492 1.04366 -0.927234)
(-0.0673246 1.08289 -1.00768)
(-0.47473 1.12106 -1.22062)
(-0.749571 1.01231 -1.17637)
(-0.871807 0.819329 -1.37836)
(-0.553715 1.05357 -1.08594)
(-0.4859 0.90702 0.211377)
(-0.287697 0.819416 -0.0690287)
(2.5308 0.946505 0.198381)
(2.84694 1.18921 -0.0878246)
(2.63058 1.31045 -0.13726)
(3.26855 0.840523 0.325348)
(3.21372 0.666185 0.381981)
(2.85143 1.35746 -0.0719893)
(3.75484 0.665995 0.795564)
(3.63684 0.850883 0.402186)
(3.47726 0.689108 0.464078)
(3.04788 1.18556 -0.187494)
(4.25209 -0.194198 1.17917)
(4.05072 -0.418037 1.25428)
(3.88488 -0.0819867 0.713714)
(3.55062 0.102176 0.320706)
(3.29576 1.37809 -0.0334582)
(4.4346 0.0420159 1.67844)
(4.54789 -0.329876 1.84287)
(4.51379 -0.82509 1.86928)
(4.35427 -1.47565 1.93385)
(4.31826 -0.707991 0.380612)
(3.90115 0.733082 0.0687255)
(3.78907 0.416718 2.90208)
(3.93117 0.214093 2.40051)
(3.72536 -0.870834 2.54908)
(3.45835 -1.94896 2.57452)
(3.58273 -3.2179 2.04931)
(3.64839 -4.14271 2.42962)
(5.0304 -0.619615 -0.137538)
(3.03115 1.14938 2.31834)
(2.95481 0.392936 2.2706)
(2.2266 -0.537768 2.19797)
(1.76145 -1.71027 2.15479)
(2.36986 -1.9772 2.19163)
(1.95917 -3.97261 0.859265)
(3.21078 -4.55537 1.87564)
(3.70243 -2.36006 0.260868)
(3.18631 0.907083 0.567975)
(2.77358 0.615417 0.570393)
(2.13755 0.186682 1.39585)
(1.50615 0.129752 1.46777)
(1.40531 0.256734 1.77991)
(0.445919 -0.254593 1.05779)
(1.28188 -1.89512 1.36876)
(2.72479 -4.11515 2.80756)
(2.90393 -3.59862 0.48287)
(2.87293 -0.146637 0.304514)
(2.45545 0.358885 0.191105)
(2.15296 0.997918 -0.313794)
(0.950667 1.35022 -0.265429)
(0.115831 0.960633 -0.456745)
(0.136566 0.621487 0.219197)
(-0.656194 0.250709 0.383943)
(0.0877559 0.316427 1.52413)
(0.832373 -3.88122 0.135465)
(1.32791 -3.79563 0.630648)
(1.82944 -0.000777877 0.250231)
(1.49848 0.76545 -0.357758)
(0.960559 1.19537 -0.616089)
(0.73879 0.97473 -0.703121)
(0.385917 0.685607 -0.802355)
(0.0304624 0.770416 -0.850845)
(0.0387241 0.696867 -0.575918)
(-0.13876 0.665313 -0.622791)
(-0.469258 0.933481 -0.326187)
(-0.153903 1.26375 0.688784)
(0.427423 0.762556 -0.0673043)
(0.455945 -0.239287 -0.646836)
(0.497858 0.0947023 -0.546057)
(0.334438 0.277172 -0.64092)
(0.337198 0.610928 -0.901101)
(0.214098 1.03731 -0.920681)
(-0.0554108 1.04614 -1.0067)
(-0.454144 1.13558 -1.21279)
(-0.73415 1.0514 -1.19333)
(-0.881959 0.853443 -1.36126)
(-0.535981 1.13799 -1.04979)
(-0.400265 0.890713 0.166589)
(-0.365664 0.875016 -0.077115)
(2.17168 1.2734 -0.0384475)
(2.72082 0.985681 0.0629696)
(2.40092 1.44464 -0.056863)
(3.07583 0.542209 0.262735)
(2.98396 0.804269 0.125957)
(2.80843 0.95888 -0.0822218)
(3.43432 0.366882 0.37005)
(3.34733 0.715024 0.242115)
(3.36473 0.388803 0.295945)
(3.00758 1.043 -0.143458)
(3.73388 0.0635816 0.897146)
(3.72763 0.195947 0.808044)
(3.6105 0.37091 0.331272)
(3.58969 0.296067 0.520312)
(3.18207 0.871578 -0.102415)
(4.28712 -0.270272 1.2193)
(4.23539 -0.409306 1.17508)
(3.98537 -0.581749 1.27774)
(3.74019 -0.338964 0.863446)
(3.49788 -0.496717 0.176152)
(3.31698 1.23049 -0.0767684)
(4.50674 0.246473 1.89601)
(4.45621 -0.276123 1.79297)
(4.55913 -0.808587 1.71624)
(4.12618 -1.47756 2.02685)
(4.03268 -1.91198 1.86872)
(3.97334 -1.34327 0.826025)
(3.97982 0.689089 0.128953)
(4.12079 0.128096 2.61753)
(3.87132 0.575028 2.70644)
(3.83697 -0.303635 2.40638)
(3.5236 -1.00961 2.47399)
(3.42461 -1.73393 2.43292)
(2.70571 -4.04688 1.76563)
(3.68075 -3.93579 1.90258)
(4.60751 -1.31963 0.254333)
(3.58871 0.986247 1.7436)
(3.29666 0.684484 2.23639)
(2.81381 0.20064 2.35115)
(2.17628 -0.606249 2.05092)
(1.71893 -2.29251 1.93351)
(2.06777 -2.9283 2.20934)
(1.87752 -4.74722 0.925109)
(3.06976 -4.8008 1.80659)
(3.32673 -2.58953 0.350811)
(3.42866 0.745759 0.849743)
(3.15886 0.934644 0.676778)
(2.74834 0.560712 0.741015)
(2.06594 0.0772175 1.45436)
(1.54059 -0.0464445 1.39639)
(1.44306 0.189606 1.74933)
(0.674821 -0.746436 1.2368)
(0.949872 -3.32059 2.08262)
(2.52478 -4.89957 1.80363)
(3.09883 -3.42022 0.588978)
(2.91521 0.166801 0.427153)
(2.86527 -0.22584 0.366079)
(2.46173 0.148513 0.347411)
(2.08622 1.08779 -0.213082)
(0.970188 1.30969 -0.112584)
(0.131064 0.989554 -0.418059)
(0.0680144 0.642767 0.128126)
(-0.704058 0.306837 0.177779)
(0.574122 0.389357 0.832123)
(0.820703 -4.06094 0.362938)
(1.4237 -3.80295 0.503801)
(1.77813 -0.323201 0.56396)
(1.84058 -0.000398855 0.250216)
(1.54247 0.600869 -0.312487)
(0.970205 1.09777 -0.636643)
(0.742015 0.957704 -0.678411)
(0.301038 0.556908 -0.799083)
(-0.0211246 0.730208 -0.8482)
(0.0371186 0.69239 -0.587148)
(-0.157763 0.637362 -0.674199)
(-0.482239 1.01941 -0.463369)
(-0.0376836 1.12983 0.565516)
(0.565777 0.682105 0.0150192)
(0.393377 -0.599794 -0.286305)
(0.463883 -0.182031 -0.56745)
(0.50141 0.128229 -0.500987)
(0.326603 0.2553 -0.63894)
(0.314796 0.570739 -0.919668)
(0.218881 1.05948 -0.887339)
(-0.0911202 1.02191 -0.981379)
(-0.462379 1.13688 -1.21464)
(-0.743789 1.08277 -1.1828)
(-0.860009 0.892205 -1.35098)
(-0.571024 1.09653 -1.13684)
(-0.443285 0.926558 0.197484)
(-0.238212 0.926528 -0.100854)
(2.03474 1.0417 -0.024635)
(2.72513 0.688755 0.127388)
(2.33669 0.956738 0.0160832)
(2.82108 0.757287 0.180873)
(2.94444 0.604468 0.101545)
(2.56808 1.09955 0.0193369)
(3.1559 0.52263 0.138357)
(3.07781 0.61799 0.209669)
(3.13936 0.350673 0.189884)
(2.8191 0.916986 -0.0898242)
(3.449 -0.215439 0.439045)
(3.46582 0.221503 0.398769)
(3.33988 0.415731 0.242928)
(3.42339 0.13009 0.141839)
(2.98363 1.16528 -0.0926514)
(3.59325 -0.00284015 0.94027)
(3.67608 -0.227367 0.983113)
(3.69168 -0.420867 0.889158)
(3.51457 -0.257071 0.341924)
(3.54907 -0.00403045 0.402143)
(3.22074 0.516203 -0.0764296)
(4.35653 -0.310211 0.949222)
(4.21452 -0.391569 1.11868)
(4.19608 -0.634747 1.22895)
(3.92938 -0.768072 1.27469)
(3.69894 -0.897265 0.872331)
(3.35939 -0.96712 0.192026)
(3.45198 0.80999 -0.0776453)
(4.63552 0.309056 1.29947)
(4.55821 0.0747719 1.85046)
(4.58335 -0.611627 1.55522)
(4.21285 -1.06142 2.1363)
(3.98522 -1.59497 2.03052)
(3.58454 -2.18997 1.75076)
(3.85985 -1.55246 0.961402)
(3.84803 0.434063 0.371178)
(4.22187 0.0885089 2.31736)
(3.99268 0.225994 2.59356)
(3.88535 -0.0770817 2.67195)
(3.77304 -0.404518 2.44773)
(3.31499 -1.12599 2.54598)
(2.92136 -2.50125 2.60222)
(2.49936 -4.19571 1.59953)
(3.45499 -3.4691 1.34403)
(4.33798 -1.55342 0.482523)
(3.71657 0.803542 1.8762)
(3.50755 0.955899 1.93694)
(3.09963 1.05218 2.48833)
(2.74207 -0.198134 2.17542)
(2.09177 -0.994878 1.91828)
(1.75081 -2.41293 2.24461)
(2.02634 -3.4799 2.60042)
(2.05529 -4.90201 1.31843)
(2.55609 -5.06125 1.60564)
(3.09992 -2.88157 0.402003)
(3.36977 0.684801 1.63863)
(3.46967 0.583662 1.01526)
(3.16834 0.839663 0.666751)
(2.55707 0.57443 1.20507)
(2.04171 -0.0279831 1.44401)
(1.57167 -0.198719 1.28045)
(1.92544 -0.198012 1.54548)
(0.864201 -0.924547 2.37775)
(0.852764 -4.24421 2.16243)
(2.57345 -5.17719 1.63283)
(3.23174 -3.57526 0.376559)
(2.63458 0.18423 0.594923)
(2.82423 0.361407 0.586694)
(2.78885 -0.108511 0.540926)
(2.47494 0.175073 0.360091)
(2.06038 0.835724 -0.238429)
(0.984641 1.23134 0.217826)
(0.152972 0.978658 -0.4134)
(0.0277461 0.717122 0.118005)
(-0.677754 0.348587 0.0248626)
(1.12602 0.656349 0.0966044)
(0.896367 -4.12774 0.22188)
(1.57457 -3.76303 0.499646)
(1.58337 -0.813219 0.177064)
(1.70176 -0.412833 0.374456)
(1.8151 -0.0916637 0.200779)
(1.5452 0.540402 -0.247023)
(0.981343 1.00328 -0.680437)
(0.732713 0.955022 -0.626373)
(0.215008 0.409805 -0.814821)
(-0.0361157 0.724032 -0.799607)
(-0.00444454 0.662886 -0.614098)
(-0.175838 0.59189 -0.743952)
(-0.573496 1.14582 -0.6208)
(0.0187635 1.0351 0.408015)
(0.619685 0.554613 0.0736203)
(0.512013 -0.555952 -0.129099)
(0.412143 -0.52135 -0.191985)
(0.476708 -0.136786 -0.500688)
(0.505149 0.147558 -0.457904)
(0.318394 0.250907 -0.627864)
(0.29266 0.529494 -0.938719)
(0.217507 1.06309 -0.872879)
(-0.0719646 0.962523 -0.99753)
(-0.452974 1.1463 -1.21345)
(-0.684957 1.07564 -1.22849)
(-0.861271 0.917011 -1.35417)
(-0.575048 1.19398 -1.07059)
(-0.434756 1.02574 0.103754)
(-0.259022 0.936436 -0.0981332)
(1.74095 1.06606 -0.0510293)
(2.35222 0.871901 -0.0677625)
(2.02726 1.06824 -0.0158923)
(2.76328 0.52777 0.13609)
(2.72402 0.638471 -0.0588842)
(2.36461 0.819386 -0.0330629)
(2.82296 0.255595 0.16754)
(2.88723 0.582295 0.209813)
(2.93288 0.635344 0.0414664)
(2.63572 0.916929 -0.00525614)
(3.10061 0.100907 0.321338)
(3.12719 0.394992 0.20977)
(3.12384 0.296941 0.17818)
(3.18411 0.458448 0.0306807)
(2.89854 0.723888 -0.115439)
(3.30117 -0.393356 0.66498)
(3.51543 -0.131965 0.533426)
(3.48941 -0.158215 0.394101)
(3.29025 -0.17904 0.340052)
(3.39693 -0.109851 0.0632412)
(3.06295 1.00121 0.0469191)
(3.32854 -0.317697 1.17703)
(3.59271 -0.34156 0.947899)
(3.61512 -0.592697 1.00983)
(3.63557 -0.781892 0.825971)
(3.44807 -0.601665 0.411078)
(3.49575 -0.539632 0.320613)
(3.20976 0.513021 -0.0851879)
(4.02253 -0.305816 0.701298)
(4.30699 -0.532873 0.897529)
(4.22322 -0.618812 1.1109)
(4.12156 -1.00709 1.35708)
(3.82999 -1.19991 1.33128)
(3.62297 -1.15483 0.810963)
(3.2911 -1.10682 0.202852)
(3.54772 0.686522 0.0155314)
(4.6802 0.00675684 1.41524)
(4.59079 0.184657 1.5592)
(4.77968 -0.26472 1.74421)
(4.55595 -0.856031 1.75503)
(3.94201 -1.72274 1.94247)
(3.88192 -1.70489 2.06138)
(3.11083 -2.6634 1.82101)
(3.76628 -1.38926 0.753621)
(3.68948 0.278821 0.323684)
(4.16927 0.00912548 1.96334)
(4.2558 -0.178928 2.29065)
(3.99287 -0.0401469 2.50789)
(3.49656 -0.777759 2.82771)
(3.81119 -0.346283 2.551)
(2.94872 -1.64983 2.64338)
(2.27888 -3.27874 2.82734)
(2.32713 -4.40887 1.47273)
(3.47523 -2.72664 1.34193)
(4.02763 -1.78572 0.695585)
(3.81237 -0.0897457 1.93555)
(3.83847 0.655131 1.88287)
(3.59996 0.202211 2.00238)
(3.22913 0.760293 2.272)
(2.78228 -0.323031 2.03129)
(1.96348 -1.28288 1.85556)
(1.52823 -2.8383 2.2897)
(2.38532 -3.74782 2.84821)
(2.22226 -4.81757 1.76489)
(1.99469 -5.21726 1.02352)
(2.91772 -2.87998 0.346638)
(3.17062 0.43456 1.56189)
(3.46062 0.50908 1.52748)
(3.51661 0.67143 1.25345)
(3.15005 0.778342 0.693582)
(2.604 0.419207 0.843243)
(1.97842 -0.435966 1.36178)
(1.72787 -0.388221 1.01875)
(2.15631 0.216264 1.935)
(0.458804 -1.86852 3.24739)
(1.23562 -4.56145 1.84402)
(3.07507 -4.88609 2.27564)
(2.697 -4.35444 0.390292)
(2.55283 -0.151765 0.8623)
(2.58452 0.130242 0.674012)
(2.82647 0.224775 0.530824)
(2.71575 -0.278092 0.524415)
(2.44982 0.175368 0.192844)
(1.98096 0.805215 -0.0817418)
(0.998043 1.03485 0.0558036)
(0.18739 0.971397 -0.346444)
(0.0121989 0.828151 0.168384)
(-0.512364 0.388693 -0.0344719)
(1.69827 0.887764 -0.104231)
(0.942208 -4.09374 0.536588)
(1.89456 -3.88633 0.584093)
(1.75993 -0.754246 0.605675)
(1.54178 -0.795418 0.24568)
(1.66248 -0.477783 0.207246)
(1.79277 -0.12505 0.166832)
(1.57088 0.490053 -0.191996)
(0.958007 0.93004 -0.673155)
(0.705903 0.918755 -0.59991)
(0.179201 0.386788 -0.729862)
(-0.0712746 0.690251 -0.78445)
(-0.0469924 0.625958 -0.633391)
(-0.186524 0.575274 -0.77079)
(-0.643373 1.27893 -0.759139)
(0.119684 0.994141 0.181681)
(0.605224 0.423289 0.101137)
(0.548193 -0.244203 -1.02349)
(0.495991 -0.560673 -0.0628646)
(0.433217 -0.449801 -0.0979078)
(0.493791 -0.0910137 -0.44822)
(0.509983 0.162149 -0.416613)
(0.308184 0.238953 -0.618252)
(0.272933 0.493637 -0.953475)
(0.188552 1.03904 -0.88298)
(-0.087555 0.97316 -0.967345)
(-0.397371 1.17788 -1.21194)
(-0.661463 1.06459 -1.23806)
(-0.84864 0.945854 -1.33825)
(-0.561139 1.14644 -1.16306)
(-0.47951 1.07333 0.124391)
(-0.171651 0.993709 -0.120021)
(1.66547 0.912454 0.024718)
(2.07969 0.726853 0.00271722)
(1.85529 0.897358 -0.0774512)
(2.62572 0.387829 -0.0477321)
(2.38128 0.711538 0.0265264)
(2.07906 0.888572 0.0395312)
(2.65007 0.564509 0.0535285)
(2.83319 0.396878 0.118973)
(2.77894 0.423969 -0.114029)
(2.41571 0.641598 -0.0394652)
(2.85822 0.0877613 0.24993)
(2.92386 0.548509 0.0820446)
(2.90384 0.419349 0.191193)
(3.03139 0.302743 -0.0204502)
(2.69032 0.791323 0.0447175)
(3.15488 0.102728 0.450205)
(3.11244 -0.116711 0.35725)
(3.08298 0.0991875 0.319364)
(3.15094 0.0919415 0.151978)
(3.19409 0.195274 0.0572845)
(2.89946 0.533718 -0.190354)
(3.27638 -0.299782 0.760166)
(3.37645 -0.448723 0.693002)
(3.45551 -0.459276 0.541784)
(3.3947 -0.310838 0.475218)
(3.20979 -0.421993 0.313454)
(3.38076 -0.58709 0.0740139)
(3.10295 0.869999 0.128065)
(3.2235 -0.302205 1.28123)
(3.47778 -0.0151559 1.1021)
(3.51746 -1.05982 1.04465)
(3.57582 -1.01337 1.04367)
(3.50177 -1.33293 0.7883)
(3.40205 -0.86654 0.338233)
(3.3464 -0.628467 0.243129)
(3.27462 0.18685 -0.113758)
(3.55642 -0.115887 0.963745)
(4.11126 -0.327768 0.649861)
(4.29259 -0.627927 0.914258)
(4.33242 -0.981878 1.08674)
(4.05323 -1.1196 1.4016)
(3.7115 -1.74475 1.34618)
(3.52466 -1.729 0.808192)
(3.35553 -1.20354 0.18965)
(3.56291 0.629878 0.0917825)
(4.6171 -0.198933 1.39084)
(4.73359 -0.0207959 1.36808)
(4.67532 -0.0414398 1.85903)
(4.7014 -0.436469 1.96531)
(4.45555 -1.33084 1.7823)
(3.82619 -1.7457 1.98843)
(3.19588 -2.61842 2.21618)
(2.12436 -3.51697 1.64032)
(3.80911 -1.5875 0.809878)
(3.67933 0.149012 0.142664)
(4.27336 -0.328201 1.98103)
(4.20161 -0.429458 2.12127)
(4.21377 -0.324148 2.27368)
(3.96924 -0.434654 2.58592)
(3.59141 -0.639259 2.59804)
(2.65927 -2.235 2.99697)
(2.65151 -2.05742 2.67999)
(2.11213 -3.82675 2.52039)
(2.3586 -4.27009 1.36337)
(3.17063 -2.75401 1.16452)
(3.96154 -1.68345 0.67934)
(3.58931 0.0433078 2.05792)
(3.94538 -0.304464 2.10921)
(3.99504 0.205936 1.94125)
(3.58488 0.344852 2.01159)
(3.11408 0.406511 2.32617)
(2.80784 -0.658672 1.83031)
(2.12549 -1.27072 1.70139)
(1.13426 -3.43391 2.0211)
(2.20389 -4.26958 2.46953)
(2.07186 -4.85472 1.85069)
(2.54469 -4.60197 0.786895)
(2.29313 -3.20125 0.417387)
(3.08579 0.214848 1.30451)
(3.21795 0.35285 1.57429)
(3.4419 0.26001 1.53589)
(3.53635 0.419849 1.49259)
(3.17401 0.594023 0.559684)
(2.52491 0.376581 0.936554)
(1.40951 -1.31184 1.46708)
(1.7374 -0.377001 1.00215)
(2.36219 0.247505 2.11554)
(0.0708411 -2.84697 3.16444)
(2.05349 -4.63606 2.02118)
(2.97329 -4.99802 2.1199)
(3.4241 -4.11451 0.41277)
(2.46855 -0.881663 1.18232)
(2.55885 -0.130422 0.785067)
(2.50212 -0.0894931 0.744704)
(2.84757 0.137201 0.541989)
(2.67896 -0.331959 0.627358)
(2.35186 -0.107019 0.422225)
(1.92877 0.717733 0.150321)
(1.11726 0.959885 -0.018601)
(0.155069 0.941606 -0.375744)
(-0.0640675 0.849242 0.142235)
(-0.104801 0.480914 0.0707242)
(1.97815 0.809224 0.173477)
(1.12704 -4.03181 0.863543)
(1.62758 -4.1754 0.555804)
(1.53857 -1.345 0.557613)
(1.77956 -0.631176 0.65891)
(1.51688 -0.781347 0.278065)
(1.64779 -0.516812 0.168589)
(1.74717 -0.158051 0.214703)
(1.59385 0.434788 -0.101526)
(0.971669 0.867992 -0.638788)
(0.670037 0.857723 -0.563151)
(0.156572 0.39952 -0.653396)
(-0.0956052 0.660388 -0.763056)
(-0.106412 0.575232 -0.664863)
(-0.177942 0.586639 -0.735877)
(-0.824452 1.38511 -0.875587)
(0.220271 0.917206 -0.0977136)
(0.56264 0.273766 0.105902)
(0.365324 0.732779 -0.150532)
(0.577276 -0.248156 -0.978079)
(0.481589 -0.575536 -0.0146259)
(0.456316 -0.387942 -0.0145959)
(0.510373 -0.0568175 -0.407567)
(0.516519 0.171012 -0.379983)
(0.301114 0.23768 -0.59987)
(0.248624 0.464946 -0.965616)
(0.193864 1.02984 -0.863614)
(-0.0415232 0.970824 -0.942093)
(-0.374602 1.20029 -1.20521)
(-0.68505 1.105 -1.25832)
(-0.815065 0.936121 -1.34597)
(-0.606458 1.18096 -1.20513)
(-0.400715 1.0877 0.065055)
(-0.235187 1.02959 -0.117419)
(1.62004 0.925574 0.00809557)
(1.91834 0.885205 0.0627256)
(1.77507 0.768666 0.0334159)
(2.26031 0.657104 0.000734153)
(2.11017 0.57568 -0.00574831)
(1.89408 0.829572 -0.0714333)
(2.63488 0.078165 0.071928)
(2.59851 0.504401 -0.0199465)
(2.39598 0.620643 0.0164011)
(2.1191 0.776006 0.0539647)
(2.7707 0.347365 0.082594)
(2.80552 0.144299 0.07185)
(2.86247 0.1107 0.0102864)
(2.79466 0.359933 -0.0854808)
(2.4498 0.546918 -0.0803064)
(2.96666 0.162703 0.429718)
(2.90503 0.0362182 0.232355)
(2.99814 0.0992128 0.057004)
(2.98381 0.0156357 0.128887)
(3.04755 0.0831058 0.0265638)
(2.74043 0.449597 0.0571222)
(3.17611 -0.150533 0.700834)
(3.08148 -0.291374 0.454749)
(3.12681 -0.199547 0.355858)
(3.04285 -0.145425 0.303063)
(3.11408 -0.225634 0.16942)
(3.11274 -0.314685 0.0329613)
(2.97135 0.0745788 -0.210371)
(3.27851 -0.236298 0.866874)
(3.36179 -0.477385 0.800959)
(3.39317 -0.592883 0.704987)
(3.34276 -0.816921 0.620021)
(3.21193 -0.608543 0.527086)
(3.19436 -0.731827 0.272912)
(3.39659 -0.531926 0.0810074)
(3.08654 0.710502 0.376027)
(3.2666 -0.312812 1.29646)
(3.35402 -0.488962 1.28882)
(3.44541 -0.915641 1.2027)
(3.55465 -1.1425 1.0662)
(3.49517 -1.37277 0.947309)
(3.48215 -1.23579 0.754481)
(3.30178 -1.13721 0.34908)
(3.17962 -0.730114 0.212502)
(3.30735 -0.108635 -0.0643733)
(3.54221 -0.332847 1.0247)
(3.86358 -0.442497 0.516764)
(4.06773 -1.03273 0.207717)
(4.22495 -0.794385 0.930695)
(4.31647 -0.992091 1.27556)
(3.9264 -1.8358 1.50327)
(3.60404 -2.06768 1.38395)
(3.08263 -2.02976 0.95675)
(3.58788 -1.31418 0.173966)
(3.47981 -0.06847 0.244567)
(4.65805 -0.649983 1.24176)
(4.79235 -0.438681 1.36748)
(4.66773 -0.128946 1.36565)
(4.77478 -0.386297 1.95842)
(4.57669 -0.908161 1.96225)
(4.13923 -1.69739 1.92211)
(3.45167 -2.34074 2.09804)
(2.74652 -3.02145 2.17085)
(2.10685 -3.19385 1.61526)
(3.156 -2.49381 0.934509)
(3.6986 0.0753805 0.0248281)
(4.10859 -0.814181 2.06933)
(4.2497 -0.669998 2.06837)
(4.25018 -0.655401 2.14524)
(3.97615 -0.611532 2.59991)
(3.80617 -0.776508 2.59118)
(3.24639 -1.44872 2.80563)
(2.86806 -1.68725 2.73991)
(2.01623 -2.93255 2.62995)
(1.92871 -4.23542 2.29959)
(2.4506 -3.83566 1.82113)
(2.58783 -3.12668 1.14457)
(3.93612 -1.60901 0.671802)
(3.54136 0.316475 1.95593)
(3.80843 -0.394581 2.0395)
(4.11862 -0.505952 2.04427)
(4.03701 -0.0267723 2.05539)
(3.68887 0.0520093 1.74259)
(3.16426 0.0902884 2.06145)
(2.8092 -0.502185 1.77736)
(2.12721 -1.245 1.80234)
(1.51661 -3.89458 1.54478)
(2.03775 -4.51914 2.1666)
(2.2899 -4.67965 1.79495)
(3.0152 -4.01133 0.757662)
(2.10861 -3.02469 0.685424)
(3.02975 0.00781964 1.25771)
(2.97268 0.135987 1.34938)
(3.2009 0.130462 1.42995)
(3.47785 -0.337667 1.61121)
(3.54446 0.26923 1.32976)
(3.12982 0.432405 0.553628)
(2.3562 0.175984 1.04236)
(1.50989 -0.98791 1.00426)
(1.69242 -0.445438 1.00856)
(1.34058 -1.34472 2.97162)
(-0.116185 -3.57885 2.64436)
(2.22203 -5.0015 2.16327)
(2.8991 -4.9919 1.85706)
(3.90099 -4.02964 0.366205)
(2.62159 -0.614254 0.838394)
(2.63122 -0.599398 0.830663)
(2.4656 -0.201397 0.935113)
(2.49179 0.0591143 0.518484)
(2.6118 -0.0647494 0.474336)
(2.57477 -0.417305 0.683373)
(2.27204 -0.217796 0.36851)
(1.84955 0.553078 0.314216)
(1.17843 0.893433 -0.0129244)
(0.169098 0.965511 -0.373052)
(-0.0398444 0.7973 0.0529718)
(0.324466 0.544056 0.271584)
(1.74306 0.227531 0.719738)
(1.21218 -4.08696 0.889233)
(1.45052 -4.27206 0.38924)
(1.38189 0.447489 0.625153)
(1.51387 -1.48694 0.699537)
(1.8767 -0.416787 0.689265)
(1.49698 -0.747457 0.335387)
(1.61332 -0.339039 0.52956)
(1.70364 -0.274269 0.230207)
(1.60092 0.405312 -0.0559468)
(0.967923 0.80597 -0.623718)
(0.625678 0.79714 -0.510408)
(0.114152 0.376004 -0.594675)
(-0.127828 0.627202 -0.761746)
(-0.129818 0.563718 -0.671921)
(-0.163088 0.636726 -0.700847)
(-0.675032 1.46953 -0.844428)
(0.253735 0.891738 -0.218323)
(0.462977 0.140087 0.0824946)
(0.642271 0.676517 -0.0342551)
(0.381637 0.636604 -0.189713)
(0.594502 -0.299419 -0.895195)
(0.434237 -0.603992 0.0503692)
(0.480127 -0.337031 0.0506415)
(0.524308 -0.0350441 -0.381616)
(0.522864 0.175649 -0.35386)
(0.29475 0.235268 -0.57871)
(0.216268 0.443463 -0.977815)
(0.156912 1.00796 -0.878297)
(-0.0585799 0.96642 -0.92114)
(-0.332752 1.21235 -1.18649)
(-0.721389 1.14698 -1.20962)
(-0.786008 0.950149 -1.34886)
(-0.596457 1.17968 -1.24601)
(-0.374896 1.09897 0.0566102)
(-0.161063 1.02443 -0.125825)
(1.57318 0.884859 0.0158314)
(1.90921 0.809233 0.102815)
(1.68297 0.826757 0.00698941)
(2.14145 0.7026 0.212148)
(1.98507 0.734432 0.0907778)
(1.84495 0.61948 0.0505281)
(2.41475 0.397431 0.187476)
(2.31115 0.527691 -0.00299862)
(2.17906 0.439002 -0.011202)
(2.01877 0.51952 -0.061384)
(2.60208 0.260532 0.108559)
(2.67266 0.0958215 0.115995)
(2.62219 0.255644 0.066457)
(2.49903 0.390734 -0.00565535)
(2.2251 0.568617 0.0582847)
(2.76541 0.241687 0.350526)
(2.84697 -0.0157502 -0.00870342)
(2.82492 0.028628 0.0690906)
(2.89359 -0.223888 -0.0165775)
(2.75656 0.126629 -0.0802258)
(2.47756 0.3609 0.0101118)
(3.06356 -0.0429794 0.396758)
(2.96881 -0.0212888 0.321063)
(2.94489 -0.191811 0.188533)
(2.92426 -0.176337 0.0209455)
(3.00825 -0.29076 0.143907)
(2.98942 -0.133324 0.055146)
(2.73729 0.226862 0.080492)
(3.19669 -0.130937 0.709758)
(3.1075 -0.324923 0.656093)
(3.0497 -0.474792 0.511725)
(3.08625 -0.416005 0.371461)
(3.04204 -0.469648 0.306843)
(3.05927 -0.555921 0.138457)
(3.09898 -0.43656 -0.0167024)
(3.0213 -0.114091 -0.248731)
(3.27798 -0.257637 0.955231)
(3.2797 -0.523285 0.893461)
(3.32043 -0.701924 0.879056)
(3.34346 -0.957903 0.751141)
(3.29002 -0.995146 0.647711)
(3.07864 -0.951879 0.501378)
(3.13363 -0.891617 0.236308)
(3.33372 -0.519911 0.166106)
(3.16014 -0.288249 -0.0606808)
(3.34748 -0.409321 1.34086)
(3.31345 -0.652947 1.30874)
(3.40955 -0.595406 1.27579)
(3.581 -0.886774 1.08654)
(3.58948 -1.37985 0.940219)
(3.34525 -1.91706 0.661711)
(3.22436 -1.78697 0.68288)
(3.18941 -1.5571 0.363605)
(3.1672 -0.884907 0.253984)
(3.28182 -0.329179 -0.0370085)
(3.77713 -0.178464 0.957127)
(3.60958 -0.859365 0.799491)
(4.03413 -0.497418 0.396527)
(4.11758 -1.28446 0.077497)
(4.18277 -0.959074 1.1914)
(4.1786 -1.43917 1.50259)