/*--------------------------------*- C++ -*----------------------------------*\
  =========                 |
  \\      /  F ield         | OpenFOAM: The Open Source CFD Toolbox
   \\    /   O peration     | Website:  https://openfoam.org
    \\  /    A nd           | Version:  7
     \\/     M anipulation  |
\*---------------------------------------------------------------------------*/
FoamFile
{
    version     2.0;
    format      ascii;
    class       volVectorField;
    location    "10";
    object      U_0;
}
// * * * * * * * * * * * * * * * * * * * * * * * * * * * * * * * * * * * * * //

dimensions      [0 1 -1 0 0 0 0];

internalField   nonuniform List<vector> 
18750
(
(-0.686539 0.31745 0.276272)
(-1.95971 -0.434053 -0.260862)
(-0.262159 0.633216 0.120229)
(-0.638408 0.402083 0.24224)
(1.75961 -1.16358 0.957743)
(-1.45294 0.974922 0.938684)
(-1.83427 -0.294073 -0.365461)
(-0.421003 0.755954 -1.17161)
(-0.287129 0.667139 0.180127)
(-0.591687 0.488799 0.208914)
(5.42827 0.45958 1.16126)
(0.878542 1.20639 1.46138)
(1.51848 -2.30212 1.0867)
(-0.14371 0.73816 0.324813)
(-1.39805 1.14372 1.05552)
(-1.62401 -0.0421177 -0.447666)
(-0.896882 0.634968 -1.36687)
(-0.448616 0.808058 -1.13467)
(-0.301782 0.700755 0.227637)
(-0.527963 0.568686 0.152205)
(4.89449 1.30702 0.74061)
(3.95285 0.202371 2.06101)
(5.27055 -0.126455 1.16634)
(-0.510378 0.636268 1.26395)
(0.83698 0.311019 1.35909)
(1.55736 -2.37416 1.20292)
(-0.0117346 0.854265 -0.723979)
(-0.205316 0.777402 0.309644)
(-1.24657 1.28785 1.13298)
(-1.36197 0.225527 -0.483527)
(-0.801086 0.871835 -1.22999)
(-0.909352 0.666405 -1.34971)
(-0.456038 0.850836 -1.11476)
(-0.330242 0.71502 0.271304)
(-0.492771 0.640473 0.169936)
(3.74104 2.65092 -0.757218)
(3.80432 1.62495 2.28436)
(5.19494 1.25948 0.651337)
(0.657673 -0.575264 2.04502)
(3.70013 -0.605608 2.06634)
(5.06205 -0.13984 1.06887)
(-0.00252619 0.0497381 0.0583151)
(-0.581641 0.724213 1.42324)
(0.705865 -0.41334 1.46068)
(1.67136 -2.28648 1.32647)
(0.167932 0.77097 -0.752833)
(-0.0390895 0.827713 -0.686087)
(-0.258665 0.801337 0.287322)
(-1.17201 1.3956 1.13445)
(-1.10763 0.42022 -0.494695)
(-0.496956 1.08489 -1.26009)
(-0.815452 0.922729 -1.184)
(-0.893983 0.688366 -1.35729)
(-0.486976 0.89474 -1.08485)
(-0.348809 0.738042 0.289924)
(-0.466502 0.681378 0.111402)
(3.38637 1.64561 0.474482)
(4.9883 0.675956 1.73)
(3.99402 2.94188 -1.04414)
(3.12056 -0.238668 2.24932)
(4.14586 1.27919 2.2655)
(5.27143 1.55553 0.223923)
(0.0658846 0.433666 0.860815)
(0.681739 -0.648233 1.5675)
(3.30965 -1.10627 1.93421)
(4.85863 -0.486403 0.973612)
(0.504506 0.432638 -0.0314414)
(-0.103788 0.058702 0.18586)
(-0.503922 0.648863 1.5403)
(0.615535 -1.68315 1.52472)
(1.68807 -2.67391 1.28165)
(0.0612396 0.852541 -1.02146)
(0.158135 0.713376 -0.738026)
(-0.0686512 0.795631 -0.653868)
(-0.311142 0.81831 0.246792)
(-0.996662 1.48098 1.08405)
(-0.881572 0.504819 -0.507735)
(-0.0507159 1.15403 -1.094)
(-0.543732 1.07751 -1.23729)
(-0.748542 0.940553 -1.1946)
(-0.899876 0.714284 -1.35815)
(-0.492274 0.943629 -1.05815)
(-0.403126 0.762353 0.32695)
(-0.383311 0.702009 0.0733648)
(2.73956 1.86782 0.140569)
(4.4968 1.46575 -0.417274)
(3.47421 1.55481 0.311824)
(4.64594 0.245314 1.94193)
(5.12033 -1.40539 2.59856)
(4.228 2.63558 -0.957957)
(2.60819 -0.237802 2.25553)
(2.5952 -1.03225 2.23241)
(4.2756 -0.14458 2.38416)
(5.40479 1.32324 -0.18665)
(0.724137 1.02174 0.612049)
(-0.0127359 0.609468 0.76976)
(0.688081 -0.457471 1.15294)
(3.15927 -1.43234 1.70864)
(4.40137 -1.22377 1.10868)
(0.106536 0.822753 -0.636386)
(0.418661 0.480147 0.0169927)
(-0.231108 0.0694888 0.27414)
(-0.60231 0.672962 1.6195)
(0.565808 -2.07551 1.19236)
(1.63049 -3.03603 1.16746)
(0.519731 0.903269 -1.07886)
(0.0611752 0.83371 -0.973347)
(0.1372 0.687722 -0.714385)
(-0.0902751 0.784047 -0.609193)
(-0.356191 0.831584 0.173453)
(-0.776607 1.53325 1.0138)
(-0.643545 0.565907 -0.509174)
(0.227804 1.06074 -1.01966)
(-0.0543239 1.12494 -1.08222)
(-0.50192 1.08625 -1.23182)
(-0.781589 0.94783 -1.20887)
(-0.882388 0.751671 -1.36095)
(-0.508631 0.972963 -1.05427)
(-0.38279 0.810597 0.266585)
(-0.38009 0.733806 0.0700317)
(2.55799 1.75008 -0.159208)
(3.32758 1.24048 0.610962)
(2.76753 2.04885 0.14776)
(4.44051 0.648605 1.22761)
(4.73111 0.810879 -0.408406)
(3.7671 0.961167 0.286178)
(4.25271 0.500728 2.26899)
(4.17169 -0.661074 2.20151)
(5.40287 -2.39021 2.63194)
(4.37019 1.90852 -0.789346)
(1.79791 -0.759306 1.85634)
(2.38766 -0.469294 2.3301)
(2.32936 -0.861487 2.01752)
(3.46774 -4.04366 2.70369)
(5.5195 1.0879 -0.643408)
(1.26965 0.320427 0.45361)
(0.894934 1.04567 1.08277)
(0.068779 0.851274 0.900249)
(0.761348 -0.310528 0.886522)
(2.7161 -3.47559 0.847569)
(3.89642 -1.51954 1.2027)
(0.716321 1.28145 -0.810282)
(0.112989 0.882115 -0.601526)
(0.332366 0.516756 0.111382)
(-0.371855 0.0842827 0.332703)
(-0.547994 0.622715 1.70384)
(0.87027 -2.38757 -0.53554)
(1.31038 -3.39807 0.952963)
(0.765224 1.07077 -0.811403)
(0.481844 0.87718 -1.00033)
(0.0408208 0.778451 -0.971119)
(0.134876 0.716418 -0.645566)
(-0.109643 0.747848 -0.614343)
(-0.396245 0.835021 0.0405343)
(-0.580418 1.53594 0.932678)
(-0.379378 0.665125 -0.448657)
(0.408062 0.74474 -0.844954)
(0.232097 1.04918 -0.996445)
(-0.0565377 1.10635 -1.06024)
(-0.472869 1.0944 -1.2395)
(-0.792338 1.00126 -1.17168)
(-0.89481 0.774238 -1.36813)
(-0.520558 1.02158 -1.03721)
(-0.359501 0.818778 0.2221)
(-0.440181 0.74213 0.0229829)
(2.73049 1.63376 -0.152647)
(3.18312 1.25935 0.890562)
(2.59025 1.6973 -0.0982817)
(3.93264 1.25243 0.693101)
(3.45313 0.558997 0.385447)
(3.0929 1.61343 0.0475119)
(4.47495 0.315108 1.52762)
(4.4008 0.146709 1.40811)
(4.6404 0.776238 -0.356971)
(3.79168 0.990697 0.229438)
(4.17698 0.471905 1.9844)
(4.16614 -0.445533 2.3139)
(4.09635 -1.16803 2.15526)
(5.15864 -2.45665 2.55663)
(4.98788 0.521704 -0.455217)
(2.25688 -0.855213 1.83827)
(1.73857 -0.816915 2.18152)
(2.39789 -0.902007 2.16701)
(2.89931 -0.696593 1.73392)
(3.25925 -4.82172 2.49348)
(5.1569 0.177107 -0.556079)
(2.17955 0.38276 1.22368)
(1.43383 0.148383 0.854761)
(1.03108 0.845014 1.64009)
(0.239386 0.519628 1.08308)
(0.816614 -0.467758 0.69325)
(2.13668 -4.65214 0.343909)
(3.52866 -1.97376 0.992653)
(2.00579 1.31306 -0.0236759)
(0.803263 1.32933 -0.672212)
(0.121384 0.901396 -0.602961)
(0.250545 0.534065 0.180988)
(-0.488606 0.120777 0.365829)
(-0.609883 0.416415 1.76187)
(1.08169 -2.48364 -1.86537)
(0.992397 -3.68014 0.732655)
(0.921201 1.42081 -0.593621)
(0.750399 1.06345 -0.694236)
(0.461968 0.815903 -0.935171)
(0.0216466 0.743595 -0.972422)
(0.100158 0.703248 -0.621425)
(-0.117258 0.760318 -0.552979)
(-0.413983 0.845986 -0.088908)
(-0.420595 1.48136 0.847418)
(-0.0208802 0.76106 -0.284301)
(0.36923 0.299292 -0.646667)
(0.387534 0.722429 -0.849365)
(0.248397 1.05382 -0.949239)
(-0.0617064 1.07917 -1.04771)
(-0.498006 1.0954 -1.2443)
(-0.732828 0.998043 -1.18761)
(-0.892957 0.80499 -1.37059)
(-0.52832 1.05257 -1.04582)
(-0.454967 0.89805 0.288587)
(-0.338123 0.783437 -0.0538387)
(2.65008 1.15871 -0.0682668)
(2.99501 1.16272 0.285182)
(2.77463 1.59384 -0.0940966)
(3.52132 1.14647 0.351724)
(3.33688 1.05645 0.597985)
(2.97726 0.970089 -0.0729443)
(4.19237 0.283055 0.996172)
(3.95467 1.00462 0.648649)
(3.39964 0.63119 0.380688)
(3.16632 1.61137 -0.0373636)
(4.53684 -0.169587 1.63794)
(4.64844 -0.661155 1.62676)
(4.41832 -1.3077 1.83776)
(4.57155 0.412929 -0.0764763)
(3.78197 0.929872 0.165408)
(3.7709 -0.181074 2.51719)
(4.11116 0.0922376 2.07352)
(3.97622 -0.872639 2.39918)
(3.96532 -2.85125 2.3405)
(4.37439 -3.3785 2.47833)
(5.15679 0.584751 -0.130512)
(2.99722 -0.0818739 1.97895)
(2.3353 -0.288609 2.20666)
(1.87305 -1.02965 2.32178)
(2.50566 -1.83728 1.60836)
(1.88325 -3.03422 1.76944)
(3.33958 -4.64969 2.1618)
(4.50256 -0.939085 -0.121889)
(2.76679 0.819797 0.413363)
(2.24302 0.156353 1.19844)
(1.469 0.179518 1.30817)
(1.17083 0.552136 1.83977)
(0.37149 0.0978203 1.09804)
(1.20007 -0.830979 0.645386)
(2.24862 -4.36359 1.79488)
(2.96005 -3.27944 0.49816)
(2.4894 0.341729 0.0311472)
(2.03155 1.24591 -0.105763)
(0.872952 1.32889 -0.551356)
(0.10333 0.90424 -0.569719)
(0.197979 0.551595 0.226145)
(-0.568733 0.166488 0.424233)
(-0.360359 0.367156 1.70518)
(1.1693 -2.88067 -1.5474)
(1.08904 -3.76703 0.695902)
(1.46254 0.906767 -0.357399)
(0.951096 1.32087 -0.606669)
(0.767659 0.983228 -0.691031)
(0.472398 0.794826 -0.821573)
(0.023224 0.756754 -0.915652)
(0.103339 0.73394 -0.540351)
(-0.137554 0.693507 -0.604138)
(-0.450132 0.884093 -0.26035)
(-0.293337 1.38262 0.765729)
(0.200432 0.786417 -0.177906)
(0.50305 0.0616772 -0.604407)
(0.357194 0.289258 -0.646442)
(0.369972 0.665812 -0.881322)
(0.233757 1.04384 -0.936834)
(-0.0599782 1.08122 -1.01618)
(-0.479173 1.12073 -1.22122)
(-0.744277 1.01654 -1.19177)
(-0.866555 0.825784 -1.36845)
(-0.547281 1.06049 -1.08373)
(-0.492769 0.916024 0.21486)
(-0.298184 0.828341 -0.0780025)
(2.52898 0.941236 0.204467)
(2.84443 1.18654 -0.0868105)
(2.62619 1.31318 -0.136399)
(3.26188 0.834666 0.328935)
(3.20263 0.682107 0.385601)
(2.8429 1.3651 -0.0703545)
(3.75419 0.670776 0.799041)
(3.637 0.858326 0.405252)
(3.46333 0.723774 0.470608)
(3.03901 1.1882 -0.186582)
(4.24312 -0.204079 1.17921)
(4.05911 -0.406665 1.23408)
(3.90185 -0.0528502 0.705191)
(3.54356 0.124455 0.322221)
(3.29549 1.37215 -0.0268276)
(4.41929 0.0663325 1.69135)
(4.52861 -0.291625 1.85576)
(4.53782 -0.788173 1.81968)
(4.35367 -1.5006 1.92647)
(4.3592 -0.627948 0.321698)
(3.89443 0.7155 0.0810104)
(3.79218 0.34936 2.92149)
(3.9175 0.209977 2.42461)
(3.77883 -0.758351 2.49183)
(3.51062 -1.83503 2.56581)
(3.63101 -3.1492 2.07612)
(3.72888 -4.04963 2.45197)
(5.0785 -0.479637 -0.167067)
(3.02901 1.15899 2.30195)
(2.96855 0.351355 2.24858)
(2.24371 -0.525544 2.20747)
(1.75668 -1.66089 2.192)
(2.37334 -1.94816 2.1472)
(1.92532 -3.86001 0.948844)
(3.18248 -4.57022 1.88022)
(3.79201 -2.26923 0.21055)
(3.1961 0.860727 0.546215)
(2.77811 0.610591 0.541155)
(2.15238 0.179312 1.3553)
(1.50193 0.116357 1.44259)
(1.40495 0.252023 1.78365)
(0.441423 -0.256879 1.05596)
(1.26858 -1.72112 1.25195)
(2.67582 -4.09802 2.8451)
(2.8184 -3.66863 0.431576)
(2.8662 -0.165749 0.302198)
(2.4513 0.337673 0.176175)
(2.14458 1.00668 -0.303174)
(0.953182 1.34495 -0.304519)
(0.124237 0.959349 -0.474646)
(0.151119 0.615439 0.210363)
(-0.643287 0.240191 0.376508)
(0.0265274 0.315807 1.53003)
(0.848552 -3.82043 0.00116495)
(1.28147 -3.83669 0.643033)
(1.8266 -0.031644 0.260013)
(1.49153 0.786738 -0.367357)
(0.960947 1.2028 -0.627587)
(0.743187 0.972196 -0.71418)
(0.397724 0.687669 -0.812927)
(0.0381925 0.768187 -0.862844)
(0.0462084 0.697872 -0.588254)
(-0.133731 0.671782 -0.634262)
(-0.470321 0.929624 -0.341454)
(-0.162321 1.25992 0.672921)
(0.427787 0.75197 -0.0684446)
(0.460262 -0.253732 -0.658432)
(0.503715 0.0869602 -0.555889)
(0.343926 0.280122 -0.646602)
(0.350414 0.616665 -0.904832)
(0.222806 1.0376 -0.92991)
(-0.0515858 1.04252 -1.01364)
(-0.450398 1.13361 -1.21984)
(-0.716006 1.05459 -1.21094)
(-0.865132 0.858528 -1.3593)
(-0.53345 1.14097 -1.05383)
(-0.405952 0.898585 0.168601)
(-0.367083 0.886632 -0.0868981)
(2.16805 1.2782 -0.0401522)
(2.70646 1.00501 0.0622475)
(2.39675 1.44862 -0.0573447)
(3.07323 0.537921 0.262957)
(2.97228 0.82845 0.115008)
(2.80544 0.959156 -0.0831143)
(3.42925 0.360803 0.371938)
(3.34445 0.715113 0.243537)
(3.35637 0.400461 0.307332)
(3.00627 1.03806 -0.145027)
(3.72895 0.0598539 0.891866)
(3.72724 0.208652 0.805668)
(3.61637 0.403351 0.334493)
(3.58556 0.306996 0.52914)
(3.1755 0.879206 -0.1023)
(4.28538 -0.274355 1.23693)
(4.23875 -0.398094 1.17119)
(3.98624 -0.589754 1.27313)
(3.74424 -0.320972 0.860418)
(3.50834 -0.461539 0.184375)
(3.31792 1.22551 -0.0741431)
(4.50635 0.232883 1.89898)
(4.44102 -0.272456 1.8031)
(4.56491 -0.835756 1.68199)
(4.14147 -1.46821 2.00693)
(4.07104 -1.88331 1.87535)
(4.00924 -1.30836 0.782786)
(3.98706 0.663995 0.12437)
(4.12614 0.0822189 2.61983)
(3.86064 0.544688 2.73485)
(3.8493 -0.294411 2.40653)
(3.53794 -1.02386 2.46829)
(3.4126 -1.73423 2.436)
(2.75586 -3.98057 1.80014)
(3.66467 -4.0089 1.99586)
(4.65446 -1.32603 0.207697)
(3.59196 0.956167 1.7205)
(3.30056 0.674728 2.2119)
(2.82844 0.235713 2.35281)
(2.18418 -0.59088 2.0656)
(1.70807 -2.2735 1.93844)
(2.07336 -2.83696 2.1869)
(1.81518 -4.70727 0.890305)
(3.0354 -4.79823 1.79886)
(3.37289 -2.55631 0.321577)
(3.43222 0.719036 0.819851)
(3.16478 0.903381 0.660868)
(2.7535 0.537212 0.711001)
(2.07221 0.0762355 1.43575)
(1.53063 -0.0480804 1.38314)
(1.44075 0.184056 1.75319)
(0.663921 -0.753943 1.17831)
(0.954362 -3.16088 2.00635)
(2.54217 -4.77789 2.00675)
(3.04583 -3.44938 0.595436)
(2.92524 0.107684 0.401878)
(2.86116 -0.267874 0.353772)
(2.45706 0.157703 0.313707)
(2.09068 1.08147 -0.233032)
(0.974144 1.3068 -0.146352)
(0.138081 0.987536 -0.436394)
(0.0841935 0.635482 0.118747)
(-0.695153 0.299881 0.150749)
(0.521675 0.381132 0.855031)
(0.781497 -4.05766 0.388322)
(1.39817 -3.85024 0.509149)
(1.79168 -0.340339 0.57336)
(1.84751 -0.00726351 0.260315)
(1.5378 0.616437 -0.332504)
(0.969201 1.10309 -0.649039)
(0.746757 0.957168 -0.690235)
(0.309736 0.558098 -0.811451)
(-0.0144857 0.727706 -0.860089)
(0.0449739 0.694775 -0.598786)
(-0.152471 0.642957 -0.685999)
(-0.472225 1.00945 -0.476429)
(-0.0472441 1.12431 0.54559)
(0.571488 0.670584 0.0124567)
(0.393153 -0.616298 -0.304744)
(0.467867 -0.195311 -0.577786)
(0.507376 0.120518 -0.510848)
(0.335558 0.257118 -0.645741)
(0.327729 0.5767 -0.923235)
(0.228267 1.05939 -0.896302)
(-0.0879897 1.01661 -0.988878)
(-0.454037 1.13063 -1.2291)
(-0.734452 1.08285 -1.20016)
(-0.842691 0.89662 -1.36008)
(-0.565238 1.10237 -1.14012)
(-0.443921 0.933828 0.201275)
(-0.24469 0.931509 -0.108126)
(2.0372 1.03849 -0.0243043)
(2.72395 0.687367 0.132025)
(2.33818 0.95465 0.0163824)
(2.81847 0.754928 0.180102)
(2.94023 0.605278 0.102986)
(2.56808 1.09862 0.0198624)
(3.15606 0.513626 0.137245)
(3.07536 0.614799 0.209284)
(3.13588 0.346025 0.196082)
(2.81658 0.917003 -0.0897471)
(3.43825 -0.22209 0.437659)
(3.46104 0.236145 0.400368)
(3.34046 0.434967 0.239902)
(3.42229 0.131968 0.152862)
(2.98245 1.15957 -0.097701)
(3.58369 -0.00913743 0.943125)
(3.6794 -0.205947 0.977556)
(3.69605 -0.379549 0.88979)
(3.51836 -0.238515 0.336421)
(3.547 -0.00361709 0.408548)
(3.21385 0.521109 -0.0777879)
(4.35184 -0.324868 0.950961)
(4.21256 -0.414829 1.12214)
(4.19515 -0.632654 1.21967)
(3.92646 -0.788119 1.27424)
(3.7011 -0.88156 0.87966)
(3.37432 -0.953586 0.191417)
(3.44725 0.831089 -0.079535)
(4.62909 0.28924 1.33365)
(4.53462 0.0909729 1.86901)
(4.57573 -0.613992 1.55571)
(4.2477 -1.0261 2.10531)
(3.98466 -1.62202 2.01705)
(3.64867 -2.15133 1.74832)
(3.86559 -1.60327 0.97894)
(3.86751 0.414018 0.365564)
(4.21445 0.0835537 2.32391)
(3.9953 0.198075 2.61745)
(3.89947 0.0040141 2.68044)
(3.77178 -0.438617 2.44321)
(3.33884 -1.10812 2.5303)
(3.00502 -2.3572 2.56578)
(2.50799 -4.16813 1.64398)
(3.41829 -3.60784 1.36627)
(4.37 -1.58009 0.45114)
(3.70677 0.760055 1.87105)
(3.50976 0.96546 1.91289)
(3.10809 1.01909 2.47646)
(2.74619 -0.18399 2.19175)
(2.1132 -0.964267 1.92742)
(1.73916 -2.39112 2.22754)
(1.9678 -3.42902 2.56922)
(1.97359 -4.91724 1.2312)
(2.64714 -5.00566 1.68652)
(3.07582 -2.93224 0.395476)
(3.35889 0.674243 1.61226)
(3.47136 0.558838 0.96753)
(3.1679 0.820995 0.662051)
(2.58022 0.566624 1.14436)
(2.04993 -0.00633532 1.43641)
(1.55758 -0.20582 1.27014)
(1.90401 -0.224972 1.5277)
(0.884223 -0.885134 2.29006)
(0.801405 -4.1636 2.20056)
(2.45803 -5.24552 1.54818)
(3.28263 -3.47086 0.411226)
(2.6445 0.149582 0.597209)
(2.83163 0.330693 0.579177)
(2.79546 -0.130444 0.521263)
(2.47148 0.145741 0.371644)
(2.06412 0.838906 -0.254085)
(0.985096 1.23812 0.18985)
(0.159648 0.975039 -0.429343)
(0.0459306 0.706786 0.103604)
(-0.675091 0.340311 0.0112715)
(1.06369 0.632997 0.11593)
(0.868154 -4.13971 0.250165)
(1.4818 -3.81261 0.476815)
(1.59175 -0.838478 0.161054)
(1.71622 -0.415574 0.420958)
(1.82538 -0.096494 0.213535)
(1.54275 0.54203 -0.262796)
(0.982016 1.00835 -0.693606)
(0.738736 0.954998 -0.638888)
(0.224322 0.409933 -0.825598)
(-0.0294273 0.721835 -0.811267)
(0.00356206 0.664947 -0.627851)
(-0.170089 0.595057 -0.755983)
(-0.56323 1.13622 -0.639622)
(0.00676643 1.03068 0.38632)
(0.629977 0.542377 0.0706664)
(0.516626 -0.564221 -0.143379)
(0.412057 -0.537836 -0.211257)
(0.480382 -0.149224 -0.509338)
(0.511272 0.141557 -0.467546)
(0.327367 0.25245 -0.635171)
(0.305777 0.535299 -0.942193)
(0.224454 1.06101 -0.883034)
(-0.0652538 0.959907 -1.00588)
(-0.437109 1.14915 -1.22593)
(-0.6868 1.07995 -1.23701)
(-0.83815 0.913833 -1.36095)
(-0.566114 1.19878 -1.0728)
(-0.43843 1.04004 0.0920816)
(-0.270048 0.947443 -0.105929)
(1.74089 1.06636 -0.050837)
(2.35453 0.871156 -0.0686761)
(2.0288 1.06739 -0.0157315)
(2.75758 0.534725 0.133633)
(2.72428 0.637846 -0.0545706)
(2.36536 0.820906 -0.0324456)
(2.82025 0.236246 0.170148)
(2.88388 0.585961 0.209873)
(2.93111 0.634815 0.0471129)
(2.63432 0.919173 -0.00749428)
(3.09794 0.0984521 0.319897)
(3.12891 0.396034 0.203596)
(3.12042 0.309969 0.179757)
(3.1824 0.448028 0.03473)
(2.8967 0.726081 -0.113457)
(3.29122 -0.391979 0.664167)
(3.51083 -0.144617 0.532249)
(3.48883 -0.174091 0.393683)
(3.29415 -0.162383 0.339117)
(3.39601 -0.0998693 0.0669226)
(3.0614 0.995434 0.0421164)
(3.31258 -0.342074 1.18357)
(3.58914 -0.304119 0.942015)
(3.61257 -0.591373 1.0096)
(3.637 -0.758928 0.832072)
(3.44915 -0.586645 0.415757)
(3.50469 -0.509154 0.330435)
(3.20493 0.512149 -0.0872901)
(4.00017 -0.313711 0.723762)
(4.30311 -0.541919 0.896505)
(4.21078 -0.602208 1.11162)
(4.12306 -1.01512 1.34626)
(3.84098 -1.15451 1.32288)
(3.63133 -1.13427 0.813504)
(3.29036 -1.12701 0.203554)
(3.54808 0.686783 0.0137219)
(4.6766 -0.0231016 1.42139)
(4.59639 0.180461 1.5077)
(4.76744 -0.267732 1.73476)
(4.56169 -0.822156 1.73375)
(3.96139 -1.71932 1.93953)
(3.90954 -1.68374 2.03544)
(3.13944 -2.65463 1.8186)
(3.76133 -1.41805 0.755455)
(3.69956 0.245905 0.336499)
(4.16071 0.0142643 1.9586)
(4.25304 -0.196334 2.30062)
(3.99229 -0.0235216 2.5135)
(3.50398 -0.792522 2.84921)
(3.80721 -0.361309 2.5446)
(2.98226 -1.60561 2.62941)
(2.30378 -3.20663 2.8287)
(2.29539 -4.4223 1.48325)
(3.48076 -2.81053 1.33919)
(4.04311 -1.82989 0.680174)
(3.79498 -0.0695946 1.89167)
(3.82359 0.666283 1.87703)
(3.60223 0.242934 1.98852)
(3.2336 0.78258 2.27269)
(2.78473 -0.301698 2.05421)
(1.95967 -1.29322 1.86158)
(1.53471 -2.77795 2.29358)
(2.33931 -3.69778 2.87236)
(2.19434 -4.81604 1.70227)
(1.96067 -5.26786 1.10985)
(2.94943 -2.89702 0.340738)
(3.17478 0.410514 1.53316)
(3.4548 0.528357 1.52961)
(3.51192 0.655794 1.19986)
(3.15134 0.766786 0.694413)
(2.60806 0.408342 0.836495)
(2.03695 -0.326422 1.34011)
(1.70865 -0.400908 1.01495)
(2.15682 0.185912 1.8747)
(0.531651 -1.74324 3.20144)
(1.08796 -4.55324 1.88401)
(2.99495 -4.92842 2.22148)
(2.65829 -4.33652 0.392882)
(2.56721 -0.194927 0.866571)
(2.60669 0.131215 0.652533)
(2.83052 0.215663 0.533931)
(2.72042 -0.290411 0.514841)
(2.45212 0.176249 0.188001)
(1.98605 0.797701 -0.111017)
(0.992099 1.03721 0.0366979)
(0.194536 0.966698 -0.360138)
(0.026631 0.81829 0.149495)
(-0.524797 0.381979 -0.0422223)
(1.66114 0.88548 -0.124515)
(0.913635 -4.12432 0.445494)
(1.89711 -3.86872 0.569284)
(1.75013 -0.82505 0.585653)
(1.54877 -0.815308 0.236115)
(1.67284 -0.485164 0.232593)
(1.80395 -0.133684 0.167232)
(1.56603 0.494688 -0.216842)
(0.957968 0.934565 -0.690582)
(0.71152 0.919065 -0.614663)
(0.185942 0.384288 -0.742453)
(-0.0645818 0.687692 -0.796672)
(-0.0375743 0.629318 -0.647522)
(-0.180896 0.577185 -0.779216)
(-0.63457 1.26641 -0.777762)
(0.117729 0.994197 0.160212)
(0.614799 0.411501 0.0995296)
(0.542721 -0.25939 -1.02563)
(0.503302 -0.565607 -0.0752791)
(0.433479 -0.465633 -0.11649)
(0.497275 -0.102694 -0.455348)
(0.516069 0.156999 -0.425861)
(0.316779 0.239641 -0.626761)
(0.284327 0.500333 -0.956842)
(0.195876 1.03575 -0.893775)
(-0.0781158 0.976231 -0.972402)
(-0.380805 1.18153 -1.22337)
(-0.660832 1.06626 -1.24683)
(-0.844274 0.946918 -1.3392)
(-0.572124 1.1473 -1.18623)
(-0.469721 1.08541 0.120238)
(-0.175817 1.00727 -0.127462)
(1.66341 0.913144 0.0244146)
(2.0803 0.72803 0.00255867)
(1.85437 0.89842 -0.0777091)
(2.62625 0.382947 -0.0489101)
(2.38283 0.712364 0.0248743)
(2.07977 0.888841 0.0390464)
(2.64549 0.570421 0.0530623)
(2.83149 0.393201 0.119773)
(2.77906 0.422971 -0.115366)
(2.41645 0.641452 -0.0386672)
(2.85639 0.0820148 0.252199)
(2.9173 0.557682 0.0843294)
(2.90046 0.422432 0.193014)
(3.02808 0.31269 -0.0208265)
(2.69027 0.793206 0.0439661)
(3.15571 0.112242 0.451174)
(3.10801 -0.12033 0.356553)
(3.08442 0.10547 0.31739)
(3.14995 0.0902665 0.151819)
(3.19415 0.215592 0.0574344)
(2.89771 0.537785 -0.189359)
(3.26992 -0.303826 0.758693)
(3.36632 -0.457616 0.691475)
(3.45846 -0.44123 0.538587)
(3.40342 -0.311547 0.470906)
(3.20936 -0.416648 0.317028)
(3.3778 -0.591272 0.0762108)
(3.10161 0.866257 0.122136)
(3.21592 -0.280753 1.27841)
(3.46797 -0.00774631 1.10278)
(3.5112 -1.05131 1.0398)
(3.57084 -0.997531 1.04707)
(3.49116 -1.35549 0.792605)
(3.40543 -0.864295 0.340346)
(3.35374 -0.637272 0.248061)
(3.27234 0.190542 -0.119602)
(3.53826 -0.107655 0.995887)
(4.10098 -0.326075 0.66539)
(4.29011 -0.645174 0.911191)
(4.3218 -0.996778 1.07312)
(4.05911 -1.10615 1.39349)
(3.71907 -1.71851 1.33914)
(3.5396 -1.73047 0.802805)
(3.33637 -1.21768 0.197201)
(3.56638 0.646951 0.0919103)
(4.60488 -0.18756 1.40454)
(4.73837 -0.0494171 1.37571)
(4.66058 -0.0333082 1.839)
(4.70277 -0.430517 1.9698)
(4.46305 -1.32032 1.76923)
(3.84473 -1.73897 1.96944)
(3.2783 -2.54474 2.19182)
(2.20975 -3.46071 1.66462)
(3.8141 -1.5932 0.806528)
(3.6767 0.11414 0.158959)
(4.2649 -0.333063 1.98482)
(4.18982 -0.413232 2.11227)
(4.21424 -0.356642 2.27328)
(3.96826 -0.436132 2.5937)
(3.5787 -0.652774 2.60697)
(2.75347 -2.10643 2.96822)
(2.67548 -2.01269 2.66974)
(2.10514 -3.75193 2.56749)
(2.28061 -4.34262 1.31972)
(3.2351 -2.75091 1.17304)
(3.95561 -1.74562 0.679062)
(3.56345 0.0792902 2.05034)
(3.91935 -0.304079 2.10197)
(3.98999 0.230547 1.9251)
(3.58254 0.343105 2.02927)
(3.12693 0.430529 2.32973)
(2.8099 -0.666703 1.84433)
(2.10398 -1.27951 1.69846)
(1.11819 -3.36721 2.05726)
(2.2005 -4.21421 2.52555)
(2.01522 -4.86816 1.85998)
(2.37367 -4.75421 0.801897)
(2.34806 -3.22414 0.377531)
(3.1126 0.186535 1.28535)
(3.21877 0.345574 1.58455)
(3.44117 0.315473 1.51867)
(3.53305 0.409631 1.48248)
(3.17586 0.590672 0.567308)
(2.53919 0.374206 0.907731)
(1.38874 -1.349 1.50629)
(1.7273 -0.394408 0.983807)
(2.39922 0.296559 2.02611)
(0.110746 -2.74364 3.1989)
(1.9142 -4.63964 1.9716)
(2.94769 -5.01983 2.13734)
(3.20138 -4.23671 0.432714)
(2.47395 -0.932785 1.2159)
(2.56974 -0.159634 0.788844)
(2.5141 -0.110859 0.757412)
(2.86538 0.134473 0.550548)
(2.68697 -0.345185 0.604363)
(2.35921 -0.0987427 0.408548)
(1.93501 0.717314 0.119762)
(1.11603 0.960056 -0.0343859)
(0.164595 0.933731 -0.385833)
(-0.0464488 0.847271 0.127949)
(-0.133319 0.474517 0.0644534)
(1.9843 0.840069 0.13556)
(1.07034 -4.06072 0.790032)
(1.678 -4.15627 0.585743)
(1.53016 -1.30837 0.532812)
(1.76955 -0.686585 0.653867)
(1.5214 -0.80162 0.267581)
(1.6541 -0.537564 0.164537)
(1.75986 -0.155311 0.211306)
(1.59237 0.437224 -0.121922)
(0.971433 0.872549 -0.655314)
(0.675806 0.858603 -0.579014)
(0.165289 0.398523 -0.664705)
(-0.0856449 0.660857 -0.771318)
(-0.0971862 0.578742 -0.678268)
(-0.174022 0.587271 -0.742006)
(-0.792961 1.38923 -0.88737)
(0.222439 0.915257 -0.115443)
(0.569227 0.267098 0.105105)
(0.365963 0.73684 -0.145217)
(0.568731 -0.256861 -0.996933)
(0.487594 -0.580626 -0.0222413)
(0.456241 -0.402746 -0.0308743)
(0.514415 -0.0670285 -0.412973)
(0.522762 0.166646 -0.388211)
(0.30918 0.237506 -0.609414)
(0.261107 0.470665 -0.969146)
(0.200313 1.02645 -0.876567)
(-0.0381411 0.973816 -0.947213)
(-0.372694 1.20524 -1.21016)
(-0.675609 1.10156 -1.26365)
(-0.804107 0.941394 -1.34721)
(-0.603203 1.18653 -1.22702)
(-0.403006 1.09292 0.0692931)
(-0.241015 1.03432 -0.122738)
(1.61822 0.925568 0.00823081)
(1.91792 0.883495 0.0622499)
(1.77351 0.769267 0.0327541)
(2.26168 0.654301 6.93024e-05)
(2.11073 0.573484 -0.00660725)
(1.89327 0.831354 -0.0720789)
(2.63143 0.0788266 0.0690152)
(2.59962 0.498904 -0.0219546)
(2.39687 0.619723 0.0168617)
(2.11893 0.776442 0.0543197)
(2.76793 0.348049 0.0861704)
(2.80139 0.150464 0.0711096)
(2.85845 0.128321 0.0154396)
(2.79656 0.357766 -0.0863966)
(2.4511 0.544474 -0.0805544)
(2.9653 0.163682 0.43243)
(2.90071 0.0355976 0.234874)
(2.99769 0.100133 0.0585362)
(2.97899 0.027571 0.130716)
(3.04819 0.0838869 0.0260693)
(2.7394 0.457835 0.054633)
(3.17749 -0.146809 0.701909)
(3.08236 -0.282902 0.451776)
(3.12474 -0.200588 0.355761)
(3.04032 -0.139316 0.30448)
(3.11475 -0.208725 0.170556)
(3.11482 -0.310142 0.0362236)
(2.96687 0.0951501 -0.208036)
(3.27521 -0.242606 0.867715)
(3.35324 -0.478029 0.796805)
(3.39043 -0.587026 0.703872)
(3.34501 -0.810317 0.614984)
(3.221 -0.598766 0.528594)
(3.19247 -0.727991 0.278282)
(3.39584 -0.546738 0.0784479)
(3.08199 0.729329 0.37861)
(3.26341 -0.316768 1.29187)
(3.33938 -0.498336 1.28841)
(3.43511 -0.899068 1.20637)
(3.54471 -1.14692 1.06899)
(3.49331 -1.35761 0.957116)
(3.48317 -1.24562 0.758331)
(3.30418 -1.13254 0.351666)
(3.17576 -0.748855 0.212492)
(3.30393 -0.0899392 -0.068124)
(3.5356 -0.280693 1.03985)
(3.83927 -0.454254 0.545407)
(4.0645 -0.997376 0.245239)
(4.21873 -0.809108 0.913107)
(4.31151 -1.01636 1.26067)
(3.91982 -1.81878 1.50484)
(3.61296 -2.07605 1.38152)
(3.12795 -2.02477 0.942808)
(3.55643 -1.35655 0.183717)
(3.48869 -0.0325693 0.240104)
(4.64423 -0.707629 1.25245)
(4.79552 -0.447201 1.35844)
(4.6733 -0.143251 1.33914)
(4.7588 -0.385262 1.96639)
(4.62142 -0.764086 1.9547)
(4.15438 -1.71288 1.8967)
(3.55513 -2.24431 2.06224)
(2.79208 -2.99416 2.16303)
(2.06344 -3.25319 1.62182)
(3.22168 -2.43992 0.904922)
(3.69438 0.052806 0.0357872)
(4.08497 -0.795588 2.07389)
(4.24655 -0.669677 2.0594)
(4.23691 -0.670348 2.13479)
(3.98026 -0.60871 2.59911)
(3.82177 -0.745481 2.60131)
(3.27324 -1.38293 2.7828)
(2.87751 -1.67819 2.73041)
(2.04979 -2.87032 2.63045)
(1.89346 -4.22339 2.31867)
(2.41771 -3.87996 1.79374)
(2.57741 -3.17541 1.13198)
(3.92862 -1.67526 0.667719)
(3.52195 0.313715 1.94326)
(3.79961 -0.337362 2.01318)
(4.10248 -0.494805 2.04427)
(4.02585 -0.00959481 2.06654)
(3.69375 0.0618687 1.73962)
(3.16161 0.112149 2.0804)
(2.81279 -0.517364 1.77372)
(2.12045 -1.21219 1.76887)
(1.42013 -3.87921 1.50862)
(2.01014 -4.5225 2.16833)
(2.20195 -4.72144 1.8149)
(2.89584 -4.12283 0.750009)
(2.08174 -3.08728 0.666023)
(3.04752 -0.0182367 1.25825)
(2.98246 0.116444 1.35819)
(3.20622 0.142238 1.43673)
(3.4763 -0.339288 1.59922)
(3.54462 0.299044 1.3685)
(3.14094 0.425394 0.540127)
(2.37024 0.183843 1.04678)
(1.44966 -1.06417 1.00503)
(1.6735 -0.461507 0.974031)
(1.48561 -1.19156 2.84826)
(-0.168706 -3.52995 2.72188)
(2.18139 -4.96858 2.18004)
(2.84335 -5.03507 1.89994)
(3.86557 -4.05543 0.333241)
(2.64777 -0.55355 0.849114)
(2.62632 -0.64755 0.856355)
(2.50079 -0.205406 0.914227)
(2.49904 0.0160589 0.555734)
(2.6448 -0.0212079 0.497769)
(2.58661 -0.424151 0.701157)
(2.28335 -0.217046 0.359792)
(1.8608 0.559212 0.294042)
(1.18094 0.892006 -0.0318959)
(0.179937 0.956285 -0.381794)
(-0.0381927 0.802298 0.0434723)
(0.299687 0.538051 0.264415)
(1.80502 0.3026 0.685228)
(1.17627 -4.10223 0.913529)
(1.44829 -4.29368 0.416876)
(1.37983 0.48439 0.600596)
(1.50024 -1.48592 0.664892)
(1.86836 -0.46685 0.692582)
(1.50066 -0.767101 0.32124)
(1.62532 -0.366599 0.495461)
(1.71413 -0.270497 0.227656)
(1.59826 0.406283 -0.0681161)
(0.968714 0.810132 -0.640131)
(0.631578 0.799262 -0.524944)
(0.122728 0.375011 -0.605801)
(-0.116526 0.628978 -0.771039)
(-0.12099 0.567125 -0.682932)
(-0.156169 0.631904 -0.699845)
(-0.671452 1.46979 -0.864638)
(0.257675 0.889429 -0.235382)
(0.474697 0.133636 0.0821924)
(0.645365 0.677412 -0.0269991)
(0.381594 0.641115 -0.181915)
(0.592453 -0.297897 -0.915448)
(0.44601 -0.605309 0.0395624)
(0.48311 -0.349175 0.0410379)
(0.528547 -0.0440022 -0.385451)
(0.528757 0.172388 -0.360775)
(0.302823 0.234529 -0.588665)
(0.231204 0.447648 -0.981355)
(0.16634 1.00736 -0.88828)
(-0.0515279 0.956422 -0.93967)
(-0.31036 1.21893 -1.19138)
(-0.714878 1.14172 -1.22461)
(-0.780439 0.948512 -1.35231)
(-0.580899 1.17533 -1.24442)
(-0.378636 1.11188 0.053864)
(-0.162687 1.03788 -0.133175)
(1.57297 0.885978 0.0162068)
(1.90543 0.815414 0.10381)
(1.68288 0.825394 0.00700887)
(2.14064 0.703679 0.212924)
(1.98219 0.738326 0.0904281)
(1.84367 0.621084 0.0500165)
(2.41539 0.402942 0.187409)
(2.30961 0.528373 -0.00576276)
(2.17621 0.442777 -0.0107443)
(2.0164 0.524879 -0.0619509)
(2.60024 0.262402 0.107437)
(2.67265 0.0873944 0.112777)
(2.62242 0.258121 0.063962)
(2.49715 0.395675 -0.00553205)
(2.22377 0.571583 0.0595433)
(2.7642 0.235654 0.350039)
(2.84332 -0.0152696 -0.010829)
(2.82449 0.0261681 0.0684738)
(2.89237 -0.224161 -0.0158338)
(2.75956 0.130909 -0.0821928)
(2.47839 0.365284 0.00569956)
(3.06234 -0.0480378 0.3974)
(2.96923 -0.0205589 0.32404)
(2.94265 -0.188787 0.191865)
(2.92562 -0.168253 0.0195451)
(3.00733 -0.279063 0.142315)
(2.98907 -0.12993 0.0554936)
(2.73825 0.22872 0.0787253)
(3.19941 -0.120083 0.70987)
(3.10592 -0.325604 0.660397)
(3.04718 -0.474454 0.509359)
(3.08706 -0.407743 0.369651)
(3.03812 -0.4729 0.307868)
(3.05703 -0.550925 0.142934)
(3.09837 -0.428663 -0.0148588)
(3.01966 -0.108659 -0.246692)
(3.27628 -0.254639 0.953216)
(3.27518 -0.511248 0.890735)
(3.31577 -0.70081 0.877324)
(3.34062 -0.959901 0.749117)
(3.29207 -0.991573 0.647859)
(3.08094 -0.940325 0.502317)
(3.13954 -0.87075 0.235525)
(3.33254 -0.519877 0.164836)
(3.1611 -0.285471 -0.060166)
(3.34519 -0.416034 1.3353)
(3.30143 -0.648257 1.30616)
(3.40309 -0.589076 1.28284)
(3.56559 -0.889516 1.09154)
(3.57836 -1.36241 0.955964)
(3.34163 -1.90394 0.677017)
(3.23945 -1.76509 0.69305)
(3.18795 -1.56181 0.365069)
(3.16118 -0.886383 0.252776)
(3.27687 -0.32639 -0.0407551)
(3.77591 -0.18547 0.965874)
(3.5914 -0.890771 0.834696)
(4.01686 -0.480899 0.412455)
(4.10138 -1.31321 0.0364793)
(4.18249 -0.968811 1.15679)
(4.18654 -1.38644 1.47081)
(4.00046 -1.92622 1.39406)