/*--------------------------------*- C++ -*----------------------------------*\
  =========                 |
  \\      /  F ield         | OpenFOAM: The Open Source CFD Toolbox
   \\    /   O peration     | Website:  https://openfoam.org
    \\  /    A nd           | Version:  7
     \\/     M anipulation  |
\*---------------------------------------------------------------------------*/
FoamFile
{
    version     2.0;
    format      ascii;
    class       volScalarField;
    location    "2";
    object      nut;
}
// * * * * * * * * * * * * * * * * * * * * * * * * * * * * * * * * * * * * * //

dimensions      [0 2 -1 0 0 0 0];

internalField   nonuniform List<scalar> 
150000
(
0.00100009
0.000678388
0.000889129
0.00105585
0.00111873
0.00147877
0.000976163
0.00166223
0.000469153
0.000765678
0.000911422
0.000672361
0.00133796
0.00110569
0.00132917
0.00144327
0.00378045
0.00172135
0.00105058
0.0014427
0.000420018
0.00242573
0.000555551
0.000862556
0.0010547
0.000855486
0.000184469
0.000390682
0.00148361
0.00106087
0.00210327
0.00150454
0.00262913
0.00143717
0.0012452
0.000703442
0.000940665
0.00113149
0.00103581
0.000869997
0.00104087
0.000514051
0.000570061
0.000511158
0.00185637
0.000677288
0.00104598
0.00125472
0.000936115
0.000194218
0.000122869
0.000149012
0.000131293
0.00152349
0.00100491
0.00295533
0.00146259
0.0014203
0.00296032
0.00117425
0.00268951
0.00125749
0.000578794
0.00148466
0.0012315
0.0011688
0.000820198
0.00113131
0.00110303
0.00289376
0.00130643
0.000780648
0.000796928
0.000562933
0.000478703
0.000768214
0.000507395
0.000606954
0.000667242
0.000572885
0.00115168
0.00131797
0.000909538
0.000201345
6.63582e-05
0.000137653
0.000202709
0.000129361
8.95554e-05
0.00145257
0.000936824
0.00231713
0.00229869
0.00139639
0.00363781
0.00155019
0.00115553
0.00079362
0.00206837
0.00294169
0.00108563
0.000993048
0.00140365
0.000808798
0.000800369
0.000799873
0.00154098
0.0011683
0.00168477
0.000732402
0.000781494
0.00068118
0.00134644
0.000936427
0.000786796
0.00116465
0.000720288
0.00102654
0.000688617
0.000390796
0.000872988
0.000901178
0.000476124
0.000688324
0.00062827
0.000633006
0.000596946
0.00116699
0.00124399
0.000772826
0.00023248
0.000275636
0.000251492
0.000137053
0.000167196
0.000292482
0.000109134
0.000143256
0.00127287
0.000846637
0.0030906
0.00219192
0.00136493
0.00237314
0.00214584
0.000402668
0.00127456
0.0021064
0.00290369
0.00201382
0.00168382
0.000592589
0.000406368
0.00108101
0.00188437
0.00332384
0.00170705
0.000835694
0.00101013
0.000718727
0.000670186
0.00087416
0.000413991
0.00125424
0.00149255
0.000847015
0.00105921
0.000671202
0.00111155
0.000942802
0.000570597
0.000612618
0.00124973
0.00181017
0.00458641
0.00137745
0.000644637
0.00117599
0.000780809
0.000409146
0.000579312
0.000557546
0.000289955
0.000492199
0.000375471
0.000596407
0.000562388
0.000903309
0.000645058
0.00109804
0.001073
0.000499929
0.000283051
0.000342944
7.59076e-05
0.000173693
0.000144179
0.000150368
0.000183183
0.000193417
7.21525e-05
0.000224949
0.00100775
0.000731761
0.00202652
0.00228395
0.00134224
0.00279936
0.00249792
0.00115335
0.000818913
0.00144768
0.00212321
0.00212625
0.000751447
0.000966298
0.000713189
0.00119011
0.00180609
0.00224941
0.00204858
0.00105147
0.00129045
0.000231784
0.000518965
0.000756579
0.000986677
0.00103455
0.00300282
0.00133747
0.000749762
0.000852447
0.000847855
0.000741941
0.000942653
0.000776884
0.000505802
0.000253488
0.000742166
0.00187198
0.00101732
0.0010571
0.000499789
0.000805787
0.000967269
0.00051853
0.000511261
0.000842867
0.000777156
0.00142574
0.00148691
0.000555231
0.0015801
0.000535407
0.00121281
0.000602278
0.000571847
0.000489621
0.000371762
0.000268781
0.000299331
0.000293426
0.000709167
0.000664937
0.000459386
0.000602698
0.00109068
0.000689985
0.000918578
0.000809977
0.000237327
0.000344202
0.000146496
5.02394e-05
0.000150934
0.000191758
8.7638e-05
0.000145821
0.000155654
0.000156702
0.00010145
6.23511e-05
0.000276913
0.000665305
0.000624682
0.00247548
0.00206613
0.000554379
0.00218671
0.00233656
0.000934134
0.000923058
0.00108519
0.00230884
0.0024935
0.00123965
0.000663528
0.00076929
0.000706162
0.00134593
0.00193835
0.00204522
0.000960931
0.000759479
0.000808522
0.000745154
0.00118741
0.00118675
0.00177561
0.00261493
0.00204325
0.00120917
0.00102432
0.000480664
0.000664831
0.000666293
0.000678868
0.000745099
0.000620352
0.000717889
0.00299677
0.00154734
0.00100138
0.000699574
0.000737631
0.000670792
0.000805661
0.00154878
0.000660413
0.00114646
0.00047471
0.000399452
0.000878319
0.00184483
0.00100493
0.000773507
0.000403097
0.000521925
0.000699633
0.000535564
0.000581936
0.000620287
0.000666975
0.000692245
0.000777015
0.000890682
0.00132419
0.000546182
0.00161309
0.000511207
0.00119289
0.000636389
0.000369909
0.00120594
0.000493916
0.00026022
0.000296285
0.000140459
0.000279897
0.000329713
0.000777662
0.00039275
0.000453058
0.000983021
0.000862349
0.000680914
0.000593751
0.000504862
0.000576198
0.000478015
8.14884e-05
9.13921e-05
0.00016302
0.000250958
0.000117799
0.000191216
0.000137359
0.000189246
0.000169025
0.000268148
0.000125615
9.73724e-05
0.000157242
0.000396067
0.00050224
0.00250273
0.00242214
0.00109938
0.0025886
0.00232558
0.000645667
0.000550532
0.000626575
0.00220655
0.00257945
0.000691599
0.000818794
0.000609881
0.000957381
0.00089639
0.00258865
0.00231034
0.00130452
0.000521441
0.000520917
0.000532803
0.00095097
0.00052292
0.00116593
0.00222679
0.0021725
0.0014398
0.000871744
0.000497845
0.000305886
0.000358863
0.000601493
0.000758021
0.00121413
0.0014672
0.00279573
0.00226884
0.00109728
0.000213569
0.000471569
0.000453855
0.000581012
0.000368951
0.000512087
0.000771755
0.000778875
0.000297399
0.000670498
0.00325795
0.00136072
0.000986901
0.000667022
0.00107732
0.00106026
0.000918032
0.000347569
0.000752386
0.000867823
0.000577015
0.000709453
0.000537914
0.000626819
0.00074723
0.00149571
0.00103
0.000663383
0.000393077
0.000549183
0.000787884
0.000610988
0.000556543
0.000535377
0.000544756
0.000624537
0.000626832
0.000629313
0.000585446
0.000806476
0.00128309
0.00148299
0.00203588
0.000485777
0.0010872
0.00087751
0.000378378
0.000701777
0.000325117
0.000231069
0.00029799
0.000538264
0.000269857
0.000492121
0.000251789
0.000302275
0.000879949
0.000189583
0.000692146
0.00110926
0.000482083
0.000702731
0.000408592
0.000363408
0.000709324
0.00059268
0.00024949
0.000141947
0.000167345
0.000281343
9.1696e-05
0.000109315
0.000138931
0.000187268
0.000137534
0.000188714
0.000168709
0.000235473
0.00013441
0.000140268
0.000271955
0.000346389
0.000371641
0.00247311
0.00244775
0.00039105
0.002603
0.00239855
0.000804524
0.000605796
0.000991137
0.00275154
0.00235053
0.0008773
0.000726224
0.000778352
0.000443155
0.000624504
0.00229624
0.00226992
0.000878603
0.000959511
0.000697963
0.000785759
0.000606425
0.00104647
0.00106008
0.00288682
0.00224513
0.000789117
0.000534488
0.00040299
0.000454484
0.000582269
0.000425061
0.000640808
0.000859832
0.000765836
0.00245233
0.00228926
0.0012406
0.000504073
0.000602599
0.000376262
6.26728e-05
0.00065351
0.000354901
0.00099393
0.000907235
0.00106614
0.00152214
0.00279423
0.00228706
0.00126451
0.000549873
0.000244148
0.000403782
0.000688807
0.000361551
0.000600276
0.00051209
0.000399724
0.000478077
0.000474498
0.000437231
0.00119747
0.00314743
0.00120614
0.00140665
0.000219249
0.00105721
0.000712283
0.000467795
0.000963192
0.000633633
0.000699864
0.000365685
0.000279964
0.000659351
0.000502068
0.000520262
0.000802067
0.00067617
0.0016423
0.000910686
0.00049716
0.00108184
0.000693119
0.000805614
0.00075075
0.000427028
0.00050669
0.00049002
0.0003381
0.000576122
0.000632857
0.00050717
0.000725835
0.000601183
0.000628594
0.000989262
0.000300775
0.0020183
0.000206005
0.000988862
0.000477594
0.000676668
0.0004609
0.000293301
0.00022785
0.000287624
0.000310008
0.000305976
0.000134361
0.000388518
0.000767664
0.000308041
0.000304173
0.000458378
0.000619825
0.000592133
0.000476222
0.000497246
0.000652263
0.000551027
0.000368626
0.000770767
0.000567809
0.000105249
0.0001402
0.000126268
0.000284908
0.000111103
0.000145515
0.000171964
0.000245296
0.000141583
0.000197938
9.58345e-05
0.000155304
0.000151966
0.000194522
0.000102426
9.94028e-05
0.000268559
0.000303621
0.000292041
0.00228339
0.00251521
0.000426762
0.00267835
0.00243168
0.000878979
0.000276523
0.000339797
0.00260671
0.00231315
0.000872631
0.000513978
0.000611102
0.00060392
0.000545726
0.00271368
0.00226652
0.00111258
0.000695353
0.000666943
0.000586256
0.000567496
0.000487052
0.000800235
0.00238473
0.00246065
0.000748859
0.000865492
0.000527783
0.000603068
0.000693685
0.0007323
0.000761873
0.000886372
0.000986276
0.00322014
0.00229252
0.00112811
0.00112987
0.000567237
0.000691888
0.000580615
0.000880069
0.000423987
0.000595389
0.000864175
0.00113102
0.000845067
0.00292336
0.00235831
0.00140351
0.00150407
0.00083305
0.000874046
0.000250107
0.00027958
0.000491256
0.000402006
0.000448301
0.000814364
0.000741982
0.00110331
0.00194553
0.00314579
0.00193724
0.00114129
0.000959942
0.000357127
0.000725371
0.000527818
0.000366097
0.000238985
0.000363798
0.000605839
0.000557055
0.000684871
0.000742675
0.000425278
0.00052675
0.00220148
0.00331171
0.00139838
0.0013473
0.000317964
0.000456741
0.000731067
0.000593847
0.000954354
0.000576792
0.000687824
0.00084125
0.000496468
0.000508394
0.000758822
0.000903714
0.000725358
0.000844228
0.000704168
0.000416688
0.00143262
0.000908279
0.000645408
0.000934432
0.000691974
0.000624765
0.00077411
0.000514832
0.000688165
0.000574639
0.000380582
0.000585925
0.00047397
0.000496019
0.000747841
0.00075534
0.00058544
0.000640146
0.000447818
0.000807921
0.000158036
0.0017647
0.000258946
0.000952593
0.000461624
0.000473182
0.000444649
0.000299743
0.000317169
0.000310695
0.00021156
0.000426354
0.000190618
0.00047416
0.000203995
0.000351768
0.000287216
0.000217543
0.000389392
0.000465246
0.000658354
0.000425266
0.00045541
0.000598012
0.000542523
0.000502089
0.000381613
0.000754002
0.000497344
0.000198482
0.000180155
0.000142674
0.00026809
0.000190753
0.00014556
0.000143194
0.000247274
0.000241058
0.000254375
0.000114369
0.000122999
0.000165863
0.000137237
0.000137768
0.000195862
0.00021599
0.000140188
0.000116299
0.0003596
0.00022674
0.00201822
0.00226274
0.000343686
0.00250544
0.00252094
0.000628414
0.000633865
0.000543687
0.00257685
0.00244467
0.000727049
0.000590491
0.000585997
0.00046327
0.000585534
0.00260282
0.00222177
0.000699396
0.000662131
0.000562354
0.000414448
0.000472027
0.000520385
0.000431593
0.00256237
0.0024767
0.00101709
0.000948185
0.000525224
0.000500397
0.000601982
0.000842336
0.000688361
0.00050032
0.000554052
0.00226497
0.00245083
0.000907134
0.0007239
0.000713763
0.000597547
0.000646352
0.00105104
0.000782971
0.000916887
0.000925282
0.000765291
0.000937605
0.00291612
0.00243163
0.00144151
0.000711616
0.000535557
0.000312779
0.000677183
0.00117528
0.000704207
0.000479418
0.00039091
0.000886014
0.00131797
0.00111184
0.000772804
0.0032218
0.00240957
0.00120915
0.000635959
0.000436912
0.000358683
0.0005426
0.000376991
0.000651045
0.000565757
0.000445849
0.00049229
0.000572773
0.000849251
0.000794847
0.00166407
0.00239627
0.00354278
0.00199958
0.0013
0.000627537
0.00057383
0.000415642
0.000946241
0.000855079
0.000280838
0.000518056
0.000521903
0.000296461
0.000387339
0.000650119
0.000642086
0.0017364
0.00119768
0.000810681
0.00110639
0.00307226
0.00124273
0.000896799
0.0007359
0.000496771
0.000616136
0.00039605
0.000802714
0.000567267
0.00067407
0.00103889
0.000943417
0.000785669
0.000279535
0.000530448
0.000633702
0.000613647
0.000811558
0.000761785
0.000531757
0.000443178
0.0013295
0.000947497
0.000656038
0.000495004
0.000427314
0.000661929
0.000749854
0.000792321
0.000929919
0.000523987
0.000414173
0.000480253
0.000356936
0.000498362
0.000423193
0.000596224
0.000712986
0.000648636
0.000657467
0.000796995
0.000495056
0.000467538
0.000557765
0.00174811
0.000400778
0.000846564
0.000416245
0.000376813
0.0006294
0.000268502
0.000283225
0.000316225
0.000255967
0.000229154
0.000224043
0.000516773
0.000513498
0.000402983
0.000145122
0.000456414
0.000583294
0.000193919
0.000365521
0.000459838
0.00059798
0.000299621
0.000384239
0.000412266
0.000527964
0.00056184
0.000387381
0.000720031
0.00028098
0.000212559
0.000116611
0.000160225
0.000237008
0.000244055
0.00010666
0.000145758
0.000233944
0.000232538
0.000138718
0.000267174
0.000229801
0.000172146
5.12382e-05
0.000114844
0.000153826
0.000124577
0.000199153
8.68885e-05
0.000142051
0.000140564
0.000287732
0.000278472
0.00206212
0.00202918
0.000656915
0.00217618
0.00235182
0.000667032
0.000730301
0.000410635
0.00237865
0.00257419
0.000666138
0.000589789
0.000452524
0.000406468
0.000869965
0.00244006
0.00246506
0.000676649
0.000457889
0.000425468
0.000585097
0.000393948
0.000651948
0.000455365
0.00254134
0.00223834
0.000787009
0.000755838
0.000641721
0.00072352
0.000761771
0.000508714
0.000644302
0.000495169
0.000508282
0.00275115
0.00248885
0.000978385
0.000675895
0.000937341
0.000442499
0.000810541
0.000602535
0.000459318
0.00054307
0.000825601
0.000615453
0.000574359
0.00232569
0.00250454
0.000876733
0.000736509
0.0012405
0.000604062
0.000674825
0.000465985
0.000610683
0.000676622
0.000626319
0.0010938
0.000741876
0.000958683
0.000773035
0.00263925
0.00239197
0.00100308
0.000653364
0.00091657
0.000280792
0.000565735
0.000465602
0.000704685
0.000491762
0.000301343
0.000304306
0.000600292
0.00102292
0.00130552
0.0015092
0.00158737
0.00318497
0.00237231
0.00124005
0.00079132
0.000304725
0.000477813
0.000171955
0.000835516
0.000292198
0.000542782
0.000702632
0.000313909
0.00034417
0.000380695
0.000569219
0.00108908
0.000692975
0.00172206
0.00255195
0.00342538
0.00193856
0.00120078
0.00105697
0.000304735
0.00056549
0.000560183
0.000807835
0.000820949
0.000506157
0.000522788
0.000595539
0.000322046
0.000657388
0.000503615
0.000206861
0.000691102
0.000291949
0.000714019
0.000709691
0.00229234
0.0024819
0.00101605
0.00084882
0.000394652
0.000640029
0.000745929
0.00065521
0.00141187
0.000877042
0.000868779
0.000964351
0.000890046
0.000695939
0.000707989
0.000618999
0.000428454
0.000652721
0.000353885
0.000889856
0.000672099
0.000570096
0.000818404
0.000855858
0.000980216
0.000769592
0.000733653
0.00130068
0.00202121
0.00134838
0.000773906
0.000493464
0.000637368
0.000506208
0.000340997
0.000359835
0.000234203
0.000413257
0.000412858
0.00055759
0.000388791
0.000468642
0.000657064
0.000712058
0.000809777
0.000579358
0.000510579
0.000326782
0.000812484
0.00139578
0.000454396
0.000530372
0.000530412
0.000789939
0.000269185
0.000392978
0.000194887
0.000265631
0.000308607
0.000149672
0.000227075
0.000191817
0.000519509
0.000496569
0.000534952
0.000360622
0.000288717
0.000217739
0.000396897
0.000180388
0.000312477
0.000226803
0.000601456
0.00011175
0.000304728
0.000514346
0.000592898
0.000612567
0.000369425
0.000609018
0.000265576
0.000216723
0.00017897
0.000156346
0.000184754
9.53674e-05
0.000154457
0.000171067
0.000198751
0.000190285
0.000149672
0.000144604
0.000134812
0.00022903
0.000264319
0.000157571
0.000110923
0.000133838
0.000162532
0.00011177
0.00015597
0.00042679
9.77026e-05
0.000172805
0.000264215
0.00021684
0.0021536
0.00201968
0.000287909
0.00216547
0.00208295
0.000578169
0.000341556
0.00067766
0.00219643
0.00239729
0.000618472
0.000472605
0.000673821
0.000610036
0.000633712
0.00233556
0.00244801
0.000772995
0.00026697
0.000411858
0.000484432
0.000651675
0.000703102
0.000448386
0.00228028
0.00252428
0.000851198
0.000392549
0.000413258
0.000268717
0.000449539
0.00037872
0.00025357
0.000314621
0.000324491
0.00257942
0.00223215
0.00067136
0.000687445
0.000676807
0.000547673
0.000381412
0.000575385
0.00051348
0.000675005
0.000636823
0.000455885
0.000392356
0.00259664
0.00226657
0.000542121
0.00079136
0.00100852
0.000475903
0.000651909
0.000671908
0.000299184
0.000321222
0.000697814
0.000673237
0.000858388
0.000660567
0.000682656
0.00245511
0.00272598
0.000875024
0.000960289
0.000749729
0.000648339
0.000573729
0.000609261
0.000544165
0.00066793
0.000798663
0.000802958
0.00101921
0.000681341
0.000463625
0.00120413
0.00118252
0.00259598
0.00244639
0.000967732
0.000759283
0.000593391
0.000571833
0.000150503
0.000358541
0.00044875
0.000557329
0.000579878
0.000799596
0.000713274
0.000513837
0.000853192
0.00110818
0.00102838
0.00125849
0.00220851
0.00330558
0.00276445
0.00124364
0.000604497
0.000994446
0.000487833
0.000554483
0.000270009
0.00092657
0.000365167
0.000802928
0.000430592
0.00044981
0.000572441
0.000449518
0.00034631
0.000631038
0.00102042
0.00145909
0.00288972
0.00220631
0.0030546
0.00219543
0.000975811
0.000734035
0.00140718
0.000113452
0.000807464
0.00044065
0.00054017
0.000495829
0.000353718
0.000897891
0.000741702
0.000622105
0.000337458
0.00056769
0.000196666
0.000480084
0.000655696
0.000665858
0.000809093
0.000984288
0.00207307
0.00256337
0.00172407
0.00124399
0.000618532
0.000495978
0.000713822
0.000490958
0.000987108
0.000743819
0.00107729
0.00109562
0.000566636
0.00047274
0.000553991
0.000803522
0.000816673
0.000439263
0.000474577
0.000889194
0.000413983
0.00079045
0.000633213
0.000464063
0.000732471
0.00129944
0.000784587
0.00113581
0.000923206
0.000727189
0.000520104
0.000600379
0.000661082
0.000719442
0.00040938
0.000395982
0.000320272
0.00034959
0.000182402
0.000460644
0.000505446
0.000436234
0.000517626
0.000552036
0.000476671
0.000480527
0.000693332
0.000737806
0.000589047
0.000550152
0.000421048
0.000602721
0.00060264
0.00198866
0.000550127
0.000464868
0.000529114
0.000603976
0.000458354
0.000217484
0.000307489
0.000329024
0.000105997
0.000169849
0.00013135
0.000186163
0.000506372
0.000519828
0.000496633
0.000516942
0.000514853
0.000326392
0.000296289
0.000347333
0.000259239
0.000185309
0.000290896
0.000678345
0.000747295
9.69769e-05
0.000450162
0.000623017
0.000721444
0.000516794
0.000354146
0.0004517
0.000462362
0.000291667
0.000295748
0.000147895
0.000134485
0.00011247
0.000135666
0.000187842
0.000178444
0.000184106
0.000158928
0.000116101
0.000201482
0.000135
0.000130801
0.000187077
0.000363735
0.00014126
7.84426e-05
0.00011538
0.000166292
0.000115452
9.77283e-05
0.00022987
8.31832e-05
0.000226561
0.000404999
0.000280763
0.00215026
0.00213118
0.000247333
0.00229405
0.00200753
0.000320056
0.000331809
0.000278992
0.00223546
0.00217702
0.000600273
0.000342707
0.000568865
0.000491882
0.000219065
0.00202503
0.00242029
0.000695221
0.000260275
0.000524145
0.000174835
0.000550123
0.000735091
0.000677251
0.00205286
0.00246188
0.000704641
0.000604766
0.000230824
0.000180207
0.00034778
0.000546901
0.00032238
0.000362673
0.000509017
0.00221594
0.00241779
0.000591158
0.000706756
0.000572648
0.000383741
0.000197261
0.000400379
0.000527138
0.000354795
0.000658643
0.000516166
0.000245504
0.00242295
0.00224169
0.000754852
0.000524619
0.000520313
0.000539272
0.000505721
0.000288255
0.000174148
0.000435751
0.000696442
0.000611448
0.000590284
0.000490237
0.000447387
0.00270878
0.00235904
0.000582765
0.0006754
0.000616715
0.00080468
0.000439117
0.000494866
0.000316905
0.000530256
0.000457054
0.000637226
0.000660115
0.000772848
0.000559734
0.000629688
0.000355036
0.00246624
0.00271294
0.00121232
0.000625252
0.00034253
0.000766913
0.000371299
0.000783246
0.00080666
0.000852463
0.000527995
0.000565952
0.000855226
0.000760443
0.00109988
0.000613057
0.000833487
0.00109846
0.0016703
0.00263762
0.0022765
0.000945705
0.000675921
0.000853886
0.000535171
0.00037976
0.000503883
0.000963245
0.00053346
0.000298282
0.000106487
0.000447029
0.000368177
0.000547434
0.000702051
0.00108428
0.00119683
0.000814518
0.00154084
0.00217582
0.0029563
0.00282942
0.00161334
0.00110675
0.000402885
0.000545983
0.000487252
0.000505913
0.000338198
0.000441844
0.000504124
0.000454842
0.000526636
0.000989906
0.000559193
0.000519324
0.000296283
0.000461598
0.00074977
0.000712461
0.00111391
0.0013741
0.00158355
0.00292699
0.00265524
0.00138423
0.000471695
0.00145569
0.000838599
0.00012756
0.000815211
0.000368526
0.000479367
0.000547952
0.000862817
0.000525072
0.000630381
0.000734575
0.000596626
0.000360913
0.000607624
0.000396508
0.000592546
0.000354876
0.00066095
0.00121579
0.000810402
0.00139351
0.00249174
0.00147611
0.000860182
0.000640244
0.00017819
0.000708909
0.000298246
0.00146502
0.00105985
0.000895467
0.00101898
0.000607805
0.000525587
0.0005368
0.000503277
0.000654956
0.000904395
0.000691994
0.000321963
0.000702414
0.0010043
0.000544129
0.000756239
0.000609064
0.000430701
0.0010812
0.00208964
0.000623363
0.000760143
0.000872817
0.000541779
0.00148545
0.00127646
0.000691106
0.000713842
0.000324912
0.000360062
0.00036131
0.000314568
0.00023604
0.000375141
0.00054417
0.000534481
0.000529622
0.000616193
0.000492509
0.000667104
0.000383552
0.000461305
0.000678287
0.00053956
0.000486253
0.000490666
0.000525996
0.000703936
0.000656534
0.00185102
0.000560987
0.000506302
0.000364902
0.000515187
0.000753171
0.000221982
0.000203417
0.000410502
8.90527e-05
0.000245899
0.000198818
0.000202127
0.000461543
0.000523425
0.000456085
0.000510175
0.000569072
0.000530852
0.00049521
0.000267505
0.000244036
0.000278057
0.000218666
0.000177693
0.000309268
0.000756637
0.000913158
0.000442105
0.000493485
0.000931153
0.000732776
0.000509964
0.000347107
0.000303475
0.000513276
0.000411237
0.000354371
0.000161954
0.000147518
7.35043e-05
0.000123696
0.0002324
0.000175896
0.000211619
0.000165506
0.000101582
0.000180539
0.000186785
0.000221337
0.000162181
0.000131211
0.000309325
0.000405225
0.000166181
9.7169e-05
0.000127634
0.00016524
0.000107538
0.000188954
0.00028436
7.92719e-05
0.00027845
0.00026586
0.000306387
0.00200445
0.00215047
0.000423395
0.0022761
0.00213062
0.000222225
0.000366894
0.00041704
0.00224354
0.00204053
0.00043937
0.00028223
0.000292395
0.000296618
0.000369656
0.00221383
0.00227617
0.000679935
0.000412467
0.000410033
0.000422336
0.000407402
0.000301143
0.000621585
0.00202391
0.00235895
0.000684679
0.000494516
0.000428637
0.000374415
0.00038571
0.000574732
0.000511798
0.000710257
0.000211585
0.00215721
0.00220775
0.000603942
0.000566544
0.000561825
0.000545215
0.000372822
0.000393997
0.000614219
0.000169514
0.000771783
0.00038011
0.000445084
0.00219302
0.0022807
0.00029709
0.000553539
0.00063216
0.000873255
0.00045311
0.000305109
0.000475161
0.000509792
0.000558474
0.000650174
0.000464091
0.000347373
0.000469818
0.002389
0.00220454
0.000608774
0.000503092
0.000671107
0.000560917
0.000601356
0.000514773
0.000455803
0.000415789
0.00058434
0.000414169
0.000787161
0.000566111
0.000407595
0.000729537
0.000464329
0.00269804
0.00243259
0.000660464
0.000498048
0.000603906
0.000690609
0.000275808
0.000540335
0.000527881
0.00040513
0.000289233
0.000601508
0.000914561
0.000841424
0.000699097
0.000657605
0.000544317
0.000622623
0.000692611
0.00272727
0.00269862
0.00102419
0.000920159
0.00096052
0.000772669
0.00076016
0.000722877
0.000430999
0.000365693
0.000469239
0.000194099
0.000584696
0.00088579
0.000493764
0.00101407
0.000584151
0.00130586
0.00107764
0.00119607
0.00118487
0.00237894
0.00218964
0.000444642
0.000917784
0.000572061
0.000769547
0.000467935
0.000539186
0.000444697
0.000669221
0.000472869
0.000344669
0.000460988
0.000782523
0.000701436
0.000464974
0.000627784
0.000874671
0.000883078
0.000898593
0.00114513
0.00288205
0.00229778
0.0027137
0.00285141
0.00102137
0.000654634
0.00176601
0.000394026
0.000320531
0.000217654
0.000772911
0.000514173
0.000816731
0.000808495
0.000587248
0.00038488
0.000724464
0.000847435
0.000496263
0.000320748
0.000472764
0.000558735
0.000448506
0.000506615
0.000553678
0.00185326
0.0023021
0.00343666
0.002645
0.000890639
0.000740318
0.000458316
0.00114467
0.000431597
0.000349748
0.000535089
0.00045063
0.000602986
0.00088898
0.000698497
0.000679017
0.000675626
0.000810236
0.000529519
0.000663718
0.000415501
0.000686834
0.000523983
0.000430516
0.000339979
0.000574221
0.00183955
0.0021032
0.00174334
0.00243508
0.00195973
0.00108546
0.000663913
0.000590511
0.00020046
0.000485949
0.00106712
0.00109781
0.000975512
0.000787686
0.000565946
0.000528512
0.000643712
0.000525896
0.000487482
0.00119284
0.000713056
0.000974844
0.000534162
0.00043511
0.000791377
0.000720952
0.000550359
0.000682706
0.000496098
0.000700285
0.00122185
0.00270622
0.00229983
0.00106159
0.000668774
0.000591655
0.000580109
0.000988642
0.000892333
0.000660024
0.000286664
0.000323275
0.000445685
0.000307197
0.000195181
0.000326821
0.000530162
0.000461875
0.000565669
0.000582607
0.000707543
0.000660953
0.000472275
0.000524537
0.000399405
0.000498434
0.00067478
0.000512341
0.00066237
0.000490988
0.000434613
0.00078799
0.000858886
0.00118761
0.000409259
0.000653614
0.000327004
0.000615204
0.000406927
0.000120257
0.00020814
0.00065352
0.000163377
0.000130065
0.000258649
0.000191983
0.000424688
0.00053925
0.000417383
0.000553609
0.000431611
0.000522477
0.000592003
0.000538118
0.000461152
0.000292234
0.000214203
0.000224584
0.000226455
0.000297169
0.000197693
0.000329697
0.000546739
0.000630346
0.000528626
0.000967606
0.000882157
0.000494
0.000320064
0.000185977
0.000476402
0.000624763
0.00037285
0.000225136
0.000188541
0.000159625
0.000103386
0.000297064
0.000169064
0.000174738
0.000201809
8.17495e-05
0.000190527
0.000172089
0.000205389
0.000194855
0.00023878
0.000191079
0.000118461
0.000424225
0.000333352
0.000155072
0.000101592
0.000110955
0.000160914
9.91349e-05
0.000129475
0.000250419
0.000259553
0.000190718
0.000310727
0.000255926
0.00194103
0.00197496
0.000476832
0.0021525
0.00218194
0.000323206
0.000318657
0.000498817
0.00231558
0.0020769
0.000276329
0.000212257
0.000269239
0.000461555
0.000511745
0.00242605
0.00209983
0.000429334
0.000341936
0.000425523
0.000364788
0.00025743
0.00027097
0.000380704
0.00216346
0.00221527
0.000651588
0.000358033
0.000548981
0.000369387
0.000401468
0.000358243
0.000287211
0.000356899
0.000396788
0.00199552
0.00239393
0.00062815
0.000289724
0.0007045
0.000579584
0.000279608
0.000363982
0.00062199
0.000527044
0.00087277
0.000654082
0.000334518
0.00214781
0.00250664
0.000774796
0.000408424
0.000521312
0.000343275
0.00043415
0.000328747
0.000382549
0.000424815
0.000420386
0.000528464
0.000620397
0.000622244
0.000355389
0.00225917
0.0024866
0.000618787
0.000531021
0.000391673
0.000432354
0.000517531
0.000429476
0.000707792
0.000284101
0.00057748
0.000416578
0.000684562
0.000418286
0.000485833
0.000626035
0.000556742
0.00231114
0.00223172
0.000593365
0.000650423
0.000890062
0.000483242
0.00050817
0.000609742
0.000748948
0.000353379
0.000281922
0.000335782
0.000424518
0.000820324
0.000528894
0.000727405
0.000580091
0.000585606
0.000524406
0.00247292
0.00252464
0.000630318
0.000594151
0.000545585
0.000408056
0.000740148
0.000268741
0.000340981
0.000287474
0.000849522
0.000542246
0.00063873
0.000687659
0.000600609
0.0005732
0.000662938
0.00054514
0.000604605
0.000705311
0.00105563
0.00258902
0.00261438
0.000743088
0.000931844
0.000627639
0.000552716
0.00104077
0.000544643
0.000453492
0.000640694
0.00082892
0.000836607
0.000702186
0.000498097
0.000586886
0.000805348
0.000886727
0.000656068
0.000971493
0.000770487
0.00105088
0.00147259
0.00108015
0.00270715
0.00225835
0.000535305
0.0011461
0.000767113
0.000476029
0.000523349
0.00029539
0.000689514
0.000671071
0.000725212
0.000728942
0.000507796
0.000637063
0.000628373
0.000512128
0.000636747
0.000478262
0.000654357
0.00120243
0.000903839
0.00024584
0.00173441
0.00174878
0.00205655
0.00265818
0.0030913
0.00110423
0.000824098
0.000591256
0.00042685
0.000407197
0.000560883
0.000611917
0.000609433
0.000663117
0.000517283
0.000437598
0.000452494
0.000400043
0.000518252
0.000746366
0.00027398
0.000358047
0.000140473
0.000345065
0.000570383
0.000257052
0.000691757
0.000966701
0.00202927
0.00182228
0.00387394
0.00290084
0.000797701
0.000856583
0.00052403
0.000875062
0.000782733
0.000664484
0.000884786
0.000800072
0.000879258
0.000866903
0.000424514
0.000748945
0.000713167
0.000462875
0.000774756
0.000747311
0.000512622
0.000652825
0.00029199
0.000525756
0.000277876
0.000787423
0.000528826
0.000626694
0.00102893
0.00134577
0.000910795
0.00309345
0.0020774
0.000907366
0.000768042
0.000561914
0.000737993
0.000902833
0.00112264
0.00128305
0.00144621
0.000713974
0.000444721
0.000485557
0.000520245
0.000479481
0.000695999
0.000634361
0.000649277
0.00129189
0.00119461
0.000934415
0.000439566
0.000348731
0.000610098
0.000709596
0.000629314
0.000564053
0.000426177
0.000766041
0.00194464
0.000961529
0.00292304
0.00126412
0.00086154
0.000871145
0.00055352
0.000611771
0.000682119
0.000568006
0.000323439
0.000385981
0.000284952
0.000273226
0.000318685
0.000366218
0.000569447
0.000594154
0.000454236
0.000909627
0.000644757
0.0008059
0.000846777
0.000741915
0.000552635
0.00059295
0.000400982
0.000596129
0.000633015
0.000576277
0.000271644
0.000385796
0.000626102
0.000893093
0.00120656
0.00187124
0.0006348
0.000763633
0.000389451
0.000399192
0.0002167
0.000133721
0.000315266
0.0007826
0.000494498
9.50888e-05
0.000623058
0.000219867
0.000386407
0.000551786
0.000390572
0.000545801
0.000450876
0.000402735
0.000404121
0.000510455
0.000622706
0.000571061
0.000456073
0.000310244
0.000278456
0.000267541
0.00025595
0.000570238
0.000369726
0.00032673
0.000377152
0.000377116
0.000348471
0.000630071
0.00108738
0.000485851
0.000288164
0.000151291
0.000464852
0.00063906
0.000361927
0.000171407
0.000209865
0.000146722
0.000113479
0.000301995
0.000143271
0.000162456
0.000184655
6.35146e-05
0.000178942
0.000145233
0.000222862
7.91016e-05
0.000143214
0.000180636
0.000251151
0.000225553
0.000123267
0.000423789
0.000217364
0.000141492
0.000128855
0.000115845
0.000178495
0.000147048
7.3493e-05
5.8221e-05
0.000297642
0.000194575
0.000477581
0.000193299
0.00205495
0.00196639
0.000270126
0.00210598
0.00198623
0.000406434
0.000272314
0.000455927
0.00210993
0.0022197
0.000319403
0.000313849
0.00029781
0.000357658
0.000481906
0.0022492
0.00215729
0.000396686
0.000365772
0.000100557
0.000565573
0.000239198
0.000302892
0.000461514
0.0023276
0.00209656
0.000446045
0.00033664
0.000374123
0.000394421
0.000389699
0.000286596
0.000438103
0.000484454
0.000519788
0.0022701
0.00217171
0.000589254
0.000498056
0.000516054
0.000497332