/*--------------------------------*- C++ -*----------------------------------*\
  =========                 |
  \\      /  F ield         | OpenFOAM: The Open Source CFD Toolbox
   \\    /   O peration     | Website:  https://openfoam.org
    \\  /    A nd           | Version:  7
     \\/     M anipulation  |
\*---------------------------------------------------------------------------*/
FoamFile
{
    version     2.0;
    format      ascii;
    class       volScalarField;
    location    "2";
    object      p;
}
// * * * * * * * * * * * * * * * * * * * * * * * * * * * * * * * * * * * * * //

dimensions      [0 2 -2 0 0 0 0];

internalField   nonuniform List<scalar> 
150000
(
-67.0182
-66.0638
-67.0792
-67.0506
-67.0024
-66.3981
-66.0046
-66.8083
-66.1675
-67.1755
-67.2361
-69.1045
-66.9169
-67.0506
-66.0902
-65.7263
-59.2494
-67.3772
-66.0116
-66.9836
-68.8305
-66.7348
-66.256
-67.2699
-67.5021
-69.2129
-69.9163
-69.0389
-66.8328
-67.1435
-62.5989
-65.2365
-64.374
-67.4837
-65.297
-62.0609
-67.1219
-59.5722
-68.18
-66.0681
-67.2351
-68.9436
-69.0811
-68.7034
-66.8461
-66.308
-67.451
-67.8562
-69.3646
-69.9253
-70.2061
-69.9118
-69.0086
-66.8209
-67.2541
-60.9309
-62.4906
-63.6451
-62.9986
-64.8865
-63.5422
-66.7625
-65.7702
-69.1207
-65.0438
-63.4328
-67.1527
-66.9261
-67.3571
-53.1329
-68.6428
-66.1972
-67.5354
-69.0424
-69.1063
-69.1005
-69.0355
-68.6139
-67.1014
-66.3395
-67.7194
-68.3147
-69.535
-69.9389
-70.2496
-70.4906
-70.1871
-69.9125
-68.9975
-66.8975
-67.3737
-59.4283
-60.8754
-62.2377
-60.9568
-62.4179
-63.3326
-65.0199
-64.4771
-63.5884
-64.9483
-63.6337
-66.2022
-67.1605
-67.435
-67.4805
-70.4787
-64.9374
-63.7841
-67.2473
-67.163
-67.6474
-67.1207
-67.7065
-63.075
-68.8587
-66.3702
-67.8161
-69.1915
-69.1884
-69.1546
-70.053
-69.0178
-69.0191
-68.5152
-67.2827
-66.3636
-68.0613
-68.7883
-69.6877
-69.9593
-70.2708
-70.5196
-70.8538
-70.4631
-70.2429
-69.9211
-68.9965
-67.0478
-67.4965
-58.0028
-59.6201
-59.5389
-59.5818
-60.5008
-61.8291
-62.5164
-62.6385
-61.1193
-62.1951
-63.3174
-64.4877
-65.7208
-65.7174
-65.6906
-63.7848
-64.9829
-64.0796
-65.8763
-66.8191
-67.2996
-67.6287
-68.5069
-69.5181
-71.4678
-65.1997
-64.5565
-67.2256
-67.2699
-67.633
-68.6671
-67.6999
-67.1416
-67.9634
-63.5538
-69.0049
-66.5231
-68.0742
-69.3679
-69.2922
-69.2122
-69.9591
-70.29
-69.953
-68.9457
-69.0076
-68.4527
-67.3405
-66.4087
-68.4337
-69.2076
-69.8207
-69.9882
-70.2976
-70.5402
-70.8731
-70.996
-70.8358
-70.4451
-70.2931
-69.9399
-69.0042
-67.234
-67.6053
-56.7576
-58.1588
-57.8481
-57.7611
-59.4188
-59.5468
-60.4449
-59.5723
-59.9858
-60.262
-61.6166
-62.4403
-63.2083
-62.6361
-63.0081
-61.1342
-61.9029
-63.3651
-64.2191
-65.5012
-65.9294
-66.2079
-66.6108
-66.5906
-64.3334
-64.9236
-64.3735
-65.8393
-66.5602
-67.1521
-67.7835
-67.476
-68.2177
-69.8483
-71.0643
-72.0435
-65.4653
-65.3266
-67.2655
-67.1175
-67.7024
-68.6547
-69.1245
-68.7111
-67.7576
-67.1818
-68.2634
-64.8647
-69.0455
-66.668
-68.3706
-69.5617
-69.363
-69.3497
-70.0112
-70.3221
-70.4347
-70.2511
-69.7289
-68.9365
-69.0076
-68.4179
-67.3651
-66.4718
-68.7794
-69.5358
-69.9472
-70.0363
-70.3583
-70.5846
-70.9034
-71.0129
-71.2749
-70.982
-70.8188
-70.4479
-70.2805
-69.9647
-69.0136
-67.4127
-67.7154
-55.6959
-56.711
-56.8512
-56.81
-58.141
-57.7595
-58.191
-58.1669
-57.8563
-59.2404
-59.4324
-60.3607
-60.5694
-60.7203
-59.9879
-59.9179
-60.3398
-61.353
-62.1573
-63.0535
-63.2225
-63.3427
-62.9314
-63.473
-60.7793
-61.9401
-63.4509
-64.1695
-65.0816
-65.6801
-66.0021
-65.9871
-66.8883
-67.8515
-67.3824
-64.6123
-64.7693
-64.5946
-65.9232
-66.4167
-67.0288
-67.8332
-67.9167
-67.9437
-67.7943
-68.8937
-71.1331
-72.241
-72.5571
-65.5994
-65.9377
-67.55
-67.2217
-67.7994
-68.6682
-69.1027
-69.1252
-69.1232
-68.7585
-67.8763
-67.645
-68.6304
-66.2855
-68.7665
-66.7967
-68.6406
-69.7312
-69.4648
-69.4779
-70.1197
-70.3607
-70.4504
-70.7659
-70.4184
-70.2198
-69.7063
-68.9747
-69.0111
-68.3492
-67.4774
-66.5389
-69.0322
-69.762
-70.0445
-70.1113
-70.4089
-70.6316
-70.9398
-71.0297
-71.2931
-71.3699
-71.2532
-70.9733
-70.8085
-70.4642
-70.2613
-69.9824
-68.9962
-67.5653
-67.8171
-55.1507
-55.6217
-55.683
-55.8235
-56.626
-56.715
-57.0182
-56.9753
-56.6952
-57.9842
-57.7172
-58.0998
-58.5165
-58.3002
-58.5675
-57.8739
-59.3171
-59.2756
-60.2769
-60.3842
-60.8399
-60.7363
-61.0825
-60.2727
-60.1577
-60.4169
-61.2201
-62.0327
-62.7665
-63.0643
-63.576
-63.2605
-63.637
-63.5305
-63.79
-60.8088
-61.9534
-63.3808
-64.268
-64.9432
-65.4031
-65.828
-66.0053
-66.2625
-66.3541
-67.5246
-69.2448
-68.2742
-64.705
-64.5307
-64.7308
-66.006
-66.3871
-66.9876
-67.9845
-67.9412
-67.6647
-68.1322
-68.1091
-68.182
-69.5761
-72.1231
-73.1421
-72.1013
-65.7436
-66.3405
-67.8402
-67.404
-67.9593
-68.7428
-69.0614
-69.0517
-69.2008
-69.1592
-69.1741
-68.8291
-68.0769
-67.9958
-68.9365
-67.69
-68.3208
-66.8699
-68.8521
-69.8381
-69.5705
-69.5577
-70.1913
-70.4027
-70.4583
-70.8052
-70.7837
-70.7209
-70.4014
-70.2156
-69.7563
-69.003
-69.0397
-68.3466
-67.6019
-66.5839
-69.1997
-69.8969
-70.2264
-70.2118
-70.4322
-70.6664
-70.9684
-71.0505
-71.3106
-71.3776
-71.2537
-71.3626
-71.2342
-70.9617
-70.8055
-70.4866
-70.2608
-70.0039
-68.9367
-67.7477
-67.8816
-54.456
-55.1016
-55.3193
-55.1499
-55.6259
-55.7268
-56.0207
-55.7962
-55.8022
-56.6036
-56.7006
-56.9339
-57.068
-57.1087
-57.0161
-56.9299
-58.1279
-57.8527
-58.0609
-58.354
-58.5435
-58.5807
-58.4464
-58.9319
-57.7976
-59.1706
-59.3734
-60.2849
-60.5342
-60.747
-60.8488
-61.0429
-60.9246
-61.3481
-60.2509
-60.2881
-60.0561
-60.9693
-62.0666
-62.6321
-63.0764
-63.4457
-63.8681
-63.7769
-63.2954
-64.0191
-64.1534
-64.3809
-60.4446
-62.0545
-63.3344
-64.2051
-64.8669
-65.5473
-65.8365
-65.8483
-66.0331
-66.2835
-66.5164
-67.0046
-68.3883
-70.4665
-68.8459
-64.7507
-64.5627
-64.874
-66.0166
-66.3142
-67.0961
-68.2597
-68.0249
-67.568
-67.9527
-67.8537
-68.3025
-68.3558
-68.5551
-70.1824
-72.7677
-73.4577
-71.4276
-65.9139
-66.7514
-67.8681
-67.4651
-68.1187
-68.7963
-69.0646
-68.9941
-69.1519
-69.2774
-69.2859
-69.1648
-69.1899
-68.8478
-68.2434
-68.3237
-69.3163
-69.2717
-68.1965
-66.9143
-69.0075
-69.9835
-69.6785
-69.6761
-70.2593
-70.4467
-70.4748
-70.772
-70.7477
-70.701
-70.7593
-70.7574
-70.3787
-70.1925
-69.6958
-68.9629
-69.0817
-68.4368
-67.6177
-66.6262
-69.3544
-69.9786
-70.4478
-70.3407
-70.4645
-70.7281
-71.0108
-71.0749
-71.3283
-71.3926
-71.2557
-70.9671
-71.2421
-71.3426
-71.2172
-70.9489
-70.8063
-70.5092
-70.2791
-70.033
-68.9571
-68.0028
-67.923
-53.8341
-54.4276
-54.3615
-54.3789
-54.9691
-55.2807
-55.2412
-55.3249
-55.1373
-55.6079
-55.6773
-56.0166
-55.8826
-55.9353
-55.9785
-55.7112
-56.6578
-56.6507
-56.864
-57.0594
-57.2657
-57.0916
-57.2585
-57.0929
-57.0377
-57.9228
-57.7599
-58.0379
-58.3277
-58.5275
-58.6742
-58.6664
-58.685
-58.5414
-58.9911
-57.849
-59.0012
-59.491
-59.9784
-60.3712
-60.8034
-61.0236
-61.2744
-61.1232
-61.1487
-61.2799
-61.6035
-60.3411
-60.3202
-60.2144
-60.9053
-62.1413
-62.5081
-63.0309
-63.4036
-63.429
-63.7
-64.0205
-63.7979
-63.7673
-64.6605
-64.8472
-64.87
-60.3454
-62.0974
-63.3212
-64.3567
-64.8009
-65.5401
-65.7847
-65.914
-65.8931
-66.6143
-66.4517
-66.5927
-66.8488
-67.4054
-69.1788
-71.2854
-69.7852
-64.1331
-64.6952
-65.2259
-66.0413
-66.3383
-67.322
-68.4319
-67.8947
-67.496
-67.8601
-67.8583
-68.1262
-67.9742
-68.4696
-68.5956
-68.9333
-70.651
-72.9963
-73.0544
-70.8011
-66.0163
-67.3512
-67.8912
-67.6712
-68.2598
-68.8399
-69.0748
-68.9377
-69.0933
-69.202
-69.1475
-69.3685
-69.383
-69.1568
-69.1935
-68.8876
-68.3858
-68.6483
-69.6717
-70.0836
-68.2311
-67.0507
-69.1441
-70.1802
-69.7843
-69.8497
-70.3573
-70.5037
-70.5017
-70.789
-70.7694
-70.696
-70.3632
-70.7138
-70.7485
-70.725
-70.3631
-70.1605
-69.5914
-68.9442
-69.1158
-68.5326
-67.7171
-66.6827
-69.5483
-70.0543
-70.6783
-70.4582
-70.5177
-70.807
-71.0602
-71.1005
-71.3474
-71.4038
-71.26
-70.9434
-70.2459
-70.9971
-71.2274
-71.3261
-71.1934
-70.9428
-70.8106
-70.5479
-70.2682
-70.0615
-69.0663
-68.2485
-67.9468
-53.4731
-53.7561
-54.0237
-53.7837
-54.3116
-54.3183
-54.4769
-54.4229
-54.4343
-54.9042
-55.286
-55.1239
-55.3065
-55.1204
-55.3035
-55.0635
-55.656
-55.6628
-55.8676
-55.752
-56.0614
-55.9138
-55.9789
-55.943
-55.9456
-56.6329
-56.6162
-56.8638
-56.9838
-57.2794
-57.3759
-57.2731
-57.229
-57.3634
-57.3069
-57.0621
-57.7489
-57.8933
-57.9917
-58.3086
-58.5896
-58.7536
-58.3602
-58.7531
-58.7377
-58.8626
-58.6879
-59.0206
-57.8025
-59.046
-59.4385
-60.1957
-60.303
-60.4923
-60.9702
-61.2789
-61.1822
-61.4028
-61.2543
-61.5888
-61.4436
-61.7848
-60.3766
-60.3026
-60.3003
-60.873
-62.0746
-62.4275
-62.92
-63.3541
-63.4381
-63.6493
-63.8124
-63.9144
-64.205
-64.0996
-64.2449
-65.3535
-65.2969
-64.2849
-60.3238
-62.102
-63.6277
-64.8022
-64.9469
-65.6467
-65.7774
-65.6724
-65.775
-66.3296
-66.7777
-66.7364
-66.6516
-66.8812
-67.3072
-68.0345
-70.0535
-71.5993
-69.2494
-64.1324
-64.5634
-65.6289
-66.1208
-66.5564
-67.5207
-68.4268
-68.0964
-67.4129
-67.7993
-67.7226
-67.5268
-68.0363
-68.274
-68.1221
-68.7865
-68.8854
-69.5367
-71.0911
-72.9212
-72.3253
-70.3673
-66.018
-67.781
-68.1445
-67.8851
-68.4575
-68.906
-68.9147
-68.8844
-69.0386
-69.0831
-69.0733
-69.3784
-69.219
-69.5001
-69.4276
-69.2076
-69.2583
-68.9809
-68.5243
-68.8769
-69.9014
-69.9664
-68.2231
-67.2009
-69.2548
-70.3837
-69.8994
-69.9843
-70.4701
-70.569
-70.5445
-70.8242
-70.8148
-70.7031
-70.3325
-69.9022
-70.3879
-70.7427
-70.8285
-70.663
-70.3585
-70.1567
-69.6063
-68.9401
-69.1671
-68.6397
-67.9268
-66.7079
-69.7449
-70.1194
-70.8926
-70.5601
-70.561
-70.8896
-71.0994
-71.1283
-71.3607
-71.4185
-71.2669
-70.923
-70.2358
-70.3204
-70.2537
-71.0275
-71.2164
-71.3116
-71.177
-70.9414
-70.8185
-70.601
-70.2678
-70.0901
-69.1585
-68.4602
-67.9676
-53.2336
-53.4423
-53.6272
-53.479
-53.7353
-53.9095
-53.8533
-53.9076
-53.7957
-54.3522
-54.3425
-54.3017
-54.4275
-54.5771
-54.3987
-54.4641
-54.9806
-55.1491
-55.0882
-55.2069
-55.1272
-55.385
-55.2245
-55.2823
-55.1876
-55.6538
-55.6602
-55.8877
-55.8049
-56.0225
-55.9803
-56.0183
-55.9693
-56.0541
-56.0568
-55.928
-56.5192
-56.684
-56.8818
-56.9312
-57.1835
-57.3122
-57.4002
-57.2772
-57.3275
-57.1459
-57.4721
-57.2731
-57.1437
-57.638
-57.9838
-57.9389
-58.2251
-58.5652
-58.6514
-59.0467
-59.1634
-58.7403
-58.8666
-58.7097
-59.0979
-58.5843
-59.1859
-58.0362
-58.8977
-59.4307
-60.1793
-60.2483
-60.6088
-60.8936
-61.1008
-61.2267
-61.3138
-61.2733
-61.3559
-61.4724
-61.936
-61.8769
-62.3966
-59.8165
-60.4278
-60.3227
-60.6918
-62.1183
-62.4674
-62.7727
-63.3988
-63.4999
-63.7604
-63.6423
-64.0398
-64.058
-64.2471
-64.4196
-64.5974
-64.9708
-66.119
-66.1406
-63.8793
-60.6994
-62.2086
-64.426
-64.8642
-65.1868
-65.7568
-65.8522
-65.3984
-65.6678
-66.1706
-66.5576
-66.3306
-66.9367
-66.727
-66.8035
-67.3967
-67.8799
-68.9865
-70.8091
-71.9728
-68.1651
-64.1183
-64.4369
-65.9315
-66.2598
-66.6312
-67.7213
-68.4164
-68.1237
-67.3521
-67.6938
-67.6327
-67.4792
-67.5579
-67.6227
-68.2341
-68.4202
-68.2944
-69.0768
-69.2645
-69.9711
-71.4254
-72.6672
-71.6482
-69.7602
-66.0622
-68.1188
-68.3829
-67.9941
-68.5887
-68.9907
-68.9569
-68.8768
-69.0071
-69.0037
-69.0312
-69.2969
-69.2293
-69.4849
-69.2806
-69.6181
-69.5209
-69.2644
-69.3428
-69.0299
-68.6716
-69.0767
-69.9127
-69.7999
-68.1271
-67.3391
-69.3334
-70.5338
-70.0107
-70.12
-70.6038
-70.6478
-70.589
-70.8332
-70.8348
-70.6839
-70.3026
-69.9114
-70.087
-69.8744
-70.4278
-70.7636
-70.8292
-70.652
-70.3609
-70.1585
-69.6268
-68.9608
-69.2173
-68.7799
-68.0281
-66.7236
-69.8848
-70.151
-71.0795
-70.676
-70.6198
-70.96
-71.1351
-71.1511
-71.369
-71.4353
-71.2738
-70.9069
-70.224
-70.3047
-70.7372
-70.3364
-70.2534
-71.046
-71.2081
-71.2968
-71.1614
-70.9408
-70.8289
-70.6571
-70.3038
-70.1329
-69.2769
-68.612
-68.0253
-52.9585
-53.2261
-53.2628
-53.2384
-53.4112
-53.4172
-53.5547
-53.5414
-53.4553
-53.7445
-53.778
-53.832
-53.8657
-53.9188
-53.9533
-53.8332
-54.3509
-54.2654
-54.5217
-54.5517
-54.594
-54.5255
-54.4925
-54.4946
-54.5072
-54.9993
-55.063
-55.1682
-55.2072
-55.1335
-55.2872
-55.3387
-55.3315
-55.2244
-55.3136
-55.203
-55.6431
-55.7357
-55.8554
-55.8099
-55.9806
-56.0286
-56.2813
-56.0891
-56.0629
-55.9973
-56.0649
-56.1622
-55.9915
-56.4984
-56.5311
-56.8449
-56.9484
-57.1545
-57.3682
-57.4789
-57.7351
-57.4882
-57.2396
-57.12
-57.3363
-57.5654
-57.2636
-57.1448
-57.4549
-58.081
-57.9672
-58.248
-58.5935
-58.7014
-59.0501
-59.1959
-59.3538
-59.0527
-58.8373
-58.8629
-58.9167
-59.2956
-58.5184
-58.4361
-58.1165
-58.7571
-59.3319
-60.0202
-60.4333
-60.6479
-60.843
-61.1084
-61.3326
-61.2835
-61.5374
-61.4024
-61.3636
-61.5012
-61.7031
-62.0652
-62.337
-62.8015
-60.5254
-60.2292
-60.0003
-60.6034
-61.9495
-62.4514
-62.7273
-63.15
-63.5379
-63.6703
-63.657
-63.9331
-63.7643
-64.042
-64.2589
-64.4838
-64.6893
-65.0253
-65.561
-66.9673
-67.1123
-63.8089
-60.5822
-62.3858
-64.7439
-65.0953
-65.1466
-65.7762
-65.8081
-65.572
-65.5157
-66.0064
-66.4301
-66.1966
-66.3351
-66.4297
-67.093
-66.9793
-67.2471
-67.8696
-68.2726
-69.5598
-71.192
-71.4407
-68.9756
-64.0364
-64.3851
-65.8461
-66.2504
-66.7895
-67.8086
-68.4918
-67.8743
-67.5564
-67.7271
-67.6062
-67.5064
-67.5163
-67.5925
-67.5627
-67.776
-68.4317
-68.5938
-68.5375
-69.2994
-69.6174
-70.2191
-71.7029
-72.2107
-70.9412
-69.0559
-65.9976
-68.3266
-68.3911
-68.4026
-69.1954
-69.1664
-68.8811
-68.9294
-69.0315
-68.9507
-69.0037
-69.2819
-69.2538
-69.7478
-69.2221
-69.5659
-69.3815
-69.7111
-69.5874
-69.325
-69.4512
-69.1252
-68.776
-69.2702
-69.7625
-69.7482
-67.9559
-67.4632
-69.3695
-70.6453
-70.1216
-70.2722
-70.7503
-70.7294
-70.6445
-70.8213
-70.8855
-70.6686
-70.302
-69.9017
-70.0668
-70.9066
-70.0795
-69.843
-70.4552
-70.7863
-70.7399
-70.6701
-70.3698
-70.1627
-69.6364
-69.0143
-69.2326
-68.8851
-67.9896
-66.7616
-70.0029
-70.1875
-71.2232
-70.7915
-70.6987
-71.0238
-71.1677
-71.1697
-71.3778
-71.4495
-71.2822
-70.8941
-70.2102
-70.2886
-70.7246
-71.0809
-70.7546
-70.3517
-70.2686
-71.0552
-71.202
-71.2828
-71.1483
-70.943
-70.838
-70.6966
-70.3688
-70.1955
-69.4471
-68.6896
-68.0816
-52.7192
-52.9642
-52.9993
-52.9714
-53.2072
-53.2425
-53.2621
-53.2948
-53.2178
-53.406
-53.3117
-53.6483
-53.429
-53.5655
-53.5984
-53.5759
-53.8145
-53.8493
-53.9343
-53.9524
-54.0742
-54.0022
-53.8782
-53.9007
-53.9492
-54.4082
-54.3656
-54.4345
-54.5116
-54.6432
-54.5654
-54.5946
-54.5414
-54.5588
-54.5377
-54.5813
-55.0428
-55.1506
-55.0324
-55.1875
-55.3078
-55.2897
-55.4806
-55.3651
-55.2912
-55.2222
-55.2655
-55.2777
-55.1702
-55.7035
-55.7774
-55.7596
-55.7953
-55.9311
-56.2306
-56.3611
-56.4879
-56.3473
-56.0574
-56.0019
-56.1302
-55.9928
-56.1788
-55.9203
-56.6581
-56.5563
-56.8774
-56.8863
-57.2289
-57.4171
-57.5792
-57.7414
-57.8779
-57.6606
-57.3335
-57.3137
-57.254
-57.4827
-57.433
-57.177
-57.1889
-57.5515
-57.9419
-58.0115
-58.5182
-58.5074
-58.8261
-58.9509
-59.0468
-59.2973
-59.4905
-59.1483
-59.0943
-59.0291
-58.8617
-59.0238
-59.4514
-58.595
-58.1642
-58.1387
-58.6148
-59.1334
-60.2694
-60.2288
-60.867
-60.9525
-61.0408
-60.9401
-61.5423
-61.5365
-61.6226
-61.8224
-61.4708
-61.4182
-61.787
-61.9413
-62.3784
-62.684
-62.0401
-61.3758
-59.9262
-59.8087
-60.5928
-61.9751
-62.7296
-62.7811
-63.4026
-63.4484
-63.5029
-63.6774
-63.8603
-63.9806
-63.9139
-63.8238
-64.0527
-64.2831
-64.5644
-65.0344
-65.5849
-66.0865
-67.7867
-66.7741
-63.5326
-60.49
-62.1893
-64.7738
-65.5324
-65.1245
-65.7702
-65.6974
-65.2482
-65.4728
-65.8022
-66.39
-66.1606
-66.294
-66.6669
-66.3541
-66.572
-67.2686
-67.3458
-67.5809
-68.3553
-68.9744
-69.9954
-71.1839
-70.4917
-68.0511
-63.7741
-64.5119
-66.1527
-66.2481
-67.0436
-67.8021
-68.6199
-67.9558
-67.5837
-67.7122
-67.4963
-67.6126
-67.5517
-67.6063
-68.1375
-67.6146
-67.5776
-68.013
-68.6337
-68.7654
-68.805
-69.5742
-69.9078
-70.3738
-71.9097
-71.5689
-70.2696
-68.296
-66.0139
-68.3641
-68.6416
-68.6181
-69.2346
-69.2405
-68.9552
-68.9897
-69.0492
-68.9067
-68.9819
-69.2618
-69.2769
-69.7681
-70.8155
-69.7137
-69.2155
-69.6895
-69.4844
-69.811
-69.6548
-69.3991
-69.5839
-69.259
-68.8214
-69.3581
-69.6524
-69.606
-67.7049
-67.5773
-69.3926
-70.7563
-70.283
-70.458
-70.8934
-70.817
-70.7106
-70.8317
-70.9292
-70.6612
-70.3091
-69.8893
-70.0291
-70.8747
-71.3602
-70.97
-70.0736
-69.8219
-70.4981
-70.8485
-70.7386
-70.6623
-70.387
-70.1745
-69.6556
-69.0413
-69.26
-68.9135
-67.9483
-66.828
-70.1293
-70.2668
-71.3183
-70.9179
-70.804
-71.1012
-71.2009
-71.1929
-71.3965
-71.4612
-71.2908
-70.8837
-70.1941
-70.2715
-70.7148
-71.0308
-71.2948
-71.1255
-70.7707
-70.3669
-70.2937
-71.07
-71.1913
-71.2693
-71.1319
-70.9489
-70.8492
-70.7274
-70.4516
-70.225
-69.569
-68.7819
-68.1085
-52.5385
-52.7438
-52.7263
-52.7152
-52.9432
-53.0209
-53.0095
-52.9681
-52.9944
-53.1859
-53.2168
-53.3289
-53.3041
-53.2912
-53.3421
-53.2784
-53.4064
-53.3609
-53.5853
-53.6497
-53.6196
-53.5448
-53.5832
-53.5508
-53.5994
-53.8661
-53.8648
-53.894
-54.0045
-54.0612
-54.1144
-54.0112
-53.9708
-53.9565
-54.014
-54.034
-54.462
-54.4728
-54.3912
-54.4066
-54.5448
-54.626
-54.7456
-54.5996
-54.5959
-54.4154
-54.5298
-54.5724
-54.5569
-55.0654
-55.1944
-55.0159
-55.1414
-55.1623
-55.3305
-55.4783
-55.514
-55.4659
-55.3699
-55.2823
-55.2912
-55.2953
-55.2426
-55.1447
-55.7169
-55.7796
-55.8873
-55.8801
-55.8229
-56.0948
-56.3921
-56.5239
-56.6574
-56.4709
-56.2221
-56.0947
-56.071
-56.1351
-55.9403
-56.1294
-55.9237
-56.6123
-56.5228
-56.8704
-57.0548
-57.1696
-57.3011
-57.5468
-57.6891
-57.8438
-58.2119
-57.8169
-57.5831
-57.4847
-57.3504
-57.3816
-57.5213
-57.3826
-56.793
-57.0186
-57.4986
-57.9964
-58.1002
-58.4389
-58.5821
-58.8713
-59.065
-59.1009
-59.3273
-59.4812
-59.7383
-59.4322
-59.2258
-59.2587
-59.0538
-59.1355
-59.1645
-59.4356
-58.312
-58.3442
-58.1835
-58.6883
-59.4149
-60.2472
-60.1503
-60.8357
-60.8905
-60.9812
-61.306
-61.6052
-61.6792
-61.7056
-61.7597
-61.7076
-61.7215
-61.6427
-61.5372
-61.9657
-62.1467
-63.0639
-62.6884
-61.4865
-60.2165
-59.8667
-59.7478
-61.1929
-62.2004
-62.7358
-63.0369
-63.2893
-63.3544
-63.3409
-63.6217
-63.8556
-64.0705
-64.0214
-64.0259
-63.8052
-64.1668
-64.1105
-64.49
-64.8736
-65.657
-66.2712
-66.8144
-67.9941
-65.8392
-63.1199
-60.1659
-61.953
-65.0106
-65.2228
-65.4644
-65.6483
-65.6796
-65.5858
-65.4339
-65.6906
-66.2656
-66.0962
-66.2153
-66.764
-66.8129
-66.5907
-66.3775
-66.8903
-67.4375
-67.5196
-68.0262
-68.8824
-69.6621
-70.2394
-70.9112
-69.2041
-67.1751
-63.3946
-64.4153
-66.3727
-66.2575
-67.1546
-68.0897
-68.7159
-67.6538
-67.2641
-67.737
-67.5382
-67.6537
-67.5977
-67.6416
-68.1948
-68.5453
-68.1117
-67.667
-67.7478
-68.2318
-68.8151
-68.8935
-69.112
-69.8227
-70.1449
-70.3961
-71.6453
-71.2372
-69.8068
-67.3568
-66.0456
-68.3169
-68.9213
-68.6552
-69.0907
-69.2445
-69.113
-69.0884
-69.0336
-68.8555
-68.9719
-69.2521
-69.2846
-69.8084
-70.8772
-70.5754
-70.7543
-69.6941
-69.2224
-69.7963
-69.5872
-69.9198
-69.7179
-69.4869
-69.694
-69.3595
-68.8446
-69.3402
-69.5946
-69.2812
-67.4051
-67.7692
-69.4303
-70.8667
-70.4272
-70.6285
-71.0273
-70.8993
-70.7784
-70.8397
-70.9605
-70.6641
-70.309
-69.8725
-70.0014
-70.8623
-71.3226
-72.008
-71.387
-71.0329
-70.0844
-69.8191
-70.5794
-70.867
-70.7833
-70.6539
-70.418
-70.1733
-69.6794
-69.0771
-69.3086
-68.9568
-68.0437
-66.9376
-70.2605
-70.316
-71.3804
-71.0165
-70.9245
-71.1861
-71.2324
-71.2161
-71.415
-71.4745
-71.2954
-70.8749
-70.1783
-70.254
-70.7066
-70.9781
-71.2467
-72.0493
-71.3409
-71.1616
-70.7786
-70.3823
-70.3134
-71.094
-71.1798
-71.2577
-71.1187
-70.9584
-70.8629
-70.7663
-70.5094
-70.2036
-69.6535
-68.8642
-68.1282
-52.4021
-52.5502
-52.5084
-52.5125
-52.7108
-52.7301
-52.7516
-52.7176
-52.7365
-52.9298
-52.9482
-53.0281
-53.006
-53.0016
-53.021
-52.9463
-53.158
-53.146
-53.269
-53.3348
-53.2975
-53.2658
-53.3553
-53.3666
-53.3452
-53.4128
-53.3978
-53.5088
-53.5723
-53.6556
-53.6646
-53.6531
-53.6333
-53.6065
-53.5744
-53.6155
-53.8378
-53.8587
-53.9465
-53.9336
-53.993
-54.1266
-54.1679
-54.0678
-54.0216
-53.9156
-53.9667
-54.0491
-54.0503
-54.2227
-54.3276
-54.5671
-54.4929
-54.4141
-54.631
-54.7445
-54.7692
-54.7812
-54.6129
-54.5468
-54.4965
-54.5586
-54.5647
-54.5298
-54.9257
-55.0394
-55.0746
-55.1193
-55.1381
-55.2553
-55.4311
-55.4899
-55.7337
-55.448
-55.4459
-55.231
-55.3702
-55.3044
-55.2005
-55.1916
-55.1344
-55.6564
-55.7965
-55.8665
-55.9157
-56.088
-56.0556
-56.3172
-56.5269
-56.6812
-56.7465
-56.6601
-56.4277
-56.1082
-56.2672
-56.1078
-56.2083
-55.9387
-56.0018
-55.9177
-56.6437
-56.8104
-56.8518
-56.9038
-57.2138
-57.3704
-57.6344
-57.649
-57.8406
-58.0385
-58.0728
-57.8218
-57.7461
-57.6054
-57.5742
-57.4984
-57.5804
-57.412
-57.1366
-57.064
-56.9079
-57.5617
-58.3747
-57.9994
-58.4493
-58.6202
-58.7503
-58.9516
-59.2041
-59.2661
-59.6155
-59.5694
-59.8421
-59.6189
-59.3455
-59.3899
-59.1875
-59.2614
-59.186
-59.3864
-59.2795
-58.2149
-58.536
-58.3871
-58.629
-59.4481
-60.074
-60.2755
-61.0084
-61.0861
-61.2721
-61.3478
-61.4915
-61.7396
-61.703
-61.6388
-61.6131
-61.567
-61.8713
-61.668
-61.5757
-61.7501
-61.9893
-62.7139
-63.3281
-62.6337
-61.9626
-60.5408
-60.3042
-59.6114
-61.4844
-62.458
-62.8904
-63.0813
-63.2009
-63.4053
-63.1138
-63.5383
-63.7628
-64.0661
-64.1034
-64.1896
-64.2651
-64.0275
-63.9926
-64.364
-64.4599
-64.8609
-65.3149
-66.1513
-66.9414
-67.3634
-67.124
-65.6463
-63.2505
-60.0489
-61.6853
-65.2134
-65.0341
-65.7263
-65.9134
-65.4904
-65.371
-65.2703
-65.564
-66.1707
-66.1156
-66.2906
-66.7664
-67.0285
-67.1669
-66.7243
-66.6181
-66.5332
-67.2234
-67.6281
-67.5794
-68.4757
-69.3391
-70.1613
-70.1317
-70.3842
-68.4442
-66.7323
-62.8639
-63.8825
-66.3135
-66.2166
-67.1535
-68.2444
-68.7868
-67.5246
-67.2419
-67.7959
-67.5473
-67.7366
-67.6421
-67.7335
-68.3026
-68.5087
-68.3853
-68.5616
-68.1478
-67.7911
-67.9896
-68.3827
-68.9467
-68.9469
-69.4373
-69.9859
-70.4027
-70.4225
-71.311
-71.0953
-69.138
-66.9236
-65.9841
-68.2826
-69.0824
-68.8985
-69.323
-69.5661
-69.2536
-69.2001
-69.0345
-68.8404
-68.9668
-69.2407
-69.2913
-69.8405
-70.8971
-70.6367
-70.5317
-70.5099
-70.6694
-69.6837
-69.2571
-69.8899
-69.6805
-70.0121
-69.8107
-69.5854
-69.7982
-69.4405
-68.8493
-69.2762
-69.5007
-68.5531
-67.2159
-68.011
-69.4998
-70.9667
-70.5687
-70.8296
-71.1783
-70.9692
-70.8259
-70.8622
-70.992
-70.6557
-70.3071
-69.8596
-69.99
-70.8333
-71.2768
-71.9554
-72.2953
-72.0405
-71.4079
-71.086
-70.107
-69.8332
-70.6772
-70.8445
-70.8239
-70.6514
-70.4528
-70.1728
-69.6953
-69.107
-69.3728
-69.0017
-68.1774
-67.0685
-70.4001
-70.2797
-71.419
-71.1385
-71.0312
-71.2807
-71.2602
-71.2329
-71.4243
-71.4871
-71.2963
-70.8677
-70.1619
-70.2425
-70.6979
-70.932
-71.1944
-72.023
-72.107
-72.0743
-71.3723
-71.1914
-70.7902
-70.3881
-70.3252
-71.1182
-71.1727
-71.2444
-71.1043
-70.9675
-70.8742
-70.8223
-70.5365
-70.2268
-69.768
-68.9043
-68.1434
-52.2308
-52.3793
-52.4113
-52.378
-52.528
-52.5373
-52.5785
-52.4867
-52.5453
-52.7068
-52.6874
-52.7626
-52.8271
-52.7131
-52.7343
-52.7404
-52.8687
-52.9041
-52.9877
-53.0528
-52.9798
-53.0337
-53.0591
-53.0615
-52.9624
-53.1545
-53.1666
-53.2166
-53.3577
-53.278
-53.314
-53.3318
-53.3414
-53.3137
-53.3329
-53.3152
-53.4627
-53.4098
-53.4976
-53.4788
-53.5776
-53.6943
-53.728
-53.6498
-53.6822
-53.5827
-53.6603
-53.6084
-53.6336
-53.8008
-53.8183
-53.9189
-53.9875
-54.018
-54.0524
-54.1818
-54.2583
-54.1638
-54.0863
-53.9837
-53.9677
-53.9781
-54.0698
-54.0359
-54.3241
-54.2705
-54.5377
-54.5368
-54.6366
-54.6059
-54.7328
-54.7988
-54.9406
-54.8581
-54.7745
-54.576
-54.5735
-54.5638
-54.5331
-54.4922
-54.4884
-54.952
-55.0207
-55.0367
-55.1203
-55.2937
-55.3205
-55.4527
-55.5255
-55.7657
-55.816
-55.7113
-55.4596
-55.307
-55.3437
-55.2666
-55.3256
-55.15
-55.1338
-55.0989
-55.6823
-55.7391
-55.8493
-55.9393
-56.0707
-56.0276
-56.2761
-56.4618
-56.6448
-56.7133
-56.8565
-56.736
-56.6115
-56.3329
-56.3584
-56.1852
-56.176
-56.1779
-55.9308
-55.9523
-55.9396
-56.7767
-56.7397
-56.7868
-56.9386
-57.1641
-57.3961
-57.5502
-57.7872
-57.8079
-57.9721
-57.9988
-58.0185
-58.0856
-57.8365
-57.8135
-57.6949
-57.6787
-57.6392
-57.6337
-57.2992
-57.0473
-57.1631
-56.9155
-57.6012
-58.235
-58.0769
-58.568
-58.7089
-58.7963
-59.0527
-59.1293
-59.2039
-59.4984
-59.5898
-60.0198
-59.7044
-59.7331
-59.5348
-59.428
-59.4491
-59.3533
-59.2379
-59.3612
-59.5171
-59.1826
-58.443
-58.3926
-58.4453
-58.672
-59.3018
-60.0592
-60.1197
-61.1275
-61.2073
-61.3044
-61.305
-61.5751
-61.8567
-61.8969
-61.661
-61.656
-61.8199
-61.4308
-61.7259
-61.8418
-61.732
-61.6716
-61.9156
-62.6126
-63.1647
-63.5134
-63.0621
-61.9451
-60.7787
-59.7399
-60.145
-61.6392
-62.7029
-63.2429
-63.0494
-63.2328
-63.1129
-63.3418
-63.3044
-63.904
-64.2352
-64.1873
-64.3083
-64.296
-64.095
-64.2984
-64.0453
-63.8796
-64.3497
-64.5718
-65.2151
-65.7829
-66.7893
-67.5098
-67.5872
-67.1138
-64.8114
-63.2434
-60.1253
-61.7154
-64.9867
-65.0781
-65.9186
-65.8968
-65.5801
-65.276
-65.2459
-65.5955
-66.131
-66.2504
-66.3787
-66.7975
-67.1718
-67.1873
-66.6797
-67.1344
-66.7887
-66.6933
-66.9369
-67.4417
-67.7817
-67.9503
-68.9619
-69.8829
-70.4311
-69.9655
-69.551
-68.0508
-65.9334
-62.4522
-63.9022
-65.9921
-66.2566
-67.1425
-68.1452
-68.75
-67.6632
-67.3876
-67.7297
-67.6654
-67.8202
-67.7424
-67.8444
-68.3727
-68.5443
-68.3295
-68.0678
-68.4042
-68.6616
-68.2039
-67.911
-68.1676
-68.5814
-69.119
-69.1488
-69.74
-70.2398
-70.3273
-70.2148
-71.0368
-70.9198
-68.1992
-66.7717
-66.1864
-68.3174
-69.2323
-69.1714
-69.5834
-69.7934
-69.3699
-69.2782
-69.05
-68.8225
-68.9585
-69.2318
-69.2875
-69.8761
-70.8999
-70.6757
-70.4975
-70.4101
-70.5335
-70.4158
-70.5807
-69.6689
-69.2849
-69.9827
-69.7712
-70.1039
-69.889
-69.6465
-69.8973
-69.5002
-68.8323
-69.2443
-69.2588
-67.7376
-67.1262
-68.2695
-69.6074
-71.0612
-70.7593
-71.0089
-71.3227
-71.0255
-70.849
-70.9328
-71.0208
-70.6459
-70.3035
-69.8498
-69.9683
-70.7978
-71.233
-71.865
-72.17
-71.8985
-72.4616
-71.9845
-71.4179
-71.1356
-70.15
-69.8639
-70.7819
-70.8708
-70.857
-70.6495
-70.4659
-70.1648
-69.6829
-69.0904
-69.442
-69.0329
-68.2864
-67.2156
-70.555
-70.2486
-71.4313
-71.257
-71.1134
-71.375
-71.2914
-71.2467
-71.4283
-71.4993
-71.2987
-70.8607
-70.151
-70.2354
-70.6725
-70.8881
-71.1379
-71.9976
-72.0796
-71.7315
-72.1686
-72.0959
-71.3976
-71.2197
-70.8126
-70.3895
-70.3352
-71.1409
-71.1652
-71.2308
-71.0905
-70.9756
-70.893
-70.8849
-70.5678
-70.3109
-69.9533
-68.9731
-68.1411
-52.1168
-52.2292
-52.2034
-52.231
-52.3576
-52.3849
-52.4075
-52.3831
-52.3866
-52.5309
-52.5009
-52.5694
-52.5572
-52.5474
-52.5211
-52.5432
-52.6816
-52.747
-52.7218
-52.7929
-52.779
-52.816
-52.7635
-52.7322
-52.6788
-52.8999
-52.951
-52.9222
-52.9388
-52.9472
-53.071
-53.0117
-53.0078
-53.0669
-53.0499
-53.0457
-53.134
-53.1966
-53.1718
-53.0618
-53.2401
-53.3277
-53.359
-53.3218
-53.349
-53.3546
-53.2873
-53.3898
-53.3086
-53.4227
-53.3849
-53.4611
-53.5046
-53.5672
-53.6612
-53.7308
-53.8108
-53.7407
-53.6613
-53.6208
-53.5765
-53.637
-53.6167
-53.6229
-53.9526
-53.8459
-53.9037
-54.0436
-54.052
-54.0805
-54.1815
-54.26
-54.3226
-54.2691
-54.1769
-54.0621
-54.0016
-54.0285
-54.0169
-54.0099
-53.9775
-54.4818
-54.4233
-54.5357
-54.5029
-54.6612
-54.6036
-54.7447
-54.7961
-54.94
-55.0056
-54.9817
-54.8021
-54.6556
-54.6401
-54.562
-54.4917
-54.4057
-54.4816
-54.4698
-55.0289
-55.1104
-55.0176
-55.0934
-55.1794
-55.2761
-55.4145
-55.5894
-55.763
-55.8174
-55.9081
-55.7988
-55.6473
-55.5361
-55.3682
-55.36
-55.2199
-55.2297
-55.106
-55.0541
-55.1333
-55.6085
-55.7506
-55.7119
-55.8412
-56.0624
-56.1793
-56.2687
-56.3708
-56.5876
-56.6577
-56.8473
-56.943
-56.8911
-56.6949
-56.599
-56.3555
-56.3335
-56.2193
-56.2278
-56.1247
-55.9515
-55.9039
-55.8468
-56.4887
-56.7692
-56.881
-56.8688
-57.1436
-57.3792
-57.5523
-57.7541
-57.724
-57.9424
-58.0321
-58.0846
-58.1614
-58.0838
-57.9732
-57.939
-57.9124
-57.7517
-57.7775
-57.5766
-57.619
-57.3464
-56.6864
-57.0983
-56.715
-57.4749
-58.2066
-58.2669
-58.5333
-58.6529
-58.8948
-59.058
-59.1674
-59.5967
-59.4843
-59.6776
-59.609
-59.6155
-59.8635
-59.7088
-59.5857
-59.4839
-59.3591
-59.324
-59.3822
-59.4232
-59.551
-59.5743
-58.9465
-58.7041
-58.2961
-58.6824
-58.65
-59.4765
-60.1033
-60.4028
-61.1635
-61.1818
-61.3567
-61.4778
-61.1949
-61.4834
-61.9226
-61.8721
-61.7189
-61.8198
-61.7994
-61.6163
-61.5086
-61.7975
-61.6375
-61.7676
-62.087
-62.2959
-63.0402
-63.4171
-63.881
-62.9871
-61.5202
-60.9895
-58.8215
-60.3064
-61.7895
-62.8835
-63.3214
-63.3175
-63.1984
-63.1364
-63.2253
-63.2949
-64.011
-64.2241
-64.3023
-64.4786
-64.3364
-64.236
-64.048
-64.2412
-64.2111
-63.9975
-64.1485
-64.7555
-64.8165
-65.5096
-66.3774
-67.4499
-67.678
-67.8136
-66.0957
-64.3679
-63.0796
-60.3661
-62.0934
-64.5426
-65.087
-66.1229
-66.2514
-65.8867
-65.4549
-65.281
-65.6807
-66.0742
-66.3578
-66.4293
-66.9095
-67.3812
-67.2918
-66.6558
-65.8871
-66.7886
-66.9557
-66.836
-66.6957
-67.0517
-67.6201
-68.1007
-69.1558
-69.7112
-70.2399
-70.4107
-69.6564
-68.8222
-67.6219
-65.5785
-61.5913
-63.9717
-65.83
-66.1944
-67.1637
-68.2136
-68.6647
-67.7556
-67.5059
-67.7475
-67.6096
-67.8887
-67.8433
-67.9441
-68.4478
-68.6967
-68.2928
-68.0583
-67.1827
-68.024
-68.4365
-68.6311
-68.3376
-68.1054
-68.3852
-68.7909
-69.3118
-69.7707
-70.0101
-70.4281
-70.2889
-69.7964
-70.8739
-70.5148
-67.7695
-66.746
-66.5993
-68.4521
-69.4172
-69.3959
-69.8092
-69.8599
-69.5816
-69.3798
-69.1014
-68.8372
-68.9654
-69.2508
-69.3415
-69.9165
-70.8712
-70.6662
-70.4546
-70.2846
-69.4544
-70.4649
-70.5301
-70.3191
-70.498
-69.6835
-69.3205
-70.0733
-69.8684
-70.1666
-69.9513
-69.7389
-69.9546
-69.4905
-68.7857
-69.2199
-68.945
-67.4558
-67.0795
-68.6001
-69.7728
-71.1514
-70.946
-71.1602
-71.4582
-71.0634
-70.8534
-70.9832
-71.0397
-70.6408
-70.2908
-69.8381
-69.9388
-70.7541
-71.1509
-71.7216
-72.0703
-71.7574
-70.3481
-71.964
-72.6091
-71.9314
-71.4348
-71.1814
-70.2083
-69.9238
-70.8828
-70.9252
-70.8928
-70.6383
-70.4794
-70.1567
-69.6934
-69.084
-69.4952
-69.0493
-68.3497
-67.4014
-70.714
-70.3314
-71.3982
-71.3541
-71.1756
-71.46
-71.3245
-71.2606
-71.4343
-71.5151
-71.3104
-70.8512
-70.1402
-70.2247
-70.633
-70.8317
-71.0832
-71.9572
-72.0759
-71.7108
-70.9846
-71.7474
-72.2193
-72.115
-71.4206
-71.2467
-70.8465
-70.4029