/*--------------------------------*- C++ -*----------------------------------*\
  =========                 |
  \\      /  F ield         | OpenFOAM: The Open Source CFD Toolbox
   \\    /   O peration     | Website:  https://openfoam.org
    \\  /    A nd           | Version:  7
     \\/     M anipulation  |
\*---------------------------------------------------------------------------*/
FoamFile
{
    version     2.0;
    format      ascii;
    class       volScalarField;
    location    "10";
    object      nut;
}
// * * * * * * * * * * * * * * * * * * * * * * * * * * * * * * * * * * * * * //

dimensions      [0 2 -1 0 0 0 0];

internalField   nonuniform List<scalar> 
18750
(
0.00050068
0.000697177
0.000610985
0.000417482
0.000865787
0.000624262
0.000586172
0.000249591
0.000654831
0.000308457
0.000996748
0.000783914
0.000867381
0.000679966
0.000608069
0.000546799
0.000590304
0.000259139
0.000704927
0.000218501
0.00241308
0.00113149
0.000814404
0.000472426
0.000664957
0.000721531
0.0010752
0.000820835
0.000647893
0.000535458
0.000363342
0.000572348
0.000314119
0.000765466
0.000203919
0.00267157
0.000697171
0.00202966
0.00142451
0.000911594
0.00101515
0.00077424
0.000833994
0.000698968
0.000528769
0.000269438
0.000632009
0.000921602
0.000710567
0.000513566
0.000172105
0.000186227
0.000451209
0.000440102
0.000792707
0.000244539
0.00210372
0.00181279
0.00237058
0.00113644
0.000486051
0.0025739
0.0011253
0.00163284
0.00111305
0.000838339
0.000164902
0.000778884
0.000681301
0.000995034
0.000753273
0.000555801
0.000413922
0.000585578
0.00109065
0.000666233
0.000491257
0.000324861
0.000153832
0.000336066
0.000313902
0.000523256
0.000781695
0.000317875
0.00223223
0.00129044
0.00218258
0.000758569
0.00137014
0.00253009
0.00152207
0.000809633
0.00218841
0.00202869
0.000746184
0.000986605
0.00117187
0.000230937
0.00129849
0.000157737
0.000200257
0.000443324
0.000649591
0.000712072
0.000621901
0.000314523
0.000469092
0.000575545
0.000369944
0.000834549
0.000696146
0.000461931
0.000338172
0.000298242
0.00014644
0.000373365
0.000380896
0.000566935
0.00075695
0.000264172
0.00271115
0.000823864
0.00215113
0.000850795
0.00118414
0.00228426
0.000587151
0.00168153
0.00065639
0.00276173
0.000974754
0.00119398
0.00144323
0.0018424
0.00159766
0.00103753
0.00047371
0.000878683
0.00107959
0.000647767
0.00116889
0.000142546
0.000303738
0.000277787
0.000113526
0.000423597
0.000529283
0.000706885
0.000331741
0.000369967
0.000424733
0.000874086
0.000529012
0.000447258
0.000650501
0.000397905
0.000172139
0.000359682
0.000191894
0.000155143
0.000383647
0.000378806
0.000600748
0.000715532
0.000272617
0.00248065
0.000319081
0.00243812
0.000506121
0.000587685
0.00210986
0.00106201
0.000606476
0.000599249
0.00255673
0.000909517
0.00102337
0.000864946
0.000769995
0.00254552
0.00138008
0.000863292
0.0010568
0.000868427
0.000540041
0.00186936
0.000873889
0.000902014
0.000653915
0.00052924
0.000807914
0.00114179
0.00127075
0.000277867
0.000360483
0.000369005
0.000263292
0.00020142
0.000633423
0.00073861
0.000787122
0.000472625
0.000301163
0.000331025
0.000377888
0.000734046
0.000604571
0.000488712
0.000598993
0.000404684
7.62475e-05
0.000181932
0.000328861
0.000322185
0.000203842
0.000391804
0.00046234
0.000587305
0.000689322
0.000284416
0.0023636
0.000701252
0.00224311
0.000470247
0.000262382
0.00245692
0.000562785
0.000701601
0.000432193
0.00203238
0.000619284
0.000753956
0.000837702
0.000972496
0.00278353
0.00092923
0.000631193
0.000971379
0.000356775
0.00129979
0.00289876
0.00144624
0.000874165
0.000906236
0.00128127
0.00100271
0.000805212
0.00208723
0.000536546
0.000978782
0.000968815
0.000567592
0.000369548
0.000429165
0.000434078
0.00114133
0.00033846
0.000241313
0.000120162
0.000259359
0.000347965
0.00043388
0.000578007
0.000441569
0.000848847
0.000259706
0.00041277
0.000287921
0.000242385
0.000365308
0.000539644
0.000533197
0.000528696
0.000525697
0.000420828
0.000144002
7.67091e-05
0.00019454
0.000222964
0.000390483
0.000220954
0.00037145
0.000502087
0.000635492
0.000656068
0.000278649
0.00248738
0.000671983
0.00214024
0.000664469
0.000782746
0.00242177
0.000342888
0.000727128
0.000766131
0.00247739
0.000779143
0.000630678
0.000206148
0.000745007
0.00210727
0.000607868
0.000772048
0.000861369
0.000897415
0.0013446
0.00262241
0.000663977
0.000576257
0.000839073
0.000827048
0.00124889
0.00188061
0.00284947
0.000432591
0.000687192
0.0010681
0.000738521
0.000942054
0.00056327
0.00111626
0.00176461
0.000557035
0.000683526
0.000347093
0.000532051
0.000320795
0.00039266
0.000446237
0.000617772
0.00136373
0.000339392
0.000400828
0.000293188
0.00056187
0.000538466
0.000514229
0.000457681
0.000555102
0.000400253
0.00100391
0.000256437
0.000311359
0.000368892
0.000304842
0.000134333
0.000541154
0.000729642
0.00044867
0.000581032
0.000535518
0.000466203
0.000125554
0.000132993
8.02569e-05
0.000201261
0.00013618
0.00038255
0.000185511
0.000362343
0.000503894
0.00067328
0.000512104
0.000194853
0.00227399
0.000360971
0.0022938
0.000348886
0.000538369
0.00227003
0.0005499
0.000384531
0.000517025
0.00240185
0.000453571
0.00071306
0.000409373
0.000919726
0.00241951
0.000717061
0.000734888
0.000649542
0.00074001
0.000755932
0.00219347
0.000547532
0.000531651
0.000743239
0.00102763
0.000854089
0.00146061
0.00252816
0.000521404
0.000268052
0.00044377
0.00046946
0.000775826
0.00100241
0.00133864
0.00317139
0.000697569
0.000953368
0.00140415
0.000783505
0.00072701
0.000455582
0.0010057
0.000410541
0.00162937
0.00049531
0.000484767
0.000385387
0.00153583
0.000377196
0.000398373
0.00034343
0.000417242
0.000791215
0.00134871
0.000302154
0.000472041
0.000496896
0.000356239
0.000191789
0.000235168
0.000392264
0.000280018
0.000511742
0.000450498
0.000996793
0.000158645
0.000237942
0.000271074
0.000269707
0.000324801
0.000255337
0.000518291
0.000785784
0.000418691
0.000671546
0.000534809
0.000529298
0.00016624
0.000121216
0.000126841
9.71629e-05
0.000196163
0.000121513
0.000351421
0.000248572
0.000336242
0.000500384
0.00058199
0.000478628
0.000301454
0.00234848
0.000386015
0.00220391
0.000406485
0.000463627
0.00234502
0.000454892
0.000452943
0.000508663
0.00230533
0.000704862
0.000478368
0.000346781
0.000357077
0.00243027
0.000940159
0.000800155
0.000580197
0.000526694
0.000546831
0.0023971
0.000631904
0.000637358
0.000571997
0.000645516
0.000617631
0.000714858
0.0021382
0.000883892
0.000898832
0.000500286
0.000643874
0.000493798
0.00129906
0.000897207
0.00268703
0.000274988
0.0012908
0.00070309
0.000708785
0.000308378
0.000493818
0.00183557
0.00133865
0.00248382
0.00044976
0.000382245
0.000723325
0.000838857
0.000694246
0.000727919
0.000888184
0.000484669
0.000779928
0.00205779
0.000325984
0.000430029
0.000505689
0.000552562
0.000645273
0.00067036
0.000495334
0.000348182
0.000602675
0.000684407
0.00143733
0.000256533
0.000315694
0.000588977
0.000577401
0.000403241
0.00060039
0.000649452
0.000109735
0.000433508
0.000703818
0.00042632
0.00107336
0.000202628
0.000133149
0.000206796
0.000303918
0.000183112
0.000317366
0.000245188
0.000451903
0.000458853
0.000421951
0.000612725
0.000538275
0.000569211
0.000148106
0.000161607
0.000115321
0.000120604
0.000109757
0.000182976
0.000101581
0.000238963
0.000328823
0.000329098
0.000458224
0.000473513
0.000457746
0.000189702
0.00220769
0.000254461
0.00214475
0.00048263
0.000334575
0.00219412
0.000605436
0.000501443
0.000441411
0.00227433
0.000487696
0.000548305
0.000611137
0.000724356
0.00230323
0.000678255
0.000430491
0.000573043
0.000659638
0.000995088
0.00240389
0.000736006
0.000734994
0.000520531
0.000384432
0.00052327
0.000509104
0.00243793
0.000548209
0.00113762
0.000618115
0.000678848
0.00076402
0.000826138
0.000939709
0.00207358
0.00080912
0.000723528
0.000805656
0.00097455
0.00083996
0.00143951
0.000648721
0.0010705
0.00294463
0.000551154
0.000757747
0.000845233
0.000603223
0.000478879
0.000634945
0.00140986
0.00179515
0.00115384
0.00293552
0.000422491
0.000512076
0.000553332
0.000681053
0.000938932
0.000725584
0.00081816
0.000699168
0.000344288
0.000660953
0.00201648
0.000388769
0.000176736
0.000521414
0.000543018
0.000380549
0.000542873
0.000446264
0.000556655
0.000419717
0.000443732
0.00099366
0.00147673
0.000236609
0.000253418
0.000311457
0.000345965
0.000533371
0.000499607
0.000467115
0.000499637
0.000276574
0.000379955
0.00059705
0.00034703
0.00109934
0.000231278
0.000192853
0.000163574
0.00021357
0.000308318
0.000163341
0.000318831
0.000262602
0.000631896
0.000296954
0.000454682
0.000571692
0.000531626
0.000581634
0.000216046
0.000142389
0.00016231
0.000127323
0.00012492
0.000119941
0.000142775
7.97289e-05
0.000136704
0.000257656
0.000311745
0.000391829
0.000394928
0.000364636
0.000289076
0.0020621
0.000337929
0.00213048
0.000466026
0.000257834
0.00218173
0.000654138
0.000503473
0.000406601
0.00221945
0.000539294
0.000527765
0.000490054
0.000413722
0.00227605
0.000532731
0.000545227
0.000656744
0.000488608
0.000481034
0.00230949
0.000737765
0.000283894
0.000466945
0.000677342
0.000637575
0.000841552
0.00244358
0.000584401
0.000266622
0.000241948
0.000383312
0.000325055
0.000410444
0.000448069
0.00240526
0.000632918
0.000669904
0.00060641
0.000768559
0.000825374
0.000637899
0.000795204
0.000789484
0.0021334
0.000766263
0.000891205
0.000533981
0.00058856
0.000874658
0.00123657
0.00069474
0.000572755
0.000916453
0.00250198
0.000761986
0.000567202
0.000486973
0.000824271
0.000577065
0.000568751
0.000525576
0.0008772
0.000462858
0.00111905
0.00263318
0.000569362
0.000479183
0.000456964
0.000423698
0.00103384
0.000915674
0.000446239
0.000789233
0.000802134
0.000819512
0.000828053
0.00199463
0.000434787
0.000208377
0.000594056
0.000477543
0.000480741
0.000540099
0.000793962
0.000794555
0.00057159
0.00043414
0.000464659
0.00119424
0.00174832
7.13811e-05
0.000227741
0.000314992
0.000412169
0.000403937
0.000442237
0.00042484
0.000605591
0.000223649
0.000517775
0.000168281
0.000442689
0.00036884
0.00104207
0.000132935
0.000148854
0.00019364
0.000135778
0.000220557
0.000277739
0.00016169
0.000313239
0.000265067
0.000524384
0.000401231
0.000436908
0.00046176
0.000501647
0.000546166
0.000115608
0.000185737
0.000122454
0.000158831
0.000114918
0.000136593
0.000139165
0.000114099
8.71155e-05
0.0001356
0.00013425
0.000243741
0.000356066
0.00035436
0.000252338
0.000242316
0.00213816
0.0004615
0.00189955
0.000704675
0.000324258
0.00220934
0.000409141
0.000592318
0.000326575
0.00216539
0.000458402
0.000754389
0.000657398
0.000472833
0.00214709
0.000468986
0.000489044
0.000863198
0.000573779
0.000546611
0.00226527
0.000515595
0.00048685
0.000729719
0.000499218
0.000298739
0.000537119
0.00235256
0.000668739
0.000448106
0.000455062
0.000549933
0.000332436
0.000333365
0.000635206
0.00209695
0.000786126
0.000691362
0.000369711
0.000226326
0.000314427
0.000430377
0.000470529
0.000434299
0.00219453
0.000588738
0.000376124
0.000546516
0.000434958
0.000635038
0.000555423
0.000681859
0.000846
0.00058025
0.00217953
0.000772995
0.000485276
0.000587076
0.000673986
0.000675834
0.00117958
0.00114333
0.000710672
0.0013244
0.00154269
0.00269902
0.000530651
0.000726256
0.000522458
0.00079324
0.000401888
0.000273787
0.000973942
0.000625565
0.0014362
0.00143413
0.00184607
0.00263564
0.000752146
0.000860537
0.000625901
0.000642537
0.000259323
0.000335764
0.000529542
0.000529033
0.000828301
0.000421375
0.000707735
0.00117494
0.00197879
0.000466887
0.000321689
0.000333663
0.000355488
0.000435145
0.000825234
0.000587149
0.000596438
0.000546322
0.000552923
0.00054387
0.000446025
0.000990242
0.00166544
0.000168838
0.000215615
0.000249848
0.000333621
0.000267825
0.000443908
0.000370201
0.000430913
0.00044963
0.000320299
0.000635788
0.000145384
0.000457517
0.000237826
0.00113305
0.000104051
0.000223854
8.43796e-05
0.000167931
0.00019571
0.000230281
0.000275462
0.000185076
0.000310512
0.000301181
0.000259813
0.000383073
0.0003978
0.000438796
0.000517982
0.000545689
0.000126541
9.71495e-05
0.000171495
0.000128221
0.000177187
0.000123307
0.000117208
0.000170728
0.000122671
0.000108505
0.000168731
0.00011786
0.00017099
0.000288224
0.000332193
0.000257269
0.00027477
0.00199334
0.0004382
0.00183225
0.000446686
0.000420391
0.00191388
0.000511053
0.000605313
0.000287597
0.00202921
0.000513534
0.000783687
0.000630433
0.00029936
0.00222707
0.000489183
0.000508711
0.000821109
0.000568734
0.00046252
0.00213486
0.000564177
0.000389757
0.000451874
0.000495253
0.000479586
0.000615004
0.00226194
0.000544265
0.000507593
0.000280634
0.000390343
0.000423211
0.000393597
0.000643642
0.00231737
0.000473513
0.000284304
0.000436683
0.000450082
0.000274395
0.000556092
0.000525135
0.000558161
0.0023979
0.000716413
0.000384667
0.000403101
0.000757125
0.000626365
0.000263436
0.000440838
0.000567877
0.000402529
0.00244222
0.000660396
0.000555625
0.000547162
0.000664596
0.000621868
0.000785425
0.000724731
0.00078135
0.000811586
0.000916709
0.00219783
0.00129473
0.000391463
0.000738476
0.000685943
0.000598518
0.00107072
0.00105964
0.000749465
0.000671924
0.000961025
0.00128202
0.0028615
0.00100093
0.00186203
0.000792017
0.000959939
0.000482761
0.000311411
0.000703224
0.000749028
0.000521725
0.000777891
0.000897094
0.0012481
0.00337934
0.000444145
0.000474762
0.000877606
0.000416514
0.000600262
0.000403117
0.000643093
0.000573065
0.0011517
0.000413949
0.00112729
0.000887334
0.00167567
0.00218289
0.000504824
0.000383205
0.000413533
0.000499993
0.000441515
0.00047905
0.000522507
0.000645054
0.000320615
0.000691896
0.00095784
0.000666581
0.000369246
0.000872399
0.00193246
0.000401054
0.000221774
0.000180477
0.000289067
0.000338778
0.000238677
0.000302237
0.000522377
0.000441889
0.00045672
0.000299576
0.000375581
0.000112946
0.000278511
0.000626398
0.00130581
0.000159067
6.12822e-05
0.000177693
8.98378e-05
0.000187063
0.000212679
0.000193398
0.000236872
0.000205318
0.000290088
0.000137234
0.000510489
0.000398464
0.00039644
0.000457519
0.000419197
0.00053703
0.000181749
0.000114778
0.000130481
0.000158711
0.000124437
0.000173414
0.000116967
0.000109167
0.000173518
8.01618e-05
6.17446e-05
0.000173616
0.000148477
0.000145231
0.000158899
0.000277266
0.000237967
0.000276109
0.00209044
0.000436729
0.0018325
0.000471741
0.000496208
0.00197504
0.000300067
0.000329525
0.000457052
0.00208036
0.000403274
0.000394505
0.000439728
0.000305055
0.00203946
0.000315768
0.000437458
0.000344829
0.000477498
0.000556723
0.00213994
0.000524229
0.000423738
0.000367662
0.000180655
0.000368675
0.000582748
0.00216841
0.000465632
0.000430372
0.00032784
0.000360029
0.000459155
0.000382912
0.000456736
0.00228605
0.000679179
0.00053683
0.000538312
0.000517795
0.000422175
0.000520253
0.000417113
0.000715781
0.00236876
0.000533352
0.000503243
0.000360624
0.000539427
0.00054174
0.000403513
0.000563453
0.00040553
0.000534978
0.00266617
0.000775403
0.000253408
0.000537635
0.000454417
0.000709981
0.000691418
0.000563093
0.000468861
0.000346189
0.00050611
0.0023993
0.000414064
0.000546743
0.000583996
0.000767713
0.000636277
0.000551292
0.000569402
0.000904112
0.000736069
0.000995785
0.000860603
0.00225814
0.000623899
0.000323768
0.000622299
0.000745261
0.000596195
0.000995372
0.000689989
0.000915315
0.000558475
0.00151503
0.000851665
0.00148982
0.00285611
0.000547487
0.000890956
0.00075671
0.000440024
0.00027269
0.000537561
0.0008446
0.000450458
0.00128673
0.000488711
0.00144145
0.000822078
0.000946952
0.00366694
0.000513262
0.000444984
0.000405863
0.000517417
0.000152877
0.000262672
0.000610252
0.000515325
0.000542467
0.000696858
0.000833771
0.00053955
0.00106964
0.00129927
0.00296682
0.000607889
0.000674877
0.000649883
0.000490112
0.000523709
0.000261298
0.0003522
0.00046669
0.000643964
0.000595487
0.000353075
0.000583704
0.000640073
0.000433513
0.00118674
0.00213852
0.000503618
0.000225843
0.00058602
0.000167435
0.000211737
0.000311518
0.000408174
0.000474332
0.00045565
0.00051898
0.000380047
0.000240494
0.000258375
0.000199273
0.000595734
0.00044152
0.00119993
0.000191648
0.000153499
0.000241946
0.000144124
7.10168e-05
0.000183753
0.000167877
0.000208746
0.000189038
0.000206282
0.00027728
0.000215142
0.000380413
0.000337969
0.000297265
0.000462202
0.000431985
0.000531653
0.000168921
0.00014377
0.000119993
0.000157389
0.000139075
0.000114344
0.000159643
0.000131481
0.000105786
0.00016914
4.47524e-05
0.000142601
0.000141523
0.0001409
0.000174824
0.000113508
0.000313115
0.000408496
0.000169585
0.00216106
0.000432544
0.00192499
0.000398835
0.00046477
0.00186774
0.000301712
0.000515142
0.000802373
0.00210424
0.000244227
0.000313052
0.000676243
0.00085749
0.00206588
0.000313789
0.000432173
0.000339628
0.00048838
0.000468307
0.00215203
0.00041045
0.000555145
0.000468172
0.000398829
0.000306502
0.000350485
0.0022574
0.000257291
0.000331175
0.000422388
0.000482734
0.000436425
0.000392518
0.000600263
0.00235105
0.000736778
0.00024356
0.000328298
0.000482516
0.000364826
0.000459521
0.000390874
0.00060255
0.00245836
0.000418407
0.00055972
0.000500861
0.000437594
0.000656546
0.000403914
0.000309275
0.000435636
0.000756981
0.00211449
0.000402109
0.000240964
0.00043765
0.000511738
0.000259087
0.000269621
0.000430298
0.000426679
0.000506261
0.000768408
0.0022471
0.000371839
0.00023294
0.000527866
0.000562797
0.00051496
0.00023184
0.000251304
0.000570255
0.000667033
0.000383551
0.00057918
0.00237215
0.000439173
0.000591741
0.000439152
0.000742651
0.000565637
0.000463509
0.000398457
0.000611027
0.000704503
0.00098568
0.00087063
0.000925358
0.00233079
0.000600051
0.000503563
0.000463535
0.000641589
0.000828222
0.000865251
0.000699145
0.00101056
0.000785097
0.000733894
0.000502183
0.000431324
0.00195849
0.00267517
0.000689473
0.000473998
0.000764946
0.000679328
0.000234529
0.000466044
0.00049133
0.000561557
0.00079218
0.000282729
0.000462113
0.000247567
0.000550016
0.00159011
0.00296739
0.000589012
0.000746341
0.000626133
0.00106098
0.000356176
0.000551467
0.000294958
0.000428111
0.000536442
0.000489177
0.00059747
0.000795233
0.00114624
0.000829822
0.00151491
0.00371007
0.00057377
0.000309986
0.000232626
0.000676651
0.00050535
0.000348383
0.000307776
0.00035295
0.000799846
0.000570688
0.000356512
0.000611413
0.000707191
0.000440045
0.000975255
0.00160577
0.00231378
0.000186188
0.000439827
0.000449695
0.000351238
0.000223498
0.000259944
0.000389985
0.000454836
0.000355285
0.000316822
0.000462933
0.000535825
0.000250657
0.00058139
0.000162608
0.000393738
0.000735666
0.00125206
0.000184548
0.000133933
0.000148426
0.000218376
0.000379619
8.83267e-05
0.000156063
0.000155023
0.000205695
0.000153428
0.000220989
0.000260975
0.000301827
0.000316641
0.000596905
0.000317149
0.000423673
0.000442799
0.000558868
8.74861e-05
0.000174332
0.000154052
0.000119441
0.000109177
9.82164e-05
0.000167688
0.000157579
0.000128553
9.87995e-05
0.000171881
5.4352e-05
0.000173368
0.000111357
0.000129057
0.000248524
0.000195202
0.000387794
0.000378482
0.000203403
0.00215508
0.000471524
0.00203475
0.000346186
0.000424279
0.0019644
0.000599127
0.000391844
0.000281425
0.00186685
0.000431832
0.00051938
0.000327815
0.000642108
0.00209691
0.00015717
0.000287183
0.000320595
0.000569576
0.00080782
0.00215356
0.000329706
0.000395982
0.00041528
0.000518663
0.000572318
0.000451901
0.00221804
0.000277705
0.000395766
0.000262395
0.000606198
0.000540374
0.000520429
0.000419982
0.00219802
0.00052498
0.000470811
0.000518906
0.000399403
0.00043276
0.000257995
0.000587713
0.00071671
0.00228912
0.000520924
0.000628759
0.000407958
0.000470001
0.000546352
0.000283391
0.000299105
0.000579607
0.00082075
0.002433
0.000347939
0.000164668
0.000444516
0.000376382
0.000466056
0.000394044
0.000375496
0.000453838
0.000432719
0.000601481
0.0023546
0.000330736
0.000328694
0.000561401
0.00046934
0.00038848
0.000363906
0.000420773
0.000475136
0.000430948
0.000417761
0.000724203
0.0025216
0.000430217
0.000400195
0.000437798
0.000766025
0.000528592
0.000367012
0.000510449
0.000282218
0.000551301
0.000434627
0.000336916
0.000732302
0.00242127
0.000681612
0.000602279
0.000446871
0.000872787
0.000518546
0.000667555
0.000457556
0.000606614
0.000867387
0.000716645
0.000842543
0.000673564
0.000720072
0.00227794
0.000339817
0.000369232
0.000729654
0.000845485
0.000731829
0.000761873
0.000714217
0.000650748
0.000374094
0.000802434
0.000687883
0.000591898
0.00112919
0.000815818
0.00269798
0.000335791
0.000400954
0.000391524
0.000417719
0.000380842
0.000606362
0.00134798
0.000598923
0.000578223
0.000470097
0.000530495
0.00036451
0.000548789
0.00146038
0.00108815
0.00247775
0.000590555
0.000553728
0.000620092
0.000475838
0.000776641
9.1867e-05
0.000447406
0.000656032
0.00050335
0.000382646
0.000492501
0.000879913
0.000555977
0.000625708
0.000903129
0.00232692
0.00354245
0.000565701
0.000573532
0.000536107
0.00102139
0.000432167
0.000500712
0.000397455
0.000418064
0.000410895
0.00043723
0.000612064
0.00054356
0.000570344
0.000536302
0.000462291
0.000574473
0.000853454
0.00241677
0.000591868
0.000216419
0.000401755
0.000266797
0.000186725
0.000217539
0.000290648
0.000420941
0.000308424
0.000172891
0.000421112
0.000490769
0.000464509
0.000479257
0.000502799
0.000194878
0.000661941
0.000697751
0.00130808
0.000268157
0.000341068
0.000399331
0.000152595
0.00024322
0.000104962
3.4655e-05
0.000141467
0.000227085
0.000206017
0.000265654
0.000216139
0.000259497
0.000370614
0.0004274
0.000561905
0.000339371
0.000438295
0.000541037
0.000591292
0.000131033
9.08329e-05
0.000172343
0.00012079
0.000122154
0.000211801
9.4009e-05
0.000100125
0.000163051
0.000118429
9.54129e-05
0.000161574
7.4665e-05
9.34565e-05
0.000114578
0.000171579
0.000266368
0.000189196
0.000281084
0.000357519
0.000262808
0.00210891
0.000425565
0.00200322
0.000154462
0.00041012
0.00196186
0.000493051
0.000440286
0.000426266
0.00197807
0.000530666
0.00028048
0.000481553
0.000228531
0.00200182
0.000302222
0.000403066
0.00035644
0.000370659
0.00036792
0.00208765
0.000341495
0.000200022
0.000235646
0.000304883
0.000596775
0.000508552
0.00212892
0.000450758
0.000189483
0.000394477
0.000362466
0.000145405
0.000468694
0.000547837
0.00218267
0.000505425
0.000528293
0.000492744
0.000449774
0.000548728
0.000484577
0.000410757
0.000625526
0.00218382
0.000317135
0.000412719
0.000501537
0.000476956
0.000761284
0.000524793
0.000395711
0.000394671
0.000644358
0.00252709
0.000456151
0.000498307
0.000368869
0.000309491
0.000434061
0.000571627
0.000443117
0.000328934
0.000139618
0.000780395
0.00247276
0.000403117
0.000355777
0.000449941
0.000381321
0.000459176
0.000346748
0.000504567
0.000513295
0.00048322
0.000358814
0.000613413
0.00232466
0.000224492
0.000285835
0.000593279
0.000355856
0.000413239
0.000304003
0.000373485
0.000354137
0.000543541
0.000364426
0.000471378
0.000738181
0.002551
0.000196854
0.000495879
0.000444914
0.000683496
0.000470314
0.000410466
0.000391372
0.00021493
0.000527683
0.000195362
0.000466481
0.000428628
0.000590554
0.00235947
0.000574009
0.000435123
0.000419358
0.000595195
0.000715323
0.000678143
0.000471068
0.00062236
0.000490686
0.000728975
0.000835951
0.00109666
0.00120366
0.000582806
0.00227382
0.000593097
0.000351276
0.000534906
0.000506265
0.000735767
0.000905038
0.00057812
0.000336877
0.000678976
0.000470066
0.000717471
0.00077743
0.000850208
0.00136039
0.00122106
0.00262613
0.000308227
0.00041961
0.000351519
0.000788091
0.000347921
0.000342698
0.000586678
0.00084474
0.000333912
0.000565541
0.000783227
0.000225393
0.000452616
0.00120338
0.000921203
0.000739554
0.00229172
0.000386392
0.000649499
0.000657194
0.000818299
0.000717539
0.000390756
0.000298794
9.06909e-05
0.000372367
0.000624996
0.000299803
0.000746619
0.00046482
0.000565666
0.000582125
0.00135501
0.000880846
0.00272198
0.000705528
0.000528546
0.000714806
0.000582878
0.000583432
0.000432711
0.000523516
0.00060577
0.000434347
0.000384075
0.000380163
0.000464782
0.00057862
0.000518487
0.000750363
0.000280681
0.000965838
0.00185759
0.00199654
0.000435721
0.00034111
0.000257037
0.000543837
0.000476262
0.000282356
0.000126519
0.000311546
0.000319339
0.00022378
0.000441663
0.000457076
0.000591587
0.000409018
0.000484852
0.000417621
0.000397086
0.000512556
0.00065782
0.00125301
0.000266731
0.000325088
0.000276802
0.000180589
0.000106457
0.000143478
0.000240434
0.000240605
0.000231727
0.000388608
0.000215282
0.00019214
0.000251386
0.00026642
0.000397346
0.000455319
0.00033224
0.000338244
0.000422275
0.000396636
0.000608262
0.000212975
0.000123144
8.35192e-05
0.000176829
0.000142735
0.000129932
0.000198836
7.75254e-05
0.000168088
0.000169112
0.000111014
9.36451e-05
0.0001446
6.50038e-05
0.000154552
0.000173412
0.000197042
0.000193248
0.000148896
0.000256492
0.00020946
0.000230831
0.00199357
0.000398281
0.00194525
0.000545578
0.000445956
0.00202355
0.000568688
0.000283513
0.000444247
0.00197348
0.000431971
0.000521738
0.000482904
0.000450228
0.00198885
0.000960249
0.000462047
0.000537428
0.000399985
0.000459658
0.00202331
0.00054998
0.00046684
0.000341744
0.000444671
0.000393517
0.000292577
0.00206946
0.000386639
0.000318582
0.000185385
0.000280209
0.000215181
0.000366713
0.000362808
0.00204303
0.000536766
0.000352104
0.000295529
0.000449274
0.000383229
0.000245652
0.000277426
0.000308674
0.00223257
0.00043528
0.000365268
0.000267205
0.00041307
0.000639852
0.00046249
0.000643021
0.000326872
0.000502182
0.00227456
0.000305874
0.000149456
0.000394802
0.000307775
0.000477822
0.000564941
0.000454028
0.000541466
0.000230117
0.000369123
0.00253864
0.000370799
0.00044679
0.000616409
0.000246369
0.000498614
0.000383476
0.000441186
0.000403978
0.000277192
0.000322092
0.000546984
0.00235028
0.000251
0.000258143
0.000494721
0.000627936
0.000381397
0.000459261
0.000276705
0.000122456
0.000521339
0.000322576
0.000502856
0.000854153
0.0022266
0.000281699
0.000522313
0.000485893
0.000411731
0.000347902
0.000463199
0.000304568
0.000281045
0.000239956
0.00050988
0.000586517
0.00061359
0.000726271
0.002391
0.000488598
0.000583528
0.000437791
0.00062507
0.000521619
0.000482053
0.000299101
0.000472267
0.000283134
0.000627885
0.000532292
0.000606988
0.000535292
0.000821776
0.00232882
0.000512473
0.000616169
0.00067769
0.000502251
0.000873859
0.000744775
0.000624923
0.000542571
0.000603147
0.00135624
0.00065738
0.000943656
0.000990598
0.00125437
0.000877937
0.00225819
0.000454806
0.000514788
0.000835603
0.00064419
0.00061587
0.000524042
0.000730634
0.000568569
0.000553353
0.000912467
0.00177655
0.00112366
0.000838394
0.00122501
0.00105797
0.000695775
0.00249064
0.000793653
0.000348524
0.000274166
0.000493277
0.000562118
0.000695053
0.000598721
0.000241391
0.00043737
0.000413488
0.000115038
0.00035959
0.000364085
0.000337003
0.000579908
0.00071273
0.00136677
0.0032314
0.000391053
0.000457075
0.00059788
0.000442308
0.00041397
0.000822979
0.000327286
0.000604359
0.000432072
0.000400764
0.000425447
0.000971186
0.000800902
0.000486138
0.000512568
0.000768733
0.000944028
0.00186231
0.00231704
0.000701385
0.000576104
0.000534226
0.000588248
0.000427533
0.000532933
0.000463406
0.000387929
0.000453388
0.00044639
0.000723023
0.000642639
0.000671152
0.000567811
0.000821853
0.000793817
0.000679286
0.000851708
0.00108771
0.00185951
0.000575344
0.000466834
0.000237457
0.000465774
0.00046762
0.0002244
0.000334219
0.000131254
0.00018443
0.000258823
0.000428537
0.000470994
0.00031685
0.000742081
0.00067507
0.000561249
0.000688454
0.00036135
0.000389971
0.00081679
0.00132939
0.000202007
0.000183596
0.000355093
0.000231779
0.000176678
0.000105671
0.000210823
0.000103281
0.00035455
0.000158089
0.000305049
0.00021433
0.000214173
0.000244387
0.00030181
0.000417202
0.000360075
0.000387605
0.000376383
0.000401531
0.000416281
0.000619978
9.93679e-05
0.000145177
0.000115792
8.21425e-05
0.000198691
0.0001433
0.000121713
0.000130616
8.03923e-05
0.000197204
0.000187529
0.000112163
9.29679e-05
0.000132277
7.80343e-05
0.00019509
0.000215379
0.000168114
0.000189008
0.000115173
0.000260145
0.000214211
0.000215356
0.00202003
0.000339358
0.00187392
0.000505975
0.00026741
0.00197451
0.00027318
0.000663373
0.000295897
0.00206188
0.000580133
0.000440586
0.000266043
0.000519664
0.00197106
0.000182988
0.00073072
0.00048016
0.000401991
0.000324088
0.00203304
0.000767325
0.000742416
0.00037965
0.000566822
0.000526204
0.000450929
0.002009
0.000268693
0.000548509
0.000612271
0.000308755
0.000406674
0.000159101
0.000352822
0.00202463
0.000562575
0.000298137
0.00026731
0.000353378
0.000343565
0.000287799
0.000296124
0.000592494
0.00203305
0.000417514
0.000456294
0.000336221
0.000321896
0.000428485
0.000183928
0.000437607
0.000272225
0.000762651
0.00219574
0.000307255
0.000273939
0.000274158
0.000277674
0.000369146
0.000327486
0.000337402
0.000539908
0.000361069
0.000287948
0.00221776
0.000391577
0.000356504
0.00034829
0.000221494
0.000399782
0.000556508
0.000276306
0.000445779
0.000472995
0.000411273
0.000607777
0.00245578
0.000439018
0.000358591
0.000458386
0.000299978
0.000577101
0.000440399
0.000486657
0.000374147
0.000304326
0.000279852
0.000740142
0.000678603
0.00244922
0.000159772
0.000382453
0.00039556
0.000379151
0.000589938
0.000588526
0.000390609
0.00044689
0.00072874
0.000388992
0.000426582
0.000550118
0.000364677
0.00234963
0.000423482
0.000404198
0.000206235
0.000343829
0.000409104
0.000671793
0.00037427
0.000354421
0.000514612
0.000773192
0.000627194
0.000490203
0.000518429
0.000575878
0.00235867
0.000504931
0.000551443
0.000738598
0.000334008
0.000384945
0.00044001
0.00045379
0.000508893
0.000501837
0.000903911
0.000527419
0.000939212
0.000338862
0.000517051
0.000718087
0.0023216
0.000474828
0.00050156
0.000627756
0.000567875
0.000925558
0.000825702
0.000728584
0.00065227
0.000628362
0.000464523
0.000554713
0.000702551
0.000739812
0.000411642
0.000829677
0.000517753
0.00212004
0.000363356
0.000553677
0.000547241
0.000732357
0.000673624
0.000563834
0.000704747
0.000826362
0.000641301
0.00104249
0.000389842
0.000965176
0.000566333
0.000885089
0.00105585
0.00122421
0.000588818
0.00260732
0.000584275
0.000584069
0.000561621
0.000176746
0.00047281
0.000487615
0.000415064
0.0010647
0.000940055
0.000318942
0.000864923
0.000458835
0.000435502
0.000206478
0.000573823
0.00072182
0.000925431
0.00128908
0.00396511
0.000359642
0.000292926
0.000504459
0.00054599
0.000477084