/*--------------------------------*- C++ -*----------------------------------*\
  =========                 |
  \\      /  F ield         | OpenFOAM: The Open Source CFD Toolbox
   \\    /   O peration     | Website:  https://openfoam.org
    \\  /    A nd           | Version:  7
     \\/     M anipulation  |
\*---------------------------------------------------------------------------*/
FoamFile
{
    version     2.0;
    format      ascii;
    class       volScalarField;
    location    "10";
    object      p;
}
// * * * * * * * * * * * * * * * * * * * * * * * * * * * * * * * * * * * * * //

dimensions      [0 2 -2 0 0 0 0];

internalField   nonuniform List<scalar> 
18750
(
-86.417
-84.4604
-86.5718
-86.601
-83.2489
-84.8287
-84.7469
-86.1665
-86.7263
-86.7747
-81.802
-83.3853
-83.4053
-85.1043
-84.9932
-85.0072
-86.6957
-86.2714
-86.9237
-86.8875
-79.4249
-82.4177
-81.7428
-84.1872
-83.4729
-83.6079
-86.2902
-85.2545
-85.1711
-85.2489
-87.4872
-86.8263
-86.3939
-87.1468
-86.9212
-76.7211
-80.9488
-78.99
-81.9787
-82.1793
-81.7755
-85.0442
-84.3329
-83.6194
-83.9072
-86.9917
-86.4442
-85.4098
-85.3698
-85.4846
-88.0751
-87.5509
-86.9333
-86.5365
-87.386
-86.9529
-75.318
-78.8686
-76.9156
-80.4968
-80.534
-79.1535
-82.5684
-82.3367
-82.0734
-81.7349
-85.9775
-85.286
-84.6323
-83.8209
-84.1472
-87.6374
-87.0813
-86.5509
-85.5622
-85.6066
-85.7273
-88.7025
-88.1166
-87.5936
-86.992
-86.7128
-87.6243
-87.0455
-74.2735
-76.2984
-75.4369
-79.1526
-78.7952
-76.7346
-80.9986
-80.1578
-80.2481
-79.1795
-83.6579
-82.9481
-82.8231
-82.1313
-82.0103
-86.7012
-86.1994
-85.5363
-84.8488
-84.2586
-84.3951
-88.3493
-87.7338
-87.1613
-86.6266
-85.792
-85.8568
-85.9665
-89.2966
-88.7684
-88.1627
-87.6575
-87.0403
-86.8802
-87.8422
-87.2144
-73.0571
-74.7627
-74.2742
-76.8445
-76.2857
-75.1246
-79.4639
-78.7113
-78.6435
-76.7392
-81.6263
-80.9748
-79.9799
-80.1406
-79.3298
-84.1902
-83.9076
-83.2895
-83.1071
-82.3232
-82.3223
-87.6946
-86.8675
-86.42
-85.8202
-85.1611
-84.628
-84.7567
-88.9508
-88.5102
-87.8545
-87.2423
-86.7319
-86.0227
-86.1519
-86.2131
-89.7636
-89.3338
-88.8449
-88.202
-87.7282
-87.1348
-87.0628
-88.0314
-87.3474
-72.04
-73.3659
-73.03
-74.6694
-74.5869
-74.1341
-76.4393
-76.5369
-76.2438
-74.7082
-79.8196
-79.3057
-78.4783
-78.7034
-76.6067
-82.1257
-81.7855
-81.1114
-80.3765
-80.2183
-79.6445
-85.3599
-84.701
-84.0641
-83.5881
-83.166
-82.5595
-82.7702
-88.4242
-87.9052
-87.0348
-86.6648
-86.1176
-85.41
-84.8758
-85.1369
-89.5179
-89.0405
-88.6413
-87.9882
-87.3358
-86.8571
-86.23
-86.4473
-86.4552
-90.0068
-89.7876
-89.3711
-88.9208
-88.2421
-87.8017
-87.2475
-87.2679
-88.1999
-87.3369
-71.383
-72.0821
-72.0104
-73.4171
-73.4343
-72.9908
-74.7733
-74.6538
-74.4665
-74.1807
-76.7251
-76.3668
-76.3635
-76.3728
-74.5386
-80.0559
-79.7782
-79.4135
-78.944
-78.6913
-76.4887
-82.6154
-82.2236
-81.9469
-81.254
-80.8481
-80.3553
-80.1039
-86.1684
-85.3118
-84.8532
-84.3781
-83.874
-83.3054
-82.845
-83.2919
-88.8751
-88.5479
-88.0509
-87.2819
-86.9029
-86.4129
-85.6883
-85.3746
-85.5307
-89.7925
-89.5621
-89.1216
-88.7649
-88.1192
-87.4583
-86.9996
-86.4613
-86.7106
-86.7155
-90.2151
-90.0241
-89.8142
-89.404
-88.9906
-88.2971
-87.8832
-87.3602
-87.4671
-88.3688
-87.3417
-70.7148
-71.4128
-71.392
-72.2311
-72.0538
-71.9891
-73.4626
-73.2737
-73.3753
-72.9718
-74.8259
-74.7204
-74.5587
-74.2557
-74.2622
-76.8764
-76.6594
-76.2164
-76.2039
-76.2977
-74.7871
-79.9733
-79.8573
-79.8065
-79.4994
-78.8343
-78.287
-76.4828
-82.5419
-82.685
-82.1612
-81.9324
-81.4329
-81.2607
-80.6751
-80.9241
-86.6486
-86.0882
-85.6125
-85.2605
-84.7323
-84.1373
-83.4966
-83.1672
-83.4017
-88.9378
-88.9392
-88.6561
-88.2099
-87.5056
-87.1403
-86.7154
-85.9838
-85.9221
-85.9026
-90.0906
-89.8184
-89.6177
-89.1982
-88.893
-88.247
-87.5848
-87.1495
-86.7155
-86.9617
-87.0122
-90.2099
-90.2335
-90.0424
-89.8436
-89.4339
-89.0489
-88.3645
-87.9678
-87.474
-87.6336
-88.5694
-87.4279
-70.3467
-70.785
-70.7136
-71.3832
-71.4069
-71.3542
-72.1762
-72.1845
-71.992
-72.0388
-73.538
-73.3401
-73.3143
-73.2316
-72.9763
-75.0047
-74.746
-74.4905
-74.2594
-73.9165
-74.2701
-76.8132
-76.7335
-76.4821
-76.1719
-76.0831
-76.2376
-74.9938
-80.0327
-80.0012
-79.8365
-79.9013
-79.5601
-79.2881
-78.2677
-76.5619
-82.4408
-82.6893
-82.7224
-82.319
-82.237
-81.9945
-81.0204
-81.3678
-81.5231
-86.4548
-86.6493
-86.1656
-85.8422
-85.6233
-84.9418
-84.4247
-83.7132
-83.3896
-83.7953
-89.1547
-88.9825
-89.005
-88.7586
-88.4071
-87.7388
-87.3912
-87.0271
-86.3108
-86.3901
-86.4234
-90.2141
-90.1289
-89.8429
-89.6847
-89.2716
-89.0081
-88.3701
-87.7139
-87.3248
-86.9979
-87.1747
-87.3122
-90.2258
-90.2289
-90.2517
-90.061
-89.8747
-89.462
-89.0941
-88.4311
-88.0525
-87.5907
-87.7777
-88.7825
-87.5468
-69.9585
-70.3486
-70.3442
-70.7392
-70.7581
-70.7252
-71.422
-71.3563
-71.3462
-71.2823
-72.2666
-72.0774
-72.1898
-72.0306
-71.9382
-73.5504
-73.422
-73.3135
-73.3715
-73.175
-72.9058
-75.1427
-74.8435
-74.6217
-74.3901
-74.3342
-74.0908
-74.1306
-76.9361
-76.8745
-76.6608
-76.4521
-76.2237
-75.8561
-76.0989
-74.75
-80.113
-80.1319
-79.9229
-79.8065
-79.9615
-80.1077
-79.2942
-78.2638
-77.1277
-82.6225
-82.5345
-82.8153
-83.2743
-82.3999
-82.5002
-81.8444
-81.4257
-81.6906
-81.2815
-86.7068
-86.5463
-86.6658
-86.1572
-86.1586
-85.7445
-85.0905
-84.8006
-84.0974
-83.9947
-84.4485
-89.0456
-89.1959
-89.0345
-89.1079
-88.8571
-88.5877
-87.9683
-87.6424
-87.3501
-86.6708
-86.9608
-87.0352
-90.1407
-90.2514
-90.1685
-89.8815
-89.7677
-89.3515
-89.1267
-88.5058
-87.8604
-87.5233
-87.3198
-87.3846
-87.6383
-90.4932
-90.2421
-90.2474
-90.2698
-90.0781
-89.9045
-89.4924
-89.1357
-88.4975
-88.1272
-87.6956
-87.9042
-88.9372
-87.6833
-69.7082
-70.0053
-69.9477
-70.3081
-70.3163
-70.2973
-70.7284
-70.7241
-70.711
-70.648
-71.4394
-71.3288
-71.3253
-71.2493
-71.2248
-72.3459
-72.1733
-72.2336
-72.1047
-72.0551
-71.9454
-73.7489
-73.5143
-73.3372
-73.3395
-73.1034
-73.1438
-72.8828
-75.2158
-75.0621
-74.7406
-74.5785
-74.4205
-74.3628
-74.0799
-74.0595
-77.0201
-77.027
-76.7585
-76.5957
-76.576
-76.0848
-76.5999
-75.4124
-74.4727
-80.1822
-80.0236
-79.9179
-80.1615
-79.8533
-80.1047
-80.3491
-78.9917
-77.9765
-77.2582
-82.7831
-82.5357
-82.7519
-83.1038
-83.4859
-82.7526
-82.7567
-82.2739
-82.0688
-82.1312
-81.7394
-86.6163
-86.8502
-86.6486
-86.6187
-86.3152
-86.4313
-85.8712
-85.3398
-85.1618
-84.5092
-84.3955
-84.8291
-88.8263
-89.0508
-89.228
-89.1054
-89.2373
-88.9578
-88.7655
-88.1486
-87.8804
-87.6912
-87.1131
-87.5777
-87.6478
-90.1841
-90.1903
-90.2798
-90.2077
-89.9182
-89.8592
-89.4381
-89.2579
-88.6539
-88.0142
-87.7312
-87.6456
-87.643
-87.9756
-90.9374
-90.4947
-90.257
-90.2649
-90.2875
-90.089
-89.9317
-89.5195
-89.1505
-88.5694
-88.1967
-87.7464
-88.0062
-89.0455
-87.7832
-69.4758
-69.746
-69.5979
-69.9878
-69.9886
-69.8974
-70.2948
-70.2798
-70.2896
-70.2658
-70.8135
-70.7205
-70.692
-70.6906
-70.6958
-71.5394
-71.3946
-71.3409
-71.1936
-71.147
-71.2815
-72.4962
-72.402
-72.3352
-72.2259
-72.0616
-72.0279
-72.0037
-73.7788
-73.4841
-73.5448
-73.4027
-73.2771
-73.1465
-73.0737
-72.8575
-75.3519
-75.04
-74.9526
-74.6722
-74.4384
-74.3279
-74.3906
-74.047
-73.871
-77.2882
-77.0627
-77.0122
-76.8171
-76.6164
-76.5382
-76.9212
-76.3951
-75.2617
-74.5509
-79.9667
-80.2706
-79.8646
-80.0834
-79.9344
-79.8438
-80.6833
-79.7675
-79.4057
-78.4535
-77.1128
-83.2367
-82.856
-82.5324
-82.9944
-83.3662
-82.9255
-83.3222
-82.9744
-82.7483
-82.409
-82.4053
-82.3059
-86.4567
-86.6051
-86.9235
-86.7585
-86.6936
-86.4345
-86.5346
-86.0372
-85.5718
-85.4535
-84.9103
-84.539
-84.8884
-88.6473
-88.7945
-89.0764
-89.2478
-89.2208
-89.3889
-89.0713
-88.9853
-88.4464
-88.1113
-88.0965
-87.6057
-88.1512
-88.2754
-90.2989
-90.2233
-90.2351
-90.3038
-90.2477
-89.968
-89.9536
-89.5318
-89.3817
-88.8209
-88.1745
-87.9402
-87.964
-87.9447
-88.3096
-91.0331
-90.94
-90.4948
-90.2717
-90.282
-90.3055
-90.108
-89.9547
-89.5452
-89.1795
-88.642
-88.2658
-87.8131
-88.0797
-89.0674
-87.8525
-69.2628
-69.5222
-69.3922
-69.6848
-69.7331
-69.6122
-70.0365
-69.9018
-69.9781
-69.8903
-70.3094
-70.3199
-70.2484
-70.2588
-70.2681
-70.9082
-70.7733
-70.6652
-70.6996
-70.6882
-70.6606
-71.6019
-71.5363
-71.4084
-71.3126
-71.4398
-71.2933
-71.1818
-72.6025
-72.4987
-72.4181
-72.33
-72.2043
-72.1611
-72.0461
-71.9547
-73.9114
-73.6921
-73.6106
-73.5013
-73.3211
-73.2711
-73.1382
-73.0597
-72.8807
-75.4067
-75.1556
-75.0761
-74.8879
-74.6239
-74.4069
-74.3864
-74.2603
-73.9802
-73.8111
-77.4834
-77.2928
-77.0324
-76.9409
-76.8254
-76.5755
-76.5435
-76.6213
-75.8284
-74.8775
-74.4469
-80.194
-80.0281
-79.984
-79.9432
-79.8796
-79.7309
-80.1617
-80.6541
-79.9262
-79.736
-78.5385
-77.116
-82.956
-83.2358
-82.8112
-82.6658
-83.0687
-83.1026
-83.0956
-83.6975
-83.1736
-83.2789
-82.6061
-82.5222
-82.403
-86.3471
-86.4136
-86.6504
-86.9511
-86.9164
-86.8085
-86.6518
-86.7468
-86.2119
-85.8934
-85.839
-85.5191
-85.4717
-85.4411
-88.5512
-88.6247
-88.801
-89.1049
-89.2984
-89.306
-89.5847
-89.1986
-89.1637
-88.779
-88.3733
-88.4942
-88.0967
-88.7392
-88.9823
-90.2536
-90.3225
-90.2474
-90.2814
-90.3309
-90.2873
-90.0196
-90.0484
-89.6257
-89.4834
-89.0034
-88.3492
-88.1376
-88.2569
-88.2184
-88.6005
-90.885
-91.0056
-90.9371
-90.4928
-90.2855
-90.2984
-90.3252
-90.1279
-89.9763
-89.5825
-89.2078
-88.7192
-88.3286
-87.8618
-88.1222
-89.0395
-87.8983
-69.1419
-69.32
-69.261
-69.4998
-69.4776
-69.3942
-69.7327
-69.6719
-69.7287
-69.5795
-70.0222
-69.94
-69.9039
-69.9726
-69.7897
-70.4674
-70.3236
-70.2519
-70.2575
-70.2697
-70.1865
-70.976
-70.9152
-70.8015
-70.7889
-70.7385
-70.6693
-70.6116
-71.7772
-71.6695
-71.53
-71.4521
-71.4427
-71.4236
-71.2806
-71.1296
-72.6733
-72.7237
-72.4712
-72.3443
-72.3187
-72.2199
-72.1017
-71.9896
-71.8058
-73.9997
-73.8194
-73.7306
-73.5256
-73.3645
-73.3218
-73.2023
-73.0838
-73.1031
-72.8733
-75.5787
-75.2704
-75.1926
-75.0421
-74.7009
-74.4247
-74.3741
-74.2757
-74.0971
-73.895
-73.8111
-77.0868
-77.3555
-77.361
-76.9967
-76.8494
-76.8421
-76.4005
-76.6432
-76.1698
-75.9335
-74.8404
-74.4298
-79.9999
-79.9818
-80.0718
-79.8618
-80.0396
-80.0281
-79.8591
-80.4933
-80.621
-80.4234
-79.7371
-78.6078
-77.3065
-83.0089
-82.9085
-83.1156
-82.9704
-82.7555
-83.2032
-83.186
-83.4364
-83.2843
-83.2898
-82.9614
-83.0164
-82.7312
-82.3102
-86.3382
-86.2912
-86.4286
-86.6856
-87.0647
-87.0259
-87.0486
-86.8328
-86.9762
-86.5434
-86.2253
-86.2891
-86.1419
-86.3606
-86.0118
-88.0925
-88.5563
-88.6301
-88.8091
-89.1204
-89.3815
-89.3954
-89.7152
-89.3545
-89.2739
-89.076
-88.7148
-88.9104
-88.608
-89.317
-89.6226
-90.7381
-90.2562
-90.3359
-90.2628
-90.3268
-90.357
-90.3248
-90.0762
-90.1467
-89.7288
-89.5928
-89.1784
-88.5233
-88.2902
-88.4999
-88.4498
-88.8219
-90.2035
-90.8642
-90.9863
-90.9298
-90.4876
-90.2998
-90.3128
-90.3453
-90.1458
-90.0021
-89.6201
-89.2371
-88.8013
-88.3875
-87.8999
-88.1409
-89.0458
-87.9802
-68.9888
-69.1388
-69.1156
-69.3658
-69.2377
-69.213
-69.5297
-69.5165
-69.4385
-69.316
-69.8167
-69.7157
-69.6875
-69.7373
-69.5333
-70.1332
-70.0368
-69.9807
-69.9185
-69.908
-69.8031
-70.5494
-70.422
-70.37
-70.3935
-70.2456
-70.2631
-70.1917
-71.1689
-71.0121
-70.9261
-70.8578
-70.8158
-70.7419
-70.7075
-70.6813
-72.0088
-71.7844
-71.6489
-71.5174
-71.5105
-71.3783
-71.3748
-71.2724
-71.1722
-72.8979
-72.7993
-72.6546
-72.4051
-72.2829
-72.3388
-72.1879
-72.1041
-71.9868
-71.7424
-74.0707
-73.9872
-73.9195
-73.6859
-73.4742
-73.3535
-73.246
-73.1514
-73.09
-73.101
-72.7862
-75.5886
-75.3913
-75.2403
-75.1428
-74.9821
-74.7505
-74.5394
-74.4816
-74.2508
-74.1585
-74.0323
-73.6997
-77.4432
-77.1504
-77.321
-77.1971
-77.0392
-77.1901
-76.7932
-76.1096
-76.633
-75.8481
-76.0399
-74.7299
-74.4168
-80.1046
-80.0411
-80.0476
-79.969
-79.995
-80.1146
-79.9483
-80.1431
-80.7
-80.6953
-80.3949
-79.6977
-78.8501
-77.6869
-83.1391
-83.0301
-82.965
-83.2023
-83.202
-83.0784
-83.1618
-83.3995
-83.5229
-83.4815
-83.3486
-83.1575
-83.3663
-83.3133
-82.5507
-86.2538
-86.3774
-86.3556
-86.4334
-86.7001
-87.1175
-87.1516
-87.2894
-87.0182
-87.1573
-86.9826
-86.5947
-86.845
-86.7559
-86.6775
-86.4207
-88.1057
-88.1368
-88.435
-88.6281
-88.8375
-89.1625
-89.381
-89.5243
-89.9032
-89.5085
-89.432
-89.3369
-89.1411
-89.3161
-89.0213
-89.9235
-90.0484
-90.3797
-90.688
-90.2526
-90.3026
-90.2891
-90.3737
-90.3553
-90.3614
-90.144
-90.2489
-89.8389
-89.688
-89.3354
-88.6688
-88.4545
-88.6658
-88.6629
-89.0314
-89.9233
-90.1938
-90.8441
-90.9683
-90.9206
-90.4894
-90.3136
-90.3263
-90.3644
-90.1603
-90.0247
-89.6441
-89.2672
-88.8803
-88.4504
-87.9325
-88.1436
-89.0731
-88.1171
-68.8689
-69.0037
-68.9442
-69.1434
-69.099
-69.0969
-69.4018
-69.2952
-69.1422
-69.2088
-69.6684
-69.5297
-69.4592
-69.3413
-69.3384
-69.8634
-69.7719
-69.6963
-69.7192
-69.6963
-69.5957
-70.205
-70.0824
-70.057
-69.9512
-69.9348
-69.8945
-69.8709
-70.7879
-70.5744
-70.4307
-70.3829
-70.3424
-70.2713
-70.2218
-70.2707
-71.2801
-71.1654
-71.0333
-70.8858
-70.8604
-70.7492
-70.759
-70.6955
-70.7051
-72.0901
-71.9237
-71.7846
-71.6287
-71.5325
-71.5096
-71.4319
-71.3862
-71.3165
-71.3412
-73.0265
-73.0324
-72.8062
-72.6074
-72.5486
-72.5307
-72.3194
-72.2115
-72.1579
-72.0327
-72.0144
-74.3018
-74.0758
-73.8927
-73.7515
-73.673
-73.5652
-73.4373
-73.1691
-73.1832
-73.157
-73.0783
-72.8356
-75.7027
-75.56
-75.3748
-75.2006
-75.0725
-74.9808
-74.8738
-74.7023
-74.5047
-74.2074
-74.3072
-74.071
-73.6994
-77.6728
-77.4979
-77.3115
-77.2666
-77.3025
-77.0217
-77.0309
-76.9181
-76.9702
-76.5044
-76.7943
-75.9122
-74.827
-74.777
-80.4072
-80.174
-80.1248
-79.9758
-80.0066
-80.0678
-79.9455
-79.9886
-80.5341
-80.5665
-80.7051
-80.1622
-79.898
-78.8879
-78.2029
-83.0839
-82.8567
-82.9393
-83.082
-83.2127
-83.0202
-83.2195
-83.3872
-83.5395
-83.7394
-83.7848
-83.5
-83.5038
-83.6175
-83.8165
-82.8071
-86.6953
-86.5073
-86.4593
-86.2846
-86.4192
-86.6955
-87.0607
-87.3576
-87.4359
-87.2977
-87.2745
-87.3241
-87.1092
-87.3267
-87.2121
-87.3314
-86.7503
-88.1981
-88.0983
-88.1948
-88.421
-88.6221
-88.8765
-89.1908
-89.4548
-89.6595
-90.152
-89.7029
-89.586
-89.5907
-89.4869
-89.6208
-89.4282
-90.4136
-90.3343
-90.0811
-90.3726
-90.6698
-90.2578
-90.2792
-90.3079
-90.4168
-90.3609
-90.3999
-90.2076
-90.3408
-89.936
-89.8003
-89.4718
-88.745
-88.6271
-88.81
-88.8193
-89.193
-89.3866
-89.9047
-90.1833
-90.8246
-90.9509
-90.9122
-90.4866
-90.3262
-90.3422
-90.3833
-90.1753
-90.0386
-89.6712
-89.2999
-88.9557
-88.5206
-87.9587
-88.1426
-89.0587
-88.1987
-68.7233
-68.8684
-68.8711
-69.0246
-68.9927
-68.9094
-69.1323
-69.1701
-69.0543
-69.0847
-69.46
-69.3037
-69.3146
-69.0965
-69.2513
-69.6929
-69.6464
-69.482
-69.5298
-69.34
-69.364
-69.9417
-69.8465
-69.7565
-69.6665
-69.7136
-69.5965
-69.5876
-70.3711
-70.2053
-70.1213
-70.051
-69.9508
-69.9152
-69.8323
-69.8693
-70.6936
-70.7076
-70.577
-70.4892
-70.3769
-70.348
-70.2486
-70.2002
-70.3425
-71.4005
-71.3118
-71.1997
-70.9982
-70.9388
-70.8904
-70.808
-70.7296
-70.7335
-70.7389
-72.2545
-72.1247
-71.8898
-71.7853
-71.6883
-71.5965
-71.5497
-71.4765
-71.4017
-71.3183
-71.3704
-73.2129
-73.1535
-73.0249
-72.718
-72.6326
-72.607
-72.503
-72.3372
-72.2072
-72.0906
-72.0422
-72.0564
-74.4254
-74.2512
-74.0581
-73.8751
-73.724
-73.6758
-73.6128
-73.3437
-73.2449
-73.1759
-73.1207
-73.1315
-72.8569
-75.8258
-75.7186
-75.4574
-75.2743
-75.1452
-75.0529
-75.027
-74.9109
-74.7334
-74.586
-74.5727
-74.2908
-74.205
-73.7754
-77.7511
-77.6319
-77.5386
-77.185
-77.2902
-77.1819
-77.0558
-77.0676
-76.9626
-77.0104
-76.6944
-76.6985
-75.8275
-75.1585
-74.9641
-80.5726
-80.2355
-80.1198
-79.9978
-79.8648
-79.9625
-80.0486
-80.0552
-80.2123
-80.6175
-80.4949
-80.7021
-79.992
-79.9442
-79.194
-78.1097
-83.441
-83.1873
-82.8543
-82.9238
-83.0431
-83.2449
-83.1772
-83.2383
-83.5874
-83.6403
-83.9667
-83.8979
-83.6264
-83.6752
-84.1755
-84.1038
-82.817
-86.7458
-86.7529
-86.4673
-86.455
-86.3239
-86.5003
-86.7089
-87.1457
-87.524
-87.6987
-87.4162
-87.516
-87.5763
-87.6691
-87.7134
-87.666
-88.4292
-86.6112
-88.1887
-88.1524
-88.0698
-88.2227
-88.3403
-88.6412
-88.9102
-89.2336
-89.55
-89.7303
-90.3206
-89.9061
-89.7355
-89.769
-89.7956
-89.8436
-89.8349
-90.9065
-90.6447
-89.6126
-90.0361
-90.3591
-90.6463
-90.2542
-90.269
-90.306
-90.4675
-90.394
-90.4363
-90.2596
-90.4152
-90.0465
-89.9097
-89.5938
-88.8532
-88.7563
-88.9455
-88.9429
-89.2999
-88.518
-89.3847
-89.8889
-90.1781
-90.805
-90.9344
-90.8985
-90.4812
-90.3379
-90.3581
-90.4014
-90.1906
-90.0562
-89.699
-89.3279
-89.0002
-88.6003
-87.9828
-88.1381
-89.0271
-88.2472
-68.6001
-68.718
-68.7232
-68.9227
-68.8798
-68.8708
-68.9984
-69.0155
-68.9606
-68.9085
-69.165
-69.1381
-69.1625
-69.0883
-69.0837
-69.4257
-69.4062
-69.3602
-69.3038
-69.1636
-69.2673
-69.6939
-69.7175
-69.5754
-69.5794
-69.5084
-69.326
-69.3801
-69.9666
-69.9244
-69.871
-69.7475
-69.7513
-69.6604
-69.6043
-69.5591
-70.4427
-70.2992
-70.1953
-70.1729
-70.037
-69.9333
-69.8779
-69.8627
-69.8287
-70.9316
-70.7799
-70.6794
-70.5709
-70.4756
-70.3636
-70.286
-70.2596
-70.1876
-70.2631
-71.5882
-71.4511
-71.3261
-71.1736
-71.083
-70.9475
-70.9064
-70.8059
-70.8145
-70.7666
-70.8028
-72.4058
-72.2267
-72.1022
-71.9235
-71.7779
-71.7054
-71.6127
-71.5755
-71.4365
-71.4317
-71.2996
-71.332
-73.3543
-73.2124
-73.0565
-72.8507
-72.7465
-72.658
-72.5658
-72.4982
-72.3964
-72.2052
-72.084
-72.0314
-71.9469
-74.546
-74.3456
-74.1519
-73.9125
-73.8525
-73.7639
-73.6965
-73.5125
-73.3461
-73.3224
-73.1863
-73.0848
-73.1112
-72.8934
-75.9551
-75.8508
-75.6206
-75.3058
-75.2231
-75.2111
-75.1329
-75.0289
-74.7439
-74.6352
-74.6597
-74.6018
-74.1752
-74.2858
-73.8032
-77.9654
-77.8803
-77.5549
-77.4167
-77.2528
-77.3231
-77.0645
-77.1012
-77.0357
-77.0243
-76.8599
-76.7219
-76.3369
-76.0046
-75.218
-74.9919
-80.4989
-80.2757
-80.2291
-80.1564
-79.9618
-79.9771
-80.009
-80.1799
-80.1243
-80.1332
-80.0928
-80.7993
-80.8899
-80.1796
-79.4888
-79.9681
-78.1088
-83.5157
-83.4323
-82.9804
-82.7976
-83.113
-83.0967
-83.3432
-83.3737
-83.474
-83.6652
-83.9299
-84.0837
-84.0832
-83.8886
-84.2096
-84.527
-84.9253
-82.7166
-86.4344
-86.5871
-86.6367
-86.3256
-86.2763
-86.3132
-86.5244
-86.7696
-87.2724
-87.6737
-88.0068
-87.6325
-87.5562
-87.9729
-88.1355
-88.1132
-88.1863
-88.4706
-86.3696
-87.4541
-88.0282
-88.109
-88.0912
-88.2507
-88.2807
-88.6723
-88.9135
-89.2957
-89.6031
-89.8122
-90.4409
-90.103
-89.8906
-89.9231
-90.0496
-90.0432
-90.2388
-91.4722
-90.8151
-88.7319
-89.6193
-89.9984
-90.3551
-90.6059
-90.2587
-90.2489
-90.3164
-90.5174
-90.403
-90.4609
-90.3109
-90.4706
-90.1611
-90.0234
-89.7294
-88.9909
-88.8674
-89.0554
-89.2229
-89.3603
-87.6361
-88.5092
-89.3808
-89.8704
-90.1692
-90.7831
-90.9256
-90.8819
-90.4744
-90.35
-90.3738
-90.419
-90.2048
-90.0825
-89.7203
-89.3484
-89.0116
-88.6798
-88.0063
-88.1282
-89.017
-88.2953
-68.5248
-68.622
-68.5867
-68.7073
-68.6998
-68.7432
-68.8681
-68.9341
-68.8672
-68.8626
-69.118
-68.9882
-68.9121
-68.9861
-68.8905
-69.1572
-69.1603
-69.1594
-69.1165
-69.0491
-69.0776
-69.482
-69.4168
-69.4233
-69.3583
-69.2902
-69.2023
-69.2042
-69.7734
-69.715
-69.6999
-69.5765
-69.588
-69.466
-69.4002
-69.3649
-70.0615
-69.9654
-69.9147
-69.8383
-69.7303
-69.7006
-69.656
-69.5645
-69.5236
-70.4738
-70.3975
-70.3196
-70.198
-70.0549
-70.0234
-69.9309
-69.942
-69.8372
-69.8468
-71.1067
-70.9557
-70.8178
-70.6809
-70.5876
-70.4072
-70.3669
-70.3
-70.3274
-70.3299
-70.313
-71.7468
-71.5932
-71.4056
-71.3804
-71.1735
-71.06
-70.9595
-70.9019
-70.7876
-70.8677
-70.8353
-70.7637
-72.5722
-72.3831
-72.1828
-72.0877
-71.9326
-71.7444
-71.7006
-71.7144
-71.5639
-71.4396
-71.4337
-71.3014
-71.3845
-73.5383
-73.3209
-73.1143
-72.9938
-72.9066
-72.774
-72.6613
-72.516
-72.7283
-72.3088
-72.2078
-72.1167
-72.0722
-71.9805
-74.6346
-74.4717
-74.1943
-74.0448
-73.9672
-73.9313
-73.7804
-73.67
-73.502
-73.369
-73.331
-73.141
-73.0166
-73.1546
-72.918
-76.1092
-75.9302
-75.7137
-75.4389
-75.4014
-75.1893
-75.2571
-75.1506
-74.9697
-74.4366
-74.7017
-74.6974
-74.48
-74.0832
-74.2562
-73.7301
-78.0614
-77.9235
-77.8024
-77.551
-77.3135
-77.242
-77.2326
-77.177
-77.1471
-76.9796
-77.0224
-76.7997
-76.6773
-76.6032
-76.1297
-75.3031
-74.9932
-80.6509
-80.5799
-80.265
-80.1157
-80.0738
-79.928
-80.0044
-80.3172
-80.2199
-80.1229
-80.3546
-80.2497
-80.8753
-81.0197
-80.5393
-79.6339
-79.9524
-78.3395
-83.3645
-83.3468
-83.3318
-83.1346
-83.0111
-83.1774
-83.0838
-83.3051
-83.4246
-83.6864
-84.0148
-83.9221
-84.2922
-84.2812
-84.2165
-84.5896
-85.2381
-85.6773
-82.5073
-85.6723
-86.1918
-86.4829
-86.4668
-86.2815
-86.2094
-86.3362
-86.6008
-86.7678
-87.3555
-87.7511
-88.1878
-87.9843
-87.8436
-88.2169
-88.6563
-88.4339
-88.408
-88.9174
-85.979
-86.6422
-87.2899
-87.8941
-88.0269
-88.0751
-88.2143
-88.2842
-88.6921
-89.0139
-89.3244
-89.6008
-89.9206
-90.5533
-90.3305
-90.0763
-90.183
-90.2753
-90.2937
-90.6406
-91.9693
-90.9162
-88.0483
-88.7224
-89.6229
-89.95
-90.3594
-90.5499
-90.2656
-90.2111
-90.3358
-90.5622
-90.4078
-90.4968
-90.3586
-90.517
-90.2924
-90.1489
-89.8748
-89.1037
-88.9558
-89.1549
-89.5209
-89.3787
-86.9234
-87.6352
-88.5024
-89.3727
-89.8504
-90.1552
-90.7634
-90.9232
-90.8637
-90.4689
-90.362
-90.3889
-90.4364
-90.2173
-90.1063
-89.7443
-89.3695
-89.023
-88.738
-88.0278
-88.1074
-88.9716
-88.3463
-68.4063
-68.5239
-68.5296
-68.6718
-68.6022
-68.5637
-68.7126
-68.6665
-68.7001
-68.7073
-68.8508
-68.8445
-68.9224
-68.8505
-68.8326
-69.1234
-68.8929
-68.9252
-68.9322
-68.9339
-68.872
-69.2286
-69.1734
-69.1985
-69.13
-69.0739
-69.0586
-69.0427
-69.5646
-69.4591
-69.3919
-69.3965
-69.3799
-69.323
-69.191
-69.1544
-69.767
-69.7973
-69.7475
-69.6374
-69.6099
-69.5208
-69.4546
-69.3267
-69.3037
-70.2218
-70.0752
-69.9828
-69.958
-69.7868
-69.7722
-69.7286
-69.6527
-69.5173
-69.4921
-70.6944
-70.5701
-70.4454
-70.336
-70.1774
-70.0934
-70.0184
-69.9378
-69.9845
-69.8993
-69.8737
-71.2348
-71.0764
-70.9505
-70.8162
-70.7136
-70.5584
-70.4762
-70.3613
-70.3309
-70.3522
-70.3738
-70.3265
-71.9135
-71.7528
-71.5218
-71.4596
-71.2973
-71.2159
-71.0342
-70.9191
-70.8601
-70.8469
-70.7519
-70.7689
-70.7445
-72.7664
-72.5253
-72.3137
-72.2441
-72.1566
-71.8762
-71.7752
-71.7006
-71.6019
-71.4439
-71.4146
-71.3578
-71.4055
-71.4491
-73.6797
-73.4974
-73.3228
-73.1719
-73.051
-72.9144
-72.7725
-72.6742
-72.625
-72.2596
-72.3651
-72.1721
-72.113
-72.1864
-71.998
-74.7471
-74.5522
-74.3796
-74.2217
-74.0837
-74.0029
-73.8442
-73.7856
-73.685
-73.4954
-73.4906
-73.3354
-73.1993
-73.1808
-73.1566
-72.9336
-76.2358
-76.0796
-75.8324
-75.581
-75.4579
-75.3123
-75.2641
-75.1057
-75.03
-74.9466
-74.8469
-74.7232
-74.6268
-74.5591
-74.1735
-74.3369
-73.7561
-78.1418
-78.0725
-77.8484
-77.7241
-77.4928
-77.27
-77.2177
-77.1777
-77.1618
-77.1382
-77.0666
-76.9195
-76.9121
-76.6592
-76.3645
-76.3133
-75.087
-74.9157
-80.6311
-80.4933
-80.5611
-80.3595
-80.2123
-80.0854
-79.9717
-80.0427
-80.4504
-80.2009
-80.2986
-80.5063
-80.7594
-81.0808
-81.169
-81.0233
-79.5459
-80.2779
-78.8663
-83.0862
-83.1913
-83.2348
-83.1754
-83.0387
-82.9622
-83.1534
-83.1054
-83.3669
-83.2307
-83.7509
-84.2672
-84.3763
-84.3576
-84.3731
-84.4215
-85.0264
-85.6213
-86.0522
-82.2426
-84.9673
-85.4263
-85.9512
-86.355
-86.3493
-86.2018
-86.0411
-86.2993
-86.6473
-86.9199
-87.4483
-87.8787
-88.3541
-88.2487
-88.1456
-88.513
-89.1495
-88.8958
-88.9215
-89.5553
-85.4344
-85.875
-86.4743
-87.1264
-87.7385
-87.9901
-88.0898
-88.2425
-88.2482
-88.7298
-88.9597
-89.3733
-89.6432
-90.0229
-90.6566
-90.5807
-90.3269
-90.5283
-90.4983
-90.441
-90.9509
-92.3205
-91.0017
-87.0926
-88.053
-88.7204
-89.6164
-89.8973
-90.3444
-90.5057
-90.2674
-90.2012
-90.3413
-90.6162
-90.4351
-90.5378
-90.3876
-90.5692
-90.4412
-90.2929
-89.9901
-89.1943
-89.023
-89.2361
-89.6649
-89.3474
-86.4723
-86.9154
-87.6296
-88.4935
-89.3627
-89.8343
-90.1449
-90.7456
-90.9202
-90.8469
-90.4678
-90.373
-90.4032
-90.4538
-90.2285
-90.1262
-89.7679
-89.3905
-89.0404
-88.7873
-88.0392
-88.0719
-88.9236
-88.3822
-68.3326
-68.4175
-68.3689
-68.5215
-68.5003
-68.5178
-68.6578
-68.6486
-68.5793
-68.5553
-68.6821
-68.7291
-68.6513
-68.6602
-68.7463
-68.9285
-68.8551
-68.8257
-68.8538
-68.7879
-68.8449
-69.0964
-69.0908
-68.9326
-68.981
-68.9007
-68.9158
-68.9002
-69.3111
-69.2316
-69.2262
-69.2049
-69.1697
-69.0966
-69.0774
-69.0029
-69.5952
-69.533
-69.4648
-69.4335
-69.3825
-69.3367
-69.2441
-69.1753
-69.1122
-69.9813
-69.8559
-69.8027
-69.7237
-69.6608
-69.5859
-69.4753
-69.3966
-69.3049
-69.2898
-70.3364
-70.216
-70.143
-70.0212
-69.9249
-69.8426
-69.7653
-69.686
-69.5988
-69.5425
-69.4553
-70.8518
-70.6717
-70.56
-70.4665
-70.331
-70.2176
-70.1292
-70.0059
-69.963
-69.8846
-69.8782
-69.8836
-71.3684
-71.2634
-71.0608
-70.9557
-70.7909
-70.6761
-70.5257
-70.467
-70.3875
-70.3534
-70.3099
-70.2985
-70.36
-72.1014
-71.8824
-71.7238
-71.6478
-71.4838
-71.2739
-71.0911
-71.0263
-70.7049
-70.9507
-70.8569
-70.7713
-70.799
-70.6808
-72.8933
-72.7044
-72.586
-72.4217
-72.2442
-72.0059
-71.9207
-71.806
-71.662
-71.4628
-71.4825
-71.4145
-71.4476
-71.3207
-71.4321
-73.842
-73.6224
-73.4022
-73.2994
-73.1761
-72.9897
-72.8353
-72.7612
-72.683
-72.4741
-72.3476
-72.2278
-72.211
-72.1569
-71.9472
-72.0291
-74.9395
-74.7473
-74.5116
-74.3301
-74.2448
-74.0314
-73.9166
-73.8443
-73.7746
-73.6408
-73.488
-73.4574
-73.3125
-73.2608
-73.2724
-73.0824
-72.9229
-76.4209
-76.2173
-76.0168
-75.7973
-75.5335
-75.4456
-75.2789
-75.161
-75.116
-75.0672
-75.0308
-75.1202
-74.7727
-74.5354
-74.4843
-74.2087
-74.2756
-73.5575
-78.2582
-78.1318
-77.9543
-77.8005
-77.6609
-77.4115
-77.3112
-77.2702
-77.136
-77.1075
-77.0305
-77.294
-76.8507
-76.9411
-76.3357
-76.292
-75.9661
-74.9951
-74.769
-80.6171
-80.5153
-80.4951
-80.4315
-80.3124
-80.2008
-80.0664
-80.07
-80.3697
-80.4011
-80.2908
-80.7707
-80.5937
-80.8519
-81.1127
-81.3679
-81.0216
-79.7255
-79.5862
-78.7296
-82.7706
-82.9613
-83.1438
-83.0057
-83.05
-82.8928
-83.0195
-83.1277
-82.8993
-82.9666
-83.5121
-84.0375
-83.9045
-84.691
-84.4187
-84.3652
-84.7527
-85.5296
-85.7214
-85.9648
-81.8647
-84.3769
-84.7668
-85.2007
-85.7906
-86.1031
-86.1786
-86.1132
-86.1248
-86.3115
-86.525
-86.9686
-87.4622
-88.122
-88.5698
-88.6037
-88.5372
-89.0738
-89.6909
-89.2879
-89.349
-89.9107
-85.1621
-85.0436
-85.8098
-86.3524
-86.9574
-87.5935
-87.9548
-88.1118
-88.2456
-88.2513
-88.7381
-88.9428
-89.4031
-89.6724
-90.097
-90.7433
-90.8744
-90.6355
-90.7858
-90.6329
-90.5817
-91.175
-92.6203
-91.0268
-86.0799
-87.06
-88.0447
-88.6983
-89.5968
-89.8488
-90.333
-90.4736
-90.2761
-90.1976
-90.3422
-90.6494
-90.453
-90.5672
-90.4286
-90.6287
-90.6124
-90.466
-90.041
-89.2717
-89.0729
-89.2901
-89.7241
-89.2891
-86.0184
-86.4541
-86.9082
-87.6186
-88.4827
-89.3551
-89.8167
-90.1339
-90.725
-90.9063
-90.8318
-90.4568
-90.3826
-90.4156
-90.4708
-90.2391
-90.1385
-89.785
-89.4077
-89.0601
-88.8082
-88.0407
-88.0528
-88.8961
-88.3896
-68.3418
-68.3321
-68.4327
-68.403
-68.4098
-68.6028
-68.4384
-68.5054
-68.4973
-68.5554
-68.6794
-68.5607
-68.5573
-68.5312
-68.8666
-68.819
-68.7653
-68.6959
-68.7263
-68.6988
-68.9583
-68.9642
-68.8983
-68.8389
-68.8503
-68.8631
-68.821
-69.1572
-69.1631
-69.0637
-68.9874
-68.9532
-68.9723
-68.9148
-68.8612
-69.4013
-69.2878
-69.245
-69.2949
-69.2337
-69.1329
-69.0995
-69.0368
-68.9989
-69.6828
-69.615
-69.5481
-69.4687
-69.4521
-69.3063
-69.2577
-69.218
-69.1593
-69.1152
-70.0487
-69.9328
-69.8571
-69.7541
-69.7142
-69.6621
-69.521
-69.4207
-69.3864
-69.3097
-69.3296
-70.4647
-70.3496
-70.1721
-70.1437
-70.0188
-69.9601
-69.803
-69.7188
-69.6699
-69.5557
-69.5126
-69.4809
-70.9448
-70.8091
-70.6871
-70.5349
-70.3899
-70.2955
-70.2086
-70.1102
-70.0167
-69.9556
-69.8527
-69.8412
-69.8643
-71.563
-71.4807
-71.2362
-71.0713
-70.9305
-70.7845
-70.6522
-70.5438
-70.4581
-70.4256
-70.3778
-70.3714
-70.3617
-70.3009
-72.2109
-72.039
-71.8569
-71.7723
-71.5423
-71.4061
-71.2746
-71.1373
-70.9822
-71.1365
-70.9148
-70.8591
-70.8429
-70.7318
-70.5974
-73.0459
-72.8023
-72.6417
-72.5159
-72.346
-72.1663
-72.0472
-71.9416
-71.7904
-71.7082
-71.6149
-71.5098
-71.4764
-71.4503
-71.1344
-71.4017
-74.0274
-73.8016
-73.5564
-73.4376
-73.2119
-73.1044
-72.9696
-72.9645
-72.7891
-72.643
-72.5527
-72.3584
-72.215
-72.1258
-72.1681
-71.9012
-71.9898
-75.1066
-74.9441
-74.6746
-74.4838
-74.277
-74.1401
-74.0376
-73.9501
-73.8343
-73.733
-73.6171
-73.586
-73.3817
-73.1879
-73.2265
-73.3009
-72.974
-72.8714
-76.5593
-76.2927
-76.0913
-75.9773
-75.7527
-75.4991
-75.4008
-75.2083
-75.1369
-75.147
-75.0406
-74.901
-75.0466
-74.6405
-74.6807
-74.3938
-74.0733
-73.7321
-73.547
-78.4186
-78.2725
-78.177
-77.8947
-77.7424
-77.6717
-77.3857
-77.4135
-77.0151
-77.3777
-77.0284
-76.779
-77.0655
-76.7939
-76.8458
-76.5202
-76.2519
-75.9399
-74.8375
-74.9158
-80.5207
-80.4602
-80.4271
-80.32
-80.3799
-80.2868
-80.3232
-80.0759
-80.1724
-80.5327
-80.3216
-80.9079
-80.9485
-80.7607
-81.15
-81.4051
-81.573
-81.2504
-79.8819
-79.412
-78.9438
-82.2678
-82.5915
-82.8337
-82.946
-82.8837
-82.9048
-82.8265
-83.1332
-83.0674
-82.8271
-82.9136
-83.7475
-83.953
-84.2381
-84.9818
-84.7164
-84.5703
-85.021
-86.0732
-86.0175
-86.3966
-81.787
-83.7601
-84.1634
-84.5394
-84.9795
-85.5363
-85.9329
-85.9833
-86.0252
-85.9976
-86.3003
-86.6096
-86.9763
-87.5117
-88.3153
-88.7792
-88.9403
-89.02
-89.594
-89.913
-89.4557
-89.5309
-90.0729
-84.9762
-84.5738
-85.0006
-85.7609
-86.3064
-86.8308
-87.4289
-87.8661
-88.1245
-88.2595
-88.2754
-88.7676
-88.9801
-89.3895
-89.706
-90.1984
-90.8935
-91.1819
-91.0149
-90.9542
-90.5533
-90.6612
-91.3932
-92.6938
-90.9844
-85.5473
-86.0246
-87.0381
-88.0181
-88.6619
-89.5669
-89.8073
-90.3321
-90.4511
-90.2833
-90.2025
-90.3525
-90.6867
-90.4751
-90.6039
-90.4666
-90.6865
-90.7557
-90.6246
-90.0807
-89.3296
-89.1085
-89.31
-89.7025
-89.1897
-85.9851
-85.5003
-86.4306
-86.9011
-87.6074
-88.471
-89.3424
-89.7997
-90.1113
-90.7041
-90.8939
-90.817
-90.4489
-90.392
-90.4275
-90.4877
-90.2473
-90.1438
-89.8009
-89.4245
-89.0793
-88.7989
-88.0349
-88.0527
-88.8967
-68.3127
-68.3484
-68.3303
-68.4368
-68.4506
-68.413
-68.4258
-68.6989
-68.5946
-68.526
-68.5175
-68.4891
-68.7716
-68.6037
-68.652
-68.5664
-68.5621
-68.5149
-68.9085
-68.8914
-68.8211
-68.7236
-68.7053
-68.7671