/*--------------------------------*- C++ -*----------------------------------*\
  =========                 |
  \\      /  F ield         | OpenFOAM: The Open Source CFD Toolbox
   \\    /   O peration     | Website:  https://openfoam.org
    \\  /    A nd           | Version:  7
     \\/     M anipulation  |
\*---------------------------------------------------------------------------*/
FoamFile
{
    version     2.0;
    format      ascii;
    class       surfaceScalarField;
    location    "10";
    object      phi;
}
// * * * * * * * * * * * * * * * * * * * * * * * * * * * * * * * * * * * * * //

dimensions      [0 3 -1 0 0 0 0];

internalField   nonuniform List<scalar> 
54125
(
9.66371e-05
-5.618e-05
-0.000379437
0.000233738
-0.000126743
0.000413165
6.59791e-05
-0.00011815
-0.000732588
9.00922e-05
-4.73052e-05
-0.000422224
0.000157416
-7.44691e-05
0.00221221
0.000171046
-0.000123193
-0.000332414
0.000208018
-0.000125302
0.00042054
3.0574e-06
-0.00010044
0.000215635
7.08022e-05
-0.000105195
-0.000745501
9.05307e-05
-4.38523e-05
-0.000468903
-0.000217385
0.00015697
0.00268028
6.66491e-06
-0.000137018
0.00159127
0.000160409
-6.90016e-05
0.00232882
6.15219e-05
-5.13268e-05
0.000567739
0.000177956
-0.000127929
-0.000436942
0.000226536
-0.00013013
0.000414666
4.67821e-05
-6.90821e-05
0.000691454
1.07754e-05
-8.90801e-05
0.000188744
8.24266e-05
-0.000103363
-0.000768417
9.07538e-05
-4.05945e-05
-0.000519062
-0.000527929
0.000564059
0.0052325
-0.00035303
0.000125252
0.0026698
-9.29968e-06
6.92212e-05
0.00278077
5.70231e-05
-0.000121005
0.00252339
5.18943e-05
-0.000108903
0.00175723
0.000227063
-7.28841e-05
0.00240117
0.000221374
-0.000109015
0.00198598
8.55349e-05
-3.582e-05
0.000400871
0.000200935
-0.000141859
-0.000543722
0.000225196
-0.000126872
0.000407097
5.07271e-05
-6.38504e-05
4.79419e-05
2.99504e-05
-6.03101e-05
0.000632733
2.17769e-05
-8.71687e-05
0.000150773
9.39637e-05
-0.000101345
-0.000801631
9.0867e-05
-3.72821e-05
-0.000572647
-0.000710966
0.000539974
0.00458405
-0.000815216
0.000761376
0.00519506
-0.000274308
0.000532999
0.00496451
-0.00023485
-9.17645e-05
0.00372022
-0.000270181
0.000138763
0.00292233
2.29072e-05
3.57624e-05
0.00294916
0.000328025
-9.08956e-05
0.00281575
4.17809e-05
-4.26641e-05
0.00250091
4.91667e-05
-7.938e-05
0.0019155
0.0002529
-7.62367e-05
0.00244971
0.000196643
-0.000151883
0.00154396
0.000181976
-6.79212e-05
0.00186606
0.000119812
-6.31895e-05
0.000224167
0.000223854
-0.000156486
-0.000643999
0.000222878
-0.000116093
0.000391179
6.73309e-05
-6.73788e-05
0.000155471
4.16815e-05
-5.73633e-05
3.31338e-06
2.35848e-05
-5.94819e-05
0.000581461
3.4564e-05
-8.52759e-05
0.00010014
0.0001058
-9.88462e-05
-0.000845867
9.18763e-05
-3.43618e-05
-0.000630161
-0.00107184
0.000322045
0.00470805
-0.000994914
0.000895523
0.00542266
-0.000832942
0.000545612
0.00459707
-0.000660685
0.000816058
0.00483734
-0.000235012
0.000674872
0.00501802
-0.00035733
0.000527222
0.00481752
0.00015962
-0.000112625
0.00388921
-0.000229957
-3.26677e-05
0.00416338
-0.000223898
4.96712e-05
0.00318149
0.000335817
-6.07388e-05
0.00292698
0.000251431
-8.019e-05
0.0030525
0.000313955
-3.31227e-05
0.00267422
0.000238392
2.33193e-05
0.00227963
9.51666e-05
-6.13405e-05
0.00202929
0.000239301
-0.000105197
0.00253848
0.000142304
-0.000125399
0.00169162
0.000178888
-0.000130477
0.00146931
0.000173035
-6.9319e-05
0.00172274
0.000152928
-9.29409e-05
4.22585e-05
0.00027847
-0.000172402
-0.00076036
0.000218351
-0.000103498
0.000368201
9.42327e-05
-4.85454e-05
0.000649079
6.62284e-05
-6.27859e-05
9.46654e-05
4.0204e-05
-5.86583e-05
-3.77143e-05
2.33079e-05
-5.84216e-05
0.000531299
4.83364e-05
-8.53658e-05
3.83231e-05
0.000116309
-9.60891e-05
-0.000900448
9.35548e-05
-3.15779e-05
-0.000692138
-0.00121486
0.00023419
0.00457687
-0.000751758
0.000440608
0.00539656
-0.00113051
0.000360094
0.00464553
-0.000533533
0.00104573
0.00561103
-9.46708e-05
0.000845908
0.00498202
-0.000920326
0.00054509
0.00461497
-0.000384314
0.000895257
0.00404809
-0.000349182
0.000718484
0.00491295
-0.000214795
0.000673849
0.00486229
-9.02681e-05
0.000433658
0.00480995
0.000111942
-9.52391e-05
0.0048247
0.000217718
-0.000136267
0.00408905
0.000129964
-7.96029e-05
0.00440109
0.000130258
-0.000104791
0.00319045
0.000213379
3.81687e-05
0.00291474
0.0002603
-6.21572e-05
0.00315725
0.00024915
-8.12124e-05
0.00303033
0.000264601
8.07513e-06
0.0025979
0.00010417
3.68518e-05
0.00223019
0.000124177
-6.79382e-05
0.00214632
0.00030248
-8.72446e-05
0.0025416
0.000178884
-7.04023e-05
0.00093898
0.000131242
-0.000105032
0.00160116
0.000171533
-0.000115561
0.00138423
0.000176014
-6.29542e-05
0.00154005
0.000180576
-0.000124941
-0.000137442
0.000265612
-0.000173329
-0.000839832
0.000220615
-9.14666e-05
0.000332607
3.64721e-05
-2.44244e-05
0.000153041
8.32699e-05
-4.60636e-05
0.000549087
7.13182e-05
-6.31016e-05
2.77906e-05
4.0614e-05
-6.00739e-05
-7.66759e-05
2.97983e-05
-5.9477e-05
0.000475612
6.05467e-05
-8.66729e-05
-3.16398e-05
0.000124973
-9.30039e-05
-0.000963995
9.20271e-05
-2.8698e-05
-0.000755467
-0.00132012
7.47375e-05
0.0044313
-0.000617001
0.000227474
0.00469434
-0.001056
0.000100479
0.00440187
-0.000380332
0.000508071
0.00506433
-0.000587201
0.000670076
0.00557911
-0.00114106
0.000352474
0.00451378
-0.000548624
0.00122388
0.00537681
-7.4557e-05
0.000949474
0.00523284
-0.000187137
0.000803477
0.00469597
-0.00104454
0.000519871
0.00504938
-0.000199012
0.000915989
0.00399111
-0.000139154
0.000830666
0.00429278
-8.29406e-05
0.000734881
0.00506482
0.000344015
0.000533612
0.00454858
-0.000292703
0.000316316
0.00499972
-2.95889e-05
-7.64315e-05
0.00488446
0.000186499
-4.81555e-05
0.00479924
0.000135872
-0.000125101
0.00426328
5.45042e-05
-0.000162079
0.00450804
0.000134785
-7.88675e-05
0.00329688
0.000308349
-0.000102802
0.00301167
0.000177841
-5.07176e-05
0.00268351
0.000177536
-5.37619e-05
0.00308351
0.000256997
-9.19643e-05
0.0030449
0.000263128
1.22459e-05
0.0025354
0.000162943
3.14761e-05
0.00214841
0.000138623
-5.75545e-05
0.00224362
0.000297464
-9.05888e-05
0.00255534
8.28969e-05
-1.81937e-05
0.000452578
0.000149312
-5.40586e-05
0.000821965
0.000153431
-9.12953e-05
0.00149478
0.000160257
-8.95921e-05
0.00129122
0.000185404
-4.17995e-05
0.0013013
0.00020279
-0.000137282
-0.000315733
0.000285956
-0.000169493
-0.000922789
0.000240129
-7.7471e-05
0.000261976
2.58046e-05
-2.31689e-05
-9.25335e-05
4.00361e-05
-2.2413e-05
8.93537e-05
8.13889e-05
-4.67948e-05
0.000451391
7.65692e-05
-6.22712e-05
-4.65815e-05
4.41272e-05
-6.17468e-05
-0.000118533
3.64889e-05
-6.18046e-05
0.000414255
7.27137e-05
-8.81883e-05
-0.000109169
0.000133333
-8.9581e-05
-0.00103645
9.10837e-05
-2.56959e-05
-0.000820855
-0.0012759
-3.97741e-05
0.00387249
-0.000736284
0.000215655
0.00518158
-0.00115768
8.57809e-05
0.0044472
-0.000317317
0.000330284
0.00497205
-0.000564852
0.000164426
0.00460804
-0.00106374
9.47815e-05
0.00422978
-0.000320431
0.000524005
0.00553189
-0.000188436
0.000598349
0.00524993
-0.000554758
0.000598708
0.0057005
-0.00112823
0.000401585
0.00419588
-0.000437892
0.00121635
0.0053854
-0.000242147
0.00109297
0.00533631
-4.35972e-05
0.000962814
0.00503416
7.05272e-05
0.000743163
0.00474617
-0.00131434
0.000591455
0.00547956
-0.000556764
0.000926769
0.004641
-0.00015507
0.000841009
0.00432233
7.12189e-05
0.000776338
0.00431597
0.000216209
0.000589484
0.00484725
0.000313507
0.00040967
0.0042765
-0.000246278
0.000260558
0.00529378
0.000203999
5.61646e-05
0.00504034
-3.83026e-05
9.63005e-05
0.00495584
0.000140722
-3.5369e-05
0.00482579
0.000231876
-0.000113117
0.00424557
0.000231244
-0.000170756
0.00453163
0.000246733
-0.000149783
0.00323575
0.000244265
-0.000129951
0.00319482
4.22509e-05
-1.26115e-05
0.00284803
6.25408e-05
-4.67572e-05
0.00276327
0.00017373
-6.65295e-05
0.00303778
0.000260636
-8.91414e-05
0.00304591
0.000293751
4.1374e-06
0.00245439
0.000154624
6.6053e-06
0.00213242
0.000208632
-5.82736e-05
0.00228863
0.000317802
-0.000104908
0.00258257
2.39951e-05
9.51596e-06
0.000847926
7.43796e-05
-1.91704e-05
0.000383347
0.000131764
-4.19466e-05
0.000722241
0.000174711
-7.70268e-05
0.00138407
0.000159884
-5.28272e-05
0.00118649
0.000195364
-3.68147e-05
0.00104196
0.000219938
-0.000137415
-0.000495035
0.000308076
-0.000160293
-0.00101471
0.000240891
-7.09931e-05
0.000183161
1.41903e-05
-3.15219e-05
3.40202e-05
2.85534e-05
-2.17921e-05
-0.000121708
4.6049e-05
-2.29617e-05
1.94716e-05
7.86759e-05
-4.63353e-05
0.00035678
7.882e-05
-6.11198e-05
-0.000126029
5.16169e-05
-6.36862e-05
-0.000168269
4.41007e-05
-6.41666e-05
0.000346132
8.46868e-05
-8.96421e-05
-0.000193795
0.000138526
-8.5745e-05
-0.00111492
9.21504e-05
-2.34953e-05
-0.00088951
-0.00127984
2.79404e-05
0.00350811
-0.000795337
-2.44167e-05
0.00464573
-0.00113144
-4.88894e-05
0.00389515
-0.000316514
0.000335135
0.00492442
-0.000549612
0.000166102
0.00508602
-0.00109172
0.000139849
0.00433533
-0.000313264
0.000531103
0.00516868
-0.00047033
0.000285029
0.00513334
-0.000490844
0.000162303
0.00447661
-0.00113851
3.00656e-05
0.00420999
-0.000418866
0.000585562
0.0059353
-0.000271892
0.000537874
0.00562211
-0.000420872
0.000588175
0.00563774
-0.000468052
0.000649381
0.00599128
-0.00132574
0.00030399
0.0039033
-0.000610894
0.00113219
0.00600731
-0.000432282
0.00108269
0.00567289
7.96574e-05
0.00107901
0.00521168
0.000199532
0.000866942
0.00492706
-7.50617e-05
0.000670845
0.00505535
-0.00129186
0.000501384
0.00602375
-6.49962e-05
0.000955338
0.00512929
-0.000432443
0.000857797
0.00501836
-0.000142834
0.000736313
0.00464592
0.000282455
0.000576186
0.00427869
0.00016715
0.000431979
0.00488903
0.000120319
0.000310138
0.00435334
-0.000276294
0.000224662
0.00558968
8.86469e-06
0.000123586
0.00558694
-0.000157503
0.000210586
0.0051461
-9.36731e-06
-8.94137e-05
0.00519298
0.000174098
-3.63023e-05
0.00483551
0.000336124
-9.89157e-05
0.00413135
0.000219294
-0.000117433
0.0044346
0.000309722
-0.000215252
0.00321996
0.000430224
-9.73672e-05
0.00317976
-6.68141e-05
4.85655e-06
0.00311029
1.81186e-05
-2.04905e-05
0.00287803
0.000126346
-4.20711e-05
0.00274423
0.000218168
-7.10928e-05
0.00297627
0.000261473
-7.92769e-05
0.00302774
0.000273057
2.79065e-06
0.00238051
0.0001758
-2.7337e-05
0.00214562
0.000239528
-5.12176e-05
0.00230348
0.000320185
-9.58117e-05
0.00259909
-1.03789e-05
1.66754e-05
0.0009454
4.1525e-05
5.14884e-06
0.000810636
7.56972e-05
-2.1292e-05
0.000333044
0.000130606
-3.37896e-05
0.000627074
0.000178096
-6.63206e-05
0.00129829
0.000171465
-3.46927e-05
0.00106452
0.000190415
-3.67763e-05
0.000795002
0.000232695
-0.000136288
-0.000667048
0.000308473
-0.000154933
-0.00110072
0.000246683
-7.18302e-05
0.000100459
4.17918e-06
-3.99032e-05
0.000339047
1.3137e-05
-2.96546e-05
2.87459e-05
3.31113e-05
-2.26069e-05
-0.000155174
5.09349e-05
-2.36375e-05
-5.41612e-05
7.52361e-05
-4.53214e-05
0.000265745
7.82519e-05
-6.03029e-05
-0.000207664
6.27085e-05
-6.52744e-05
-0.00022987
5.08813e-05
-6.61986e-05
0.000271807
9.62872e-05
-9.05016e-05
-0.000285325
0.00014211
-8.10385e-05
-0.00119949
8.45769e-05
-1.96518e-05
-0.000954435
-0.0013186
3.22378e-05
0.00329716
-0.000808648
0.000100628
0.00407031
-0.00113471
-1.06219e-05
0.003522
-0.000581478
0.000188877
0.00494153
-0.000705582
7.38274e-05
0.00467899
-0.00105525
2.69465e-06
0.00385598
-0.0003657
0.000437527
0.00505469
-0.000534841
0.000274156
0.00488088
-0.000449412
0.000236106
0.00494833
-0.00118895
0.000117062
0.00426871
-0.000365539
0.000601248
0.00524013
-0.000346602
0.000426528
0.00510189
-0.000531975
0.000230133
0.00517661
-0.000706897
0.000125249
0.00462027
-0.00110954
-4.95279e-05
0.00404332
-0.000586226
0.000615052
0.00623057
-0.000385898
0.000546403
0.00588039
-0.000209163
0.00063128
0.00586783
-8.60237e-05
0.000679911
0.00589276
-0.000524097
0.00071079
0.00603352
-0.00147677
0.000292173
0.00379604
-0.000455888
0.00119836
0.00640869
-0.000489626
0.00101127
0.00613591
-0.000236781
0.000997404
0.00584844
0.000108881
0.00102776
0.00522444
-0.000228315
0.000662445
0.00533093
-0.00053761
0.000840593
0.00537407
-0.00116914
0.000651765
0.00626483
-4.86579e-05
0.000962561
0.00554424
-0.000367362
0.000889229
0.00530772
-0.000405207
0.000853818
0.00529669
-7.55097e-06
0.000756955
0.0046468
0.000147759
0.000486367
0.00441267
0.000521453
0.000312929
0.00458408
-6.03669e-06
0.000283674
0.00461009
2.74817e-05
0.000246834
0.00574559
-0.00018918
0.000170956
0.00565735
-2.41377e-05
0.000176364
0.00566341
0.000108465
1.31244e-05
0.00506144
7.44852e-05
0.000100031
0.00520033
0.000292476
-2.43653e-05
0.00472996
0.000294071
-0.000108106
0.00410101
0.000194892
-0.000128132
0.00432839
0.00031089
-0.000219637
0.00327087
0.000219181
-0.000106326
0.0033871
-9.63312e-05
6.02131e-05
0.00343102
-5.87885e-05
1.77237e-05
0.00317239
1.30957e-05
-2.00781e-05
0.00291864
8.26574e-05
-5.1764e-05
0.00277285
0.00022065
-9.10523e-05
0.00294549
0.000288388
-6.56751e-05
0.00297928
0.000249917
-2.60536e-06
0.00229628
0.000182483
-4.6711e-05
0.00219133
0.000249312
-5.23316e-05
0.00231917
0.000348604
-9.33423e-05
0.00259051
-4.78242e-05
3.58233e-05
0.00122083
-2.07896e-05
9.83286e-06
0.000974643
5.24001e-05
-1.96921e-07
0.000770252
7.50418e-05
-2.08429e-05
0.00029599
0.000145881
-2.86986e-05
0.000518806
0.000188128
-5.21326e-05
0.00120585
0.000187539
-1.96439e-05
0.000922558
0.000186873
-4.8659e-05
0.000571382
0.000246036
-0.000138408
-0.000833322
0.000311474
-0.000152668
-0.00118924
0.000271438
-7.73887e-05
-9.01296e-06
-1.69377e-05
-3.82916e-05
0.000419395
4.89094e-06
-3.73868e-05
0.000341888
1.42324e-05
-3.06625e-05
2.25691e-05
3.64637e-05
-2.34199e-05
-0.000191855
5.40575e-05
-2.44793e-05
-0.000129061
7.12463e-05
-4.40649e-05
0.000178261
8.0707e-05
-5.97603e-05
-0.000293885
7.32684e-05
-6.55722e-05
-0.000303764
5.78386e-05
-6.77618e-05
0.000191229
0.000109572
-9.02118e-05
-0.000385724
0.000143366
-7.66654e-05
-0.00128584
8.47896e-05
-1.91841e-05
-0.00102004
-0.00123028
-5.82886e-05
0.00290249
-0.00082357
1.89088e-05
0.0039182
-0.00117549
3.21917e-05
0.00330574
-0.00070245
0.000159977
0.00442555
-0.000752143
8.56044e-05
0.00402065
-0.00102327
-3.73582e-05
0.00352738
-0.000526181
0.000276598
0.00490756
-0.000522313
0.000188536
0.00481429
-0.000683492
0.000119223
0.00479654
-0.00113821
-3.29321e-06
0.00380853
-0.000444248
0.000561144
0.00499305
-0.000345556
0.000404046
0.00492376
-0.000509033
0.000311293
0.00478275
-0.000543252
0.00020752
0.00469423
-0.00119439
0.000112857
0.0042407
-0.000468725
0.000698926
0.00521386
-0.000429773
0.000507319
0.00520322
-0.000490355
0.000379669
0.00523355
-0.00038926
0.000240905
0.00536419
-0.000784823
9.07973e-05
0.00474067
-0.00118143
-5.03808e-05
0.00379835
-0.000371008
0.000640066
0.00613918
-0.00048167
0.000522598
0.00624642
-0.000316423
0.000625618
0.00596569
-0.000246448
0.00076427
0.0061388
-0.000370878
0.000767879
0.00597824
-0.000760134
0.000693537
0.00585468
-0.00144389
0.00026199
0.0038088
-0.000320392
0.00124423
0.00629546
-0.000458799
0.000991507
0.00651989
-0.00041567
0.000947581
0.0061962
-2.03033e-06
0.00107947
0.00579121
-0.000149957
0.000861504
0.00532309
0.000242831
0.00107409
0.00537605
-0.00073878
0.000835912
0.00592267
-0.00101689
0.00043449
0.00687471
-0.000326028
0.00090907
0.00622897
-0.000133275
0.000899986
0.00564262
-0.00015794
0.000883106
0.00554483
-0.000233582
0.00092547
0.00543624
0.000162312
0.00059085
0.00467248
0.000470943
0.000336979
0.00421175
-6.62769e-05
0.000325817
0.00480311
0.000228305
0.000248268
0.00469124
-0.000101569
0.000182057
0.00588428
-0.000254039
0.00026692
0.00580231
-0.00011192
0.000190086
0.00569676
-0.00011762
0.000210022
0.00559723
-0.000271601
0.000202825
0.00531291
0.000156455
8.69791e-05
0.00515318
0.000311514
-3.86092e-05
0.00463733
0.000260602
-0.000120508
0.0040827
0.000169636
-0.000154727
0.00427633
0.000301393
-0.000236039
0.0033485
0.000245281
-0.000132296
0.00362271
-0.000110461
7.10549e-05
0.00339637
-8.5737e-05
6.95734e-05
0.00344411
-5.14166e-05
4.57625e-06
0.00325155
9.77832e-06
-2.78313e-05
0.00295997
0.000130311
-8.72235e-05
0.00278459
0.000281849
-6.84647e-05
0.00285456
0.000253834
-1.09975e-05
0.00292138
0.00024953
-2.43091e-05
0.00221122
0.000216657
-5.58341e-05
0.00222421
0.000308944
-4.9689e-05
0.00227804
0.000381803
-0.000100473
0.00258062
-9.81577e-05
6.6025e-05
0.00162352
-4.02151e-05
2.58671e-05
0.0012499
1.86654e-05
2.8362e-06
0.000967177
6.93889e-05
-3.60734e-06
0.000720091
7.69029e-05
-1.73616e-05
0.000261808
0.000121733
-2.38602e-05
0.000440048
0.000188906
-2.81875e-05
0.0011062
0.000200131
-2.85751e-05
0.000775611
0.000197943
-6.67361e-05
0.000359605
0.0002574
-0.000139679
-0.00099414
0.000318288
-0.000151162
-0.00129039
0.000288868
-8.15456e-05
-0.000131546
-1.72428e-05
-1.54764e-05
0.000401626
-1.66185e-05
-3.55098e-05
0.000434137
5.61154e-06
-3.85649e-05
0.000344179
1.5764e-05
-3.15492e-05
1.49343e-05
3.80086e-05
-2.41932e-05
-0.00023015
5.55458e-05
-2.53996e-05
-0.000203272
6.88762e-05
-4.28342e-05
9.24584e-05
8.45692e-05
-5.86361e-05
-0.00038539
8.13006e-05
-6.45371e-05
-0.00038829
6.55328e-05
-6.89885e-05
0.000104473
0.000121412
-8.92896e-05
-0.000494512
0.000142665
-7.37365e-05
-0.00137396
7.80857e-05
-1.7373e-05
-0.00108075
-0.0010997
-0.000105459
0.00298961
-0.000842204
-0.0001036
0.0035425
-0.00114161
-5.62564e-05
0.00292486
-0.000798804
0.000109765
0.00390703
-0.000720497
-2.71642e-06
0.00392147
-0.0011242
6.0977e-05
0.00334569
-0.000656711
0.000290291
0.0043263
-0.000488532
0.000139703
0.00433767
-0.000756889
4.41937e-05
0.00401249
-0.00108069
-5.42497e-08
0.00346992
-0.000654691
0.000425093
0.00490289
-0.000508575
0.000287055
0.00497206
-0.000554347
0.000184718
0.00479411
-0.000565786
4.5737e-05
0.00477004
-0.00114061
-8.36425e-06
0.00376312
-0.000442817
0.000688343
0.00504104
-0.000473667
0.000541316
0.00489967
-0.000485351
0.00044875
0.0047813
-0.000499526
0.00033814
0.0047624
-0.000705669
0.000163316
0.00456462
-0.00127742
0.000121002
0.00421569
-0.000400535
0.00077076
0.00539674
-0.000654881
0.000617691
0.0052767
-0.000575995
0.000521338
0.00532112
-0.000439931
0.000356011
0.00531192
-0.000432639
0.00025739
0.00525936
-0.000817791
7.32312e-05
0.00467471
-0.00117096
-6.92026e-06
0.00353234
-0.000534517
0.000717645
0.00624516
-0.000528454
0.000562654
0.00616878
-0.00023939
0.000511893
0.00618387
-0.000179734
0.000704742
0.00620293
-0.000280335
0.000806795
0.00623026
-0.00029702
0.000795558
0.00641607
-0.000799964
0.000593655
0.0055842
-0.00134632
0.000200265
0.00393797
-0.000452067
0.00122414
0.00623573
-0.000404086
0.000984847
0.00657294
-0.000416266
0.000916954
0.00680884
-0.00026357
0.00102828
0.00627738
2.27927e-05
0.00101508
0.00577715
0.000282866
0.00101261
0.00557264
-0.00055669
0.000713927
0.00598845
-0.000307759
0.000534728
0.00635849
-0.000712441
0.000510677
0.00697491
-0.000178926
0.000843946
0.00633859
-0.000185035
0.000846
0.00635608
-0.000369907
0.000875284
0.00590272
-0.000640205
0.000925169
0.00591374
-6.94387e-05
0.000678366
0.00557462
0.000162187
0.000621247
0.00453753
2.66589e-05
0.000369109
0.0044024
0.000114591
0.000236922
0.0048695
0.000134855
0.000228693
0.00481114
-0.000242008
0.000190698
0.00618087
-0.000263935
0.000279483
0.00572418
-0.000160304
0.000232485
0.00583448
-0.000136957
0.00022192
0.0057704
-6.45095e-05
0.000239497
0.00563485
3.49929e-06
0.000185918
0.00534078
0.000175861
5.17603e-05
0.0051688
0.000235277
-6.22425e-05
0.00459762
0.000310037
-0.000104419
0.00397189
0.000209717
-0.000163853
0.00421108
0.000366551
-0.000300828
0.00345943
0.000227852
-6.26787e-05
0.00383934
-0.000193169
4.12203e-05
0.00363296
-6.56193e-05
6.40628e-05
0.00342728
-2.75409e-05
5.85917e-05
0.00343631
-3.20455e-05
3.72428e-05
0.00328791
3.11273e-05
-3.70498e-05
0.00295557
0.000104224
-6.4386e-05
0.00279802
0.000248126
-0.000107762
0.0028921
0.000251833
3.10568e-05
0.00281431
0.000285034
-5.12567e-05
0.00211955
0.000267616
-5.67519e-05
0.00222106
0.000295477
-7.21093e-05
0.00227249
0.000347086
-0.000107688
0.00263009
-0.000107569
8.94897e-05
0.00204556
-9.57622e-05
5.75483e-05
0.00167099
-3.25637e-05
2.06561e-05
0.00127026
4.78764e-06
-1.77824e-06
0.000976324
8.18388e-05
-4.97236e-06
0.000663872
8.59008e-05
-1.38151e-05
0.000221408
0.000160209
-1.53618e-05
0.000335889
0.000208844
-2.34492e-05
0.000976798
0.000206776
-3.96598e-05
0.000623059
0.000213634
-7.12804e-05
0.000143105
0.000288573
-0.000141865
-0.0011706
0.000314632
-0.000150639
-0.00139327
0.000296665
-8.44995e-05
-0.000265625
-2.87194e-05
-2.65552e-06
0.000796411
-1.46121e-05
-1.42879e-05
0.000395017
-1.78309e-05
-3.62541e-05
0.000449657
5.75357e-06
-3.96575e-05
0.000346534
1.79093e-05
-3.23381e-05
5.1699e-06
3.82409e-05
-2.51085e-05
-0.000268682
5.64466e-05
-2.62433e-05
-0.000276309
6.89165e-05
-4.1855e-05
6.76083e-06
9.23498e-05
-5.70493e-05
-0.000485228
8.40035e-05
-6.33857e-05
-0.000477896
7.42335e-05
-6.95369e-05
1.04865e-05
0.000130362
-8.7676e-05
-0.000610934
0.000145305
-7.01689e-05
-0.00146646
7.40629e-05
-1.5999e-05
-0.00113882
-0.0011963
0.000107035
0.00244564
-0.000906724
-5.92163e-05
0.00337593
-0.00104861
-0.000107044
0.00300366
-0.000945345
3.28045e-05
0.00351814
-0.000747328
-0.000116033
0.00362911
-0.00106124
-4.41623e-05
0.00290606
-0.000829743
0.00030219
0.00392437
-0.000671921
0.000120359
0.00396734
-0.000691894
-7.79185e-06
0.00392524
-0.00113485
8.80058e-05
0.00331184
-0.000831086
0.000422078
0.00436429
-0.000573142
0.000251325
0.00427925
-0.000584643
0.000118168
0.00429399
-0.000781257
6.89465e-05
0.00415896
-0.00114098
4.28368e-05
0.00342746
-0.000750287
0.000605372
0.00497531
-0.000630017
0.000410278
0.00493602
-0.000483379
0.000285793
0.00486902
-0.000483715
0.000126472
0.00469757
-0.000592271
4.32116e-05
0.00460507
-0.00126237
5.91786e-05
0.0036889
-0.000582047
0.000792819
0.00510808
-0.000650138
0.000635473
0.00494214
-0.000568306
0.00055618
0.00478455
-0.000598511
0.000476338
0.00480168
-0.000645676
0.000333844
0.00480491
-0.000928468
0.000163795
0.0046325
-0.00122177
0.000133992
0.0041325
-0.000484065
0.000754895
0.00542492
-0.000559672
0.00063536
0.00541029
-0.000523644
0.000634848
0.00544744
-0.000492605
0.000479421
0.00551058
-0.000458953
0.000352932
0.005395
-0.00044251
0.00025587
0.00522221
-0.000811524
0.000132213
0.00454714
-0.00127877
8.58478e-05
0.00337895
-0.000478638
0.000714638
0.00627542
-0.000538045
0.000584107
0.00635767
-0.000556398
0.000537994
0.00628281
-0.000244546
0.000565844
0.00630374
-0.000139752
0.000740258
0.00643201
-0.000240364
0.000814996
0.00673405
-0.000475747
0.000669481
0.0062593
-0.000740629
0.000564265
0.00565306
-0.00124843
0.00027005
0.00420392
-0.000275586
0.00114179
0.00634061
-0.00048629
0.000906629
0.00661521
-0.000530535
0.000869842
0.00678068
-0.000439061
0.000833967
0.00680201
-0.000231732
0.000950889
0.00650387
-3.74179e-05
0.00095427
0.0060351
-0.00033971
0.000777643
0.0058753
-0.000223893
0.000599262
0.0062624
-0.000351478
0.000628955
0.00672655
-0.00086909
0.000518952
0.00708303
-0.000330884
0.000791036
0.00654228
-0.000295001
0.00079993
0.00651936
-0.000169394
0.000860898
0.0064029
-0.000312249
0.000905018
0.00617061
-0.000331934
0.000770795
0.00615674
-7.97415e-05
0.00083611
0.00561536
7.34983e-05
0.000557126
0.0045113
0.000102152
0.000306764
0.00454044
0.000408405
0.000216944
0.00468256
0.000252427
0.000221026
0.00489493
-0.000256714
0.00022483
0.00644061
-0.000212753
0.000262776
0.00571367
-0.000135441
0.000222114
0.00580437
-0.000126408
0.000252535
0.00590273
-0.000153843
0.000276449
0.00585525
-3.93418e-05
0.000258955
0.00563228
-8.8604e-06
0.000142083
0.00536354
0.000226423
7.30048e-05
0.00505526
0.000240792
-8.73723e-06
0.00451298
0.000300107
-9.11456e-05
0.00388411
0.000253836
-0.000214566
0.0041386
0.000233438
-0.000234735
0.00369352
0.000138831
-3.50912e-05
0.00408269
-0.000228999
8.29991e-05
0.00383944
-0.000192176
3.61704e-05
0.00375726
-7.68019e-05
6.74937e-05
0.00346262
-2.20575e-05
9.49477e-05
0.00340545
-9.73579e-06
2.83527e-05
0.00331408
3.04066e-05
-3.83747e-05
0.00298505
0.000185287
-0.000122291
0.00278747
0.000296666
-2.30303e-05
0.00285837
0.000259137
9.13534e-06
0.00270156
0.000299966
-6.30695e-05
0.00203954
0.000308563
-7.23989e-05
0.00220136
0.000292159
-5.05117e-05
0.00223779
0.000334465
-0.000111304
0.00270359
-8.49749e-05
0.000105493
0.00251583
-9.24662e-05
7.26723e-05
0.00210829
-8.96408e-05
5.68822e-05
0.00170657
-3.01073e-05
1.21103e-05
0.00129223
1.03649e-05
-6.24238e-06
0.000985138
8.30021e-05
-5.51745e-06
0.000610813
9.11542e-05
-9.9159e-06
0.000181254
0.000151309
-1.18713e-05
0.000241918
0.000228849
-1.36518e-05
0.000814291
0.000211059
-4.25728e-05
0.000467296
0.000222709
-7.18779e-05
-7.53581e-05
0.000292383
-0.000148383
-0.00133487
0.000310205
-0.000150803
-0.00149186
0.000292701
-8.68688e-05
-0.000397395
-2.06165e-05
-1.09982e-06
0.00100461
-2.45949e-05
-1.56171e-06
0.00080828
-1.39952e-05
-1.4506e-05
0.000387264
-2.12068e-05
-3.68511e-05
0.000468057
6.8802e-06
-4.0608e-05
0.000347924
2.02263e-05
-3.31933e-05
-6.97161e-06
3.77824e-05
-2.6269e-05
-0.000306439
5.62398e-05
-2.67305e-05
-0.000347674
6.84978e-05
-4.11328e-05
-7.76534e-05
0.000100414
-5.55588e-05
-0.000593469
8.32225e-05
-6.25416e-05
-0.000568114
8.25945e-05
-6.94672e-05
-9.03168e-05
0.000135489
-8.57473e-05
-0.000730844
0.000141944
-6.81619e-05
-0.00155625
7.43671e-05
-1.41966e-05
-0.00119899
-0.00139193
0.000138175
0.00216445
-0.0010969
0.000192446
0.00308961
-0.00120923
8.54686e-05
0.00252079
-0.00116039
0.000163762
0.00313244
-0.000721458
-0.000140666
0.00338368
-0.000941916
-9.99913e-05
0.00298432
-0.00115913
0.000391681
0.00349736
-0.000825088
3.58492e-05
0.00351943
-0.000618688
-0.000124269
0.00363601
-0.00115827
-2.22267e-05
0.00295171
-0.0010145
0.000493189
0.00394017
-0.000752244
0.000336661
0.00388717
-0.000774582
0.000126533
0.00402295
-0.000714759
2.4826e-05
0.00392192
-0.00119274
0.000104652
0.00325895
-0.000828345
0.000498973
0.00438021
-0.000698754
0.000373855
0.0043105
-0.000635232
0.000251922
0.00429734
-0.000603346
0.000150568
0.004332
-0.000770654
8.69248e-05
0.00429326
-0.00128312
5.1895e-05
0.00339631
-0.000669593
0.000736312
0.00482986
-0.000685868
0.000510039
0.00491127
-0.000647628
0.000440132
0.004861
-0.000682951
0.000282117
0.00479781
-0.000687225
0.000165474
0.00461685
-0.000777886
8.65128e-05
0.00442715
-0.00127662
6.20395e-05
0.00368171
-0.000491489
0.000843941
0.00510633
-0.000598722
0.000683979
0.00509862
-0.000571907
0.000639113
0.00490747
-0.00059443
0.000579132
0.00478358
-0.000532031
0.000470016
0.00473858
-0.000635323
0.000334784
0.00482673
-0.000885565
0.000161167
0.00467936
-0.00130999
0.000145277
0.00401844
-0.000571375
0.00077453
0.00546918
-0.000601458
0.000661315
0.00546238
-0.000583671
0.000624484
0.00544792
-0.000518479
0.000582396
0.0056184
-0.000453986
0.000452139
0.00572561
-0.000416676
0.00034483
0.00548235
-0.000449595
0.000312257
0.00501601
-0.00087293
0.000247274
0.00451802
-0.00131731
0.000146652
0.00330117
-0.000555022
0.000747363
0.00650057
-0.000567977
0.000632441
0.00630877
-0.000512368
0.00055043
0.00632707
-0.000489369
0.000548141
0.00635082
-0.000238742
0.000661386
0.00638962
-0.000237557
0.000689175
0.00675797
-0.000333995
0.000680363
0.00671745
-0.000436058
0.000648213
0.00638752
-0.000643884
0.00051024
0.00570528
-0.00124667
0.000217617
0.00436388
-0.000406663
0.00104541
0.0066014
-0.000411132
0.000915138
0.00644824
-0.00038163
0.000904878
0.00679241
-0.000493979
0.000890235
0.00690614
-0.0003545
0.000787613
0.00698786
-0.000199099
0.000920005
0.00665749
-0.000191495
0.000939148
0.00613859
-0.000272682
0.00074827
0.00610112
0.000223327
0.000640962
0.00643547
-0.000245081
0.000792669
0.00695034
-0.000777482
0.000377778
0.00722602
8.04944e-05
0.000694843
0.00666568
-0.000261316
0.000737542
0.00673055
-0.000142922
0.000838344
0.00655843
-0.000247615
0.000880976
0.00652071
-0.000419017
0.000850441
0.00647064
-0.000246809
0.000836092
0.00639471
6.30785e-05
0.000722862
0.00561297
-4.12901e-05
0.000509895
0.00459025
8.72838e-05
0.000261703
0.00470851
0.000109031
0.00032703
0.00472136
-9.80121e-05
0.000255983
0.00519523
-0.000260593
0.000220736
0.0066193
-0.000183531
0.000205893
0.00584563
-0.000241723
0.000210664
0.00577467
-0.000156814
0.000271122
0.0058658
-0.000101138
0.00032048
0.00593778
-0.000126247
0.000284097
0.00594662
-0.00014161
0.000244351
0.00570203
2.51555e-05
0.000175311
0.00542137
0.000243269
0.000139759
0.00496016
0.000192293
3.02533e-05
0.00445843
0.000248067
-0.000128829
0.00385027
0.000266821
-0.00021042
0.00415603
0.000256554
-0.000203907
0.00389794
-4.48203e-05
-6.26693e-05
0.00452464
-0.000140757
0.000112882
0.00412155
-0.000209727
6.85456e-05
0.00392433
-0.000146565
3.20733e-05
0.00384961
-8.83716e-05
6.91759e-05
0.00354665
-3.61054e-06
8.73159e-05
0.00336046
2.08139e-05
3.44163e-05
0.00330348
5.15337e-05
-3.60091e-05
0.00293839
0.000143071
-6.73786e-05
0.00284006
0.000336523
-9.83788e-06
0.00276967
0.000241775
-8.0884e-06
0.00261586
0.000313315
-7.16491e-05
0.00194818
0.000317226
-4.59993e-05
0.002172
0.000370048
-8.55605e-05
0.0021522
0.000334559
-0.000107208
0.00276894
-6.70368e-05
9.46714e-05
0.00282264
-7.40401e-05
8.45432e-05
0.0025534
-9.00779e-05
6.94902e-05
0.00217177
-9.56724e-05
4.94375e-05
0.00174371
-1.84944e-05
8.34613e-06
0.00130302
2.98136e-05
-1.00028e-05
0.000980036
8.26142e-05
-5.22335e-06
0.000561288
9.50875e-05
-6.2989e-06
0.000136834
0.000145844
-2.3178e-06
0.000153238
0.00025295
-6.45823e-06
0.000625641
0.000219888
-3.72919e-05
0.000296044
0.000222461
-7.47133e-05
-0.000288895
0.00029982
-0.000153885
-0.00149612
0.000312302
-0.000155161
-0.00159393
0.000279981
-8.86508e-05
-0.000514358
-1.6393e-05
3.61743e-06
0.00119354
-2.34179e-05
-1.07902e-06
0.00102755
-2.50231e-05
-8.72107e-07
0.000819669
-1.23766e-05
-1.4738e-05
0.000377527
-1.94637e-05
-3.72552e-05
0.000484168
9.87297e-06
-4.13859e-05
0.000346243
2.24433e-05
-3.44206e-05
-2.12634e-05
3.68614e-05
-2.73977e-05
-0.000342633
5.56175e-05
-2.63385e-05
-0.000418086
6.67131e-05
-4.0611e-05
-0.000159314
0.000100813
-5.43673e-05
-0.000702457
8.30245e-05
-6.26987e-05
-0.000657907
8.91118e-05
-6.923e-05
-0.000195946
0.000137809
-8.39118e-05
-0.000852903
0.000138284
-6.50461e-05
-0.00164368
7.29273e-05