/*--------------------------------*- C++ -*----------------------------------*\
  =========                 |
  \\      /  F ield         | OpenFOAM: The Open Source CFD Toolbox
   \\    /   O peration     | Website:  https://openfoam.org
    \\  /    A nd           | Version:  7
     \\/     M anipulation  |
\*---------------------------------------------------------------------------*/
FoamFile
{
    version     2.0;
    format      ascii;
    class       surfaceScalarField;
    location    "10";
    object      phi_0;
}
// * * * * * * * * * * * * * * * * * * * * * * * * * * * * * * * * * * * * * //

dimensions      [0 3 -1 0 0 0 0];

internalField   nonuniform List<scalar> 
54125
(
9.92985e-05
-5.57922e-05
-0.000389478
0.000237753
-0.00012667
0.000409464
6.83118e-05
-0.000117931
-0.000719966
9.23632e-05
-4.69679e-05
-0.000434873
0.000162043
-7.24421e-05
0.00223668
0.000175261
-0.000124194
-0.000343776
0.000211686
-0.000125127
0.000415268
4.30387e-06
-0.000100269
0.000204257
7.29243e-05
-0.000104972
-0.000734886
9.27621e-05
-4.35082e-05
-0.000484127
-0.00020582
0.000145919
0.00270021
1.24784e-05
-0.000136347
0.00161529
0.00016773
-6.86591e-05
0.0023493
6.49828e-05
-4.70136e-05
0.00054059
0.000181703
-0.000128824
-0.000448857
0.000230286
-0.000129998
0.000407742
4.43137e-05
-6.84368e-05
0.000679074
1.23542e-05
-8.88043e-05
0.000175734
8.45556e-05
-0.000103094
-0.000759856
9.29483e-05
-4.02481e-05
-0.000536828
-0.000512228
0.000560597
0.00521029
-0.000355806
0.000119573
0.00270363
1.07978e-05
6.17987e-05
0.00279534
6.0701e-05
-0.0001147
0.00251073
5.66612e-05
-0.000107282
0.00177895
0.000236367
-7.27495e-05
0.00241597
0.000220512
-0.000102308
0.00195993
8.99188e-05
-3.58595e-05
0.00037006
0.000204655
-0.000142424
-0.00055653
0.000225903
-0.000126681
0.000401468
5.03595e-05
-6.35047e-05
3.85937e-05
2.78668e-05
-5.98147e-05
0.000622217
2.34616e-05
-8.68389e-05
0.000136018
9.60105e-05
-0.000100996
-0.000795118
9.25496e-05
-3.69845e-05
-0.000592393
-0.000726125
0.000546768
0.00456459
-0.000797259
0.000765808
0.00520312
-0.000251209
0.000533521
0.00493878
-0.000228879
-9.44851e-05
0.00377652
-0.000261118
0.000133872
0.00294933
3.49152e-05
2.88985e-05
0.00296789
0.000328369
-8.68194e-05
0.0027942
5.78507e-05
-3.52467e-05
0.00247076
5.23036e-05
-7.66445e-05
0.0019352
0.000255709
-7.83345e-05
0.0024645
0.000197746
-0.000151345
0.00154486
0.000180374
-6.51773e-05
0.00183674
0.000124325
-6.69097e-05
0.000193683
0.000228732
-0.000156648
-0.000659285
0.000225125
-0.000115826
0.000384719
6.80903e-05
-6.79104e-05
0.000140298
4.13919e-05
-5.71969e-05
-5.41616e-06
2.26259e-05
-5.89486e-05
0.000571701
3.63984e-05
-8.51302e-05
8.37535e-05
0.000107814
-9.84365e-05
-0.00084148
9.27442e-05
-3.40549e-05
-0.000651082
-0.00109195
0.000348358
0.00470392
-0.000941678
0.000902106
0.00538143
-0.000837642
0.000549618
0.00460141
-0.00063686
0.000816542
0.00486076
-0.00018974
0.000669327
0.00499594
-0.000353204
0.000516753
0.00481015
0.000163837
-0.000118288
0.00392221
-0.000199349
-3.47136e-05
0.0042023
-0.000195591
2.29807e-05
0.00320314
0.000374655
-6.59512e-05
0.0029149
0.000254733
-8.25301e-05
0.00305347
0.000310564
-2.76809e-05
0.00265645
0.000228885
2.68369e-05
0.00226272
0.00010349
-6.09584e-05
0.00204307
0.000245777
-0.000103306
0.00254715
0.000144672
-0.000125157
0.00168426
0.000178689
-0.000129208
0.00147159
0.000172991
-7.00818e-05
0.00168955
0.000156981
-9.44685e-05
1.09208e-05
0.00028009
-0.000171865
-0.000775521
0.000220321
-0.000103435
0.000360577
9.44008e-05
-4.91319e-05
0.000636581
6.67147e-05
-6.30947e-05
7.94809e-05
3.96999e-05
-5.85141e-05
-4.55505e-05
2.40367e-05
-5.81422e-05
0.000520676
5.02699e-05
-8.53401e-05
2.03872e-05
0.000118124
-9.56121e-05
-0.000898047
9.48013e-05
-3.13405e-05
-0.000714543
-0.00121525
0.000223584
0.00455458
-0.000745944
0.000494095
0.00537641
-0.00113716
0.000363749
0.00463968
-0.00048859
0.00105162
0.00557521
-3.33967e-05
0.0008409
0.0049338
-0.000924652
0.000541633
0.00463122
-0.000361962
0.000895294
0.00407444
-0.000310798
0.00071608
0.00492546
-0.000173409
0.000661142
0.00482936
-5.10635e-05
0.000420361
0.0048155
0.000122668
-9.71665e-05
0.00483403
0.000216011
-0.000137501
0.00411955
0.000132779
-0.000102254
0.00442364
0.000164688
-0.000114492
0.00319049
0.000217225
4.25271e-05
0.00290092
0.00026057
-6.19266e-05
0.00314887
0.000251523
-8.4646e-05
0.0030376
0.000263799
8.71694e-06
0.00258376
0.00010913
3.50551e-05
0.00221456
0.000122282
-6.74617e-05
0.00216503
0.000309903
-8.69745e-05
0.00254454
0.000176892
-7.04064e-05
0.000921465
0.000132155
-0.000104673
0.00159428
0.000170273
-0.000113217
0.00138416
0.00017809
-6.1174e-05
0.0015022
0.000184452
-0.000125606
-0.000169521
0.000268064
-0.000172428
-0.000856468
0.000223971
-9.13573e-05
0.000322765
3.73086e-05
-2.45624e-05
0.000147348
8.35203e-05
-4.64854e-05
0.000536452
7.18184e-05
-6.31958e-05
1.23442e-05
4.01817e-05
-5.99337e-05
-8.39406e-05
3.06073e-05
-5.94097e-05
0.000464139
6.24048e-05
-8.66016e-05
-5.10281e-05
0.000126714
-9.24776e-05
-0.000963624
9.32299e-05
-2.85563e-05
-0.000779216
-0.00132307
7.68703e-05
0.00443586
-0.00062125
0.000221917
0.00467997
-0.00105542
9.56066e-05
0.00437724
-0.000350474
0.000529989
0.00507012
-0.000574285
0.000684525
0.00559653
-0.00114756
0.000353754
0.00450883
-0.000532544
0.00122858
0.00537208
-3.8835e-05
0.000951443
0.0051927
-0.000171918
0.000792984
0.00468096
-0.00105446
0.000523065
0.00511155
-0.000199094
0.000915336
0.00402827
-0.000113895
0.000826891
0.00429353
-3.96807e-05
0.000727108
0.00503195
0.000392528
0.000507436
0.00451445
-0.000300154
0.000306718
0.00502616
-3.91727e-05
-7.51753e-05
0.00490664
0.000190861
-4.59651e-05
0.00480315
0.000139092
-0.000125216
0.00426722
7.50787e-05
-0.000159647
0.00450285
0.000138307
-7.23558e-05
0.00328934
0.000317092
-0.000121299
0.00301503
0.000175694
-5.14484e-05
0.0026856
0.000174057
-5.70878e-05
0.00307941
0.000256261
-9.34569e-05
0.00305379
0.000264275
9.8547e-06
0.00252277
0.00016508
2.76318e-05
0.00213884
0.000150546
-5.84417e-05
0.00225402
0.000299803
-9.13798e-05
0.00256009
8.32031e-05
-1.92709e-05
0.000440813
0.000147323
-5.38109e-05
0.000806801
0.000156986
-9.03757e-05
0.00148628
0.000158866
-8.57179e-05
0.00129002
0.00018772
-4.08405e-05
0.00126032
0.000206637
-0.000136821
-0.00034936
0.000289668
-0.000167948
-0.000942831
0.000243287
-7.76728e-05
0.00025038
2.63587e-05
-2.31848e-05
-0.000100214
4.08477e-05
-2.25569e-05
8.2572e-05
8.14828e-05
-4.70379e-05
0.000438811
7.67085e-05
-6.2257e-05
-6.2041e-05
4.39776e-05
-6.14878e-05
-0.00012584
3.76612e-05
-6.17518e-05
0.000401628
7.4726e-05
-8.80381e-05
-0.000130194
0.000134781
-8.91124e-05
-0.00103785
9.206e-05
-2.57266e-05
-0.00084555
-0.00128175
-4.51763e-05
0.00387716
-0.000728915
0.000213419
0.00517208
-0.00115195
8.84486e-05
0.00444394
-0.000310772
0.00033314
0.00496877
-0.000561084
0.000164985
0.00459739
-0.00107071
8.97873e-05
0.00421061
-0.000319369
0.000528731
0.00553164
-0.000185086
0.000612181
0.00528871
-0.00054492
0.000599032
0.00572425
-0.0011348
0.000400273
0.00418891
-0.000456019
0.00121107
0.00542072
-0.000209233
0.00109143
0.00532743
-2.8649e-05
0.000960407
0.00501424
8.76434e-05
0.00073672
0.00477219
-0.00132414
0.000589426
0.00554612
-0.000575125
0.000934079
0.00469314
-0.000152301
0.000833741
0.00436458
9.93751e-05
0.000762649
0.00429771
0.000243397
0.000565328
0.00480574
0.000304711
0.000396582
0.00425818
-0.000241117
0.000252252
0.00533212
0.000193395
6.36188e-05
0.00503618
-3.77149e-05
0.000104173
0.00496827
0.000139525
-3.39795e-05
0.00482865
0.000244124
-0.000108274
0.004236
0.000238248
-0.000165165
0.00452249
0.000268991
-0.000166415
0.00321602
0.000251423
-0.000128355
0.00319177
3.56985e-05
-1.46398e-05
0.00284734
5.26056e-05
-4.81016e-05
0.00277133
0.000174257
-6.91624e-05
0.00303784
0.00025861
-8.89053e-05
0.0030528
0.000296216
1.47266e-06
0.00244044
0.000157368
1.46123e-06
0.0021282
0.000217546
-5.87414e-05
0.0022935
0.000321711
-0.000104687
0.00258635
2.50658e-05
8.78925e-06
0.000844165
7.44288e-05
-1.99833e-05
0.000373404
0.00013159
-4.16779e-05
0.000707996
0.000176256
-7.60336e-05
0.00137704
0.000160437
-4.965e-05
0.00118237
0.000196571
-3.66136e-05
0.00100121
0.000223549
-0.000136371
-0.00052976
0.000308595
-0.000158576
-0.00103574
0.000243829
-7.06553e-05
0.000169267
1.45631e-05
-3.15724e-05
2.52622e-05
2.90003e-05
-2.17891e-05
-0.000129982
4.68009e-05
-2.31186e-05
1.18518e-05
7.86982e-05
-4.64305e-05
0.000344286
7.85414e-05
-6.09495e-05
-0.000141121
5.18775e-05
-6.34093e-05
-0.00017606
4.52389e-05
-6.41131e-05
0.000332464
8.65373e-05
-8.94413e-05
-0.000216402
0.000139551
-8.54901e-05
-0.00111764
9.282e-05
-2.36492e-05
-0.000914721
-0.00128296
2.53953e-05
0.00350632
-0.000792099
-2.54824e-05
0.00464931
-0.00112887
-4.39754e-05
0.00389806
-0.000310646
0.00033329
0.00491733
-0.000539815
0.000167837
0.00507142
-0.00109431
0.000140306
0.00432723
-0.000308382
0.000530494
0.00515554
-0.000481195
0.000282744
0.00514713
-0.000497946
0.000161401
0.0044788
-0.00113882
2.52835e-05
0.00418934
-0.000425273
0.000580864
0.00593164
-0.00026844
0.000549694
0.00565333
-0.000419584
0.000594004
0.00568468
-0.000459219
0.000658331
0.00601305
-0.00134734
0.000302378
0.00390972
-0.000616757
0.00112722
0.0060282
-0.000422754
0.0010765
0.0057061
0.000102065
0.0010715
0.00521365
0.000198945
0.000846501
0.00494892
-0.000114474
0.000669175
0.00511163
-0.00127779
0.000501119
0.00608167
-9.0791e-05
0.000969233
0.00516317
-0.000428191
0.000859244
0.00505811
-0.000137594
0.000728135
0.00467621
0.000283382
0.000554054
0.00426973
0.000176043
0.000407195
0.00485733
0.00010827
0.000299955
0.0043712
-0.000254712
0.000221299
0.00561696
-6.31517e-06
0.000134762
0.00559189
-0.00016958
0.000216713
0.00514583
-2.25287e-06
-9.44111e-05
0.00520521
0.000183545
-3.45213e-05
0.00482997
0.000344918
-9.66044e-05
0.00411874
0.000216263
-0.000117184
0.00441436
0.000318666
-0.000221985
0.00320852
0.000410926
-9.38972e-05
0.00319645
-7.10204e-05
6.08656e-06
0.00311166
1.65656e-05
-2.27115e-05
0.00287981
0.000130232
-4.39222e-05
0.00274745
0.000217707
-7.42525e-05
0.00298174
0.000262768
-7.86853e-05
0.00303063
0.000271986
1.56116e-06
0.00236492
0.000177308
-3.4231e-05
0.00214993
0.000242085
-5.09368e-05
0.00230626
0.000324432
-9.63979e-05
0.00260215
-9.62218e-06
1.56701e-05
0.000942753
4.34183e-05
4.37359e-06
0.00080539
7.57668e-05
-2.20145e-05
0.000324775
0.000131961
-3.39266e-05
0.000612626
0.000178692
-6.54737e-05
0.00129272
0.000172658
-3.22304e-05
0.0010572
0.000189408
-3.75522e-05
0.00075822
0.000235602
-0.000135331
-0.00070207
0.000310311
-0.000152668
-0.00112449
0.000250133
-7.06274e-05
8.25815e-05
4.46925e-06
-3.99536e-05
0.000329728
1.34916e-05
-2.96925e-05
1.9674e-05
3.34898e-05
-2.25868e-05
-0.000164004
5.15733e-05
-2.37887e-05
-6.23633e-05
7.52036e-05
-4.53378e-05
0.000253471
7.80032e-05
-6.01263e-05
-0.000222407
6.31082e-05
-6.50191e-05
-0.000238262
5.19471e-05
-6.61428e-05
0.000257218
9.79837e-05
-9.02844e-05
-0.000309591
0.000143312
-8.09273e-05
-0.00120367
8.55771e-05
-1.97696e-05
-0.000980528
-0.00132115
3.28604e-05
0.00329932
-0.000808039
0.000100846
0.00406669
-0.00113347
-1.31201e-05
0.00352404
-0.000576192
0.000190673
0.00493865
-0.000702252
7.88515e-05
0.00468892
-0.00105512
4.99583e-06
0.00385387
-0.000355043
0.000437313
0.00504356
-0.0005452
0.000276453
0.00487271
-0.0004503
0.000238785
0.0049253
-0.00119091
0.00011358
0.00426574
-0.000369876
0.000598686
0.00523175
-0.00036255
0.000421739
0.00511066
-0.000534083
0.000229947
0.00519308
-0.000721484
0.000124516
0.00464183
-0.00111424
-5.31468e-05
0.00400939
-0.000587672
0.00061389
0.00623089
-0.000381189
0.000552158
0.00588761
-0.000205028
0.000649276
0.00590515
-8.0887e-05
0.000694172
0.00592867
-0.000548017
0.000715186
0.00603379
-0.00148241
0.00029581
0.00381853
-0.000463049
0.00119283
0.00643058
-0.000478858
0.00100839
0.00614698
-0.000214242
0.000993397
0.00586086
8.80713e-05
0.00101111
0.00524435
-0.000238177
0.000665913
0.0053664
-0.000568562
0.000845073
0.0054445
-0.00115069
0.000635273
0.00634238
-4.39904e-05
0.000968397
0.00554942
-0.00036483
0.000890133
0.00532753
-0.000391619
0.00085692
0.00531869
1.64181e-05
0.000757118
0.00464028
0.000164135
0.000465977
0.00439173
0.000479616
0.000302665
0.00459127
1.10869e-05
0.000280358
0.00461972
2.10805e-05
0.000241099
0.0057657
-0.000179664
0.000174685
0.00565957
-2.79444e-05
0.000182121
0.00567099
0.000105086
6.96618e-06
0.0050696
7.51908e-05
0.000109051
0.00520415
0.000299991
-2.3544e-05
0.00471968
0.000291042
-0.0001126
0.0040951
0.000195028
-0.000132559
0.00430722
0.000314171
-0.000221963
0.0032645
0.000223726
-0.000106655
0.00340381
-9.19508e-05
6.13602e-05
0.00341676
-5.87733e-05
1.81055e-05
0.00317303
1.24135e-05
-2.16637e-05
0.00292091
8.49586e-05
-5.68527e-05
0.00277705
0.000225461
-9.18827e-05
0.00294817
0.000286134
-6.08236e-05
0.00297954
0.000247561
-7.52977e-06
0.00228007
0.000185512
-4.8314e-05
0.0021974
0.000256125
-5.29396e-05
0.00231699
0.000352904
-9.29696e-05
0.00259235
-4.71569e-05
3.4961e-05
0.00121427
-1.99989e-05
8.71031e-06
0.000971907
5.41646e-05
-1.06053e-06
0.000763761
7.52006e-05
-2.12782e-05
0.000288499
0.000145111
-2.90089e-05
0.000506254
0.000188429
-5.05383e-05
0.0012006
0.000188223
-1.89721e-05
0.000913507
0.000188464
-5.04343e-05
0.000536805
0.000248271
-0.000137477
-0.000867548
0.000314648
-0.00015032
-0.00121613
0.000275784
-7.60097e-05
-3.16154e-05
-1.7021e-05
-3.84546e-05
0.000412355
5.12094e-06
-3.74358e-05
0.000332351
1.46101e-05
-3.06912e-05
1.31684e-05
3.66848e-05
-2.33858e-05
-0.000201091
5.44916e-05
-2.46175e-05
-0.000137575
7.12273e-05
-4.40504e-05
0.000166168
8.0734e-05
-5.96396e-05
-0.00030852
7.35631e-05
-6.5433e-05
-0.000312535
5.88483e-05
-6.76878e-05
0.000175773
0.000110031
-9.00566e-05
-0.000410493
0.000144574
-7.63535e-05
-0.00129166
8.61206e-05
-1.87282e-05
-0.00104792
-0.0012338
-5.82193e-05
0.00290163
-0.000821184
1.96448e-05
0.00391932
-0.00117421
3.2467e-05
0.0033076
-0.000697497
0.00016054
0.00442764
-0.000754632
8.5138e-05
0.00402082
-0.00101976
-3.82162e-05
0.0035269
-0.00052134
0.000278278
0.00491461
-0.000525113
0.000190366
0.00480705
-0.000677479
0.000119029
0.00480206
-0.00114175
-2.77916e-06
0.00380749
-0.000443491
0.000563231
0.00498141
-0.000359974
0.000407854
0.00490958
-0.000510414
0.000315771
0.00477206
-0.000559947
0.00020287
0.00467447
-0.00119887
0.000112031
0.00423835
-0.000482459
0.000701915
0.0052083
-0.000446159
0.000506807
0.00521165
-0.00048923
0.00037836
0.00524645
-0.00037576
0.000241879
0.00537059
-0.000787481
8.92801e-05
0.00473887
-0.00118964
-4.77182e-05
0.00376433
-0.000352232
0.000637551
0.00612462
-0.000462877
0.000522308
0.00624476
-0.000303696
0.000639514
0.00598682
-0.000254945
0.000776626
0.00616572
-0.000384734
0.000774938
0.00601547
-0.000765421
0.000691968
0.00583449
-0.0014402
0.000261859
0.00384618
-0.000307124
0.00124133
0.00631987
-0.000451548
0.000983947
0.00654174
-0.000408706
0.000944978
0.00621248
1.23362e-05
0.00108123
0.00579482
-0.000133379
0.000864169
0.0053436
0.000198141
0.0010638
0.00542915
-0.0007116
0.000809713
0.00599275
-0.000985303
0.00043191
0.00691686
-0.000307325
0.000912313
0.00624637
-0.000148376
0.000899958
0.00566002
-0.00017456
0.000885068
0.00557903
-0.000221615
0.000912493
0.00546013
0.000172253
0.000570825
0.00466317
0.000434991
0.000331201
0.00421924
-5.56429e-05
0.000321289
0.00480101
0.000237153
0.000247094
0.00469074
-0.000113177
0.000182866
0.00591974
-0.000242663
0.000264026
0.00579331
-0.000112229
0.00019533
0.00569982
-0.000123611
0.000214427
0.00559955
-0.000270648
0.000209749
0.00532451
0.000168743
7.55036e-05
0.00516182
0.000303153
-4.61865e-05
0.00463625
0.000262529
-0.00012093
0.0040685
0.000171518
-0.000159451
0.0042587
0.000308578
-0.000243046
0.00334844
0.000249552
-0.000125542
0.0036327
-0.000109117
6.98894e-05
0.00338258
-8.36486e-05
7.03548e-05
0.00342816
-5.08936e-05
6.3253e-06
0.0032501
9.46014e-06
-3.02899e-05
0.00296009
0.00012812
-8.91448e-05
0.00279131
0.000280609
-6.93209e-05
0.00286449
0.000249386
-5.17909e-06
0.00291603
0.00025427
-2.81032e-05
0.00219405
0.000222965
-5.74744e-05
0.00222724
0.000310195
-5.09825e-05
0.00227945
0.000376325
-0.000101327
0.00259313
-9.7475e-05
6.57771e-05
0.00161074
-3.9505e-05
2.48134e-05
0.00124279
2.15561e-05
1.82591e-06
0.000962074
7.18312e-05
-4.15604e-06
0.000711493
7.80182e-05
-1.76677e-05
0.000253632
0.000122329
-2.40479e-05
0.000428662
0.000189988
-2.73183e-05
0.00109969
0.000200626
-2.89759e-05
0.000764986
0.000200822
-6.80715e-05
0.000325425
0.000259416
-0.000139661
-0.00102759
0.000318255
-0.000148768
-0.00131706
0.000289398
-8.04696e-05
-0.000154424
-1.72488e-05
-1.56954e-05
0.000389324
-1.69189e-05
-3.56571e-05
0.000427495
5.78106e-06
-3.86071e-05
0.000334486
1.6127e-05
-3.15672e-05
5.22284e-06
3.80433e-05
-2.41409e-05
-0.000239611
5.58222e-05
-2.54992e-05
-0.000211949
6.89528e-05
-4.28256e-05
8.0401e-05
8.47194e-05
-5.86825e-05
-0.00039999
8.12546e-05
-6.45074e-05
-0.00039697
6.64231e-05
-6.88296e-05
8.81231e-05
0.000121896
-8.90117e-05
-0.00051973
0.000143999
-7.31215e-05
-0.00138126
8.00244e-05
-1.75344e-05
-0.00111041
-0.00109941
-0.000106086
0.00299042
-0.000841914
-0.000103638
0.00354686
-0.00114185
-5.5333e-05
0.0029246
-0.00079462
0.00011198
0.00390955
-0.00072152
-2.98701e-06
0.00392166
-0.00112304
6.23474e-05
0.00334853
-0.00065474
0.000289685
0.00432887
-0.000486879
0.000139686
0.00433486
-0.000757614
4.4066e-05
0.00401867
-0.0010858
2.09491e-06
0.00346885
-0.000656118
0.000425404
0.00490784
-0.000511718
0.000289759
0.00496696
-0.000552721
0.000182818
0.00478557
-0.000562643
4.40616e-05
0.00475792
-0.00114551
-5.77973e-06
0.00375991
-0.000454094
0.000689788
0.00502964
-0.00049106
0.000543555
0.00489061
-0.000489235
0.000451675
0.00477368
-0.000509012
0.000340251
0.00476793
-0.000723675
0.000160561
0.00456213
-0.00127834
0.000119518
0.00420753
-0.000380822
0.000775557
0.00539426
-0.00065572
0.000614591
0.00529336
-0.000573583
0.000520806
0.00533909
-0.000440815
0.000353997
0.0053202
-0.000438235
0.000259543
0.00525383
-0.000813995
7.69379e-05
0.00466279
-0.00117744
-9.48525e-07
0.00350252
-0.000534188
0.000717123
0.00625723
-0.000549842
0.000562205
0.00618301
-0.000227936
0.000511985
0.00619152
-0.000168979
0.000712541
0.00623222
-0.000276215
0.000808001
0.00627549
-0.00030067
0.000789631
0.00641662
-0.000800734
0.000586427
0.00559906
-0.0013339
0.000203987
0.00399079
-0.000455234
0.0012142
0.00627793
-0.000417933
0.000968052
0.00660532
-0.000418585
0.000903345
0.0068274
-0.000256301
0.00102994
0.00629846
2.2164e-05
0.00100967
0.0057994
0.000239924
0.000996154
0.00560631
-0.000547449
0.000699412
0.00603126
-0.000281405
0.000522211
0.00642101
-0.000721015
0.000509568
0.00701513
-0.000181381
0.000849981
0.00635137
-0.000178422
0.000847721
0.0063648
-0.000392046
0.000872983
0.00594054
-0.000640886
0.000909568
0.00595219
-5.57109e-05
0.000665418
0.00558999
0.000145443
0.000628315
0.00452376
3.38683e-05
0.000368837
0.00440036
0.000151948
0.000223926
0.00484375
0.000139507
0.000227803
0.00481488
-0.000235896
0.000193158
0.00621203
-0.000258474
0.000272347
0.00572422
-0.000153236
0.00023269
0.00582554
-0.000149426
0.000229199
0.00578358
-5.4537e-05
0.000240934
0.00563236
4.20944e-06
0.000176354
0.00534757
0.000170924
5.02954e-05
0.00517503
0.000232518
-5.92573e-05
0.00459145
0.000314727
-0.000104014
0.0039526
0.000215766
-0.000171002
0.00419385
0.000357516
-0.000298645
0.00347423
0.000211534
-5.8928e-05
0.00385642
-0.000194724
4.00328e-05
0.00362719
-6.71204e-05
6.42272e-05
0.00341632
-2.16095e-05
6.09898e-05
0.00341666
-3.02609e-05
3.83485e-05
0.00328355
3.26e-05
-3.87246e-05
0.00295508
0.000108963
-6.66432e-05
0.00280199
0.000252092
-0.00010618
0.00290338
0.000251449
3.18659e-05
0.00280523
0.000288911
-5.61311e-05
0.00210462
0.000275255
-5.82189e-05
0.00221864
0.000297182
-7.22437e-05
0.00227144
0.000346609
-0.000106633
0.00264255
-0.000107268
8.97242e-05
0.00203669
-9.59294e-05
5.71496e-05
0.00165742
-3.1736e-05
1.93617e-05
0.00126278
3.33595e-06
-2.54517e-06
0.000973254
8.31695e-05
-5.37848e-06
0.000654078
8.69539e-05
-1.41056e-05
0.000212558
0.000162858
-1.56811e-05
0.000323119
0.000212291
-2.29674e-05
0.000966111
0.000207031
-4.00944e-05
0.000611233
0.000216211
-7.17418e-05
0.000107719
0.000289734
-0.000141714
-0.00120249
0.000315245
-0.000148303
-0.00142047
0.00029667
-8.34164e-05
-0.000287652
-2.86225e-05
-2.63202e-06
0.000788396
-1.4658e-05
-1.45105e-05
0.000382836
-1.84169e-05
-3.6389e-05
0.000443694
5.91917e-06
-3.96898e-05
0.000336689
1.82734e-05
-3.23394e-05
-4.85204e-06
3.82222e-05
-2.50329e-05
-0.0002783
5.667e-05
-2.63367e-05
-0.000285108
6.9057e-05
-4.19205e-05
-5.41794e-06
9.25294e-05
-5.72419e-05
-0.000499785
8.36518e-05
-6.33241e-05
-0.000486128
7.50335e-05
-6.93849e-05
-6.53718e-06
0.000130626
-8.73975e-05
-0.00063608
0.000145402
-6.99766e-05
-0.00147422
7.41492e-05
-1.59649e-05
-0.00116859
-0.00119429
0.000105531
0.00245145
-0.000902851
-6.14071e-05
0.00337684
-0.0010492
-0.000108015
0.00300578
-0.0009432
3.32259e-05
0.00352094
-0.000746258
-0.000115936
0.0036322
-0.00106143
-4.24555e-05
0.00290545
-0.000829352
0.000305381
0.00392449
-0.000673504
0.000121296
0.00397189
-0.000692412
-6.24643e-06
0.00392505
-0.00113628
8.90057e-05
0.00331
-0.000834199
0.000421941
0.00436532
-0.000572235
0.000250725
0.00427835
-0.000587652
0.000117671
0.00429619
-0.000783561
7.15763e-05
0.00417011
-0.00114341
4.27089e-05
0.00342405
-0.000754499
0.00060301
0.00497515
-0.000634658
0.00041206
0.00492914
-0.000486441
0.000286444
0.00486054
-0.000498519
0.000128043
0.00469109
-0.000607707
4.53915e-05
0.00459078
-0.00126698
6.0175e-05
0.00368838
-0.000591249
0.000795929
0.00512119
-0.000655681
0.000637709
0.00493545
-0.000565108
0.000556249
0.00477756
-0.000602532
0.000476492
0.00479916
-0.000646565
0.000332704
0.00480412
-0.000929686
0.000163322
0.00463402
-0.00122018
0.000133965
0.00411631
-0.000480191
0.000753866
0.00542881
-0.000583946
0.000630104
0.00541285
-0.000516713
0.00063261
0.00547033
-0.000488129
0.000474815
0.00553742
-0.000457088
0.000352633
0.00540798
-0.00044149
0.000261423
0.00521016
-0.000816849
0.00014348
0.00453447
-0.00128683
9.0958e-05
0.0033645
-0.000481497
0.000714278
0.00627847
-0.000544208
0.000580982
0.00636473
-0.0005595
0.000539166
0.00629675
-0.000250802
0.000576612
0.00632195
-0.000145455
0.000738326
0.00646952
-0.000247039
0.000804558
0.00674752
-0.000480994
0.000661428
0.00627517
-0.00072514
0.000560135
0.00568664
-0.00123982
0.00026485
0.00424474
-0.000285064
0.00113363
0.00636162
-0.000482829
0.000894563
0.00665582
-0.000542888
0.000863135
0.00679637
-0.000436164
0.000824601
0.00682802
-0.000232944
0.000944458
0.00654091
-5.77181e-05
0.000943911
0.00605481
-0.000333022
0.000772363
0.00590025
-0.00016976
0.000587913
0.00628726
-0.000347271
0.000651468
0.00676589
-0.000855738
0.000504399
0.00713057
-0.000329524
0.000793672
0.00655871
-0.000286499
0.000802853
0.0065295
-0.000185464
0.000863228
0.0064106
-0.00030675
0.00090246
0.00619987
-0.000325237
0.000772584
0.00617447
-7.62975e-05
0.000851538
0.00561398
6.2309e-05
0.000547727
0.00451508
0.000108439
0.000296499
0.00453407
0.000409899
0.000226781
0.00465064
0.000222472
0.000225014
0.00491807
-0.000261503
0.00022706
0.00645801
-0.000210121
0.000251638
0.00569833
-0.00013385
0.000222793
0.00580085
-0.000125062
0.000259809
0.00589838
-0.000151681
0.000282523
0.00586341
-5.66251e-05
0.000259077
0.00563887
-1.06364e-05
0.000143421
0.00537404
0.000234889
8.54816e-05
0.00504749
0.000234912
-1.34685e-06
0.00450532
0.000291028
-9.41551e-05
0.00387364
0.000262199
-0.000219408
0.00412767
0.000231079
-0.000232405
0.00371381
0.000112509
-3.26068e-05
0.00412313
-0.000235982
8.15251e-05
0.00382759
-0.000191035
3.5722e-05
0.00375081
-7.94696e-05
6.79632e-05
0.00345708
-2.02981e-05
9.60009e-05
0.00338264
-5.0101e-06
2.80152e-05
0.00330499
3.0996e-05
-3.9013e-05
0.00298341
0.000188682
-0.000124453
0.00279444
0.000302275
-1.69669e-05
0.00286223
0.000256234
4.49714e-06
0.0026954
0.000304341
-6.54574e-05
0.00202373
0.000311376
-7.19706e-05
0.00219672
0.000298017
-4.9452e-05
0.00223149
0.000333121
-0.000110675
0.00271678
-8.64357e-05
0.000106127
0.0025081
-9.24782e-05
7.14001e-05
0.00210026
-8.99208e-05
5.59978e-05
0.00169229
-2.93168e-05
1.08769e-05
0.00128459
1.23434e-05
-6.92863e-06
0.000980735
8.35917e-05
-5.82996e-06
0.000600432
9.21425e-05
-1.01908e-05
0.000171595
0.000150941
-1.2098e-05
0.000230366
0.000231275
-1.34708e-05
0.000800742
0.000212081
-4.26191e-05
0.000453681
0.000223536
-7.19118e-05
-0.000110586
0.000293029
-0.000147595
-0.0013656
0.000311378
-0.000148214
-0.00152165
0.000291974
-8.61071e-05
-0.00041937
-2.08252e-05
-1.14669e-06
0.00100137
-2.47699e-05
-1.58107e-06
0.000800237
-1.40577e-05
-1.47362e-05
0.00037524
-2.15233e-05
-3.69692e-05
0.000462497
7.14777e-06
-4.06298e-05
0.000337832
2.04704e-05
-3.31825e-05
-1.71728e-05
3.77059e-05
-2.61989e-05
-0.000316143
5.63524e-05
-2.6917e-05
-0.000356464
6.86067e-05
-4.12817e-05
-8.9985e-05
0.000100655
-5.57646e-05
-0.000608
8.26146e-05
-6.24368e-05
-0.00057569
8.30139e-05
-6.9286e-05
-0.000107663
0.000135474
-8.55017e-05
-0.000756029
0.000143314
-6.7829e-05
-0.00156567
7.30918e-05
-1.40196e-05
-0.00122767
-0.001389
0.000137561
0.00216902
-0.0010902
0.000190517
0.00309354
-0.0012072
8.4235e-05
0.00252522
-0.00115942
0.000160684
0.00313451
-0.00071882
-0.00014267
0.00338406
-0.000939418
-0.000100354
0.00298412
-0.00116062
0.000394857
0.00349685
-0.000827927
3.71533e-05
0.00352227
-0.000617591
-0.000121585
0.00363651
-0.00116298
-2.06652e-05
0.00295282
-0.00101612
0.000493842
0.00394112
-0.000755708
0.000338076
0.00389118
-0.000777048
0.000128229
0.00402681
-0.000716626
2.63026e-05
0.00392082
-0.00119622
0.0001055
0.00325731
-0.00083374
0.000498454
0.00438183
-0.000702634
0.000373031
0.00431099
-0.000641278
0.000250958
0.0042999
-0.000607207
0.000150072
0.00432638
-0.000771925
8.46894e-05
0.00429234
-0.00128721
5.18765e-05
0.0033924
-0.000680944
0.000734844
0.00482583
-0.000682866
0.000511162
0.00490324
-0.00064676
0.000443865
0.00485337
-0.000691363
0.000285313
0.0047921
-0.000685826
0.000164925
0.00461082
-0.000782524
8.51443e-05
0.00441865
-0.00127942
6.1897e-05
0.00368571
-0.000485683
0.000844891
0.00510213
-0.000594388
0.000681405
0.00508794
-0.000569318
0.000640512
0.00490379
-0.000595698
0.00057785
0.00478377
-0.000524954
0.00047001
0.00472972
-0.00063283
0.000335116
0.00482366
-0.000888485
0.000161884
0.00467774
-0.00131645
0.000144375
0.00400155
-0.000576513
0.000771237
0.00547576
-0.000607968
0.000658404
0.00546426
-0.000589747
0.000620394
0.00545531
-0.000517677
0.000575979
0.00563604
-0.000448704
0.000447934
0.00574537
-0.000412292
0.000348525
0.00548613
-0.000453098
0.000318144
0.0050076
-0.000871416
0.000252965
0.00451874
-0.0013218
0.000152376
0.0032941
-0.000550167
0.000738441
0.00651485
-0.000570405
0.000633495
0.00631353
-0.000507191
0.000549364
0.00631884
-0.000479608
0.000558591
0.00635821
-0.000244036
0.000663604
0.00640777
-0.000247942
0.000679576
0.00678472
-0.000329468
0.000669571
0.00673583
-0.00042754
0.000646953
0.00644613
-0.00063812
0.000497758
0.00574458
-0.00123677
0.000214516
0.00441126
-0.000410772
0.00104371
0.00661213
-0.000408064
0.000913988
0.00646376
-0.000379638
0.000911192
0.00680194
-0.000500391
0.000886301
0.00692831
-0.000354409
0.000785702
0.00701595
-0.000203097
0.000917905
0.00669371
-0.000224745
0.000939881
0.00617434
-0.000271239
0.000746917
0.00612093
0.000229249
0.000654669
0.00646471
-0.000283677
0.000782266
0.00699417
-0.000770816
0.00037154
0.00726835
0.000103937
0.000698147
0.00662767
-0.000266987
0.000741246
0.00675346
-0.000140056
0.000845327
0.00656239
-0.000250573
0.000882214
0.00652973
-0.000430849
0.000845245
0.00650143
-0.000249802
0.000841822
0.00642336
8.55697e-05
0.00070381
0.00560722
-5.55935e-05
0.000501624
0.00460046
9.78595e-05
0.000271443
0.00468258
8.41612e-05
0.000328555
0.00472513
-0.00012111
0.000256076
0.00524124
-0.000286085
0.000219297
0.0066373
-0.000198357
0.000200683
0.00582854
-0.000250324
0.000208933
0.00577148
-0.000165662
0.000279449
0.0058674
-9.62786e-05
0.00032491
0.00593198
-0.000118165
0.000281457
0.00595419
-0.000132538
0.00024288
0.00570294
2.16528e-05
0.000182583
0.00544397
0.000231967
0.000148143
0.00496831
0.000183068
3.49041e-05
0.00444942
0.000249798
-0.000133348
0.00384212
0.000268443
-0.0002097
0.0041479
0.000262884
-0.000202027
0.00391836
-5.67598e-05
-5.62371e-05
0.00456925
-0.000146118
0.000108737
0.00411089
-0.000206732
6.75519e-05
0.00391002
-0.000142618
3.20695e-05
0.0038394
-8.697e-05
6.92259e-05
0.00354151
-4.44322e-06
8.64386e-05
0.003341
3.09771e-05
3.44275e-05
0.00328417
5.55701e-05
-3.64575e-05
0.00293199
0.000139485
-6.3773e-05
0.00285271
0.000334963
-9.3092e-06
0.00277235
0.000243952
-1.00774e-05
0.00260815
0.000314558
-7.41351e-05
0.00193487
0.000318172
-4.48685e-05
0.002167
0.000370519
-8.86525e-05
0.00215032
0.000331657
-0.000105075
0.00278217
-6.6519e-05
9.49926e-05
0.00282029
-7.36925e-05
8.22218e-05
0.0025462
-8.93344e-05
6.86447e-05
0.00216289
-9.55761e-05
4.8571e-05
0.00172864
-1.83028e-05
7.49239e-06
0.00129562
3.04117e-05
-1.04842e-05
0.000975447
8.27203e-05
-5.45401e-06
0.000550681
9.48719e-05
-6.52639e-06
0.000127504
0.000142967
-2.43711e-06
0.000144972
0.000254517
-6.61406e-06
0.000610875
0.000222488
-3.69877e-05
0.000278884
0.000222006
-7.47097e-05
-0.000322463
0.000299878
-0.000152664
-0.00152555
0.000311932
-0.000153282
-0.00162309
0.000275746
-8.75587e-05
-0.000534465
-1.6677e-05
3.62079e-06
0.00119502
-2.59226e-05
-1.19392e-06
0.0010269
-2.53414e-05
-8.99233e-07
0.000811741
-1.25244e-05
-1.49744e-05
0.00036577
-1.95001e-05
-3.73577e-05
0.000478725
1.02226e-05
-4.14e-05
0.000335827
2.26347e-05
-3.43886e-05
-3.16179e-05
3.67808e-05
-2.73476e-05
-0.000352494
5.56694e-05
-2.66236e-05
-0.000426791
6.67171e-05
-4.07392e-05
-0.000171727
0.000100869
-5.44714e-05
-0.000716834
8.25209e-05
-6.24291e-05
-0.000665068
8.90777e-05
-6.89877e-05
-0.000213254
0.0001374
-8.36781e-05
-0.00087758
0.000139983
-6.46142e-05
-0.00165506
7.18043e-05
-1.57857e-05
-0.00128369