/*--------------------------------*- C++ -*----------------------------------*\
  =========                 |
  \\      /  F ield         | OpenFOAM: The Open Source CFD Toolbox
   \\    /   O peration     | Website:  https://openfoam.org
    \\  /    A nd           | Version:  7
     \\/     M anipulation  |
\*---------------------------------------------------------------------------*/
FoamFile
{
    version     2.0;
    format      ascii;
    class       volVectorField;
    location    "10";
    object      U;
}
// * * * * * * * * * * * * * * * * * * * * * * * * * * * * * * * * * * * * * //

dimensions      [0 1 -1 0 0 0 0];

internalField   nonuniform List<vector> 
18750
(
(0.2303 0.776524 -0.0291846)
(-0.238538 1.49624 -0.389595)
(0.474152 0.377101 -2.34523)
(0.212391 0.874237 0.0366944)
(-1.45493 0.878361 0.00803762)
(0.222315 1.2432 -1.39361)
(-0.343266 1.39296 -0.488348)
(-0.187292 -0.120639 -2.5595)
(0.456997 0.506503 -2.23571)
(0.184577 0.947643 0.0832703)
(-1.75465 0.238584 0.19129)
(-0.987286 0.46623 -0.593631)
(-1.62298 0.844674 -0.00672326)
(-0.42387 0.338569 -0.267536)
(0.215369 1.41121 -1.42988)
(-0.416082 1.27568 -0.585079)
(-0.525993 0.17732 -1.65038)
(-0.159154 -0.0876426 -2.56884)
(0.419206 0.648215 -2.11831)
(0.148356 0.984011 0.107328)
(-3.66973 -1.22124 0.524792)
(-1.69309 -0.395182 0.675758)
(-1.84559 0.194341 0.108963)
(-1.73797 0.299694 -0.587421)
(-1.16444 0.479609 -0.582583)
(-1.62946 1.07897 -0.0291474)
(-1.36232 1.07232 -0.489715)
(-0.342416 0.497307 -0.481067)
(0.18417 1.57929 -1.39123)
(-0.48732 1.21211 -0.628062)
(-0.0567128 0.327634 -1.253)
(-0.483901 0.0551714 -1.54197)
(-0.141957 -0.0298319 -2.58266)
(0.377964 0.797718 -1.99301)
(0.12357 0.991427 0.120002)
(-3.11828 -0.714809 -0.042664)
(-3.48662 -1.32923 1.85686)
(-3.33315 -0.408644 0.642893)
(-2.23607 0.278186 0.11495)
(-1.89335 -0.203452 0.326364)
(-1.97969 0.26908 0.0850521)
(-1.89094 1.24393 -0.426898)
(-1.7266 0.339498 -0.454053)
(-1.29811 0.476987 -0.585368)
(-1.87374 0.964512 -0.121086)
(-1.05595 0.891335 -1.03345)
(-1.39666 0.758602 -0.113228)
(-0.278368 0.715586 -0.723033)
(0.142752 1.73069 -1.29493)
(-0.537586 1.16831 -0.604468)
(-0.119558 0.793835 -1.40336)
(-0.0285446 0.274976 -1.24384)
(-0.433153 -0.0316485 -1.42541)
(-0.120404 0.0576957 -2.59672)
(0.326723 0.959461 -1.85582)
(0.103932 1.01255 0.11585)
(-3.27658 -1.57198 0.500222)
(-3.74713 -1.84129 1.84891)
(-3.07713 -1.05082 -0.0299073)
(-3.18778 -1.3688 1.77122)
(-3.48523 -1.55011 1.86321)
(-3.34084 -0.61707 0.623359)
(-2.50081 1.26274 -0.653321)
(-2.74768 -0.149231 0.572661)
(-2.09015 -0.445633 0.152124)
(-2.07761 0.378815 -0.118493)
(-2.06347 1.17097 -0.339559)
(-1.91348 1.14111 0.0614889)
(-1.6713 0.37593 -0.183073)
(-1.49217 0.475056 -0.514317)
(-1.94069 0.84136 -0.278512)
(-1.17235 0.548584 -1.04317)
(-1.05033 0.776728 -0.924086)
(-1.2607 0.601459 -0.290085)
(-0.253747 0.944206 -1.02415)
(0.0828141 1.8693 -1.14666)
(-0.599569 1.12451 -0.5536)
(-0.484285 0.874618 -1.41253)
(-0.120359 0.784196 -1.38164)
(-0.0212978 0.300162 -1.31108)
(-0.419906 -0.0689542 -1.30776)
(-0.0993262 0.179309 -2.60108)
(0.265971 1.11461 -1.71919)
(0.0471395 1.0557 0.102479)
(-3.15673 -1.45375 0.166878)
(-3.79074 -1.21777 0.403572)
(-3.0851 -2.35896 0.0875937)
(-4.04374 -1.20527 1.63227)
(-3.51795 0.330615 2.07308)
(-2.99551 -1.57914 0.215128)
(-2.54034 -0.354328 1.84645)
(-3.23546 -1.33985 1.66638)
(-3.20471 -1.31797 1.88172)
(-3.15338 0.723184 1.05439)
(-3.11324 0.799142 -0.0518153)
(-2.61987 1.21703 -0.766895)
(-2.99022 1.11112 0.169608)
(-2.0618 -0.306741 -0.247707)
(-2.1543 0.134039 0.143521)
(-2.13949 0.97423 -0.277912)
(-2.08817 1.09226 -0.370088)
(-1.8888 1.03253 0.389801)
(-1.56562 0.41186 -0.0820028)
(-1.53828 0.865224 -0.63162)
(-1.98186 0.666412 -0.292528)
(-0.650637 1.14686 -0.721947)
(-1.12375 0.629524 -1.05171)
(-1.03444 0.627965 -0.745215)
(-1.21714 0.545419 -0.441173)
(-0.184542 1.16928 -1.40294)
(0.0111853 1.97041 -0.997267)
(-0.637454 1.06578 -0.498433)
(-0.125208 0.272375 -0.62515)
(-0.451727 0.852987 -1.50909)
(-0.117702 0.784995 -1.36489)
(-0.0250498 0.36406 -1.37271)
(-0.371784 -0.0157782 -1.28872)
(-0.106573 0.334065 -2.59172)
(0.194391 1.26117 -1.57935)
(0.0866111 1.08535 0.096901)
(-2.98094 -1.43222 -0.039764)
(-3.22602 -0.788957 0.414268)
(-3.00918 -1.54299 0.0607355)
(-3.40417 -0.285614 0.972149)
(-3.62086 -0.936879 1.06839)
(-2.87805 -2.49108 0.0711839)
(-3.49012 -1.14905 2.14371)
(-3.66057 -0.487236 1.57178)
(-3.20151 -0.235599 1.79279)
(-2.86191 -2.14065 0.401271)
(-2.53507 -0.0723442 2.16455)
(-2.8152 -0.177886 1.83481)
(-3.28788 -0.922586 1.63455)
(-3.15242 0.334112 0.993588)
(-3.48575 -0.160587 0.803818)
(-3.05642 1.06964 -0.471152)
(-3.27813 0.699231 -0.148659)
(-2.9456 0.604627 -0.643988)
(-3.15953 -0.324654 -0.483302)
(-2.22318 -0.748399 0.119975)
(-2.0881 0.598574 0.022875)
(-1.79553 0.607711 -0.273473)
(-2.11696 0.706015 -0.323161)
(-2.14495 0.966995 -0.325279)
(-1.89473 0.944706 0.410164)
(-1.60862 0.373356 -0.0178518)
(-1.79754 0.419776 -0.481263)
(-2.06791 0.572689 -0.353556)
(-0.321621 0.563214 -0.233335)
(-0.633732 1.01361 -0.574309)
(-1.11585 0.69657 -1.00833)
(-1.00701 0.482196 -0.482711)
(-1.12906 0.574993 -0.544117)
(-0.212593 1.27182 -1.56215)
(-0.0604345 2.02586 -0.870427)
(-0.652307 1.00165 -0.440715)
(0.0493625 0.174947 -0.39313)
(-0.102119 0.363685 -0.613454)
(-0.431595 0.824509 -1.53289)
(-0.120313 0.795373 -1.35538)
(-0.0403795 0.426685 -1.42976)
(-0.34712 0.0329461 -1.34047)
(-0.14881 0.510398 -2.57188)
(0.116956 1.3877 -1.43804)
(0.0247482 1.10154 0.084488)
(-2.59162 -1.33641 0.187943)
(-3.47637 -0.616671 0.19447)
(-2.93267 -1.57764 0.00956649)
(-3.29053 -0.582334 0.232077)
(-3.04274 -1.22363 0.215812)
(-2.70929 -1.77804 0.0339726)
(-3.67449 -0.323391 0.69803)
(-3.4298 0.0239939 1.23683)
(-3.64894 -1.03887 1.05034)
(-2.68957 -2.67658 0.0828526)
(-3.56974 -0.631155 2.44004)
(-3.54623 -0.693505 2.13598)
(-3.28263 -0.0198937 1.66235)
(-3.15224 0.148147 1.52318)
(-3.05894 -2.58274 0.584524)
(-2.88081 -1.10945 2.04799)
(-2.67917 0.137569 2.23749)
(-2.89625 -0.363264 1.93857)
(-3.2634 -0.253481 1.73909)
(-3.19278 0.410355 0.71386)
(-3.50325 -0.425561 0.676451)
(-3.43731 0.845169 0.00157219)
(-3.43086 0.495821 -0.160602)
(-3.29048 0.544921 -0.168292)
(-3.00961 0.373355 -0.528022)
(-3.0585 -0.0645338 -0.65576)
(-2.04595 -0.367253 -0.631483)
(-2.37654 0.2814 0.162465)
(-1.88223 0.251685 -0.135507)
(-1.83911 0.431329 -0.206724)
(-2.08161 0.68218 -0.463999)
(-2.2071 0.785942 -0.303431)
(-1.92032 0.837992 0.296349)
(-1.63356 0.397776 -0.0555217)
(-1.78129 0.528533 -0.461656)
(-2.15809 0.684821 -0.523238)
(-0.564035 0.40504 -0.0316102)
(-0.29806 0.579889 -0.2244)
(-0.615588 0.922647 -0.402013)
(-1.10238 0.759074 -0.884019)
(-0.949666 0.438701 -0.0577965)
(-1.0114 0.646227 -0.562659)
(-0.191942 1.34802 -1.61672)
(-0.172862 2.09418 -0.715855)
(-0.647552 0.943442 -0.393016)
(-0.024492 0.146535 -0.569529)
(0.0554509 0.20616 -0.415542)
(-0.0804608 0.448273 -0.611549)
(-0.414714 0.761437 -1.49773)
(-0.134544 0.830127 -1.3615)
(-0.0576312 0.502534 -1.47222)
(-0.343301 0.117003 -1.41147)
(-0.199086 0.683816 -2.54292)
(0.0438583 1.4887 -1.29819)
(-0.0879769 1.10195 0.0318619)
(-2.34971 -1.18484 -0.0753664)
(-3.10763 -0.790049 -0.274175)
(-2.5441 -1.45141 -0.0458444)
(-3.36673 -0.0422249 0.337204)
(-3.41868 -0.625862 0.181249)
(-2.82921 -1.66448 0.00223691)
(-3.51071 -0.432167 0.6535)
(-3.33042 -0.837997 0.273489)
(-2.93147 -1.37414 0.229743)
(-2.54925 -1.90886 -0.0349265)
(-3.98742 -0.483197 0.870453)
(-3.63202 -0.3434 0.862191)
(-3.52839 -0.764168 1.04798)
(-3.79683 -0.915421 1.15348)
(-1.90559 -3.46771 -0.3102)
(-4.04343 -0.999446 2.09854)
(-3.58447 -1.11894 2.39104)
(-3.58325 0.0471985 2.09836)
(-3.3677 0.140151 1.59728)
(-3.27695 -0.43779 1.60399)
(-3.39176 -2.62969 0.577639)
(-3.36188 0.422349 2.08977)
(-3.28524 -0.953545 2.04103)
(-3.0604 -0.390549 1.84857)
(-2.89084 0.0661522 1.15411)
(-3.37722 0.0402766 1.32253)
(-3.0297 0.379009 0.574643)
(-3.50099 -0.961654 0.539283)
(-3.73906 0.223998 0.316995)
(-3.31533 -0.098191 0.802782)
(-3.36553 0.147495 -0.0575072)
(-3.31029 0.429437 -0.199199)
(-2.95658 0.463782 -0.416983)
(-3.04647 -0.439355 -0.387291)
(-2.25086 -0.226281 -0.957773)
(-2.4131 0.02655 0.261043)
(-2.03214 -0.169083 0.0373088)
(-1.90387 0.0715709 -0.20529)
(-1.84673 0.178812 -0.179676)
(-2.15604 0.653213 -0.465495)
(-2.24692 0.644799 -0.259427)
(-1.90571 0.716369 0.110943)
(-1.66671 0.420409 -0.0546537)
(-1.89955 0.527493 -0.436292)
(-2.29499 0.531103 -0.495163)
(-0.619972 0.135156 0.173628)
(-0.568136 0.472852 -0.0825076)
(-0.296751 0.588638 -0.208241)
(-0.599503 0.875743 -0.305823)
(-1.0788 0.695733 -0.753694)
(-0.931397 0.490902 0.0355825)
(-0.905033 0.698647 -0.502755)
(-0.177434 1.42853 -1.6219)
(-0.251815 2.11282 -0.659122)
(-0.625915 0.888962 -0.349215)
(-0.232798 0.0890407 -0.763854)
(-0.028186 0.13599 -0.579503)
(0.0592281 0.239552 -0.440436)
(-0.0703459 0.519891 -0.613281)
(-0.378076 0.694831 -1.43172)
(-0.140327 0.864104 -1.39576)
(-0.0806994 0.58061 -1.49709)
(-0.345143 0.21983 -1.48677)
(-0.264698 0.838714 -2.49635)
(-0.0340081 1.57833 -1.15178)
(0.0784403 1.07789 0.0925745)
(-2.19391 -1.00314 0.0647288)
(-2.72646 -0.700945 0.125341)
(-2.2837 -1.30514 -0.0806904)
(-3.27131 -0.434798 0.216785)
(-3.03456 -0.876772 -0.0618374)
(-2.46749 -1.53632 -0.054351)
(-3.39517 -0.170111 0.429974)
(-3.16991 -0.712474 0.284761)
(-3.32446 -0.63136 0.324764)
(-2.54887 -2.00674 0.0370474)
(-3.53444 -0.501392 0.768062)
(-3.36043 -0.797167 0.578415)
(-3.35409 -1.21272 0.233541)
(-2.79644 -1.55823 0.1206)
(-2.44406 -1.96252 -0.0189609)
(-4.18911 -0.653775 0.969917)
(-3.90747 -0.6006 0.935249)
(-3.81475 -0.354705 0.949876)
(-3.85291 -0.42252 1.18008)
(-3.89654 -1.35065 1.21446)
(-1.58295 -3.79478 -0.329288)
(-4.20647 -0.515115 2.06621)
(-3.97905 -1.23957 2.06608)
(-3.78038 -0.917511 2.28383)
(-3.49289 0.154878 1.85476)
(-3.37082 -0.817518 1.22089)
(-3.30089 -1.63861 1.28173)
(-3.4503 -2.69023 0.609364)
(-3.67487 0.0701068 2.24279)
(-3.39718 -1.00503 2.17412)
(-3.36291 -0.846766 1.90691)
(-3.10172 -0.474614 1.64483)
(-2.98353 0.188917 0.79829)
(-3.30848 -0.0492757 0.949905)
(-3.18963 0.135017 0.520756)
(-4.00769 -0.21025 0.735387)
(-3.71669 -0.111181 0.39839)
(-3.67014 -0.090858 0.529036)
(-3.4346 0.383035 -0.520304)
(-3.49292 0.175675 -0.0487766)
(-3.37281 0.233913 -0.202518)
(-2.89708 0.142226 -0.37721)
(-2.96194 -0.574084 -0.431001)
(-2.32481 -0.271745 -0.844079)
(-2.37859 -0.0926303 0.280769)
(-2.27303 -0.199733 0.0130599)
(-2.08499 -0.199281 0.027636)
(-1.94006 -0.0665152 -0.186618)
(-1.9085 0.066679 -0.214255)
(-2.19115 0.587357 -0.424484)
(-2.25376 0.534083 -0.0863495)
(-1.84365 0.461263 -0.221479)
(-1.75237 0.371506 0.00231937)
(-1.96937 0.342024 -0.38748)
(-2.33006 0.525217 -0.492419)
(-0.798667 -0.0172221 0.0469472)
(-0.649051 0.116084 0.168931)
(-0.583377 0.519132 -0.1324)
(-0.305106 0.585367 -0.176652)
(-0.573875 0.835413 -0.270831)
(-1.05428 0.565216 -0.571144)
(-0.940783 0.651327 -0.0185239)
(-0.806876 0.709434 -0.469087)
(-0.194059 1.52116 -1.60036)
(-0.318104 2.08888 -0.704618)
(-0.613474 0.867666 -0.339236)
(-0.28916 -0.0543617 -0.882302)
(-0.240304 0.0865818 -0.800541)
(-0.0313644 0.131257 -0.586571)
(0.0628811 0.273926 -0.469458)
(-0.0688223 0.560658 -0.620936)
(-0.348556 0.622689 -1.35132)
(-0.15154 0.888418 -1.43237)
(-0.104739 0.659021 -1.50333)
(-0.363516 0.333296 -1.55186)
(-0.354062 1.01439 -2.41755)
(-0.0908161 1.65179 -1.02728)
(-0.0196424 1.04451 0.04256)
(-1.93716 -1.15617 -0.0927799)
(-2.59973 -0.596871 -0.0162643)
(-2.14341 -1.10774 0.0966398)
(-2.89067 -0.582755 0.0694703)
(-2.62949 -0.947301 0.0596407)
(-2.25905 -1.29838 -0.0780491)
(-3.19255 -0.402582 0.197649)
(-3.18378 -0.815323 0.214818)
(-3.02198 -1.00678 0.0641478)
(-2.29919 -1.70748 -0.00540573)
(-3.33619 -0.240387 0.587687)
(-3.27287 -0.406858 0.39673)
(-3.1473 -0.904419 0.308588)
(-2.97438 -1.43201 0.239139)
(-2.45088 -2.17375 0.0804666)
(-3.56111 -0.837925 0.814457)
(-3.37895 -0.879961 0.660787)
(-3.30227 -1.00425 0.471515)
(-3.41306 -0.967292 0.238026)
(-2.8073 -1.73022 -0.0978374)
(-2.09316 -2.23293 0.0460883)
(-4.14302 -0.655015 0.939429)
(-4.0886 -0.728876 0.944067)
(-3.83316 -0.569071 1.18132)
(-3.92204 -0.845257 1.1079)
(-3.72915 -1.5092 1.31722)
(-3.56166 -2.31747 1.20937)
(-1.45152 -3.6498 -0.193485)
(-4.12833 -0.0312664 2.37408)
(-4.26882 -0.91149 1.99154)
(-3.93195 -1.6953 1.81748)
(-3.82622 -0.634826 2.23955)
(-3.41045 -1.00158 1.3688)
(-3.74333 0.417625 2.14323)
(-3.00851 -2.38245 1.85376)
(-3.52732 -2.84147 0.722589)
(-4.06215 -0.496383 2.17078)
(-3.67328 -0.232702 2.28161)
(-3.6517 -0.418758 2.27909)
(-3.39613 -0.798481 2.19094)
(-3.14479 0.00140659 1.54995)
(-3.02382 -0.100815 0.576406)
(-3.16001 -0.40382 0.904107)
(-3.36002 -0.316775 0.433369)
(-3.70821 -1.70649 0.460036)
(-3.78719 -0.258564 0.6493)
(-3.72741 -0.425374 0.596811)
(-3.72927 -0.336295 0.602531)
(-3.46115 -0.200296 0.698917)
(-3.58449 -0.159245 0.0313189)
(-3.30835 0.24994 -0.289505)
(-2.89967 -0.0514311 -0.415627)
(-2.80132 -0.733488 -0.574715)
(-2.28306 -0.252283 -0.913156)
(-2.5439 -0.269247 0.28754)
(-2.22909 -0.435993 0.460736)
(-2.24349 -0.51435 0.14905)
(-2.1078 -0.299631 0.0077231)
(-1.94994 -0.218365 -0.234741)
(-1.89509 0.15922 -0.434218)
(-2.1568 0.657932 -0.482536)
(-2.23298 0.33013 0.211125)
(-1.78754 0.308467 -0.457599)
(-1.8267 0.319554 -0.0421061)
(-1.96086 0.303391 -0.370292)
(-2.47634 0.643683 -0.531978)
(-1.06998 -0.360512 0.457674)
(-0.817738 -0.0593421 -0.0283624)
(-0.656208 0.113527 0.13526)
(-0.585619 0.532596 -0.158854)
(-0.322181 0.582022 -0.131544)
(-0.570616 0.78925 -0.235172)
(-1.02447 0.561332 -0.289394)
(-0.961383 0.799774 -0.221306)
(-0.706292 0.719437 -0.502345)
(-0.220975 1.62392 -1.54249)
(-0.350921 2.05756 -0.785745)
(-0.605006 0.877141 -0.337768)
(-0.282312 -0.145574 -0.69833)
(-0.293718 -0.0675674 -0.896577)
(-0.247361 0.0786398 -0.835388)
(-0.0348569 0.132105 -0.588246)
(0.0644751 0.30819 -0.500256)
(-0.0598514 0.576513 -0.633506)
(-0.305766 0.574619 -1.27806)
(-0.162206 0.916485 -1.42791)
(-0.128036 0.738262 -1.49902)
(-0.391501 0.452746 -1.5978)
(-0.438359 1.15719 -2.33332)
(-0.153827 1.68743 -0.958847)
(0.0582162 0.981203 0.025357)
(-2.00902 -0.616018 0.00969436)
(-2.30676 -0.652141 0.00328165)
(-1.8792 -1.25816 -0.0829461)
(-2.55781 -0.519992 0.0532262)
(-2.56079 -0.721097 -0.0412236)
(-2.0993 -1.16108 0.14963)
(-2.87639 -0.507841 0.230535)
(-2.91274 -0.548104 0.115544)
(-2.56609 -1.06944 -0.00301996)
(-2.08539 -1.55391 -0.00249715)
(-3.1867 -0.513092 0.360259)
(-3.22144 -0.62043 0.24512)
(-3.11081 -0.902209 0.192093)
(-3.13458 -0.780509 -0.00274571)
(-2.20797 -1.82883 0.0219336)
(-3.39425 -0.136577 0.725808)
(-3.2245 -0.569429 0.641615)
(-3.09191 -1.00876 0.49331)
(-3.00766 -1.17025 0.308941)
(-2.73291 -1.84253 0.181799)
(-2.27747 -2.31717 0.114821)
(-3.63633 -0.185907 1.0572)
(-3.35867 -1.03572 0.854761)
(-3.35426 -1.13988 0.610447)
(-3.3804 -1.1048 0.454472)
(-3.30649 -1.23265 0.32932)
(-2.77112 -1.92557 -0.177694)
(-1.78097 -2.43513 0.0488869)
(-4.03956 -0.72443 1.06755)
(-4.00264 -0.924557 0.877194)
(-4.07346 -0.440545 0.953933)
(-3.96372 -0.526257 1.43322)
(-3.97319 -1.07243 1.25657)
(-3.86468 -1.56828 1.22475)
(-3.13839 -2.59619 1.00236)
(-1.47247 -3.29495 -0.180262)
(-3.97215 -0.641244 2.21972)
(-4.24825 -0.643617 2.08186)
(-4.27604 -1.06547 1.96033)
(-3.93358 -1.40739 2.25363)
(-3.74443 -0.812944 2.0787)
(-3.65314 0.318513 2.09266)
(-3.37968 -2.271 1.51222)
(-3.95327 -1.5525 0.900494)
(-4.09423 -2.51199 0.859)
(-4.17616 -0.661029 1.97748)
(-4.08043 -0.331614 2.22899)
(-3.69183 -0.961429 2.11179)
(-3.21759 -2.37798 2.3387)
(-3.81235 -0.479218 1.44348)
(-3.13571 -0.310941 1.05976)
(-2.8875 -0.401861 0.667878)
(-3.18519 -0.768009 0.788971)
(-3.22057 -0.702266 0.423695)
(-3.64393 -1.81412 0.429137)
(-3.66334 -0.114345 0.871429)
(-3.8247 -0.299996 0.661773)
(-3.75632 -0.605212 0.754046)
(-3.68744 -0.543675 0.618385)
(-3.55837 -0.285126 0.524245)
(-3.54288 -0.0587293 0.0328825)
(-3.26066 -0.118636 -0.314825)
(-2.89579 -0.149198 -0.452724)
(-2.83514 -0.733264 -0.609456)
(-2.55969 -0.0932879 -1.08068)
(-2.70528 -0.590258 0.347194)
(-2.3581 -0.55635 0.140964)
(-2.22084 -0.54304 0.456313)
(-2.28594 -0.223021 0.0448603)
(-2.14394 -0.297046 -0.0265899)
(-1.93686 -0.332884 -0.321764)
(-1.93023 -0.238557 -0.164782)
(-2.24009 0.439274 -0.31023)
(-2.16225 0.122219 0.267476)
(-1.79857 0.350526 -0.498759)
(-1.90849 0.213906 -0.0285974)
(-2.01334 0.280396 -0.40386)
(-2.69261 0.568257 -0.528673)
(-1.32975 -0.204268 0.479152)
(-1.07129 -0.476191 0.431325)
(-0.831175 -0.102721 -0.0959767)
(-0.673204 0.112763 0.115416)
(-0.585166 0.495946 -0.152013)
(-0.332346 0.579889 -0.0943391)
(-0.545285 0.778682 -0.150342)
(-1.01581 0.593186 -0.223199)
(-0.964159 0.884056 -0.451692)
(-0.625042 0.749746 -0.552992)
(-0.262899 1.73803 -1.45192)
(-0.398124 2.04127 -0.836491)
(-0.59839 0.898836 -0.333129)
(-0.523853 -0.360881 0.0420417)
(-0.268436 -0.15077 -0.717793)
(-0.299363 -0.0909068 -0.907281)
(-0.253504 0.062664 -0.869846)
(-0.0381226 0.140444 -0.586799)
(0.0630532 0.341175 -0.52889)
(-0.0506841 0.59187 -0.64334)
(-0.267938 0.549031 -1.22087)
(-0.179837 0.965348 -1.37481)
(-0.155218 0.808224 -1.49989)
(-0.428581 0.571565 -1.62122)
(-0.513009 1.26133 -2.24808)
(-0.255739 1.76241 -0.856796)
(0.0811469 0.96228 0.0391177)
(-1.63771 -0.860452 0.109362)
(-2.23464 -0.526432 -0.169406)
(-1.90993 -0.805207 0.0146257)
(-2.28966 -0.675387 -0.161682)
(-2.32966 -0.790723 -0.0109232)
(-1.80365 -1.34058 -0.0615758)
(-2.56623 -0.500219 0.139645)
(-2.54814 -0.600606 0.0379559)
(-2.49433 -0.932851 -0.0404078)
(-2.02855 -1.27821 0.195407)
(-2.84395 -0.643601 0.320591)
(-2.78252 -0.714242 0.179458)
(-2.73665 -0.880147 0.0948203)
(-2.48681 -1.34315 0.00308161)
(-1.97682 -1.69919 0.0350126)
(-3.20306 -0.634772 0.533437)
(-3.1828 -0.793223 0.399991)
(-3.21894 -0.735528 0.236071)
(-3.02006 -0.939389 0.114951)
(-2.97219 -1.05135 -0.04361)
(-1.94572 -2.12222 0.0344462)
(-3.27993 -0.631082 0.903375)
(-3.16172 -1.04288 0.747613)
(-3.06934 -1.10603 0.663996)
(-3.0148 -1.16941 0.551842)
(-2.92057 -1.37967 0.266272)
(-2.59996 -2.0178 0.174177)
(-2.19752 -2.30302 0.125128)
(-3.60339 -0.620962 0.995786)
(-3.4938 -1.04931 0.932899)
(-3.41366 -1.00925 0.943845)
(-3.44268 -1.2172 0.592569)
(-3.31791 -1.45291 0.445843)
(-3.25267 -1.44764 0.366908)
(-2.54137 -2.07635 -0.0672887)
(-1.35382 -2.67514 0.050008)
(-4.09809 -0.503213 1.15084)
(-4.07497 -1.02434 1.01198)
(-3.95065 -1.11997 0.823115)
(-4.03244 -0.674042 1.00535)
(-4.14302 -0.754781 1.42283)
(-4.0593 -1.31353 1.42399)
(-3.75213 -2.22212 1.00234)
(-2.94002 -2.53454 0.810317)
(-1.5155 -3.07282 0.23405)
(-4.01966 0.160081 2.29037)
(-4.21434 -0.82184 1.88733)
(-4.25405 -1.42174 1.78157)
(-4.31659 -1.59107 1.79429)
(-4.02673 -1.5706 2.08315)
(-3.76602 -0.909421 1.95994)
(-3.62752 -1.8116 1.2872)
(-3.64686 -1.58346 1.17133)
(-3.91039 -2.0845 1.11996)
(-3.51553 -3.41587 0.495709)
(-4.24072 -0.867886 1.79734)
(-4.17505 -0.739417 2.04866)
(-4.15762 -0.778178 2.25397)
(-3.86012 -0.956121 2.25341)
(-4.12117 -1.38912 1.83357)
(-3.41053 -0.890972 2.00655)
(-2.92148 -0.683503 1.11997)
(-2.99422 -0.460713 0.351039)
(-3.1913 -0.982306 0.685782)
(-3.14988 -0.988498 0.450975)
(-3.63373 -2.17985 0.408863)
(-3.74875 -0.492588 0.813932)
(-3.82368 -0.122521 0.793152)
(-3.81382 -0.547974 0.676946)
(-3.75373 -0.836181 0.905528)
(-3.65861 -0.587876 0.690056)
(-3.58354 -0.450927 0.275365)
(-3.49862 -0.415958 -0.0951075)
(-3.24252 -0.219224 -0.163362)
(-2.83847 -0.155548 -0.479667)
(-2.90664 -0.581502 -0.834317)
(-2.65617 -0.566054 -0.710743)
(-2.49971 -1.21413 0.410025)
(-2.494 -0.766091 0.216083)
(-2.38382 -0.72789 0.13952)
(-2.22134 -0.588138 0.458311)
(-2.18178 -0.544574 0.387938)
(-2.17772 -0.287728 -0.0295608)
(-1.94486 -0.366981 -0.381869)
(-1.87404 0.109594 -0.706939)
(-2.23355 0.458835 0.0193186)
(-2.05357 -0.021987 0.0800789)
(-1.85279 0.414759 -0.5213)
(-1.95913 0.367398 -0.171169)
(-2.02874 0.110765 -0.469635)
(-2.74126 0.458953 -0.494875)
(-1.5937 -0.132539 0.765645)
(-1.35811 -0.278843 0.459095)
(-1.07495 -0.572711 0.41985)
(-0.837801 -0.151613 -0.150905)
(-0.690695 0.114446 0.0906604)
(-0.567195 0.429309 -0.135006)
(-0.345985 0.574424 -0.055317)
(-0.545878 0.804441 -0.140746)
(-1.03531 0.704825 -0.162668)
(-0.917852 0.843476 -0.464797)
(-0.565367 0.819281 -0.635529)
(-0.317606 1.82719 -1.40142)
(-0.44601 2.02672 -0.872034)
(-0.584098 0.928816 -0.327555)
(-0.652147 -0.257399 -0.166321)
(-0.511429 -0.392011 0.0536533)
(-0.254604 -0.152347 -0.734922)
(-0.306886 -0.106403 -0.913233)
(-0.260008 0.0510635 -0.902006)
(-0.0447469 0.152573 -0.593294)
(0.0599345 0.371241 -0.553028)
(-0.0417106 0.595765 -0.650397)
(-0.245936 0.548506 -1.18933)
(-0.186242 1.00514 -1.31217)
(-0.186568 0.882454 -1.49449)
(-0.481881 0.680947 -1.61645)
(-0.564653 1.32938 -2.17241)
(-0.28835 1.78931 -0.812062)
(0.0397941 0.994628 0.00705663)
(-1.48004 -0.676562 0.144805)
(-2.00933 -0.658943 0.023706)
(-1.57697 -0.967091 0.0857666)
(-2.03197 -0.673903 0.092407)
(-2.17228 -0.61748 -0.194171)
(-1.92918 -0.794464 0.0349829)
(-2.28565 -0.754015 0.212578)
(-2.28219 -0.806101 -0.18023)
(-2.34364 -0.805341 -0.0122102)
(-1.71325 -1.44922 -0.0429743)
(-2.56778 -0.717738 0.366376)
(-2.52231 -0.601035 0.193298)
(-2.55573 -0.798657 0.0267537)
(-2.45052 -1.03392 -0.029551)
(-1.91812 -1.47854 0.194667)
(-2.86078 -0.699446 0.455198)
(-2.82384 -0.787424 0.331647)
(-2.73331 -0.875805 0.155551)
(-2.69504 -1.03361 0.134664)
(-2.53433 -1.50582 0.0663286)
(-1.81651 -1.85813 0.0574754)
(-3.16273 -0.481042 0.722697)
(-3.21398 -0.742749 0.530653)
(-3.17556 -0.861604 0.415189)
(-3.00164 -1.2048 0.163487)
(-2.80137 -1.44138 0.144314)
(-2.5858 -1.72907 0.0981743)
(-1.84109 -2.27116 0.081173)
(-3.38373 -0.373867 0.95437)
(-3.2946 -0.746458 0.871086)
(-3.15627 -1.10537 0.758127)
(-2.99607 -1.20487 0.674919)
(-2.9579 -1.25426 0.571715)
(-2.88242 -1.57225 0.255003)
(-2.54668 -2.12237 0.195829)
(-1.86135 -2.45553 0.147054)
(-3.56328 -0.66233 1.04078)
(-3.49465 -0.940411 0.941981)
(-3.41455 -1.3724 0.899956)
(-3.49731 -1.29823 0.816426)
(-3.47882 -1.36039 0.574127)
(-3.2904 -1.60061 0.400964)
(-3.00025 -1.74542 0.422316)
(-2.29524 -2.26545 0.203527)
(-1.13357 -2.80939 0.0967386)
(-4.12792 -0.751462 1.05363)
(-4.0608 -1.14389 1.00449)
(-4.08785 -1.22192 0.961091)
(-4.01657 -1.19904 0.881938)
(-4.05289 -0.923178 1.12646)
(-4.14168 -1.39402 1.28475)
(-4.0797 -2.05827 1.22699)
(-3.57453 -2.32636 1.04363)
(-2.93405 -2.64869 0.616943)
(-1.56049 -3.03459 0.32168)
(-4.1989 -0.195976 1.93861)
(-4.22468 -0.927743 1.81865)
(-4.39871 -0.788306 1.70964)
(-4.32803 -1.66117 1.61716)
(-4.25768 -1.85037 1.70553)
(-4.08933 -1.56825 1.90815)
(-3.8226 -1.36146 1.79678)
(-3.55082 -1.84927 1.2627)
(-4.35207 -0.720653 1.22934)
(-4.20542 -1.85596 1.47745)
(-3.37133 -3.64742 0.52245)
(-4.46407 -0.219516 1.74374)
(-4.3509 -0.796669 1.86995)
(-4.23153 -0.790339 2.08592)
(-4.1129 -1.13857 2.24032)
(-4.08662 -1.28734 2.04668)
(-3.73492 -1.66739 2.1347)
(-3.74254 -0.800016 1.57211)
(-2.88529 -0.93159 1.15006)
(-3.03788 -0.927393 0.329787)
(-2.91936 -1.17982 0.669708)
(-2.9623 -1.74576 0.635901)
(-3.70019 -2.54508 0.555137)
(-3.82057 -0.550698 0.715224)
(-3.67017 -0.843122 0.70542)
(-3.80891 -0.536821 0.931721)
(-3.83967 -0.526537 0.848607)
(-3.73638 -1.07173 0.932703)
(-3.64904 -0.93129 0.671733)
(-3.55823 -0.482882 0.538115)
(-3.44111 -0.374616 0.108149)
(-3.17958 -0.281648 -0.0362785)
(-2.7498 -0.390943 -0.567123)
(-2.85702 -0.725407 -0.783893)
(-2.5975 -0.705475 -0.599849)
(-2.41363 -1.59211 0.398357)
(-2.67622 -0.575035 0.458992)
(-2.50496 -0.865239 0.206722)
(-2.44601 -0.761661 0.162001)
(-2.2134 -0.696524 0.43786)
(-2.15174 -0.678721 0.306118)
(-2.18506 -0.368225 0.0121821)
(-1.95284 -0.445206 -0.32588)
(-2.04507 -0.240802 -0.244013)
(-2.27076 0.340365 0.00144137)
(-2.03182 -0.0427704 0.0049982)
(-1.8514 0.371433 -0.522769)
(-2.0307 0.172168 0.0797461)
(-1.99848 0.00922948 -0.525969)
(-2.76442 0.175132 -0.426064)
(-1.82498 -0.0465833 0.685372)
(-1.66178 -0.19611 0.655875)
(-1.37415 -0.367161 0.447362)
(-1.02852 -0.747022 0.343654)
(-0.839918 -0.182316 -0.199031)
(-0.713054 0.108932 0.0674182)
(-0.543791 0.354354 -0.113098)
(-0.353593 0.563559 -0.0141583)
(-0.534174 0.772032 -0.0511503)
(-1.04953 0.86846 -0.19408)
(-0.796333 0.734973 -0.388608)
(-0.519666 0.89212 -0.748567)
(-0.35609 1.89127 -1.36924)
(-0.482294 2.00574 -0.899995)
(-0.579823 0.945129 -0.320585)
(-0.764667 -0.182829 0.124608)
(-0.6427 -0.312959 -0.137156)
(-0.486364 -0.427481 0.0654976)
(-0.24158 -0.154159 -0.748837)
(-0.311796 -0.115439 -0.915739)
(-0.26864 0.0616359 -0.931117)
(-0.0513362 0.165631 -0.616106)
(0.0554657 0.389557 -0.562576)
(-0.0297886 0.59685 -0.646343)
(-0.241802 0.561898 -1.1706)
(-0.182829 1.01552 -1.26975)
(-0.222274 0.939703 -1.49064)
(-0.54707 0.77244 -1.58922)
(-0.610359 1.38015 -2.10355)
(-0.360026 1.78433 -0.706842)
(0.01288 1.01392 -0.0274379)
(-1.21018 -0.980604 0.0341538)
(-1.75083 -0.707053 0.0158687)
(-1.33654 -0.944211 0.0732352)
(-1.87994 -0.86238 0.246873)
(-1.9983 -0.676943 0.026308)
(-1.57941 -1.04656 0.149148)
(-2.02308 -0.913246 0.135503)
(-2.04105 -0.739183 -0.012325)
(-2.17026 -0.652373 -0.202693)
(-1.7877 -1.05389 0.0513646)
(-2.31247 -0.823023 0.393471)
(-2.26982 -0.966668 0.23767)
(-2.2011 -1.06536 -0.19389)
(-2.2176 -1.01232 0.0064151)
(-1.66464 -1.58054 -0.019029)
(-2.62889 -0.634976 0.471971)
(-2.54352 -0.798297 0.429403)
(-2.48983 -0.882598 0.22415)
(-2.53826 -0.987266 0.0782659)
(-2.38773 -1.14007 -0.000389435)
(-1.69716 -1.79188 0.113287)
(-2.90067 -0.663798 0.483097)
(-2.81837 -0.940443 0.437841)
(-2.72146 -1.09443 0.355715)
(-2.65781 -1.18424 0.177435)
(-2.62887 -1.30897 0.0893991)
(-2.54444 -1.51034 0.0454738)
(-1.70087 -1.94063 0.0661538)
(-3.11421 -0.52202 0.832543)
(-3.06972 -0.913369 0.662636)
(-3.11496 -0.847291 0.588026)
(-2.99094 -1.16998 0.47978)
(-2.9331 -1.3178 0.23506)
(-2.71506 -1.58282 0.0860141)
(-2.46429 -1.84877 0.0620135)
(-1.53325 -2.424 0.0267897)
(-3.33127 -0.563236 1.013)
(-3.20792 -0.940669 0.921722)
(-3.24804 -0.894881 0.869746)
(-3.04105 -1.20747 0.798156)
(-2.91239 -1.36198 0.628544)
(-2.83138 -1.36063 0.598129)
(-2.8295 -1.62662 0.226303)
(-2.39929 -2.33668 0.196989)
(-1.62325 -2.62426 0.0852425)
(-3.57455 -0.597579 1.02086)
(-3.48334 -0.89926 0.989552)
(-3.47763 -1.0909 0.920551)
(-3.37106 -1.54245 0.868715)
(-3.49861 -1.51074 0.740676)
(-3.51776 -1.56096 0.572177)
(-3.28782 -1.60503 0.493359)
(-2.81522 -1.85197 0.513929)
(-2.27155 -2.25296 0.306767)
(-0.795415 -3.01078 0.134466)
(-4.15568 -0.85809 1.23079)
(-4.23885 -0.718715 1.12489)
(-4.02214 -1.33176 0.945366)
(-3.97874 -1.3576 0.972603)
(-4.03357 -1.18556 1.08646)
(-4.06901 -1.39194 1.07391)
(-4.11681 -2.00387 1.06762)
(-3.94014 -2.28036 1.14333)
(-3.6933 -2.26632 1.06509)
(-2.78254 -3.0611 0.421101)
(-1.67854 -2.96558 0.368529)
(-4.43948 0.85353 1.91694)
(-4.29864 -0.667542 1.88404)
(-4.19004 -0.652393 1.96773)
(-4.28596 -1.27422 1.92156)
(-4.14902 -2.3512 1.46461)
(-4.32616 -1.69689 1.7525)
(-4.09843 -1.61977 2.03806)
(-3.68603 -2.06967 1.63267)
(-3.53538 -1.93504 1.40369)
(-3.99517 -2.2488 1.56927)
(-3.68893 -3.05209 0.877742)
(-3.23904 -3.91742 0.152557)
(-4.4979 0.00337038 1.46077)
(-4.28759 -0.619121 1.78922)
(-4.33519 -0.962618 2.01342)
(-4.15266 -1.19036 2.15885)
(-4.13776 -1.26291 2.12886)
(-3.89155 -1.97175 1.95979)
(-3.85907 -1.96934 2.00303)
(-3.56891 -1.11791 1.32008)
(-2.7538 -1.49833 0.979158)
(-2.839 -1.26566 0.821381)
(-2.86723 -1.33998 0.625071)
(-3.11 -1.97079 0.487167)
(-3.00081 -3.46578 0.305342)
(-3.64549 -0.13738 0.50727)
(-3.76186 -0.873863 0.643647)
(-3.72093 -0.858373 0.848413)
(-3.733 -0.871749 1.21602)
(-3.89258 -0.623151 0.871433)
(-3.78421 -1.11926 0.843704)
(-3.62172 -1.04434 0.612954)
(-3.60943 -0.92253 0.760872)
(-3.45846 -0.31684 0.206108)
(-3.03277 -0.703314 -0.183531)
(-2.73759 -0.557996 -0.563197)
(-2.85402 -0.840808 -0.697573)
(-2.99692 -0.454855 -0.803401)
(-2.58043 -1.89099 0.399945)
(-2.88593 -0.455091 0.463755)
(-2.68245 -0.75049 0.404536)
(-2.49738 -0.978439 0.146418)
(-2.45204 -0.843061 0.191789)
(-2.24426 -0.724388 0.449038)
(-2.11566 -0.635029 0.326439)
(-2.14453 -0.440171 -0.029119)
(-1.89761 -0.513457 -0.308262)
(-1.96278 -0.361147 -0.094049)
(-2.27798 0.273624 -0.0890554)
(-2.09762 0.0721498 -0.0608962)
(-1.78649 0.23489 -0.530408)
(-2.02028 0.155533 -0.155576)
(-1.96953 -0.019411 -0.551108)
(-2.67579 -0.15276 -0.357339)
(-2.0166 -0.0420385 0.670764)
(-1.82042 -0.272574 0.625567)
(-1.65509 -0.286192 0.616547)
(-1.39999 -0.428797 0.401604)
(-1.02609 -0.777745 0.333438)
(-0.847011 -0.202318 -0.235528)
(-0.726987 0.101022 0.0505674)
(-0.514958 0.289195 -0.0968497)
(-0.360744 0.553907 0.0276262)
(-0.488184 0.69784 0.0950328)
(-1.00338 0.881302 -0.192687)
(-0.682693 0.686314 -0.319094)
(-0.467681 0.947363 -0.840592)
(-0.378809 1.92161 -1.39871)
(-0.522354 1.97195 -0.924547)
(-0.574776 0.935869 -0.31273)
(-0.300711 -0.192155 0.0165033)
(-0.762166 -0.22048 0.0923375)
(-0.632316 -0.366321 -0.114978)
(-0.474954 -0.44419 0.0730968)
(-0.228057 -0.153502 -0.759723)
(-0.315177 -0.149902 -0.912696)
(-0.279191 0.0684928 -0.9591)
(-0.0587687 0.175093 -0.652968)
(0.0483741 0.408341 -0.544069)
(-0.0146396 0.595204 -0.639531)
(-0.238935 0.583388 -1.14486)
(-0.157955 1.00565 -1.2714)
(-0.246836 0.975418 -1.50264)
(-0.614467 0.854688 -1.55683)
(-0.651222 1.42265 -2.04288)
(-0.29105 1.74697 -0.744659)
(-0.00553073 1.01067 -0.0527466)
(-1.18006 -0.908125 -0.0454342)
(-1.46074 -0.994916 0.0604459)
(-1.19578 -0.995395 -0.01744)
(-1.61762 -1.06151 0.410979)
(-1.70324 -0.786988 0.0839947)
(-1.35563 -0.966747 0.0157539)
(-1.86531 -0.953082 0.449561)
(-1.7926 -1.13183 0.272562)
(-2.02837 -0.696004 0.0535442)
(-1.52754 -1.23442 0.20976)
(-2.06522 -0.89569 0.397517)
(-2.07685 -0.936537 0.125688)
(-1.95523 -1.01892 0.00198636)
(-2.08019 -0.814002 -0.105637)
(-1.70234 -1.2818 0.0281446)
(-2.39953 -0.727043 0.493713)
(-2.29153 -0.899305 0.467344)
(-2.061 -1.41951 0.321266)
(-2.17522 -1.18522 -0.0501016)