/*--------------------------------*- C++ -*----------------------------------*\
  =========                 |
  \\      /  F ield         | OpenFOAM: The Open Source CFD Toolbox
   \\    /   O peration     | Website:  https://openfoam.org
    \\  /    A nd           | Version:  7
     \\/     M anipulation  |
\*---------------------------------------------------------------------------*/
FoamFile
{
    version     2.0;
    format      ascii;
    class       volVectorField;
    location    "10";
    object      U_0;
}
// * * * * * * * * * * * * * * * * * * * * * * * * * * * * * * * * * * * * * //

dimensions      [0 1 -1 0 0 0 0];

internalField   nonuniform List<vector> 
18750
(
(0.237103 0.805021 -0.022328)
(-0.236378 1.5195 -0.385965)
(0.464519 0.401275 -2.33617)
(0.218402 0.903169 0.0418961)
(-1.47712 0.898007 0.0264785)
(0.230532 1.26728 -1.39489)
(-0.341334 1.4115 -0.483675)
(-0.179634 -0.108466 -2.56172)
(0.447561 0.53097 -2.22605)
(0.189424 0.97627 0.0873017)
(-1.76731 0.253519 0.171899)
(-1.00417 0.482826 -0.595328)
(-1.63723 0.870134 -0.00403595)
(-0.407564 0.356753 -0.28265)
(0.222225 1.4347 -1.43072)
(-0.413158 1.29317 -0.581648)
(-0.516668 0.15619 -1.63822)
(-0.151308 -0.069718 -2.56986)
(0.409725 0.673423 -2.10734)
(0.15148 1.00978 0.110702)
(-3.64143 -1.17649 0.499407)
(-1.71695 -0.364573 0.636149)
(-1.85851 0.22664 0.0994535)
(-1.73151 0.314597 -0.579998)
(-1.18042 0.495183 -0.582278)
(-1.6423 1.10649 -0.0304898)
(-1.3485 1.04181 -0.412372)
(-0.322924 0.519465 -0.496265)
(0.19034 1.60153 -1.39199)
(-0.485155 1.23106 -0.623884)
(-0.0485496 0.318992 -1.23916)
(-0.475273 0.0379051 -1.52578)
(-0.132838 -0.00995366 -2.58285)
(0.368154 0.822916 -1.98102)
(0.137494 1.00849 0.122762)
(-3.11088 -0.705942 -0.041949)
(-3.51025 -1.3746 1.86989)
(-3.31883 -0.299846 0.663355)
(-2.27662 0.289152 0.114244)
(-1.91208 -0.17937 0.292291)
(-1.99454 0.312912 0.0689731)
(-1.87565 1.26371 -0.382597)
(-1.71206 0.366727 -0.43936)
(-1.31413 0.49284 -0.583175)
(-1.88982 0.954893 -0.143066)
(-1.05529 0.895332 -1.02127)
(-1.37955 0.729078 -0.0975146)
(-0.258128 0.739014 -0.732181)
(0.150022 1.75045 -1.2961)
(-0.537598 1.18606 -0.601958)
(-0.10738 0.791014 -1.40259)
(-0.0222734 0.271879 -1.23834)
(-0.428661 -0.0428315 -1.40711)
(-0.111666 0.0814394 -2.59389)
(0.316618 0.98361 -1.84367)
(0.120082 1.01882 0.119439)
(-3.27955 -1.63088 0.457182)
(-3.74452 -1.71411 1.8727)
(-3.07061 -1.05576 -0.014522)
(-3.19927 -1.34208 1.7752)
(-3.47775 -1.5231 1.84991)
(-3.3426 -0.587985 0.637134)
(-2.52225 1.24322 -0.66484)
(-2.78462 -0.051035 0.570987)
(-2.1113 -0.43848 0.123912)
(-2.08699 0.4053 -0.107644)
(-2.0597 1.18046 -0.348818)
(-1.90005 1.15069 0.115148)
(-1.65673 0.404227 -0.159746)
(-1.50376 0.508508 -0.514057)
(-1.94146 0.852762 -0.272138)
(-1.16418 0.57182 -1.04787)
(-1.05202 0.773081 -0.901588)
(-1.23479 0.59672 -0.333192)
(-0.235437 0.968629 -1.02536)
(0.0890979 1.88929 -1.14497)
(-0.599443 1.14123 -0.551742)
(-0.47428 0.879941 -1.43458)
(-0.108578 0.782021 -1.37957)
(-0.0172024 0.297876 -1.30654)
(-0.409909 -0.0634253 -1.30123)
(-0.0912182 0.206016 -2.59519)
(0.256718 1.1377 -1.70743)
(0.0500393 1.06917 0.101829)
(-3.14862 -1.4544 0.161855)
(-3.7655 -1.17567 0.524378)
(-3.08281 -2.37422 0.0723311)
(-4.03289 -1.13154 1.62914)
(-3.47877 0.520807 2.06657)
(-2.99941 -1.58849 0.252876)
(-2.56472 -0.303163 1.84316)
(-3.25402 -1.26945 1.64819)
(-3.19151 -1.15819 1.81356)
(-3.14787 0.917924 1.10398)
(-3.1237 0.80923 -0.0735698)
(-2.64592 1.17868 -0.773446)
(-3.01546 1.0044 0.0194145)
(-2.06372 -0.275309 -0.290093)
(-2.1502 0.17421 0.149333)
(-2.13248 0.972987 -0.287157)
(-2.09135 1.09377 -0.373402)
(-1.87878 1.04247 0.397489)
(-1.55685 0.432599 -0.078851)
(-1.56263 0.856246 -0.624299)
(-1.99131 0.669675 -0.291944)
(-0.638591 1.13933 -0.713765)
(-1.12025 0.647022 -1.05484)
(-1.03497 0.617252 -0.716934)
(-1.19526 0.56484 -0.459624)
(-0.166483 1.19373 -1.39612)
(0.0177853 1.98682 -0.997494)
(-0.63624 1.08096 -0.49821)
(-0.121456 0.281606 -0.628727)
(-0.44439 0.860347 -1.5245)
(-0.107398 0.783221 -1.36268)
(-0.020112 0.36234 -1.36705)
(-0.36582 -0.00879768 -1.29212)
(-0.102209 0.360098 -2.58251)
(0.185368 1.28321 -1.56859)
(0.0965554 1.10043 0.0950873)
(-2.98346 -1.4333 -0.0354067)
(-3.21129 -0.811521 0.390933)
(-2.99068 -1.54917 0.0520086)
(-3.3866 -0.210989 1.02131)
(-3.62183 -0.890046 1.09643)
(-2.86862 -2.49838 0.0742522)
(-3.47766 -1.10592 2.16769)
(-3.62162 -0.380402 1.5663)
(-3.18278 -0.20467 1.74159)
(-2.88066 -2.16705 0.41544)
(-2.5486 -0.023921 2.16598)
(-2.83018 -0.144758 1.84171)
(-3.29016 -0.787039 1.63768)
(-3.15625 0.5015 0.880529)
(-3.52005 -0.197402 0.771843)
(-3.09369 1.06925 -0.464754)
(-3.28554 0.718509 -0.15185)
(-2.95506 0.588478 -0.640507)
(-3.15084 -0.299403 -0.504289)
(-2.23884 -0.759894 0.143501)
(-2.09255 0.655322 0.0212793)
(-1.80378 0.590421 -0.264997)
(-2.11193 0.698472 -0.352334)
(-2.1504 0.963428 -0.326273)
(-1.88797 0.955445 0.390843)
(-1.60553 0.392718 -0.0206542)
(-1.80061 0.431313 -0.481362)
(-2.07649 0.596439 -0.36352)
(-0.313362 0.569504 -0.240661)
(-0.622463 1.0074 -0.5649)
(-1.11265 0.715018 -1.00127)
(-1.00437 0.473915 -0.439539)
(-1.10658 0.596134 -0.56121)
(-0.195707 1.29616 -1.5479)
(-0.0548057 2.04307 -0.867446)
(-0.650752 1.01762 -0.443126)
(0.0539318 0.175869 -0.394397)
(-0.0980889 0.374831 -0.618665)
(-0.423805 0.826603 -1.53867)
(-0.10853 0.793661 -1.35479)
(-0.0355463 0.424808 -1.423)
(-0.343858 0.0471993 -1.34553)
(-0.146186 0.540153 -2.55923)
(0.108242 1.40703 -1.43059)
(0.0347658 1.11218 0.0842836)
(-2.59155 -1.34233 0.178099)
(-3.4725 -0.608494 0.194621)
(-2.93676 -1.56956 0.010168)
(-3.28058 -0.574673 0.24006)
(-3.03481 -1.22991 0.211809)
(-2.69013 -1.78908 0.0271653)
(-3.65718 -0.31563 0.719796)
(-3.45223 0.0489603 1.25837)
(-3.66923 -1.00852 1.05403)
(-2.68606 -2.69578 0.0712443)
(-3.58848 -0.685029 2.43524)
(-3.5486 -0.602717 2.14438)
(-3.266 0.0312809 1.66898)
(-3.16399 0.195811 1.52096)
(-3.11029 -2.58543 0.581942)
(-2.92957 -1.15224 2.04601)
(-2.71436 0.140003 2.21037)
(-2.89007 -0.323004 1.90435)
(-3.24995 -0.150491 1.71476)
(-3.18298 0.436372 0.702335)
(-3.51779 -0.444275 0.648248)
(-3.42984 0.852216 0.00617403)
(-3.44113 0.472695 -0.142505)
(-3.29149 0.543529 -0.171852)
(-3.00973 0.373889 -0.495308)
(-3.05493 -0.0653132 -0.636638)
(-2.03293 -0.271609 -0.741638)
(-2.38669 0.269412 0.1862)
(-1.87988 0.243814 -0.148654)
(-1.83972 0.414381 -0.206973)
(-2.07927 0.704492 -0.477911)
(-2.21244 0.777813 -0.304983)
(-1.91374 0.847155 0.265661)
(-1.63343 0.418827 -0.0621066)
(-1.78863 0.549937 -0.462883)
(-2.1723 0.70155 -0.526356)
(-0.561281 0.417398 -0.0391301)
(-0.291117 0.585617 -0.229385)
(-0.605623 0.922219 -0.394008)
(-1.09907 0.768719 -0.86893)
(-0.94887 0.439938 -0.0256084)
(-0.988019 0.668012 -0.570622)
(-0.176307 1.37211 -1.59696)
(-0.162849 2.10974 -0.714005)
(-0.645138 0.958733 -0.395998)
(-0.0177658 0.148545 -0.569584)
(0.060395 0.20729 -0.416095)
(-0.0753488 0.459215 -0.618012)
(-0.405367 0.761296 -1.49654)
(-0.1265 0.83035 -1.35689)
(-0.0524303 0.500385 -1.46485)
(-0.338937 0.135054 -1.41654)
(-0.197861 0.712379 -2.52918)
(0.0383735 1.50158 -1.30033)
(-0.0707191 1.11411 0.0317884)
(-2.34702 -1.19168 -0.0761731)
(-3.10967 -0.779696 -0.276127)
(-2.5495 -1.44582 -0.0451125)
(-3.36103 -0.0340135 0.333244)
(-3.41234 -0.6092 0.187066)
(-2.82075 -1.66929 0.00214807)
(-3.50085 -0.438993 0.654567)
(-3.33808 -0.853811 0.277636)
(-2.92715 -1.37585 0.224287)
(-2.54263 -1.9051 -0.0383524)
(-3.98688 -0.48593 0.860755)
(-3.64451 -0.318805 0.887612)
(-3.56164 -0.765557 1.04609)
(-3.8204 -0.900915 1.1638)
(-1.88331 -3.51521 -0.316313)
(-4.06128 -1.02711 2.08696)
(-3.61038 -1.10867 2.37994)
(-3.58629 0.127827 2.07987)
(-3.3747 0.155214 1.57421)
(-3.30473 -0.504391 1.59731)
(-3.43865 -2.60118 0.571306)
(-3.38498 0.357789 2.12642)
(-3.31615 -0.92389 2.03552)
(-3.0853 -0.400574 1.8116)
(-2.88575 0.138673 1.06307)
(-3.36486 0.0814257 1.26764)
(-3.02607 0.404888 0.561153)
(-3.53401 -0.921289 0.533604)
(-3.73401 0.185535 0.354079)
(-3.30703 -0.156789 0.834414)
(-3.36339 0.126695 -0.0443429)
(-3.31205 0.421566 -0.199923)
(-2.94736 0.479614 -0.402397)
(-3.03855 -0.438255 -0.387955)
(-2.26942 -0.180529 -0.973535)
(-2.41187 0.0348754 0.27155)
(-2.03427 -0.172651 0.0353785)
(-1.90379 0.0630804 -0.217369)
(-1.85011 0.176146 -0.18939)
(-2.16579 0.661394 -0.464395)
(-2.24893 0.647625 -0.252099)
(-1.89471 0.713405 0.0658733)
(-1.67364 0.437522 -0.0542072)
(-1.91004 0.515786 -0.433036)
(-2.30419 0.549601 -0.495584)
(-0.618472 0.141228 0.170411)
(-0.565648 0.48377 -0.0901859)
(-0.291478 0.593507 -0.211911)
(-0.58967 0.879222 -0.304869)
(-1.07384 0.689895 -0.738451)
(-0.931695 0.5059 0.0476255)
(-0.883225 0.715138 -0.507235)
(-0.16162 1.45067 -1.5995)
(-0.243906 2.1284 -0.648254)
(-0.62178 0.904404 -0.352481)
(-0.22653 0.0911958 -0.765829)
(-0.0211864 0.138314 -0.57928)
(0.0645235 0.2408 -0.440475)
(-0.0656659 0.529421 -0.619944)
(-0.369424 0.694366 -1.42744)
(-0.13049 0.86529 -1.39108)
(-0.0750562 0.578624 -1.48969)
(-0.342361 0.239381 -1.49081)
(-0.261469 0.867652 -2.4834)
(-0.0343695 1.59247 -1.15741)
(0.0884741 1.09631 0.0860376)
(-2.19613 -1.00138 0.066073)
(-2.72412 -0.705684 0.121626)
(-2.28446 -1.3046 -0.0822991)
(-3.27077 -0.42971 0.217393)
(-3.03777 -0.867449 -0.0512839)
(-2.46585 -1.53741 -0.0528156)
(-3.39236 -0.15212 0.427893)
(-3.16236 -0.728968 0.28452)
(-3.31177 -0.648594 0.326526)
(-2.54519 -2.01015 0.0381285)
(-3.5262 -0.515356 0.764366)
(-3.35586 -0.810941 0.568374)
(-3.36554 -1.21235 0.235249)
(-2.80651 -1.55087 0.110823)
(-2.42256 -1.97241 -0.0180905)
(-4.18955 -0.643812 0.967089)
(-3.90791 -0.578015 0.950328)
(-3.84485 -0.351413 0.967053)
(-3.87767 -0.446897 1.20182)
(-3.88534 -1.43149 1.21818)
(-1.60799 -3.78723 -0.312975)
(-4.23302 -0.555765 2.05585)
(-3.98804 -1.25145 2.05318)
(-3.80065 -0.882897 2.2712)
(-3.49475 0.0802911 1.79553)
(-3.39029 -0.825721 1.22252)
(-3.30565 -1.72223 1.28788)
(-3.50323 -2.66001 0.617512)
(-3.68298 0.0526589 2.26487)
(-3.41791 -1.0109 2.18581)
(-3.38842 -0.782242 1.90811)
(-3.11319 -0.417506 1.62115)
(-2.98664 0.221199 0.728753)
(-3.29503 -0.0638909 0.915303)
(-3.21059 0.121378 0.510322)
(-3.99586 -0.327171 0.709719)
(-3.71812 -0.134308 0.429204)
(-3.67412 -0.094138 0.538042)
(-3.44549 0.418647 -0.564885)
(-3.5048 0.158812 -0.0360553)
(-3.36823 0.243474 -0.200607)
(-2.89105 0.144399 -0.375748)
(-2.94304 -0.572109 -0.456235)
(-2.32602 -0.244959 -0.836406)
(-2.38809 -0.0880438 0.292459)
(-2.26468 -0.197779 0.0251831)
(-2.08557 -0.190027 0.0211371)
(-1.94251 -0.0722306 -0.193105)
(-1.91143 0.0797482 -0.242716)
(-2.19219 0.60509 -0.428346)
(-2.25429 0.527338 -0.0517716)
(-1.82578 0.44498 -0.285024)
(-1.76159 0.383032 0.00264159)
(-1.967 0.353046 -0.39168)
(-2.34083 0.550349 -0.48483)
(-0.794511 -0.0142343 0.0364223)
(-0.647331 0.123047 0.163764)
(-0.580332 0.528806 -0.139749)
(-0.300475 0.589659 -0.179558)
(-0.565499 0.838557 -0.272392)
(-1.04931 0.560841 -0.546623)
(-0.94117 0.671169 -0.0244628)
(-0.78541 0.722248 -0.477368)
(-0.176841 1.54154 -1.57956)
(-0.312267 2.11064 -0.680571)
(-0.608661 0.884854 -0.342348)
(-0.284384 -0.0559571 -0.882321)
(-0.234005 0.0888462 -0.802543)
(-0.0241536 0.134166 -0.585958)
(0.0686199 0.275179 -0.469175)
(-0.0646528 0.566862 -0.627174)
(-0.3402 0.623222 -1.34673)
(-0.142953 0.890126 -1.42863)
(-0.0985587 0.657937 -1.49698)
(-0.360591 0.353149 -1.55403)
(-0.343514 1.03098 -2.40861)
(-0.0988905 1.66759 -1.02624)
(-0.014519 1.06955 0.0448355)
(-1.93517 -1.16206 -0.0925591)
(-2.60194 -0.59083 -0.016521)
(-2.14419 -1.10605 0.0985523)
(-2.89359 -0.577426 0.0730298)
(-2.62772 -0.950033 0.0565905)
(-2.26141 -1.29638 -0.0789494)
(-3.19551 -0.396356 0.199713)
(-3.17881 -0.824059 0.214872)
(-3.03098 -0.990263 0.0683268)
(-2.2998 -1.70746 -0.00330551)
(-3.3333 -0.238806 0.589192)
(-3.25922 -0.438983 0.402551)
(-3.14104 -0.913039 0.312849)
(-2.94594 -1.48095 0.228713)
(-2.45057 -2.17294 0.0818888)
(-3.55097 -0.850244 0.811326)
(-3.37664 -0.886423 0.65551)
(-3.31303 -0.994241 0.4695)
(-3.4281 -0.932273 0.243781)
(-2.81688 -1.73142 -0.109468)
(-2.06146 -2.25472 0.0459062)
(-4.13933 -0.644057 0.935618)
(-4.08444 -0.677661 0.947579)
(-3.84319 -0.52607 1.2276)
(-3.93926 -0.863765 1.13287)
(-3.74346 -1.54558 1.32278)
(-3.54807 -2.34651 1.20981)
(-1.47592 -3.62393 -0.179724)
(-4.15609 0.0103359 2.36577)
(-4.27593 -0.891805 1.99192)
(-3.93616 -1.70115 1.81647)
(-3.83162 -0.597742 2.23159)
(-3.41842 -0.963846 1.38199)
(-3.74225 0.24159 2.15287)
(-3.10478 -2.30873 1.78692)
(-3.61247 -2.79065 0.743591)
(-4.06801 -0.4241 2.17723)
(-3.67672 -0.250279 2.27301)
(-3.642 -0.478447 2.2934)
(-3.40117 -0.778721 2.21856)
(-3.14837 0.0306581 1.51989)
(-3.01471 -0.118886 0.560937)
(-3.15648 -0.4057 0.896926)
(-3.35924 -0.327656 0.434683)
(-3.71749 -1.68819 0.45513)
(-3.7819 -0.231847 0.636422)
(-3.72753 -0.433932 0.627206)
(-3.73673 -0.33777 0.605447)
(-3.46414 -0.197241 0.743622)
(-3.58424 -0.139422 0.0344581)
(-3.29928 0.245088 -0.317207)
(-2.89758 -0.0445732 -0.420763)
(-2.79347 -0.715833 -0.597981)
(-2.2899 -0.208061 -0.926828)
(-2.55918 -0.27099 0.295216)
(-2.21952 -0.432172 0.457931)
(-2.23323 -0.511518 0.158269)
(-2.10819 -0.289623 0.00025779)
(-1.94997 -0.220849 -0.251572)
(-1.90057 0.14883 -0.435343)
(-2.1654 0.665178 -0.474834)
(-2.22671 0.314525 0.233378)
(-1.7819 0.328234 -0.472245)
(-1.83476 0.327865 -0.0440321)
(-1.96367 0.315709 -0.375116)
(-2.49841 0.668376 -0.524797)
(-1.06207 -0.360739 0.456719)
(-0.813359 -0.0565275 -0.0396445)
(-0.654149 0.121003 0.131433)
(-0.581158 0.538647 -0.162632)
(-0.317531 0.586403 -0.13466)
(-0.56297 0.791833 -0.23484)
(-1.0217 0.564112 -0.274218)
(-0.960973 0.816202 -0.237963)
(-0.687181 0.73144 -0.509355)
(-0.201324 1.63548 -1.53553)
(-0.338836 2.07755 -0.760234)
(-0.598406 0.893704 -0.339073)
(-0.274011 -0.145393 -0.705123)
(-0.288909 -0.06955 -0.896617)
(-0.241029 0.0806317 -0.837402)
(-0.0283517 0.135318 -0.587209)
(0.0703018 0.309115 -0.499799)
(-0.0556577 0.580398 -0.63874)
(-0.297062 0.576982 -1.27503)
(-0.152937 0.917892 -1.4285)
(-0.121989 0.737099 -1.49399)
(-0.388738 0.471062 -1.59792)
(-0.433337 1.17582 -2.31983)
(-0.164677 1.70929 -0.94376)
(0.0470051 1.00693 0.0134154)
(-2.01076 -0.616237 0.00941332)
(-2.30919 -0.653895 0.0035204)
(-1.88051 -1.25693 -0.0822738)
(-2.55933 -0.515535 0.0546938)
(-2.56026 -0.724204 -0.0423581)
(-2.1021 -1.15651 0.151975)
(-2.87757 -0.504446 0.228669)
(-2.91279 -0.545389 0.117006)
(-2.56784 -1.07055 -0.00401475)
(-2.08107 -1.56242 -0.000337887)
(-3.1894 -0.513129 0.361496)
(-3.224 -0.625335 0.24857)
(-3.10882 -0.895202 0.188121)
(-3.13769 -0.768587 -0.0045736)
(-2.20176 -1.83961 0.0235083)
(-3.38358 -0.161677 0.72755)
(-3.2111 -0.61113 0.645438)
(-3.0846 -1.0171 0.500468)
(-3.00521 -1.1703 0.308793)
(-2.72698 -1.84586 0.177748)
(-2.27505 -2.31166 0.115695)
(-3.64465 -0.138251 1.06815)
(-3.36137 -1.02427 0.859565)
(-3.36415 -1.14377 0.608209)
(-3.38716 -1.11485 0.451354)
(-3.30188 -1.24201 0.337585)
(-2.77143 -1.91668 -0.17182)
(-1.74967 -2.45175 0.0460849)
(-4.04425 -0.726566 1.06716)
(-3.99976 -0.917363 0.876335)
(-4.08016 -0.410707 0.955217)
(-3.98947 -0.502399 1.45166)
(-3.99654 -1.06044 1.27563)
(-3.87857 -1.57214 1.2107)
(-3.12351 -2.59337 0.989063)
(-1.5202 -3.26326 -0.155109)
(-3.984 -0.638055 2.21703)
(-4.25951 -0.688077 2.05047)
(-4.28726 -1.07836 1.94819)
(-3.95263 -1.37203 2.27389)
(-3.75265 -0.798104 2.07631)
(-3.66178 0.172381 2.04608)
(-3.41391 -2.22683 1.47031)
(-4.00802 -1.51352 0.877377)
(-4.07995 -2.58348 0.811854)
(-4.17459 -0.633618 1.98792)
(-4.09381 -0.322867 2.23558)
(-3.70228 -0.994545 2.10542)
(-3.28361 -2.3832 2.25504)
(-3.85577 -0.441259 1.37129)
(-3.11458 -0.351524 1.04589)
(-2.8829 -0.400514 0.653771)
(-3.17851 -0.77499 0.775833)
(-3.2112 -0.70686 0.431437)
(-3.66978 -1.81227 0.418912)
(-3.66636 -0.111598 0.867775)
(-3.81894 -0.28692 0.659841)
(-3.76197 -0.61217 0.782469)
(-3.68544 -0.54313 0.617191)
(-3.57288 -0.300903 0.447479)
(-3.54616 -0.0800826 0.0122939)
(-3.25706 -0.134244 -0.310622)
(-2.89203 -0.126469 -0.46078)
(-2.84543 -0.691124 -0.641916)
(-2.58308 -0.108049 -1.0443)
(-2.67707 -0.661783 0.362629)
(-2.35244 -0.549263 0.134001)
(-2.21251 -0.536688 0.454109)
(-2.27772 -0.197186 0.0689966)
(-2.14551 -0.274425 -0.0320433)
(-1.93743 -0.323645 -0.338645)
(-1.93195 -0.231931 -0.179293)
(-2.2526 0.445036 -0.278512)
(-2.15073 0.110228 0.25059)
(-1.80062 0.38064 -0.512094)
(-1.91727 0.230868 -0.03425)
(-2.01491 0.27004 -0.417292)
(-2.70368 0.556953 -0.512048)
(-1.32431 -0.205862 0.475679)
(-1.06282 -0.481722 0.426907)
(-0.826713 -0.100243 -0.106167)
(-0.67179 0.119818 0.111495)
(-0.579705 0.497913 -0.153779)
(-0.327525 0.584208 -0.0976493)
(-0.53773 0.782784 -0.15199)
(-1.01388 0.602754 -0.213782)
(-0.96026 0.892048 -0.462923)
(-0.604653 0.763446 -0.558833)
(-0.241853 1.74668 -1.44481)
(-0.386647 2.0548 -0.817826)
(-0.591143 0.914528 -0.333347)
(-0.518664 -0.366066 0.0392863)
(-0.260251 -0.150443 -0.724532)
(-0.294993 -0.0935938 -0.906897)
(-0.247144 0.0644834 -0.871837)
(-0.0328912 0.143904 -0.585173)
(0.0690729 0.342757 -0.527717)
(-0.0470511 0.595417 -0.647373)
(-0.262127 0.552232 -1.22059)
(-0.16981 0.965537 -1.37902)
(-0.148694 0.809338 -1.49395)
(-0.426427 0.588123 -1.61956)
(-0.504089 1.27846 -2.23522)
(-0.251825 1.77593 -0.857973)
(0.101119 0.979157 0.0326025)
(-1.64142 -0.858768 0.109155)
(-2.23585 -0.524271 -0.169963)
(-1.90988 -0.807052 0.0137839)
(-2.29241 -0.672105 -0.162463)
(-2.33272 -0.789576 -0.0100124)
(-1.80165 -1.34336 -0.0600482)
(-2.5652 -0.500354 0.142051)
(-2.55051 -0.599808 0.0386595)
(-2.49427 -0.934864 -0.0403183)
(-2.02859 -1.27955 0.197177)
(-2.84532 -0.645976 0.320815)
(-2.78291 -0.71406 0.177894)
(-2.73474 -0.8838 0.0951379)
(-2.49222 -1.34832 0.00583147)
(-1.9775 -1.69843 0.0349991)
(-3.20632 -0.635522 0.532203)
(-3.18325 -0.795665 0.403193)
(-3.21457 -0.735748 0.23444)
(-3.00731 -0.963168 0.114114)
(-2.94862 -1.08728 -0.0386021)
(-1.94369 -2.12811 0.0358091)
(-3.28007 -0.631607 0.907989)
(-3.15502 -1.06116 0.750419)
(-3.06833 -1.09827 0.663569)
(-3.01379 -1.16276 0.555398)
(-2.92034 -1.38767 0.263513)
(-2.6026 -2.01303 0.170642)
(-2.19428 -2.29492 0.124974)
(-3.60594 -0.618656 0.996666)
(-3.48799 -1.13097 0.918619)
(-3.43186 -1.00238 0.945189)
(-3.46049 -1.2109 0.590801)
(-3.32316 -1.45639 0.443563)
(-3.24653 -1.45227 0.372739)
(-2.52427 -2.07878 -0.0438897)
(-1.33652 -2.68295 0.0474796)
(-4.10156 -0.517436 1.14624)
(-4.08478 -1.03649 1.0086)
(-3.96361 -1.11461 0.823341)
(-4.03914 -0.686173 1.0158)
(-4.16119 -0.782749 1.41005)
(-4.07442 -1.34783 1.41974)
(-3.75458 -2.23937 0.989047)
(-2.97109 -2.50893 0.795747)
(-1.56356 -3.04832 0.256631)
(-4.04366 0.120671 2.25779)
(-4.25375 -0.800696 1.84681)
(-4.27122 -1.48714 1.73975)
(-4.33325 -1.60468 1.77756)
(-4.04964 -1.55724 2.06893)
(-3.78126 -0.937872 1.93709)
(-3.64039 -1.78269 1.27555)
(-3.72373 -1.42844 1.13476)
(-3.95467 -2.07432 1.16481)
(-3.54516 -3.41548 0.489695)
(-4.25425 -0.843033 1.81304)
(-4.18765 -0.715517 2.05165)
(-4.15607 -0.849362 2.2486)
(-3.90467 -0.90321 2.25242)
(-4.11816 -1.36848 1.8531)
(-3.38807 -0.899052 2.0544)
(-2.914 -0.681893 1.13426)
(-3.00294 -0.460939 0.305414)
(-3.16996 -0.986801 0.673788)
(-3.13355 -1.03735 0.475071)
(-3.65252 -2.20448 0.412513)
(-3.73511 -0.511342 0.778131)
(-3.82583 -0.14266 0.800505)
(-3.81053 -0.528447 0.690648)
(-3.75834 -0.851858 0.918026)
(-3.66001 -0.587802 0.704368)
(-3.58506 -0.421071 0.289246)
(-3.50248 -0.399994 -0.0789448)
(-3.24096 -0.202416 -0.151567)
(-2.8293 -0.14862 -0.493526)
(-2.91688 -0.538702 -0.859381)
(-2.66311 -0.547266 -0.704098)
(-2.49923 -1.22195 0.41465)
(-2.48377 -0.760289 0.213724)
(-2.38023 -0.723939 0.142596)
(-2.21655 -0.579914 0.455421)
(-2.1634 -0.564366 0.402659)
(-2.17735 -0.27289 -0.0276878)
(-1.94805 -0.357655 -0.388088)
(-1.88368 0.134597 -0.724356)
(-2.24026 0.479163 0.0416204)
(-2.04658 -0.0199736 0.0513956)
(-1.85597 0.440955 -0.529715)
(-1.96597 0.38124 -0.160375)
(-2.02731 0.120355 -0.47251)
(-2.73763 0.456268 -0.480844)
(-1.58707 -0.123606 0.77281)
(-1.35221 -0.280427 0.456169)
(-1.06427 -0.584904 0.410569)
(-0.833157 -0.147986 -0.159755)
(-0.689535 0.121304 0.0868294)
(-0.560267 0.430166 -0.136206)
(-0.340721 0.578482 -0.0584699)
(-0.538828 0.808262 -0.141973)
(-1.03323 0.72002 -0.159397)
(-0.907533 0.842689 -0.464445)
(-0.545688 0.833586 -0.638757)
(-0.297907 1.83663 -1.38787)
(-0.430581 2.03804 -0.85366)
(-0.575689 0.941612 -0.32666)
(-0.649138 -0.268469 -0.162428)
(-0.505266 -0.397555 0.0498339)
(-0.246483 -0.151787 -0.741509)
(-0.302608 -0.108049 -0.912467)
(-0.253921 0.053882 -0.903796)
(-0.0403058 0.15461 -0.591298)
(0.065331 0.372474 -0.55275)
(-0.0355133 0.600184 -0.655493)
(-0.24183 0.552362 -1.19177)
(-0.177 1.00811 -1.31578)
(-0.179714 0.879756 -1.49135)
(-0.480588 0.691996 -1.61418)
(-0.553274 1.34302 -2.16137)
(-0.309683 1.81162 -0.805997)
(0.0710351 0.998055 0.0123879)
(-1.48203 -0.675869 0.144474)
(-2.01212 -0.655212 0.0218689)
(-1.58013 -0.966469 0.0846398)
(-2.03283 -0.673505 0.0900215)
(-2.17238 -0.616414 -0.194937)
(-1.93171 -0.791749 0.0341518)
(-2.28741 -0.752797 0.214157)
(-2.2832 -0.809497 -0.181117)
(-2.34478 -0.803951 -0.0107059)
(-1.71404 -1.45 -0.041756)
(-2.56802 -0.720929 0.369531)
(-2.52392 -0.599885 0.194461)
(-2.55858 -0.801599 0.0295514)
(-2.44995 -1.03514 -0.0290665)
(-1.91609 -1.48333 0.193874)
(-2.86071 -0.706249 0.454715)
(-2.82322 -0.793377 0.331879)
(-2.733 -0.882507 0.154739)
(-2.69301 -1.04122 0.135809)
(-2.54037 -1.50269 0.0660968)
(-1.8135 -1.86047 0.0577789)
(-3.15649 -0.504819 0.720056)
(-3.21211 -0.737474 0.533022)
(-3.17082 -0.859654 0.41881)
(-2.99047 -1.22165 0.168227)
(-2.80174 -1.43568 0.142744)
(-2.578 -1.73747 0.0991392)
(-1.84256 -2.27244 0.0826739)
(-3.38209 -0.366729 0.954922)
(-3.29797 -0.73853 0.870339)
(-3.1545 -1.09772 0.760522)
(-2.99245 -1.20265 0.672202)
(-2.95592 -1.2477 0.573325)
(-2.88504 -1.56619 0.255844)
(-2.54538 -2.12638 0.196214)
(-1.84136 -2.46186 0.143258)
(-3.56517 -0.652274 1.03787)
(-3.49423 -0.945756 0.93873)
(-3.41551 -1.38894 0.89292)
(-3.50954 -1.30953 0.803395)
(-3.49556 -1.35783 0.573894)
(-3.29996 -1.59057 0.409316)
(-2.98793 -1.75224 0.432578)
(-2.29771 -2.25412 0.219504)
(-1.11819 -2.81876 0.101801)
(-4.14399 -0.737844 1.05829)
(-4.0646 -1.1559 0.997377)
(-4.08999 -1.20601 0.963629)
(-4.02752 -1.1767 0.907354)
(-4.06263 -0.945043 1.13167)
(-4.15217 -1.4429 1.25742)
(-4.09184 -2.07338 1.21607)
(-3.59594 -2.31398 1.04783)
(-2.96168 -2.66644 0.580756)
(-1.60371 -3.01942 0.32626)
(-4.20575 -0.214165 1.93669)
(-4.23371 -0.913346 1.81473)
(-4.41171 -0.781614 1.72198)
(-4.32942 -1.69729 1.59829)
(-4.27415 -1.85057 1.69303)
(-4.12073 -1.54069 1.89368)
(-3.82442 -1.41057 1.78803)
(-3.56936 -1.83198 1.26133)
(-4.3893 -0.717733 1.2666)
(-4.19635 -1.95361 1.43302)
(-3.39496 -3.66912 0.484653)
(-4.43929 -0.191289 1.7441)
(-4.36406 -0.765149 1.88167)
(-4.23325 -0.806261 2.09754)
(-4.11936 -1.11569 2.2302)
(-4.08063 -1.38182 2.02496)
(-3.72836 -1.70801 2.16456)
(-3.7675 -0.776394 1.51079)
(-2.87698 -0.983549 1.14455)
(-3.00059 -0.968584 0.390411)
(-2.9031 -1.16832 0.665335)
(-2.96338 -1.78959 0.645726)
(-3.62921 -2.65678 0.540549)
(-3.80219 -0.607961 0.68449)
(-3.65925 -0.839579 0.702477)
(-3.79907 -0.564803 0.969641)
(-3.84246 -0.48867 0.87226)
(-3.74503 -1.0541 0.918379)
(-3.6526 -0.938409 0.664589)
(-3.56905 -0.486417 0.602424)
(-3.44591 -0.344013 0.13387)
(-3.16424 -0.302853 -0.0378689)
(-2.74749 -0.377493 -0.574987)
(-2.85654 -0.715663 -0.778888)
(-2.62074 -0.677902 -0.59247)
(-2.42804 -1.62013 0.397114)
(-2.66587 -0.599638 0.447516)
(-2.49642 -0.862346 0.200077)
(-2.44311 -0.749535 0.168307)
(-2.21152 -0.690086 0.433416)
(-2.14209 -0.662071 0.300688)
(-2.1781 -0.358516 0.0124792)
(-1.95299 -0.435509 -0.3269)
(-2.05319 -0.2531 -0.21027)
(-2.27659 0.340427 -0.0122289)
(-2.0389 -0.0225379 -0.00712402)
(-1.8472 0.380317 -0.529998)
(-2.03203 0.180249 0.091741)
(-1.99886 0.0161761 -0.532025)
(-2.76211 0.150668 -0.410334)
(-1.82381 -0.036665 0.687529)
(-1.66001 -0.193913 0.639909)
(-1.36886 -0.368489 0.442017)
(-1.0176 -0.750966 0.333756)
(-0.835963 -0.17672 -0.206273)
(-0.712064 0.114896 0.0643607)
(-0.536619 0.354834 -0.114198)
(-0.348167 0.567189 -0.0165379)
(-0.527706 0.773749 -0.0502513)
(-1.04608 0.882079 -0.196575)
(-0.783342 0.735214 -0.385398)
(-0.501107 0.904738 -0.74928)
(-0.338331 1.9013 -1.35238)
(-0.469356 2.01544 -0.887257)
(-0.569013 0.953892 -0.318397)
(-0.763106 -0.186772 0.119116)
(-0.639835 -0.324161 -0.134069)
(-0.480757 -0.431779 0.061235)
(-0.233728 -0.153721 -0.755063)
(-0.307298 -0.11779 -0.914605)
(-0.262659 0.0666692 -0.932922)
(-0.0456704 0.167979 -0.613375)
(0.0624225 0.392792 -0.564518)
(-0.0239041 0.601256 -0.652307)
(-0.235378 0.56607 -1.17409)
(-0.17465 1.02416 -1.26855)
(-0.214034 0.937863 -1.48655)
(-0.539806 0.781452 -1.58653)
(-0.596157 1.39159 -2.09412)
(-0.371241 1.81497 -0.701451)
(0.0358214 1.02295 -0.0287394)
(-1.21211 -0.977564 0.0343449)
(-1.75514 -0.701577 0.0153439)
(-1.33969 -0.942075 0.0730767)
(-1.88131 -0.861748 0.246144)
(-2.00047 -0.67428 0.0256752)
(-1.58322 -1.04609 0.150372)
(-2.02357 -0.91573 0.133811)
(-2.04172 -0.741207 -0.0146604)
(-2.17096 -0.651445 -0.202113)
(-1.7855 -1.0609 0.0498869)
(-2.31443 -0.822942 0.395964)
(-2.26857 -0.973992 0.240969)
(-2.20313 -1.06675 -0.191013)
(-2.21658 -1.01458 0.00774414)
(-1.66563 -1.58217 -0.0199169)
(-2.62796 -0.638215 0.470147)
(-2.54364 -0.80029 0.430489)
(-2.49152 -0.888489 0.224814)
(-2.54068 -0.984943 0.0800496)
(-2.38624 -1.14406 0.00151298)
(-1.69393 -1.79709 0.111518)
(-2.90261 -0.662008 0.481681)
(-2.82076 -0.938432 0.436286)
(-2.7219 -1.09579 0.354225)
(-2.65795 -1.18538 0.176447)
(-2.62772 -1.30929 0.0856593)
(-2.5433 -1.50832 0.0443563)
(-1.69399 -1.94561 0.0672374)
(-3.11499 -0.517125 0.831736)
(-3.07068 -0.908035 0.661723)
(-3.10727 -0.848358 0.592978)
(-2.98317 -1.17454 0.482701)
(-2.93515 -1.30761 0.236396)
(-2.71156 -1.58164 0.0818677)
(-2.45928 -1.84933 0.0606489)
(-1.53283 -2.42425 0.0243765)
(-3.32318 -0.587318 1.01557)
(-3.20177 -0.953888 0.919859)
(-3.23883 -0.897303 0.868991)
(-3.04096 -1.19634 0.798103)
(-2.91514 -1.3539 0.62602)
(-2.82506 -1.35852 0.599417)
(-2.82606 -1.62404 0.228115)
(-2.39521 -2.34074 0.199383)
(-1.61672 -2.62207 0.0842565)
(-3.575 -0.595279 1.01407)
(-3.48484 -0.895458 0.984652)
(-3.48248 -1.08929 0.914653)
(-3.38115 -1.53446 0.864165)
(-3.51006 -1.50924 0.730479)
(-3.53005 -1.55326 0.574664)
(-3.29771 -1.58765 0.498548)
(-2.81222 -1.85264 0.516948)
(-2.28187 -2.23796 0.317558)
(-0.793985 -3.01556 0.140108)
(-4.17554 -0.852624 1.20035)
(-4.24466 -0.725424 1.13694)
(-4.02336 -1.33159 0.938877)
(-3.9685 -1.34771 0.983006)
(-4.03476 -1.18898 1.09006)
(-4.06733 -1.44497 1.06607)
(-4.10521 -2.07608 1.03688)
(-3.93672 -2.29714 1.13395)
(-3.73306 -2.28769 1.05744)
(-2.77236 -3.11088 0.405221)
(-1.72475 -2.95132 0.37857)
(-4.44713 0.921046 1.91755)
(-4.30805 -0.727192 1.87973)
(-4.19834 -0.622852 1.98259)
(-4.2845 -1.31083 1.92277)
(-4.16558 -2.31312 1.46867)
(-4.34822 -1.67132 1.75621)
(-4.14846 -1.56064 2.04945)
(-3.69868 -2.09042 1.62996)
(-3.5904 -1.84809 1.42521)
(-3.95585 -2.35849 1.57861)
(-3.66527 -3.1085 0.894318)
(-3.2756 -3.91063 0.114987)
(-4.47275 -0.0130666 1.47371)
(-4.26625 -0.665245 1.79917)
(-4.34493 -0.980094 2.03677)
(-4.15548 -1.20565 2.16916)
(-4.14601 -1.24198 2.12532)
(-3.91599 -1.91923 1.95925)
(-3.88719 -2.00338 1.96615)
(-3.53199 -1.2035 1.29135)
(-2.74652 -1.52103 0.96714)
(-2.84238 -1.26417 0.834452)
(-2.87445 -1.34723 0.614996)
(-3.13717 -1.99371 0.493167)
(-2.96781 -3.51534 0.284749)
(-3.63436 -0.149451 0.507263)
(-3.75475 -0.852576 0.635562)
(-3.72983 -0.842796 0.862249)
(-3.73787 -0.867234 1.22414)
(-3.88765 -0.646025 0.868702)
(-3.80474 -1.04882 0.839588)
(-3.62607 -1.02176 0.597237)
(-3.62482 -0.94563 0.790221)
(-3.46468 -0.327832 0.233226)
(-3.02342 -0.706938 -0.198755)
(-2.73988 -0.551682 -0.563689)
(-2.85213 -0.836727 -0.688319)
(-3.02344 -0.479413 -0.759784)
(-2.60811 -1.91558 0.393605)
(-2.89015 -0.458199 0.443797)
(-2.67841 -0.745234 0.400478)
(-2.48966 -0.966479 0.140446)
(-2.44465 -0.833939 0.196198)
(-2.23934 -0.726966 0.446718)
(-2.10184 -0.631364 0.326551)
(-2.13407 -0.434246 -0.0326788)
(-1.89117 -0.514865 -0.310387)
(-1.9588 -0.390516 -0.0717807)
(-2.28141 0.276102 -0.0952985)
(-2.1112 0.111032 -0.0760777)
(-1.77443 0.237009 -0.532759)
(-2.01791 0.158161 -0.174575)
(-1.9633 -0.0300733 -0.547459)
(-2.64283 -0.194578 -0.334204)
(-2.01363 -0.0451348 0.673297)
(-1.81654 -0.329368 0.60656)
(-1.64839 -0.288667 0.609896)
(-1.39316 -0.431162 0.397733)
(-1.01737 -0.771631 0.327575)
(-0.843715 -0.197416 -0.240197)
(-0.725185 0.106413 0.0485851)
(-0.507185 0.290684 -0.0980098)
(-0.354674 0.557442 0.024917)
(-0.481754 0.699367 0.0967515)
(-0.993286 0.883889 -0.192308)
(-0.670251 0.691308 -0.318595)
(-0.449566 0.957122 -0.839067)
(-0.359987 1.92908 -1.38556)
(-0.503362 1.98504 -0.910552)
(-0.559914 0.938602 -0.308881)
(-0.307649 -0.19926 0.0214784)
(-0.763502 -0.224833 0.0840463)
(-0.630265 -0.378432 -0.111845)
(-0.468899 -0.448967 0.0682511)
(-0.220029 -0.152098 -0.76583)
(-0.310724 -0.153739 -0.911227)
(-0.272942 0.0713339 -0.960636)
(-0.0537681 0.17745 -0.649442)
(0.0564247 0.407914 -0.549554)
(-0.0133582 0.59725 -0.643463)
(-0.231862 0.586187 -1.14866)
(-0.155207 1.01239 -1.26362)
(-0.240692 0.975985 -1.49631)
(-0.605118 0.860635 -1.553)
(-0.635106 1.43325 -2.03546)
(-0.306043 1.77164 -0.723243)
(0.0213424 1.02618 -0.0519982)
(-1.18028 -0.907 -0.0454103)
(-1.46338 -0.990233 0.0599984)
(-1.19725 -0.994077 -0.0166382)
(-1.6175 -1.06365 0.411944)
(-1.70566 -0.784358 0.0844597)
(-1.35913 -0.965016 0.0159682)
(-1.86449 -0.957293 0.449508)
(-1.79411 -1.13293 0.270702)
(-2.03056 -0.693714 0.0531867)
(-1.52852 -1.23765 0.205054)
(-2.06619 -0.894567 0.397225)
(-2.07518 -0.942625 0.126337)
(-1.95505 -1.02139 -0.0021561)
(-2.07994 -0.815269 -0.103678)
(-1.7014 -1.28769 0.027008)
(-2.39876 -0.728344 0.495074)
(-2.29309 -0.898545 0.464896)
(-2.06507 -1.418 0.321839)
(-2.17705 -1.18639 -0.0450525)
(-2.17913 -1.11372 0.024351)