/*--------------------------------*- C++ -*----------------------------------*\
  =========                 |
  \\      /  F ield         | OpenFOAM: The Open Source CFD Toolbox
   \\    /   O peration     | Website:  https://openfoam.org
    \\  /    A nd           | Version:  7
     \\/     M anipulation  |
\*---------------------------------------------------------------------------*/
FoamFile
{
    version     2.0;
    format      ascii;
    class       volScalarField;
    location    "7.5";
    object      nut;
}
// * * * * * * * * * * * * * * * * * * * * * * * * * * * * * * * * * * * * * //

dimensions      [0 2 -1 0 0 0 0];

internalField   nonuniform List<scalar> 
150000
(
0.00107251
0.0014476
0.000888676
0.00120876
0.00128828
0.00112276
0.00156126
0.00102243
0.00148135
0.00118005
0.00117162
0.000920022
0.00115399
0.00124295
0.00139683
0.00113744
0.00336506
0.00129689
0.00163688
0.000720684
0.000482168
0.00180154
0.00129007
0.00153894
0.00105457
0.000963922
0.00119489
0.000931521
0.000998109
0.00108439
0.00207789
0.00149105
0.00120012
0.00149274
0.00137048
0.000797943
0.00087789
0.00104854
0.00119244
0.00156142
0.000719117
0.000675683
0.000342794
0.000279486
0.00168378
0.00124514
0.00172319
0.000915556
0.00104911
0.00105216
0.000480845
0.00112546
0.000835968
0.000831866
0.000827098
0.00320366
0.00252314
0.00334773
0.00257985
0.00153134
0.00134994
0.000840023
0.000348056
0.00154212
0.00128925
0.00105614
0.000845495
0.000688785
0.00149492
0.00240342
0.00136639
0.00138559
0.0010876
0.000821547
0.000426284
0.000346668
0.000453502
0.000387982
0.000944774
0.00103229
0.0017861
0.00122425
0.0010719
0.000817537
0.000455909
0.000289713
0.000460166
0.00115082
0.000769507
0.00067422
0.00056103
0.00248108
0.00238095
0.000991418
0.00286694
0.00278211
0.00188985
0.00249332
0.00206381
0.00316915
0.00144206
0.000755285
0.00111289
0.000568101
0.00103115
0.00138266
0.00141088
0.0010015
0.00139394
0.00080496
0.000541927
0.000659967
0.000854025
0.00018297
0.000511229
0.000600279
0.0012647
0.00132503
0.000765172
0.000463041
0.000358977
0.00020896
0.00032872
0.000493782
0.000297307
0.00078592
0.000942805
0.00173894
0.00150266
0.00120841
0.000888066
0.000494563
0.00036027
0.000185635
0.00024242
0.000293856
0.00117223
0.000763199
0.000524173
0.000391509
0.0028773
0.00294986
0.00130905
0.00297237
0.00211213
0.000736332
0.000592354
0.00205266
0.00265176
0.0031182
0.00205786
0.00221422
0.000621738
0.00214996
0.00247107
0.00290588
0.00146201
0.00086342
0.000834121
0.00117263
0.000610801
0.00111444
0.00059826
0.00191638
0.00127817
0.00103956
0.000960694
0.000792516
0.000485863
0.000561197
0.00067527
0.000810539
0.00120006
0.00143847
0.00403864
0.000826215
0.00113135
0.00146446
0.000625681
0.000362745
0.000274415
0.000262838
0.000218334
0.000243172
0.000357635
0.000513267
0.0003753
0.000575702
0.000774832
0.00160226
0.00170788
0.00112336
0.000927298
0.000484878
0.000384267
0.000169669
0.000187167
0.000209575
0.000309471
0.000205143
0.00113538
0.000689023
0.000424522
0.000272593
0.0024893
0.00275453
0.00174039
0.00280653
0.00278183
0.000610403
0.000756253
0.00143862
0.00294719
0.00237147
0.0011461
0.00136014
0.00163924
0.00116173
0.00142656
0.00292912
0.00308883
0.00213415
0.000966955
0.00238795
0.00122168
0.00193004
0.00143806
0.00127253
0.00311608
0.00136678
0.000773705
0.000614845
0.000976731
0.000496743
0.00111244
0.000782348
0.000898746
0.000770558
0.00157808
0.00201676
0.00100249
0.000823954
0.000890559
0.000472498
0.000611309
0.000674037
0.000439655
0.000746452
0.000891962
0.00109754
0.000838225
0.000869574
0.000809831
0.000989134
0.00149689
0.000597946
0.00035517
0.000281468
0.000361118
0.000213029
0.000306273
0.000229401
0.000304594
0.000403061
0.00052955
0.000349164
0.000626049
0.000601496
0.00139247
0.001743
0.000814335
0.000924678
0.000465559
0.000382092
0.000156774
0.000188525
0.000150415
0.000172622
0.000195212
0.000353177
0.000157322
0.00105027
0.000980921
0.000408496
0.000347893
0.00238824
0.00262171
0.00135962
0.00262583
0.0028707
0.00140867
0.000961085
0.00214662
0.00317849
0.00278168
0.00133786
0.000789976
0.000679652
0.00112116
0.000342078
0.00293943
0.00238249
0.000424533
0.00139793
0.000988055
0.000628465
0.000616092
0.00159865
0.00138841
0.00254698
0.003091
0.00128103
0.00135231
0.0011097
0.000952592
0.000906145
0.00105625
0.00147785
0.00124184
0.000722296
0.00289001
0.00140512
0.000859032
0.000747491
0.000720342
0.000504614
0.00113718
0.000752835
0.00118358
0.000775813
0.000502545
0.00107892
0.00117369
0.00165606
0.001193
0.000763688
0.000733411
0.000390176
0.000667039
0.000524881
0.00050583
0.000528713
0.000440195
0.000765296
0.000793898
0.000984447
0.000821991
0.0013948
0.00091069
0.000893512
0.00131182
0.000598327
0.00032537
0.000338651
0.000359315
0.000212109
0.000318982
0.000292683
0.000337116
0.000233508
0.000276161
0.000450495
0.00053671
0.000689199
0.00063356
0.000479094
0.00112358
0.00157727
0.000762829
0.000865404
0.000439813
0.000344547
0.000148684
0.000186676
0.000146541
0.000238626
0.00013037
0.000177735
0.000188809
0.000364757
7.46512e-05
0.000891816
0.000846377
0.000316935
0.000343402
0.00243156
0.0024283
0.0013125
0.00265263
0.00279874
0.00123955
0.00095908
0.000817363
0.00258573
0.00357937
0.000792456
0.000947058
0.000806465
0.00101917
0.00117961
0.00311825
0.00283985
0.000700916
0.000676512
0.00100415
0.00100846
0.000813191
0.00148028
0.000703133
0.00303474
0.00226325
0.00106802
0.00147536
0.00116492
0.0005429
0.000535155
0.000865354
0.000599368
0.00107059
0.000873967
0.00259378
0.00333189
0.00175522
0.00103756
0.000916153
0.00103071
0.000469483
0.000605988
0.000989923
0.00102098
0.00125602
0.00107516
0.000718429
0.00295143
0.00152317
0.000790992
0.000812413
0.000538154
0.000640088
0.00113062
0.000929986
0.00107064
0.000870354
0.000788034
0.000479827
0.00104371
0.00101187
0.000912773
0.0013115
0.00121369
0.000760307
0.000768334
0.000349949
0.000639461
0.000459817
0.000328791
0.000555827
0.00025895
0.000516984
0.000462439
0.00073013
0.000761467
0.000817254
0.000723473
0.00175344
0.000833693
0.000785243
0.000999113
0.000650991
0.000312907
0.000397943
0.000320482
0.0002107
0.000306
0.000314804
0.000293474
0.000329645
0.000340373
0.000198331
0.000317925
0.000498905
0.000573755
0.00102398
0.000684917
0.000474419
0.000801291
0.00134889
0.000734631
0.000724509
0.000409004
0.000291195
0.000146294
0.000186437
0.000160057
0.000229608
0.000357602
0.000255534
0.000162751
0.000206706
0.000270295
0.000344077
0.000159123
0.000685402
0.000404049
0.000369751
0.000348026
0.0028057
0.00246933
0.000695789
0.0027457
0.00236771
0.00112275
0.000610493
0.000697173
0.00272019
0.00245785
0.000726341
0.00131496
0.000621844
0.000985332
0.00110711
0.00260036
0.00315565
0.000589865
0.00111381
0.000687079
0.000808061
0.000899454
0.00120629
0.00114188
0.00298629
0.00254564
0.00164251
0.000633554
0.00109662
0.000992423
0.000778673
0.000895673
0.00121592
0.000707321
0.00128691
0.00303228
0.00262411
0.00193089
0.00111859
0.000977268
0.000769927
0.000620952
0.000610217
0.000680365
0.000707469
0.00134357
0.000879922
0.000729093
0.00274606
0.00357804
0.00096393
0.000874972
0.000766121
0.00168875
0.000739884
0.00102144
0.000911406
0.000220308
0.000978238
0.00124113
0.000951067
0.000796708
0.00116251
0.00278953
0.00196108
0.000677043
0.000561266
0.000455063
0.000511193
0.000928791
0.000806973
0.000653757
0.000697398
0.000979868
0.000948397
0.000762859
0.000493285
0.000506014
0.000846963
0.000972086
0.00134674
0.00112806
0.000652047
0.000782074
0.000252276
0.000696112
0.000513615
0.000335222
0.00066648
0.000449471
0.000241795
0.000410238
0.00054392
0.000578573
0.000641788
0.000632554
0.000790594
0.000612327
0.001138
0.00050017
0.000726663
0.00084399
0.000779181
0.000357251
0.000442479
0.00034393
0.000225647
0.000291803
0.000320241
0.000304328
0.000353928
0.000287789
0.000314409
0.000354024
0.000165154
0.000311235
0.000584021
0.000689799
0.0009512
0.00070349
0.000517761
0.000450529
0.00106592
0.000681494
0.000372242
0.000372806
0.000269134
0.000145247
0.00018117
0.000172138
0.000213438
0.000274556
0.000256307
0.000439137
0.000225829
0.000244883
0.000222444
0.000351385
0.00028077
0.000134841
0.000697561
0.000347541
0.000484004
0.000496327
0.00238355
0.00266574
0.000690607
0.00283044
0.00235037
0.00091976
0.000517318
0.000750547
0.00292898
0.00254016
0.000683319
0.000572311
0.000515113
0.00132754
0.000580774
0.00268995
0.00222629
0.00087579
0.0013708
0.00100766
0.000760664
0.000739866
0.000891281
0.00103674
0.00269686
0.00284881
0.00113471
0.00105024
0.000879108
0.000577255
0.000574163
0.000952832
0.000948134
0.00127017
0.00150324
0.00269371
0.00263228
0.0022174
0.000752478
0.000856809
0.000698133
0.000664282
0.000977567
0.000942806
0.00102164
0.000820028
0.000942464
0.00129877
0.00309792
0.00275773
0.000332011
0.00141504
0.000579699
0.000595361
0.000567779
0.00048893
0.000897229
0.000839661
0.000632302
0.000817006
0.00101891
0.000869445
0.000732675
0.00282692
0.00385993
0.000769368
0.00059203
0.000919687
0.000930756
0.00129121
0.000874425
0.00140679
0.000163967
0.000887734
0.000882644
0.00100207
0.00103996
0.00140894
0.000664283
0.000731642
0.00267726
0.00248941
0.000906573
0.00045195
0.000580325
0.000478792
0.000753286
0.000384567
0.000578387
0.000495939
0.00110147
0.00106426
0.000670613
0.00074979
0.000776552
0.000592807
0.00102543
0.000880683
0.000639194
0.00140599
0.00108634
0.000682348
0.000602087
0.000223529
0.000751643
0.000584651
0.000432692
0.000773487
0.000122695
0.000354068
0.000655178
0.000211242
0.000367504
0.000471556
0.000598394
0.00055605
0.000395941
0.000817663
0.000774426
0.00103723
0.00103803
0.000716952
0.00078418
0.00073749
0.000426189
0.000485144
0.000328185
0.00020862
0.000309288
0.000366632
0.000261916
0.000252534
0.000349644
0.000285781
0.000239504
0.000266531
0.000317301
0.000191146
0.000240154
0.000683243
0.000834927
0.00079681
0.000658822
0.000542806
0.000368794
0.000747031
0.000534708
0.000230084
0.000342853
0.000296489
0.000129742
0.000184377
0.000229577
0.000205215
0.000251515
0.000269963
0.000533837
0.000319181
0.000344762
0.000228581
0.000159766
0.000244562
0.000385658
0.000181499
0.000148267
0.00053917
0.000284225
0.00029478
0.000572833
0.00207653
0.00243875
0.000584822
0.00273191
0.00261804
0.000722031
0.00056416
0.000577985
0.00284225
0.0022585
0.00104225
0.000760231
0.000464481
0.000130391
0.000550317
0.00300533
0.00239244
0.000466963
0.00106203
0.000471051
0.000383111
0.00085159
0.000694884
0.0005781
0.0027626
0.00272671
0.00134196
0.000831945
0.000970983
0.000690975
0.000843846
0.000810112
0.00112467
0.000781
0.000808585
0.00283083
0.00285461
0.00148748
0.000280169
0.000512137
0.000549873
0.000936701
0.000974488
0.000406149
0.00105534
0.000985098
0.000996457
0.00148276
0.00263171
0.00259643
0.00124769
0.00115128
0.000789303
0.000660531
0.000482178
0.000773396
0.000791278
0.000878732
0.000855133
0.000734099
0.00131825
0.00124839
0.000808051
0.0029698
0.00269551
0.000947046
0.000633781
0.000770128
0.00172092
0.00064662
0.000540663
0.00033456
0.000209767
0.000219475
0.000503938
0.000601896
0.00198306
0.000539551
0.000421107
0.000753309
0.0030943
0.00347857
0.00146492
0.000486435
0.000848055
0.000701951
0.000859
0.000203202
0.000204299
0.000521353
0.000463562
0.000609765
0.000789779
0.000686707
0.00092604
0.000728829
0.00131434
0.000929404
0.00102006
0.00278462
0.00214996
0.000585417
0.000460486
0.000307127
0.000697614
0.000934085
0.00064469
0.00145926
0.000620108
0.000623805
0.000138057
0.00118501
0.000826982
0.000769372
0.000472581
0.000491622
0.000619301
0.00112833
0.0017456
0.00062358
0.00221452
0.00109744
0.000674306
0.000492266
0.000386246
0.000786386
0.000696272
0.000469773
0.00076259
0.000482334
0.000607788
0.000542908
9.17523e-05
0.000345438
0.000334956
0.0005727
0.000517645
0.000627434
0.000544845
0.000505128
0.000735309
0.000890043
0.000777391
0.00112975
0.000758012
0.000748648
0.000724735
0.000407302
0.000501449
0.000344151
0.000193298
0.000356394
0.000506858
0.000301922
0.000236335
0.000516931
0.000605756
0.000321597
0.000356977
0.000301821
0.000259318
0.000226664
0.000203165
0.00024462
0.000793053
0.000969096
0.000806434
0.000570676
0.000593426
0.000444054
0.000466153
0.000326105
0.000258188
0.000319496
0.000333535
0.00012712
0.000177118
0.000190358
0.000194598
0.000192242
0.000268552
0.00029204
0.000492723
0.000734588
0.000294215
0.000279461
0.000210582
0.00015211
0.000261354
0.000381949
0.000240398
0.00017263
0.000219281
0.000313427
0.000439201
0.000329932
0.00235783
0.00238344
0.000487357
0.00230418
0.00243742
0.000598513
0.000403519
0.000518806
0.00252721
0.00251027
0.000633935
0.000402289
0.000579146
0.000803582
0.000519639
0.00281312
0.00212157
0.000724379
0.000658307
0.000629971
0.000393317
0.000312468
0.00130018
0.000786341
0.00286913
0.00255288
0.000807349
0.000527301
0.000571518
0.000458831
0.000608404
0.000553171
0.000780376
0.000480144
0.000615716
0.00271488
0.003118
0.000908653
0.000710087
0.000864047
0.000609516
0.000848152
0.000496333
0.000713512
0.000859724
0.00091343
0.000759902
0.0010696
0.00262785
0.0029491
0.000852903
0.000419238
0.00076669
0.000584328
0.000666277
0.000705628
0.000498931
0.000484286
0.00100602
0.00119766
0.000922371
0.00142268
0.00127118
0.00277639
0.00277699
0.000714581
0.00118042
0.000698631
0.000681998
0.000611082
0.000715747
0.000637791
0.00100446
0.000861148
0.00113031
0.000591336
0.00045219
0.00127159
0.000586036
0.00100379
0.00283087
0.00280001
0.00112536
0.00078035
0.00127586
0.00188058
0.000940888
0.000481979
0.000328543
0.000487738
0.000344955
0.000196235
0.000930084
0.000331002
0.000785784
0.000590709
0.000892733
0.000684928
0.000896159
0.00300346
0.00294908
0.000701684
0.000689966
0.000932399
0.000841944
0.000559731
0.000510395
0.000488828
0.000594671
0.000817761
0.000593881
0.000610929
0.000281298
0.000947096
0.000922644
0.000724669
0.000962066
0.000686306
0.00138753
0.000941259
0.00306975
0.00221578
0.0008574
0.000289836
0.000773539
0.000795921
0.00105911
0.000965729
0.00120006
0.00059479
0.000189565
0.000340763
0.000545825
0.000636348
0.000750535
0.000782158
0.000637045
0.000432473
0.000640918
0.000912588
0.00101068
0.00106054
0.000778267
0.00234252
0.00122517
0.000426386
0.000513784
0.000578804
0.000842831
0.000722652
0.000356293
0.0003781
0.00056289
0.000273395
0.000200778
0.000204704
0.000161821
0.000258543
0.000621568
0.000488447
0.000543277
0.000433044
0.000850595
0.000532311
0.000419994
0.000609783
0.000816377
0.000552238
0.00106006
0.000811527
0.000774719
0.000620564
0.000459272
0.000479985
0.000379869
0.0002141
0.000372012
0.000424399
0.000363718
0.000252959
0.000207043
0.000376079
0.000369847
0.000754893
0.000322283
0.000216955
0.000281947
0.000231233
0.000198114
0.000217318
0.000253796
0.000847386
0.00108612
0.00098499
0.000406532
0.000678385
0.00043974
0.000354775
0.000261788
0.000299149
0.000307623
0.000342081
0.000145651
0.000159368
0.000157738
0.000173258
0.000239014
0.000272155
0.000283408
0.000512263
0.00016775
0.00044334
0.000397999
0.000361304
0.000201254
0.000172698
0.000167906
0.000264784
0.000318237
0.000343284
0.000142012
0.000197902
0.00038271
0.000565903
0.000244241
0.00228203
0.00220872
0.000428487
0.00234501
0.00221463
0.000761038
0.00060755
0.000648563
0.00214567
0.00263718
0.000513495
0.00068173
0.000319764
0.000455485
0.000589517
0.00262012
0.00251809
0.000882556
0.00063905
0.000362721
0.000308739
0.000478177
0.000315653
0.000547911
0.00268901
0.00221338
0.000625346
0.000428533
0.000603614
0.000583296
0.000604432
0.000344124
0.00082679
0.000576013
0.000589996
0.00280808
0.00239
0.000741077
0.000371103
0.000651775
0.000594555
0.000480937
0.000510336
0.000240216
0.000981585
0.000410942
0.000732595
0.000659088
0.00264816
0.00281133
0.00108651
0.00140181
0.00084397
0.000730282
0.000696039
0.000840069
0.000682129
0.000801965
0.000841097
0.000690895
0.000430103
0.00080337
0.000866167
0.00270299
0.00276996
0.00115491
0.00128805
0.00101341
0.000725119
0.000428851
0.000577126
0.000353018
0.000558072
0.00115172
0.00028106
0.00102439
0.00110977
0.00123323
0.00111066
0.00100367
0.00270725
0.00286217
0.00122796
0.000676277
0.000636472
0.000968609
0.000529414
0.000834908
0.000811987
0.000800032
0.00111246
0.000627454
0.00130664
0.000825103
0.00129518
0.0015846
0.000802112
0.000913158
0.00134905
0.00265014
0.00247077
0.000512668
0.000530176
0.00127956
0.000819226
0.0011265
0.000953616
0.000567292
0.000293289
0.000413454
0.000714109
0.000691499
0.00031173
0.000560261
0.000499353
0.000791284
0.00136893
0.000444903
0.000713488
0.000882565
0.00287934
0.00291569
0.0005285
0.000734591
0.00114043
0.000690352
0.00110489
0.000647756
0.000396735
0.000431351
0.000315353
0.000669503
0.000277254
0.000354471
0.000428232
0.00036379
0.0005356
0.000715673
0.000870074
0.00263789
0.00151419
0.00101395
0.00101995
0.00279342
0.00225482
0.000718664
0.000311983
0.000860104
0.000960332
0.00127373
0.000894133
0.000547292
0.000464707
0.000512791
0.000738696
0.000148226
0.000313028
0.000866527
0.00056407
0.00056694
0.000595008
0.000683715
0.000598887
0.000529689
0.000695877
0.00132206
0.00104592
0.000962079
0.00219006
0.00139473
0.000287575
0.00055955
0.000665362
0.000800579
0.000714377
0.000352711
0.000777916
0.000794314
0.000327905
0.000276669
0.000252253
0.000170984
0.000190849
0.000282248
0.000367108
0.00036463
0.000408635
0.00062617
0.000657709
0.00086818
0.000595431
0.000391232
0.000520005
0.000966481
0.000723383
0.0010392
0.000846151
0.00077362
0.000488237
0.000508482
0.000480674
0.000293949
0.000249219
0.000564714
0.000375632
0.000185535
0.000312294
0.000203795
0.000392065
0.000383621
0.000260259
0.000423869
0.000432083
0.000316006
0.000210858
0.00024315
0.000258137
0.000172753
0.000228305
0.000284476
0.00083326
0.00119292
0.000995005
0.000213075
0.00069273
0.000461012
0.000330111
0.000271133
0.000309349
0.000311569
0.000323881
0.0001642
0.000142638
0.00016027
0.000170934
0.000190902
0.000274271
0.000269748
0.000506215
0.000193671
0.00013595
0.000205214
0.000363328
0.000388164
0.000399355
0.000190806
0.000179473
0.000166942
0.000253706
0.000255904
0.000382025
0.00013948
0.000430727
0.000220036
0.000277796
0.000683659
0.00213119
0.00224281
0.000497275
0.00229218
0.00225213
0.000585774
0.00049697
0.00054494
0.00247255
0.00230316
0.000505375
0.000614276
0.000282356
0.000410219
0.000435376
0.00217672
0.00262105
0.00067218
0.000408152
0.000406291
0.000295719
0.000423474
0.000851259
0.000847952
0.00256447
0.00248017
0.000701295
0.000362456
0.000398115
0.00034126
0.000346474
0.000558382
0.000472524
0.000885619
0.00106632
0.00247289
0.00217174
0.000450878
0.00035356
0.000514652
0.000438346
0.000251056
0.000268129
0.000447359
0.000780608
0.000563588
0.000200287
0.0010448
0.00282895
0.00243525
0.000819318
0.000392363
0.000392622
0.000512311
0.000427299
0.000572012
0.000496655
0.000316437
0.000728936
0.000753145
0.000589759
0.000498182
0.000389496
0.00270983
0.00271838
0.00132606
0.000991822
0.000666771
0.000607386
0.000673949
0.000895797
0.000735452
0.000458155
0.00065239
0.00092687
0.000837169
0.000546031
0.000733062
0.000809202
0.00104525
0.00260521
0.00247944
0.00122743
0.00133926
0.000961599
0.000667816
0.000576324
0.000634133
0.000915647
0.000511687
0.000460321
0.000902389
0.000648761
0.000943203
0.000934794
0.00072647
0.000906228
0.000531491
0.00104507
0.00277301
0.00282213
0.000692082
0.000169696
0.000833296
0.00072448
0.000662004
0.000692565
0.00090315
0.000842647
0.000694747
0.000691454
0.000998979
0.00100383
0.000950742
0.000777414
0.00110003
0.000939708
0.000949063
0.00117007
0.00125188
0.00259687
0.0025626
0.000604373
0.00125433
0.000776792
0.00107063
0.00112491
0.000749952
0.000610815
0.00047046
0.000582956
0.000588474
0.000696869
0.000360498
0.000268117
0.000302156
0.00084554
0.000664985
0.000504551
0.00130369
0.000728417
0.00060929
0.00108586
0.00270738
0.00336132
0.000783401
0.00127918
0.000496664
0.000836644
0.000615917
0.000676167
0.000371676
0.000458741
0.000130213
0.000873014
0.000285532
0.000759113
0.000651491
0.00029951
0.000433971
0.000350873
0.000399673
0.00117334
0.00119435
0.000919225
0.00104378
0.000757167
0.00122978
0.00284422
0.00215599
0.000711529
0.000339227
0.000598509
0.00139616
0.00131059
0.000941036
0.00125747
0.00190692
0.000340605
0.000242025
0.000287286
0.000330733
0.000309739
0.000529425
0.000612622
0.000837266
0.000704336
0.000440232
0.000959233
0.000572753
0.000592086
0.00117384
0.00119409
0.00132919
0.00136876
0.00212459
0.00161342
0.000501113
0.000803457
0.000656413
0.000718072
0.000724194
0.000262046
0.000898252
0.000798276
0.000430274
0.000284086
0.000201063
0.000159617
0.000267741
0.000219324
0.000306876
0.00044573
0.000188668
0.000317008
0.000339982
0.000632958
0.000646307
0.000477753
0.000556746
0.000482388
0.000506545
0.00101044
0.000849111
0.0010104
0.000855177
0.000702807
0.000845266
0.000427495
0.000489558
0.000215796
0.000291609
0.000793756
0.000324539
0.000203541
0.00026437
0.00062609
0.000415282
0.000356939
0.000281286
0.000239969
0.000324831
0.000483165
0.000392675
0.00024133
0.000194004
0.000270063
0.000245826
0.000250725
0.00021702
0.000322747
0.000710075
0.00117799
0.000797351
0.000367718
0.00066574
0.000481435
0.000298313
0.000236403
0.000308694
0.000333666
0.000304777
0.000167776
0.000113526
0.000155776
0.000171566
0.000191573
0.000278304
0.0002714
0.000469295
0.000141775
6.62172e-05
0.000141802
0.000183025
0.000263306
0.000479545
0.00048281
0.000419983
0.000167857
0.000169657
0.000175325
0.000161507
0.000317698
0.000405194
0.000160387
3.71e-05
0.000171725
0.000304597
0.000709232
0.00211101
0.00222951
0.000384704
0.00225008
0.0022777
0.00031399
0.000162445
0.000320453
0.00239295
0.0022114
0.000439866
0.000409123
0.000301325
0.000471174
0.000497147
0.00239519
0.00238442
0.000588167
0.000550845
0.000527152
0.000570858
0.000549077
0.000683188
0.000455556
0.00220692
0.00255456
0.000946328
0.000127136
0.000475629
0.000473182
0.000299771
0.00060907
0.000750805
0.000856326
0.000933838
0.00232725
0.0023724
0.000281731
0.000529208
0.000486538
0.000434767
0.000202868
0.000456566
0.00067805
0.000657095
0.000582886
0.00084306
0.00059002
0.00259669
0.00220922
0.000424789
0.00047975
0.000436051
0.000336825
0.000494768
0.000549243
0.000355982
0.000319359
0.000285539
0.000706436
0.000205201
0.000473093
0.000924415
0.00280909
0.0025604
0.000855018
0.000578672
0.000892873
0.000493789
0.000526805
0.000538403
0.000484399
0.000581169
0.000598012
0.000651807
0.00077273
0.000356576
0.000718363
0.000583023
0.000572997
0.00274651
0.00280378
0.000823102
0.000688672
0.000786021
0.000552025
0.00067583
0.000521255
0.000601974
0.000520899
0.000497424
0.000756318
0.00099054
0.000684148
0.00078127
0.000779851
0.000942592
0.000588277
0.000922454
0.00245528
0.00273207
0.00199476
0.000491606
0.00068331
0.000765246
0.00099484
0.000628624
0.000709453
0.000887884
0.000787514
0.000559697
0.000609467
0.000704005
0.000590137
0.000938925
0.00122127
0.000979669
0.000857555
0.00119093
0.000969662
0.00278948
0.0027848
0.000603846
0.000760328
0.000511852
0.000918035
0.000460665
0.000762048
0.000637875
0.000902202
0.000938115
0.000765131
0.00062784
0.000991221
0.000580155
0.00124815
0.000710305
0.00132284
0.0004889
0.000796861
0.00113759
0.00145582
0.00112298
0.00288698
0.00252104
0.00101378
0.00102397
0.000941595
0.00111562
0.000991709
0.000606906
0.000349399
0.000372278
0.000449612
0.000533137
0.000518665
0.00119142
0.000505948
0.000597842
0.000239832
0.00080107
0.00106479
0.000830651
0.00131222
0.00144332
0.000589681
0.000566764
0.00110963
0.0030415
0.00259116
0.00111093
0.000509186
0.00108479
0.000897712
0.000667005
0.0010197
0.000591455
0.000448126
0.000619974
0.000357682
0.000702518
0.00106198
0.000670095
0.000551079
0.000518808
0.000431822
0.000383825
0.000366809
0.000862777
0.000619819
0.000287519
0.00227252
0.00135328
0.000398465
0.00127655
0.0029439
0.00242806
0.000973068
0.000345796
0.000691122
0.00207367
0.00116519
0.000786025
0.00158695
0.00049361
0.000766893
0.000274171
0.000277009
0.000374568
0.000363735
0.000586881
0.000386237
0.000509928
0.000650185
0.000851983
0.000592648
0.000352347
0.00104679
0.000644069
0.000973222
0.000562962
0.00129644
0.00109335
0.00107122
0.0019024
0.00174902
0.000616945
0.000801284
0.000430381
0.000631059
0.000764724
0.000265178
0.000702823
0.000568261
0.000312396
0.000180941
0.000248993
0.00023377
0.00028676
0.000281123
0.000246595
0.00063031
0.000424542
0.000395727
0.000269299
0.000365854
0.000356061
0.000480246
0.000682295
0.000483719
0.000587689
0.000522138
0.000499966
0.00105731
0.000571831
0.00106429
0.000828018
0.00069122
0.000601379
0.000348584
0.000581402
0.000177236
0.000301024
0.000676193
0.0003811
0.000279647
0.000225917
0.000167216
0.000378004
0.000338651
0.000287347
0.000259077
0.000187834
0.000272419
0.000348218
0.000496616
0.000339301
0.000292924
0.000219082
0.000251988
0.000230996
0.000202749
0.00019939
0.000358308
0.000492082
0.00117277
0.00125279
0.000460648
0.000714709
0.000495806
0.000267259
0.000196392
0.000297563
0.000292518
0.000298952
0.000174019
0.000119414
0.000204277
0.000161912
0.000206223
0.000286459
0.000273499
0.00045641
0.000194306
7.10358e-05
4.66648e-05
3.09304e-05
0.000220236
5.90885e-05
0.000282828
0.000617278
0.00057527
0.00059616
0.000194377
0.000146998
0.000178096
0.000179697
0.00038517
0.000405154
0.000153546
0.000130167
0.000390526
0.000525584
0.000186965
0.0020979
0.00206273
0.000426927
0.00222906
0.00218449
0.000373617
0.000399432
0.00053816
0.00232761
0.00221175
0.000448236
0.000382602
0.000567775
0.000552393
0.000603
0.00238413
0.00227159
0.000503407
0.000425954
0.000429395
0.000283735
0.000245516
0.000341692
0.00062003
0.00247041
0.00249323
0.000515566
0.000381344
0.000482057
0.000349661
0.000411954
0.000469905
0.00044643
0.000642278
0.0006202
0.00220304
0.00240899
0.000633938
0.000617217
0.000358865
0.000344771
0.000275984
0.000363508
0.000562957
0.000609416
0.000416526
0.000611685
0.00115614
0.00235282
0.00228128
0.000517907
0.000559897
0.000414653
0.000277478
0.000429179
0.000434821
0.00042024
0.000423002
0.000522599
0.000853278
0.000431578
0.000422397
0.00123577
0.00252135
0.00224278
0.000520369
0.000708902
0.000521592
0.000561237
0.000531102
0.000473404
0.000477069
0.00037253
0.000524917
0.000516362
0.000627916
0.000265746
0.000588214
0.000551348
0.00025314
0.00279844
0.00250603
0.000725519
0.000897529
8.29937e-05
0.000545163
0.000500045
0.000445962
0.000632222
0.00072256
0.000570757
0.000615044
0.000636403
0.00072573
0.000371234
0.000643862
0.000616605
0.000167289
0.000517015
0.00267491
0.0029714
0.00080305
0.000619807
0.000754301
0.000636397
0.000516264
0.000438748
0.000520991
0.000774813
0.00051033
0.000527181
0.000555701
0.000780009
0.000887202
0.00102094
0.000857624
0.000671799
0.000758092
0.000747093
0.000744418
0.0025776
0.00274364
0.00137323
0.000713756
0.000657255
0.000821473
0.00121965
0.000703228
0.000900334
0.000855236
0.000782256
0.000727388
0.000523456
0.000462246
0.000851637
0.000677254
0.000818949
0.00080439
0.000894861
0.00111462
0.00115691
0.00116128
0.00105428
0.00287878
0.00252817
0.0004031
0.000742997
0.000689325
0.000642465
0.000699925
0.000739661
0.000944698
0.00076982
0.000903421
0.00086025
0.000827971
0.000240726
0.000454781
0.000836606
0.00097879
0.000904112
0.000888971
0.000303586
0.000787934
0.00114563
0.00119192
0.00125528
0.00116506
0.00282201
0.00220498
0.000751835
0.000174918
0.00075049
0.000566069
0.00129206
0.000429526
0.000392443
0.000431585
0.000407978
0.000639525
0.000429071
0.000501624
0.000807995
0.000674773
0.000500845
0.00047384
0.000855402
0.000598387
0.000505209
0.00124465
0.00097261
0.000404653
0.000698063
0.000868398
0.00144997
0.00327068
0.00296828
0.0010417
0.000517535
0.000875549
0.00108932
0.00042158
0.000796494
0.000497324
0.000725566
0.000461551
0.000743914
0.000748275
0.000431847
0.000876962
0.000442496
0.000860643
0.000500666
0.000341884
0.000607477
0.000166354
0.000464238
0.00033921
0.000688498
0.0010356
0.00144258
0.00156892
0.00038529
0.000849894
0.00316119
0.00237596
0.000932547
0.00022503
0.00113429
0.00230014
0.000875293
0.000780086
0.000808115
0.0017245
0.000495091
0.000370134
0.00022114
0.000291657
0.000406561
0.000623884
0.00053084
0.000344611
0.000398758
0.000389012
0.000670771
0.000614243
0.000516318
0.000472707
0.000771902
0.00104147
0.000898443
0.00109244
0.00149343
0.00106637
0.00096872
0.00161303
0.00183736
0.00075059
0.000838537
0.00030359
0.000680948
0.000788701
0.000310494
0.00106288
0.000773639
0.000198445
0.000316798
0.000176179
0.00026131
0.000405504
0.000526775
0.000265611
0.000440014
0.000257237
0.000349521
0.000398058
0.000332821
0.000384493
0.000350227
0.00049317
0.000499355
0.000605526
0.000576171
0.00070844
0.00050689
0.000538677
0.000905116
0.00071813
0.000984447
0.000780668
0.000665899
0.000502217
0.000479945
0.000586221
0.000192358
0.000294681
0.000439169
0.000236113
0.000440176
0.000285441
0.000214588
0.00037446
0.000365755
0.000282583
0.000255062
0.000103433
0.000172047
0.000182506
0.000362567
0.000365425
0.000454136
0.00040926
0.000302864
0.000195458
0.00028826
0.000223636
0.000144112
0.000181708
0.000476446
0.000685048
0.00109654
0.00118028
0.000734361
0.000649201
0.000504428
0.000247975
0.000184829
0.000289856
0.000282006
0.000336314
0.00018568
0.000114363
0.000201306
0.000178477
0.00025966
0.000287181
0.000265846
0.000443371
0.000159232
0.000108596
3.78312e-05
0.000124698
0.000118764
4.74694e-05
3.46662e-05
5.99188e-05
0.000307257
0.00051405
0.000795626
0.000485799
0.000208273
0.000113417
0.000171545
0.000266954
0.000412739
0.000383479
0.00017961
0.000611103
0.000493217
0.000393724
0.000173537
0.00211104
0.00208803
0.000308323
0.00219869
0.00205798
0.000320756
0.000472334
0.000415269
0.00224423
0.0021315
0.000333382
0.000467704
0.000372977
0.000218794
0.000407738
0.00228608
0.00218359
0.000473834
0.000357784
0.000484238
0.000506776
0.000279036
0.000238127
0.000499364
0.00234599
0.00229354
0.000795734
0.000345329
0.000444046
0.000427608
0.000587363
0.000439451
0.00053564
0.000558389
0.000535398
0.00239697
0.0025172
0.000791945
0.000418138
0.000347696
0.000316976
0.000410993
0.000476606
0.00033842
0.000525764
0.000544005
0.00067308
0.000670276
0.00210555
0.0025284