/*--------------------------------*- C++ -*----------------------------------*\
  =========                 |
  \\      /  F ield         | OpenFOAM: The Open Source CFD Toolbox
   \\    /   O peration     | Website:  https://openfoam.org
    \\  /    A nd           | Version:  7
     \\/     M anipulation  |
\*---------------------------------------------------------------------------*/
FoamFile
{
    version     2.0;
    format      ascii;
    class       volScalarField;
    location    "7.5";
    object      p;
}
// * * * * * * * * * * * * * * * * * * * * * * * * * * * * * * * * * * * * * //

dimensions      [0 2 -2 0 0 0 0];

internalField   nonuniform List<scalar> 
150000
(
-61.9174
-63.8615
-61.8703
-63.3535
-62.0527
-62.123
-63.7221
-64.743
-64.0607
-61.9255
-63.2891
-66.0687
-63.4446
-62.2695
-61.1266
-62.3698
-59.9755
-61.9923
-63.759
-64.9091
-65.4007
-64.5503
-64.2061
-62.0966
-63.262
-66.1585
-65.737
-66.0048
-63.539
-62.518
-55.0313
-61.1532
-63.9019
-61.2219
-62.7756
-62.7375
-66.8141
-59.4846
-61.9719
-63.864
-65.0965
-65.5488
-65.4805
-65.2723
-64.3707
-64.3946
-62.4639
-63.3527
-66.2813
-65.8753
-64.0654
-65.6062
-65.9781
-63.619
-62.7647
-54.4806
-55.2358
-60.8351
-54.5981
-61.3408
-64.7706
-67.4533
-63.6397
-61.5613
-63.4357
-64.5864
-66.9897
-67.1243
-66.5466
-52.4744
-62.2393
-63.9857
-65.2138
-65.6841
-65.5762
-64.5948
-65.3639
-65.1157
-64.4056
-64.6461
-62.9891
-63.602
-66.4449
-66.015
-64.1203
-64.69
-64.0203
-65.4872
-65.9825
-63.693
-62.9889
-52.7841
-54.5225
-56.4061
-54.5662
-55.43
-60.6987
-60.3647
-60.2472
-54.839
-61.706
-65.3755
-67.1851
-67.5805
-67.2772
-63.4459
-62.1583
-64.1458
-65.4855
-67.0166
-67.5165
-66.7245
-66.7043
-66.3126
-59.3225
-62.4502
-64.1501
-65.4179
-65.8239
-65.6642
-64.618
-64.7837
-64.5564
-65.2201
-64.9182
-64.4002
-64.8304
-63.592
-63.909
-66.6265
-66.1402
-64.1775
-64.7023
-64.7177
-64.6765
-63.9849
-65.3936
-66.0131
-63.7772
-63.1858
-49.8026
-52.5779
-52.5588
-52.5131
-55.028
-56.3039
-55.5317
-56.1941
-54.0971
-55.6786
-60.6368
-59.8706
-61.4524
-60.8812
-59.674
-54.906
-62.1002
-65.7197
-66.8051
-67.2926
-67.483
-67.4062
-66.863
-63.5569
-62.6732
-64.6094
-65.9877
-66.9798
-67.7631
-66.8134
-64.6768
-66.5938
-66.3558
-65.8199
-58.9536
-62.5954
-64.3195
-65.6501
-65.9306
-65.7459
-64.6292
-64.7867
-64.9388
-64.7756
-64.4949
-65.0542
-64.7431
-64.3671
-64.9446
-64.1887
-64.448
-66.8142
-66.2451
-64.2329
-64.7144
-64.7232
-65.0787
-64.7108
-64.6595
-63.9558
-65.3281
-66.0818
-63.8749
-63.3607
-47.6307
-50.1009
-48.6185
-49.4577
-52.4427
-52.5327
-52.6501
-53.1204
-53.0206
-54.6609
-55.8726
-55.3392
-56.0116
-55.518
-56.9613
-54.2759
-55.7579
-60.4253
-59.376
-61.3024
-61.7773
-61.354
-60.5649
-59.2702
-54.6315
-62.563
-65.7858
-66.2424
-66.8499
-67.4104
-65.6267
-67.4594
-67.4973
-66.2333
-63.5603
-63.5705
-64.9573
-66.355
-66.8013
-67.8087
-66.7773
-64.6315
-64.7246
-64.7319
-66.5343
-66.1169
-65.4355
-61.4977
-62.912
-64.456
-65.8822
-66.0001
-65.8151
-64.6256
-64.7844
-64.9426
-65.4667
-64.9365
-64.7644
-64.4087
-64.8553
-64.5385
-64.3279
-64.9978
-64.7113
-65.0739
-66.9764
-66.3335
-64.2853
-64.7274
-64.7282
-65.0739
-65.4081
-65.0839
-64.7028
-64.6385
-63.933
-65.2858
-66.1768
-63.9576
-63.4678
-46.5933
-47.5545
-47.1431
-47.5344
-50.442
-48.8967
-49.4838
-48.7163
-49.1703
-52.5659
-52.458
-52.5241
-52.9276
-52.6278
-52.7777
-53.5025
-53.8343
-55.5146
-54.9615
-56.43
-57.0122
-56.7032
-55.7927
-57.3461
-54.5384
-55.7905
-60.2678
-58.6913
-61.071
-61.8855
-61.8635
-62.0189
-61.4306
-60.0993
-58.9042
-55.0551
-63.079
-65.6101
-65.613
-66.6193
-67.3706
-65.5616
-65.2572
-65.7474
-67.66
-67.2445
-65.4918
-63.6943
-64.3945
-65.1345
-66.4914
-66.6244
-67.6972
-66.5996
-64.6396
-64.7069
-65.1834
-64.7504
-64.8025
-66.5487
-65.9183
-65.1443
-62.7421
-63.2712
-64.5419
-66.105
-66.0939
-65.8643
-64.6041
-64.7774
-64.9447
-65.4797
-66.1281
-65.446
-64.9312
-64.7444
-64.3075
-64.6294
-64.2463
-64.2958
-64.9852
-65.1173
-65.6775
-67.1276
-66.3995
-64.3337
-64.7441
-64.7334
-65.0676
-65.3903
-65.6418
-65.4219
-65.0868
-64.6924
-64.6156
-63.9159
-65.2632
-66.2431
-64.0574
-63.5855
-46.0928
-46.6693
-46.5219
-46.4364
-47.3337
-47.2097
-47.5904
-47.4281
-47.4646
-49.9381
-49.3308
-49.5689
-49.7234
-49.188
-49.1038
-49.2974
-52.057
-52.6952
-52.3506
-52.7863
-53.453
-52.9157
-52.6074
-52.6169
-53.1364
-53.2242
-55.3348
-54.805
-56.4944
-56.8866
-57.3205
-57.4153
-57.0735
-56.5334
-57.642
-54.419
-55.7407
-59.7764
-58.2194
-60.9931
-61.8091
-61.8242
-62.5459
-62.2733
-62.3437
-61.7654
-59.9422
-58.7053
-55.7466
-63.6784
-65.4346
-65.1255
-66.2405
-67.1168
-65.4808
-65.1527
-64.291
-65.3248
-65.9797
-67.8416
-66.9898
-64.9573
-63.7195
-65.0287
-65.3237
-66.4293
-66.4888
-67.4769
-66.3531
-64.6441
-64.7018
-65.235
-65.614
-65.1344
-64.7888
-64.8465
-66.5397
-65.7398
-64.8326
-63.1804
-63.4731
-64.5831
-66.2055
-66.2013
-65.8989
-64.5676
-64.7688
-64.9437
-65.4827
-66.1174
-66.4749
-66.1212
-65.417
-64.923
-64.7135
-64.1981
-64.3937
-63.9522
-64.3027
-64.9255
-65.3911
-66.1938
-67.2889
-66.4345
-64.3787
-64.7596
-64.7376
-65.0583
-65.3721
-65.621
-65.7462
-65.6628
-65.4303
-65.0865
-64.6797
-64.5909
-63.9028
-65.2547
-66.2861
-64.234
-63.778
-44.9673
-45.9772
-45.9374
-46.1021
-46.6559
-46.7962
-46.7274
-46.5792
-46.4703
-47.2153
-47.5226
-47.594
-47.9532
-47.5017
-47.6634
-47.503
-49.6054
-49.5649
-49.5133
-49.7314
-49.9989
-49.6222
-49.096
-49.3239
-49.2528
-51.8197
-52.2865
-52.5251
-52.7095
-53.31
-53.92
-53.691
-53.0639
-52.5675
-52.4442
-52.7687
-52.7975
-54.703
-55.0763
-56.1838
-56.5392
-56.9946
-57.5717
-57.6595
-57.5761
-57.2393
-56.6661
-57.3878
-54.5605
-55.8498
-59.5291
-58.0146
-60.9586
-61.4018
-61.8988
-62.3846
-62.808
-62.7746
-62.5534
-62.6386
-61.894
-60.2222
-58.8072
-56.069
-64.2361
-65.1201
-64.756
-65.7261
-66.6568
-65.2526
-65.2207
-64.5176
-63.7294
-64.2831
-65.3597
-66.196
-67.8938
-66.6679
-64.6948
-63.8523
-65.1746
-65.5903
-66.395
-66.2582
-67.1883
-66.0152
-64.5583
-64.6859
-65.2697
-65.6298
-65.8792
-65.62
-65.0757
-64.8247
-64.8583
-66.5859
-65.3858
-64.492
-63.6467
-63.2147
-64.5698
-66.2311
-66.3031
-65.9198
-64.5209
-64.7596
-64.9344
-65.4694
-66.0944
-66.4131
-66.7655
-66.5301
-66.1229
-65.3804
-64.9055
-64.6765
-64.0825
-64.1565
-63.7152
-64.3436
-64.8196
-65.5479
-66.571
-67.417
-66.4548
-64.4214
-64.7774
-64.7408
-65.047
-65.3495
-65.5989
-65.7087
-65.9004
-65.7823
-65.6851
-65.4439
-65.085
-64.6646
-64.5653
-63.8904
-65.2664
-66.3334
-64.5426
-63.9308
-44.3381
-44.9836
-45.0891
-45.1975
-45.8657
-45.9045
-46.0663
-45.8237
-46.011
-46.5049
-46.8073
-46.8133
-46.868
-46.5274
-46.7477
-46.6195
-47.2865
-47.6105
-47.6231
-47.9568
-48.3714
-47.8405
-47.7153
-47.7242
-47.5412
-49.7652
-49.4618
-49.7271
-49.8952
-50.1664
-50.5978
-49.9813
-49.5099
-49.2586
-49.0097
-49.2233
-51.6973
-52.4673
-52.4863
-52.7118
-53.3569
-53.6666
-54.0778
-53.8417
-53.4956
-52.9856
-52.4357
-52.3914
-52.5746
-52.5872
-54.9711
-54.981
-55.9719
-56.651
-56.834
-57.4599
-57.7991
-57.6896
-57.6414
-58
-57.3345
-56.6272
-57.2224
-54.3995
-56.0595
-59.1737
-58.0092
-60.5249
-61.2845
-61.6999
-62.5147
-62.3438
-62.0289
-62.7486
-62.6671
-62.7047
-63.1673
-61.6649
-60.2997
-58.9337
-55.9929
-64.4989
-64.8105
-64.446
-65.2244
-65.9357
-65.1237
-65.2812
-64.5049
-63.7169
-63.4707
-63.8507
-64.4861
-65.5213
-66.4923
-67.8261
-66.037
-64.2514
-64.2463
-64.5687
-65.7259
-66.3592
-66.0935
-66.9058
-65.5312
-64.4296
-64.6407
-65.2519
-65.6231
-65.7948
-65.9154
-65.9738
-65.5666
-65.018
-64.85
-64.8471
-66.5047
-65.0599
-64.2084
-63.8328
-62.6754
-64.4914
-66.2183
-66.4011
-65.9155
-64.4656
-64.7479
-64.9206
-65.429
-66.0667
-66.3381
-66.6451
-66.6036
-66.9112
-66.5873
-66.1186
-65.3535
-64.876
-64.6321
-64.0031
-63.9123
-63.5069
-64.4094
-64.6955
-65.6166
-66.8045
-67.5012
-66.4721
-64.4572
-64.7924
-64.7425
-65.0372
-65.3219
-65.5767
-65.6726
-65.8659
-65.926
-65.9251
-65.8292
-65.7087
-65.4598
-65.0825
-64.6481
-64.5362
-63.8775
-65.3137
-66.3704
-65.0117
-64.0958
-44.1831
-44.4421
-44.5907
-44.1968
-45.0925
-45.0334
-45.1059
-45.1281
-45.2374
-45.8426
-45.8516
-45.8814
-46.1128
-46.1291
-45.801
-46.1079
-46.4028
-46.736
-46.5141
-46.886
-47.0476
-46.8999
-46.7002
-46.9942
-46.6621
-47.2754
-47.5946
-47.8189
-47.8313
-48.4317
-48.5758
-48.2088
-47.8217
-47.6575
-47.7019
-47.6097
-49.5297
-49.6426
-49.9476
-49.9514
-50.3776
-50.4817
-50.9854
-50.5397
-50.0973
-49.7546
-49.1352
-49.0872
-49.1157
-51.8612
-52.7886
-52.347
-52.6125
-53.1827
-53.5531
-53.8763
-54.02
-54.2087
-53.8545
-53.4251
-52.6605
-52.2936
-52.39
-52.1922
-52.4168
-54.5102
-54.9097
-55.7929
-56.6613
-56.8433
-57.2444
-57.4599
-57.7308
-57.865
-57.8614
-57.9183
-57.9842
-57.299
-56.9209
-57.2165
-54.3811
-55.7679
-58.466
-58.1108
-60.0463
-60.9306
-61.6157
-62.5275
-62.5084
-61.9132
-61.1028
-62.1138
-62.9252
-62.8323
-62.9914
-62.8636
-61.6836
-60.3874
-59.4821
-56.476
-64.2028
-64.4779
-64.0239
-64.8782
-65.2153
-64.8738
-65.1274
-64.4076
-63.6658
-63.4558
-63.6069
-63.6463
-64.0088
-64.5219
-65.6456
-66.5808
-67.5147
-65.5671
-64.0008
-64.6431
-63.8539
-65.6898
-66.2083
-65.9029
-66.5369
-65.0632
-64.2369
-64.5658
-65.2582
-65.6084
-65.7258
-65.8088
-65.8527
-66.1111
-66.0639
-65.5016
-64.9868
-64.8613
-64.8228
-66.3449
-64.9045
-64.1076
-63.8254
-62.4218
-64.3421
-66.179
-66.4337
-65.9016
-64.3968
-64.7338
-64.901
-65.3684
-66.0604
-66.2367
-66.5329
-66.42
-65.7207
-66.7885
-66.9598
-66.6219
-66.0889
-65.3333
-64.839
-64.5802
-63.8822
-63.7347
-63.3371
-64.4669
-64.5664
-65.6317
-66.9201
-67.5521
-66.4862
-64.4868
-64.809
-64.744
-65.0295
-65.3015
-65.5563
-65.6431
-65.8311
-65.8616
-65.9845
-66.0034
-65.9692
-65.8714
-65.7289
-65.4719
-65.0791
-64.6296
-64.5085
-63.8651
-65.3396
-66.383
-65.4106
-64.2281
-43.7065
-44.0845
-44.1522
-44.1197
-44.5863
-44.5951
-44.5672
-44.5733
-44.3954
-45.1784
-45.1667
-45.0644
-45.1936
-45.1018
-45.1223
-45.2156
-45.7624
-45.8712
-45.9515
-46.0079
-46.2219
-46.0603
-45.6719
-45.8719
-46.0012
-46.1219
-46.5645
-46.787
-46.8306
-47.1325
-47.24
-46.9559
-46.9544
-46.994
-46.8792
-46.8403
-47.2483
-47.5503
-48.0173
-47.9637
-48.3612
-48.4898
-48.5825
-48.6964
-48.1537
-47.9614
-47.7117
-47.6348
-47.87
-49.0511
-49.7648
-50.2293
-50.0754
-50.3128
-50.5911
-51.0356
-51.2492
-50.9937
-50.3537
-50.1462
-49.7585
-49.2285
-49.2657
-49.0226
-51.5843
-52.3254
-52.2486
-52.302
-52.759
-53.6046
-53.75
-54.0974
-54.0462
-54.3224
-54.1669
-54.1943
-53.1262
-53.0662
-52.4646
-51.9998
-52.0511
-52.407
-54.1303
-54.5394
-55.7123
-56.4279
-56.8167
-57.1558
-57.5477
-57.7083
-57.1748
-57.8051
-57.938
-58.1226
-57.9801
-58.1398
-57.7113
-56.9628
-57.0686
-54.3653
-55.5184
-58.0232
-57.9128
-59.6644
-60.7783
-61.6952
-62.5061
-62.2855
-61.6582
-61.0044
-60.7271
-61.086
-62.483
-63.2397
-63.1209
-63.2471
-62.6685
-61.6713
-60.6497
-60.2188
-56.5394
-63.8271
-63.9237
-63.3244
-64.2656
-64.7054
-64.5436
-64.8373
-64.2018
-63.5893
-63.5219
-63.4581
-62.5816
-63.5402
-63.8903
-64.1049
-64.6711
-65.6276
-66.5222
-67.2602
-65.2144
-64.1443
-65.0562
-63.3372
-65.4013
-66.0356
-65.6197
-65.9912
-64.6219
-64.0507
-64.4765
-65.2911
-65.5998
-65.6335
-65.6305
-65.6962
-65.1049
-66.0191
-66.2985
-66.1391
-65.47
-64.9361
-64.8315
-64.7838
-66.2122
-64.7046
-64.1137
-63.7477
-62.3172
-64.1906
-66.1206
-66.4348
-65.8912
-64.3171
-64.7142
-64.8757
-65.3011
-66.0666
-66.1364
-66.3914
-66.2568
-65.5079
-64.9577
-65.9392
-66.9641
-67.0361
-66.6289
-66.048
-65.3064
-64.7883
-64.5239
-63.7632
-63.6126
-63.1309
-64.546
-64.4111
-65.6555
-66.96
-67.5979
-66.5024
-64.5155
-64.8288
-64.7448
-65.0218
-65.2893
-65.5377
-65.6165
-65.792
-65.8168
-65.9588
-65.7242
-66.0219
-66.0901
-66.0064
-65.9091
-65.7476
-65.4809
-65.0746
-64.6079
-64.4853
-63.8532
-65.3299
-66.4243
-65.6875
-64.1742
-43.5633
-43.8223
-43.8309
-43.8253
-44.2372
-44.1001
-44.1619
-44.1718
-44.172
-44.6452
-44.7058
-44.6062
-44.6922
-44.5432
-44.5627
-44.3864
-45.1109
-45.1542
-45.309
-45.2409
-45.4054
-45.2014
-45.0512
-45.1063
-45.2831
-45.7231
-45.8223
-46.1208
-46.0685
-46.1831
-46.2312
-46.1308
-45.8975
-45.8842
-45.9008
-45.8864
-46.2416
-46.5235
-46.9929
-46.972
-47.1082
-47.285
-47.5011
-47.322
-46.8719
-46.8631
-46.8536
-46.7007
-46.9331
-47.3462
-47.6216
-47.8499
-48.0424
-48.3606
-48.4595
-48.6051
-48.878
-48.6244
-48.5887
-48.2748
-48.0131
-47.7619
-47.8875
-47.9973
-48.9159
-49.6718
-50.1588
-50.0649
-50.3099
-50.6262
-50.9805
-51.202
-51.3134
-51.2793
-50.9131
-50.3397
-50.0627
-49.7396
-49.3453
-49.3062
-49.1096
-51.0188
-51.9623
-52.1009
-52.2893
-52.7973
-53.2468
-53.597
-53.9325
-54.1115
-53.8978
-54.3484
-54.3625
-54.5703
-54.1079
-53.7762
-52.874
-52.4364
-51.8872
-51.9072
-52.5128
-54.1219
-54.6598
-55.6428
-56.3658
-56.8418
-57.1583
-57.3592
-57.5865
-57.7053
-56.6339
-57.4286
-57.9243
-58.1641
-58.2348
-58.2798
-58.4548
-57.7474
-56.9492
-57.0618
-54.2677
-55.3865
-57.623
-57.6098
-59.4933
-60.6296
-61.6239
-62.1834
-61.6846
-61.5307
-61.0474
-60.1661
-59.6326
-60.6872
-61.6412
-62.835
-63.7006
-63.3356
-63.314
-63.5526
-61.6149
-61.0533
-60.6418
-56.7919
-63.0495
-63.442
-62.8724
-63.4456
-63.9272
-64.3686
-64.6038
-64.0916
-63.5417
-63.5261
-63.1624
-62.4165
-61.5898
-62.7597
-63.7105
-64.1216
-64.3492
-64.6389
-65.5501
-66.4373
-67.2604
-65.1705
-64.2318
-65.3221
-63.2701
-64.8796
-65.9245
-65.3514
-65.415
-64.1893
-63.8705
-64.3914
-65.1928
-65.4267
-65.5643
-65.4841
-65.5187
-64.8526
-63.9446
-65.3602
-66.2427
-66.4045
-66.1698
-65.4436
-64.8813
-64.7627
-64.7218
-65.9447
-64.4298
-64.1288
-63.6691
-62.2971
-64.0597
-66.0282
-66.5
-65.8682
-64.2209
-64.6899
-64.8445
-65.2219
-65.999
-66.0408
-66.242
-66.0913
-65.2843
-64.7796
-63.9901
-65.1365
-66.1604
-67.1525
-67.0793
-66.6165
-66.012
-65.288
-64.7261
-64.4667
-63.6478
-63.4923
-62.9794
-64.376
-64.2496
-65.7091
-66.9706
-67.6188
-66.5201
-64.5431
-64.8484
-64.744
-65.0151
-65.2752
-65.5156
-65.577
-65.7535
-65.7786
-65.9309
-65.7009
-64.526
-65.7711
-66.0644
-66.1644
-66.0595
-65.9392
-65.7643
-65.4878
-65.0695
-64.5865
-64.4653
-63.8386
-65.3677
-66.4821
-65.9878
-64.1987
-43.3448
-43.6194
-43.5352
-43.5923
-43.8309
-43.8443
-43.8204
-43.8747
-43.7372
-44.2723
-44.1996
-44.1741
-44.2805
-44.1949
-44.1945
-44.2104
-44.707
-44.7289
-44.7167
-44.733
-44.8341
-44.6538
-44.4861
-44.498
-44.4846
-45.1801
-45.1625
-45.3421
-45.3467
-45.404
-45.5166
-45.4346
-45.1185
-45.03
-45.0976
-45.1173
-45.8277
-45.9372
-46.075
-46.1228
-46.2248
-46.3661
-46.3916
-46.2741
-45.9269
-45.9965
-45.9887
-45.621
-45.7882
-46.2852
-46.5493
-46.8649
-47.0328
-47.1684
-47.3767
-47.4528
-47.6055
-47.4462
-47.1662
-46.9932
-46.8983
-46.7961
-47.0687
-46.9081
-47.5957
-47.6183
-47.6511
-48.0826
-48.4159
-48.487
-48.6002
-48.8285
-49.0259
-48.7048
-48.8109
-48.5481
-48.4244
-47.9688
-47.9046
-47.9104
-48.2116
-49.1435
-49.5461
-50.2208
-50.1244
-50.3481
-50.5604
-50.9499
-51.0143
-51.2107
-51.3988
-51.313
-51.1547
-50.608
-50.394
-49.9999
-49.9082
-49.4386
-49.3675
-49.1589
-50.8149
-51.7675
-52.2295
-52.4105
-52.8956
-53.2032
-53.3205
-53.5561
-53.9409
-53.894
-53.6348
-54.1729
-54.3299
-54.6005
-54.7074
-53.9795
-53.8759
-52.9143
-52.3815
-51.8925
-51.5755
-52.625
-54.1302
-54.5041
-55.6225
-56.3236
-56.6718
-57.2847
-57.4995
-57.3675
-57.5354
-56.7635
-56.1547
-57.0471
-57.8881
-58.2331
-58.1407
-58.2003
-58.4015
-58.3768
-57.5764
-56.9735
-57.0181
-54.0146
-55.0898
-57.1316
-57.324
-59.4888
-60.6073
-61.5472
-62.0896
-61.569
-61.4467
-61.0286
-59.8135
-59.3896
-58.8713
-59.8635
-60.9561
-62.337
-63.3515
-63.7965
-63.469
-63.5479
-63.4211
-61.717
-61.6756
-61.0244
-57.5407
-62.141
-63.1792
-62.6744
-62.7105
-63.1052
-64.0863
-64.5255
-64.0635
-63.5206
-63.3944
-63.0759
-62.2542
-61.2743
-60.837
-61.9533
-63.145
-64.01
-64.3675
-64.6692
-64.7005
-65.3711
-66.0304
-66.5473
-65.0285
-64.4845
-65.4142
-63.4066
-64.1752
-65.6632
-65.0856
-64.9396
-63.7994
-63.6815
-64.3191
-65.0902
-65.4256
-65.4598
-65.354
-65.2987
-64.6145
-63.6719
-62.7364
-64.1755
-65.6869
-66.4683
-66.5252
-66.1835
-65.4583
-64.8759
-64.695
-64.6532
-65.515
-64.1627
-64.1885
-63.584
-62.3017
-63.9093
-65.9561
-66.5266
-65.8341
-64.0965
-64.6617
-64.8055
-65.1425
-65.9249
-65.9195
-66.0991
-65.9159
-65.0558
-64.6062
-63.83
-63.3851
-64.1522
-65.3209
-66.3885
-67.3103
-67.1113
-66.6011
-65.9808
-65.2692
-64.6637
-64.4079
-63.5463
-63.4057
-63.0172
-64.2009
-64.0751
-65.7715
-66.9726
-67.6298
-66.5384
-64.5704
-64.8678
-64.7415
-65.0042
-65.2607
-65.4898
-65.5249
-65.7141
-65.742
-65.9001
-65.6556
-64.5255
-64.1084
-64.5471
-65.8045
-66.0806
-66.22
-66.1134
-65.9657
-65.7763
-65.4925
-65.0636
-64.5688
-64.4497
-63.8167
-65.4949
-66.4802
-66.3056
-64.4778
-43.1185
-43.325
-43.3359
-43.3071
-43.5939
-43.6334
-43.6266
-43.5703
-43.6122
-43.844
-43.8944
-43.8792
-43.915
-43.7605
-43.8647
-43.8387
-44.2999
-44.244
-44.2098
-44.2338
-44.3118
-44.2252
-44.1819
-44.1169
-44.2034
-44.8041
-44.9676
-44.8656
-44.788
-44.8095
-44.9311
-44.7827
-44.6649
-44.4459
-44.3661
-44.5819
-45.2118
-45.3948
-45.4458
-45.4135
-45.4802
-45.5844
-45.6319
-45.3824
-45.187
-45.2512
-45.1623
-45.0954
-44.9246
-45.8129
-45.9295
-46.0294
-46.1642
-46.3309
-46.3842
-46.3969
-46.4566
-46.3431
-46.2039
-46.0952
-46.031
-45.8456
-45.6427
-45.809
-46.4147
-46.3346
-46.8171
-46.9384
-47.246
-47.3499
-47.4711
-47.6052
-47.7448
-47.6222
-47.3603
-47.0982
-47.0509
-46.8546
-46.9075
-47.1473
-46.9419
-47.7585
-47.6972
-47.8427
-48.1523
-48.5269
-48.4296
-48.7013
-48.7283
-49.0033
-49.0329
-48.7468
-48.7638
-48.7704
-48.5357
-48.2334
-47.9742
-47.9249
-47.9402
-48.3825
-49.1244
-49.1913
-50.2531
-50.1055
-50.3977
-50.5697
-50.927
-51.1284
-51.1267
-51.3261
-51.3046
-51.207
-51.325
-51.1457
-50.6825
-50.3575
-50.0659
-49.8983
-49.4497
-49.514
-49.0814
-51.0186
-51.7758
-52.2065
-52.4818
-52.9284
-53.028
-53.4924
-53.5463
-53.7331
-53.6507
-53.6241
-53.3237
-53.8454
-54.277
-54.4081
-54.3547
-54.5866
-54.3736
-53.3859
-53.1411
-52.4643
-51.7688
-51.3962
-53.0716
-54.1934
-54.6165
-55.5765
-56.2787
-56.5555
-57.1456
-57.5008
-57.4788
-57.3358
-57.2047
-55.9927
-55.2729
-56.4223
-57.1777
-58.1388
-58.3659
-58.4141
-58.3934
-58.2083
-57.7388
-57.7955
-57.211
-57.0553
-53.6343
-55.519
-57.1144
-57.578
-59.2941
-60.457
-61.5399
-61.9458
-61.5014
-61.4027
-60.8527
-60.0869
-59.0962
-58.3105
-58.1946
-59.5225
-60.2732
-61.4643
-62.8528
-63.8479
-63.7347
-63.9118
-63.5624
-62.8215
-61.9372
-62.4808
-61.6849
-58.4778
-61.235
-63.1205
-62.3364
-62.2611
-62.1395
-63.777
-64.6127
-64.0371
-63.8411
-63.3228
-62.9345
-62.0779
-60.9283
-60.5413
-60.1447
-61.1949
-62.3037
-63.6686
-64.4134
-64.6628
-64.8818
-64.7882
-64.9894
-65.557
-65.9065
-64.7435
-64.6536
-65.6162
-63.5896
-63.3841
-65.319
-64.8626
-64.5855
-63.511
-63.5281
-64.2499
-65.0722
-65.5909
-65.3308
-65.1707
-65.0182
-64.3825
-63.4179
-62.569
-61.8558
-62.9308
-64.4432
-66.0269
-66.6922
-66.6275
-66.1826
-65.4543
-64.8874
-64.6111
-64.5834
-65.072
-63.9713
-64.3048
-63.575
-62.2709
-63.7755
-65.8996
-66.5026
-65.7622
-63.9872
-64.6347
-64.7639
-65.0975
-65.8453
-65.8133
-65.9545
-65.7753
-64.8386
-64.4474
-63.6636
-63.2611
-63.0489
-63.5273
-64.3342
-65.5375
-66.6272
-67.4315
-67.1235
-66.5773
-65.9429
-65.254
-64.6098
-64.3479
-63.4709
-63.3078
-63.1463
-64.0181
-63.9223
-65.8462
-66.9697
-67.636
-66.5566
-64.6017
-64.8861
-64.7371
-64.992
-65.247
-65.4652
-65.4708
-65.6726
-65.7018
-65.8683
-65.5613
-64.4868
-64.0729
-63.8611
-64.1688
-64.638
-65.8306
-66.0905
-66.2767
-66.1664
-65.99
-65.7862
-65.4966
-65.056
-64.5556
-64.438
-63.7906
-65.5798
-66.4836
-66.5079
-64.9101
-42.9672
-43.1165
-43.1245
-43.0878
-43.343
-43.3397
-43.3988
-43.3103
-43.2642
-43.5917
-43.616
-43.6263
-43.6538
-43.5252
-43.6071
-43.5876
-43.7865
-43.909
-43.895
-43.9401
-43.87
-43.9309
-43.9239
-43.867
-43.8057
-44.3387
-44.2771
-44.2726
-44.2871
-44.3915
-44.4094
-44.3178
-44.2559
-43.9997
-44.0369
-44.1932
-44.9227
-44.9236
-44.8163
-44.8553
-44.8976
-44.9407
-44.9979
-44.7799
-44.7356
-44.5808
-44.4514
-44.4364
-44.491
-45.1964
-45.3504
-45.3479
-45.4018
-45.5251
-45.5269
-45.6045
-45.673
-45.6293
-45.411
-45.1225
-45.2444
-45.2217
-44.6001
-44.9614
-45.8319
-45.8732
-45.9556
-46.1218
-46.2876
-46.359
-46.4321
-46.4627
-46.6406
-46.4513
-46.2866
-46.1174
-46.1762
-45.778
-45.8684
-46.0504
-45.7441
-46.4948
-46.3598
-46.7739
-47.05
-47.2374
-47.3169
-47.4677
-47.5386
-47.629
-47.8057
-47.6462
-47.5326
-47.3297
-47.1779
-46.9723
-46.9039
-46.9477
-46.9773
-47.0729
-47.744
-47.7919
-48.136
-48.2462
-48.4611
-48.3864
-48.722
-48.8552
-48.829
-48.9432
-49.1349
-48.9974
-48.9816
-48.8953
-48.6951
-48.4758
-48.3599
-47.9738
-48
-48.2864
-48.2752
-49.0695
-49.2509
-50.235
-49.9177
-50.3474
-50.4365
-50.8533
-51.0419
-51.0505
-51.169
-51.2744
-51.271
-51.3933
-51.3299
-51.2562
-51.0685
-50.859
-50.4647
-50.2585
-49.9294
-49.5339
-49.5942
-49.0149
-50.7275
-51.8514
-52.1627
-52.4909
-52.8606
-53.0253
-53.3811
-53.442
-53.613
-53.5647
-53.3323
-53.2067
-53.0552
-53.6875
-54.0378
-54.3603
-54.1703
-54.4302
-54.9328
-54.2369
-53.4648
-53.2589
-52.6186
-51.6784
-51.2142
-53.3318
-54.4099
-54.9868
-55.6337
-56.0694
-56.479
-56.9864
-57.3233
-57.5074
-57.3854
-56.9958
-55.9859
-55.2051
-55.0001
-55.503
-56.4576
-57.4325
-58.3594
-58.432
-58.7082
-58.4286
-58.3581
-58.0904
-57.9909
-57.6806
-56.5363
-53.5333
-55.4627
-57.4359
-57.5107
-58.6752
-60.0996
-61.676
-61.8566
-61.0778
-61.0555
-60.6868
-59.7365
-58.7638
-58.0639
-57.8758
-57.4683
-58.4734
-59.7281
-60.7135
-61.9788
-63.504
-64.3275
-64.1513
-63.3942
-63.2979
-62.9406
-62.5122
-63.2124
-62.9365
-58.9097
-60.7101
-62.8105
-61.8968
-61.6216
-60.932
-63.4527
-64.6885
-63.996
-64.0175
-63.2845
-62.7234
-61.8537
-60.7359
-60.1044
-59.9067
-59.6156
-60.3852
-61.6104
-62.7864
-64.0478
-64.7257
-64.8805
-65.1441
-64.9475
-64.5716
-65.1337
-65.315
-64.721
-64.7831
-65.6299
-63.6917
-62.7552
-64.8727
-64.6848
-64.2737
-63.3185
-63.3869
-64.1688
-65.078
-65.546
-65.2203
-64.9618
-64.7302
-64.0536
-63.109
-62.2932
-61.711
-61.1643
-62.0516
-63.2967
-64.9195
-66.4747
-66.9234
-66.7191
-66.175
-65.4217
-64.8984
-64.5426
-64.5362
-64.6597
-63.8292
-64.0889
-63.3316
-62.1148
-63.684
-65.8332
-66.5583
-65.6483
-63.8643
-64.6113
-64.722
-65.0927
-65.7912
-65.6906
-65.8017
-65.6192
-64.6181
-64.2762
-63.5171
-63.1261
-62.9388
-62.8017
-63.1535
-63.6837
-64.5373
-65.7839
-66.8569
-67.5573
-67.1293
-66.5345
-65.8961
-65.2337
-64.5603
-64.2898
-63.4256
-63.2256
-63.3078
-63.8067
-63.7472
-65.9341
-66.9587
-67.6374
-66.5756
-64.636
-64.9058
-64.7319
-64.9824
-65.2345
-65.4526
-65.4279
-65.6339
-65.6671
-65.8487
-65.5106
-64.4499
-64.0282
-63.7722
-63.912
-63.9611
-64.2826
-64.6969
-65.8584
-66.1125
-66.3334
-66.2356
-66.011
-65.7943
-65.4978
-65.0471
-64.5465
-64.4313
-63.7637
-65.6437
-66.5421
-66.6422
-65.2452
-42.8568
-42.9704
-42.9519
-42.9788
-43.155
-43.1402
-43.1607
-43.1255
-43.0578
-43.369
-43.3341
-43.379
-43.3844
-43.4445
-43.2731
-43.2958
-43.5838
-43.6381
-43.6263
-43.6161
-43.5719
-43.6422
-43.4564
-43.683
-43.6339
-43.8559
-43.8085
-43.9902
-43.9258
-43.938
-43.9244
-43.8955
-43.7997
-43.7744
-43.7946
-43.766
-44.3497
-44.2089
-44.2696
-44.3187
-44.3141
-44.3909
-44.4306
-44.3811
-44.2821
-44.0668
-44.063
-44.0679
-44.1457
-44.7456
-44.8922
-44.7983
-44.8475
-44.9473
-44.9668
-44.9519
-45.0343
-44.9614
-44.8023
-44.5621
-44.708
-44.5999
-44.5021
-44.4222
-45.1488
-45.3485
-45.4054
-45.444
-45.5184
-45.5367
-45.6084
-45.6494
-45.8612
-45.6538
-45.5296
-45.3494
-45.3062
-45.1689
-45.1094
-44.8345
-45.0045
-45.771
-45.8202
-46.0244
-46.2181
-46.2695
-46.37
-46.4648
-46.4618
-46.5591
-46.6444
-46.6399
-46.3915
-46.1786
-46.1414
-46.0719
-45.8572
-45.8922
-45.775
-45.7451
-46.6161
-46.5215
-46.908
-47.0228
-47.2891
-47.2981
-47.4936
-47.6214
-47.5082
-47.727
-48.0464
-47.7654
-47.6002
-47.4452
-47.4252
-47.0673
-46.9425
-46.9146
-46.7496
-47.1026
-47.0863
-47.9244
-48.2182
-48.2405
-48.2261
-48.4504
-48.3707
-48.6451
-48.8387
-48.8473
-48.9215
-49.1265
-49.1843
-49.1559
-49.0869
-48.994
-48.8737
-48.6885
-48.527
-48.2543
-47.9466
-48.0519
-48.1827
-48.2411
-49.1653
-49.8504
-50.1802
-50.0578
-50.3244
-50.4412
-50.6505
-50.8937
-50.9737
-51.0918
-51.3198
-51.337
-51.1461
-51.2849
-51.3305
-51.2853
-51.2153
-51.1177
-50.8023
-50.641
-50.3422
-49.9746
-49.4644
-49.7878
-48.9445
-50.6216
-51.4847
-52.2066
-52.4807
-52.7928
-53.1077
-53.2998
-53.4363
-53.3999
-53.4181
-53.1226
-53.0066
-53.0669
-52.7632
-53.2614
-53.6522
-53.9005
-54.4415
-54.311
-54.5575
-54.3665
-54.2879
-53.686
-53.2144
-52.6887
-51.4499
-51.2164
-53.1386
-54.0308
-54.8767
-55.0893
-55.6325
-56.3006
-56.946
-57.2004
-57.4197
-57.45
-56.9115
-55.9723
-55.2373
-54.8869
-54.8592
-54.939
-55.6136
-56.6259
-57.8204
-58.4972
-58.9206
-58.6432
-58.5572
-58.185
-58.2391
-58.5295
-58.2043
-56.5362
-53.737
-55.1559
-57.3805
-57.0977
-58.4617
-59.5796
-61.7933
-61.7829
-61.2014
-61.0794
-60.6313
-59.4147
-58.6833
-57.9489
-57.6221
-57.404
-57.286
-57.7723
-58.7898
-59.7445
-61.3871
-62.6977
-63.8909
-64.223
-64.3588
-62.9986
-63.2469
-63.1487
-62.9333
-63.7327
-63.0355
-58.981
-60.4151
-61.9928
-61.6064
-61.1995
-59.9445
-63.3011
-64.6367
-64.1267
-63.8158
-63.1725
-62.5563
-61.6145
-60.506
-59.8441
-59.6718
-59.4514
-59.1246
-59.8684
-60.7066
-62.0531
-63.2349
-64.4348
-65.0474
-65.1135
-65.2409
-64.6995
-64.3261
-64.7266
-64.8887
-64.8649
-64.7389
-65.2728
-63.6772
-62.2491
-64.4726
-64.5061
-64.0796
-63.1648
-63.2671
-64.0103
-64.9727
-65.7298
-65.1267
-64.7414
-64.426
-63.7269
-62.8281
-62.1665
-61.5815
-61.0518
-60.7384
-61.4289
-62.2617
-63.5824
-65.2565
-66.9316
-67.1974
-66.7867
-66.1286
-65.3546
-64.9654
-64.4754
-64.5002
-64.2533
-63.6601
-63.6351
-63.1152
-61.8351
-63.6548
-65.7905
-66.6001
-65.5382
-63.7487
-64.5971
-64.6854
-65.0743
-65.7205
-65.5839
-65.6331
-65.4539
-64.4126
-64.1036
-63.3992
-63.0044
-62.8302
-62.7061
-62.7775
-62.9101
-63.2832
-63.8383
-64.7449
-65.9857
-67.0699
-67.6458
-67.1181
-66.4823
-65.8451
-65.2091
-64.5087
-64.2294
-63.39
-63.1526
-63.4361
-63.6497
-63.5458
-66.0337
-66.941
-67.6399
-66.5953
-64.6716
-64.9258
-64.7284
-64.9701
-65.2192
-65.4342
-65.3844
-65.5989
-65.6411
-65.8214
-65.4846
-64.4115
-63.9558
-63.7139
-63.8797
-63.7956
-63.9382
-64.0586
-64.3586
-64.7322
-65.8829
-66.1368
-66.3917
-66.2946
-66.0288
-65.7997
-65.4965
-65.0383
-64.5401
-64.4284
-63.7422
-65.6949
-66.6532
-66.7045
-65.4415
-42.6151
-42.8673
-42.8999
-42.8469
-42.9865
-42.959
-42.9718
-42.9379
-42.9185
-43.1693
-43.1613
-43.1029
-43.1959
-43.1266
-43.089
-43.0358
-43.3732
-43.352
-43.3418
-43.3759
-43.4176
-43.3497
-43.2417
-43.2902
-43.3366
-43.6237
-43.5849
-43.6551
-43.617
-43.5806
-43.6357
-43.5781
-43.5033
-43.6442
-43.6984
-43.6694
-43.8849
-43.8542
-43.9678
-43.9186
-43.9654
-43.998
-44.0426
-43.9746
-43.936
-43.8491
-43.7724
-43.7627
-43.7324
-44.2804
-44.3495
-44.3455
-44.3201
-44.3426
-44.4343
-44.4508
-44.5367
-44.4886
-44.3469
-44.1776
-44.2039
-44.1533
-44.0933
-44.1166
-44.735
-44.8502
-44.9092
-45.002
-44.9343
-44.9405
-45.0124
-45.0736
-45.1612
-44.9869
-44.8644
-44.7584
-44.6408
-44.6467
-44.5095
-44.286
-44.4654
-45.1989
-45.196
-45.5096
-45.5538
-45.6127
-45.5519
-45.6521
-45.6851
-45.8191
-45.8936
-45.8337
-45.6545
-45.4691
-45.3702
-45.2677
-45.0594
-45.1357
-44.8753
-45.0063
-45.8267
-45.8731
-45.9477
-46.1468
-46.3575
-46.3669
-46.4302
-46.5567
-46.6321
-46.634
-46.7948
-46.6976
-46.398
-46.3163
-46.2118
-46.1323
-45.9316
-45.8214
-45.8489
-45.7998
-45.7553
-46.8061
-46.6582
-47.0223
-46.961
-47.3368
-47.2866
-47.4101
-47.7055
-47.5784
-47.6102
-47.9867
-47.9752
-47.8996
-47.7222
-47.6818
-47.4668
-47.2694
-46.9749
-46.9745
-46.7482
-46.8667
-47.1717
-47.0339
-48.1731
-48.1982
-48.3655
-48.5171
-48.5191
-48.5171
-48.5836
-48.8735
-48.9741
-48.913
-49.007
-49.1544
-49.2123
-49.1662
-49.2007
-49.0953
-49.0391
-48.8186
-48.6156
-48.3133
-48.2743
-48.053
-48.2209
-48.2779
-48.1927
-49.3971
-49.4676
-50.2944
-50.2237
-50.2741
-50.4968
-50.678
-50.8987
-51.0612
-51.1664
-51.2778
-51.4053
-51.1692
-51.0382
-51.2707
-51.3957
-51.2792
-51.2839
-51.2573
-50.9705
-50.7372
-50.6732
-50.2378
-49.8534
-49.3982
-49.5552
-48.8694
-50.8183
-51.3891
-52.1727
-52.4406
-52.6411
-53.1728
-53.3285
-53.3601
-53.6442
-53.4791
-53.1144
-52.8745
-52.8423
-52.5988
-52.5834
-52.8632
-53.3041
-53.7056
-54.1291
-54.2173
-54.19
-54.619
-54.4239
-54.3598
-53.893
-53.1459
-52.7391
-51.2142
-51.0585
-53.2131
-53.8682
-54.739
-55.2334
-55.6537
-56.1758
-56.7941
-57.1243
-57.3346
-57.3515
-56.8335
-55.8365
-55.0417
-54.9098
-54.7262
-54.4615
-54.8556
-55.1623
-55.8844
-56.8287
-57.9475
-58.5461
-58.9351
-58.5107
-58.605
-57.9118
-58.3687
-58.541
-57.5175
-56.5863
-53.7106
-55.6014
-57.5656
-57.0645
-58.4026
-59.3982
-61.5715
-61.8257
-61.378
-61.3087
-60.5699
-59.4836
-58.4696
-57.8996
-57.3952
-57.3515
-57.1266
-57.085
-57.4301
-58.1748
-59.2121
-60.3
-61.7786
-63.2985
-64.4356
-64.2484
-64.4297
-62.7105
-63.0937
-63.1475
-63.7459
-64.0159
-62.8548
-59.3626
-59.9973
-61.3331
-61.5256
-60.7079
-59.6113
-63.2265
-64.5498
-64.2811
-64.296
-63.0384
-62.3182
-61.3826
-60.2147
-59.7113
-59.5689
-59.3592
-58.9963
-58.6911
-59.3226
-60.0504
-61.0172
-62.5595
-63.8793
-64.9956
-65.3452
-65.2731
-65.2065
-64.4159
-63.9656
-64.5896
-64.5933
-64.8544
-64.4612
-64.5911
-63.4369
-61.8397
-64.1699
-64.4031
-64.0836
-62.9616
-63.1806
-63.7926
-64.7561
-65.5541
-65.1313
-64.5027
-64.1787
-63.5426
-62.68
-62.0207
-61.4036
-61.0229
-60.6477
-60.7067
-60.8717
-61.6164
-62.4915
-63.8743
-65.6281
-67.286
-67.4389
-66.8487
-66.0763
-65.2992
-64.9895
-64.4274
-64.4245
-63.8879
-63.4725
-62.9633
-62.8402
-61.3648
-63.7015
-65.804
-66.6066
-65.4619
-63.6794
-64.5875
-64.6575
-65.0541
-65.6193
-65.4537
-65.4752
-65.2854
-64.2192
-63.9357
-63.3021
-62.8838
-62.7027
-62.6259
-62.6944
-62.6714
-62.8616
-63.0261
-63.4258
-63.9809
-64.9374
-66.176
-67.2489
-67.7139
-67.0931
-66.4291
-65.7946
-65.1729
-64.464
-64.1673
-63.3389
-63.103
-63.5613
-63.5518
-63.4328
-66.1403
-66.9188
-67.6492
-66.618
-64.7072
-64.9472
-64.727
-64.9556
-65.2029
-65.4086
-65.3245
-65.569
-65.6163
-65.7598
-65.4575
-64.344
-63.9001
-63.6685
-63.7914
-63.7536
-64.2554
-63.859
-63.9947
-64.1321
-64.4096
-64.777
-65.9037