/*--------------------------------*- C++ -*----------------------------------*\
  =========                 |
  \\      /  F ield         | OpenFOAM: The Open Source CFD Toolbox
   \\    /   O peration     | Website:  https://openfoam.org
    \\  /    A nd           | Version:  7
     \\/     M anipulation  |
\*---------------------------------------------------------------------------*/
FoamFile
{
    version     2.0;
    format      ascii;
    class       volScalarField;
    location    "9";
    object      nut;
}
// * * * * * * * * * * * * * * * * * * * * * * * * * * * * * * * * * * * * * //

dimensions      [0 2 -1 0 0 0 0];

internalField   nonuniform List<scalar> 
18750
(
0.000202622
0.000781225
0.000252353
0.000159365
0.00143852
0.000673902
0.000782801
0.000204088
0.000239358
0.000147758
0.00221437
0.00107705
0.00109189
0.000738913
0.000626889
0.000827285
0.00033578
0.000158284
0.000236962
0.000159629
0.00276951
0.00101697
0.00156387
0.000928816
0.00128203
0.00122096
0.000682753
0.000702884
0.00059267
0.000906164
0.000215135
0.00030586
0.000132735
0.000226357
0.000198917
0.00315404
0.00143052
0.00244801
0.000539871
0.000971623
0.00183917
0.000961588
0.00097366
0.0012863
0.00178473
0.000519477
0.000593044
0.000695717
0.000577715
0.000864244
5.32674e-05
0.000209538
0.000271673
0.000139618
0.000211414
0.000248723
0.00329866
0.0015813
0.00282614
0.000839498
0.000610262
0.00247992
0.00107289
0.00116145
0.00211721
0.00197905
0.00142194
0.00108405
0.000971028
0.00180929
0.00269672
0.000448303
0.000364828
0.000571921
0.000649459
0.000616301
0.000684146
0.000130266
0.00019058
0.000199871
0.000251246
0.000152325
0.00020229
0.00028859
0.00279233
0.000990541
0.00273798
0.00161022
0.00099391
0.00261774
0.000358757
0.000632786
0.000650768
0.00248952
0.000591332
0.00047669
0.00249683
0.00154671
0.00180376
0.00208085
0.00127899
0.000971279
0.000919964
0.00166708
0.00262105
0.000412232
0.000241439
0.000322501
0.00054701
0.000596772
0.000657085
0.000780916
0.000162939
5.91221e-05
7.53725e-05
0.000201301
0.00024307
0.000170908
0.000189112
0.000314809
0.00279097
0.000666907
0.00258158
0.00138265
0.00090398
0.00289553
0.000493314
0.00168492
0.00122905
0.00262325
0.000294846
0.000432556
0.000708775
0.00109624
0.00224734
0.00103461
0.000657269
0.000945258
0.00116671
0.00253455
0.00287266
0.00180325
0.00176889
0.000975508
0.000914773
0.000796004
0.001477
0.00189382
0.000170239
0.000257119
0.000160634
0.000345967
0.000535584
0.000585179
0.000656657
0.000942394
0.000300233
0.000123618
6.75872e-05
0.00013221
0.000194961
0.000239914
0.000174239
0.000171576
0.000324873
0.00257635
0.000896548
0.00243261
0.00109462
0.000758484
0.00273627
0.00102227
0.000754991
0.00105692
0.00279944
0.000668372
0.00100724
0.000698354
0.000832592
0.00252378
0.000665206
0.000722047
0.000582054
0.00104272
0.00164115
0.00203929
0.000673318
0.000603794
0.000913997
0.000478779
0.000863562
0.00204876
0.00275667
0.00104974
0.00167957
0.000915133
0.000888834
0.000799073
0.000671008
0.00127096
0.001448
0.000275634
0.000195434
0.00020632
0.000139233
0.000385158
0.000540873
0.000538141
0.000656107
0.000995001
0.000285024
0.000223418
0.000102325
0.000181363
7.96693e-05
0.000212707
0.000243543
0.00016478
0.00015304
0.000325071
0.00247964
0.000947541
0.00238532
0.00087889
0.000853637
0.00231742
0.000950889
0.000771332
0.000355026
0.00275311
0.000940068
0.000727809
0.0010553
0.000963268
0.00265739
0.000631363
0.000561975
0.000677551
0.00128712
0.00112112
0.00239672
0.000296918
0.000366587
0.000594265
0.000518764
0.00128372
0.00129356
0.00229135
0.00055464
0.00053018
0.000399343
0.000828219
0.000695571
0.00122705
0.0022419
0.00263114
0.000506581
0.00067507
0.00140456
0.000839661
0.000868506
0.000728877
0.000989671
0.00121788
0.000887037
0.000581346
0.000252824
0.000236146
0.00018561
0.000159296
0.000390606
0.000541669
0.000493413
0.000628432
0.000806773
0.000224182
0.000212416
0.000190558
0.000101109
0.000219299
0.000114529
0.000213144
0.000273998
0.000150914
0.000140462
0.000326009
0.00251836
0.000665755
0.00232471
0.00101594
0.00082224
0.0024205
0.000775626
0.000542263
0.000843551
0.00231605
0.000855652
0.000763567
0.000790617
0.000621397
0.00291919
0.00102351
0.000646746
0.000867086
0.00062656
0.00138211
0.00273634
0.00127598
0.0010779
0.000809877
0.000510749
0.000979145
0.00149087
0.00243313
0.000752339
0.00120514
0.000426131
0.00105703
0.0011723
0.00151377
0.00160842
0.002166
0.000546315
0.00125164
0.000819505
0.000802027
0.000847891
0.000629013
0.000844587
0.00201868
0.00272388
0.00055152
0.000544439
0.000688746
0.000985339
0.000850616
0.000914435
0.000798982
0.00123414
0.00102127
0.00112658
0.000567799
0.000431966
0.000247138
0.000234274
0.000155828
0.000172338
0.000353094
0.00051824
0.000462241
0.000592533
0.000641353
0.000229204
0.000100918
0.000182445
0.000183133
0.000109794
0.000237831
8.51734e-05
0.000238325
0.000290314
0.000149291
0.00013518
0.000313726
0.00241745
0.000677793
0.00229368
0.000532157
0.000692034
0.00242292
0.000681396
0.000901921
0.000905505
0.00242705
0.000634561
0.000655033
0.000784606
0.000882694
0.00241202
0.00103468
0.000732108
0.00072926
0.000876027
0.000735215
0.00269689
0.00139065
0.00129089
0.000874887
0.000616537
0.000963631
0.00113724
0.00243782
0.00101561
0.00115549
0.000565455
0.00020793
0.000487598
0.00133075
0.00126083
0.00257063
0.000547239
0.000265706
0.00117703
0.000328122
0.00062981
0.00112242
0.00152101
0.00168767
0.00245575
0.000758561
0.000536662
0.000763223
0.00113961
0.00105472
0.00066681
0.000336268
0.000625196
0.00139624
0.00215915
0.000385818
0.000528806
0.000652442
0.000450079
0.000435005
0.000896119
0.00094557
0.000900285
0.000971276
0.000975929
0.000722701
0.000502793
0.000516261
0.000332829
0.000221332
0.000207566
0.000201641
0.000198563
0.000302122
0.000491646
0.000413425
0.00054413
0.00056546
0.00028198
0.000206348
0.000135183
0.000123333
0.000167573
0.000115928
0.000226873
9.60063e-05
0.00020569
0.000292384
0.000161369
0.00013668
0.000337989
0.00238569
0.000486463
0.00227353
0.000595314
0.000725174
0.00240119
0.00048066
0.00029456
0.000606786
0.00240104
0.000590642
0.00060393
0.000506667
0.000779063
0.0024545
0.000960306
0.000663141
0.000526694
0.000851174
0.000698974
0.00228565
0.000977772
0.0010745
0.00081309
0.000614166
0.000548754
0.00101243
0.00263284
0.00190264
0.000778479
0.000918656
0.000715194
0.000893144
0.00183702
0.00113907
0.00266823
0.000838257
0.000577767
0.000754964
0.000636828
0.000483818
0.00129029
0.00120309
0.00227657
0.0027971
0.000830941
0.000417327
0.000541644
0.00068679
0.0013981
0.0006799
0.00092297
0.00146786
0.00220752
0.0024323
0.00111248
0.000584199
0.000650161
0.00107771
0.00101472
0.00109995
0.000889496
0.000764969
0.00120197
0.00120069
0.00184177
0.00113105
0.000465693
0.000617463
0.000584428
0.000426481
0.000560562
0.000769259
0.00093612
0.00119236
0.00100533
0.00111201
0.000592091
0.000430969
0.000372006
0.000489913
0.000328051
0.000228257
0.000195154
0.000227894
0.000232251
0.000244878
0.000451565
0.000368372
0.00055001
0.000525091
0.000386617
0.000266239
0.000196133
0.000177712
9.73056e-05
0.000161056
0.000117802
0.000199526
0.00013825
0.000314679
0.000276056
0.00015967
0.000143896
0.000309005
0.00239884
0.000474224
0.00230155
0.000379069
0.000444535
0.00235154
0.000407736
0.000394345
0.000652392
0.0023756
0.000288813
0.000365463
0.000433866
0.000745872
0.002263
0.000804305
0.000343723
0.000418512
0.000567328
0.000799168
0.00248409
0.000584009
0.000555741
0.000726631
0.00077954
0.000606174
0.00115417
0.00252069
0.000629187
0.000789216
0.000891608
0.000654689
0.000898047
0.000591136
0.00143929
0.00278011
0.00117834
0.00103811
0.000923662
0.00109833
0.000719024
0.00109358
0.00161031
0.00106122
0.00299075
0.000499565
0.000343339
0.000638505
0.000863229
0.00052247
0.00154166
0.00106732
0.00116735
0.00196046
0.00269983
0.000712671
0.000430756
0.000229417
0.000701511
0.000898139
0.000675597
0.000813194
0.00216089
0.00121972
0.00279982
0.00250044
0.000690271
0.000875269
0.000343876
0.000528483
0.000522747
0.00121884
0.00211535
0.00119381
0.00143656
0.00104768
0.00153132
0.00179179
0.000605264
0.000925927
0.000490434
0.00065313
0.000376434
0.000365754
0.00059875
0.000512477
0.000956113
0.00148505
0.00110485
0.000982098
0.000463358
0.000403043
0.000384842
0.000341795
0.00049121
0.000317117
0.00024117
0.000217374
0.0001949
0.000265581
0.000323507
0.000395429
0.0003462
0.000557082
0.000502569
0.000499184
0.000363904
0.000248086
0.000186544
0.000211723
0.000124417
0.000162881
0.000117253
0.00016803
0.000143804
0.000208394
0.000236593
0.000119491
0.000155942
0.000283548
0.00232779
0.00043917
0.00224583
0.000341434
0.000501929
0.00233032
0.000381917
0.000188392
0.000721734
0.00214225
0.000439953
0.000352164
0.00040671
0.000600905
0.00238879
0.000600681
0.000446596
0.000269595
0.000568524
0.000706431
0.00237807
0.000640315
0.000650025
0.000535161
0.00041708
0.000617407
0.000895065
0.00243347
0.00100787
0.000727205
0.000486306
0.000780468
0.00078822
0.000893922
0.000445616
0.0025927
0.000572738
0.000599487
0.000912358
0.000726724
0.00101494
0.000585915
0.000753403
0.00115559
0.00277245
0.000738058
0.000725402
0.00124709
0.00105828
0.00105755
0.000959271
0.00144921
0.00124237
0.000891386
0.00314971
0.000528591
0.000371427
0.000532201
0.000704308
0.000872793
0.000760571
0.000535848
0.00190385
0.00141901
0.000987949
0.00279226
0.000262316
0.00104073
0.000340329
0.000380846
0.000622428
0.000734843
0.000644378
0.00112124
0.00101315
0.00158629
0.00302603
0.00256413
0.00045973
0.000684004
0.00033628
0.000458531
0.000698529
0.000608325
0.00126268
0.00197171
0.00141867
0.00088554
0.00131186
0.00178179
0.0026195
0.00061734
0.000539141
0.000769069
0.000567599
0.000757629
0.000518224
0.00032901
0.000605933
0.000481485
0.000762214
0.00163142
0.00120491
0.000984567
0.000735372
0.000424803
0.000367372
0.00034396
0.000329638
0.000503784
0.000287978
0.000264731
0.000226444
0.0002201
0.000309455
0.000456921
0.000321607
0.00035412
0.000552456
0.000468611
0.000435467
0.000316645
0.00026682
0.000212099
0.000177372
0.000211984
0.000142233
0.000174945
0.000118085
0.000154238
0.000195041
0.000167643
0.000227231
9.84009e-05
0.000171682
0.000369876
0.00221812
0.000416171
0.00216361
0.000262435
0.000342844
0.00219067
0.000389158
0.000270373
0.000434684
0.00233907
0.000471969
0.000389196
0.000286193
0.000679541
0.00231247
0.000523453
0.000499483
0.000495585
0.00061374
0.000530518
0.00242149
0.000364992
0.000424616
0.000605396
0.000434639
0.000355648
0.000578082
0.00226842
0.000695706
0.000543415
0.000428743
0.000562354
0.0003686
0.000709219
0.000703943
0.00249613
0.00079503
0.000765945
0.000707431
0.000662251
0.000743869
0.000815753
0.00082323
0.000743513
0.00239022
0.000850341
0.000910517
0.000638245
0.000787335
0.00146274
0.00092306
0.000855819
0.000922627
0.00115092
0.00284067
0.000935496
0.00125718
0.0010785
0.00094374
0.00152899
0.00144227
0.0019187
0.000945119
0.00163838
0.00088864
0.00313318
0.00109717
0.00085494
0.00134537
0.000639824
0.000930108
0.000348641
0.00113673
0.00160996
0.000403422
0.00135567
0.00175975
0.00293544
0.000533469
0.000965453
0.000830446
0.000397083
0.000192793
0.000658636
0.00120068
0.000703205
0.00122095
0.00102371
0.00109769
0.00237837
0.00295316
0.000393411
0.000455935
0.000779733
0.000319103
0.00060836
0.000747914
0.000568562
0.00110042
0.00138618
0.00185599
0.00133945
0.00153697
0.00179884
0.00143989
0.000770732
0.000526209
0.000526307
0.000762261
0.000660775
0.000677124
0.000771347
0.000351826
0.000656763
0.000695985
0.000674507
0.00180974
0.00132624
0.000985612
0.000796463
0.000350873
0.000599436
0.000390594
0.000320246
0.000357517
0.000517618
0.000249177
0.000230573
0.000249642
0.000249593
0.000351321
0.00062493
0.000294107
0.000366076
0.000524037
0.000448911
0.000364357
0.000420379
0.000282069
0.000147375
0.000181124
0.000156375
0.000157526
0.000152628
0.00019044
0.000114577
0.000181191
0.000227221
0.000197539
0.000195081
0.000161407
0.000190273
0.000408976
0.00213746
0.000286361
0.00215177
0.000348797
0.000366961
0.00222554
0.000513056
0.00023074
0.000440442
0.00225558
0.000487697
0.000402025
0.000297325
0.00060682
0.00238096
0.000437625
0.0003017
0.000398164
0.000699035
0.000449507
0.00232805
0.000547779
0.000342581
0.000386522
0.000313835
0.000534804
0.000761764
0.00240819
0.000282185
0.000362133
0.00027776
0.000364763
0.000289573
0.000217809
0.000699209
0.00229584
0.000446357
0.000425726
0.000574597
0.000434388
0.00035597
0.000523238
0.000701521
0.00112004
0.00261333
0.000490681
0.000547797
0.00054509
0.000546459
0.00106293
0.000682339
0.00106068
0.000821773
0.0010661
0.00244469
0.000592463
0.000721206
0.00082854
0.000603394
0.000794084
0.00134856
0.000673563
0.00110979
0.00112037
0.000791545
0.00291083
0.000724196
0.00093577
0.00121519
0.000902232
0.00110587
0.00108732
0.00117988
0.000993554
0.00107253
0.00125095
0.000855058
0.00315608
0.000503513
0.000806708
0.000707886
0.000671327
0.000505689
0.000262078
0.000802563
0.000860221
0.00191118
0.00120238
0.00179448
0.00158867
0.00319353
0.000674546
0.000336366
0.000788892
0.000357329
0.000393473
0.000675651
0.000566857
0.0013777
0.00167197
0.000617377
0.00387111
0.0017907
0.00281253
0.00339457
0.00110742
0.000702197
0.000419885
0.000502338
0.000467533
0.00059986
0.000570571
0.000961827
0.000771931
0.00116949
0.00186791
0.00183458
0.00153748
0.00163728
0.00212332
0.000767344
0.00064349
0.000590684
0.000523661
0.000802962
0.000633223
0.000656806
0.000231003
0.000239131
0.000592478
0.000670626
0.000699149
0.00163035
0.00124761
0.00106937
0.00095318
0.000259973
0.000407137
0.000550891
0.000410364
0.000290227
0.000397176
0.000471528
0.000240832
0.000323667
0.000280518
0.000309261
0.000362947
0.00080556
0.000338732
0.000346642
0.000464094
0.00042824
0.000152761
0.000291605
0.000421942
0.000243587
0.000172486
0.000166234
0.000130365
0.000132712
0.00016034
0.000195952
0.000150657
0.000249409
0.000296897
0.000133557
0.00022091
0.000196647
0.000200915
0.000429683
0.00218808
0.00060415
0.00202956
0.000167721
0.000432111
0.00218947
0.000488693
0.000130314
0.000491488
0.00220704
0.000391892
0.000295273
0.000227004
0.000552037
0.00227539
0.000464692
0.000393945
0.000238765
0.000432602
0.00070187
0.00222867
0.000419045
0.000336261
0.000566801
0.000525543
0.000607165
0.000396091
0.00227623
0.00040909
0.000436336
0.000398616
0.000503285
0.00031753
0.000407375
0.000604448
0.00242033
0.00067784
0.000432976
0.000599287
0.000447486
0.000318229
0.000373256
0.000528002
0.000556384
0.00227474
0.000616751
0.000652097
0.000427152
0.000453737
0.000448648
0.000573535
0.000712291
0.000732141
0.000964987
0.00256596
0.000602551
0.00073009
0.000739266
0.000565399
0.000593006
0.000769757
0.000937746
0.00092558
0.000936744
0.000796478
0.00254302
0.000817002
0.000809593
0.000651005
0.000744565
0.000632133
0.000738145
0.000877562
0.00121869
0.000969028
0.001231
0.000879992
0.0030612
0.000752078
0.000722457
0.000889744
0.00094481
0.0010744
0.00121704
0.00117276
0.00160037
0.00134449
0.00112589
0.00100486
0.000958668
0.00316147
0.000550764
0.000418199
0.000438901
0.0005087
0.000282979
0.000655358
0.000741512
0.000670463
0.000785693
0.000792221
0.000609152
0.0016993
0.00120885
0.0031681
0.000863706
0.000508883
0.000484282
0.00036029
0.000436054
0.000375989
0.000719591
0.00118348
0.000827248
0.00155164
0.00127618
0.00112277
0.00193271
0.00287851
0.00324638
0.0010413
0.00108107
0.000780044
0.000630773
0.000714289
0.000691337
0.000653275
0.000723326
0.00042459
0.000170493
0.000758019
0.00199116
0.00186615
0.00112979
0.00174606
0.00445304
0.000534196
0.000752074
0.00060633
0.000499942
0.000606065
0.000814611
0.000644102
0.000560051
0.000590556
0.00038356
0.000584487
0.00064153
0.00075226
0.00123269
0.000986195
0.00109868
0.000929896
0.000223162
0.000387581
0.000320276
0.000569608
0.000406202
0.000274786
0.000382574
0.000341269
0.000256154
0.000329516
0.000319086
0.000362366
0.000346998
0.000907065
0.000470015
0.000307958
0.000422161
0.000395516
5.25243e-05
0.000166054
0.000274058
0.000383421
0.0002035
0.000237168
0.000162821
0.000100967
0.000143059
0.00016708
0.000182531
0.000139516
0.000340736
0.00036134
0.000266833
0.000254378
9.8493e-05
0.00021274
0.000421649
0.002213
0.000396036
0.00201057
0.00025219
0.00053415
0.00209047
0.000575697
0.000284681
0.00042238
0.00221338
0.000527002
0.000600587
0.000420262
0.000456367
0.0022867
0.000381598
0.000413456
0.000422628
0.000509707
0.000464658
0.00233234
0.000533022
0.000510107
0.000382961
0.000205012
0.000525937
0.000549014
0.00238765
0.000507994
0.000211226
0.00034982
0.00058792
0.00043016
0.000257076
0.000502515
0.00232537
0.000613417
0.000371976
0.000146231
0.0004401
0.000498481
0.000499761
0.000450744
0.000587238
0.00233085
0.000626769
0.000413759
0.000378896
0.000447106
0.00046876
0.000464117
0.000361925
0.000629105
0.000599107
0.00240223
0.000578858
0.000669719
0.000624105
0.000425365
0.00035169
0.000471892
0.000489576
0.000642491
0.00057947
0.000863681
0.00251027
0.000550607
0.000768694
0.000884822
0.000720201
0.000738954
0.000784991
0.000658632
0.000984368
0.000888335
0.000605996
0.000859491
0.00250636
0.00110815
0.0010193
0.00105564
0.00076671
0.000666189
0.000857143
0.000741496
0.000993576
0.000519062
0.000908481
0.00121037
0.000980253
0.00291967
0.000454335
0.000596739
0.000535015
0.000732949
0.000820701
0.00118371
0.00132834
0.0010353
0.0010389
0.00170912
0.00120496
0.00141363
0.00124397
0.00299854
0.000524673
5.93721e-05
0.000121121
0.0002208
0.000348719
0.000482915
0.000845593
0.000282708
0.00043292
0.000995236
0.00199326
0.00298499
0.00300871
0.000899319
0.00291007
0.00129959
0.000922627
0.00132469
0.000619968
0.000464156
0.000560238
0.000622697
0.000893327
0.00141392
0.000783022
0.00126517
0.000559252
0.00244652
0.0017945
0.00268378
0.00293254
0.000793368
0.000874754
0.00107578
0.000667978
0.000550847
0.000515477
0.000619826
0.000960771
0.000611591
0.000672484
0.000813678
0.000343121
0.00160207
0.00144303
0.00176297
0.00156247
0.00372877
0.000327188
0.000422542
0.000865995
0.000618249
0.000415337
0.000580656
0.00080647
0.000709417
0.000405388
0.000264454
0.000358538
0.000606595
0.000607485
0.000859348
0.00102346
0.000908543
0.00100295
0.000804243
0.000146308
0.000205198
0.000359745
0.000423069
0.000393398
0.000372118
0.000301836
0.000411397
0.000315168
0.000379136
0.000344079
0.00037495
0.000409078
0.000395608
0.00080257
0.0005866
0.000243684
0.000415004
0.000403619
0.00012574
7.83064e-05
0.000137862
0.000264174
0.000388693
0.000220624
0.000206742
0.000150481
9.07261e-05
0.000141396
0.000174526
0.000204031
0.000107216
0.000411567
0.000463687
0.000252827
0.000139145
7.39046e-05
0.000225198
0.000367846
0.00218678
0.000273483
0.00205194
0.000278153
0.000321901
0.00198041
0.0004007
0.000308495
0.000417824
0.00210378
0.000441234
0.000346868
0.000148514
0.000572939
0.00224802
0.000418607
0.000151657
0.000585154
0.000257291
0.000444352
0.00224842
0.000234711
0.000367829
0.000408378
0.000492929
0.000449112
0.000545619
0.00222158
0.000690305
0.000388296
0.00049145
0.000354266
0.000430003
0.000476474
0.000519242
0.00238295
0.000369259
0.000355249
0.000616085
0.000407973
0.000320386
0.000249142
0.000385177
0.000601684
0.00233728
0.000490299
0.000290728
0.000277043
0.000506116
0.000279762
0.00041144
0.000380867
0.000665455
0.000516527
0.00237488
0.000631866
0.000304058
0.000257903
0.000374494
0.000496976
0.000376187
0.000310408
0.000356179
0.000358516
0.000694371
0.00241175
0.000538499
0.000645725
0.000510276
0.000447271
0.000452032
0.00047615
0.000580394
0.000307839
0.000628442
0.000655689
0.000851857
0.00248475
0.000633195
0.000453871
0.000671608
0.000485048
0.000589656
0.000614637
0.000696679
0.000929907
0.0010937
0.000783351
0.00051982
0.000929252
0.00255429
0.00101839
0.000353084
0.000808658
0.00077609
0.000554928
0.000491741
0.000906401
0.000803406
0.000973978
0.000893971
0.000864875
0.00143923
0.000749653
0.00287709
0.000750687
0.000452715
0.000227965
0.000420322
0.000589359
0.00060602
0.000892447
0.000950663
0.00106624
0.00163366
0.000880553
0.00134216
0.00106687
0.00134909
0.0032829
0.000360654
0.000285085
0.000251131
0.000234096
0.00030624
0.000306708
0.000543293
0.000628755
0.000263006
0.000963183
0.00124462
0.00135675
0.00188344
0.00243352
0.000463288
0.00269801
0.00121536
0.00158711
0.00125717
0.00168059
0.000590319
0.000876971
0.000705686
0.000677427
0.000847658
0.000902207
0.000851106
0.000795849
0.000871615
0.00162664
0.00170606
0.00291383
0.00346979
0.000323786
0.000486293
0.000733938
0.00122214
0.000829798
0.000673256
0.000454641
0.000394951
0.000735857
0.00045448
0.000583974
0.000765795
0.000628323
0.000784246
0.00101197
0.00122691
0.00123482
0.00344898
0.000286774
0.000298046
0.000368772
0.000734052
0.000606846
0.000474571
0.000545962
0.00069051
0.000624222
0.000543984
0.000349498
0.000412048
0.000567206
0.000608909
0.00139493
0.000919375
0.000683631
0.00100471
0.000775108
0.000199091
9.0905e-05
0.000204248
0.000262668
0.000507205
0.000487468
0.000347121
0.000288275
0.000356181
0.000320604
0.000323747
0.000369652
0.000423887
0.00048368
0.000433435
0.00069339
0.000596986
0.000191328
0.000390207
0.000374621
0.000163054
0.000186113
8.13073e-05
8.41554e-05
0.000215006
0.000373017
0.000225676
9.36588e-05
0.00014517
0.000104721
0.00015672
0.000180048
0.000213264
0.000121258
0.000459693
0.000532999
0.000253564
6.70025e-05
7.22462e-05
0.000236459
0.000237393
0.00211257
0.000470941
0.00207624
0.000457118
0.000298464
0.00202277
0.000297711
0.000298795
0.00045445
0.00199616
0.000324633
0.000376728
0.000315702
0.000447419
0.00216329
0.000637727
0.00042628
9.2512e-05
0.000441971
0.000387724
0.00219663
0.000321728
0.000322562
0.000516942
0.000364655
0.000461536
0.000520901
0.00222454
0.000490091
0.00034568
0.000290763
0.000458556
0.00044033
0.000198729
0.000644533
0.00227507
0.000530656
0.000438191
0.000461458
0.000497136
0.000322171
0.000406802
0.000377902
0.000574113
0.00239081
0.00039986
0.000387956
0.000497445
0.000593533
0.000664254
0.000387795
0.000318499
0.000514468
0.000604283
0.00235061
0.000533558
0.000308122
0.000387146
0.000379516
0.000528089
0.000489068
0.000319187
0.000558202
0.000581663
0.000433861
0.00233571
0.000407688
0.00031892
0.000376919
0.000507412
0.000377401
0.000413581
0.000374528
0.000308005
0.000488164
0.000393175
0.000476638
0.00236777
0.000630826
0.000629514
0.000385515
0.000493824
0.000349208
0.000453112
0.000386215
0.000552534
0.000469127
0.000735767
0.000636809
0.000897198
0.00252186
0.00053057
0.000387152
0.000689335
0.000663575
0.000495041
0.000382419
0.000723267
0.000810308
0.00104573
0.000778099
0.000833789
0.000778959
0.000730254
0.00276873
0.000419967
0.000371998
0.000383512
0.00066502
0.00053523
0.000980774
0.000844023
0.000804858
0.000888348
0.000714774
0.000861496
0.000983152
0.000916154
0.00094866
0.00273725
0.000662038
0.000317989
0.000367473
0.000628385
0.000475389
0.000675132
0.000532791
0.000528205
0.000648807
0.000603459
0.000700047
0.000685271
0.0014762
0.000467866
0.00123128
0.00308657
0.000593055
0.000523528
0.000645328
0.000536001
0.000301224
0.000186177
0.000492645
0.000329836
0.00024304
0.000553458
0.000635015
0.00072181
0.000991144
0.00206409
0.00181052
0.00102719
0.00243369
0.000988531
0.000501825
0.00140499
0.00104611
0.00115608
0.000659564
0.00118594
0.000996953
0.000763096
0.00114285
0.000588674
0.000690845
0.000646834
0.00107947
0.000844785
0.00155774
0.00238823
0.00374234
0.000453695
0.00103622
0.000553274
0.000994135
0.00133267
0.0014483
0.000957119
0.00048979
0.000332624
0.000625861
0.000467746
0.000542277
0.000455802
0.00121522
0.000989088
0.00146029
0.00114547
0.00156537
0.0032309
0.000547893
0.000199463
0.000288769
0.000347317
0.000714734
0.000451903
0.000390441
0.000524948
0.000611773
0.000730582
0.000952884
0.000389934
0.000431246
0.000484555
0.000803908
0.0019422
0.000792631
0.000683299
0.000954661
0.00089175
0.000489225
0.000226797
5.71864e-05
0.000193111
0.000190271
0.000468356
0.000586996
0.000375867
0.000297813
0.000336359
0.000288695
0.000348851
0.000401059
0.00049592
0.00060255
0.000660472
0.000650014
0.000573056
0.000186305
0.00036548
0.000381571
0.000223165
0.000169785
0.000200339
9.09304e-05
6.44965e-05
0.00018763
0.000350489
0.000244408
9.5743e-05
0.000156746
0.000129518
0.000163099
0.0001827
0.000226196
0.000130524
0.000504036
0.000531292
0.000268919
0.000133731
7.89069e-05
0.000248529
0.00015674
0.00211584
0.0003513
0.00199245
0.000283971
0.000345625
0.00202675
0.000247842
0.000193124
0.000319855
0.00199809
0.000244155
0.000216178
0.000327976
0.000399888
0.00197691
0.000165396
0.000281377
0.000369729
0.000748737
0.000288034
0.00218833
0.000425106
0.00035315
0.000692613
0.000256773
0.000704839
0.000337346
0.00218721
0.000401176
0.000212859
0.000457604
0.000687367
0.000290458
0.000321221
0.000627994
0.0022407
0.000585905
0.000340376
0.000299994
0.000290798
0.000443061
0.00031071
0.000443642
0.00047081
0.00235374
0.000438674
0.000560921
0.00052561
0.000532857
0.000380293
0.000457403
0.000357071
0.000367895
0.000634421
0.00234609
0.000482971
0.000397
0.000424383
0.000463183
0.000415497
0.000475166
0.000389062
0.000433777
0.000505523
0.000511908
0.00227556
0.000433423
0.000262375
0.000262249
0.000463588
0.000377673
0.00029346
0.000371085
0.000492996
0.000383881
0.000400013
0.000612411
0.00233699
0.000265916
0.000403971
0.000319331
0.000565732
0.000469396
0.000334645
0.000280565
0.000353365
0.000590353
0.000300126
0.000440379
0.0006679
0.00241093
0.000503145
0.0002223
0.000519289
0.000512782
0.000373697
0.000313078
0.000583054
0.000580294
0.000328203
0.000692889
0.000776503
0.000954402
0.00087252
0.00254333
0.000500513
0.000454008
0.00062653
0.00065404
0.000758232
0.000645828
0.000579416
0.000767136
0.000958005
0.000814714
0.000915032
0.000925375
0.000850724
0.000867651
0.00271396
0.000966359
0.000767963
0.00037332
0.00109422
0.000532625
0.000301985
0.000735797
0.00088329
0.000935992
0.000889819
0.0011907
0.00122459
0.000911011
0.000842623
0.000976833
0.0026256
0.000718745
0.000453496
0.000456159
0.000525601
0.000626771
0.000506361
0.00051483
0.000446929
0.000461843
0.000656242
0.000598391
0.000821353
0.00139783
0.000699148
0.00143243
0.000613657
0.00276977
0.000961142
0.000793984
0.000674694
0.000444096
0.000859068
0.000474341
0.000602059
0.000351664
0.000399361
0.000442322
0.000323556
0.000495956
0.00100593
0.00181541
0.00138128
0.00209413
0.00106268
0.00215208
0.000425822
0.00134845
0.000490146
0.00069475
0.00147819
0.000924256
0.000728862
0.000984673
0.000996046
0.000832956
0.00108063
0.000478055
0.000403325
0.000608055
0.00104435
0.000976117
0.00150045
0.00191784
0.00342015
0.000446171
0.000663012
0.000489045
0.000449925
0.00062474
0.000952827
0.00179098
0.00100554
0.000875594
0.000892572
0.000784006
0.000576743
0.000650623
0.000703847
0.00149783
0.00173368
0.00140702
0.000942597
0.00200336
0.00265492
0.000482965
0.000381256
0.000267068
0.000233087
0.000298438
0.000844818
0.000525606
0.000650036
0.000539875
0.000388505
0.000595137
0.000566091
0.000320215
0.000505338
0.00033436
0.000686953
0.00204622
0.000817421
0.000805235
0.000761904
0.0009033
0.000394809
0.000286467
0.000247546
8.07748e-05
0.00020951
0.000279056
0.000382151
0.000444173
0.000380753
0.000314619
0.000538587
0.000257551
0.000394523
0.000432085
0.000553828
0.000718863
0.000666246
0.000649835
0.000470746
0.000191721
0.000373766
0.000367312
9.59791e-05
0.000246846
0.000169371
0.000147956
8.19329e-05
7.07143e-05
0.000160447
0.000311871
0.000268028
5.40525e-05
0.000168371
0.000108224
0.000152665
0.00018073
0.000257028
0.000141952
0.00052283
0.000525558
0.000259448
0.000214425
8.45933e-05
0.000247744
0.000197236
0.00204743
0.000387318
0.00199633
0.000431965
0.000490531
0.00199763
0.000546723
0.000462382
0.000432829
0.00206623
0.000509967
0.000512383
0.000314727
0.00046149
0.00199729
0.000341706
0.000210311
0.000332932
0.000529045
0.000715367
0.00194461
0.000392946
0.000136365
0.000339246
0.000389456
0.000276282
0.000191866
0.00215271
0.000350698
0.000295255
0.000325118
0.000133044
0.000473758
0.000195785
0.000529052
0.00216869
0.000469782
0.000302792
0.000384488
0.000423908
0.000330432
0.000296987
0.000313715
0.000712491
0.00218123
0.000619533
0.000578263
0.000402701
0.000555801
0.000419029
0.000542494
0.000347884
0.00047415
0.000420044
0.00224934
0.000528802
0.000553547
0.000627111
0.000425751
0.000600827
0.000310516
0.000317186
0.000354823
0.000402209
0.000565204
0.00233674
0.000414043
0.000278139
0.000362063
0.000399912
0.000368416
0.000340436
0.000176512
0.00046627
0.00033455
0.000635183
0.000526442
0.00232685
0.000333362
0.00036494
0.000204751
0.00047745
0.000435664
0.000426571
0.000343339
0.000374376
0.000573779
0.000367444
0.000487711
0.000648838
0.00239921
0.000503283
0.000430956
0.000350316
0.000504371
0.000497557
0.000258801
0.000347513
0.000482757
0.000382976
0.000528048
0.000468118
0.000535017
0.00079161
0.00242454
0.000852779
0.000438041
0.000579131
0.000379994
0.000402332
0.000404484
0.00047015
0.000480573
0.000461388
0.000348951
0.000906584
0.00077532
0.000553911
0.000674213
0.00250781
0.000734336
0.00091887
0.000724553
0.000538976
0.000621392
0.000482681
0.000431639
0.000981155
0.000766063
0.000825618
0.000938542
0.00130571
0.000947212
0.00056909
0.000977801
0.0025669
0.000688134
0.000390413
0.000523704
0.0010745
0.000438337
0.00041134
0.000984399
0.00101382
0.00104287
0.00118035
0.00121361
0.00110617
0.000951037
0.00083384
0.0015516
0.000845062
0.00259926
0.000934652
0.000121777
0.000251956
0.000140247
0.000489997
0.000219606
0.000328337
0.000529442
0.00057401
0.000842088
0.00067752
0.000702542
0.000872777
0.000656633
0.00107222
0.00135865
0.000460165
0.00258595
0.00028238
0.000230802
0.000639808
0.00062781
0.000266199
0.000609627
0.000440095
0.000829382
0.000543649
0.000412614
0.000390969
0.000577314
0.000721149
0.000926147
0.000822329
0.00116913
0.00134893
0.000913951
0.00224598
0.000613838
0.000615743
0.000600993
0.000810537
0.00123159
0.00108094
0.0012548
0.000788659
0.000828509
0.000873947
0.000824976
0.000420144
0.000911423
0.000402661
0.000578612
0.00115397
0.000960777
0.001088
0.00176535
0.00330826
0.000636289
0.000279106
0.000577119
0.000341685
0.000523071