/*--------------------------------*- C++ -*----------------------------------*\
  =========                 |
  \\      /  F ield         | OpenFOAM: The Open Source CFD Toolbox
   \\    /   O peration     | Website:  https://openfoam.org
    \\  /    A nd           | Version:  7
     \\/     M anipulation  |
\*---------------------------------------------------------------------------*/
FoamFile
{
    version     2.0;
    format      ascii;
    class       surfaceScalarField;
    location    "9";
    object      phi;
}
// * * * * * * * * * * * * * * * * * * * * * * * * * * * * * * * * * * * * * //

dimensions      [0 3 -1 0 0 0 0];

internalField   nonuniform List<scalar> 
54125
(
-0.000100675
-2.21207e-05
-9.9399e-05
-0.000340008
-8.80158e-06
0.00113482
-1.34083e-05
-4.79212e-05
-0.000778625
-8.91091e-05
-2.02103e-05
9.9202e-06
-0.000732465
0.000345082
0.0053925
-0.000105632
-4.29238e-05
0.000522454
-0.000287116
-1.50648e-05
0.0013479
2.66831e-06
-4.86635e-05
-0.000550767
-1.26522e-05
-4.4878e-05
-0.000741305
-8.51103e-05
-2.02575e-05
0.000115288
-0.00119698
0.000380063
0.00644999
-0.00031131
0.00056513
0.00307226
-0.00064393
0.000307498
0.00544182
-1.15526e-05
-0.000103682
0.000181394
-8.58522e-05
-4.1908e-05
0.000622497
-0.00025907
-2.38977e-05
0.00154575
3.56468e-05
-5.57594e-05
4.02196e-06
3.38927e-06
-4.70731e-05
-0.000551961
-1.25007e-05
-4.58208e-05
-0.000703241
-7.78947e-05
-2.04915e-05
0.000213674
-0.00156575
0.000339759
0.00504054
-0.000823551
0.000868535
0.00648533
-0.00109412
0.000402636
0.00649754
5.69845e-05
0.000505884
0.00300787
-0.000259871
0.000518018
0.00303575
-0.00059333
0.000300535
0.00547554
4.75713e-05
-0.000143781
0.000310351
-4.49272e-06
-9.78853e-05
0.000245253
-6.60355e-05
-4.45032e-05
0.000696638
-0.000210126
-3.15578e-05
0.00170954
5.73964e-05
-5.64433e-05
-0.00074928
3.27122e-05
-5.21477e-05
-2.36158e-05
3.67333e-06
-4.94558e-05
-0.000551999
-1.16634e-05
-4.67342e-05
-0.000665335
-6.76358e-05
-2.0714e-05
0.000302024
-0.00170076
0.000149429
0.00548772
-0.00110371
0.000578489
0.00639571
-0.00141185
0.000224239
0.00513403
-0.000171671
0.00118517
0.0062031
-0.000817071
0.000753083
0.00669208
-0.00104449
0.000323998
0.00662471
3.31626e-05
0.000380216
0.00240585
-0.000165307
0.000446569
0.00324013
-0.000218905
0.000524851
0.00296431
-0.000510818
0.000272163
0.00550407
4.12096e-05
-0.000131871
0.000463995
5.14511e-05
-0.000136739
0.000330466
8.22446e-06
-9.82633e-05
0.000294462
-3.55276e-05
-4.49626e-05
0.000733907
-0.000144939
-4.55956e-05
0.00183244
6.91898e-06
-5.30857e-05
-0.000887384
4.68877e-05
-5.15103e-05
-0.000796805
3.24193e-05
-5.34724e-05
-5.20186e-05
3.826e-06
-5.15752e-05
-0.000550984
-1.1069e-05
-4.75647e-05
-0.000627415
-5.88239e-05
-2.0984e-05
0.000381832
-0.001456
2.23261e-05
0.00504938
-0.00109157
0.00049255
0.00698404
-0.00154229
0.000168689
0.00544947
-0.000441761
0.00071498
0.00704804
-0.0010716
0.000394966
0.0064795
-0.00138332
0.000232439
0.00524042
5.82311e-06
0.000905819
0.0065793
-0.000584059
0.00084844
0.0065265
-0.000787516
0.000797849
0.00678684
-0.000988175
0.000212389
0.00688967
-8.87399e-06
0.000266313
0.00215096
-1.51351e-05
0.000248896
0.00267011
-3.92e-05
0.000423615
0.0033888
-0.000385221
0.000492598
0.00309357
-0.000405046
0.000307039
0.00545714
-6.77033e-05
-0.000101579
0.00013768
3.85883e-05
-0.000123831
0.000459387
5.35508e-05
-0.000136098
0.000347169
2.7284e-05
-9.58043e-05
0.000321846
2.82704e-06
-4.48649e-05
0.00071928
-2.0178e-05
-5.47918e-05
0.00184859
1.47038e-05
-4.68694e-05
-5.98747e-05
9.70127e-06
-4.83875e-05
-0.000900209
4.07511e-05
-5.15009e-05
-0.000839528
3.19875e-05
-5.45561e-05
-8.10251e-05
3.31704e-06
-5.35054e-05
-0.000548361
-8.85224e-06
-4.84313e-05
-0.000591116
-4.93616e-05
-2.12463e-05
0.00045244
-0.00133857
0.00012991
0.00530524
-0.0010857
3.35447e-05
0.00641881
-0.00138768
1.31346e-05
0.00488163
-0.000613798
0.000733575
0.00769759
-0.000994744
0.000383322
0.00669256
-0.00157493
0.000225129
0.00541595
-0.000116347
0.000819916
0.00702489
-0.00082929
0.000648066
0.00704017
-0.00105673
0.000391139
0.00659002
-0.00136286
0.00020926
0.00540585
9.34818e-05
0.000739792
0.00572457
-1.32162e-05
0.000748299
0.00667752
-0.000347032
0.00100857
0.00662361
-0.00113699
0.00084595
0.00690506
-0.000907686
0.000388589
0.00700372
-8.08581e-05
0.000166063
0.00229093
-7.72357e-06
3.34241e-05
0.00241275
7.21844e-05
0.000213246
0.00286184
0.00013307
0.000378887
0.00339672
-0.000139125
0.000459046
0.00308351
-0.000151476
0.000322393
0.00526604
-6.72387e-05
-6.79772e-05
-0.000312103
-2.44533e-05
-8.8297e-05
0.000136301
4.19067e-05
-0.000121985
0.000444119
5.31382e-05
-0.000129904
0.000360118
3.54556e-05
-9.05774e-05
0.00033542
3.72645e-05
-4.63969e-05
0.000664768
4.87162e-05
-6.25392e-05
0.00181305
-1.45103e-05
-3.45222e-05
-1.66997e-05
1.03372e-05
-4.23686e-05
-7.62308e-05
6.74621e-07
-4.89623e-05
-0.000903422
3.44003e-05
-5.19734e-05
-0.000876511
3.16064e-05
-5.53981e-05
-0.000110739
2.91119e-06
-5.53622e-05
-0.000544341
-6.73478e-06
-4.9373e-05
-0.000556254
-3.70151e-05
-2.14986e-05
0.000510954
-0.0015631
0.000193276
0.00414753
-0.00123455
0.000233878
0.00612393
-0.00131076
0.000113354
0.00511496
-0.00109541
0.000216424
0.00698494
-0.000960375
7.18391e-06
0.00639039
-0.00148668
5.28563e-05
0.00474052
-0.000203862
0.000898556
0.00779117
-0.000904383
0.000679173
0.00747683
-0.00102234
0.000233755
0.00664954
-0.00158903
0.000238196
0.00540393
6.79054e-05
0.000781099
0.00670463
-9.58992e-05
0.000753677
0.00700196
-0.000711903
0.000690388
0.00710579
-0.00102202
0.000321746
0.00636256
-0.00129967
0.000160021
0.00563782
0.000143395
0.000754597
0.00447523
5.61459e-05
0.000709356
0.00569964
0.000169278
0.000900617
0.00668838
-0.000152655
0.00112177
0.00663352
-0.000924187
0.00106724
0.00701146
-0.000759096
0.000415328
0.00719602
-6.28495e-05
5.90527e-06
0.00265458
3.04285e-05
-7.22956e-05
0.00234177
3.25433e-05
-1.71014e-05
0.00265246
9.1996e-05
0.000184058
0.00301781
0.000136006
0.000345167
0.00341005
-2.43343e-05
0.000405796
0.00306171
0.000211667
0.000284248
0.00481884
-2.99018e-05
-4.32287e-05
-3.68412e-05
-3.59411e-05
-5.81265e-05
-0.000295995
-1.5353e-05
-8.28623e-05
0.000113205
4.40775e-05
-0.000115373
0.00041991
4.62124e-05
-0.000120646
0.000375581
2.08826e-05
-8.49781e-05
0.000356029
5.68458e-05
-5.12954e-05
0.000589944
0.000138204
-6.97999e-05
0.00170763
2.41373e-06
-4.51485e-05
0.000411015
-1.60857e-05
-3.09013e-05
-1.20813e-05
1.00441e-05
-4.28511e-05
-9.23862e-05
-3.60917e-06
-4.96051e-05
-0.000902181
2.89795e-05
-5.18209e-05
-0.000909067
3.11598e-05
-5.61151e-05
-0.000141146
3.2118e-06
-5.72479e-05
-0.000539678
-4.70678e-06
-5.03106e-05
-0.000522735
-2.18559e-05
-2.1691e-05
0.000554501
-0.00169571
0.000155738
0.00345935
-0.00128511
0.000293264
0.00468048
-0.00141946
0.000113455
0.00414277
-0.00103331
0.000233835
0.00558161
-0.00109172
0.000204884
0.00616374
-0.00133512
0.000104275
0.00485913
-0.000652644
0.00056779
0.00722821
-0.00102313
0.000173165
0.00693771
-0.00101216
8.06227e-05
0.00635245
-0.00161603
0.000175795
0.00459172
1.34826e-05
0.000952258
0.00763038
-0.000185514
0.000783994
0.00777596
-0.00089768
0.000501745
0.00739462
-0.00100976
0.000458031
0.00641744
-0.00160986
0.000238669
0.00547545
0.000146452
0.000764746
0.00680947
4.09569e-06
0.000623361
0.006887
-4.40897e-05
0.000776362
0.00712935
-0.000666548
0.000717296
0.00722413
-0.00107099
0.000311479
0.0063579
-0.00115347
6.7525e-05
0.00596467
0.000117144
0.000738766
0.00413115
0.000201558
0.000724622
0.00428883
0.000261498
0.000829341
0.00554197
0.000177788
0.00098425
0.00674011
-0.000154351
0.00113785
0.00685326
-0.000881408
0.00109738
0.00718648
-0.000309599
0.000381845
0.00733544
0.000111926
-1.39266e-06
0.00234606
2.77119e-05
-7.68602e-05
0.00259549
7.00889e-05
-0.000154441
0.00239367
5.35339e-05
-3.7105e-05
0.00286417
0.000109788
0.000179209
0.0031202
0.000149235
0.000317644
0.00336985
0.000111781
0.000323677
0.00296734
0.000340817
0.000226285
0.00438995
-3.15608e-05
-2.40943e-05
-0.000286247
-1.70514e-05
-3.72694e-05
-5.67325e-05
-1.63903e-05
-5.74088e-05
-0.000295014
-2.074e-05
-7.63842e-05
9.13474e-05
4.35538e-05
-0.000106195
0.000390884
3.88064e-05
-0.000110472
0.000393428
1.09676e-05
-8.13225e-05
0.000378301
6.2984e-05
-5.89298e-05
0.000511383
0.000179325
-7.41294e-05
0.00158058
1.38456e-05
-5.75416e-05
0.00059731
-2.38011e-06
-3.95766e-05
0.00042207
-1.81092e-05
-3.1016e-05
-5.8072e-06
6.74447e-06
-4.28462e-05
-0.00010589
-1.06818e-05
-4.94929e-05
-0.000893827
2.43474e-05
-5.21922e-05
-0.000937338
3.07199e-05
-5.66855e-05
-0.000172428
3.82054e-06
-5.91203e-05
-0.000534689
-2.64501e-06
-5.11743e-05
-0.000490607
-8.23949e-06
-2.17899e-05
0.00058453
-0.0016768
4.06831e-05
0.00333407
-0.0010096
7.25984e-05
0.00438248
-0.00151795
0.000178557
0.00337928
-0.000837035
0.000325066
0.00527573
-0.0012123
0.000275522
0.004639
-0.00145517
1.43571e-05
0.00424846
-0.000807605
0.000270809
0.00589239
-0.00100081
0.000188875
0.0055753
-0.00114474
0.000159738
0.00624086
-0.00135565
0.000128895
0.00446985
-0.000305042
0.000890457
0.00676904
-0.000482593
0.000483199
0.00721526
-0.00100025
0.000225606
0.0068953
-0.000824032
0.00023064
0.00611188
-0.00175506
0.000130271
0.00460665
0.000304104
0.000989531
0.00740153
0.000179498
0.000796053
0.00744292
-0.000200779
0.000818517
0.00761588
-0.000828885
0.000721783
0.0072932
-0.001017
0.000529089
0.00607303
-0.00142284
0.00033477
0.00541005
4.93302e-06
0.000931671
0.00612646
0.000158404
0.000631313
0.00684467
0.000226653
0.000649136
0.00704907
-3.79915e-05
0.000793002
0.00726943
-0.000616157
0.000794334
0.00720308
-0.00111448
0.00033396
0.00632454
-0.000987798
9.09558e-05
0.00655191
0.000108303
0.000688381
0.00425529
0.000184443
0.000620932
0.0040781
0.00023254
0.000738174
0.00421755
0.000188815
0.000914316
0.00547662
0.00030669
0.00101628
0.00666477
-0.000137994
0.00113112
0.00710675
-0.000717471
0.00109492
0.00730265
-0.000238225
0.000385895
0.00752858
-7.22716e-05
0.000116818
0.00163973
2.78082e-05
-6.53546e-06
0.00223087
7.21593e-05
-9.4184e-05
0.00244668
7.68548e-05
-0.000190449
0.00244942
0.000104478
-3.04169e-05
0.00301287
0.00014195
0.000195781
0.00313891
0.000155024
0.000286303
0.00326317
0.000247907
0.000217736
0.00279097
0.000358506
0.000155916
0.00405485
-7.41265e-06
-1.66554e-05
0.000598253
-4.87957e-05
-2.52546e-05
-0.000251846
-2.51652e-05
-3.79149e-05
-6.91705e-05
2.71943e-06
-5.64071e-05
-0.000310966
-2.95042e-05
-6.8981e-05
7.29563e-05
4.41062e-05
-9.50302e-05
0.000355684
2.78697e-05
-9.89424e-05
0.000413898
-1.66e-05
-7.89119e-05
0.000418703
6.39672e-05
-6.98426e-05
0.000440484
0.000176421
-7.77479e-05
0.00147367
-4.50687e-06
-6.83413e-05
0.000522216
7.57745e-06
-5.06499e-05
0.000600806
-4.34186e-06
-3.87466e-05
0.000434143
-1.95112e-05
-3.16116e-05
2.46932e-06
1.1275e-06
-4.29294e-05
-0.000113581
-1.77832e-05
-4.95926e-05
-0.000878644
1.90193e-05
-5.20192e-05
-0.000961023
3.03911e-05
-5.73031e-05
-0.000204636
4.61738e-06
-6.09395e-05
-0.000529541
-1.21974e-06
-5.20133e-05
-0.000459164
1.1082e-06
-2.17687e-05
0.00060519
-0.00166061
-1.10096e-05
0.00325503
-0.00107646
0.000106915
0.00441698
-0.00155331
1.44795e-05
0.00335495
-0.000708956
0.000162823
0.00469846
-0.00098676
0.000174731
0.00416077
-0.00152107
0.000184053
0.00326113
-0.000671205
0.00034381
0.00504967
-0.000994173
0.000335898
0.00520871
-0.00126076
0.000143066
0.00462631
-0.0013972
-9.69978e-05
0.00438701
-0.000412067
0.000454804
0.00569334
-0.0007289
0.000266049
0.00606152
-0.000850044
0.000106828
0.005478
-0.000876441
0.000172884
0.00624928
-0.00145427
0.000120396
0.00404866
0.000121065
0.00115768
0.00633888
-4.24449e-05
0.000767864
0.00670632
-0.00041469
0.000524853
0.00712992
-0.000965864
0.000341459
0.00692146
-0.000931272
0.000121734
0.00603469
-0.00178786
0.000243911
0.00472775
-3.01566e-05
0.00138086
0.00665143
1.0719e-05
0.000955168
0.0073901
0.000227795
0.000858557
0.00740174
-0.000110186
0.000882737
0.00752712
-0.000765964
0.000842366
0.00712973
-0.000983458
0.000558343
0.00571843
-0.00131904
0.000313787
0.0054275
-0.000220449
0.00108911
0.00613529
-9.02272e-05
0.000843381
0.00618906
0.00010284
0.000658789
0.00696472
9.80457e-05
0.000605315
0.00732752
0.000216409
0.000850853
0.00730319
-0.00080738
0.00089629
0.00731014
-0.00118843
0.000428682
0.00645777
-0.000743069
0.000212852
0.00684391
-0.00029731
0.000709313
0.00431324
5.40247e-05
0.000526528
0.00432348
0.00037251
0.000561275
0.00395465
0.000161841
0.000691003
0.00435587
0.000275573
0.000933569
0.00538824
0.000149154
0.00102066
0.00676803
-0.00010817
0.00114683
0.00731804
-0.000344826
0.00104673
0.00723455
-0.00021839
0.000364064
0.00774141
-0.000179578
0.000251475
0.00144138
-0.000100053
8.16196e-05
0.00160283
-7.54506e-05
3.28287e-05
0.00215414
4.32065e-05
-0.000109327
0.00232507
0.000106264
-0.000188237
0.00247147
0.000137453
5.36644e-06
0.00310994
0.000117375
0.000222896
0.00311282
0.000105696
0.000221348
0.00313726
0.000331438
9.85707e-05
0.00258084
0.000290205
0.000146363
0.0037947
-2.91127e-05
-8.47848e-05
0.00142527
-3.24749e-05
-2.18577e-05
0.000634909
-4.05202e-05
-2.48119e-05
-0.00022877
-3.30458e-05
-3.88297e-05
-7.32133e-05
2.26779e-07
-5.44995e-05
-0.000324547
-3.85315e-05
-6.10496e-05
5.9724e-05
4.92728e-05
-8.26636e-05
0.000309151
1.93812e-05
-8.67554e-05
0.000432752
-3.04728e-05
-7.87368e-05
0.000462688
6.38716e-05
-8.28254e-05
0.00038047
0.00016735
-8.11049e-05
0.00138853
-2.49037e-05
-8.46411e-05
0.000576782
-8.53282e-06
-6.10156e-05
0.000541115
5.51012e-06
-5.03495e-05
0.000606899
-6.0354e-06
-3.85146e-05
0.000447081
-2.06369e-05
-3.25697e-05
1.27466e-05
-4.88694e-06
-4.30279e-05
-0.000115258
-2.4435e-05
-4.91476e-05
-0.00085708
1.21185e-05
-5.23348e-05
-0.00097811
3.00028e-05
-5.76331e-05
-0.000237945
4.70226e-06
-6.28364e-05
-0.00052342
1.60702e-07
-5.28457e-05
-0.000428247
9.60195e-06
-2.16197e-05
0.000617208
-0.00167944
6.17995e-06
0.00302099
-0.00125461
0.000163837
0.00377047
-0.00147683
-4.91962e-06
0.00318347
-0.000860075
0.000191725
0.00461389
-0.00101844
0.000113981
0.00434916
-0.001459
4.56526e-05
0.00324723
-0.000690251
0.000342888
0.00464343
-0.000912361
0.000240143
0.00455123
-0.00109068
0.000208595
0.00396615
-0.00165092
0.000255708
0.00325915
-0.000544919
0.000513082
0.00526532
-0.000714033
0.000285307
0.00508539
-0.000869681
0.000260791
0.00511063
-0.00126313
6.53667e-05
0.00485064
-0.00141321
-0.000112066
0.00445802
-0.000227048
0.000558683
0.00577142
-0.000340698
0.00034561
0.00591203
-0.000651401
0.000203941
0.00620112
-0.000947185
5.74397e-05
0.00557477
-0.000854894
0.00020326
0.00609003
-0.00168894
0.000115108
0.00383464
-0.000392387
0.00140007
0.00652689
-0.000361085
0.00102327
0.00645528
2.65476e-05
0.000746945
0.00668548
-0.000371576
0.000626677
0.00710609
-0.000871101
0.00033879
0.00680954
-0.0008853
0.000321421
0.00585903
-0.00171073
0.00036816
0.00475128
-0.000393983
0.00160799
0.00590259
-0.000314811
0.00129058
0.0065406
0.000122279
0.00101305
0.00721617
0.000202282
0.000939582
0.00724066
0.000189134
0.00101183
0.00738493
-0.00101337
0.000762211
0.00713185
-0.00106006
0.000526217
0.00537763
-0.000962802
0.000390653
0.00525658
-0.000403389
0.00119465
0.00596975
-3.84051e-05
0.000981816
0.00608929
0.00017482
0.000897953
0.00614758
7.47503e-05
0.000627694
0.00702943
0.000242883
0.000746169
0.0074649
-0.000163664
0.000986453
0.00752584
-0.000887901
0.000946298
0.00757226
-0.00105059
0.000690561
0.00668583
-0.000683821
0.000218632
0.00709071
-0.000304143
0.000685092
0.00407651
-0.000238489
0.000596574
0.00438163
-0.000103181
0.000475242
0.00443724
0.000267362
0.000400282
0.00402122
0.000314759
0.000636348
0.0044446
0.000310251
0.0008978
0.0053383
0.000313517
0.00105967
0.00665905
5.21779e-06
0.00115759
0.00730766
-8.84871e-05
0.000975624
0.00704292
-0.000175198
0.000440077
0.00776674
-3.17472e-05
0.000292709
0.00112827
-0.000142082
0.000219932
0.00141267
-6.85002e-05
7.85654e-05
0.00158507
3.59026e-06
1.71528e-05
0.00199103
2.98668e-05
-0.000101222
0.00220842
0.00013618
-0.000151096
0.00245322
0.000166588
4.74254e-05
0.00316809
0.000120895
0.000246583
0.00298607
0.000129139
0.000160473
0.00291574
0.000284469
6.34718e-05
0.00244314
0.000262727
0.000127366
0.00357196
-6.29994e-05
-0.000157936
0.00115589
-4.27189e-05
-6.93883e-05
0.00150699
-3.70931e-05
-2.68489e-05
0.000679549
-4.57154e-05
-2.56159e-05
-0.000202304
-3.26178e-05
-3.99528e-05
-7.57791e-05
-1.83228e-05
-5.24909e-05
-0.00031967
-4.36612e-05
-5.00252e-05
4.63117e-05
4.3686e-05
-6.83292e-05
0.000259158
5.55554e-06
-7.7756e-05
0.000456218
-2.41742e-05
-8.14561e-05
0.000490195
7.94533e-05
-9.64925e-05
0.000316565
0.000148693
-8.30157e-05
0.00133245
9.96743e-07
-8.85344e-05
0.000869098
-2.46154e-05
-7.58376e-05
0.000616219
-1.15365e-05
-6.10764e-05
0.000563378
1.46633e-06
-5.09085e-05
0.000617826
-6.59705e-06
-3.90507e-05
0.000460159
-2.15418e-05
-3.37809e-05
2.50414e-05
-1.2922e-05
-4.32388e-05
-0.000108245
-3.36746e-05
-4.93287e-05
-0.000826412
1.50211e-06
-5.25031e-05
-0.000984742
3.03877e-05
-5.85293e-05
-0.00027264
3.84749e-06
-6.47469e-05
-0.000515366
2.3664e-06
-5.37316e-05
-0.000398502
1.73037e-05
-2.13569e-05
0.000621261
-0.00157972
8.91841e-06
0.00287704
-0.0012213
-5.05782e-05
0.00363335
-0.00142434
3.87387e-05
0.00292976
-0.00117806
0.00032044
0.00425433
-0.0011333
0.000174266
0.00370614
-0.0015284
2.9569e-05
0.00322331
-0.0008912
0.000401697
0.00445935
-0.000855027
0.000151558
0.00451898
-0.00109577
0.00014442
0.00425548
-0.00164833
7.34319e-05
0.0031712
-0.00068617
0.000472125
0.00477338
-0.000727737
0.000333328
0.00456395
-0.000886091
0.000262322
0.00451392
-0.00115684
0.000295713
0.00381986
-0.00163181
0.000275781
0.00320196
-0.000466286
0.000722942
0.00523848
-0.000433961
0.000417945
0.00522594
-0.000629656
0.000218782
0.00510566
-0.00100907
0.000211473
0.00502641
-0.0011439
2.35908e-05
0.00500398
-0.00149382
-0.000163983
0.00442688
-0.000475746
0.000487242
0.00586921
-0.000381946
0.00037187
0.00576602
-0.000352921
0.00030081
0.00619463
-0.000574295
7.64607e-05
0.00638482
-0.000898217
4.66108e-05
0.00575853
-0.000735424
0.000196358
0.00585891
-0.00161595
7.43662e-05
0.00366549
-0.000678565
0.0014261
0.00642756
-0.000491599
0.00115681
0.00657014
-0.000163732
0.0010022
0.00648604
5.05987e-05
0.000786576
0.00667726
-8.33476e-05
0.000720317
0.00699705
-0.00084108
0.000479258
0.00647942
-0.0010523
0.000466583
0.00575284
-0.00158488
0.000456957
0.0049164
-0.000318147
0.00150898
0.00614687
-0.000337444
0.00150982
0.0059824
-0.0001508
0.00133106
0.00654821
0.000318
0.00105796
0.00685454
0.000453322
0.0010604
0.00698164
-0.000113011
0.00104133
0.00705516
-0.00132576
0.000877362
0.00721856
-0.00112863
0.000648832
0.00519749
-0.000902052
0.000276567
0.00519825
-0.000418593
0.00120908
0.0059737
-0.000326557
0.00110671
0.00593292
2.03338e-05
0.00104631
0.00581742
0.000160127
0.000924767
0.00595775
0.000391827
0.000848184
0.00685034
0.000155028
0.000958169
0.00764841
0.000589693
0.00105007
0.00714589
-0.000687265
0.000974245
0.00798105
-0.00120717
0.000749258
0.00727389
-0.000554679
0.000265356
0.00720483
0.000101294
0.000704722
0.00444375
-0.000225594
0.000570459
0.00418613
-0.00016736
0.000563613
0.00439212
2.88295e-05
0.000365937
0.00444635
0.000122729
0.000310766
0.00425394
0.000434717
0.000537607
0.00450626
0.000384069
0.000832842
0.00534765
0.000504515
0.00105403
0.00637898
0.000114377
0.0011137
0.00718435
-3.28605e-06
0.000901233
0.00686952
-0.00013078
0.000376953
0.0077833
-5.8637e-05
0.000111657
0.000966128
-0.000181718
0.00023358
0.00125362
-0.000145942
0.000210194
0.00138989
-0.000112395
4.00903e-05
0.00162882
-1.70276e-05
1.79651e-05
0.00185625
1.95584e-05
-8.34646e-05
0.0021029
0.000116404
-8.8572e-05
0.00242915
0.000196809
7.84296e-05
0.00318312
0.000167891
0.000243184
0.00274102
0.000190874
0.000121818
0.00264235
0.000193242
2.10521e-05
0.00243566
0.000172264
9.70743e-05
0.00345131
-7.00743e-05
-0.000185276
0.00068767
-5.79135e-05
-0.000129869
0.00124967
-5.28383e-05
-6.97258e-05
0.00159117
-4.05458e-05
-3.57129e-05
0.000731658
-4.92711e-05
-2.75097e-05
-0.000172073
-4.74257e-05
-4.01933e-05
-6.21928e-05
-5.38147e-05
-4.6818e-05
-0.000281984
-5.24779e-05
-4.08559e-05
3.76417e-05
4.88524e-05
-5.69059e-05
0.000190957
-7.67271e-06
-7.22801e-05
0.000485102
-1.69944e-05
-8.54664e-05
0.000500011
9.06749e-05
-0.000110063
0.000255304
0.000106294
-8.40665e-05
0.00132753
2.08509e-06
-8.10412e-05
0.000903042
-5.18233e-06
-8.07106e-05
0.000879153
-2.60676e-05
-7.50898e-05
0.0006563
-1.27888e-05
-6.1631e-05
0.000586889
-6.35454e-07
-5.23249e-05
0.000631736
-6.84903e-06
-4.00189e-05
0.000473246
-2.23734e-05
-3.52031e-05
3.93791e-05
-1.89368e-05
-4.37178e-05
-9.49193e-05
-3.98315e-05
-4.97745e-05
-0.000789309
-9.61212e-06
-5.3098e-05
-0.000980561
2.95595e-05
-5.91175e-05
-0.000307829
3.27337e-06
-6.70426e-05
-0.000505329
4.03433e-06
-5.42721e-05
-0.000369621
2.38527e-05
-2.09641e-05
0.000618373
-0.00158778
6.95385e-05
0.00263001
-0.00115573
4.17494e-05
0.00334903
-0.00141774
1.1957e-05
0.00285849
-0.0013752
4.83629e-05
0.00397474
-0.00109704
1.90671e-06
0.00363392
-0.00158617
0.000106485
0.00288104
-0.00101057
0.000382003
0.00423371
-0.0010379
0.000281799
0.00432967
-0.00119273
0.000185957
0.00364671
-0.00160405
7.03006e-06
0.003172
-0.000789757
0.000525535
0.00445691
-0.0008039
0.00029768
0.00438939
-0.000783436
0.000143621
0.00441712
-0.00111217
0.00013168
0.00415256
-0.0016389
3.0709e-05
0.00314758
-0.000501803
0.000663321
0.00474998
-0.000482268
0.000449342
0.00470567
-0.000684371
0.00033503
0.00454596
-0.000943002
0.000275586
0.00446798
-0.00128935
0.000425623
0.00381547
-0.00166891
0.000172012
0.00320505
-0.00041665
0.000830703
0.00523217
-0.000563496
0.000609379
0.0052286
-0.000458694
0.000389626
0.00516087
-0.000568453
0.000197671
0.00511362
-0.00094409
0.000166474
0.0049294
-0.00120833
-1.31156e-05
0.00532602
-0.00144712
-0.000252946
0.00451099
-0.000624074
0.000438616
0.00619212
-0.000425482
0.000324622
0.00585034
-0.000453058
0.00033753
0.00601862
-0.00026454
0.000164716
0.00642151
-0.000447922
0.000134135
0.00666187
-0.00081115
-5.86767e-05
0.00598364
-0.000939462
0.000103745
0.0057167
-0.00158501
9.00423e-05
0.00357558
-0.000505542
0.00145472
0.00662749
-0.000607856
0.0012695
0.00658528
-0.000352961
0.0011232
0.00665129
7.76398e-05
0.00105826
0.00645472
0.000200995
0.00103062
0.00661928
-0.000353646
0.000733575
0.00698337
-0.00101043
0.000499263
0.00613141
-0.00110524
0.000555786
0.00563062
-0.00158688
0.00065122
0.00495
-0.000489271
0.00146633
0.00644253
-0.000333485
0.00155868
0.00610494
-0.000273697
0.00146605
0.00614144
-0.000112527
0.00132957
0.00654925
0.000766196
0.00112982
0.00641075
0.000310902
0.00115181
0.00671528
0.000531706
0.0011113
0.00687921
-0.00127872
0.00100801
0.00745085
-0.00141507
0.00055186
0.0051301
-0.000844152
0.000236712
0.00525101
-8.61527e-05
0.00123998
0.00636964
-0.000127806
0.00108748
0.00589514
-0.000271602
0.00109496
0.00598851
-0.000120719
0.00108007
0.00581166
0.000236127
0.00102442
0.00566811
0.000427368
0.000985004
0.00683086
0.000756244
0.00101307
0.00731324
0.00043043
0.00107239
0.00712184
-0.000478265
0.00121107
0.00811189
-0.00105717
0.000901198
0.00769193
-0.000502156
0.000158907
0.0074173
7.0241e-05
0.0007397
0.00441337
-0.000150279
0.000574344
0.00440843
-0.000205577
0.000559628
0.00424975
-0.000236011
0.000519429
0.00436224
9.00117e-05
0.000276042
0.00437403
8.81472e-05
0.000234769
0.00448819
0.000465375
0.000364503
0.00462563
0.000605382
0.000594321
0.00539879
0.000252281
0.00101052
0.00639777
0.000172278
0.0010779
0.00702629
-0.000490772
0.000952999
0.00697749
-0.000152939
0.000352296
0.0077562
-8.47664e-06
-3.06612e-05
0.000531576
-7.31039e-05
6.50832e-05
0.00114982
-0.000188971
0.000225942
0.001374
-0.000167704
0.000198399
0.00135874
-0.000121251
2.54009e-05
0.00169336
-6.28071e-05
3.05234e-05
0.00175765
-2.69136e-05
-4.25013e-05
0.00202993
1.89102e-05
-4.96515e-05
0.00248584
0.000238299
8.22281e-05
0.00315463
0.000231304
0.000226894
0.00239697
0.000200416
8.56609e-05
0.00236033
0.000228623
-8.24372e-06
0.00240303
7.49068e-05
7.23602e-05
0.00341034
-8.60788e-05
-0.000202971
0.00135098
-8.14225e-05
-0.000163375
0.000797417
-5.78539e-05
-0.000126332
0.00133806
-5.66068e-05
-7.43775e-05
0.00167365
-4.24062e-05
-4.84521e-05
0.000794371
-4.86062e-05
-2.83312e-05
-0.000142178
-6.13459e-05
-4.15024e-05
-2.85359e-05
-7.31283e-05
-4.32071e-05
-0.000225442
-6.70273e-05
-3.16526e-05
3.95842e-05
3.04617e-05
-4.79062e-05
0.00012651
-1.31442e-05
-6.63752e-05
0.000508715
-1.13088e-05
-9.15008e-05
0.000496031
0.000109889
-0.000125368
0.000190751
9.59804e-05
-8.50333e-05
0.00134044
1.80935e-05
-5.72112e-05
0.000525305
-4.2537e-06
-7.44334e-05
0.000901018
-7.04363e-06
-8.12283e-05
0.000892335
-2.83357e-05
-7.42772e-05
0.000697282
-1.31324e-05
-6.2532e-05
0.000610229
-1.85406e-06
-5.43193e-05
0.00064789
-6.28915e-06
-4.13751e-05
0.000485707
-2.30777e-05
-3.67932e-05
5.55321e-05
-2.49813e-05
-4.44931e-05
-7.52194e-05
-4.87727e-05
-5.10308e-05
-0.000742603
-2.77433e-05
-5.344e-05
-0.000958496
2.54058e-05
-6.25061e-05
-0.000337771
2.29728e-06
-6.89636e-05
-0.000492934
6.13601e-06
-5.42231e-05
-0.000342498
2.81348e-05
-2.06849e-05
0.000610923
-0.00160243
2.74612e-05
0.00239782
-0.0012348
0.000156409
0.00326445
-0.00149692
0.000104552
0.00260463
-0.00141292
0.000107113
0.0035441
-0.00111077
-3.30943e-05
0.00340782
-0.00151473
-4.37082e-06
0.00279142
-0.00114292
0.000163036
0.00400407
-0.00113802
4.97252e-05
0.00402705
-0.00109995
6.08395e-05
0.0035868
-0.00168682
7.92495e-05
0.00288455
-0.000948584
0.000547191
0.00430189
-0.000875044
0.000366672
0.00421998
-0.00079615
0.000244492
0.00428384
-0.00128728
0.000151443
0.0036774
-0.00155157
-2.25182e-05
0.00310719
-0.000634328
0.000703783
0.00456023
-0.000623893
0.000483987
0.00441223
-0.000783274
0.000278015
0.0043539
-0.000858012
0.000142389
0.00432142
-0.00124667
0.000121113
0.00401947
-0.00168006
7.22618e-05
0.00308646
-0.000552343
0.0008628
0.00483034
-0.000695352
0.000628822
0.00470236
-0.000546714
0.000482168
0.00464656
-0.000596412
0.000335272
0.00451423
-0.000945706
0.00033456
0.00456065
-0.00141684
0.000340018
0.00385597
-0.00168507
0.000212875
0.00323012
-0.000542854
0.000895632
0.00522617
-0.000441749
0.000706398
0.00515142
-0.000503855
0.000555367
0.00511366
-0.000478736
0.000359408
0.00521333
-0.000565253
0.000148727
0.0052487
-0.000927713
0.000152108
0.00488074
-0.00116999
-0.00011529
0.0054189
-0.00140314
-0.000240408
0.00456952
-0.000673325
0.000535965
0.00632577
-0.000660786
0.000293163
0.00627651
-0.000488845
0.000294768
0.00602899
-0.000299545
0.000329452
0.00623107
-0.000188815
0.000274051
0.00667141
-0.000432668
2.94976e-06
0.00667926
-0.00076281
-0.000108988
0.00594875
-0.000911491
0.000150777
0.00546221
-0.00161723
2.8407e-06
0.0036031
-0.000535922
0.00147602
0.00643547
-0.000403654
0.00138164
0.00658551
-0.00055594
0.00120781
0.00678292
-0.000255946
0.0011327
0.00672027
0.00052541
0.00124393
0.0064822
7.1339e-05
0.000999015
0.0065934
-0.000222984
0.000776172
0.00746115
-0.000997116
0.000430382
0.0059752
-0.00117602
0.00054918
0.00549361
-0.00153063
0.00081021
0.00482627
-0.0003813
0.00150825
0.00637601
6.87039e-07
0.00149173
0.00638099
-0.0004166
0.00147533
0.00624066
-0.000457995
0.00140976
0.00639853
0.000189267
0.00129991
0.00642602
0.000441255
0.00124742
0.00630126
0.000857857
0.00111844
0.00660653
-8.81617e-06
0.00127572
0.00705074
-0.00119274
0.00108242
0.00763476
-0.00143724
0.000498707
0.00524818
-0.000927655
0.00029992
0.00537658
6.63892e-05
0.00121384
0.00638503
-4.25503e-05
0.00107645
0.00627293
-0.000311894
0.00104628
0.00605015
-0.000286002
0.00108662
0.00603196
0.000115396
0.00109497
0.00571573
0.000189898
0.000971268
0.0055801
0.000528504
0.000921539
0.00685926
0.000733815
0.00105881
0.00719838
-8.50683e-05
0.00137818
0.00729207
-0.000486141
0.00124399
0.00842751
-0.00151078
0.000762229
0.00810861
-0.00047743
0.000234273
0.00750752
2.74408e-05
0.000671749
0.00429957
-3.23711e-05
0.00063119
0.00431579
-0.000292804
0.000562953
0.00450894
-0.00024606
0.000504475
0.00434306
-0.000270028
0.000475229
0.00431183
-0.00014355
0.000223342
0.0044662
7.34835e-05
8.16954e-05
0.0046706
0.000400314
9.70246e-05
0.00474152
0.000587367
0.000493966
0.00556627
0.000686602
0.000942414
0.00607795
0.000428327
0.00112117
0.0066302
-0.000396122
0.000950118
0.00700441
-0.000191546
0.000331661
0.00769099
-0.00021575
-7.4742e-05
0.00199904
-6.72377e-05
-3.49286e-05
0.000617404
-5.61545e-05
5.2963e-05
0.0013211
-0.000190298
0.000217411
0.00148868
-0.000190838
0.000183187
0.00134939
-0.000107425
3.3645e-05
0.00174906
-8.7546e-05
4.58623e-05
0.00169548
-3.77348e-05
-4.96641e-06
0.00194985
1.30088e-05
-1.50613e-05
0.0025031
0.000195806
0.000130319
0.00308586
0.000282565
0.00019179
0.00199513
0.000294927
3.38793e-05
0.00201197
0.000328772
-2.32077e-05
0.00227972
-4.43067e-05
6.09427e-05
0.00348969
-6.80826e-05
-0.000213852
0.00211838
-9.14847e-05
-0.000165797
0.00144064
-8.419e-05
-0.000164232
0.000912463
-6.32121e-05
-0.000123148
0.00142171
-5.15935e-05
-8.72011e-05
0.00175086
-3.59616e-05
-6.02639e-05
0.000860411
-4.25433e-05
-3.11909e-05
-0.000116236
-6.27409e-05
-4.41823e-05
1.21026e-05
-8.69661e-05
-3.81319e-05
-0.000156977
-8.06067e-05
-2.38803e-05
4.73922e-05
1.50525e-06
-3.64632e-05
6.73492e-05
-1.8015e-05
-5.81715e-05
0.000518807
1.57746e-07
-9.94465e-05
0.000472249
0.000114859
-0.000141849
0.000138843
9.86842e-05
-8.82575e-05
0.00135814
5.67131e-05
-2.72836e-05
-0.000218999
1.70239e-06
-5.03826e-05
0.000499552
-8.27501e-06
-7.49676e-05
0.000903032
-8.77317e-06
-8.14605e-05
0.000908292
-2.98892e-05
-7.35345e-05
0.000738173
-1.41242e-05
-6.36773e-05
0.000633711
-2.7484e-06
-5.63401e-05
0.000665604
-5.26408e-06
-4.2992e-05
0.00049717
-2.40468e-05
-3.84677e-05
7.35536e-05
-2.98676e-05
-4.57693e-05
-5.06133e-05
-5.51315e-05
-5.28801e-05
-0.000688032
-3.65776e-05
-5.64574e-05
-0.000927967
2.12596e-05
-6.32373e-05
-0.000364757
5.67946e-07
-7.00694e-05
-0.000477656
7.41085e-06
-5.39092e-05
-0.000316685
3.41139e-05
-2.0368e-05
0.000597177
-0.00161828
7.45079e-06
0.00226724
-0.00130671
4.07834e-05
0.00301691