/*--------------------------------*- C++ -*----------------------------------*\
  =========                 |
  \\      /  F ield         | OpenFOAM: The Open Source CFD Toolbox
   \\    /   O peration     | Website:  https://openfoam.org
    \\  /    A nd           | Version:  7
     \\/     M anipulation  |
\*---------------------------------------------------------------------------*/
FoamFile
{
    version     2.0;
    format      ascii;
    class       surfaceScalarField;
    location    "9";
    object      phi_0;
}
// * * * * * * * * * * * * * * * * * * * * * * * * * * * * * * * * * * * * * //

dimensions      [0 3 -1 0 0 0 0];

internalField   nonuniform List<scalar> 
54125
(
-9.99769e-05
-2.21631e-05
-8.49324e-05
-0.000334709
-1.02033e-05
0.00115344
-1.31428e-05
-4.79573e-05
-0.000774376
-8.80588e-05
-2.02306e-05
2.3357e-05
-0.000728693
0.000346149
0.00539351
-0.00010275
-4.44509e-05
0.000535986
-0.000282343
-1.66542e-05
0.00136438
2.64384e-06
-4.85345e-05
-0.000554051
-1.23255e-05
-4.49234e-05
-0.000737358
-8.37301e-05
-2.02859e-05
0.000127373
-0.0011979
0.000375297
0.00645525
-0.000307628
0.000566592
0.003063
-0.000638957
0.000306349
0.00544378
-8.86601e-06
-0.000104817
0.000181749
-8.20028e-05
-4.33933e-05
0.000632403
-0.000252345
-2.56949e-05
0.00155869
3.56352e-05
-5.56082e-05
1.15204e-05
3.49167e-06
-4.70003e-05
-0.000555466
-1.18937e-05
-4.58845e-05
-0.000699865
-7.60293e-05
-2.05349e-05
0.000223937
-0.00156191
0.000332217
0.00503448
-0.000837983
0.000877444
0.00648911
-0.00109278
0.000404196
0.00650487
6.27488e-05
0.000500157
0.00302617
-0.00025228
0.000517506
0.00302212
-0.000582527
0.000298092
0.00547587
4.63191e-05
-0.000144124
0.000311813
-2.19448e-06
-9.87991e-05
0.000242841
-5.98057e-05
-4.60026e-05
0.000700623
-0.000199375
-3.37314e-05
0.00171577
5.76946e-05
-5.62778e-05
-0.000743466
3.27459e-05
-5.20527e-05
-1.6173e-05
3.80068e-06
-4.94188e-05
-0.000555732
-1.09556e-05
-4.68096e-05
-0.000662635
-6.56543e-05
-2.07605e-05
0.000310352
-0.00170393
0.000157271
0.00547101
-0.00112515
0.000566263
0.00639814
-0.00140893
0.000218896
0.00513173
-0.000173492
0.00118855
0.00622431
-0.000818223
0.000748089
0.00671116
-0.00103662
0.000305826
0.00665314
3.70596e-05
0.000367376
0.00242771
-0.000182048
0.000441118
0.00328241
-0.000225726
0.000522218
0.00296391
-0.00049566
0.000275753
0.0054964
4.07268e-05
-0.000132049
0.000470434
5.07581e-05
-0.000136869
0.000331871
1.08858e-05
-9.90717e-05
0.000288825
-2.69868e-05
-4.62832e-05
0.000729206
-0.00012591
-4.81894e-05
0.00182421
6.33097e-06
-5.28975e-05
-0.000890482
4.71395e-05
-5.14267e-05
-0.000791232
3.24799e-05
-5.34089e-05
-4.46628e-05
3.8872e-06
-5.15559e-05
-0.000554873
-1.02284e-05
-4.76254e-05
-0.000625542
-5.71571e-05
-2.10312e-05
0.00038854
-0.00146915
1.92037e-05
0.00502042
-0.00110633
0.000502144
0.00692933
-0.00154455
0.00017073
0.00543589
-0.000444211
0.000717246
0.00703803
-0.00107615
0.000387597
0.00648737
-0.00137964
0.000230221
0.00524454
1.97979e-05
0.000903098
0.00661975
-0.000610767
0.000836189
0.00656493
-0.000811338
0.000809679
0.00679292
-0.000980947
0.000233993
0.00690443
-8.05025e-06
0.000248777
0.00216698
-1.39322e-05
0.000240352
0.00269317
-1.71045e-06
0.000416034
0.00340119
-0.000367906
0.00048795
0.00309263
-0.000370679
0.000315301
0.00542587
-6.73104e-05
-0.000101407
0.000146177
3.89802e-05
-0.000123786
0.00046551
5.25106e-05
-0.000135984
0.000348752
2.96471e-05
-9.64962e-05
0.000313278
9.42194e-06
-4.63341e-05
0.0007077
-6.56902e-06
-5.64456e-05
0.00183007
1.43998e-05
-4.67893e-05
-6.21494e-05
9.17844e-06
-4.82529e-05
-0.000902834
4.08976e-05
-5.14233e-05
-0.000834115
3.20765e-05
-5.45142e-05
-7.3781e-05
3.28216e-06
-5.34904e-05
-0.00055229
-7.9653e-06
-4.84698e-05
-0.000590138
-4.72789e-05
-2.12844e-05
0.000457104
-0.00134559
0.000126026
0.00529149
-0.00108739
2.67718e-05
0.00640113
-0.00139917
1.50256e-05
0.00486002
-0.000604844
0.000742873
0.00766427
-0.00100333
0.000357211
0.00667003
-0.00157772
0.000231007
0.00540297
-0.000108205
0.000823657
0.00701296
-0.000866135
0.00065385
0.00702715
-0.00105775
0.000389057
0.00657495
-0.00135739
0.000205277
0.0054157
9.75963e-05
0.000742562
0.00572869
6.78479e-07
0.000752433
0.00668889
-0.000291879
0.00103901
0.00662577
-0.00113322
0.000894651
0.00689758
-0.000891092
0.000393774
0.00703107
-7.41612e-05
0.000149864
0.00229448
-5.10003e-06
2.22929e-05
0.00242912
7.92949e-05
0.000205236
0.00287718
0.000154231
0.000369815
0.00339474
-0.000118348
0.00045053
0.00308517
-9.99141e-05
0.00032193
0.00519728
-6.57387e-05
-6.75635e-05
-0.000306784
-2.24701e-05
-8.79621e-05
0.000142002
4.22655e-05
-0.000121757
0.000449915
5.17868e-05
-0.000129662
0.000362208
3.43478e-05
-9.12496e-05
0.000327128
4.22477e-05
-4.79874e-05
0.000649029
6.17643e-05
-6.38169e-05
0.00178484
-1.47539e-05
-3.4392e-05
-1.66555e-05
1.00621e-05
-4.23e-05
-7.81644e-05
4.51748e-07
-4.88066e-05
-0.000905902
3.4447e-05
-5.19279e-05
-0.000871148
3.16831e-05
-5.53706e-05
-0.000103584
2.7868e-06
-5.53375e-05
-0.000548209
-5.94594e-06
-4.93974e-05
-0.000556079
-3.45534e-05
-2.15185e-05
0.000513176
-0.00156137
0.000189483
0.00415352
-0.00123659
0.000231385
0.00612749
-0.00131799
0.000111923
0.00509838
-0.00110528
0.000213303
0.00700285
-0.000969695
8.73782e-06
0.00637379
-0.0014986
5.93861e-05
0.00472151
-0.000195988
0.00089375
0.00778034
-0.0009461
0.000658948
0.0074425
-0.00102768
0.00024315
0.00662781
-0.00159028
0.000235168
0.00540069
7.2322e-05
0.000772477
0.00672615
-9.03578e-05
0.000756747
0.0070011
-0.000685148
0.000696424
0.00711305
-0.00102427
0.000315146
0.00635614
-0.00128925
0.000149266
0.00566459
0.00015336
0.000758544
0.00445839
6.93397e-05
0.000719068
0.00568761
0.000186764
0.000915783
0.00670465
-0.000126221
0.00113754
0.00666332
-0.000917619
0.00107609
0.00701453
-0.00070705
0.000418612
0.00721959
-5.52002e-05
-1.93374e-06
0.00265319
3.86285e-05
-8.78448e-05
0.00234352
3.61795e-05
-2.31804e-05
0.00266362
9.09711e-05
0.000178581
0.00302923
0.000137481
0.00033705
0.00340509
6.74357e-06
0.000394735
0.00304787
0.000250887
0.000276097
0.00473206
-2.92604e-05
-4.29321e-05
-3.46134e-05
-3.28029e-05
-5.7695e-05
-0.000294186
-1.44917e-05
-8.2491e-05
0.00011768
4.40736e-05
-0.00011504
0.000425666
4.43236e-05
-0.000120453
0.000378771
1.84904e-05
-8.56769e-05
0.000349114
5.9482e-05
-5.2781e-05
0.000572565
0.000148111
-7.06729e-05
0.00167285
1.7455e-06
-4.47938e-05
0.000412978
-1.63094e-05
-3.08273e-05
-1.18188e-05
9.71599e-06
-4.27914e-05
-9.38956e-05
-4.10785e-06
-4.94683e-05
-0.000904254
2.89262e-05
-5.17892e-05
-0.000903656
3.12369e-05
-5.60985e-05
-0.00013406
3.06185e-06
-5.7214e-05
-0.000543454
-3.90312e-06
-5.03281e-05
-0.000523366
-1.93198e-05
-2.16894e-05
0.000554185
-0.00169556
0.000157812
0.00345925
-0.00129154
0.000292293
0.00468241
-0.00142039
0.000107638
0.00414828
-0.00105094
0.000229831
0.00557722
-0.00109729
0.00020099
0.00616601
-0.00134168
0.000104243
0.00483723
-0.000646961
0.000572433
0.00722414
-0.00102227
0.00017336
0.0069144
-0.00100752
8.83035e-05
0.00632471
-0.00162775
0.000180884
0.0045781
1.74695e-05
0.000943468
0.0076229
-0.000188272
0.000785274
0.00775193
-0.000889564
0.000510734
0.00737933
-0.00100999
0.000468266
0.00638043
-0.00160346
0.000245167
0.00546973
0.000150822
0.000765467
0.00681624
2.12776e-05
0.000614513
0.00691645
-3.75019e-05
0.00077598
0.00714581
-0.000657174
0.000726428
0.00723272
-0.00108613
0.00031329
0.00636062
-0.00113677
6.28422e-05
0.00603147
0.000124252
0.000737677
0.00412965
0.000212316
0.000727412
0.00427636
0.000270913
0.000840929
0.00552773
0.00018281
0.00098991
0.00676045
-0.000150248
0.00113148
0.00689566
-0.000855689
0.00109857
0.00719701
-0.000270487
0.000380756
0.00736021
0.000113801
-1.16115e-06
0.00233113
3.56099e-05
-8.29382e-05
0.00257987
7.38059e-05
-0.00015926
0.0023913
5.76754e-05
-3.82271e-05
0.00286682
0.000110682
0.000176843
0.00312308
0.00015094
0.000310621
0.00335675
0.000138485
0.000308673
0.00293629
0.000346242
0.000217554
0.00431638
-3.29433e-05
-2.40949e-05
-0.000279616
-1.74809e-05
-3.6978e-05
-5.41591e-05
-1.45838e-05
-5.69684e-05
-0.000295408
-2.08934e-05
-7.60004e-05
9.54256e-05
4.33919e-05
-0.000105826
0.000396573
3.71487e-05
-0.000110274
0.000397456
7.853e-06
-8.20691e-05
0.000373611
6.35201e-05
-6.06192e-05
0.000495088
0.000181518
-7.44139e-05
0.00154643
1.35741e-05
-5.70399e-05
0.000600137
-2.68209e-06
-3.93434e-05
0.000424176
-1.83947e-05
-3.09657e-05
-5.24981e-06
6.46092e-06
-4.27977e-05
-0.000107027
-1.10807e-05
-4.93627e-05
-0.0008956
2.41799e-05
-5.21897e-05
-0.000931744
3.08059e-05
-5.66784e-05
-0.000165401
3.70425e-06
-5.90904e-05
-0.000538396
-1.99881e-06
-5.11896e-05
-0.000491867
-6.33216e-06
-2.17659e-05
0.000582283
-0.00167746
4.13168e-05
0.00333026
-0.00101381
7.48241e-05
0.0043693
-0.00151854
0.000180154
0.00337725
-0.000854075
0.000325077
0.00526469
-0.00121719
0.000270875
0.00463907
-0.00145529
6.71077e-06
0.00425518
-0.000808151
0.000267133
0.00589921
-0.000999327
0.000183609
0.00557166
-0.00113723
0.000156976
0.00624299
-0.00136145
0.000130571
0.00444035
-0.00030524
0.000896364
0.00675345
-0.000471196
0.00048358
0.00719684
-0.00100359
0.000234739
0.00688199
-0.000822932
0.00023399
0.00608454
-0.00176398
0.000135761
0.00460286
0.000294633
0.000995268
0.00738511
0.00019686
0.000797137
0.00743546
-0.000193238
0.000822773
0.00759563
-0.000817458
0.00074151
0.00726637
-0.00101971
0.000532973
0.0060262
-0.0014074
0.000338134
0.00540223
-5.854e-06
0.000942308
0.00612464
0.000167973
0.000627907
0.00684719
0.000236258
0.000649858
0.00707723
-2.43877e-05
0.00079615
0.00728328
-0.000631058
0.000807974
0.00721885
-0.00111774
0.000343531
0.00634198
-0.000964183
0.000101889
0.00662328
0.000108796
0.000682681
0.00426306
0.000207119
0.000611146
0.00407441
0.000230984
0.00073413
0.00422598
0.00018539
0.000920184
0.00546974
0.000306137
0.0010135
0.00668298
-0.000129597
0.00112603
0.00714873
-0.000668242
0.00108848
0.00729601
-0.000245221
0.000391162
0.00756051
-7.42445e-05
0.000116255
0.00163585
1.0228e-05
-4.54972e-06
0.00222503
7.16413e-05
-9.40163e-05
0.0024284
7.86844e-05
-0.000189736
0.00244323
0.000109169
-2.79371e-05
0.00300583
0.000140658
0.000195673
0.00313452
0.00014886
0.000277727
0.00324669
0.000264458
0.000200848
0.00275206
0.000348232
0.000150553
0.00399911
-9.08919e-06
-1.62646e-05
0.000606855
-4.93932e-05
-2.52954e-05
-0.000244588
-2.64072e-05
-3.75913e-05
-6.55239e-05
2.99119e-06
-5.59546e-05
-0.000311985
-3.00525e-05
-6.85846e-05
7.71564e-05
4.42259e-05
-9.46258e-05
0.000360878
2.64701e-05
-9.87317e-05
0.000418455
-2.03256e-05
-7.97081e-05
0.00041673
6.44667e-05
-7.1584e-05
0.000425793
0.000173756
-7.79946e-05
0.00144434
-5.25482e-06
-6.78768e-05
0.000523197
7.27878e-06
-5.04026e-05
0.000603917
-4.64593e-06
-3.85606e-05
0.000436417
-1.97965e-05
-3.15847e-05
3.33366e-06
8.1487e-07
-4.28844e-05
-0.00011432
-1.82621e-05
-4.94941e-05
-0.000880033
1.87745e-05
-5.20432e-05
-0.000955154
3.04933e-05
-5.72955e-05
-0.000197689
4.54714e-06
-6.09171e-05
-0.000533216
-6.05059e-07
-5.20216e-05
-0.000461006
2.36836e-06
-2.17256e-05
0.00060164
-0.00165988
-1.03909e-05
0.00325292
-0.00107436
0.000106228
0.00441492
-0.00155468
1.5584e-05
0.0033508
-0.000716818
0.000165139
0.00468731
-0.000993433
0.00017787
0.00414783
-0.00152324
0.000185033
0.00326016
-0.000676964
0.000341197
0.00504566
-0.000998454
0.000334091
0.0052006
-0.00126251
0.000134291
0.00463678
-0.00139456
-0.000103212
0.00439151
-0.000414014
0.00045077
0.0056936
-0.000725215
0.000264414
0.00607242
-0.000848327
9.94262e-05
0.00547394
-0.000864991
0.000174098
0.00624153
-0.00146817
0.000120163
0.00402438
0.0001122
0.00116176
0.00633337
-2.53784e-05
0.000769238
0.00669003
-0.000404144
0.000534203
0.00710829
-0.000961113
0.00034725
0.00691239
-0.000940798
0.000127271
0.00601412
-0.00178365
0.000245619
0.00473349
-4.45222e-05
0.00139113
0.00660508
1.48966e-05
0.000964898
0.00737043
0.000235712
0.00086894
0.00738984
-8.81161e-05
0.000895765
0.0075051
-0.000786621
0.000845211
0.0071097
-0.000988583
0.000563729
0.00567145
-0.00129763
0.00031078
0.00542489
-0.000216294
0.0010933
0.00613881
-6.82418e-05
0.000848788
0.00617912
8.86401e-05
0.000663418
0.00697597
9.13798e-05
0.000612651
0.00735473
0.00021534
0.000864177
0.00731788
-0.000804212
0.000909654
0.00732734
-0.00117822
0.000458291
0.00649555
-0.000733505
0.000220036
0.00689153
-0.000296159
0.000702851
0.00432276
3.38361e-05
0.000513487
0.00433711
0.000372567
0.000549744
0.00395787
0.000166762
0.000679674
0.00437841
0.000278217
0.000927807
0.00538639
0.000156899
0.00102063
0.00677215
-9.46304e-05
0.00114614
0.00733456
-0.000291482
0.00103561
0.0072075
-0.000220102
0.000371288
0.00775756
-0.000178507
0.000252059
0.00144043
-0.000101581
8.11391e-05
0.00160235
-7.3153e-05
3.40016e-05
0.00214376
3.62756e-05
-0.000107781
0.00231316
0.000108971
-0.000184939
0.00246121
0.000139539
9.26974e-06
0.00309692
0.000115118
0.000223618
0.00309998
0.00010077
0.000210603
0.00311584
0.000332258
8.74652e-05
0.00254736
0.000275678
0.00014508
0.00375211
-3.07428e-05
-8.30857e-05
0.00143535
-3.37999e-05
-2.16738e-05
0.000644312
-4.08788e-05
-2.4677e-05
-0.000221269
-3.35981e-05
-3.84737e-05
-6.92033e-05
-4.24448e-07
-5.40162e-05
-0.000325314
-3.88267e-05
-6.06781e-05
6.37732e-05
4.94909e-05
-8.22226e-05
0.000313653
1.79107e-05
-8.66083e-05
0.000437938
-3.14958e-05
-7.96237e-05
0.000460812
6.54807e-05
-8.45644e-05
0.000366277
0.000164941
-8.12153e-05
0.00136298
-2.53859e-05
-8.42763e-05
0.000573077
-8.91871e-06
-6.07541e-05
0.000542467
5.18165e-06
-5.01943e-05
0.000610369
-6.28368e-06
-3.84298e-05
0.000449546
-2.09145e-05
-3.25636e-05
1.39273e-05
-5.1575e-06
-4.29936e-05
-0.000115663
-2.47701e-05
-4.90828e-05
-0.000858224
1.17933e-05
-5.23475e-05
-0.000971895
3.01094e-05
-5.76217e-05
-0.000231094
4.6099e-06
-6.28073e-05
-0.00052704
1.02704e-06
-5.2843e-05
-0.000430916
1.07881e-05
-2.15644e-05
0.000612416
-0.00168062
6.69158e-06
0.00302024
-0.0012524
0.000165717
0.00377006
-0.00147889
-4.35305e-06
0.00318148
-0.000861866
0.000190037
0.00461053
-0.00102217
0.000114655
0.00434459
-0.00145945
4.72224e-05
0.00323979
-0.000693108
0.000344454
0.00463395
-0.000918934
0.000242476
0.00454318
-0.00109639
0.000210499
0.00395624
-0.00165277
0.00025556
0.00326281
-0.000545266
0.000510118
0.00526143
-0.000714558
0.000282527
0.00508656
-0.000871441
0.000254628
0.00510338
-0.00125866
5.87923e-05
0.00486844
-0.0014151
-0.000116803
0.00445524
-0.000228037
0.000550101
0.00577343
-0.000339378
0.000341586
0.00593043
-0.000642942
0.000197056
0.00621359
-0.000946732
5.31959e-05
0.00558047
-0.000854638
0.000202071
0.00607346
-0.00169609
0.000116593
0.00382022
-0.000395182
0.00140025
0.00652435
-0.000371
0.00102533
0.00646317
3.42871e-05
0.000750594
0.00667506
-0.000356553
0.000638853
0.00708512
-0.000863967
0.000348579
0.00676843
-0.000888159
0.000328042
0.00583127
-0.00170231
0.000380763
0.00475741
-0.00038821
0.00161077
0.00589004
-0.000323549
0.00129997
0.00652531
0.000128509
0.00102517
0.00717433
0.000208126
0.000954907
0.00721395
0.000190259
0.00102301
0.00735238
-0.00103323
0.000765549
0.00713689
-0.0010721
0.000525425
0.0053507
-0.000945311
0.000388211
0.00524849
-0.000408085
0.00119759
0.00595804
-2.33596e-05
0.0009873
0.00605749
0.000181874
0.000904591
0.00612864
9.16864e-05
0.000643619
0.00702008
0.000250035
0.000767115
0.00747998
-0.000152536
0.00100294
0.00753402
-0.000868223
0.000951761
0.00760746
-0.00104095
0.000709293
0.00675577
-0.000674503
0.00021936
0.00712657
-0.000302314
0.000675874
0.00408139
-0.000235889
0.000591509
0.00437905
-9.82672e-05
0.000467288
0.00444468
0.000248808
0.000381127
0.00404389
0.00032986
0.00062507
0.00446026
0.000318102
0.000887364
0.00534109
0.000329278
0.00105786
0.00664627
1.61162e-05
0.00115634
0.00729848
-6.70609e-05
0.000960714
0.0070174
-0.000178087
0.000440738
0.00777059
-4.48006e-05
0.000290887
0.00113715
-0.000140213
0.000220083
0.0014079
-7.06029e-05
7.73355e-05
0.00158874
7.43418e-06
1.8198e-05
0.00197675
3.10645e-05
-9.90746e-05
0.00219581
0.000137144
-0.000144883
0.00243939
0.000170193
5.10714e-05
0.00314876
0.0001215
0.000246071
0.00296092
0.000134153
0.000153652
0.002884
0.000266089
5.69838e-05
0.00243485
0.000254188
0.000126699
0.00353616
-6.37101e-05
-0.000156293
0.00116432
-4.41946e-05
-6.87784e-05
0.00151773
-3.71057e-05
-2.68133e-05
0.000688736
-4.58583e-05
-2.55485e-05
-0.00019462
-3.37659e-05
-3.95623e-05
-7.08057e-05
-2.0235e-05
-5.20379e-05
-0.000318876
-4.40659e-05
-4.95057e-05
5.03523e-05
4.35885e-05
-6.787e-05
0.000263119
4.73415e-06
-7.77664e-05
0.000461455
-2.39028e-05
-8.24129e-05
0.000487174
8.15049e-05
-9.81288e-05
0.000302712
0.00014375
-8.28856e-05
0.0013129
4.69305e-07
-8.84205e-05
0.000863722
-2.48239e-05
-7.55094e-05
0.000612656
-1.18929e-05
-6.08939e-05
0.000565059
1.29424e-06
-5.08831e-05
0.000621528
-6.77235e-06
-3.90217e-05
0.000462776
-2.18134e-05
-3.37934e-05
2.65405e-05
-1.32771e-05
-4.32187e-05
-0.00010825
-3.41432e-05
-4.92683e-05
-0.00082716
1.10111e-06
-5.25146e-05
-0.000978104
3.04573e-05
-5.84858e-05
-0.000265873
3.65981e-06
-6.46992e-05
-0.000518844
3.0853e-06
-5.37074e-05
-0.000401858
1.82836e-05
-2.12961e-05
0.000615429
-0.0015816
8.5497e-06
0.00287479
-0.001222
-4.84108e-05
0.00363384
-0.00142573
3.94176e-05
0.00292767
-0.00117797
0.000320385
0.00425719
-0.00113542
0.000174807
0.00370415
-0.00152905
2.92147e-05
0.00322186
-0.000890949
0.000400116
0.00445507
-0.000856012
0.000150652
0.00451161
-0.00109792
0.00014436
0.00424897
-0.00165233
7.44537e-05
0.0031649
-0.000685643
0.000473973
0.00477048
-0.000729925
0.000333269
0.00455852
-0.000889994
0.000263627
0.00450861
-0.00116096
0.000299745
0.00381435
-0.0016309
0.00027348
0.00320512
-0.000478324
0.000720698
0.00524106
-0.000433108
0.000415416
0.00522227
-0.000622161
0.000214581
0.00510583
-0.00101113
0.000206266
0.0050203
-0.00113988
1.56459e-05
0.00502124
-0.0014952
-0.000168958
0.00442331
-0.00048159
0.000473238
0.00588253
-0.000394109
0.00036723
0.00577089
-0.000347657
0.000294924
0.0062145
-0.000568216
7.22916e-05
0.00640616
-0.000894013
4.0515e-05
0.00577207
-0.000733911
0.000196123
0.00583968
-0.00161683
7.48692e-05
0.00365986
-0.000679192
0.00141662
0.00643689
-0.000495213
0.00115283
0.00656851
-0.000137887
0.00100562
0.00647455
5.38547e-05
0.000800323
0.00666786
-9.50662e-05
0.000732581
0.00698644
-0.000862921
0.000484345
0.00644182
-0.00106302
0.000480288
0.00572267
-0.00157685
0.000465238
0.00492371
-0.000340545
0.00151407
0.00614326
-0.000328332
0.00151235
0.00598264
-0.000142755
0.00133622
0.00653889
0.000351524
0.00106759
0.00680181
0.00047636
0.00107443
0.0069362
-9.58535e-05
0.00104701
0.00701423
-0.00132585
0.000894318
0.00722562
-0.0011548
0.000657137
0.00519562
-0.00089171
0.000262825
0.00520287
-0.000413338
0.00121201
0.0059664
-0.000321716
0.00110779
0.00592338
1.61768e-05
0.00105329
0.00579435
0.000156873
0.000936583
0.00592761
0.000411971
0.000870242
0.00683484
0.000175516
0.000973123
0.00765238
0.000613808
0.00105564
0.00714561
-0.000652221
0.000984517
0.00800058
-0.00120571
0.000764564
0.00734921
-0.000547784
0.000261007
0.00723526
9.10957e-05
0.000697027
0.00443606
-0.000220639
0.000566542
0.00418678
-0.000166507
0.000557619
0.00438462
3.632e-05
0.000353269
0.00444365
0.000115999
0.000303639
0.00428038
0.000445075
0.000511266
0.00452843
0.00041215
0.00080972
0.00534727
0.000515468
0.00104548
0.00636316
0.000125823
0.00110157
0.00716596
-4.73326e-05
0.000908396
0.00686316
-0.000132792
0.000375281
0.00778228
-6.75678e-05
0.000109382
0.000983358
-0.000187684
0.000232572
0.00126815
-0.000151146
0.000210282
0.00138899
-0.000114138
3.99636e-05
0.00163526
-2.29172e-05
1.92751e-05
0.00184755
1.4843e-05
-7.95293e-05
0.00209538
0.000109395
-8.23151e-05
0.00241932
0.00019967
7.93244e-05
0.00315943
0.000178018
0.000241044
0.00270025
0.000192037
0.000116474
0.00260857
0.000195903
1.75783e-05
0.00242957
0.00015718
9.34844e-05
0.00342925
-7.1382e-05
-0.000184982
0.000693885
-5.77447e-05
-0.000129199
0.00125767
-5.3841e-05
-6.93792e-05
0.00160224
-4.05322e-05
-3.61485e-05
0.000741162
-4.97356e-05
-2.74035e-05
-0.000163815
-4.86968e-05
-3.97526e-05
-5.62075e-05
-5.596e-05
-4.61743e-05
-0.000279525
-5.32154e-05
-4.03836e-05
4.19382e-05
5.00216e-05
-5.64999e-05
0.000192932
-7.41598e-06
-7.24482e-05
0.000489364
-1.64198e-05
-8.64521e-05
0.000495577
9.20295e-05
-0.000111453
0.000242336
0.000101034
-8.38326e-05
0.00131398
1.567e-06
-8.11743e-05
0.00090662
-5.55138e-06
-8.0563e-05
0.000874327
-2.64107e-05
-7.47678e-05
0.000652941
-1.30254e-05
-6.15043e-05
0.000588706
-7.427e-07
-5.23818e-05
0.000635631
-6.96189e-06
-4.00411e-05
0.000475986
-2.26492e-05
-3.52329e-05
4.12039e-05
-1.92072e-05
-4.37128e-05
-9.45985e-05
-4.02767e-05
-4.97431e-05
-0.000789654
-9.8432e-06
-5.30915e-05
-0.000973655
2.96106e-05
-5.89689e-05
-0.000301214
2.91209e-06
-6.69683e-05
-0.000508495
4.57161e-06
-5.43273e-05
-0.000373399
2.44045e-05
-2.09264e-05
0.000611951
-0.00158894
6.93714e-05
0.00262972
-0.00115694
4.0616e-05
0.00334769
-0.00141916
1.11448e-05
0.00285708
-0.00137435
4.96804e-05
0.00397563
-0.00109718
3.39337e-06
0.00363162
-0.00158822
0.00010716
0.00287968
-0.00101043
0.000382303
0.00423325
-0.0010352
0.000281138
0.00433004
-0.00119531
0.000185489
0.00364526
-0.00160522
6.03775e-06
0.00316871
-0.000790541
0.000525981
0.00445363
-0.000802398
0.000295328
0.00438287
-0.000785442
0.000142762
0.00440866
-0.00111463
0.00013249
0.00414461
-0.0016405
3.20695e-05
0.00314243
-0.000514351
0.000664067
0.00474513
-0.000481883
0.000450353
0.00470218
-0.000679028
0.000334777
0.00454424
-0.000948662
0.000277894
0.00446799
-0.00129526
0.000426398
0.00381681
-0.00166865
0.000168651
0.00320993
-0.000419321
0.000826458
0.00522374
-0.000562403
0.000604171
0.0052206
-0.000458625
0.000386952
0.00516087
-0.000567096
0.000194088
0.00511689
-0.000942068
0.000161664
0.00492234
-0.0012051
-1.99495e-05
0.00534342
-0.00144635
-0.00025615
0.00450898
-0.000634229
0.000429851
0.00620214
-0.000424118
0.000321615
0.00585705
-0.000448018
0.000337512
0.00603843
-0.000259168
0.000164162
0.00643566
-0.00044174
0.000129367
0.00666398
-0.00080625
-6.51366e-05
0.00597666
-0.000946549
0.000101481
0.0056966
-0.00158673
9.07327e-05
0.00357901
-0.000517607
0.00144169
0.00663043
-0.000603141
0.00126844
0.00659609
-0.000344523
0.00112426
0.00665164
0.000105822
0.00107022
0.00645036
0.000211674
0.00104713
0.006618
-0.000344928
0.000732274
0.00698759
-0.00101074
0.000495315
0.00611169
-0.00111807
0.000552865
0.00559831
-0.00157686
0.0006602
0.00494867
-0.000478596
0.00147177
0.00644279
-0.000337061
0.00156089
0.00611007
-0.000280882
0.00146496
0.00615095
-0.000106033
0.00132868
0.00654071
0.000758004
0.00114103
0.00638918
0.000319635
0.00115908
0.00668002
0.000538797
0.00113373
0.00684984
-0.00126
0.00101976
0.00747078
-0.00143278
0.000546624
0.00513889
-0.000840332
0.000233612
0.00526181
-6.69648e-05
0.00124208
0.00636538
-0.00013618
0.00108248
0.00590725
-0.000265966
0.00109466
0.00598146
-0.000114793
0.00108354
0.00579851
0.00024451
0.00103317
0.00563617
0.000440815
0.000989089
0.00682313
0.000789919
0.00101571
0.00731454
0.000438604
0.00108187
0.00712513
-0.000463225
0.00123709
0.0081171
-0.00107368
0.000906006
0.00773056
-0.000502216
0.000154567
0.00745011
6.10008e-05
0.000737603
0.00440482
-0.000171509
0.000570265
0.00441616
-0.000209509
0.000553807
0.00424895
-0.000242587
0.000515453
0.00435089
8.3831e-05
0.00026835
0.00437219
7.942e-05
0.000215177
0.00451189
0.000466022
0.000340996
0.00464052
0.000612972
0.000567972
0.00541147
0.000263149
0.000998792
0.00638081
0.000174949
0.00108372
0.00700772
-0.000501873
0.000956614
0.0069796
-0.000162625
0.000351895
0.00775019
-1.73884e-05
-2.96149e-05
0.00054239
-7.27191e-05
6.38876e-05
0.00116702
-0.000190531
0.000225174
0.00138995
-0.000168787
0.000198358
0.00135886
-0.000121591
2.57519e-05
0.00170064
-6.35218e-05
3.20719e-05
0.00175078
-2.84121e-05
-3.71314e-05
0.00202265
1.35491e-05
-4.60251e-05
0.00247791
0.000240172
8.61098e-05
0.00312421
0.000237398
0.000222727
0.00234918
0.000212262
8.05489e-05
0.00231692
0.000242143
-1.12369e-05
0.00238418
5.55063e-05
7.1548e-05
0.00340323
-8.73093e-05
-0.000202322
0.00134873
-8.19903e-05
-0.000163169
0.000804295
-5.81967e-05
-0.000125561
0.00134563
-5.69984e-05
-7.4708e-05
0.00168477
-4.19561e-05
-4.91507e-05
0.000804123
-4.85781e-05
-2.81542e-05
-0.000133797
-6.16558e-05
-4.10021e-05
-2.23731e-05
-7.42288e-05
-4.25903e-05
-0.000222296
-6.82399e-05
-3.11321e-05
4.45336e-05
2.91649e-05
-4.75523e-05
0.000129028
-1.24559e-05
-6.66468e-05
0.000511625
-1.05206e-05
-9.26084e-05
0.000490164
0.000111684
-0.000126974
0.000178365
9.58978e-05
-8.47635e-05
0.00132725
1.68405e-05
-5.72677e-05
0.000532795
-4.84308e-06
-7.44502e-05
0.00090535
-7.37646e-06
-8.1076e-05
0.000888012
-2.86513e-05
-7.39629e-05
0.000694051
-1.33121e-05
-6.24519e-05
0.000612088
-1.89605e-06
-5.4436e-05
0.000651922
-6.34619e-06
-4.14218e-05
0.000488521
-2.33481e-05
-3.68376e-05
5.76769e-05
-2.5318e-05
-4.45061e-05
-7.45175e-05
-4.92223e-05
-5.10477e-05
-0.000742476
-2.83416e-05
-5.33682e-05
-0.000950914
2.55343e-05
-6.25253e-05
-0.000331191
1.83825e-06
-6.90021e-05
-0.000495658
6.58024e-06
-5.42972e-05
-0.000346608
2.90054e-05
-2.06417e-05
0.000603587
-0.00160265
2.74878e-05
0.00239739
-0.0012344
0.000155672
0.00326289
-0.00149802
0.000104048
0.00260453
-0.00141168
0.000105739
0.00354368
-0.00111239
-3.47185e-05
0.00340876
-0.00151576
-4.7743e-06
0.00278939
-0.00114143
0.00016314
0.0040033
-0.00113353
4.9951e-05
0.00402741
-0.00110222
6.28383e-05
0.00358286
-0.00168896
7.85439e-05
0.00288487
-0.000951112
0.000548678
0.00430174
-0.000873757
0.000367215
0.00421853
-0.000792296
0.000242715
0.00427967
-0.00128949
0.000149487
0.00367666
-0.00155239
-2.31832e-05
0.00310379
-0.000638188
0.000702971
0.00455222
-0.00062394
0.000482951
0.00440806
-0.000781136
0.000277744
0.00434999
-0.000866676
0.000142495
0.00431667
-0.00125184
0.000122046
0.00401122
-0.0016812
7.41325e-05
0.00308085
-0.00055185
0.000863347
0.00482538
-0.000695003
0.000628975
0.00469911
-0.000547759
0.000482586
0.0046435
-0.000594598
0.000335482
0.00451416
-0.000940818
0.000334238
0.0045589
-0.00141885
0.000338259
0.00386095
-0.00168368
0.000210637
0.00323662
-0.000553258
0.000890672
0.00521794
-0.000444786
0.000701708
0.00514687
-0.000502088
0.000552149
0.00510947
-0.000478151
0.000356136
0.0052178
-0.000562191
0.000145918
0.00525309
-0.000928847
0.000144411
0.00488058
-0.00116165
-0.00012318
0.00542555
-0.0014029
-0.000238867
0.00456402
-0.000667645
0.000531787
0.00632341
-0.000654662
0.000291924
0.00628335
-0.000494669
0.000293337
0.00605137
-0.000287628
0.000334137
0.00626191
-0.000185467
0.000270466
0.0066917
-0.0004296
-2.7248e-06
0.00668624
-0.000757621
-0.000111981
0.005937
-0.000926132
0.00015559
0.0054398
-0.00161914
1.01716e-05
0.00361111
-0.000536682
0.00146965
0.00644867
-0.000404826
0.00137763
0.00658901
-0.000556582
0.00120506
0.00679099
-0.000254266
0.00113885
0.00673123
0.000507505
0.00125283
0.00649516
6.11637e-05
0.00100057
0.00660817
-0.000219448
0.00077464
0.00746651
-0.0010019
0.00043423
0.00597221
-0.00118017
0.000538546
0.00546735
-0.00152535
0.000813184
0.0048205
-0.000373674
0.00150175
0.00640947
-1.83751e-05
0.00148867
0.00639721
-0.000416802
0.00147261
0.00625325
-0.000449091
0.00140292
0.00641102
0.00020955
0.00130038
0.00641632
0.00044298
0.00125424
0.00629185
0.000866918
0.00112705
0.00660969
-1.97361e-05
0.00127217
0.00705577
-0.00118583
0.00109445
0.00764555
-0.00144888
0.000494583
0.00525313
-0.000927624
0.000295874
0.00539134
6.73311e-05
0.00120958
0.00639313
-5.96202e-05
0.00106559
0.00627038
-0.000302216
0.00104123
0.00605339
-0.000294324
0.00108431
0.00603242
0.000119755
0.00109291
0.00570285
0.000183706
0.000961168
0.00555981
0.000553528
0.000903641
0.0068477
0.000742166
0.00105646
0.00721075
-8.42506e-05
0.00138939
0.00732023
-0.000475085
0.00124768
0.00842545
-0.00153658
0.000751316
0.00816852
-0.000485273
0.000240886
0.00753188
1.37114e-05
0.00067472
0.00430961
-4.83361e-05
0.000629892
0.00432081
-0.000301564
0.000561442
0.00451956
-0.000250866
0.000500607
0.00434588
-0.000270378
0.000468081
0.00429994
-0.000149476
0.000218262
0.00445506
7.41137e-05
7.35791e-05
0.00467679
0.000393066
7.01612e-05
0.00475882
0.000589784
0.000473828
0.00558683
0.00071556
0.000919781
0.00606659
0.000485669
0.00110679
0.00658414
-0.00037239
0.000943794
0.00700224
-0.000216102
0.000338979
0.00768282
-0.000217021
-7.31597e-05
0.00201628
-6.87397e-05
-3.45564e-05
0.000627584
-5.60025e-05
5.20301e-05
0.00133797
-0.000190609
0.000216351
0.00150557
-0.000192889
0.00018273
0.00135281
-0.000107037
3.50567e-05
0.00175611
-8.70163e-05
4.72706e-05
0.00169173
-3.73279e-05
-1.08563e-06
0.00194081
9.74785e-06
-7.03598e-06
0.00249306
0.000186395
0.000130614
0.00305909
0.000282731
0.000187006
0.00194754
0.000305709
2.84061e-05
0.00196105
0.000339214
-2.47278e-05
0.00225292
-5.34493e-05
6.13606e-05
0.00349122
-6.88955e-05
-0.000212773
0.00212576
-9.25926e-05
-0.000165401
0.00143871
-8.45928e-05
-0.000163652
0.000919601
-6.3522e-05
-0.000122725
0.00142852
-5.15353e-05
-8.82197e-05
0.00176206
-3.53041e-05
-6.07804e-05
0.000870157
-4.1937e-05
-3.1008e-05
-0.000108201
-6.29566e-05
-4.3688e-05
1.83332e-05
-8.85116e-05
-3.74611e-05
-0.000152774
-8.1469e-05
-2.33067e-05
5.25347e-05
3.53948e-07
-3.61219e-05
6.9808e-05
-1.76625e-05
-5.86613e-05
0.000520875
9.73575e-07
-0.000100593
0.000464648
0.000115063
-0.000143316
0.000128435
9.89882e-05
-8.80594e-05
0.00134533
5.69685e-05
-2.71242e-05
-0.000222745
1.52589e-06
-5.03941e-05
0.000507213
-8.74768e-06
-7.49551e-05
0.000907977
-8.90233e-06
-8.12223e-05
0.000904174
-3.0197e-05
-7.32292e-05
0.000735025
-1.45014e-05
-6.36543e-05
0.000635808
-2.71463e-06
-5.64042e-05
0.000669619
-5.28537e-06
-4.3058e-05
0.000500027
-2.43197e-05
-3.8526e-05
7.60164e-05
-3.01686e-05
-4.58122e-05
-4.95844e-05
-5.55895e-05
-5.29588e-05
-0.000687296
-3.69069e-05
-5.6599e-05
-0.000919933
2.16379e-05
-6.34957e-05
-0.000358335
1.76041e-07
-7.01793e-05
-0.000479952
7.74341e-06
-5.39469e-05
-0.000321046
3.48136e-05
-2.03151e-05
0.000589088
-0.00161823
7.23125e-06
0.00226765
-0.00130568