/*--------------------------------*- C++ -*----------------------------------*\
  =========                 |
  \\      /  F ield         | OpenFOAM: The Open Source CFD Toolbox
   \\    /   O peration     | Website:  https://openfoam.org
    \\  /    A nd           | Version:  7
     \\/     M anipulation  |
\*---------------------------------------------------------------------------*/
FoamFile
{
    version     2.0;
    format      ascii;
    class       volVectorField;
    location    "9";
    object      U;
}
// * * * * * * * * * * * * * * * * * * * * * * * * * * * * * * * * * * * * * //

dimensions      [0 1 -1 0 0 0 0];

internalField   nonuniform List<vector> 
18750
(
(0.0858697 -0.793766 -0.0599344)
(-0.730327 -1.45552 0.068139)
(0.563926 0.00923416 -0.892597)
(0.0557994 -0.824124 -0.0486258)
(-3.66772 -1.95134 0.702548)
(-0.331764 -0.372168 -0.172315)
(-0.807557 -1.3424 -0.0180008)
(0.369546 0.0854085 -1.12967)
(0.534116 0.0351713 -0.904908)
(0.0268528 -0.840117 -0.0393012)
(-4.29255 -2.91254 0.0956319)
(-2.12952 -0.698416 2.06039)
(-3.64356 -2.08555 0.619118)
(-0.0991454 -0.10054 -0.475714)
(-0.382699 -0.40487 -0.214123)
(-0.874799 -1.22961 -0.118861)
(-0.0157059 0.051488 -0.933432)
(0.367606 0.106101 -1.17769)
(0.497644 0.0528915 -0.911559)
(0.00444793 -0.84249 -0.0335359)
(-3.49544 -3.15292 0.364922)
(-4.57604 -1.33892 1.97545)
(-4.29715 -3.16784 -0.139461)
(-1.97167 0.0647915 2.56135)
(-2.07737 -0.651543 2.12004)
(-3.55962 -2.13408 0.516774)
(-0.173291 0.84276 -0.940497)
(-0.146858 -0.0789835 -0.476404)
(-0.417544 -0.42454 -0.262284)
(-0.973566 -1.07636 -0.215845)
(0.484871 0.31065 -1.36612)
(0.00412836 0.0199982 -1.01284)
(0.360755 0.114242 -1.21069)
(0.463261 0.0693499 -0.920755)
(-0.0164025 -0.828407 -0.0301237)
(-3.80376 -2.9938 -0.0292037)
(-4.35562 -2.56524 1.09026)
(-3.34207 -3.29921 0.45593)
(-3.93944 0.500863 3.31292)
(-4.28471 -1.66357 2.62862)
(-4.22135 -3.20392 -0.327613)
(-1.58829 -0.357755 1.7125)
(-2.16106 -0.0237734 2.52626)
(-1.96195 -0.508954 2.16382)
(-3.51298 -1.9915 0.452465)
(-0.278003 0.949902 -1.09221)
(-0.239709 0.888617 -0.98962)
(-0.181567 -0.0642977 -0.464151)
(-0.439709 -0.436446 -0.29479)
(-1.06194 -0.884334 -0.40028)
(0.587608 -0.0826987 -1.02157)
(0.503578 0.243039 -1.35609)
(0.0235559 -0.0031246 -1.08153)
(0.352961 0.128116 -1.23928)
(0.438663 0.0697727 -0.926567)
(-0.0368277 -0.796498 -0.031025)
(-3.403 -2.64068 -0.0598823)
(-4.79876 -1.61748 0.552318)
(-3.57355 -3.29208 0.131794)
(-4.74151 -1.15147 1.49454)
(-4.23771 -3.16881 0.61121)
(-3.19449 -3.41739 0.528733)
(-4.03751 0.767672 3.40151)
(-4.47562 -1.56756 2.36495)
(-4.59431 -1.92357 2.32886)
(-4.14392 -3.21515 -0.412242)
(-1.39584 -0.656324 1.32907)
(-1.68015 -0.417446 1.60677)
(-2.2242 -0.0113361 2.47566)
(-2.095 -0.284261 2.01764)
(-3.45686 -1.72812 0.896487)
(-0.0630385 0.281298 -0.681659)
(-0.345559 0.939923 -1.13923)
(-0.320565 0.899639 -0.998086)
(-0.203174 -0.0622719 -0.432635)
(-0.42818 -0.41768 -0.334724)
(-1.09847 -0.779443 -0.482559)
(0.0339392 0.118936 -1.19933)
(0.603159 0.0192934 -1.03325)
(0.526684 0.181689 -1.33825)
(0.0436152 -0.0152488 -1.1423)
(0.346147 0.140604 -1.26544)
(0.404837 0.0727247 -0.931197)
(-0.0616581 -0.750285 -0.0336076)
(-3.64038 -1.40505 0.100926)
(-4.37536 -1.78354 0.119563)
(-3.33165 -2.77575 -0.0720597)
(-5.33798 -0.265013 1.23064)
(-4.60399 -1.92466 0.533056)
(-3.38747 -3.45744 0.211481)
(-4.68973 -0.467069 1.71469)
(-4.67914 -1.99977 1.31773)
(-4.15067 -3.27493 0.603651)
(-3.1107 -3.52994 0.768592)
(-3.77187 0.832864 2.07451)
(-4.66865 0.105284 2.93032)
(-4.18536 -0.914728 2.89246)
(-3.95732 -3.94575 1.66907)
(-4.14917 -3.18078 -0.666784)
(-1.53296 -1.14211 0.888188)
(-1.53351 -0.745162 0.574707)
(-1.82262 -0.541652 1.45305)
(-2.37355 0.0594773 2.24989)
(-2.11203 0.0174566 1.91239)
(-3.59918 -0.687249 1.31098)
(0.22109 0.1923 -0.720017)
(-0.116928 0.268763 -0.68912)
(-0.388599 0.8927 -1.11274)
(-0.368568 0.889532 -0.982708)
(-0.216524 -0.0777997 -0.385864)
(-0.399559 -0.351039 -0.390789)
(-1.10489 -0.682452 -0.526131)
(0.00814034 -0.133793 -0.734493)
(0.0535133 0.118405 -1.19754)
(0.630827 -0.0563716 -1.0406)
(0.553943 0.131226 -1.31659)
(0.0650139 -0.0146255 -1.19599)
(0.335793 0.158219 -1.29297)
(0.381278 0.0735643 -0.933912)
(-0.0907982 -0.693329 -0.0365885)
(-2.78568 -1.74897 0.272383)
(-4.08643 -1.17363 0.238225)
(-3.41927 -1.90356 -0.0369686)
(-4.56908 -1.45588 -0.0209304)
(-4.21611 -2.05284 0.11865)
(-2.91872 -3.10171 -0.00366256)
(-5.23899 0.318067 1.41928)
(-4.90696 -1.9952 0.97799)
(-4.2379 -2.26272 0.719417)
(-3.13035 -3.66094 0.0710184)
(-4.41757 -0.0494334 2.11562)
(-4.70272 -0.471274 1.87246)
(-4.61529 -1.86757 1.29494)
(-3.92784 -3.45256 0.256571)
(-3.08577 -3.55321 0.888152)
(-3.01893 0.907967 2.26248)
(-3.92866 0.597864 2.08106)
(-4.44406 0.49371 3.41423)
(-4.38209 -0.14888 3.66523)
(-4.26457 -2.67449 3.02418)
(-4.24406 -2.81999 -0.71031)
(-1.74994 -1.02922 0.487476)
(-1.51855 -0.731407 -0.269541)
(-1.61411 -0.779466 0.403026)
(-1.92847 -0.694366 1.30029)
(-2.35924 0.0173535 2.02682)
(-2.24417 0.240431 1.64835)
(-3.58534 -0.205995 1.36015)
(0.0136954 -0.186907 -0.201119)
(0.212061 0.126351 -0.658067)
(-0.0984715 0.197122 -0.678511)
(-0.426651 0.827325 -1.02994)
(-0.441463 0.854343 -0.940958)
(-0.221154 -0.100044 -0.346743)
(-0.363564 -0.273068 -0.45944)
(-1.10724 -0.519882 -0.536585)
(-0.261896 0.171768 -0.701137)
(0.0156643 -0.163962 -0.723433)
(0.0402988 0.150854 -1.20855)
(0.620826 -0.0297253 -1.07397)
(0.58744 0.091133 -1.29124)
(0.084549 -0.00215337 -1.24378)
(0.323024 0.17677 -1.32376)
(0.358576 0.0719911 -0.936305)
(-0.121869 -0.629773 -0.0384228)
(-2.32623 -1.75621 0.131717)
(-3.16582 -1.69009 0.182185)
(-2.69751 -1.93373 0.207388)
(-3.73566 -1.51789 0.397148)
(-4.05861 -1.35359 0.368432)
(-3.21218 -2.23676 -0.102338)
(-4.79199 -0.651798 0.653853)
(-4.63932 -1.66203 -0.0935426)
(-4.06959 -2.33192 0.187001)
(-2.69622 -3.30678 0.0184164)
(-4.93507 0.625973 1.99977)
(-5.17771 -0.275702 1.7036)
(-4.91583 -2.23103 0.150861)
(-4.08075 -2.44956 0.877562)
(-2.90437 -3.77621 0.0384299)
(-4.52757 0.0742057 1.36455)
(-4.55481 -0.516001 2.02823)
(-4.65194 -0.255091 2.08021)
(-4.51375 -2.08686 1.28762)
(-3.52882 -4.08469 -0.0657022)
(-3.02448 -3.5821 0.613862)
(-2.72161 0.899497 2.21788)
(-2.91958 0.974092 2.44902)
(-3.78266 0.632161 2.58417)
(-4.64538 0.390584 3.4561)
(-4.7673 -0.587741 3.82456)
(-4.3412 -2.40855 3.24189)
(-4.75413 -1.14131 -0.942471)
(-1.59283 -0.100906 -0.43576)
(-1.74214 -0.70942 -0.3479)
(-1.51892 -0.620527 -0.549797)
(-1.76012 -0.842171 0.269275)
(-1.92872 -0.906487 1.22609)
(-2.30461 -0.319105 1.78864)
(-2.27074 0.252267 1.26072)
(-3.52956 0.440559 1.1579)
(0.195351 -0.214216 -0.385089)
(0.0386833 -0.218819 -0.209178)
(0.186117 0.0769887 -0.592538)
(-0.0803252 0.0751322 -0.650335)
(-0.449844 0.783177 -0.927274)
(-0.496839 0.803041 -0.893023)
(-0.223996 -0.106714 -0.344072)
(-0.333679 -0.189133 -0.554769)
(-1.12964 -0.287893 -0.478538)
(-0.388067 -0.0558206 -1.22265)
(-0.280368 0.110813 -0.692256)
(0.0234663 -0.188942 -0.724318)
(0.0549511 0.14004 -1.18902)
(0.647265 -0.0327288 -1.0807)
(0.619215 0.0655431 -1.26591)
(0.100287 0.020822 -1.28827)
(0.310718 0.189648 -1.35508)
(0.340374 0.0649669 -0.937267)
(-0.152892 -0.564105 -0.0373275)
(-2.28317 -1.59022 -0.054762)
(-3.0195 -1.12386 0.16891)
(-2.24847 -1.84689 0.118353)
(-3.59947 -0.894783 0.483077)
(-3.0726 -1.85587 0.097048)
(-2.6152 -2.02363 0.182318)
(-3.83033 -1.03331 0.21162)
(-3.65442 -1.85746 0.24192)
(-3.95574 -1.739 0.385427)
(-2.752 -2.71733 -0.215349)
(-4.45226 -0.277221 1.16228)
(-4.81002 -0.675779 0.655407)
(-4.44715 -1.99179 0.0539204)
(-3.88059 -2.53768 0.572333)
(-2.33916 -3.53882 0.135466)
(-4.98639 0.884958 1.4749)
(-5.13008 0.252596 1.57762)
(-5.1042 -0.866026 1.79905)
(-4.52465 -2.35524 0.910321)
(-3.78796 -2.49664 0.906797)
(-2.8903 -3.53792 0.0287174)
(-3.99535 -0.100457 2.07622)
(-4.52206 -0.0634152 1.02158)
(-4.66788 0.162438 1.92053)
(-4.76686 -0.748034 2.18675)
(-4.50979 -2.28753 1.50076)
(-3.15177 -4.66845 -0.249804)
(-3.23667 -3.50392 0.392767)
(-2.75012 1.01249 2.06017)
(-2.73353 0.923462 2.2714)
(-2.91465 0.895898 2.68252)
(-3.81153 0.530489 3.01044)
(-4.7146 0.332936 3.35176)
(-4.6707 -0.48941 3.80546)
(-4.45855 -1.95062 3.2422)
(-4.89668 -1.38546 -0.594184)
(-1.12486 -0.108983 0.419589)
(-1.53141 -0.0266402 -0.301154)
(-1.66317 -0.471681 -0.809116)
(-1.53534 -0.65334 -0.58863)
(-1.82769 -0.964352 0.280725)
(-1.90397 -1.11142 1.21575)
(-2.21113 -0.583837 1.44534)
(-2.16354 0.122732 0.945221)
(-3.41185 0.402448 1.07602)
(-0.365613 0.48119 0.0250266)
(0.185814 -0.264227 -0.343726)
(0.065294 -0.230948 -0.257962)
(0.206907 0.0152275 -0.524673)
(-0.0456869 -0.0516612 -0.608058)
(-0.47038 0.745096 -0.814495)
(-0.545298 0.735119 -0.838099)
(-0.252226 -0.108189 -0.356122)
(-0.32053 -0.0943997 -0.675564)
(-1.1479 -0.114271 -0.39538)
(-0.339785 -0.2098 -1.1806)
(-0.384319 -0.0401106 -1.16207)
(-0.290078 0.077508 -0.692113)
(0.0329624 -0.205966 -0.740348)
(0.0603181 0.0968668 -1.16415)
(0.637802 -0.0433474 -1.10895)
(0.658711 0.0494479 -1.23802)
(0.111283 0.0518943 -1.33104)
(0.300279 0.195624 -1.38519)
(0.328206 0.0533415 -0.936993)
(-0.1861 -0.499289 -0.0326591)
(-2.22882 -1.34797 -0.0744347)
(-2.95955 -0.692814 0.136616)
(-2.14329 -1.73212 -0.0833194)
(-3.26362 -0.759714 0.00253244)
(-2.78942 -1.46134 0.269645)
(-2.01563 -2.08576 0.110788)
(-3.40817 -0.776795 0.298213)
(-3.41887 -1.18172 0.581626)
(-2.87719 -1.98624 -0.145087)
(-2.63816 -1.94342 0.0157658)
(-3.77796 -0.397075 0.502292)
(-3.88248 -1.17497 0.294499)
(-3.56589 -1.89043 0.1107)
(-4.11032 -1.39969 0.553198)
(-2.29324 -3.15121 -0.379702)
(-4.21563 0.507733 1.637)
(-4.4468 0.194125 1.04103)
(-4.74293 -0.715506 0.696682)
(-4.31044 -2.13403 0.166493)
(-3.55708 -2.85665 0.329253)
(-2.38238 -3.39907 0.0630378)
(-4.53152 0.423432 2.20231)
(-4.88079 0.527735 1.6179)
(-4.90954 -0.0231987 1.63011)
(-4.94423 -0.903085 1.90479)
(-4.43292 -2.50461 1.15142)
(-3.45482 -2.45874 1.31528)
(-2.64708 -3.34118 0.0680129)
(-3.93393 -0.243211 2.22613)
(-4.14413 -0.145776 2.10096)
(-4.48372 -0.251488 1.22713)
(-4.71847 -0.733583 1.89774)
(-4.93531 -0.561643 2.38742)
(-4.22543 -2.84342 1.77477)
(-2.85804 -4.69897 0.108808)
(-3.52094 -3.53078 0.199364)
(-2.73717 -0.311622 2.0065)
(-2.89729 0.111856 1.70021)
(-2.7441 0.738192 2.08858)
(-3.00359 0.698098 2.78768)
(-3.83781 0.726672 3.26771)
(-4.73211 0.384324 3.2702)
(-4.85793 -0.658294 3.75736)
(-4.83024 -1.30816 2.8832)
(-4.94575 -1.7155 -0.478185)
(-0.969867 -0.622952 0.582024)
(-1.06699 -0.359523 0.237607)
(-1.43578 -0.197971 0.0151077)
(-1.53432 -0.199983 -1.09332)
(-1.53054 -0.719569 -0.539216)
(-1.84067 -1.07804 0.416972)
(-1.79186 -1.32098 1.262)
(-1.97179 -0.998626 0.838157)
(-2.00711 -0.0590594 0.394655)
(-3.094 -0.0235392 1.20019)
(-0.898916 0.296854 -0.24142)
(-0.415715 0.244895 -0.0689428)
(0.189271 -0.283566 -0.302133)
(0.0839055 -0.23077 -0.304098)
(0.232564 -0.0561261 -0.455067)
(0.00287503 -0.170477 -0.549821)
(-0.474114 0.686871 -0.69001)
(-0.585792 0.657409 -0.786373)
(-0.289217 -0.100007 -0.389834)
(-0.321762 -0.0114915 -0.807337)
(-1.15074 -0.0589742 -0.316155)
(-0.374766 -0.18057 -1.65472)
(-0.335318 -0.247263 -1.16314)
(-0.383675 -0.0611375 -1.11615)
(-0.301179 0.0376203 -0.697714)
(0.0422404 -0.21445 -0.766177)
(0.072333 0.0503298 -1.13181)
(0.66774 -0.03308 -1.11375)
(0.691832 0.0342267 -1.21153)
(0.122918 0.0944774 -1.37256)
(0.293616 0.192325 -1.41553)
(0.320677 0.0381979 -0.934738)
(-0.226171 -0.433984 -0.024559)
(-1.97961 -1.36446 0.0488183)
(-2.52825 -1.1138 0.0580386)
(-2.04435 -1.54976 -0.0883065)
(-3.01867 -0.514055 0.0652218)
(-2.86953 -0.86712 0.117601)
(-2.11937 -1.74786 -0.0707141)
(-3.13187 -0.568273 0.311562)
(-2.93003 -1.49252 0.160468)
(-2.54465 -1.78057 0.288485)
(-1.85389 -2.23643 0.123096)
(-3.48616 -0.394252 0.501219)
(-3.26016 -1.03895 0.315805)
(-3.36577 -1.14441 0.488993)
(-2.83184 -2.02798 -0.236819)
(-2.56627 -2.06756 0.0686852)
(-3.71127 0.0666842 0.772242)
(-3.74013 -0.607097 0.498994)
(-4.00781 -1.42901 0.183015)
(-3.33468 -2.04927 -0.0049983)
(-3.72789 -1.81989 0.695966)
(-1.54525 -3.66948 -0.481923)
(-4.29433 -0.21569 1.96823)
(-4.19737 -0.783314 1.63701)
(-4.49154 0.0454115 1.12366)
(-4.55652 -0.9359 0.953376)
(-4.26533 -2.23359 0.0364245)
(-3.2073 -3.09837 0.749665)
(-2.07967 -3.44063 0.0154633)
(-3.9502 -0.364557 2.91213)
(-4.26596 -0.516954 2.29118)
(-4.86899 -0.125408 1.76518)
(-4.85436 -0.259618 1.77142)
(-4.96228 -0.613734 2.13109)
(-3.98673 -3.28659 0.834401)
(-2.78869 -3.03226 1.16643)
(-2.80372 -2.8137 0.126928)
(-3.98731 -0.89959 2.67015)
(-4.06155 -0.00143451 2.14568)
(-4.12484 0.725027 2.04832)
(-4.68874 -0.960664 1.0212)
(-4.89425 -0.992445 1.95144)
(-4.50802 -2.10071 2.65003)
(-4.27381 -3.18117 1.81943)
(-3.126 -4.0122 0.936916)
(-3.43758 -3.69545 0.104388)
(-2.66581 -0.553376 2.17786)
(-2.88424 -0.565543 1.7285)
(-2.8122 -0.810693 1.51368)
(-2.67753 -0.0663286 1.64151)
(-3.11799 0.708632 2.64578)
(-3.94049 0.72921 3.34036)
(-4.81857 -0.000224911 3.42103)
(-5.00833 -1.07505 3.78167)
(-4.96733 -0.890813 2.62075)
(-4.86085 -2.20402 -0.145297)
(-0.765672 -0.6507 1.43474)
(-0.916747 -0.739659 0.528539)
(-1.01968 -0.274666 0.255686)
(-1.33491 -0.367013 0.161839)
(-1.49416 -0.201681 -1.13037)
(-1.49679 -0.785288 -0.352967)
(-1.85433 -1.11271 0.590592)
(-1.64625 -1.47446 1.26387)
(-1.68597 -1.24415 0.376023)
(-1.86785 -0.236221 0.200937)
(-2.76871 -0.329993 1.30948)
(-0.722376 -0.28125 -0.942676)
(-0.967521 0.132854 -0.249992)
(-0.44245 0.155832 -0.100306)
(0.193266 -0.286661 -0.267683)
(0.10466 -0.235627 -0.339307)
(0.260429 -0.126847 -0.392869)
(0.0617227 -0.287914 -0.487237)
(-0.459316 0.588673 -0.553958)
(-0.616307 0.565536 -0.747793)
(-0.323136 -0.0965791 -0.440639)
(-0.326997 0.0627206 -0.92826)
(-1.15348 -0.0348043 -0.23964)
(-0.578384 0.22886 -1.9042)
(-0.387823 -0.224614 -1.62282)
(-0.333434 -0.268089 -1.18507)
(-0.386244 -0.106338 -1.09085)
(-0.307767 0.0058981 -0.710416)
(0.0505274 -0.219455 -0.796906)
(0.0842272 0.00171211 -1.10054)
(0.658912 -0.0705126 -1.139)
(0.742724 0.0139542 -1.18226)
(0.111444 0.148982 -1.41809)
(0.293453 0.186262 -1.44671)
(0.318093 0.0218471 -0.929745)
(-0.27785 -0.374492 -0.0144711)
(-1.9246 -1.1448 0.013715)
(-2.38019 -0.88299 -0.0401159)
(-1.97923 -1.3509 0.0555233)
(-2.74118 -0.876899 0.212877)
(-2.40817 -1.34864 0.0817753)
(-2.01202 -1.58146 -0.0668116)
(-2.95801 -0.638358 0.292611)
(-2.9816 -0.772246 0.103925)
(-2.74263 -1.08504 0.167799)
(-1.74534 -2.10826 -0.0135854)
(-3.13492 -0.653737 0.420331)
(-2.95843 -0.987736 0.359891)
(-2.86691 -1.62102 0.212895)
(-2.25779 -2.04951 0.430824)
(-1.69056 -2.37272 0.0386881)
(-3.40369 -0.445625 0.730107)
(-3.4444 -0.560217 0.411144)
(-3.30014 -1.03858 0.199435)
(-3.08377 -1.64065 0.385167)
(-2.9587 -1.9315 -0.321585)
(-2.42708 -2.31552 -0.0165295)
(-3.82708 -0.705123 0.683184)
(-3.80445 -0.647887 0.56207)
(-3.90377 -0.737231 0.420592)
(-3.95248 -1.52951 0.155718)
(-3.34774 -2.15726 -0.0723491)
(-3.75592 -1.81568 0.782181)
(-1.52709 -3.63246 -0.325389)
(-4.31213 -0.739749 2.25317)
(-4.23006 -0.879875 1.80823)
(-4.26958 -0.192384 1.45704)
(-4.39669 -0.36477 1.22893)
(-4.70439 -0.714939 1.06253)
(-3.90778 -2.71037 0.266641)
(-3.13377 -3.05674 1.18862)
(-2.29135 -3.14905 -0.16652)
(-4.05463 -0.40976 2.9615)
(-3.7228 -0.415034 2.96048)
(-4.25668 -0.689473 2.40282)
(-4.70934 -0.0852897 1.92741)
(-4.91184 0.0310036 2.05902)
(-4.76029 -1.24411 2.09842)
(-3.77631 -3.90751 0.87008)
(-2.54766 -3.6542 1.42594)
(-2.54492 -2.74731 0.566671)
(-3.92522 -0.658014 2.72868)
(-3.83548 -0.885329 2.76478)
(-3.96773 -0.292805 2.44388)
(-4.15661 0.54927 2.04695)
(-4.64351 -0.558295 1.73118)
(-4.77944 -1.34773 2.34153)
(-4.77439 -1.36955 2.86534)
(-4.40986 -2.85533 2.20937)
(-3.32646 -3.74742 1.07275)
(-3.55272 -3.61521 0.147931)
(-2.98925 0.570213 1.79111)
(-2.67886 -0.471997 2.11943)
(-2.8723 -0.649302 1.57703)
(-2.94256 -0.244358 0.922471)
(-2.68378 -0.431347 1.42521)
(-3.30046 0.690125 2.34558)
(-3.99013 0.600996 3.3663)
(-4.74568 -0.165545 3.49874)
(-4.94773 -0.956139 3.57607)
(-4.64236 -1.32763 2.72239)
(-4.77084 -2.40927 -0.498931)
(-0.583281 -0.326985 1.07622)
(-0.748524 -0.761677 1.42139)
(-0.857517 -0.761468 0.472351)
(-0.997359 -0.381032 -0.0239032)
(-1.21745 -0.408455 0.274059)
(-1.37604 -0.431429 -0.980751)
(-1.44609 -0.78655 -0.126838)
(-1.80818 -1.19672 0.788182)
(-1.37977 -1.62717 1.16062)
(-1.46193 -1.23712 0.273148)
(-1.82071 -0.221865 -0.0881084)
(-2.47979 -0.731556 1.16127)
(-0.397871 -0.299891 -1.23296)
(-0.779669 -0.35886 -0.810619)
(-1.0215 -0.026901 -0.297045)
(-0.47257 0.0465264 -0.145172)
(0.185984 -0.273781 -0.247686)
(0.118106 -0.241027 -0.365687)
(0.303771 -0.253485 -0.286998)
(0.143023 -0.418063 -0.40861)
(-0.383825 0.440161 -0.454336)
(-0.633881 0.466261 -0.736453)
(-0.338883 -0.103526 -0.508501)
(-0.358958 0.146197 -1.02829)
(-1.15444 -0.0743588 -0.144464)
(-0.593813 0.239321 -1.78733)
(-0.594555 0.168277 -1.88692)
(-0.397786 -0.26463 -1.59259)
(-0.333206 -0.280315 -1.2269)
(-0.388932 -0.119194 -1.09391)
(-0.313273 -0.0211355 -0.729739)
(0.058052 -0.223557 -0.82987)
(0.0963425 -0.0406042 -1.07881)
(0.664375 -0.0388364 -1.16267)
(0.770507 -0.00147689 -1.16272)
(0.110734 0.194353 -1.46178)
(0.284874 0.189271 -1.47967)
(0.319511 0.00609697 -0.921926)
(-0.327592 -0.305247 -0.00313042)
(-1.77678 -1.02795 0.0441921)
(-2.25257 -0.847158 -2.35406e-05)
(-1.8651 -1.21076 -0.00258699)
(-2.58554 -0.956018 -0.0353514)
(-2.36263 -0.942147 0.0137716)
(-1.73091 -1.63946 0.0877102)
(-2.76973 -0.815304 0.339624)
(-2.78412 -1.11377 0.22744)
(-2.28117 -1.58212 0.128348)
(-1.83686 -1.77942 -0.0669239)
(-2.91153 -0.549041 0.451729)
(-2.85802 -0.821295 0.222347)
(-2.88157 -0.91304 0.114377)
(-2.64691 -1.25228 0.167348)
(-1.69261 -2.16355 -0.00593751)
(-3.15378 -0.390855 0.58428)
(-3.09339 -0.749833 0.417377)
(-2.89827 -1.13539 0.360689)
(-2.71096 -1.77774 0.265688)
(-2.13245 -2.18973 0.55717)
(-1.4751 -2.5396 0.0628894)
(-3.48461 -0.278054 0.925126)
(-3.39576 -0.671704 0.679214)
(-3.31398 -0.894533 0.374972)
(-3.23083 -1.19675 0.175819)
(-3.01229 -1.78552 0.370891)
(-2.96723 -2.07195 -0.356904)
(-2.33026 -2.40108 -0.0916212)
(-4.07004 -0.865043 0.575154)
(-3.83907 -0.907988 0.517067)
(-3.74723 -1.10443 0.488069)
(-4.15296 -0.779755 0.0569242)
(-4.08243 -1.41834 0.210198)
(-3.51781 -2.08838 -0.196045)
(-3.09492 -2.62014 0.5288)
(-1.06157 -3.70117 -0.299331)
(-4.31882 -0.397588 2.23323)
(-4.25204 -1.0806 2.15191)
(-4.2807 -0.625223 1.87751)
(-4.33887 -0.0114763 1.44259)
(-4.40474 -0.296062 1.46237)
(-4.41228 -1.72697 1.26354)
(-3.1281 -3.54703 0.32778)
(-2.81709 -3.0066 1.63357)
(-2.09136 -3.24128 0.0564675)
(-4.25599 -0.706941 2.64405)
(-3.92424 -0.761374 3.09946)
(-3.97738 -0.330518 2.91738)
(-4.23968 -1.10273 2.42343)
(-4.52181 0.389719 2.11384)
(-4.65562 -0.530564 2.20832)
(-4.82767 0.709745 2.50987)
(-3.65072 -3.9352 1.07095)
(-1.20658 -4.84298 0.527566)
(-2.44715 -2.77148 0.751699)
(-4.16691 0.20182 2.79651)
(-3.8531 -0.909058 2.72658)
(-3.8499 -0.80824 2.77842)
(-3.75247 -0.581921 2.58902)
(-3.92345 -0.287342 2.40421)
(-4.48652 -0.324927 2.33166)
(-4.93787 -1.35183 2.46166)
(-4.96995 -0.687434 2.63511)
(-4.5771 -2.97339 2.30434)
(-3.95326 -3.5724 1.2621)
(-3.43886 -3.76056 0.0221386)
(-2.93685 -0.00833224 2.36788)
(-2.86668 -0.787693 1.55329)
(-2.71549 -0.704316 2.02163)
(-2.73269 -1.10554 1.45604)
(-2.87176 -0.610013 0.545122)
(-2.85804 -0.55862 1.07924)
(-3.29908 0.218874 1.90387)
(-4.05406 0.508066 3.14028)
(-4.7619 0.0700803 3.43049)
(-5.08416 -0.900414 3.03438)
(-4.12744 -2.26025 2.70558)
(-4.40457 -2.89841 -0.692834)
(-0.333613 -0.468992 -0.229246)
(-0.688183 -0.313216 0.778937)
(-0.794586 -0.801993 1.39295)
(-0.796502 -0.748048 0.394188)
(-1.02367 -0.499932 -0.131424)
(-1.07015 -0.629156 0.285238)
(-1.19838 -0.767074 -0.646184)
(-1.42193 -0.811759 -0.0381248)
(-1.84716 -1.10019 0.838262)
(-1.05271 -1.67696 0.900343)
(-1.2507 -1.17926 0.224818)
(-1.80939 -0.330053 -0.224763)
(-2.02238 -1.25479 0.964572)
(-0.827567 -0.265031 -1.31509)
(-0.486512 -0.4388 -1.15943)
(-0.814113 -0.428173 -0.758825)
(-1.06503 -0.159605 -0.390315)
(-0.49446 -0.0692474 -0.192418)
(0.18233 -0.261931 -0.22302)
(0.117928 -0.248233 -0.383332)
(0.327292 -0.336132 -0.224764)
(0.238175 -0.553025 -0.337236)
(-0.268359 0.243554 -0.380299)
(-0.638114 0.360423 -0.730993)
(-0.343813 -0.118982 -0.593973)
(-0.39187 0.225202 -1.13514)
(-1.14534 -0.168729 -0.05206)
(-0.359395 0.123214 -1.62109)
(-0.604082 0.132469 -1.81199)
(-0.610233 0.103206 -1.87201)
(-0.404924 -0.300745 -1.56334)
(-0.334463 -0.289908 -1.27853)
(-0.392051 -0.135396 -1.11328)
(-0.31851 -0.0443156 -0.756168)
(0.0644786 -0.227203 -0.863652)
(0.109102 -0.0823821 -1.07092)
(0.652418 -0.0595925 -1.19467)
(0.871293 -0.0863027 -1.12322)
(0.11387 0.219996 -1.51745)
(0.277577 0.192394 -1.49859)
(0.326486 -0.00968836 -0.910737)
(-0.359444 -0.268911 0.00143121)
(-1.59626 -1.0155 0.0284639)
(-2.15168 -0.702807 0.0452137)
(-1.66123 -1.17934 0.0904515)
(-2.3488 -1.01532 0.0568225)
(-2.15044 -1.0472 0.0235831)
(-1.71566 -1.41028 -0.00386597)
(-2.6071 -0.731413 0.103996)
(-2.57928 -0.991431 -0.011985)
(-2.29295 -1.08684 0.0907559)
(-1.6107 -1.79135 0.0364549)
(-2.80969 -0.721159 0.308911)
(-2.72834 -0.964565 0.316759)
(-2.77571 -1.16193 0.202468)
(-2.14982 -1.72764 0.0820139)
(-1.72826 -1.90031 -0.0656882)
(-3.00257 -0.429102 0.551839)
(-2.90007 -0.506784 0.39566)
(-2.7769 -0.917566 0.189583)
(-2.71699 -1.20175 0.0918199)
(-2.35473 -1.6989 0.0751918)
(-1.55198 -2.23767 0.0383179)
(-3.18486 -0.413959 0.778528)
(-3.02919 -0.89535 0.629175)
(-2.99703 -0.841698 0.43354)
(-2.83902 -1.17565 0.349553)
(-2.65606 -1.79783 0.41575)
(-1.88597 -2.50243 0.31207)
(-1.37369 -2.59418 0.0615648)
(-3.43025 -0.472427 1.05866)
(-3.36458 -0.53329 0.885301)
(-3.35348 -0.828139 0.623737)
(-3.27502 -1.07673 0.335774)
(-3.14117 -1.45056 0.082504)
(-2.81851 -1.98847 0.307754)
(-3.02586 -2.13456 -0.506746)
(-2.26125 -2.4604 -0.0319249)
(-4.13227 -0.712533 0.644049)
(-4.12193 -1.10138 0.38436)
(-3.73031 -1.20264 0.503509)
(-3.87431 -1.00215 0.458006)
(-4.23834 -0.900883 0.148712)
(-4.11973 -1.77124 0.00736215)
(-3.47928 -2.10748 -0.246917)
(-2.81189 -3.09989 0.540905)
(-0.808377 -3.74871 -0.350838)
(-4.22333 -0.624907 2.33113)
(-4.35761 -0.704711 2.13144)
(-4.21775 -1.39806 1.99536)
(-4.37316 -0.618686 2.06641)
(-4.37009 0.666603 1.98509)
(-4.39564 -0.805074 1.32155)
(-4.32769 -1.79742 1.27375)
(-2.83113 -3.7554 0.251611)
(-2.80495 -2.79174 2.01006)
(-1.99179 -3.29872 0.213658)
(-4.03476 -0.28546 2.84968)
(-4.09494 0.180509 3.27005)
(-3.99152 -1.08801 3.03513)
(-4.00845 -1.1386 2.83255)
(-4.2359 -0.306837 2.49373)
(-4.35103 -0.12844 2.35984)
(-4.74349 1.50553 2.08646)
(-4.58945 -1.42566 2.78193)
(-3.84594 -3.62893 1.56214)
(-1.2095 -5.26051 0.153438)
(-2.40313 -2.8865 1.07272)
(-4.06102 0.676908 2.83497)
(-4.13537 -0.11376 2.73594)
(-3.81957 -0.93815 2.65596)
(-3.83394 -1.10471 2.7598)
(-3.81331 -0.248971 2.6718)
(-3.63197 -0.737635 2.52563)
(-4.72888 -0.247681 2.39309)
(-5.02034 -0.476345 2.70715)
(-3.73379 -2.66559 3.78588)
(-4.46157 -3.40105 2.84702)
(-2.71291 -5.19724 0.8164)
(-3.39432 -3.87865 -0.161671)
(-2.76761 0.536428 1.84356)
(-2.85935 -0.406756 2.14419)
(-2.79768 -1.0064 1.59707)
(-2.71046 -1.11719 1.84524)
(-2.68188 -1.28026 1.25878)
(-2.77472 -0.945156 0.411259)
(-2.96487 -0.81197 0.405731)
(-3.06379 -0.838923 0.647147)
(-4.20196 0.237177 2.84192)
(-4.92469 0.301651 3.61059)
(-4.8138 -1.05958 3.36248)
(-4.17095 -2.32991 2.77344)
(-4.14376 -3.2697 -0.978656)
(-1.26483 -0.628041 0.00424976)
(-0.356112 -0.576208 -0.249074)
(-0.766695 -0.331314 0.714769)
(-0.820378 -0.802274 1.3694)
(-0.759945 -0.714981 0.362853)
(-1.03259 -0.565375 -0.0378116)
(-0.916061 -0.821719 0.297698)
(-1.05152 -0.929174 -0.390494)
(-1.42877 -0.922866 -0.0360118)
(-1.75481 -1.13543 0.929022)
(-0.741261 -1.57918 0.609733)
(-1.02922 -1.08551 0.113534)
(-1.82417 -0.317837 -0.254851)
(-1.8657 -1.45196 0.910296)
(-1.16044 0.372873 -1.49065)
(-0.911218 -0.367978 -1.29889)
(-0.514013 -0.473443 -1.15153)
(-0.834879 -0.53328 -0.727306)
(-1.09145 -0.271569 -0.540627)
(-0.515837 -0.163102 -0.227335)
(0.173201 -0.23699 -0.22344)
(0.115806 -0.256332 -0.390251)
(0.354297 -0.421817 -0.156371)
(0.361951 -0.693078 -0.277761)
(-0.102651 0.0322093 -0.292002)
(-0.594817 0.21094 -0.739488)
(-0.325014 -0.129257 -0.696302)
(-0.453605 0.306903 -1.23636)
(-1.12269 -0.254177 0.0122284)
(0.122277 0.520937 -0.74082)
(-0.340648 0.0135067 -1.63113)
(-0.598816 0.0311529 -1.83379)
(-0.622377 0.0509945 -1.85783)
(-0.409052 -0.336679 -1.53814)
(-0.330297 -0.299109 -1.33814)
(-0.396799 -0.156687 -1.14003)
(-0.322057 -0.0663464 -0.789048)
(0.071845 -0.233037 -0.895734)
(0.118865 -0.112729 -1.08891)
(0.637829 -0.0418756 -1.2297)
(0.838834 -0.0200165 -1.2142)
(0.144803 0.20416 -1.57)
(0.27917 0.181959 -1.4982)
(0.338613 -0.0246448 -0.898078)
(-0.432788 -0.216768 0.00642039)
(-1.5064 -0.925167 0.0180353)
(-1.9388 -0.813403 0.00711802)
(-1.50977 -1.14771 0.01509)
(-2.16073 -0.889868 0.1554)
(-2.06805 -0.885557 0.0552602)
(-1.5744 -1.32387 0.0609585)
(-2.37758 -0.855781 0.102241)
(-2.2613 -1.09631 -0.0830452)
(-2.12197 -1.18138 -0.00192923)
(-1.58821 -1.5802 0.00242505)
(-2.62423 -0.685025 0.163225)
(-2.57653 -0.837468 0.102362)
(-2.58139 -0.820708 0.00634296)
(-2.10378 -1.36419 0.0962916)
(-1.62719 -1.77165 0.00532614)
(-2.87786 -0.556588 0.617479)
(-2.78929 -0.921239 0.37414)
(-2.65772 -1.13803 0.26903)
(-2.57473 -1.31137 0.18963)
(-2.08778 -1.79046 0.0279916)
(-1.51721 -2.0902 -0.0633674)
(-2.91044 -0.516268 0.762951)
(-2.87367 -0.854826 0.584007)
(-2.77694 -0.921378 0.395283)
(-2.73849 -1.02415 0.208626)
(-2.54328 -1.51159 0.157314)
(-2.17449 -1.92001 0.111813)
(-1.28398 -2.35297 0.027545)
(-3.16329 -0.546488 1.02863)
(-3.07144 -0.721061 0.816447)
(-2.98956 -0.962493 0.649759)
(-2.88231 -1.08058 0.430691)
(-2.74456 -1.25801 0.350347)
(-2.58655 -1.91075 0.441681)
(-1.78761 -2.61004 0.406072)
(-1.24327 -2.63763 0.038141)
(-3.41946 -0.774286 1.03936)
(-3.31183 -0.955048 0.929907)
(-3.24236 -0.843865 0.796762)
(-3.20666 -0.942736 0.601935)
(-3.26709 -1.25102 0.281467)
(-3.19871 -1.5196 0.106199)
(-2.63809 -2.17747 0.179073)
(-3.16044 -2.01103 -0.546945)
(-2.05606 -2.68898 -0.00689584)
(-4.06451 -0.580195 0.777879)
(-4.11134 -0.761606 0.518482)
(-4.01063 -1.11817 0.316204)
(-3.82208 -1.40365 0.491953)
(-4.18838 -0.799795 0.704481)
(-4.21457 -1.36145 0.0052596)
(-4.09663 -1.82057 -0.0467381)
(-3.3387 -2.23077 -0.149638)
(-2.15909 -3.71877 0.352769)
(-0.621515 -3.78774 -0.296499)
(-4.33325 -0.748004 2.2257)
(-4.16817 -0.431873 2.65515)
(-4.21224 -1.13919 2.08411)
(-4.22692 -1.74702 1.82802)
(-4.41348 -0.857171 2.1478)
(-4.38647 -0.635438 1.98595)
(-4.25087 -1.22209 1.43328)
(-4.47108 -2.37462 1.09019)
(-2.40479 -4.17073 -0.100975)
(-2.60612 -2.78203 2.33606)
(-1.37817 -3.59104 0.354487)
(-4.11143 -0.191323 2.70026)
(-4.21152 -0.310254 2.88114)
(-4.25175 -1.13629 2.92294)
(-3.9887 -1.31222 2.90616)
(-4.16204 -0.934507 2.65282)
(-4.23985 -0.514922 2.59143)
(-4.22161 -0.315971 2.44486)
(-4.90922 -0.3527 2.46472)
(-4.36316 -1.69245 2.64099)
(-3.74696 -3.84735 1.69414)
(-0.578933 -5.41455 0.0503853)
(-2.25396 -3.16596 1.3219)
(-4.14584 -0.180839 2.70745)
(-4.15731 0.109652 2.62389)
(-3.98702 -1.10958 2.55989)
(-3.85988 -1.1419 2.627)
(-3.75306 -1.53121 2.76246)
(-3.48553 -1.56196 2.21138)
(-3.48464 -0.969572 2.18474)
(-4.90311 -0.0180376 2.30352)
(-4.83976 -0.949241 3.01213)
(-5.0401 -1.42353 3.32825)
(-5.12788 -2.44375 2.62443)
(-3.01884 -5.5995 1.2501)
(-3.18508 -4.18209 -0.231756)
(-2.4194 -0.755954 2.1813)
(-2.80394 -0.0279501 1.82263)
(-2.77074 -0.46286 1.9896)
(-2.85769 -1.26235 1.41981)
(-2.61626 -1.54354 1.74706)
(-2.56619 -1.31489 1.05179)
(-2.69034 -1.11612 0.119183)
(-2.97631 -0.979201 -0.0356196)
(-3.01425 -1.08641 0.333567)
(-4.12781 -0.404814 2.2844)
(-5.03202 0.327434 3.48972)
(-4.87382 -0.664757 3.24514)
(-4.39005 -2.12303 2.90924)
(-3.37554 -4.10584 -0.152155)
(-1.6961 -1.14017 -0.584496)
(-1.3109 -0.815457 -0.0326767)
(-0.360076 -0.62395 -0.290742)
(-0.863559 -0.393062 0.63764)
(-0.88335 -0.753657 1.26633)
(-0.733501 -0.611582 0.341911)
(-1.01395 -0.572201 0.0866771)
(-0.842464 -0.864264 0.352408)
(-0.912004 -1.00336 -0.0967958)
(-1.37779 -0.955589 0.329584)
(-1.64144 -1.19022 0.914606)
(-0.492195 -1.38689 0.232271)
(-0.861643 -0.904982 -0.00772868)
(-1.67929 -0.438722 -0.319556)
(-1.84345 -1.57137 0.831401)
(-0.866884 0.686306 -1.39913)
(-1.48922 -0.0273893 -1.24882)
(-0.932148 -0.422127 -1.31864)
(-0.559753 -0.538233 -1.12714)
(-0.847889 -0.626507 -0.762022)
(-1.11255 -0.407923 -0.68581)
(-0.533705 -0.243739 -0.268007)
(0.171153 -0.1995 -0.253983)
(0.108098 -0.270978 -0.382212)
(0.378561 -0.496188 -0.0976138)
(0.490946 -0.8162 -0.201217)
(0.108948 -0.188201 -0.155552)
(-0.5825 0.148642 -0.75827)
(-0.304999 -0.128586 -0.82344)
(-0.520194 0.361779 -1.33995)
(-1.08088 -0.362229 0.0527318)
(0.145752 1.38327 -0.40716)
(0.139028 0.572596 -0.655118)
(-0.312636 -0.0802374 -1.62105)
(-0.599659 -0.0203079 -1.83846)
(-0.636335 0.00836018 -1.84317)
(-0.412195 -0.381907 -1.51659)
(-0.327331 -0.319419 -1.39115)
(-0.399666 -0.180089 -1.17124)
(-0.322024 -0.0916615 -0.82684)
(0.0817126 -0.243708 -0.925623)
(0.119841 -0.131577 -1.12861)
(0.616288 -0.0445307 -1.26591)
(0.901822 -0.0751956 -1.18151)
(0.197416 0.170027 -1.60709)
(0.300175 0.154735 -1.48966)
(0.356563 -0.039155 -0.883756)
(-0.513598 -0.158383 0.0118375)
(-1.38052 -0.901416 -0.0342778)
(-1.76822 -0.732885 -0.00851455)
(-1.43682 -1.05067 -0.0160557)
(-1.9544 -0.961373 0.0397762)
(-1.92765 -0.84187 0.063098)
(-1.41749 -1.30258 -0.0226344)
(-2.21417 -0.793609 0.12939)
(-2.07663 -0.947218 0.134801)
(-2.03255 -0.958103 0.0470779)
(-1.51573 -1.43567 0.0468372)
(-2.40116 -0.902408 0.168382)
(-2.319 -0.963539 0.0979128)
(-2.24948 -0.970978 0.00387161)
(-2.03529 -1.32646 -0.024359)
(-1.39658 -1.7658 0.00600965)
(-2.69863 -0.70651 0.301895)
(-2.63356 -0.838025 0.17396)
(-2.49256 -1.05162 0.105933)
(-2.49264 -0.906123 0.140419)
(-1.97112 -1.57408 0.0915506)