/*--------------------------------*- C++ -*----------------------------------*\
  =========                 |
  \\      /  F ield         | OpenFOAM: The Open Source CFD Toolbox
   \\    /   O peration     | Website:  https://openfoam.org
    \\  /    A nd           | Version:  7
     \\/     M anipulation  |
\*---------------------------------------------------------------------------*/
FoamFile
{
    version     2.0;
    format      ascii;
    class       volVectorField;
    location    "9";
    object      U_0;
}
// * * * * * * * * * * * * * * * * * * * * * * * * * * * * * * * * * * * * * //

dimensions      [0 1 -1 0 0 0 0];

internalField   nonuniform List<vector> 
18750
(
(0.0754116 -0.794406 -0.0603224)
(-0.743524 -1.42856 0.0562542)
(0.561723 0.0104011 -0.894595)
(0.0457514 -0.822352 -0.0491195)
(-3.67618 -1.91907 0.701253)
(-0.342404 -0.36732 -0.18331)
(-0.821995 -1.31136 -0.0326441)
(0.371346 0.0827882 -1.12936)
(0.531926 0.035511 -0.906125)
(0.0171627 -0.835663 -0.0400838)
(-4.28728 -2.93031 0.0327808)
(-2.12327 -0.665168 2.07139)
(-3.64904 -2.05818 0.602054)
(-0.100267 -0.0964182 -0.486529)
(-0.391226 -0.397795 -0.227346)
(-0.888162 -1.19609 -0.135399)
(-0.0214033 0.0488964 -0.928301)
(0.369757 0.105495 -1.1787)
(0.492961 0.0558712 -0.912981)
(-0.00494794 -0.835217 -0.0344981)
(-3.49228 -3.13511 0.390668)
(-4.58108 -1.35402 2.00261)
(-4.30654 -3.16697 -0.198908)
(-1.98424 0.0863834 2.55712)
(-2.07064 -0.609158 2.12422)
(-3.56204 -2.08764 0.501238)
(-0.173958 0.846693 -0.94334)
(-0.146361 -0.0750919 -0.486309)
(-0.42324 -0.415174 -0.276406)
(-0.988886 -1.03532 -0.239353)
(0.48121 0.315379 -1.36491)
(-0.000823796 0.0175377 -1.00832)
(0.363579 0.113463 -1.21249)
(0.461466 0.072205 -0.922265)
(-0.0252777 -0.818162 -0.0314854)
(-3.79393 -2.99864 -0.0186238)
(-4.35818 -2.61963 1.03278)
(-3.33843 -3.28855 0.463004)
(-3.93447 0.524814 3.34276)
(-4.29301 -1.65406 2.69414)
(-4.22641 -3.17242 -0.369753)
(-1.60387 -0.377008 1.67227)
(-2.18433 -0.00384537 2.51494)
(-1.96365 -0.443363 2.15854)
(-3.5246 -1.90747 0.493394)
(-0.282331 0.949981 -1.09509)
(-0.240752 0.893329 -0.991474)
(-0.178934 -0.0588073 -0.473183)
(-0.442188 -0.421861 -0.308095)
(-1.06813 -0.845935 -0.425596)
(0.590922 -0.0892798 -1.01618)
(0.499611 0.2473 -1.35617)
(0.019386 -0.00532702 -1.07764)
(0.355583 0.126987 -1.24131)
(0.436184 0.0724106 -0.92783)
(-0.046045 -0.783683 -0.0326032)
(-3.39064 -2.65117 -0.0588273)
(-4.76568 -1.66111 0.571044)
(-3.56494 -3.29078 0.140359)
(-4.74259 -1.19222 1.49288)
(-4.24567 -3.17853 0.578727)
(-3.19532 -3.40345 0.539861)
(-4.07502 0.818049 3.38948)
(-4.53726 -1.71935 2.27745)
(-4.59871 -2.05658 2.25757)
(-4.16793 -3.19218 -0.454685)
(-1.40823 -0.662679 1.26288)
(-1.69446 -0.432956 1.56918)
(-2.24335 0.0131263 2.45214)
(-2.10477 -0.203291 2.00926)
(-3.48098 -1.54358 1.00051)
(-0.0694987 0.277122 -0.680646)
(-0.349497 0.939484 -1.14059)
(-0.321978 0.904542 -0.999079)
(-0.199125 -0.0567726 -0.43998)
(-0.42678 -0.396886 -0.350652)
(-1.09641 -0.754003 -0.491634)
(0.035776 0.116431 -1.1972)
(0.605324 0.013747 -1.02964)
(0.522934 0.185031 -1.33924)
(0.039305 -0.0172636 -1.1389)
(0.349192 0.138794 -1.26731)
(0.402406 0.0748741 -0.932227)
(-0.0711361 -0.735722 -0.0350819)
(-3.62984 -1.4279 0.0832391)
(-4.37171 -1.78952 0.109923)
(-3.31433 -2.78615 -0.0700016)
(-5.33663 -0.231027 1.24896)
(-4.57848 -1.93965 0.53566)
(-3.37677 -3.45687 0.214383)
(-4.68574 -0.437954 1.72784)
(-4.67078 -1.99986 1.31108)
(-4.14923 -3.26391 0.582961)
(-3.11705 -3.51459 0.800248)
(-3.78148 0.84877 2.07473)
(-4.69127 0.132538 2.92964)
(-4.15245 -0.685184 3.04339)
(-3.95199 -3.89122 1.85925)
(-4.17588 -3.11473 -0.685168)
(-1.53618 -1.13179 0.808912)
(-1.54156 -0.742233 0.533532)
(-1.83547 -0.562783 1.4115)
(-2.38431 0.0788722 2.20935)
(-2.12812 0.0865443 1.88028)
(-3.60816 -0.540473 1.35047)
(0.216915 0.188807 -0.718826)
(-0.121512 0.263154 -0.686589)
(-0.392698 0.890402 -1.11147)
(-0.370532 0.894275 -0.983509)
(-0.211585 -0.0733981 -0.39267)
(-0.395588 -0.325687 -0.406767)
(-1.1012 -0.646138 -0.532863)
(0.00850248 -0.135424 -0.733285)
(0.0549483 0.115979 -1.1953)
(0.633474 -0.0556973 -1.03628)
(0.550129 0.133137 -1.31822)
(0.0605522 -0.0165502 -1.19299)
(0.339273 0.155722 -1.29418)
(0.380708 0.0750524 -0.934581)
(-0.100149 -0.677646 -0.0377208)
(-2.79023 -1.74523 0.271523)
(-4.0874 -1.17357 0.244957)
(-3.40962 -1.92781 -0.0489113)
(-4.57776 -1.45916 -0.0331568)
(-4.1976 -2.07147 0.12357)
(-2.90203 -3.11179 0.00277058)
(-5.22936 0.323982 1.43139)
(-4.86172 -2.1651 0.869999)
(-4.21765 -2.28346 0.738381)
(-3.12508 -3.65641 0.0639227)
(-4.43143 -0.042862 2.11963)
(-4.69761 -0.404149 1.90712)
(-4.6199 -1.78962 1.30676)
(-3.91441 -3.48248 0.208369)
(-3.10157 -3.5349 0.864946)
(-3.01171 0.93935 2.27257)
(-3.92548 0.618689 2.11226)
(-4.44498 0.569643 3.45471)
(-4.43465 -0.00936205 3.78359)
(-4.29227 -2.57193 3.07887)
(-4.33144 -2.5784 -0.72117)
(-1.75424 -1.00595 0.431386)
(-1.51992 -0.69785 -0.3293)
(-1.62613 -0.775423 0.370516)
(-1.934 -0.719081 1.2659)
(-2.35167 -0.00202861 1.98093)
(-2.25177 0.276544 1.60078)
(-3.56806 -0.0741675 1.34223)
(0.0119522 -0.19039 -0.197357)
(0.209596 0.122408 -0.655836)
(-0.101258 0.190707 -0.675795)
(-0.430317 0.824059 -1.0272)
(-0.444194 0.857973 -0.942381)
(-0.216765 -0.0963758 -0.354306)
(-0.360954 -0.248115 -0.472751)
(-1.1037 -0.473162 -0.535096)
(-0.26382 0.163345 -0.696855)
(0.015552 -0.165566 -0.722491)
(0.0420468 0.147984 -1.20616)
(0.622817 -0.0344199 -1.07036)
(0.584081 0.0912505 -1.29317)
(0.0801614 -0.00400824 -1.24108)
(0.326596 0.174403 -1.32451)
(0.357967 0.0730993 -0.936529)
(-0.130517 -0.613745 -0.0389614)
(-2.32813 -1.75425 0.133103)
(-3.16888 -1.69332 0.174909)
(-2.70098 -1.93097 0.204042)
(-3.72781 -1.5401 0.384798)
(-4.05754 -1.36461 0.37419)
(-3.19575 -2.26135 -0.111503)
(-4.79247 -0.635854 0.654146)
(-4.64148 -1.65211 -0.0940292)
(-4.05952 -2.32929 0.200106)
(-2.68294 -3.31574 0.0246519)
(-4.94032 0.637009 1.96702)
(-5.16442 -0.320185 1.72656)
(-4.91123 -2.19418 0.174512)
(-4.07385 -2.4348 0.868834)
(-2.90792 -3.75496 0.0499955)
(-4.5301 0.0938017 1.32254)
(-4.57472 -0.457091 2.00908)
(-4.65788 -0.229964 2.09273)
(-4.5227 -2.08337 1.30321)
(-3.5055 -4.16182 -0.0976182)
(-3.05832 -3.56107 0.577602)
(-2.71874 0.923318 2.23068)
(-2.90617 1.00612 2.47629)
(-3.77136 0.660864 2.64305)
(-4.66994 0.404375 3.44792)
(-4.80912 -0.565163 3.8265)
(-4.37876 -2.26493 3.27382)
(-4.81501 -0.983509 -0.929522)
(-1.5879 -0.0893305 -0.428304)
(-1.7354 -0.662169 -0.428143)
(-1.51975 -0.601688 -0.571138)
(-1.76594 -0.840708 0.25247)
(-1.92751 -0.936587 1.20277)
(-2.29038 -0.35183 1.73913)
(-2.25813 0.262447 1.20145)
(-3.50311 0.526475 1.13059)
(0.191088 -0.217761 -0.384176)
(0.0373041 -0.222911 -0.205217)
(0.186382 0.0725263 -0.589952)
(-0.0821243 0.0681523 -0.647445)
(-0.452851 0.779868 -0.924338)
(-0.500135 0.805923 -0.894471)
(-0.220605 -0.103788 -0.352249)
(-0.332101 -0.162006 -0.570499)
(-1.12623 -0.238532 -0.468449)
(-0.389716 -0.0547082 -1.21221)
(-0.280981 0.107414 -0.689804)
(0.0236955 -0.191744 -0.723797)
(0.0561863 0.138344 -1.18693)
(0.650002 -0.0347828 -1.07734)
(0.616162 0.0641388 -1.26804)
(0.0959969 0.0190444 -1.28569)
(0.31437 0.187821 -1.35586)
(0.340431 0.0660571 -0.937156)
(-0.160608 -0.548545 -0.037195)
(-2.28018 -1.59274 -0.0537155)
(-3.01136 -1.13681 0.171647)
(-2.24733 -1.84906 0.119197)
(-3.58951 -0.918759 0.487463)
(-3.07227 -1.85703 0.0856697)
(-2.61993 -2.01735 0.177378)
(-3.83237 -1.02815 0.211842)
(-3.65512 -1.8571 0.226848)
(-3.96326 -1.72362 0.393625)
(-2.73313 -2.74079 -0.224412)
(-4.43844 -0.27099 1.17655)
(-4.80444 -0.642359 0.658872)
(-4.42533 -2.00244 0.0660685)
(-3.8601 -2.54687 0.583291)
(-2.33398 -3.53468 0.143604)
(-4.97875 0.880193 1.47718)
(-5.12712 0.264796 1.56122)
(-5.08989 -0.860801 1.80954)
(-4.5144 -2.3244 0.965054)
(-3.75548 -2.48139 0.921269)
(-2.89421 -3.5007 0.0331324)
(-3.9911 -0.0917732 2.11731)
(-4.52638 -0.0332235 0.996767)
(-4.68639 0.185073 1.90526)
(-4.78785 -0.735681 2.21168)
(-4.51259 -2.29277 1.54049)
(-3.16021 -4.68059 -0.236361)
(-3.30761 -3.4796 0.35841)
(-2.75663 1.01484 2.0427)
(-2.73375 0.935471 2.26277)
(-2.91964 0.905406 2.69753)
(-3.80932 0.563685 3.05468)
(-4.73377 0.373121 3.31353)
(-4.70117 -0.44295 3.7844)
(-4.52599 -1.7721 3.21694)
(-4.91266 -1.43688 -0.518552)
(-1.12243 -0.120818 0.414575)
(-1.5244 -0.0272516 -0.276025)
(-1.65184 -0.439984 -0.832072)
(-1.53341 -0.648418 -0.581496)
(-1.82566 -0.963079 0.281009)
(-1.8968 -1.13641 1.20332)
(-2.19009 -0.62149 1.37605)
(-2.13283 0.109662 0.890418)
(-3.36764 0.394273 1.07725)
(-0.370971 0.472441 0.0239868)
(0.181182 -0.267605 -0.342903)
(0.0634319 -0.234757 -0.253986)
(0.208172 0.0101767 -0.52203)
(-0.0469048 -0.0592423 -0.605065)
(-0.472894 0.740515 -0.811406)
(-0.549188 0.737343 -0.83992)
(-0.25097 -0.105619 -0.364501)
(-0.320767 -0.0701083 -0.690962)
(-1.14062 -0.0832695 -0.385691)
(-0.340233 -0.21409 -1.17033)
(-0.385842 -0.0400079 -1.15416)
(-0.291637 0.0738457 -0.690344)
(0.0329637 -0.208694 -0.739989)
(0.0614542 0.0950858 -1.1621)
(0.63985 -0.0467462 -1.10666)
(0.655468 0.0476247 -1.24029)
(0.107026 0.0502567 -1.32861)
(0.304012 0.194464 -1.38601)
(0.328761 0.0544576 -0.936633)
(-0.193305 -0.48458 -0.0319559)
(-2.22925 -1.34691 -0.0753174)
(-2.96007 -0.689691 0.136642)
(-2.14099 -1.73254 -0.081986)
(-3.25671 -0.773919 0.00503527)
(-2.77969 -1.47437 0.272249)
(-2.01327 -2.08927 0.111789)
(-3.401 -0.783388 0.294291)
(-3.41411 -1.1792 0.580572)
(-2.87921 -1.98143 -0.159022)
(-2.64506 -1.93535 0.00962884)
(-3.77495 -0.403436 0.495646)
(-3.88903 -1.1689 0.292822)
(-3.56159 -1.88417 0.0948573)
(-4.11137 -1.38462 0.566289)
(-2.2623 -3.17926 -0.388759)
(-4.21024 0.478649 1.64146)
(-4.43798 0.248046 1.0385)
(-4.72872 -0.69041 0.715233)
(-4.30893 -2.12304 0.16516)
(-3.53282 -2.8699 0.339057)
(-2.39083 -3.37844 0.0605529)
(-4.49888 0.372518 2.22368)
(-4.86671 0.53901 1.63448)
(-4.89924 -0.00426433 1.63718)
(-4.93484 -0.853385 1.92293)
(-4.38738 -2.57055 1.1493)
(-3.41842 -2.46418 1.32305)
(-2.66135 -3.2911 0.076871)
(-3.93457 -0.242591 2.23872)
(-4.14356 -0.0304389 2.10727)
(-4.48321 -0.269971 1.24606)
(-4.73512 -0.79204 1.89169)
(-4.93069 -0.614996 2.41789)
(-4.23153 -2.85279 1.80267)
(-2.89725 -4.62651 0.204514)
(-3.55931 -3.53635 0.168834)
(-2.74449 -0.312904 1.9917)
(-2.90138 -0.0319782 1.64779)
(-2.73951 0.69847 2.04773)
(-3.0106 0.709537 2.78036)
(-3.84227 0.762801 3.28088)
(-4.7443 0.406319 3.26303)
(-4.89474 -0.669396 3.74622)
(-4.88234 -1.16643 2.83215)
(-4.93972 -1.76735 -0.424423)
(-0.97083 -0.631483 0.581193)
(-1.0646 -0.362867 0.232869)
(-1.42822 -0.209196 0.0384171)
(-1.52856 -0.189962 -1.09379)
(-1.52538 -0.718107 -0.51803)
(-1.83535 -1.07082 0.426756)
(-1.77984 -1.34023 1.25389)
(-1.93937 -1.0355 0.751539)
(-1.97544 -0.0669535 0.342741)
(-3.03336 -0.0590601 1.22233)
(-0.905719 0.284846 -0.235092)
(-0.422203 0.236078 -0.0700321)
(0.184688 -0.286976 -0.301013)
(0.0819569 -0.23454 -0.299944)
(0.234372 -0.0618387 -0.452242)
(0.00250441 -0.178813 -0.546583)
(-0.475368 0.680093 -0.68635)
(-0.59015 0.659168 -0.788994)
(-0.289265 -0.0972459 -0.398468)
(-0.322595 0.0103211 -0.821396)
(-1.14249 -0.0377905 -0.307075)
(-0.371924 -0.185544 -1.64588)
(-0.336533 -0.246244 -1.15996)
(-0.385926 -0.066122 -1.10966)
(-0.302022 0.0346226 -0.696937)
(0.0423694 -0.217086 -0.765963)
(0.0732476 0.0487475 -1.13012)
(0.669186 -0.0340774 -1.11252)
(0.688935 0.0326251 -1.21355)
(0.118418 0.0928588 -1.37038)
(0.29743 0.191539 -1.41612)
(0.321646 0.039363 -0.934199)
(-0.234283 -0.419567 -0.0234795)
(-1.97946 -1.36405 0.0487351)
(-2.52936 -1.11209 0.0600352)
(-2.04127 -1.55231 -0.0886718)
(-3.0185 -0.516603 0.0639694)
(-2.86668 -0.868982 0.118658)
(-2.11585 -1.74978 -0.0688751)
(-3.12464 -0.576001 0.313245)
(-2.92281 -1.50511 0.165785)
(-2.53563 -1.78976 0.289353)
(-1.85545 -2.23611 0.121872)
(-3.48427 -0.39518 0.498646)
(-3.25947 -1.03432 0.312639)
(-3.36014 -1.1451 0.480693)
(-2.84531 -2.01305 -0.244698)
(-2.56466 -2.07179 0.0672647)
(-3.71823 0.0711236 0.766903)
(-3.7441 -0.60644 0.497916)
(-4.01861 -1.41832 0.177722)
(-3.33376 -2.04309 -0.0142206)
(-3.71324 -1.82941 0.704182)
(-1.53195 -3.679 -0.479863)
(-4.29539 -0.206079 1.97211)
(-4.19836 -0.780373 1.64475)
(-4.4862 0.0570848 1.13897)
(-4.54918 -0.903224 0.976596)
(-4.26061 -2.22691 0.0443107)
(-3.19687 -3.09507 0.754703)
(-2.09134 -3.41828 0.0123094)
(-3.9365 -0.35173 2.92431)
(-4.24016 -0.53932 2.31933)
(-4.85296 -0.170038 1.79762)
(-4.8468 -0.231737 1.80656)
(-4.95914 -0.561317 2.15014)
(-3.99447 -3.2705 0.846477)
(-2.75132 -3.07448 1.14568)
(-2.81433 -2.77717 0.15612)
(-3.97767 -0.893587 2.67605)
(-4.05537 0.0322932 2.16462)
(-4.12331 0.766399 2.05095)
(-4.70099 -0.943565 1.06404)
(-4.90354 -1.01373 1.98379)
(-4.51873 -2.0889 2.69369)
(-4.31696 -3.11985 1.85881)
(-3.21068 -3.90477 1.00365)
(-3.47611 -3.67253 0.101646)
(-2.67279 -0.535347 2.15275)
(-2.89019 -0.574802 1.69742)
(-2.81947 -0.777224 1.48069)
(-2.68018 -0.133979 1.57927)
(-3.13948 0.727745 2.59719)
(-3.9468 0.735019 3.33412)
(-4.82615 0.00384463 3.42825)
(-5.00837 -1.05795 3.76933)
(-4.961 -0.853873 2.61071)
(-4.84422 -2.24311 -0.145063)
(-0.767488 -0.655055 1.43996)
(-0.91357 -0.745422 0.527277)
(-1.02097 -0.27487 0.24354)
(-1.32749 -0.369247 0.174347)
(-1.48657 -0.200679 -1.12167)
(-1.49019 -0.777846 -0.324142)
(-1.84657 -1.10003 0.60338)
(-1.62555 -1.49101 1.25163)
(-1.66145 -1.2506 0.336767)
(-1.85375 -0.231639 0.165218)
(-2.72299 -0.35238 1.31104)
(-0.728981 -0.286504 -0.925341)
(-0.974011 0.118879 -0.246457)
(-0.447795 0.154217 -0.0989692)
(0.188588 -0.289852 -0.266327)
(0.102364 -0.239658 -0.334925)
(0.2618 -0.131736 -0.390688)
(0.061676 -0.29646 -0.484035)
(-0.458612 0.579553 -0.550387)
(-0.620893 0.566779 -0.751776)
(-0.32258 -0.094212 -0.449803)
(-0.328775 0.0839293 -0.93973)
(-1.14269 -0.0209705 -0.231107)
(-0.574727 0.224425 -1.89749)
(-0.384892 -0.22893 -1.61434)
(-0.3343 -0.267603 -1.18477)
(-0.388186 -0.107177 -1.08813)
(-0.308766 0.00377258 -0.71045)
(0.050481 -0.222105 -0.796841)
(0.0849615 0.000120687 -1.09931)
(0.660961 -0.0731577 -1.13756)
(0.738565 0.0135692 -1.18354)
(0.107296 0.14729 -1.4158)
(0.297196 0.184999 -1.44691)
(0.319779 0.0231231 -0.929066)
(-0.28434 -0.35884 -0.0130619)
(-1.9224 -1.14717 0.0129576)
(-2.38028 -0.88173 -0.0391966)
(-1.97843 -1.35162 0.0554412)
(-2.74351 -0.877313 0.213746)
(-2.40586 -1.35365 0.0831762)
(-2.01249 -1.58019 -0.0678047)
(-2.95603 -0.637011 0.290876)
(-2.97811 -0.775001 0.104108)
(-2.73878 -1.088 0.168687)
(-1.73815 -2.11332 -0.0110649)
(-3.13409 -0.652986 0.422118)
(-2.95263 -0.993897 0.359419)
(-2.86293 -1.62354 0.21684)
(-2.25229 -2.05448 0.431629)
(-1.6931 -2.37124 0.0377009)
(-3.40207 -0.451673 0.726627)
(-3.4417 -0.559408 0.408021)
(-3.30401 -1.02724 0.19194)
(-3.07856 -1.64477 0.377143)
(-2.97377 -1.91917 -0.33045)
(-2.42388 -2.31972 -0.0201153)
(-3.83463 -0.717442 0.667469)
(-3.80478 -0.680971 0.551938)
(-3.91987 -0.724637 0.405053)
(-3.96495 -1.51394 0.153329)
(-3.36067 -2.1448 -0.0835819)
(-3.74649 -1.82312 0.784769)
(-1.52261 -3.6297 -0.316315)
(-4.31306 -0.73182 2.25391)
(-4.22651 -0.895255 1.80388)
(-4.27653 -0.118051 1.44969)
(-4.38853 -0.367579 1.24829)
(-4.67871 -0.761131 1.08764)
(-3.83757 -2.78522 0.283867)
(-3.11856 -3.03864 1.23321)
(-2.30317 -3.12879 -0.151999)
(-4.04666 -0.437663 2.96085)
(-3.72239 -0.383641 2.96544)
(-4.25296 -0.697329 2.42136)
(-4.6745 -0.0201843 1.95688)
(-4.90289 0.0848227 2.08424)
(-4.74273 -1.19941 2.10813)
(-3.78756 -3.9014 0.881492)
(-2.49719 -3.7413 1.38595)
(-2.54963 -2.7362 0.582704)
(-3.92455 -0.668065 2.73492)
(-3.82438 -0.859214 2.77518)
(-3.94573 -0.302043 2.4747)
(-4.13496 0.514374 2.08432)
(-4.63949 -0.488264 1.80494)
(-4.79698 -1.31311 2.37203)
(-4.8128 -1.28593 2.857)
(-4.45589 -2.80389 2.23416)
(-3.40599 -3.70597 1.07435)
(-3.5871 -3.60253 0.142348)
(-2.98876 0.470351 1.76441)
(-2.67781 -0.45065 2.11456)
(-2.86447 -0.665251 1.55967)
(-2.95029 -0.212538 0.858614)
(-2.69073 -0.423201 1.40461)
(-3.31216 0.688117 2.28904)
(-3.98936 0.616519 3.34092)
(-4.74346 -0.134308 3.50071)
(-4.96505 -0.899556 3.49842)
(-4.57005 -1.43617 2.73196)
(-4.76054 -2.42036 -0.524579)
(-0.592353 -0.32586 1.05669)
(-0.756044 -0.763573 1.4245)
(-0.855833 -0.759882 0.471388)
(-1.00071 -0.37968 -0.0258467)
(-1.20666 -0.417613 0.283634)
(-1.36418 -0.449124 -0.953658)
(-1.43944 -0.776814 -0.106692)
(-1.79728 -1.18318 0.793075)
(-1.35189 -1.63009 1.13606)
(-1.44237 -1.22587 0.256536)
(-1.81571 -0.216155 -0.098336)
(-2.42686 -0.770132 1.14425)
(-0.401866 -0.308039 -1.22771)
(-0.784213 -0.358493 -0.804834)
(-1.0276 -0.0397404 -0.298253)
(-0.478392 0.041807 -0.145521)
(0.181047 -0.276767 -0.246106)
(0.115272 -0.245106 -0.361056)
(0.305324 -0.26089 -0.282523)
(0.144041 -0.427473 -0.405016)
(-0.379926 0.42806 -0.451682)
(-0.637858 0.466693 -0.7414)
(-0.336921 -0.101711 -0.518223)
(-0.363606 0.165927 -1.03562)
(-1.14536 -0.0691712 -0.131829)
(-0.596008 0.231673 -1.78908)
(-0.591065 0.164136 -1.88004)
(-0.394758 -0.268348 -1.58434)
(-0.334558 -0.279627 -1.22865)
(-0.390892 -0.119846 -1.09326)
(-0.314521 -0.0226292 -0.730465)
(0.0579724 -0.226259 -0.829983)
(0.0967759 -0.0415819 -1.07799)
(0.666097 -0.0415417 -1.16188)
(0.765693 -0.00100457 -1.16237)
(0.106673 0.19349 -1.45915)
(0.289492 0.186894 -1.47926)
(0.321522 0.00761345 -0.921227)
(-0.332413 -0.294669 -0.00253325)
(-1.77616 -1.02872 0.0440923)
(-2.25098 -0.849165 0.000235387)
(-1.86376 -1.2127 -0.00301969)
(-2.5863 -0.955596 -0.0332646)
(-2.36289 -0.941615 0.0149735)
(-1.72867 -1.6419 0.0872821)
(-2.7692 -0.816108 0.338834)
(-2.78588 -1.11323 0.226782)
(-2.28058 -1.58283 0.128714)
(-1.83473 -1.7812 -0.0672516)
(-2.90922 -0.549053 0.450926)
(-2.85353 -0.820494 0.220057)
(-2.87522 -0.919313 0.113316)
(-2.642 -1.25656 0.167045)
(-1.69013 -2.16376 -0.00436039)
(-3.14681 -0.412787 0.585812)
(-3.09127 -0.747345 0.418146)
(-2.89821 -1.12819 0.35976)
(-2.7078 -1.77718 0.273074)
(-2.13011 -2.19509 0.554257)
(-1.47836 -2.53807 0.0618284)
(-3.4791 -0.282172 0.922141)
(-3.39527 -0.674737 0.67384)
(-3.31202 -0.893563 0.372179)
(-3.23001 -1.19827 0.170742)
(-3.00822 -1.7868 0.363086)
(-2.98218 -2.06151 -0.365312)
(-2.32768 -2.40327 -0.0933594)
(-4.07511 -0.875774 0.55417)
(-3.84663 -0.899853 0.511317)
(-3.75336 -1.0943 0.48699)
(-4.16771 -0.767086 0.0471436)
(-4.09524 -1.4036 0.202843)
(-3.52721 -2.07045 -0.204357)
(-3.06662 -2.6557 0.523126)
(-1.05933 -3.69809 -0.302212)
(-4.33554 -0.446031 2.20104)
(-4.26093 -1.08028 2.14508)
(-4.28205 -0.587765 1.89561)
(-4.33897 0.0535349 1.46603)
(-4.40437 -0.260154 1.48182)
(-4.41088 -1.70622 1.26488)
(-3.11828 -3.55035 0.327721)
(-2.80055 -2.99293 1.64543)
(-2.10627 -3.22468 0.0726125)
(-4.25125 -0.673195 2.665)
(-3.92265 -0.766471 3.1077)
(-3.98172 -0.340552 2.91824)
(-4.23974 -1.07503 2.43032)
(-4.49994 0.412125 2.14778)
(-4.63412 -0.468376 2.22242)
(-4.81156 0.728687 2.57329)
(-3.68942 -3.85331 1.13937)
(-1.18343 -4.90748 0.455155)
(-2.45362 -2.769 0.774394)
(-4.1746 0.245246 2.80584)
(-3.85089 -0.903373 2.71982)
(-3.84907 -0.7846 2.78312)
(-3.74142 -0.570142 2.60854)
(-3.89065 -0.329648 2.44244)
(-4.4934 -0.265437 2.37428)
(-4.97627 -1.2121 2.49142)
(-4.97297 -0.650327 2.66166)
(-4.58386 -2.9708 2.37769)
(-3.95941 -3.63688 1.24311)
(-3.45881 -3.7672 -0.00793773)
(-2.93236 -0.0778335 2.34656)
(-2.86405 -0.834943 1.53666)
(-2.71439 -0.745088 1.99704)
(-2.72441 -1.11923 1.44062)
(-2.86181 -0.644457 0.51837)
(-2.88552 -0.582993 0.969234)
(-3.2906 0.148235 1.78569)
(-4.06621 0.51446 3.07918)
(-4.78833 0.158036 3.42559)
(-5.07581 -0.87622 3.06283)
(-4.13619 -2.24171 2.72508)
(-4.37626 -2.93463 -0.723365)
(-0.339276 -0.474204 -0.228717)
(-0.698387 -0.311179 0.767005)
(-0.805194 -0.800147 1.39538)
(-0.796902 -0.74326 0.393557)
(-1.02851 -0.504694 -0.129559)
(-1.06136 -0.639513 0.290952)
(-1.18716 -0.783544 -0.611222)
(-1.41908 -0.806841 -0.0345931)
(-1.84318 -1.06768 0.841788)
(-1.02533 -1.66099 0.866717)
(-1.23105 -1.15963 0.208994)
(-1.80067 -0.331206 -0.241994)
(-1.97923 -1.28981 0.951895)
(-0.826355 -0.269078 -1.31633)
(-0.490111 -0.441281 -1.155)
(-0.819313 -0.432739 -0.752313)
(-1.0709 -0.169648 -0.396942)
(-0.500009 -0.0734472 -0.192372)
(0.177254 -0.264756 -0.220959)
(0.115081 -0.252636 -0.378272)
(0.327947 -0.342471 -0.221215)
(0.239331 -0.562104 -0.333554)
(-0.263432 0.231734 -0.378852)
(-0.640463 0.359604 -0.736275)
(-0.340239 -0.117952 -0.604209)
(-0.394195 0.243004 -1.1452)
(-1.13477 -0.165601 -0.041007)
(-0.363352 0.108832 -1.62551)
(-0.606669 0.126337 -1.81188)
(-0.606911 0.0996885 -1.86521)
(-0.401786 -0.304011 -1.55552)
(-0.336052 -0.289014 -1.28181)
(-0.394662 -0.136148 -1.11367)
(-0.319938 -0.0453507 -0.757485)
(0.0643608 -0.22996 -0.863919)
(0.109683 -0.0842424 -1.07071)
(0.653993 -0.0613109 -1.19463)
(0.870192 -0.0910945 -1.11862)
(0.106846 0.221322 -1.51477)
(0.281953 0.190588 -1.50084)
(0.328474 -0.00777486 -0.909992)
(-0.368293 -0.255652 0.00216752)
(-1.59617 -1.01597 0.0285374)
(-2.15144 -0.702861 0.0450595)
(-1.66128 -1.17949 0.0904061)
(-2.34881 -1.01424 0.0548224)
(-2.15047 -1.04734 0.0228301)
(-1.71533 -1.41094 -0.00385687)
(-2.60674 -0.730181 0.104095)
(-2.58037 -0.986425 -0.0113415)
(-2.28993 -1.09087 0.0922445)
(-1.61054 -1.79136 0.0352098)
(-2.80938 -0.722937 0.310061)
(-2.72822 -0.961733 0.316222)
(-2.77508 -1.15925 0.201201)
(-2.14882 -1.7275 0.0802542)
(-1.72473 -1.90273 -0.0658342)
(-2.99945 -0.432693 0.552483)
(-2.89716 -0.509245 0.393362)
(-2.77449 -0.913285 0.189061)
(-2.7088 -1.21351 0.0931289)
(-2.34578 -1.70742 0.0765488)
(-1.54715 -2.23875 0.0399148)
(-3.18234 -0.414993 0.779232)
(-3.02936 -0.887674 0.629365)
(-2.99414 -0.842329 0.433898)
(-2.83846 -1.17022 0.348897)
(-2.65894 -1.79196 0.417573)
(-1.88521 -2.50715 0.306363)
(-1.3786 -2.59123 0.0597314)
(-3.42287 -0.487533 1.05144)
(-3.36002 -0.538947 0.87921)
(-3.34828 -0.825799 0.620196)
(-3.27678 -1.07693 0.331175)
(-3.14522 -1.45083 0.0784723)
(-2.81319 -1.99072 0.295701)
(-3.04216 -2.11879 -0.514579)
(-2.25717 -2.46467 -0.0307245)
(-4.13803 -0.69391 0.639815)
(-4.12681 -1.08468 0.383669)
(-3.73471 -1.21385 0.50142)
(-3.89526 -0.977846 0.466819)
(-4.24841 -0.904184 0.144875)
(-4.12561 -1.76302 0.00149883)
(-3.47341 -2.09922 -0.248847)
(-2.77918 -3.1375 0.546293)
(-0.81877 -3.74282 -0.347949)
(-4.22705 -0.623836 2.326)
(-4.35389 -0.71092 2.13544)
(-4.22296 -1.41347 1.98342)
(-4.3765 -0.624345 2.08272)
(-4.37008 0.61351 2.01887)
(-4.39827 -0.833692 1.31633)
(-4.33605 -1.79431 1.26546)
(-2.81626 -3.76978 0.232939)
(-2.78528 -2.77836 2.02163)
(-1.98945 -3.29137 0.245763)
(-4.04975 -0.252514 2.84883)
(-4.10073 0.136202 3.27087)
(-4.00099 -1.08654 3.03124)
(-4.01782 -1.12546 2.8232)
(-4.24156 -0.214387 2.50262)
(-4.34456 -0.129284 2.37502)
(-4.74594 1.5169 2.10873)
(-4.58629 -1.4169 2.76703)
(-3.89035 -3.57767 1.61416)
(-1.20137 -5.27737 0.115823)
(-2.40928 -2.89563 1.0919)
(-4.06667 0.695948 2.83382)
(-4.12592 -0.175705 2.71934)
(-3.82626 -0.919042 2.64698)
(-3.82988 -1.12626 2.75981)
(-3.8081 -0.247115 2.6728)
(-3.60556 -0.763003 2.50909)
(-4.75534 -0.173394 2.3819)
(-5.0343 -0.451478 2.72327)
(-3.73861 -2.6979 3.84452)
(-4.46042 -3.40306 2.88559)
(-2.68304 -5.28743 0.820786)
(-3.40747 -3.89524 -0.198108)
(-2.77729 0.470191 1.85166)
(-2.85817 -0.405758 2.13088)
(-2.80137 -1.02323 1.58857)
(-2.7087 -1.12847 1.83434)
(-2.67582 -1.27681 1.23733)
(-2.77216 -0.935522 0.395135)
(-2.96958 -0.802269 0.377439)
(-3.05048 -0.891665 0.545553)
(-4.20144 0.215517 2.77393)
(-4.93245 0.341735 3.61801)
(-4.84361 -0.973766 3.3572)
(-4.22833 -2.24476 2.79986)
(-4.08476 -3.33577 -0.966987)
(-1.27645 -0.637648 0.0123228)
(-0.362331 -0.58069 -0.248108)
(-0.778476 -0.330792 0.705203)
(-0.831742 -0.797589 1.37013)
(-0.762973 -0.706427 0.363302)
(-1.0369 -0.564567 -0.029362)
(-0.913163 -0.820083 0.306665)
(-1.04517 -0.933004 -0.362378)
(-1.42093 -0.925227 -0.00196269)
(-1.73807 -1.12405 0.926455)
(-0.718732 -1.55471 0.577864)
(-1.00821 -1.05832 0.0983358)
(-1.8125 -0.3052 -0.256167)
(-1.86894 -1.43889 0.912646)
(-1.16974 0.362977 -1.47922)
(-0.909581 -0.37223 -1.3002)
(-0.518551 -0.476384 -1.14629)
(-0.839013 -0.538037 -0.725626)
(-1.09679 -0.28074 -0.551565)
(-0.521745 -0.165944 -0.2267)
(0.168421 -0.239438 -0.220898)
(0.113173 -0.260822 -0.385038)
(0.354916 -0.428422 -0.152236)
(0.364424 -0.703963 -0.273716)
(-0.0958979 0.0198053 -0.291533)
(-0.594386 0.207093 -0.746291)
(-0.318694 -0.12919 -0.706966)
(-0.457037 0.321679 -1.24401)
(-1.11277 -0.249005 0.0198709)
(0.124502 0.521746 -0.738696)
(-0.345562 0.0112764 -1.63276)
(-0.601136 0.0252927 -1.83371)
(-0.619319 0.0499814 -1.85111)
(-0.405774 -0.340559 -1.53079)
(-0.330532 -0.298205 -1.34323)
(-0.399379 -0.15745 -1.14084)
(-0.323546 -0.0672853 -0.790839)
(0.0717977 -0.235905 -0.896218)
(0.119002 -0.113982 -1.08995)
(0.638909 -0.0440834 -1.23122)
(0.83462 -0.021742 -1.21709)
(0.136809 0.207578 -1.56856)
(0.282507 0.18252 -1.50141)
(0.340556 -0.0222988 -0.897174)
(-0.440798 -0.202129 0.00724182)
(-1.50676 -0.924953 0.0182329)
(-1.9393 -0.812517 0.00701819)
(-1.50931 -1.14895 0.0152509)
(-2.16075 -0.888943 0.154615)
(-2.06635 -0.888183 0.0546135)
(-1.57449 -1.32458 0.0604812)
(-2.37755 -0.854557 0.102465)
(-2.26122 -1.09373 -0.0852402)
(-2.12259 -1.18099 -0.00254018)
(-1.58524 -1.58342 0.00236813)
(-2.62405 -0.687577 0.163162)
(-2.57609 -0.837527 0.102622)
(-2.582 -0.815513 0.00823374)
(-2.1007 -1.36776 0.096569)
(-1.62857 -1.76962 0.00439343)
(-2.87754 -0.559692 0.618714)
(-2.78949 -0.918451 0.375631)
(-2.65696 -1.13718 0.267287)
(-2.56844 -1.31505 0.187352)
(-2.0874 -1.79005 0.026845)
(-1.51603 -2.09053 -0.0632826)
(-2.90866 -0.514814 0.761735)
(-2.86828 -0.861171 0.584365)
(-2.77437 -0.923269 0.395132)
(-2.73626 -1.02563 0.208454)
(-2.54426 -1.50666 0.157503)
(-2.17076 -1.92014 0.113865)
(-1.28099 -2.35317 0.0281368)
(-3.1596 -0.554809 1.02755)
(-3.06737 -0.722987 0.81714)
(-2.9874 -0.958891 0.650305)
(-2.88082 -1.07936 0.430905)
(-2.74605 -1.25202 0.349)
(-2.58359 -1.91038 0.442615)
(-1.79624 -2.60604 0.404124)
(-1.25021 -2.63428 0.0370625)
(-3.41807 -0.778762 1.03587)
(-3.30964 -0.956632 0.923132)
(-3.23811 -0.851237 0.790451)
(-3.20742 -0.937778 0.599132)
(-3.27279 -1.24297 0.278219)
(-3.19952 -1.52408 0.0977761)
(-2.64285 -2.17067 0.166419)
(-3.16325 -2.00599 -0.545506)
(-2.04486 -2.69793 -0.0105346)
(-4.06408 -0.583611 0.771647)
(-4.10677 -0.758902 0.514035)
(-4.01293 -1.1048 0.313981)
(-3.84083 -1.39573 0.493417)
(-4.20769 -0.810229 0.695537)
(-4.22246 -1.36927 -0.00169965)
(-4.10148 -1.81631 -0.0514287)
(-3.33069 -2.22685 -0.143147)
(-2.13939 -3.72947 0.370331)
(-0.630638 -3.78046 -0.288357)
(-4.34237 -0.756382 2.20927)
(-4.17849 -0.451209 2.63612)
(-4.21544 -1.14104 2.08426)
(-4.23316 -1.72995 1.83403)
(-4.42414 -0.876376 2.14632)
(-4.39363 -0.629245 1.99466)
(-4.26766 -1.21017 1.43428)
(-4.46027 -2.41701 1.12145)
(-2.38878 -4.20641 -0.145855)
(-2.58223 -2.80078 2.31259)
(-1.37411 -3.58894 0.375106)
(-4.14112 -0.204817 2.67739)
(-4.2389 -0.320963 2.86698)
(-4.26566 -1.11203 2.91566)
(-3.99476 -1.32709 2.888)
(-4.17042 -0.91779 2.64656)
(-4.24197 -0.512633 2.60069)
(-4.22545 -0.286495 2.45228)
(-4.92334 -0.340716 2.45501)
(-4.37879 -1.65312 2.64404)
(-3.76812 -3.79687 1.71589)
(-0.574098 -5.42886 0.0139229)
(-2.24712 -3.1946 1.3275)
(-4.16976 -0.185676 2.6899)
(-4.16337 0.0282334 2.58418)
(-3.98524 -1.13906 2.54774)
(-3.86553 -1.16005 2.61401)
(-3.7524 -1.53699 2.75435)
(-3.46599 -1.60059 2.17383)
(-3.47262 -0.974289 2.11182)
(-4.90288 0.000613657 2.28383)
(-4.87214 -0.928414 3.00146)
(-5.1297 -1.31637 3.31441)
(-5.25075 -2.24215 2.56182)
(-3.07429 -5.62317 1.31476)
(-3.17427 -4.22249 -0.264852)
(-2.4234 -0.75216 2.19164)
(-2.80791 -0.0347546 1.82772)
(-2.7721 -0.463091 1.98503)
(-2.86476 -1.27221 1.40706)
(-2.61265 -1.56962 1.72102)
(-2.55583 -1.31046 1.0362)
(-2.68474 -1.10938 0.093501)
(-2.98082 -0.974877 -0.102337)
(-3.01671 -1.11465 0.276977)
(-4.10544 -0.481652 2.13979)
(-5.01975 0.316565 3.40752)
(-4.89558 -0.594767 3.18521)
(-4.44381 -2.0714 2.93994)
(-3.30789 -4.15616 -0.141668)
(-1.70513 -1.13602 -0.579695)
(-1.32138 -0.825798 -0.0302105)
(-0.367115 -0.626866 -0.289532)
(-0.875479 -0.393392 0.626486)
(-0.897158 -0.746322 1.26198)
(-0.73774 -0.603091 0.345282)
(-1.0211 -0.565556 0.0917722)
(-0.840746 -0.861786 0.36094)
(-0.899318 -1.00808 -0.0592949)
(-1.37317 -0.950741 0.337004)
(-1.63346 -1.18101 0.905795)
(-0.470831 -1.36026 0.195423)
(-0.842762 -0.872151 -0.021881)
(-1.65442 -0.437379 -0.327081)
(-1.85666 -1.5735 0.827704)
(-0.870979 0.691478 -1.39774)
(-1.49233 -0.0311094 -1.23961)
(-0.931329 -0.427938 -1.31553)
(-0.564194 -0.54024 -1.12251)
(-0.851434 -0.630182 -0.766352)
(-1.1169 -0.422713 -0.694408)
(-0.539992 -0.244985 -0.267809)
(0.165632 -0.201832 -0.251552)
(0.105592 -0.2758 -0.376751)
(0.379174 -0.502847 -0.0930406)
(0.493986 -0.826782 -0.196579)
(0.115509 -0.1998 -0.156137)
(-0.582422 0.147928 -0.765172)
(-0.296317 -0.129204 -0.834354)
(-0.52235 0.373567 -1.34565)
(-1.06975 -0.360645 0.0619486)
(0.151329 1.38788 -0.402859)
(0.141498 0.572528 -0.653901)
(-0.31735 -0.0853591 -1.62119)
(-0.603318 -0.0149342 -1.83433)
(-0.633786 0.00901112 -1.83632)
(-0.40871 -0.384956 -1.51012)
(-0.330025 -0.319952 -1.39346)
(-0.402276 -0.180623 -1.17244)
(-0.323503 -0.092676 -0.829)
(0.0815021 -0.246766 -0.926367)
(0.119434 -0.132598 -1.13067)
(0.616621 -0.0459208 -1.26937)
(0.896548 -0.0789342 -1.19492)
(0.187587 0.174093 -1.60788)
(0.300005 0.156279 -1.49229)
(0.358478 -0.0366448 -0.882697)
(-0.522422 -0.144619 0.0127289)
(-1.3805 -0.901687 -0.0345981)
(-1.76849 -0.732583 -0.00898722)
(-1.43683 -1.0515 -0.015978)
(-1.95531 -0.959327 0.0385504)
(-1.92768 -0.841763 0.0634453)
(-1.41691 -1.3037 -0.0224768)
(-2.2136 -0.795473 0.128477)
(-2.07629 -0.945927 0.133659)
(-2.03311 -0.958314 0.0460935)
(-1.51635 -1.43555 0.0466505)
(-2.40074 -0.903745 0.166906)
(-2.31978 -0.961096 0.0976322)
(-2.25145 -0.965867 0.00463501)
(-2.03205 -1.33042 -0.0242649)
(-1.39639 -1.76593 0.00606875)
(-2.69951 -0.705569 0.302883)
(-2.63447 -0.83607 0.174701)
(-2.49079 -1.05473 0.106592)
(-2.48816 -0.912888 0.140685)