/*--------------------------------*- C++ -*----------------------------------*\
  =========                 |
  \\      /  F ield         | OpenFOAM: The Open Source CFD Toolbox
   \\    /   O peration     | Website:  https://openfoam.org
    \\  /    A nd           | Version:  7
     \\/     M anipulation  |
\*---------------------------------------------------------------------------*/
FoamFile
{
    version     2.0;
    format      ascii;
    class       volScalarField;
    location    "8.5";
    object      nut;
}
// * * * * * * * * * * * * * * * * * * * * * * * * * * * * * * * * * * * * * //

dimensions      [0 2 -1 0 0 0 0];

internalField   nonuniform List<scalar> 
18750
(
0.00043383
0.000352368
0.000295103
0.000466042
0.00128689
0.000297429
0.000426161
0.000412417
0.000183896
0.00054631
0.00247596
0.000538707
0.00210827
0.000527333
0.000286871
0.000530233
0.000292644
0.000457798
0.0002176
0.000411483
0.00340552
0.00140065
0.00250285
0.000572364
0.000685217
0.00153856
0.00108479
0.00052355
0.000325404
0.000372969
0.000317322
0.000301579
0.000443922
0.000464433
0.000383798
0.00394618
0.00139675
0.00394422
0.00119676
0.00140763
0.00259028
0.000455267
0.000671059
0.00055863
0.00202862
0.000581919
0.000926421
0.000525562
0.00028227
0.000285666
0.000368638
0.000291979
0.000288301
0.000401109
0.000423775
0.000505565
0.00332947
0.00206928
0.00315753
0.00193155
0.00177793
0.00323179
0.0010521
0.00112589
0.00174968
0.0022518
0.000425523
0.000472993
0.000617173
0.000625346
0.00201866
0.000567655
0.000712091
0.000800454
0.000355582
0.000260556
0.000384325
0.000130946
0.000343305
0.000284014
0.000349118
0.000300279
0.000362577
0.000485617
0.00276467
0.00205892
0.00292094
0.00192738
0.00244624
0.00296705
0.000704686
0.00110386
0.00239234
0.00317141
0.00101948
0.00125988
0.00114385
0.0020255
0.00230765
0.000589853
0.000650247
0.000517914
0.000808777
0.00111011
0.0015867
0.000357535
0.000507012
0.000774636
0.000676299
0.000331102
0.000520716
0.000343402
0.000196636
0.000155855
0.00033865
0.000288762
0.000357417
0.000296678
0.000164407
0.00034916
0.00259497
0.00149129
0.00277295
0.00171941
0.00179617
0.00354569
0.00110034
0.00159064
0.00146853
0.00294086
0.000710597
0.00103225
0.00072744
0.000974784
0.00318695
0.00101593
0.00111195
0.00124257
0.00126872
0.00203498
0.00250819
0.000426556
0.000582298
0.000832237
0.000444933
0.000607494
0.000793753
0.00167422
0.000391359
0.000381956
0.000454371
0.000734638
0.000567323
0.000336636
0.000246717
0.000398995
0.00014167
0.00012019
0.0001424
0.000331009
0.000289101
0.000336734
0.000373948
0.000179463
0.000339869
0.00273684
0.00117099
0.00260199
0.000926031
0.000933941
0.00270333
0.0010795
0.00123986
0.000981638
0.00319813
0.000649253
0.000531333
0.00191436
0.00200789
0.00282867
0.000716295
0.000747342
0.000675016
0.0006464
0.000987899
0.00326673
0.00102273
0.00101416
0.00112718
0.0015013
0.0013201
0.00238621
0.00261941
0.000513307
0.000623345
0.000818475
0.00087174
0.000692449
0.000749336
0.00119178
0.00151102
0.000291074
0.000439698
0.000369423
0.000397679
0.00064678
0.000422269
0.000394999
0.000419126
0.000418238
0.000202091
0.000176579
0.000136621
0.000138088
0.00032275
0.000285956
0.000369003
0.000357078
0.000307439
0.000401683
0.00264019
0.000792999
0.00242243
0.000880228
0.00103662
0.00291109
0.000986332
0.00100676
0.000817127
0.00264814
0.000703045
0.000907963
0.00116706
0.00174429
0.00317074
0.000724557
0.000560666
0.000751819
0.00245442
0.00251277
0.00289817
0.00104397
0.000744922
0.00125591
0.000937931
0.00116455
0.000906575
0.00303858
0.00077857
0.001037
0.00129154
0.00108138
0.00176336
0.00141393
0.00209096
0.00290018
0.00110343
0.000774298
0.00064472
0.00096445
0.00074912
0.000356972
0.000505635
0.0014699
0.00147859
0.000442421
0.000405353
0.000475234
0.00036582
0.000378075
0.000560241
0.000383555
0.000341179
0.000455452
0.000504423
0.000203404
0.000187054
0.000153846
0.000159743
0.000152072
0.000316266
0.000275498
0.000301848
8.87918e-05
0.000159546
0.000571105
0.00265729
0.00075374
0.00254439
0.000523689
0.000428704
0.00235897
0.000953374
0.000613393
0.000951856
0.00262444
0.000790061
0.000747621
0.000772622
0.000719982
0.00244742
0.000660041
0.000708546
0.00117053
0.000804793
0.00106485
0.00325444
0.0004581
0.000978287
0.000660298
0.000799022
0.00129274
0.00122512
0.00242748
0.00118066
0.000656458
0.000707463
0.000717465
0.00123877
0.00136583
0.000544402
0.00274662
0.00136504
0.000861766
0.00111493
0.000892971
0.00154315
0.00141887
0.00195642
0.00175783
0.00274383
0.000729761
0.000631086
0.000718037
0.000549932
0.000847753
0.000669655
0.000576739
0.00039841
0.000654354
0.00114112
0.000300177
0.000616558
0.000488493
0.000478645
0.000369155
0.000364633
0.000511784
0.000380477
0.000426006
0.000437688
0.000466704
0.000295192
0.000128373
0.000189082
0.00015314
0.000171518
0.000136628
0.000307925
0.000274414
0.000198617
9.88306e-05
0.000203803
0.000472215
0.00240309
0.000771879
0.00249337
0.000490838
0.000664744
0.0026316
0.000703881
0.000434304
0.000712703
0.00239497
0.000719436
0.000497249
0.000706218
0.00079728
0.00268184
0.00084585
0.00072198
0.000865174
0.001026
0.00090159
0.00230416
0.000721257
0.000569812
0.00104164
0.00103587
0.0011174
0.00178644
0.00267677
0.000734645
0.000699846
0.000815648
0.000601
0.000905091
0.00114874
0.00167949
0.00277151
0.000695166
0.0009319
0.000911299
0.00136261
0.00209334
0.00102644
0.000929108
0.00131668
0.00275552
0.00123955
0.000897852
0.000940316
0.000746596
0.00126742
0.000594677
0.0013702
0.0013402
0.00168091
0.00269564
0.000937504
0.00119769
0.000730376
0.000585693
0.000415504
0.000567737
0.000545165
0.000439026
0.000438444
0.000365725
0.0014107
0.000395918
0.00033766
0.000673399
0.000523553
0.000451423
0.000380904
0.000358204
0.000452925
0.000355612
0.00048384
0.000432912
0.000533237
0.000310894
0.000262772
0.000119709
0.000181856
0.000156328
0.00017979
0.00013567
0.000269441
0.00027598
0.000232073
0.000252683
0.000328501
0.00037603
0.00235056
0.000662075
0.00218783
0.000731874
0.000870627
0.00241064
0.000731106
0.000526289
0.000658723
0.0026081
0.00083277
0.000800081
0.000652536
0.00121761
0.00240301
0.000654087
0.000978695
0.000837691
0.000882933
0.00102389
0.00259065
0.000787978
0.000932141
0.00104527
0.000837232
0.00104535
0.000893022
0.00258412
0.000408192
0.000630033
0.0008914
0.000895268
0.000910169
0.00127906
0.00169129
0.00273971
0.000694497
0.000542479
0.000756634
0.000595931
0.00063142
0.00100123
0.00146612
0.0018404
0.00258942
0.000726073
0.00073817
0.00100097
0.0008455
0.000800757
0.000633245
0.00062521
0.00125543
0.00160214
0.0033819
0.00109888
0.000547873
0.000711434
0.000885405
0.00087505
0.00072359
0.00149588
0.00094895
0.00134928
0.000971029
0.00301988
0.000732589
0.00116184
0.00117547
0.000733901
0.000551758
0.000510016
0.000485077
0.000620271
0.000500552
0.000495969
0.000297648
0.00142226
0.000360189
0.000327055
0.000220568
0.000420261
0.000548942
0.000395244
0.000415522
0.000350127
0.000455076
0.000366683
0.000506767
0.000591542
0.000611251
0.000198662
0.00026568
0.000253048
0.000134315
0.000165748
0.00014534
0.000154648
0.000155829
0.000232162
0.000259712
0.000277315
0.000276051
0.000267122
0.000392143
0.00212695
0.00067413
0.00225842
0.000512399
0.000639252
0.00222778
0.000526819
0.000561002
0.000955874
0.00247453
0.000684753
0.000541113
0.000259033
0.000562758
0.00256526
0.00067674
0.000704452
0.000520974
0.000884159
0.000772396
0.00276994
0.000726614
0.000587109
0.000715964
0.000781401
0.000583885
0.00132121
0.00260135
0.000826171
0.000663468
0.000721415
0.00102799
0.000984849
0.000668774
0.000948746
0.00268315
0.000750748
0.00076138
0.000679164
0.000707984
0.000789433
0.00123519
0.00153338
0.00107716
0.00283693
0.000856538
0.000972831
0.000661351
0.00130094
0.000843605
0.00123145
0.00120308
0.00118807
0.00273988
0.00224355
0.00107654
0.00122
0.00104787
0.00103133
0.000738974
0.00115128
0.00139043
0.00133769
0.000911401
0.000969375
0.00313207
0.000805097
0.000810349
0.000662581
0.000664671
0.000555957
0.000594163
0.000723074
0.000982124
0.000670789
0.00137615
0.0013546
0.00292491
0.000949411
0.000797966
0.00103094
0.000774251
0.000737971
0.000404192
0.000350742
0.000560057
0.000653526
0.000420991
0.000466062
0.000487211
0.00158928
0.000275482
0.000377768
0.000310216
0.000272661
0.000388449
0.000544463
0.000354848
0.000454377
0.000362885
0.000455808
0.000414362
0.000551451
0.000610298
0.000583819
0.000149495
0.000186428
0.000219705
0.00025296
0.000173776
0.000142481
0.000139735
0.000172421
0.00014774
0.000262533
0.000239682
0.000298974
0.000302386
0.000247225
0.00057831
0.00237145
0.000589409
0.00210789
0.000450773
0.00104734
0.00225945
0.000491835
0.000526021
0.000587064
0.00226245
0.000541767
0.000368986
0.000613264
0.000893513
0.00265092
0.000773057
0.000616733
0.000582074
0.000228119
0.000689166
0.00250218
0.000900827
0.00083149
0.000674017
0.000496557
0.000723066
0.00046631
0.00230381
0.000714618
0.000750342
0.000856022
0.000570449
0.000675377
0.000482923
0.00139972
0.00258002
0.000507419
0.00061572
0.000850867
0.000857126
0.000686938
0.000819103
0.000846111
0.00117969
0.00323913
0.000875318
0.000469948
0.000633658
0.000679754
0.000747591
0.000785543
0.00113709
0.00165141
0.000937067
0.00264764
0.000317935
0.000552655
0.000525087
0.000797322
0.00146772
0.00113943
0.000988201
0.000681166
0.00135602
0.00235401
0.00236454
0.000654787
0.0010922
0.000997523
0.0012676
0.000801758
0.00100217
0.00109345
0.00140443
0.00139427
0.00133087
0.00161582
0.0030595
0.000636181
0.000915866
0.000729595
0.000597375
0.000829247
0.00035609
0.00046698
0.000765949
0.000804288
0.000961141
0.0011038
0.00162119
0.0031267
0.000418104
0.000965526
0.00066838
0.000868715
0.000562087
0.000558493
0.000348273
0.000207368
0.000550363
0.000545952
0.000697313
0.000299116
0.000363833
0.00169637
0.000411486
0.000263631
0.000429888
0.000313451
0.000387152
0.000553601
0.000538163
0.000333651
0.000460781
0.000392038
0.000433516
0.00046428
0.000582865
0.000539835
0.000567396
0.000213722
0.000149176
0.000187523
0.00018997
0.000268135
0.000174675
0.000134708
0.000214575
0.0002981
0.000176615
0.000244635
0.000222744
0.000310002
0.000232532
0.000332619
0.000389859
0.00235141
0.000456512
0.00223674
0.000556667
0.000386661
0.00208145
0.000515788
0.000643917
0.000993232
0.00223178
0.00049582
0.000612616
0.000507554
0.000684482
0.00227503
0.000686645
0.000683027
0.000422749
0.00075477
0.000796114
0.00260949
0.000658997
0.000832836
0.000510576
0.000437245
0.000499151
0.000739819
0.0025297
0.000549776
0.000489869
0.00082681
0.000642674
0.000505662
0.000565578
0.000732847
0.00236636
0.000492239
0.000442368
0.000507199
0.000593319
0.000803267
0.000666019
0.00126591
0.000924673
0.00268053
0.000819263
0.000506252
0.000648802
0.00093288
0.00090106
0.000832127
0.000777475
0.00113611
0.00132281
0.00284803
0.000427404
0.000315168
0.000518146
0.000481807
0.000840162
0.000822828
0.000741038
0.000934301
0.00101632
0.0011303
0.00246524
0.000146855
0.000722762
0.000307578
0.000777569
0.000744022
0.000825126
0.0011311
0.00128412
0.00043527
0.00216498
0.00200924
0.00249277
0.000570212
0.00052216
0.000694659
0.000611329
0.000773712
0.00093936
0.000929774
0.00155927
0.00212496
0.0008894
0.00146668
0.00072018
0.00329755
0.000355049
0.000756001
0.00126932
0.000654855
0.000403526
0.000501309
0.000418271
0.000513906
0.000459986
0.00071787
0.000787862
0.00130656
0.00136755
0.00303224
0.000555647
0.000470296
0.000774932
0.000452677
0.00103778
0.000575
0.00041568
0.000250246
0.000130855
0.00042346
0.000679505
0.000270087
0.00035765
0.000279668
0.00180011
0.000404744
0.000398632
0.000283118
0.000380025
0.00037074
0.000371165
0.000668422
0.000507944
0.000335334
0.000476166
0.000408946
0.000418403
0.000480142
0.000647317
0.000673015
0.000652464
0.000279683
0.000210224
0.000144775
0.000175054
0.000172588
0.000281428
0.000128608
0.000154987
0.000209626
0.000157666
0.000184306
0.00023297
0.000192563
0.000213791
0.000572347
0.000793086
0.000351921
0.00240423
0.000459674
0.00222682
0.000247514
0.000470477
0.0023001
0.000462025
0.000432686
0.000299084
0.00211701
0.000647046
0.000371787
0.000423319
0.000852497
0.00220706
0.000532942
0.000498053
0.000494037
0.000317846
0.000599351
0.0023496
0.000537944
0.000571831
0.000612941
0.000479934
0.000403307
0.000705958
0.00259206
0.000809198
0.000510683
0.000496807
0.000673129
0.000405341
0.000807811
0.00047873
0.00238962
0.000607653
0.000586807
0.000435949
0.000548639
0.000643305
0.000513469
0.000608371
0.000678678
0.00251058
0.000673294
0.000582407
0.000404064
0.000428999
0.000591728
0.00064145
0.000737408
0.0011637
0.000749007
0.00257468
0.000432115
0.000574913
0.00075131
0.000618605
0.000645648
0.00081622
0.000984337
0.00101843
0.00046764
0.00133895
0.0025481
0.000421461
0.000324417
0.000555092
0.00064039
0.00111074
0.00114699
0.000625266
0.000883856
0.000639722
0.00155861
0.00115439
0.00265022
0.000295973
0.000683291
0.000846915
0.000420063
0.000497315
0.00086086
0.000609487
0.000588949
0.000525417
0.0015347
0.00227089
0.00120075
0.00239028
0.000373269
0.000494792
0.000316527
0.000807967
0.000746563
0.00066181
0.00115548
0.000740191
0.000718473
0.00133115
0.00023247
0.000737356
0.00092403
0.00308426
0.000366742
0.000293326
0.000586395
0.000705037
0.000489858
0.000530072
0.000625268
0.000517894
0.000346133
0.000342214
0.00060951
0.000826056
0.0010104
0.0010143
0.00312658
0.0006102
0.000601918
0.000396112
0.00118785
0.000420395
0.000790104
0.0004999
0.00029807
0.000205696
0.000246586
0.000413985
0.00056512
0.000258771
0.000504828
0.000306969
0.00202145
0.000462229
0.000374143
0.000409473
0.000307172
0.000292499
0.000413104
0.00043118
0.000651582
0.000439852
0.000363738
0.000489198
0.000429829
0.000427215
0.000518541
0.000723795
0.000740559
0.000666557
0.000271917
0.00027433
0.000220216
0.000140741
0.000153335
0.000182409
0.000286575
0.000103527
0.000183719
0.000170396
0.000135449
0.000162279
0.000255822
0.000194542
0.000152686
0.000503136
0.000278263
0.000351571
0.00226357
0.00034274
0.00228779
0.000229269
0.00028642
0.00226179
0.0003678
0.000268989
0.000355343
0.0023171
0.000185442
0.000188845
0.000211338
0.000462137
0.00201616
0.000539829
0.000436532
0.000307359
0.000531284
0.000823404
0.00224731
0.000627217
0.00053502
0.000399013
0.000396762
0.000413153
0.000279852
0.00239378
0.000510452
0.000466673
0.000623825
0.000548758
0.000519024
0.000625562
0.000726072
0.00233547
0.000457144
0.000585638
0.000545204
0.000582299
0.000784105
0.00070996
0.00046308
0.000280666
0.0023293
0.000561708
0.000439943
0.000644846
0.000544025
0.00084368
0.000612391
0.00048523
0.000398175
0.000816333
0.00225876
0.000404345
0.000382802
0.000452927
0.00044512
0.000668986
0.000746035
0.000291429
0.000586607
0.000876204
0.00124086
0.00289516
0.000618412
0.000656684
0.000542943
0.000606903
0.000632638
0.000577986
0.000957827
0.000573898
0.000233315
0.000604619
0.00112228
0.00265472
0.000373294
0.000469948
0.000439638
0.00077802
0.000529624
0.000930583
0.00113343
0.00137327
0.00127759
0.000611101
0.00176656
0.00128029
0.0026344
0.000225924
0.000367077
0.000727635
0.000635723
0.000908727
0.000633438
0.00104429
0.000432792
0.000344836
0.000830878
0.00191971
0.000916549
0.00147466
0.00244303
0.000390816
0.000468892
0.000828005
0.000366752
0.000656582
0.000602701
0.000383101
0.00040795
0.000502672
0.00117485
0.00113123
0.000632265
0.000884411
0.00138288
0.00279477
0.0002696
0.000436445
0.000696693
0.000925886
0.000693137
0.000596578
0.000323346
0.000599761
0.000530845
0.000472614
0.000483178
0.000668348
0.000547723
0.000776705
0.00156213
0.00335995
0.000546254
0.000610653
0.000578894
0.000522256
0.000954069
0.000533019
0.000436923
0.000393404
0.000304378
0.000246827
0.000260473
0.000306239
0.000344933
0.000729583
0.000497223
0.000318768
0.00221245
0.000575916
0.000439313
0.000361754
0.000415056
0.00027352
0.000300268
0.000457194
0.000345399
0.000581812
0.000392794
0.000483785
0.000525334
0.000443938
0.00043605
0.000533653
0.00066633
0.000779879
0.000622255
0.000202128
0.000242932
0.00028268
0.000229469
0.00015432
0.000136552
0.000186537
0.000277545
0.000153259
0.000183725
0.000229617
0.000326637
0.000201185
0.000286201
0.000217099
0.000275315
0.000157515
0.000334381
0.000328824
0.00210174
0.000525396
0.00215518
0.000556584
0.000383892
0.0022277
0.000309858
0.00047577
0.000308933
0.00226202
0.000311851
0.000221687
0.00027125
0.00045716
0.00224035
0.000220154
0.000287531
0.000228984
0.000304303
0.000668855
0.00205763
0.000386488
0.000348324
0.000432787
0.000537691
0.000634645
0.000700107
0.00220009
0.000629824
0.000506599
0.000424647
0.000348226
0.000371072
0.0007131
0.000259072
0.00251605
0.000387755
0.000483969
0.000522729
0.000693928
0.000468334
0.000304795
0.000840643
0.000547755
0.00256433
0.000558387
0.000611689
0.000450082
0.000562413
0.000551802
0.00074199
0.000568744
0.000551832
0.000343242
0.00241948
0.000730366
0.000539241
0.00073555
0.000584181
0.000740561
0.000411849
0.000700351
0.000380477
0.000697927
0.000911972
0.00234324
0.00071381
0.000677991
0.000451834
0.000535687
0.000624855
0.000750161
0.000575513
0.000755912
0.000737757
0.000931646
0.00137097
0.00283287
0.00048116
0.000662125
0.000455857
0.000351242
0.000863051
0.000809578
0.00116128
0.000819085
0.000868957
0.000861282
0.000678596
0.00123828
0.00243476
0.00045591
0.000266782
0.000405923
0.000513814
0.000821737
0.000635485
0.000655739
0.00127785
0.00116563
0.000780508
0.00171177
0.00132749
0.000975029
0.00254149
0.000259906
0.00015797
0.00036822
0.000470369
0.000608757
0.000364996
0.000710763
0.00109336
0.000356326
0.000376826
0.00106182
0.00111208
0.000934376
0.00122671
0.00250272
0.000596997
0.000325273
0.000367363
0.000540182
0.000352279
0.000783095
0.000751829
0.000373023
0.00125307
0.000544464
0.00130593
0.000539975
0.000747805
0.000855893
0.00178259
0.00277625
0.000679748
0.000458598
0.000506357
0.000909693
0.00053824
0.000509666
0.000528878
0.000496212
0.000562227
0.000301415
0.00018446
0.000351797
0.000532802
0.000500417
0.00111985
0.000713796
0.00321817
0.000393633
0.000444525
0.000690942
0.000608152
0.000662654
0.0004386
0.000611859
0.000290542
0.00034546
0.000375044
0.000329459
0.000277479
0.000303532
0.000490637
0.000704589
0.000635609
0.000810007
0.00227166
0.000311981
0.00022825
0.000454567
0.000380053
0.000384923
0.000270711
0.000311843
0.000413535
0.000268499
0.000476983
0.000384336
0.000555485
0.000605259
0.000442206
0.000426992
0.000497719
0.000734818
0.000839564
0.000580595
0.000357606
0.000234704
0.000245963
0.00028646
0.000239995
0.000167914
0.000117351
0.000177504
0.000243177
0.000198209
0.000174656
0.000200279
0.0004127
0.000232829
0.000329779
0.000183793
0.000119434
0.000219915
0.00052081
0.000439956
0.00210205
0.000418671
0.00199465
0.00041681
0.000402434
0.00214437
0.000392755
0.000185077
0.0004511
0.00221043
0.000308079
0.000363168
0.000129083
0.000325094
0.00215643
0.00041923
0.000446585
0.000296624
0.000257601
0.00044314
0.00219487
0.000375956
0.000326382
0.00041454
0.000324386
0.000281651
0.000438051
0.0020777
0.000417157
0.00032139
0.000332608
0.000537051
0.000466343
0.000704776
0.000710399
0.00221918
0.000371598
0.000518029
0.000532062
0.000387519
0.000686153
0.000506586
0.000602907
0.000488371
0.00239089
0.000479256
0.00047035
0.000628335
0.000641706
0.000541247
0.00054424
0.000441328
0.000587897
0.000515461
0.00247539
0.00069627
0.000333232
0.000283105
0.000673852
0.000707685
0.000685517
0.000344188
0.000390539
0.00082934
0.000663654
0.00236141
0.00066579
0.000616961
0.000578056
0.000588773
0.000668789
0.000746368
0.000577064
0.000577353
0.000392941
0.000528569
0.000766534
0.00238645
0.000548965
0.000348975
0.000486904
0.000714535
0.000558257
0.000631656
0.000541393
0.000648016
0.000898908
0.000944504
0.000999492
0.00112839
0.00278275
0.00044458
0.000640304
0.000283823
0.000276855
0.00101185
0.000939505
0.00112225
0.000668196
0.000457175
0.00099639
0.00111473
0.000752202
0.00103749
0.00242739
0.000328709
0.000266088
0.000495478
0.000605921
0.000961659
0.000535707
0.000852144
0.000858661
0.00110839
0.000844645
0.0010598
0.00188907
0.00133883
0.000971848
0.00278936
0.000295673
0.000378263
0.000271795
0.000388325
0.000538132
0.000479825
0.000517317
0.000759183
0.000919944
0.000719398
0.000675466
0.00119065
0.0008699
0.000836659
0.000778794
0.00252924
0.000831627
0.000483173
0.000312527
0.000534056
0.000322014
0.000397157
0.000509617
0.000444041
0.000381413
0.000425699
0.00129294
0.000699288
0.000600862
0.000769842
0.00107144
0.00211029
0.00271299
0.00077918
0.00051933
0.000319196
0.000439929
0.0007123
0.000991146
0.000476208
0.000827349
0.000574314
0.000391931
0.000495771
0.000210968
9.64923e-05
0.000234887
0.00185561
0.00156468
0.000979732
0.00294996
0.000591895
0.000366354
0.00038636
0.000745957
0.000642157
0.00065574
0.000440423
0.000572304
0.000368333
0.000227077
0.000321163
0.000439432
0.000341455
0.000405358
0.000561804
0.000503558
0.000704579
0.000517476
0.00204381
0.00034737
0.000245147
0.000277823
0.000479887
0.000361394
0.000333793
0.000266073
0.000332261
0.000326737
0.00032609
0.000424671
0.000405197
0.000464085
0.000699956
0.000439
0.000428811
0.000585087
0.000849046
0.000959537
0.000630445
0.000178464
0.000354466
0.000254258
0.000226897
0.000286776
0.000245103
0.000155853
0.000108062
0.000163568
0.000204493
0.0002271
0.000183048
0.000168664
0.000330903
0.000331714
0.000397512
0.000233219
0.000120909
0.000199444
0.000744004
0.000324292
0.00219694
0.000349867
0.0019744
0.000630253
0.000455873
0.00202163
0.000269543
0.000404628
0.000446644
0.00216327
0.000505534
0.000476063
0.00039879
0.000254301
0.00233564
0.000315549
0.000425846
0.000503111
0.000327142
0.000448348
0.00238092
0.000459575
0.000472357
0.000449728
0.00033411
0.000253937
0.000441235
0.00231603
0.000398651
0.000390806
0.000309347
0.000227885
0.000187736
0.000411802
0.000450617
0.00204596
0.000554273
0.000493261
0.000338155
0.000360847
0.000500801
0.000327427
0.000656533
0.000917682
0.00210973
0.000390477
0.000452741
0.000551098
0.000370072
0.000330365
0.000579107
0.000473359
0.000440402
0.000501782
0.00217299
0.000833311
0.000505047
0.000357719
0.00077872
0.000518803
0.000499083
0.000383868
0.000507348
0.000535835
0.00051946
0.00237697
0.000704905
0.000625925
0.000759675
0.000557267
0.000767208
0.000488573
0.000702996
0.000428222
0.000619178
0.000730617
0.000792882
0.00243971
0.000553229
0.000559377
0.000511917
0.000896988
0.000735128
0.000642764
0.000508658
0.000726234
0.000447569
0.000391886
0.000324761
0.000876931
0.00237358
0.000521134
0.000364112
0.000353922
0.000513113
0.000561956
0.000505707
0.000596086
0.000477101
0.00095011
0.000498145
0.000527829
0.000567202
0.0011419
0.00262558
0.000745166
0.000869934
0.000430725
0.000545075
0.000996674
0.00094644
0.000841872
0.00081255
0.000823728
0.00136903
0.000773479
0.000368339
0.00096388
0.000709146
0.00227578
0.00056297
0.000288034
0.000435888
0.000635213
0.000831908
0.000883491
0.000371176
0.000583762
0.00074318
0.00138045
0.00165888
0.0017505
0.00137419
0.00122136
0.000780919
0.00281389
0.000447863
0.000357948
0.000257747
0.000407558
0.00050644
0.000872397
0.000389574
0.000695071
0.000723962
0.000874406
0.00069155
0.000598212
0.000673048
0.000490695
0.000572539
0.000642094
0.00221608
0.000422613
0.000513211
0.000868908
0.000356072
0.000397189
0.000518184
0.000593822
0.000547455
0.000618606
0.000370004
0.000660936
0.000828163
0.000549639
0.000616498
0.000353098
0.000761911
0.00136219
0.00270702
0.00127386
0.000976825
0.000744708
0.000431386
0.000669708
0.000356979
0.000858575
0.000657852
0.00100018
0.000369681
0.000419713
0.000354148
0.000357794
0.000157777
0.000435896
0.00100883
0.00125056
0.000655858
0.00325717
0.000435775
0.000739772
0.000363942
0.000472329
0.000802241
0.000669762
0.000615562
0.000581959
0.000423258
0.000216508
0.000321758
0.000359283
0.00056421
0.000260445
0.000470415
0.000615274
0.000408482
0.000640577
0.000764455
0.00197314
0.000331431
0.000336952
0.000218848
0.000262965
0.000499328
0.000369531
0.00032609
0.000277872
0.000381501
0.00035087
0.000367383
0.000359138
0.000429752
0.00040364
0.00064254
0.00048543
0.000420142
0.000682811
0.000824661
0.0010755
0.000857527
0.00010005
0.000168532
0.000355813
0.000290301
0.000228205
0.000280818
0.000245939
0.000151823
0.000110279
0.000145177
0.000163211
0.000255608
0.00017962
0.000181048
0.00034341
0.000459353
0.000599656
0.00031731
0.000254778
0.00092844
0.000280657
0.000271013
0.00217812
0.000449496
0.00210973
0.000278285
0.000443098
0.0019617
0.000285148
0.000405005
0.000587941
0.00202745
0.00027258
0.000335076
0.000355166
0.000369286
0.00214346
0.000413727
0.000475569
0.000362547
0.00042767
0.000335657
0.00232438
0.000348141
0.000410911
0.000330908
0.00046726
0.000405324
0.000472158
0.00233298
0.000466294
0.000447576
0.000252844
0.0004598
0.000456555
0.000233596
0.000448604
0.00220522
0.000428635
0.000555547
0.000270292
0.000411039
0.000277618
0.000315731
0.000362344
0.000515672
0.00204511
0.000417534
0.00038029
0.000621871
0.000306442
0.000366113
0.000407246
0.000500153
0.000477749
0.000805423
0.00225671
0.000410583
0.000332838
0.000325384
0.000596666
0.000458258
0.000409796
0.000414281
0.000460796
0.000504031
0.000504451
0.00275377
0.000547064
0.000697823
0.000646014
0.000962944
0.000551027
0.000461824
0.000457915
0.000478629
0.000496329
0.000562522
0.00056515
0.00263049
0.000419414
0.00031691
0.000687811
0.000939329
0.000984819
0.000531617
0.0004723
0.000499704
0.000672023
0.000705629
0.000545357
0.00056624
0.00247777
0.000585177
0.00060032
0.000532422
0.000605437
0.00051924
0.000716263
0.000538366
0.000532725
0.000634994
0.000645999
0.000360854
0.000589809
0.00097175
0.00235094
0.000381115
0.000356429
0.000312328
0.000586329
0.000291017
0.000392498
0.00068194
0.000452369
0.000797979
0.000648153
0.000828509
0.00092084
0.000673636
0.00107359
0.00273486
0.000804891
0.000568001
0.000515028
0.000592706
0.00108685
0.00089129
0.000554062
0.000638695
0.000716374
0.00123506
0.000769639
0.000540029
0.00125195
0.00115134
0.0010287
0.00224808
0.000281061
0.00059129
0.000470861
0.000280645
0.000469101
0.000461728
0.000357009
0.00067698
0.000563911
0.00123469
0.00106964
0.000734798
0.00138056
0.00106669
0.000896092
0.000376495
0.00248463
0.00035827
0.000284761
0.000356916
0.000380752
0.000391614
0.000466083
0.000290157
0.000342156
0.000686531
0.00152954
0.000717292
0.000176922
0.000500838
0.000657354
0.000680302
0.000426291
0.00089223
0.00205699
0.000658695
0.000563081
0.00043019
0.000279585
0.000302086
0.00057051
0.000623072
0.000926979
0.000515322
0.000655387
0.000491769
0.000603313
0.000636255
0.00100881
0.000594077
0.000956005
0.00130386
0.00155288
0.00334313
0.00129925
0.00111412
0.00112882
0.000862753
0.000432336
0.000937372
0.000979254
0.000465023
0.000624184
0.000970611
0.000417256
0.000520262
0.00042422
0.000226061
0.000120111
0.00096731
0.000949149
0.00123423
0.00144934
0.00323716
0.000636421
0.000594731
0.000447464
0.000413917
0.000423952
0.000749131
0.000617173
0.000567126
0.000530358
0.000344682
0.000271364
0.000349984
0.000412157
0.000419125
0.00029384
0.000379371
0.000478533
0.000530875
0.000622264
0.000508517
0.00155844
0.000257479
0.000233043
0.000272578
0.000300997
0.000230708
0.000466439
0.000405928
0.000362683
0.000355322
0.000368158
0.00031537
0.000375398
0.000312969
0.000419749
0.000371726
0.000490872
0.000600769
0.000427133
0.000608037
0.000872379
0.00114084
0.00112299
0.000193513
0.000158946
0.000171471
0.000329418
0.000317015
0.000221805
0.00027132
0.000245997
0.00015573
9.89439e-05
0.000134654
0.000144619
0.000268636
0.000162017
0.000186234
0.00032424
0.000394051
0.000513661
0.000403039
0.000193061
0.000296101
0.000286432
0.000272108
0.00199904
0.000360174
0.00200024
0.000324729
0.000361067
0.00210174
0.000375626
0.000183226
0.00035703
0.00199289
0.00030885
0.000312442
0.000409429
0.000495471
0.00204629
0.000471672
0.000343283
0.000328132
0.000398656
0.000435924
0.0021679
0.000431502
0.00042712
0.000426872
0.000414496
0.000397285
0.000575774
0.00218625
0.000550569
0.000320866
0.000318077
0.00019221
0.000366148
0.000323148
0.000430041
0.00227204
0.000363336
0.000431799
0.000297891
0.000294018
0.000416619
0.000441035
0.000241246
0.000377221
0.00216689
0.000765119
0.000294438
0.000377099
0.00029854
0.000427619
0.000381968
0.000332395
0.000374315
0.000535721
0.00209503
0.000670987
0.000680938
0.000196521
0.000551501
0.000572938
0.000438342
0.00056538
0.000524257
0.000510329
0.000970755
0.00240455
0.000532532
0.000418038
0.000349357
0.000136118
0.00053055
0.000535378
0.000554332
0.000554567
0.000614446
0.000378815
0.000476466
0.00277533
0.000517622
0.000528426
0.000478186
0.000316787
0.000301251
0.000557528
0.000485686
0.00055679
0.000534103
0.000412903
0.000236846
0.000451644
0.00260528
0.000665033
0.000543145
0.000525472
0.000647166
0.000275422
0.000448528
0.000548188
0.00059141
0.000520875
0.000517858
0.000419431
0.000318575
0.000932018
0.0023171
0.000581321
0.000563595
0.000570629
0.000716495
0.000618464
0.000630291
0.000630264
0.000706671
0.000611987
0.000414597
0.0004762
0.000650847
0.000987178
0.000796739
0.00237965
0.000437185
0.000399515
0.00033297
0.000748968
0.000616619
0.000564475
0.000897669
0.000545163
0.000765762
0.000298228
0.000529742
0.000948968
0.000894875
0.000819372
0.00112832
0.00271775
0.000756825
0.000603771
0.000597682
0.000739191
0.00109354
0.000796421
0.000948717
0.000629007
0.000807912
0.00117264
0.00072383
0.000841756
0.000758578
0.00114518
0.000835915
0.000900033
0.00222456
0.000366263
0.000334061
0.000150912
0.000468975
0.000547705
0.000517353
0.000633552
0.000570668
0.000621362
0.000689289
0.00112886
0.000692494
0.00100748
0.00116446
0.000553583
0.000753115
0.00091722
0.00255341
0.000345129
0.000309936
0.000345991
0.000370135
0.000498395
0.000450266
0.000510314
0.000699417
0.000340856
0.000840026
0.00104821
0.000218917
0.000441341
0.00109576
0.000760016
0.000701953
0.000890698
0.00129283
0.00193207
0.000710604
0.000831512
0.00063182
0.00040424
0.000681018
0.00052373
0.000450755
0.000553325
0.00101027
0.000574486
0.000545529
0.000485135
0.000853124
0.000888513
0.000708566
0.000703628
0.000784945
0.000984192
0.00141037
0.0039889
0.000547354