/*--------------------------------*- C++ -*----------------------------------*\
  =========                 |
  \\      /  F ield         | OpenFOAM: The Open Source CFD Toolbox
   \\    /   O peration     | Website:  https://openfoam.org
    \\  /    A nd           | Version:  7
     \\/     M anipulation  |
\*---------------------------------------------------------------------------*/
FoamFile
{
    version     2.0;
    format      ascii;
    class       surfaceScalarField;
    location    "8.5";
    object      phi_0;
}
// * * * * * * * * * * * * * * * * * * * * * * * * * * * * * * * * * * * * * //

dimensions      [0 3 -1 0 0 0 0];

internalField   nonuniform List<scalar> 
54125
(
0.000100908
-1.70134e-05
-0.00387015
0.000275276
-8.28389e-05
0.000594351
0.00017482
-4.56834e-05
-0.00279983
7.79184e-05
-1.49322e-05
-0.00393314
0.000341359
-0.000239499
0.00318761
0.000433181
-0.000150479
-0.00111365
0.000186913
-7.20014e-05
0.000557358
0.000154912
-6.48631e-05
-0.00256039
0.000147655
-3.97618e-05
-0.00292266
6.49958e-05
-1.41857e-05
-0.00398395
-0.000388517
0.000161544
0.00450519
0.00047574
-0.000354561
0.00267239
0.000110951
-0.000184407
0.00344798
0.000440127
-0.000172718
-0.00142116
0.000373887
-0.000130249
-0.00128164
0.000281444
-6.81867e-05
0.000409096
9.41952e-05
-6.81489e-05
-0.00152791
0.000135114
-5.66895e-05
-0.00267858
0.000137906
-3.87686e-05
-0.00303598
5.4783e-05
-1.38769e-05
-0.00402485
-0.00149357
0.000778699
0.00761846
0.000741693
-0.000209068
0.00317816
-0.000668251
0.000275179
0.00500922
0.000367989
-0.000352575
0.00196274
0.000365389
-0.000294764
0.00279125
0.000197964
-0.000201734
0.0037332
0.000342811
-0.000204035
-0.000378312
0.000374516
-0.000135895
-0.00165491
0.000332278
-0.000122774
-0.00142142
0.000182067
-6.64018e-05
0.000348214
5.25858e-05
-7.04783e-05
-0.000639193
8.70631e-05
-6.01501e-05
-0.00161152
0.000126265
-5.59438e-05
-0.00278767
0.000126301
-3.67139e-05
-0.00313944
3.79772e-05
-1.32796e-05
-0.00404955
-0.00151109
0.000728217
0.00571839
0.000595689
0.00106965
0.00669879
-0.00154682
0.000997759
0.00749927
0.000512634
-0.000448975
0.00274751
0.000524647
-4.42641e-05
0.00333834
-0.000782402
0.000290453
0.00569913
0.00049192
-0.000347797
0.00147579
0.000247058
-0.000279892
0.00207532
0.000335531
-0.000290871
0.00287713
1.05781e-05
-0.000201653
0.00410634
0.000186437
-0.000183855
0.000143317
0.00032544
-0.000159357
-0.000593228
0.000352217
-0.00011563
-0.00188801
0.000308462
-0.000116747
-0.00155324
0.00011868
-6.29937e-05
0.000330504
8.13689e-05
-5.63401e-05
-0.000197297
4.6309e-05
-6.18946e-05
-0.000683758
8.69562e-05
-5.84547e-05
-0.00169596
0.000119012
-5.35665e-05
-0.00288983
0.000113693
-3.52386e-05
-0.00323118
2.21023e-05
-1.13204e-05
-0.00406033
-0.00127632
-0.000170881
0.00634658
-0.000317917
0.0010697
0.00926041
-0.00143509
0.000443106
0.00516356
0.000553281
0.00076015
0.00600696
0.000421225
0.00108519
0.00671479
-0.0015547
0.000897038
0.00737453
0.000349081
-0.000417633
0.00220136
0.000354096
-0.000318956
0.00291516
0.000118385
7.51869e-07
0.00384519
-0.000868105
0.000359635
0.00621818
0.000351554
-0.00032173
0.00164707
0.000428281
-0.000258474
0.00135153
0.000207096
-0.000238721
0.00216829
0.000261495
-0.000280977
0.00300342
-0.000107784
-0.000176893
0.00450969
0.000173974
-0.000133206
-9.63825e-06
0.000177126
-0.000141893
-4.96302e-06
0.000325884
-0.000130695
-0.00081709
0.000316772
-9.88452e-05
-0.00210367
0.000291293
-0.000111598
-0.00168223
9.93109e-05
-6.0886e-05
0.000314182
5.04792e-05
-4.57907e-05
-0.000474742
6.31435e-05
-5.10821e-05
-0.000271253
4.47609e-05
-5.99781e-05
-0.000726995
8.46501e-05
-5.65439e-05
-0.00177763
0.000110152
-5.11696e-05
-0.00298405
0.00010635
-3.31178e-05
-0.00331573
4.69314e-06
-8.92492e-06
-0.0040561
-0.00128637
0.00012434
0.0048101
-0.00115747
0.000435416
0.00712397
-0.00123268
-0.000131217
0.00627539
-0.000201344
0.00147471
0.00912456
-0.000510566
0.000928588
0.00970672
-0.00144039
0.000299466
0.00474977
8.80614e-05
0.000838213
0.00449407
0.000402955
0.000868703
0.00617459
-0.000410553
0.000995267
0.0071455
-0.00158997
0.000849745
0.00724665
7.72724e-05
-0.000213337
0.00240789
0.000232286
-0.000352277
0.00243067
0.000185567
-0.000236623
0.00317407
-2.56821e-05
0.000122233
0.00436977
-0.000999244
0.000458396
0.00665124
0.000175288
-0.000215876
0.00194013
0.000321737
-0.00023694
0.00148093
0.000352614
-0.000193528
0.00127961
9.18249e-05
-0.000199196
0.00231146
0.000147855
-0.000256726
0.0032267
-0.000155621
-0.000111182
0.00487581
0.000114855
-0.00011272
9.81359e-05
0.000151352
-9.78679e-05
-0.000141873
0.000178229
-0.000116161
-0.000152966
0.000310148
-0.000102532
-0.0010389
0.000268212
-8.62134e-05
-0.00228712
0.000184747
-0.000105919
-0.0017156
7.1729e-05
-5.57033e-05
0.000302849
5.23002e-05
-3.36219e-05
-0.000659393
4.28338e-05
-4.29584e-05
-0.0005257
5.37795e-05
-5.1108e-05
-0.000333903
4.20156e-05
-5.80695e-05
-0.000767485
8.01961e-05
-5.44611e-05
-0.00185454
9.76028e-05
-4.89686e-05
-0.0030658
9.74084e-05
-3.1541e-05
-0.00339052
-1.01741e-05
-1.15224e-05
-0.00403441
-0.00155119
0.000262859
0.00473751
-0.0012511
0.000271295
0.00571014
-0.00117574
0.000224973
0.00452818
-0.000672313
0.000758551
0.00764048
-0.00118789
0.000336468
0.00733361
-0.00122803
-0.000106812
0.00616985
-0.000159196
0.00164079
0.00830335
-0.000282067
0.00152335
0.00921482
-0.000793683
0.000851532
0.00953778
-0.00165419
0.000199353
0.00461465
-0.000136185
0.00100266
0.00386134
-0.00010425
0.000857972
0.00484133
0.00024701
0.000964855
0.00614356
-0.000322075
0.00105262
0.00723902
-0.00160055
0.000781769
0.00706618
-0.000159478
-6.95658e-05
0.00290178
-3.67502e-05
-0.000203417
0.00261752
0.000134842
-0.000266288
0.00267811
7.30201e-05
-0.000197129
0.00351223
-0.000288704
0.000214284
0.00505044
-0.00103298
0.000473214
0.00705539
9.30582e-05
-0.000117204
0.00147296
0.000169379
-0.00013709
0.00182225
0.000276397
-0.000162442
0.00135167
0.000311741
-0.00012138
0.0012002
0.000135386
-0.000170844
0.00235841
4.06943e-05
-0.000196357
0.00345592
-0.000225056
-0.000131748
0.00530434
0.000100748
-9.07125e-05
3.80235e-05
9.87686e-05
-8.22707e-05
2.66036e-05
0.000135274
-7.85308e-05
-0.000260997
0.00016888
-9.02044e-05
-0.000292157
0.000282767
-7.76008e-05
-0.00125008
0.000207734
-7.61057e-05
-0.00242706
0.000230329
-9.94363e-05
-0.00180479
4.358e-05
-5.39062e-05
0.000303001
4.26378e-05
-2.06534e-05
-0.000392222
4.07862e-05
-3.18718e-05
-0.000711266
3.94537e-05
-4.40646e-05
-0.000572197
4.47437e-05
-5.10055e-05
-0.000385711
3.72953e-05
-5.61859e-05
-0.000803056
7.29062e-05
-5.24837e-05
-0.00192393
8.27182e-05
-4.73133e-05
-0.00313275
7.21045e-05
-3.17062e-05
-0.00344244
-2.6713e-05
-9.4506e-06
-0.00399824
-0.00173979
-2.86845e-05
0.00348341
-0.00107569
0.000254195
0.00472086
-0.00136303
0.000453701
0.0044711
-0.00086424
0.00052628
0.00607846
-0.00126245
0.000308291
0.00570138
-0.00140885
0.000213286
0.00449571
-0.000448768
0.00108126
0.00771856
-0.000621285
0.000639171
0.007677
-0.000982004
0.000260745
0.00715437
-0.00144289
0.000115814
0.00584273
-7.73139e-06
0.00135269
0.00767205
-0.000204911
0.00158322
0.00834414
-0.000206535
0.00141965
0.00910024
-0.00054151
0.000651562
0.00930501
-0.00159155
0.000217174
0.00438848
-0.00033582
0.00107029
0.00453696
-0.000340302
0.000924785
0.00409808
-0.000119276
0.000945679
0.00511463
6.43051e-06
0.00104296
0.00621981
-0.000768309
0.000985122
0.00751527
-0.00158437
0.000754269
0.00686331
-0.000137505
-0.00016219
0.00322786
-0.000171688
-2.45679e-05
0.003064
-7.00494e-05
-0.000136789
0.00283447
9.4361e-05
-0.000264722
0.00296308
9.45557e-05
-3.75828e-05
0.00380493
-0.000263389
0.000233451
0.00559429
-0.00113863
0.000646962
0.00732201
0.000155548
-2.65775e-05
0.00109322
6.27041e-05
-3.8416e-05
0.00141035
0.000137842
-6.28558e-05
0.0017201
0.000224807
-6.78232e-05
0.00124219
0.000152711
-6.98731e-05
0.00122928
3.47126e-05
-0.00014361
0.00247868
-0.000103847
-0.000205216
0.00386357
-0.000232964
-7.9937e-05
0.00566082
6.68626e-05
1.39212e-06
0.000155832
7.54895e-05
-6.681e-05
-1.21406e-05
8.73519e-05
-6.2133e-05
-3.76924e-05
0.00011872
-6.16837e-05
-0.000363494
0.000147535
-6.62894e-05
-0.000413709
0.000246344
-5.9059e-05
-0.00144057
0.000142019
-6.7407e-05
-0.00251839
8.65832e-05
-9.40282e-05
-0.00177914
3.00928e-05
-4.91089e-05
0.000295304
-6.1457e-07
-1.37467e-05
-0.000204486
3.14748e-05
-1.83233e-05
-0.000437246
3.45209e-05
-3.23966e-05
-0.000757454
3.50219e-05
-4.49567e-05
-0.000613268
3.58866e-05
-5.08255e-05
-0.000426958
3.07675e-05
-5.44006e-05
-0.000831906
6.3842e-05
-5.04017e-05
-0.00198468
6.81927e-05
-4.5133e-05
-0.00318751
5.83072e-05
-2.77124e-05
-0.00348249
-4.36036e-05
-9.1629e-06
-0.00394548
-0.00163923
-5.53294e-05
0.00379513
-0.00111013
1.36189e-05
0.00490455
-0.00155775
-7.45706e-05
0.0037527
-0.00090271
0.000280526
0.00519926
-0.00108889
0.000489704
0.0045113
-0.00141714
0.000361813
0.00411757
-0.000628057
0.000735843
0.00644108
-0.000761932
0.00047304
0.00605436
-0.00130115
0.000284357
0.00594945
-0.00156174
-8.27026e-05
0.00469725
-9.64151e-05
0.0011415
0.00786223
-0.00032473
0.000908609
0.00756894
-0.000562208
0.000573234
0.00772018
-0.000799218
0.000392242
0.00713565
-0.00141336
3.57089e-05
0.00562883
-0.000108763
0.00110535
0.00769177
-2.56803e-05
0.0012886
0.00765205
-0.000165009
0.00154391
0.00826562
-0.00044419
0.00125542
0.008947
-0.000941125
0.00076304
0.00893196
-0.00170791
0.000224264
0.00428775
-0.000148642
0.000713227
0.00478666
-0.000225121
0.00101439
0.00450078
-0.000206312
0.000971283
0.00420874
-0.000232786
0.0011057
0.00537903
-0.000348631
0.00117803
0.00647009
-0.000772466
0.00101052
0.0077681
-0.00154327
0.000724384
0.00654356
-0.000130703
-0.000160349
0.00306642
-0.000224663
-4.61327e-05
0.0035368
-0.000221734
-2.68086e-05
0.0033136
-7.22573e-05
-0.000177958
0.00304477
-9.68635e-05
-9.13499e-05
0.00326642
-3.92506e-05
-4.38688e-05
0.00415622
-0.000631906
0.000451641
0.00631767
-0.00110199
0.000532663
0.00765837
0.000130497
0.000128495
0.00132945
0.000114378
1.11045e-05
0.00100481
0.000114178
4.04494e-05
0.00128022
0.000207983
2.26052e-05
0.00154041
0.000159517
3.36454e-05
0.00112669
0.000317353
-1.47994e-05
0.00102946
-0.000103434
-9.70938e-05
0.00261601
-0.000182989
-0.000152468
0.00420567
-0.000242637
-6.75665e-05
0.00600112
-8.67621e-05
0.000117006
0.00059891
6.88696e-05
9.19746e-07
5.07075e-05
5.55118e-05
-4.51144e-05
-5.01502e-05
7.07059e-05
-4.2418e-05
-9.26419e-05
8.30394e-05
-4.64771e-05
-0.000430459
0.000119068
-4.64374e-05
-0.000514631
0.000205712
-4.29646e-05
-0.00160688
0.000100194
-5.83331e-05
-0.00258609
1.50194e-05
-8.68464e-05
-0.00169812
2.77141e-05
-4.19019e-05
0.000265889
-3.8183e-05
-6.18986e-06
-0.000213337
3.66696e-06
-1.15445e-05
-0.000214932
2.38089e-05
-1.75469e-05
-0.000475904
2.66565e-05
-3.2716e-05
-0.000796352
2.92827e-05
-4.55814e-05
-0.000647794
2.66658e-05
-5.07638e-05
-0.00045726
2.31062e-05
-5.27724e-05
-0.000852642
5.36126e-05
-4.82217e-05
-0.00203521
5.22779e-05
-4.29964e-05
-0.00322451
3.95785e-05
-2.92066e-05
-0.00350202
-5.9949e-05
-7.56839e-06
-0.00387796
-0.00162514
0.000215284
0.00271388
-0.00113614
-2.51644e-06
0.00447808
-0.00160444
1.75821e-05
0.00382423
-0.000838534
4.26067e-05
0.00493951
-0.0010822
-7.05853e-05
0.00489388
-0.00149201
-9.3932e-05
0.00392151
-0.000720253
0.000470166
0.00569678
-0.000774558
0.000348526
0.00535307
-0.00127344
0.00039564
0.00444975
-0.00153573
0.000264705
0.00382687
-0.000179868
0.000949284
0.00641583
-0.000445043
0.000728653
0.00630578
-0.000716856
0.000467093
0.00602627
-0.00120913
-2.72989e-05
0.00630396
-0.00165788
-6.84794e-06
0.00494862
6.25865e-06
0.00118102
0.00763666
8.90565e-05
0.00100751
0.00764859
-0.000286073
0.000855556
0.00740768
-0.000450534
0.000599883
0.00751889
-0.000777643
0.000292707
0.00671517
-0.00141916
-4.78931e-06
0.00534487
6.19701e-06
0.000791586
0.00771449
0.000136949
0.00101571
0.00760258
6.00821e-05
0.00131997
0.0076096
-0.000287538
0.00139024
0.00818555
-0.000559869
0.00117276
0.00874852
-0.000920622
0.000773284
0.0085311
-0.00165465
0.000180667
0.00421846
-0.000168743
0.0003941
0.00498061
-0.000158207
0.000816819
0.00491778
-0.000166724
0.00102967
0.00438739
-0.000230562
0.00107577
0.00439697
-0.000189884
0.000979401
0.00567068
-0.000401202
0.000983503
0.00685906
-0.000542319
0.000936308
0.00746658
-0.0013839
0.000664025
0.00616144
-9.84245e-05
5.36518e-05
0.00327484
-7.13586e-05
-0.000121953
0.00332798
-0.000145821
-9.94323e-05
0.00386942
-5.60457e-05
-7.05683e-05
0.00347023
-0.000332257
-9.01084e-05
0.0035353
-9.51924e-06
5.09329e-06
0.00354433
-0.000251621
-3.04313e-05
0.00478648
-0.000425971
0.00034212
0.00675119
-0.00110071
0.000534497
0.00798195
4.20597e-05
0.000256828
0.00154474
0.000185878
0.000122866
0.00110068
0.000125847
7.82734e-05
0.000896646
8.90063e-05
0.000110551
0.00117398
6.09075e-05
0.000110202
0.00148598
0.000110819
8.9948e-05
0.00103019
7.09733e-05
3.35612e-05
0.00103355
-0.000129603
-7.55436e-05
0.00276888
-0.000227249
-9.23127e-05
0.00447269
-1.39738e-05
-6.98052e-05
0.00611261
-0.000170309
0.000173153
0.000554329
-4.23336e-05
9.77057e-05
0.000548125
5.74855e-05
-2.99358e-08
-2.80536e-05
3.46342e-05
-2.19512e-05
-7.85947e-05
4.99022e-05
-2.31376e-05
-0.000136601
6.26431e-05
-3.25378e-05
-0.000480336
7.87793e-05
-2.73862e-05
-0.000585882
0.000151978
-2.83733e-05
-0.00173521
3.43612e-05
-5.10118e-05
-0.00260401
-3.06513e-05
-7.81001e-05
-0.00159169
-3.50306e-05
-3.04918e-05
0.000271462
-4.22354e-06
-1.0176e-05
-1.39245e-05
-3.43251e-05
-4.55389e-06
-0.000186003
1.01418e-05
-1.08355e-05
-0.000231785
1.66789e-05
-1.65973e-05
-0.000508702
1.84296e-05
-3.27975e-05
-0.000827565
2.30658e-05
-4.59336e-05
-0.00067569
1.62914e-05
-5.07625e-05
-0.000475562
1.45355e-05
-5.1326e-05
-0.000864073
4.17863e-05
-4.71697e-05
-0.00207282
3.59614e-05
-4.36845e-05
-0.00324599
1.85376e-05
-2.79779e-05
-0.00350015
-7.73159e-05
-8.18343e-06
-0.00379246
-0.0015602
-0.000157561
0.00322635
-0.000984444
9.44043e-05
0.00406535
-0.00168306
0.00013802
0.00265449
-0.000818671
6.14611e-06
0.00475026
-0.00105121
4.43715e-05
0.0044203
-0.00161725
1.48681e-05
0.00393461
-0.000703677
0.000217918
0.00515754
-0.00077845
1.98564e-06
0.00487083
-0.00105811
-7.09588e-05
0.00465558
-0.00142845
-1.34207e-05
0.00382764
-0.0002331
0.000688893
0.00587874
-0.000596827
0.000498763
0.00569832
-0.00076111
0.000337344
0.00545562
-0.00137725
0.000411033
0.00447155
-0.00157197
-2.43489e-06
0.00374339
3.11798e-05
0.0010697
0.0063099
-9.7569e-05
0.000925732
0.00640538
-0.000455072
0.000666953
0.00627492
-0.000727014
0.000395118
0.00588034
-0.00103186
-1.36763e-06
0.0065527
-0.00158947
8.41137e-05
0.00503482
-3.23792e-05
0.00119554
0.00759809
0.000133864
0.00109404
0.00755321
-1.56548e-05
0.00100766
0.00757223
-0.000352545
0.000885992
0.00718658
-0.000494599
0.000599567
0.00714676
-0.000546809
0.000223159
0.00611341
-0.00147475
5.85777e-05
0.0051064
0.000147807
0.000691057
0.00707894
9.29074e-05
0.000803661
0.00767543
0.000238937
0.000998158
0.00751873
-1.63793e-05
0.00121421
0.00757145
-0.000136331
0.00138226
0.0079225
-0.000491115
0.00111534
0.00849638
-0.000712277
0.00074587
0.00813585
-0.00149234
0.000144336
0.00418256
-0.000326565
0.000431829
0.00486968
-7.40974e-05
0.000512982
0.00528719
-1.54895e-05
0.00078335
0.00503376
-0.00012157
0.000882897
0.00464578
-0.000493493
0.000568164
0.00496945
-0.000424222
0.00114299
0.00592589
-0.000302944
0.00121931
0.00662738
-0.000271722
0.0010561
0.00692026
-0.00130228
0.000560136
0.00580287
5.98021e-05
0.000186477
0.00339662
-4.3751e-05
-6.7166e-05
0.00344969
-0.000129518
-0.000128732
0.00361264
-0.000153708
-6.38926e-05
0.00410546
-0.000293379
2.39001e-05
0.00371051
2.72443e-05
1.85753e-05
0.0036054
-3.77558e-05
-0.000110095
0.00373272
-0.000270005
4.58778e-05
0.00522312
-0.000479639
0.000428276
0.0071098
-0.000771032
0.000637806
0.0081012
1.45186e-05
0.000393997
0.00151369
9.26679e-05
0.000246423
0.00128618
0.000196865
0.000155779
0.000883792
0.000116758
0.000144208
0.000780865
9.15735e-05
0.000166528
0.00107598
4.46016e-05
0.000161805
0.00143217
2.37441e-05
0.000152642
0.000966143
-5.44103e-06
6.87762e-05
0.00104665
-0.000212558
-2.47952e-05
0.00294828
-0.000269698
-4.39722e-05
0.0046859
-0.000149523
-3.99319e-05
0.00626704
-0.000116335
0.000226695
0.00032525
-0.000139807
0.000154153
0.000603364
1.54968e-05
8.37738e-05
0.000458967
3.51505e-05
-2.09525e-06
-6.63811e-05
3.68279e-06
3.0263e-06
-9.00117e-05
1.93853e-05
-6.91956e-06
-0.000158538
2.86654e-05
-1.79439e-05
-0.000502152
4.21007e-05
-1.18679e-05
-0.000629953
0.000105694
-1.65156e-05
-0.00183361
-1.38938e-05
-4.30369e-05
-0.00258922
-7.37248e-05
-6.6808e-05
-0.00146311
-8.09607e-05
-1.53634e-05
0.00029047
-3.07843e-05
-1.247e-06
-0.000144106
-8.91338e-06
-6.49459e-06
-3.07049e-06
-3.52194e-05
-3.87358e-06
-0.000157745
1.36398e-05
-1.0309e-05
-0.000251713
9.15969e-06
-1.57081e-05
-0.000534951
1.03486e-05
-3.25699e-05
-0.000851278
1.63378e-05
-4.61745e-05
-0.000696616
6.02187e-06
-5.07229e-05
-0.000482186
5.38471e-06
-5.00141e-05
-0.000866613
2.99378e-05
-4.62067e-05
-0.00210024
2.09519e-05
-4.25284e-05
-0.00325239
-3.90678e-06
-2.78394e-05
-0.00347659
-9.72216e-05
-7.83177e-06
-0.00368741
-0.00167423
0.000224251
0.0024329
-0.000822903
-0.000237266
0.00382908
-0.00150756
-0.000172908
0.00322375
-0.000640472
4.93126e-05
0.00421338
-0.000943311
0.000101083
0.0039944
-0.00179891
6.38656e-05
0.00277228
-0.000808784
6.89608e-05
0.00466069
-0.000819621
2.68262e-05
0.00480897
-0.00114114
2.46188e-05
0.00449358
-0.00146496
-0.000114397
0.00408551
-0.000417607
0.000451748
0.00545691
-0.000794364
0.000197606
0.00515946
-0.000742616
9.11151e-06
0.00477227
-0.00109726
3.73352e-05
0.00432483
-0.0014221
6.57699e-05
0.003612
-6.72098e-05
0.000783558
0.0060751
-0.000308657
0.00064095
0.00594765
-0.000578411
0.000491765
0.00566724
-0.000860673
0.000323452
0.00567686
-0.00143821
0.000237115
0.00463835
-0.00160056
-6.53633e-05
0.00381984
2.84731e-05
0.00106758
0.00637521
2.3821e-06
0.000943334
0.00642378
-0.000204491
0.000826603
0.00643457
-0.000580327
0.000595052
0.00630277
-0.000696088
0.000296936
0.00578352
-0.000681271
0.000279734
0.00649154
-0.00157095
0.000150217
0.0049808
0.000239733
0.0011614
0.00751865
6.35977e-05
0.00107871
0.00764273
9.80744e-05
0.00105761
0.00764412
-0.000101925
0.00103859
0.00750517
-0.000304107
0.000858136
0.00709579
-0.000483816
0.000592415
0.0067702
-0.000614393
0.000370878
0.00570323
-0.0014257
6.67418e-05
0.00497302
-0.000132747
0.000849684
0.00604204
8.54001e-05
0.000911056
0.00681205
0.000276659
0.00083963
0.00754181
0.0001758
0.000973488
0.00746209
-3.38003e-05
0.00133509
0.00715892
-2.61882e-05
0.00120393
0.00743587
-0.000130698
0.000999749
0.00807026
-0.000361837
0.000723838
0.00764646
-0.00142296
7.5454e-05
0.00422778
-0.000101321
0.000467706
0.00456782
-0.000168671
0.00044611
0.00506147
-0.000126218
0.00048007
0.00558717
-4.75099e-05
0.00065352
0.00515694
-0.000205022
0.000562536
0.00456305
0.000126988
0.00113983
0.00487286
-5.43146e-05
0.000984835
0.00617693
-0.000172339
0.00102795
0.00655786
-0.00079182
0.00109332
0.00669926
-0.00114852
0.000588843
0.00559152
0.000164367
0.000330054
0.00370196
0.0001448
3.89769e-05
0.00323835
-3.75527e-06
-2.82412e-05
0.00354982
-0.000140701
-0.000101925
0.00390814
-0.000150892
2.12223e-05
0.0043506
-0.00026136
8.894e-05
0.00394611
-0.000510878
6.38379e-06
0.00402354
-0.000302871
1.3578e-05
0.00406245
-0.000284346
7.4627e-05
0.00564856
-0.000511787
0.00053519
0.00745451
-0.000836262
0.000630233
0.0081577
7.18968e-05
0.000456769
0.0013443
5.75849e-05
0.000361453
0.00120127
0.000172116
0.00026295
0.00102239
0.000182139
0.000200515
0.000680497
4.45381e-05
0.000216217
0.000690322
-3.23337e-06
0.000219487
0.00104092
1.58116e-05
0.000220802
0.00137686
-0.000114954
0.000192178
0.000999797
-0.000124038
9.96395e-05
0.00115195
-0.000334856
2.60934e-05
0.00319918
-0.000314985
1.66021e-05
0.00487063
-0.000200533
-1.89996e-05
0.00640561
-0.000121524
0.000262631
-0.000116566
-0.000111289
0.000205413
0.000376366
-0.000116978
0.000151024
0.000617872
4.91051e-05
6.99288e-05
0.000351477
5.05331e-06
9.66472e-06
-6.89132e-05
-2.59684e-05
2.32277e-05
-8.3842e-05
-1.80219e-05
7.73309e-06
-0.000149856
-1.88192e-05
-4.95622e-06
-0.000484223
-3.19771e-06
1.28225e-06
-0.000639168
5.35838e-05
-3.40053e-06
-0.00189689
-5.18779e-05
-3.5925e-05
-0.00254727
-0.000109947
-5.41889e-05
-0.00131824
-0.000130859
-7.7252e-06
0.000331834
-6.10618e-05
2.8913e-06
-0.0011123
-3.53603e-05
1.21107e-06
-0.000116451
-1.31744e-05
-4.34859e-06
1.05789e-05
-3.78219e-05
-3.49868e-06
-0.000126734
8.74619e-06
-1.0022e-05
-0.000266146
8.58393e-07
-1.50573e-05
-0.000553322
1.64538e-06
-3.2271e-05
-0.000866826
8.13025e-06
-4.63511e-05
-0.000709118
-2.85745e-06
-5.07384e-05
-0.000478605
-4.79023e-06
-4.88855e-05
-0.000859144
1.7142e-05
-4.50888e-05
-0.00211482
4.32209e-06
-4.28804e-05
-0.00324167
-1.49117e-05
-2.6074e-05
-0.00344343
-0.000119576
-7.22604e-06
-0.0035606
-0.00174686
-3.34781e-07
0.00242703
-0.0010561
0.000374707
0.00320319
-0.00160442
0.000109446
0.00242031
-0.000722996
-0.000117654
0.00398585
-0.000938037
-0.000193572
0.00384447
-0.00154591
-0.000204616
0.00317538
-0.000876217
0.000144938
0.00418243
-0.00074963
8.90983e-05
0.00415537
-0.001045
0.000121729
0.00384039
-0.00167148
7.20947e-05
0.00290671
-0.000606843
0.000286403
0.00478054
-0.000806755
4.1615e-05
0.0046583
-0.000746932
1.46076e-05
0.0048233
-0.00114346
-7.22818e-05
0.00449767
-0.00134179
-0.000124426
0.00412964
-0.000138041
0.000608145
0.00546873
-0.000395305
0.000409937
0.00533123
-0.000743086
0.000208002
0.00512524
-0.000685023
4.65829e-05
0.00458737
-0.00131081
0.000187214
0.00407598
-0.00139262
8.72378e-05
0.00331683
-7.84944e-05
0.000866621
0.0061362
-3.12555e-05
0.000716752
0.00603293
-0.00038214
0.000624541
0.00599252
-0.000691355
0.000442032
0.00565969
-0.00089574
0.000348789
0.00576483
-0.00129807
0.000137445
0.00505233
-0.00168483
-0.000159827
0.00409354
5.94308e-05
0.0011264
0.0063796
5.83389e-06
0.000947315
0.006429
-4.82952e-05
0.000981779
0.00641497
-0.000307795
0.000798313
0.00643718
-0.00056196
0.00056491
0.00629265
-0.00052634
0.000371424
0.00573436
-0.000557831
0.000400647
0.00618455
-0.00146326
0.000167499
0.00485086
8.34618e-05
0.00116483
0.00711594
0.000126109
0.00109426
0.00746239
5.90108e-05
0.00103921
0.00787878
8.82255e-05
0.00106915
0.00770113
-0.000161242
0.0010129
0.00747785
-0.00040558
0.000850311
0.00721728
-0.000439744
0.000698248
0.00675188
-0.000755606
0.00030522
0.00585852
-0.00131138
9.80729e-05
0.00476338
0.000103731
0.00104481
0.0053532
3.2853e-05
0.000967982
0.00578359
0.0001222
0.000978199
0.00642506
0.000342589
0.000871431
0.00725377
0.000255456
0.00107096
0.00726574
8.89465e-05
0.00116569
0.00723521
-0.000140093
0.00120281
0.00731859
-0.000125002
0.00107982
0.00766694
-0.000863635
0.000694052
0.00709968
-0.0014022
0.000101593
0.00437987
8.07062e-05
0.000544498
0.00469001
-0.000157402
0.000428286
0.00488784
-0.000170386
0.000431975
0.0052762
-0.000343942
0.000466426
0.0059775
-0.000366659
0.000553881
0.00538137
-0.000239278
0.000718444
0.00496236
-0.000575566
0.000455849
0.00546653
-0.000456878
0.00117494
0.00618395
-0.000253225
0.00105344
0.00656661
-0.000938096
0.00100183
0.00671259
-0.00115207
0.000603656
0.00530368
0.000349837
0.000478974
0.0035219
0.000290168
0.000204059
0.0033043
0.000218646
6.40506e-05
0.00309952
7.93162e-05
5.75838e-05
0.00349313
-0.000115549
7.88224e-05
0.00401062
-0.000191315
0.000112994
0.00451463
-0.00025941
9.63734e-05
0.00413134
-7.92304e-05
0.000111082
0.00389031
-0.000377029
2.70248e-05
0.00436305
-0.000515768
0.000222652
0.00614201
-0.000566553
0.000582549
0.00775376
-0.000874706
0.000606126
0.00822575
-8.94988e-05
0.000529903
0.00162092
5.45828e-05
0.000396264
0.00114362
5.25348e-05
0.000364328
0.000930382
0.000195414
0.00028806
0.000788538
6.55897e-05
0.000266638
0.000569539
-2.84418e-06
0.000274972
0.000611712
3.56095e-06
0.000259897
0.000980238
-9.48597e-05
0.000259387
0.00138569
-0.000216729
0.000235327
0.00107764
-0.000196683
0.000147387
0.00128092
-0.000370304
7.04482e-05
0.00346376
-0.000440997
5.02008e-05
0.00513248
-0.000268386
2.31313e-05
0.00652
-4.00474e-05
0.000192823
-0.000938648
-0.000165238
0.000241094
-2.23687e-05
-0.000115019
0.000205938
0.000423297
-0.000109008
0.000152948
0.000606039
3.70885e-05
7.12124e-05
0.000261587
-2.64155e-05
2.96559e-05
-4.80674e-05
-5.5857e-05
4.17537e-05
-6.03603e-05
-5.33319e-05
2.06349e-05
-0.000113985
-5.81679e-05
6.64907e-06
-0.000434279
-4.57782e-05
1.75667e-05
-0.000619148
-6.8387e-06
7.40464e-06
-0.00191624
-9.27141e-05
-2.85787e-05
-0.00247584
-0.000127507
-5.04051e-05
-0.00116297
-0.000207038
8.03469e-06
0.000411261
-6.71099e-05
-9.67667e-06
-0.000715217
-6.16561e-05
3.29614e-06
-0.00105273
-3.94551e-05
3.23505e-06
-8.45795e-05
-1.73435e-05
-2.32869e-06
2.67523e-05
-4.07744e-05
-3.23137e-06
-9.27498e-05
2.95622e-06
-1.01235e-05
-0.000274036
-6.71033e-06
-1.45558e-05
-0.000564327
-6.09274e-06
-3.22579e-05
-0.000874827
-3.19785e-07
-4.67207e-05
-0.000712816
-9.88934e-06
-5.09046e-05
-0.000466696
-1.3105e-05
-4.85205e-05
-0.000842607
3.09731e-06
-4.43013e-05
-0.00211649
-1.05296e-05
-3.94614e-05
-0.00321776
-3.36979e-05
-2.40745e-05
-0.00339289
-0.000140066
-8.665e-06
-0.00341187
-0.0017648
-2.70746e-06
0.00249317
-0.00128277
0.000176955
0.00294673
-0.00156729
-8.40271e-06
0.0023983
-0.000736561
0.000388345
0.00345774
-0.00117777
0.000417505
0.00313486
-0.00161001
6.29752e-05
0.00242143
-0.00104805
0.000101545
0.00386328
-0.000825266
-5.2731e-05
0.00392065
-0.00108048
-0.000163719
0.00383905
-0.00149252
-0.000185452
0.00318186
-0.000763571
0.000307097
0.00428497
-0.000849154
0.000148012
0.00416591
-0.000726116
0.000129961
0.00412633
-0.00116491
0.000142995
0.00379094
-0.0015176
0.000125288
0.00295723
-0.000403003
0.000539685
0.0048378
-0.000574517
0.00023447
0.0047669
-0.000724228
1.75662e-05
0.00463648
-0.00074799
1.81959e-05
0.00479579
-0.00126053
-9.83369e-05
0.0044213
-0.0013314
-9.72798e-05
0.00416569
-0.000280434
0.000735762
0.00566268
-0.000171884
0.000560102
0.00545919
-0.000461066
0.000386358
0.0052318
-0.000781853
0.000187575
0.00507475
-0.000792587
0.000111307
0.00456013
-0.00143687
0.000202835
0.0040992
-0.00152557
9.30756e-05
0.0030645
-6.97293e-05
0.00097349
0.00612791
-0.000144272
0.000801545
0.00620152
-0.000146871
0.000751583
0.00600447
-0.000385261
0.000574956
0.00593706
-0.000622093
0.000417734
0.00565088
-0.000625015
0.00033902
0.00566194
-0.00130145
3.24411e-05
0.00560368
-0.00148141
-7.38584e-05
0.00418554
6.59027e-05
0.00117059
0.00634136
6.08343e-06
0.00105719
0.00638975
1.17363e-05
0.00101191
0.00644614
-9.44282e-05
0.000927718
0.00646822
-0.00033557
0.000793142
0.00638327
-0.000706824
0.000575944
0.00638937
-0.000551642
0.000444783
0.00580212
-0.000538755
0.000281287
0.00585391
-0.00130993
0.000221734
0.00462768
0.000140788
0.00121362
0.00691232
0.000113974
0.00110873
0.00702035
0.000104116
0.00105993
0.00745976
0.000167993
0.00106215
0.00806037
0.000148511
0.00108509
0.00773589
-0.000111203
0.00100636
0.00752195
-0.000405208
0.000873161
0.00730748
-0.000670541
0.000668227
0.00693441
-0.000902212
0.000211447
0.00578372
-0.00147068
0.000148668
0.00468319
0.000172419
0.00104776
0.00541876
-0.000326768
0.000928849
0.0055617
8.79385e-05
0.000991478
0.00551199
-8.59474e-05
0.000928797
0.0061097
2.12421e-05
0.000936273
0.00700055
9.50137e-05
0.00105775
0.0070394
8.23224e-05
0.00118914
0.00659099
-0.00030034
0.00120398
0.00703789
-0.000348461
0.0012133
0.00724293
-0.000999522
0.000653208
0.00660949
-0.00138128
0.000187143
0.00442193
0.000219859
0.000680898
0.00508102
0.000162498
0.000471138
0.00477483
3.85565e-05
0.000416281
0.00508363
-0.00012427
0.000429083
0.00551713
-5.10652e-05
0.000426672
0.00604023
-0.000361705
0.000526667
0.00574353
-0.000414115
0.00044745
0.00512546
6.25339e-05
0.0009137
0.005586
-0.000336642
0.000972657
0.00622435
-0.000469567
0.00100209
0.00652015
-0.0011543
0.000913977
0.00699002
-0.00120407
0.00052253
0.00511052
3.32126e-05
0.000476895
0.00410014
0.000306823
0.000377525
0.00309619
0.000295668
0.000211599
0.00291361
0.00021463
0.000191648
0.00294624
2.64546e-05
0.000212473
0.00339861
-6.43234e-05
0.000150997
0.0040341
-2.5531e-05
0.000139603
0.00450049
-0.000310741
0.000239347
0.00421896
-0.000634037
0.000183425
0.00415122
-0.000487333
0.00015002
0.00472633
-0.000598946
0.000322744
0.00663045
-0.00085283
0.000574758
0.00819696
-0.00103242
0.000621693
0.00836809
1.87576e-05
0.000564427
0.0013122
-0.000123408
0.000486016
0.00148933
-5.33469e-05
0.00039559
0.00105068
1.10393e-05
0.000371872
0.000726523
0.00016872
0.000339221
0.000584323
1.12241e-05
0.000322701
0.000484171
-7.17836e-05
0.000315195
0.000572341
-0.000167499
0.000290959
0.00106283
-0.000193959
0.000292403
0.00146441
-0.000284267
0.000271034
0.00119248
-0.000328828
0.000164136
0.00150922
-0.000346523
0.000129829
0.00363794
-0.000367617
0.00011208
0.00528364
-0.000383299
7.25923e-05
0.00662367
-5.19389e-05
0.000103651
-0.000743382
-4.51884e-05
0.000171723
-0.000885745
-0.000184176
0.000243078
8.52122e-05
-0.000117092
0.000208278
0.000467717
-0.000105099
0.000158842
0.000582734
1.83383e-07
8.24613e-05
0.000211555
-5.67896e-05
5.37817e-05
-1.00161e-05
-8.39529e-05
5.76387e-05
-1.95038e-05
-7.7823e-05
3.07819e-05
-6.06144e-05
-9.65051e-05
1.82282e-05
-0.000348325
-8.66716e-05
2.85605e-05
-0.000566737
-4.04083e-05
1.82325e-05
-0.00191955
-0.000131395
-1.96962e-05
-0.00238569
-0.000164536
-3.87892e-05
-0.000985307
-0.000281577
2.1821e-05
0.00053095
-3.4447e-05
-3.11488e-05
-0.000648982
-6.56208e-05
-8.91146e-06
-0.000637388
-6.77853e-05
4.01341e-06
-0.000985725
-4.13554e-05
5.23273e-06
-5.07856e-05
-2.35494e-05
-4.62635e-07
4.7533e-05
-3.98868e-05
-3.16092e-06
-5.98256e-05
-3.77326e-06
-1.0254e-05
-0.000274564
-1.39155e-05
-1.41362e-05
-0.000568533
-1.3731e-05
-3.18885e-05
-0.000875928
-7.9963e-06
-4.75113e-05
-0.000708213
-1.93227e-05
-5.18213e-05
-0.000444073
-2.15764e-05
-4.86613e-05
-0.000816671
-1.14626e-05
-4.25557e-05
-0.00210194
-2.56483e-05
-3.74902e-05
-0.00317869
-4.82947e-05
-2.47756e-05
-0.00332848