/*--------------------------------*- C++ -*----------------------------------*\
  =========                 |
  \\      /  F ield         | OpenFOAM: The Open Source CFD Toolbox
   \\    /   O peration     | Website:  https://openfoam.org
    \\  /    A nd           | Version:  7
     \\/     M anipulation  |
\*---------------------------------------------------------------------------*/
FoamFile
{
    version     2.0;
    format      ascii;
    class       volScalarField;
    location    "8";
    object      p;
}
// * * * * * * * * * * * * * * * * * * * * * * * * * * * * * * * * * * * * * //

dimensions      [0 2 -2 0 0 0 0];

internalField   nonuniform List<scalar> 
18750
(
-70.8345
-71.1165
-70.4669
-70.8579
-69.2439
-70.5144
-70.6865
-70.7496
-70.4744
-70.8887
-61.9962
-68.5331
-68.2219
-70.0252
-70.2882
-70.3023
-70.7203
-70.7668
-70.4947
-70.9592
-59.6171
-65.629
-61.6163
-68.1257
-67.5292
-67.5091
-69.4519
-69.9694
-70.1165
-69.991
-70.5095
-70.7241
-70.7835
-70.5219
-71.0746
-57.6629
-63.0073
-59.3314
-66.457
-64.5636
-61.1392
-67.0571
-67.5746
-66.8243
-66.9206
-69.5147
-69.4721
-69.9319
-70.0014
-69.79
-70.4697
-70.4993
-70.7359
-70.7759
-70.5605
-71.1486
-53.7159
-58.0166
-57.4211
-62.8269
-62.5259
-59.0144
-65.747
-65.6818
-63.6891
-60.6898
-67.0253
-66.594
-67.2424
-66.4174
-66.3501
-69.5726
-69.6141
-69.5225
-69.9308
-69.9241
-69.7414
-70.7127
-70.4565
-70.4997
-70.7695
-70.7763
-70.6148
-71.2032
-52.0393
-54.0073
-53.9854
-59.0022
-58.0132
-57.2639
-62.7174
-61.8688
-61.99
-58.3788
-64.3814
-65.8648
-64.7735
-63.1354
-60.6127
-68.3482
-67.2358
-66.7211
-67.051
-66.0555
-66.0063
-69.7923
-69.669
-69.7371
-69.5926
-69.9778
-69.9035
-69.8234
-70.6971
-70.7059
-70.4482
-70.5041
-70.8196
-70.8162
-70.6883
-71.2545
-50.7905
-51.9545
-52.0327
-54.1594
-54.4129
-54.2487
-58.7995
-58.5521
-58.1321
-57.1855
-62.5234
-62.2891
-61.3399
-61.8542
-57.8803
-65.0063
-63.8521
-66.1607
-64.4045
-62.6329
-60.6935
-68.3945
-68.5611
-67.1531
-66.9641
-66.8843
-65.8055
-65.9088
-70.0458
-69.9407
-69.7787
-69.8862
-69.7042
-70.0352
-69.9657
-70.0103
-70.4813
-70.7153
-70.7098
-70.4514
-70.5069
-70.8752
-70.8965
-70.7732
-71.3155
-49.2547
-50.5796
-50.8559
-52.0619
-52.2285
-52.0938
-54.5083
-54.8132
-54.6623
-54.3999
-58.7244
-58.8373
-58.281
-58.172
-57.0531
-62.3437
-62.3178
-61.7139
-60.7974
-61.6714
-57.2771
-65.3799
-65.4084
-65.191
-64.8808
-64.1125
-62.451
-60.6946
-69.0718
-68.6569
-68.8499
-67.4658
-67.2058
-66.9267
-65.6756
-65.9275
-69.6716
-70.1457
-70.0829
-69.8695
-70.0471
-69.8442
-70.1295
-70.0571
-70.2895
-70.0026
-70.5027
-70.7412
-70.7215
-70.4651
-70.5161
-70.9108
-70.9672
-70.8599
-71.3939
-48.3347
-49.2693
-49.3641
-50.624
-50.8173
-50.7876
-52.318
-52.2292
-52.3943
-52.0559
-55.2854
-54.822
-54.8352
-54.6676
-54.4916
-58.7935
-58.5074
-58.723
-58.3887
-58.366
-56.9655
-62.9353
-62.3542
-62.203
-61.2056
-60.9033
-61.5918
-56.5565
-65.5651
-65.7663
-65.8331
-66.4636
-64.6349
-64.1221
-62.2271
-60.8432
-68.5802
-68.9913
-68.8154
-68.9753
-67.9152
-67.3998
-67.1697
-65.8599
-66.1633
-69.0481
-69.7549
-70.1342
-70.1551
-69.9276
-70.2075
-70.0171
-70.2673
-70.2631
-70.6355
-69.4641
-70.0336
-70.5309
-70.7741
-70.7388
-70.4887
-70.5361
-70.9661
-71.016
-70.9277
-71.4634
-47.8454
-48.4186
-48.4
-49.4587
-49.3398
-49.3355
-50.7114
-50.8051
-50.8747
-50.8462
-52.712
-52.6936
-52.3053
-52.2861
-51.9007
-55.5438
-55.4347
-55.062
-55.0308
-54.6341
-54.3256
-59.0803
-58.5918
-58.492
-58.3556
-58.4529
-58.7025
-56.91
-63.3102
-63.1085
-62.6134
-62.1156
-61.4206
-61.2094
-61.3215
-56.3038
-66.3614
-65.9469
-65.854
-66.2307
-66.1413
-65.1721
-64.1738
-61.7488
-60.8915
-68.021
-68.4558
-68.9156
-68.863
-69.0255
-68.2195
-67.6909
-67.4983
-66.7062
-66.6752
-68.9069
-69.1982
-69.9324
-70.161
-70.2179
-70.0414
-70.3659
-70.2001
-70.4353
-70.4141
-71.0506
-69.5376
-69.5699
-70.083
-70.5692
-70.8196
-70.7643
-70.5246
-70.5702
-71.0482
-71.0701
-71.0129
-71.5335
-47.415
-47.895
-47.9064
-48.5054
-48.4983
-48.3755
-49.5085
-49.417
-49.4148
-49.3741
-50.8256
-50.7612
-50.8007
-50.9067
-51.0485
-52.8065
-52.8057
-52.4161
-52.1439
-52.216
-51.7303
-55.5225
-55.5052
-55.129
-55.3152
-55.1251
-54.7678
-54.3214
-59.8163
-59.094
-58.6943
-58.4434
-58.2999
-58.4906
-59.0907
-56.4196
-63.7787
-63.5822
-63.2019
-62.8868
-62.199
-61.7175
-61.3458
-61.2205
-56.0332
-66.9309
-66.5519
-66.2346
-65.9809
-66.6513
-66.4271
-65.6907
-64.4229
-61.5563
-61.133
-68.0386
-67.9953
-68.4223
-68.8694
-68.8372
-69.0321
-68.4425
-67.9557
-68.0123
-67.3744
-67.3593
-69.1038
-69.1232
-69.3221
-70.0756
-70.1723
-70.2167
-70.1513
-70.4932
-70.4019
-70.5953
-70.6645
-71.4708
-69.3597
-69.6269
-69.6532
-70.1389
-70.615
-70.8752
-70.8041
-70.5717
-70.6148
-71.1009
-71.1275
-71.105
-71.6014
-47.1157
-47.4861
-47.4371
-47.9192
-47.8705
-47.9239
-48.6114
-48.544
-48.486
-48.4556
-49.6056
-49.4951
-49.3741
-49.405
-49.4718
-50.9153
-50.6885
-50.7538
-50.7518
-50.813
-51.0488
-53.0941
-52.6795
-52.8076
-52.4568
-52.2467
-52.2902
-51.7235
-56.0246
-55.736
-55.6132
-55.2103
-55.265
-55.1755
-54.7779
-54.7091
-60.7159
-59.9298
-59.2915
-58.6183
-58.4191
-58.6954
-58.4729
-59.0324
-56.3727
-64.4572
-63.8568
-63.8259
-63.4047
-63.025
-62.5173
-61.9444
-61.3642
-60.5676
-55.9296
-67.383
-67.0292
-66.804
-66.3221
-66.0537
-66.5704
-67.1898
-65.9042
-64.8091
-62.0668
-61.6732
-68.5395
-68.2443
-68.0597
-68.3316
-68.7918
-68.8363
-69.0667
-68.6055
-68.1114
-68.6535
-67.3883
-68.1166
-69.3541
-69.3287
-69.349
-69.4699
-70.1682
-70.3104
-70.2469
-70.2672
-70.626
-70.6036
-70.7391
-70.9802
-71.9414
-68.809
-69.3775
-69.7039
-69.759
-70.2129
-70.666
-70.9457
-70.8556
-70.6269
-70.6689
-71.1417
-71.19
-71.1916
-71.6661
-46.703
-47.1958
-47.1207
-47.4922
-47.419
-47.3969
-47.9616
-48.0127
-47.8379
-47.9021
-48.6702
-48.6281
-48.5284
-48.4363
-48.4769
-49.5636
-49.6404
-49.5122
-49.3898
-49.4003
-49.3706
-51.2187
-51.0037
-51.1278
-50.7142
-50.7694
-50.7705
-51.0287
-53.4363
-53.0417
-52.8938
-52.6884
-52.3825
-51.7996
-52.2607
-51.713
-56.7497
-56.0273
-55.8741
-55.4928
-55.3691
-55.1527
-55.2704
-54.516
-54.8268
-61.3822
-60.8388
-60.0314
-59.2558
-58.6143
-58.4988
-58.8932
-57.9996
-58.436
-56.4959
-64.8122
-64.465
-64.0178
-63.81
-63.5411
-63.2138
-62.8428
-62.1605
-61.6912
-59.9568
-56.0712
-67.8152
-67.6553
-67.202
-66.9055
-66.4648
-66.158
-66.7689
-67.7521
-66.1501
-64.8112
-62.0349
-62.1305
-69.2523
-68.7628
-68.4173
-68.1726
-68.2327
-68.706
-68.7687
-69.0605
-68.7403
-68.3064
-69.2999
-68.1888
-68.7952
-69.6053
-69.6017
-69.5383
-69.5911
-69.6642
-70.2803
-70.4161
-70.3355
-70.4029
-70.7547
-70.7787
-70.9234
-71.281
-72.4898
-68.9202
-68.8711
-69.4326
-69.7772
-69.8751
-70.3024
-70.7502
-71.0153
-70.9184
-70.6887
-70.7361
-71.1938
-71.2563
-71.2729
-71.7124
-46.3748
-46.7134
-46.6815
-47.2366
-47.1859
-47.1149
-47.5088
-47.5122
-47.364
-47.3614
-48.0668
-47.987
-47.9734
-47.8282
-47.851
-48.8073
-48.7326
-48.6325
-48.5609
-48.4048
-48.4093
-49.9472
-49.828
-49.6951
-49.5211
-49.4229
-49.4131
-49.3954
-51.6035
-51.3788
-50.9925
-51.0817
-50.7601
-50.6075
-50.7266
-50.8313
-53.9407
-53.5353
-53.0501
-52.9608
-52.7074
-52.1756
-51.9735
-52.2287
-51.5559
-57.4278
-56.7751
-56.1034
-55.9339
-55.6855
-55.3377
-55.2785
-55.23
-55.027
-55.0365
-62.0906
-61.3957
-60.5213
-60.0358
-59.4018
-58.4633
-58.8146
-58.5358
-57.9017
-58.1729
-56.2422
-65.2785
-64.9733
-64.6853
-64.2455
-64.1219
-63.6211
-63.6702
-62.9616
-62.312
-61.9825
-59.1993
-56.2348
-68.1001
-68.1769
-67.8672
-67.4277
-67.0686
-66.8697
-66.4577
-67.2954
-68.1499
-66.559
-65.1492
-62.1808
-62.2869
-69.8772
-69.5938
-68.9953
-68.604
-68.2522
-68.1506
-68.5296
-68.5791
-68.9489
-69.0597
-68.7419
-70.1066
-69.4016
-69.9353
-70.0346
-69.7737
-69.895
-69.7303
-69.8387
-69.8647
-70.3363
-70.5027
-70.4344
-70.5117
-70.9041
-70.9618
-71.1234
-71.602
-73.0541
-69.5174
-68.9989
-68.9179
-69.4816
-69.8468
-69.9924
-70.406
-70.8872
-71.0935
-70.9879
-70.757
-70.8116
-71.2565
-71.3187
-71.3468
-71.7016
-46.3028
-46.4262
-46.4015
-46.8161
-46.744
-46.7312
-47.0698
-47.2054
-47.1845
-47.1287
-47.5339
-47.4742
-47.4566
-47.3404
-47.3298
-48.1727
-48.0719
-48.0011
-47.9147
-47.8609
-47.8635
-48.9398
-48.8278
-48.7517
-48.6836
-48.5019
-48.4051
-48.4872
-50.2339
-50.0554
-49.8443
-49.7349
-49.5353
-49.7511
-49.4139
-49.4098
-51.7525
-51.6601
-51.3929
-51.0906
-50.8939
-50.7781
-50.6954
-50.7131
-50.6678
-54.3495
-53.9097
-53.462
-53.1655
-52.6465
-52.4652
-51.9028
-52.1885
-52.3094
-51.7888
-57.9522
-57.6565
-56.8037
-56.3229
-56.0169
-55.904
-55.2382
-55.2643
-55.3597
-55.1897
-55.2617
-62.6253
-61.9799
-61.4021
-60.68
-60.1565
-59.1755
-58.6474
-58.9096
-58.799
-58.2947
-57.8367
-55.5114
-65.544
-65.2302
-65.3342
-64.8563
-64.5371
-64.2768
-64.2779
-64.54
-63.6318
-62.3431
-61.6542
-58.4752
-56.2757
-68.8948
-68.5036
-68.5266
-68.0605
-67.641
-67.4982
-67.3513
-66.7591
-67.6232
-68.7382
-66.7631
-65.7039
-63.2113
-63.3492
-70.4239
-70.2267
-69.8945
-69.2517
-68.8012
-68.3417
-68.2118
-68.367
-68.5008
-68.9077
-69.4191
-69.2629
-70.684
-69.9151
-71.2921
-70.7969
-70.2212
-69.9488
-70.0986
-69.9273
-70.0811
-70.1012
-70.5917
-70.658
-70.5093
-70.5701
-71.056
-71.141
-71.3165
-71.962
-73.6312
-70.03
-69.5333
-69.0624
-68.9645
-69.5177
-69.9183
-70.1141
-70.505
-71.0122
-71.1932
-71.0485
-70.8159
-70.8868
-71.3236
-71.3765
-71.4135
-71.6885
-46.0184
-46.3328
-46.3496
-46.4906
-46.3683
-46.3631
-46.8111
-46.8547
-46.7239
-46.6837
-47.1641
-47.0631
-47.1421
-47.2275
-47.0923
-47.5385
-47.5412
-47.4466
-47.3484
-47.3744
-47.3244
-48.1838
-48.0804
-48.1152
-47.9864
-47.9686
-47.8735
-47.9435
-49.1408
-48.9525
-48.8677
-48.7982
-48.6555
-48.5603
-48.5462
-48.5474
-50.458
-50.1874
-50.035
-49.8703
-49.7139
-49.5075
-49.6381
-49.4885
-49.4539
-52.1496
-51.8379
-51.626
-51.3117
-50.9886
-50.8731
-50.7115
-50.7205
-50.637
-50.677
-54.9723
-54.5464
-54.1668
-53.5664
-52.8555
-52.7866
-52.534
-52.6666
-52.0718
-52.2718
-51.8378
-58.6301
-57.9352
-57.6976
-56.9756
-56.2489
-55.9925
-55.6148
-55.5825
-54.9753
-55.348
-55.0363
-54.6751
-62.5439
-62.5565
-61.9863
-61.4735
-61.0116
-59.8085
-59.6206
-59.2147
-58.8596
-58.9017
-58.533
-57.0169
-54.6733
-66.3791
-65.701
-66.1247
-65.2818
-65.153
-64.9632
-65.2262
-64.4992
-65.14
-64.1086
-62.6338
-61.4379
-57.7165
-56.6944
-69.2593
-68.9662
-69.159
-69.0062
-68.2632
-67.8639
-67.8471
-67.5125
-66.8804
-67.9808
-69.5511
-67.508
-66.1435
-63.5122
-64.0448
-70.8295
-70.6196
-70.5584
-70.2467
-69.4727
-68.9741
-68.4691
-68.2386
-68.3974
-68.5894
-68.9622
-69.7707
-69.7106
-71.4635
-70.9112
-71.8294
-71.5407
-70.8839
-70.388
-70.1316
-70.3088
-70.1472
-70.2703
-70.3021
-70.8597
-70.83
-70.6151
-70.646
-71.2004
-71.3286
-71.5017
-72.3379
-74.2107
-70.0285
-70.0604
-69.543
-69.0928
-69.0183
-69.5576
-69.9775
-70.2333
-70.6013
-71.138
-71.307
-71.1064
-70.8618
-70.9511
-71.3987
-71.4308
-71.4738
-71.7121
-45.8485
-45.9943
-45.9813
-46.3256
-46.3209
-46.2528
-46.5209
-46.5503
-46.3356
-46.3607
-46.8342
-46.7399
-46.9506
-46.6548
-46.6581
-47.1343
-47.1988
-47.0605
-47.0951
-47.1794
-47.1271
-47.6175
-47.5177
-47.5448
-47.4745
-47.4186
-47.278
-47.3196
-48.3442
-48.2337
-48.1117
-48.1478
-47.9619
-47.9373
-47.9184
-47.8572
-49.3017
-49.0979
-49.0316
-48.8947
-48.7959
-48.6715
-48.5889
-48.6034
-48.4591
-50.6843
-50.5099
-50.2184
-50.0233
-49.8219
-49.7404
-49.56
-49.5908
-49.428
-49.4834
-52.4623
-52.2235
-51.9844
-51.6298
-51.2732
-50.9255
-50.9039
-50.7838
-50.5895
-50.5063
-50.1881
-55.1682
-54.9811
-54.6813
-54.1803
-53.2874
-53.4634
-52.6699
-52.5373
-52.533
-52.0435
-52.0482
-51.8735
-59.1084
-58.5539
-57.9965
-57.7462
-57.0561
-56.2511
-55.7521
-55.7083
-55.4696
-55.2351
-55.446
-55.0409
-54.651
-62.5645
-62.6396
-62.5331
-62.0627
-61.6941
-61.157
-60.8005
-59.7315
-59.7597
-59.1545
-58.6314
-58.222
-56.5413
-54.5101
-66.7344
-66.6372
-65.721
-66.7268
-65.7224
-65.4952
-65.183
-65.0266
-65.1396
-65.3865
-64.3664
-63.5661
-61.9122
-58.1054
-56.8837
-69.6881
-69.553
-69.3369
-69.5783
-69.3277
-68.5709
-68.1434
-67.9441
-67.7985
-67.3049
-68.5889
-70.3078
-66.8743
-65.5588
-62.8593
-64.045
-71.6137
-70.8978
-70.8215
-70.9078
-70.6333
-69.7848
-69.1763
-68.6535
-68.34
-68.6602
-68.7646
-69.0633
-70.0585
-70.1999
-72.1249
-72.1048
-73.0471
-72.1981
-71.6395
-70.9477
-70.5499
-70.3218
-70.5114
-70.3801
-70.4397
-70.4789
-71.0232
-70.9489
-70.713
-70.7367
-71.348
-71.5298
-71.6866
-72.7204
-74.7905
-69.1407
-70.0429
-70.0869
-69.542
-69.0956
-69.0542
-69.6078
-70.0211
-70.3496
-70.7083
-71.2608
-71.42
-71.1914
-70.9161
-71.0009
-71.4567
-71.4773
-71.5267
-71.6954
-45.7138
-45.8998
-45.8042
-45.9964
-46.0435
-45.9792
-46.2826
-46.2588
-46.3406
-46.3173
-46.5877
-46.4603
-46.4698
-46.326
-46.3954
-46.7937
-46.8385
-46.7836
-46.5449
-46.711
-46.6623
-47.2369
-47.128
-47.1469
-47.1228
-47.185
-47.1926
-47.12
-47.6964
-47.6494
-47.5666
-47.5345
-47.5186
-47.3775
-47.321
-47.2808
-48.4499
-48.3335
-48.2117
-48.1522
-48.1088
-47.9681
-47.9722
-47.8102
-47.9145
-49.4492
-49.2706
-49.1944
-49.0782
-48.8821
-48.7224
-48.683
-48.5814
-48.5305
-48.3603
-50.7419
-50.7245
-50.4132
-50.2233
-50.0624
-49.8022
-49.637
-49.505
-49.4915
-49.4078
-49.3185
-52.6683
-52.5794
-52.067
-51.9587
-51.5803
-51.2226
-51
-50.8397
-50.6856
-50.4468
-50.4422
-49.5865
-55.4121
-55.2675
-55.1098
-54.7897
-54.0284
-53.6649
-53.0706
-52.595
-52.2752
-52.2969
-52.1129
-52.1498
-52.0153
-59.3779
-59.0792
-58.6131
-58.1725
-57.7915
-57.055
-55.9769
-56.4745
-55.4758
-55.5228
-55.1667
-55.358
-54.982
-55.0624
-63.7696
-63.1564
-62.4661
-62.2795
-62.281
-61.873
-61.6878
-61.1219
-59.7144
-59.6673
-59.5379
-57.9924
-57.9801
-56.3618
-54.6685
-67.5164
-66.8497
-66.091
-66.3158
-66.2425
-66.1445
-65.8995
-65.3373
-65.3772
-65.0429
-65.8083
-65.2497
-63.766
-61.8342
-57.958
-57.7326
-70.3191
-69.7822
-69.8993
-69.7319
-69.7159
-69.4342
-68.8769
-68.3248
-68.094
-68.1356
-67.7078
-68.9739
-70.4435
-67.2089
-65.8881
-63.4675
-64.1577
-72.9667
-71.7525
-70.9868
-71.0787
-71.2931
-71.0222
-70.1814
-69.3767
-68.8133
-68.6376
-68.9582
-68.9792
-69.1626
-70.3257
-70.698
-72.7716
-73.192
-74.3831
-71.3114
-72.2438
-71.7214
-70.9965
-70.6654
-70.5152
-70.7052
-70.5991
-70.5692
-70.6005
-71.2297
-71.1075
-70.8204
-70.8302
-71.4711
-71.706
-71.8339
-73.13
-75.3384
-68.2011
-69.0959
-70.0415
-70.1067
-69.5304
-69.0988
-69.0771
-69.6659
-70.0616
-70.4725
-70.8213
-71.3763
-71.5215
-71.2883
-70.982
-71.0706
-71.4953
-71.516
-71.5681
-71.6687
-45.5912
-45.735
-45.7096
-45.8262
-45.8623
-45.7863
-46.0651
-46.0244
-46.0279
-45.9808
-46.2953
-46.2837
-45.9881
-46.368
-46.3081
-46.4925
-46.4904
-46.4962
-46.3889
-46.3516
-46.398
-46.8725
-46.791
-46.7577
-46.7481
-46.6805
-46.7425
-46.6477
-47.2377
-47.1774
-47.1819
-47.1594
-47.1217
-47.1673
-47.1974
-47.0529
-47.8341
-47.7353
-47.6255
-47.6131
-47.5047
-47.5096
-47.4147
-47.3118
-47.4001
-48.6128
-48.4963
-48.3519
-48.2393
-48.1528
-48.0696
-47.9622
-47.9138
-47.7462
-47.8874
-49.7328
-49.3896
-49.3006
-49.1798
-49.0496
-48.8821
-48.721
-48.6343
-48.4494
-48.4399
-48.2631
-51.0435
-50.8472
-50.7205
-50.4934
-50.156
-49.8854
-49.7902
-49.6017
-49.4187
-49.4
-49.3073
-49.2866
-52.7679
-52.7765
-52.5459
-52.1949
-52.1235
-51.6242
-51.163
-50.9775
-50.7972
-50.5561
-50.3282
-50.5481
-49.0866
-55.733
-55.4737
-55.2882
-55.0488
-54.6041
-54.101
-53.5655
-53.277
-52.4814
-52.3452
-52.176
-52.1403
-52.0436
-51.5371
-59.657
-59.434
-59.0523
-58.8759
-58.2363
-57.8735
-56.9494
-56.8751
-55.5712
-55.8501
-55.2898
-55.0297
-55.5639
-54.7845
-54.5946
-63.9794
-63.6178
-63.268
-62.5679
-62.279
-62.3443
-62.1536
-62.0256
-60.5229
-60.271
-59.941
-59.9958
-59.6119
-58.3272
-56.0682
-54.9251
-67.3651
-67.6632
-67.1752
-66.346
-66.8466
-66.6669
-66.3036
-66.126
-65.7184
-65.85
-65.4074
-66.3102
-64.3844
-62.6831
-61.659
-57.8592
-58.4069
-71.1144
-70.4292
-69.8343
-70.2555
-70.2956
-70.0465
-69.5605
-69.069
-68.4247
-68.1685
-68.2937
-68.2219
-69.2538
-70.3632
-67.9611
-66.4241
-64.2159
-64.6956
-72.7533
-72.9993
-71.8733
-71.052
-71.2899
-71.511
-71.3854
-70.5818
-69.6657
-69.0714
-68.9914
-69.2458
-69.1867
-69.3117
-70.5306
-71.1524
-73.5253
-74.4175
-75.5065
-70.1059
-71.2363
-72.2799
-71.7974
-71.0345
-70.7532
-70.6953
-70.8909
-70.7979
-70.6654
-70.7063
-71.4204
-71.3115
-70.9449
-70.9462
-71.6047
-71.8119
-71.9619
-73.5269
-75.8558
-67.8378
-68.1465
-69.0607
-70.0343
-70.1236
-69.5279
-69.1124
-69.0985
-69.7172
-70.0976
-70.588
-70.9398
-71.491
-71.6064
-71.3828
-71.0381
-71.1588
-71.5335
-71.5472
-71.5864
-71.6147
-45.5236
-45.5845
-45.5854
-45.7671
-45.7173
-45.7225
-45.861
-45.8959
-45.8159
-45.7921
-46.0709
-46.0185
-45.8994
-46.0144
-45.977
-46.2989
-46.2081
-46.1703
-46.4113
-46.2829
-46.2589
-46.5993
-46.5557
-46.4765
-46.4624
-46.3926
-46.286
-46.3788
-46.9316
-46.8164
-46.7939
-46.7605
-46.7256
-46.6779
-46.6968
-46.6086
-47.3778
-47.2789
-47.2094
-47.131
-47.1044
-47.1028
-47.0846
-47.1749
-46.9784
-47.956
-47.8184
-47.6998
-47.6468
-47.5373
-47.5116
-47.345
-47.3532
-47.3553
-47.0768
-48.7805
-48.718
-48.5121
-48.3187
-48.1671
-48.1706
-48.0657
-47.9052
-47.7683
-47.7752
-47.7302
-49.8538
-49.4888
-49.6036
-49.4122
-49.1777
-48.9366
-48.8214
-48.7061
-48.6221
-48.4254
-48.3778
-48.3239
-51.1978
-50.9745
-50.8775
-50.6393
-50.5092
-50.2193
-49.8739
-49.7233
-49.6236
-49.3131
-49.2447
-49.2192
-49.4144
-53.0338
-52.8714
-52.9833
-52.5297
-52.3519
-52.292
-51.6299
-51.0911
-50.8354
-50.7124
-50.4732
-50.0946
-50.5622
-49.1318
-55.869
-55.8282
-55.6566
-55.4604
-54.8514
-54.703
-54.1852
-53.7431
-53.2364
-52.5254
-52.2897
-52.1721
-52.1168
-51.6933
-51.2256
-59.7287
-59.8041
-59.481
-59.1659
-58.9543
-58.2577
-57.8249
-57.4968
-56.9151
-55.835
-55.7864
-54.9414
-55.3288
-55.455
-54.5004
-54.4379
-63.9485
-64.1057
-63.7435
-63.1644
-62.4828
-62.4239
-62.5188
-62.453
-61.7215
-61.0254
-60.7192
-60.414
-60.3377
-59.2927
-57.6785
-55.7936
-55.0886
-67.4613
-67.6072
-67.7534
-67.5067
-66.954
-67.0376
-67.058
-66.6395
-66.5545
-66.121
-66.242
-66.194
-66.3038
-65.0049
-62.5728
-61.5584
-58.1759
-58.568
-72.0092
-71.1971
-70.5123
-69.9007
-70.6903
-70.704
-70.5578
-69.7954
-69.2138
-68.538
-68.2432
-68.626
-68.6886
-69.5468
-70.0794
-68.3809
-66.909
-64.4939
-65.3028
-71.8049
-72.8733
-72.9542
-71.968
-71.134
-71.4245
-71.8843
-71.7114
-70.9595
-69.968
-69.3623
-69.3326
-69.5003
-69.3681
-69.4536
-70.5908
-71.5889
-74.0943
-75.705
-76.5505
-68.6938
-69.9362
-71.1309
-72.2864
-71.8584
-71.0627
-70.8236
-70.8577
-71.0567
-70.9474
-70.7965
-70.8595
-71.5797
-71.4965
-71.069
-71.0821
-71.7433
-71.9202
-72.0781
-73.9172
-76.3535
-67.4583
-67.7952
-68.1037
-69.0427
-70.0268
-70.1304
-69.5154
-69.1168
-69.119
-69.7635
-70.1262
-70.6844
-71.0437
-71.6063
-71.6774
-71.4645
-71.0857
-71.2284
-71.567
-71.5712
-71.606
-71.5334
-45.3735
-45.5509
-45.4716
-45.6114
-45.5766
-45.5618
-45.7555
-45.737
-45.734
-45.7245
-45.9374
-45.8511
-45.8693
-45.7883
-45.7647
-46.1705
-46.0124
-46.0104
-45.9899
-45.9934
-45.9367
-46.3719
-46.3076
-46.2804
-46.2681
-46.2525
-46.241
-46.2071
-46.6886
-46.6077
-46.507
-46.4843
-46.4004
-46.3656
-46.3107
-46.3416
-47.0252
-46.9635
-46.8596
-46.784
-46.7262
-46.5583
-46.7091
-46.6353
-46.5882
-47.4915
-47.3918
-47.2291
-47.2232
-47.1496
-47.0968
-47.1035
-47.0496
-47.1625
-46.9245
-48.0962
-47.9974
-47.8644
-47.7414
-47.6287
-47.6175
-47.4373
-47.3958
-47.3131
-47.3878
-47.1487
-48.8569
-48.8359
-48.7677
-48.503
-48.401
-48.3194
-48.1871
-47.9612
-47.9176
-47.7657
-47.7815
-47.7641
-50.0193
-49.7896
-49.6357
-49.6336
-49.4264
-49.2205
-48.9312
-48.7509
-48.6175
-48.5751
-48.4139
-48.3977
-48.2125
-51.1777
-51.2214
-51.1345
-51.0813
-50.9091
-50.5877
-50.1022
-49.8782
-49.6426
-49.3684
-49.1801
-49.1839
-49.1003
-49.366
-53.0297
-53.0201
-52.9442
-52.4547
-52.6098
-52.5531
-52.1618
-51.5808
-51.2172
-50.7719
-50.6753
-50.2626
-49.9717
-50.5037
-49.7768
-55.9798
-55.9821
-55.8617
-55.6063
-55.5065
-55.0502
-54.7403
-54.0376
-53.7438
-53.1241
-52.5051
-52.3177
-52.0726
-52.3435
-51.4396
-51.3089
-59.6823
-59.8653
-59.84
-59.6465
-59.4726
-59.0537
-58.6441
-57.8531
-57.6403
-56.7203
-56.4814
-55.5918
-56.0501
-55.4215
-55.1658
-54.4001
-54.3714
-63.8461
-63.919
-64.1324
-64.15
-63.1108
-62.4804
-62.4762
-62.6988
-62.8298
-62.1034
-61.6718
-60.4717
-60.621
-59.4174
-58.6124
-57.0461
-55.582
-55.0433
-66.2197
-67.5124
-67.8192
-67.9741
-67.7578
-67.3729
-67.3102
-67.2405
-66.7698
-66.7423
-66.527
-66.9331
-67.2148
-66.8297
-65.5618
-62.8697
-61.5781
-58.6358
-58.2345
-71.8494
-72.305
-71.1402
-70.5168
-70.0236
-71.0652
-71.5306
-71.0033
-69.9615
-69.3812
-68.6582
-68.386
-68.9016
-68.8256
-69.6951
-70.2122
-69.1013
-67.6769
-65.2168
-65.7232
-70.5936
-71.9923
-73.078
-72.9283
-72.03
-71.211
-71.6509
-72.1129
-72.0191
-71.2973
-70.2523
-69.6745
-69.6041
-69.7049
-69.5653
-69.6421
-70.8086
-72.0102
-74.9324
-76.9871
-77.5648
-67.9625
-68.5689
-69.7446
-71.0017
-72.2746
-71.8981
-71.0839
-70.8554
-70.9918
-71.2138
-71.0926
-70.9804
-71.0419
-71.7108
-71.673
-71.2119
-71.2059
-71.8579
-72.0147
-72.1357
-74.2334
-76.5777
-67.1558
-67.4413
-67.7566
-68.0601
-69.0109
-70.0105
-70.1269
-69.4937
-69.1149
-69.126
-69.8095
-70.1546
-70.7458
-71.1371
-71.6818
-71.7353
-71.5438
-71.131
-71.2856
-71.591
-71.5868
-71.6146
-71.4636
-45.3502
-45.373
-45.3766
-45.5502
-45.5293
-45.4892
-45.6556
-45.616
-45.5465
-45.5487
-45.7571
-45.7488
-45.7435
-45.7006
-45.6895
-46.014
-45.9278
-45.8952
-45.8606
-45.7384
-45.7091
-46.1682
-46.104
-46.0596
-46.0375
-45.9638
-46.0646
-45.9491
-46.4533
-46.3391
-46.2472
-46.2623
-46.2407
-46.2185
-46.273
-46.1526
-46.7461
-46.6492
-46.5729
-46.4988
-46.4695
-46.3714
-46.4446
-46.294
-46.3122
-47.0047
-47.0489
-46.9693
-46.8419
-46.7817
-46.7129
-46.7378
-46.7101
-46.6052
-46.591
-47.6952
-47.5962
-47.4061
-47.344
-47.21
-47.1632
-47.0396
-47.1367
-47.1383
-47.1137
-47.1081
-48.3101
-48.2889
-48.0157
-47.8626
-47.7984
-47.6453
-47.6013
-47.4734
-47.3956
-47.3463
-47.3217
-47.2441
-49.1723
-48.9921
-48.9546
-48.7644
-48.4878
-48.3976
-48.2608
-48.1937
-47.8744
-47.7908
-47.8465
-47.7674
-47.7394
-50.1826
-50.0029
-49.6821
-49.7652
-49.6374
-49.4222
-49.1478
-48.935
-48.6748
-48.5807
-48.4502
-48.4031
-48.4214
-48.1095
-51.3765
-51.3694
-51.367
-51.2047
-51.1104
-50.8083
-50.4345
-50.0663
-49.9225
-49.5775
-49.3368
-49.1217
-49.0672
-48.8972
-49.2673
-53.272
-53.142
-52.9006
-52.8449
-52.687
-52.7048
-52.5746
-51.9621
-51.5719
-51.1946
-50.7025
-50.5728
-50.2788
-49.8734
-50.5822
-49.7231
-56.0605
-56.1372
-56.0774
-55.8774
-55.5774
-55.4128
-55.0156
-54.8114
-54.0732
-53.5937
-52.7975
-52.5422
-52.393
-52.1393
-52.5882
-51.6274
-50.9796
-59.256
-59.7422
-60.058
-60.0191
-59.6636
-59.4109
-59.1099
-58.5737
-57.77
-57.4942
-56.7649
-56.4869
-56.1105
-55.8068
-55.0986
-54.9614
-54.2959
-54.1134
-63.3959
-63.8334
-64.0078
-64.4243
-64.0755
-63.5581
-62.4562
-62.5965
-63.1117
-63.2451
-62.5647
-62.0313
-60.8308
-60.2696
-59.7934
-58.4171
-57.0983
-55.5107
-54.7842
-65.3056
-66.1455
-67.5477
-68.072
-68.0807
-68.0166
-67.406
-67.7964
-67.2702
-66.8671
-66.8794
-66.9992
-67.6412
-67.9355
-67.1772
-65.4996
-62.1522
-61.5175
-59.075
-57.8773
-71.1606
-72.0834
-72.6265
-71.0737
-70.4741
-70.1322
-71.4402
-72.0459
-71.3607
-70.2936
-69.5388
-68.7449
-68.4709
-69.1125
-69.0433
-70.1209
-70.7942
-69.7365
-68.2518
-67.2051
-66.6501
-68.9649
-70.826
-72.3336
-73.3463
-72.891
-72.0611
-71.2499
-71.785
-72.2746
-72.303
-71.5582
-70.5218
-69.964
-69.9508
-69.8695
-69.7756
-69.8303
-71.0309
-72.4875
-75.414
-77.8173
-78.4241
-67.7705
-67.8769
-68.4626
-69.5235
-70.8413
-72.2421
-71.9223
-71.1077
-70.8651
-71.0908
-71.3468
-71.2361
-71.147
-71.2278
-71.8728
-71.8564
-71.3607
-71.3258
-71.9483
-72.0602
-72.1751
-74.3988
-76.6295
-66.9797
-67.1374
-67.4226
-67.7123
-68.0162
-68.9537
-69.9916
-70.1188
-69.4709
-69.1137
-69.1263
-69.8542
-70.1801
-70.8059
-71.2253
-71.7569
-71.803
-71.6327
-71.1847
-71.3344
-71.6056
-71.593
-71.6196
-71.3802
-45.2247
-45.3639
-45.3276
-45.3992
-45.3602
-45.3767
-45.5207
-45.518
-45.4886
-45.4932
-45.7047
-45.5943
-45.6147
-45.4897
-45.533
-45.8232
-45.7412
-45.7235
-45.7021
-45.6964
-45.6606
-45.9975
-45.953
-45.8948
-45.8886
-45.8146
-45.7131
-45.7123
-46.2338
-46.1426
-46.0416
-46.0694
-46.0184
-45.9491
-46.0624
-45.9614
-46.4961
-46.4486
-46.34
-46.2543
-46.2698
-46.2377
-46.1749
-46.1238
-46.149
-46.9132
-46.7536
-46.6968
-46.5744
-46.5039
-46.4494
-46.4982
-46.3022
-46.2681
-46.2934
-47.3052
-47.1392
-47.0533
-46.9595
-46.8339
-46.7938
-46.7148
-46.8824
-46.6811
-46.5467
-46.6311
-47.8089
-47.739
-47.5906
-47.382
-47.2924
-47.1475
-47.135
-47.1414
-47.0598
-47.1236
-47.0548
-47.1072
-48.4246
-48.3564
-48.2255
-48.1178
-47.7877
-47.754
-47.597
-47.4453
-47.4468
-47.295
-47.329
-47.2817
-47.2487
-49.2851
-49.1202
-49.0173
-48.8121
-48.7058
-48.5068
-48.3731
-48.2446
-47.9598
-47.9981
-47.7814
-47.7565
-47.7446
-47.7964
-50.2379
-50.1133
-49.9964
-49.9572
-49.7701
-49.5107
-49.3704
-49.0943
-48.9281
-48.7042
-48.5712
-48.4687
-48.259
-48.2628
-48.1407
-51.6037
-51.444
-51.4696
-51.2656
-51
-50.854
-50.5513
-50.5052
-50.1253
-49.8162
-49.5148
-49.3767
-49.205
-49.0224
-48.7809
-49.1947
-53.5553
-53.3826
-53.174
-53.0639
-52.7733
-52.8013
-52.6769
-52.3935
-51.9521
-51.5087
-50.9021
-50.7625
-50.4244
-50.2978
-49.7153
-50.372
-49.6822
-56.0835
-56.2823
-56.3306
-56.1439
-56.0243
-55.7636
-55.5129
-55.0408
-54.6958
-53.9383
-53.522
-53.1459
-52.5256
-52.4343
-52.1503
-52.5409
-51.3481
-50.7749
-58.9338
-59.4822
-59.9299
-59.9924
-60.0252
-59.6665
-59.5405
-59.1198
-58.6742
-58.0041
-57.39
-56.9941
-56.2413
-55.9397
-55.5273
-55.339
-54.4815
-54.0423
-53.4175
-62.6825
-63.4981
-63.8995
-64.2775
-64.3452
-64.0999
-63.6512
-62.6545
-62.867
-63.3848
-63.3883
-62.9956
-62.3601
-61.3017
-60.3789
-59.6774
-57.9768
-57.0035
-55.8216
-54.2462
-64.2213
-65.413
-66.417
-67.6167
-68.1592
-68.248
-68.2599
-68.2525
-68.1663
-67.4191
-67.0842
-67.0847
-67.3513
-67.7399
-68.3614
-67.4686
-65.6352
-62.3915
-61.3376
-59.3357
-57.9051
-69.4132
-71.3417
-72.3579
-72.8009
-71.0306
-70.4105
-70.2332
-71.6838
-71.9434
-71.3178
-70.5252
-69.6664
-68.8103
-68.6036
-69.2376
-69.2573
-70.6369
-70.9262
-70.7378
-68.8993
-68.7731
-67.4623
-67.354
-69.1294
-71.0296
-72.3028
-73.1901
-72.7238
-72.0784
-71.3385
-71.9348
-72.3642
-72.5373
-71.8203
-70.8604
-70.2061
-70.2351
-70.0899
-69.9639
-70.0013
-71.1881
-72.5757
-75.7534
-78.543
-78.4897
-67.3089
-67.7093
-67.8218
-68.3661
-69.2695
-70.6491
-72.1804
-71.932
-71.1262
-70.8459
-71.1647
-71.431
-71.3623
-71.318
-71.4215
-72.0726
-72.0369
-71.5085
-71.4497
-72.0253
-72.0759
-72.1887
-74.5096
-76.4935
-66.689
-66.9435
-67.1141
-67.3976
-67.6647
-67.9713
-68.8947
-69.9638
-70.1104
-69.4547
-69.1073
-69.1394
-69.8899
-70.2032
-70.8567
-71.3074
-71.814
-71.8711
-71.6816
-71.244
-71.3708
-71.6135
-71.5904
-71.6095
-71.2868
-45.2179
-45.1914
-45.3562
-45.3721
-45.2902
-45.463
-45.4003
-45.3871
-45.3275
-45.5778
-45.5018
-45.5327
-45.4959
-45.4484
-45.8054
-45.6617
-45.576
-45.5676
-45.5828
-45.513
-45.8875
-45.7757
-45.7308
-45.7367
-45.6991
-45.7093
-45.6815
-46.0657
-46.017
-45.9314
-45.9621
-45.8483
-45.8189
-45.6341
-45.6934
-46.3473
-46.2513
-46.1276
-46.0694
-46.0612
-45.9694
-45.9276
-45.9805
-45.9429
-46.7596
-46.5217
-46.452
-46.3508
-46.2791
-46.2773
-46.1706
-46.141
-46.1375
-46.1358
-46.994
-46.9623
-46.7687
-46.6803
-46.5853
-46.5236
-46.4557
-46.3884
-46.256
-46.2592
-46.3294
-47.4798
-47.301
-47.1512
-46.9787
-46.9487
-46.8267
-46.7909
-46.7656
-46.6942
-46.5788
-46.5388
-46.6443
-47.9384
-47.8893
-47.6945
-47.5656
-47.4725
-47.2755
-47.1643
-46.987
-47.096
-47.0233
-47.0285
-47.0157
-47.0972
-48.4916
-48.4229
-48.3875
-48.2082
-48.1223
-47.8347
-47.7326
-47.5697
-47.419
-47.3295
-47.3491
-47.2574
-47.2133
-47.1531
-49.3716
-49.2792
-49.1742
-49.0202
-48.7946
-48.6423
-48.5412
-48.3465
-48.1917
-47.9859
-47.9763
-47.8226
-47.7522
-47.6949
-47.7728
-50.206
-50.2615
-50.1575
-50.001
-49.881
-49.6778
-49.4165
-49.3162
-49.0783
-48.8482
-48.7481
-48.5614
-48.3978
-48.2036
-48.0395
-48.1685
-51.7976
-51.6381
-51.5726
-51.3713
-51.1626
-50.9973
-50.8241
-50.6029
-50.421
-50.0511
-49.6731
-49.5797
-49.2988
-49.0318
-48.966
-49.1792
-49.1837
-53.6458
-53.503
-53.336
-53.2942
-52.9644
-53.0662
-52.8922
-52.6676
-52.2191
-51.8095
-51.4282
-50.9057
-50.5955
-50.4667
-50.3587
-49.5903
-50.5371
-49.8244
-56.1679
-56.124
-56.2069
-56.2632
-56.1926
-55.9936
-55.7516
-55.4789
-55.2068
-54.6346
-53.8695
-53.4
-53.1112
-52.6033
-52.5161
-52.3194
-52.5495
-51.3651
-50.6339
-58.5914
-59.1079
-59.5571
-60.0053
-60.035
-60.0806
-59.9646
-59.6894
-59.1396
-58.7649
-58.1141
-57.4252
-56.9599
-56.413
-56.1164
-55.6426
-55.3603
-54.3028
-54.2381
-52.3441
-62.2545
-62.8072
-63.5028
-63.8522
-64.2323
-64.334
-64.2645
-63.5626
-62.5921
-63.1476
-63.4263
-63.5645
-63.3209
-62.6975
-61.4213
-60.2785
-58.8714
-58.0121
-56.7782
-55.708
-53.8248
-63.9131
-64.4671
-65.5281
-66.4825
-67.8575
-68.3825
-68.1144
-68.3588
-68.6375
-68.5057
-67.4408
-67.2171
-67.2821
-67.602
-68.2334
-68.7494
-67.8459
-66.0272
-62.7258
-61.3301
-60.6
-58.3903
-67.7892
-69.693
-71.4408
-72.4155
-72.5605
-70.9503
-70.2922
-70.3423
-71.7795
-72.1405
-71.5536
-70.76
-69.8498
-68.9432
-68.6763
-69.028
-69.4281
-70.9786
-71.4807
-71.3102
-69.2475
-69.373
-67.3893
-67.6944
-67.4611
-69.2239
-71.0475
-72.0014
-72.72
-72.5132
-72.0681
-71.4922
-72.0696
-72.4424
-72.7261
-72.1045
-71.2686
-70.4192
-70.4348
-70.3188
-70.1433
-70.1625
-71.2656
-72.6906
-75.8774
-79.2589
-78.0813
-66.9632
-67.2505
-67.6168
-67.7484
-68.2502
-69.0034
-70.4242
-72.0798
-71.9247
-71.1527
-70.8095
-71.2235
-71.4916
-71.4789
-71.4912
-71.5634
-72.2333
-72.1868
-71.6601
-71.5551
-72.0942
-72.0765
-72.1438
-74.3923
-76.1526
-66.6552
-66.5703
-66.9066
-67.0917
-67.3724
-67.6259
-67.9238
-68.8288
-69.9296
-70.0932
-69.434
-69.0941
-69.1535
-69.9199
-70.2308
-70.9051
-71.352
-71.8666
-71.9372
-71.7419
-71.301
-71.4017
-71.6142
-71.5816
-71.5899
-45.1882
-45.1323
-45.1823
-45.3379
-45.311
-45.2909
-45.2871
-45.3574
-45.4297
-45.3271
-45.3789
-45.288
-45.6215
-45.579
-45.4429
-45.4394
-45.4977
-45.4344
-45.7511
-45.6676
-45.6998
-45.5946
-45.5458
-45.5756
-45.536
-45.9399