/*--------------------------------*- C++ -*----------------------------------*\
  =========                 |
  \\      /  F ield         | OpenFOAM: The Open Source CFD Toolbox
   \\    /   O peration     | Website:  https://openfoam.org
    \\  /    A nd           | Version:  7
     \\/     M anipulation  |
\*---------------------------------------------------------------------------*/
FoamFile
{
    version     2.0;
    format      ascii;
    class       volVectorField;
    location    "8";
    object      U;
}
// * * * * * * * * * * * * * * * * * * * * * * * * * * * * * * * * * * * * * //

dimensions      [0 1 -1 0 0 0 0];

internalField   nonuniform List<vector> 
18750
(
(0.755178 0.63903 0.183186)
(-0.475364 -0.975303 0.45464)
(0.414866 -0.142481 -1.91603)
(0.68036 0.701253 0.161322)
(-3.96148 -1.21163 1.57817)
(-0.526144 -0.762127 0.0802949)
(-0.553781 -0.934436 0.489631)
(0.295025 0.227032 -2.70926)
(0.359858 -0.170998 -1.87688)
(0.585101 0.792117 0.108653)
(-5.16606 -1.35836 1.49566)
(-2.3657 -1.19692 1.80709)
(-3.79366 -1.57173 1.17561)
(-1.12971 -0.465487 0.0310534)
(-0.600292 -0.682203 -0.115913)
(-0.627156 -0.845244 0.509837)
(-0.59793 0.160472 -1.55699)
(0.291172 0.241882 -2.72939)
(0.304764 -0.202847 -1.83231)
(0.551882 0.834464 0.0734528)
(-3.76791 -2.24625 0.018549)
(-4.32484 -1.56692 2.19643)
(-4.9015 -1.41251 1.48077)
(-1.84425 -1.27778 2.27487)
(-2.44964 -0.95083 1.6585)
(-3.59674 -1.7807 1.00801)
(-1.76488 -0.195406 0.267166)
(-1.19641 -0.406444 -0.172891)
(-0.674851 -0.602128 -0.290437)
(-0.764264 -0.662407 0.439602)
(-1.05997 -0.121757 -1.48487)
(-0.593803 0.0788381 -1.63178)
(0.262843 0.258922 -2.73477)
(0.263372 -0.240814 -1.77885)
(0.485386 0.860903 0.0372503)
(-4.16241 -2.1825 0.0346336)
(-4.28715 -1.32443 1.83214)
(-3.55977 -2.31041 -0.0314729)
(-3.48763 -0.993979 2.5646)
(-4.21137 -1.42626 2.17968)
(-4.43692 -1.87234 1.06936)
(-2.41886 -0.544133 1.2)
(-1.86028 -1.2085 2.12506)
(-2.3577 -1.00879 1.67346)
(-3.45858 -1.88707 1.24905)
(-1.69295 0.515449 -0.804027)
(-1.82442 -0.104475 0.176224)
(-1.25937 -0.314934 -0.386963)
(-0.770291 -0.474087 -0.542758)
(-0.856729 -0.580083 0.380602)
(-0.943493 -0.0240646 -1.51945)
(-1.05115 -0.130351 -1.52541)
(-0.569036 0.0163261 -1.76769)
(0.245718 0.275848 -2.7323)
(0.229945 -0.283319 -1.71203)
(0.392477 0.918395 -0.0443797)
(-3.68898 -2.46858 0.183402)
(-5.00839 -1.75245 0.365923)
(-4.15496 -2.55877 -0.0861804)
(-4.27411 -0.998611 1.20579)
(-4.32545 -1.54613 1.76153)
(-3.52326 -2.45438 -0.384589)
(-2.80394 -0.0469576 2.21965)
(-3.61798 -0.88647 2.52963)
(-4.19027 -0.970616 2.11924)
(-4.18609 -1.94161 0.855203)
(-2.18731 0.714574 -2.10787)
(-2.50096 -0.512914 0.861313)
(-1.98092 -1.35462 1.53005)
(-2.31732 -1.05969 1.46274)
(-3.35093 -1.7911 1.59861)
(-1.4987 0.59065 -1.70764)
(-1.75596 0.521122 -0.813588)
(-1.87464 -0.00558406 0.0854453)
(-1.33077 -0.152594 -0.574427)
(-0.877737 -0.310466 -0.818527)
(-1.00391 -0.477316 0.235352)
(-1.03783 0.320892 -1.62171)
(-0.949947 -0.0274236 -1.53352)
(-1.03692 -0.135838 -1.56489)
(-0.547002 -0.0248666 -1.93924)
(0.245255 0.28284 -2.71767)
(0.209702 -0.327925 -1.62893)
(0.356155 0.949507 -0.109544)
(-2.56178 -2.73865 0.0205333)
(-4.40855 -1.48737 0.319763)
(-3.77093 -2.36766 0.342887)
(-5.282 -0.369578 0.705635)
(-4.98944 -1.90584 0.451248)
(-4.152 -2.72253 -0.166853)
(-4.17959 -0.92172 1.50505)
(-4.21632 -1.46819 1.22578)
(-4.30848 -0.995696 2.04465)
(-3.16545 -3.54276 -0.908746)
(-2.16042 0.67307 2.69873)
(-2.16315 0.0015114 3.37552)
(-3.49255 -0.656859 2.78585)
(-3.97852 -0.719841 2.33707)
(-4.05399 -1.80935 1.21564)
(-2.35952 1.13107 -1.95079)
(-2.62434 0.68703 -1.67887)
(-2.66138 -0.414202 0.533732)
(-2.08354 -1.10003 0.434828)
(-2.35186 -1.21153 1.01236)
(-3.25334 -1.54044 1.88797)
(-1.47288 1.13796 -1.71224)
(-1.46101 0.535463 -1.59935)
(-1.80783 0.540098 -0.869932)
(-1.91743 0.103513 -0.123341)
(-1.4103 0.0871588 -0.648643)
(-1.00096 -0.113706 -1.10357)
(-1.14899 -0.369496 0.0592515)
(-0.987005 0.59163 -1.75855)
(-1.01487 0.290273 -1.64172)
(-0.933503 -0.0330927 -1.55662)
(-1.00904 -0.138014 -1.61095)
(-0.517505 -0.0375767 -2.13992)
(0.251155 0.294529 -2.67643)
(0.201281 -0.36805 -1.53157)
(0.300615 0.967427 -0.183121)
(-2.87323 -1.93629 -0.143318)
(-3.73993 -1.64638 0.2465)
(-2.29835 -3.04967 0.106909)
(-4.9309 -0.263139 0.894368)
(-4.28922 -2.06643 0.234237)
(-3.73177 -2.44412 0.320944)
(-4.74331 -0.0605753 1.01254)
(-4.86354 -0.751988 0.996894)
(-4.97246 -1.9365 0.542809)
(-3.99335 -2.88508 -0.317468)
(-4.04218 -0.135503 1.55254)
(-4.1609 -1.62081 1.5213)
(-4.19694 -1.53393 1.58404)
(-4.17391 -0.351684 2.75323)
(-2.84237 -4.00356 -0.734872)
(-3.00487 0.807089 0.656146)
(-3.32108 0.455617 1.1219)
(-3.27704 0.359361 2.45356)
(-3.50041 -0.229168 2.89264)
(-3.73471 -0.118808 2.23106)
(-3.90719 -2.28823 1.04872)
(-2.61158 1.44328 -1.71273)
(-2.33916 1.14187 -1.97575)
(-2.66895 0.489904 -1.64518)
(-2.89268 -0.459307 0.340645)
(-2.14949 -0.904826 -0.161715)
(-2.39554 -1.27409 0.38949)
(-3.23831 -1.30002 1.53794)
(-1.3709 1.11692 -1.95707)
(-1.43848 1.08309 -1.54989)
(-1.43296 0.564729 -1.62016)
(-1.86346 0.560117 -0.942902)
(-1.9619 0.244535 -0.334281)
(-1.48457 0.345834 -0.698487)
(-1.13463 0.118678 -1.36733)
(-1.2915 -0.290659 -0.0809132)
(-1.06204 0.679149 -1.80038)
(-0.991545 0.638587 -1.75362)
(-0.994395 0.268638 -1.66008)
(-0.920005 -0.0451655 -1.5814)
(-0.988892 -0.137303 -1.65771)
(-0.497163 -0.0222876 -2.3539)
(0.23518 0.29696 -2.60935)
(0.200746 -0.394753 -1.42479)
(0.252103 0.985055 -0.269754)
(-2.89599 -1.4165 -0.0372687)
(-3.29055 -1.57363 -0.0757239)
(-2.64891 -2.21954 -0.112277)
(-4.0538 -0.623837 0.50925)
(-3.64512 -1.8577 0.28975)
(-2.15948 -3.13987 0.118156)
(-4.65299 0.0580141 1.24056)
(-4.75306 -0.750413 0.908407)
(-4.24653 -2.16598 0.175128)
(-3.77924 -2.41101 0.377149)
(-4.67825 -0.373362 0.885336)
(-4.46631 -0.48305 1.41409)
(-4.79078 -0.232546 1.37866)
(-4.86313 -1.5949 1.14849)
(-3.39756 -3.32976 -0.695605)
(-4.17802 0.159359 1.59432)
(-4.03184 -0.531999 1.84178)
(-4.24589 -0.755162 1.97583)
(-4.04624 -0.883023 2.28954)
(-3.9785 -0.0733166 2.74847)
(-2.92301 -3.72893 -0.421431)
(-3.48307 0.932541 0.0414781)
(-3.5317 1.04145 0.000179845)
(-2.53564 0.932929 2.75127)
(-3.07907 0.501317 2.59392)
(-3.52423 0.1064 2.66722)
(-3.56544 0.711907 1.37213)
(-4.1364 -1.44412 1.63624)
(-2.55781 0.975563 -1.18972)
(-2.56195 1.13715 -1.44916)
(-2.30867 0.912259 -1.57613)
(-2.70531 0.403299 -1.59936)
(-2.97193 -0.234407 -0.30744)
(-2.25811 -0.652016 -0.397542)
(-2.43811 -1.11575 -0.241898)
(-3.31162 -1.06921 0.449344)
(-1.66972 0.776979 -1.49886)
(-1.40925 1.07385 -1.85581)
(-1.42158 0.950064 -1.51262)
(-1.4332 0.616353 -1.57367)
(-1.91483 0.58097 -1.05699)
(-2.01202 0.407637 -0.584611)
(-1.53137 0.505693 -0.893968)
(-1.27889 0.303112 -1.58735)
(-1.42355 -0.251932 -0.136674)
(-1.39286 0.993318 -1.21331)
(-1.06842 0.716325 -1.81027)
(-0.988107 0.690526 -1.75678)
(-0.986569 0.250253 -1.67693)
(-0.908722 -0.0461235 -1.6147)
(-0.968197 -0.105466 -1.70686)
(-0.468503 0.0261841 -2.56573)
(0.243577 0.304729 -2.52835)
(0.207925 -0.402463 -1.3098)
(0.214431 0.993787 -0.337594)
(-2.24986 -1.58583 -0.00026996)
(-3.09888 -1.26418 -0.107624)
(-2.86722 -1.59346 -0.0652347)
(-3.64306 -0.633398 0.174958)
(-3.26564 -1.70981 -0.0499347)
(-2.25383 -2.51682 -0.21304)
(-4.18662 -0.28624 0.637573)
(-4.03616 -0.943191 0.412921)
(-3.48825 -2.05742 0.330498)
(-2.01362 -3.17471 0.164881)
(-4.50174 -0.0868988 1.54975)
(-4.54017 -0.72435 1.13081)
(-4.61499 -0.981376 0.941858)
(-4.05785 -2.4261 0.204127)
(-3.98414 -1.89254 0.434911)
(-4.6537 -0.634729 1.55065)
(-4.42966 -0.334931 1.37482)
(-4.4601 0.585362 1.63499)
(-4.5906 -0.378236 1.8939)
(-4.93099 -1.37882 1.59982)
(-2.93889 -3.46025 -0.747234)
(-4.29032 0.547073 1.75051)
(-4.19782 0.0623295 1.69315)
(-4.34013 -0.417599 1.80928)
(-4.17217 -0.605197 2.25874)
(-4.22319 -0.262035 2.40794)
(-3.93275 0.212419 2.4196)
(-2.47632 -3.89537 0.25841)
(-3.60159 0.808228 0.628965)
(-3.63736 0.731292 -0.244006)
(-3.76891 0.633692 0.599987)
(-3.72733 0.606042 1.48383)
(-3.1448 0.564405 2.5234)
(-3.30174 -0.0313964 1.9617)
(-3.37595 0.223941 1.12679)
(-4.3083 -1.56886 1.50284)
(-2.32961 -1.22157 0.80386)
(-2.38176 -0.241193 -0.295359)
(-2.40239 0.327845 -0.902443)
(-2.09945 -0.148568 -0.76922)
(-2.72791 0.311396 -1.40181)
(-2.98335 -0.13152 -0.545647)
(-2.36323 -0.472427 -0.733659)
(-2.59537 -1.29284 -0.582033)
(-3.32793 -1.03572 0.148651)
(-1.87851 1.04943 -1.28432)
(-1.72328 0.778649 -1.69602)
(-1.48414 1.04751 -1.74955)
(-1.43752 0.761806 -1.46403)
(-1.47485 0.553972 -1.47076)
(-1.88351 0.399776 -1.31761)
(-2.06073 0.534264 -0.907675)
(-1.52003 0.515965 -1.21289)
(-1.33509 0.421483 -1.70462)
(-1.53595 -0.277876 -0.132757)
(-1.07095 1.44123 -0.781972)
(-1.36615 1.00788 -1.24345)
(-1.04766 0.717989 -1.85148)
(-0.992754 0.742225 -1.77197)
(-0.982187 0.25159 -1.70481)
(-0.899328 -0.0257888 -1.66139)
(-0.957627 -0.0503878 -1.75405)
(-0.457504 0.101255 -2.75463)
(0.244563 0.301095 -2.4264)
(0.207856 -0.390644 -1.19146)
(0.176851 1.00396 -0.395849)
(-1.86463 -1.48142 0.128099)
(-2.78362 -1.0104 0.229859)
(-2.22163 -1.69041 -0.119215)
(-3.36083 -0.769385 0.0896634)
(-2.95425 -1.55249 -0.0857476)
(-2.8196 -1.55331 -0.0914487)
(-3.74429 -0.466616 0.367141)
(-3.60955 -0.875595 0.144876)
(-3.20786 -1.64673 0.0978356)
(-1.97088 -2.73285 -0.308747)
(-4.203 -0.294533 0.822991)
(-4.18493 -0.461645 0.613348)
(-3.96506 -1.08937 0.361463)
(-3.4359 -1.83936 0.429116)
(-2.10638 -2.99202 0.182105)
(-4.46492 -0.133196 1.45876)
(-4.45751 -0.180896 1.47607)
(-4.49992 -0.255816 1.27871)
(-4.66371 -1.32783 0.866232)
(-3.98281 -2.84054 -0.0697977)
(-3.7895 -2.01941 0.329227)
(-4.99962 -0.362177 1.71314)
(-4.60905 -0.0218351 1.52022)
(-4.3753 0.0150178 1.61009)
(-4.47389 -1.00596 1.54227)
(-4.53641 -0.491593 1.92618)
(-5.00498 -1.69367 1.76749)
(-2.31695 -3.60145 -0.519009)
(-4.11795 0.911038 2.15008)
(-4.37431 0.264539 1.83799)
(-4.3409 -0.139974 1.93085)
(-4.35492 -0.275486 2.07272)
(-4.42431 -0.44778 2.43732)
(-4.45318 0.409738 2.23875)
(-3.46081 -1.2899 2.28156)
(-2.43724 -3.94828 0.399076)
(-3.22856 0.967476 -0.143358)
(-3.57851 0.876199 0.864112)
(-3.51744 0.538454 -0.133544)
(-3.96037 0.304514 0.775469)
(-3.80907 0.418178 1.04914)
(-3.38167 0.213042 2.28872)
(-3.08135 0.163843 0.825762)
(-3.28694 -0.178421 1.05249)
(-4.33142 -1.5851 1.32198)
(-2.1754 -0.495222 1.23789)
(-2.11891 -1.40919 0.997258)
(-2.14139 -0.984577 0.248333)
(-2.1417 -0.747946 -0.243175)
(-1.81792 -1.02075 -0.242938)
(-2.64662 0.41589 -1.14205)
(-2.92816 -0.336179 -0.562736)
(-2.45136 -0.122239 -1.15716)
(-3.0575 0.150889 -1.56888)
(-3.42012 -1.29185 -0.129534)
(-1.51869 1.13243 -1.6009)
(-1.95121 0.834939 -1.41547)
(-1.93498 0.843128 -1.68312)
(-1.56931 0.89721 -1.67405)
(-1.44675 0.549478 -1.34744)
(-1.51036 0.427042 -1.33534)
(-1.81848 0.139633 -1.53136)
(-2.12756 0.58605 -1.24644)
(-1.44485 0.430593 -1.5175)
(-1.39521 0.448815 -1.65831)
(-1.57245 -0.341911 0.0214383)
(-0.648565 1.342 -1.27342)
(-1.10426 1.479 -0.755287)
(-1.37184 1.04417 -1.24657)
(-1.04008 0.695616 -1.90193)
(-0.999235 0.771246 -1.82303)
(-0.988813 0.278227 -1.74921)
(-0.895836 0.00369726 -1.72804)
(-0.961527 0.0208786 -1.80405)
(-0.467072 0.199394 -2.90938)
(0.244134 0.283532 -2.30842)
(0.193649 -0.352978 -1.06956)
(0.132967 1.0396 -0.417418)
(-1.71752 -1.43103 0.0840752)
(-2.35834 -1.14263 0.0474057)
(-1.75881 -1.63623 0.0947039)
(-3.00277 -0.835897 0.113303)
(-2.65717 -1.27758 0.218751)
(-2.17675 -1.73327 -0.0687767)
(-3.37004 -0.554108 0.299901)
(-3.35327 -0.775455 0.0842041)
(-2.78657 -1.66891 -0.0981007)
(-2.38505 -1.98843 -0.138363)
(-3.65767 -0.382233 0.616216)
(-3.68207 -0.749763 0.309122)
(-3.51637 -1.04964 0.0381572)
(-3.02368 -1.7848 0.0614641)
(-1.80048 -2.84311 -0.310179)
(-4.14363 -0.235997 1.10163)
(-4.26986 0.10652 1.05326)
(-4.08951 -0.592662 0.683826)
(-3.8394 -1.34005 0.168485)
(-3.13769 -2.11088 0.418193)
(-2.07068 -3.09022 0.290423)
(-4.51587 -0.0465204 1.5741)
(-4.44516 -0.220282 1.39483)
(-4.37813 -0.476895 1.39279)
(-4.57702 -0.630846 1.25022)
(-4.58964 -1.64677 0.83244)
(-4.05292 -2.9785 -0.358207)
(-3.68411 -2.43787 0.191824)
(-5.05626 -0.0394877 2.1369)
(-4.89998 -0.818515 1.70825)
(-4.5685 -0.84387 1.85005)
(-4.45789 -0.367014 1.76835)
(-4.28877 -0.191618 2.20698)
(-4.67452 -0.557913 1.96481)
(-5.21078 -1.44062 1.85666)
(-1.7965 -3.74235 -0.654559)
(-3.87905 0.707322 2.42059)
(-4.23031 0.337586 2.22082)
(-4.59032 -0.116628 1.50367)
(-4.70726 -0.333054 2.05325)
(-4.34654 -0.3119 2.42228)
(-4.55592 -0.39434 2.61051)
(-4.14921 -0.542831 2.17717)
(-3.07388 -2.04691 2.2933)
(-2.34485 -4.06676 0.501985)
(-2.65605 0.528258 -0.242805)
(-3.02235 0.92363 0.882505)
(-3.37927 0.760965 1.14176)
(-3.32049 0.0569008 0.839469)
(-3.98349 0.0969086 0.570802)
(-3.80645 0.310054 0.843172)
(-3.46909 0.564724 1.39903)
(-3.11394 -0.0556886 0.667664)
(-3.43478 -0.540422 0.989441)
(-4.1201 -2.15743 1.30671)
(-1.90474 0.878829 0.434864)
(-2.19962 -0.49407 1.20243)
(-2.00349 -1.51553 1.11855)
(-1.98557 -1.33373 0.457819)
(-2.01075 -1.17979 -0.0850239)
(-1.60431 -1.42468 -0.294117)
(-2.325 -0.564524 -0.734372)
(-2.71648 -0.631694 -0.42398)
(-2.51445 0.104294 -1.64601)
(-2.6876 -1.77166 -1.25647)
(-3.76381 -0.875499 -0.659974)
(-0.958324 1.24806 -1.22673)
(-1.57382 1.14411 -1.65133)
(-2.00765 0.708014 -1.47017)
(-2.01064 0.806077 -1.64397)
(-1.71075 0.787653 -1.51458)
(-1.48747 0.121721 -1.17133)
(-1.56858 0.354338 -1.15618)
(-1.77359 -0.0819518 -1.63902)
(-2.14684 0.547284 -1.61107)
(-1.30325 0.287037 -1.76565)
(-1.4487 0.393046 -1.4429)
(-1.59265 -0.376779 0.0735951)
(-0.00315789 1.13056 -1.02978)
(-0.659024 1.26436 -1.24787)
(-1.1004 1.56713 -0.69733)
(-1.35709 1.07319 -1.27573)
(-1.01433 0.636391 -1.97478)
(-1.0119 0.797558 -1.88549)
(-1.00862 0.314816 -1.81045)
(-0.903295 0.0515078 -1.80957)
(-0.987858 0.11192 -1.85143)
(-0.490621 0.306111 -3.01202)
(0.249135 0.252667 -2.18094)
(0.184346 -0.327789 -0.969549)
(0.0837166 1.0581 -0.453841)
(-1.71773 -1.4314 0.109982)
(-2.17893 -1.16857 0.123198)
(-1.64508 -1.48861 0.0177267)
(-2.69058 -0.64546 0.363868)
(-2.3332 -1.14862 0.0291106)
(-1.72564 -1.6389 0.0885285)
(-3.06819 -0.841117 0.15486)
(-2.95176 -1.05781 0.104309)
(-2.37107 -1.75169 0.254258)
(-2.09065 -1.84456 -0.00290814)
(-3.43886 -0.76945 0.51638)
(-3.34964 -0.678299 0.307176)
(-3.27769 -0.636128 0.099114)
(-2.84013 -1.53715 -0.0469439)
(-2.25197 -2.14484 -0.160202)
(-3.80889 -0.203942 0.838491)
(-3.78111 -0.60683 0.659782)
(-3.58433 -0.908862 0.330582)
(-3.23937 -1.39233 0.0988393)
(-2.82602 -1.97472 0.297899)
(-1.59433 -2.91921 -0.342447)
(-4.25913 -0.0668579 1.32618)
(-4.03424 -0.674587 0.917838)
(-4.24653 -0.982528 0.679915)
(-4.11854 -0.857304 0.684368)
(-3.7832 -1.48687 0.300001)
(-3.10999 -2.09197 0.638292)
(-2.13746 -3.1687 0.239224)
(-4.88873 -0.371158 1.39716)
(-4.49297 -0.290157 1.65581)
(-4.51245 0.0514005 1.5657)
(-4.41787 -0.754695 1.34533)
(-4.44823 -0.886532 1.2385)
(-4.61471 -1.39867 0.744839)
(-4.18541 -2.82413 -0.422133)
(-3.66085 -2.72457 0.20677)
(-4.90335 0.242754 2.52165)
(-5.11451 -0.0989658 2.2084)
(-4.92292 -0.940393 1.66649)
(-4.47571 -0.640804 2.01927)
(-4.44203 -0.101128 2.23737)
(-4.61359 -0.225511 2.24769)
(-4.79722 -1.16461 1.84401)
(-4.84107 -1.651 1.75404)
(-1.12591 -3.94384 -0.750356)
(-3.61889 0.666032 2.59136)
(-3.87948 0.560959 2.41847)
(-4.26792 0.0662818 2.16474)
(-4.45862 -0.261943 2.33063)
(-4.73956 -0.552742 2.45855)
(-4.50195 0.0763368 2.58539)
(-4.48237 0.305599 2.48204)
(-3.83628 -1.55184 2.19563)
(-2.74357 -2.55461 2.21826)
(-2.19136 -4.22815 0.496593)
(-2.2777 1.01278 -0.443528)
(-2.60348 0.319657 -0.167832)
(-3.07004 0.731005 0.798866)
(-3.13575 0.550272 1.22353)
(-3.27793 0.243708 0.840097)
(-3.81924 0.0568232 0.352381)
(-4.14818 0.264316 0.279931)
(-3.41597 0.188023 0.186514)
(-3.17863 -0.478032 0.239757)
(-3.72457 -0.715197 0.64149)
(-4.58295 -1.79048 1.3973)
(-1.41123 0.96312 0.00305774)
(-1.99788 0.838377 0.540428)
(-2.25111 -0.517755 1.14257)
(-1.84784 -1.7395 1.15812)
(-1.70214 -1.93326 0.72613)
(-1.65239 -1.88709 0.123509)
(-1.26576 -1.78897 -0.563896)
(-2.03011 -0.930561 -0.622912)
(-2.53809 -0.731218 -0.569869)
(-2.63021 0.188005 -1.95635)
(-2.73161 -1.08845 -1.58683)
(-3.54875 -1.82755 -0.711008)
(-0.235644 1.74672 -0.613205)
(-0.92996 1.0627 -1.06848)
(-1.55719 1.16404 -1.67197)
(-2.10461 0.839023 -1.42113)
(-2.09915 0.850704 -1.5754)
(-1.71696 0.375168 -1.81635)
(-1.53533 -0.0175167 -1.10035)
(-1.58582 0.235233 -1.05944)
(-1.76887 -0.144899 -1.69889)
(-2.06176 0.339039 -1.97468)
(-1.20818 0.22223 -1.89165)
(-1.566 0.446187 -1.08159)
(-1.5366 -0.499061 0.13169)
(0.612426 0.985954 -1.14533)
(0.000865062 1.24053 -0.989254)
(-0.657854 1.18089 -1.21022)
(-1.11723 1.67171 -0.680821)
(-1.33857 1.08411 -1.32642)
(-1.00526 0.609587 -2.03627)
(-1.00327 0.753929 -1.98728)
(-1.03995 0.36643 -1.88243)
(-0.927173 0.111852 -1.89753)
(-1.01902 0.217037 -1.9035)
(-0.512241 0.387602 -3.04103)
(0.258881 0.216843 -2.04717)
(0.189545 -0.302838 -0.887187)
(0.0538322 1.07721 -0.483961)
(-1.75652 -1.00845 -0.118823)
(-2.33406 -0.990763 0.0314627)
(-1.53246 -1.59709 0.167795)
(-2.47246 -0.697161 0.309617)
(-1.937 -1.38239 0.093148)
(-1.56073 -1.56652 -0.0114599)
(-2.77195 -0.695602 0.0218452)
(-2.66776 -0.638103 0.32061)
(-2.27781 -1.17512 -0.00875493)
(-1.69888 -1.6868 0.0522726)
(-3.14485 -0.674654 0.316879)
(-3.04991 -0.937437 0.148679)
(-2.94185 -1.03933 0.0986671)
(-2.15171 -2.09521 0.175606)
(-1.96788 -1.97586 -0.000102416)
(-3.43175 -0.583346 0.745106)
(-3.4186 -0.814939 0.535273)
(-3.22289 -0.95126 0.283978)
(-3.0231 -1.20173 0.23635)
(-2.83514 -1.67742 -0.161623)
(-2.09636 -2.24094 -0.14709)
(-3.93056 -0.576809 0.85821)
(-3.7658 -1.05488 0.672053)
(-3.78802 -0.920566 0.650972)
(-3.50327 -0.978024 0.479464)
(-3.33244 -1.12065 0.32511)
(-2.56672 -2.22876 0.571369)
(-1.33815 -3.04088 -0.266103)
(-4.22475 -0.153132 1.54202)
(-4.29073 -0.495765 1.32199)
(-4.14824 0.0233124 1.47229)
(-4.16956 -0.919716 0.778925)
(-4.09737 -1.00082 0.653206)
(-3.55793 -1.8969 0.295023)
(-3.11925 -2.17518 0.562594)
(-2.1741 -3.16311 0.1503)
(-4.9388 0.229343 1.96332)
(-4.79391 -0.237674 1.58422)
(-4.36115 -0.69709 1.78159)
(-4.2895 -0.417811 1.64595)
(-4.59068 -0.583235 1.42209)
(-4.30943 -1.06709 1.29008)
(-4.45271 -1.79262 0.790292)
(-4.20445 -3.04015 -0.359729)
(-3.59442 -2.80657 0.229669)
(-4.82481 0.568825 2.59591)
(-4.88941 0.147531 2.53718)
(-5.04114 -0.347249 2.22082)
(-4.96911 -0.730984 1.79767)
(-4.52721 -0.431232 2.21226)
(-4.38662 -0.42552 2.45905)
(-4.63621 -0.46457 2.20408)
(-4.58629 -1.4784 1.76682)
(-3.88371 -3.01938 1.8025)
(-0.638893 -4.09334 -0.661734)
(-3.28189 0.696757 2.46103)
(-3.5737 0.590778 2.6326)
(-3.8812 0.330748 2.52659)
(-4.18182 -0.164404 2.39325)
(-4.71293 -0.64244 2.26064)
(-4.72547 -0.518068 2.29362)
(-4.43451 -0.858823 2.71851)
(-4.12835 -1.07245 2.25878)
(-4.46423 -0.0491635 2.00878)
(-3.21645 -2.02914 2.43794)
(-2.13953 -4.34235 0.614371)
(-2.18194 1.12455 -0.745634)
(-2.4284 0.917516 -0.481291)
(-2.65277 0.257133 -0.180392)
(-3.02595 0.460078 0.128921)
(-3.09591 0.57976 0.257867)
(-3.21391 0.442199 0.255587)
(-3.74503 0.491085 0.373026)
(-4.13037 0.146503 -0.236356)
(-3.41365 0.146262 -0.170257)
(-2.83721 -1.25556 0.574131)
(-3.33078 -1.46992 0.73341)
(-4.70051 -2.31865 0.802771)
(-0.810754 1.61068 -0.204813)
(-1.45854 0.939303 0.217613)
(-2.04195 0.812786 0.659656)
(-2.29365 -0.481127 1.00226)
(-1.81573 -1.75359 1.1349)
(-1.53762 -2.06254 0.760903)
(-1.42971 -2.0233 0.142757)
(-1.09224 -1.81925 -0.767283)
(-1.97613 -0.792029 -0.759676)
(-2.45519 -0.534378 -0.866858)
(-2.51356 -0.0564759 -2.20655)
(-2.9787 -1.32487 -1.6316)
(-3.66372 -1.62109 -0.82714)
(0.437451 1.87702 -0.724647)
(-0.121846 1.70166 -0.77667)
(-0.886637 0.893881 -0.878997)
(-1.56971 1.0474 -1.66843)
(-2.20979 0.959686 -1.42301)
(-2.16909 0.375435 -1.91109)
(-2.04238 0.668303 -1.38169)
(-1.65688 -0.109071 -1.05213)
(-1.532 -0.0733738 -1.04729)
(-1.77932 -0.134703 -1.76165)
(-1.95603 0.196231 -2.18524)
(-1.17102 0.215679 -1.8517)
(-1.61108 0.443047 -0.937534)
(-1.46308 -0.569546 0.152465)
(0.78808 1.40929 -1.01798)
(0.64781 0.975543 -1.1169)
(0.0160191 1.28314 -0.995733)
(-0.656878 1.09007 -1.17288)
(-1.14499 1.75495 -0.768574)
(-1.3283 1.09664 -1.38425)
(-0.976053 0.642583 -2.09843)
(-0.980403 0.682253 -2.10331)
(-1.07675 0.427173 -1.96094)
(-0.961329 0.172968 -1.98973)
(-1.06025 0.318412 -1.97149)
(-0.495263 0.396364 -2.99465)
(0.272115 0.184365 -1.91253)
(0.194982 -0.278046 -0.81829)
(0.0208881 1.08375 -0.513183)
(-1.53488 -1.0261 -0.00688151)
(-2.0997 -0.813541 -0.0222753)
(-1.60261 -1.26182 -0.153693)
(-2.53206 -0.500832 0.174798)
(-2.15194 -1.14433 -0.0160307)
(-1.43471 -1.64838 0.156109)
(-2.54172 -0.462319 0.224846)
(-2.36918 -0.85615 0.321794)
(-1.86259 -1.49048 0.161926)
(-1.46102 -1.65328 -0.00501929)
(-2.86819 -1.01146 0.077378)
(-2.72767 -0.78111 0.0281142)
(-2.67585 -0.517119 0.242006)
(-2.11691 -1.3787 -0.0576471)
(-1.66313 -1.79847 -0.0231812)
(-3.12054 -0.588837 0.53956)
(-3.09436 -0.764416 0.280877)
(-2.99764 -1.01325 0.158644)
(-2.85502 -1.17746 0.165015)
(-2.11505 -2.16506 0.184063)
(-1.72935 -2.17464 0.0199367)
(-3.50048 -0.528433 0.692494)
(-3.41502 -0.694987 0.710509)
(-3.31837 -0.829659 0.556629)
(-3.09124 -1.22139 0.250238)
(-2.97459 -1.35739 0.239312)
(-2.61364 -2.14751 -0.242736)
(-1.91557 -2.3357 -0.107649)
(-3.9076 -0.308902 1.21702)
(-3.92364 -0.809154 0.847782)
(-3.7586 -1.1655 0.68993)
(-3.66909 -1.00648 0.709527)
(-3.54052 -0.922624 0.546563)
(-2.99894 -1.86144 0.0178688)
(-2.50535 -2.46547 0.458112)
(-1.1894 -3.14243 -0.155937)
(-4.49063 0.0182217 1.52792)
(-4.2006 -0.286901 1.63245)
(-4.24797 -0.572681 1.40914)
(-4.24718 -1.17433 1.01309)
(-4.18368 -0.925055 0.787199)
(-3.90644 -1.17589 0.67076)
(-3.60519 -2.13582 0.214685)
(-3.05957 -2.45951 0.34777)
(-2.17924 -3.28677 0.0865204)
(-5.00462 0.598502 2.0905)
(-4.89144 0.562862 2.10189)
(-4.70141 -0.898489 1.68575)
(-4.31727 -0.62696 1.89606)
(-4.29908 0.359461 1.96028)
(-4.4666 -1.07928 1.40971)
(-4.65297 -0.836621 1.42418)
(-4.25347 -2.20775 0.81063)
(-4.31318 -3.0456 -0.522331)
(-2.96499 -3.36951 0.181375)
(-4.75855 0.846016 2.56829)
(-4.75514 0.200115 2.7868)
(-4.72231 -0.184461 2.75723)
(-4.98939 -0.52491 2.28898)
(-4.84573 -0.893299 2.09481)
(-4.61394 -0.133558 2.34432)
(-4.57267 -0.376462 2.39986)
(-4.54222 -0.692781 2.13052)
(-4.59127 -1.52379 1.68351)
(-3.21455 -3.40104 1.97327)
(-0.125047 -4.11247 -0.325803)
(-3.30787 0.162968 2.38893)
(-3.34624 0.41673 2.53814)
(-3.60251 0.190147 2.76026)
(-3.91964 0.161925 2.57034)
(-4.35694 -0.162157 2.03738)
(-4.75082 -0.79029 2.1089)
(-4.86244 -0.436115 2.08939)
(-4.73152 -0.317687 2.09174)
(-4.25441 -0.80583 1.80274)
(-4.02261 -1.91496 2.33104)
(-2.89726 -2.75003 2.34432)
(-2.15823 -4.52768 0.746092)
(-1.85267 1.50198 -0.55291)
(-2.30085 1.07106 -0.887021)
(-2.57145 0.644434 -0.479697)
(-2.70059 0.141428 -0.339867)
(-2.82676 0.26051 -0.633314)
(-3.0558 0.678441 -0.231797)
(-2.99744 0.230067 -0.342348)
(-3.56563 0.242623 -0.0760371)
(-3.94378 0.116769 -0.969073)
(-3.38487 -0.301207 -0.446643)
(-2.95379 -1.39069 0.401791)
(-3.40234 -1.69645 0.638374)
(-4.11056 -3.17167 0.794101)
(-0.484435 1.86922 -0.19967)
(-0.965547 1.66657 -0.130871)
(-1.45922 1.01832 0.333157)
(-2.0918 0.585118 0.955831)
(-2.38513 -0.300362 0.693851)
(-1.81973 -1.61973 1.20823)
(-1.54675 -1.42915 0.364648)
(-1.4428 -1.54429 -0.16544)
(-1.05495 -1.69188 -0.930817)
(-1.9364 -0.750561 -0.894387)
(-2.39469 -0.372617 -1.08725)
(-2.5066 -0.172664 -2.01204)
(-3.00927 -1.53694 -1.54144)
(-4.22141 -1.39393 -0.963641)
(0.825009 1.47846 -0.94461)
(0.482765 1.79895 -0.753951)
(-0.14399 1.65003 -0.736727)
(-0.824588 0.775749 -0.676171)
(-1.56343 0.895995 -1.63223)
(-2.15059 0.538185 -1.71576)
(-2.40247 0.901998 -1.38482)
(-2.21959 0.904417 -1.12143)
(-1.75319 -0.054579 -1.06083)
(-1.49141 -0.260951 -1.04951)
(-1.73664 -0.133233 -1.87544)
(-1.94632 0.201842 -2.18206)
(-1.1815 0.244195 -1.63529)
(-1.60066 0.373512 -0.894646)
(-1.37679 -0.598762 0.147415)
(0.921139 1.2431 -1.2759)
(0.796781 1.38552 -1.04931)
(0.644207 0.984036 -1.09047)
(0.00737239 1.25783 -0.998879)
(-0.652828 1.0199 -1.11603)
(-1.16487 1.79195 -0.930784)
(-1.33005 1.11698 -1.44271)
(-0.964678 0.690876 -2.09105)
(-0.97603 0.745357 -2.12934)
(-1.1042 0.44737 -2.05091)
(-1.01503 0.240451 -2.07387)
(-1.10077 0.40069 -2.06869)
(-0.458314 0.377572 -2.90806)
(0.285297 0.159457 -1.78079)
(0.203256 -0.252899 -0.759299)
(-0.00935196 1.07835 -0.537962)
(-1.49589 -1.04157 0.0576548)
(-1.73262 -0.855603 0.00953511)
(-1.41638 -1.21018 -0.0504754)
(-2.33882 -0.397445 -0.326678)
(-2.10677 -0.928098 -0.0318818)
(-1.52061 -1.36969 -0.102954)
(-2.39212 -0.347975 -0.0398853)
(-2.42672 -0.637616 0.216695)
(-1.93932 -1.34321 -0.0206612)
(-1.30519 -1.70518 0.113023)
(-2.60925 -0.719176 0.0859823)
(-2.45166 -0.630121 0.284184)
(-2.27156 -0.98582 0.271314)
(-1.73349 -1.68774 0.0240265)
(-1.53847 -1.60655 -0.0249277)
(-2.95457 -0.40384 0.278542)
(-2.8808 -0.865741 0.0231825)
(-2.72582 -0.895985 0.0667494)
(-2.62557 -0.824274 0.17173)
(-1.97094 -1.57798 -0.0443761)
(-1.58107 -1.88674 -0.0493451)
(-3.17539 -0.385497 0.477002)
(-3.06383 -0.72387 0.527781)
(-2.96752 -1.05274 0.274442)
(-2.93085 -1.10552 0.157296)
(-2.70902 -1.46857 0.132615)
(-1.98811 -2.30239 0.213438)
(-1.4773 -2.37167 0.0331685)
(-3.53451 -0.322439 0.811506)
(-3.40962 -0.763071 0.641082)
(-3.27527 -0.720108 0.719942)
(-3.31048 -0.76808 0.587327)
(-3.0682 -1.37754 0.272578)
(-2.98151 -1.33286 0.305125)
(-2.50203 -2.31754 -0.136601)
(-1.73652 -2.43528 -0.157829)
(-4.05266 0.010412 1.17986)
(-3.87897 -0.454073 1.24775)
(-3.86301 -0.930328 0.914105)
(-3.74696 -1.19713 0.75753)
(-3.6654 -0.861743 0.772642)
(-3.48311 -1.3411 0.52943)
(-2.86399 -2.06749 0.28679)
(-2.3257 -2.72936 0.348156)
(-0.834632 -3.27042 -0.0178625)
(-4.75105 0.451219 1.62699)
(-4.56754 -0.616414 1.54096)
(-4.16451 -0.342687 1.75451)
(-4.1941 -0.694569 1.443)
(-4.17626 -1.40245 0.859835)
(-4.18335 -1.33463 0.754941)
(-3.85362 -1.65605 0.788282)
(-3.72605 -2.27909 0.391411)
(-2.9684 -2.74157 0.120053)
(-2.68743 -3.10402 0.0459108)
(-4.88298 0.729411 2.21228)
(-5.05165 0.35892 2.31394)
(-4.85461 -0.685174 2.16034)
(-4.60479 -0.825923 1.88198)
(-4.41833 -0.121676 2.03056)
(-4.51842 -0.75055 1.83913)
(-4.31253 -1.77205 1.36688)
(-4.34421 -2.19947 0.975996)
(-4.26552 -2.15939 0.769906)
(-4.2549 -2.84266 -0.304868)
(-2.30978 -3.87939 0.055689)
(-4.18339 0.512658 2.93965)
(-4.66523 0.430204 2.86964)
(-4.75348 0.0148571 2.93729)
(-4.76164 -0.455337 2.829)
(-5.01547 -0.0461715 2.28172)
(-4.84381 -0.478207 2.09924)
(-4.47005 -0.799705 2.32588)
(-4.59113 -1.02685 2.28653)
(-4.63573 -0.819779 2.22361)
(-4.44527 -2.15693 1.85524)
(-2.77033 -3.48469 1.63837)
(0.161145 -4.11786 -0.0952599)
(-3.3104 -0.0569659 2.20357)
(-3.4009 0.257132 1.97709)
(-3.52113 0.0996232 2.582)
(-3.57037 0.400461 2.66016)
(-3.96052 0.748503 1.97385)
(-4.4236 -0.091504 2.15624)
(-4.80179 -0.538485 1.87732)
(-5.06465 -0.997495 1.96325)
(-4.60376 -0.746307 1.90506)
(-4.28566 -0.871537 1.70428)
(-3.56171 -2.50567 2.33105)
(-2.34199 -3.43716 2.06339)
(-2.19 -4.83667 0.690881)
(-1.77238 1.1209 -0.103066)
(-2.13964 0.794698 -0.068362)
(-2.36752 1.10681 -0.917903)
(-2.67961 0.51614 -0.417795)
(-2.63127 0.247155 -0.452089)
(-2.61522 0.257537 -0.84872)
(-2.68944 -0.113852 -0.232686)
(-2.45815 -0.629294 -0.220559)
(-2.71835 -0.811025 -1.18469)
(-3.84777 -0.432247 -1.49667)
(-3.36991 -0.813511 -0.384144)
(-3.6548 -1.09502 -0.551778)
(-4.51612 -1.18239 0.251875)
(-4.01704 -3.73366 0.952259)
(-0.156982 1.50147 0.289405)
(-0.559404 1.76956 -0.174178)
(-1.00817 1.60019 -0.0253995)
(-1.5173 1.09657 0.355068)
(-2.09473 0.364051 1.22621)
(-2.30314 -0.440719 0.833764)
(-1.9075 -1.14062 0.961227)
(-1.74046 -0.911805 -0.0211598)
(-1.65389 -0.982065 -0.462404)
(-1.31052 -1.10823 -1.11671)
(-2.03203 -0.398106 -1.02667)
(-2.36142 -0.269497 -1.24404)
(-2.33298 -0.439051 -1.92559)
(-2.72046 -1.82553 -1.35677)
(-4.22259 -2.18531 -0.874427)
(-0.0179608 0.816546 -0.548748)
(0.830144 1.48475 -0.887586)
(0.50874 1.73864 -0.752309)
(-0.110949 1.58687 -0.654897)
(-0.750932 0.723675 -0.49812)
(-1.53518 0.710226 -1.37363)
(-2.11117 0.314086 -1.83622)
(-2.6014 1.14602 -1.12095)
(-2.28542 0.796524 -1.31882)
(-1.86557 0.0304382 -1.09798)
(-1.45023 -0.305896 -1.10496)
(-1.71308 -0.133446 -1.9022)
(-1.97133 0.262314 -2.08007)
(-1.16865 0.230496 -1.3923)
(-1.60294 0.3236 -0.770477)
(-1.1973 -0.714292 0.160912)
(0.742087 0.504717 -1.25837)
(0.893171 1.18157 -1.33387)
(0.796026 1.36821 -1.06115)
(0.689442 0.954674 -1.07739)
(0.040501 1.19873 -0.999547)
(-0.641216 0.975128 -1.03302)
(-1.17416 1.76878 -1.11967)
(-1.33512 1.14586 -1.49801)
(-0.981209 0.790953 -2.00294)
(-0.984941 0.797663 -2.07664)
(-1.10972 0.480321 -2.12911)
(-1.02907 0.249333 -2.16749)
(-1.13066 0.457201 -2.18383)
(-0.416468 0.362425 -2.7952)
(0.299213 0.13927 -1.65691)
(0.215059 -0.227628 -0.707347)
(-0.0204866 1.08377 -0.577025)
(-1.46222 -0.933372 -0.0604363)
(-1.72002 -1.00263 -0.0309051)
(-1.45626 -1.14441 0.109611)
(-2.03215 -0.5606 0.155539)
(-1.74799 -0.826306 0.0681692)
(-1.40226 -1.26482 0.000146691)
(-2.31549 -0.524709 0.0437633)
(-2.3079 -0.575945 -0.336693)
(-2.00097 -1.09714 0.00534593)
(-1.4592 -1.40874 -0.0895689)
(-2.37377 -0.77361 0.250782)
(-2.37459 -0.512299 -0.00710664)
(-2.38692 -0.494141 0.104567)
(-1.9021 -1.39574 -0.050763)
(-1.26302 -1.73163 0.153452)
(-2.69101 -0.517601 0.19945)
(-2.49897 -0.850789 0.11197)
(-2.45585 -0.803019 0.299643)
(-2.23453 -1.08141 0.271374)
(-1.56703 -1.83446 0.0626009)
(-1.37922 -1.76984 -0.0125395)
(-2.95941 -0.354693 0.274439)
(-2.81712 -0.751937 0.246863)
(-2.75143 -1.11727 0.136828)
(-2.71382 -1.06956 0.0822982)
(-2.56246 -1.09211 0.113409)
(-1.86928 -1.7542 0.0235777)
(-1.48843 -1.95531 -0.0581602)
(-3.18731 -0.376887 0.605616)
(-3.06339 -0.612551 0.5345)
(-2.94298 -1.01052 0.551647)
(-2.94762 -1.24174 0.251767)
(-2.8867 -1.23139 0.205453)
(-2.52086 -1.82645 0.136648)
(-1.83045 -2.44664 0.167999)
(-1.3599 -2.44061 0.0344937)