/*--------------------------------*- C++ -*----------------------------------*\
  =========                 |
  \\      /  F ield         | OpenFOAM: The Open Source CFD Toolbox
   \\    /   O peration     | Website:  https://openfoam.org
    \\  /    A nd           | Version:  7
     \\/     M anipulation  |
\*---------------------------------------------------------------------------*/
FoamFile
{
    version     2.0;
    format      ascii;
    class       volVectorField;
    location    "8";
    object      U_0;
}
// * * * * * * * * * * * * * * * * * * * * * * * * * * * * * * * * * * * * * //

dimensions      [0 1 -1 0 0 0 0];

internalField   nonuniform List<vector> 
18750
(
(0.749981 0.623761 0.197135)
(-0.492929 -0.964184 0.451749)
(0.413997 -0.138438 -1.91173)
(0.672785 0.692919 0.175928)
(-3.94672 -1.22412 1.55191)
(-0.545151 -0.742774 0.0629726)
(-0.573182 -0.916704 0.488843)
(0.298766 0.230896 -2.7181)
(0.358966 -0.167139 -1.8704)
(0.584524 0.778997 0.127018)
(-5.14247 -1.31494 1.52073)
(-2.37819 -1.12859 1.80419)
(-3.78097 -1.59384 1.1095)
(-1.13905 -0.447148 0.0120367)
(-0.614278 -0.665779 -0.121697)
(-0.647623 -0.819465 0.508383)
(-0.598484 0.159956 -1.5641)
(0.293917 0.245628 -2.73645)
(0.303922 -0.198807 -1.82408)
(0.546013 0.82904 0.0889557)
(-3.76713 -2.22576 0.0335679)
(-4.32765 -1.54619 2.17964)
(-4.86906 -1.41213 1.44741)
(-1.863 -1.25835 2.2721)
(-2.44973 -0.91152 1.65495)
(-3.59968 -1.75748 1.00966)
(-1.77313 -0.173626 0.250626)
(-1.20499 -0.381436 -0.195608)
(-0.69213 -0.578274 -0.306426)
(-0.784887 -0.631477 0.433755)
(-1.05798 -0.117852 -1.49364)
(-0.593365 0.0799044 -1.64462)
(0.264243 0.264394 -2.74089)
(0.262948 -0.237155 -1.76831)
(0.483009 0.858586 0.0527217)
(-4.17681 -2.17483 0.0297817)
(-4.28959 -1.26829 1.85193)
(-3.55601 -2.29329 -0.037907)
(-3.50273 -0.944485 2.58588)
(-4.21459 -1.34837 2.17344)
(-4.40134 -1.88991 1.01322)
(-2.44632 -0.526249 1.17959)
(-1.8818 -1.18897 2.08141)
(-2.35662 -0.985908 1.66144)
(-3.45833 -1.84717 1.31318)
(-1.69761 0.529422 -0.796346)
(-1.82994 -0.0719424 0.166335)
(-1.26849 -0.282417 -0.410617)
(-0.78749 -0.444946 -0.56453)
(-0.876681 -0.548518 0.369851)
(-0.943243 -0.0206278 -1.524)
(-1.04791 -0.125665 -1.53461)
(-0.567088 0.0200434 -1.78575)
(0.250423 0.279283 -2.73691)
(0.229839 -0.279883 -1.69915)
(0.393555 0.912641 -0.0232506)
(-3.70822 -2.43949 0.189382)
(-4.99641 -1.74012 0.370982)
(-4.16052 -2.56636 -0.101306)
(-4.27233 -0.963851 1.21368)
(-4.33882 -1.52577 1.76365)
(-3.52205 -2.48539 -0.436794)
(-2.80024 -0.00638812 2.25653)
(-3.6121 -0.836801 2.5562)
(-4.18192 -0.877159 2.13417)
(-4.17895 -1.88944 0.884717)
(-2.22834 0.721678 -2.08509)
(-2.53581 -0.487862 0.81335)
(-2.00343 -1.3316 1.43016)
(-2.32518 -1.0411 1.4036)
(-3.35656 -1.71697 1.66469)
(-1.49305 0.584885 -1.67801)
(-1.75911 0.538107 -0.814195)
(-1.8798 0.0313416 0.0665703)
(-1.33954 -0.112261 -0.588664)
(-0.895338 -0.275822 -0.842785)
(-1.02288 -0.443832 0.219182)
(-1.03437 0.318458 -1.62505)
(-0.949003 -0.0244293 -1.53838)
(-1.03484 -0.131544 -1.57331)
(-0.545884 -0.01928 -1.96003)
(0.248858 0.286436 -2.72002)
(0.21068 -0.32414 -1.61427)
(0.352552 0.949007 -0.0952399)
(-2.55937 -2.74782 0.0255188)
(-4.38956 -1.53241 0.307169)
(-3.79077 -2.34169 0.345868)
(-5.25396 -0.479194 0.687765)
(-4.98759 -1.87685 0.4701)
(-4.16057 -2.71132 -0.177796)
(-4.18377 -0.899534 1.53054)
(-4.21924 -1.49394 1.2624)
(-4.31329 -0.871692 2.10973)
(-3.12432 -3.62817 -0.907002)
(-2.18536 0.718013 2.74067)
(-2.21703 0.0838354 3.35667)
(-3.49905 -0.578729 2.80439)
(-3.96057 -0.628445 2.35485)
(-4.06209 -1.73856 1.25185)
(-2.35253 1.13548 -1.9934)
(-2.63136 0.703504 -1.67178)
(-2.68766 -0.391473 0.494121)
(-2.10758 -1.03912 0.282258)
(-2.36608 -1.19245 0.926537)
(-3.26157 -1.44831 1.89744)
(-1.46289 1.14257 -1.68156)
(-1.45643 0.540418 -1.59268)
(-1.81035 0.559558 -0.875428)
(-1.9209 0.141187 -0.152569)
(-1.41838 0.133532 -0.652576)
(-1.0183 -0.072668 -1.12881)
(-1.16541 -0.335272 0.046268)
(-0.985336 0.60364 -1.75604)
(-1.01341 0.28815 -1.64449)
(-0.932096 -0.0307213 -1.56176)
(-1.00428 -0.132887 -1.6215)
(-0.51513 -0.0288982 -2.16273)
(0.258176 0.299386 -2.67621)
(0.201666 -0.362721 -1.51574)
(0.305582 0.965862 -0.163843)
(-2.85863 -1.95046 -0.143207)
(-3.73877 -1.64186 0.251936)
(-2.304 -3.04892 0.112762)
(-4.92112 -0.251192 0.896004)
(-4.28592 -2.0759 0.228076)
(-3.75541 -2.41847 0.318652)
(-4.71771 -0.0569454 1.03264)
(-4.83354 -0.675656 1.06081)
(-4.96936 -1.8822 0.58745)
(-3.96584 -2.90436 -0.351693)
(-4.05225 -0.137254 1.57151)
(-4.17166 -1.54148 1.58633)
(-4.19368 -1.45471 1.6754)
(-4.16366 -0.26442 2.80692)
(-2.86038 -3.98806 -0.731067)
(-3.04985 0.87621 0.601991)
(-3.38973 0.479777 1.04715)
(-3.28734 0.404254 2.45278)
(-3.51177 -0.144269 2.88413)
(-3.7188 0.0206227 2.17112)
(-3.92516 -2.21507 1.09573)
(-2.60649 1.4371 -1.68687)
(-2.33244 1.15279 -1.95443)
(-2.68188 0.481983 -1.63272)
(-2.90721 -0.419264 0.257963)
(-2.16146 -0.871163 -0.18421)
(-2.41242 -1.23322 0.273537)
(-3.25827 -1.21233 1.39095)
(-1.36408 1.11853 -1.94998)
(-1.42939 1.07757 -1.53747)
(-1.42739 0.578309 -1.6162)
(-1.86671 0.578917 -0.952387)
(-1.96591 0.287363 -0.365419)
(-1.4916 0.390013 -0.707198)
(-1.15258 0.163011 -1.38814)
(-1.30566 -0.258454 -0.0857695)
(-1.0562 0.698438 -1.80236)
(-0.990454 0.655515 -1.74997)
(-0.992826 0.265697 -1.66291)
(-0.918425 -0.0419467 -1.58729)
(-0.985253 -0.129438 -1.66893)
(-0.498618 -0.0115805 -2.37745)
(0.23696 0.300136 -2.60694)
(0.201815 -0.388378 -1.40936)
(0.25311 0.981584 -0.253256)
(-2.89663 -1.42273 -0.0386706)
(-3.28459 -1.58194 -0.0688455)
(-2.63256 -2.23189 -0.110515)
(-4.053 -0.640098 0.50243)
(-3.63985 -1.86269 0.295707)
(-2.16741 -3.13338 0.123732)
(-4.63408 0.0361076 1.24664)
(-4.73117 -0.768235 0.912764)
(-4.24628 -2.15382 0.172614)
(-3.80862 -2.37079 0.376178)
(-4.66755 -0.333943 0.904179)
(-4.45191 -0.458815 1.43636)
(-4.76428 -0.201627 1.43282)
(-4.86584 -1.52225 1.21247)
(-3.34007 -3.36184 -0.724613)
(-4.19768 0.186557 1.58354)
(-4.05232 -0.520809 1.86776)
(-4.26274 -0.70339 1.9905)
(-4.06401 -0.832347 2.29774)
(-3.97938 0.0182073 2.7488)
(-2.9256 -3.71869 -0.367358)
(-3.49394 0.939802 0.0190075)
(-3.57357 1.04938 0.00397322)
(-2.54391 0.966924 2.77792)
(-3.09757 0.544234 2.59913)
(-3.52424 0.160959 2.61441)
(-3.54792 0.776629 1.29543)
(-4.16808 -1.35224 1.66243)
(-2.54632 0.890727 -1.11764)
(-2.54649 1.09459 -1.40837)
(-2.30057 0.870047 -1.51516)
(-2.7058 0.411688 -1.58768)
(-2.97179 -0.19967 -0.333257)
(-2.27377 -0.595162 -0.436146)
(-2.45371 -1.08368 -0.293468)
(-3.33336 -1.00859 0.364811)
(-1.66898 0.786506 -1.51439)
(-1.41181 1.08071 -1.84081)
(-1.41779 0.935025 -1.50645)
(-1.43275 0.623261 -1.56452)
(-1.91155 0.584278 -1.0833)
(-2.01741 0.452789 -0.620978)
(-1.53042 0.534106 -0.921365)
(-1.28979 0.342008 -1.6068)
(-1.43395 -0.224639 -0.131009)
(-1.38158 0.994307 -1.23021)
(-1.06206 0.726338 -1.81701)
(-0.986062 0.706652 -1.75505)
(-0.984921 0.24855 -1.68023)
(-0.907396 -0.0395771 -1.622)
(-0.965466 -0.0936079 -1.718)
(-0.462602 0.042039 -2.58855)
(0.251081 0.309998 -2.52327)
(0.207805 -0.395224 -1.29514)
(0.218059 0.992654 -0.325702)
(-2.25394 -1.58739 -0.00363895)
(-3.09332 -1.27819 -0.107947)
(-2.8686 -1.5917 -0.0659052)
(-3.63972 -0.638662 0.175601)
(-3.26424 -1.70578 -0.0428635)
(-2.23069 -2.5319 -0.217905)
(-4.18891 -0.287429 0.635868)
(-4.03666 -0.947323 0.406897)
(-3.48777 -2.04781 0.334793)
(-2.03134 -3.15749 0.17326)
(-4.49123 -0.0824654 1.54779)
(-4.5277 -0.701368 1.1372)
(-4.61265 -0.972781 0.943557)
(-4.06171 -2.43066 0.198247)
(-4.00688 -1.84846 0.427636)
(-4.64393 -0.604159 1.5563)
(-4.42262 -0.304694 1.40269)
(-4.45696 0.631345 1.65338)
(-4.58616 -0.354562 1.90209)
(-4.9419 -1.33826 1.65073)
(-2.89933 -3.46415 -0.740816)
(-4.30869 0.537878 1.74422)
(-4.21381 0.080169 1.71192)
(-4.36729 -0.373209 1.82164)
(-4.19822 -0.552399 2.28386)
(-4.2627 -0.147389 2.39824)
(-3.93427 0.198945 2.40906)
(-2.49837 -3.8821 0.289593)
(-3.59199 0.823274 0.64892)
(-3.63543 0.733018 -0.241303)
(-3.79449 0.612765 0.645317)
(-3.77565 0.610713 1.40298)
(-3.16891 0.596656 2.49829)
(-3.28307 -0.00370405 1.84045)
(-3.36502 0.185038 1.09082)
(-4.34755 -1.52744 1.48819)
(-2.29688 -1.24503 0.835097)
(-2.34816 -0.394539 -0.165845)
(-2.36957 0.196582 -0.805943)
(-2.05909 -0.290457 -0.665695)
(-2.71988 0.330705 -1.37181)
(-2.98194 -0.111466 -0.559398)
(-2.37256 -0.415526 -0.784157)
(-2.63089 -1.20186 -0.667554)
(-3.35023 -1.00126 0.0789912)
(-1.88301 1.05507 -1.28533)
(-1.72807 0.792472 -1.71203)
(-1.48966 1.04873 -1.73702)
(-1.43599 0.747043 -1.45274)
(-1.47702 0.551756 -1.45535)
(-1.87226 0.382512 -1.3506)
(-2.06719 0.573864 -0.949433)
(-1.51423 0.532103 -1.24327)
(-1.34547 0.446624 -1.70765)
(-1.53908 -0.256791 -0.112409)
(-1.06614 1.44773 -0.776357)
(-1.35897 1.02159 -1.24989)
(-1.04087 0.719078 -1.86239)
(-0.991164 0.755846 -1.77375)
(-0.981579 0.253241 -1.71018)
(-0.898942 -0.0165968 -1.67064)
(-0.956543 -0.0359873 -1.76536)
(-0.459159 0.116841 -2.77464)
(0.249033 0.304396 -2.41958)
(0.20822 -0.382842 -1.17825)
(0.185877 0.998891 -0.384549)
(-1.86534 -1.48306 0.127098)
(-2.78705 -1.00636 0.229555)
(-2.22839 -1.68577 -0.121954)
(-3.36217 -0.769464 0.0892282)
(-2.95042 -1.55485 -0.0874007)
(-2.81205 -1.55692 -0.094479)
(-3.74309 -0.467979 0.366531)
(-3.60513 -0.882934 0.142431)
(-3.20516 -1.63745 0.104445)
(-1.96454 -2.73417 -0.30708)
(-4.19924 -0.284279 0.829602)
(-4.18369 -0.460059 0.613637)
(-3.96298 -1.08902 0.355828)
(-3.43645 -1.82827 0.433803)
(-2.13091 -2.97057 0.189363)
(-4.46025 -0.15102 1.45455)
(-4.45467 -0.177279 1.4661)
(-4.49723 -0.227862 1.28286)
(-4.6629 -1.3479 0.860702)
(-4.00112 -2.84494 -0.0972432)
(-3.79471 -2.01789 0.310704)
(-4.99558 -0.387002 1.7121)
(-4.61071 0.00413014 1.53033)
(-4.37301 0.0604689 1.64457)
(-4.47368 -1.00856 1.58265)
(-4.53987 -0.468582 1.93917)
(-5.02362 -1.66158 1.78778)
(-2.25689 -3.6211 -0.522637)
(-4.11828 0.913837 2.15578)
(-4.39097 0.255673 1.83265)
(-4.36766 -0.136202 1.95615)
(-4.37003 -0.24072 2.10195)
(-4.45441 -0.408079 2.45957)
(-4.46428 0.416429 2.22762)
(-3.41203 -1.40887 2.28429)
(-2.47076 -3.93925 0.415759)
(-3.20813 0.973915 -0.0913545)
(-3.54768 0.900949 0.909518)
(-3.50029 0.507778 -0.0451287)
(-3.96845 0.300955 0.790628)
(-3.82734 0.423227 1.00712)
(-3.39975 0.219056 2.23186)
(-3.07919 0.204419 0.756966)
(-3.29907 -0.168769 1.03253)
(-4.35592 -1.56992 1.28798)
(-2.17595 -0.479835 1.23711)
(-2.11741 -1.40109 1.00614)
(-2.13826 -0.993032 0.268357)
(-2.13737 -0.769897 -0.215747)
(-1.81555 -1.02208 -0.241567)
(-2.62965 0.399021 -1.09948)
(-2.90832 -0.356069 -0.548942)
(-2.45477 -0.0552942 -1.21395)
(-3.03967 0.0549901 -1.58896)
(-3.45969 -1.23884 -0.202987)
(-1.51795 1.13691 -1.60963)
(-1.95109 0.820825 -1.42655)
(-1.95038 0.854674 -1.67512)
(-1.58074 0.886771 -1.65677)
(-1.44722 0.523062 -1.32937)
(-1.51112 0.426202 -1.31617)
(-1.80712 0.114466 -1.55509)
(-2.12947 0.608751 -1.29424)
(-1.4316 0.437081 -1.54285)
(-1.40538 0.465031 -1.64314)
(-1.56952 -0.319247 0.0375064)
(-0.643802 1.33324 -1.27105)
(-1.09689 1.49164 -0.749775)
(-1.36463 1.05882 -1.25241)
(-1.03199 0.690173 -1.91557)
(-0.997724 0.781465 -1.82858)
(-0.989677 0.28303 -1.75674)
(-0.89587 0.014793 -1.73997)
(-0.962109 0.0375124 -1.81556)
(-0.467117 0.217138 -2.92607)
(0.248793 0.286015 -2.30011)
(0.195985 -0.340518 -1.05624)
(0.139181 1.03724 -0.405081)
(-1.71637 -1.43047 0.0825285)
(-2.3612 -1.1393 0.0468922)
(-1.76111 -1.63487 0.0943892)
(-3.0032 -0.839933 0.110996)
(-2.6542 -1.28499 0.217435)
(-2.18116 -1.73098 -0.0680469)
(-3.37113 -0.55068 0.300535)
(-3.35396 -0.763516 0.0837961)
(-2.78998 -1.65677 -0.0972385)
(-2.3751 -1.99518 -0.141781)
(-3.66236 -0.385422 0.61449)
(-3.67912 -0.752032 0.308939)
(-3.50954 -1.05319 0.03742)
(-3.0187 -1.7836 0.0693156)
(-1.79248 -2.84506 -0.306895)
(-4.13993 -0.242144 1.09827)
(-4.26904 0.0656487 1.03853)
(-4.09266 -0.58755 0.686327)
(-3.83904 -1.33877 0.169167)
(-3.13719 -2.10789 0.42754)
(-2.09443 -3.07844 0.299217)
(-4.51038 -0.0562557 1.57735)
(-4.44754 -0.187198 1.40137)
(-4.38262 -0.473824 1.38748)
(-4.57705 -0.630617 1.25209)
(-4.59637 -1.61602 0.83056)
(-4.08356 -2.95032 -0.377076)
(-3.6919 -2.44813 0.181867)
(-5.0594 -0.0411508 2.14816)
(-4.90006 -0.811714 1.70768)
(-4.57173 -0.887911 1.87476)
(-4.46474 -0.352874 1.80275)
(-4.29754 -0.132778 2.23251)
(-4.68995 -0.55889 1.96213)
(-5.21828 -1.4028 1.86017)
(-1.74035 -3.76115 -0.672513)
(-3.87351 0.71372 2.43024)
(-4.23169 0.317526 2.23055)
(-4.60429 -0.127057 1.52594)
(-4.73168 -0.33405 2.09497)
(-4.36244 -0.262613 2.45563)
(-4.56468 -0.353433 2.61464)
(-4.14857 -0.580998 2.17933)
(-3.0888 -2.03062 2.29697)
(-2.38266 -4.05833 0.514467)
(-2.64553 0.530561 -0.24006)
(-3.00661 0.925223 0.917895)
(-3.34542 0.759798 1.17171)
(-3.30599 0.0744407 0.893643)
(-3.97444 0.0909173 0.538642)
(-3.83873 0.320015 0.78275)
(-3.47787 0.605598 1.26664)
(-3.12586 -0.0725757 0.624158)
(-3.46167 -0.548479 0.943332)
(-4.13961 -2.15658 1.30932)
(-1.90562 0.888062 0.448621)
(-2.20426 -0.47819 1.20347)
(-1.99286 -1.52393 1.13874)
(-1.96946 -1.37556 0.493071)
(-1.98799 -1.24518 -0.0530543)
(-1.58178 -1.45805 -0.312647)
(-2.28213 -0.64707 -0.697614)
(-2.68757 -0.645227 -0.427849)
(-2.51757 0.156275 -1.69108)
(-2.69533 -1.72217 -1.26911)
(-3.77965 -0.884083 -0.707788)
(-0.949157 1.23125 -1.21934)
(-1.5681 1.14823 -1.66059)
(-2.00983 0.714925 -1.47168)
(-2.01198 0.8184 -1.63785)
(-1.71497 0.780508 -1.50728)
(-1.49013 0.103956 -1.15652)
(-1.5691 0.355191 -1.13938)
(-1.7698 -0.0842865 -1.6506)
(-2.14135 0.545354 -1.65428)
(-1.28968 0.296081 -1.77856)
(-1.45483 0.410813 -1.41296)
(-1.58579 -0.359703 0.0845623)
(-0.000198191 1.13724 -1.01882)
(-0.654306 1.25552 -1.23946)
(-1.09513 1.5859 -0.689971)
(-1.34541 1.08314 -1.28739)
(-1.00706 0.629484 -1.98856)
(-1.00877 0.802296 -1.89361)
(-1.01071 0.322271 -1.81961)
(-0.904861 0.0651786 -1.8222)
(-0.98925 0.130757 -1.86273)
(-0.490816 0.323797 -3.02475)
(0.253794 0.254565 -2.1713)
(0.187433 -0.320379 -0.960604)
(0.0911985 1.05596 -0.442087)
(-1.71401 -1.43428 0.111728)
(-2.17504 -1.1697 0.123144)
(-1.64603 -1.48615 0.0156085)
(-2.69175 -0.64515 0.362933)
(-2.33659 -1.14327 0.0282601)
(-1.72871 -1.63659 0.0887967)
(-3.06924 -0.842221 0.155094)
(-2.95403 -1.05343 0.102898)
(-2.36512 -1.7655 0.253164)
(-2.09433 -1.84291 -0.00297865)
(-3.44041 -0.77078 0.518316)
(-3.34797 -0.679895 0.307543)
(-3.27228 -0.6368 0.1026)
(-2.8455 -1.52841 -0.0492469)
(-2.2448 -2.14864 -0.16308)
(-3.81175 -0.228376 0.83413)
(-3.78507 -0.615123 0.661008)
(-3.58276 -0.904302 0.336354)
(-3.23554 -1.39329 0.10229)
(-2.81605 -1.97932 0.317559)
(-1.58706 -2.92145 -0.337387)
(-4.26414 -0.0780554 1.32948)
(-4.0356 -0.659901 0.924915)
(-4.24789 -0.959779 0.687122)
(-4.12527 -0.852415 0.683353)
(-3.79066 -1.47858 0.303574)
(-3.12223 -2.08123 0.632957)
(-2.16584 -3.15564 0.238133)
(-4.88031 -0.363507 1.40848)
(-4.48471 -0.301833 1.66815)
(-4.51089 0.0844116 1.5766)
(-4.42615 -0.740689 1.34643)
(-4.43972 -0.890572 1.24088)
(-4.61416 -1.38613 0.744662)
(-4.20682 -2.81211 -0.425907)
(-3.67015 -2.71123 0.20815)
(-4.9032 0.241293 2.52381)
(-5.11646 -0.0725342 2.20936)
(-4.93182 -0.907217 1.66809)
(-4.47569 -0.578928 2.04345)
(-4.44842 -0.0857558 2.27214)
(-4.63213 -0.193776 2.25196)
(-4.80341 -1.17369 1.84111)
(-4.75037 -1.75943 1.74882)
(-1.09428 -3.95709 -0.758787)
(-3.61375 0.681579 2.59672)
(-3.87592 0.566457 2.42961)
(-4.26628 0.0510848 2.17799)
(-4.45844 -0.26927 2.39582)
(-4.75109 -0.533903 2.47748)
(-4.50487 0.0480662 2.61071)
(-4.47649 0.307988 2.46147)
(-3.85184 -1.57408 2.19322)
(-2.76869 -2.54569 2.21688)
(-2.23424 -4.22213 0.508656)
(-2.28263 1.02252 -0.44661)
(-2.59951 0.322517 -0.166363)
(-3.06194 0.722608 0.76236)
(-3.12412 0.556322 1.17169)
(-3.27571 0.279626 0.817318)
(-3.81082 0.130222 0.341292)
(-4.16787 0.291771 0.23788)
(-3.42277 0.190498 0.111606)
(-3.18204 -0.505496 0.212151)
(-3.74113 -0.702796 0.601649)
(-4.6527 -1.74949 1.3511)
(-1.40682 0.966149 0.0157152)
(-1.99737 0.844792 0.555363)
(-2.25398 -0.499719 1.13911)
(-1.84747 -1.74164 1.16563)
(-1.69444 -1.9606 0.75198)
(-1.63533 -1.91963 0.140836)
(-1.25769 -1.79311 -0.580314)
(-2.02199 -0.911627 -0.634573)
(-2.52691 -0.692071 -0.615164)
(-2.61639 0.186939 -2.0041)
(-2.76874 -0.991108 -1.62227)
(-3.55355 -1.84903 -0.720569)
(-0.224241 1.74835 -0.611015)
(-0.919786 1.04929 -1.04983)
(-1.5518 1.15984 -1.67694)
(-2.11057 0.869549 -1.41725)
(-2.10689 0.844833 -1.58087)
(-1.74572 0.371742 -1.79372)
(-1.54492 -0.0283337 -1.08827)
(-1.57915 0.220801 -1.05222)
(-1.76967 -0.130752 -1.70996)
(-2.04506 0.331142 -2.01027)
(-1.20092 0.234029 -1.88831)
(-1.57199 0.469016 -1.0506)
(-1.51893 -0.487442 0.142378)
(0.614399 0.98623 -1.14283)
(0.00373724 1.24649 -0.982217)
(-0.653216 1.17076 -1.20065)
(-1.11226 1.68821 -0.686197)
(-1.3279 1.08614 -1.34415)
(-0.997579 0.607237 -2.04939)
(-0.99809 0.750065 -1.99795)
(-1.04334 0.377431 -1.89224)
(-0.930087 0.126425 -1.91033)
(-1.02053 0.236224 -1.91514)
(-0.508377 0.396634 -3.046)
(0.263559 0.21862 -2.03686)
(0.193306 -0.295233 -0.879876)
(0.0623964 1.07375 -0.472594)
(-1.75591 -1.01087 -0.119358)
(-2.33211 -0.991969 0.0320293)
(-1.53061 -1.59752 0.169889)
(-2.47115 -0.696989 0.310657)
(-1.93509 -1.38306 0.0934553)
(-1.561 -1.56508 -0.011064)
(-2.77295 -0.695234 0.0210902)
(-2.66892 -0.631962 0.317369)
(-2.27843 -1.17373 -0.0100805)
(-1.70273 -1.68577 0.0514187)
(-3.14346 -0.674115 0.316494)
(-3.05141 -0.931791 0.149103)
(-2.94306 -1.03511 0.0984718)
(-2.15384 -2.09783 0.174178)
(-1.96808 -1.97776 -0.000207546)
(-3.43401 -0.58108 0.744896)
(-3.41739 -0.80894 0.538042)
(-3.21796 -0.957552 0.282148)
(-3.01985 -1.20529 0.238534)
(-2.83544 -1.68074 -0.165375)
(-2.09153 -2.24056 -0.148814)
(-3.93235 -0.591301 0.858323)
(-3.76733 -1.06129 0.668251)
(-3.78668 -0.916771 0.652311)
(-3.50606 -0.966574 0.485473)
(-3.32787 -1.13167 0.322634)
(-2.57036 -2.22279 0.572906)
(-1.33729 -3.04341 -0.259882)
(-4.22444 -0.157134 1.54113)
(-4.29493 -0.48893 1.32239)
(-4.15589 0.0130243 1.47548)
(-4.17156 -0.902348 0.782788)
(-4.09713 -0.997651 0.650856)
(-3.56279 -1.90815 0.295574)
(-3.13203 -2.17216 0.550601)
(-2.20313 -3.15124 0.150137)
(-4.92851 0.279506 1.97365)
(-4.79121 -0.218964 1.59307)
(-4.35324 -0.709609 1.79089)
(-4.27978 -0.407493 1.65728)
(-4.60335 -0.546737 1.42555)
(-4.32129 -1.04231 1.29445)
(-4.45253 -1.78712 0.791692)
(-4.22854 -3.02558 -0.36569)
(-3.58257 -2.80889 0.229862)
(-4.8174 0.552917 2.61662)
(-4.87876 0.14732 2.55437)
(-5.03121 -0.35495 2.23065)
(-4.96677 -0.704326 1.83466)
(-4.5396 -0.369649 2.22737)
(-4.3958 -0.41337 2.46247)
(-4.64616 -0.476272 2.19523)
(-4.58354 -1.47076 1.77227)
(-3.83579 -3.0569 1.83184)
(-0.590256 -4.11051 -0.65356)
(-3.28058 0.679518 2.47717)
(-3.57071 0.594527 2.64391)
(-3.87806 0.328792 2.54755)
(-4.17322 -0.153798 2.41555)
(-4.73349 -0.640642 2.25001)
(-4.7421 -0.48648 2.26219)
(-4.45349 -0.842414 2.69668)
(-4.12876 -1.11208 2.20422)
(-4.50803 -0.029186 2.01689)
(-3.26648 -2.0076 2.45114)
(-2.192 -4.34115 0.630781)
(-2.18649 1.13128 -0.755037)
(-2.43854 0.911298 -0.482453)
(-2.65406 0.260851 -0.191558)
(-3.0088 0.44328 0.0398895)
(-3.08587 0.607283 0.158253)
(-3.1995 0.462602 0.192161)
(-3.73894 0.504455 0.365207)
(-4.11094 0.157599 -0.355299)
(-3.42113 0.149204 -0.22099)
(-2.82723 -1.30561 0.592294)
(-3.3006 -1.53287 0.722543)
(-4.70601 -2.35351 0.762521)
(-0.805388 1.61416 -0.205671)
(-1.45314 0.945469 0.22394)
(-2.04123 0.810064 0.685176)
(-2.30133 -0.450481 0.979618)
(-1.82377 -1.73518 1.14001)
(-1.53508 -2.03824 0.753919)
(-1.42244 -2.00452 0.135451)
(-1.08901 -1.80488 -0.79163)
(-1.97681 -0.766392 -0.775945)
(-2.44711 -0.489006 -0.90374)
(-2.50342 -0.0402444 -2.2041)
(-2.99793 -1.33177 -1.6146)
(-3.73006 -1.53041 -0.849581)
(0.446396 1.87887 -0.723335)
(-0.114387 1.69984 -0.772579)
(-0.873955 0.885141 -0.86495)
(-1.5643 1.03417 -1.67339)
(-2.20311 0.915822 -1.46503)
(-2.17492 0.353282 -1.92831)
(-2.05168 0.6938 -1.35324)
(-1.66798 -0.102884 -1.04731)
(-1.51893 -0.105392 -1.04773)
(-1.77773 -0.117107 -1.7788)
(-1.95266 0.207229 -2.18886)
(-1.16395 0.226888 -1.8355)
(-1.6058 0.456109 -0.93114)
(-1.44458 -0.547675 0.156109)
(0.791472 1.40211 -1.01107)
(0.64925 0.973834 -1.11657)
(0.0193199 1.28756 -0.989867)
(-0.652174 1.08069 -1.16299)
(-1.13833 1.76633 -0.785157)
(-1.31823 1.09666 -1.40197)
(-0.969594 0.641806 -2.10267)
(-0.974412 0.684531 -2.11023)
(-1.07936 0.437232 -1.97184)
(-0.965367 0.18776 -2.0018)
(-1.06078 0.335975 -1.98523)
(-0.488212 0.400308 -2.99367)
(0.276748 0.186094 -1.9021)
(0.198923 -0.270629 -0.812214)
(0.0280005 1.08165 -0.505698)
(-1.53509 -1.02602 -0.00780828)
(-2.10185 -0.812705 -0.0227615)
(-1.60116 -1.26454 -0.152583)
(-2.53117 -0.500624 0.178214)
(-2.14768 -1.1461 -0.0169302)
(-1.43424 -1.64734 0.155214)
(-2.54124 -0.462449 0.225699)
(-2.36776 -0.855681 0.321333)
(-1.86215 -1.49111 0.161992)
(-1.46306 -1.65116 -0.00532566)
(-2.86905 -1.01104 0.0766489)
(-2.72823 -0.78106 0.0278731)
(-2.67826 -0.513657 0.239146)
(-2.11487 -1.382 -0.0577106)
(-1.66431 -1.80002 -0.0247935)
(-3.11873 -0.590584 0.540419)
(-3.09152 -0.765426 0.280498)
(-2.99677 -1.0111 0.158527)
(-2.85216 -1.18245 0.165027)
(-2.11963 -2.1633 0.184328)
(-1.72643 -2.17863 0.0202837)
(-3.49825 -0.531119 0.691143)
(-3.41135 -0.693408 0.707971)
(-3.31746 -0.81767 0.558936)
(-3.09097 -1.22045 0.249527)
(-2.9731 -1.35363 0.239499)
(-2.60929 -2.15627 -0.235705)
(-1.91083 -2.33446 -0.109949)
(-3.90787 -0.304314 1.21765)
(-3.92443 -0.794164 0.851416)
(-3.76144 -1.15858 0.693848)
(-3.66866 -0.991535 0.71492)
(-3.54423 -0.918771 0.55009)
(-3.00008 -1.86088 0.0242888)
(-2.50437 -2.46963 0.455838)
(-1.18438 -3.14786 -0.146447)
(-4.49763 -0.00299806 1.53014)
(-4.19956 -0.278941 1.64374)
(-4.24492 -0.56548 1.41855)
(-4.2555 -1.18512 1.00278)
(-4.19187 -0.923936 0.786324)
(-3.90864 -1.1786 0.671654)
(-3.62052 -2.13165 0.222463)
(-3.06961 -2.46696 0.327387)
(-2.22492 -3.27061 0.0806117)
(-4.99993 0.61532 2.10397)
(-4.88849 0.53705 2.11374)
(-4.69682 -0.918755 1.69751)
(-4.3224 -0.582377 1.91179)
(-4.30698 0.39647 1.97821)
(-4.4626 -1.12623 1.40476)
(-4.64765 -0.913921 1.39266)
(-4.24978 -2.20701 0.80787)
(-4.32537 -3.01472 -0.526711)
(-2.9162 -3.39535 0.173259)
(-4.74824 0.833672 2.59885)
(-4.75642 0.220532 2.79373)
(-4.71797 -0.17808 2.77775)
(-4.98711 -0.474568 2.29584)
(-4.85582 -0.847987 2.09367)
(-4.63381 -0.0845738 2.3451)
(-4.58246 -0.403448 2.38861)
(-4.55396 -0.690132 2.12511)
(-4.60896 -1.51588 1.68311)
(-3.17907 -3.39999 1.98289)
(-0.105906 -4.12401 -0.310606)
(-3.31792 0.171212 2.36912)
(-3.35474 0.401473 2.54821)
(-3.60196 0.187837 2.76932)
(-3.92021 0.202886 2.55784)
(-4.38127 -0.123318 2.00114)
(-4.76674 -0.765425 2.07508)
(-4.88737 -0.42061 2.05961)
(-4.76675 -0.265508 2.02514)
(-4.27603 -0.782239 1.79159)
(-4.01483 -1.9893 2.33317)
(-2.88923 -2.79615 2.32436)
(-2.22175 -4.53523 0.754073)
(-1.85686 1.5024 -0.544563)
(-2.30373 1.08535 -0.897468)
(-2.58174 0.635339 -0.478478)
(-2.69591 0.154685 -0.350381)
(-2.80158 0.267851 -0.672727)
(-3.03785 0.67053 -0.227495)
(-2.96189 0.197217 -0.366833)
(-3.51543 0.192608 -0.14468)
(-3.94363 0.126564 -1.0117)
(-3.39162 -0.324491 -0.459758)
(-3.00427 -1.35959 0.334467)
(-3.47416 -1.63766 0.591766)
(-4.0708 -3.2611 0.807256)
(-0.482987 1.86833 -0.197463)
(-0.960121 1.66926 -0.133455)
(-1.45409 1.03016 0.332409)
(-2.08955 0.568312 0.994731)
(-2.38074 -0.287823 0.698221)
(-1.82995 -1.57891 1.20722)
(-1.57934 -1.33259 0.307134)
(-1.47297 -1.45755 -0.208253)
(-1.07331 -1.65817 -0.944615)
(-1.93877 -0.722436 -0.901597)
(-2.38828 -0.341855 -1.09722)
(-2.49557 -0.167623 -1.99142)
(-3.00117 -1.52852 -1.51936)
(-4.28447 -1.39442 -0.962811)
(0.835472 1.47875 -0.943086)
(0.491243 1.80039 -0.752278)
(-0.136362 1.64926 -0.730247)
(-0.811406 0.773109 -0.663362)
(-1.55858 0.878584 -1.60614)
(-2.14106 0.523638 -1.73113)
(-2.43665 1.0064 -1.2846)
(-2.23538 0.931811 -1.09866)
(-1.76262 -0.0393648 -1.05941)
(-1.4891 -0.254964 -1.05023)
(-1.73524 -0.116655 -1.88793)
(-1.95009 0.223042 -2.16964)
(-1.17509 0.254853 -1.60964)
(-1.59668 0.384255 -0.880196)
(-1.34845 -0.583259 0.15191)
(0.924784 1.24677 -1.27127)
(0.800801 1.37665 -1.04295)
(0.647171 0.982393 -1.08933)
(0.0117303 1.26077 -0.992656)
(-0.647847 1.01449 -1.10448)
(-1.15669 1.79452 -0.952488)
(-1.32138 1.11727 -1.45915)
(-0.959035 0.698224 -2.0833)
(-0.973992 0.752349 -2.12663)
(-1.10557 0.451058 -2.06346)
(-1.01953 0.252466 -2.08519)
(-1.09858 0.414123 -2.08478)
(-0.449083 0.379819 -2.90386)
(0.290575 0.161173 -1.77082)
(0.207679 -0.245647 -0.754153)
(0.0052533 1.07633 -0.526342)
(-1.49568 -1.04153 0.0579174)
(-1.7337 -0.853379 0.00865422)
(-1.41628 -1.21075 -0.0506999)
(-2.33953 -0.39584 -0.328801)
(-2.1083 -0.928277 -0.0326617)
(-1.52079 -1.36941 -0.102334)
(-2.39189 -0.348042 -0.0395886)
(-2.42495 -0.636366 0.217933)
(-1.93693 -1.3438 -0.0197325)
(-1.30493 -1.70455 0.112632)
(-2.60812 -0.71962 0.0858959)
(-2.45183 -0.630995 0.285138)
(-2.27241 -0.984418 0.27087)
(-1.73356 -1.68746 0.0226716)
(-1.54068 -1.60501 -0.0260223)
(-2.95342 -0.405952 0.277343)
(-2.88127 -0.860853 0.0235938)
(-2.72732 -0.897362 0.0668729)
(-2.62605 -0.83044 0.168409)
(-1.97235 -1.57851 -0.0437743)
(-1.58393 -1.88495 -0.0493729)
(-3.17265 -0.387347 0.47755)
(-3.06172 -0.724974 0.52896)
(-2.96635 -1.05417 0.274283)
(-2.93102 -1.1025 0.156927)
(-2.70713 -1.47261 0.131625)
(-1.98852 -2.30448 0.210743)
(-1.47719 -2.37295 0.0329516)
(-3.53306 -0.327972 0.807892)
(-3.40778 -0.762719 0.63943)
(-3.27317 -0.712372 0.720205)
(-3.31202 -0.763118 0.586645)
(-3.07019 -1.37844 0.272163)
(-2.98161 -1.32477 0.308098)
(-2.50707 -2.31007 -0.133936)
(-1.73181 -2.43504 -0.16183)
(-4.05651 0.0180639 1.18271)
(-3.8787 -0.453037 1.24971)
(-3.86251 -0.92985 0.916441)
(-3.74744 -1.18737 0.760922)
(-3.66714 -0.859615 0.773357)
(-3.4781 -1.36378 0.524014)
(-2.8657 -2.06559 0.293223)
(-2.32901 -2.7254 0.350214)
(-0.836733 -3.27183 -0.0110774)
(-4.75915 0.440059 1.63883)
(-4.57431 -0.653711 1.5373)
(-4.16554 -0.333483 1.75356)
(-4.19751 -0.688147 1.44732)
(-4.18373 -1.41633 0.849879)
(-4.19119 -1.33757 0.753616)
(-3.85587 -1.67891 0.781012)
(-3.74115 -2.2665 0.397717)
(-2.98618 -2.73776 0.10073)
(-2.753 -3.06371 0.0453769)
(-4.8794 0.740044 2.22388)
(-5.0485 0.339497 2.34079)
(-4.85506 -0.701967 2.16845)
(-4.60874 -0.764471 1.90324)
(-4.40303 -0.195164 2.03985)
(-4.52857 -0.800372 1.82672)
(-4.32161 -1.76583 1.37507)
(-4.35861 -2.17908 0.976474)
(-4.26847 -2.14353 0.767464)
(-4.2513 -2.80803 -0.284404)
(-2.23792 -3.91139 0.0462618)
(-4.16669 0.476577 2.9596)
(-4.66105 0.431314 2.89003)
(-4.75438 0.0241382 2.95895)
(-4.76327 -0.442744 2.83468)
(-5.008 -0.0344693 2.29517)
(-4.85971 -0.423118 2.10204)
(-4.48151 -0.814597 2.32815)
(-4.60683 -0.999137 2.28502)
(-4.63631 -0.850772 2.24101)
(-4.437 -2.17743 1.88706)
(-2.72961 -3.48749 1.60598)
(0.169125 -4.13158 -0.0774317)
(-3.32976 -0.0732898 2.18556)
(-3.40307 0.262406 1.99197)
(-3.52892 0.102104 2.58815)
(-3.5658 0.431437 2.64963)
(-3.95864 0.790698 1.92797)
(-4.42318 -0.0492038 2.16518)
(-4.81992 -0.504647 1.85785)
(-5.07703 -1.02 1.95504)
(-4.57496 -0.829587 1.90358)
(-4.29712 -0.901909 1.69923)
(-3.56555 -2.53893 2.31978)
(-2.35562 -3.47103 2.05196)
(-2.22353 -4.87017 0.68106)
(-1.7734 1.11214 -0.0848427)
(-2.14443 0.768741 -0.0454085)
(-2.36641 1.11565 -0.917372)
(-2.6878 0.530033 -0.419141)
(-2.6197 0.278216 -0.468029)
(-2.59225 0.27312 -0.834914)
(-2.63086 -0.194768 -0.188022)
(-2.39502 -0.694114 -0.192586)
(-2.6341 -0.880847 -1.25991)
(-3.8447 -0.453264 -1.53847)
(-3.3736 -0.835639 -0.38026)
(-3.61194 -1.21138 -0.488151)
(-4.44052 -1.34009 0.344993)
(-4.0553 -3.76523 1.00195)
(-0.156469 1.50137 0.294596)
(-0.556959 1.76795 -0.170435)
(-1.00495 1.59818 -0.0261901)
(-1.51581 1.11095 0.344333)
(-2.08892 0.361808 1.23108)
(-2.29921 -0.417339 0.842696)
(-1.93468 -1.0531 0.919498)
(-1.75414 -0.895585 -0.0252544)
(-1.66761 -0.952252 -0.467564)
(-1.33455 -1.06845 -1.12278)
(-2.03379 -0.365618 -1.04618)
(-2.34708 -0.248797 -1.26404)
(-2.30773 -0.456396 -1.91139)
(-2.70956 -1.82688 -1.3373)
(-4.23936 -2.19981 -0.857475)
(-0.012696 0.809949 -0.55285)
(0.841018 1.48442 -0.886024)
(0.516987 1.74028 -0.749618)
(-0.104164 1.58637 -0.64973)
(-0.736627 0.728398 -0.488626)
(-1.52555 0.688612 -1.34312)
(-2.10091 0.278505 -1.85567)
(-2.60979 1.13699 -1.1334)
(-2.27274 0.757879 -1.36621)
(-1.87654 0.0417625 -1.10144)
(-1.44641 -0.303465 -1.11038)
(-1.71002 -0.118871 -1.90678)
(-1.97229 0.279474 -2.06078)
(-1.15495 0.233246 -1.37331)
(-1.59655 0.334779 -0.752863)
(-1.16199 -0.701052 0.168031)
(0.745747 0.494925 -1.26702)
(0.900377 1.18151 -1.33246)
(0.799882 1.35874 -1.05176)
(0.690848 0.954021 -1.0761)
(0.043319 1.20159 -0.994524)
(-0.637969 0.972569 -1.02052)
(-1.16298 1.76223 -1.14561)
(-1.32288 1.1466 -1.50839)
(-0.976634 0.801626 -1.98862)
(-0.983078 0.806299 -2.0674)
(-1.10725 0.488733 -2.1366)
(-1.01832 0.246208 -2.18267)
(-1.12603 0.466585 -2.19993)
(-0.406376 0.365357 -2.78716)
(0.303194 0.141406 -1.64717)
(0.220234 -0.220582 -0.702927)
(-0.00891367 1.07501 -0.562737)
(-1.46262 -0.933189 -0.0598675)
(-1.71968 -1.00254 -0.0311568)
(-1.4553 -1.14555 0.109288)
(-2.03404 -0.557165 0.153777)
(-1.75045 -0.823105 0.0680555)
(-1.40149 -1.26562 0.000524962)
(-2.31497 -0.521564 0.0419446)
(-2.30938 -0.573828 -0.335654)
(-1.99893 -1.10144 0.00557316)
(-1.45864 -1.40868 -0.0886145)
(-2.37464 -0.77127 0.250894)
(-2.37463 -0.515398 -0.00642937)
(-2.38367 -0.497817 0.104319)
(-1.9002 -1.39675 -0.0507804)
(-1.26424 -1.73049 0.153481)
(-2.69057 -0.520565 0.199475)
(-2.49893 -0.850008 0.111484)
(-2.45728 -0.805466 0.300873)
(-2.23619 -1.07998 0.271657)
(-1.56526 -1.83563 0.0634904)
(-1.37983 -1.76996 -0.0129638)
(-2.95774 -0.356453 0.273754)
(-2.81616 -0.753034 0.246735)
(-2.75101 -1.11728 0.138998)
(-2.71356 -1.07441 0.0809196)
(-2.56272 -1.09421 0.11181)
(-1.86956 -1.75619 0.0233391)
(-1.48804 -1.95639 -0.0581663)
(-3.18728 -0.374281 0.605995)
(-3.06219 -0.609588 0.535574)
(-2.94248 -1.01023 0.553352)
(-2.9511 -1.23671 0.253449)
(-2.88671 -1.233 0.208488)
(-2.52175 -1.82835 0.136091)
(-1.83559 -2.44449 0.167218)