/*--------------------------------*- C++ -*----------------------------------*\
  =========                 |
  \\      /  F ield         | OpenFOAM: The Open Source CFD Toolbox
   \\    /   O peration     | Website:  https://openfoam.org
    \\  /    A nd           | Version:  7
     \\/     M anipulation  |
\*---------------------------------------------------------------------------*/
FoamFile
{
    version     2.0;
    format      ascii;
    class       volScalarField;
    location    "3.5";
    object      nut;
}
// * * * * * * * * * * * * * * * * * * * * * * * * * * * * * * * * * * * * * //

dimensions      [0 2 -1 0 0 0 0];

internalField   nonuniform List<scalar> 
150000
(
0.000909327
0.000988271
0.000987526
0.000669835
0.000961239
0.00137425
0.00103209
0.00128811
0.00100043
0.00108769
0.000903248
0.000534803
0.000455374
0.00101044
0.0023358
0.00118491
0.00470941
0.00166509
0.00117335
0.00108154
0.000649647
0.00228905
0.000898396
0.00115192
0.00101403
7.38592e-05
0.000361817
0.0007871
0.000538762
0.000931321
0.00223318
0.00179845
0.00109126
0.00257258
0.0011993
0.00102509
0.00146634
0.000559126
0.00146079
0.0012209
0.00117118
0.000410221
0.000776127
0.000642349
0.00165109
0.00103606
0.0011292
0.00104871
0.000135527
0.000323909
0.000296431
0.000267561
0.000652133
0.000673876
0.000770618
0.00308121
0.00251619
0.0018191
0.00241727
0.00288586
0.00157541
0.00134165
0.00135987
0.00207697
0.00110585
0.0018033
0.00168765
0.00154456
0.00138999
0.00271359
0.00173446
0.00119855
0.00102586
0.000454407
0.000793758
0.000406549
0.000657641
0.000838755
0.000659554
0.00124014
0.00102603
0.00105668
0.000132086
0.000248243
0.000280909
0.000254132
0.000320012
0.000268963
0.00056367
0.000703254
0.000723963
0.00293483
0.00316855
0.00105335
0.00310353
0.00245756
0.00123579
0.00109018
0.00166748
0.00244638
0.00250226
0.00133592
0.00124289
0.000396675
0.00249299
0.00228976
0.0025637
0.00103396
0.00165278
0.00154911
0.000531197
0.00176869
0.00163857
0.000914169
0.000849962
0.00186259
0.00109405
0.0013354
0.000779036
0.000982648
0.000505616
0.000598489
0.000377483
0.00069718
0.00103859
0.000910566
0.00131859
0.000838825
0.00104355
0.000210959
0.000189776
0.000267502
0.000244778
0.000251551
0.000292439
0.000316107
0.000313667
0.000582914
0.000784906
0.000733663
0.00256589
0.0028479
0.00088957
0.0034418
0.00292467
0.000653261
0.000463181
0.000970821
0.00346911
0.00311874
0.00241864
0.000871743
0.000629919
0.000777988
0.000692766
0.00228276
0.00227537
0.000659603
0.0013071
0.000986468
0.000545545
0.000961795
0.00184098
0.00253813
0.00278072
0.00106455
0.000634535
0.000954602
0.000698242
0.0016989
0.000995161
0.00158875
0.00141764
0.00128532
0.00462253
0.00220049
0.000870366
0.00122296
0.000430718
0.000986917
0.000656508
0.000771244
0.000683263
0.000433319
0.000464944
0.000733322
0.000985134
0.000738707
0.00133565
0.00054633
0.000976622
0.000443712
0.00018946
0.000267909
0.000269985
0.000252378
0.000392578
0.00024917
0.000260779
0.000315098
0.000318292
0.000492935
0.000809092
0.000727985
0.00244602
0.00260623
0.00049458
0.00275295
0.00268623
0.000890574
0.0010919
0.00129753
0.0032998
0.00365932
0.000828146
0.000412872
0.000550574
0.00033219
0.000868169
0.00343723
0.00312969
0.00123025
0.0013242
0.000598947
0.000513064
0.000462488
0.000640269
0.000886362
0.00263804
0.00187803
0.000997916
0.00173978
0.00164606
0.000551178
0.00109097
0.000882556
0.000952086
0.00112251
0.00158589
0.00217038
0.00145766
0.000799872
0.000542704
0.00179712
0.00144758
0.000999757
0.0011475
0.00121034
0.00124147
0.001135
0.000755189
0.00147974
0.00262851
0.000834829
0.00128996
0.000462633
0.000772315
0.00069294
0.000776821
0.000762034
0.000504658
0.000476629
0.000786394
0.000619861
0.000825096
0.000935536
0.000559071
0.00142874
0.00028566
0.000876362
0.000419996
0.00014537
0.000329216
0.000275671
0.000269986
0.000326754
0.0002502
0.000169092
0.000238498
0.000185474
0.000304394
0.000331187
0.000597893
0.000839246
0.000716947
0.00226777
0.00233878
0.000800289
0.00266269
0.00267898
0.000957335
0.00124409
0.00121458
0.00272013
0.0028035
0.00120178
0.00105551
0.000418323
0.00094316
0.00141656
0.0032197
0.00456732
0.00131087
0.000840874
0.000584906
0.000930199
0.00039018
0.000580594
0.00119214
0.00323882
0.00332177
0.0014954
0.00119347
0.000687915
0.000450555
0.000329665
0.00099071
0.000400866
0.000561783
0.000644187
0.00299058
0.00201791
0.00115675
0.00175857
0.00124054
0.000679388
0.00121749
0.000590242
0.000599255
0.00118
0.00116168
0.00103942
0.00149237
0.00218373
0.0016661
0.00109917
0.000630139
0.00276911
0.00145666
0.00113176
0.000737127
0.000763352
0.00146122
0.00130037
0.00109015
0.00118846
0.000645643
0.00144914
0.002724
0.000834037
0.00113268
0.000898358
0.000565459
0.000646246
0.000692956
0.000722995
0.000495391
0.000366614
0.000631976
0.000418138
0.00113792
0.000689069
0.000814917
0.00106209
0.000526573
0.00148639
0.000290776
0.000753654
0.000223455
0.000209014
0.000272845
0.000271935
0.000318345
0.000172073
0.00031142
0.000266792
0.00015431
0.000168624
0.000203783
0.000117233
0.00029692
0.000357264
0.000745702
0.000827852
0.000695093
0.00236931
0.00226202
0.000665116
0.00254192
0.00254637
0.00101084
0.000615225
0.00092567
0.0025137
0.00303099
0.00150908
0.000703557
0.000750731
0.000935615
0.000856074
0.00280601
0.00315344
0.0010304
0.000874286
0.00107736
0.00133065
0.00111736
0.00138869
0.00179846
0.00311007
0.00389284
0.00171107
0.000605561
0.000338351
0.000398535
0.000678807
0.000766807
0.00104771
0.000761688
0.00125604
0.00357535
0.00358601
0.00159612
0.000402452
0.000857568
0.000455221
0.000522523
0.000711787
0.000907647
0.000722283
0.000636128
0.000615927
0.00138439
0.00337187
0.00246351
0.00136771
0.00125545
0.00149486
0.00123146
0.00101456
0.00061254
0.00122565
0.000762628
0.00076145
0.000898107
0.00118509
0.00103532
0.00115054
0.00181931
0.0018797
0.000900945
0.000925925
0.00231799
0.00133865
0.00114437
0.000653851
0.000929696
0.000782877
0.000845704
0.000605476
0.0013622
0.000958032
0.00118236
0.000992246
0.00170745
0.0021351
0.000782474
0.000549405
0.000616032
0.000396963
0.000595719
0.000562117
0.000503482
0.000537632
0.000315141
0.000515893
0.000455906
0.00054649
0.00071266
0.000678849
0.000584262
0.00082882
0.0010589
0.000535209
0.00134836
0.000255114
0.000591285
0.000262222
0.000285765
0.00025618
0.000294245
0.000159706
0.000343134
0.000215713
0.00030575
0.000366684
0.000320023
0.000237528
0.000163785
0.000198178
0.000184732
0.000295265
0.000403616
0.000699747
0.000802345
0.000659722
0.0022437
0.00241228
0.000711271
0.00248774
0.00242622
0.00054866
0.000421311
0.000676936
0.00241446
0.00249506
0.000539328
0.000643865
0.00106937
0.000695256
0.00107055
0.00246874
0.00311281
0.000844432
0.00077746
0.00159309
0.000808861
0.000720541
0.000912113
0.00102906
0.00268758
0.00432021
0.00150651
0.00113231
0.00101001
0.000577576
0.00080315
0.000822514
0.00119609
0.00135876
0.00162504
0.00321097
0.00364334
0.00195293
0.0010182
0.000276606
0.000189382
0.000521393
0.000604375
0.000763472
0.000809179
0.000721246
0.000996026
0.00121971
0.00307758
0.00320999
0.00138625
0.000872569
0.000988639
0.00073995
0.000767369
0.00107916
0.000954433
0.000653243
0.00136
0.00069168
0.000887612
0.000936344
0.00161009
0.0031804
0.00228377
0.00133957
0.000780426
0.00208258
0.00156732
0.00101013
0.000780414
0.0019191
0.000416341
0.00107586
0.000813619
0.000899814
0.000717802
0.000826206
0.000949015
0.000830404
0.00188416
0.00183101
0.000808023
0.00112314
0.00184095
0.00144897
0.000962485
0.000457306
0.000742481
0.000623819
0.000617347
0.000925573
0.00139932
0.00131159
0.00116545
0.00105559
0.00140113
0.00133909
0.00143663
0.0011589
0.000733814
0.000200583
0.00044904
0.000508878
0.000572632
0.000404189
0.000398178
0.000378273
0.000480657
0.00075196
0.000361684
0.000485833
0.000431339
0.000309451
0.000392924
0.000442865
0.00050226
0.000843309
0.000917776
0.000546779
0.00103723
0.000243802
0.000420208
0.000259653
0.000178146
0.00029561
0.000316379
0.000151413
0.000398007
9.44677e-05
0.000341445
0.000362113
0.000311061
0.000323363
0.000354228
0.000236096
0.000117041
0.000192119
0.000107264
0.000294261
0.000463545
0.000652148
0.000770612
0.000608562
0.00224272
0.00226268
0.000519437
0.0023944
0.00229675
0.000800361
0.000525644
0.000803579
0.00238037
0.00237943
0.000558266
0.000424445
0.000425553
0.000401063
0.000657586
0.00242499
0.00255584
0.00084642
0.000821276
0.000571425
0.000785569
0.000616725
0.00051082
0.000798073
0.00256805
0.0029589
0.000543912
0.00129942
0.00109924
0.000732088
0.00100096
0.0016376
0.00138964
0.00103912
0.0014259
0.0025592
0.00459365
0.000797721
0.001343
0.00116366
0.000583771
0.000690753
0.000790688
0.000591314
0.00124993
0.000878033
0.00153219
0.00147487
0.00340284
0.00321929
0.00140253
0.00106815
0.000834391
0.000559431
0.000563963
0.000508268
0.000446929
0.000645377
0.000484152
0.000834476
0.00075096
0.00169591
0.00203027
0.00430837
0.00260686
0.00131293
0.000798269
0.000537196
0.000463331
0.000695499
0.00117703
0.00123045
0.000757149
0.000568708
0.000586671
0.000653484
0.000609643
0.00147382
0.0013266
0.0018608
0.00296487
0.00271138
0.0015657
0.00126924
0.00228929
0.00197396
0.000757036
0.000635728
0.00102648
0.00170222
0.00121576
0.00160263
0.000798022
0.000776066
0.000881077
0.000740897
0.000740815
0.00103988
0.000514402
0.00171364
0.00139098
0.000789106
0.00121162
0.00129617
0.00115279
0.000918035
0.000423103
0.000527564
0.000564841
0.000513958
0.000618869
0.000590419
0.0011537
0.00134341
0.00145039
0.000829435
0.00155687
0.00168964
0.00131615
0.00121294
0.00173998
0.000700756
0.000176126
0.00062224
0.000536569
0.000526566
0.000339455
0.000421343
0.000310084
0.000611918
0.000869317
0.000641402
0.000491406
0.000437331
0.000383787
0.000540159
0.000263859
0.000354188
0.000745914
0.000611796
0.000828831
0.000912532
0.0005612
0.0007016
0.000371819
0.000287631
0.00021659
0.000119054
0.000270296
0.00037256
0.000185825
0.000242063
0.000128661
0.000363604
0.000212932
0.000349527
0.000346379
0.00020402
0.000284591
0.00030531
0.000138798
9.39951e-05
0.00017252
7.05414e-05
0.000292996
0.00052829
0.000594933
0.000742858
0.000544565
0.00212825
0.00229167
0.000652789
0.00233433
0.00228592
0.000745391
0.000398226
0.000680848
0.00240151
0.00241503
0.000799963
0.00061017
0.000616798
0.000612444
0.000662659
0.00239672
0.00245579
0.000767745
0.000597991
0.000602792
0.000667453
0.000502309
0.000509723
0.000700355
0.00242758
0.00286971
0.000827843
0.000590563
0.000678363
0.000832974
0.000982713
0.00104983
0.000838245
0.000541059
0.000576246
0.0025861
0.00289623
0.000615252
0.000986473
0.00104751
0.000784822
0.000930587
0.000898592
0.000905204
0.00177066
0.00158692
0.000845009
0.000937714
0.00250389
0.00369177
0.000971624
0.00116379
0.00104177
0.000692843
0.000541869
0.000700911
0.000507205
0.00050983
0.000535374
0.000563148
0.000430492
0.00138686
0.00189636
0.00301647
0.00261708
0.00101945
0.000952132
0.000822179
0.000427325
0.000704033
0.000555668
0.000608013
0.0008634
0.000518149
0.000360617
0.000989764
0.00056638
0.00106225
0.00134439
0.000874117
0.00519717
0.00207857
0.00113436
0.000715437
0.000745414
0.000523155
0.00103613
0.00127117
0.000636372
0.000382699
0.00128271
0.000724276
0.000482715
0.000343509
0.00064893
0.00076956
0.000776871
0.00147931
0.00360757
0.00531527
0.0027028
0.0017714
0.00132584
0.000984556
0.00279743
0.00154299
0.00121597
0.00179115
0.00149372
0.000629559
0.000810423
0.00148387
0.00130231
0.000441429
0.000985396
0.000829407
0.000744487
0.00065805
0.00127545
0.00150704
0.00218683
0.00124219
0.000757195
0.00110365
0.000693501
0.00145024
0.00114409
0.000644948
0.000770714
0.000649016
0.000483889
0.000525984
0.000616031
0.00063718
0.000650166
0.00112277
0.000781233
0.000927114
0.000859272
0.00109229
0.00125302
0.00106204
0.00181825
0.00137802
0.000766033
0.000228458
0.000516857
0.000363767
0.000422546
0.000314942
0.000515838
0.000504659
0.000648267
0.000849244
0.000819366
0.000726187
0.000498793
0.000121803
0.000483411
0.000365583
0.000591381
0.000268038
0.000456329
0.000566377
0.000597687
0.000773886
0.000972581
0.000527439
0.000559803
0.000505709
0.000186979
0.000153976
0.000214807
0.000243643
0.000435169
0.000145339
0.000207873
0.000150114
0.000346129
0.000134555
0.000388561
0.000276037
9.46662e-05
0.000333644
0.000418093
0.000311109
0.000201665
0.000109809
0.000203669
0.000133181
8.64602e-05
0.000286837
0.000564535
0.000599841
0.000712698
0.000483056
0.00217008
0.00217598
0.000517897
0.00234287
0.00228581
0.000586902
0.000261863
0.000619088
0.00235026
0.00230109
0.000550236
0.000496615
0.000369687
0.000399905
0.000558803
0.00233182
0.00243745
0.000998256
0.000542151
0.000424076
0.000696784
0.000484954
0.00060582
0.000680838
0.00238882
0.00242791
0.0003539
0.000488378
0.000672063
0.000585325
0.00112548
0.00112718
0.000798688
0.000534452
0.000560658
0.00244091
0.00295117
0.000654912
0.000497302
0.000774737
0.00102068
0.0013508
0.000728351
0.00131684
0.000618765
0.000686742
0.000586379
0.000784472
0.00240866
0.00301192
0.00138922
0.00098953
0.00126227
0.00111706
0.000946419
0.000689574
0.000742112
0.000942995
0.00112494
0.000674568
0.000724665
0.00114546
0.000998769
0.00258915
0.00352617
0.00146654
0.00151401
0.00112779
0.000660488
0.000794186
0.000453833
0.000754813
0.000662227
0.00072974
0.000239912
0.00061435
0.00112195
0.00207524
0.00191791
0.00224324
0.0031103
0.00214383
0.00255383
0.000494103
0.000694698
0.000573905
0.0013461
0.000604325
0.000999977
0.000759703
0.000439859
0.000673598
0.000653337
0.000294769
0.000834726
0.00124013
0.000667183
0.000778853
0.000667173
0.00403741
0.0020841
0.00131109
0.00120495
0.00122944
0.00106016
0.00229221
0.000993619
0.000641779
0.000439322
0.000999204
0.0012873
0.000996554
0.000435358
0.000807511
0.00032841
0.000505795
0.000702822
0.000926644
0.00141654
0.0021955
0.00485547
0.00270763
0.00138943
0.00152103
0.00078456
0.00131288
0.00114027
0.00102481
0.0015431
0.000455522
0.000663358
0.000669117
0.000679305
0.000584671
0.000756738
0.000836536
0.000668472
0.000729122
0.00074099
0.000702964
0.000658924
0.000989021
0.00369826
0.00392611
0.000981727
0.000837087
0.0011004
0.0005841
0.00154445
0.00110245
0.000598062
0.000775108
0.000709047
0.00048275
0.000482818
0.000538396
0.000496368
0.000594811
0.000618796
0.00103667
0.00115089
0.000836743
0.000859768
0.000910677
0.000821825
0.00107041
0.000980759
0.00219199
0.00169086
0.000818963
0.000225972
0.00037486
0.000535152
0.000452406
0.000331531
0.000542278
0.000531593
0.000617906
0.000650942
0.000838866
0.000773526
0.000677869
0.000605684
0.000249788
0.000353684
0.00036512
0.00048227
0.000631216
0.000358484
0.00030487
0.000345876
0.000511818
0.000655098
0.000764193
0.000384628
0.000415922
0.000260783
0.000144897
0.000342635
8.28795e-05
0.000266279
0.000449923
0.000323402
0.000224657
0.000175999
0.000310255
0.00021428
0.000377498
0.000137192
0.000130648
0.000161537
0.00020993
0.00019132
0.000494591
0.00026051
0.000210984
0.000153167
0.000331102
0.000117977
0.000123518
0.0002714
0.000537135
0.000635139
0.000668192
0.000427279
0.00212782
0.00220077
0.000562986
0.0022798
0.00223682
0.000501356
0.000335184
0.000440445
0.00225663
0.00231533
0.000673593
0.000478238
0.000531451
0.000352278
0.000373518
0.00233852
0.00237121
0.000610545
0.000580587
0.000293445
0.000405516
0.000558325
0.000520934
0.000408909
0.00229256
0.00253982
0.000986719
0.000711033
0.000440863
0.0005546
0.000904243
0.000695632
0.000452964
0.000441984
0.000489417
0.00236663
0.00251861
0.000621952
0.000673991
0.00052598
0.000870048
0.00112194
0.00113218
0.000969866
0.000913393
0.000796903
0.000734246
0.000740387
0.00249622
0.00282051
0.000949433
0.000675357
0.000838464
0.00125631
0.000883054
0.000957624
0.000908829
0.000924089
0.00125389
0.00201034
0.000874254
0.000608386
0.000722275
0.00237303
0.00304718
0.00144988
0.00107531
0.00144354
0.00144913
0.00102173
0.000602442
0.000796634
0.000784611
0.000788803
0.000425696
0.0008389
0.000750721
0.000782176
0.0011586
0.000504428
0.00250214
0.00311945
0.00165002
0.00140029
0.00139376
0.0010129
0.000761631
0.000440042
0.000955781
0.000729304
0.000810209
0.000721845
0.000627159
0.000881387
0.000305343
0.000656446
0.0013354
0.00143824
0.00276278
0.00343847
0.00174277
0.00171322
0.00108332
0.000747976
0.000719391
0.000600782
0.000983001
0.000632054
0.000690589
0.000383525
0.000608994
0.00111316
0.00051815
0.000331194
0.00094369
0.000965805
0.000810556
0.00109739
0.0013978
0.00214939
0.0041238
0.00256447
0.00110565
0.000748412
0.00113714
0.00115189
0.0024237
0.000907468
0.000711648
0.000601171
0.000607253
0.000879283
0.00119716
0.00184736
0.00114797
0.00036368
0.00080336
0.0015814
0.00143904
0.000690943
0.00096373
0.000592949
0.000692259
0.00314933
0.00307109
0.00119426
0.00120849
0.00155859
0.00145416
0.00118326
0.000899296
0.000701966
0.000524409
0.00056736
0.000685078
0.000544911
0.000639934
0.000865697
0.000750408
0.000676312
0.00096738
0.00102319
0.000685454
0.000555806
0.000674237
0.000749048
0.0009615
0.00296267
0.00296455
0.000933807
0.00100285
0.00107524
0.000918991
0.00171669
0.000569956
0.000508882
0.000662617
0.000533981
0.000361509
0.000460993
0.000450646
0.000631178
0.00084789
0.000611803
0.00057612
0.000726512
0.000983446
0.00067312
0.00104141
0.000806828
0.000567683
0.000840961
0.000865225
0.000680043
0.00245201
0.00262285
0.00077086
0.000262945
0.000229754
0.000518029
0.000436897
0.000330028
0.000569527
0.000489387
0.000502158
0.000463388
0.000587538
0.000641766
0.000682125
0.000722141
0.000328031
0.000393043
0.000351934
0.000438662
0.000418254
0.000525068
0.000516139
0.000347276
0.0002547
0.000406688
0.000475136
0.000561052
0.00065466
0.000430416
0.000435243
0.000269746
0.000132041
0.000328969
0.000204565
0.000295114
0.000456899
0.00045161
0.00030615
0.000176502
0.000345575
0.000287302
0.000329922
0.000141198
0.000167544
0.000137112
9.01989e-05
0.000158226
0.000240722
0.000233871
0.000503238
0.000323799
0.000226278
0.000339467
0.000106745
0.000109101
0.000148689
0.000246771
0.000457464
0.000671533
0.000597999
0.000386515
0.00204191
0.00212123
0.000491972
0.00224137
0.0022396
0.000515627
0.000423591
0.000469377
0.00232663
0.00229456
0.000647695
0.000529469
0.000219723
0.000396156
0.000539135
0.00221905
0.00242812
0.000745695
0.000503513
0.000427619
0.000631546
0.000775924
0.000309857
0.000599173
0.00237983
0.00231188
0.000548348
0.000609773
0.000350802
0.000402676
0.00028922
0.000656635
0.000316366
0.000231825
0.000260542
0.00227487
0.00251241
0.0012083
0.00095578
0.000336202
0.000655513
0.000770552
0.00120355
0.000902819
0.00065862
0.000556744
0.000429882
0.000490048
0.00239013
0.00264017
0.00130905
0.000510827
0.000670286
0.000849936
0.00121234
0.00112862
0.000738269
0.000721189
0.000995489
0.000803467
0.000655927
0.000725221
0.000631139
0.00250437
0.0028346
0.000710378
0.000861468
0.000688145
0.00105626
0.0014318
0.00100064
0.00084428
0.00103268
0.00104825
0.00105211
0.00170885
0.000913632
0.000945
0.000742735
0.0010426
0.00237432
0.00311014
0.000988549
0.00104201
0.00112781
0.00113669
0.00116997
0.000983766
0.000589158
0.000669411
0.000851745
0.000823821
0.00103055
0.000915478
0.000548105
0.00105796
0.0011827
0.000959285
0.00108544
0.00216642
0.00274563
0.00152143
0.00131689
0.00130113
0.00062693
0.000453369
0.000771348
0.000594968
0.000656541
0.000770205
0.000693357
0.000545999
0.000468223
0.000224974
0.00049451
0.00114547
0.000853406
0.000955384
0.0013819
0.000516139
0.0034142
0.00178271
0.0016979
0.00160082
0.00103531
0.000699288
0.00102832
0.000630149
0.000740725
0.000578081
0.000458067
0.00059769
0.000523393
0.000981934
0.000833969
0.000679139
0.00035801
0.000661441
0.000972145
0.000530685
0.0007546
0.00149259
0.00334218
0.00411796
0.00269782
0.00133832
0.00166614
0.00150297
0.00133963
0.000836097
0.0015667
0.00155159
0.000719622
0.00107678
0.000673973
0.000516232
0.00145114
0.000905907
0.000728657
0.000767151
0.00077187
0.00091772
0.00126812
0.000775341
0.000632696
0.000592428
0.000446015
0.00116758
0.00363831
0.00276383
0.00128274
0.00119831
0.00223273
0.0012022
0.000915054
0.00102333
0.000988797
0.000618749
0.000542345
0.000564261
0.000569196
0.000637239
0.000725931
0.000837751
0.000847534
0.00168093
0.000747613
0.000952854
0.000994538
0.000552367
0.00038804
0.000563288
0.000687597
0.00177182
0.000801151
0.00229317
0.00125692
0.00106091
0.000997157
0.0014798
0.00175847
0.000487886
0.000519735
0.000652568
0.000354458
0.000237125
0.00041532
0.000298607
0.000636728
0.000503926
0.000225815
0.000635089
0.000473567
0.000552479
0.000827254
0.00146973
0.00180246
0.000787972
0.000710099
0.00111242
0.000915871
0.000840948
0.000829373
0.00286027
0.00282951
0.000669851
0.000301074
0.000191772
0.000577196
0.000276048
0.000352481
0.000606371
0.000426943
0.00028207
0.000303297
0.000185086
0.000385863
0.000550917
0.000674667
0.000356716
0.000272153
0.000411046
0.000668556
0.00025816
0.000399674
0.000419841
0.000567522
0.000446433
0.000278164
0.000218979
0.000472963
0.000506026
0.000460695
0.000560816
0.000576244
0.000622256
0.000468452
0.000139115
0.000403687
0.000213187
0.000338657
0.00041704
0.000433459
0.00033882
0.00019263
0.000364752
0.000328131
0.000276222
0.000227308
0.000107034
8.94891e-05
0.000110973
0.000120053
0.000101356
0.000112719
0.000224124
0.000452211
0.000385788
0.000299144
0.0002277
9.28049e-05
0.00036427
9.98502e-05
9.89177e-05
0.000202864
0.000378389
0.000704368
0.000497852
0.000374744
0.0020214
0.00206625
0.00037522
0.00222911
0.00219279
0.00049952
0.000461321
0.000497721
0.00224866
0.0022809
0.000544756
0.000328174
0.000167857
0.000285147
0.00039847
0.002292
0.00223513
0.00063454
0.000558336
0.000142138
0.000591839
0.000211191
0.000326017
0.000449051
0.00227715
0.00231465
0.000636004
0.000624547
0.000369266
0.000622867
0.000399782
0.000573283
0.000726074
0.000548501
0.000491
0.00229846
0.00237848
0.000570719
0.000431009
0.00047202
0.00049246
0.000514858
0.000815948
0.00075399
0.000531229
0.000554259
0.000441719
0.000528102
0.00229626
0.00254433
0.000486933
0.000856271
0.000601318
0.000528409
0.00089755
0.000842906
0.000737981
0.000652424
0.000679792
0.000714477
0.000346003
0.000441256
0.000589303
0.00235314
0.00270532
0.000695269
0.000870843
0.000439961
0.000494281
0.00149836
0.00101121
0.000865234
0.000643851
0.00153657
0.00103146
0.00146432
0.000929303
0.000699555
0.000489832
0.000489892
0.00251748
0.00275409
0.000664135
0.000839986
0.000664089
0.00105486
0.0012825
0.00109086
0.000885446
0.000582754
0.000938602
0.000845974
0.000739007
0.00020296
0.000511993
0.00110669
0.00119101
0.000924474
0.000956576
0.00239024
0.00289956
0.000930261
0.00095436
0.000995186
0.00103595
0.000851272
0.000904953
0.000760429
0.000528924
0.000648534
0.000450715
0.000656269
0.00074789
0.000454928
0.000663157
0.000589047
0.000178957
0.000543298
0.000779701
0.00178353
0.00212543
0.00252041
0.00185497
0.00137389
0.00153523
0.000782619
0.000401525
0.000967579
0.000675476
0.000526472
0.000539121
0.000348778
0.000581034
0.000737967
0.000694389
0.000576335
0.000672848
0.00117907
0.00144164
0.00152901
0.00153963
0.00163653
0.00139091
0.00288242
0.00177711
0.00127256
0.00284627
0.00121285
0.000778549
0.000754113
0.00146587
0.000858046
0.000753104
0.000591179
0.000440612
0.000654551
0.000809098
0.000666826
0.000850832
0.000583066
0.000645753
0.000658587
0.000274893
0.000363218
0.000862131
0.000802629
0.00133354
0.0019478
0.00394176
0.00255891
0.0014767
0.000922403
0.00145395
0.000891426
0.00106996
0.0012514
0.00166945
0.000636596
0.000502446
0.000692357
0.00103026
0.000943943
0.00113912
0.000815817
0.00132576
0.00145644
0.000934368
0.00102217
0.00110403
0.000574346
0.000509659
0.000775468
0.000313209
0.000900469
0.00175031
0.0038504
0.00196479
0.00144436
0.000935368
0.00178851
0.0012845
0.000766505
0.000829748
0.00102397
0.000576598
0.000445599
0.00044436
0.000394186
0.000578217
0.000929256
0.000656031
0.0006676
0.000399456
0.000644449
0.0015831
0.00112254
0.00132744
0.000867281
0.000238549
0.000420626
0.000554909
0.000637536
0.00163619
0.00170765
0.00254548
0.00127373
0.000910498
0.000824379
0.00172118
0.00134095
0.000915451
0.00044066
0.000504071
0.000368246
0.000239375
0.000340507
0.000378438
0.000485396
0.000391014
0.000292006
0.000294222
0.000222147
0.00135233
0.00072545
0.00058584
0.00137486
0.0014431
0.00148944
0.000714398
0.000843877
0.000442491
0.000967785
0.000867883
0.00112277
0.00259983
0.00206948
0.000645076
0.000256301
0.00018664
0.000424124
0.000150124
0.000444283
0.000587431
0.000440847
0.000252069
0.000176596
0.000303582
0.000305978
0.000355169
0.00045812
0.000368265
0.000221626
0.000184638
0.000387781
0.000442343
0.000369602
0.000199327
0.000421719
0.000519524
0.000529773
0.000675025
0.000211913
0.000255956
0.000408321
0.000465613
0.000383079
0.000487196
0.000748268
0.000767287
0.000317667
0.000128832
0.000188841
0.000301789
0.000386265
0.000364993
0.000363382
0.000311023
0.000226979
0.000368997
0.000365848
0.0002097
0.000186949
8.36445e-05
8.23718e-05
0.000113615
0.000123517
7.66288e-05
0.000131595
8.56769e-05
8.78556e-05
0.000203094
0.000535557
0.000411214
0.000277736
0.0002296
0.000243587
0.000258533
8.29655e-05
0.000106411
0.000213203
0.000366086
0.000715365
0.00037834
0.000400471
0.00208377
0.00211669
0.000248954
0.0022167
0.00214075
0.000367602
0.000355065
0.000539267
0.00219374
0.00216628
0.000597632
0.000447362
0.00021301
0.000412243
0.000361194
0.00227009
0.00224313
0.000450208
0.00044452
0.000309525
0.000205224
0.000324608
0.000363612
0.00056565
0.00231201
0.00223629
0.000531009
0.000695358
0.000435549
0.000424567
0.000683772
0.000679848
0.000479935
0.000147178
0.000384763
0.00231018
0.00233244
0.00067095
0.000672866
0.000282487
0.000602813
0.000663005
0.00033776
0.000163964
0.000576943
0.000506868
0.000338903
0.000348356
0.00235538
0.00237421
0.000590217
0.000677344
0.000409749
0.000492774
0.000499531
0.000584933
0.000897013
0.000779951
0.000534358
0.000537685
0.000397701
0.000262415
0.00037492
0.00224799
0.00251009
0.000789958
0.000782642
0.000565194
0.000614322
0.000678187
0.000872828
0.00114541
0.000473468
0.000761687
0.000875933
0.000618545
0.000562442
0.00049754
0.000316546
0.000508241
0.0023715
0.00278877
0.000708347
0.000536329
0.000852875
0.000778179
0.00102471
0.000981919
0.00116323
0.000471155
0.000638118
0.00110414
0.000915864
0.000783593
0.00129062
0.00102561
0.000571984
0.000728699
0.000525346
0.00229402
0.00278862
0.0010297
0.00075457
0.000927017
0.00111457
0.0011071
0.000991932
0.00114932
0.000730055
0.000662672
0.000978964
0.000991589
0.000848883
0.000990387
0.00101529
0.000512733
0.00052745
0.000904458
0.000685817
0.0008104
0.00229336
0.00269035
0.00120667
0.000793576
0.000963119
0.00156444
0.00110213
0.000753383
0.00092282
0.000641351
0.000691245
0.000734909
0.00100558
0.000929055
0.000907977
0.000521343
0.000602184
0.000497284
0.00110019
0.00112428
0.000999951
0.00086115
0.000543122
0.00212704
0.00277502
0.00147815
0.000727336
0.00123097
0.0012562
0.00103014
0.000941858
0.000535112
0.000245222
0.000249146
0.000176075
0.000461791
0.000954039
0.000349135
0.00053964
0.000393702
0.000562199
0.000522498
0.000889024
0.000556762
0.00165183
0.00088249
0.00171072
0.00231052
0.00274245
0.00178661
0.00118996
0.00171751
0.00217401
0.0012645
0.00140245
0.00148906
0.000466149
0.000579945
0.000831671
0.00100589
0.000573731
0.00102704
0.000407293
0.00117481
0.000628786
0.000857786
0.000486502
0.000545316
0.000841172
0.000344245
0.000582564
0.000909646
0.00111516
0.00210306
0.00224801
0.00385955
0.00315013
0.00216452
0.00113243
0.000820684
0.000668724
0.00099996
0.000370135
0.00103816
0.000506363
0.000494075
0.000807509
0.000505975
0.00140988
0.00097707
0.000749488
0.00116458
0.000786786
0.000675451
0.000840178
0.00104788
0.000948284
0.000898942
0.000558259
0.000655675
0.00113632
0.000522137
0.000435842
0.00180184
0.00443572
0.00136379
0.00134327
0.00103287
0.000987883
0.00130082
0.00073191
0.000851471
0.00108802
0.0006536
0.000615313
0.000571211
0.000528547
0.000841721
0.000725029
0.000597679
0.000470846
0.000654726
0.00100235
0.000753291
0.000976476
0.000919173
0.00103139
0.00152476
0.000662531
0.000795984
0.000662708
0.000805316
0.000496205
0.000811019
0.00078342
0.00272582
0.000672461
0.000761921
0.000628739
0.0018672
0.00144196
0.0011774
0.000484132
0.000364981
0.000294893
0.000283524
0.000347266
0.000384634
0.000409079
0.000269944
0.000517321
0.000244585
0.000243455
0.000302471
0.000381435
0.00046284
0.000573136
0.00113045
0.00136069
0.00160456
0.000389427
0.000824134
0.000989304
0.000547114
0.000763165
0.00104903
0.00133224
0.00166933
0.00149806
0.000644894
0.000191725
0.000267171
0.000186653
0.000263097
0.000457555
0.000484389
0.00036764
0.000283906
0.000142547
0.000337886
0.000335807
0.000334461
0.000235562
0.000387961
0.000178828
0.000220799
0.000249942
0.000197062
0.000426632
0.000340031
0.000287402
0.000279216
0.000502729
0.00056508
0.000376627
0.000669428
0.000230658
0.000270923
0.000166533
0.000345659
0.000309889
0.000437845
0.000838228
0.000969427
0.000285036
0.000140153
0.000273524
0.00027069
0.000413651
0.000316028
0.000240966
0.000274192
0.000222078
0.000354446
0.000343793
0.000155386
0.000136899
7.0534e-05
9.62438e-05
0.00015478
0.000135248
7.18998e-05
0.000121486
9.56309e-05
0.000132955
0.000116594
9.18701e-05
0.000202964
0.000559979
0.000296842
0.000232288
0.000224841
0.000134216
0.000238373
6.22872e-05
9.30149e-05
0.000251382
0.000383213
0.000681068
0.000289968
0.000383175
0.00215135
0.00205098
0.000482288
0.00224331
0.0022079
0.000349308
0.000176499
0.000342855
0.00219532
0.00221254
0.000442845
0.000243988
0.000345247
0.000526562
0.00047531
0.00221395
0.00224257
0.000425461
0.000581207
0.000438216
0.000344391
0.000355472
0.000306796
0.000474195
0.00226799
0.0022646
0.000539723
0.000501562
0.000424292
0.000317301
0.000408689
0.000559583
0.000411973
0.000209122
0.000396153
0.00234192
0.00230109
0.00055672
0.000560639
0.00010574
0.000469411
0.000584374
0.000553695
0.000411664
0.000411717
0.000516283
0.000254514
0.000351642
0.0023005
0.00233103
0.000608005
0.000796569
0.000288342
0.000584634
0.000770273
0.000705764
0.000472803
0.000944862
0.000423153
0.000287122
0.000407048
0.000461533
0.000573451
0.00235349