/*--------------------------------*- C++ -*----------------------------------*\
  =========                 |
  \\      /  F ield         | OpenFOAM: The Open Source CFD Toolbox
   \\    /   O peration     | Website:  https://openfoam.org
    \\  /    A nd           | Version:  7
     \\/     M anipulation  |
\*---------------------------------------------------------------------------*/
FoamFile
{
    version     2.0;
    format      ascii;
    class       volScalarField;
    location    "3.5";
    object      p;
}
// * * * * * * * * * * * * * * * * * * * * * * * * * * * * * * * * * * * * * //

dimensions      [0 2 -2 0 0 0 0];

internalField   nonuniform List<scalar> 
150000
(
-69.9036
-69.8902
-69.9477
-71.7029
-69.8918
-67.2031
-69.9843
-71.3442
-69.8497
-70.0927
-71.7985
-72.5399
-71.6255
-69.977
-67.7714
-68.3755
-63.0208
-66.3361
-70.0611
-71.4607
-72.1044
-71.2185
-69.8502
-70.3249
-71.9354
-72.5198
-72.9963
-72.5455
-71.5562
-70.1211
-65.3157
-69.1804
-66.8505
-66.9711
-69.3323
-66.446
-71.5502
-62.4514
-65.7588
-70.1092
-71.685
-72.3394
-72.5799
-71.9027
-71.2287
-69.8973
-70.6237
-72.1389
-72.5393
-73.0406
-72.9846
-72.9475
-72.5036
-71.4986
-70.2539
-61.4428
-65.6093
-66.1358
-65.084
-70.3728
-67.8482
-69.6093
-66.6374
-66.7892
-69.5964
-68.6021
-72.2721
-73.9751
-70.9559
-53.5346
-65.5689
-70.1619
-72.026
-72.4949
-72.5956
-72.6798
-72.5822
-71.7604
-71.4409
-70.047
-70.9463
-72.3871
-72.5732
-73.0838
-73.0112
-73.0932
-72.9569
-72.8919
-72.4566
-71.442
-70.3729
-58.495
-61.6233
-62.6022
-61.2346
-65.7004
-66.4137
-66.9287
-66.3458
-65.2019
-70.4861
-69.3068
-69.8777
-71.4222
-69.6988
-67.275
-67.0165
-69.8067
-69.6076
-72.9539
-74.1927
-72.4006
-73.5644
-71.0188
-62.8106
-65.8059
-70.24
-72.3624
-72.5373
-72.5852
-72.6816
-72.5911
-72.6518
-72.4652
-71.6999
-71.7038
-70.2834
-71.2456
-72.6615
-72.617
-73.1192
-73.0369
-73.1133
-73.0886
-73.0707
-72.9302
-72.837
-72.3967
-71.3943
-70.4867
-56.7237
-58.9694
-59.1324
-58.0016
-61.7269
-62.7265
-63.4713
-62.2886
-61.228
-66.0084
-66.8192
-67.0324
-68.1075
-67.0824
-66.9449
-65.6056
-70.2846
-71.6076
-70.2291
-70.8089
-71.4239
-71.4872
-70.179
-68.5667
-67.7525
-69.7832
-70.3889
-73.6034
-74.4916
-72.6483
-71.9064
-72.1868
-72.985
-71.5332
-64.5325
-66.565
-70.3179
-72.6214
-72.7242
-72.582
-72.6498
-72.6005
-72.6511
-72.5935
-72.6023
-72.3663
-71.6886
-71.8904
-70.5731
-71.4849
-72.926
-72.6757
-73.1483
-73.0607
-73.1289
-73.0927
-73.2267
-73.0841
-73.0507
-72.9075
-72.7843
-72.3311
-71.3838
-70.6044
-55.8195
-57.0488
-57.0647
-56.4454
-59.2985
-59.3969
-59.629
-58.3907
-57.2789
-61.9563
-62.912
-63.7622
-64.2121
-63.3324
-62.3847
-61.6004
-65.7211
-68.45
-67.2043
-68.0988
-69.3591
-68.2113
-67.5693
-67.9049
-65.5199
-70.168
-73.1712
-70.3817
-70.4895
-71.3788
-71.3111
-71.3498
-71.5287
-70.8832
-70.1437
-69.021
-69.4905
-70.9298
-74.0531
-74.7515
-72.8124
-72.0552
-72.4436
-71.7506
-71.93
-72.4923
-72.1568
-68.3005
-67.7332
-70.3822
-72.7947
-72.8929
-72.6251
-72.623
-72.6115
-72.7101
-72.5238
-72.6072
-72.5764
-72.5478
-72.273
-71.6877
-71.9608
-70.9228
-71.6472
-73.1755
-72.7123
-73.177
-73.0825
-73.1426
-73.0964
-73.2379
-73.0004
-73.2327
-73.0826
-73.0375
-72.8907
-72.7331
-72.2765
-71.4161
-70.7272
-54.5815
-56.0192
-55.7709
-55.5301
-57.3654
-57.333
-57.3835
-56.7467
-56.1725
-59.4724
-59.4356
-59.9324
-60.4322
-58.961
-57.7954
-56.7126
-60.8999
-62.83
-63.8448
-64.3106
-64.8851
-63.9817
-63.1904
-62.4474
-61.559
-65.3446
-70.1091
-67.5492
-68.1118
-69.5232
-69.8591
-69.097
-68.5193
-68.1798
-68.6721
-65.7219
-69.7308
-74.0756
-70.8348
-70.8645
-71.3351
-71.3785
-71.8668
-71.1719
-71.3414
-71.741
-71.5999
-72
-70.4081
-69.1861
-71.2837
-74.0882
-74.8091
-72.947
-72.1832
-72.6332
-72.304
-72.2391
-71.5893
-71.7823
-72.1815
-72.7669
-70.7021
-69.3292
-70.5231
-72.9674
-73.0079
-72.7151
-72.6056
-72.6357
-72.764
-72.6041
-72.7447
-72.4325
-72.5521
-72.5796
-72.4866
-72.1914
-71.6778
-72.0279
-71.338
-71.7759
-73.3984
-72.7267
-73.2137
-73.1107
-73.1554
-73.0945
-73.2574
-72.9934
-73.0513
-73.0172
-73.2413
-73.0789
-73.0256
-72.8775
-72.6834
-72.211
-71.4832
-70.8542
-53.6996
-54.6526
-54.5444
-54.4677
-55.9942
-55.9678
-56.2617
-55.5068
-55.344
-57.0753
-57.4967
-57.5365
-58.4054
-57.2768
-56.5128
-55.8923
-59.5822
-59.5269
-60.3729
-60.9838
-60.7659
-59.8275
-58.3965
-57.0141
-56.4171
-61.6486
-63.4876
-64.2364
-64.3183
-64.9079
-65.4824
-64.7821
-63.9475
-62.9007
-62.6005
-60.9374
-65.5827
-70.2998
-68.2222
-68.3463
-69.628
-70.1185
-69.6553
-69.2015
-69.0947
-68.9886
-69.0967
-70.0115
-66.6574
-69.1626
-74.5994
-71.4901
-71.3566
-71.5209
-71.62
-72.1576
-71.5905
-71.6002
-70.9775
-71.4761
-71.9894
-72.281
-73.9762
-72.535
-69.0234
-71.3252
-74.0091
-74.8002
-72.984
-72.2185
-72.825
-72.3775
-72.5833
-72.1393
-72.02
-71.4091
-71.8448
-72.1455
-73.1207
-71.168
-71.213
-70.7565
-73.1243
-73.1451
-72.799
-72.5974
-72.6874
-72.8117
-72.6824
-72.8078
-72.9124
-72.6668
-72.3623
-72.504
-72.6031
-72.4538
-72.1372
-71.6581
-72.0979
-71.7842
-71.9336
-73.5623
-72.7876
-73.2566
-73.1447
-73.1682
-73.0954
-73.264
-72.9995
-73.0675
-73.0765
-73.0252
-73.0285
-73.2444
-73.0709
-73.0154
-72.8678
-72.6354
-72.1289
-71.5691
-70.9825
-53.1664
-53.699
-53.7235
-53.7887
-54.6627
-54.6599
-54.769
-54.4671
-54.1684
-55.867
-55.9112
-56.4162
-56.5985
-56.1079
-55.2309
-55.234
-56.5066
-57.4899
-57.6381
-58.4587
-58.3866
-58.2987
-56.927
-56.1315
-55.7571
-60.3922
-59.5461
-60.6226
-60.9289
-61.4138
-61.6835
-60.2221
-59.453
-58.2531
-56.8051
-55.9666
-62.5854
-64.1807
-64.5787
-64.8242
-65.4478
-65.6842
-66.1028
-65.2043
-64.482
-63.9246
-62.917
-62.2499
-61.4686
-66.2225
-71.0198
-68.6424
-69.0205
-69.8157
-70.203
-70.1604
-70.1503
-69.2662
-68.9918
-69.1875
-69.56
-69.9917
-72.2057
-67.6312
-68.6238
-74.3816
-72.092
-71.9001
-71.8438
-71.8365
-72.4805
-71.8079
-72.3365
-71.4351
-71.2688
-70.8927
-71.5466
-72.6126
-73.1649
-76.2459
-75.4032
-68.989
-71.1643
-73.8082
-74.8562
-72.8433
-72.2654
-72.9879
-72.4619
-72.782
-73.1057
-72.4439
-71.9775
-71.8059
-71.3397
-71.7017
-72.066
-73.3859
-71.6394
-72.8002
-71.0509
-73.1708
-73.2815
-72.8994
-72.6376
-72.7601
-72.8771
-72.7719
-72.881
-72.9914
-72.9307
-72.83
-72.5869
-72.3064
-72.4742
-72.58
-72.4339
-72.1175
-71.7039
-72.1671
-72.1826
-72.0388
-73.6623
-72.8455
-73.2942
-73.1772
-73.1827
-73.1025
-73.2529
-73.0126
-73.0734
-73.0924
-73.2049
-73.0512
-72.996
-73.0288
-73.2451
-73.0672
-73.0066
-72.8617
-72.5891
-72.0546
-71.6619
-71.107
-52.5134
-53.1554
-53.2744
-53.1167
-53.6853
-53.7593
-53.8767
-53.6929
-53.7223
-54.7546
-54.7136
-54.8675
-54.9621
-54.6343
-54.3488
-54.1081
-55.8849
-56.0357
-56.3422
-56.4016
-56.9095
-56.805
-55.9261
-55.094
-55.011
-56.1024
-57.6027
-57.527
-58.3867
-58.8194
-58.8337
-58.3332
-57.9901
-56.792
-56.1248
-55.7346
-59.4791
-60.3459
-60.6634
-61.241
-61.5782
-61.9199
-62.2604
-61.4872
-59.948
-59.2448
-57.931
-56.7325
-55.2733
-62.4493
-64.4815
-64.6233
-65.2139
-65.7131
-66.1061
-66.5064
-66.9398
-65.7429
-64.6832
-64.1476
-63.5944
-62.6336
-61.8093
-60.9635
-66.9988
-71.3187
-69.4821
-69.8071
-70.1397
-70.4255
-70.5987
-70.8129
-71.6211
-69.6596
-69.0735
-68.7239
-69.2559
-70.1576
-70.6803
-73.7338
-70.3311
-68.5243
-73.9069
-72.3915
-72.6432
-72.3812
-72.1965
-72.9007
-72.2167
-72.7273
-73.3436
-71.8752
-71.2806
-70.9507
-70.8531
-71.6103
-72.8918
-74.0637
-78.0428
-78.4027
-69.3071
-71.1678
-73.5525
-74.7837
-72.7144
-72.3633
-73.0971
-72.5691
-72.9653
-73.1893
-72.9062
-72.9941
-72.2687
-71.8564
-71.6138
-71.2311
-71.5257
-72.0551
-73.5412
-72.5578
-73.8918
-71.3666
-73.2034
-73.3349
-73.0164
-72.6942
-72.8473
-72.9521
-72.8347
-72.9491
-73.0614
-72.9891
-73.1116
-72.8756
-72.7538
-72.5073
-72.2729
-72.4338
-72.5642
-72.4014
-72.129
-71.7031
-72.2181
-72.4502
-72.0379
-73.7212
-72.8781
-73.3214
-73.2111
-73.1915
-73.106
-73.2377
-73.02
-73.0804
-73.1052
-73.2216
-73.5616
-73.1895
-73.0268
-72.9674
-73.0204
-73.2336
-73.0654
-72.9984
-72.8574
-72.5422
-71.999
-71.7585
-71.2227
-52.1733
-52.5095
-52.4778
-52.5309
-53.1568
-53.1716
-53.2798
-53.144
-53.024
-53.7425
-53.6922
-53.8913
-53.914
-53.8798
-53.7242
-53.5901
-54.7597
-54.7889
-54.9529
-54.9884
-54.9274
-54.965
-54.5688
-54.2514
-54.0952
-55.6049
-56.3317
-56.3668
-56.6221
-56.9053
-56.7542
-56.9701
-56.1975
-55.4855
-54.8932
-54.7232
-56.3624
-57.7198
-57.6231
-58.4773
-58.8479
-59.02
-59.2559
-58.6152
-58.9378
-58.0439
-56.6936
-55.7708
-55.5534
-59.6762
-60.2609
-61.4842
-61.316
-61.7319
-62.2917
-62.3688
-62.7796
-62.1277
-60.9233
-60.9264
-59.1649
-57.4236
-56.0226
-54.9454
-63.205
-65.1481
-64.6212
-65.3752
-65.9777
-66.4812
-66.7989
-67.6056
-67.9628
-66.2838
-65.5298
-64.5153
-63.8179
-62.714
-62.4938
-62.2946
-60.6228
-67.4165
-70.8467
-70.2566
-70.7847
-70.7194
-71.2093
-71.045
-71.6884
-72.281
-72.7345
-70.9405
-69.044
-68.6441
-68.4102
-69.083
-70.3364
-71.2939
-74.2631
-70.4848
-68.522
-73.6843
-72.4482
-73.1475
-72.5879
-72.5059
-73.3272
-72.65
-73.0676
-73.4291
-73.1046
-73.1858
-71.4766
-70.9947
-70.6897
-70.8138
-71.6281
-73.2243
-75.3369
-78.9453
-80.3341
-69.6091
-71.3221
-73.3582
-74.6778
-72.7708
-72.3576
-73.1012
-72.6204
-73.0806
-73.3048
-72.9495
-72.9994
-72.8671
-72.8251
-72.1468
-71.6605
-71.4761
-71.2084
-71.4981
-72.2506
-73.4605
-73.351
-74.9235
-71.6617
-73.2367
-73.3842
-73.1533
-72.7809
-72.9487
-73.0185
-72.8896
-73.0111
-73.116
-73.0456
-73.1567
-73.4142
-73.063
-72.8196
-72.688
-72.4294
-72.249
-72.4062
-72.5723
-72.3926
-72.162
-71.6619
-72.2286
-72.5696
-72.0966
-73.7581
-72.9118
-73.325
-73.2463
-73.1941
-73.1203
-73.237
-73.0324
-73.0912
-73.1214
-73.2339
-73.5756
-73.8157
-73.5479
-73.1731
-73.0061
-72.9477
-73.009
-73.2228
-73.0632
-72.9919
-72.8538
-72.4937
-71.9722
-71.8623
-71.3228
-51.7977
-52.1433
-52.1352
-52.1478
-52.5354
-52.4572
-52.6183
-52.484
-52.4855
-53.1782
-53.1652
-53.2526
-53.1882
-53.2491
-53.0761
-53.0504
-53.6934
-53.6757
-53.856
-53.8453
-53.9219
-53.9229
-53.8462
-53.6485
-53.5489
-54.6387
-54.8705
-54.9834
-55.0598
-54.979
-54.9561
-54.9768
-54.9184
-54.485
-54.1808
-53.8817
-55.3205
-56.2696
-56.4158
-56.5644
-56.7991
-56.586
-56.8127
-56.6327
-57.3028
-56.1171
-55.3684
-54.7904
-54.8333
-57.183
-57.6746
-57.684
-58.5635
-58.8528
-59.0755
-59.3506
-59.4715
-59.119
-58.5425
-58.5984
-57.4308
-56.3654
-55.6404
-55.4143
-60.1481
-60.213
-61.5722
-61.4414
-62.162
-62.4445
-63.1975
-63.301
-63.352
-62.4451
-61.5856
-60.9788
-60.3927
-58.8107
-57.182
-56.2106
-53.3081
-63.2479
-64.9863
-64.6113
-65.695
-66.1431
-66.4843
-67.1744
-67.7761
-68.303
-68.3309
-67.2782
-65.8862
-65.2873
-64.148
-63.6831
-63.3054
-62.44
-62.7758
-60.7545
-67.4847
-70.0822
-70.5203
-71.5464
-71.3701
-71.7254
-71.7001
-72.4254
-72.9917
-72.9017
-72.4714
-72.4347
-70.2624
-68.5574
-68.0599
-67.9868
-69.1745
-70.3297
-71.4648
-73.9465
-70.3865
-68.4808
-73.5189
-72.6529
-73.6399
-72.8397
-72.6255
-73.4925
-72.9196
-73.3842
-73.5603
-73.1166
-72.8008
-73.2736
-72.8707
-70.9909
-70.6162
-70.4698
-70.7567
-71.7704
-73.7823
-76.0953
-79.249
-80.3901
-69.9361
-71.5357
-73.2314
-74.5852
-72.8826
-72.4326
-73.1114
-72.6904
-73.1944
-73.3856
-73.0127
-73.0114
-73.399
-73.0023
-72.7998
-72.6787
-72.007
-71.5458
-71.4118
-71.389
-71.4865
-72.4018
-73.4138
-73.5044
-74.9257
-71.944
-73.2606
-73.5024
-73.2499
-72.8637
-73.0366
-73.0723
-72.9491
-73.0711
-73.1576
-73.0905
-73.2109
-73.465
-73.7464
-73.3693
-73.0095
-72.7551
-72.6191
-72.3613
-72.232
-72.3972
-72.5673
-72.3853
-72.2155
-71.7133
-72.1879
-72.6223
-72.3284
-73.7814
-72.9712
-73.3173
-73.2844
-73.2052
-73.149
-73.2409
-73.0555
-73.1083
-73.1351
-73.246
-73.5871
-73.8379
-74.0949
-73.7937
-73.5407
-73.1434
-72.9829
-72.9372
-73.0033
-73.1948
-73.063
-72.984
-72.8504
-72.4447
-71.984
-71.9867
-71.406
-51.4753
-51.7421
-51.7556
-51.7732
-52.0929
-52.0961
-52.1726
-52.1381
-52.2245
-52.5502
-52.5321
-52.5556
-52.6275
-52.5995
-52.5336
-52.456
-53.1448
-53.1959
-53.2235
-53.2135
-53.1361
-53.1255
-53.1398
-53.0444
-53.0542
-53.65
-53.5635
-53.8627
-53.838
-53.8735
-53.7878
-53.9414
-53.8562
-53.7674
-53.6255
-53.4397
-54.5405
-54.6648
-54.8916
-55.0598
-54.9444
-54.8325
-55.0123
-54.9018
-54.9006
-54.8091
-54.251
-54.0187
-53.7566
-54.996
-55.7641
-56.3442
-56.4141
-56.6567
-56.5024
-56.7222
-56.8155
-56.7534
-56.5149
-56.0446
-55.8152
-55.0717
-54.6782
-54.8766
-57.3357
-57.6269
-57.6158
-58.4531
-58.8053
-59.1297
-59.5893
-59.4617
-59.7746
-59.461
-58.7775
-58.6416
-57.9479
-57.0875
-56.0713
-55.5951
-55.3444
-60.059
-60.313
-61.3581
-61.9098
-62.4034
-62.9627
-63.4774
-63.6583
-63.9298
-63.9455
-62.8238
-62.3822
-61.4432
-60.8394
-60.3051
-58.9834
-57.5119
-55.9054
-54.4706
-63.2766
-64.697
-64.8872
-66.0905
-66.1372
-66.7308
-67.5857
-68.4972
-68.669
-68.7089
-68.3063
-67.7382
-66.3638
-65.4125
-64.6643
-63.4756
-63.3681
-62.677
-61.6286
-61.9697
-58.9995
-67.4414
-69.7744
-70.5632
-72.0415
-71.7426
-71.9056
-72.4769
-73.0054
-73.5046
-73.2348
-72.5817
-71.842
-72.544
-71.7956
-69.4213
-68.1409
-67.7577
-67.7807
-68.8525
-70.539
-71.5976
-72.7601
-69.6529
-68.8928
-73.2344
-72.919
-73.9635
-73.0973
-72.7628
-73.5831
-73.1069
-73.5874
-73.6189
-73.1427
-72.7974
-72.7855
-72.8794
-73.0355
-72.4045
-70.6257
-70.3304
-70.4029
-70.8864
-71.9842
-74.2651
-76.6286
-78.9134
-79.2299
-70.4579
-71.7924
-73.1762
-74.4971
-73.0532
-72.6108
-73.1391
-72.8141
-73.2949
-73.4342
-73.0666
-73.0183
-73.3391
-73.4726
-73.4047
-73.0179
-72.7688
-72.5486
-71.784
-71.4929
-71.3854
-71.4289
-71.5067
-72.5074
-73.5468
-73.1045
-74.4192
-72.2692
-73.2965
-73.5847
-73.3248
-72.9315
-73.0986
-73.1234
-73.0079
-73.1342
-73.1829
-73.1152
-73.2544
-73.5141
-73.8222
-74.0498
-73.6565
-73.3307
-72.9601
-72.6833
-72.5574
-72.3238
-72.2356
-72.3951
-72.5541
-72.3723
-72.2571
-71.7417
-72.0964
-72.515
-72.5471
-73.7587
-73.0357
-73.3257
-73.3155
-73.2206
-73.1788
-73.2465
-73.079
-73.1277
-73.1462
-73.2639
-73.5959
-73.8632
-74.1031
-74.3491
-74.0866
-73.7696
-73.5293
-73.1094
-72.9586
-72.9346
-73.0033
-73.1788
-73.0631
-72.979
-72.8476
-72.3982
-72.0378
-72.1235
-71.4745
-51.236
-51.4269
-51.4607
-51.4923
-51.7245
-51.7594
-51.7936
-51.7828
-51.762
-52.0914
-52.0577
-52.1374
-52.2154
-52.2212
-52.1428
-52.1985
-52.5356
-52.5006
-52.5655
-52.6298
-52.4995
-52.5796
-52.6051
-52.4946
-52.4745
-53.1513
-53.1823
-53.155
-53.1634
-53.0977
-52.9635
-53.0307
-53.1107
-53.0962
-53.003
-52.9862
-53.6908
-53.5109
-53.7929
-53.8711
-53.7248
-53.7204
-53.6622
-53.7728
-53.7594
-53.7901
-53.6414
-53.5042
-53.2417
-54.5443
-54.6794
-54.8545
-54.9141
-54.9225
-54.943
-54.876
-55.0802
-54.9847
-54.8186
-54.6646
-54.7777
-54.2203
-53.9638
-53.8118
-55.261
-55.7545
-56.2034
-56.4151
-56.5175
-56.7418
-56.8114
-56.8783
-57.0665
-56.8586
-56.6094
-56.2463
-56.2414
-55.6577
-54.9046
-54.6649
-54.8418
-57.3763
-57.8113
-57.646
-58.3915
-59.0758
-59.1801
-59.802
-60.132
-59.9611
-59.9064
-59.6223
-59.0842
-58.6735
-58.3533
-57.8976
-56.3515
-55.9307
-55.3977
-55.3719
-59.5646
-60.9367
-61.2656
-62.0558
-62.5828
-63.1874
-63.5542
-63.8414
-63.9233
-64.0879
-64.0895
-63.4278
-62.6503
-62.0817
-61.4886
-60.5033
-59.6529
-58.9885
-57.4165
-55.919
-55.2904
-63.1538
-64.412
-65.594
-66.2812
-66.432
-67.0294
-68.3895
-69.4354
-69.3793
-69.2652
-68.5541
-68.1521
-67.9992
-67.2164
-65.9286
-64.9059
-64.2218
-63.1991
-62.5798
-62.4552
-61.5526
-60.8598
-58.0903
-67.115
-69.2532
-70.3237
-72.0183
-72.182
-72.5138
-72.8044
-73.5042
-73.749
-73.4741
-72.7812
-71.9493
-71.5967
-71.8818
-72.254
-71.0027
-68.6498
-67.7232
-67.6048
-67.7886
-68.7356
-70.439
-71.4658
-71.2
-68.4206
-69.2658
-72.7621
-73.4419
-73.9897
-73.2223
-72.9651
-73.6279
-73.0874
-73.57
-73.5007
-72.9977
-72.7588
-72.7491
-72.6246
-72.9042
-73.0481
-72.8319
-71.9654
-70.3089
-70.1426
-70.4133
-71.0312
-72.235
-74.3827
-76.6251
-77.117
-76.9407
-71.0995
-72.1157
-73.2335
-74.3315
-73.1976
-72.7998
-73.1704
-72.9049
-73.3585
-73.4594
-73.1037
-73.0332
-73.2259
-73.4611
-73.8286
-73.3828
-73.4167
-73.0504
-72.6615
-72.3823
-71.7178
-71.5376
-71.3565
-71.3494
-71.5208
-72.5897
-73.3852
-72.6749
-74.0213
-72.6622
-73.3501
-73.5773
-73.3819
-72.9847
-73.1743
-73.1693
-73.0658
-73.1814
-73.1978
-73.1364
-73.2799
-73.5447
-73.889
-74.1278
-74.5779
-73.9595
-73.5579
-73.2943
-72.9149
-72.6036
-72.4878
-72.2813
-72.2251
-72.3995
-72.5514
-72.3631
-72.2698
-71.7302
-71.9509
-72.2522
-72.6848
-73.6803
-73.1038
-73.3465
-73.3451
-73.2485
-73.2117
-73.2531
-73.1028
-73.1493
-73.1578
-73.281
-73.6058
-73.8861
-74.1103
-74.3584
-74.6113
-74.3389
-74.0834
-73.7499
-73.5135
-73.0763
-72.943
-72.9376
-72.9905
-73.1877
-73.0644
-72.9786
-72.8443
-72.3579
-72.1276
-72.2344
-71.5309
-51.029
-51.2222
-51.2419
-51.2418
-51.4262
-51.4297
-51.4697
-51.4753
-51.4685
-51.7275
-51.7166
-51.8007
-51.8547
-51.8254
-51.7568
-51.8087
-52.0684
-52.0534
-52.0796
-52.1691
-52.0925
-52.213
-52.3555
-52.2101
-52.1689
-52.5376
-52.5651
-52.5576
-52.5547
-52.5114
-52.5664
-52.4898
-52.5172
-52.5046
-52.5121
-52.5185
-53.0842
-53.26
-53.2018
-53.1591
-53.004
-53.0092
-52.9951
-53.0717
-53.0672
-53.0582
-53.0583
-52.94
-52.8645
-53.6589
-53.7661
-53.7854
-53.7748
-53.8381
-53.7634
-53.7053
-53.8767
-53.9264
-53.7651
-53.7897
-53.8359
-53.6081
-53.4563
-53.2912
-54.5709
-54.7183
-54.8745
-54.8911
-54.9059
-54.8297
-54.8241
-54.9668
-55.2871
-55.0253
-55.0547
-54.7958
-54.5108
-54.6022
-54.0971
-53.9831
-53.8778
-55.5414
-55.9893
-56.0345
-56.3895
-56.4806
-56.6105
-56.9089
-57.0141
-57.3247
-57.4345
-57.1617
-56.6452
-56.7294
-56.3565
-56.2111
-55.5981
-54.8118
-54.5573
-54.6514
-57.474
-57.98
-57.7308
-58.2862
-59.4111
-59.4457
-59.98
-60.2703
-60.3625
-60.3199
-60.0808
-60.0723
-59.7339
-58.8808
-58.5891
-58.0228
-57.606
-56.5668
-55.9212
-55.5023
-55.3459
-59.2741
-61.053
-61.4043
-61.8992
-62.6193
-63.2742
-63.7533
-64.0697
-64.1798
-64.2685
-64.2415
-64.0157
-63.7571
-62.864
-62.3562
-61.6155
-60.8615
-60.4733
-59.4497
-58.7487
-56.9636
-55.6618
-55.8685
-62.9191
-63.9677
-65.3651
-66.4649
-67.0787
-67.3798
-69.2855
-70.102
-69.9326
-69.7879
-69.0177
-68.4234
-67.9066
-67.7953
-67.569
-66.717
-65.5178
-64.6114
-63.9089
-63.2878
-62.3195
-62.2488
-61.4315
-60.0131
-57.2858
-66.8893
-69.0424
-69.7668
-71.7514
-72.3603
-72.8283
-73.4168
-73.7102
-73.7841
-73.4883
-72.6989
-71.9195
-71.5938
-71.0888
-71.6199
-71.8867
-71.6734
-70.1078
-68.1147
-67.5782
-67.6609
-67.7887
-68.6426
-70.5068
-70.9013
-69.0815
-66.1491
-69.6662
-72.3846
-73.855
-74.2182
-73.5352
-73.2001
-73.6416
-73.0058
-73.4495
-73.4454
-72.8459
-72.573
-72.6415
-72.5414
-72.7535
-72.6796
-73.0969
-73.1372
-72.6578
-71.3997
-69.9473
-70.0732
-70.3926
-71.0955
-72.2069
-74.2891
-76.2075
-74.7967
-74.6167
-71.7525
-72.5238
-73.36
-74.1897
-73.3446
-72.9882
-73.2131
-73.0002
-73.3988
-73.4655
-73.1211
-73.0411
-73.191
-73.5314
-73.9611
-74.4922
-73.6732
-73.2178
-73.4404
-73.0917
-72.5459
-72.2286
-71.7057
-71.5716
-71.4018
-71.4001
-71.5405
-72.5415
-72.9544
-72.0812
-73.3553
-72.9537
-73.4155
-73.5311
-73.3966
-73.0154
-73.2416
-73.2001
-73.1129
-73.205
-73.2064
-73.1576
-73.3067
-73.574
-73.9493
-74.2082
-74.6494
-74.8671
-74.4939
-73.87
-73.5107
-73.2618
-72.8736
-72.5207
-72.4396
-72.2601
-72.2564
-72.401
-72.5589
-72.3732
-72.2545
-71.6837
-71.7562
-71.9243
-72.8733
-73.6353
-73.2039
-73.3706
-73.3847
-73.2899
-73.2477
-73.2605
-73.1277
-73.1711
-73.1685
-73.2921
-73.6231
-73.9034
-74.1174
-74.3666
-74.6058
-74.5779
-74.6162
-74.3285
-74.0809
-73.73
-73.4844
-73.0404
-72.935
-72.9455
-72.9845
-73.1741
-73.065
-72.9784
-72.835
-72.3278
-72.2405
-72.3124
-71.5722
-50.8586
-51.0099
-51.0545
-51.0599
-51.2068
-51.2215
-51.2178
-51.2424
-51.2371
-51.4188
-51.3969
-51.4213
-51.5015
-51.4917
-51.5235
-51.4666
-51.7021
-51.7512
-51.7422
-51.7864
-51.8201
-51.8409
-51.8506
-51.8077
-51.8078
-52.027
-52.1311
-52.0644
-52.1511
-52.0859
-52.1784
-52.1414
-52.1409
-52.2142
-52.1775
-52.1663
-52.4578
-52.5624
-52.5308
-52.5343
-52.4794
-52.4816
-52.5988
-52.613
-52.5487
-52.5506
-52.538
-52.5085
-52.3978
-52.9847
-53.1908
-53.075
-53.1235
-53.039
-52.9179
-52.8869
-53.0354
-53.022
-53.0856
-53.0842
-53.1057
-53.0515
-52.9223
-52.9223
-53.6906
-53.769
-53.7793
-53.7863
-53.8032
-53.4798
-53.625
-53.7794
-54.2002
-53.8213
-54.0418
-53.8511
-53.8837
-53.7706
-53.6113
-53.4557
-53.1438
-54.6805
-54.6412
-54.8905
-54.8149
-54.8418
-54.8328
-54.8363
-54.844
-55.3336
-55.4849
-55.2031
-55.0721
-55.215
-54.7044
-54.5269
-54.441
-53.9336
-53.8585
-53.9974
-55.945
-56.1777
-56.2081
-56.4669
-56.4683
-56.7948
-56.9637
-57.0372
-57.4033
-57.3416
-57.4046
-57.3867
-56.9223
-56.7983
-56.5153
-56.2055
-56.0189
-55.307
-54.633
-54.5411
-54.5869
-57.8883
-57.9167
-57.5835
-58.0808
-59.3513
-59.3896
-59.9923
-60.2762
-60.4767
-60.4984
-60.4975
-60.3702
-59.8642
-59.8325
-59.3591
-58.9629
-58.0852
-57.7728
-56.9313
-56.3643
-55.8094
-56.129
-55.523
-59.2301
-61.2059
-61.2407
-62.0641
-62.7853
-63.2584
-64.1381
-64.4815
-64.4374
-64.4671
-64.3304
-64.1435
-63.7094
-63.9366
-63.3009
-62.711
-62.0602
-61.4105
-60.7116
-60.1795
-59.4838
-58.541
-57.0632
-55.3786
-56.1296
-62.7578
-63.8392
-64.8193
-66.3933
-67.4369
-67.9799
-69.856
-70.4508
-70.2465
-70.0583
-69.1546
-68.6616
-68.3416
-67.8878
-67.6423
-67.4687
-67.122
-66.2126
-65.074
-64.3752
-63.6247
-63.0593
-62.5663
-62.1782
-61.202
-58.6366
-56.2471
-66.4087
-68.7005
-70.3784
-71.7776
-72.3424
-72.8416
-73.7574
-73.5199
-73.5574
-73.3138
-72.623
-72.0146
-71.3376
-71.0785
-71.1257
-71.1753
-71.5405
-71.8196
-71.3217
-69.7271
-68.1564
-67.4896
-67.7794
-67.8665
-68.7604
-70.2486
-69.9384
-67.6881
-64.4322
-70.2598
-72.2187
-74.3727
-74.6007
-73.6854
-73.484
-73.5931
-72.9532
-73.415
-73.3248
-72.6652
-72.3988
-72.3486
-72.4406
-72.6929
-73.2855
-72.7351
-72.9398
-73.1344
-73.1249
-72.0989
-70.6803
-69.8874
-70.1312
-70.3822
-71.0653
-72.3177
-74.1041
-75.1261
-72.7584
-72.232
-72.4556
-72.9532
-73.5533
-74.1406
-73.467
-73.1029
-73.2201
-73.0996
-73.4381
-73.4704
-73.1274
-73.0424
-73.1873
-73.6017
-74.0757
-74.652
-74.7165
-74.2953
-73.4904
-73.1718
-73.5142
-73.0888
-72.4346
-71.9787
-71.5976
-71.6247
-71.4602
-71.3915
-71.5614
-72.4544
-72.4289
-71.3674
-72.4504
-73.1549
-73.4834
-73.5582
-73.4103
-73.0301
-73.2641
-73.2163
-73.1453
-73.2206
-73.2127
-73.1793
-73.3395
-73.6068
-73.9968
-74.2874
-74.703
-74.9032
-74.9464
-74.827
-74.402
-73.7813
-73.4987
-73.2224
-72.8142
-72.4413
-72.4732
-72.264
-72.2869
-72.4085
-72.5624
-72.3914
-72.218
-71.5983
-71.5439
-71.5848
-73.1123
-73.6641
-73.2813
-73.3952
-73.4257
-73.3304
-73.2773
-73.2624
-73.1517
-73.1902
-73.181
-73.3071
-73.6449
-73.9178
-74.1267
-74.3729
-74.5984
-74.5727
-74.6444
-74.5825
-74.6196
-74.3169
-74.0748
-73.7136
-73.4466
-73.0127
-72.9345
-72.9586
-72.9909
-73.1747
-73.0646
-72.9779
-72.8177
-72.3099
-72.3624
-72.3862
-71.6123
-50.6998
-50.8298
-50.8746
-50.8673
-50.9718
-51.0246
-51.0746
-51.0892
-51.0673
-51.1693
-51.2035
-51.2332
-51.25
-51.2209
-51.2019
-51.2119
-51.4236
-51.4262
-51.3929
-51.398
-51.4991
-51.4968
-51.548
-51.497
-51.5168
-51.6989
-51.7483
-51.7217
-51.7336
-51.8108
-51.8152
-51.7507
-51.8117
-51.8749
-51.8138
-51.7814
-51.9663
-52.0322
-52.0324
-52.1846
-52.0881
-52.0511
-52.1258
-52.1675
-52.2167
-52.2038
-52.1313
-52.1912
-52.1545
-52.4313
-52.4914
-52.4104
-52.5164
-52.465
-52.384
-52.5285
-52.6048
-52.3056
-52.5561
-52.5951
-52.5684
-52.5735
-52.4037
-52.3523
-53.0167
-53.0894
-53.054
-53.1134
-53.0679
-52.8227
-52.8638
-53.0224
-53.1633
-53.2397
-53.1234
-53.099
-53.1037
-53.0981
-53.0217
-52.9373
-52.9272
-53.8723
-53.7559
-53.8048
-53.8269
-53.7187
-53.6523
-53.5361
-53.6907
-53.9086
-54.2186
-53.9776
-53.8483
-53.855
-53.767
-53.7127
-53.7144
-53.4314
-53.4352
-53.3317
-54.8029
-54.7388
-54.9846
-54.8425
-54.8474
-54.9658
-54.8824
-54.8478
-55.4215
-55.5354
-55.7223
-55.2772
-55.2232
-54.9345
-55.0341
-54.6858
-54.3642
-54.3335
-53.9152
-53.6688
-53.8938
-56.073
-56.2279
-56.1274
-56.4334
-56.3883
-56.7773
-56.9845
-57.1876
-57.4037
-57.2933
-57.5317
-57.7686
-57.4336
-57.1436
-57.0179
-56.8253
-56.319
-55.7996
-55.7946
-55.0751
-54.6847
-54.5568
-54.4978
-58.0757
-58.2073
-57.7301
-57.9964
-59.063
-59.4724
-60.1188
-60.3603
-60.6327
-60.5764
-60.6926
-60.5889
-60.5618
-60.3029
-60.199
-59.5934
-59.085
-58.6945
-57.6285
-57.3082
-56.7759
-56.4491
-55.8535
-55.5408
-55.7172
-59.2587
-61.2549
-61.7281
-62.043
-62.8971
-63.295
-64.4685
-64.6038
-64.6001
-64.5883
-64.4838
-64.3785
-64.1931
-64.0184
-63.8502
-63.5639
-62.9936
-62.4977
-61.7226
-61.1176
-60.6457
-59.7258
-59.2916
-58.3875
-56.4754
-55.8268
-56.4558
-62.6713
-63.3989
-64.8667
-66.2704
-67.5931
-68.2114
-70.1183
-70.2081
-70.3791
-69.8801
-69.2495
-68.9266
-68.4023
-68.301
-68.1879
-67.4993
-67.4237
-67.2337
-66.7457
-65.6802
-64.7266
-64.0281
-63.5357
-62.7423
-62.67
-62.1329
-61.076
-58.5892
-55.9397
-66.2276
-68.8785
-70.4213
-71.7668
-72.5001
-73.2231
-73.8127
-73.0487
-73.5585
-73.2444
-72.5235
-71.9002
-71.2365
-71.3582
-71.1777
-71.5823
-71.02
-71.4896
-71.464
-71.558
-70.7843
-68.8103
-67.7877
-67.4786
-67.9723
-67.7935
-68.833
-69.7744
-68.8752
-67.3313
-65.3505
-70.5563
-72.312
-74.5509
-75.1332
-73.8022
-73.5797
-73.5546
-72.965
-73.3298
-73.1711
-72.4625
-72.224
-72.2201
-72.4172
-72.7301
-73.3257
-73.3972
-73.3067
-72.681
-73.1403
-73.2325
-72.9611
-71.4661
-70.1778
-69.9052
-70.3094
-70.3508
-70.8748
-72.3163
-73.7503
-73.8321
-70.7575
-70.547
-73.2575
-73.3105
-73.7283
-74.124
-73.5287
-73.1551
-73.2018
-73.1419
-73.4778
-73.4378
-73.1406
-73.0638
-73.217
-73.6399
-74.1773
-74.7886
-74.7729
-74.501
-74.6076
-74.137
-73.2772
-73.1213
-73.5303
-73.0619
-72.3779
-71.9589
-71.6172
-71.7176
-71.5699
-71.3227
-71.4984
-72.3674
-71.6865
-70.7371
-71.1863
-73.4172
-73.5434
-73.6268
-73.4464
-73.0309
-73.2754
-73.2228
-73.1792
-73.2354
-73.2183
-73.2025
-73.3787
-73.6509
-74.0471
-74.3686
-74.6981
-74.9303
-74.9277
-75.2001
-74.9648
-74.7912
-74.3154
-73.7043
-73.4938
-73.1804
-72.7496
-72.3766
-72.4607
-72.3113
-72.3119
-72.4305
-72.5443
-72.4054
-72.1587
-71.4825
-71.3365
-71.3056
-73.3319
-73.6671
-73.3314
-73.4145
-73.4675
-73.367
-73.2972
-73.2614
-73.1749
-73.2103
-73.1962
-73.3203
-73.6712
-73.9371
-74.1357
-74.3782
-74.5876
-74.5667
-74.6409
-74.7644
-74.6494
-74.5862
-74.6232
-74.303
-74.0686
-73.6957
-73.4031
-72.9979
-72.9401
-72.9745
-72.9829
-73.1709
-73.0655
-72.9774
-72.7946
-72.304
-72.4753
-72.523
-71.6858
-50.5298
-50.6621
-50.7035
-50.6893
-50.8169
-50.8347
-50.9254
-50.907
-50.8774
-50.9675
-50.9887
-51.0812
-51.0445
-51.0959
-51.0477
-51.0755
-51.1632
-51.1865
-51.2337
-51.1652
-51.2994
-51.2761
-51.2145
-51.2089
-51.2387
-51.3845
-51.4188
-51.5089
-51.4568
-51.4404
-51.4792
-51.4783
-51.5626
-51.5539
-51.5531
-51.5204
-51.6624
-51.6565
-51.6977
-51.7687
-51.7418
-51.7456
-51.8059
-51.8205
-51.8302
-51.8072
-51.7892
-51.7748
-51.7755
-52.0054
-51.986
-52.0081
-52.0615
-52.079
-51.9908
-52.1146
-52.2281
-52.1159
-52.2261
-52.1846
-52.1568
-52.1818
-52.1632
-52.0699
-52.447
-52.433
-52.4023
-52.4547
-52.4694
-52.3856
-52.3777
-52.5854
-52.6909
-52.6759
-52.5269
-52.6011
-52.5801
-52.563
-52.5327
-52.4735
-52.3677
-52.8556
-53.0439
-53.0067
-53.0843
-52.9897
-53.0106
-52.8602
-52.952
-53.0429
-53.3821
-53.3218
-53.0607
-53.1601
-53.1103
-53.0872
-53.07
-52.9676
-52.875
-52.8034
-53.8043
-53.8179
-53.7568
-53.5932
-53.7259
-53.6948
-53.4298
-53.6967
-53.9327
-54.0793
-54.5164
-54.2762
-54.002
-53.8512
-54.024
-53.8712
-53.7658
-53.6466
-53.3867
-53.4301
-53.5827
-54.8055
-54.8608
-54.8544
-54.7829
-54.8822
-54.8548
-55.0211
-54.9596
-55.0535
-55.4521
-55.7214
-55.9438
-55.7558
-55.3407
-55.342
-55.0616
-54.9294
-54.3185
-54.8464
-54.3184
-53.8154
-53.8941
-53.7267
-56.0906
-56.3436
-56.2989
-56.5091
-56.4981
-56.621
-57.0433
-57.2732
-57.6226
-57.5094
-57.7205
-57.8566
-57.8419
-57.5297
-57.4366
-57.0642
-56.897
-56.2908
-56.0708
-56.1336
-55.2927
-54.9566
-54.4415
-54.5464
-54.5614
-58.1448
-58.2012
-57.8694
-58.1038
-59.0778
-59.2812
-60.1524
-60.4168
-60.7312
-60.7556
-60.7433
-60.6932
-60.718
-60.8815
-60.5418
-60.1766
-60.0072
-59.3667
-58.9789
-58.321
-58.0064
-57.0384
-56.6424
-56.4171
-55.8338
-55.6739
-55.8134
-59.3305
-61.3163
-61.5323
-61.9246
-63.0871
-63.7322
-64.4275
-64.7085
-64.7328
-64.7272
-64.5139
-64.4367
-64.481
-64.3992
-64.5854
-64.0033
-63.6426
-63.2559
-62.9577
-62.1542
-61.3253
-60.9206
-60.1732
-59.4828
-59.274
-58.0706
-56.3819
-56.532
-56.5112
-62.3328
-63.4419
-64.3648
-66.0661
-67.2823
-68.1488
-70.1056
-70.0611
-69.9217
-69.6107
-69.305
-68.8582
-68.6351
-68.6541
-68.2876
-68.3506
-67.8598
-67.3097
-67.1286
-66.9796
-66.3063
-65.3464
-64.5903
-63.722
-63.2253
-62.3201
-62.4188
-62.068
-61.1807
-60.3012
-56.2174
-66.2798
-69.2508
-70.5258
-71.6355
-72.3151
-73.2588
-73.5105
-72.5846
-73.226
-73.118
-72.4894
-71.7418
-71.452
-71.0667
-71.0891
-71.5476
-71.5026
-71.5362
-71.0935
-71.8909
-71.3577
-71.2531
-69.4475
-67.7774
-67.55
-67.7975
-67.9056
-67.663
-68.5835
-69.9231
-68.2772
-66.5068
-64.3257
-71.0713
-72.45
-74.6549
-75.4806
-73.8172
-73.7148
-73.2868
-72.9771
-73.2945
-73.0134
-72.3057
-72.0435
-72.1468
-72.4029
-72.8149
-73.382
-73.3773
-73.0807
-73.3295
-73.2915
-72.7287
-73.1699
-73.317
-72.5917
-70.786
-69.8308
-69.7558
-70.4984
-70.1392
-70.7386
-72.0846
-73.2644
-72.3593
-69.1253
-68.9375
-73.9369
-73.5398
-73.7946
-74.1221
-73.5558
-73.1636
-73.1945
-73.2078
-73.5019
-73.3961
-73.1897
-73.0966
-73.2785
-73.7194
-74.2928
-74.8918
-74.7931
-74.5069
-74.2455
-74.3981
-74.5438
-74.0155
-73.093
-73.0619
-73.4827
-72.9348
-72.3086
-71.9804
-71.6716
-71.8673
-71.661
-71.264
-71.4009
-72.2373
-70.9501
-70.255
-70.1355
-73.7164
-73.594
-73.6651
-73.4642
-73.0358
-73.2762
-73.2287
-73.2187
-73.248
-73.2273
-73.2261
-73.4277
-73.7064
-74.1033
-74.4645
-74.7514
-74.9632
-74.9131
-75.1708
-75.2543
-75.2169
-74.9808
-74.7408
-74.2321
-73.646
-73.4711
-73.1794
-72.7167
-72.3331
-72.4895
-72.3598
-72.3494
-72.4691
-72.5378
-72.4092
-72.069
-71.371
-71.2052
-71.1113
-73.5357
-73.6149
-73.3898
-73.4306
-73.5072
-73.3999
-73.3147
-73.2697
-73.1977
-73.2249
-73.2087
-73.3345
-73.6982
-73.956
-74.1458
-74.3826
-74.5754
-74.5596
-74.6307
-74.7554
-74.8817
-74.7703
-74.6541
-74.5905
-74.6246
-74.2896