/*--------------------------------*- C++ -*----------------------------------*\
  =========                 |
  \\      /  F ield         | OpenFOAM: The Open Source CFD Toolbox
   \\    /   O peration     | Website:  https://openfoam.org
    \\  /    A nd           | Version:  7
     \\/     M anipulation  |
\*---------------------------------------------------------------------------*/
FoamFile
{
    version     2.0;
    format      ascii;
    class       volScalarField;
    location    "8.5";
    object      nut;
}
// * * * * * * * * * * * * * * * * * * * * * * * * * * * * * * * * * * * * * //

dimensions      [0 2 -1 0 0 0 0];

internalField   nonuniform List<scalar> 
18630
(
0.000134901
0.000172107
0.000170626
0.000102683
0.000441654
8.9193e-05
0.00017641
0.00055473
0.000232403
8.20595e-05
0.000769081
0.000446149
0.000457867
0.000149941
0.000199949
0.000170125
0.000160081
0.000270733
0.000114938
0.000106823
0.00103485
0.000954688
0.000775209
0.00052917
0.000462773
0.00046117
0.000139076
0.000181508
0.000147034
0.000143749
0.000197708
0.000532858
7.32305e-05
7.84713e-05
0.000169544
0.000829467
0.00126538
0.00120545
0.000637161
0.000819109
0.000974965
0.000640054
0.000453508
0.000327944
0.000842885
0.000186191
0.000175215
0.000160481
0.000280344
0.00031683
0.000515548
0.000179167
8.7822e-05
0.000144527
0.000207524
0.00017634
0.000513199
0.000729359
0.000842352
0.00118
0.0012883
0.00126839
0.00083385
0.00092102
0.000880581
0.000723035
0.000503039
0.000485643
0.00029464
0.000717034
0.000523235
0.000169903
0.000211394
0.000383263
0.000164016
0.000269301
0.00029203
0.000279947
0.000141347
0.000151002
0.000160117
0.000240285
0.000166559
0.000227616
0.000700909
0.000786265
0.000642285
0.00141656
0.000877029
0.001527
0.00127109
0.00110373
0.00116869
0.00134378
0.000697728
0.000883819
0.000903598
0.000808101
0.000861952
0.000475905
0.000460275
0.000333146
0.000543029
0.000457739
0.000478576
0.000125561
0.00024074
0.000147655
0.000273469
0.000403812
0.000300599
0.000539262
0.000215631
0.000579306
6.80949e-05
0.00011008
0.000266921
0.000168868
0.000231409
0.000163739
0.000611147
0.000862135
0.000503103
0.000572458
0.000781511
0.000749619
0.000641229
0.00115234
0.00159687
0.0014198
0.00128693
0.00123386
0.000842591
0.00100283
0.00114186
0.000727978
0.000927817
0.000904745
0.00119106
0.000898435
0.000512865
0.000537418
0.000435356
0.000344495
0.000361888
0.00033381
0.000443284
0.000379286
0.000249894
0.000233663
0.000148257
0.000402997
0.000554086
0.000300175
0.000557605
0.000475867
0.000278646
0.000163853
8.86774e-05
0.000112199
0.000249259
0.000173651
0.000222702
0.000163878
0.000137991
0.000803391
0.000518331
0.00037971
0.000357622
0.00059775
0.000544948
0.00101636
0.000698893
0.000587012
0.000807168
0.00147326
0.00128326
0.00156764
0.00140649
0.000630179
0.00128677
0.00132748
0.00102439
0.00158044
0.00170923
0.000723927
0.000816056
0.000934241
0.00109157
0.0015955
0.001026
0.000610376
0.000456768
0.000516202
0.000516461
0.000291142
0.000452822
0.000297583
0.000461138
0.000368061
0.000566515
0.00013694
0.000364993
0.000272448
0.000392367
0.000626711
0.000335046
0.000527577
0.000524941
0.000384983
0.000216839
0.000171897
0.000158298
0.000125626
0.000203501
0.000178668
0.000218478
0.000142213
0.000121037
0.000134883
0.000782517
0.00091598
0.000789788
0.00045726
0.000737977
0.000454056
0.000508199
0.000877785
0.00039911
0.000422781
0.000830692
0.000633424
0.000604814
0.000603297
0.000761709
0.001003
0.00139426
0.00151173
0.00117608
0.000913065
0.001067
0.00131414
0.00126732
0.00112052
0.00153281
0.00147972
0.000538318
0.000651326
0.000810826
0.00102469
0.00112704
0.00152978
0.00132824
0.00068679
0.000493207
0.000742981
0.000461617
0.000556525
0.000261274
0.000452087
0.000351346
0.000467232
0.000453904
0.00056943
0.000726489
0.00022068
0.00027288
0.000192104
0.000368668
0.000454227
0.00035677
0.000520347
0.000410014
0.000400588
0.000429945
0.000295917
0.000151688
9.11724e-05
0.000141569
0.000202957
0.000187615
0.000236668
0.000141756
0.000134686
0.000127585
0.000210688
0.000280314
0.000872894
0.000932839
0.000952954
0.00115784
0.00102971
0.000485185
0.000762723
0.000547829
0.000326521
0.000419009
0.000658331
0.000533237
0.000484727
0.000565784
0.00107052
0.000603102
0.000566721
0.000748276
0.000963689
0.000681791
0.00103528
0.00128217
0.00179185
0.001232
0.00106691
0.000761479
0.00104991
0.00117066
0.00070733
0.0013419
0.00128227
0.00112152
0.000432499
0.000721977
0.000700493
0.000887446
0.00127783
0.000983497
0.00127577
0.00145581
0.000660783
0.000468446
0.000618579
0.00105204
0.000565103
0.000455489
0.000276442
0.000426468
0.000468258
0.000397952
0.00041316
0.000425233
0.000836903
0.000875698
0.000257943
0.000281597
0.00023731
0.000270403
0.000479487
0.00037837
0.000520615
0.000449787
0.000402856
0.000560619
0.000767186
0.000277574
0.000262663
9.93272e-05
0.000164476
0.000218316
0.000191043
0.000251653
0.000150925
0.000150877
0.000112278
0.000256039
0.000282695
0.000374252
0.000465
0.000198024
0.000172123
0.00048502
0.000303167
0.000973134
0.000597936
0.000469285
0.000552371
0.000659154
0.000532418
0.000761228
0.000802118
0.000746642
0.000559569
0.000493008
0.000477063
0.000549365
0.000514376
0.000563776
0.00078579
0.00104115
0.000649685
0.000564831
0.000700446
0.000456784
0.000862505
0.000610327
0.00107335
0.0015398
0.00201882
0.000936443
0.00123362
0.000766944
0.00116298
0.000849892
0.00116018
0.000993689
0.00172526
0.000661286
0.000926061
0.000602397
0.000618885
0.000740318
0.000894593
0.000830261
0.00116126
0.000896503
0.00100484
0.00133086
0.000839376
0.000456331
0.000810394
0.00132674
0.000744381
0.000639644
0.00037687
0.000347685
0.00046063
0.000475591
0.000491289
0.000478536
0.000629138
0.000615859
0.000948824
0.000790587
0.000273472
0.000366764
0.000278883
0.000244114
0.000352696
0.000397034
0.000543583
0.000420784
0.000394243
0.000910649
0.000631437
0.000584779
0.000282142
0.000345666
0.000162439
0.000182249
0.000205685
0.000194406
0.000246139
0.000136946
0.000168369
0.000124322
0.000240457
0.000242593
0.000269695
0.000536794
0.000376051
0.000425192
0.000484204
0.000423562
0.000555937
0.000464179
0.000435933
0.000557819
0.000728467
0.000319315
0.00027509
0.000750845
0.000777544
0.000500025
0.0005255
0.000458515
0.00072832
0.00094925
0.000628513
0.000833061
0.000505493
0.000402285
0.00048684
0.00039959
0.000380997
0.000378904
0.000588556
0.000699346
0.000564644
0.00115307
0.000526477
0.000621696
0.000842132
0.000550921
0.0006327
0.000640875
0.00053525
0.00131564
0.00133468
0.00112583
0.000838254
0.00139208
0.000589868
0.00110147
0.000610246
0.000978455
0.0010815
0.000850747
0.00117239
0.000930119
0.00127909
0.000767276
0.000512152
0.000477669
0.000576844
0.000595507
0.000755666
0.000874525
0.000915773
0.000719991
0.00110608
0.0011063
0.000475687
0.000555674
0.00086941
0.00073058
0.0011845
0.000813728
0.000391431
0.000344421
0.00048163
0.000509091
0.000464937
0.000493451
0.000652607
0.000600617
0.000950972
0.000899757
0.000584999
0.000410192
0.000298417
0.000278335
0.000257521
0.000285972
0.000417532
0.000538554
0.000509661
0.000446129
0.00102608
0.00033109
0.000757582
0.000937405
0.000251194
0.000194402
0.000116231
0.000194968
0.000240524
0.000196733
0.000228817
0.000105181
0.000160922
0.000210382
0.000249301
0.000211387
0.000236934
0.000253369
0.000347808
0.00054119
0.000473588
0.000515292
0.000197084
0.000366978
0.000360459
0.000313334
0.000565244
0.000464527
0.000316096
0.000729871
0.000704058
0.000281814
0.000391919
0.000809599
0.000311685
0.000429056
0.000415325
0.00102663
0.000759157
0.000741616
0.000520963
0.000323714
0.0004125
0.000509883
0.000690899
0.000802598
0.000456924
0.000564148
0.000617382
0.000531765
0.000953207
0.000535907
0.00060068
0.000528635
0.000717868
0.000602171
0.000503751
0.000373649
0.00112512
0.0005111
0.000408026
0.00111647
0.000441812
0.000643863
0.000484431
0.000650696
0.000498916
0.000981892
0.00142948
0.00112979
0.000825406
0.0011056
0.000313665
0.00115586
0.000804043
0.000928081
0.000807844
0.00102521
0.00132148
0.00119292
0.000842953
0.00104779
0.000668425
0.000604181
0.000623453
0.000517746
0.00103998
0.0007615
0.00103285
0.000911284
0.000961126
0.0007418
0.00119951
0.000761158
0.00071006
0.00108097
0.000503564
0.000837274
0.000918124
0.000920532
0.000874682
0.000771932
0.000383412
0.000531267
0.000514425
0.000542869
0.000515597
0.000539683
0.00066646
0.00109851
0.000978095
0.000557193
0.000864606
0.000284394
0.000166002
0.000245601
0.000264079
0.000355692
0.00043862
0.000489919
0.000517324
0.000602062
0.000883302
0.000530537
0.000707277
0.000959121
0.000492169
0.000280921
0.000164736
0.000114726
0.000153221
0.000255538
0.000216314
0.00019789
0.000107352
0.000164993
0.000187585
0.000274924
0.000190774
0.000224731
0.000268736
0.000219202
0.000597363
0.000262765
0.000394865
0.000320127
0.000515657
0.000433933
0.000418056
0.000360341
0.000313475
0.00027787
0.000503243
0.000583326
0.000459174
0.00044507
0.00048323
0.000333395
0.000326076
0.000330171
0.000321918
0.000627571
0.000516715
0.000535847
0.000354485
0.00023686
0.000710593
0.000231058
0.000484911
0.000711742
0.000551198
0.000767062
0.00061144
0.000575701
0.000483315
0.000453056
0.000698475
0.00060547
0.000770549
0.000623663
0.000754018
0.000453619
0.000256154
0.000430035
0.000997489
0.000429556
0.000509885
0.000792494
0.000587017
0.000571556
0.000483012
0.000395047
0.000511917
0.00104908
0.000863542
0.000607941
0.000835354
0.000297898
0.00077306
0.00144212
0.000582119
0.000649241
0.000516167
0.00118606
0.00149703
0.0010704
0.000366457
0.00128766
0.000641664
0.00109561
0.000982405
0.00124227
0.00115786
0.000819605
0.0012938
0.000940706
0.000856398
0.00071611
0.000497318
0.000403054
0.000700532
0.00076983
0.00131729
0.000660296
0.000392657
0.00092248
0.000759681
0.000880688
0.00094953
0.000753624
0.00101015
0.00105572
0.000667591
0.00100021
0.000954423
0.00131257
0.000968909
0.00148329
0.000438954
0.000671748
0.000583625
0.000329472
0.000577592
0.000400545
0.00057905
0.000504628
0.000582826
0.000825431
0.00102044
0.000875514
0.000670436
0.000779511
0.001432
0.000428807
0.000295839
0.000217306
0.000372191
0.00024473
0.000470966
0.000461377
0.000431421
0.000602551
0.000497982
0.000703417
0.00062818
0.000928197
0.000515948
0.000493687
0.000287549
0.00019818
0.000126582
0.000156813
0.000225474
0.000198933
0.000160453
0.000122796
0.000193279
0.000201563
0.000244634
0.000179983
0.000231191
0.00028784
0.000369534
0.000225963
0.000316804
0.000566185
0.000738681
0.000250883
0.000382755
0.0003495
0.000307197
0.000440224
0.000554064
0.000521048
0.000456016
0.000558251
0.000428672
0.000372641
0.000519318
0.000573901
0.000494775
0.000449443
0.000604272
0.000707144
0.000363202
0.000446947
0.000402714
0.000408679
0.000541442
0.000189083
0.000501911
0.000280557
0.000394705
0.0006336
0.000388891
0.000444163
0.00032971
0.000379074
0.000408569
0.000487681
0.00058558
0.000397984
0.00053317
0.000516021
0.000802872
0.000534022
0.000649114
0.000626256
0.00104471
0.000831629
0.000598538
0.00048064
0.000783386
0.000327233
0.000320597
0.000336843
0.000484284
0.00045235
0.000751078
0.000500499
0.000433864
0.000763992
0.000720997
0.000461671
0.000436083
0.0005814
0.0004114
0.000999118
0.000759717
0.000725896
0.000793183
0.000510497
0.0010783
0.00104988
0.000713816
0.000758924
0.000716849
0.000665507
0.000889176
0.000970197
0.000660112
0.000623922
0.00129821
0.000655341
0.00112621
0.000958415
0.000502384
0.000589648
0.000771572
0.00105998
0.000824025
0.000905257
0.00089653
0.00116162
0.000528245
0.000781454
0.000486602
0.000373642
0.000563789
0.000725053
0.000681344
0.00147793
0.00113635
0.000991346
0.000908663
0.000909173
0.000653545
0.00071878
0.000970183
0.000385987
0.00114076
0.000607519
0.0007923
0.000872279
0.000956872
0.000691137
0.000722779
0.000845474
0.000625507
0.000296078
0.000614106
0.000591346
0.000686914
0.000549928
0.000792038
0.000746696
0.00108562
0.000902895
0.000560003
0.000747091
0.00147382
0.00063485
0.000437485
0.000263612
0.000160324
0.00037586
0.000251966
0.000458516
0.000432055
0.000335854
0.000768842
0.000335167
0.000764968
0.000581979
0.000880364
0.000558777
0.000499293
0.000253459
0.000252629
0.00019391
0.000120208
0.000183269
0.000211651
0.00020101
0.00012082
0.000118661
0.000230491
0.00029382
0.00028093
0.00014068
0.000260819
0.000312396
0.00027246
0.000330019
0.000166421
0.000560449
0.000272424
0.000433693
0.000468044
0.000645437
0.000594217
0.000224166
0.000345474
0.000350165
0.000442118
0.00030402
0.000184863
0.000518343
0.000487864
0.000496173
0.000445484
0.000524086
0.000235357
0.000347772
0.000414255
0.000528798
0.000506575
0.000348471
0.000468394
0.000397588
0.000298149
0.000564265
0.000246388
0.000373707
0.000530275
0.000642191
0.000275132
0.000611244
0.000385786
0.000307197
0.000553934
0.000445927
0.000439653
0.000450014
0.000304751
0.000478243
0.00053462
0.000656778
0.000373564
0.00044343
0.000214371
0.000538027
0.000304189
0.000428571
0.00057746
0.000413683
0.000500387
0.000410195
0.000465064
0.000323225
0.00154788
0.000812708
0.000884195
0.000738871
0.000307484
0.000320144
0.000472465
0.000466379
0.000411683
0.000459849
0.00042108
0.000709148
0.000403893
0.000666718
0.000151268
0.00063342
0.000449386
0.000583829
0.000496445
0.000552217
0.000287083
0.000879496
0.000898213
0.00082471
0.000800292
0.000443955
0.00088699
0.000786179
0.000719099
0.000936849
0.000845038
0.000676661
0.00089502
0.000853733
0.0011285
0.000782157
0.000814792
0.000879098
0.000550969
0.00092031
0.000917798
0.000632139
0.000578635
0.000746644
0.000357243
0.000889918
0.00112715
0.000496247
0.00101123
0.00119662
0.000700538
0.000472867
0.000344715
0.000425934
0.00091661
0.000878781
0.000617371
0.00070717
0.00112622
0.000778382
0.000903946
0.000959098
0.000898641
0.000634839
0.00060361
0.00110543
0.000521089
0.000854092
0.00121001
0.00239107
0.00117218
0.000821814
0.00136356
0.00151184
0.00115089
0.000892592
0.000709856
0.000347381
0.000593764
0.000509023
0.000674088
0.000549702
0.000969987
0.00134129
0.000344576
0.000647509
0.000275149
0.00126926
0.0013435
0.000669111
0.000585815
0.000444379
0.000240637
0.000225098
0.000253209
0.000295742
0.000452784
0.000440219
0.000452144
0.000768489
0.000455653
0.000882851
0.000537711
0.000801896
0.000631715
0.000553048
0.0003193
0.000423645
0.000285484
0.000202179
0.000126648
0.000204656
0.000201766
0.000227523
0.000101321
0.000133039
0.000239938
0.000224844
0.000315147
0.000157718
0.000291796
0.000276484
0.000123272
0.000207778
0.000103573
0.000223516
0.000613628
0.000423584
0.000366987
0.000238576
0.000309786
0.000366982
0.00055353
0.000559543
0.000632855
0.000513099
0.000346583
0.000277362
0.000411143
0.00039658
0.000376702
0.000387307
0.00037111
0.000465575
0.000598905
0.000407407
0.000497147
0.000662052
0.000461532
0.000319141
0.000421348
0.000300518
0.000533919
0.00052062
0.000417418
0.000368437
0.000419104
0.000387287
0.00036169
0.000456108
0.000449093
0.000300205
0.000568665
0.000512169
0.000510767
0.000339531
0.000646088
0.000449987
0.00037149
0.000435038
0.000543781
0.00040227
0.000412872
0.000268306
0.000373755
0.000242572
0.000231191
0.000446776
0.000495217
0.000352737
0.000324636
0.000261054
0.000380164
0.000727406
0.000544601
0.000560854
0.000680461
0.00049272
0.00042455
0.000408999
0.000610205
0.000238254
0.000405213
0.00108705
0.000543063
0.000738949
0.000860842
0.000477495
0.00035479
0.000760673
0.000769133
0.000334061
0.00049131
0.000402516
0.000581547
0.000374318
0.000421455
0.000516854
0.000374055
0.000757498
0.00076765
0.000601306
0.000679974
0.000388173
0.000327958
0.00051402
0.00101646
0.000824757
0.000799677
0.000645809
0.00102914
0.000804879
0.000855336
0.000912319
0.000982498
0.000575639
0.000744198
0.000901594
0.000662322
0.000974777
0.000670173
0.000776862
0.000937562
0.000832037
0.000841729
0.00101628
0.00069784
0.000957807
0.000763274
0.00074982
0.00056728
0.00154585
0.00114057
0.000684081
0.00124934
0.00104158
0.00108099
0.000782967
0.000372552
0.0002597
0.000534022
0.000631932
0.000270825
0.00158748
0.000706129
0.00194637
0.000683741
0.000585611
0.000858025
0.00119529
0.000934452
0.000676903
0.000594477
0.00100956
0.000483844
0.000883165
0.00122163
0.00168394
0.00107536
0.00125612
0.00168634
0.00116403
0.00115928
0.00134566
0.000860505
0.000673832
0.000488755
0.000691586
0.000618925
0.000662851
0.000560923
0.000862861
0.000761464
0.000911637
0.000499395
0.000513997
0.00165228
0.00138878
0.00075442
0.000484532
0.000867652
0.000493091
0.00023056
0.000259252
0.000246582
0.000337898
0.000409358
0.000480891
0.000293608
0.000697376
0.000497692
0.000829629
0.000423548
0.000699605
0.000659975
0.000629898
0.000372947
0.000416109
0.000432778
0.000258569
0.000184174
0.000127946
0.00019743
0.000189543
0.000175643
0.000171695
0.000160549
0.000234839
0.000167832
0.000322309
0.000195483
0.000312003
0.000153865
0.000347241
0.000203581
0.000117978
0.000178443
0.000187182
0.00085565
0.000502241
0.000402189
0.000603084
0.000419906
0.000475883
0.00040502
0.000369641
0.000397692
0.000482219
0.000551418
0.00047392
0.000553879
0.0005835
0.000408005
0.000346517
0.000380415
0.000376511
0.000463448
0.000573984
0.000378728
0.000347218
0.000388805
0.000464536
0.000578793
0.00044355
0.000261028
0.000451522
0.00056615
0.000437927
0.000345176
0.000295917
0.000385667
0.000322242
0.000476595
0.000590368
0.000544988
0.000356964
0.000445489
0.000504279
0.000311164
0.000360721
0.000696509
0.000602596
0.000457988
0.000473093
0.000403175
0.000357939
0.000357105
0.000372374
0.000517065
0.000616563
0.000504851
0.000381695
0.000270221
0.000378157
0.000328008
0.000158743
0.000340782
0.000427792
0.000411864
0.000292848
0.000280541
0.000226621
0.000539134
0.000471445
0.000522926
0.000383157
0.000293889
0.000833871
0.000701267
0.000740887
0.000662293
0.000305178
0.000427649
0.000432808
0.000658811
0.000207641
0.00030814
0.000380428
0.000281613
0.000828565
0.000488321
0.000344926
0.000498959
0.000476342
0.000595367
0.000539566
0.000447696
0.000429929
0.000565864
0.000380451
0.000565491
0.000671426
0.000703139
0.000486789
0.000859696
0.000591884
0.000663055
0.000501925
0.000615642
0.000751703
0.00040356
0.000609415
0.000598963
0.000687329
0.000951268
0.000833257
0.000867397
0.001015
0.000688872
0.000713219
0.000865432
0.000817871
0.000950808
0.000740815
0.000647234
0.000489856
0.000733586
0.000752406
0.0008762
0.000597566
0.000703164
0.000597771
0.000729332
0.00100287
0.000605569
0.000565755
0.000365153
0.000763907
0.0010016
0.0006116
0.00103736
0.00129705
0.000902219
0.000357412
0.00114333
0.00123007
0.000961786
0.000405429
0.000801514
0.000311053
0.000328141
0.00120754
0.00161709
0.00255005
0.00150567
0.000959019
0.000998905
0.000718654
0.00110426
0.00110429
0.000909369
0.000752982
0.000614096
0.000951561
0.00044426
0.00098026
0.00139498
0.00190386
0.00204988
0.000529625
0.00139287
0.000962728
0.00152826
0.0011733
0.000987945
0.000811151
0.000620761
0.000514372
0.000690565
0.000642945
0.000839079
0.000644162
0.000917173
0.000708741
0.000821578
0.00102809
0.000852832
0.00178068
0.00105486
0.000838667
0.000552063
0.000895945
0.000766379
0.000449756
0.000230202
0.000271731
0.00029406
0.000426327
0.000442833
0.000506572
0.000302166
0.000687167
0.000542781
0.00050908
0.000416586
0.000638587
0.00065867
0.000436193
0.000289837
0.00029004
0.000416182
0.000407704
0.000270338
0.00023999
0.000132849
0.000197322
0.000190894
0.000187726
0.000192465
0.000180315
0.000247019
0.000248654
0.000303863
0.000215677
0.000315301
0.000234107
0.000372149
0.000260431
0.000128293
0.000183161
0.000182391
9.35328e-05
0.00129126
0.000750816
0.000735582
0.000469734
0.000413191
0.00059478
0.000557197
0.000451371
0.00049893
0.000527137
0.000440516
0.000392543
0.000510723
0.00050552
0.000528044
0.000370769
0.000397943
0.000446731
0.000556246
0.000557027
0.000371498
0.000200033
0.000202649
0.000234583
0.000325988
0.000457966
0.000341413
0.000323305
0.000504181
0.000245525
0.000325503
0.000376802
0.000430488
0.000492318
0.000178822
0.000626258
0.000456959
0.000374868
0.000309107
0.000289791
0.000465804
0.000290754
0.000321721
0.000450861
0.000391966
0.000491739
0.000448555
0.000429272
0.00039797
0.000316454
0.00035138
0.000278962
0.000446329
0.00044398
0.000402428
0.000451806
0.00042174
0.000268227
0.000391976
0.000321734
0.000520839
0.000373515
0.000505815
0.000409275
0.000327874
0.000185954
0.000504748
0.000196433
0.000283631
0.000461009
0.00033097
0.000390791
0.000504834
0.000439432
0.000496806
0.0002625
0.000498131
0.000372516
0.000309965
0.000373666
0.000303185
0.000433748
0.000817784
0.000372297
0.00065629
0.00053697
0.000275603
0.000348517
0.000553713
0.000403008
0.000154165
0.000361085
0.000440193
0.000194768
0.000602071
0.000778436
0.000809289
0.000534887
0.000240513
0.000514095
0.000536125
0.00054127
0.000537678
0.000533364
0.000397976
0.00046617
0.000549845
0.00086254
0.000988371
0.000997775
0.000672951
0.000724797
0.000707474
0.000544917
0.000478979
0.000762931
0.000547219
0.000388339
0.000717935
0.00063875
0.000358545
0.00109409
0.000946879
0.000656439
0.00067595
0.000929615
0.000832681
0.000715662
0.000760594
0.000815851
0.000651237
0.000414863
0.000771389
0.000555128
0.000822369
0.0012224
0.000664411
0.000666587
0.00104303
0.000824298
0.00124459
0.000960597
0.000819705
0.000639061
0.000577575
0.000514663
0.000905494
0.000782286
0.000539195
0.00123847
0.00301175
0.000951961
0.000492025
0.00100391
0.00138775
0.00125929
0.00123519
0.000468788
0.000775966
0.000460927
0.00076911
0.000886835
0.00129267
0.00130593
0.00162707
0.00114169
0.00136088
0.000571954
0.000521973
0.00110884
0.00114087
0.000867307
0.000897249
0.000909761
0.000857487
0.000517122
0.000936023
0.00203694
0.00153276
0.000973908
0.00209329
0.000959738
0.00206438
0.00195674
0.00119171
0.00077074
0.000733112
0.000820181
0.000581897
0.000421483
0.000567444
0.000646543
0.000809071
0.00063463
0.00101649
0.0011753
0.00041812
0.000931636
0.000922581
0.00177244
0.000649597
0.000806798
0.000543629
0.000673664
0.000761814
0.000688912
0.000475061
0.000275128
0.00028488
0.000266832
0.000259531
0.000480514
0.000461945
0.000491432
0.000359986
0.000594725
0.000496019
0.000540584
0.000609646
0.000558848
0.00035267
0.000456754
0.000151581
0.000405392
0.000409778
0.000288239
0.000257511
0.000229883
0.000159348
0.000204646
0.000213447
0.000159007
0.00019069
0.000201008
0.000218
0.000139158
0.000267152
0.000250417
0.000296938
0.000310219
0.000205399
0.000243552
0.000114497
0.000212922
0.000182241
0.000150315
0.000168814
0.00106058
0.0011506
0.0010813
0.000838113
0.000772486
0.000974166
0.00066328
0.000637361
0.000766231
0.000751391
0.000459198
0.0004506
0.000515706
0.000477185
0.000545397
0.000441422
0.000358657
0.000477838
0.000547126
0.000554466
0.000512557
0.000470974
0.00044052
0.000383825
0.000535622
0.000458733
0.000353828
0.000387253
0.000275969
0.000340021
0.000345476
0.000419264
0.000446275
0.000484476
0.000490304
0.000381784
0.000387555
0.000320806
0.000239657
0.000386264
0.000537973
0.000542687
0.000332772
0.000318743
0.000467651
0.000536698
0.000366762
0.000318266
0.00036667
0.000223133
0.000324506
0.000439618
0.000608722
0.000424906
0.000276482
0.000690322
0.000533344
0.000396323
0.00026212
0.00036651
0.000563373
0.000393133
0.000437656
0.000462682
0.000466692
0.00054576
0.000671679
0.000401771
0.000369538
0.000437301
0.000532299
0.000515574
0.000303324
0.000753755
0.000204467
0.000175377
0.000359115
0.000260545
0.000396131
0.000335762
0.000370795
0.000447293
0.000254086
0.000313067
0.000424302
0.000615748
0.000517606
0.000660127
0.000408635
0.000286506
0.000206469
0.000144619
0.000282792
0.000224398
0.000382155
0.000257726
0.000473643
0.000490417
0.000435231
0.000592446
0.000723801
0.000305684
0.000477474
0.000386692
0.000139679
0.00049632
0.000356558
0.000204986
0.000346203
0.000522951
0.000220147
0.000592606
0.000763553
0.000430488
0.000419163
0.000571639
0.000409415
0.000414081
0.000486056
0.00045801
0.00056202
0.000520686
0.000460339
0.00107326
0.000902496
0.000747876
0.000520887
0.00100607
0.000900754
0.000664687
0.000526814
0.000568452
0.000420617
0.000484015
0.000652039
0.000551942
0.000340032
0.000520926
0.000995008
0.000796063
0.000583769
0.000997112
0.00100042
0.00109762
0.0007167
0.00101667
0.000650156
0.000732576
0.000694956
0.000596555
0.000712976
0.000409761
0.000392152
0.000993771
0.000918817
0.0007838
0.000896407
0.000709321
0.00114026
0.000896328
0.000717284
0.000602226
0.000767932
0.000772078
0.000806611
0.00209317
0.00164147
0.00103297
0.000875826
0.000989049
0.000296784
0.00063875
0.00148074
0.0011917
0.000996386
0.000971553
0.000294626
0.000475215
0.000274982
0.000788071
0.000947837
0.00191451
0.00208999
0.000754712
0.00088708
0.00127397
0.000562543
0.00106896
0.000745791
0.00105157
0.00134361
0.00100857
0.00129552
0.00094899
0.000764988
0.000691235
0.00095642
0.00150487
0.00127511
0.000980625
0.00236584
0.000695881
0.00220553
0.00200393
0.000950792
0.000202963
0.000914179
0.000375401
0.000906249
0.000557559
0.000416464
0.000493857
0.000867104
0.000649904
0.000681896
0.000997072
0.00072962
0.000367267
0.000707306
0.00101177
0.00107611
0.000744224
0.000850857
0.00086065
0.000270529
0.000755506
0.000710724
0.000223801
0.000498996
0.000393993
0.000286516
0.000290602
0.00035284
0.000443972
0.000440426
0.00043686
0.000511559
0.000633625
0.000458807
0.00056256
0.000528978
0.000474115
0.000378227
0.000426292
0.000121694
0.000405899
0.0004062
0.000318349
0.000401224
0.000254426
0.000227965
0.000224453
0.000235815
0.000243366
0.000140497
0.000227835
0.000244826
0.000198507
0.000155148
0.00024557
0.000269793
0.000312355
0.000254974
0.00029047
0.000237505
0.000128356
0.000240971
0.00019556
8.56958e-05
0.000152845
0.000119387
0.000229928
0.00262604
0.00107947
0.000893459
0.00120089
0.00108333
0.00123701
0.000830889
0.000797526
0.000960832
0.000968629
0.000643536
0.000587841
0.000785411
0.000825965
0.000889641
0.000445599
0.000449706
0.000439172
0.000497427
0.000544148
0.000506842
0.000426208
0.000418673
0.000523781
0.000539378
0.000524749
0.00048959
0.000361982
0.000364431
0.000360732
0.000402791
0.000481074
0.000423346
0.000370478
0.000482906
0.000259921
0.000288404
0.000257297
0.000321916
0.00035711
0.000349033
0.000336433
0.000610987
0.000300869
0.000381675
0.000373287
0.000241963
0.000270439
0.00039477
0.0003869
0.000343123
0.000327819
0.000309072
0.000173257
0.000569049
0.000562697
0.00048881
0.000368359
0.000375431
0.000198922
0.000346479
0.000468979
0.000431676
0.000387312
0.000504873
0.000398848
0.000572245
0.000260517
0.000238743
0.000310515
0.000247261
0.000299682
0.000491591
0.000358491
0.000394808
0.000529991
0.000582716
0.000492482
0.000283824
0.000299881
0.000277661
0.000222455
0.000353225
0.000345996
0.000397599
0.000526859
0.000616821
0.0006626
0.000328599
0.000267236
0.000293001
0.000403016
0.000392467
0.000400622
0.000444167
0.000223606
0.000257842
0.000290785
0.000395714
0.000571193
0.000613123
0.000532721
0.000148297
0.000270099
0.000394571
0.000282776
0.000306888
0.000246469
0.000345635
0.000284134
0.000241212
0.00034545
0.00052657
0.000535562
0.000494468
0.000356236
0.000578891
0.000730126
0.000255526
0.000248126
0.000478437
0.000421671
0.000339112
0.000226844
0.000210811
0.000652043
0.000726517
0.000645779
0.000558432
0.000763491
0.000623124
0.000860911
0.000475516
0.000554744
0.00046353
0.000466221
0.000603627
0.000591891
0.000420715
0.000504778
0.00114503
0.00103252
0.000711004
0.000844478
0.00087175
0.000561422
0.000642845
0.000749404
0.000425475
0.000500771
0.000630292
0.000709153
0.000301956
0.000288307
0.000636855
0.0005766
0.000897481
0.00110598
0.00128083
0.00121182
0.00194389
0.0014087
0.000899683
0.000882804
0.000901209
0.000635907
0.000792368
0.000707422
0.000690123
0.000483814
0.000345208
0.0012154
0.000741597
0.000500536
0.000512268
0.00105162
0.000993526
0.00196323
0.00131124
0.00105175
0.000739956
0.000926994
0.000466359
0.000787749
0.00087987
0.00137261
0.00100741
0.00122361
0.00103556
0.00127086
0.000756798
0.000620769
0.000679026
0.0012259
0.000904028
0.000847313
0.000546761
0.000673691
0.000173096
0.000712014
0.0011908
0.00117506
0.00181874
0.00174587
0.00153606
0.000687533
0.000710186
0.00228836
0.000724586
0.000547466
0.0010309
0.0011555
0.00097881
0.00103094
0.000732024
0.000809988
0.000575231
0.00118415
0.00162674
0.00128044
0.000767225
0.00179176
0.00239675
0.00180536
0.00144752
0.00103691
0.00112625
0.000960911
0.0004478
0.000626557
0.000898258
0.000640625
0.000384925
0.000436102
0.00109698
0.00054188
0.000687614
0.000977571
0.000695547
0.000189826
0.000824904
0.00133801
0.000649399
0.000674596
0.00084075
0.00079735
0.000192912
0.000670594
0.000674317
0.00044382
0.000219972
0.000476804
0.000496231
0.000268045
0.000323476
0.000437194
0.000497061
0.00057638
0.000544444
0.000809619
0.000465622
0.000461437
0.000613356
0.000462281
0.000467144
0.000347081
0.000318226
0.000190325
0.000382205
0.000456194
0.000435674
0.000226909
0.000258867
0.00039503
0.000229825
0.000258001
0.000224321
0.000235155
0.000237979
0.000258751
0.000279006
0.000262241
0.000153673
0.000284778
0.000242891
0.000287667
0.000403567
0.000304094
0.000199313
0.000234734
0.000136285
0.000205328
0.000185033
0.000191411
0.000132085
0.00013779
0.000104577
0.000222512
0.00252586
0.00256022
0.00109695
0.000932076
0.000881631
0.00122874
0.00105931
0.00109944
0.00110248
0.00104917
0.000771153
0.000773731
0.000880655
0.000923614
0.00064697
0.000698632
0.000655214
0.000806249
0.000890054
0.000770641
0.000425676
0.000414661
0.000498589
0.000469262
0.000532437
0.00053607
0.000523304
0.000450451
0.000394929
0.000460112
0.000493049
0.000535726
0.000455869
0.000288381
0.000320374
0.000333547
0.000277587
0.000236573
0.000343453
0.000452085
0.000564823
0.000306084
0.000357076
0.000305358
0.000411573
0.000339355
0.000307562
0.000412396
0.000460896
0.000339286
0.00034582
0.000135177
0.000234478
0.000305067
0.00055865
0.000252849
0.000313527
0.000302986
0.000397175
0.000358913
0.000210489
0.000301809
0.000303928
0.000319924
0.000594218
0.000549863
0.000362675
0.000292461
0.000282156
0.000327543
0.000306525
0.000407286
0.000392156
0.000429136
0.0004435
0.000332829
0.000423622
0.000529599