/*--------------------------------*- C++ -*----------------------------------*\
  =========                 |
  \\      /  F ield         | OpenFOAM: The Open Source CFD Toolbox
   \\    /   O peration     | Website:  https://openfoam.org
    \\  /    A nd           | Version:  7
     \\/     M anipulation  |
\*---------------------------------------------------------------------------*/
FoamFile
{
    version     2.0;
    format      ascii;
    class       volScalarField;
    location    "8.5";
    object      p;
}
// * * * * * * * * * * * * * * * * * * * * * * * * * * * * * * * * * * * * * //

dimensions      [0 2 -2 0 0 0 0];

internalField   nonuniform List<scalar> 
18630
(
-70.6873
-71.5323
-70.7363
-70.0993
-72.9168
-71.525
-71.0296
-70.7295
-70.0248
-69.6373
-73.6453
-72.907
-72.1189
-71.512
-70.9889
-70.6085
-70.6823
-69.9333
-69.5724
-69.243
-74.0904
-73.6288
-72.8446
-72.8886
-72.0301
-71.3691
-71.496
-70.9409
-70.5315
-69.9584
-70.5881
-69.8703
-69.5171
-69.1862
-68.8753
-73.5222
-73.7632
-72.7155
-73.7646
-72.7723
-71.925
-72.8651
-71.9383
-71.2773
-70.7884
-71.4712
-70.8819
-70.4432
-69.8687
-69.1251
-70.5277
-69.8498
-69.4576
-69.1194
-68.8636
-68.3664
-72.1042
-73.0777
-71.3553
-73.6221
-72.5267
-71.7923
-73.7151
-72.7133
-71.9892
-70.7157
-72.8509
-71.8474
-71.1745
-70.7269
-69.7982
-71.4506
-70.8235
-70.3426
-69.7781
-69.034
-68.3017
-70.4769
-69.8001
-69.3951
-69.0738
-68.8559
-68.3431
-68.2473
-69.8376
-71.5993
-70.4598
-72.6934
-70.9557
-69.7317
-73.3596
-72.4288
-71.9183
-70.4506
-73.745
-72.7497
-72.0112
-70.4925
-69.4762
-72.8223
-71.7435
-71.0658
-70.6595
-69.6854
-68.313
-71.4033
-70.741
-70.2453
-69.6835
-68.9384
-68.2007
-67.7189
-70.4137
-69.7046
-69.3404
-69.0452
-68.8304
-68.317
-68.2418
-68.1497
-67.2772
-69.4002
-68.3833
-71.1054
-69.9953
-69.103
-72.0974
-70.5679
-69.242
-69.1659
-72.9278
-72.3423
-72.0544
-70.4252
-69.6198
-73.8301
-72.82
-72.019
-70.3373
-69.143
-68.4326
-72.7678
-71.6136
-70.9452
-70.5691
-69.4314
-68.1551
-67.9553
-71.3512
-70.6553
-70.1473
-69.594
-68.8329
-68.1072
-67.6452
-67.5804
-70.3511
-69.6819
-69.278
-69.011
-68.7838
-68.2915
-68.2417
-68.1519
-67.9438
-65.298
-67.0848
-66.5134
-68.9851
-67.9093
-66.8795
-70.5551
-69.5583
-68.8029
-67.6113
-71.4255
-70.1802
-68.8885
-68.7754
-68.1844
-72.8199
-72.3037
-72.2658
-70.3843
-69.4524
-67.4682
-73.9248
-72.9196
-71.9815
-70.2291
-69.0108
-68.0892
-67.6726
-72.6945
-71.4521
-70.8086
-70.3365
-69.0601
-68.015
-67.8441
-67.3601
-71.3034
-70.5609
-70.0393
-69.5164
-68.7304
-68.0203
-67.596
-67.545
-67.3486
-70.2891
-69.6328
-69.2195
-68.9771
-68.7389
-68.2683
-68.2456
-68.1578
-67.9734
-67.4686
-63.6461
-65.0243
-64.7887
-66.7333
-66.1048
-65.5304
-68.5398
-67.482
-66.63
-66.1418
-70.0623
-69.1497
-68.3727
-67.2699
-66.7848
-70.9931
-69.806
-68.6821
-68.481
-67.9027
-67.0752
-72.8125
-72.3382
-72.3909
-70.4656
-69.4773
-67.2576
-66.9223
-74.041
-73.0641
-72.1994
-70.2799
-68.9256
-67.7433
-67.45
-66.732
-72.5843
-71.2605
-70.6875
-70.1311
-68.8011
-67.8731
-67.7427
-67.2428
-66.6103
-71.231
-70.4609
-69.9219
-69.437
-68.6653
-67.9458
-67.5529
-67.5226
-67.3641
-66.9949
-70.2241
-69.5682
-69.1703
-68.9457
-68.6938
-68.2464
-68.2521
-68.1656
-68.0053
-67.4993
-66.9148
-62.4149
-63.358
-63.3465
-64.7284
-64.3223
-64.0374
-66.3255
-65.5907
-65.1158
-64.868
-67.9797
-67.1033
-66.3876
-65.8725
-65.2838
-69.5295
-68.7738
-67.9647
-66.9951
-66.5965
-65.9672
-70.7219
-69.5278
-68.6106
-68.2138
-67.5997
-66.8621
-65.8319
-72.7793
-72.4412
-72.5832
-70.6104
-69.4985
-67.2319
-66.7239
-66.3838
-74.1535
-73.1647
-72.3238
-70.3491
-68.8047
-67.471
-67.2571
-66.5873
-66.0402
-72.4075
-71.073
-70.5599
-70.0105
-68.627
-67.7488
-67.6232
-67.1151
-66.5396
-66.3349
-71.1562
-70.359
-69.7953
-69.3594
-68.6106
-67.8828
-67.5195
-67.4986
-67.3837
-67.0397
-66.6763
-70.155
-69.4806
-69.106
-68.9116
-68.6561
-68.2268
-68.2635
-68.1723
-68.0369
-67.5343
-66.9766
-66.9424
-60.889
-61.5864
-62.4612
-62.3396
-63.4176
-63.219
-62.7449
-64.508
-64.1703
-63.8094
-63.6195
-66.0612
-65.4206
-64.8594
-64.4887
-64.1288
-67.531
-66.7688
-66.0648
-65.5961
-64.9609
-64.2907
-68.9894
-68.3718
-67.5833
-66.6985
-66.48
-65.7655
-65.1023
-70.3739
-69.2926
-68.3984
-68.2476
-67.3596
-66.6404
-65.6534
-64.9463
-72.7127
-72.4778
-72.6627
-70.805
-69.4929
-67.1317
-66.5951
-66.1915
-65.4095
-74.2368
-73.3388
-72.3624
-70.1975
-68.694
-67.2088
-67.0933
-66.4188
-65.8406
-65.4158
-72.1371
-70.8952
-70.4171
-69.8026
-68.4275
-67.6136
-67.5091
-66.9904
-66.4674
-66.3267
-66.0071
-71.0695
-70.2393
-69.6634
-69.2791
-68.5894
-67.819
-67.498
-67.5241
-67.406
-67.1023
-66.8086
-66.8834
-70.0781
-69.4163
-69.0265
-68.871
-68.6221
-68.2086
-68.2824
-68.1788
-68.0676
-67.5836
-67.0395
-66.9765
-66.6189
-60.3227
-60.8162
-60.9204
-61.4805
-61.4964
-62.3889
-62.3753
-62.1638
-63.2821
-63.1705
-62.9609
-62.7899
-64.366
-63.9872
-63.7311
-63.3972
-63.2284
-65.7102
-65.1623
-64.6473
-64.1413
-63.8687
-63.6865
-67.139
-66.3667
-65.8828
-65.3845
-64.7475
-64.1214
-63.9352
-68.5033
-68.0375
-67.1869
-66.3687
-66.2309
-65.6386
-64.959
-64.2246
-69.974
-68.959
-68.4591
-68.1654
-66.9899
-66.4433
-65.5645
-64.9071
-64.4248
-72.6273
-72.5813
-72.4371
-70.6787
-69.616
-67.0646
-66.4015
-66.0915
-65.1989
-65.0299
-74.285
-73.7073
-72.2258
-70.0133
-68.7696
-66.9971
-67.0117
-66.3161
-65.6534
-65.3634
-65.0441
-71.7731
-70.6666
-70.2357
-69.5686
-68.2286
-67.4656
-67.4254
-66.8973
-66.3784
-66.3258
-66.0838
-66.4576
-70.9922
-70.1362
-69.521
-69.1923
-68.5563
-67.7547
-67.4871
-67.5628
-67.4289
-67.1794
-66.9418
-67.0455
-67.1087
-70.0053
-69.3487
-68.9679
-68.8371
-68.583
-68.1918
-68.3084
-68.188
-68.1036
-67.6505
-67.0888
-67.009
-66.6263
-66.3143
-59.5075
-59.8377
-60.2892
-60.3697
-60.8086
-60.8495
-60.886
-61.4044
-61.4354
-61.4422
-62.2317
-62.1684
-62.0657
-61.9714
-63.1319
-62.8123
-62.7129
-62.6783
-62.3291
-64.1064
-63.6718
-63.5616
-63.332
-63.0384
-62.7253
-65.3263
-64.8024
-64.3634
-64.0203
-63.759
-63.4981
-63.1199
-66.7912
-66.0619
-65.6078
-65.1139
-64.6011
-64.0269
-63.8424
-63.5764
-68.0203
-67.6736
-66.7712
-65.981
-65.7826
-65.4319
-64.7589
-64.1082
-63.5491
-69.7029
-68.7512
-68.4674
-67.9885
-66.6673
-66.2716
-65.4024
-64.8023
-64.4811
-63.8712
-72.4316
-72.6332
-72.061
-70.4392
-69.6848
-66.9861
-66.2626
-66.0933
-65.3024
-64.6541
-64.7931
-74.1731
-73.5676
-71.9138
-69.7075
-68.8638
-66.8145
-66.9248
-66.1754
-65.5486
-65.3557
-65.1455
-65.7514
-71.3887
-70.3903
-70.0175
-69.3457
-68.0551
-67.3232
-67.3297
-66.8168
-66.3547
-66.3527
-66.2018
-66.7483
-66.8273
-70.9185
-70.0119
-69.3712
-69.1027
-68.4676
-67.7018
-67.4943
-67.5433
-67.4523
-67.2692
-67.0563
-67.2097
-67.206
-67.0695
-69.9217
-69.2796
-68.9164
-68.8017
-68.5495
-68.176
-68.3403
-68.198
-68.142
-67.7375
-67.1352
-67.042
-66.6354
-66.3246
-66.3976
-59.2657
-59.6039
-59.6885
-59.901
-60.0139
-60.2482
-60.3398
-60.3717
-60.7794
-60.8623
-60.8386
-60.7851
-61.3485
-61.3375
-61.3232
-61.242
-62.1508
-62.0694
-61.9306
-61.6901
-61.6544
-62.8862
-62.7278
-62.5112
-62.4275
-62.2378
-62.0521
-63.8487
-63.5413
-63.2997
-63.1083
-62.8362
-62.6067
-62.4035
-65.0054
-64.4582
-64.0275
-63.7535
-63.4736
-63.2833
-62.9993
-62.7587
-66.3074
-65.8016
-65.3206
-64.9379
-64.4045
-63.8533
-63.712
-63.4323
-62.9738
-67.5069
-67.2412
-66.5378
-65.7863
-65.5882
-65.1786
-64.329
-63.9418
-63.4073
-63.0751
-69.418
-68.524
-68.032
-67.8266
-66.5961
-66.0647
-65.2866
-64.6283
-64.3366
-63.877
-63.5541
-72.1137
-72.5419
-71.5138
-70.0258
-69.6199
-66.9483
-66.1339
-65.9131
-65.1808
-64.6358
-64.7967
-64.8688
-74.146
-73.5169
-71.5073
-69.412
-68.9334
-66.7424
-66.7139
-65.9929
-65.4248
-65.3336
-65.3201
-65.8527
-66.3928
-71.2261
-70.1686
-69.8016
-69.1609
-67.9116
-67.2078
-67.2502
-66.7502
-66.3542
-66.4197
-66.3993
-67.0728
-67.0032
-67.7643
-70.7919
-69.8531
-69.2203
-69.0181
-68.4003
-67.6583
-67.5119
-67.5888
-67.4783
-67.4054
-67.1572
-67.3803
-67.2859
-67.1193
-66.9653
-69.8397
-69.2249
-68.8598
-68.7697
-68.5279
-68.1606
-68.3763
-68.2146
-68.1842
-67.8201
-67.1859
-67.0734
-66.6491
-66.3323
-66.4039
-66.3375
-59.0781
-59.2741
-59.428
-59.598
-59.6855
-59.6615
-59.9167
-59.9912
-59.9946
-60.1953
-60.2542
-60.307
-60.3087
-60.6869
-60.7383
-60.7545
-60.7248
-60.6128
-61.247
-61.2362
-61.2558
-61.1073
-61.1318
-61.9503
-61.9279
-61.8182
-61.6205
-61.564
-61.3551
-62.6564
-62.6153
-62.4486
-62.3236
-62.0819
-61.9515
-61.8612
-63.6096
-63.3984
-63.1596
-62.9118
-62.6096
-62.4596
-62.2349
-61.93
-64.7892
-64.2701
-63.9231
-63.5433
-63.301
-63.1037
-62.9116
-62.7019
-62.328
-65.9829
-65.3581
-65.1717
-64.7948
-64.1529
-63.7989
-63.5104
-63.218
-62.8027
-62.6262
-67.1648
-66.8156
-66.1801
-65.573
-65.2714
-64.8006
-64.3084
-63.754
-63.255
-62.9501
-62.935
-69.1481
-68.3562
-67.7961
-67.6674
-66.4324
-65.8178
-64.8794
-64.622
-64.2372
-63.8966
-63.5681
-63.7734
-71.8926
-72.2144
-70.8612
-69.487
-69.4316
-66.9563
-66.0507
-65.7852
-64.9621
-64.8515
-64.7716
-64.8599
-65.3859
-73.7406
-73.1277
-71.0563
-69.1691
-69.0091
-66.7528
-66.632
-65.8544
-65.3261
-65.3361
-65.5113
-65.9652
-66.6522
-68.1776
-71.1427
-70.002
-69.5616
-68.9372
-67.7628
-67.1129
-67.1818
-66.679
-66.401
-66.5924
-66.6955
-67.4505
-67.2273
-68.0104
-67.7352
-70.6415
-69.7045
-69.0733
-68.9382
-68.3031
-67.6228
-67.5363
-67.6195
-67.5355
-67.5905
-67.3047
-67.5603
-67.3654
-67.1468
-67.0354
-67.0605
-69.7555
-69.1738
-68.7996
-68.7377
-68.5049
-68.1455
-68.4186
-68.2396
-68.2376
-67.8926
-67.2409
-67.105
-66.6686
-66.3399
-66.4267
-66.3422
-66.5234
-59.0256
-59.113
-59.2192
-59.3297
-59.4016
-59.3635
-59.5881
-59.6457
-59.683
-59.6309
-59.8591
-59.9442
-59.953
-59.9382
-60.1355
-60.1822
-60.2571
-60.2767
-60.2532
-60.6009
-60.6446
-60.7191
-60.6212
-60.5463
-60.5088
-61.1956
-60.9896
-61.1658
-61.1337
-61.0698
-61
-61.8795
-61.7775
-61.657
-61.6505
-61.4743
-61.2196
-61.1751
-62.5597
-62.462
-62.3101
-62.1291
-61.8636
-61.8323
-61.7136
-61.4688
-63.3651
-63.2791
-62.9909
-62.7199
-62.4577
-62.3485
-62.0503
-61.8495
-61.7238
-64.4744
-63.923
-63.6265
-63.3263
-63.1978
-62.9031
-62.7765
-62.5563
-62.1786
-61.9647
-65.7674
-65.0671
-64.8709
-64.5399
-64.0387
-63.666
-63.1866
-63.068
-62.7038
-62.5284
-62.4413
-66.8142
-66.4786
-65.9644
-65.3799
-65.2206
-64.4652
-64.226
-63.6472
-63.0631
-62.8517
-62.924
-63.0874
-68.8749
-68.0361
-67.7309
-67.3982
-66.0755
-65.6865
-64.7273
-64.5885
-64.3424
-63.9424
-63.6974
-63.8043
-64.0396
-71.4953
-71.8334
-70.4408
-68.9372
-68.7579
-66.7859
-66.0321
-65.7927
-64.996
-64.765
-64.8135
-65.1193
-65.8978
-67.0016
-72.9892
-72.4157
-70.6089
-68.9017
-68.8379
-66.6256
-66.545
-65.7201
-65.137
-65.2639
-65.7345
-66.3173
-66.8865
-68.6066
-68.9532
-70.9177
-69.8381
-69.317
-68.7077
-67.5858
-67.0277
-67.119
-66.5806
-66.4461
-66.8151
-67.0752
-67.8682
-67.4979
-68.3309
-67.8125
-67.7528
-70.4773
-69.5488
-68.9127
-68.8693
-68.1618
-67.5947
-67.5681
-67.6299
-67.6631
-67.7598
-67.4897
-67.743
-67.4521
-67.1721
-67.0986
-67.1117
-67.1913
-69.6646
-69.1141
-68.7384
-68.7039
-68.4761
-68.1324
-68.4702
-68.2687
-68.2967
-67.9739
-67.303
-67.1338
-66.6937
-66.352
-66.4337
-66.3366
-66.5555
-66.5565
-58.7999
-59.0649
-59.1988
-59.1342
-59.2239
-59.2457
-59.3743
-59.381
-59.387
-59.3516
-59.4982
-59.6595
-59.6898
-59.6315
-59.6194
-59.8092
-59.9529
-59.9372
-59.8906
-59.8689
-60.0605
-60.0776
-60.2171
-60.2678
-60.2601
-60.2013
-60.5598
-60.6879
-60.6581
-60.5412
-60.4723
-60.4087
-60.3194
-61.1114
-61.0885
-61.0381
-61.0448
-60.9563
-60.8629
-60.7407
-61.7959
-61.7461
-61.5305
-61.4449
-61.3697
-61.1107
-61.0699
-60.9269
-62.3585
-62.325
-62.2045
-61.9558
-61.8266
-61.7496
-61.6631
-61.3867
-61.2318
-63.2307
-63.1412
-62.7881
-62.5234
-62.335
-62.2375
-61.8114
-61.7549
-61.637
-61.5294
-64.0513
-63.787
-63.35
-63.1429
-63.0001
-62.7375
-62.5743
-62.427
-62.0547
-61.8286
-61.7062
-65.5654
-65.0506
-64.6294
-64.2757
-63.8454
-63.5435
-63.3101
-62.8538
-62.5052
-62.4305
-62.3891
-62.4116
-66.4283
-66.217
-65.6812
-65.1211
-64.8511
-64.2011
-63.7274
-63.5665
-63.0527
-62.9149
-62.9186
-63.1278
-63.149
-68.5345
-67.8925
-67.5341
-67.1177
-65.9376
-65.4319
-64.7632
-64.4966
-64.1848
-64.0924
-63.6921
-63.8768
-63.9771
-64.7503
-71.0902
-71.211
-70.07
-68.5404
-68.0387
-66.6429
-66.024
-65.7342
-64.8322
-64.9966
-64.8186
-65.3749
-66.3164
-67.4071
-69.4856
-72.3003
-71.6256
-70.1402
-68.5963
-68.5625
-66.536
-66.3953
-65.6434
-65.0376
-65.4478
-66.0512
-66.618
-67.51
-69.0898
-69.3621
-70.395
-70.6469
-69.6461
-69.1047
-68.4842
-67.4263
-66.979
-67.0639
-66.5568
-66.6301
-67.0014
-67.5202
-68.2915
-67.8808
-68.6621
-67.8726
-67.8571
-68.0664
-70.3042
-69.3777
-68.7428
-68.7384
-68.0307
-67.5738
-67.5964
-67.6927
-67.8376
-67.922
-67.6479
-67.9116
-67.5396
-67.2114
-67.1694
-67.1628
-67.2229
-67.1071
-69.5749
-69.0535
-68.678
-68.6678
-68.4427
-68.1308
-68.5178
-68.2978
-68.3393
-68.0483
-67.3663
-67.1599
-66.7218
-66.3584
-66.3962
-66.3113
-66.5834
-66.5603
-66.2422
-58.8292
-58.8868
-59.0831
-59.0422
-59.2229
-59.1062
-59.097
-59.2384
-59.2508
-59.2156
-59.2975
-59.3282
-59.3622
-59.3297
-59.3516
-59.5167
-59.5936
-59.6471
-59.5983
-59.5983
-59.5387
-59.7876
-59.8941
-59.8875
-59.8345
-59.8174
-59.8037
-59.9867
-60.0803
-60.1289
-60.1888
-60.2016
-60.1324
-60.0751
-60.4309
-60.5608
-60.5395
-60.466
-60.4825
-60.3636
-60.2655
-60.1033
-60.8508
-61.0595
-60.9266
-60.9536
-60.875
-60.7298
-60.6731
-60.5402
-61.5017
-61.5728
-61.5492
-61.3293
-61.2575
-61.122
-61.0166
-60.8777
-60.725
-62.2095
-62.0983
-62.0896
-61.8868
-61.72
-61.6966
-61.5186
-61.3032
-61.1881
-61.0925
-63.1729
-62.9486
-62.6228
-62.3559
-62.2297
-62.0742
-61.8141
-61.595
-61.5919
-61.4446
-61.4168
-64.0092
-63.5919
-63.2899
-62.9962
-62.8329
-62.5568
-62.3816
-62.3648
-61.8926
-61.7371
-61.6962
-61.7648
-65.4149
-64.7317
-64.4914
-64.0426
-63.5561
-63.3232
-63.1093
-62.7068
-62.3888
-62.3178
-62.3732
-62.3253
-62.5137
-66.204
-65.769
-65.4076
-64.8623
-64.5492
-63.9511
-63.4024
-63.3989
-63.0169
-62.9296
-62.8672
-63.0252
-63.1241
-63.283
-68.2155
-67.6037
-67.3044
-66.893
-65.9227
-65.3771
-64.6973
-64.4081
-64.0664
-64.0149
-63.7387
-63.9643
-64.1371
-64.49
-65.3921
-70.7214
-70.4173
-69.5841
-68.0595
-67.4849
-66.4891
-65.8848
-65.5504
-64.8875
-64.5078
-65.2803
-65.5171
-66.7108
-67.9896
-70.1567
-71.7491
-71.6394
-70.8566
-69.65
-68.2609
-68.1144
-66.4849
-66.2533
-65.5227
-64.9859
-65.9166
-66.3345
-67.0624
-68.3696
-69.5665
-69.8625
-71.0751
-70.1342
-70.3897
-69.4154
-68.8672
-68.2058
-67.3041
-66.892
-67.0217
-66.5734
-66.8363
-67.3019
-68.0052
-68.7217
-68.3392
-68.9831
-67.9192
-67.9347
-68.1392
-67.7081
-70.1341
-69.1934
-68.57
-68.5563
-67.9278
-67.5732
-67.6318
-67.7678
-68.0149
-68.1291
-67.8306
-68.0518
-67.6177
-67.2661
-67.2475
-67.2097
-67.2412
-67.113
-66.7111
-69.4824
-68.9918
-68.6049
-68.6316
-68.4079
-68.1352
-68.5573
-68.3317
-68.3981
-68.1104
-67.4247
-67.1873
-66.7497
-66.347
-66.4058
-66.3137
-66.603
-66.5708
-66.2472
-66.264
-58.5825
-58.8659
-58.9488
-58.9087
-59.0998
-59.0691
-58.999
-59.136
-59.0972
-59.0444
-59.1134
-59.1797
-59.1826
-59.2077
-59.1885
-59.2804
-59.3046
-59.3631
-59.2926
-59.3137
-59.334
-59.5079
-59.6558
-59.6433
-59.6009
-59.5182
-59.5388
-59.4879
-59.6901
-59.8585
-59.8266
-59.8126
-59.8057
-59.7206
-59.7864
-59.8971
-60.0632
-60.0921
-60.1132
-60.0753
-60.0687
-60.0644
-59.9845
-60.2974
-60.4745
-60.4457
-60.4348
-60.4283
-60.3577
-60.2067
-60.1782
-60.1252
-60.7989
-60.8866
-60.9292
-60.846
-60.7753
-60.6219
-60.5819
-60.5336
-60.4485
-61.4222
-61.3817
-61.3692
-61.1951
-61.0995
-61.1109
-60.9832
-60.7933
-60.6519
-60.6142
-62.1407
-62.0086
-61.9309
-61.8606
-61.6838
-61.5447
-61.3463
-61.2743
-61.074
-61.0222
-60.8999
-63.0538
-62.6399
-62.3886
-62.2076
-62.1798
-61.9317
-61.7314
-61.5961
-61.5343
-61.3778
-61.324
-61.2688
-63.6697
-63.3191
-63.1217
-62.957
-62.7064
-62.3866
-62.3546
-62.1225
-61.7983
-61.6158
-61.632
-61.709
-61.8943
-64.9724
-64.4202
-64.234
-63.8146
-63.5657
-63.1652
-62.9378
-62.5675
-62.3552
-62.2228
-62.3597
-62.3279
-62.5138
-62.4689
-65.9495
-65.2983
-65.0569
-64.6036
-64.3915
-63.6602
-63.2523
-63.2492
-63.1798
-62.8076
-62.9339
-62.9336
-63.2417
-63.2593
-63.646
-67.9923
-67.3743
-67.197
-66.6681
-65.7647
-65.2651
-64.5458
-64.4454
-64.2047
-63.8318
-63.7015
-64.0882
-64.2433
-64.7634
-65.4549
-66.312
-70.3221
-69.845
-69.1511
-67.5416
-66.9788
-66.3293
-65.7436
-65.4377
-64.8187
-64.506
-65.6804
-66.2271
-67.372
-68.8828
-70.7154
-72.5592
-71.986
-71.0172
-70.2454
-69.1454
-67.9447
-67.591
-66.4562
-66.1393
-65.363
-64.9566
-65.9732
-67.0696
-67.5643
-69.4508
-70.1711
-70.5312
-71.4672
-70.4427
-69.0446
-70.1472
-69.1986
-68.6093
-67.9636
-67.1947
-66.8028
-66.9758
-66.5462
-66.931
-67.7204
-68.3737
-69.1109
-68.7423
-69.138
-67.9357
-67.9857
-68.2195
-67.7199
-67.267
-69.9549
-68.985
-68.4005
-68.3817
-67.8763
-67.5748
-67.6815
-67.7947
-68.2648
-68.3678
-68.0012
-68.1761
-67.6799
-67.3254
-67.2813
-67.2115
-67.2632
-67.1112
-66.6889
-66.5963
-69.3911
-68.9422
-68.5609
-68.5968
-68.3763
-68.1433
-68.5959
-68.3725
-68.4593
-68.185
-67.4763
-67.2163
-66.7763
-66.3548
-66.4667
-66.3598
-66.6182
-66.574
-66.251
-66.2485
-66.3014
-58.4761
-58.6706
-58.6947
-58.808
-58.9033
-58.9139
-58.8982
-59.03
-59.008
-58.9507
-59.0375
-59.0723
-59.0409
-59.0304
-59.0219
-59.0605
-59.1959
-59.2005
-59.2127
-59.1624
-59.1432
-59.2779
-59.3068
-59.3204
-59.3162
-59.2964
-59.303
-59.2776
-59.3945
-59.6026
-59.6794
-59.6532
-59.4922
-59.4874
-59.435
-59.4056
-59.6365
-59.7321
-59.8159
-59.76
-59.7405
-59.7649
-59.7
-59.6122
-59.8914
-60.0131
-60.1151
-60.0519
-60.0683
-60.0414
-59.8981
-59.9266
-59.8251
-60.3724
-60.3728
-60.2443
-60.3868
-60.3541
-60.3256
-60.1272
-60.0886
-60.0697
-59.9689
-60.7469
-60.8083
-60.8374
-60.7382
-60.7137
-60.6015
-60.5756
-60.4335
-60.3221
-60.2338
-61.3371
-61.2092
-61.247
-61.0826
-61.0679
-61.0419
-60.8859
-60.7946
-60.6079
-60.5163
-60.4646
-62.0268
-61.9436
-61.8115
-61.6857
-61.5522
-61.3937
-61.2308
-61.2062
-60.9838
-61.0133
-60.8512
-60.8175
-62.8143
-62.6018
-62.2629
-61.9918
-61.9707
-61.8547
-61.6655
-61.5043
-61.478
-61.2521
-61.3091
-61.241
-61.2914
-63.5058
-63.1382
-62.8743
-62.7786
-62.4889
-62.3082
-62.188
-61.9321
-61.7798
-61.5662
-61.6214
-61.6593
-61.8377
-61.7998
-64.6599
-64.2503
-63.9254
-63.549
-63.332
-63.0073
-62.7594
-62.4587
-62.3127
-62.3535
-62.2946
-62.1719
-62.4474
-62.4764
-62.6285
-65.6687
-65.1061
-64.7934
-64.4514
-64.0774
-63.6264
-63.0646
-63.236
-63.1643
-62.8983
-62.9479
-63.0665
-63.1361
-63.2906
-63.3763
-63.9437
-67.6901
-67.2519
-67.1186
-66.5215
-65.5653
-65.112
-64.6726
-64.2803
-64.0744
-63.7902
-63.9276
-64.0631
-64.2345
-65.0718
-65.5733
-66.7066
-67.8522
-69.9213
-69.3272
-68.4612
-67.2369
-66.6297
-66.1786
-65.7129
-65.2441
-64.6551
-64.6691
-64.9919
-67.0774
-68.7002
-69.9039
-71.4117
-73.0071
-71.9074
-71.2832
-70.5252
-69.6836
-68.5839
-67.6071
-67.1635
-66.3221
-66.087
-65.3617
-64.9529
-66.2243
-67.8477
-68.3067
-70.5585
-70.5838
-71.488
-71.7516
-70.654
-68.9908
-68.928
-69.8912
-68.9745
-68.3388
-67.7961
-67.0876
-66.7766
-66.9702
-66.5498
-67.2097
-68.1469
-68.7868
-69.5494
-69.1207
-69.0723
-67.9642
-68.011
-68.2519
-67.7009
-67.2054
-67.3522
-69.7666
-68.7731
-68.2506
-68.214
-67.8468
-67.5852
-67.7236
-67.8694
-68.544
-68.5903
-68.1507
-68.3099
-67.7242
-67.3583
-67.2676
-67.1802
-67.2852
-67.1052
-66.6721
-66.5331
-66.5617
-69.2965
-68.8897
-68.4753
-68.5616
-68.3458
-68.1586
-68.6349
-68.4204
-68.5122
-68.2558
-67.5216
-67.2448
-66.8012
-66.3983
-66.5185
-66.3983
-66.6283
-66.5749
-66.2542
-66.2372
-66.2829
-66.2708
-69.1188
-58.332
-58.5292
-58.6282
-58.6765
-58.7132
-58.7251
-58.8004
-58.889
-58.864
-58.8435
-58.9087
-59.0317
-59.0036
-58.9478
-58.8848
-59.0635
-59.0479
-59.0463
-59.0206
-59.0128
-58.9837
-59.0211
-59.1569
-59.2308
-59.1988
-59.1274
-59.1228
-59.1175
-59.2509
-59.2748
-59.3316
-59.2665
-59.301
-59.3302
-59.2343
-59.2405
-59.4179
-59.5759
-59.6247
-59.5928
-59.5602
-59.5091
-59.347
-59.4098
-59.3835
-59.5585
-59.6839
-59.7316
-59.6955
-59.7498
-59.7391
-59.6523
-59.6198
-59.5436
-59.8809
-60.0086
-59.9761
-60.0463
-60.0186
-60.0122
-59.8886
-59.8482
-59.7584
-59.6701
-60.2185
-60.2845
-60.2505
-60.3254
-60.3246
-60.2336
-60.083
-60.0534
-60.0037
-59.9036
-59.8276
-60.6551
-60.6324
-60.7349
-60.7669
-60.6792
-60.5445
-60.4878
-60.3459
-60.2418
-60.2103
-60.1338
-61.1544
-61.1162
-61.1777
-61.048
-60.9935
-60.8743
-60.7872
-60.6761
-60.5497
-60.4419
-60.4199
-60.435
-61.8664
-61.8372
-61.6173
-61.5322
-61.3876
-61.3061
-61.1655
-61.0863
-60.9206
-60.947
-60.8056
-60.7571
-60.6422
-62.5702
-62.4094
-62.0576
-61.8637
-61.8352
-61.6928
-61.4604
-61.4394
-61.4518
-61.1582
-61.238
-61.1916
-61.2521
-61.3763
-63.4364
-63.0424
-62.796
-62.5728
-62.3368
-62.1585
-61.9991
-61.9184
-61.7527
-61.5342
-61.5357
-61.624
-61.82
-61.7523
-61.7448
-64.3822
-63.9125
-63.7576
-63.392
-63.0442
-62.8763
-62.6157
-62.2773
-62.2996
-62.372
-62.2394
-62.084
-62.3818
-62.5233
-62.5169
-62.3898
-65.3456
-64.9744
-64.4505
-64.0684
-63.859
-63.5585
-62.7974
-63.2219
-62.9531
-62.8965
-62.7566
-62.9753
-63.1366
-63.3765
-63.7294
-63.7808
-63.9885
-67.4771
-67.1878
-66.9026
-66.4822
-65.1721
-64.9149
-64.583
-64.1594
-63.952
-63.7512
-64.0711
-64.1059
-64.5835
-65.2214
-65.9241
-66.9461
-67.8147
-67.8735
-69.3138
-68.9472
-67.9262
-67.0004
-66.2913
-65.9304
-65.6292
-65.1604
-64.7156
-64.5918
-65.3512
-66.7384
-68.7433
-70.7282
-72.2157
-73.0608
-71.5316
-70.9456
-68.9162
-70.0953
-69.1059
-68.1306
-67.2574
-66.8089
-66.1707
-66.0911
-65.3892
-65.1503
-66.7036
-68.1126
-69.2405
-71.462
-71.0291
-72.2315
-71.7759
-70.1187
-68.8915
-68.6017
-67.067
-69.6541
-68.7123
-68.1082
-67.6445
-66.9665
-66.7346
-66.9932
-66.6478
-67.6085
-68.6159
-69.2563
-70.0334
-69.2419
-68.9549
-68.0065
-67.9967
-68.2234
-67.68
-67.1398
-67.2574
-66.561
-69.5743
-68.5812
-68.118
-68.0881
-67.8311
-67.6054
-67.7489
-67.9654
-68.8016
-68.8404
-68.3081
-68.4432
-67.7468
-67.3538
-67.2425
-67.144
-67.2613
-67.0859
-66.6564
-66.4686
-66.4353
-66.5731
-69.2159
-69.206
-68.8103
-68.3925
-68.5264
-68.3181
-68.1721
-68.6785
-68.4765
-68.5755
-68.3201
-67.5627
-67.2723
-66.8207
-66.4418
-66.5723
-66.4228
-66.6356
-66.5719
-66.2557
-66.2265
-66.265
-66.2587
-66.559
-68.6408
-58.3915
-58.4299
-58.5625
-58.6584
-58.6358
-58.6743
-58.7459
-58.727
-58.7704
-58.7519
-58.8801
-58.8256
-58.8207
-58.7603
-58.9286
-58.9593
-59.0094
-58.9453
-58.8924
-58.871
-59.0073
-59.0368
-59.0451
-59.0698
-59.0309
-58.9711
-58.9769
-59.0441
-59.1382
-59.2063
-59.1943
-59.1361
-59.1167
-59.1023
-59.0436
-59.2108
-59.2843
-59.3293
-59.261
-59.3177
-59.2869
-59.2668
-59.259
-59.1825
-59.3963
-59.4973
-59.5683
-59.55
-59.5349
-59.46
-59.4856
-59.3973
-59.3621
-59.2384
-59.4835
-59.7109
-59.6953
-59.6623
-59.6519
-59.7114
-59.692
-59.6253
-59.5431
-59.4658
-59.7904
-59.9128
-59.9009
-59.9802
-59.959
-59.9158
-59.785
-59.8018
-59.7326
-59.6673
-59.5957
-60.1719
-60.1814
-60.2141
-60.2468
-60.2486
-60.1931
-60.0995
-59.9735
-59.955
-59.8696
-59.7874
-59.7619
-60.5906
-60.5163
-60.608
-60.672
-60.5334
-60.5565
-60.3774
-60.2862
-60.1957
-60.1166
-60.0513
-60.089
-61.0896
-61.0325
-61.0081
-60.9721
-60.9688
-60.7167
-60.6206
-60.6029
-60.5043
-60.4297
-60.3901
-60.3354
-60.3633
-61.7455
-61.6642
-61.4321
-61.3275
-61.3229
-61.2398
-61.1372
-60.9908
-60.8776
-60.8546
-60.7415
-60.7613
-60.7007
-60.7015
-62.3946
-62.2851
-61.9741
-61.8359
-61.6707
-61.5431
-61.431
-61.4044
-61.4027
-61.1098
-61.1129
-61.1372
-61.2141
-61.3451
-61.1528
-63.1548
-62.8323
-62.5667
-62.4536
-62.2466
-62.0967
-61.8354
-61.8219
-61.6846
-61.4674
-61.5539
-61.6144
-61.756
-61.7214
-61.6229
-61.4271
-64.1656
-63.6685
-63.3074
-63.2246
-62.9653
-62.7191
-62.6043
-62.2768
-62.2524
-62.2454
-62.1733
-62.1393
-62.281
-62.5018
-62.4949
-62.3388
-62.4898
-64.9479
-64.9569
-64.1461
-64.1233
-63.9113
-63.2264
-62.6625
-63.0506
-62.9284
-62.8765
-62.7944
-62.8617
-62.9472
-63.3445
-63.9596
-63.4951
-63.976
-63.7857
-67.2981
-67.0323
-66.6877
-66.2126
-65.0751
-64.6513
-64.0922
-64.0314
-63.9538
-63.7768
-63.9726
-64.1739
-64.6522
-65.4441
-66.2205
-67.0221
-67.6155
-67.5178
-66.7665
-68.9113
-68.4031
-67.4577
-66.6165
-66.0412
-65.728
-65.3774
-65.0626
-64.6219
-64.4702
-65.8391
-67.1884
-69.7982
-71.0469
-72.3909
-72.7154
-71.7638
-70.3559
-68.6833
-67.3654
-69.7357
-68.6971
-67.7159
-66.9346
-66.5372
-66.0337
-66.0795
-65.4571
-65.3033
-67.1272
-68.7883
-70.0914
-71.8364
-71.5436
-72.3952
-71.6093
-69.8667
-68.8549
-68.251
-66.8001
-66.1322
-69.4571
-68.4528
-67.9144
-67.5007
-66.8291
-66.6788
-67.0447
-66.8136
-67.8412
-69.1466
-69.7302
-70.4681
-69.0648
-68.7965
-68.0287
-67.9297
-68.1685
-67.6682
-67.0687
-67.1387
-66.3715
-66.1557
-69.1622
-69.3895
-68.3992
-67.9847
-67.9953
-67.7956
-67.6327
-67.7967
-68.0705
-69.0472
-69.0732
-68.4523
-68.5703
-67.7512
-67.335
-67.206
-67.1143
-67.2169
-67.0654
-66.6372
-66.4024
-66.3182
-66.4324
-66.4025
-68.0978
-68.7212
-68.3417
-68.4887
-68.2951
-68.1944
-68.7272
-68.5352
-68.6447
-68.3883
-67.5988
-67.3015
-66.8339
-66.4823
-66.6039
-66.441
-66.6398
-66.5631
-66.2557
-66.2136
-66.2482
-66.2382
-66.5495
-66.8342
-68.2571
-58.4277
-58.4665
-58.4659
-58.5608
-58.6492
-58.6228
-58.6674
-58.6456
-58.7341
-58.7034
-58.7077
-58.637
-58.835
-58.8049
-58.8139
-58.7984
-58.7441
-58.7847
-58.9416
-58.9744
-58.9844
-58.9704
-58.9003
-58.8195
-58.8221
-58.9334
-59.0132
-59.0064
-59.0035
-58.9979
-58.994
-58.9719
-58.9087
-58.9786
-59.0801
-59.2046
-59.1851
-59.1509
-59.083
-59.1291
-59.0246
-58.9576
-59.1626
-59.2346
-59.2471
-59.341
-59.2414
-59.2438
-59.2483
-59.2408
-59.1944
-59.0927
-59.3153
-59.4465
-59.4924
-59.5188
-59.4647
-59.4357
-59.4225
-59.3978
-59.344
-59.1886
-59.1334
-59.4806
-59.5948
-59.6508
-59.6538
-59.6449
-59.6447
-59.5895
-59.5743
-59.5097
-59.4159
-59.327
-59.7361
-59.7818
-59.8505
-59.9212
-59.8973
-59.8945
-59.7285
-59.7121
-59.6938
-59.6506
-59.4962
-59.457
-60.1397
-60.2016
-60.0925
-60.1426
-60.1475
-60.1059
-59.9915
-59.9752
-59.9032
-59.8371
-59.759
-59.7254
-59.6819
-60.5475
-60.4795
-60.5029
-60.4719
-60.4455
-60.4755
-60.3212
-60.2345
-60.1165
-60.0316
-60.0125
-60.0212
-59.902
-61.0212
-61.0097
-60.9516
-60.8608
-60.7908
-60.6002
-60.5767
-60.554
-60.4541
-60.3775
-60.3262
-60.3562
-60.2883
-60.1609
-61.5516
-61.5618
-61.381
-61.2975
-61.2163
-61.0765
-61.0029
-60.9002
-60.8664
-60.7911
-60.6595
-60.6955
-60.6725
-60.6244
-60.4868
-62.1791
-62.1744
-61.8246
-61.7926
-61.5542
-61.4126
-61.2904
-61.4048
-61.2848
-61.041
-61.0682
-61.1614
-61.2147
-61.3264
-61.1781
-60.8667
-62.9415
-62.7349
-62.3813
-62.3193
-62.0584
-61.8934
-61.7274
-61.7808
-61.5647
-61.5393
-61.5474
-61.6094
-61.6519
-61.698
-61.5357
-61.3041
-61.0206
-63.8574
-63.4863
-63.0346
-63.0342
-62.8651
-62.5231
-62.5781
-62.3207
-62.2863
-62.2289
-62.1097
-61.9746
-62.1843
-62.4585
-62.3181
-62.3161
-62.3176
-62.1369
-64.7265
-64.7126
-64.1785
-64.1851
-63.9727
-63.0641
-62.7136
-62.8949
-62.9719
-62.8499
-62.881
-62.9098
-63.1978
-63.3408
-63.6872
-63.2617
-63.6725
-63.5387
-63.6847
-66.9022
-66.9328
-66.4702
-65.7581
-65.2338
-64.4504
-63.9259
-63.8617
-63.7942
-63.9129
-63.9634
-64.1788
-64.2368
-65.5654
-66.7748
-66.9503
-67.2629
-66.9569
-66.2046
-65.2472
-68.3491
-67.8476
-67.0217
-66.3324
-65.7939
-65.5637
-65.2606
-65.0429
-64.6208
-64.6073
-66.1005
-68.0508
-71.2374
-71.318
-71.9139
-72.4159
-71.2216
-69.5547
-68.2982
-66.9161
-65.571
-69.3792
-68.3695
-67.3196
-66.6554
-66.3453
-65.9149
-66.0662
-65.5347
-65.5751
-67.5822
-69.659
-70.8688
-72.1537
-71.9101
-72.3483
-71.4562
-69.9264
-68.7066
-67.9064
-66.5744
-65.8406
-65.4301
-68.9758
-69.2981
-68.2373
-67.7301
-67.3297
-66.726
-66.6538
-67.1092
-66.9764
-68.208
-69.6318
-70.1666
-70.7748
-68.9195
-68.7134
-67.9938
-67.8679
-68.0779
-67.6449
-67.0018
-66.971
-66.1737
-65.9571
-65.9609
-67.8213
-68.2394
-67.8515
-67.881
-67.7413
-67.6746
-67.8782
-68.2006
-69.2771
-69.2352
-68.5945
-68.6791
-67.7393
-67.3026
-67.1829
-67.0956
-67.1799
-67.0509
-66.6133
-66.3303
-66.201
-66.2983
-66.2589
-66.5351
-67.6057
-68.3032
-68.4448
-68.2763
-68.1993
-68.7819
-68.6027
-68.716
-68.4471
-67.6261
-67.3205
-66.844
-66.5075
-66.626
-66.4499
-66.6385
-66.5564
-66.2543
-66.1991
-66.251
-66.2135
-66.5211
-66.7977
-66.8585
-68.3699
-58.4404
-58.4879
-58.4673
-58.4649
-58.6013
-58.6626
-58.644
-58.6202
-58.5829
-58.7105
-58.7088
-58.7108
-58.6357
-58.6043
-58.6238
-58.7548
-58.8066
-58.7687
-58.7862
-58.7405
-58.7594
-58.7115
-58.8511
-58.9463
-58.9647
-58.9582
-58.8953
-58.8248
-58.7752
-58.7617
-58.8707
-58.9187
-58.9992
-59.0039
-59.0256
-58.9511
-58.9614
-58.9327
-58.8332
-58.9425
-59.0569
-59.1778
-59.17
-59.1564
-59.116
-59.1164
-59.0566
-58.9708
-58.9088
-59.1342
-59.2017
-59.211
-59.2175
-59.275
-59.2493
-59.228
-59.1622
-59.1556
-59.0628
-58.9808
-59.2592
-59.4282
-59.464
-59.4288
-59.4553
-59.4451
-59.3722
-59.3369
-59.294
-59.1453
-59.1285
-59.069
-59.4209
-59.5562
-59.494
-59.5688
-59.6484
-59.5946
-59.5487
-59.4988
-59.4665
-59.3904
-59.3
-59.2526
-59.7171
-59.7614
-59.7617
-59.8164
-59.8232
-59.7875
-59.6772
-59.6465
-59.6276
-59.5795
-59.4837
-59.4365
-59.3821
-60.04
-60.0473
-59.9745
-60.0345
-60.0695
-60.0614
-59.8819
-59.9204
-59.9037
-59.795
-59.7375
-59.6812
-59.6019
-59.56
-60.4131
-60.4435
-60.441
-60.4559
-60.3732
-60.3932
-60.152
-60.1523
-60.0938
-59.9715
-59.9667
-59.9448
-59.8917
-59.7542
-60.8159
-60.8495
-60.8639
-60.7774
-60.697
-60.547
-60.5268
-60.519
-60.3756
-60.3103
-60.2832
-60.3047
-60.2225
-60.1369
-60.047
-61.4
-61.335
-61.2723
-61.1736
-61.0536
-61.0163
-60.9464
-60.8366
-60.8073
-60.7037
-60.6177
-60.6339
-60.6058
-60.602
-60.3509
-60.1083
-62.0226
-61.8062
-61.7228
-61.682
-61.4742
-61.3068
-61.2512
-61.3019
-61.1586
-61.0348
-61.0539
-61.2484
-61.2652
-61.2927
-61.0346
-60.8735
-60.7227
-62.8402
-62.5646
-62.2978
-62.1736
-62.0284
-61.762
-61.6947
-61.6978
-61.5673
-61.51
-61.5504
-61.6223
-61.6036
-61.611
-61.4284
-61.2313
-60.932
-60.8822
-63.5909
-63.2753
-62.976
-62.6281
-62.6378
-62.7164
-62.5803
-62.3402
-62.2443
-62.2242
-62.1227
-61.9261
-62.1657
-62.3405
-62.2859
-62.2867
-62.136
-61.9103
-61.8308
-64.6281