/*--------------------------------*- C++ -*----------------------------------*\
  =========                 |
  \\      /  F ield         | OpenFOAM: The Open Source CFD Toolbox
   \\    /   O peration     | Website:  https://openfoam.org
    \\  /    A nd           | Version:  7
     \\/     M anipulation  |
\*---------------------------------------------------------------------------*/
FoamFile
{
    version     2.0;
    format      ascii;
    class       surfaceScalarField;
    location    "8.5";
    object      phi_0;
}
// * * * * * * * * * * * * * * * * * * * * * * * * * * * * * * * * * * * * * //

dimensions      [0 3 -1 0 0 0 0];

internalField   nonuniform List<scalar> 
53739
(
7.19129e-05
-0.003561
-9.41523e-05
0.000103382
-0.00313814
-0.000256515
5.42713e-05
-0.00359767
-9.59372e-05
2.04868e-06
-0.00311922
-9.65993e-05
2.68145e-05
-0.00246082
-0.000394303
8.49989e-05
-0.0031828
-0.00025358
-9.59974e-06
-0.00283111
-0.00021677
4.22997e-05
-0.00362176
-9.3484e-05
-9.11618e-06
-0.00310925
-9.67875e-05
-5.00913e-05
-0.00172072
-8.45608e-05
-0.000244661
-0.000582971
-0.000452416
1.39557e-05
-0.00248743
-0.000391792
-0.000107895
-0.00215979
-0.000278951
6.23677e-05
-0.0032108
-0.000251026
-3.21799e-05
-0.00284525
-0.000216375
-0.000102127
-0.00176792
-0.000174127
2.64559e-05
-0.00362974
-9.27921e-05
-2.11931e-05
-0.00308519
-9.63484e-05
-5.64354e-05
-0.00167544
-8.5641e-05
-9.68332e-05
-0.000799995
-7.34827e-05
-0.000644496
0.00301268
-0.00042332
-0.000296513
-0.000299282
-0.000448516
-0.000364721
0.000486782
-0.000375647
1.52156e-06
-0.00252826
-0.000382369
-0.000127785
-0.00218042
-0.000275563
-0.000164116
-0.00148998
-0.000195451
4.49814e-05
-0.00323065
-0.000247567
-5.35348e-05
-0.00284811
-0.00021583
-0.00011314
-0.0017457
-0.000181894
-0.000245352
-0.000937016
-0.000112241
1.48417e-05
-0.00362683
-9.13333e-05
-2.89431e-05
-0.00305317
-9.5875e-05
-6.31205e-05
-0.00162268
-8.59877e-05
-9.53336e-05
-0.000716237
-7.40654e-05
-0.000142111
0.000397997
-7.87277e-05
-0.000933621
0.00454521
0.000489713
-0.000667835
0.00342601
-0.000367624
-0.000785321
0.0046617
-0.000470617
-0.000182657
-0.000123545
-0.000448873
-0.000353181
0.000610442
-0.000346779
-0.000138288
0.000480896
-0.000331856
-1.38024e-05
-0.00256708
-0.000363377
-0.000150254
-0.00219905
-0.000267014
-0.000178208
-0.00150407
-0.000196397
-0.000321855
-0.00080281
-0.000105005
3.07446e-05
-0.00324164
-0.000246263
-8.17714e-05
-0.0028278
-0.00021504
-0.000129726
-0.00170915
-0.000185768
-0.000232609
-0.000860866
-0.000120769
-0.000350397
0.000121864
-0.000106726
-8.34273e-07
-0.00360675
-9.06158e-05
-3.35792e-05
-0.0030158
-9.51158e-05
-6.93118e-05
-0.00156279
-8.64493e-05
-9.76563e-05
-0.000630555
-7.40138e-05
-0.000145585
0.000548238
-7.87208e-05
-0.000142911
0.000768059
-9.05446e-05
-0.00103172
0.00617406
0.00105142
-0.000894456
0.00460904
0.000454966
-0.00108612
0.0050866
0.000558821
-0.000539741
0.00390884
-0.000585325
-0.000752079
0.00513578
-0.000442809
-0.00062793
0.00544943
-0.000572481
-0.000309475
0.000154276
-0.000422743
-0.000326857
0.000655598
-0.000317427
-0.000108797
0.000372497
-0.000307792
-0.000217081
0.00308528
-0.000176007
-2.92899e-05
-0.00259968
-0.000338211
-0.000178669
-0.00220989
-0.000255639
-0.000210845
-0.00149167
-0.000198294
-0.000345065
-0.000785306
-0.000101446
-0.000389365
0.000155173
-9.30301e-05
-7.13625e-06
-0.00322187
-0.000245031
-0.000113036
-0.00278517
-0.000209437
-0.000144413
-0.0016634
-0.000185688
-0.000226681
-0.000791562
-0.000126047
-0.000361641
0.000323878
-0.000106728
-0.000326663
0.001187
-0.000145987
-1.34515e-05
-0.00357446
-8.93665e-05
-5.49034e-05
-0.00295569
-9.58284e-05
-8.17881e-05
-0.00148938
-8.67321e-05
-9.74632e-05
-0.0005456
-7.39405e-05
-0.00015018
0.000702982
-7.8578e-05
-0.000142316
0.00092235
-9.06953e-05
-6.32399e-05
0.000130704
-8.75281e-05
-0.00110946
0.00675922
0.00190879
-0.001225
0.00638537
0.00112844
-0.00127808
0.00641284
0.00123306
-0.000991097
0.00525847
0.000584
-0.00106528
0.0053398
0.000514968
-0.00119537
0.00494156
0.00075314
-0.000579766
0.0043006
-0.000467937
-0.000703643
0.00538326
-0.000456013
-0.000491557
0.00600396
-0.000614581
-0.000541165
0.00479708
-0.000136726
-0.000283028
0.000367813
-0.000417323
-0.000267919
0.000606561
-0.000284457
-0.000203266
0.000309373
-0.000261881
-0.000213685
0.00281206
-0.000165949
-0.000350246
0.00287673
3.80684e-05
-7.5551e-05
-0.00261354
-0.000313883
-0.000212493
-0.00220328
-0.000245372
-0.000237287
-0.00146031
-0.000194131
-0.000339335
-0.000773358
-9.75871e-05
-0.000458437
0.000234063
-8.35393e-05
-0.000517824
0.00168379
-0.000116814
-4.59696e-05
-0.00316979
-0.000244247
-0.000129294
-0.00273657
-0.00021924
-0.000176909
-0.00160126
-0.000176457
-0.000229814
-0.000725204
-0.000119695
-0.000386889
0.000542218
-0.000107679
-0.000319404
0.00140149
-0.000144137
-0.000281106
0.00149261
-0.000193001
-2.0256e-05
-0.00353327
-9.09105e-05
-5.76474e-05
-0.00289174
-9.56697e-05
-7.8984e-05
-0.00141905
-8.71811e-05
-9.91568e-05
-0.000459782
-7.33932e-05
-0.000154603
0.000862166
-7.85219e-05
-0.000139253
0.00107404
-9.10135e-05
-5.95304e-05
0.000186714
-8.71742e-05
-5.45607e-05
5.21152e-05
-8.44181e-05
-0.00120381
0.00720544
0.00261771
-0.00144506
0.00691786
0.00194754
-0.00145141
0.0068855
0.00196484
-0.00122814
0.00635564
0.00124208
-0.00117984
0.00640109
0.00125476
-0.00118382
0.00625308
0.00134406
-0.000904036
0.00515621
0.000429211
-0.00104532
0.00564783
0.000617646
-0.00106474
0.00540084
0.000628872
-0.000980378
0.00555187
0.000962954
-0.000606466
0.0047595
-0.000439447
-0.000605314
0.00578497
-0.00053225
-0.000553201
0.00630374
-0.000405859
-0.000469292
0.00473809
-0.000299988
-0.000866541
0.00633483
0.000302859
-0.000324164
0.000532753
-0.000376888
-0.000285094
0.000521336
-0.000259497
-0.000231911
0.000196895
-0.000177357
-0.000198882
0.00253737
-0.000127642
-0.000343648
0.00254587
5.01234e-05
-0.000770883
0.00360246
9.61516e-05
-0.000116842
-0.0026099
-0.000294273
-0.00025854
-0.00216499
-0.000222918
-0.000253629
-0.00143551
-0.000193453
-0.00034418
-0.000745117
-0.000108006
-0.000502221
0.000323385
-7.15779e-05
-0.00048558
0.00187638
-0.00010995
-0.000514869
0.00204403
-0.000152489
-5.67467e-05
-0.00310731
-0.000243608
-0.000142693
-0.00267821
-0.000217562
-0.000181423
-0.00153853
-0.000179535
-0.000247521
-0.000644539
-0.000108758
-0.00041128
0.000781166
-0.000101966
-0.000308392
0.00160838
-0.000145433
-0.000267858
0.00174994
-0.000193143
-0.000237717
0.00178812
-0.000233118
-3.87651e-05
-0.00347237
-8.93142e-05
-6.7535e-05
-0.00281913
-9.59868e-05
-9.00511e-05
-0.00133707
-8.75945e-05
-0.000102212
-0.000371547
-7.3204e-05
-0.000157291
0.00102459
-7.85217e-05
-0.000134434
0.00122135
-9.14038e-05
-5.3575e-05
0.000236162
-8.68868e-05
-5.29176e-05
0.000101531
-8.36721e-05
-6.5473e-06
0.0001243
-8.33149e-05
-0.00100479
0.00712921
0.00308729
-0.00131309
0.00726335
0.00252237
-0.00121955
0.0072224
0.00247463
-0.00137891
0.00699912
0.00200436
-0.00127109
0.00690137
0.00202292
-0.0013096
0.00723147
0.00200332
-0.00120331
0.00649484
0.00131023
-0.00121851
0.00648578
0.00133058
-0.0011947
0.00634587
0.00129192
-0.00106992
0.0065834
0.0013634
-0.00103066
0.00546663
0.00054071
-0.00103172
0.00581361
0.000689832
-0.000960406
0.00578537
0.00064032
-0.000904581
0.00578339
0.00083264
-0.000879873
0.00559072
0.00101785
-0.000573723
0.00516796
-0.000378538
-0.000642749
0.00625242
-0.000549249
-0.000577217
0.00644346
-0.000326658
-0.000346109
0.0047652
-0.00028574
-0.000771425
0.00623208
0.000230536
-0.000854911
0.00502316
0.000110131
-0.000328662
0.000598115
-0.000341556
-0.000269557
0.000385058
-0.000229593
-0.000284124
4.18481e-05
-7.39544e-05
-0.000130352
0.00217383
-2.76529e-05
-0.000337729
0.00218251
7.12267e-05
-0.000688604
0.00373508
0.000120524
-0.000611511
0.00366966
-1.22581e-05
-0.000135766
-0.00257768
-0.000286097
-0.000292252
-0.00208356
-0.000226148
-0.000289287
-0.00137333
-0.000177229
-0.000377462
-0.000698213
-0.000110416
-0.000555987
0.000441887
-8.18019e-05
-0.000476849
0.00208104
-0.000107781
-0.000499007
0.00229274
-0.000127518
-0.000452746
0.00161627
-0.000243699
-9.7091e-05
-0.00302248
-0.000231739
-0.000159965
-0.00261222
-0.00021717
-0.000201617
-0.00147004
-0.000174486
-0.000266957
-0.000567142
-9.21883e-05
-0.000425723
0.00103692
-9.6084e-05
-0.000292857
0.00181254
-0.000147702
-0.000242822
0.00198838
-0.000194622
-0.000228989
0.00200871
-0.000237666
-0.000125758
0.00200903
-0.000214164
-4.62215e-05
-0.00340713
-8.7505e-05
-8.5587e-05
-0.00272595
-9.69035e-05
-9.60942e-05
-0.00124874
-8.82295e-05
-0.000104396
-0.000281076
-7.36699e-05
-0.000157289
0.00118728
-7.86059e-05
-0.000128448
0.0013633
-9.20165e-05
-5.07672e-05
0.000282206
-8.66804e-05
-4.68067e-05
0.000144128
-8.26778e-05
7.51402e-06
0.000116303
-8.31888e-05
1.35175e-06
-0.000482558
-6.69637e-05
-0.000868294
0.00633583
0.00327371
-0.0010294
0.00703883
0.00297779
-0.000845716
0.00661074
0.00288589
-0.00135665
0.00740301
0.0025214
-0.00120837
0.00719806
0.00248398
-0.00127994
0.00680803
0.00238676
-0.00131684
0.0071398
0.00201713
-0.00129765
0.00694886
0.002036
-0.00122346
0.00726844
0.00201471
-0.00105346
0.00716826
0.00186073
-0.001253
0.00650222
0.00136358
-0.0013896
0.00676168
0.00139222
-0.00106135
0.00649419
0.00128322
-0.001038
0.00663936
0.00136938
-0.000720532
0.00702207
0.00120737
-0.000921567
0.00585302
0.000568693
-0.00105119
0.00600618
0.000756584
-0.000957814
0.00610875
0.000747047
-0.000744969
0.0060102
0.000812371
-0.00106194
0.00567946
0.00103441
-0.000526757
0.00563536
0.000702992
-0.000563189
0.00557154
-0.000316252
-0.000555472
0.00667473
-0.000514928
-0.000607174
0.00644877
-0.000231516
-0.000216472
0.00477
-0.000245334
-0.000593149
0.00612609
7.56768e-05
-0.000853727
0.0052341
0.000184718
-0.000645542
0.00504661
-1.41221e-05
-0.0003754
0.000684397
-0.000315438
-0.000309102
0.000245486
-0.000185134
-0.000201123
-0.000276843
9.33728e-07
-0.000224105
0.0018276
0.000118926
-0.000313983
0.00178818
0.000124673
-0.000620516
0.00377563
0.000174341
-0.000583419
0.00384912
2.54831e-05
-0.000402673
0.00286136
5.72321e-05
-0.000188981
-0.00252858
-0.000274514
-0.00029564
-0.00200533
-0.000228648
-0.000308675
-0.00131503
-0.000177389
-0.000433124
-0.000614753
-9.45216e-05
-0.000611053
0.000600769
-8.39682e-05
-0.000455577
0.00225975
-9.77959e-05
-0.000457769
0.00255762
-0.000157712
-0.00045042
0.00191374
-0.000203558
-0.000364537
0.00234713
-0.000248071
-0.000120035
-0.00291739
-0.000231094
-0.000209258
-0.00251009
-0.000210195
-0.000219201
-0.00139123
-0.000172876
-0.000284054
-0.000474441
-8.75287e-05
-0.000428422
0.001305
-8.91299e-05
-0.000278227
0.00201482
-0.000148581
-0.000238207
0.00222707
-0.000198953
-0.000184812
0.00219155
-0.000239455
-8.13203e-05
0.0020879
-0.000227696
-0.000122497
0.00244869
-0.000168771
-6.02316e-05
-0.00332586
-8.66775e-05
-9.48062e-05
-0.00262202
-9.66288e-05
-0.00010109
-0.00115544
-8.9107e-05
-0.000106371
-0.00018854
-7.43937e-05
-0.000151176
0.00134419
-7.94074e-05
-0.000121404
0.0014989
-9.28057e-05
-4.74987e-05
0.000324117
-8.6429e-05
-5.11119e-05
0.000190208
-8.16483e-05
3.62113e-06
0.000112783
-8.2779e-05
1.93357e-06
-0.000500944
-6.67373e-05
1.0576e-05
-0.000500409
-5.43749e-05
-0.00088549
0.00608532
0.00359369
-0.000855289
0.00625937
0.00322566
-0.00083339
0.0062769
0.0031592
-0.00106301
0.00690466
0.00291509
-0.00103095
0.00659399
0.00281713
-0.0011379
0.00643247
0.00271877
-0.0013002
0.00755611
0.00252959
-0.00116669
0.00711403
0.00247448
-0.00110677
0.00687492
0.0023004
-0.0010276
0.0070379
0.00230063
-0.0012659
0.00720404
0.00207058
-0.00145562
0.00698991
0.00204209
-0.00115571
0.00739954
0.00199925
-0.00094576
0.00719614
0.0018946
-0.000781607
0.00736277
0.00179722
-0.00114334
0.00655351
0.00146556
-0.00129202
0.006908
0.0014581
-0.00106187
0.00661844
0.00137202
-0.000904212
0.00671694
0.00136488
-0.0008651
0.00685193
0.00134268
-0.000504232
0.0071986
0.00114525
-0.000999711
0.00633041
0.000578567
-0.0010152
0.00626697
0.000767635
-0.000983274
0.00648388
0.00075756
-0.000712552
0.00647629
0.00077704
-0.000881599
0.00570326
0.00107702
-0.000637604
0.00558341
0.000870239
-0.000457642
0.00582257
0.000513694
-0.000511552
0.00590604
-0.000300337
-0.000549694
0.0068329
-0.000233834
-0.000468265
0.00634533
-0.000144343
-0.000171226
0.00460215
-0.000116546
-0.00039804
0.0059226
4.22071e-05
-0.000811847
0.00527501
0.0002261
-0.000499334
0.00510705
4.01928e-05
-0.000461725
0.00566714
0.000130487
-0.000445657
0.000814881
-0.000268661
-0.000319388
0.000130276
-0.00017648
-0.000400561
-0.000405367
3.52761e-05
-0.000382189
0.00155017
0.00022742
-0.00027359
0.00143063
0.000139019
-0.00058289
0.00382917
0.000198447
-0.000523299
0.00402843
6.05576e-05
-0.000430639
0.00285002
1.70494e-05
-0.000429257
0.00324201
0.000258135
-0.00024118
-0.00244724
-0.000266936
-0.000298226
-0.00196967
-0.000221209
-0.000338457
-0.00124971
-0.000174716
-0.000494523
-0.000503188
-7.84852e-05
-0.0006379
0.000787868
-7.21433e-05
-0.000392335
0.00237873
-8.88428e-05
-0.00045666
0.00279298
-0.000114704
-0.000397499
0.00218739
-0.00021867
-0.000302161
0.00261708
-0.000252669
-0.000321146
0.00264843
-0.00017572
-0.000140448
-0.00279522
-0.000229342
-0.000221143
-0.00240664
-0.000208206
-0.000240365
-0.00128669
-0.000175452
-0.000303315
-0.000372841
-7.75323e-05
-0.000415561
0.00157139
-8.95313e-05
-0.000261917
0.00221921
-0.000153005
-0.000226602
0.0024557
-0.000198114
-0.000202929
0.00238948
-0.000245065
-8.50621e-05
0.002173
-0.000235876
-8.72797e-05
0.00249353
-0.000183329
7.55306e-05
0.00294861
-0.000153793
-7.3889e-05
-0.0032302
-8.58013e-05
-0.00010186
-0.00251018
-9.66611e-05
-0.000109141
-0.00105261
-9.03243e-05
-0.000105538
-9.66309e-05
-7.54781e-05
-0.000148233
0.0014986
-8.0566e-05
-0.000114325
0.00162756
-9.37388e-05
-4.09449e-05
0.000358659
-8.64029e-05
-5.23076e-05
0.000236498
-8.04117e-05
2.40109e-07
0.000113155
-8.22609e-05
1.3276e-05
-0.000530476
-6.65221e-05
2.1061e-05
-0.000534528
-5.36795e-05
1.37255e-05
-0.000161377
-4.04742e-05
-0.00100847
0.00532439
0.00416155
-0.00100877
0.00586187
0.0038337
-0.00080412
0.00607715
0.00359173
-0.000711389
0.00597022
0.00346201
-0.000803357
0.00608664
0.00322711
-0.000768851
0.00620525
0.0030352
-0.00105257
0.00604395
0.00311333
-0.00101306
0.00677253
0.00289329
-0.000902902
0.00645772
0.00278756
-0.00106903
0.00650722
0.00270463
-0.000869073
0.00627438
0.00263964
-0.00110435
0.00756328
0.0025174
-0.00110949
0.0068762
0.00242129
-0.00105592
0.00695866
0.00229095
-0.000775791
0.00689322
0.00227511
-0.000907079
0.00642361
0.00240707
-0.00122912
0.00732778
0.00208023
-0.00143756
0.00715922
0.0020468
-0.00120729
0.00752209
0.00206497
-0.000922361
0.00729028
0.00192326
-0.000674554
0.0072435
0.00182332
-0.000933099
0.00666411
0.00192427
-0.00119767
0.00664317
0.00152268
-0.00114058
0.00696964
0.00152929
-0.00105435
0.00672763
0.00141999
-0.000813103
0.00676162
0.00142789
-0.000727983
0.00672831
0.00133488
-0.000517534
0.00728412
0.00113709
-0.000638158
0.00655783
0.0013075
-0.00094173
0.00668437
0.00057289
-0.00104993
0.00649838
0.000847398
-0.000996861
0.00705423
0.000725879
-0.000563848
0.00691937
0.000707094
-0.000771943
0.00583273
0.00102148
-0.000721901
0.00575346
0.00081703
-0.000314734
0.00586223
0.000645974
-0.000597991
0.00598847
0.000676627
-0.000581372
0.00621937
-0.000268462
-0.000594063
0.00696341
-0.000156174
-0.000653697
0.00614615
0.00021848
-0.000336601
0.00433309
7.91305e-05
-0.00018534
0.00570528
1.25254e-05
-0.000749236
0.00519382
0.000289736
-0.000508782
0.00521398
0.000104655
-0.000450539
0.00549961
0.000227618
-0.000352979
0.00560149
0.000308532
-0.000528933
0.000995035
-0.000181905
-0.000279881
1.91179e-05
-0.000175848
-0.000478446
-0.000483928
4.20695e-05
-0.000486786
0.0013036
0.00027411
-0.000324772
0.00113682
0.000208098
-0.000384606
0.00375165
0.000208813
-0.000522427
0.00424813
4.45175e-05
-0.000425582
0.00299184
-5.31841e-05
-0.000374086
0.00317116
0.000159833
-0.000415551
0.00378252
0.000252875
-0.000273698
-0.00235392
-0.00027263
-0.000327287
-0.00191856
-0.000211904
-0.000384601
-0.00115451
-0.000172175
-0.000555497
-0.000358955
-6.67665e-05
-0.000636375
0.000995096
-6.48989e-05
-0.00040942
0.00254565
-9.15541e-05
-0.000450877
0.00302487
-9.64555e-05
-0.000404465
0.0024634
-0.000189181
-0.000255255
0.00281932
-0.000250713
-0.000229471
0.00274307
-0.000205124
-6.74735e-05
0.00383326
-0.00012059
-0.000164085
-0.00265913
-0.000226025
-0.0002297
-0.00229604
-0.00021211
-0.000267256
-0.00115634
-0.000180442
-0.000307642
-0.000261028
-8.51602e-05
-0.000420401
0.00185119
-8.51726e-05
-0.000249814
0.00242364
-0.000158475
-0.00020139
0.00266212
-0.000198976
-0.000201823
0.0025904
-0.000249521
-8.04297e-05
0.0022449
-0.000236294
-1.82644e-05
0.00248084
-0.000191644
0.000140808
0.00278826
-0.000142727
0.00019963
0.00120242
-9.71073e-05
-8.13361e-05
-0.00312522
-8.58328e-05
-0.000106079
-0.00239447
-9.54236e-05
-0.00011723
-0.000940435
-9.16018e-05
-0.000102207
-7.85417e-06
-7.68943e-05
-0.000138377
0.00164301
-8.15171e-05
-0.000106308
0.00174785
-9.45548e-05
-3.27162e-05
0.000384302
-8.66658e-05
-4.89479e-05
0.000278205
-7.91619e-05
-1.15044e-06
0.000115595
-8.17013e-05
2.81729e-05
-0.000574306
-6.66042e-05
2.41411e-05
-0.000572266
-5.29255e-05
8.59697e-06
-0.000183007
-4.06469e-05
-7.6884e-05
-0.00209306
-2.37737e-05
-0.000899675
0.00519281
0.00414942
-0.0010636
0.00545853
0.00406705
-0.000841627
0.00536912
0.0039977
-0.000916719
0.00593856
0.00375001
-0.0008706
0.00583057
0.00381672
-0.00069433
0.00610373
0.00349681
-0.000532083
0.00588735
0.00343783
-0.0007376
0.00573362
0.00336022
-0.000947583
0.00609792
0.00321662
-0.000604508
0.00604753
0.00308644
-0.00102253
0.00605365
0.002979
-0.000716974
0.00605899
0.00292992
-0.000801152
0.00659682
0.00287987
-0.000959538
0.00637411
0.00282695
-0.000868379
0.0063857
0.00272154
-0.000545937
0.00610502
0.00264414
-0.000846767
0.00593524
0.00252663
-0.00105153
0.00756196
0.00246064
-0.00122143
0.00680083
0.00237664
-0.00104184
0.00697314
0.00224137
-0.00078285
0.00679541
0.00224924
-0.000755596
0.00643865
0.00234112
-0.000929113
0.00593531
0.00230917
-0.00112449
0.00733507
0.00207309
-0.00127603
0.00733956
0.00203535
-0.00108533
0.0075685
0.00203136
-0.000787656
0.00732236
0.00200744
-0.000601205
0.00717026
0.00186972
-0.000846209
0.00689128
0.00192483
-0.000974115
0.00682279
0.00193271
-0.00124639
0.00687412
0.00152998
-0.00123268
0.00712921
0.00154586
-0.00104614
0.00681375
0.00149244
-0.000706223
0.00688998
0.001434
-0.000741303
0.00674394
0.00138162
-0.000620609
0.00732748
0.00119022
-0.000540672
0.00668374
0.00123712
-0.000677702
0.00593355
0.00140044
-0.000979489
0.00694265
0.000583537
-0.00106119
0.00677696
0.000761443
-0.000958643
0.00738236
0.000824215
-0.000594814
0.00715101
0.000752453
-0.000664366
0.00601791
0.00100093
-0.000621163
0.00586066
0.000786207
-0.000351304
0.00591739
0.000604395
-0.000434548
0.00601827
0.000600187
-0.000638388
0.00630818
0.000799595
-0.000654629
0.0064826
-0.000116009
-0.000494627
0.00693238
-2.26892e-05
-0.000701635
0.00587208
0.000341087
-0.00052389
0.00427547
0.0003132
-0.000224077
0.00556269
0.000121024
-0.000550833
0.00503271
0.000339868
-0.00060815
0.00541496
0.000174482
-0.000452391
0.00540653
0.000224542
-0.0003763
0.00547724
0.000354078
-0.000391709
0.00479924
0.000498404
-0.000595303
0.00119584
-0.000131567
-0.000373594
4.08879e-05
-0.000157368
-0.000618839
-0.000485772
6.02338e-05
-0.000721998
0.00122275
0.000289426
-0.000324153
0.000882133
0.000216576
-0.00041336
0.00368254
0.000281151
-0.000522942
0.00439763
0.000131374
-0.000392585
0.00312143
-9.6947e-05
-0.000324066
0.00310779
7.89894e-05
-0.000345844
0.00386516
0.000193558
-0.000241466
0.00397307
9.04271e-06
-0.000295486
-0.0022534
-0.000309503
-0.000357426
-0.00185407
-0.000209396
-0.00042087
-0.00103943
-0.000173371
-0.000582931
-0.000195223
-6.06177e-05
-0.000640684
0.0012105
-6.1892e-05
-0.000383252
0.00271052
-9.6333e-05
-0.000353688
0.00316614
-8.05284e-05
-0.000384798
0.00272352
-0.000173598
-0.000213527
0.00302421
-0.000260974
-0.00016654
0.00287218
-0.000231547
2.30449e-05
0.0038679
-0.000121997
0.000293706
0.00430839
-0.000113453
-0.000178553
-0.00252175
-0.000207968
-0.000231651
-0.00218594
-0.000210554
-0.000291658
-0.00100863
-0.000185396
-0.000304087
-0.000151028
-8.85626e-05
-0.00040321
0.00212265
-9.17797e-05
-0.000231827
0.00262831
-0.000164324
-0.000173619
0.00284813
-0.000203582
-0.00018762
0.00277814
-0.000248039
-8.08685e-05
0.0023156
-0.000240505
6.07671e-05
0.00240139
-0.000189438
0.000193738
0.00255428
-0.000127265
0.000207472
0.000956632
-9.58146e-05
7.23571e-05
-0.000233298
-5.7078e-05
-9.14667e-05
-0.00301025
-8.29804e-05
-0.000123002
-0.00226063
-9.66719e-05
-0.000127181
-0.000816097
-9.25805e-05
-0.000100341
7.9507e-05
-7.86217e-05
-0.000132344
0.00178096
-8.25018e-05
-9.86749e-05
0.00186035
-9.53361e-05
-2.58063e-05
0.000402663
-8.71092e-05
-4.30494e-05
0.000312732
-7.81427e-05
9.87876e-06
0.000107685
-8.11303e-05
4.20363e-05
-0.00063106
-6.69835e-05
1.91373e-05
-0.000605821
-5.2186e-05
3.80958e-06
-0.000199177
-4.05648e-05
-8.70116e-05
-0.00202155
-2.51453e-05
-0.0001352
-0.00214773
-1.60079e-05
-0.000688792
0.00498213
0.00457458
-0.000794777
0.00471186
0.00458807
-0.000983885
0.00525085
0.00407279
-0.000733811
0.00519408
0.00403193
-0.000943348
0.0055397
0.00402661
-0.000892686
0.00552483
0.00393343
-0.000641699
0.0056195
0.00377212
-0.000752028
0.00608216
0.00363529
-0.000785085
0.00610361
0.00372998
-0.000658902
0.0057549
0.0037746
-0.000802088
0.00608166
0.00341192
-0.000554831
0.00602425
0.00331023
-0.000873946
0.00580049
0.00322238
-0.000693802
0.00584529
0.00323285
-0.000611749
0.0059504
0.0032248
-0.000843485
0.00602908
0.00311901
-0.000797578
0.00607099
0.0029983
-0.000340888
0.00595865
0.00287429
-0.000870185
0.0059005
0.00290959
-0.000689883
0.00637209
0.00283026
-0.000960479
0.00619374
0.00279929
-0.000710973
0.0061796
0.00270218
-0.000704421
0.00611677
0.00263137
-0.000719254
0.00605459
0.00248845
-0.000724295
0.00607199
0.00234776
-0.000933779
0.00746911
0.00253003
-0.00111443
0.00673333
0.00236652
-0.000926039
0.00699905
0.00219144
-0.000726183
0.00679211
0.0021832
-0.000728139
0.0065745
0.00224032
-0.000867745
0.00601666
0.00228131
-0.000862288
0.00598388
0.00221388
-0.00097454
0.00718651
0.00202972
-0.00123202
0.00742436
0.00198762
-0.00105165
0.00761185
0.00199752
-0.000631934
0.00734607
0.00193336
-0.000610159
0.00713952
0.00190703
-0.000865071
0.00709724
0.00190822
-0.000803324
0.00707741
0.00193286
-0.000701984
0.00647302
0.00193465
-0.00127595
0.00703933
0.00158017
-0.00111904
0.00716357
0.00155345
-0.00104046
0.00690546
0.00153596
-0.000767808
0.00704326
0.00151215
-0.000777544
0.00698054
0.00131058
-0.000449518
0.00739304
0.00114442
-0.000404929
0.00663889
0.0012887
-0.000520917
0.00592105
0.001336
-0.000821418
0.00590613
0.00139597
-0.00109251
0.0071987
0.000630978
-0.00104345
0.00705369
0.000855626
-0.000859002
0.00758876
0.000712407
-0.000857228
0.00752125
0.000787321
-0.000686535
0.00625739
0.000975438
-0.000642906
0.00608665
0.000867015
-0.000512879
0.00603069
0.000577631
-0.00038198
0.00609612
0.000456135
-0.000416833
0.00634824
0.000600663
-0.00039148
0.0068183
0.000697677
-0.000602313
0.00638506
7.28535e-05
-0.000599383
0.00689845
0.000143719
-0.000760209
0.00555391
0.000436851
-0.000663566
0.00416283
0.00039529
-0.000111119
0.00543626
0.000226597
-0.00062224
0.00493943
0.000423178
-0.000642911
0.00560932
0.000265477
-0.000382372
0.00525749
0.000313316
-0.000225828
0.0051639
0.000439643
-0.000175293
0.00453952
0.000443254
-0.000227898
0.00395614
0.000298547
-0.00074459
0.00150269
-5.40546e-05
-0.000547649
0.000229651
-0.000130108
-0.00069267
-0.000442223
7.08832e-05
-0.000861916
0.00126055
0.00030142
-0.000337707
0.000636491
0.000232093
-0.000406804
0.00361776
0.000304903
-0.000378005
0.00447097
0.000232127
-0.000364277
0.0032565
-2.42172e-05
-0.000295452
0.00306166
3.11161e-05
-0.000287608
0.00391393
0.000151297
-0.000176293
0.00428049
8.54701e-05
0.000191347
0.0048429
-6.01469e-05
-0.000301072
-0.00215344
-0.000340601
-0.000383019
-0.00178835
-0.00022385
-0.000454786
-0.000907959
-0.000177734
-0.000600895
-3.59611e-06
-6.81902e-05
-0.00065612
0.00144978
-4.69785e-05
-0.000396874
0.002913
-9.93241e-05
-0.000326706
0.00333467
-0.000111774
-0.000343847
0.00294919
-0.000149975
-0.000219117
0.00324701
-0.000258154
-7.81564e-05
0.00300567
-0.000255539
0.00013297
0.0038437
-0.000146579
0.000333469
0.00420484
-0.000144445
0.000388431
0.00303488
-6.58244e-05
-0.000194366
-0.0023756
-0.00020724
-0.000273738
-0.00204034
-0.000202827
-0.000316272
-0.000844022
-0.00018607
-0.000305628
-3.25889e-05
-9.85491e-05
-0.000391849
0.00238583
-9.22404e-05
-0.00022161
0.00282791
-0.000168437
-0.000151751
0.00301671
-0.000206963
-0.000162795
0.00294239
-0.000248087
-3.20234e-05
0.00235111
-0.000241646
0.000157333
0.00223246
-0.000186871
0.00022133
0.0022745
-0.000111848
0.000211317
0.000715857
-9.39973e-05
5.68708e-05
-0.000402327
-7.06683e-05
-3.72489e-05
-0.00163996
-4.12574e-05
-0.000105587
-0.00288161
-8.31986e-05
-0.000130982
-0.00211661
-9.60175e-05
-0.000129836
-0.000689319
-9.3614e-05
-0.000101472
0.000168308
-7.99097e-05
-0.000121348
0.0019081
-8.4416e-05
-8.87437e-05
0.00196259
-9.60032e-05
-2.06236e-05
0.000415622
-8.7672e-05
-3.60833e-05
0.000339196
-7.74904e-05
1.65467e-05
9.35748e-05
-8.05791e-05
5.01507e-05
-0.000694878
-6.74634e-05
1.17786e-05
-0.000633008
-5.15759e-05
4.50415e-06
-0.000215518
-4.0349e-05
-9.72288e-05
-0.00193896
-2.59258e-05
-0.000151383
-0.00200501
-1.64782e-05
-0.000214793
-0.00226414
-1.86002e-05
-0.000880633
0.0050138
0.00466458
-0.000764734
0.00505954
0.00435471
-0.000114863
0.00508976
0.00435202
-0.000961964
0.00462147
0.00466691
-0.000463408
0.0046914
0.00456847
-0.000869218
0.00521865
0.0041114
-0.000865972
0.00517626
0.00406389
-0.000562435
0.00518305
0.00400007
-0.000688371
0.00553033
0.00402284
-0.000659775
0.00555868
0.00386744
-0.000493186
0.00563615
0.00375105
-0.000546616
0.00533482
0.00371829
-0.000581744
0.00599023
0.00355707
-0.000539552
0.00611339
0.00361023
-0.00076746
0.00569058
0.00368781
-0.000761248
0.00522456
0.00368812
-0.000498392
0.00607315
0.00339131
-0.000721539
0.00606964
0.00324459
-0.000890612
0.00596842
0.00323534
-0.000381786
0.00591399
0.00319458
-0.000695981
0.00538278
0.0032039
-0.000646989
0.00594161
0.00318091
-0.000744472
0.00597331
0.00306456
-0.000584508
0.00610597
0.00295757
-0.000654585
0.0060043
0.00290282
-0.000639134
0.005858
0.00283667
-0.000779946
0.00583862
0.00285229
-0.000753926
0.00625192
0.00283823
-0.000916496
0.00602767
0.00279839
-0.000598608
0.00600081
0.00265066
-0.000620329
0.00616167
0.00255142
-0.000497504
0.00599116
0.00246416
-0.000677045
0.00603986
0.00232988
-0.000622248
0.0058034
0.00228549
-0.000679908
0.00728966
0.00257264
-0.00095472
0.00655067
0.0024354
-0.000836112
0.00692777
0.00222227
-0.000673856
0.00687065
0.00215482
-0.000722945
0.00669146
0.00217903
-0.000899045
0.00603551
0.00225544
-0.000752603
0.00601092
0.00220355
-0.000638386
0.00585487
0.00214409
-0.00104951
0.00707122
0.00205805
-0.00103679
0.00739174
0.00198009
-0.000924989
0.00748869
0.00199532
-0.000721779
0.00738307
0.00191449
-0.000833162
0.00725846
0.00187004
-0.000642304
0.00727093
0.00192612
-0.000524495
0.00717063
0.00193457
-0.00054702
0.00654644
0.00188554
-0.000645774
0.00565295
0.0017393
-0.00129412
0.00709744
0.00164434
-0.00101813
0.00710685
0.00161158
-0.00091187
0.00695255
0.00155923
-0.000889242
0.00703806
0.00157318
-0.000707076
0.00710058
0.00141265
-0.00047519
0.00711044
0.00142547
-0.000318874
0.00636582
0.00122348
-0.000416757
0.00590516
0.00133936
-0.000515902
0.00603884
0.00130235
-0.000418096
0.00622097
0.0014185
-0.000964186
0.00738383
0.000650539
-0.00108493
0.00733399
0.000836222
-0.000719753
0.00752992
0.000874013
-0.000694655
0.00755317
0.000711571
-0.00064552
0.00664306
0.000936044
-0.000773775
0.00635428
0.000859345
-0.000472269
0.00601742
0.000709644
-0.000353894
0.00614014
0.000505128
-0.000281775
0.00648267
0.000377652
-5.33904e-05
0.00675878
0.000538273
-6.77687e-05
0.00588897
0.000589158
-0.00085725
0.0065292
0.00022393
-0.000758927
0.00684286
0.000339722
-0.000829091
0.00535135
0.000482702
-0.000805904
0.00418705
0.000356618
-0.000157688
0.00538587
0.000265667
-0.000659529
0.00496637
0.000452385
-0.000416283
0.00568431
0.000386463
-0.000405943
0.0051244
0.000440228
-8.66465e-05
0.00482544
0.000442974
-4.68398e-05
0.00420356
0.000534833
-7.74514e-05
0.00389749
0.000403068
5.84229e-05
0.00446705
0.000118133
-0.000782112
0.00173986
6.66553e-05
-0.00057396
0.000463606
-9.7068e-05
-0.000732923
-0.000386244
9.20489e-05
-0.000890259
0.00132611
0.00029468
-0.000517747
0.00053968
0.000259859
-0.000360407
0.0034823
0.000331087
-0.00034316
0.00447942
0.000312904
-0.000301463
0.00336331
8.29323e-05
-0.000287015
0.00313403
-2.86953e-05
-0.00027313
0.00406219
7.7829e-05
-7.98621e-05
0.00457321
7.14102e-05
0.000156339
0.00507768
2.78119e-05
0.000460308
0.00543606
5.89797e-05
-0.000386384
-0.00199506
-0.000329767
-0.000465994
-0.0016953
-0.000241392
-0.000488163
-0.00077889
-0.000181028
-0.000601454
0.000219494
-0.000104997
-0.000637076
0.00168855
-6.17424e-05
-0.000398218
0.00313877
-9.61455e-05
-0.000303044
0.00349524
-0.000108602
-0.000312368
0.00316566
-0.000178673
-0.000203013
0.00353634
-0.000268318
8.50264e-05
0.00310386
-0.000284035
0.000238992
0.00375322
-0.000182719
0.000368986
0.00405348
-0.000152893
0.0004027
0.00267059
-0.000125979
0.000297152
0.000702851
-7.58007e-06
-0.000256827
-0.00218492
-0.000190521
-0.000279471
-0.00189163
-0.000207462
-0.00033256
-0.000660864
-0.000183261
-0.000320229
0.000107973
-0.000107874
-0.000348772
0.00261548
-0.000100778
-0.000187174
0.00301001
-0.000175914
-0.00013272
0.00317039
-0.000210019
-0.000133021
0.00308024
-0.000247883
-1.09806e-05
0.00236526
-0.000234707
0.000213383
0.00201723
-0.000189652
0.000229887
0.00197333
-0.00010381
0.000235567
0.000468946
-9.60011e-05
3.80914e-05
-0.00054919
-8.24549e-05
-9.90106e-05
-0.00171752
-4.54779e-05
-0.000245308