/*--------------------------------*- C++ -*----------------------------------*\
  =========                 |
  \\      /  F ield         | OpenFOAM: The Open Source CFD Toolbox
   \\    /   O peration     | Website:  https://openfoam.org
    \\  /    A nd           | Version:  7
     \\/     M anipulation  |
\*---------------------------------------------------------------------------*/
FoamFile
{
    version     2.0;
    format      ascii;
    class       volVectorField;
    location    "8.5";
    object      U;
}
// * * * * * * * * * * * * * * * * * * * * * * * * * * * * * * * * * * * * * //

dimensions      [0 1 -1 0 0 0 0];

internalField   nonuniform List<vector> 
18630
(
(1.72055 1.08274 -1.98482)
(1.4545 0.781389 -2.1098)
(1.59409 0.954693 -2.06433)
(1.54223 0.393205 -2.26511)
(1.12922 0.612316 -2.01679)
(1.4507 0.763641 -2.08292)
(1.40901 0.228851 -1.74318)
(1.65568 1.02564 -1.93475)
(1.56118 0.406608 -2.25655)
(0.987763 -0.245568 -2.12979)
(0.378992 -0.149989 -1.54645)
(1.12115 0.644479 -2.0198)
(1.06097 0.214381 -1.48101)
(1.46043 0.724904 -2.04894)
(1.44425 0.200998 -1.71012)
(0.974893 -0.224008 -1.54253)
(1.64281 0.989557 -1.92928)
(1.5688 0.384294 -2.2203)
(0.993395 -0.233657 -2.13066)
(0.609002 -0.631507 -1.717)
(-1.17107 -1.14367 -0.995687)
(0.265867 -0.206108 -1.50941)
(-0.0699761 -0.681076 -1.32953)
(1.09739 0.685713 -1.98257)
(1.07293 0.219456 -1.43016)
(0.806664 -0.230229 -0.991769)
(1.48221 0.711679 -2.00235)
(1.44625 0.235263 -1.6923)
(0.994237 -0.226431 -1.5495)
(0.676933 -0.818683 -1.08659)
(1.59571 0.993895 -1.88479)
(1.55663 0.449586 -2.18922)
(0.997324 -0.217721 -2.12696)
(0.589442 -0.599163 -1.73987)
(0.0581695 -1.00914 -1.61348)
(-1.86337 -1.66766 0.942126)
(-1.27701 -1.43893 -0.743547)
(-1.94695 -1.36055 -1.02666)
(0.209869 -0.25094 -1.48874)
(-0.105594 -0.762483 -1.30798)
(-0.15632 -0.600737 -1.13202)
(1.08485 0.763703 -1.88418)
(1.10652 0.172478 -1.35549)
(0.842173 -0.19832 -1.0032)
(0.644442 -1.0664 -0.817651)
(1.46985 0.723843 -1.97559)
(1.46123 0.232787 -1.67479)
(1.0125 -0.238195 -1.54144)
(0.689095 -0.747119 -1.18723)
(0.308235 -1.43879 -0.608013)
(1.59933 1.00024 -1.8585)
(1.57516 0.513152 -2.14811)
(0.987692 -0.213754 -2.12554)
(0.589365 -0.590472 -1.74179)
(0.0533913 -1.03262 -1.6076)
(-0.0936327 -1.11576 -1.93365)
(-2.69223 -1.96674 1.70696)
(-1.95517 -1.72332 0.78717)
(-2.04786 -2.07631 1.07478)
(-1.48755 -1.00038 -1.59958)
(-2.11753 -1.4274 -0.993379)
(-2.50874 -0.581594 -1.3926)
(0.123776 -0.397542 -1.40159)
(-0.0886031 -0.780152 -1.30381)
(-0.0331039 -0.646435 -0.97453)
(-1.5023 -0.77505 -0.950146)
(1.07155 0.811956 -1.75113)
(1.14848 0.128505 -1.26402)
(0.862052 -0.205372 -0.99396)
(0.693039 -0.965269 -0.81502)
(0.263378 -1.515 -0.146916)
(1.52675 0.693629 -1.9155)
(1.47969 0.230766 -1.66712)
(1.02727 -0.23382 -1.53633)
(0.702399 -0.732995 -1.24054)
(0.314712 -1.49171 -0.629398)
(-0.238155 -1.42723 -0.970993)
(1.62857 1.05536 -1.79923)
(1.53507 0.34421 -2.14695)
(1.00484 -0.207085 -2.12702)
(0.583383 -0.546794 -1.74961)
(0.0520136 -1.06831 -1.5948)
(-0.104612 -1.13184 -1.9226)
(-0.0123861 -0.174168 -2.18375)
(-3.09819 -1.68577 2.72223)
(-2.65018 -2.1199 1.80733)
(-2.78576 -2.13472 1.87235)
(-1.7268 -1.96985 1.20851)
(-2.04157 -2.22833 1.05703)
(-1.84804 -2.41808 1.24163)
(-1.60885 -1.63662 -0.778156)
(-2.24677 -1.51748 -1.20078)
(-2.77682 -0.608096 -1.29459)
(-2.25956 -1.01103 -1.31136)
(0.0908143 -0.499824 -1.4618)
(-0.0243279 -0.811412 -1.22321)
(0.0419398 -0.760283 -0.787866)
(-1.26289 -1.01015 -0.937765)
(-1.43007 -0.688588 -0.188359)
(1.08772 0.737894 -1.60585)
(1.20801 0.0791664 -1.15683)
(0.879822 -0.197869 -0.980706)
(0.727595 -0.844777 -0.842419)
(0.305599 -1.50002 -0.0819165)
(-0.473497 -1.47852 -0.640198)
(1.51938 0.654245 -1.88395)
(1.43596 0.305481 -1.68882)
(1.12354 -0.348806 -1.44722)
(0.722365 -0.727655 -1.24627)
(0.318092 -1.55857 -0.64216)
(-0.248404 -1.4514 -0.937971)
(-0.440596 -1.16731 -1.2205)
(1.53906 1.05939 -1.80523)
(1.51308 0.428292 -2.13502)
(0.994023 -0.184599 -2.12995)
(0.56802 -0.526569 -1.74341)
(0.0492078 -1.10693 -1.57085)
(-0.114601 -1.1404 -1.91664)
(-0.0332809 -0.171526 -2.185)
(0.0332673 -0.246033 -1.79618)
(-3.14487 -1.90273 3.39999)
(-2.79296 -2.31509 2.77267)
(-2.99549 -2.12162 2.8622)
(-2.51669 -2.38461 1.8726)
(-2.68648 -2.23386 1.97157)
(-2.64631 -2.06139 2.26512)
(-2.16893 -1.95061 0.668769)
(-2.05872 -2.33957 1.13169)
(-1.99308 -2.33086 1.07919)
(-2.34946 -1.78947 1.74741)
(-1.72325 -1.58908 -0.975061)
(-2.39601 -1.41838 -1.48775)
(-2.82455 -1.12152 -1.12188)
(-2.18638 -0.92034 -1.66022)
(-2.79308 -1.83752 0.650242)
(0.0762393 -0.660395 -1.41206)
(0.0708983 -0.848399 -1.10797)
(0.188678 -0.822123 -0.646453)
(-1.06755 -1.09293 -0.831789)
(-1.05578 -1.11298 -0.156548)
(-1.37266 -1.90904 0.419408)
(1.16244 0.660142 -1.43956)
(1.23049 0.0562721 -1.07743)
(0.886513 -0.171042 -0.993849)
(0.724197 -0.798923 -0.809902)
(0.393105 -1.56176 0.00589301)
(-0.495082 -1.48669 -0.627121)
(-0.624673 -1.52484 -0.465627)
(1.47492 0.670528 -1.86218)
(1.42264 0.33136 -1.68467)
(1.03459 -0.192748 -1.55716)
(0.757887 -0.733484 -1.19467)
(0.340217 -1.64548 -0.537149)
(-0.281051 -1.45679 -0.928437)
(-0.492192 -1.15769 -1.21796)
(-0.647141 -0.905794 -1.70597)
(1.54971 1.04592 -1.72603)
(1.56663 0.462343 -2.14322)
(0.988572 -0.186441 -2.12741)
(0.556476 -0.512603 -1.74159)
(0.05443 -1.13857 -1.54485)
(-0.123538 -1.14341 -1.9165)
(-0.0554381 -0.163916 -2.19141)
(0.0267812 -0.268886 -1.76209)
(-0.0899002 0.057977 -2.05243)
(-3.22548 -1.71549 3.60019)
(-3.04702 -2.33461 3.2974)
(-3.17 -2.29902 3.24465)
(-2.81898 -2.45265 2.8595)
(-2.93726 -2.12967 2.90016)
(-3.20231 -1.93592 2.85068)
(-2.3646 -2.57332 2.01572)
(-2.47883 -2.3797 2.23123)
(-2.623 -2.16128 2.2244)
(-2.80721 -2.04354 2.32374)
(-1.75553 -2.28263 0.927971)
(-2.07557 -2.49128 1.09288)
(-2.05371 -2.34551 1.36834)
(-2.34961 -1.91521 1.3948)
(-2.38997 -2.07803 2.20072)
(-1.78107 -1.80115 -0.842877)
(-2.47996 -1.66676 -1.18935)
(-2.92814 -1.39151 -1.19974)
(-2.12235 -0.945932 -0.880783)
(-2.80955 -1.56252 0.218653)
(-2.04841 -1.96387 0.940513)
(0.0970101 -0.709352 -1.43197)
(0.263319 -0.950424 -0.892407)
(0.294738 -0.872609 -0.58976)
(-0.794765 -1.12386 -0.469879)
(-0.8204 -1.30641 -0.0402744)
(-1.39084 -1.83259 0.479574)
(-1.40892 -1.74171 0.156422)
(1.11808 0.710645 -1.32676)
(1.21459 0.0646858 -1.05431)
(0.98445 -0.272229 -0.87921)
(0.784236 -0.812884 -0.77528)
(0.476453 -1.61976 -0.096158)
(-0.505267 -1.50661 -0.618447)
(-0.673375 -1.55302 -0.414403)
(-0.424386 -1.40435 -0.902858)
(1.56357 0.629239 -1.76562)
(1.44975 0.34099 -1.66649)
(1.10217 -0.276259 -1.51367)
(0.794301 -0.7652 -1.11184)
(0.349396 -1.70576 -0.421762)
(-0.308713 -1.44458 -0.949714)
(-0.591015 -1.13119 -1.239)
(-0.698544 -0.893977 -1.70173)
(-0.883396 -0.468334 -1.79908)
(1.479 1.06541 -1.70973)
(1.51673 0.456761 -2.14981)
(0.990851 -0.172968 -2.13245)
(0.54846 -0.498235 -1.74606)
(0.0442587 -1.163 -1.52314)
(-0.137009 -1.14138 -1.92274)
(-0.0763591 -0.162573 -2.19675)
(0.0257061 -0.286899 -1.72617)
(-0.0930754 0.0630472 -2.04069)
(0.164844 0.236531 -1.71986)
(-2.96514 -1.29496 3.34289)
(-3.10085 -1.80501 3.49537)
(-3.16663 -1.29992 3.41375)
(-2.95082 -2.48649 3.25364)
(-3.11244 -2.25454 3.16451)
(-2.90107 -2.17465 3.14681)
(-2.73129 -2.54043 2.95172)
(-2.79476 -2.34466 2.96185)
(-3.04058 -2.22373 2.90377)
(-3.1729 -1.84293 2.93146)
(-2.18846 -2.84861 2.05422)
(-2.47045 -2.57866 2.28795)
(-2.57203 -2.20338 2.21594)
(-2.77324 -2.08874 2.1691)
(-3.33353 -1.62446 2.20479)
(-1.8155 -2.33068 0.890778)
(-1.8941 -2.71036 1.22408)
(-2.11847 -2.57042 1.6364)
(-2.45905 -1.82452 1.09353)
(-2.22637 -2.4072 2.02115)
(-2.42703 -1.9323 1.89912)
(-1.88792 -2.01054 -0.633464)
(-2.69837 -1.70783 -1.04938)
(-2.6839 -1.69266 -1.58224)
(-2.28359 -0.749434 -0.308114)
(-2.7071 -1.45699 -0.658384)
(-2.03444 -2.01038 1.09396)
(-2.14131 -1.57613 -0.461367)
(0.185443 -0.788219 -1.29917)
(0.456806 -1.03419 -0.65338)
(0.51328 -0.801701 -0.623722)
(-0.495743 -1.22858 0.109441)
(-0.459512 -1.49778 0.221974)
(-1.32187 -1.83952 0.506138)
(-1.4198 -1.79533 0.227807)
(-1.16257 -1.38192 -0.23348)
(1.10548 0.676869 -1.25537)
(1.19405 0.100708 -1.08168)
(0.955824 -0.224469 -0.955478)
(0.875969 -0.799634 -0.745123)
(0.556586 -1.65146 -0.148001)
(-0.529766 -1.51806 -0.605952)
(-0.738719 -1.53396 -0.396336)
(-0.492429 -1.47352 -0.715515)
(-0.891514 -0.999291 -1.26448)
(1.49386 0.589815 -1.77444)
(1.56424 0.180536 -1.56018)
(1.12816 -0.27903 -1.50765)
(0.833516 -0.778221 -1.06822)
(0.363326 -1.75373 -0.256908)
(-0.338451 -1.43814 -0.971261)
(-0.634634 -1.16563 -1.24371)
(-0.846024 -0.836936 -1.69386)
(-0.986 -0.255445 -1.85771)
(-1.10775 -0.54488 -1.38377)
(1.51092 1.03136 -1.64939)
(1.48371 0.430623 -2.10184)
(0.992224 -0.157111 -2.13335)
(0.531558 -0.47948 -1.75661)
(0.0265983 -1.16508 -1.52536)
(-0.1491 -1.14209 -1.9326)
(-0.096409 -0.160682 -2.20417)
(0.0329745 -0.319539 -1.69403)
(-0.0957407 0.062019 -2.01829)
(0.160156 0.228207 -1.70951)
(0.237283 -0.101616 -1.29627)
(-2.74036 -1.27794 3.32824)
(-2.70227 -1.58152 3.35865)
(-2.668 -1.40608 3.35124)
(-2.89567 -2.09 3.31263)
(-2.8117 -1.63493 3.29245)
(-2.85835 -1.41592 3.17769)
(-2.8593 -2.65757 3.2146)
(-2.82281 -2.35171 3.17572)
(-2.93993 -2.01181 3.11817)
(-3.13643 -1.72398 2.89321)
(-2.60081 -2.68548 2.9824)
(-2.50216 -2.8814 2.85194)
(-3.06711 -2.31602 2.84407)
(-3.05734 -2.09303 2.91375)
(-3.38404 -1.49526 2.49662)
(-2.11217 -2.8345 2.23941)
(-2.44179 -2.73868 2.3801)
(-2.52553 -2.3402 2.37026)
(-2.73458 -2.15619 2.10487)
(-2.85055 -2.05905 2.38759)
(-3.41382 -0.745702 1.82831)
(-1.88672 -2.57383 0.913342)
(-1.85105 -2.86725 1.35362)
(-2.13617 -2.72128 1.78762)
(-2.3955 -1.93648 1.2211)
(-2.15223 -2.20473 2.20865)
(-2.23529 -2.12116 2.06898)
(-2.62675 -1.52567 0.979763)
(-1.86727 -2.28029 -0.46901)
(-2.77816 -1.97029 -0.942207)
(-2.89506 -1.53497 -1.58056)
(-2.05669 -1.07922 0.519332)
(-2.71033 -1.27565 -0.968489)
(-2.06867 -2.042 1.09454)
(-2.12726 -1.67926 -0.264989)
(-2.68123 -1.18054 0.378185)
(0.314866 -0.982174 -0.960705)
(0.579426 -0.973229 -0.62557)
(0.716652 -0.81255 -0.568916)
(-0.19928 -1.43987 0.612308)
(-0.0943585 -1.71565 0.563611)
(-1.22206 -1.84118 0.591762)
(-1.41522 -1.77883 0.52131)
(-1.06339 -1.42775 -0.0709308)
(-1.30408 -1.55358 0.638788)
(1.09737 0.682391 -1.23733)
(1.21965 0.12853 -1.05109)
(0.991583 -0.231234 -0.960897)
(0.888642 -0.841218 -0.652218)
(0.545571 -1.63035 -0.0520111)
(-0.523078 -1.53539 -0.587364)
(-0.734467 -1.60746 -0.313736)
(-0.545224 -1.33201 -0.97218)
(-0.958517 -1.0403 -1.10431)
(-1.08267 -1.01341 -0.990631)
(1.50362 0.649141 -1.67172)
(1.51437 0.258936 -1.55265)
(1.1442 -0.277973 -1.49652)
(0.878373 -0.800806 -1.04215)
(0.283471 -1.78033 -0.218087)
(-0.382885 -1.42811 -1.02104)
(-0.688543 -1.22262 -1.22779)
(-0.774534 -0.90716 -1.75032)
(-0.976043 -0.399195 -1.87889)
(-1.11343 -0.588334 -1.52558)
(-1.52998 0.120784 -1.10986)
(1.47018 1.05627 -1.61012)
(1.49403 0.423902 -2.10276)
(0.981953 -0.168294 -2.13121)
(0.505979 -0.461207 -1.78292)
(0.0171767 -1.16163 -1.53819)
(-0.162227 -1.13796 -1.94805)
(-0.117604 -0.153895 -2.21762)
(0.0348964 -0.33869 -1.65752)
(-0.098826 0.0576672 -1.9904)
(0.16029 0.218854 -1.69995)
(0.26075 -0.10393 -1.28765)
(0.105062 -0.203048 -1.19672)
(-2.42557 -1.12106 3.32043)
(-2.66136 -1.12338 3.23446)
(-2.71573 -1.30045 3.36745)
(-2.75045 -1.05315 3.33038)
(-2.61639 -1.69784 3.39566)
(-2.70609 -1.71232 3.15605)
(-2.54488 -1.63078 3.15332)
(-2.70048 -2.17315 3.31707)
(-2.72594 -1.85382 3.23359)
(-2.76808 -1.69223 3.05332)
(-2.82811 -1.48209 2.97332)
(-2.79502 -2.80914 3.17921)
(-2.72665 -2.47103 3.18809)
(-2.79288 -2.14266 3.03593)
(-3.14548 -1.57799 2.72766)
(-2.86199 -1.53448 2.99902)
(-2.52033 -2.85866 2.92952)
(-2.43829 -2.91096 2.9414)
(-2.83763 -2.52911 2.95925)
(-3.0196 -2.11074 2.91512)
(-3.20427 -1.648 2.5781)
(-2.83808 -1.74241 2.77976)
(-1.86099 -3.09313 2.33138)
(-2.35104 -2.82983 2.5095)
(-2.41306 -2.62538 2.49655)
(-2.6335 -2.25081 2.20211)
(-2.80498 -2.12928 2.4061)
(-3.3413 -1.16054 2.06857)
(-3.0168 -0.957518 2.09374)
(-2.13785 -2.66252 0.698383)
(-1.82607 -3.02783 1.39728)
(-2.1117 -2.95698 1.66702)
(-2.76259 -1.86189 1.11335)
(-2.18484 -2.14597 1.94908)
(-2.17776 -2.2353 2.04095)
(-2.58006 -1.27375 1.44056)
(-2.63546 -1.44169 1.06387)
(-1.82788 -2.52632 -0.337708)
(-2.70488 -2.20006 -1.008)
(-2.2666 -2.17054 -0.320059)
(-1.72486 -1.46661 0.841845)
(-2.74507 -0.932601 -1.16789)
(-1.91129 -2.08953 1.23325)
(-2.09638 -1.69626 -0.0644185)
(-2.41144 -1.38971 0.420255)
(-2.65554 -1.05758 0.280126)
(0.498352 -1.18882 -0.543724)
(0.658497 -0.854133 -0.691911)
(0.877398 -0.81622 -0.51826)
(0.217763 -1.62592 0.813021)
(0.329363 -1.83578 0.725364)
(-1.39516 -1.66183 0.351762)
(-1.40737 -1.88139 0.590049)
(-1.00603 -1.40972 -0.132987)
(-1.28081 -1.31511 0.221367)
(-1.55133 -1.3018 1.05086)
(1.08898 0.669552 -1.26784)
(1.24982 0.132753 -1.00226)
(1.04504 -0.290254 -0.916268)
(0.935932 -0.883013 -0.602708)
(0.52656 -1.59099 0.00481885)
(-0.511941 -1.55708 -0.576756)
(-0.805896 -1.65372 -0.238168)
(-0.646355 -1.51066 -0.698091)
(-1.06734 -1.05836 -0.920236)
(-1.14086 -0.838615 -1.208)
(-1.85273 -0.269739 -0.500827)
(1.5032 0.546721 -1.61725)
(1.428 0.297379 -1.60951)
(1.183 -0.320202 -1.46386)
(0.885616 -0.788366 -1.08334)
(0.370055 -1.80521 -0.0972133)
(-0.424487 -1.44426 -1.05429)
(-0.758279 -1.2404 -1.2384)
(-0.866323 -1.04382 -1.74538)
(-0.977896 -0.560712 -1.86857)
(-1.1734 -0.411321 -1.63789)
(-1.55634 0.298838 -1.178)
(-0.786966 0.502617 -1.23131)
(1.40818 1.04785 -1.59888)
(1.51932 0.442253 -2.08156)
(0.985782 -0.169496 -2.12803)
(0.475695 -0.442797 -1.82041)
(-0.00872687 -1.16757 -1.5444)
(-0.178312 -1.13869 -1.96306)
(-0.13926 -0.145225 -2.23335)
(0.0397111 -0.354106 -1.62287)
(-0.105786 0.0521595 -1.959)
(0.171167 0.212412 -1.69403)
(0.293363 -0.100517 -1.27921)
(0.123563 -0.176512 -1.16301)
(1.17299 -0.60782 -0.634732)
(-2.36193 -0.800738 3.08346)
(-2.37546 -1.26619 3.20074)
(-2.45061 -0.950723 3.22429)
(-2.58336 -1.28572 3.17393)
(-2.58085 -1.06461 3.27698)
(-2.66197 -1.36399 3.3303)
(-2.73835 -0.963961 3.28991)
(-2.69499 -1.131 3.11198)
(-2.47989 -1.80052 3.36026)
(-2.692 -1.5577 3.17477)
(-2.62945 -1.67007 3.07314)
(-2.70772 -1.20649 3.13138)
(-2.69469 -2.07519 3.2528)
(-2.66103 -1.92702 3.20403)
(-2.74365 -1.83278 3.0598)
(-2.65028 -1.54151 3.06579)
(-2.59513 -1.37367 3.00254)
(-2.63829 -2.91122 3.1007)
(-2.40204 -2.70071 3.18608)
(-2.68542 -2.38592 2.89815)
(-2.80681 -1.85188 2.78841)
(-2.76948 -1.46483 3.03176)
(-2.59614 -1.44983 3.0961)
(-2.35396 -2.98022 3.0247)
(-2.44794 -2.86612 2.956)
(-2.87589 -2.69501 2.86102)
(-2.9552 -2.15755 2.95347)
(-3.17637 -1.6525 2.62602)
(-2.93994 -1.74502 2.7362)
(-2.87341 -1.80257 2.76823)
(-1.66023 -3.34687 2.36541)
(-2.0927 -3.06828 2.5929)
(-2.24933 -2.76149 2.59675)
(-2.54493 -2.42757 2.20604)
(-2.62345 -2.21448 2.4969)
(-3.2044 -1.68206 2.06468)
(-3.0243 -1.21015 1.81889)
(-2.66168 -1.36504 2.29302)
(-1.92042 -2.96097 0.744629)
(-1.56348 -3.25971 1.5881)
(-2.21058 -3.03508 1.91043)
(-2.85854 -2.19357 1.06156)
(-2.19836 -2.14367 1.78769)
(-2.09871 -2.22513 2.05864)
(-2.50593 -1.55684 1.28444)
(-2.64575 -1.4369 1.09008)
(-2.73403 -1.26179 1.69163)
(-1.74764 -2.78037 -0.0991763)
(-2.64733 -2.18933 -1.02674)
(-2.01724 -2.45861 0.159381)
(-1.55237 -1.65347 1.33452)
(-2.61914 -1.00129 -0.651088)
(-1.98799 -1.8198 1.23575)
(-2.00851 -1.82561 0.0892454)
(-2.2409 -1.61294 0.533298)
(-2.3722 -1.31442 0.745583)
(-2.17812 -1.28825 1.17043)
(0.586588 -1.29993 -0.376827)
(0.808246 -0.840602 -0.584366)
(1.02361 -0.855101 -0.395017)
(0.546199 -1.78933 0.818018)
(0.612724 -1.83099 0.799581)
(-1.02448 -1.74591 0.634963)
(-1.32087 -2.06529 0.834236)
(-1.00674 -1.45192 -0.305129)
(-1.17915 -1.17788 -0.167694)
(-1.61355 -1.21414 0.848893)
(-1.6747 -0.904006 0.624074)
(0.96428 0.655953 -1.43137)
(1.25273 0.133962 -1.01437)
(1.10359 -0.348287 -0.875766)
(0.941137 -0.880417 -0.606657)
(0.528795 -1.59166 0.0571152)
(-0.497247 -1.59369 -0.564688)
(-0.836786 -1.63361 -0.261662)
(-0.650064 -1.54549 -0.605977)
(-1.12106 -1.01468 -0.954362)
(-1.22181 -0.654041 -1.35694)
(-1.93309 -0.130329 -0.537676)
(-2.26203 0.481017 -0.629049)
(1.5174 0.581568 -1.48013)
(1.41566 0.399749 -1.58709)
(1.21658 -0.350997 -1.43909)
(0.873352 -0.746625 -1.18193)
(0.234569 -1.82617 -0.16241)
(-0.464787 -1.45833 -1.09905)
(-0.822792 -1.23027 -1.28621)
(-0.938944 -1.0842 -1.70996)
(-0.91188 -0.662846 -1.92574)
(-1.26484 -0.145195 -1.65622)
(-1.53335 0.33731 -1.19047)
(-0.666189 0.345934 -0.995171)
(0.12742 -0.302005 -0.253734)
(1.44288 1.04172 -1.5105)
(1.50949 0.472958 -2.07166)
(1.00037 -0.176288 -2.12269)
(0.450928 -0.424043 -1.85864)
(-0.0402812 -1.17113 -1.55344)
(-0.185798 -1.13717 -1.98239)
(-0.159214 -0.13771 -2.24632)
(0.0456765 -0.363568 -1.59673)
(-0.110318 0.0501939 -1.92582)
(0.188689 0.207963 -1.69078)
(0.310471 -0.0924721 -1.27503)
(0.138631 -0.158584 -1.12757)
(1.19956 -0.632209 -0.66747)
(1.34356 -1.18049 -0.445409)
(-2.29857 -0.447233 2.91192)
(-2.18198 -0.876415 3.07134)
(-2.37172 -1.01402 2.97439)
(-2.38686 -0.768085 2.96759)
(-2.38515 -1.32426 3.17186)
(-2.4127 -1.1512 3.16177)
(-2.58892 -0.852849 3.0217)
(-2.57879 -1.42892 3.16857)
(-2.61633 -1.27163 3.1657)
(-2.66258 -1.01904 3.16948)
(-2.46612 -1.79257 3.21457)
(-2.60277 -1.21513 3.15772)
(-2.47537 -1.3094 3.08747)
(-2.60592 -1.00856 3.0852)
(-2.35053 -1.88044 3.3541)
(-2.34197 -1.84714 3.17391)
(-2.58401 -1.49116 3.06654)
(-2.83501 -0.944481 2.97406)
(-2.60322 -1.13144 2.9456)
(-2.41798 -2.14756 3.18913)
(-2.35994 -2.0571 3.20158)
(-2.53518 -1.84044 3.1299)
(-2.59868 -1.56151 3.06407)
(-2.62623 -1.47361 2.89695)
(-2.7148 -1.34263 2.75533)
(-2.51625 -2.88228 3.10807)
(-2.26037 -2.76314 3.05966)
(-2.6748 -2.42156 2.7567)
(-2.79325 -1.93757 2.76565)
(-2.7437 -1.72378 2.87044)
(-2.57149 -1.64508 2.94826)
(-2.63607 -1.42314 2.80954)
(-2.21132 -3.16255 2.9166)
(-2.30495 -3.11828 2.82203)
(-2.66066 -2.81447 2.83141)
(-2.9768 -2.15088 2.94397)
(-2.94411 -1.85061 2.8253)
(-2.90474 -1.87902 2.77948)
(-2.98076 -1.75952 2.78861)
(-2.86919 -1.44933 2.85353)
(-1.6076 -3.44296 2.41053)
(-2.10106 -3.17501 2.56435)
(-2.09268 -2.94252 2.54432)
(-2.46991 -2.56564 2.33554)
(-2.59922 -2.29389 2.49951)
(-3.14124 -1.707 2.11685)
(-2.94366 -1.2839 1.95459)
(-2.64845 -1.25618 2.31068)
(-2.48291 -1.59639 2.44493)
(-1.64313 -3.26823 0.888924)
(-1.66229 -3.4147 1.53717)
(-2.29563 -3.34915 1.32523)
(-2.43138 -2.78951 1.25359)
(-2.01521 -2.38851 2.00933)
(-2.18554 -2.20972 2.08126)
(-2.33616 -2.03509 1.12421)
(-2.5804 -1.52116 1.12296)
(-2.80304 -1.41602 1.33028)
(-3.10632 -1.10233 1.57834)
(-1.59283 -3.04937 0.0459248)
(-2.40321 -2.5544 -0.561054)
(-1.39501 -2.76035 0.848471)
(-0.929549 -2.22652 1.50239)
(-2.56286 -1.02402 -0.0323238)
(-1.7641 -1.80624 1.23879)
(-2.06278 -1.97536 0.296179)
(-2.18987 -1.65509 0.680762)
(-2.32857 -1.47895 0.59422)
(-2.05941 -1.32485 0.975867)
(-1.70064 -0.904176 1.30458)
(0.682018 -1.47919 -0.121461)
(0.875438 -0.927835 -0.433908)
(1.12093 -0.840108 -0.358582)
(0.749639 -1.86487 0.816142)
(0.829151 -1.80346 0.868625)
(-1.04645 -1.75651 0.63029)
(-1.55844 -1.85677 1.00513)
(-1.02418 -1.5152 -0.00714831)
(-1.1615 -1.16949 -0.28379)
(-1.55559 -1.27277 0.706478)
(-1.80427 -0.845752 0.44429)
(-2.45211 0.124947 -0.62034)
(0.900728 0.675172 -1.59133)
(1.19855 0.141628 -1.17605)
(1.16028 -0.403486 -0.842591)
(0.922944 -0.875529 -0.639953)
(0.530159 -1.6077 0.11637)
(-0.515089 -1.61439 -0.588623)
(-0.834884 -1.6238 -0.313991)
(-0.664103 -1.62185 -0.409142)
(-1.16121 -1.08515 -0.918877)
(-1.353 -0.504301 -1.40919)
(-2.02742 0.0723178 -0.621608)
(-2.32688 0.564039 -0.599501)
(-1.7562 0.702867 -0.347797)
(1.43085 0.611546 -1.42297)
(1.53762 0.208821 -1.46622)
(1.25308 -0.389174 -1.40885)
(0.876558 -0.741386 -1.27227)
(0.259417 -1.84493 -0.107553)
(-0.498363 -1.49747 -1.11529)
(-0.879384 -1.25315 -1.32523)
(-0.964893 -1.04623 -1.71519)
(-1.03228 -0.543459 -1.94365)
(-1.34291 0.0980374 -1.65705)
(-1.40877 0.223864 -1.13118)
(-0.53076 0.232659 -0.750418)
(0.246325 -0.334548 -0.462969)
(0.858807 -0.39624 -0.597485)
(1.38704 1.01924 -1.50552)
(1.53401 0.413055 -2.0308)
(0.95529 -0.170204 -2.1436)
(0.43378 -0.406424 -1.89082)
(-0.0590727 -1.15965 -1.58159)
(-0.203043 -1.1413 -2.00107)
(-0.173682 -0.134826 -2.25469)
(0.0491601 -0.368984 -1.5805)
(-0.113783 0.0517289 -1.89429)
(0.221408 0.216455 -1.68828)
(0.340474 -0.077662 -1.27913)
(0.15472 -0.145626 -1.09294)
(1.22937 -0.659482 -0.69083)
(1.37456 -1.20869 -0.471895)
(1.51589 -1.69161 -0.311133)
(-2.39892 -0.632205 2.60199)
(-2.34627 -0.660024 2.77197)
(-2.41323 -0.174586 2.83705)
(-2.03557 -1.04298 3.12481)
(-2.21538 -0.755251 3.10522)
(-2.31563 -1.10617 2.97261)
(-2.36116 -0.927973 2.92316)
(-2.44861 -0.658167 2.87776)
(-2.38813 -1.30902 3.15423)
(-2.4554 -1.19704 3.0949)
(-2.56549 -0.946072 2.98167)
(-2.48562 -0.707432 2.92109)
(-2.62135 -1.47167 3.0535)
(-2.72722 -1.40215 2.97539)
(-2.48979 -1.30371 3.11893)
(-2.23521 -1.01574 3.27434)
(-2.53983 -1.54411 3.19835)
(-2.52045 -1.56527 3.0495)
(-2.47558 -1.5336 2.92377)
(-2.73362 -1.09553 2.84451)
(-2.43537 -1.24416 2.96127)
(-2.31491 -1.83398 3.29923)
(-2.27945 -1.98959 3.12455)
(-2.54554 -1.52174 3.08741)
(-2.48741 -1.40226 3.0243)
(-2.5985 -1.2042 2.87501)
(-2.62865 -1.03698 2.94209)
(-2.20276 -2.24336 3.08811)
(-2.24876 -2.15199 3.09601)
(-2.37235 -1.94517 3.06273)
(-2.5027 -1.70545 2.9334)
(-2.57896 -1.48513 2.85498)
(-2.66148 -1.37864 2.73564)
(-2.669 -1.2649 2.58094)
(-2.50172 -2.74791 3.18352)
(-2.11406 -2.67524 3.17451)
(-2.45328 -2.45382 2.81926)
(-2.70839 -2.01066 2.75678)
(-2.77048 -1.81048 2.72673)
(-2.41746 -1.87145 2.85341)
(-2.56814 -1.51057 2.82884)
(-2.60806 -1.1774 2.84502)
(-1.75805 -3.30108 2.94349)
(-2.18915 -3.2209 2.7602)
(-2.49324 -2.9841 2.80038)
(-2.71668 -2.48941 2.84455)
(-2.82033 -2.31721 2.6111)
(-3.02696 -1.92857 2.69456)
(-3.09364 -1.777 2.69062)
(-2.85909 -1.56306 2.81571)
(-2.46904 -1.45002 2.79623)
(-1.3515 -3.62392 2.55756)
(-1.81523 -3.3238 2.66742)
(-2.10595 -2.88798 2.56403)
(-2.23141 -2.87604 2.50369)
(-2.58505 -2.44092 2.57582)
(-3.00434 -2.15223 1.88367)
(-3.01542 -1.58868 1.74814)
(-2.5545 -1.31929 2.33041)
(-2.72922 -1.2564 2.21955)
(-2.80012 -1.25437 2.31943)
(-1.86725 -3.3441 0.916805)
(-1.48527 -3.58082 1.58059)
(-2.16802 -3.13117 1.71674)
(-2.5885 -2.84223 1.33)
(-2.2314 -2.45649 1.98781)
(-2.07136 -2.60429 1.73626)
(-2.06938 -2.31902 1.40886)
(-2.58715 -1.57319 1.13142)
(-2.95019 -1.13277 0.715289)
(-3.20624 -0.750853 1.17949)
(-2.71418 -0.730724 1.2811)
(-0.957381 -3.29969 0.539462)
(-1.69617 -3.05433 0.181802)
(-0.985622 -2.91817 1.19121)
(-0.513493 -2.6046 1.29507)
(-2.50818 -1.12289 0.245882)
(-1.56548 -2.00513 1.18217)
(-2.07231 -2.00457 0.67866)
(-2.02629 -1.67158 0.875793)
(-2.03342 -1.49335 0.840561)
(-1.76497 -1.14248 1.56769)
(-1.71027 -0.949513 1.14193)
(-2.17967 -0.381957 0.209052)
(0.793005 -1.45897 -0.0676465)
(1.0082 -0.979932 -0.23627)
(1.19838 -0.819113 -0.334415)
(0.955338 -1.89729 0.843689)
(1.16088 -1.7475 0.920857)
(-0.756237 -1.89442 0.665945)
(-1.38773 -1.84872 1.15887)
(-1.04376 -1.38651 0.463212)
(-1.07708 -1.27845 -0.157401)
(-1.597 -1.23612 0.512703)
(-2.00157 -0.77766 0.299916)
(-2.53246 -0.0457752 0.0902493)
(-2.87905 0.384212 0.230009)
(1.01259 0.713696 -1.63415)
(1.25988 0.281334 -1.31417)
(1.2368 -0.432913 -0.801557)
(0.903602 -0.884497 -0.697698)
(0.501118 -1.60458 0.0901663)
(-0.499648 -1.69352 -0.510722)
(-0.855991 -1.6572 -0.319417)
(-0.695138 -1.66813 -0.611698)
(-1.27241 -1.11223 -0.878251)
(-1.56444 -0.210876 -1.4114)
(-2.11987 0.258533 -0.779106)
(-2.34859 0.581667 -0.726332)
(-1.60874 0.585356 -0.624417)
(-0.514602 0.258628 -0.264451)
(1.47495 0.520922 -1.25994)
(1.41976 0.325653 -1.49994)
(1.26442 -0.408252 -1.41062)
(0.939236 -0.764658 -1.31492)
(0.195095 -1.85329 -0.142314)
(-0.545087 -1.51591 -1.17602)
(-0.909816 -1.30406 -1.36336)
(-1.06105 -1.05027 -1.71413)
(-1.07779 -0.501967 -1.92721)
(-1.37188 0.269307 -1.64823)
(-1.23591 0.0725362 -1.06317)
(-0.437045 0.253156 -0.583122)
(0.351515 -0.34869 -0.664332)
(0.967869 -0.483983 -0.585688)
(1.46135 -1.06284 -0.0117345)
(1.36138 1.0405 -1.44569)
(1.46105 0.474246 -2.04738)
(0.963801 -0.183044 -2.1408)
(0.42954 -0.412748 -1.90521)
(-0.085455 -1.15812 -1.60039)
(-0.215817 -1.1329 -2.03032)
(-0.184029 -0.140071 -2.2589)
(0.0642857 -0.369058 -1.57625)
(-0.117341 0.0594094 -1.86817)
(0.230316 0.220157 -1.68393)
(0.367378 -0.0705537 -1.29424)
(0.170185 -0.136424 -1.05933)
(1.26122 -0.686692 -0.707384)
(1.41132 -1.24369 -0.478344)
(1.55566 -1.68882 -0.30406)
(1.2809 -1.71263 -0.532578)
(-2.02498 -0.558513 2.64038)
(-2.25962 -0.758528 2.6771)
(-2.18423 -0.350984 2.89883)
(-2.27219 -0.875 2.71915)
(-2.41043 -0.420619 2.7225)
(-2.47426 -0.125648 2.68757)
(-1.99376 -1.10141 3.13308)
(-2.02033 -0.993764 3.148)
(-2.20904 -0.684631 3.06484)
(-2.24791 -1.12185 2.97558)
(-2.30434 -0.908387 2.94879)
(-2.35123 -0.678636 2.94523)
(-2.33614 -0.667573 2.92448)
(-2.29859 -1.37605 3.11774)
(-2.43748 -1.1052 3.08584)
(-2.49296 -1.06592 2.92569)
(-2.36802 -0.931242 2.87193)
(-2.38128 -0.701162 2.86841)
(-2.41061 -1.59886 2.97051)
(-2.4987 -1.53168 2.93823)
(-2.39335 -1.42514 3.06038)
(-2.4306 -0.90415 3.13116)
(-2.541 -0.802482 2.95355)
(-2.30079 -1.91255 3.13469)
(-2.53522 -1.59826 2.99036)
(-2.52292 -1.53139 2.905)
(-2.42465 -1.31023 3.02452)
(-2.28025 -1.11197 3.07288)
(-2.32113 -1.1701 2.93912)
(-2.09131 -2.00422 3.26746)
(-2.19616 -2.05574 3.05415)
(-2.56224 -1.5698 3.03587)
(-2.57023 -1.50371 2.89496)
(-2.62056 -1.16948 2.84993)
(-2.5718 -1.24421 2.87505)
(-2.58595 -0.916389 2.88955)
(-2.13671 -2.26078 3.09046)
(-2.03197 -2.14226 3.17725)
(-2.16665 -1.94717 3.14667)
(-2.39973 -1.87759 2.85739)
(-2.40788 -1.74059 2.78856)
(-2.52172 -1.51758 2.67671)
(-2.49521 -1.27167 2.56554)
(-2.47076 -1.04618 2.62108)
(-2.26212 -2.77869 3.15712)
(-2.12332 -2.53736 3.18521)
(-2.45873 -2.41473 2.8685)
(-2.61634 -2.13549 2.75251)
(-2.54979 -2.16536 2.62453)
(-2.424 -1.80305 2.79901)
(-2.6072 -1.36736 2.81496)
(-2.60433 -1.13926 2.79219)
(-2.46021 -0.914296 2.64295)
(-1.55345 -3.3792 2.95499)
(-2.15173 -3.09192 2.77574)
(-2.27463 -3.07757 2.81918)
(-2.50422 -2.72063 2.8468)
(-2.73469 -2.38951 2.63729)
(-2.94469 -1.95296 2.74876)
(-2.97888 -1.717 2.80828)
(-2.75944 -1.55334 2.86234)
(-2.43793 -1.48192 2.67674)
(-2.73509 -0.973584 2.28425)
(-1.18405 -3.73391 2.64855)
(-1.53986 -3.43948 2.75856)
(-2.00102 -2.92141 2.5943)
(-2.15198 -2.93811 2.57905)
(-2.4109 -2.72654 2.61224)
(-2.58624 -2.30772 2.15609)
(-2.38044 -1.19688 2.79735)
(-2.46587 -1.54226 2.25334)
(-2.47302 -1.59382 2.21272)
(-2.81846 -1.13588 2.20417)
(-2.69717 -0.633708 2.42551)
(-1.26421 -3.59901 1.32394)
(-1.44453 -3.67876 1.57943)
(-1.98253 -3.31123 1.59317)
(-2.33415 -3.02915 1.56501)
(-2.08783 -2.85704 1.54251)
(-1.95565 -2.75634 1.66649)
(-2.30826 -1.97777 1.68383)
(-2.38588 -1.85039 1.38175)
(-2.95308 -0.816536 0.886001)
(-3.19333 -0.698834 0.834388)
(-2.77472 -0.519853 1.05463)
(-2.14719 -0.350026 1.05742)
(-0.762158 -3.51009 0.595589)
(-1.59574 -3.16411 0.395126)
(-0.673361 -2.9679 1.42889)
(-0.46196 -2.63408 1.16536)
(-2.09811 -1.71146 0.282397)
(-1.72555 -1.84618 1.12267)
(-1.97718 -2.03863 0.91)
(-1.84488 -1.73241 1.09833)
(-1.76095 -1.43799 1.30799)
(-1.68167 -1.39706 1.28147)
(-1.69886 -0.906621 1.06225)
(-2.03817 -0.646211 0.872733)
(-2.7497 0.186224 0.390323)
(0.994715 -1.85852 0.390111)
(1.29567 -1.38523 0.479385)
(1.27341 -0.792211 -0.318729)
(1.06421 -1.87346 0.951107)
(1.2541 -1.6705 0.836574)
(-0.563649 -1.92513 0.781887)
(-1.2973 -1.90358 1.27214)
(-1.15664 -1.41592 0.808779)
(-0.957896 -1.38252 0.043453)
(-1.71133 -0.928165 -0.0191471)
(-2.18416 -0.730156 0.0195497)
(-2.56621 -0.173599 0.160833)
(-2.80059 0.388047 0.114918)
(-2.78477 0.647905 0.117877)
(1.18905 0.429496 -1.36161)
(1.29641 0.13601 -1.19196)
(1.28474 -0.470746 -0.799689)
(0.908292 -0.936678 -0.756785)
(0.329964 -1.51535 -0.146772)
(-0.600668 -1.68231 -0.584855)
(-0.881025 -1.69072 -0.367069)
(-0.76676 -1.69346 -0.572233)
(-1.33292 -1.26444 -0.90448)
(-1.68823 -0.123838 -1.551)
(-2.18535 0.319304 -1.02858)
(-2.35943 0.642981 -0.892356)
(-1.45492 0.437749 -0.573095)
(-0.244213 -0.0928931 -0.54987)
(0.725777 -0.319601 0.225277)
(1.45132 0.530211 -1.12445)
(1.46416 0.281771 -1.41402)
(1.26949 -0.422549 -1.43978)
(1.01429 -0.831381 -1.27138)
(0.12445 -1.84591 -0.208304)
(-0.599606 -1.53101 -1.25091)
(-0.915828 -1.36095 -1.40551)
(-1.15621 -1.12933 -1.6852)
(-1.14601 -0.417211 -1.91561)
(-1.32318 0.257742 -1.56392)
(-1.06992 0.104415 -1.09926)
(-0.311007 0.21594 -0.524327)
(0.471179 -0.365529 -0.841066)
(1.08476 -0.582743 -0.554925)
(1.54171 -1.10669 -0.092966)
(1.46364 -1.22823 -0.496573)
(1.3546 1.00173 -1.4091)
(1.46927 0.435179 -2.0247)
(0.951776 -0.194491 -2.14842)
(0.433498 -0.423949 -1.91631)
(-0.10815 -1.15965 -1.61456)
(-0.232391 -1.14469 -2.05015)
(-0.173891 -0.15335 -2.26297)
(0.0755695 -0.37094 -1.57666)
(-0.11897 0.0787188 -1.84904)
(0.244739 0.250145 -1.68354)
(0.392441 -0.0566154 -1.31216)
(0.189208 -0.131195 -1.02998)
(1.29871 -0.716479 -0.713007)
(1.44919 -1.27746 -0.497036)
(1.58629 -1.69613 -0.37248)
(1.31117 -1.68924 -0.618636)
(1.11532 -1.86532 -0.64353)
(-2.02842 -0.536543 2.35236)
(-1.98701 -0.622569 2.58922)
(-2.00192 -0.370165 2.68884)
(-2.17471 -0.860727 2.68853)
(-2.20849 -0.689345 2.75104)
(-2.20885 -0.317237 2.87825)
(-2.20256 -0.945272 2.66744)
(-2.33389 -0.633278 2.66661)
(-2.41424 -0.183321 2.67961)
(-2.39669 -0.155141 2.66602)
(-1.85045 -1.19985 3.16358)
(-1.93989 -1.06608 3.14933)
(-2.12771 -0.805386 3.06421)
(-2.34254 -0.635424 2.83956)
(-2.27106 -1.21942 2.8881)
(-2.27077 -0.958934 2.95738)
(-2.25152 -0.884837 2.99864)
(-2.26797 -0.752282 2.97979)
(-2.29399 -0.557241 2.9686)
(-2.29723 -1.42587 3.05218)
(-2.32593 -1.24514 3.06474)
(-2.35999 -1.20342 2.91562)
(-2.25563 -1.14344 2.84519)
(-2.27603 -0.872025 2.88835)
(-2.34636 -0.568562 2.93561)
(-2.36658 -1.71019 2.9246)
(-2.28299 -1.63252 3.02021)
(-2.30836 -1.34573 3.09326)
(-2.56749 -0.915397 2.97425)
(-2.43039 -1.08884 2.89133)