/*--------------------------------*- C++ -*----------------------------------*\
  =========                 |
  \\      /  F ield         | OpenFOAM: The Open Source CFD Toolbox
   \\    /   O peration     | Website:  https://openfoam.org
    \\  /    A nd           | Version:  7
     \\/     M anipulation  |
\*---------------------------------------------------------------------------*/
FoamFile
{
    version     2.0;
    format      ascii;
    class       volVectorField;
    location    "8.5";
    object      U_0;
}
// * * * * * * * * * * * * * * * * * * * * * * * * * * * * * * * * * * * * * //

dimensions      [0 1 -1 0 0 0 0];

internalField   nonuniform List<vector> 
18630
(
(1.70749 1.04755 -2.00069)
(1.45447 0.774796 -2.11466)
(1.59828 0.96403 -2.06922)
(1.53825 0.397709 -2.26569)
(1.13094 0.600558 -2.01642)
(1.45094 0.760869 -2.08612)
(1.40858 0.226566 -1.74563)
(1.64594 1.01253 -1.96511)
(1.55526 0.413709 -2.25944)
(0.988949 -0.249972 -2.13452)
(0.386777 -0.14965 -1.5438)
(1.12214 0.636433 -2.02246)
(1.06305 0.213261 -1.48523)
(1.45928 0.721434 -2.0532)
(1.44233 0.197326 -1.71483)
(0.971537 -0.22984 -1.54381)
(1.64602 0.992444 -1.93963)
(1.56957 0.381643 -2.23307)
(0.992954 -0.237558 -2.13565)
(0.603373 -0.634973 -1.72085)
(-1.17663 -1.14448 -0.993969)
(0.275318 -0.203744 -1.50681)
(-0.0610138 -0.679343 -1.32777)
(1.09941 0.673906 -1.99028)
(1.0747 0.220021 -1.43537)
(0.808733 -0.233994 -0.988586)
(1.48406 0.704114 -2.00486)
(1.44608 0.229472 -1.69578)
(0.990714 -0.230202 -1.55212)
(0.672069 -0.82365 -1.08604)
(1.59478 0.984826 -1.89402)
(1.56029 0.421998 -2.20191)
(0.995137 -0.223151 -2.13221)
(0.584099 -0.602688 -1.74456)
(0.0547345 -1.00616 -1.61915)
(-1.87385 -1.66314 0.937174)
(-1.28244 -1.43162 -0.751856)
(-1.95804 -1.35994 -1.02648)
(0.218053 -0.249707 -1.48403)
(-0.0956449 -0.758656 -1.30776)
(-0.142153 -0.602253 -1.12293)
(1.08716 0.752733 -1.89518)
(1.10849 0.174903 -1.36125)
(0.843404 -0.201334 -1.00205)
(0.645941 -1.07019 -0.813225)
(1.46959 0.71786 -1.97795)
(1.46075 0.229954 -1.67675)
(1.00912 -0.242662 -1.54443)
(0.683697 -0.751758 -1.18744)
(0.302127 -1.44102 -0.611267)
(1.5938 0.991376 -1.86745)
(1.56937 0.533328 -2.15563)
(0.98771 -0.216442 -2.13047)
(0.585758 -0.593772 -1.74694)
(0.0509087 -1.03039 -1.61242)
(-0.0982701 -1.11405 -1.94092)
(-2.69743 -1.96934 1.71174)
(-1.96144 -1.72314 0.790491)
(-2.05521 -2.07432 1.06865)
(-1.49977 -1.01278 -1.5775)
(-2.12652 -1.42505 -1.00043)
(-2.53375 -0.587076 -1.38098)
(0.132857 -0.390516 -1.40087)
(-0.0765107 -0.774282 -1.30273)
(-0.0184786 -0.647933 -0.964379)
(-1.4824 -0.797462 -0.941384)
(1.07256 0.807242 -1.7639)
(1.15099 0.130954 -1.26976)
(0.864288 -0.209632 -0.99351)
(0.691795 -0.967473 -0.810311)
(0.261742 -1.51463 -0.13949)
(1.5241 0.691442 -1.91841)
(1.47919 0.226133 -1.66847)
(1.02444 -0.238809 -1.53918)
(0.697174 -0.737595 -1.24332)
(0.308335 -1.49519 -0.634144)
(-0.242762 -1.4296 -0.971486)
(1.63364 1.03631 -1.80591)
(1.53986 0.330311 -2.15398)
(1.00327 -0.212085 -2.13167)
(0.577614 -0.554962 -1.75312)
(0.0456928 -1.06939 -1.59819)
(-0.10957 -1.12959 -1.93025)
(-0.013171 -0.176184 -2.18821)
(-3.10126 -1.69653 2.72739)
(-2.65822 -2.122 1.81563)
(-2.78866 -2.12499 1.8812)
(-1.74596 -1.9665 1.19637)
(-2.05119 -2.22714 1.05235)
(-1.8689 -2.39571 1.22323)
(-1.61241 -1.63099 -0.774033)
(-2.25339 -1.50472 -1.228)
(-2.79354 -0.6226 -1.26956)
(-2.25571 -0.979547 -1.36402)
(0.100912 -0.491434 -1.46194)
(-0.011711 -0.810475 -1.21755)
(0.0575221 -0.762679 -0.777056)
(-1.24224 -1.02091 -0.924492)
(-1.40928 -0.714402 -0.180754)
(1.08658 0.73885 -1.61852)
(1.21204 0.0799864 -1.16119)
(0.882032 -0.204062 -0.980634)
(0.727033 -0.844713 -0.839228)
(0.299619 -1.50406 -0.0751079)
(-0.477272 -1.47896 -0.640872)
(1.52524 0.646683 -1.88291)
(1.44269 0.287478 -1.68678)
(1.11879 -0.353904 -1.45134)
(0.717511 -0.732087 -1.25117)
(0.309779 -1.56249 -0.647079)
(-0.253971 -1.45332 -0.938626)
(-0.44585 -1.16518 -1.2244)
(1.54231 1.05139 -1.81365)
(1.51577 0.421725 -2.13195)
(0.99319 -0.191523 -2.13437)
(0.564122 -0.532128 -1.74756)
(0.0445632 -1.09927 -1.57861)
(-0.119516 -1.13771 -1.92456)
(-0.0339949 -0.173326 -2.1897)
(0.0375864 -0.240212 -1.7941)
(-3.15153 -1.91385 3.3931)
(-2.79743 -2.32443 2.77971)
(-3.0055 -2.10718 2.86519)
(-2.51781 -2.38996 1.88662)
(-2.68334 -2.2327 1.98592)
(-2.63457 -2.06431 2.27032)
(-2.1742 -1.95425 0.663162)
(-2.07419 -2.33609 1.12268)
(-2.02042 -2.30536 1.06205)
(-2.3638 -1.78016 1.71269)
(-1.73633 -1.58457 -0.975828)
(-2.40539 -1.41839 -1.47973)
(-2.8298 -1.14146 -1.11399)
(-2.18239 -0.903533 -1.66015)
(-2.79661 -1.80364 0.638085)
(0.0868911 -0.64915 -1.41464)
(0.0866914 -0.844178 -1.10366)
(0.203368 -0.825711 -0.636077)
(-1.04815 -1.09639 -0.812511)
(-1.03633 -1.12882 -0.146405)
(-1.37966 -1.90062 0.420303)
(1.16656 0.655213 -1.44853)
(1.23683 0.0542478 -1.07928)
(0.889268 -0.176367 -0.993689)
(0.71433 -0.799354 -0.806733)
(0.394534 -1.57251 0.0123874)
(-0.498686 -1.48792 -0.626646)
(-0.629173 -1.52604 -0.463152)
(1.47435 0.663376 -1.86493)
(1.42153 0.327189 -1.68765)
(1.03192 -0.199251 -1.55989)
(0.753033 -0.736166 -1.20096)
(0.333172 -1.65081 -0.53412)
(-0.28694 -1.45679 -0.93153)
(-0.498373 -1.15504 -1.22386)
(-0.655773 -0.901083 -1.70854)
(1.55294 1.03256 -1.73872)
(1.56713 0.455218 -2.13897)
(0.988655 -0.191313 -2.13211)
(0.551431 -0.517746 -1.74641)
(0.0493365 -1.13516 -1.54991)
(-0.128564 -1.14031 -1.92481)
(-0.0558637 -0.165665 -2.19611)
(0.0312381 -0.263931 -1.75951)
(-0.0848839 0.0621914 -2.05152)
(-3.2232 -1.71205 3.59759)
(-3.05232 -2.34108 3.29323)
(-3.17278 -2.29172 3.2412)
(-2.82703 -2.44979 2.87156)
(-2.94498 -2.12157 2.90598)
(-3.21063 -1.91996 2.85385)
(-2.37026 -2.57867 2.02399)
(-2.47872 -2.38128 2.24271)
(-2.62379 -2.15932 2.21758)
(-2.811 -2.03032 2.31573)
(-1.76835 -2.28038 0.926127)
(-2.08483 -2.49006 1.08462)
(-2.07525 -2.33268 1.37735)
(-2.3665 -1.89876 1.36068)
(-2.37988 -2.10216 2.1826)
(-1.78779 -1.80383 -0.824962)
(-2.49215 -1.66047 -1.17065)
(-2.91652 -1.40812 -1.24074)
(-2.13101 -0.920272 -0.789329)
(-2.80346 -1.523 0.107808)
(-2.05197 -1.9614 0.942028)
(0.107739 -0.697624 -1.43794)
(0.282107 -0.9484 -0.886451)
(0.315017 -0.874354 -0.576866)
(-0.76123 -1.12596 -0.431063)
(-0.801129 -1.31953 -0.0201972)
(-1.39461 -1.82545 0.478679)
(-1.41151 -1.74057 0.171176)
(1.12524 0.703742 -1.33057)
(1.22226 0.0631343 -1.05485)
(0.985204 -0.276006 -0.881077)
(0.786799 -0.810859 -0.783236)
(0.475621 -1.63 -0.0974047)
(-0.509575 -1.50757 -0.617808)
(-0.680133 -1.55214 -0.412033)
(-0.436252 -1.40591 -0.889524)
(1.56229 0.627561 -1.76765)
(1.44356 0.347866 -1.67284)
(1.09597 -0.279213 -1.52029)
(0.78894 -0.767657 -1.11819)
(0.340889 -1.71098 -0.417045)
(-0.315871 -1.44304 -0.955421)
(-0.597297 -1.12924 -1.24567)
(-0.706831 -0.891432 -1.70409)
(-0.886229 -0.45761 -1.80966)
(1.48049 1.0594 -1.71871)
(1.51649 0.441487 -2.15703)
(0.986926 -0.180031 -2.137)
(0.542784 -0.5029 -1.75133)
(0.0382221 -1.15818 -1.52914)
(-0.14207 -1.13807 -1.93147)
(-0.0766388 -0.164293 -2.20133)
(0.0305708 -0.282474 -1.72323)
(-0.0878655 0.0674874 -2.03937)
(0.169479 0.242615 -1.72127)
(-2.96233 -1.29451 3.33969)
(-3.09824 -1.80397 3.48601)
(-3.16795 -1.27417 3.40823)
(-2.95683 -2.48611 3.25319)
(-3.11604 -2.24159 3.16457)
(-2.91121 -2.15788 3.14722)
(-2.73697 -2.5419 2.95547)
(-2.79356 -2.35764 2.96395)
(-3.04121 -2.22665 2.90793)
(-3.18003 -1.83095 2.93243)
(-2.19388 -2.84627 2.06547)
(-2.4809 -2.57835 2.29206)
(-2.5756 -2.19787 2.21799)
(-2.77672 -2.08193 2.15828)
(-3.33954 -1.60943 2.20063)
(-1.83917 -2.32944 0.882975)
(-1.90199 -2.71094 1.22363)
(-2.134 -2.56646 1.64713)
(-2.47534 -1.80452 1.08129)
(-2.23218 -2.39348 2.02517)
(-2.42136 -1.93514 1.90236)
(-1.89129 -2.01399 -0.615245)
(-2.71391 -1.70496 -1.03437)
(-2.68597 -1.67299 -1.61004)
(-2.27417 -0.749741 -0.259944)
(-2.70362 -1.44203 -0.676929)
(-2.03274 -2.00885 1.10174)
(-2.14102 -1.58357 -0.445908)
(0.198215 -0.777001 -1.30253)
(0.477542 -1.03158 -0.647235)
(0.535417 -0.802278 -0.612383)
(-0.480162 -1.23197 0.133415)
(-0.436203 -1.51378 0.250231)
(-1.32135 -1.83692 0.505246)
(-1.4232 -1.79376 0.248578)
(-1.14607 -1.38192 -0.243947)
(1.11171 0.670571 -1.25603)
(1.20308 0.0972701 -1.08133)
(0.959531 -0.233372 -0.954126)
(0.867626 -0.802938 -0.741551)
(0.547201 -1.65766 -0.138725)
(-0.532915 -1.5186 -0.604953)
(-0.74291 -1.53501 -0.394968)
(-0.504898 -1.47159 -0.7074)
(-0.897717 -0.994073 -1.26433)
(1.49911 0.578957 -1.7756)
(1.55766 0.181325 -1.57006)
(1.12414 -0.285299 -1.51358)
(0.829459 -0.780648 -1.07501)
(0.353468 -1.75936 -0.251759)
(-0.345944 -1.43625 -0.978334)
(-0.638565 -1.16756 -1.24891)
(-0.857593 -0.834512 -1.69528)
(-0.989593 -0.24089 -1.86436)
(-1.10273 -0.543964 -1.40201)
(1.50318 1.02548 -1.66422)
(1.48039 0.427729 -2.10795)
(0.986623 -0.165451 -2.13801)
(0.526091 -0.4846 -1.76148)
(0.0206563 -1.1592 -1.53208)
(-0.153875 -1.13909 -1.94149)
(-0.096688 -0.161843 -2.20896)
(0.0378237 -0.315495 -1.69108)
(-0.0905202 0.0667279 -2.01673)
(0.164498 0.234793 -1.71093)
(0.246519 -0.0961972 -1.29763)
(-2.7415 -1.27178 3.3286)
(-2.70013 -1.58141 3.35874)
(-2.66284 -1.4165 3.34596)
(-2.88934 -2.09108 3.30714)
(-2.80609 -1.64369 3.28522)
(-2.85389 -1.42847 3.16788)
(-2.86562 -2.65944 3.21199)
(-2.82491 -2.34073 3.17978)
(-2.94976 -1.99623 3.11478)
(-3.14507 -1.70281 2.89045)
(-2.60623 -2.68644 2.98481)
(-2.50189 -2.89117 2.85377)
(-3.07496 -2.30937 2.84814)
(-3.06018 -2.08997 2.91457)
(-3.38433 -1.4847 2.49909)
(-2.12093 -2.83036 2.24957)
(-2.44966 -2.73642 2.38861)
(-2.5282 -2.34458 2.38141)
(-2.74257 -2.14622 2.10314)
(-2.83725 -2.06472 2.39746)
(-3.41457 -0.756668 1.84863)
(-1.91547 -2.57273 0.900682)
(-1.86633 -2.86697 1.35181)
(-2.15414 -2.71585 1.77549)
(-2.41525 -1.91781 1.22091)
(-2.15716 -2.18172 2.21164)
(-2.22589 -2.1298 2.0767)
(-2.62587 -1.53345 0.966555)
(-1.86524 -2.28724 -0.453437)
(-2.77847 -1.9777 -0.945882)
(-2.89187 -1.52015 -1.54747)
(-2.04135 -1.07862 0.557952)
(-2.71067 -1.22811 -1.00329)
(-2.06249 -2.03735 1.09914)
(-2.12747 -1.67821 -0.255676)
(-2.67692 -1.17369 0.373246)
(0.331554 -0.974908 -0.955005)
(0.602324 -0.967444 -0.618871)
(0.737399 -0.812245 -0.559692)
(-0.167774 -1.44755 0.630972)
(-0.0636993 -1.7328 0.583437)
(-1.22852 -1.83374 0.58315)
(-1.41841 -1.77853 0.538608)
(-1.05432 -1.4259 -0.0730668)
(-1.29608 -1.54403 0.61238)
(1.10125 0.67849 -1.23912)
(1.22742 0.122225 -1.05315)
(0.993471 -0.238609 -0.962873)
(0.884024 -0.84185 -0.653162)
(0.535751 -1.63474 -0.0425701)
(-0.52722 -1.53639 -0.586173)
(-0.738761 -1.61125 -0.309951)
(-0.553661 -1.32617 -0.982553)
(-0.971508 -1.03933 -1.08143)
(-1.08545 -0.996733 -1.01523)
(1.50426 0.642815 -1.67604)
(1.5212 0.246629 -1.55033)
(1.13964 -0.283973 -1.50364)
(0.873371 -0.80317 -1.04934)
(0.271844 -1.78291 -0.221346)
(-0.391705 -1.42663 -1.02997)
(-0.693664 -1.22317 -1.23372)
(-0.771873 -0.914427 -1.75747)
(-0.97397 -0.406385 -1.88146)
(-1.11198 -0.572037 -1.54396)
(-1.52727 0.144216 -1.11807)
(1.48612 1.04077 -1.61156)
(1.49486 0.417313 -2.10677)
(0.98076 -0.170171 -2.13748)
(0.500262 -0.466774 -1.78738)
(0.0111135 -1.15664 -1.54409)
(-0.167363 -1.13471 -1.95719)
(-0.117924 -0.154484 -2.22257)
(0.0393032 -0.334008 -1.65411)
(-0.0941939 0.0625528 -1.98867)
(0.165226 0.225811 -1.70104)
(0.26741 -0.0991509 -1.28918)
(0.10776 -0.200094 -1.19782)
(-2.42788 -1.11657 3.31743)
(-2.65976 -1.12047 3.23367)
(-2.71696 -1.29148 3.36759)
(-2.7539 -1.04558 3.32732)
(-2.61363 -1.69585 3.39575)
(-2.70823 -1.70431 3.15437)
(-2.54652 -1.63339 3.14878)
(-2.70012 -2.16441 3.31565)
(-2.72954 -1.84644 3.23304)
(-2.77214 -1.68535 3.05517)
(-2.82144 -1.47572 2.97693)
(-2.8034 -2.80274 3.17684)
(-2.71899 -2.47193 3.19161)
(-2.79338 -2.1438 3.02804)
(-3.14066 -1.56974 2.72986)
(-2.86506 -1.51299 3.00512)
(-2.52995 -2.85598 2.93223)
(-2.45312 -2.89852 2.94795)
(-2.84384 -2.52445 2.96622)
(-3.02802 -2.09374 2.91816)
(-3.20371 -1.64005 2.58598)
(-2.85249 -1.73433 2.78043)
(-1.86006 -3.10499 2.33459)
(-2.35206 -2.83243 2.51821)
(-2.40807 -2.63393 2.50731)
(-2.63322 -2.25205 2.20598)
(-2.79975 -2.12695 2.41408)
(-3.33796 -1.18697 2.07609)
(-3.01371 -0.958892 2.09052)
(-2.15956 -2.66521 0.688494)
(-1.83824 -3.02942 1.39735)
(-2.13501 -2.94832 1.65985)
(-2.79726 -1.84371 1.10039)
(-2.19638 -2.13298 1.92789)
(-2.17964 -2.23093 2.03701)
(-2.58487 -1.24887 1.45796)
(-2.64236 -1.43106 1.0634)
(-1.82614 -2.53191 -0.319249)
(-2.70922 -2.18506 -1.02095)
(-2.2262 -2.18603 -0.235511)
(-1.68402 -1.48809 0.887575)
(-2.74111 -0.904792 -1.14714)
(-1.89963 -2.07605 1.24525)
(-2.09584 -1.69357 -0.051022)
(-2.38659 -1.41449 0.4347)
(-2.62556 -1.07432 0.317945)
(0.513898 -1.17749 -0.544793)
(0.683028 -0.845182 -0.685011)
(0.892663 -0.816434 -0.511734)
(0.238943 -1.63389 0.817876)
(0.354349 -1.844 0.736331)
(-1.39325 -1.65962 0.351213)
(-1.40577 -1.88907 0.605649)
(-1.00475 -1.40664 -0.135653)
(-1.28038 -1.29326 0.182236)
(-1.55521 -1.29216 1.04099)
(1.09605 0.665851 -1.26243)
(1.25821 0.125797 -1.00272)
(1.04463 -0.296493 -0.92059)
(0.929397 -0.883742 -0.605951)
(0.517279 -1.59632 0.00960579)
(-0.515988 -1.55889 -0.576191)
(-0.811392 -1.65358 -0.239499)
(-0.659423 -1.5133 -0.683958)
(-1.07471 -1.05389 -0.917812)
(-1.14551 -0.816458 -1.22805)
(-1.85529 -0.252569 -0.507373)
(1.50287 0.542569 -1.62297)
(1.43233 0.285942 -1.60812)
(1.17784 -0.325557 -1.47131)
(0.880913 -0.790532 -1.09057)
(0.357824 -1.80883 -0.101293)
(-0.430922 -1.44618 -1.05922)
(-0.764817 -1.23658 -1.24795)
(-0.878062 -1.05118 -1.74346)
(-0.975597 -0.567245 -1.87193)
(-1.17693 -0.375275 -1.64702)
(-1.55151 0.312319 -1.18441)
(-0.778032 0.498791 -1.22373)
(1.40665 1.03835 -1.61092)
(1.51885 0.431076 -2.08395)
(0.984894 -0.171502 -2.13457)
(0.470691 -0.447971 -1.82458)
(-0.015458 -1.16286 -1.55003)
(-0.183111 -1.13595 -1.97216)
(-0.139459 -0.145458 -2.23808)
(0.0444405 -0.349475 -1.61979)
(-0.101361 0.0576371 -1.95702)
(0.176004 0.219503 -1.69417)
(0.304249 -0.0940566 -1.28006)
(0.126279 -0.174091 -1.16386)
(1.17313 -0.605875 -0.62759)
(-2.36466 -0.800902 3.07688)
(-2.37744 -1.26274 3.19868)
(-2.45308 -0.945723 3.22071)
(-2.58437 -1.28325 3.17455)
(-2.58503 -1.06208 3.27357)
(-2.65925 -1.36555 3.3262)
(-2.73635 -0.958929 3.28424)
(-2.69137 -1.12872 3.10943)
(-2.47665 -1.79824 3.36027)
(-2.69027 -1.55155 3.17379)
(-2.6337 -1.65408 3.07253)
(-2.71256 -1.19579 3.12575)
(-2.69362 -2.06522 3.25034)
(-2.66048 -1.92152 3.20423)
(-2.74257 -1.8293 3.06212)
(-2.6529 -1.53355 3.06584)
(-2.59808 -1.37352 2.9974)
(-2.64541 -2.90297 3.09813)
(-2.39532 -2.70444 3.18118)
(-2.69271 -2.3816 2.89056)
(-2.80703 -1.84531 2.79214)
(-2.77196 -1.46549 3.02945)
(-2.59931 -1.45282 3.09083)
(-2.35679 -2.97905 3.02793)
(-2.46441 -2.84869 2.96068)
(-2.88819 -2.6871 2.86055)
(-2.96101 -2.1434 2.95886)
(-3.17654 -1.64348 2.63705)
(-2.95071 -1.74017 2.73816)
(-2.88602 -1.79523 2.76857)
(-1.67788 -3.34897 2.36561)
(-2.09641 -3.07189 2.5972)
(-2.24736 -2.76713 2.59473)
(-2.55294 -2.42921 2.20735)
(-2.62354 -2.21114 2.50382)
(-3.20986 -1.67861 2.06162)
(-3.02339 -1.2115 1.81505)
(-2.66205 -1.3576 2.29187)
(-1.92199 -2.97398 0.747522)
(-1.57616 -3.26443 1.584)
(-2.23738 -3.04384 1.86524)
(-2.8516 -2.21551 1.07328)
(-2.20344 -2.13925 1.79694)
(-2.09853 -2.22019 2.05973)
(-2.50129 -1.5844 1.25932)
(-2.64884 -1.42904 1.09131)
(-2.74194 -1.25656 1.6652)
(-1.74339 -2.78679 -0.0805707)
(-2.63551 -2.1878 -1.00289)
(-1.97064 -2.47355 0.236333)
(-1.51962 -1.66824 1.37503)
(-2.60371 -0.996118 -0.568419)
(-1.98327 -1.8004 1.23653)
(-2.00832 -1.83245 0.104554)
(-2.23993 -1.60584 0.535319)
(-2.36362 -1.32132 0.736407)
(-2.16192 -1.28445 1.1781)
(0.602208 -1.29152 -0.375378)
(0.830842 -0.835087 -0.575979)
(1.03425 -0.854748 -0.391446)
(0.559626 -1.79359 0.816998)
(0.627008 -1.83374 0.806922)
(-1.01908 -1.75123 0.64235)
(-1.33478 -2.04881 0.865111)
(-1.00374 -1.455 -0.306769)
(-1.17726 -1.16828 -0.18478)
(-1.61548 -1.20316 0.828779)
(-1.68696 -0.892587 0.60522)
(0.973355 0.649183 -1.42369)
(1.26039 0.127573 -1.01299)
(1.1026 -0.352969 -0.881391)
(0.934031 -0.879902 -0.610912)
(0.519476 -1.59892 0.0620165)
(-0.504229 -1.59613 -0.565418)
(-0.841813 -1.63148 -0.270181)
(-0.660973 -1.54653 -0.590074)
(-1.1296 -1.01129 -0.955329)
(-1.22953 -0.63355 -1.36738)
(-1.93514 -0.107691 -0.548384)
(-2.26017 0.50365 -0.620985)
(1.523 0.569204 -1.48377)
(1.40972 0.393899 -1.59395)
(1.21112 -0.356852 -1.44661)
(0.868125 -0.747753 -1.19057)
(0.220656 -1.82855 -0.169997)
(-0.471446 -1.46117 -1.10366)
(-0.829428 -1.22586 -1.29723)
(-0.945945 -1.07818 -1.71279)
(-0.915515 -0.653024 -1.93272)
(-1.26655 -0.115291 -1.65946)
(-1.52015 0.337166 -1.19238)
(-0.65623 0.345543 -0.984008)
(0.132158 -0.299896 -0.252187)
(1.43895 1.03733 -1.52188)
(1.50144 0.471396 -2.07995)
(0.999356 -0.18239 -2.1276)
(0.446469 -0.428532 -1.86276)
(-0.0460625 -1.16609 -1.55928)
(-0.190501 -1.13438 -1.99186)
(-0.159222 -0.137753 -2.25058)
(0.0501822 -0.358581 -1.5945)
(-0.105942 0.0561599 -1.92371)
(0.19471 0.216122 -1.69007)
(0.318751 -0.0872149 -1.27623)
(0.141568 -0.156714 -1.12828)
(1.2 -0.629506 -0.66065)
(1.34123 -1.18084 -0.440094)
(-2.30005 -0.447066 2.90801)
(-2.17956 -0.874316 3.07352)
(-2.37351 -1.01207 2.97093)
(-2.38861 -0.765474 2.96428)
(-2.38882 -1.32126 3.16992)
(-2.41668 -1.14673 3.1588)
(-2.59118 -0.84832 3.01895)
(-2.58153 -1.42704 3.16831)
(-2.62108 -1.26801 3.16275)
(-2.65889 -1.01959 3.16761)
(-2.46615 -1.78886 3.21128)
(-2.60011 -1.22801 3.14799)
(-2.47549 -1.31575 3.07794)
(-2.60992 -1.00026 3.08079)
(-2.35087 -1.87394 3.35364)
(-2.34171 -1.84939 3.1716)
(-2.58715 -1.47859 3.0683)
(-2.8331 -0.93916 2.97216)
(-2.60492 -1.12646 2.94329)
(-2.41263 -2.1438 3.18421)
(-2.35423 -2.05607 3.20084)
(-2.53008 -1.83585 3.13059)
(-2.59905 -1.55636 3.06137)
(-2.63119 -1.46784 2.89442)
(-2.71818 -1.33573 2.75488)
(-2.52766 -2.86512 3.11369)
(-2.2629 -2.75383 3.06234)
(-2.68397 -2.41194 2.75361)
(-2.80015 -1.93081 2.76566)
(-2.74808 -1.72807 2.86364)
(-2.57116 -1.65223 2.94281)
(-2.63735 -1.42444 2.81131)
(-2.2068 -3.17007 2.90752)
(-2.30647 -3.12622 2.81296)
(-2.65284 -2.8216 2.82995)
(-2.98009 -2.14574 2.94268)
(-2.93205 -1.87889 2.82183)
(-2.91327 -1.87964 2.78256)
(-2.99742 -1.74934 2.7858)
(-2.86536 -1.45195 2.85676)
(-1.61975 -3.44503 2.41566)
(-2.10729 -3.17481 2.56958)
(-2.10269 -2.93436 2.54347)
(-2.47443 -2.57126 2.34532)
(-2.61024 -2.29363 2.50456)
(-3.14036 -1.71637 2.10695)
(-2.93948 -1.28919 1.96733)
(-2.6491 -1.24846 2.31109)
(-2.49541 -1.58553 2.43477)
(-1.66328 -3.27043 0.890078)
(-1.68458 -3.41346 1.53161)
(-2.31519 -3.32398 1.33363)
(-2.4351 -2.79471 1.26614)
(-2.02403 -2.39079 2.02021)
(-2.18397 -2.22753 2.06487)
(-2.32525 -2.05965 1.11983)
(-2.58382 -1.51908 1.12294)
(-2.81455 -1.39948 1.29522)
(-3.10924 -1.0865 1.56391)
(-1.55488 -3.06369 0.0825358)
(-2.35846 -2.57721 -0.496413)
(-1.34912 -2.76184 0.897733)
(-0.886541 -2.24737 1.50186)
(-2.55017 -1.02517 0.0173632)
(-1.73893 -1.81597 1.24271)
(-2.06848 -1.97708 0.330121)
(-2.179 -1.65136 0.703687)
(-2.31567 -1.47285 0.606993)
(-2.03543 -1.30723 1.01144)
(-1.70275 -0.890436 1.28813)
(0.696794 -1.46753 -0.122835)
(0.893943 -0.923127 -0.42753)
(1.12742 -0.83947 -0.355763)
(0.757078 -1.8657 0.81623)
(0.846127 -1.8059 0.876284)
(-1.03718 -1.76581 0.631374)
(-1.5609 -1.85247 1.01067)
(-1.02458 -1.51347 0.0045454)
(-1.16433 -1.16658 -0.284027)
(-1.55929 -1.26349 0.68513)
(-1.81781 -0.83132 0.424291)
(-2.46057 0.12631 -0.568046)
(0.904748 0.671219 -1.58922)
(1.2066 0.13269 -1.17316)
(1.15873 -0.408957 -0.848502)
(0.91469 -0.874783 -0.645926)
(0.519534 -1.61492 0.118242)
(-0.522649 -1.61765 -0.58866)
(-0.839184 -1.62312 -0.324129)
(-0.670388 -1.62561 -0.412013)
(-1.169 -1.08625 -0.916445)
(-1.3643 -0.482429 -1.41215)
(-2.02894 0.0983363 -0.637053)
(-2.32293 0.576259 -0.600321)
(-1.74687 0.704361 -0.359901)
(1.43456 0.602406 -1.42658)
(1.53419 0.204603 -1.46972)
(1.24792 -0.395514 -1.41575)
(0.871286 -0.741704 -1.28224)
(0.2487 -1.84756 -0.10954)
(-0.506047 -1.49966 -1.12194)
(-0.883604 -1.25311 -1.33561)
(-0.972667 -1.04145 -1.71684)
(-1.0408 -0.527086 -1.94525)
(-1.34147 0.13322 -1.66157)
(-1.39102 0.21144 -1.12705)
(-0.52148 0.237466 -0.741769)
(0.250276 -0.332265 -0.460294)
(0.860148 -0.399201 -0.598285)
(1.3958 1.00689 -1.51084)
(1.53808 0.405166 -2.0337)
(0.953992 -0.176859 -2.14838)
(0.428847 -0.410979 -1.8949)
(-0.0644032 -1.15486 -1.58784)
(-0.20879 -1.13767 -2.01129)
(-0.173495 -0.134937 -2.25848)
(0.0547337 -0.363453 -1.5794)
(-0.109299 0.0581428 -1.89225)
(0.22692 0.224828 -1.68718)
(0.347654 -0.0726088 -1.27907)
(0.157976 -0.144139 -1.09358)
(1.22967 -0.657008 -0.684305)
(1.3723 -1.20921 -0.465638)
(1.5152 -1.6989 -0.300483)
(-2.39716 -0.633514 2.6038)
(-2.34766 -0.658648 2.76838)
(-2.41482 -0.172252 2.83231)
(-2.03427 -1.04182 3.12579)
(-2.21195 -0.755572 3.10597)
(-2.31628 -1.10097 2.97172)
(-2.36145 -0.922671 2.92321)
(-2.44879 -0.653628 2.87803)
(-2.39075 -1.30342 3.15293)
(-2.46009 -1.18942 3.09166)
(-2.56669 -0.942486 2.97784)
(-2.48117 -0.707261 2.92)
(-2.62211 -1.47012 3.04759)
(-2.7291 -1.40167 2.96906)
(-2.48547 -1.30229 3.11823)
(-2.23933 -1.00733 3.26934)
(-2.54223 -1.53763 3.19605)
(-2.52507 -1.5576 3.0467)
(-2.4781 -1.52868 2.92393)
(-2.72637 -1.09774 2.84963)
(-2.43075 -1.24352 2.96225)
(-2.31254 -1.82957 3.29738)
(-2.28546 -1.98136 3.1226)
(-2.5501 -1.51556 3.08737)
(-2.4915 -1.40376 3.01956)
(-2.60001 -1.20228 2.87468)
(-2.63157 -1.03631 2.94007)
(-2.20454 -2.23565 3.0887)
(-2.24519 -2.1464 3.09892)
(-2.37024 -1.94168 3.06143)
(-2.50192 -1.70952 2.92638)
(-2.57904 -1.48679 2.85132)
(-2.65955 -1.37517 2.73414)
(-2.66481 -1.25866 2.5806)
(-2.5107 -2.7307 3.18619)
(-2.12248 -2.66281 3.17654)
(-2.46191 -2.44366 2.82129)
(-2.71373 -2.00525 2.75879)
(-2.77091 -1.81714 2.72255)
(-2.41903 -1.86824 2.85225)
(-2.57482 -1.49844 2.83081)
(-2.60762 -1.17575 2.8468)
(-1.747 -3.30432 2.94549)
(-2.19805 -3.21315 2.76159)
(-2.49694 -2.97819 2.80432)
(-2.71445 -2.49274 2.84293)
(-2.8265 -2.31426 2.61263)
(-3.04121 -1.9201 2.69334)
(-3.09966 -1.76629 2.69375)
(-2.85749 -1.55531 2.81877)
(-2.46905 -1.44538 2.79034)
(-1.35545 -3.62784 2.56878)
(-1.8089 -3.32804 2.67661)
(-2.11586 -2.87772 2.56226)
(-2.22861 -2.88335 2.51445)
(-2.58664 -2.45093 2.58332)
(-2.9945 -2.15666 1.88834)
(-2.99889 -1.58503 1.78127)
(-2.55274 -1.32762 2.32696)
(-2.73642 -1.24975 2.20885)
(-2.80583 -1.23838 2.31544)
(-1.87239 -3.34792 0.934739)
(-1.49937 -3.57926 1.57455)
(-2.1642 -3.12204 1.72924)
(-2.58935 -2.83652 1.35307)
(-2.23793 -2.47954 1.94842)
(-2.07467 -2.60977 1.72676)
(-2.07991 -2.30816 1.42696)
(-2.58904 -1.57365 1.13877)
(-2.96768 -1.08429 0.693752)
(-3.21239 -0.715162 1.13894)
(-2.70095 -0.730063 1.27767)
(-0.942346 -3.30142 0.555022)
(-1.67165 -3.05466 0.22062)
(-0.951914 -2.91138 1.22433)
(-0.495644 -2.60459 1.28872)
(-2.48784 -1.13756 0.258903)
(-1.56976 -1.99068 1.18726)
(-2.07048 -2.00197 0.713822)
(-2.00694 -1.66978 0.90714)
(-1.99999 -1.4843 0.893573)
(-1.75604 -1.13839 1.56402)
(-1.70994 -0.940194 1.13317)
(-2.19132 -0.382028 0.207996)
(0.80507 -1.45018 -0.0670552)
(1.02664 -0.976844 -0.22814)
(1.20167 -0.818426 -0.333177)
(0.958998 -1.89744 0.845603)
(1.16895 -1.74885 0.927256)
(-0.752847 -1.8976 0.669391)
(-1.38149 -1.84754 1.1734)
(-1.0509 -1.37695 0.499412)
(-1.07603 -1.2843 -0.14725)
(-1.60508 -1.21637 0.483223)
(-2.01366 -0.763099 0.277456)
(-2.53325 -0.0415199 0.0928062)
(-2.87304 0.395045 0.210639)
(1.0147 0.711367 -1.63573)
(1.26482 0.272024 -1.31454)
(1.23401 -0.440281 -0.806999)
(0.893876 -0.88388 -0.706182)
(0.488256 -1.61042 0.0862012)
(-0.509796 -1.69675 -0.512076)
(-0.861624 -1.65871 -0.328078)
(-0.707746 -1.6667 -0.618021)
(-1.28218 -1.11374 -0.877778)
(-1.57539 -0.187803 -1.41442)
(-2.1168 0.275793 -0.801274)
(-2.34371 0.593738 -0.73922)
(-1.60029 0.58336 -0.637268)
(-0.498882 0.240937 -0.275389)
(1.47466 0.513075 -1.26613)
(1.4198 0.316357 -1.5013)
(1.25968 -0.414978 -1.41633)
(0.934206 -0.765292 -1.3238)
(0.177378 -1.85552 -0.150668)
(-0.553879 -1.5164 -1.1864)
(-0.910445 -1.30689 -1.374)
(-1.07289 -1.05007 -1.71356)
(-1.08598 -0.488086 -1.92665)
(-1.36216 0.279079 -1.65019)
(-1.21582 0.0708321 -1.06591)
(-0.428005 0.261389 -0.581341)
(0.355215 -0.347485 -0.659931)
(0.969606 -0.487405 -0.587277)
(1.46462 -1.07127 -0.00747821)
(1.36118 1.03195 -1.4558)
(1.46593 0.462757 -2.04742)
(0.961697 -0.188516 -2.14653)
(0.425064 -0.417242 -1.9093)
(-0.0913167 -1.1542 -1.60604)
(-0.221126 -1.12971 -2.04064)
(-0.183725 -0.140266 -2.26236)
(0.0690689 -0.363893 -1.57576)
(-0.111956 0.0668062 -1.86619)
(0.236288 0.22765 -1.68224)
(0.37564 -0.0655242 -1.29391)
(0.173817 -0.135267 -1.0598)
(1.26154 -0.683497 -0.701666)
(1.40906 -1.24395 -0.473411)
(1.55574 -1.69473 -0.293356)
(1.27961 -1.71773 -0.529923)
(-2.02448 -0.556351 2.63979)
(-2.25738 -0.757893 2.67906)
(-2.18363 -0.353051 2.89814)
(-2.27262 -0.870771 2.7167)
(-2.41068 -0.41889 2.71946)
(-2.4737 -0.125936 2.68428)
(-1.99212 -1.09989 3.13409)
(-2.01909 -0.992268 3.14806)
(-2.20934 -0.682244 3.06304)
(-2.24917 -1.11645 2.97421)
(-2.30473 -0.903676 2.94952)
(-2.34874 -0.677048 2.94839)
(-2.33276 -0.668464 2.92687)
(-2.29987 -1.37322 3.11581)
(-2.43917 -1.09965 3.08317)
(-2.49011 -1.06545 2.92277)
(-2.36207 -0.932812 2.87133)
(-2.37894 -0.702382 2.86926)
(-2.40683 -1.60132 2.96802)
(-2.4877 -1.53156 2.94252)
(-2.39102 -1.4164 3.06117)
(-2.43661 -0.896044 3.12592)
(-2.54165 -0.80011 2.95148)
(-2.30234 -1.91188 3.13333)
(-2.53263 -1.602 2.98782)
(-2.52534 -1.52334 2.90616)
(-2.42458 -1.30295 3.02598)
(-2.27659 -1.1079 3.07516)
(-2.32259 -1.16286 2.93985)
(-2.08638 -2.00843 3.26261)
(-2.19821 -2.05668 3.04843)
(-2.56441 -1.56475 3.03285)
(-2.57344 -1.49747 2.89222)
(-2.62448 -1.16637 2.84802)
(-2.57315 -1.24292 2.87342)
(-2.5809 -0.910623 2.89089)
(-2.14554 -2.25292 3.09344)
(-2.03438 -2.13512 3.18132)
(-2.16957 -1.9429 3.14515)
(-2.40139 -1.87946 2.8541)
(-2.40172 -1.75367 2.78488)
(-2.51651 -1.5184 2.67393)
(-2.48783 -1.26683 2.56553)
(-2.4664 -1.04312 2.62455)
(-2.25274 -2.77728 3.14667)
(-2.12493 -2.52952 3.18132)
(-2.47037 -2.40271 2.86921)
(-2.61934 -2.13765 2.75228)
(-2.54991 -2.16792 2.62418)
(-2.43257 -1.78755 2.79952)
(-2.62272 -1.34145 2.81223)
(-2.61184 -1.11894 2.78622)
(-2.45761 -0.90877 2.63791)
(-1.57072 -3.36663 2.96209)
(-2.15558 -3.08227 2.7877)
(-2.27627 -3.06585 2.82685)
(-2.49166 -2.72931 2.85105)
(-2.73038 -2.39375 2.6452)
(-2.94594 -1.94053 2.76151)
(-2.97735 -1.71014 2.81403)
(-2.75291 -1.544 2.86371)
(-2.44388 -1.46636 2.66483)
(-2.74401 -0.957973 2.27926)
(-1.1934 -3.73657 2.65004)
(-1.54393 -3.44215 2.75901)
(-2.00722 -2.91927 2.59403)
(-2.16987 -2.92818 2.5782)
(-2.41607 -2.72601 2.61439)
(-2.5717 -2.31085 2.16853)
(-2.3459 -1.23944 2.80534)
(-2.46898 -1.54239 2.2523)
(-2.48748 -1.58244 2.20221)
(-2.82394 -1.12331 2.20243)
(-2.6926 -0.618647 2.42651)
(-1.26301 -3.60633 1.33216)
(-1.45101 -3.67842 1.57659)
(-1.99272 -3.30076 1.59161)
(-2.33297 -3.02121 1.56695)
(-2.09813 -2.85143 1.54016)
(-1.95087 -2.76619 1.66157)
(-2.33468 -1.95686 1.69253)
(-2.40147 -1.85412 1.3476)
(-2.9489 -0.841609 0.854948)
(-3.18229 -0.705134 0.821405)
(-2.76446 -0.506554 1.04468)
(-2.14848 -0.329867 1.04423)
(-0.735675 -3.51158 0.616732)
(-1.57752 -3.15549 0.438709)
(-0.646284 -2.95105 1.44909)
(-0.445012 -2.6267 1.15809)
(-2.05846 -1.74338 0.298909)
(-1.73115 -1.82878 1.13334)
(-1.97901 -2.03159 0.918474)
(-1.8424 -1.72536 1.1043)
(-1.75851 -1.43418 1.3081)
(-1.6773 -1.38005 1.27841)
(-1.70335 -0.888995 1.04693)
(-2.04209 -0.641315 0.899403)
(-2.75599 0.245834 0.380874)
(1.00736 -1.84692 0.390014)
(1.31216 -1.37854 0.478863)
(1.27652 -0.791619 -0.317174)
(1.06233 -1.87302 0.952945)
(1.25038 -1.67129 0.839692)
(-0.55799 -1.92811 0.790834)
(-1.29521 -1.90262 1.28216)
(-1.159 -1.42004 0.833383)
(-0.965194 -1.38114 0.0453597)
(-1.72123 -0.919433 -0.0387398)
(-2.19667 -0.71266 0.00240287)
(-2.57139 -0.171491 0.163635)
(-2.7916 0.397224 0.101237)
(-2.77182 0.657448 0.127932)
(1.18733 0.430856 -1.37126)
(1.30118 0.126338 -1.1892)
(1.28289 -0.47728 -0.8031)
(0.901292 -0.934455 -0.768622)
(0.309291 -1.51652 -0.16373)
(-0.617841 -1.67903 -0.600341)
(-0.884298 -1.69526 -0.375399)
(-0.778742 -1.69175 -0.57674)
(-1.34715 -1.26103 -0.914916)
(-1.70026 -0.120057 -1.54569)
(-2.17961 0.337755 -1.04992)
(-2.3534 0.6548 -0.898019)
(-1.44503 0.438237 -0.561101)
(-0.233982 -0.0952815 -0.553781)
(0.733544 -0.329438 0.222633)
(1.45214 0.522377 -1.12936)
(1.4608 0.275477 -1.41791)
(1.26475 -0.430026 -1.44428)
(1.01 -0.831585 -1.27903)
(0.110862 -1.84758 -0.222865)
(-0.608778 -1.53072 -1.26195)
(-0.916537 -1.36418 -1.41395)
(-1.15119 -1.13723 -1.68595)
(-1.15408 -0.394761 -1.91873)
(-1.30806 0.259946 -1.55542)
(-1.06167 0.11217 -1.10643)
(-0.301343 0.222525 -0.525574)
(0.475091 -0.365483 -0.835151)
(1.08688 -0.586626 -0.556489)
(1.54523 -1.11524 -0.0858851)
(1.46738 -1.23867 -0.494109)
(1.3558 0.994236 -1.41749)
(1.46238 0.431705 -2.03318)
(0.949299 -0.19973 -2.1547)
(0.429902 -0.429133 -1.92027)
(-0.112861 -1.15546 -1.6207)
(-0.238056 -1.14167 -2.06044)
(-0.172904 -0.152959 -2.26632)
(0.0805036 -0.365725 -1.57627)
(-0.11288 0.0872144 -1.84732)
(0.250438 0.25678 -1.68101)
(0.400989 -0.0521038 -1.31151)
(0.193154 -0.13047 -1.03027)
(1.29881 -0.713097 -0.708011)
(1.44736 -1.27786 -0.491703)
(1.58485 -1.70368 -0.359653)
(1.3111 -1.69787 -0.60073)
(1.11473 -1.86549 -0.64191)
(-2.02723 -0.538528 2.3521)
(-1.98615 -0.618067 2.58898)
(-2.00136 -0.366709 2.68817)
(-2.17268 -0.86003 2.68766)
(-2.20878 -0.689336 2.74899)
(-2.20892 -0.317279 2.87716)
(-2.20247 -0.938252 2.66584)
(-2.332 -0.628959 2.66596)
(-2.41208 -0.180813 2.67933)
(-2.39305 -0.15637 2.66684)
(-1.8479 -1.19713 3.16523)
(-1.94071 -1.06026 3.14928)
(-2.1298 -0.801506 3.06176)
(-2.3436 -0.634068 2.8376)
(-2.27235 -1.21528 2.8872)
(-2.27254 -0.95495 2.95738)
(-2.25023 -0.883629 3.00062)
(-2.26534 -0.752806 2.98154)
(-2.29167 -0.557214 2.96917)
(-2.29855 -1.42324 3.04897)
(-2.32708 -1.24343 3.06022)
(-2.35806 -1.20337 2.91195)
(-2.25511 -1.13921 2.84497)
(-2.2762 -0.867843 2.8901)
(-2.34301 -0.566558 2.93831)
(-2.36775 -1.70436 2.92604)
(-2.2836 -1.62709 3.02326)
(-2.31057 -1.33755 3.09414)
(-2.56981 -0.912847 2.96978)