/*--------------------------------*- C++ -*----------------------------------*\
  =========                 |
  \\      /  F ield         | OpenFOAM: The Open Source CFD Toolbox
   \\    /   O peration     | Website:  https://openfoam.org
    \\  /    A nd           | Version:  7
     \\/     M anipulation  |
\*---------------------------------------------------------------------------*/
FoamFile
{
    version     2.0;
    format      ascii;
    class       volScalarField;
    location    "1.5";
    object      p;
}
// * * * * * * * * * * * * * * * * * * * * * * * * * * * * * * * * * * * * * //

dimensions      [0 2 -2 0 0 0 0];

internalField   nonuniform List<scalar> 
18750
(
-71.1352
-71.9802
-68.3579
-71.3386
-66.6678
-72.7674
-72.0575
-65.5053
-68.4237
-71.536
-61.0986
-67.3405
-66.1148
-67.6426
-72.9592
-72.0122
-64.4459
-65.4211
-68.4829
-71.7013
-55.0455
-61.677
-60.7207
-65.223
-67.8236
-65.4235
-65.5068
-67.7897
-73.0846
-71.8527
-64.0498
-64.3962
-65.2995
-68.5537
-71.7992
-51.3401
-56.352
-55.0153
-59.5413
-62.0697
-60.2378
-65.0921
-65.6579
-68.2314
-64.8682
-65.4521
-65.391
-67.918
-73.0901
-71.5274
-64.6915
-64.0001
-64.3454
-65.18
-68.6118
-71.8124
-50.765
-53.5514
-51.3221
-56.7096
-56.3046
-55.1245
-61.6982
-59.5476
-62.6281
-60.0345
-63.9284
-65.1753
-66.0122
-68.8116
-64.2591
-65.6131
-65.1637
-65.2697
-68.0433
-72.8978
-71.0413
-64.5193
-64.5993
-63.9527
-64.297
-65.1155
-68.6164
-71.7368
-48.593
-51.305
-50.8463
-54.2292
-53.4961
-51.0035
-57.4808
-56.6782
-56.2353
-55.0475
-61.0531
-61.3647
-59.5466
-62.5973
-59.4899
-62.7981
-63.5179
-65.1052
-66.4278
-69.201
-63.7961
-63.9554
-65.3404
-64.8919
-65.1533
-68.0672
-72.4902
-70.4068
-64.5354
-64.4705
-64.5124
-63.9068
-64.2561
-65.0915
-68.5486
-71.5704
-47.473
-49.0264
-48.6201
-51.4065
-51.4068
-50.7517
-53.5071
-53.9395
-53.3392
-50.7609
-56.481
-57.4874
-56.4987
-55.9551
-54.5027
-60.4789
-60.7666
-61.5542
-59.9506
-62.1898
-58.7746
-62.0149
-62.4718
-63.0647
-65.0559
-66.7369
-69.3458
-63.4733
-62.9644
-63.7968
-65.0273
-64.6484
-65.024
-67.9679
-71.8791
-69.647
-63.5609
-64.473
-64.415
-64.4177
-63.8562
-64.2083
-65.059
-68.4221
-71.3447
-46.805
-48.0003
-47.4269
-49.948
-48.962
-48.769
-51.6188
-51.3861
-51.3637
-50.8939
-54.131
-54.068
-53.4803
-53.3242
-50.7202
-56.0644
-56.3236
-56.6507
-56.2252
-55.7704
-54.3445
-60.4021
-60.2769
-60.8951
-61.6118
-60.4921
-62.1047
-58.5842
-61.5763
-61.8306
-62.204
-62.7695
-64.8844
-67.0468
-69.506
-62.5449
-62.7738
-62.7559
-63.6687
-64.7355
-64.42
-64.8761
-67.7855
-71.1871
-68.8779
-62.6119
-63.4599
-64.4183
-64.35
-64.3169
-63.7951
-64.1615
-65.0135
-68.2955
-71.0766
-45.9585
-47.029
-46.8271
-47.8894
-47.9566
-47.4849
-49.6014
-49.6377
-48.9036
-48.7925
-51.4291
-51.5154
-51.328
-51.2121
-50.8644
-53.8594
-54.0366
-53.6683
-52.8879
-53.263
-51.0753
-56.1869
-56.1215
-56.245
-56.4377
-56.2363
-55.2064
-54.5314
-60.3559
-59.9162
-60.187
-60.8049
-62.0006
-60.7228
-62.1883
-58.1401
-61.924
-61.4143
-61.5057
-61.9367
-62.5129
-64.6966
-67.2104
-69.2082
-61.8629
-62.2667
-62.683
-62.662
-63.5698
-64.4242
-64.1758
-64.722
-67.5454
-70.4565
-68.1488
-61.9376
-62.552
-63.3675
-64.3264
-64.2973
-64.2412
-63.7323
-64.1357
-64.9381
-68.0965
-70.7851
-45.0987
-45.9638
-45.8476
-46.9435
-46.9287
-46.8359
-48.0421
-47.8561
-47.8243
-47.2721
-49.6778
-49.4329
-49.2969
-48.835
-48.4909
-51.4733
-51.4355
-51.4872
-51.0449
-50.8964
-50.5879
-54.2408
-53.8607
-53.6509
-53.1172
-52.3378
-53.1202
-51.1884
-56.1112
-56.1329
-56.167
-56.2063
-56.53
-55.9334
-54.6095
-54.6022
-59.3466
-59.7904
-59.4885
-60.0068
-60.6441
-61.7711
-60.7146
-62.5929
-57.8012
-62.3247
-61.6605
-61.0349
-61.1682
-61.6409
-62.2481
-64.4433
-67.2506
-68.6011
-61.5298
-61.9718
-62.1768
-62.5612
-62.5519
-63.4263
-64.114
-63.9648
-64.561
-67.2285
-69.6664
-67.4459
-62.238
-61.9259
-62.5027
-63.2724
-64.2287
-64.2331
-64.1709
-63.6749
-64.0825
-64.8504
-67.883
-70.4776
-44.6428
-45.0208
-45.0083
-46.033
-45.8618
-45.9925
-46.9643
-46.9314
-46.8709
-46.8439
-47.8387
-47.9585
-47.7208
-47.7455
-46.9834
-49.6484
-49.5283
-49.279
-49.0063
-48.7058
-48.1558
-51.6974
-51.4295
-51.2878
-51.3163
-50.7587
-50.2777
-50.3401
-54.0837
-54.0506
-53.9438
-53.4084
-52.8919
-52.0835
-52.6935
-51.0554
-56.0845
-55.915
-56.2691
-56.0985
-56.2009
-56.356
-55.7307
-53.879
-55.1263
-59.5492
-59.0713
-59.3786
-59.3031
-59.7831
-60.4456
-61.4458
-60.8935
-63.0143
-57.1832
-62.2822
-62.0987
-61.4063
-60.7887
-60.8541
-61.2193
-61.9933
-64.2371
-67.1284
-67.448
-60.6521
-61.9707
-61.8656
-62.0178
-62.3858
-62.3708
-63.2883
-63.8742
-63.792
-64.4011
-66.8996
-68.8366
-66.7825
-62.2508
-62.1978
-61.9216
-62.447
-63.2007
-64.1287
-64.1516
-64.109
-63.617
-64.0374
-64.7503
-67.6482
-70.1853
-44.1054
-44.6514
-44.5868
-45.1635
-45.0112
-44.9462
-45.962
-45.9854
-45.7948
-45.9042
-46.8902
-46.8353
-46.7991
-46.854
-46.7531
-47.8621
-47.8305
-47.8732
-47.5849
-47.7211
-46.9182
-49.8893
-49.5536
-49.4321
-49.2078
-48.8826
-48.6923
-48.0524
-52.1155
-51.6391
-51.3752
-51.1646
-51.04
-50.4128
-49.8498
-50.0407
-53.9982
-54.0565
-54.097
-53.821
-53.1808
-52.6988
-51.7848
-52.3587
-51.0253
-56.1547
-56.0337
-55.7528
-56.0148
-56.109
-56.0323
-56.1708
-55.506
-53.272
-54.5107
-59.5118
-59.4056
-58.8559
-59.081
-58.7551
-59.6598
-60.2813
-61.1978
-61.0625
-62.851
-57.3313
-61.7924
-61.8748
-61.8246
-61.1314
-60.5372
-60.6195
-60.923
-61.7356
-64.006
-66.8856
-66.4578
-60.2641
-61.8828
-61.8386
-61.7533
-61.8623
-62.2372
-62.2717
-63.1566
-63.6156
-63.6103
-64.2279
-66.5259
-68.0777
-65.9906
-62.2346
-62.2033
-62.1461
-61.8931
-62.3796
-63.1391
-64.0483
-64.0931
-64.0433
-63.5556
-63.9924
-64.6398
-67.4013
-70.0134
-43.8205
-44.1742
-44.0909
-44.7145
-44.636
-44.561
-45.143
-45.1355
-44.975
-44.886
-45.999
-45.9508
-45.8628
-45.7267
-45.8131
-46.8622
-46.7731
-46.8163
-46.7568
-46.7993
-46.6646
-47.8864
-47.925
-47.8109
-47.8067
-47.3982
-47.6652
-46.82
-49.8702
-49.7697
-49.4432
-49.3186
-49.0331
-48.6058
-48.6623
-47.8179
-52.3776
-51.9802
-51.5702
-51.3052
-50.9844
-50.8201
-50.1454
-49.5385
-49.6041
-53.8838
-53.7308
-54.0549
-54.0024
-53.6856
-52.886
-52.6346
-51.5684
-51.8071
-50.79
-56.0723
-55.969
-55.9766
-55.6913
-55.7986
-55.9818
-55.9268
-55.8889
-55.1528
-52.4566
-54.2271
-58.726
-59.4341
-59.1632
-58.716
-58.7495
-58.7058
-59.4426
-60.005
-61.0839
-60.936
-63.0294
-57.553
-61.188
-61.3568
-61.4788
-61.593
-60.8851
-60.2879
-60.3285
-60.7805
-61.3533
-63.8318
-66.4606
-66.0096
-59.8492
-61.6606
-61.7034
-61.6674
-61.6019
-61.7571
-62.0888
-62.1912
-63.0002
-63.385
-63.3309
-64.0186
-66.1233
-67.3117
-65.3298
-62.2776
-62.2
-62.1668
-62.0952
-61.8474
-62.3124
-63.053
-63.9519
-64.0537
-63.96
-63.5026
-63.941
-64.5244
-67.1495
-69.8518
-43.5314
-43.8271
-43.8022
-44.1297
-44.1577
-44.0743
-44.5909
-44.6352
-44.5633
-44.5124
-45.2001
-45.1286
-45.0526
-44.9445
-44.879
-45.9887
-45.9566
-45.8957
-45.8662
-45.6723
-45.8299
-46.8233
-46.7875
-46.7055
-46.7243
-46.6096
-46.6222
-46.5706
-47.9936
-47.9506
-47.879
-47.6309
-47.669
-47.1598
-47.5673
-46.7117
-49.6973
-49.7321
-49.5008
-49.283
-49.0974
-48.6774
-48.6415
-48.3186
-47.8217
-52.3094
-52.3003
-51.9427
-51.5312
-51.1054
-50.7135
-50.5167
-50.0664
-49.0665
-49.4025
-53.9642
-53.8213
-53.807
-53.9216
-54.2683
-53.5903
-52.7125
-52.0924
-51.5391
-51.2653
-50.9405
-56.422
-56.0758
-55.9575
-55.8547
-55.6338
-55.8828
-55.8373
-55.8875
-55.5928
-54.6046
-52.6758
-54.9483
-58.0016
-58.686
-59.3407
-58.9926
-58.524
-58.4945
-58.5122
-59.2233
-59.6666
-61.0126
-60.3754
-63.718
-57.4697
-60.6324
-60.8383
-61.0374
-61.1202
-61.3838
-60.7029
-60.1148
-60.0799
-60.5395
-61.1142
-63.5863
-65.9266
-65.2282
-59.3767
-61.5488
-61.4855
-61.524
-61.4878
-61.4521
-61.6614
-61.9397
-62.092
-62.8331
-63.1817
-63.0959
-63.7661
-65.7046
-66.4889
-64.7211
-62.1204
-62.2127
-62.1537
-62.1302
-62.0509
-61.8103
-62.2444
-62.9607
-63.8513
-64.026
-63.8874
-63.4466
-63.893
-64.4032
-66.9021
-69.4736
-43.3186
-43.5432
-43.4942
-43.8121
-43.7869
-43.7498
-44.1721
-44.0736
-44.1187
-44.031
-44.6482
-44.6021
-44.6342
-44.5444
-44.4941
-45.2877
-45.1952
-45.0911
-45.0243
-44.9002
-44.887
-45.9527
-45.9301
-45.9275
-45.8506
-45.7861
-45.6245
-45.8214
-46.8632
-46.806
-46.747
-46.6185
-46.5541
-46.4732
-46.5195
-46.4033
-48.1728
-47.9793
-48.017
-47.7405
-47.4101
-47.434
-47.0428
-47.1
-46.6584
-50.0192
-50.1249
-49.6912
-49.3882
-49.148
-48.9683
-48.413
-48.4445
-47.7777
-47.9988
-52.3054
-52.4737
-52.1381
-51.9324
-51.5286
-51.111
-50.6645
-50.3042
-49.7612
-49.3767
-49.0893
-54.1095
-53.9566
-53.9012
-53.7517
-53.903
-53.8825
-53.3684
-52.782
-51.9396
-51.4285
-51.3565
-50.9079
-56.4311
-56.6163
-56.1871
-55.9376
-55.7408
-55.5474
-55.618
-55.6802
-55.6412
-55.2733
-54.169
-52.7389
-53.846
-57.2862
-57.869
-58.6126
-59.2562
-58.9102
-58.3831
-58.3245
-58.3558
-59.0471
-59.3223
-60.9
-60.1042
-63.7437
-57.2063
-59.9518
-60.324
-60.5867
-60.7921
-60.8174
-61.1275
-60.4802
-59.9296
-59.9905
-60.2792
-60.9545
-63.1892
-65.2664
-64.4513
-59.161
-61.2136
-61.335
-61.3089
-61.3468
-61.3272
-61.3108
-61.5787
-61.7942
-61.9939
-62.6789
-62.9853
-62.8395
-63.4498
-65.223
-65.6599
-64.1823
-61.873
-62.0814
-62.1424
-62.074
-62.0953
-61.9985
-61.7701
-62.1871
-62.8903
-63.7904
-64.0014
-63.8297
-63.4011
-63.8475
-64.2897
-66.7017
-68.7354
-43.1048
-43.3176
-43.2818
-43.5085
-43.5131
-43.4757
-43.8188
-43.7624
-43.767
-43.7384
-44.2063
-44.1554
-44.0631
-44.0788
-44.0239
-44.6907
-44.6557
-44.5487
-44.5255
-44.4834
-44.4355
-45.3264
-45.2119
-45.1772
-45.0557
-44.9499
-44.8956
-44.8327
-46.0313
-45.9179
-45.8908
-45.8423
-45.7255
-45.784
-45.6028
-45.6618
-47.1664
-46.8882
-46.7382
-46.7087
-46.4864
-46.3899
-46.4452
-46.1994
-46.3016
-48.3014
-48.1946
-48.0829
-47.8814
-47.6594
-47.5968
-47.3991
-46.9539
-46.9563
-46.6244
-50.2842
-50.0523
-49.9269
-49.6502
-49.2924
-49.255
-48.7441
-48.5305
-48.1639
-47.9683
-48.0397
-52.3773
-52.3619
-52.3003
-51.9657
-51.8625
-51.5387
-50.9429
-50.5596
-50.0063
-49.519
-49.4622
-48.9956
-54.8096
-54.3118
-53.9148
-53.8357
-53.799
-53.9197
-54.0126
-53.0588
-52.3052
-52.069
-51.0622
-51.2523
-50.268
-56.2351
-56.5665
-56.9142
-56.3994
-55.9144
-55.7408
-55.4841
-55.4315
-55.6148
-55.5527
-55.1073
-53.968
-52.8575
-53.0226
-56.8803
-57.2824
-57.8128
-58.4998
-58.9276
-58.7447
-58.3166
-58.2618
-58.2181
-58.8653
-59.0493
-60.5347
-59.8213
-63.2498
-56.7636
-59.2743
-59.7439
-60.1599
-60.3488
-60.4859
-60.5255
-60.7865
-60.2946
-59.7625
-59.8022
-60.0662
-60.7299
-62.7772
-64.686
-63.8626
-58.68
-60.6298
-61.0468
-61.1672
-61.1424
-61.1888
-61.1828
-61.1736
-61.4622
-61.6644
-61.9212
-62.5479
-62.7808
-62.5842
-63.172
-64.739
-65.0734
-63.8054
-61.2264
-61.8033
-62.0158
-62.0617
-61.9881
-62.0474
-61.9452
-61.7028
-62.1596
-62.8189
-63.6656
-63.9446
-63.7813
-63.3721
-63.8001
-64.1743
-66.5174
-68.1308
-42.9293
-43.1263
-43.0745
-43.3018
-43.2932
-43.2763
-43.5463
-43.4762
-43.4957
-43.4892
-43.8587
-43.8086
-43.7626
-43.7233
-43.7211
-44.2354
-44.1554
-44.1175
-44.0356
-44.0039
-44.0071
-44.701
-44.6988
-44.6057
-44.488
-44.5074
-44.4438
-44.3861
-45.4199
-45.2057
-45.2076
-45.0972
-44.9797
-44.9449
-44.8853
-44.7633
-46.1024
-46.122
-45.8726
-45.8208
-45.8516
-45.6485
-45.7713
-45.4434
-45.5736
-47.2554
-46.882
-46.8329
-46.6157
-46.6291
-46.4963
-46.3587
-46.3605
-46.3805
-46.2169
-48.73
-48.2531
-48.1678
-48.0429
-47.8149
-47.5912
-47.332
-47.3126
-46.9552
-47.0461
-46.4672
-50.3828
-50.1465
-49.9756
-49.804
-49.6245
-49.3373
-49.0615
-48.5627
-48.3966
-48.2012
-47.782
-47.8666
-52.6334
-52.4876
-52.2748
-52.3665
-51.8875
-51.808
-51.431
-50.7491
-50.4406
-50.0798
-49.6614
-49.141
-48.7618
-55.382
-54.9734
-54.4742
-53.932
-53.7207
-53.8306
-53.8944
-53.8185
-52.9956
-52.543
-52.0065
-50.9091
-51.229
-50.4394
-56.2185
-56.356
-56.6865
-56.9752
-56.7352
-56.0244
-55.7935
-55.3906
-55.5509
-55.4178
-55.4166
-55.0023
-53.8671
-53.1076
-53.5148
-56.4838
-56.86
-57.265
-57.6518
-58.3192
-58.7193
-58.5821
-58.2962
-58.2789
-58.1938
-58.805
-58.6103
-60.0292
-59.4861
-61.7738
-56.2068
-58.675
-59.0949
-59.5025
-59.9628
-60.0731
-60.2459
-60.2835
-60.4729
-60.1713
-59.6789
-59.5784
-59.921
-60.5037
-62.3148
-64.26
-63.249
-58.3364
-59.74
-60.4694
-60.8491
-60.9637
-61.0109
-61.0517
-61.0435
-61.0509
-61.3308
-61.5385
-61.8493
-62.4291
-62.6179
-62.4148
-62.8849
-64.3251
-64.5741
-63.2862
-60.7187
-61.167
-61.7138
-61.9488
-61.9862
-61.9072
-61.9873
-61.905
-61.6339
-62.143
-62.7263
-63.5368
-63.858
-63.7168
-63.3347
-63.7603
-64.049
-66.3061
-67.636
-42.7725
-42.9235
-42.8903
-43.0703
-43.086
-43.0628
-43.306
-43.2815
-43.2975
-43.2646
-43.5591
-43.5165
-43.5063
-43.4671
-43.445
-43.8781
-43.8221
-43.7612
-43.7367
-43.7103
-43.6875
-44.1218
-44.2434
-44.1318
-44.0687
-43.9946
-44.0198
-43.9775
-44.7776
-44.7101
-44.6537
-44.5894
-44.4679
-44.4805
-44.4215
-44.348
-45.3619
-45.3085
-45.2423
-45.1662
-45.114
-44.9083
-44.9165
-44.8165
-44.7389
-46.195
-46.1415
-46.041
-45.8889
-45.8184
-45.7267
-45.5941
-45.6548
-45.3943
-45.4999
-47.3805
-47.0991
-46.9402
-46.7853
-46.6965
-46.5593
-46.3979
-46.2591
-46.2509
-46.1351
-46.0244
-48.8014
-48.2138
-48.2912
-48.192
-48.0416
-47.822
-47.565
-47.2715
-47.2574
-46.8871
-46.7407
-46.4907
-50.5142
-50.3952
-50.1676
-49.8999
-49.7311
-49.5728
-49.287
-48.9982
-48.7932
-48.2503
-48.12
-47.5101
-47.8847
-53.0606
-52.8025
-52.5215
-52.3983
-52.1643
-51.8646
-51.6432
-51.3433
-50.7099
-50.1842
-50.0642
-49.6515
-48.9231
-48.9336
-55.4975
-55.3742
-55.1537
-54.535
-54.0378
-53.7572
-53.8749
-54.0306
-53.4101
-52.8502
-52.5197
-51.8094
-50.881
-50.8583
-50.7077
-56.2249
-56.2936
-56.4771
-56.7607
-56.907
-56.6827
-56.2628
-55.802
-55.3337
-55.6772
-55.3766
-55.3309
-55.0249
-53.5921
-52.3579
-53.3365
-56.2544
-56.5231
-56.8707
-57.2045
-57.5685
-58.1308
-58.475
-58.4462
-58.2504
-58.2365
-58.2611
-58.6442
-58.2866
-59.3151
-59.1925
-60.1066
-56.1526
-58.0691
-58.5488
-59.0182
-59.3326
-59.7116
-59.86
-60.0472
-60.0536
-60.1961
-60.0135
-59.4637
-59.4407
-59.7187
-60.2609
-61.8166
-63.5764
-62.3907
-58.5771
-58.9512
-59.648
-60.331
-60.6995
-60.7905
-60.8685
-60.9179
-60.9201
-60.9326
-61.2011
-61.425
-61.7714
-62.3344
-62.4424
-62.2561
-62.6117
-63.9271
-63.9516
-62.74
-60.3202
-60.6526
-61.1338
-61.6382
-61.8934
-61.924
-61.8405
-61.9382
-61.8554
-61.5754
-62.1056
-62.642
-63.447
-63.7742
-63.6785
-63.286
-63.7315
-63.9229
-66.1381
-66.869
-42.6539
-42.7719
-42.748
-42.9113
-42.8939
-42.8911
-43.1125
-43.0789
-43.0748
-43.0428
-43.3237
-43.2725
-43.288
-43.2819
-43.2233
-43.6025
-43.527
-43.4966
-43.4793
-43.4365
-43.4719
-43.9395
-43.8774
-43.8189
-43.7359
-43.6923
-43.6782
-43.6803
-44.257
-44.2784
-44.1984
-44.0997
-44.0784
-44.02
-44.0062
-43.9452
-44.7876
-44.7848
-44.6491
-44.6313
-44.4894
-44.4477
-44.4669
-44.3441
-44.2703
-45.5482
-45.5697
-45.3082
-45.2234
-45.1416
-44.9885
-44.8722
-44.8628
-44.7714
-44.7542
-46.2034
-46.224
-46.1725
-45.9793
-45.8788
-45.7964
-45.7792
-45.5366
-45.6501
-45.3435
-45.3967
-47.5084
-47.3829
-47.0497
-46.909
-46.76
-46.6166
-46.554
-46.2719
-46.1175
-46.1538
-45.9087
-45.9673
-49.0773
-48.6562
-48.3185
-48.2799
-48.1871
-47.9458
-47.8233
-47.5336
-47.3305
-47.131
-46.7903
-46.5056
-46.5487
-50.9181
-50.6959
-50.5015
-50.1966
-49.7989
-49.8225
-49.449
-49.3277
-48.9923
-48.6297
-48.0687
-47.9716
-47.497
-47.666
-53.4763
-53.0494
-52.8686
-52.5712
-52.3733
-52.0476
-51.8963
-51.4952
-51.3605
-50.6152
-50.3427
-50.0479
-49.3429
-48.9852
-48.9826
-55.6778
-55.5353
-55.3143
-55.2243
-54.7722
-54.0126
-53.914
-53.8768
-53.7729
-53.2506
-52.9205
-52.2457
-51.7196
-50.9778
-50.2392
-50.063
-56.4497
-56.3521
-56.3697
-56.4966
-56.692
-56.8853
-56.5688
-56.2857
-55.7647
-55.5375
-55.5107
-55.3262
-55.2907
-54.7572
-53.5337
-52.5602
-53.1186
-56.2424
-56.3109
-56.5966
-56.9087
-57.1736
-57.5619
-57.9761
-58.1907
-58.2335
-58.1871
-58.2152
-58.2423
-58.3045
-57.8985
-58.7956
-59.0631
-59.26
-55.8269
-57.5884
-58.0381
-58.4674
-58.9069
-59.2704
-59.5348
-59.6947
-59.8553
-59.864
-59.9712
-59.8652
-59.2918
-59.318
-59.5367
-59.993
-61.3499
-62.9421
-61.6831
-58.146
-58.3571
-58.936
-59.6148
-60.224
-60.5754
-60.7114
-60.7387
-60.7877
-60.8175
-60.8345
-61.0852
-61.3142
-61.7059
-62.2446
-62.2254
-62.0657
-62.3652
-63.5467
-63.4124
-62.3673
-59.7479
-60.2919
-60.6025
-61.1094
-61.5739
-61.818
-61.8633
-61.7796
-61.8831
-61.7834
-61.5312
-62.071
-62.5676
-63.3579
-63.6883
-63.666
-63.2121
-63.6904
-63.82
-65.9895
-66.1712
-42.5221
-42.6567
-42.6207
-42.769
-42.7649
-42.7359
-42.92
-42.8948
-42.8794
-42.8655
-43.0967
-43.0931
-43.1035
-43.0282
-43.0274
-43.3377
-43.2879
-43.2558
-43.2782
-43.2114
-43.2245
-43.6401
-43.6142
-43.5255
-43.5084
-43.484
-43.4491
-43.4183
-44.0097
-43.9068
-43.8223
-43.7893
-43.7308
-43.7451
-43.6572
-43.5884
-44.3974
-44.3774
-44.1628
-44.1479
-44.0667
-44.0316
-44.031
-43.9648
-43.9413
-44.9118
-44.959
-44.7924
-44.5996
-44.55
-44.5063
-44.3819
-44.421
-44.3243
-44.2613
-45.6645
-45.5434
-45.4985
-45.2873
-45.1411
-45.0435
-44.9495
-44.9249
-44.8383
-44.7751
-44.6702
-46.4362
-46.5743
-46.264
-46.1371
-45.9708
-45.8661
-45.7202
-45.6615
-45.4665
-45.4967
-45.3768
-45.2823
-47.7074
-47.6283
-47.3674
-47.0265
-46.9449
-46.7039
-46.631
-46.4487
-46.2319
-46.1454
-46.0247
-45.9013
-45.913
-49.1519
-48.8906
-48.5917
-48.3446
-48.3561
-48.2194
-48.0218
-47.694
-47.6015
-47.3176
-47.1696
-46.6341
-46.5444
-46.4472
-51.1657
-50.9653
-50.6417
-50.5349
-50.1158
-49.9126
-49.7156
-49.4736
-49.1643
-48.9087
-48.5594
-48.1525
-47.9044
-47.5958
-47.6789
-53.7569
-53.4584
-53.0424
-52.7806
-52.6653
-52.1717
-52.0039
-51.8304
-51.4372
-50.9716
-50.5676
-50.1236
-49.9905
-49.1973
-48.8872
-48.7665
-55.8871
-55.5509
-55.5326
-55.3038
-54.9934
-54.965
-54.3604
-53.9339
-53.781
-53.7024
-53.3198
-52.7812
-52.1259
-51.8168
-50.8649
-50.8552
-49.6783
-56.3707
-56.5431
-56.5297
-56.4773
-56.518
-56.5651
-56.6602
-56.6096
-56.2645
-55.7779
-55.635
-55.3335
-55.2883
-55.3001
-54.6487
-53.5542
-53.2577
-52.9123
-56.3145
-56.3106
-56.4348
-56.6508
-56.9689
-57.1833
-57.5122
-57.8314
-57.9921
-58.1005
-57.9521
-58.192
-58.091
-58.0492
-57.6086
-58.3546
-59.0654
-58.442
-55.5264
-57.1863
-57.567
-57.9798
-58.4131
-58.812
-59.1666
-59.4876
-59.5311
-59.6857
-59.7378
-59.8033
-59.7187
-59.1991
-59.1554
-59.3876
-59.7847
-60.9723
-62.4
-61.3847
-57.7659
-57.835
-58.3211
-58.8891
-59.5522
-60.1149
-60.4752
-60.5908
-60.6317
-60.6748
-60.7346
-60.7587
-60.9893
-61.2144
-61.6472
-62.1258
-62.0697
-61.8795
-62.0894
-63.1416
-62.9426
-62.1238
-59.0676
-59.7294
-60.2269
-60.5489
-61.0831
-61.5025
-61.7468
-61.8069
-61.7203
-61.8231
-61.7327
-61.496
-62.0173
-62.4788
-63.2579
-63.6152
-63.6323
-63.1167
-63.6461
-63.719
-65.7419
-65.7199
-42.407
-42.5092
-42.5061
-42.6844
-42.6273
-42.617
-42.7601
-42.7479
-42.7505
-42.7297
-42.936
-42.8717
-42.9297
-42.8139
-42.8664
-43.1758
-43.0935
-43.0715
-43.0807
-43.0038
-43.0249
-43.4362
-43.3049
-43.2812
-43.231
-43.2421
-43.2262
-43.1502
-43.7032
-43.6083
-43.5642
-43.4956
-43.4553
-43.4743
-43.436
-43.4042
-44.0787
-43.9753
-43.9154
-43.7761
-43.7466
-43.6684
-43.7011
-43.6071
-43.5316
-44.4759
-44.4264
-44.2949
-44.2313
-44.145
-44.0552
-44.0001
-43.9557
-43.9152
-43.8871
-45.0454
-44.9608
-44.9235
-44.742
-44.6149
-44.5358
-44.4513
-44.3712
-44.2738
-44.315
-44.1638
-45.8276
-45.6679
-45.5026
-45.3956
-45.2677
-45.1312
-45.0407
-44.9647
-44.9264
-44.7377
-44.7148
-44.6076
-46.6303
-46.5
-46.5034
-46.253
-46.1029
-45.9602
-45.7665
-45.6643
-45.6653
-45.5329
-45.3661
-45.2944
-45.2335
-47.8412
-47.6166
-47.5503
-47.2479
-47.1165
-46.9796
-46.8336
-46.5298
-46.414
-46.3143
-46.1516
-45.9904
-45.8926
-45.8166
-49.3246
-49.0669
-48.8012
-48.5206
-48.335
-48.3914
-48.179
-47.9856
-47.6806
-47.5714
-47.3117
-46.8785
-46.718
-46.5241
-46.3614
-51.3852
-51.1739
-50.9902
-50.7014
-50.5879
-50.0918
-49.8861
-49.646
-49.5296
-49.0481
-48.7745
-48.628
-48.1081
-48.0554
-47.576
-47.5762
-53.9712
-53.8337
-53.5293
-53.0752
-52.8383
-52.6295
-52.2132
-51.9339
-51.7753
-51.4492
-50.7756
-50.6406
-50.1132
-49.977
-49.0668
-49.1392
-48.9751
-56.1281
-55.9299
-55.5503
-55.5255
-55.2195
-54.9293
-54.8176
-54.4385
-53.9677
-53.6904
-53.6793
-53.2424
-52.6573
-52.4757
-51.6722
-50.7363
-51.1694
-50.2843
-56.2804
-56.4208
-56.6281
-56.6633
-56.5616
-56.4579
-56.5178
-56.4441
-56.5236
-56.1586
-55.8583
-55.6506
-55.5283
-55.3094
-54.9182
-54.6234
-53.5905
-53.2329
-52.6873
-56.3189
-56.3267
-56.3697
-56.5502
-56.7607
-57.0049
-57.2042
-57.4775
-57.7546
-57.8585
-57.9045
-57.8175
-58.1514
-57.9658
-57.747
-57.5344
-58.2209
-58.7056
-58.4082
-55.7309
-56.8387
-57.1822
-57.5734
-57.918
-58.3584
-58.7677
-59.0881
-59.3973
-59.4014
-59.5406
-59.6055
-59.7315
-59.5741
-59.0751
-59.0567
-59.2866
-59.6304
-60.6551
-61.7983
-60.8872
-57.67
-57.5049
-57.8028
-58.2909
-58.844
-59.4668
-60.0177
-60.3646
-60.4677
-60.5204
-60.5832
-60.648
-60.6705
-60.8937
-61.1349
-61.5883
-62.0191
-61.9408
-61.7525
-61.8756
-62.8477
-62.4274
-61.7069
-58.5679
-59.0193
-59.7462
-60.1716
-60.4995
-61.0543
-61.4421
-61.6895
-61.7525
-61.6712
-61.7701
-61.7018
-61.4574
-61.9499
-62.4331
-63.1599
-63.5761
-63.6085
-63.0496
-63.6136
-63.61
-65.4578
-65.1469
-42.3363
-42.4249
-42.405
-42.5358
-42.5267
-42.5155
-42.6556
-42.6052
-42.6097
-42.62
-42.8103
-42.7814
-42.7715
-42.7277
-42.7227
-42.9661
-42.9346
-42.8715
-42.8654
-42.8586
-42.8478
-43.1696
-43.1213
-43.0668
-43.0634
-42.9934
-43.0457
-42.9943
-43.494
-43.3897
-43.2773
-43.2536
-43.2543
-43.2286
-43.2083
-43.2159
-43.7426
-43.6728
-43.5664
-43.5454
-43.4645
-43.4629
-43.4304
-43.3993
-43.4565
-44.1781
-44.0323
-43.9333
-43.8795
-43.7554
-43.7324
-43.6765
-43.6088
-43.5599
-43.5077
-44.6586
-44.5258
-44.4379
-44.2316
-44.2236
-44.0909
-43.9973
-44.0243
-43.8976
-43.8887
-43.8512
-45.2123
-45.0955
-45.0014
-44.8594
-44.6968
-44.5665
-44.4972
-44.4624
-44.3337
-44.2295
-44.2184
-44.1739
-45.8745
-45.7422
-45.7018
-45.4921
-45.3776
-45.2654
-45.079
-45.0152
-44.9832
-44.8963
-44.7634
-44.7299
-44.6864
-46.8683
-46.5967
-46.5322
-46.4131
-46.2893
-46.0842
-45.9181
-45.752
-45.6784
-45.5814
-45.3264
-45.3908
-45.3312
-45.2081
-48.0447
-47.8591
-47.624
-47.4662
-47.2848
-47.1559
-46.9643
-46.6747
-46.5458
-46.427
-46.3205
-46.0288
-45.9879
-45.8814
-45.7832
-49.7754
-49.4129
-49.0393
-48.8464
-48.5092
-48.3884
-48.2855
-48.1486
-47.9898
-47.6999
-47.4287
-47.2507
-46.9318
-46.5608
-46.4221
-46.3046
-51.7216
-51.5058
-51.2145
-50.9711
-50.8062
-50.4182
-50.1375
-49.8297
-49.7212
-49.5409
-48.9161
-48.7603
-48.6392
-48.0618
-48.0172
-47.5025
-47.5434
-54.3605
-53.8176
-53.6179
-53.4859
-53.0725
-52.8036
-52.5197
-52.2278
-52.0473
-51.7179
-51.407
-50.9653
-50.4448
-50.2857
-49.9137
-49.2313
-49.0046
-49.1438
-56.0407
-56.1204
-56.0378
-55.5181
-55.5884
-55.1843
-54.8885
-54.6856
-54.3151
-53.9882
-53.6886
-53.7077
-53.3033
-52.7407
-52.2157
-51.617
-50.7707
-51.0649
-50.1217
-56.2091
-56.2785
-56.4727
-56.7224
-56.9516
-56.7105
-56.5196
-56.4563
-56.4334
-56.2488
-56.1534
-55.8612
-55.6617
-55.5106
-55.2595
-54.8517
-54.6691
-53.5648
-53.4649
-52.6838
-56.2539
-56.2876
-56.344
-56.4627
-56.641
-56.8496
-57.0609
-57.2458
-57.5001
-57.6912
-57.8157
-57.8166
-57.6792
-58.0677
-57.8776
-57.5212
-57.3681
-58.1514
-58.4508
-57.9532
-55.6656
-56.603
-56.8252
-57.1889
-57.5719
-57.882
-58.3295
-58.7279
-59.0622
-59.2941
-59.3231
-59.4218
-59.4751
-59.6296
-59.4377
-58.9507
-58.9943
-59.2243
-59.4683
-60.376
-61.2654
-60.3168
-57.4034
-57.234
-57.4879
-57.7883
-58.2822
-58.8069
-59.405
-59.944
-60.2677
-60.3869
-60.4247
-60.4985
-60.5694
-60.5887
-60.8202
-61.076
-61.5365
-61.9192
-61.8019
-61.6191
-61.6944
-62.5565
-61.9718
-61.1979
-58.1348
-58.5157
-59.0103
-59.7154
-60.1092
-60.4469
-61.032
-61.4024
-61.6322
-61.6878
-61.6221
-61.7147
-61.6636
-61.421
-61.916
-62.4227
-63.0749
-63.5261
-63.5974
-63.0064
-63.5793
-63.5294
-65.2185
-64.6537
-42.2309
-42.3183
-42.3529
-42.361
-42.4074
-42.4147
-42.5987
-42.4972
-42.5027
-42.4922
-42.6658
-42.6312
-42.6101
-42.6136
-42.5942
-42.8056
-42.7665
-42.7527
-42.665
-42.7478
-42.6886
-43.0306
-42.9522
-42.917
-42.8903
-42.8464
-42.8705
-42.8446
-43.2143
-43.1438
-43.0683
-43.0712
-43.065
-43.036
-42.9875
-42.9597
-43.546
-43.4279
-43.3751
-43.2456
-43.2807
-43.2304
-43.2195
-43.1717
-43.2258
-43.8363
-43.7616
-43.6147
-43.5739
-43.4715
-43.4665
-43.4281
-43.4094
-43.4122
-43.5227
-44.1648
-44.1833
-44.0284
-43.9086
-43.8001
-43.6948
-43.6975
-43.6426
-43.5997
-43.5838
-43.5413
-44.6826
-44.6712
-44.493
-44.3112
-44.2835
-44.1262
-44.0265
-43.969
-43.9614
-43.8683
-43.8259
-43.818
-45.3237
-45.2138
-45.0869
-44.9511
-44.7201
-44.6643
-44.5803
-44.468
-44.3731
-44.2679
-44.2518
-44.1823
-44.1711
-46.1289
-45.8898
-45.8092
-45.7113
-45.4658
-45.3636
-45.1435
-45.1274
-45.0166
-44.8359
-44.7902
-44.7353
-44.698
-44.6764
-47.1745
-46.8956
-46.767
-46.5521
-46.3386
-46.2127
-45.9836
-45.898
-45.7773
-45.6105
-45.5415
-45.4728
-45.3176
-45.2432
-45.1114
-48.2882
-48.0882
-47.9231
-47.6587
-47.5148
-47.3568
-47.1345
-46.9948
-46.7333
-46.5211
-46.3248
-46.2593
-46.2299
-45.8968
-45.824
-45.7195
-49.8294
-49.5835
-49.3765
-49.0597
-48.7307
-48.5663
-48.4441
-48.4162
-48.233
-47.9711
-47.6357
-47.447
-47.2552
-47.0794
-46.5809
-46.3253
-46.1873
-52.111
-51.9421
-51.5509
-51.2302
-50.9304
-50.6365
-50.3801
-50.3354
-49.9334
-49.7839
-49.5221
-49.0515
-48.7885
-48.6342
-48.1319
-48.0523
-47.2341
-47.4231
-54.4792
-54.1612
-53.8673
-53.6275
-53.4275
-53.1181
-52.8762
-52.503
-52.234
-52.0301
-51.5394
-51.2066
-50.873
-50.4492
-50.1667
-49.9799
-49.2922
-48.7766
-49.01
-56.2931
-56.0685
-56.1441
-56.1237
-56.4061
-55.6061
-55.306
-54.8081
-54.6243
-54.3042
-54.0349
-53.724
-53.8379
-53.405
-52.7001
-52.1971
-51.6032
-50.7214
-51.0974
-49.8518
-56.2459
-56.2577
-56.2668
-56.5073
-56.8631
-56.8717
-56.7921
-56.6693
-56.5428
-56.2881
-56.3007
-56.1545
-55.8933
-55.5559
-55.4498
-55.2352
-54.8762
-54.7425
-53.5434
-53.4786
-52.503
-56.1053
-56.2422
-56.2839
-56.3656
-56.5091
-56.7069
-56.8966
-57.1365
-57.3304
-57.5609
-57.7283
-57.7397
-57.7585
-57.7034
-57.97
-57.8225
-57.3637
-57.226
-58.0787
-58.1746
-57.3692
-55.0535
-56.4485
-56.6143
-56.8252
-57.1865
-57.5774
-57.8946
-58.3152
-58.6872
-59.0139
-59.2086
-59.2582
-59.3422
-59.3781
-59.4736
-59.3338
-58.8945
-58.9348
-59.1589
-59.338
-60.065
-60.7661
-59.9622
-56.8992
-56.9779
-57.2447
-57.4603
-57.7799
-58.2785
-58.7844
-59.3706
-59.8805
-60.238
-60.3045
-60.3427
-60.4238
-60.505
-60.5294
-60.7692
-61.0058
-61.4679
-61.8065
-61.696
-61.473
-61.4811
-62.1915
-61.5822
-60.8313
-57.6898
-58.1277
-58.4819
-59.0154
-59.6896
-60.0777
-60.4132
-61.0148
-61.374
-61.5778
-61.631
-61.5745
-61.6471
-61.6036
-61.4507
-61.9009
-62.3706
-63.0171
-63.4495
-63.577
-62.9653
-63.543
-63.4491
-64.993
-64.359
-42.2063
-42.2335
-42.3582
-42.3414
-42.3479
-42.4503
-42.4369
-42.4112
-42.3969
-42.5887
-42.4928
-42.5417
-42.499
-42.4664
-42.7318
-42.6572
-42.6293
-42.6076
-42.616
-42.5919
-42.9388
-42.7863
-42.8278
-42.7535
-42.732
-42.7035
-42.6745
-43.105
-43.0267
-42.915
-42.9418
-42.9007
-42.8725
-42.849
-42.8266
-43.3247
-43.2284
-43.1477
-43.0585
-43.0649
-43.0239
-42.9977
-42.9768
-42.9262
-43.6808
-43.5168
-43.4113
-43.3306
-43.2086
-43.2332
-43.2054
-43.1518
-43.1469
-43.2109
-43.9877
-43.8539
-43.7092
-43.6231
-43.5325
-43.4746
-43.3955
-43.3999
-43.3439
-43.3329
-43.4396
-44.3663
-44.2149
-44.1425
-43.8816
-43.9268
-43.8177
-43.7273
-43.6764
-43.6101
-43.6161
-43.5874
-43.5414
-44.8869
-44.7526
-44.5338
-44.4426
-44.3229
-44.256
-44.1297
-44.0887
-43.8868
-43.9181
-43.9025
-43.7432
-43.7771
-45.6209
-45.3709
-45.1923
-45.0396
-44.8549
-44.7202
-44.6507
-44.5575
-44.4499
-44.3315
-44.2434
-44.2411
-44.1053
-44.1567
-46.3705
-46.1125
-45.9864
-45.8473
-45.7022
-45.4573
-45.3598
-45.2412
-45.0931
-44.9622
-44.8352
-44.7326
-44.6938
-44.647
-44.6344
-47.1968
-47.126
-46.9267
-46.7085
-46.5178
-46.3607
-46.2249
-46.0138
-45.9081
-45.7071
-45.6272
-45.5393
-45.4202
-45.2954
-45.2215
-45.1073
-48.4961
-48.2507
-48.0337
-47.9219
-47.6432
-47.4866
-47.4384
-47.1273
-46.9978
-46.7951
-46.6384
-46.5291
-46.3649
-46.1774
-45.8665
-45.7285
-45.6602
-50.0492
-49.9478
-49.5077
-49.2901
-49.1184
-48.8501
-48.6491
-48.5374
-48.49
-48.2075
-47.9726
-47.6712
-47.548
-47.2722
-47.0279
-46.5477
-46.2172
-46.2004
-52.1979
-52.1744
-51.9105
-51.5682
-51.1419
-51.0558
-50.5745
-50.3012
-50.0941
-49.9286
-49.7095
-49.5274
-49.0666
-48.8042
-48.5767
-48.2118
-48.019
-47.1916
-47.4095
-54.7519
-54.4013
-54.2007
-53.8886
-53.4113
-53.4118
-53.1641
-52.8422
-52.4745
-52.2236
-52.1477
-51.498
-51.1924
-50.7297
-50.5323
-50.211
-49.9897
-49.1412
-48.9727
-48.9908
-56.3671
-56.2718
-56.0119
-56.0355
-56.1341
-56.8219
-55.6182
-55.2708
-55.0262
-54.6862
-54.3229
-54.0264
-53.9168
-53.7926
-53.3417
-52.6123
-52.2413
-51.5736
-50.6901
-51.1302
-49.6974
-56.1634
-56.2412
-56.2583
-56.3074
-56.514
-56.8629
-56.9219
-56.9333
-56.7995
-56.7294
-56.4356
-56.4349
-56.1558
-55.8582
-55.5177
-55.4276
-55.17
-54.9402
-54.7755
-53.6903
-53.4212
-52.518
-55.9619
-56.1118
-56.2686
-56.3144
-56.3905
-56.521
-56.793
-57.0109
-57.2214
-57.4322
-57.6702
-57.7605
-57.7252
-57.7341
-57.7026
-57.8692
-57.7466
-57.2075
-57.1398
-57.9996
-57.8695
-57.0692
-54.7932
-56.2545
-56.4678
-56.6382
-56.8371
-57.1801
-57.581
-57.9179
-58.3107
-58.6528
-58.9614
-59.1588
-59.1955
-59.2889
-59.3021
-59.3984
-59.2805
-58.8896
-58.9361
-59.0989
-59.2458
-59.8369
-60.2634
-59.5503
-56.6182
-56.6491
-56.9685
-57.2553
-57.4295
-57.7731
-58.2901
-58.7737
-59.3122
-59.8254
-60.184
-60.2375
-60.2808
-60.366
-60.4322
-60.4677
-60.7209
-60.9489
-61.3796
-61.7097
-61.6194
-61.339
-61.3021
-61.9186
-61.1924
-60.8088
-57.6807
-57.3443
-58.1311
-58.4557
-59.0186
-59.6977
-60.0751
-60.3936
-60.9981
-61.347
-61.5369
-61.5787
-61.5415
-61.6003
-61.561
-61.4838
-61.8771
-62.2958
-62.9148
-63.3677
-63.5488
-62.9286
-63.5313
-63.3608
-64.8097
-42.2061
-42.2296
-42.2201
-42.3449
-42.3507
-42.3512
-42.3107
-42.4424
-42.4087
-42.4269
-42.406
-42.3788
-42.6201
-42.529
-42.5218
-42.5075
-42.4851
-42.4403
-42.7887
-42.6881
-42.6677
-42.6137
-42.613
-42.6085
-42.5659
-42.8621
-42.9446