/*--------------------------------*- C++ -*----------------------------------*\
  =========                 |
  \\      /  F ield         | OpenFOAM: The Open Source CFD Toolbox
   \\    /   O peration     | Website:  https://openfoam.org
    \\  /    A nd           | Version:  7
     \\/     M anipulation  |
\*---------------------------------------------------------------------------*/
FoamFile
{
    version     2.0;
    format      ascii;
    class       surfaceScalarField;
    location    "1.5";
    object      phi_0;
}
// * * * * * * * * * * * * * * * * * * * * * * * * * * * * * * * * * * * * * //

dimensions      [0 3 -1 0 0 0 0];

internalField   nonuniform List<scalar> 
54125
(
-0.000106073
2.7293e-06
0.000511132
-0.000222755
-3.36912e-05
0.00374072
-7.58265e-05
-3.86732e-05
-0.00112747
-0.000119406
7.29835e-06
0.00062324
-0.000511582
0.00017935
0.00494225
-0.000113926
-0.000110349
0.00260222
-0.000304143
1.3981e-05
0.00391147
-9.96571e-05
-5.19153e-05
-0.00104683
-7.88344e-05
-3.16525e-05
-0.00100968
-0.000145183
1.0991e-05
0.000757432
-0.000660956
0.000485288
0.0064331
-0.000173345
3.58409e-05
0.00607633
-0.000721982
0.000200987
0.00515911
-0.000110923
-0.000157917
0.000257182
-0.000100592
-6.07056e-05
0.00269867
-0.000409244
7.39905e-05
0.00410154
-0.000121896
-3.17482e-05
-0.000643713
-9.07575e-05
-4.643e-05
-0.000941296
-8.84968e-05
-2.96142e-05
-0.000880582
-0.000174343
1.58131e-05
0.000915962
-0.0011691
0.00037776
0.00717422
-0.000490254
0.000430844
0.00895047
-0.00073522
0.000389569
0.00605677
3.2452e-05
1.88454e-05
0.00636167
-0.000146154
-9.06151e-05
0.0064135
-0.000945518
0.000217912
0.00547747
-0.000205743
-0.000125723
-0.00106171
-0.000116902
-0.000125136
0.000347756
-0.000118648
-1.90017e-07
0.002803
-0.000501614
0.0001319
0.00429691
-0.000122084
-1.95851e-05
-0.000600712
-0.000117807
-2.88749e-05
-0.000543461
-9.35485e-05
-4.5523e-05
-0.000831838
-0.000103521
-2.68457e-05
-0.000734403
-0.000205853
2.13287e-05
0.00110049
-0.00151018
0.000380549
0.00421514
-0.00109106
0.000708216
0.00787081
-0.000980229
0.000290422
0.00712881
-6.29279e-05
0.000495084
0.00792289
-0.000399546
0.000253643
0.00933979
-0.00083294
0.000260513
0.00568368
2.20922e-05
-2.7352e-05
0.00445754
9.21811e-05
-8.5921e-05
0.00614789
-0.000162712
-9.2428e-05
0.0067679
-0.00102797
0.000288474
0.00571535
-0.000361629
-3.34837e-06
-0.000250632
-0.000198418
-0.000118685
-0.000987554
-0.00010546
-9.40024e-05
0.00045348
-0.000136962
5.3769e-05
0.00291457
-0.000609001
0.000180475
0.00451959
-0.00012252
-3.41471e-05
0.000467713
-0.000116068
-1.66801e-05
-0.000496838
-0.000125205
-2.88493e-05
-0.00043493
-9.62007e-05
-4.41498e-05
-0.000718334
-0.000122919
-2.46181e-05
-0.000565537
-0.000230552
2.68234e-05
0.00130421
-0.0017601
0.000226128
0.00373211
-0.00137374
0.000406571
0.00595771
-0.00138614
0.000282403
0.00433865
-0.000316756
0.00071082
0.00770926
-0.000872442
0.000631343
0.00800279
-0.000859546
0.000285394
0.00687002
0.000657408
9.86089e-05
0.00698122
0.000119972
0.000358451
0.00779029
-0.000416444
0.000221365
0.00963267
-0.0009806
0.0001129
0.00552341
-0.000242093
-4.43923e-05
0.00304804
-6.33604e-05
3.48216e-08
0.00423652
0.000137803
-0.000113378
0.00592557
-6.97128e-05
-6.43699e-05
0.00705349
-0.00107616
0.000279784
0.00590273
-0.000305858
7.97903e-05
0.00210013
-0.000337321
-1.72922e-05
-0.000130772
-0.000208905
-0.000115079
-0.000882777
-8.87862e-05
-6.54706e-05
0.000565306
-0.00017203
0.000113555
0.0030306
-0.000661657
0.000237224
0.00471347
-0.000140428
-1.83254e-05
0.00103977
-0.000117092
-3.19641e-05
0.00060009
-0.000121202
-1.84278e-05
-0.000386057
-0.000129218
-2.8372e-05
-0.00032149
-9.87033e-05
-4.41237e-05
-0.000600125
-0.000140962
-1.85406e-05
-0.000379211
-0.000252397
3.18537e-05
0.00152476
-0.00185226
-0.000152732
0.00377784
-0.00158761
0.000418193
0.00475498
-0.00158128
7.07344e-05
0.00385651
-0.00078777
0.000598332
0.00712889
-0.00122462
0.000362098
0.00623019
-0.00138244
0.000272786
0.00458876
0.000476953
0.000698747
0.00726269
-0.000178417
0.000689752
0.00794924
-0.00079787
0.000593838
0.00807577
-0.00103755
0.00026422
0.00666275
0.000144479
-0.000138516
0.00639171
0.000146983
9.43823e-05
0.00703495
0.000127272
0.000144383
0.0078778
-0.000281004
0.000221016
0.00973585
-0.000903298
1.65583e-05
0.00533399
-0.00022042
1.56047e-05
0.00385303
-0.000353327
7.75792e-06
0.00305632
-0.000103824
2.85252e-05
0.00398954
0.000216719
-0.000134506
0.00569021
-4.18602e-05
-1.22141e-05
0.00721532
-0.00106278
0.000342343
0.0059615
-0.000280769
0.000118782
0.00280884
-0.000306289
8.25967e-05
0.00218944
-0.00032545
-2.227e-05
-1.93339e-05
-0.000216683
-0.000114669
-0.000746114
-9.6002e-05
-2.6712e-05
0.000702871
-0.000247547
0.000168222
0.00320619
-0.000671519
0.000277236
0.00485535
-0.000145234
9.91916e-06
0.000924599
-0.000125376
-1.99142e-05
0.0011531
-0.000121119
-3.57138e-05
0.000738494
-0.000126287
-1.70698e-05
-0.000271072
-0.000134191
-2.77581e-05
-0.000203664
-0.000104998
-4.06572e-05
-0.00047301
-0.000157095
-1.19708e-05
-0.000178291
-0.000277057
3.53089e-05
0.00176651
-0.00194232
0.000178045
0.00261606
-0.00176547
-0.000104841
0.00411848
-0.00178309
-0.000157388
0.00413704
-0.000912238
0.000377537
0.00602057
-0.00140854
0.000240691
0.00476895
-0.00139026
-6.08036e-05
0.00392513
-0.000231075
0.000887127
0.00707449
-0.000434192
0.000548838
0.00719792
-0.00110234
0.000321013
0.00648643
-0.00139987
0.000176959
0.00477412
0.000232885
0.000475393
0.00678694
2.26296e-06
0.000610067
0.0074871
-0.000204169
0.000669121
0.0082054
-0.000685515
0.000582857
0.00816164
-0.0010116
0.000262692
0.00650836
-4.49285e-06
-1.90547e-05
0.00586433
-6.0042e-05
-5.54679e-05
0.00624828
8.46767e-05
-4.88409e-05
0.00703967
0.000184158
0.000234709
0.00789667
-0.000207798
0.000119985
0.00979836
-0.00105368
1.95691e-05
0.00530532
-0.000400858
8.75157e-05
0.00316681
-0.00029674
5.20836e-05
0.00379916
-0.000238481
4.87832e-05
0.00294909
-0.000153056
3.65586e-05
0.00375485
0.000165176
-0.000121587
0.0055384
-8.35456e-05
7.72432e-05
0.00731642
-0.000937202
0.000389791
0.0058374
-0.000244179
0.00012752
0.0026324
-0.00023581
8.54911e-05
0.00291638
-0.000311954
9.443e-05
0.00226358
-0.000329966
-2.36088e-05
9.32853e-05
-0.000217957
-0.000106835
-0.000582225
-8.98037e-05
7.08777e-06
0.000848811
-0.000271148
0.000207609
0.00338987
-0.000712834
0.000264855
0.00502628
-0.000151352
4.9711e-06
0.00030346
-0.000147716
6.95289e-06
0.00104545
-0.000127716
-2.1328e-05
0.00126643
-0.000121319
-3.63727e-05
0.000879116
-0.000131932
-1.6756e-05
-0.000150142
-0.000137419
-2.74693e-05
-7.94326e-05
-0.000111168
-3.67014e-05
-0.000337112
-0.000174703
-5.55307e-06
3.72745e-05
-0.000294663
3.72771e-05
0.00202389
-0.0017753
8.73922e-06
0.00318766
-0.00173261
0.000105867
0.00379175
-0.00181535
0.000167804
0.00248052
-0.00108922
0.000162747
0.00510708
-0.00147938
-3.0549e-05
0.00406248
-0.00161691
-7.53379e-05
0.00443904
-0.000318563
0.000594921
0.00594363
-0.00052343
0.00037257
0.00597793
-0.00134714
0.000145758
0.00480719
-0.00128864
-0.000153012
0.00396691
0.000200795
0.000720189
0.00657888
-5.3635e-05
0.00068131
0.00699792
-0.000275891
0.000529077
0.00706158
-0.000949312
0.000192547
0.00673464
-0.00141148
0.000118453
0.00505555
0.000139348
0.000102663
0.00655064
0.000222244
0.000340162
0.00677456
9.57275e-05
0.000595266
0.0075499
-6.11592e-05
0.000702527
0.00833104
-0.000540371
0.0006488
0.00810811
-0.00124157
0.000274846
0.0064214
-0.000272548
6.07792e-05
0.00479833
-8.29956e-05
3.13674e-05
0.00556375
0.000111877
-1.66353e-05
0.00586572
4.51066e-05
4.76029e-05
0.00702862
0.000171541
0.000144043
0.00786625
-0.000155003
0.000151424
0.00973796
-0.000872335
4.15885e-05
0.00519887
-0.000409472
1.94243e-05
0.00303561
-0.000393513
0.000105128
0.00327147
-0.000280474
5.66592e-05
0.0037598
-0.000263503
5.92141e-05
0.00285998
-0.000156347
5.62195e-06
0.00356603
0.000186056
-8.46407e-05
0.00542442
-2.79221e-05
0.000181588
0.0072814
-0.000946271
0.000305427
0.00576541
-0.0001846
7.07912e-05
0.00202593
-0.000231559
6.64922e-05
0.00273524
-0.000229575
0.000100527
0.00301214
-0.000312791
9.86076e-05
0.00233283
-0.000327949
-2.62506e-05
0.000208717
-0.000208355
-0.000101593
-0.000402608
-9.49583e-05
3.64082e-05
0.0010038
-0.000290896
0.000230968
0.00353995
-0.000729105
0.000245419
0.0052153
-0.000161727
-4.61328e-06
0.000357842
-0.00013578
3.25344e-06
0.00044294
-0.00014077
6.29452e-06
0.0011586
-0.000133804
-2.3879e-05
0.00138774
-0.000116181
-3.69852e-05
0.00101553
-0.000135955
-1.60689e-05
-2.55869e-05
-0.000139211
-2.71706e-05
5.02478e-05
-0.000115536
-3.37014e-05
-0.000193428
-0.000189826
1.69602e-07
0.000264208
-0.000307291
3.88462e-05
0.00229234
-0.00184685
-0.000154321
0.00345474
-0.00175746
1.26534e-05
0.00389171
-0.00166273
4.01134e-05
0.00299493
-0.0010687
0.000131838
0.00437988
-0.00147076
0.000120086
0.00383085
-0.00190921
0.000112675
0.00266014
-0.000490058
0.00036162
0.00558795
-0.0007128
0.00020226
0.00506364
-0.00139712
-2.17087e-05
0.00405883
-0.00147998
6.36822e-05
0.00456669
8.65973e-05
0.00082294
0.00586581
-0.000137622
0.000590743
0.00580944
-0.000308168
0.000393786
0.00576218
-0.00129651
0.000120524
0.00488085
-0.00125678
-0.000207004
0.00401922
0.0002829
0.000571325
0.00623193
0.000221804
0.000730454
0.00653017
3.40674e-05
0.000685037
0.00690362
-7.47644e-05
0.000431159
0.00683657
-0.00074547
0.000249864
0.00680833
-0.00133313
9.11362e-05
0.00505598
-2.16225e-05
0.00011276
0.00567883
0.000162836
0.000109761
0.00653521
0.000368445
0.000308524
0.00680473
0.000223165
0.000593597
0.00748078
2.95062e-05
0.000828822
0.00829305
-0.000458614
0.000646182
0.00804038
-0.00113879
0.000180611
0.00650725
-0.000376061
1.18832e-05
0.00412327
-0.000330092
0.000131112
0.00463517
-2.4081e-05
0.000155986
0.00513473
0.000114432
6.98977e-06
0.00552839
2.32303e-05
0.000264999
0.00672808
0.000220726
0.000165826
0.00781718
-1.75788e-06
0.000172076
0.00958131
-0.000969931
2.34937e-05
0.00519903
-0.000185895
-2.16069e-05
0.00314054
-0.000334832
5.64574e-05
0.00318755
-0.000395285
8.89343e-05
0.0034049
-0.000228422
5.08735e-05
0.00368378
-0.000255088
3.21606e-05
0.00276058
-0.000157316
-3.87362e-05
0.00346909
0.000196202
-1.75838e-05
0.00533244
7.89203e-05
0.000256159
0.00696085
-0.000957626
0.000293995
0.00569993
-0.000194384
-8.40089e-06
0.00114657
-0.00018145
5.99009e-05
0.00207819
-0.000252823
6.39858e-05
0.00288384
-0.000229515
0.00012618
0.00308028
-0.000283746
9.46772e-05
0.00237947
-0.000331845
-4.31194e-05
0.000346133
-0.000200846
-9.03511e-05
-0.000214214
-0.000115428
6.79618e-05
0.0011667
-0.000363083
0.000245713
0.00371291
-0.000767459
0.000242589
0.00543288
-0.000157671
-7.61331e-06
0.000708574
-0.000148303
-3.14416e-06
0.000512542
-0.00013256
1.55261e-06
0.000580242
-0.000126517
5.73964e-06
0.00125549
-0.000130881
-2.34718e-05
0.00150511
-0.000117775
-3.58487e-05
0.00115308
-0.000141188
-1.79757e-05
0.000106406
-0.00013919
-2.79267e-05
0.000183663
-0.000120271
-3.11143e-05
-4.18732e-05
-0.000199583
4.37877e-06
0.000498259
-0.000319285
3.93852e-05
0.00257224
-0.00179812
-3.84977e-05
0.00262763
-0.00165118
-0.000162858
0.0039292
-0.00167638
-0.000158363
0.00362676
-0.00118249
9.10193e-05
0.00412804
-0.00151586
1.65158e-05
0.0039604
-0.00168268
-5.35223e-07
0.00276893
-0.000613107
0.000217477
0.00491463
-0.00079061
0.000150207
0.00442757
-0.00142449
0.000107293
0.0038636
-0.00185865
0.000118262
0.00292055
-0.000245759
0.00070672
0.0056294
-0.000308228
0.000381594
0.00557922
-0.0006525
0.000197542
0.00518872
-0.00136643
2.89282e-05
0.0041635
-0.00133746
0.000109213
0.00453816
0.000185752
0.00100756
0.00558641
0.00011833
0.000807364
0.00575267
-7.86506e-05
0.000620253
0.00569569
-0.000256364
0.000429188
0.00563511
-0.00118972
0.000106529
0.00501157
-0.00131809
-0.000121834
0.00412601
0.000168042
0.000721226
0.00538041
0.000303164
0.000785431
0.00603662
0.000374668
0.000718932
0.00649006
0.000166597
0.000658693
0.00673265
-8.87621e-05
0.000520792
0.00668391
-0.000535372
0.000257735
0.00671849
-0.00130188
0.000207919
0.00501114
-0.000145726
0.000308199
0.00543838
-0.00013438
0.000105866
0.00548701
0.000224489
0.000204422
0.00639075
0.000400807
0.000412589
0.00669937
0.000295679
0.000656348
0.0073808
9.23958e-05
0.000851729
0.00821584
-0.000386595
0.000664922
0.00794091
-0.00126573
0.000326595
0.00647645
-0.000210242
-3.54735e-06
0.0044601
-0.000427619
8.64257e-05
0.00426075
-0.000356209
0.000178846
0.00457323
-2.67938e-05
0.000146443
0.00479365
8.63837e-05
0.000328653
0.00512327
2.39455e-05
0.000358943
0.0063537
0.000163317
0.000204854
0.00781728
0.000104277
0.000109418
0.00947003
-0.00102436
-2.74387e-05
0.00529321
-0.000131398
-2.81323e-05
0.00265582
-0.000197278
-9.91799e-06
0.00322274
-0.000367326
5.80128e-05
0.00333298
-0.000338719
8.77596e-05
0.00347722
-0.000225157
5.40173e-05
0.00360333
-0.000231897
-8.60823e-06
0.0026305
-0.000144989
-5.41585e-05
0.00344981
0.000186102
4.20463e-05
0.00524502
2.79283e-05
0.000329523
0.00653431
-0.000999694
0.00036164
0.00557053
-0.000221073
-5.48735e-05
0.000971762
-0.000181419
-1.92094e-06
0.00124151
-0.000183797
5.12717e-05
0.00214214
-0.00019293
7.75908e-05
0.00299884
-0.000217136
0.000121606
0.00313961
-0.00027239
7.8363e-05
0.0024126
-0.000335466
-4.92127e-05
0.000499273
-0.000193572
-7.48739e-05
-1.69972e-05
-0.000133312
9.61717e-05
0.00132928
-0.000386255
0.000273233
0.00386894
-0.000807778
0.000241838
0.00567953
-0.000160487
-1.46302e-06
0.000675677
-0.000150194
-5.41314e-06
0.000861037
-0.0001487
-3.50143e-06
0.000666296
-0.000130729
1.24126e-06
0.000715469
-0.000119027
7.14025e-06
0.00134391
-0.000124309
-2.30603e-05
0.00161663
-0.000112012
-3.61462e-05
0.00128326
-0.000145147
-1.73093e-05
0.000240936
-0.000138913
-2.78579e-05
0.00031932
-0.000121737
-2.87175e-05
0.00011296
-0.000208071
8.07945e-06
0.000737635
-0.00032155
4.11018e-05
0.00285268
-0.00180076
3.08576e-05
0.00273922
-0.00172009
-3.76904e-05
0.00357881
-0.0016454
5.10931e-05
0.00254556
-0.00124953
-3.45923e-05
0.00410755
-0.00140609
-0.000209633
0.0038707
-0.001639
-5.78291e-05
0.00364091
-0.000787671
0.000273451
0.0044492
-0.00101501
9.41155e-05
0.00427484
-0.00146757
1.38356e-05
0.00398912
-0.00166475
-8.5587e-05
0.00266061
-0.000446257
0.000426043
0.00524302
-0.000430917
0.000259999
0.00492753
-0.00072768
0.000162155
0.00444789
-0.00139498
9.51374e-05
0.00391528
-0.00173734
6.16673e-05
0.00325877
-0.000150133
0.0010875
0.0056908
-0.000204102
0.000651388
0.00568204
-0.000328884
0.000399856
0.00562714
-0.000594904
0.000236505
0.00531968
-0.00123281
9.19768e-06
0.0043066
-0.00139463
-9.15418e-06
0.00462385
9.73618e-05
0.0011392
0.00551106
0.000218356
0.000948911
0.00552967
0.000189111
0.000852444
0.00570603
-2.28174e-05
0.000673332
0.00564097
-0.000144787
0.000440587
0.00535708
-0.00104618
0.000144843
0.0052557
-0.0012167
-0.00010715
0.00414798
2.8617e-05
0.000765709
0.00502163
9.96127e-05
0.000792727
0.00513913
0.000271082
0.000735961
0.005973
0.000406639
0.000738853
0.00640406
0.000319622
0.000689022
0.00654048
-0.000117911
0.000563491
0.00658846
-0.000435512
0.000380767
0.00659455
-0.00127635
0.000140198
0.00488156
-6.20324e-05
0.000324067
0.00534424
-0.000185198
0.000164812
0.00513702
-6.58866e-05
0.000232136
0.00516897
0.000177522
0.000353925
0.0062451
0.000382676
0.000479586
0.00657984
0.000312025
0.000697436
0.00724702
-3.40413e-05
0.000835744
0.00824237
-0.000320617
0.000655634
0.00803677
-0.00132315
0.000351907
0.00642333
-7.32853e-05
1.23736e-05
0.00499726
-0.000257684
4.6234e-05
0.0045607
-0.000418935
0.000162995
0.00432821
-0.000229479
0.00018296
0.00442747
-6.88223e-05
0.000295132
0.00467084
5.3473e-05
0.000219434
0.00497741
1.76405e-05
0.000421255
0.00597467
0.000159776
0.000233012
0.00772002
0.000190842
0.000206971
0.0090727
-0.000997135
-3.8605e-05
0.00532925
-0.000140112
-3.80272e-05
0.00229831
-0.000149829
-4.47796e-05
0.0026591
-0.000214824
-2.12997e-07
0.003312
-0.000299667
5.33414e-05
0.00347413
-0.00032772
7.34108e-05
0.00356841
-0.000198895
5.87183e-05
0.00346251
-0.000229879
-4.48695e-05
0.00251562
-0.00010133
-3.9331e-05
0.00343894
9.79277e-05
0.000111604
0.0052317
-8.52054e-05
0.000388492
0.00620641
-0.00117733
0.000348327
0.00559175
-0.000273296
-5.13299e-05
0.00132015
-0.000247278
-4.38563e-05
0.00111078
-0.00019969
-7.3131e-06
0.00135109
-0.000192548
4.06357e-05
0.00224091
-0.000174298
7.47208e-05
0.00310099
-0.000193243
0.000121938
0.00316497
-0.000275343
6.45518e-05
0.00246217
-0.000333132
-5.1344e-05
0.000663727
-0.000185299
-5.22392e-05
0.0001778
-0.000141409
0.000130306
0.00149188
-0.000415573
0.000295621
0.00402266
-0.00079587
0.000247275
0.00590658
-0.000137257
9.61e-06
0.000560934
-0.000143046
-9.36323e-07
0.000814247
-0.000147764
-5.58454e-06
0.00101088
-0.000148637
-2.54347e-06
0.000818718
-0.000127063
1.38034e-07
0.000849535
-0.000109641
7.28988e-06
0.0014232
-0.0001183
-2.25271e-05
0.00172131
-0.000112623
-3.32056e-05
0.00141178
-0.000148545
-1.93439e-05
0.000380968
-0.000137222
-2.82212e-05
0.000456046
-0.000125424
-2.81619e-05
0.000274626
-0.000214638
1.10845e-05
0.00098229
-0.000328626
4.11488e-05
0.00314016
-0.00180277
-5.29371e-05
0.00232943
-0.00177755
7.20047e-05
0.00315872
-0.00161841
5.11448e-05
0.00266109
-0.00125007
-6.53263e-05
0.00397398
-0.00139009
4.94826e-05
0.00356442
-0.00169199
5.25436e-05
0.00254599
-0.000938231
0.000120375
0.00431685
-0.00115491
-7.03153e-05
0.00410813
-0.00136887
-0.000186442
0.00390061
-0.00159151
-2.60244e-05
0.00359371
-0.000545927
0.000380763
0.0045346
-0.000638931
0.000281667
0.00446966
-0.000792457
0.000108521
0.00424494
-0.00142366
-8.52117e-05
0.00401741
-0.00170439
-3.88908e-05
0.00266655
-0.000317185
0.00060435
0.00553951
-0.000376283
0.000433643
0.00524156
-0.000460387
0.000281745
0.00493944
-0.000736572
0.000130913
0.00455378
-0.00124395
9.73972e-06
0.00397835
-0.00166244
0.000187018
0.00333956
1.98657e-05
0.00130185
0.00570914
-6.43057e-05
0.000901287
0.00572356
-0.000103669
0.00068706
0.00568762
-0.000226504
0.000430641
0.00563669
-0.000401422
0.000309662
0.00527585
-0.00126115
-1.13934e-05
0.00452382
-0.00128128
-7.34043e-05
0.00476184
-4.69046e-05
0.0012339
0.00562698
7.0765e-05
0.00106202
0.0054268
0.000134183
0.0010002
0.00551882
0.000343827
0.000903913
0.00553826
0.000144245
0.000683664
0.00557327
-0.000326124
0.00042147
0.00528866
-0.000802862
0.000180617
0.00533528
-0.00126867
-2.27196e-05
0.00416303
-5.09644e-05
0.000820221
0.00496337
3.88476e-05
0.000788811
0.0048015
0.000148293
0.000813417
0.00484749
0.000374254
0.000828231
0.00568689
0.000373603
0.000875888
0.00622627
0.000110144
0.000752943
0.00655291
-0.000157716
0.000612376
0.00648053
-0.000313316
0.000352549
0.0063749
-0.00132086
4.50069e-05
0.00483427
7.7013e-05
0.000349952
0.00534667
-0.000229674
0.000220178
0.00526086
-0.000292681
0.000203003
0.0050399
-2.0379e-05
0.000307669
0.00500613
8.04288e-05
0.000421157
0.00615427
0.000221822
0.000526774
0.00658215
0.000344462
0.000711965
0.00704397
-1.25841e-05
0.000820273
0.00825009
-0.000306827
0.000637
0.00824934
-0.00118996
0.000263769
0.00635238
-4.56352e-05
4.09443e-05
0.00491807
-0.00014138
7.42084e-05
0.00496083
-0.000259574
0.000146346
0.00462209
-0.000337583
0.000176012
0.00437307
-0.000378367
0.000185442
0.00458781
-2.54798e-05
0.000141541
0.00457531
1.8067e-05
0.000293655
0.00485706
-6.74403e-05
0.000433676
0.00574012
8.62792e-05
0.000356705
0.00758193
3.10467e-05
0.000417266
0.00850058
-0.00133131
0.000206584
0.00527665
-0.000116447
-2.52687e-06
0.00262134
-0.000156787
-7.90391e-05
0.00224208
-0.00017962
-4.39187e-05
0.00268273
-0.000211055
-9.2245e-06
0.00339307
-0.000257661
5.0481e-05
0.00358043
-0.000276716
7.52981e-05
0.0036353
-0.000231493
3.44159e-05
0.00333937
-0.00031407
-5.13736e-05
0.0025086
-6.14001e-05
1.77221e-05
0.00340892
0.000143316
0.000184665
0.0051508
-0.000168134
0.000473344
0.00583395
-0.00115485
0.000391323
0.00555941
-0.000259585
-1.8387e-05
0.00149555
-0.000284966
-4.42041e-05
0.00146241
-0.000272405
-4.24752e-05
0.00127059
-0.000212723
-1.72802e-06
0.00145754
-0.000191848
3.51114e-05
0.00234531
-0.000147431
8.19027e-05
0.00317882
-0.000160659
9.96672e-05
0.00317221
-0.000268292
5.06006e-05
0.00251589
-0.000322618
-4.82346e-05
0.000833795
-0.000170026
-3.50908e-05
0.000376001
-0.000168994
0.000153262
0.00167781
-0.000416298
0.000310357
0.00416124
-0.00077225
0.000243951
0.00610625
-0.000128255
1.61767e-05
0.000783154
-0.000126418
8.43313e-06
0.000677983
-0.000141696
-5.31024e-07
0.000950889
-0.00014567
-4.91118e-06
0.00115892
-0.00014397
-3.62951e-06
0.000966455
-0.000121887
5.63676e-07
0.000978148
-0.00010965
6.21723e-06
0.00150411
-0.000118482
-1.93551e-05
0.00182594
-0.00010423
-3.41885e-05
0.00153086
-0.000149489
-1.68107e-05
0.000519046
-0.000133803
-3.00361e-05
0.000591723
-0.000129759
-2.75941e-05
0.000443064
-0.000223853
1.38666e-05
0.00123343
-0.000327395
4.11552e-05
0.0034264
-0.00173056
-8.7812e-06
0.00229478
-0.00166391
-0.000114263
0.00292724
-0.0016045
-6.65767e-05
0.0023821
-0.00134285
0.000122107
0.00386709
-0.00150725
6.77813e-05
0.00325925
-0.00162245
-2.84687e-05
0.00262002
-0.00113368
0.000167851
0.00405395
-0.00109848
5.57803e-06
0.00396146
-0.0013302
9.28969e-05
0.0034854
-0.00168414
3.78655e-05
0.00260075
-0.000622964
0.000308972
0.00433071
-0.000793631
0.000135953
0.00426528
-0.000934733
-9.38749e-05
0.00415784
-0.00137175
-8.79557e-05
0.00391064
-0.00163384
-5.37302e-05
0.00357689
-0.00040452
0.000489456
0.0046759
-0.000440742
0.00036775
0.00451298
-0.000526175
0.000297188
0.00434678
-0.000920951
6.9152e-05
0.00427495
-0.00134761
5.36905e-07
0.00408165
-0.00169672
-3.18436e-05
0.00273267
-0.000193397
0.000722971
0.00574876
-0.000191443
0.000582375
0.00551792
-0.000268492
0.000458277
0.00522985
-0.000451412
0.0002713
0.00502396
-0.000620944
8.81209e-05
0.00469493
-0.00124395
9.70844e-05
0.00405108
-0.00162241
0.000212568
0.00346811
-7.81397e-05
0.00129316
0.00604619
-7.24806e-05
0.000966072
0.0057876
-1.03703e-05
0.000817659
0.00573752
0.000123492
0.00072093
0.00561766
7.12834e-05
0.000468959
0.00555035
-0.000616825
0.000331132
0.00522403
-0.00103156
-5.13167e-05
0.00473043
-0.00133306
8.37861e-05
0.00474244
-0.000241947
0.00127311
0.00601668
-0.000107409
0.00104672
0.00578852
-7.12701e-05
0.00106621
0.00558036
0.000297315
0.000968157
0.00553151
0.000192611
0.000877229
0.00552569
-7.2621e-05
0.00065729
0.00552021
-0.000371506
0.00047248
0.00521059
-0.000725549
0.000243258
0.00548153
-0.0012851
-1.03809e-05
0.00413765
-5.27299e-08
0.000892525
0.00494611
-0.000291662
0.00087261
0.00494156
-0.000197165
0.000862594
0.00465681
7.72169e-05
0.00084739
0.00473073
0.000216561
0.00100869
0.00541796
0.000243297
0.000971031
0.00598671
0.000348884
0.000860574
0.00630029
-7.63513e-05
0.000620945
0.0062759
-0.000417228
0.000291656
0.00623865
-0.00133725
-4.79189e-05
0.00502948
-5.61887e-05
0.0003406
0.00541493
2.08434e-05
0.000286761
0.00511786
-0.000213763
0.000249004
0.00516905
-0.000256002
0.00030215
0.00496383
-0.000168093
0.000340539
0.00487647
6.75521e-05
0.000561142
0.00602687
0.000219105
0.000523678
0.0065694
0.000214763
0.00069672
0.00688532
0.000145832
0.000808084
0.00801946
-0.000446083
0.000591798
0.00839844
-0.001358
0.000218847
0.00616022
0.000261108
5.67186e-05
0.00441729
1.25547e-05
9.67555e-05
0.00472618
-0.000183768
0.000135607
0.00497572
-0.000229609
9.86455e-05
0.00471802
-0.000272078
0.000139185
0.00443374
-0.000229623
0.000154083
0.00452818
1.38042e-05
0.000197147
0.00442652
-5.65066e-06
0.000301408
0.00468091
-7.6505e-05
0.000477053
0.00563488
0.000289041
0.000441583
0.00741189
-9.4059e-05
0.000742317
0.00789077
-0.00128665
0.000314262
0.00509418
-0.000220683
1.19947e-05
0.00309085
-0.000178745
-4.26097e-05
0.00247869
-0.000162747
-8.03347e-05
0.00216884
-0.000115291
-4.3743e-05
0.00261982
-0.000200922
5.30541e-06
0.00344732
-0.00021573
6.57725e-05
0.00365825
-0.000199549
3.43405e-05
0.00367427
-0.000227132
-1.23214e-05
0.00325916
-0.000309686
-5.01086e-05
0.0025635
-4.36072e-06
9.8096e-05
0.00332983
0.000117661
0.000292858
0.00504463
-0.000177714
0.000538446
0.00544825
-0.0010593
0.000396261
0.0054502
-0.000238231
3.67859e-06
0.00171294
-0.000252069
-1.86604e-05
0.00159566
-0.000289263
-3.86534e-05
0.00160616
-0.000285384
-3.42194e-05
0.00144279
-0.000218905
9.61645e-07
0.00156662
-0.000157445
4.20145e-05
0.00242075
-0.000160332
7.10551e-05
0.00325811
-0.000174335
7.72529e-05
0.00320141
-0.000262508
2.22983e-05
0.00260364
-0.000312633
-4.64927e-05
0.00100834
-0.000171917
-2.80208e-05
0.000595397
-0.000176397
0.00016624
0.00186857
-0.000406085
0.000326605
0.00426081
-0.000731855
0.000235937
0.00627478
-0.000120818
1.60451e-05
0.000696097
-0.000114819
1.39659e-05
0.00089244
-0.00012533
8.17386e-06
0.000794608
-0.00013927
-2.25175e-07
0.00108547
-0.000140786
-4.48401e-06
0.00130056
-0.000140722
-2.26988e-06
0.00111001
-0.000118716
6.99979e-07
0.00110238
-0.000105101
7.10437e-06
0.00158275
-0.000119292
-2.05623e-05
0.00193161
-0.000105311
-3.21972e-05
0.00165155
-0.000151707
-1.39883e-05
0.000654706
-0.000131714
-3.04314e-05
0.000726275
-0.000129273
-2.60734e-05
0.000612277
-0.000231384
1.56948e-05
0.00149027
-0.000315773
4.12122e-05
0.00370096
-0.00177549
5.38113e-05
0.00217777
-0.00167443
2.62993e-05
0.00273711
-0.00158418
-2.21545e-05
0.00229661
-0.00140987
1.46459e-05
0.00331944
-0.00148213
-9.91323e-05
0.00293467
-0.00156094
-8.79086e-05
0.00240849
-0.00119175
0.000135203
0.00385579
-0.00114311
0.000134983
0.00384451
-0.00136043
2.90171e-05
0.003232
-0.00161836
-5.86199e-05
0.00261286
-0.000886443
0.000392063
0.00427037
-0.0010155
0.000179453
0.00410195
-0.000994038
9.15858e-05
0.00402207
-0.00137859
8.78382e-05
0.00344226
-0.00171837
3.3351e-05
0.00265193
-0.000508049
0.000463841
0.00441419
-0.000543656
0.000265638
0.00430394
-0.000713272
0.00016543
0.00419307
-0.00113404
1.80263e-05
0.00426495
-0.00131707
-8.15133e-05
0.00390788
-0.00161088
-0.000168795
0.00365984
-0.000355855
0.000662548
0.00485735
-0.000332057
0.000486148
0.00469811
-0.000326181
0.000388101
0.00447975
-0.000586994
0.000296079
0.00425544
-0.000749851
9.43987e-05
0.00431
-0.00146621
0.000136183
0.00413588
-0.00163395
-1.99907e-05
0.0027642
-0.000214518
0.000799015
0.00576937
-0.000116435
0.000660773
0.00571432
-7.39638e-05
0.000603854
0.00543594
-9.86909e-05
0.0004682
0.00525513
-0.00012832
0.000260847
0.00505084
-0.000718403
0.000163517
0.00473007
-0.00112826
0.000100777
0.00425956
-0.00157559
0.000219854
0.00349079
-0.000274289
0.00120373
0.00638662
-0.000148507
0.000919499
0.00613386
-5.22671e-05
0.000774844
0.00581142
0.000213076
0.000802374
0.00574031
2.35737e-06
0.00066754
0.00560933
-4.86904e-05
0.000505139
0.00535242
-0.00068308
0.000361452
0.00512283
-0.000797284
0.00010716
0.00477879
-0.00134519
0.000116721
0.00468581
-0.000143087
0.00127605
0.00600227
-0.0003027
0.00101781
0.00605664
-0.000253096
0.00100733
0.00590334
-2.14985e-05
0.000976705
0.00567053
9.8067e-05
0.000995492
0.00553174
7.27619e-05
0.000892038
0.00546148
0.000105533
0.000717688
0.00551835
-0.000421448
0.00044903
0.00534991
-0.00080353
0.000252676
0.00560478
-0.0013138
3.25469e-05
0.00408166
-7.14607e-05
0.000873853
0.00512061
-4.31774e-05
0.000884109
0.00499863
-0.000261295
0.000921908
0.00492978
-0.000241469
0.000854068
0.0046356
6.522e-05
0.000920516
0.00458559
4.74278e-05
0.00101652
0.0053926
0.000269758
0.00101261
0.00578401
0.000202589
0.000856267
0.00607714
8.39216e-05
0.000612598
0.00601687
-0.000653569
0.000168609
0.00622961
-0.00136195
-0.00010394
0.00513738
0.000322817
0.000258854
0.0056245
4.79395e-05
0.000165957
0.00550035
-0.000119416
0.000265899
0.00503661
-0.000199346
0.000323477
0.00511746
-0.000202802
0.000348879
0.00488622
-0.000118474
0.00047682
0.00484965
0.00021586
0.000567416
0.00578108
0.000365668
0.000618275
0.00627652
3.42719e-05
0.000793954
0.00678868
0.00023411
0.000853911
0.00781228
-0.000437893
0.000492514
0.00846861
-0.00126408
0.000131953
0.0060057
5.42856e-05
5.872e-05
0.00406621
0.000306985
4.75988e-05
0.00398071
0.000220826
5.00132e-05
0.00442821
-3.5185e-05
0.000117867
0.00487639
-0.00017271
5.15027e-05
0.00477749
-0.000216805
4.52879e-05
0.00454361
-0.000121458
0.000143783
0.00450345
-3.94925e-05
0.000276674
0.00426362
-3.22083e-05
0.000353141
0.00452734
1.94975e-05
0.000560594
0.00549201
0.000283818
0.000657174
0.00733088
-0.000155333
0.000949016
0.00723364
-0.00120303
0.000421077
0.00481683
-0.000224454
4.10513e-05
0.0031536
-0.000233733
-1.10544e-05
0.00304096
-0.000286455
-6.03913e-05
0.00245594
-0.000217343
-6.74084e-05
0.00212446
-9.70026e-05
-2.27674e-05
0.00252599
-0.000122666
2.5037e-05
0.00345328
-0.000192745
2.94652e-05
0.00369554
-0.000167521
-2.91617e-05
0.0036843
-0.000206608
-3.53943e-05
0.00318855
-0.00027415
-3.77188e-05
0.00266083
5.1037e-06
0.000147819
0.00329785
4.50738e-05
0.000362886
0.00499872
-0.000224317
0.000610639
0.0050521
-0.000997423
0.000335767
0.00538
-0.000241551
1.22512e-05
0.00205735
-0.000216814
-4.01716e-06
0.00180029
-0.00025853
-1.91592e-05
0.00170937
-0.000277498
-3.90048e-05
0.00174917
-0.000283225
-2.26605e-05
0.00160885
-0.000225017
1.47484e-06
0.00169146
-0.000173069
4.98633e-05
0.0024963
-0.000129891
6.16181e-05
0.00329854
-0.000178391
4.22419e-05
0.00324057
-0.000273837
1.13422e-05
0.00271433
-0.000304741
-4.69468e-05
0.0011803
-0.000196045
-1.46804e-05
0.000840648
-0.000195883
0.000181002
0.00208078
-0.000448035
0.000320126
0.00439328
-0.000679652
0.00022822
0.00641043
-9.47638e-05
6.98275e-06
0.000741056
-0.000104422
1.38009e-05
0.000800685
-0.000111901
1.34572e-05
0.000999058
-0.000122427
7.96511e-06
0.000908845
-0.000135877
9.29427e-08
0.00121677
-0.000136543
-3.40931e-06
0.00143824
-0.000135267
-1.57511e-06
0.00124755
-0.000116911
1.45923e-06
0.00122494
-0.000107809
4.85652e-06
0.00166514
-0.000112681
-2.22868e-05
0.00203438
-9.94362e-05
-2.9928e-05
0.00176693
-0.000151564
-1.68712e-05
0.000792709
-0.000129782
-2.95992e-05
0.000859583
-0.00012952
-2.48761e-05
0.000782368
-0.000232205
1.75323e-05
0.00174616
-0.000305924
4.28718e-05
0.00396402
-0.00184221
3.04504e-06
0.00209829
-0.00166779
4.85581e-05
0.0026266
-0.0015788
3.87505e-05
0.00213363
-0.00133755
3.52512e-05