/*--------------------------------*- C++ -*----------------------------------*\
  =========                 |
  \\      /  F ield         | OpenFOAM: The Open Source CFD Toolbox
   \\    /   O peration     | Website:  https://openfoam.org
    \\  /    A nd           | Version:  7
     \\/     M anipulation  |
\*---------------------------------------------------------------------------*/
FoamFile
{
    version     2.0;
    format      ascii;
    class       surfaceScalarField;
    location    "9";
    object      phi;
}
// * * * * * * * * * * * * * * * * * * * * * * * * * * * * * * * * * * * * * //

dimensions      [0 3 -1 0 0 0 0];

internalField   nonuniform List<scalar> 
54125
(
-5.07039e-06
-1.66569e-05
-0.00141432
-1.81549e-05
0.000109825
-0.00282158
-1.41124e-05
-2.6939e-05
-0.0010043
4.67169e-06
-1.63746e-05
-0.00140262
-0.000489576
0.000371681
-0.00644192
3.41825e-05
5.95554e-05
-0.000711776
-9.21078e-06
0.000110181
-0.00291788
-3.43583e-05
-3.98723e-05
-0.00108772
-1.78657e-05
-2.83621e-05
-0.00097445
-2.01914e-05
-1.64303e-05
-0.001366
-0.00172455
0.000615241
-0.00703484
-4.66033e-05
0.000251948
-0.0029552
-0.000613106
0.000405197
-0.00624322
3.31194e-05
7.14222e-05
-0.00111111
2.72395e-05
7.12946e-05
-0.000717994
-1.90869e-05
0.000140947
-0.00305993
-8.51684e-06
-5.31437e-05
-2.62709e-05
-3.77485e-05
-3.98568e-05
-0.00103847
-2.09455e-05
-3.06563e-05
-0.000939278
-3.58164e-05
-1.58033e-05
-0.00131438
-0.0021641
0.000640569
-0.00386062
7.33616e-05
0.000631982
-0.00576481
-0.00180851
0.000559376
-0.00639881
6.12551e-05
0.000155456
-0.00290192
-1.18774e-05
0.0002346
-0.00274549
-0.000484601
0.000441659
-0.00621937
-8.8695e-06
7.25223e-05
-0.00135353
2.92885e-05
8.62075e-05
-0.00119306
2.23252e-05
8.15579e-05
-0.000701876
2.071e-05
0.000177324
-0.00329378
-4.76844e-06
-4.92477e-05
0.000301814
-1.04174e-05
-5.24693e-05
-3.24109e-06
-4.20401e-05
-4.10918e-05
-0.000985997
-2.49667e-05
-3.44444e-05
-0.00089567
-2.77512e-05
-1.5091e-05
-0.00127153
-0.00164628
0.000319781
-0.0051296
0.000324076
0.0013813
-0.00831698
-0.00193465
0.000495073
-0.00422956
0.000312932
0.000473697
-0.00494708
7.16372e-05
0.000693539
-0.00598249
-0.0015201
0.00064764
-0.00601096
9.04175e-05
0.00010171
-0.00188945
0.000109749
0.000123214
-0.00287099
0.00023414
0.000208751
-0.0027244
-0.000309121
0.000491778
-0.00638131
-1.72894e-05
5.23018e-05
-0.000956743
-2.74589e-05
8.13333e-05
-0.00133161
9.78166e-06
9.63373e-05
-0.00125966
3.53419e-05
8.88683e-05
-0.000673729
-1.89023e-05
0.000195831
-0.00349846
-5.46757e-06
-5.86628e-05
0.000590864
-8.78765e-07
-4.84606e-05
0.000298684
-1.28601e-05
-5.28235e-05
2.13508e-05
-4.6192e-05
-4.35276e-05
-0.000930721
-2.31905e-05
-3.59346e-05
-0.000851636
-3.95921e-05
-1.46172e-05
-0.00121732
-0.00151647
0.000288964
-0.00554898
-0.000416951
0.000910696
-0.00799591
-0.00148911
0.000198212
-0.00577335
0.000736019
0.00126969
-0.00663429
0.000126107
0.00112025
-0.00899663
-0.00159817
0.000320734
-0.00447222
0.000458255
0.000463759
-0.00418194
0.000506231
0.000447125
-0.00509714
0.000264309
0.000872558
-0.00623757
-0.00123148
0.000638569
-0.00572717
-1.18192e-05
2.03443e-05
-0.00213009
4.86613e-05
0.000142668
-0.00198503
0.000226823
9.9885e-05
-0.00297917
0.000361138
0.000161756
-0.00272017
-0.000253856
0.00047709
-0.00662345
-1.46893e-05
2.35635e-05
-0.00104958
3.65398e-06
5.51052e-05
-0.000935048
-3.25262e-05
9.32481e-05
-0.00130886
-6.48614e-06
9.30162e-05
-0.00130351
5.10001e-05
9.25898e-05
-0.000644678
-0.000116417
0.000207341
-0.00362898
-2.33105e-05
-6.7817e-05
0.000460221
-3.21843e-06
-5.76204e-05
0.000603242
1.32517e-06
-4.81345e-05
0.00029267
-1.88981e-05
-5.26868e-05
4.9408e-05
-5.27493e-05
-4.42115e-05
-0.000869695
-2.45607e-05
-3.70542e-05
-0.000804638
-3.58092e-05
-1.47294e-05
-0.00116679
-0.00164172
-4.95406e-05
-0.00382475
-0.000950823
0.000446554
-0.00561904
-0.00172184
0.000419315
-0.00573557
0.000321543
0.00111244
-0.00741936
-0.000477393
0.000685381
-0.00787957
-0.00129183
6.70805e-05
-0.00614677
0.00065508
0.00108376
-0.00361699
0.000833543
0.00117788
-0.00701924
-0.000302237
0.000814518
-0.00892386
-0.00115129
0.000351398
-0.00490381
3.21331e-05
0.000366103
-0.00390702
0.000412904
0.000428565
-0.00452762
0.000699766
0.000386888
-0.00508442
0.000295602
0.00105353
-0.006587
-0.000879995
0.000534017
-0.00563504
-0.000158839
3.5784e-05
-0.00270151
-8.9301e-06
5.47086e-05
-0.00202955
-3.3543e-06
0.000114683
-0.002029
0.000252274
4.85865e-05
-0.00312476
0.000279506
0.000166084
-0.00263767
-0.00022416
0.000436331
-0.00695204
-9.82785e-05
2.27597e-06
-0.0013824
-8.16652e-06
2.61424e-05
-0.00101567
2.86882e-06
5.91739e-05
-0.000902517
-2.58707e-05
0.000100429
-0.0013093
-3.30935e-05
8.86327e-05
-0.00131921
4.67691e-05
8.37769e-05
-0.000592444
-0.000137366
0.000188692
-0.00371612
-2.32512e-05
-7.07234e-05
0.00053907
-2.13632e-05
-6.67273e-05
0.000490691
2.15225e-06
-5.68155e-05
0.000609771
4.20625e-06
-4.76885e-05
0.000283465
-2.37803e-05
-5.26117e-05
8.15886e-05
-5.45184e-05
-4.56559e-05
-0.000806575
-2.30635e-05
-3.99188e-05
-0.000756386
-4.37415e-05
-1.4236e-05
-0.00110881
-0.00173499
-8.91591e-05
-0.0034222
-0.0012949
9.37393e-05
-0.00523246
-0.00184482
-6.48066e-05
-0.00363696
-0.000457801
0.000808024
-0.00699495
-0.000730241
0.000538805
-0.00548569
-0.0016785
0.000420536
-0.00576943
0.000239993
0.00147493
-0.00649377
0.000315774
0.00101339
-0.0072296
-0.000786766
0.000413781
-0.00774175
-0.00108323
0.000201059
-0.00641589
0.000427958
0.000826661
-0.00474712
0.000559599
0.00116209
-0.0037479
0.000744491
0.000989555
-0.007239
-0.00050051
0.000802899
-0.00857925
-0.000803082
0.000410695
-0.00539141
-0.000294104
0.000288919
-0.00434383
-8.54063e-05
0.000375942
-0.00377792
0.000545273
0.000290948
-0.00498031
0.000700267
0.0005226
-0.00500148
9.7041e-05
0.000978805
-0.00684932
-0.000611144
0.000554929
-0.00580299
-0.000334219
0.000108909
-0.00325545
-0.000169517
1.62599e-05
-0.00250171
2.78452e-05
2.99807e-05
-0.00196982
6.76782e-05
0.000121576
-0.00219554
0.000202959
3.72081e-05
-0.00323193
0.000182383
0.000209439
-0.00254639
-0.000257404
0.000349722
-0.00718172
-0.00016757
7.35018e-06
-0.00156981
-8.14891e-05
6.2445e-06
-0.00130238
-6.21952e-07
1.94514e-05
-0.00097317
7.67902e-06
6.30992e-05
-0.00086866
-7.51452e-05
0.000104222
-0.00127352
-6.03829e-05
7.9257e-05
-0.00130883
4.54384e-05
5.94113e-05
-0.000531665
-0.000177564
0.000154433
-0.00373673
-3.8478e-05
-8.23691e-05
0.000375972
-2.00499e-05
-6.87759e-05
0.000561169
-1.65366e-05
-6.60152e-05
0.000516427
5.18438e-06
-5.61501e-05
0.000613048
6.07486e-06
-4.72353e-05
0.000272014
-2.2775e-05
-5.3274e-05
0.000111982
-4.8013e-05
-4.9497e-05
-0.000748984
-1.98234e-05
-4.22765e-05
-0.000708522
-5.12579e-05
-1.55142e-05
-0.00104204
-0.00176322
0.000131587
-0.0028683
-0.00160809
0.000116519
-0.00442204
-0.00174944
-9.57557e-05
-0.00342183
-0.000713612
0.000117067
-0.00547274
-0.00127592
0.000116872
-0.00486846
-0.00181789
-1.54398e-05
-0.00348213
-3.19438e-05
0.0011885
-0.0067606
-0.000326306
0.000895147
-0.00670921
-0.000655174
0.000460447
-0.00565719
-0.00165079
0.000227818
-0.0054297
0.000469567
0.00146293
-0.00504468
0.000266655
0.00143481
-0.00662225
0.000148403
0.000998612
-0.00721834
-0.000894209
0.000424908
-0.0075719
-0.000962051
0.00024851
-0.00650543
-0.000264551
0.000787841
-0.00534888
0.000188615
0.000916854
-0.00477591
0.00089237
0.00118665
-0.00429209
0.000590605
0.000903299
-0.00722974
-0.000590717
0.000911893
-0.00839269
-0.000652558
0.000299935
-0.00564993
-0.000663752
0.000367676
-0.00466957
-0.00037101
0.000279007
-0.0040454
2.68193e-05
0.000547502
-0.00403345
0.000548476
0.00024841
-0.00518692
0.000682415
0.000643635
-0.00514576
-0.000215431
0.000942051
-0.00683863
-0.000426538
0.000603863
-0.00623772
-0.000419539
0.000194235
-0.00363555
-0.000174563
9.96464e-05
-0.00324576
-8.75692e-06
9.40989e-06
-0.002473
7.83941e-05
4.34543e-05
-0.00196242
5.16245e-05
0.000123451
-0.00240855
8.00105e-05
7.26457e-05
-0.00323553
0.000199481
0.000247705
-0.00259842
-0.00024607
0.000312869
-0.00742608
-0.000190714
1.53068e-05
-0.00185854
-0.00015129
1.09387e-05
-0.00144327
-6.61851e-05
2.86358e-06
-0.00123614
1.10879e-05
1.92535e-05
-0.000935228
9.62101e-06
6.59648e-05
-0.000833949
-5.99675e-05
0.000106219
-0.00126329
-7.51832e-05
6.54365e-05
-0.00128768
4.94052e-05
2.67682e-05
-0.000473229
-0.00020703
0.000134333
-0.00371529
-3.48791e-05
-9.64855e-05
0.000106703
-3.45513e-05
-7.90184e-05
0.000420766
-1.51325e-05
-6.72313e-05
0.000577518
-1.39022e-05
-6.54073e-05
0.000539587
8.35667e-06
-5.52271e-05
0.000612683
8.86583e-06
-4.69458e-05
0.00025682
-1.94271e-05
-5.4187e-05
0.000136099
-4.00504e-05
-5.29538e-05
-0.000698256
-1.3806e-05
-4.57766e-05
-0.000664453
-5.5327e-05
-1.60504e-05
-0.000970659
-0.00161462
-9.78891e-05
-0.00301737
-0.00141171
0.000131779
-0.00359581
-0.00178142
0.000119045
-0.00295537
-0.000779399
0.000262808
-0.00494248
-0.00156913
0.000124285
-0.00434886
-0.00172539
-0.000156064
-0.00335827
-0.000350251
0.000361826
-0.00590997
-0.000644054
0.000243464
-0.00528158
-0.000894139
0.000165567
-0.0048105
-0.00182721
1.75246e-05
-0.00332322
1.25298e-05
0.00158114
-0.00622229
-8.52424e-05
0.0013961
-0.00690966
-0.000388621
0.000949036
-0.00666078
-0.000668419
0.000249523
-0.00590468
-0.00169794
0.000140526
-0.00483434
-0.000157072
0.00133125
-0.00553981
0.000514022
0.00145272
-0.005388
0.000351081
0.00146124
-0.00654358
4.54631e-05
0.00103744
-0.00728573
-0.00104072
0.000482325
-0.00735571
-0.000935636
0.000314321
-0.00653667
-0.000626797
0.000766069
-0.00536378
-0.00032411
0.000844699
-0.00532362
0.000100027
0.00106979
-0.00473225
0.000920495
0.0010348
-0.00479561
0.000658764
0.000885384
-0.00717958
-0.000900167
0.000832829
-0.00824085
-0.000499422
0.000138642
-0.00571569
-0.000713373
0.000520442
-0.00505727
-0.000367388
0.000361279
-0.00455902
-6.82418e-05
0.000504584
-0.003943
0.000119521
0.000300676
-0.00412684
0.000595801
0.000187587
-0.00527505
0.000720346
0.000821459
-0.00566551
-0.000284377
0.00099188
-0.00674279
-0.000328006
0.000594379
-0.00675016
-0.000437678
0.000193327
-0.00389256
-0.000362587
0.000193644
-0.00351825
-0.000252429
8.66218e-05
-0.00313673
-0.000142455
7.88199e-05
-0.00235483
0.000119255
4.23936e-05
-0.00199099
2.62462e-05
0.000127343
-0.00254946
3.67566e-05
7.31821e-05
-0.00317295
0.000292748
0.00022168
-0.00275057
-0.000425275
0.000312848
-0.00752069
-0.000228246
1.88852e-05
-0.00241715
-0.000208019
1.69237e-05
-0.00169106
-0.00013054
1.70989e-05
-0.0013421
-6.65146e-05
4.95385e-06
-0.00116923
2.89751e-05
2.84245e-05
-0.000918306
7.00515e-06
6.61417e-05
-0.000792011
-6.11164e-05
0.000103525
-0.00125969
-6.9515e-05
4.56044e-05
-0.00127706
6.7004e-05
-3.84026e-06
-0.000415866
-0.000266345
0.000112234
-0.0036165
-4.94802e-05
-0.000100397
-4.94925e-05
-3.78523e-05
-9.28559e-05
0.000158393
-2.95418e-05
-7.62939e-05
0.00045937
-1.14563e-05
-6.5891e-05
0.000589458
-1.01802e-05
-6.49018e-05
0.000559442
1.2633e-05
-5.44104e-05
0.000607515
1.12665e-05
-4.69388e-05
0.000238305
-1.04856e-05
-5.52506e-05
0.000148881
-2.83018e-05
-5.4366e-05
-0.000661365
-9.38334e-06
-4.68783e-05
-0.000624242
-6.04441e-05
-1.58849e-05
-0.00089433
-0.00173675
0.000123895
-0.00274182
-0.00137176
4.7999e-05
-0.00374679
-0.0016759
-2.93837e-05
-0.0030935
-0.000824926
0.000312248
-0.00480828
-0.00118624
0.000170875
-0.00403054
-0.00171205
-4.85265e-05
-0.00292018
-0.000497459
0.000353961
-0.00519161
-0.000669737
0.000218699
-0.00501122
-0.000929766
-5.8465e-06
-0.00446345
-0.00168593
-0.000141787
-0.00335777
-0.000279772
0.000469077
-0.00604467
-0.000463229
0.00049864
-0.00578716
-0.000477982
0.000344159
-0.00537081
-0.00100392
0.000169328
-0.00462681
-0.0018132
7.0776e-05
-0.00327874
-0.000341827
0.00167257
-0.00599259
0.00029025
0.00146902
-0.00607143
0.000125756
0.0012694
-0.0070047
-0.000328111
0.000899134
-0.00693682
-0.000848372
0.000160528
-0.00611703
-0.00167511
0.000312609
-0.00440747
-0.000581099
0.00110097
-0.00582045
-0.000278013
0.0013655
-0.00549869
0.000102782
0.0015053
-0.00543482
0.000460361
0.00144132
-0.00648733
0.000267194
0.00100927
-0.00742111
-0.00135919
0.000571773
-0.00715414
-0.000917921
0.000273707
-0.00639188
-0.00092456
0.000762019
-0.00560894
-0.00049388
0.000873356
-0.00526595
-0.000232779
0.000894079
-0.00498338
0.0001289
0.0010004
-0.00470724
0.00108209
0.000840234
-0.00523675
0.000905594
0.000839275
-0.00737127
-0.0010257
0.000693515
-0.0080544
-0.000586983
7.22353e-05
-0.00552895
-0.000754069
0.000499245
-0.00538279
-0.000596473
0.000512565
-0.00497467
-0.000548032
0.000379063
-0.00413789
-0.000302788
0.000296892
-0.00377888
0.000235282
0.000262178
-0.00431746
0.000456017
0.000278345
-0.0051617
0.000652028
0.000882207
-0.0061711
-1.4297e-05
0.00108045
-0.00692181
-0.000529914
0.000438895
-0.00708442
-0.000449796
0.00010876
-0.004334
-0.000481603
0.000198875
-0.00362421
-0.000360056
0.00016789
-0.00337001
-0.000203911
0.000136013
-0.00305652
-0.000106596
4.72444e-05
-0.00222411
8.54628e-05
5.95293e-05
-0.00200164
7.91528e-05
9.173e-05
-0.00270828
0.000120278
-7.96031e-05
-0.00306146
0.000280856
0.000167415
-0.00281899
-0.00060091
0.00021464
-0.00740076
-0.000205701
3.79591e-05
-0.00273492
-0.000256763
1.97668e-05
-0.00220108
-0.000191536
1.85785e-05
-0.00153055
-0.00012058
1.34956e-05
-0.00124151
-5.5518e-05
9.66453e-06
-0.00110513
3.87161e-05
3.58744e-05
-0.000914122
5.29334e-06
6.21258e-05
-0.000744638
-1.61012e-05
9.17239e-05
-0.0013002
-5.57272e-05
3.62169e-06
-0.00125709
9.58559e-05
-3.07115e-05
-0.00037816
-0.000267381
8.61676e-05
-0.00349573
-5.63276e-05
-8.1769e-05
-0.000636333
-4.75778e-05
-9.73781e-05
2.60752e-06
-3.84308e-05
-8.92988e-05
0.000209829
-2.67481e-05
-7.40471e-05
0.000494275
-5.71659e-06
-6.49129e-05
0.000595185
-6.7173e-06
-6.46012e-05
0.00057635
1.8776e-05
-5.42539e-05
0.000596054
1.36585e-05
-4.70584e-05
0.000216454
-4.30069e-06
-5.50841e-05
0.0001539
-2.64623e-05
-5.45646e-05
-0.000627216
-5.36791e-06
-4.73896e-05
-0.000587369
-6.13787e-05
-1.57717e-05
-0.00081718
-0.00180888
6.90205e-05
-0.00247047
-0.00162957
0.000345835
-0.0031196
-0.00171876
-8.19451e-05
-0.00261701
-0.000957203
0.000238495
-0.00407333
-0.00123215
0.000147718
-0.00387799
-0.00159606
-0.000125794
-0.0030837
-0.000536044
0.000480621
-0.00499585
-0.00065185
0.000295101
-0.00495039
-0.000863537
-8.52297e-05
-0.00406007
-0.00163265
3.51949e-05
-0.00300864
-0.000512244
0.000524315
-0.00542278
-0.000467844
0.000334264
-0.00530256
-0.000442504
0.000143392
-0.00519593
-0.00119973
-1.68189e-05
-0.0043926
-0.00168456
-0.000125665
-0.00336074
-0.000557592
0.000485695
-0.0061436
-0.000215616
0.000579463
-0.00561963
-0.000191055
0.000622023
-0.00574821
-0.000343797
0.000355897
-0.0055417
-0.000863623
5.85511e-05
-0.00459933
-0.00173588
0.000140069
-0.00335804
-0.000573399
0.00120625
-0.00600024
-0.000448503
0.00126305
-0.00561614
-4.07615e-05
0.00149963
-0.00615812
9.42656e-05
0.00132459
-0.00706406
-2.03209e-05
0.000819542
-0.00730832
-0.00126205
0.000397384
-0.00629895
-0.00162642
0.000444082
-0.00414306
-0.000943431
0.000916602
-0.0060826
-0.000528463
0.00129307
-0.00571343
-0.000236816
0.00141316
-0.00540251
0.000232538
0.00147379
-0.00557093
0.000773514
0.00126337
-0.00643284
0.000367752
0.00110861
-0.00742011
-0.00153607
0.000537901
-0.00690797
-0.000997942
-0.000151258
-0.00582966
-0.000889233
0.000751673
-0.00612684
-0.000751776
0.000907422
-0.0054877
-0.000516054
0.000803309
-0.00520716
-0.000301602
0.000901123
-0.00488528
0.000274212
0.000935865
-0.0048418
0.00100104
0.00072295
-0.00566545
0.000754388
0.000943696
-0.00772381
-0.000957689
0.000658061
-0.00769683
-0.000685494
0.000251011
-0.00562438
-0.000630258
0.000496137
-0.00579169
-0.000778175
0.000505685
-0.00507933
-0.000631957
0.000390204
-0.00471391
-0.000153654
0.000361882
-0.00425314
-6.59913e-06
0.000342232
-0.00395893
0.000272409
0.0002441
-0.00447016
0.000442156
0.000266027
-0.00490853
0.000631076
0.000959026
-0.00656048
9.95533e-05
0.00112259
-0.00742421
-0.000773527
0.000468249
-0.00738005
-0.000328373
9.5785e-05
-0.00483096
-0.000517262
0.000154853
-0.00402948
-0.000500233
0.000211908
-0.00335953
-0.000347363
0.000136697
-0.00314391
-0.000178111
9.86419e-05
-0.00298533
-7.6435e-05
8.03592e-05
-0.00212978
-2.35041e-05
6.37852e-05
-0.00194489
0.000131243
-2.3806e-05
-0.00291142
0.000105295
-0.000169996
-0.00288507
0.000276759
0.000117705
-0.00290296
-0.000629354
0.000171475
-0.00721026
-0.000247393
8.45636e-05
-0.00290897
-0.000236065
3.1158e-05
-0.00255783
-0.000264004
2.75714e-05
-0.0019845
-0.000208551
1.20293e-05
-0.00134728
-0.000111022
1.14466e-05
-0.00113799
-4.48751e-05
1.20257e-05
-0.00104313
5.3789e-05
3.26383e-05
-0.000919648
2.31904e-05
5.35809e-05
-0.000716027
8.56463e-06
6.68261e-05
-0.00137627
-5.85195e-05
-2.36569e-05
-0.00123209
0.000124594
-5.61441e-05
-0.00036581
-0.000248855
8.11193e-05
-0.00338938
-0.000103848
-4.50604e-05
-0.00133231
-5.46054e-05
-8.06315e-05
-0.000598475
-4.67715e-05
-9.3783e-05
5.38631e-05
-3.57395e-05
-8.61507e-05
0.000257672
-2.11866e-05
-7.21869e-05
0.000522735
-2.89851e-06
-6.39875e-05
0.00059747
-3.39128e-06
-6.39562e-05
0.000589444
2.46825e-05
-5.43672e-05
0.00057868
1.53384e-05
-4.75117e-05
0.000193544
4.12557e-07
-5.5444e-05
0.000154367
-2.45194e-05
-5.43885e-05
-0.000595698
-1.74028e-07
-4.7633e-05
-0.000555334
-6.39574e-05
-1.51144e-05
-0.000738108
-0.00175257
-3.62754e-05
-0.0028503
-0.00155961
8.56107e-05
-0.00324348
-0.00179446
0.000128531
-0.0025233
-0.00119402
0.000462354
-0.0033847
-0.00147239
9.07103e-05
-0.003052
-0.00175623
0.000142245
-0.00259908
-0.0006497
0.000399696
-0.00445067
-0.000796176
0.000281243
-0.00406252
-0.00134686
0.000117635
-0.00363809
-0.00155369
-0.000102194
-0.00306046
-0.000609909
0.000658559
-0.00502709
-0.000600235
0.000476952
-0.00504531
-0.000610528
0.000151199
-0.0050188
-0.00106596
-0.000125046
-0.00403359
-0.00163776
-8.87203e-05
-0.00296673
-0.000497811
0.000505355
-0.00551246
-0.000411513
0.000515825
-0.00540844
-0.000319159
0.000325964
-0.00535703
-0.000376415
0.000139418
-0.00531955
-0.00099347
-4.5073e-05
-0.00434335
-0.00166676
-8.89314e-05
-0.00334093
-0.00049436
0.000542533
-0.00652938
-0.000599529
0.000478126
-0.00589123
-0.000294529
0.000730539
-0.00547437
-0.000236129
0.000722685
-0.00578461
-6.01943e-05
0.000330758
-0.00577403
-0.001184
6.36039e-05
-0.00460091
-0.00178645
0.000221863
-0.00341986
-0.000725383
0.000626739
-0.00615723
-0.000591781
0.001088
-0.00576187
-0.000406367
0.00157946
-0.00552642
0.000149211
0.00162143
-0.00637163
0.000397165
0.00115441
-0.00702258
-3.07887e-05
0.000932357
-0.00744475
-0.00149208
0.000562888
-0.00646174
-0.00163259
0.000551933
-0.00406035
-0.000865671
0.000862351
-0.00634761
-0.000855062
0.00122682
-0.00591307
-0.000421954
0.00135993
-0.00575431
-0.000186036
0.00135696
-0.00540124
0.000213811
0.00137043
-0.0056176
0.000742617
0.00131872
-0.00638453
0.000240556
0.00105681
-0.00742519
-0.00150433
0.000301535
-0.00681412
-0.00124816
0.000633153
-0.00590015
-0.000681495
0.00073357
-0.00657405
-0.000920369
0.000818779
-0.005896
-0.000768543
0.000898503
-0.00544631
-0.000128548
0.000866067
-0.00519721
9.62179e-05
0.000972119
-0.00502436
0.000424206
0.000736002
-0.00500664
0.000881784
0.00077472
-0.0059361
0.000454295
0.00107131
-0.00796028
-0.00025935
0.00074068
-0.0078276
-0.000996236
0.000303383
-0.00570505
-0.000525924
0.000452291
-0.00600497
-0.000723785
0.000482455
-0.00556193
-0.000811329
0.000418323
-0.00479636
-0.000525882
0.000363305
-0.00453682
-0.000308531
0.000338637
-0.00411912
-0.000155104
0.00032877
-0.00396493
0.000142839
0.00016934
-0.00453982
0.000331171
0.000361909
-0.00451134
0.000579183
0.000965947
-0.00687772
3.90604e-05
0.0010688
-0.00778707
-0.000923284
0.00044491
-0.00753103
-0.000323213
0.000120719
-0.0047423
-0.000405322
0.000123727
-0.00463058
-0.000548059
0.000251983
-0.0037855
-0.000503562
0.000158192
-0.00308601
-0.000344246
0.000120051
-0.00293209
-0.000238077
0.000123182
-0.00283495
-4.26347e-05
8.29628e-05
-0.00205254
0.000126196
7.48732e-05
-0.00214658
0.000167164
-9.19546e-05
-0.00314806
5.48936e-05
-0.000178064
-0.00270272
0.000298772
8.30472e-05
-0.00298871
-0.000596074
4.57954e-05
-0.00690884
-0.000280989
9.04605e-05
-0.00253812
-0.000260024
7.38128e-05
-0.0027462
-0.000229094
3.30304e-05
-0.00238096
-0.000239893
2.63077e-05
-0.00179463
-0.00017542
1.2627e-05
-0.00119422
-7.92267e-05
6.73532e-06
-0.00105637
-4.91335e-05
7.37817e-06
-0.000972123
7.22669e-05
3.17553e-05
-0.000945406
3.68118e-05
3.7521e-05
-0.000708195
2.39111e-06
3.80792e-05
-0.00143998
-7.20263e-05
-4.46877e-05
-0.00119604
0.000192093
-6.96755e-05
-0.000407282
-0.000280363
5.44835e-05
-0.00322745
-0.0001414
-1.60347e-05
-0.00106477
-0.000104619
-4.67394e-05
-0.00126159
-4.9152e-05
-8.13017e-05
-0.000561804
-4.52285e-05
-9.0036e-05
0.000102977
-3.39849e-05
-8.33277e-05
0.000302797
-1.36789e-05
-7.05298e-05
0.000542956
5.48903e-06
-6.32944e-05
0.000591319
3.18659e-07
-6.38472e-05
0.000598605
3.08483e-05
-5.43235e-05
0.000554644
1.71795e-05
-4.82751e-05
0.000169195
2.40477e-06
-5.60112e-05
0.000153585
-2.29215e-05
-5.41723e-05
-0.000566237
-9.84373e-08
-4.68886e-05
-0.000523461
-6.47565e-05
-1.3464e-05
-0.000659887
-0.00179149
4.29551e-05
-0.00236851
-0.00159804
7.62005e-05
-0.00330228
-0.00179703
-6.69854e-06
-0.00284103
-0.00124655
0.000181485
-0.00345557
-0.00141867
0.00016716
-0.00333583
-0.00173984
0.000157678
-0.00269737
-0.000785379
0.000498742
-0.0036086
-0.000942718
0.000352955
-0.0035004
-0.00155936
0.000290612
-0.00298787
-0.00165958
0.000108925
-0.00260212
-0.000808789
0.000569385
-0.00452165
-0.00077042
0.000402538
-0.00440178
-0.000966423
0.000331242
-0.00392024
-0.00141329
0.000162532
-0.0035555
-0.00158602
-9.5809e-05
-0.00301639
-0.000484288
0.000791004
-0.00521897
-0.000448208
0.000641423
-0.00515486
-0.000490082
0.000375632
-0.00509882
-0.000713874
7.90901e-05
-0.00488547
-0.00107443
-0.000126116
-0.00391524
-0.0015808
-0.00015758
-0.00289512
-0.000488041
0.00050396
-0.0057329
-0.000541519
0.000539882
-0.00559453
-0.000493524
0.000559984
-0.00544347
-0.000435525
0.000355484
-0.0053737
-0.000368201
0.000128849
-0.00518547
-0.00121725
-8.59334e-05
-0.00431309
-0.00179836
-9.74668e-05
-0.00323156
-0.000526622
0.000706296
-0.00640825
-0.000572481
0.000327938
-0.00639849
-0.000360491
0.000606737
-0.00581331
-7.70089e-05
0.000988919
-0.00551439
1.46064e-05
0.000831785
-0.00590308
-1.03668e-05
0.000305982
-0.00603683
-0.00134529
0.000152081
-0.00467792
-0.0017992
0.000216734
-0.00346998
-0.000759211
0.000399349
-0.00626423
-0.00063491
0.000718968
-0.00600835
-0.000480324
0.00138837
-0.00551241
-0.000140613
0.00168976
-0.00564017
-6.47631e-06
0.00152524
-0.00652218
0.000516736
0.0011512
-0.00701554
-0.000215641
0.00102723
-0.00745289
-0.00149989
0.000685924
-0.00660017
-0.00170135
0.000206218
-0.00381337
-0.000638996
0.000779746
-0.00668629
-0.000906803
0.00112582
-0.00626018
-0.000812944
0.00123958
-0.00574833
-0.000220053
0.00137994
-0.00568578
0.000170919
0.00130636
-0.00541187
0.000439629
0.0013543
-0.00566859
0.000762254
0.00129482
-0.00650301
7.50734e-05
0.00107371
-0.00781813
-0.000791479
0.00109628
-0.00674512
-0.00152431
0.00017858
-0.00555066
-0.000563982
0.000719571
-0.00676277
-0.000775948
0.000767993
-0.0064711
-0.000984007
0.000896411
-0.00572123
-0.000618874
0.000956455
-0.00544371
-0.000417419
0.000881519
-0.00499772
-9.62862e-05
0.000793619
-0.00514079
0.00050416
0.000640643
-0.00523389
0.000573299
0.000799183
-0.0059061
0.000242476
0.00104713
-0.00793003
-0.000474589
0.00073967
-0.00775024
-0.001234
0.00039849
-0.00579282
-0.000272825
0.000339099
-0.00606906
-0.000590324
0.000439931
-0.00577744
-0.000770819
0.00042136
-0.00534221
-0.000707977
0.000402982
-0.00463162
-0.000490527
0.000282701
-0.0043346
-0.000267726
0.000259219
-0.00401992
-8.12574e-05
0.000316737
-0.00407371
0.000316488
0.000173882
-0.00454208
0.000371435
0.000458945
-0.0042086
0.00044458
0.00092693
-0.00712553
2.91776e-05
0.00100242
-0.00807498
-0.00107655
0.000411063
-0.00746161
-0.000344741
0.000109039
-0.00417725
-0.000358188
9.7555e-05
-0.00461796
-0.000382623
0.000168506
-0.00439357
-0.000491527
0.000173164
-0.00354884
-0.00045129
0.000180123
-0.00287021
-0.000271764
0.000125068
-0.00274144
-0.000247153
0.000138411
-0.00269238
0.000127682
0.000125608
-0.00215869
5.11443e-05
9.23152e-05
-0.00234518
0.000122364
-0.000160843
-0.00328525
2.94999e-05
-0.000159294
-0.0025619
0.000385688
5.07249e-05
-0.00318723
-0.000603531
-0.000111364
-0.00647431
-0.0002806
4.92098e-05
-0.00187506
-0.000293152
8.61113e-05
-0.00236188
-0.000275421
6.15151e-05
-0.00254842
-0.000242135
3.06324e-05
-0.00218838
-0.000233451
1.6057e-05
-0.00159859
-0.000152563
1.11416e-05
-0.00105975
-4.54907e-05
3.60391e-06
-0.00100162
5.48245e-05
8.62495e-06
-0.0010035
0.000104178
2.10618e-05
-0.00100228
4.57985e-05
1.78629e-05
-0.000716598
-4.95664e-06
1.68178e-05
-0.00149413
-8.77356e-05
-8.03038e-05
-0.0011206
0.000249124
-8.15743e-05
-0.000520447
-0.000303302
4.19716e-05
-0.00303088
-0.000151678
-1.22651e-05
-0.000754773
-0.000140436
-1.50259e-05
-0.00095605
-9.1625e-05
-5.03703e-05
-0.00120089
-4.77538e-05
-7.82566e-05
-0.00052583
-4.57875e-05
-8.61337e-05
0.000151571
-3.28561e-05
-7.88358e-05
0.000343959
-7.56189e-06
-6.92876e-05
0.000556511
1.23862e-05
-6.33552e-05
0.000578441
5.62345e-06
-6.40753e-05
0.000602733
3.57835e-05
-5.44583e-05
0.000525043
1.97873e-05
-4.92598e-05
0.000142656
9.91664e-06
-5.67399e-05
0.000146236
-1.95315e-05
-5.45485e-05
-0.000539046
-8.35684e-06
-4.5001e-05
-0.000483568
-6.36363e-05
-1.22732e-05
-0.000583978
-0.00176051
-4.89755e-05
-0.00226299
-0.00147975
-3.10452e-05
-0.00316511
-0.00182085
1.68856e-05
-0.00236158
-0.00127056
0.000143817
-0.00351954
-0.00141454
6.14765e-05
-0.00337459
-0.00176678
9.94807e-06
-0.00282403
-0.000915015
0.000317188
-0.00358049
-0.000964033
0.000234065
-0.00350116
-0.00143206
5.30291e-05
-0.00335848
-0.00164122
5.19832e-05
-0.00276771
-0.000890193
0.000570494
-0.00398301
-0.000714221
0.000369092
-0.00368094
-0.0010991
0.000318683
-0.0033958
-0.00158541
0.000261557
-0.00296838
-0.00167588
0.000147763
-0.00266003
-0.000710079
0.000703292
-0.00462619
-0.00076521
0.000640605
-0.00444272
-0.000755205
0.000441243
-0.00424665
-0.001117
0.00044077
-0.00379535
-0.00149128
0.000202484
-0.00343694
-0.00153787
-6.39806e-05
-0.00299534
-0.000455236
0.000811357
-0.00510439
-0.000618711
0.000832893
-0.00533325
-0.000530115
0.000584603
-0.00532724
-0.000622877
0.000359659
-0.00519203
-0.000703361
7.52328e-05
-0.00475166
-0.001207
-0.000208115
-0.00387496
-0.00165284
-0.000143413
-0.00289722
-0.000581552
0.000581622
-0.0060356
-0.00056379
0.000556676
-0.00575838
-0.000287406
0.00062947
-0.0057371
-0.000301463
0.000607897
-0.00547143
-0.000314826
0.00035122
-0.00526663
-0.000345818
0.000105718
-0.00504167
-0.00130191
-0.000108111
-0.00434583
-0.00182036
-0.000139077
-0.00307132
-0.000424459
0.000696858
-0.00636367
-0.000390501
0.00034432
-0.00666904
-0.000417834
0.000419675
-0.00627391
-0.00012062
0.000889876
-0.00573426
-2.46838e-05
0.000999049
-0.00566345
0.000264948
0.000887542
-0.00623285
-0.000274112
0.00026716
-0.00609344
-0.00144621
0.000213046
-0.00472791
-0.00187514
0.00023595
-0.00353215
-0.000729716
0.000446584
-0.00632099
-0.000731724
0.000473028
-0.00619337
-0.000657364
0.00118418
-0.00595973
-0.00020909
0.00165763
-0.00549125
0.000158728
0.00161445
-0.00571718
0.000340108
0.00143185
-0.00670331
0.000396118
0.00112943
-0.00675161
-0.000326523
0.00106845
-0.00743382
-0.00151551
0.000395669
-0.00606559
-0.00183269
0.000360565
-0.00386556
-0.000493292
0.000794535
-0.00686827
-0.000687212
0.000956059
-0.00660526
-0.000881542
0.0010289
-0.00615196
-0.000681974
0.00143737
-0.00574265
-0.00039818
0.00126383
-0.00566248
-0.000104453
0.00128841
-0.00533782
0.000596276
0.00135918
-0.00582507
0.000561328
0.00127697
-0.00669431
5.76231e-06
0.0010536
-0.00753874
-0.00088671
0.000635577
-0.00679
-0.00176993
0.000170112
-0.00518484
-0.000176036
0.000731915
-0.00679166
-0.000626537
0.000717326
-0.00667589
-0.00081854
0.000850187
-0.00637716
-0.000900359
0.000974779
-0.00554718
-0.000712708
0.00088915
-0.00522916
-0.000245773
0.000832232
-0.00505828
-2.65772e-05
0.000741117
-0.00529595
0.000405693
0.000525107
-0.00504902
0.000439562
0.000861732
-0.00578883
0.000145342
0.00101112
-0.00790224
-0.000392995
0.000854279
-0.00778385
-0.0014433
0.000394926
-0.00582101
-0.000267624
0.000287192
-0.00573657
-0.000368542
0.000313325
-0.0059321
-0.000515167
0.000401531
-0.00562507
-0.000729885
0.000425275
-0.00512615
-0.000651954
0.000365227
-0.00451348
-0.000350315
0.000219181
-0.00421601
-0.000237236
0.000287928
-0.00400103
0.000172491
0.000289862
-0.0042345
7.99325e-05
0.000207108
-0.00431903
0.00034102
0.000506444
-0.00400677
0.000460324
0.000920674
-0.00747461
-5.55203e-05
0.00090586
-0.00812857
-0.00107986
0.000352312
-0.0073376
-0.00027587
0.000102763
-0.00359104
-0.000361974
9.53035e-05
-0.00410618
-0.000405561
7.27469e-05
-0.00439206
-0.000436899
0.000137189
-0.00416284
-0.000426956
0.000152096
-0.00332731
-0.000372501
0.000176012
-0.00270122
-0.00017032
0.000141078
-0.00261928
-6.59386e-05
0.000186743
-0.00263275
0.000206682
5.91787e-05
-0.00222806
0.000101691
1.41566e-05
-0.00257607
0.000137617
-0.000244953
-0.00334217
-8.56443e-06
-3.11906e-05
-0.00255916
0.000490789
2.68152e-05
-0.00356708
-0.000627125
-0.000114703
-0.00603578
-0.000287833
1.17142e-05
-0.00153769
-0.000286687
5.24673e-05
-0.00169516
-0.000302068
7.71584e-05
-0.00216708
-0.00029671
5.84624e-05
-0.00232729
-0.000298103
1.50914e-05
-0.0019351
-0.000252938
8.68748e-06
-0.00137606
-0.000120066
8.07296e-06
-0.00095171
-2.27328e-05
2.01226e-06
-0.000959887
-5.22139e-06
2.78688e-06
-0.000974379
0.000151272
1.0958e-05
-0.00111086
4.84748e-05
-5.58579e-06
-0.000722882
3.49013e-05
-3.42045e-05
-0.00156521
-9.12569e-05
-0.00010651
-0.00102394
0.000214351
-7.99727e-05
-0.000621211
-0.00029831
2.97437e-05
-0.00282595
-0.000162553
-2.46768e-05
6.19076e-05
-0.000156219
-9.9856e-06
-0.000603594
-0.000139003
-1.62575e-05
-0.000851159
-9.55298e-05
-5.00416e-05
-0.00113358