/*--------------------------------*- C++ -*----------------------------------*\
  =========                 |
  \\      /  F ield         | OpenFOAM: The Open Source CFD Toolbox
   \\    /   O peration     | Website:  https://openfoam.org
    \\  /    A nd           | Version:  7
     \\/     M anipulation  |
\*---------------------------------------------------------------------------*/
FoamFile
{
    version     2.0;
    format      ascii;
    class       surfaceScalarField;
    location    "9";
    object      phi_0;
}
// * * * * * * * * * * * * * * * * * * * * * * * * * * * * * * * * * * * * * //

dimensions      [0 3 -1 0 0 0 0];

internalField   nonuniform List<scalar> 
54125
(
-5.27418e-06
-1.6595e-05
-0.00141956
-1.86687e-05
0.000108814
-0.00279849
-1.39615e-05
-2.67699e-05
-0.00100562
5.46206e-06
-1.67542e-05
-0.00140826
-0.000481247
0.000363365
-0.0064434
3.47213e-05
5.76929e-05
-0.00071151
-4.85489e-06
0.000108097
-0.00289627
-3.38422e-05
-3.99127e-05
-0.0010945
-1.75269e-05
-2.83875e-05
-0.000976456
-1.61264e-05
-1.66298e-05
-0.00137551
-0.00169222
0.000611016
-0.00711259
-4.62064e-05
0.000252134
-0.00298262
-0.000595925
0.000398519
-0.00625085
3.12383e-05
6.938e-05
-0.00110674
2.68443e-05
6.99189e-05
-0.000717704
-2.81118e-05
0.000135648
-0.00301993
-8.14646e-06
-5.31299e-05
-3.26215e-05
-3.72527e-05
-3.99498e-05
-0.00104568
-2.05771e-05
-3.03231e-05
-0.000942186
-3.5429e-05
-1.6097e-05
-0.00132398
-0.00215567
0.000663789
-0.00386226
6.75882e-05
0.000629973
-0.00575215
-0.00180832
0.000563004
-0.00646321
5.6553e-05
0.000158423
-0.00291348
-2.97596e-05
0.000235232
-0.00276273
-0.000511511
0.000429034
-0.00619649
-7.32069e-06
7.1376e-05
-0.00135668
3.08388e-05
8.43706e-05
-0.00118928
2.11874e-05
8.03696e-05
-0.00070419
2.55904e-05
0.000172497
-0.00325345
-4.8924e-06
-4.91743e-05
0.000303664
-1.01469e-05
-5.23453e-05
-1.00792e-05
-4.19517e-05
-4.09596e-05
-0.000993093
-2.48577e-05
-3.41599e-05
-0.000899265
-2.69685e-05
-1.52519e-05
-0.00128176
-0.00166737
0.000316931
-0.00501855
0.000310729
0.00138908
-0.00818682
-0.00197241
0.000501235
-0.0041994
0.000295903
0.000480558
-0.00492866
6.23783e-05
0.000675584
-0.00595687
-0.0015472
0.000638355
-0.00606587
9.57357e-05
9.99502e-05
-0.00189109
0.000104889
0.000126122
-0.00287842
0.000201637
0.000209835
-0.00272398
-0.000309837
0.000490365
-0.00635142
-1.72423e-05
5.17997e-05
-0.000954603
-2.6107e-05
7.96791e-05
-0.00133603
1.21001e-05
9.53321e-05
-0.0012583
3.25645e-05
8.79257e-05
-0.000677041
-4.92685e-06
0.000192059
-0.00346755
-5.6086e-06
-5.86565e-05
0.000592338
-8.41685e-07
-4.83443e-05
0.000300504
-1.24014e-05
-5.27535e-05
1.41161e-05
-4.56106e-05
-4.34176e-05
-0.000938225
-2.34764e-05
-3.58349e-05
-0.000855206
-4.01141e-05
-1.46956e-05
-0.00122695
-0.00151579
0.000275377
-0.00552472
-0.000435148
0.000921366
-0.00802957
-0.00151273
0.000212552
-0.00569078
0.000722197
0.00126716
-0.00658572
0.000169243
0.00114521
-0.00893766
-0.00164403
0.000338833
-0.00444142
0.000453517
0.00046266
-0.00415046
0.000494905
0.000450191
-0.00509328
0.000244811
0.000836674
-0.00619837
-0.0012647
0.000651448
-0.00576246
-1.06702e-05
1.88381e-05
-0.00213885
5.49423e-05
0.000139588
-0.00198561
0.000215245
0.000102602
-0.00297433
0.000362535
0.000162469
-0.00272606
-0.000253296
0.000477922
-0.00658098
-1.57318e-05
2.25096e-05
-0.00105502
2.44293e-06
5.45478e-05
-0.000932756
-3.11732e-05
9.16579e-05
-0.00131359
-4.2391e-06
9.31264e-05
-0.00130487
4.98428e-05
9.16856e-05
-0.000649987
-0.000109501
0.000207273
-0.00360543
-2.34034e-05
-6.79029e-05
0.000459036
-3.27976e-06
-5.75967e-05
0.00060487
1.23394e-06
-4.80499e-05
0.000294567
-1.83858e-05
-5.26804e-05
4.17647e-05
-5.20773e-05
-4.42618e-05
-0.000877721
-2.44962e-05
-3.68541e-05
-0.000808551
-3.50395e-05
-1.47524e-05
-0.00117716
-0.00163455
-4.28733e-05
-0.00384435
-0.00096312
0.000439381
-0.00565031
-0.00172142
0.000415061
-0.00573109
0.000325107
0.00112892
-0.00745141
-0.000449274
0.000713785
-0.00791229
-0.00131101
6.62273e-05
-0.00609001
0.000648623
0.00107447
-0.00362121
0.000833898
0.00119239
-0.00697188
-0.000257121
0.000845503
-0.0089424
-0.0011985
0.000343152
-0.00485076
2.90553e-05
0.000360465
-0.00391509
0.000401246
0.000432845
-0.00447942
0.000687346
0.000378988
-0.0051077
0.000313589
0.00104219
-0.00654017
-0.000919302
0.000538175
-0.00563463
-0.000157335
3.27383e-05
-0.00271229
-9.36157e-06
5.22753e-05
-0.00203973
-5.56975e-07
0.000113931
-0.00202755
0.000249932
5.1891e-05
-0.00311792
0.000294759
0.000162678
-0.00265573
-0.000222779
0.000438373
-0.00690607
-9.91188e-05
1.29558e-06
-0.00139174
-8.59144e-06
2.61191e-05
-0.00102128
2.90092e-06
5.83614e-05
-0.000901127
-2.4403e-05
9.93561e-05
-0.0013138
-2.96633e-05
8.86352e-05
-0.00132423
4.70416e-05
8.40652e-05
-0.000598317
-0.000131563
0.000189879
-0.00369879
-2.3507e-05
-7.08252e-05
0.000538979
-2.17264e-05
-6.67948e-05
0.00048996
2.04689e-06
-5.67782e-05
0.000611551
4.33358e-06
-4.76125e-05
0.000285165
-2.352e-05
-5.25762e-05
7.35991e-05
-5.46886e-05
-4.54663e-05
-0.00081442
-2.37781e-05
-3.96394e-05
-0.000759886
-4.2647e-05
-1.42775e-05
-0.00112024
-0.00173278
-9.11224e-05
-0.00342495
-0.00129217
9.5169e-05
-0.00525125
-0.00184205
-6.37784e-05
-0.00365994
-0.000461783
0.000809162
-0.00702568
-0.000732945
0.000545011
-0.00549659
-0.00167632
0.000424862
-0.00579065
0.000238394
0.00148423
-0.00647011
0.000325708
0.00101809
-0.00724752
-0.000761331
0.000429526
-0.00777138
-0.00110099
0.000186913
-0.00637444
0.000428107
0.000813036
-0.00475849
0.000532942
0.00115651
-0.00371702
0.000766276
0.00100689
-0.0072122
-0.000485249
0.000791201
-0.00859161
-0.000842473
0.000415207
-0.0053428
-0.000289855
0.000279855
-0.00436017
-8.28102e-05
0.000371186
-0.00377998
0.00053885
0.000302326
-0.00494216
0.00069908
0.000501301
-0.00501595
0.000139184
0.000986698
-0.00683311
-0.000644953
0.000547318
-0.00575977
-0.00033237
0.000105854
-0.00325815
-0.000167686
1.69415e-05
-0.00251786
2.18815e-05
2.94136e-05
-0.00197419
6.53576e-05
0.000120198
-0.00218562
0.000211567
3.62665e-05
-0.00323274
0.000191819
0.000203786
-0.00256592
-0.000254048
0.000368515
-0.0071521
-0.000168487
6.9991e-06
-0.00157886
-8.33714e-05
5.89029e-06
-0.00130987
-1.18184e-06
1.93548e-05
-0.000979048
8.58627e-06
6.2426e-05
-0.000868449
-7.40655e-05
0.000103209
-0.00127783
-5.75834e-05
8.00139e-05
-0.00131729
4.53023e-05
5.97551e-05
-0.000537273
-0.000174966
0.000156752
-0.00372322
-3.89384e-05
-8.23703e-05
0.000375802
-2.03742e-05
-6.8859e-05
0.000561417
-1.69222e-05
-6.60618e-05
0.000516166
5.16019e-06
-5.60831e-05
0.000614862
6.11368e-06
-4.71269e-05
0.000273602
-2.28895e-05
-5.31713e-05
0.000104194
-4.81853e-05
-4.92384e-05
-0.000756636
-2.04801e-05
-4.20707e-05
-0.000711613
-5.06464e-05
-1.55364e-05
-0.00105405
-0.0017647
0.000130829
-0.00286408
-0.00160537
0.00011578
-0.00443564
-0.00174789
-9.70162e-05
-0.00342209
-0.000711849
0.000113164
-0.0054908
-0.00127238
0.000114872
-0.00489047
-0.00181912
-1.53007e-05
-0.00350184
-4.30985e-05
0.00118482
-0.00675004
-0.000323917
0.000894019
-0.00672506
-0.00064766
0.00047269
-0.00565809
-0.00164707
0.000240077
-0.00548465
0.000475301
0.0014588
-0.00503508
0.00025656
0.00143757
-0.00661321
0.000167182
0.00100167
-0.00722057
-0.000883506
0.000420536
-0.00760674
-0.000975608
0.000243158
-0.00648446
-0.000263667
0.000777885
-0.00535412
0.000198501
0.000901671
-0.00478496
0.000873254
0.00119207
-0.00423661
0.000603873
0.000908557
-0.00723435
-0.000556928
0.000911404
-0.00839169
-0.000669172
0.000310523
-0.0056291
-0.000663594
0.000359884
-0.00468411
-0.000369775
0.000273267
-0.00406016
1.04827e-05
0.000545651
-0.00401191
0.000542136
0.00025496
-0.0051726
0.000682256
0.000620784
-0.00512073
-0.000170231
0.00094434
-0.00686809
-0.000445571
0.000593038
-0.00616129
-0.000424281
0.00019143
-0.00363906
-0.000177141
0.000100287
-0.00324772
-1.6108e-05
8.39068e-06
-0.00248191
7.24045e-05
4.25232e-05
-0.00196034
5.28078e-05
0.000122198
-0.00239843
9.09229e-05
7.19526e-05
-0.00324942
0.000185165
0.000246856
-0.00258412
-0.000237076
0.00030807
-0.00739806
-0.000193218
1.50093e-05
-0.00186919
-0.000153765
1.00864e-05
-0.00144967
-6.64044e-05
2.55141e-06
-0.00124358
9.98425e-06
1.84975e-05
-0.000939943
1.06769e-05
6.51447e-05
-0.000834948
-5.99686e-05
0.000105688
-0.00126642
-7.3357e-05
6.55601e-05
-0.00129792
4.8978e-05
2.87599e-05
-0.000478739
-0.000197743
0.000135961
-0.00371209
-3.48367e-05
-9.63505e-05
0.000110912
-3.48351e-05
-7.92152e-05
0.000420993
-1.55383e-05
-6.72983e-05
0.000578192
-1.42433e-05
-6.54302e-05
0.000539756
8.39082e-06
-5.512e-05
0.000614464
8.93511e-06
-4.68932e-05
0.000258389
-1.99067e-05
-5.4093e-05
0.000128955
-4.1152e-05
-5.27708e-05
-0.000704783
-1.44585e-05
-4.56743e-05
-0.000667016
-5.4672e-05
-1.61177e-05
-0.000983262
-0.00161286
-9.95416e-05
-0.00301401
-0.00141992
0.000132146
-0.00358296
-0.00178196
0.000123425
-0.00295343
-0.000780095
0.000263947
-0.00493949
-0.0015785
0.000123441
-0.00434997
-0.00172764
-0.000155143
-0.00335843
-0.000355543
0.000356578
-0.0059185
-0.000645356
0.000237114
-0.00529161
-0.000900943
0.000167502
-0.00481999
-0.00182745
1.65006e-05
-0.00333796
4.68925e-06
0.00156876
-0.00622221
-9.27913e-05
0.00139241
-0.00689908
-0.000379953
0.000952969
-0.00665821
-0.000660116
0.000265206
-0.00590661
-0.00169268
0.000136615
-0.00490419
-0.000176288
0.00131942
-0.00554124
0.000520917
0.00144974
-0.00536967
0.000337647
0.00146733
-0.00654326
4.16498e-05
0.00104013
-0.00727794
-0.001018
0.000474178
-0.00737669
-0.000927061
0.000309988
-0.00653656
-0.000638871
0.00075882
-0.00536068
-0.000325566
0.000836184
-0.00533284
9.48952e-05
0.0010628
-0.0047401
0.000903595
0.00105572
-0.00474523
0.000640696
0.000885388
-0.00716677
-0.000858086
0.000841941
-0.00823526
-0.000511873
0.000168321
-0.00573112
-0.000721389
0.000517718
-0.00505737
-0.000367847
0.000359743
-0.00457988
-8.08831e-05
0.000497347
-0.00394708
9.9916e-05
0.00030967
-0.00409413
0.000599265
0.000180564
-0.00527884
0.000722942
0.000799478
-0.00560789
-0.00029807
0.000978991
-0.0067708
-0.000316271
0.000611249
-0.00669334
-0.000439392
0.000191044
-0.0039082
-0.000366961
0.000194221
-0.00351979
-0.000251287
8.68756e-05
-0.00314133
-0.000140143
7.34278e-05
-0.00236269
0.000120616
4.08809e-05
-0.00198896
2.42438e-05
0.000129625
-0.00254031
3.12872e-05
7.6916e-05
-0.00318412
0.000287394
0.000226583
-0.00274105
-0.000393381
0.000322281
-0.0075247
-0.000225854
1.87491e-05
-0.00243196
-0.000208195
1.63255e-05
-0.00170206
-0.000132439
1.68183e-05
-0.00134703
-6.79476e-05
4.33109e-06
-0.00117571
2.78974e-05
2.75381e-05
-0.000921843
8.40939e-06
6.56374e-05
-0.000794372
-6.19809e-05
0.000103401
-0.00126219
-7.14323e-05
4.83397e-05
-0.00128722
6.52842e-05
-2.25814e-06
-0.000420262
-0.000261768
0.00011406
-0.00361905
-5.03039e-05
-0.000100561
-4.29248e-05
-3.76242e-05
-9.32565e-05
0.000162578
-2.96662e-05
-7.64904e-05
0.000459851
-1.17515e-05
-6.59533e-05
0.000590467
-1.05652e-05
-6.48926e-05
0.000560094
1.27642e-05
-5.43801e-05
0.000609186
1.13639e-05
-4.68688e-05
0.000239801
-1.12657e-05
-5.51684e-05
0.000142618
-2.85672e-05
-5.42661e-05
-0.000667624
-9.98769e-06
-4.68924e-05
-0.000626254
-6.04746e-05
-1.59947e-05
-0.000906793
-0.00173465
0.000126554
-0.00274432
-0.00137707
4.35113e-05
-0.00374156
-0.00167662
-2.69855e-05
-0.00309237
-0.00082463
0.000313138
-0.00480558
-0.00120017
0.000180708
-0.00401857
-0.00171473
-4.87019e-05
-0.00291764
-0.000500098
0.00035287
-0.00518991
-0.000674974
0.000220913
-0.00500734
-0.000938866
-1.07893e-06
-0.00446611
-0.0016877
-0.000142687
-0.00335549
-0.000287729
0.000467115
-0.00605959
-0.000472512
0.000489542
-0.00579121
-0.000485865
0.000343227
-0.00536142
-0.00100039
0.000173744
-0.00463696
-0.00181467
6.76686e-05
-0.00328364
-0.000364416
0.00165214
-0.00600737
0.00028647
0.00146683
-0.00606219
0.000120759
0.00126849
-0.00699771
-0.000343645
0.000908088
-0.0069158
-0.000825571
0.000153848
-0.00611627
-0.00167262
0.000299487
-0.00445812
-0.000596193
0.00108694
-0.00582962
-0.000274004
0.00136145
-0.00550451
0.000102784
0.00150532
-0.00541555
0.000442204
0.00145312
-0.00649486
0.000247774
0.00100366
-0.0074145
-0.00133521
0.000572183
-0.00716176
-0.00091203
0.000299282
-0.00643569
-0.000929126
0.000756929
-0.00561821
-0.000496186
0.000870983
-0.00526714
-0.000234563
0.000885917
-0.00500228
0.000110351
0.00100669
-0.0047015
0.00107786
0.000855597
-0.00519403
0.000896914
0.000836516
-0.00733532
-0.00101405
0.000717261
-0.00806821
-0.000577028
6.87526e-05
-0.00553912
-0.000751113
0.000497134
-0.00540552
-0.000602305
0.00051897
-0.00498125
-0.000570609
0.000375884
-0.0041391
-0.000293521
0.000297885
-0.00378192
0.000224473
0.000266602
-0.00428402
0.00045842
0.000263401
-0.00517693
0.000649104
0.000867589
-0.0061143
-4.15695e-05
0.00106639
-0.00689699
-0.000502236
0.000449227
-0.00703371
-0.000444149
0.000108722
-0.00436567
-0.000478126
0.000195538
-0.00363959
-0.000361227
0.000170927
-0.00337506
-0.000208375
0.000131872
-0.00305934
-0.000107182
4.60152e-05
-0.00223274
9.41248e-05
5.80217e-05
-0.00200307
7.66447e-05
9.52585e-05
-0.00269728
0.000111429
-6.52292e-05
-0.00307517
0.000283525
0.000176584
-0.0028136
-0.000585568
0.000223875
-0.00742478
-0.000208386
3.8798e-05
-0.002735
-0.00025476
1.86904e-05
-0.00221719
-0.000191013
1.83982e-05
-0.0015423
-0.000121764
1.34907e-05
-0.00124618
-5.66057e-05
9.19648e-06
-0.00111133
3.76997e-05
3.53136e-05
-0.000916455
6.70076e-06
6.19976e-05
-0.000748305
-1.97345e-05
9.2626e-05
-0.00129801
-5.56482e-05
6.29503e-06
-0.00126869
9.30326e-05
-2.94301e-05
-0.000379793
-0.000272176
8.73516e-05
-0.0034947
-5.69589e-05
-8.19249e-05
-0.000626264
-4.78039e-05
-9.78543e-05
9.47686e-06
-3.84033e-05
-8.92945e-05
0.000213785
-2.69253e-05
-7.42223e-05
0.000495046
-6.21383e-06
-6.49456e-05
0.000596733
-7.12127e-06
-6.45491e-05
0.000577384
1.86586e-05
-5.42245e-05
0.000597884
1.37586e-05
-4.69454e-05
0.000217819
-4.94194e-06
-5.50198e-05
0.000148314
-2.65393e-05
-5.45471e-05
-0.00063343
-5.91284e-06
-4.74369e-05
-0.000588899
-6.16847e-05
-1.58328e-05
-0.000829276
-0.00180804
6.94788e-05
-0.00246916
-0.00163199
0.000349194
-0.00311959
-0.00171786
-8.45811e-05
-0.0026185
-0.00095754
0.00023711
-0.00407567
-0.00123144
0.000147716
-0.00388499
-0.00159634
-0.000126129
-0.00308462
-0.000536965
0.00048069
-0.00499045
-0.000657579
0.000300502
-0.00494277
-0.000857776
-8.29383e-05
-0.00406542
-0.00163408
3.69463e-05
-0.00300821
-0.000515028
0.000522538
-0.00542528
-0.000474807
0.00033451
-0.00530121
-0.000451032
0.000144954
-0.00518821
-0.001197
-1.42664e-05
-0.00439791
-0.00168371
-0.000125996
-0.00336046
-0.000562861
0.00049077
-0.00616137
-0.000217405
0.00056911
-0.00563528
-0.000192972
0.000613762
-0.00574801
-0.000354398
0.000357113
-0.00553404
-0.000850331
6.40189e-05
-0.00460855
-0.00173544
0.00013794
-0.00335876
-0.000584128
0.00118662
-0.00602563
-0.000448467
0.00125928
-0.00562536
-4.94932e-05
0.00148993
-0.00613135
9.01954e-05
0.00133348
-0.00707109
-3.27852e-05
0.000818153
-0.00729954
-0.00123662
0.000378637
-0.00629401
-0.00162222
0.000427405
-0.00417533
-0.000943476
0.000901934
-0.00609485
-0.000538857
0.0012838
-0.00570931
-0.000240226
0.00141419
-0.00540771
0.00022918
0.00147779
-0.00555905
0.000757886
0.00126912
-0.00644035
0.000366422
0.00110815
-0.00741998
-0.00153446
0.000556049
-0.00689812
-0.00098394
-0.000140336
-0.00588844
-0.000888154
0.000749896
-0.00614205
-0.000759642
0.000902426
-0.00549232
-0.000544247
0.00080004
-0.00520763
-0.000295693
0.000894824
-0.00488825
0.000257961
0.000950062
-0.00482945
0.00100127
0.000727423
-0.0056278
0.000783198
0.000921593
-0.00767375
-0.000971538
0.000657333
-0.00772682
-0.000662647
0.000230135
-0.00560884
-0.000625949
0.000496865
-0.00580611
-0.000773031
0.000508814
-0.00510046
-0.000634477
0.000395817
-0.00472794
-0.000157458
0.000361968
-0.0042541
-2.00949e-05
0.000342443
-0.00394485
0.000277683
0.00024624
-0.00445042
0.000450824
0.000253009
-0.00493654
0.000628955
0.000949202
-0.00651464
9.65675e-05
0.00112294
-0.00738374
-0.000746986
0.000465683
-0.00733798
-0.000329326
9.71821e-05
-0.00484077
-0.00051112
0.000138346
-0.00405212
-0.000497803
0.000214237
-0.00337611
-0.000349083
0.000138806
-0.00315467
-0.000175307
9.80104e-05
-0.00299264
-7.9849e-05
7.83115e-05
-0.00213548
-2.82697e-05
6.28898e-05
-0.00193573
0.000124593
-1.2212e-05
-0.00289463
0.000110427
-0.000163487
-0.00290117
0.000274565
0.000125373
-0.00289663
-0.000637851
0.000172644
-0.00723175
-0.000250309
8.54934e-05
-0.00291072
-0.000235584
3.11912e-05
-0.00255972
-0.00026528
2.61346e-05
-0.00199805
-0.000209056
1.19356e-05
-0.00135861
-0.000113122
1.15056e-05
-0.00114158
-4.49698e-05
1.18332e-05
-0.00105
5.34612e-05
3.22706e-05
-0.000921531
2.26136e-05
5.38956e-05
-0.00071843
8.70525e-06
6.84774e-05
-0.00137384
-5.70857e-05
-2.15101e-05
-0.00124607
0.000124857
-5.51065e-05
-0.000368105
-0.000249887
8.22422e-05
-0.00338874
-0.000104689
-4.48934e-05
-0.0013267
-5.49485e-05
-8.08615e-05
-0.000588308
-4.72954e-05
-9.38658e-05
6.13436e-05
-3.5744e-05
-8.64456e-05
0.000261753
-2.1451e-05
-7.2347e-05
0.000523898
-3.43955e-06
-6.39645e-05
0.000599588
-3.84116e-06
-6.38971e-05
0.000590898
2.46776e-05
-5.42644e-05
0.000580525
1.54906e-05
-4.73929e-05
0.000194702
-2.04623e-07
-5.53537e-05
0.000149325
-2.48818e-05
-5.43589e-05
-0.000601627
-9.5655e-07
-4.76956e-05
-0.00055608
-6.40394e-05
-1.52786e-05
-0.000749958
-0.00175276
-3.54512e-05
-0.00284713
-0.00156079
8.62437e-05
-0.00324023
-0.00179443
0.000127608
-0.0025202
-0.00119324
0.000464123
-0.00338583
-0.0014732
9.04621e-05
-0.00305287
-0.00175412
0.000139419
-0.00260014
-0.000647231
0.000399832
-0.00445452
-0.000795211
0.000279491
-0.00406982
-0.00134195
0.000116892
-0.00364383
-0.00155377
-0.000102367
-0.00306256
-0.000615203
0.000658117
-0.00502196
-0.000600452
0.000479278
-0.00504358
-0.00060673
0.000153925
-0.00502393
-0.00106346
-0.000122828
-0.00403919
-0.00163761
-8.63962e-05
-0.00296791
-0.000502485
0.000501507
-0.00550884
-0.000413249
0.000514072
-0.005409
-0.000318594
0.000325914
-0.00535655
-0.000374697
0.000140535
-0.00532271
-0.00098643
-4.0394e-05
-0.00434741
-0.00166459
-8.81096e-05
-0.0033432
-0.000494087
0.000558993
-0.00652589
-0.000608255
0.000473216
-0.00590569
-0.0003021
0.000718305
-0.00548722
-0.000240845
0.000719732
-0.00577959
-7.57141e-05
0.000336353
-0.00576344
-0.00116929
6.33101e-05
-0.00460124
-0.00178183
0.000222852
-0.003422
-0.000732016
0.000620068
-0.00617861
-0.000596589
0.00107344
-0.00578205
-0.00041423
0.00156549
-0.00552692
0.000157818
0.00162744
-0.00635396
0.000374848
0.00116479
-0.00703469
-2.5059e-05
0.000924138
-0.00745356
-0.00148959
0.000546908
-0.00645839
-0.00162439
0.000553005
-0.00408789
-0.000862295
0.00085206
-0.00635514
-0.000861454
0.00121698
-0.00592621
-0.000425189
0.00135693
-0.00577111
-0.000184155
0.00135922
-0.00540067
0.000218986
0.00137445
-0.0056254
0.000739332
0.00131549
-0.00638575
0.000263187
0.00106056
-0.00740448
-0.00150537
0.000309827
-0.00681445
-0.00121269
0.000591114
-0.00592951
-0.000677416
0.000732153
-0.00657779
-0.000915115
0.000812372
-0.00590991
-0.000771872
0.000890969
-0.00544585
-0.000121814
0.000861049
-0.0052095
7.43754e-05
0.000974753
-0.00500741
0.000402999
0.000747229
-0.00497457
0.00090815
0.000760886
-0.00592442
0.000487484
0.00106344
-0.00793838
-0.000310064
0.000731845
-0.0078219
-0.000965989
0.000295697
-0.00568554
-0.000521403
0.000454685
-0.00602374
-0.000718847
0.000485521
-0.00557509
-0.000816647
0.000423386
-0.00480919
-0.000536343
0.000366295
-0.004545
-0.000298447
0.000342457
-0.00413097
-0.0001537
0.0003283
-0.00395306
0.00013296
0.000171339
-0.00452998
0.00033056
0.000348751
-0.00454205
0.000589012
0.0009633
-0.00683358
4.57781e-05
0.00107887
-0.00776814
-0.000905803
0.000449362
-0.00751939
-0.000327079
0.0001238
-0.00473559
-0.000403389
0.000113761
-0.00464838
-0.000550682
0.00025111
-0.00380359
-0.000505555
0.000159006
-0.00309981
-0.000348954
0.000120301
-0.00294113
-0.000233781
0.000120678
-0.00284619
-4.94841e-05
8.17196e-05
-0.00205137
0.000128078
7.28405e-05
-0.00212625
0.000168104
-8.92017e-05
-0.00312831
5.5649e-05
-0.000177315
-0.00271122
0.000300602
8.4969e-05
-0.0029847
-0.000599928
7.41188e-05
-0.00695583
-0.000281326
9.02211e-05
-0.00254915
-0.00025988
7.53293e-05
-0.00274993
-0.00022969
3.23584e-05
-0.00238355
-0.000241178
2.64139e-05
-0.00180709
-0.000177641
1.23444e-05
-0.00120326
-8.22446e-05
6.76975e-06
-0.00105771
-4.96673e-05
7.12207e-06
-0.000979028
7.0619e-05
3.19071e-05
-0.000945483
3.79021e-05
3.83163e-05
-0.00071068
3.7036e-06
3.99758e-05
-0.00143923
-7.0631e-05
-4.34848e-05
-0.00121194
0.000180175
-6.94416e-05
-0.000397552
-0.000275878
5.65673e-05
-0.00323347
-0.000141205
-1.59367e-05
-0.00106783
-0.000104887
-4.6695e-05
-0.00125598
-4.9483e-05
-8.15636e-05
-0.000551127
-4.53131e-05
-9.04333e-05
0.000110644
-3.38956e-05
-8.35017e-05
0.000306803
-1.40162e-05
-7.06705e-05
0.00054462
4.78883e-06
-6.32523e-05
0.000594155
-8.56944e-08
-6.3769e-05
0.000600488
3.0828e-05
-5.4212e-05
0.000556516
1.73178e-05
-4.81585e-05
0.000170189
2.07674e-06
-5.59088e-05
0.000148798
-2.31984e-05
-5.41361e-05
-0.000571988
3.99796e-07
-4.71064e-05
-0.000524652
-6.5024e-05
-1.3607e-05
-0.000671327
-0.00179128
4.31156e-05
-0.00237026
-0.00159819
7.68814e-05
-0.00329946
-0.00179709
-5.46708e-06
-0.00283901
-0.00124621
0.00018211
-0.00345222
-0.00142264
0.000167979
-0.00333116
-0.00173956
0.000157415
-0.00269218
-0.000787305
0.000501521
-0.0036094
-0.000945009
0.000355376
-0.00350095
-0.00155822
0.000289856
-0.00298704
-0.00166091
0.000107482
-0.00260049
-0.000809788
0.000568159
-0.00452481
-0.000770026
0.000402209
-0.00440767
-0.000961181
0.000329562
-0.00392803
-0.00140953
0.000161172
-0.0035613
-0.0015857
-9.71805e-05
-0.00301729
-0.000481359
0.000785928
-0.00521408
-0.000450594
0.00064245
-0.00514779
-0.000488654
0.000378075
-0.00509767
-0.000709551
8.17103e-05
-0.00489362
-0.0010679
-0.000125858
-0.00391826
-0.00158132
-0.000156398
-0.00289478
-0.000486025
0.000500645
-0.00573636
-0.000546405
0.000536555
-0.00559317
-0.000496406
0.000555849
-0.00544463
-0.000437356
0.000355489
-0.00537499
-0.000371092
0.000131302
-0.00519903
-0.00121066
-8.16387e-05
-0.00431252
-0.00179621
-9.44301e-05
-0.00323439
-0.000536386
0.000725435
-0.0063837
-0.000570894
0.000333044
-0.00641141
-0.00037062
0.000595005
-0.005826
-8.10263e-05
0.000978808
-0.00550745
-4.01313e-06
0.000826254
-0.00589063
8.32262e-07
0.000310702
-0.00603672
-0.00133734
0.000148485
-0.00467912
-0.00179453
0.000219398
-0.00347127
-0.000760298
0.000399338
-0.00627116
-0.000642008
0.000693756
-0.00601837
-0.000487686
0.00137367
-0.00552773
-0.000147467
0.00168839
-0.00562455
-2.79773e-06
0.0015335
-0.00650088
0.000517295
0.00115645
-0.00704496
-0.00020473
0.00101924
-0.00745798
-0.00149792
0.000689766
-0.00660261
-0.00169094
0.00021906
-0.0038287
-0.000633333
0.000774154
-0.00669308
-0.000908657
0.00111819
-0.0062628
-0.000815625
0.00122977
-0.00575529
-0.000225723
0.00138305
-0.00569103
0.000162014
0.00130755
-0.00542141
0.000399423
0.00135426
-0.0056606
0.000766863
0.00129798
-0.00648188
9.88023e-05
0.00107398
-0.00777995
-0.000845776
0.00104775
-0.00673536
-0.0014968
0.00019107
-0.00558977
-0.000564185
0.00072349
-0.00676734
-0.000774313
0.000761488
-0.00647144
-0.000990539
0.000886149
-0.0057312
-0.000631515
0.000953394
-0.00544303
-0.000411601
0.000877044
-0.00499864
-9.1309e-05
0.00080158
-0.00512415
0.000501893
0.000649897
-0.00523252
0.000591959
0.000786157
-0.00590853
0.000254826
0.00104905
-0.00792141
-0.000466921
0.000735812
-0.00774932
-0.00120492
0.000392198
-0.00577862
-0.000271776
0.00034537
-0.0060726
-0.000591758
0.000442437
-0.00579229
-0.000775466
0.000424062
-0.00535098
-0.000716001
0.000403322
-0.00463577
-0.000499251
0.000287327
-0.00433958
-0.00027679
0.000257675
-0.00401733
-9.84647e-05
0.000316279
-0.00404902
0.000328449
0.00017139
-0.00455299
0.00037038
0.000444556
-0.00422558
0.000438394
0.000931979
-0.00706943
3.53874e-05
0.00100804
-0.00806161
-0.00106471
0.000418134
-0.00747274
-0.000346359
0.00011316
-0.00417356
-0.000356587
0.000101103
-0.00462622
-0.000382032
0.000167303
-0.00441223
-0.000498817
0.000177791
-0.00356474
-0.000457408
0.000178372
-0.00287811
-0.000280042
0.000123915
-0.00274657
-0.00024846
0.000136534
-0.00270221
0.000115645
0.000125906
-0.00214946
5.5638e-05
9.1822e-05
-0.00232501
0.00012287
-0.000151748
-0.00327304
3.45493e-05
-0.000159962
-0.00257147
0.000366589
6.05629e-05
-0.00315755
-0.000599792
-0.000100486
-0.00653143
-0.00028051
4.87989e-05
-0.00188789
-0.000292659
8.67307e-05
-0.00237278
-0.000273893
6.24886e-05
-0.00255565
-0.000238395
3.11974e-05
-0.00219525
-0.000233468
1.67441e-05
-0.00161192
-0.000155086
1.09899e-05
-0.00106641
-4.80729e-05
3.54805e-06
-0.00100127
4.93688e-05
8.76043e-06
-0.00100534
0.000101278
2.14075e-05
-0.000999025
4.53372e-05
1.91092e-05
-0.000717833
-5.29052e-06
1.7592e-05
-0.00149294
-8.62651e-05
-7.65346e-05
-0.00114178
0.000249615
-8.18065e-05
-0.000508394
-0.000302269
4.36877e-05
-0.00303991
-0.000151442
-1.21801e-05
-0.000764477
-0.000140207
-1.49482e-05
-0.000959372
-9.22484e-05
-5.03315e-05
-0.00119496
-4.80015e-05
-7.8596e-05
-0.000514963
-4.59234e-05
-8.64163e-05
0.000159482
-3.28104e-05
-7.90861e-05
0.000348029
-8.16063e-06
-6.939e-05
0.000558919
1.1826e-05
-6.32942e-05
0.000581854
5.24627e-06
-6.39756e-05
0.000605006
3.58552e-05
-5.43453e-05
0.000526848
1.99365e-05
-4.91474e-05
0.000143491
8.69896e-06
-5.66199e-05
0.000142583
-1.98419e-05
-5.45151e-05
-0.000544737
-7.90387e-06
-4.52274e-05
-0.000485128
-6.41645e-05
-1.23741e-05
-0.000594788
-0.0017604
-4.94402e-05
-0.00226309
-0.00148002
-3.104e-05
-0.0031648
-0.00182205
1.70358e-05
-0.00236233
-0.00127165
0.000144522
-0.00351653
-0.00141847
6.26873e-05
-0.00337179
-0.00176669
1.04032e-05
-0.00282228
-0.000917097
0.000318397
-0.00357884
-0.000967136
0.000235861
-0.00349798
-0.00143104
5.44875e-05
-0.00335541
-0.00164315
5.3616e-05
-0.00276356
-0.000886858
0.000570466
-0.00398477
-0.000713664
0.000371984
-0.00368237
-0.00109746
0.000320779
-0.00339559
-0.00158525
0.000262786
-0.00296663
-0.00167442
0.000147001
-0.00265877
-0.000705558
0.00070288
-0.00463053
-0.000766336
0.000639282
-0.00444614
-0.000754415
0.000439872
-0.00425222
-0.00111421
0.000439036
-0.00380124
-0.00148677
0.000202936
-0.00344255
-0.00153682
-6.59937e-05
-0.00299579
-0.000457241
0.00080391
-0.00509994
-0.000618528
0.000830788
-0.0053303
-0.000529197
0.000586522
-0.00532345
-0.000625446
0.000362695
-0.00519056
-0.000699488
7.44509e-05
-0.00476553
-0.00120122
-0.000206142
-0.00387795
-0.00165221
-0.000144262
-0.00289451
-0.000578964
0.00057913
-0.00604066
-0.00056142
0.000550696
-0.00575997
-0.000294603
0.000620219
-0.00573356
-0.000310676
0.000607135
-0.00546663
-0.000318033
0.000349295
-0.00527897
-0.000339702
0.000108803
-0.00504894
-0.00129799
-0.000104089
-0.00434221
-0.00181797
-0.000136639
-0.00307431
-0.000426835
0.000707103
-0.00633647
-0.000398055
0.000360477
-0.00665509
-0.000433383
0.000414228
-0.00628494
-0.000127181
0.000873128
-0.00574061
-3.312e-05
0.000990766
-0.00564164
0.00025913
0.000893886
-0.00621565
-0.000259491
0.000272774
-0.00610625
-0.00144187
0.000210661
-0.00472643
-0.00187052
0.00024008
-0.00353177
-0.000728197
0.000444425
-0.00631928
-0.000742507
0.000454366
-0.00619792
-0.000657883
0.00115994
-0.00596239
-0.000220058
0.00164757
-0.00549257
0.000150667
0.0016155
-0.00569521
0.000303346
0.00143691
-0.00668527
0.000401384
0.00111475
-0.006775
-0.000311207
0.00107269
-0.00743089
-0.00152335
0.000410338
-0.00611632
-0.0018219
0.000357607
-0.00386121
-0.000502408
0.000797207
-0.00686231
-0.000685336
0.000946372
-0.00661025
-0.000882234
0.00102071
-0.00616205
-0.000687792
0.00142741
-0.00574338
-0.000401022
0.00126904
-0.00566311
-0.000109991
0.00128807
-0.00533654
0.000592528
0.00135773
-0.00581099
0.000578841
0.00127581
-0.00667059
-3.71841e-06
0.00105549
-0.00752914
-0.000890135
0.000654945
-0.00677602
-0.00175384
0.000170047
-0.0052109
-0.000174939
0.000741441
-0.00678247
-0.000626871
0.000715408
-0.00668615
-0.000813728
0.000845053
-0.00639208
-0.00091479
0.000971453
-0.00555047
-0.000713303
0.000891942
-0.00524387
-0.000267422
0.00083869
-0.00504511
-3.92788e-05
0.00074953
-0.00528297
0.000418231
0.00052355
-0.00505969
0.000448172
0.000848333
-0.0057856
0.000146894
0.00100845
-0.00790255
-0.000383924
0.000840704
-0.00777851
-0.00142373
0.000399538
-0.00581914
-0.000270468
0.000296095
-0.00572244
-0.000361987
0.000316317
-0.00594108
-0.000510678
0.000402343
-0.00564192
-0.000735358
0.000424084
-0.00513521
-0.000660991
0.000365813
-0.00451067
-0.000362986
0.000216788
-0.00421574
-0.000243645
0.000284873
-0.00399074
0.000161005
0.000293408
-0.0042164
9.30106e-05
0.00019826
-0.00434407
0.000342528
0.000497809
-0.00401107
0.000460889
0.000924418
-0.00741215
-3.83889e-05
0.000918391
-0.00815689
-0.0010784
0.000354442
-0.00734857
-0.000277237
0.000103421
-0.00358551
-0.000363754
9.74088e-05
-0.00409877
-0.000402887
7.40562e-05
-0.00440398
-0.000428412
0.000142423
-0.00418684
-0.000427108
0.000150644
-0.00334337
-0.000381334
0.000177882
-0.00270583
-0.000176342
0.000138848
-0.00262062
-7.65017e-05
0.000187353
-0.00263779
0.000202913
5.97119e-05
-0.00221899
0.000101397
2.51814e-05
-0.002558
0.000135237
-0.000241063
-0.00333247
-1.44069e-05
-4.68252e-05
-0.00253594
0.000492446
2.485e-05
-0.00352572
-0.000625494
-0.000117643
-0.00609056
-0.000287187
1.17381e-05
-0.00155304
-0.000286104
5.24396e-05
-0.00170771
-0.000302585
7.77606e-05
-0.00217771
-0.00029595
5.94033e-05
-0.00233591
-0.000295542
1.63991e-05
-0.00194528
-0.000253359
7.84177e-06
-0.00138822
-0.00012314
8.14516e-06
-0.00095603
-2.47378e-05
2.0869e-06
-0.000958037
-5.16814e-06
2.87081e-06
-0.000976385
0.000148765
1.15979e-05
-0.00110442
4.88585e-05
-4.24649e-06
-0.000724916
3.15315e-05
-2.87583e-05
-0.00156355
-9.1104e-05
-0.000105075
-0.00104725
0.000220343
-8.04466e-05
-0.000612507
-0.000298939
3.14289e-05
-0.00283657
-0.000163002
-2.44795e-05
5.19211e-05
-0.000156143
-9.91672e-06
-0.000613366
-0.00013881
-1.61231e-05
-0.00085477