/*--------------------------------*- C++ -*----------------------------------*\
  =========                 |
  \\      /  F ield         | OpenFOAM: The Open Source CFD Toolbox
   \\    /   O peration     | Website:  https://openfoam.org
    \\  /    A nd           | Version:  7
     \\/     M anipulation  |
\*---------------------------------------------------------------------------*/
FoamFile
{
    version     2.0;
    format      ascii;
    class       volVectorField;
    location    "9";
    object      U;
}
// * * * * * * * * * * * * * * * * * * * * * * * * * * * * * * * * * * * * * //

dimensions      [0 1 -1 0 0 0 0];

internalField   nonuniform List<vector> 
18750
(
(0.970872 -0.215518 -0.128526)
(1.87926 0.11771 0.864536)
(0.69326 0.101936 -0.5731)
(0.920836 -0.336593 -0.0575077)
(4.41915 -0.553348 1.27342)
(0.483377 0.0226387 0.573085)
(2.0166 -0.19606 0.763228)
(0.785998 0.364321 -0.554262)
(0.677844 0.0788933 -0.634924)
(0.908449 -0.245417 0.00339357)
(5.56098 2.99877 0.315668)
(2.01952 -0.712515 1.65964)
(4.24878 -0.739875 1.41095)
(0.736778 0.0791945 0.323435)
(0.494109 0.0597697 0.665098)
(2.10711 0.115812 1.04745)
(0.0208646 -0.00170292 -1.15503)
(0.784007 0.353166 -0.558728)
(0.661332 0.0589959 -0.700932)
(0.90224 -0.14857 0.0790664)
(2.90622 5.56207 -1.36726)
(3.94478 0.599359 2.90289)
(4.95549 3.62148 -0.495498)
(1.94266 -0.717476 0.542608)
(1.8014 -0.810073 1.81033)
(4.03955 -1.40063 1.62197)
(0.934776 0.128056 0.605103)
(0.804762 0.0546842 0.407955)
(0.512373 0.0767677 0.814128)
(2.20901 0.115749 1.33218)
(-0.219912 -0.0287688 -1.03641)
(0.00943528 0.0147332 -1.1529)
(0.771147 0.32653 -0.59753)
(0.669278 0.0568939 -0.753716)
(0.837007 -0.261173 0.125869)
(3.43403 2.91182 -0.316183)
(5.114 -1.97784 4.05552)
(3.69271 4.86549 -1.16537)
(3.36928 -0.225762 1.14867)
(4.07441 0.0573325 3.379)
(5.04229 2.7844 -0.651017)
(1.22236 -0.266359 0.68671)
(1.82684 -0.828564 0.264082)
(1.7106 -0.896522 1.86355)
(3.7427 -2.31101 1.87801)
(0.67197 0.146541 0.448097)
(0.927426 0.0935278 0.72168)
(0.867708 0.0762614 0.415205)
(0.505755 0.0933151 1.03388)
(2.4726 -0.216802 1.44219)
(-0.377055 0.232983 -1.05926)
(-0.216808 -0.03347 -1.02152)
(-0.00205229 0.032971 -1.17427)
(0.750177 0.303462 -0.709938)
(0.624297 0.0158453 -0.776101)
(0.773053 -0.302909 0.154197)
(3.93103 1.81279 0.56639)
(5.38925 -0.487639 1.6146)
(4.11819 2.04736 -0.265061)
(4.25158 -2.19247 2.5064)
(5.64957 -2.17615 3.20613)
(3.82706 3.77966 -0.859593)
(2.69611 -0.807569 1.5218)
(3.308 -0.8226 1.09102)
(3.8631 -2.02426 4.05331)
(4.76441 2.10309 -0.852497)
(1.46707 -0.171124 0.13602)
(1.31646 -0.155119 0.694979)
(1.82892 -0.847538 0.0370527)
(1.58345 -1.1642 1.96148)
(3.93473 -2.08498 1.63733)
(0.69478 -0.227443 0.259933)
(0.656784 0.0295578 0.465187)
(0.933177 0.0765167 0.854187)
(0.947568 0.0989311 0.307077)
(0.493989 0.0430905 1.20271)
(2.62762 -0.0597573 1.54632)
(-0.284998 0.293193 -1.41774)
(-0.371629 0.24025 -1.04769)
(-0.211419 -0.033614 -1.023)
(-0.0104262 0.0572562 -1.17508)
(0.761255 0.357805 -0.752123)
(0.581143 -0.0122693 -0.788048)
(0.722039 -0.338467 0.156815)
(3.01165 2.05972 -0.535254)
(3.99623 1.08631 0.381392)
(4.12175 1.64898 0.635831)
(4.91619 -1.74118 1.59264)
(5.3456 -0.218462 1.07658)
(4.41577 1.18317 0.152529)
(2.12218 -2.09875 3.11089)
(4.14316 -3.07527 2.16822)
(5.93286 -1.76175 2.13638)
(4.02542 2.34534 -0.299368)
(2.61022 -0.155262 1.24502)
(2.66274 -0.93086 1.42088)
(3.0997 -2.06865 1.55693)
(3.59085 -2.97143 4.22409)
(4.43461 0.897633 -0.43292)
(1.86783 0.194234 0.0444598)
(1.32905 -0.415854 0.475067)
(1.34037 -0.23488 0.720566)
(1.87019 -0.939374 -0.424738)
(1.41679 -1.36983 2.06475)
(4.27379 -1.79602 1.10465)
(0.973333 0.147874 0.0777444)
(0.655563 -0.303304 0.281339)
(0.627036 -0.0494543 0.511529)
(0.969624 0.148502 0.921429)
(0.979249 0.0675088 0.200026)
(0.4915 0.0726074 1.26565)
(2.66171 -0.348365 1.42308)
(-0.356093 0.194658 -1.39441)
(-0.288898 0.289238 -1.39898)
(-0.365685 0.232187 -1.03815)
(-0.218593 -0.0309306 -1.02096)
(-0.0178124 0.0802925 -1.17184)
(0.785745 0.410474 -0.792183)
(0.566058 -0.0501813 -0.796309)
(0.687944 -0.325512 0.179192)
(2.47424 1.70916 -0.0759168)
(3.67258 1.07691 0.386691)
(2.83609 2.37565 -0.509554)
(4.80195 -0.357348 0.938214)
(3.81166 0.466367 0.712719)
(4.29659 1.25673 0.664389)
(4.1868 -1.13851 2.5561)
(4.6187 -1.90348 1.34177)
(5.51435 0.437052 0.110221)
(4.52799 0.146513 0.797269)
(3.04995 -0.606002 1.93499)
(2.15822 -2.0384 3.11063)
(4.17012 -3.26367 1.79359)
(5.63644 -1.51114 1.77568)
(4.26187 1.10443 0.173843)
(3.03068 0.461486 0.912253)
(2.55349 -0.150738 1.14413)
(3.17408 -0.809972 0.576202)
(2.78882 -2.50585 2.51861)
(3.88102 -2.60364 3.24972)
(4.18326 -0.322837 0.14954)
(2.28372 0.597346 0.261305)
(1.7757 0.0457404 -0.00178658)
(1.26912 -0.433339 0.23791)
(1.27478 -0.563437 0.764465)
(1.98679 -0.815452 -0.475385)
(1.26691 -1.43612 2.22299)
(4.45254 -1.8258 0.304533)
(1.12096 0.326128 -0.0479763)
(0.913704 0.0875237 0.0956912)
(0.580932 -0.432019 0.2908)
(0.582174 -0.145651 0.557764)
(0.998505 0.194218 0.970113)
(0.943092 -0.0927693 0.024539)
(0.440666 0.0426303 1.11463)
(2.78067 -0.394502 1.25696)
(-0.229184 0.299705 -1.56957)
(-0.361738 0.18552 -1.37601)
(-0.300051 0.282017 -1.38926)
(-0.351682 0.223299 -1.03047)
(-0.21163 -0.033529 -1.02904)
(-0.0531596 0.0682864 -1.20205)
(0.769786 0.373531 -0.917209)
(0.534589 -0.0709569 -0.802246)
(0.640378 -0.325738 0.200005)
(2.05452 1.88081 0.111472)
(3.16683 1.51435 -0.121259)
(2.58101 1.58573 -0.1329)
(3.75299 0.829093 -0.10146)
(3.49551 0.580471 0.314452)
(2.97348 2.15098 -0.469858)
(4.44802 -0.62476 1.66338)
(4.4774 -0.752674 0.93796)
(3.84287 0.227233 0.647821)
(4.25499 0.975839 0.54028)
(3.11737 -1.7375 2.94289)
(4.26384 -1.3066 2.4649)
(4.42637 -1.96756 1.36486)
(5.50173 0.379895 -0.0496866)
(4.40286 -0.779825 1.17029)
(3.63478 0.322178 1.8203)
(3.22479 -0.384181 2.24334)
(1.95653 -3.36147 2.69559)
(4.1061 -3.25815 2.03533)
(5.46944 -1.51539 1.62038)
(4.25522 0.346783 0.199503)
(3.17957 1.226 0.805513)
(3.09421 0.430368 1.00004)
(2.53705 -0.650984 1.15554)
(3.22455 -1.35185 0.423267)
(2.58181 -2.63306 3.06942)
(4.10098 -2.28629 2.82007)
(4.07757 -0.73191 0.133805)
(2.57339 1.07576 0.620194)
(2.22622 0.298469 0.147459)
(1.70447 -0.0277798 0.0127066)
(1.21888 -0.473642 0.28115)
(1.571 -0.269036 0.731482)
(2.16564 -0.53776 -0.225684)
(1.20265 -1.46854 2.30343)
(4.66295 -2.0024 0.137231)
(1.33423 0.541155 0.153947)
(1.04258 0.236832 -0.0130778)
(0.859607 -0.0428952 -0.00776888)
(0.5261 -0.487705 0.297934)
(0.540396 -0.206289 0.575571)
(1.01567 0.151814 1.01566)
(0.852432 -0.291284 -0.17606)
(0.380651 -0.0439507 0.816925)
(2.85552 -0.386076 1.19133)
(-0.0583538 0.0703096 -1.91585)
(-0.24554 0.273271 -1.51951)
(-0.370925 0.167977 -1.36246)
(-0.298282 0.281816 -1.38245)
(-0.344584 0.235359 -1.01286)
(-0.211279 -0.038236 -1.03244)
(-0.0811466 0.0369235 -1.24549)
(0.750874 0.326663 -1.02084)
(0.456705 -0.109448 -0.88318)
(0.575618 -0.350705 0.209512)
(2.15394 1.32921 -0.0955954)
(2.49354 1.70674 0.147508)
(2.26063 1.75292 0.0547509)
(3.31121 0.395814 0.374095)
(3.02877 1.58454 -0.0653591)
(2.64948 1.41419 -0.0816218)
(4.00777 -0.0765378 0.384625)
(3.6807 0.390764 0.0336272)
(3.34914 0.1644 0.41521)
(2.97607 2.02436 -0.430136)
(4.23628 -0.662143 2.02201)
(4.44089 -1.14517 1.87157)
(4.33911 -0.650796 0.851085)
(4.03436 0.00219022 0.0935207)
(4.08802 1.0671 0.55712)
(3.71107 0.0369537 2.54326)
(3.25824 -1.47262 2.88384)
(4.11981 -1.77767 2.3997)
(4.50142 -1.96436 1.58287)
(5.35939 0.216551 -0.244369)
(4.32638 -1.2761 1.1294)
(3.71545 1.39794 1.7382)
(3.63639 0.258966 1.98149)
(2.98063 -0.792799 2.75642)
(2.13316 -3.37588 2.17413)
(3.94576 -3.46462 2.60935)
(5.79559 -0.919516 1.09607)
(4.05042 -0.761932 0.123503)
(3.53097 1.1569 1.38464)
(3.21408 0.00105234 0.741572)
(2.30639 -0.863878 2.03055)
(2.50688 -1.26732 1.07116)
(2.9999 -1.94475 0.587879)
(2.81512 -2.50522 3.29866)
(3.76651 -2.72263 3.10892)
(4.31421 -1.64608 -0.519637)
(2.84374 0.991774 1.0061)
(2.5281 0.796058 0.660469)
(2.23538 0.0981778 0.072412)
(1.62529 -0.209736 0.0795886)
(1.23143 -0.545424 0.34786)
(1.56719 -0.603252 0.754619)
(2.2781 -0.320615 0.0672211)
(1.16432 -1.51074 2.22231)
(4.71615 -2.2808 0.440047)
(1.75027 0.738357 0.073787)
(1.25648 0.442505 0.16667)
(0.977056 0.11978 0.0451176)
(0.799743 -0.11904 -0.0180726)
(0.443921 -0.567031 0.316206)
(0.47832 -0.276886 0.565636)
(1.00114 0.0834421 1.02667)
(0.71169 -0.491574 -0.365257)
(0.282447 -0.109581 0.636498)
(2.88428 -0.393592 1.09031)
(0.0792779 0.225439 -2.10318)
(-0.0858181 0.0777284 -1.83788)
(-0.266723 0.240895 -1.4813)
(-0.372397 0.169414 -1.34919)
(-0.305719 0.272517 -1.37752)
(-0.353139 0.191207 -1.00072)
(-0.209309 -0.048494 -1.03683)
(-0.119426 0.0116738 -1.29425)
(0.735538 0.274617 -1.10112)
(0.446459 -0.138557 -0.9164)
(0.537063 -0.323602 0.235009)
(1.94572 1.2649 -0.0309244)
(2.51344 0.637512 -0.0840142)
(2.2341 1.24788 -0.0664456)
(3.20041 0.691783 0.152053)
(2.63279 1.24493 0.192155)
(2.3696 1.57906 0.0495981)
(3.4437 0.247208 0.282314)
(3.3148 0.201711 0.32543)
(3.35591 0.545176 -0.254969)
(2.7063 1.21928 -0.0838456)
(4.05474 -0.180287 0.635967)
(3.87256 0.0878821 0.57367)
(3.64429 0.0612166 0.0740513)
(3.25292 -0.0587471 0.464389)
(3.00626 1.83421 -0.281488)
(3.81239 -0.287526 2.81636)
(3.62545 -1.57208 2.57204)
(4.36619 -1.5138 2.03624)
(4.35666 -0.899954 0.797121)
(4.32911 0.0772066 -0.190563)
(3.85436 1.10461 0.731281)
(3.94668 0.39816 2.33645)
(3.66212 -0.102756 2.59543)
(3.44058 -1.1093 3.07268)
(3.80865 -2.31532 2.37188)
(4.33209 -2.65886 1.99228)
(5.47988 0.1944 -0.00812298)
(4.20093 -1.36787 0.852594)
(3.97593 1.67806 1.78874)
(3.69207 0.744901 1.84833)
(3.44211 -0.142102 2.21288)
(3.04164 -1.0704 2.51632)
(2.25559 -3.49248 1.67924)
(3.29546 -4.30249 2.69783)
(5.81531 -0.732372 0.467984)
(3.78718 -1.00959 0.0887638)
(3.79696 1.27889 1.66533)
(3.48385 0.679808 1.36058)
(2.97264 0.465246 1.08404)
(2.72004 -0.0417487 0.716538)
(2.3736 -1.78293 0.560036)
(3.09595 -1.75787 1.43936)
(3.0168 -2.9506 3.3404)
(3.11794 -3.61259 3.7001)
(4.98191 -0.974625 -1.54549)
(3.11865 1.05227 0.644243)
(2.62956 1.09604 0.968975)
(2.47888 0.511377 0.622416)
(2.14927 0.0330543 0.607549)
(1.48194 -0.401838 1.9637e-05)
(1.22402 -0.537435 0.372752)
(1.62357 -0.707476 0.456214)
(2.319 -0.313121 -0.0687181)
(1.13223 -1.73652 1.93944)
(4.82818 -2.12789 0.0477465)
(1.93051 0.853935 0.160761)
(1.66362 0.731717 0.0858462)
(1.17042 0.338741 0.193889)
(0.901042 0.015066 0.086272)
(0.735499 -0.200095 0.0954084)
(0.411899 -0.594881 0.329482)
(0.416596 -0.324893 0.527024)
(0.924981 -0.130597 0.940085)
(0.516054 -0.772754 -0.673164)
(0.180929 -0.197908 0.429769)
(2.91233 -0.445891 0.955343)
(0.466565 0.19541 -2.14686)
(0.0383883 0.17869 -2.04697)
(-0.119507 0.0843016 -1.77575)
(-0.28935 0.211179 -1.45127)
(-0.390985 0.132143 -1.34451)
(-0.299705 0.283535 -1.36648)
(-0.359237 0.173057 -1.00104)
(-0.208039 -0.0517287 -1.04575)
(-0.121044 0.0134401 -1.2792)
(0.725136 0.233915 -1.12757)
(0.415249 -0.153553 -0.93682)
(0.490179 -0.307693 0.258312)
(1.74658 1.42302 0.0764416)
(2.15945 1.44868 0.253887)
(1.98223 1.17712 0.0387341)
(2.70826 0.449364 0.172988)
(2.6657 0.349561 0.0142217)
(2.31954 0.942959 -0.111728)
(3.30664 0.258876 0.469867)
(3.29586 0.214013 0.165173)
(3.02128 0.245642 -0.148103)
(2.48307 1.35991 0.103117)
(3.59386 0.193248 0.529225)
(3.48954 -0.0871098 0.227027)
(3.38091 -0.39519 0.237686)
(3.16436 0.78141 -0.240821)
(2.76852 1.03754 -0.0721827)
(4.13154 0.443519 0.642614)
(3.76804 -0.463946 0.844007)
(3.7729 -0.722258 0.8175)
(3.63568 -0.398362 0.048941)
(3.24762 -0.159114 0.443943)
(3.09965 1.43888 -0.127786)
(3.95658 0.703962 2.50978)
(3.81307 -0.231586 2.01614)
(3.93522 -1.02451 2.07505)
(4.29399 -1.88749 1.9203)
(4.4873 -1.7073 0.779442)
(4.75261 0.446273 0.157775)
(3.68344 0.853649 0.80901)
(4.22697 1.26008 1.79786)
(3.81779 0.0477417 2.43015)
(3.54639 -0.497412 2.63611)
(3.39873 -1.42066 3.02529)
(3.38794 -3.34346 1.92701)
(3.92995 -3.20954 2.1625)
(5.5341 -0.0930611 0.0583629)
(4.10244 -1.11519 0.377712)
(4.2737 1.6893 1.69782)
(3.82759 1.11679 2.19383)
(3.62534 0.850165 1.83794)
(3.45311 -0.248757 2.1631)
(2.8184 -1.47447 2.06981)
(2.48804 -3.53662 1.43148)
(3.47055 -4.31578 2.63433)
(5.29158 -1.39854 0.263142)
(3.69929 -1.41637 0.281579)
(3.96955 1.23886 1.33638)
(3.66969 1.10355 1.66941)
(3.43834 0.606442 1.10356)
(2.91829 -0.132141 1.10154)
(2.63641 -0.292176 0.969695)
(2.31518 -1.8261 0.285009)
(2.73341 -2.3615 1.77867)
(2.6469 -4.0079 3.27238)
(3.2025 -3.87722 3.87143)
(5.64185 -0.893232 -1.2924)
(3.36897 0.577528 0.21408)
(3.06176 1.09077 0.728796)
(2.60712 0.828343 0.795373)
(2.3812 0.366013 0.501676)
(2.09733 -0.161662 0.418372)
(1.33419 -0.565262 0.115073)
(1.20419 -0.554306 0.385126)
(1.53295 -1.18876 -0.667266)
(2.299 -0.239723 -0.276762)
(0.918965 -1.97163 1.54632)
(4.50801 -2.4821 0.0710724)
(2.0679 0.944415 0.396132)
(1.90485 0.774868 0.165625)
(1.55679 0.690495 0.0839618)
(1.08027 0.312426 0.100789)
(0.811812 -0.071982 0.0421784)
(0.642724 -0.298849 0.188646)
(0.324271 -0.705072 0.317435)
(0.346135 -0.376027 0.451715)
(0.863788 -0.347808 0.69762)
(0.422838 -0.811569 -0.804916)
(0.0836601 -0.266759 0.193921)
(2.82963 -0.528912 1.04556)
(0.961203 0.680096 -1.3087)
(0.438825 0.0846164 -2.0866)
(0.0155586 0.146445 -1.97319)
(-0.152224 0.0849009 -1.72559)
(-0.306567 0.195631 -1.42857)
(-0.372564 0.158707 -1.33552)
(-0.310797 0.274795 -1.3634)
(-0.363272 0.148714 -1.00631)
(-0.209358 -0.063188 -1.06518)
(-0.120909 0.0288924 -1.27044)
(0.693918 0.169559 -1.14128)
(0.332897 -0.19547 -0.955635)
(0.440106 -0.293419 0.273394)
(1.96531 1.03278 -0.0518959)
(2.19685 0.95579 0.0429098)
(1.871 1.26215 0.134023)
(2.30465 0.819726 0.335098)
(2.32156 1.12013 -0.17229)
(2.01703 1.1123 0.0284711)
(2.98293 0.217747 0.263609)
(2.74063 0.141682 0.276826)
(2.60149 0.297107 -0.126698)
(2.38775 0.679175 -0.0683412)
(3.26951 0.265076 0.570771)
(3.2933 0.0531043 0.463223)
(3.36118 -0.189191 -0.0223596)
(2.7988 0.36838 -0.0341075)
(2.54492 1.20472 -0.0397626)
(3.6428 0.284255 0.690933)
(3.59412 -0.1478 0.545395)
(3.53512 -0.456819 0.14052)
(3.47226 -0.774315 0.193916)
(3.23826 0.0711565 -0.231123)
(2.88047 0.842384 -0.0160093)
(4.3157 0.207384 0.599511)
(4.05132 0.298602 0.668897)
(3.62749 -0.590754 0.939493)
(3.72342 -0.779402 0.868865)
(3.53807 -1.20557 -0.252944)
(3.36075 0.098683 0.466302)
(3.18869 1.18184 -0.00571155)
(4.2051 0.989162 1.2612)
(4.05015 0.388613 1.94373)
(3.66732 -0.397231 2.53438)
(3.84903 -1.69876 2.37389)
(4.08643 -2.42848 1.7202)
(4.53996 -2.052 1.21362)
(5.09939 0.483481 0.506275)
(3.65914 0.647649 0.700119)
(4.32559 0.999142 1.60971)
(4.11581 0.634522 2.41926)
(3.78334 -0.468092 2.56429)
(3.59045 -0.645671 2.58497)
(3.24924 -2.00058 2.76237)
(3.10485 -3.48781 2.12143)
(3.90734 -3.24364 2.05231)
(5.16189 0.105695 -1.01082)
(4.29632 -0.834401 0.151193)
(4.48195 1.11285 1.71225)
(4.30389 1.535 1.93885)
(3.93556 0.927495 1.87971)
(3.55851 -1.07442 1.95579)
(2.78306 -1.79936 2.34869)
(2.64908 -1.99432 1.78719)
(2.61154 -3.26036 1.99583)
(3.83574 -3.82562 2.65908)
(4.78526 -2.41296 0.937854)
(3.91338 -1.15829 0.335396)
(4.08826 0.915037 1.54413)
(4.07943 1.2 1.37328)
(3.60292 1.18162 1.25323)
(3.33432 0.356073 1.00062)
(2.80189 -0.409646 1.16219)
(2.63627 -0.574534 1.10554)
(2.73727 -1.39524 -0.101318)
(2.19799 -2.33734 2.37768)
(2.4494 -4.3386 3.35297)
(3.32305 -4.11558 3.82988)
(5.97904 -1.07442 -1.25218)
(3.19786 0.966077 0.591731)
(3.30934 0.673326 0.537992)
(2.79025 1.03892 1.02233)
(2.43703 0.920393 0.647702)
(2.23024 0.256251 0.386522)
(1.99544 -0.288374 0.586157)
(1.22284 -0.671491 0.132001)
(1.12777 -0.761603 0.470327)
(1.46761 -1.43774 -1.30769)
(2.21261 -0.233089 -0.35088)
(0.688709 -2.21273 1.16243)
(4.06467 -2.87142 0.179849)
(1.83488 1.23323 0.820201)
(2.00529 0.939997 0.293375)
(1.80984 0.72892 0.276999)
(1.47811 0.581001 0.0826307)
(0.968692 0.199065 0.113686)
(0.71514 -0.18852 -0.0124851)
(0.572353 -0.355421 0.149011)
(0.243672 -0.801825 0.279524)
(0.307744 -0.396157 0.328826)
(0.794102 -0.542246 0.414819)
(0.370665 -0.81105 -0.920045)
(0.0562112 -0.307642 0.0421453)
(2.8109 -0.584072 0.875404)
(0.816135 1.0917 -0.534584)
(0.944474 0.583486 -1.34838)
(0.402 -0.0156556 -2.02074)
(-0.0181154 0.123819 -1.90317)
(-0.185033 0.0802737 -1.6846)
(-0.347001 0.148033 -1.41428)
(-0.402835 0.125226 -1.32917)
(-0.305292 0.266226 -1.37302)
(-0.365565 0.125245 -1.01482)
(-0.220474 -0.0865772 -1.09869)
(-0.114712 0.0416747 -1.26105)
(0.665131 0.112968 -1.14837)
(0.292655 -0.215704 -0.938623)
(0.385851 -0.278661 0.286491)
(1.68379 1.1798 0.0543977)
(2.22096 1.03975 0.0056413)
(2.03921 0.915419 -0.0180712)
(2.27018 0.808429 0.0804313)
(2.30539 0.727092 0.0758933)
(1.96708 1.12974 0.189868)
(2.42438 0.43446 0.46655)
(2.41372 0.551512 0.315082)
(2.24208 1.15673 0.212365)
(2.09186 1.0111 0.00308234)
(3.00034 0.392953 0.484718)
(2.95325 0.187431 0.237703)
(2.74986 0.100248 0.349915)
(2.56376 0.306921 -0.124961)
(2.34743 0.651585 -0.0522326)
(3.42154 0.108151 0.777273)
(3.3824 -0.0952021 0.540838)
(3.36687 -0.407877 0.336122)
(3.28334 -0.429144 -0.212898)
(2.91485 0.120777 -0.157937)
(2.64035 0.969303 -0.150564)
(3.78163 0.214514 0.523196)
(3.64233 0.0200283 0.677797)
(3.58059 -0.25391 0.608548)
(3.46907 -0.750832 0.172721)
(3.28498 -1.16453 0.116879)
(3.21746 0.282314 -0.216108)
(2.93476 0.893226 -0.0211049)
(4.05316 0.361213 0.913184)
(4.32444 0.0309256 0.577782)
(4.02253 -0.118023 0.94411)
(3.48445 -0.928997 1.15499)
(3.51161 -1.60869 1.10954)
(3.63512 -1.50996 -0.264545)
(3.56806 0.0586368 0.566698)
(3.27765 0.929194 -0.0246628)
(4.24262 1.04179 0.629758)
(4.2421 0.848295 1.43935)
(3.90409 0.102621 2.42136)
(3.71474 -0.925323 2.58698)
(3.99654 -1.5667 1.98879)
(3.97933 -2.61691 1.6677)
(4.4621 -2.18145 1.39912)
(5.13068 -0.21616 0.971952)
(3.71049 0.72025 0.444617)
(4.49696 0.734132 1.52133)
(4.26997 0.733303 2.15455)
(4.01891 0.348867 2.56832)
(3.76629 -0.624618 2.44325)
(3.47879 -0.94739 2.45547)
(2.99158 -2.44706 2.75774)
(2.79674 -3.72107 2.03566)
(4.02953 -3.23086 2.12995)
(4.10275 -2.38533 2.22543)
(4.63477 -0.464939 0.0663334)
(4.53666 0.856352 1.6276)
(4.46033 1.07076 1.83501)
(4.18433 1.18085 2.23008)
(3.87864 0.21809 2.01797)
(3.34331 -0.164786 2.1002)
(3.12134 -1.21866 1.688)
(2.68567 -2.37088 1.45584)
(2.86502 -2.90764 2.55575)
(3.85628 -3.78343 2.41653)
(4.64642 -2.55369 1.16101)
(4.21709 -1.21964 0.197916)
(4.06405 0.451195 1.12526)
(4.04683 0.843672 1.45518)
(3.94333 1.21133 1.23894)
(3.48736 0.836139 1.19618)
(3.16669 0.214718 0.795766)
(2.90297 -0.120817 0.953951)
(2.54197 -0.926025 1.03594)
(2.08391 -2.42032 -0.133823)
(1.71523 -2.44206 2.44308)
(2.52513 -4.37322 3.06194)
(3.29662 -4.44553 3.70447)
(5.92087 -1.37119 -1.32951)
(2.86616 1.13217 0.396198)
(3.24933 0.760657 0.512685)
(3.0725 0.412648 1.06486)
(2.75903 0.6858 0.725234)
(2.34095 0.548021 0.618315)
(2.03992 -0.0565241 0.434408)
(1.97357 -0.297294 0.589926)
(1.13726 -0.842434 0.134547)
(1.10709 -1.02492 0.58544)
(1.63489 -1.44939 -1.30644)
(2.22276 -0.190516 -0.284733)
(0.0849371 -2.86887 0.0466747)
(3.85584 -2.70541 -0.0197959)
(1.43496 1.65086 0.421789)
(1.79923 1.21899 0.776641)
(1.98358 0.820836 0.206042)
(1.76664 0.657271 0.26069)
(1.39728 0.525413 0.0790013)
(0.857126 0.10478 0.101548)
(0.606984 -0.314039 -0.0374054)
(0.498586 -0.443234 0.160857)
(0.156469 -0.910278 0.181712)
(0.291285 -0.406872 0.183948)
(0.740312 -0.662596 0.201162)
(0.314463 -0.804252 -0.9549)
(0.0951718 -0.31576 -0.14975)
(2.73021 -0.6157 0.832345)
(0.649867 1.4004 -0.146307)
(0.813517 1.03529 -0.562948)
(0.889677 0.289182 -1.46805)
(0.358501 -0.0949624 -1.9435)
(-0.0701825 0.106416 -1.83778)
(-0.217102 0.0801859 -1.64253)
(-0.362105 0.121636 -1.40327)
(-0.393636 0.095028 -1.34074)
(-0.308557 0.266543 -1.37684)
(-0.369326 0.106524 -1.02313)
(-0.244713 -0.119187 -1.14033)
(-0.101422 0.0542198 -1.25569)
(0.635372 0.0641703 -1.14713)
(0.343644 -0.170172 -0.875115)
(0.325466 -0.268264 0.289091)
(1.56898 0.940851 -0.0294243)
(2.11222 0.894786 -0.00204108)
(1.72825 1.11767 0.0169495)
(2.31394 0.690326 0.093774)
(2.3497 0.732598 0.00867151)
(2.09402 0.753466 -0.00971512)
(2.37508 0.462693 0.205931)
(2.39494 0.281619 0.17897)
(2.39861 0.544642 0.0683144)
(2.16204 0.748597 0.0317759)
(2.65721 0.532625 0.365352)
(2.46001 0.348294 0.315609)
(2.42079 0.544879 0.277627)
(2.35135 0.976205 0.189222)
(2.15395 0.831919 0.0309466)
(3.07576 0.255061 0.600624)
(2.97026 -0.0032374 0.537392)
(2.90309 0.00558893 0.289371)
(2.67249 0.239523 0.440844)
(2.57495 0.253926 -0.140981)
(2.38755 0.42197 -0.0145733)
(3.31268 0.187983 0.898481)
(3.49701 0.0230984 0.786619)
(3.46084 -0.280912 0.448729)
(3.42636 -0.28223 0.36219)
(3.24437 -0.422632 -0.0873294)
(2.8479 0.108214 -0.205174)
(2.63137 0.948644 -0.130399)
(3.98277 0.193885 0.640222)
(3.801 0.0630764 0.602832)
(3.66411 -0.741416 0.724809)
(3.47418 -0.944093 0.640401)
(3.38223 -1.00396 0.220792)
(3.01407 -1.46063 0.00800087)
(3.36825 0.217308 -0.227504)
(3.00556 0.833031 -0.0796873)
(4.05359 0.291076 0.96132)
(4.29689 -0.384041 0.345684)
(4.1435 -0.52455 0.747489)
(3.65949 -0.911717 1.44547)
(3.44489 -1.20205 1.21264)
(3.28348 -2.2989 1.07096)
(3.82921 -1.41967 -0.121831)
(3.68517 0.0668617 0.592759)
(3.36409 0.688313 -0.06704)
(4.15577 0.499037 0.648687)
(4.24667 0.914353 0.807304)
(4.15766 0.550087 1.94204)
(3.46583 -0.795826 2.86645)
(2.98829 -2.16131 2.73264)
(3.66039 -2.31881 2.03013)
(3.74237 -2.82569 1.79545)
(4.40409 -2.30803 1.32915)
(4.86313 -0.403558 0.19966)
(3.86625 0.774154 0.0504546)
(4.55349 0.506041 1.39358)
(4.3475 0.616572 1.9999)
(4.42275 0.823193 2.08242)
(3.87199 -0.0262514 2.78325)
(3.70283 -0.730733 2.43666)
(3.29733 -1.21542 2.45157)
(2.80705 -2.87654 2.74604)
(3.04745 -3.51061 2.0907)
(4.0663 -3.0614 1.91272)
(4.20833 -1.77745 0.582646)
(4.77409 -0.0208427 0.105702)
(4.44029 0.0255949 1.65701)
(4.48565 0.681144 1.67849)
(4.47717 0.745314 1.94081)
(3.96239 0.597032 2.45101)
(3.7013 -0.130265 1.97929)
(3.21805 -1.11747 1.95117)
(3.03836 -1.64574 1.60077)
(2.56375 -2.39243 1.07773)
(2.68268 -3.02755 2.66258)
(3.88546 -3.78133 2.20782)
(4.50307 -2.88474 1.75798)
(4.69407 -0.900301 -0.107966)
(3.78703 0.45219 0.864034)
(4.01789 0.437707 1.13081)
(4.00302 0.591281 1.28704)
(3.6836 0.865667 1.25234)
(3.3998 0.579499 0.923363)
(3.00977 -0.189867 0.555382)
(2.86 -0.364103 0.971328)
(1.98414 -2.15947 1.10238)
(2.34378 -1.93539 0.345327)
(1.65328 -2.48638 2.51034)
(2.3948 -4.63063 2.78077)
(3.21116 -4.5983 3.59388)
(5.62807 -1.83483 -1.58025)
(2.39915 0.620278 0.537881)
(2.89842 1.0096 0.272578)
(3.2329 0.756655 0.351071)
(3.08045 0.35516 0.707723)
(2.66111 0.484865 0.946417)
(2.15473 0.334481 0.600679)
(1.83119 -0.360985 0.573991)
(1.242 -1.30957 0.957957)
(0.987684 -1.15301 0.158631)
(1.08724 -1.28679 -0.00227359)
(1.71033 -1.47789 -1.22561)
(2.31372 -0.158479 0.532317)
(-0.573839 -3.45055 -1.09775)
(3.62405 -2.54888 -0.0773679)
(1.2136 1.5483 0.275094)
(1.4259 1.59291 0.417105)
(1.77397 1.19032 0.693265)
(1.89076 0.814584 0.190421)
(1.70679 0.667261 0.124221)
(1.28821 0.514959 0.070269)
(0.750054 0.00524779 0.0830408)
(0.503907 -0.420064 -0.0259568)
(0.4218 -0.544886 0.104511)
(0.0988719 -1.01215 0.0555461)
(0.273824 -0.420746 0.0780303)
(0.569053 -0.906399 -0.307722)
(0.178897 -0.785708 -0.933873)
(0.208636 -0.319156 -0.264205)
(2.61928 -0.666196 0.747862)
(0.157556 1.50669 -0.356179)
(0.646368 1.39973 -0.0772911)
(0.812051 0.973375 -0.595858)
(0.897345 0.320808 -1.42835)
(0.307899 -0.162408 -1.85369)
(-0.070048 0.128813 -1.70395)
(-0.243162 0.0822887 -1.60828)
(-0.386807 0.0997096 -1.40299)
(-0.400697 0.0910594 -1.34696)
(-0.310818 0.25908 -1.38377)
(-0.367712 0.0879125 -1.03264)
(-0.283754 -0.15818 -1.18311)
(-0.118683 0.0314516 -1.28083)
(0.608589 0.0255162 -1.13716)
(0.356019 -0.132049 -0.823854)
(0.255613 -0.261605 0.286443)
(1.39402 1.00693 0.025455)
(1.92357 0.686335 -0.0287881)
(1.63543 0.848367 -0.0306628)
(2.21923 0.688186 -0.0359919)
(2.19122 0.612243 0.00857177)
(1.7949 0.963679 -0.00487328)
(2.43548 0.479795 0.122635)
(2.39328 0.443641 0.0848076)
(2.41212 0.637108 0.0243205)
(2.11373 0.679443 0.0296665)
(2.43325 0.483986 0.283157)
(2.38204 0.098648 0.197635)
(2.41583 0.291188 0.00564681)
(2.42053 0.484306 0.0437948)
(2.2157 0.709344 0.0164099)
(2.67043 0.489198 0.626266)
(2.66213 0.494049 0.308893)
(2.49995 0.16901 0.287423)
(2.44661 0.394142 0.248619)
(2.40831 0.867907 0.21821)
(2.24761 0.67463 0.0612037)
(3.04081 0.130861 0.716993)
(3.04323 0.17933 0.674047)
(2.91791 -0.0652363 0.536083)
(2.81451 -0.261232 0.394802)
(2.60115 -0.147354 0.544727)
(2.52787 0.254549 -0.113924)
(2.40189 0.297636 -0.0383644)
(3.40025 0.34799 0.795095)
(3.42793 0.0348064 0.986437)
(3.49055 -0.268934 0.800878)
(3.48146 -0.487832 0.438846)
(3.38496 -0.738072 0.229654)
(3.12483 -0.454884 -0.211316)
(2.8599 -0.0674475 -0.190639)
(2.676 0.679759 -0.108464)
(3.93302 0.0057005 0.758347)
(3.93234 0.0393407 0.720324)
(3.76868 -0.228011 0.775572)
(3.64789 -0.95748 0.809388)
(3.39776 -1.27971 0.584598)
(3.11989 -1.33087 0.26902)
(3.04076 -1.39923 -0.0471891)
(3.4499 0.0315444 -0.27078)
(3.06945 0.906574 -0.179396)
(3.93287 0.749345 0.94836)
(4.31088 -0.215451 0.542925)
(4.39163 -0.616762 0.390204)
(3.85805 -0.830869 1.05522)
(3.53187 -0.787003 1.48188)
(3.29862 -1.89995 1.42559)
(3.55298 -2.33728 0.837204)
(3.91533 -1.5415 -0.0174572)
(3.80344 -0.117619 0.696223)
(3.44732 0.543893 -0.0630246)
(4.23003 0.261405 0.730068)
(4.25132 0.260215 0.679042)
(4.16034 0.159361 1.82503)
(3.95839 0.0618843 2.38365)
(3.55112 -0.56233 2.49603)
(3.51066 -1.50496 2.48937)
(3.6383 -3.00932 1.8486)
(3.39451 -2.8378 2.02632)
(4.16006 -2.77223 1.10778)
(4.23434 -0.988939 1.12088)
(4.22732 0.560448 -0.272798)
(4.43781 -0.222933 1.5912)
(4.56739 0.4042 1.54978)
(4.60391 0.551231 1.73791)
(4.28651 0.679902 2.61148)
(4.11695 0.232946 2.35525)
(3.65522 -0.939273 2.38661)
(3.2308 -1.51712 2.50702)
(2.83258 -2.85622 2.64241)
(3.14112 -3.34291 2.20471)
(3.99936 -3.32603 1.81147)
(4.13235 -2.53683 0.50028)
(4.82907 -0.158406 0.118893)
(4.05342 0.0745465 1.68126)
(4.46549 -0.0274264 1.58142)
(4.45729 0.0229453 1.96045)
(4.50994 0.472425 2.05229)
(3.95649 0.137076 2.20226)
(3.39295 -0.740183 1.93582)
(3.03053 -1.36454 1.79205)
(2.97742 -1.98852 1.42864)
(2.60403 -2.07312 1.32831)
(2.44146 -3.10711 2.67217)
(3.42588 -4.05178 2.19245)
(4.52419 -2.96289 2.03237)
(4.86894 -1.02575 -0.431916)
(3.23499 0.639907 0.865356)
(3.82112 0.251033 0.71183)
(3.99963 0.299863 1.06385)
(3.88778 0.63109 1.27797)
(3.89019 0.145918 1.29)
(3.28673 -0.00667889 0.763624)
(2.77713 -0.772007 0.717553)
(2.68391 -0.52333 0.75478)
(1.70134 -2.56722 0.836253)
(1.8332 -2.11607 0.615538)
(1.18672 -2.72148 2.68447)
(2.42922 -4.98871 2.37202)
(2.85436 -4.71747 3.50575)
(5.43844 -2.0998 -1.60197)
(1.72805 0.889505 0.356292)
(2.42501 0.533759 0.552213)
(2.9138 0.887583 0.234267)
(3.12703 0.767886 0.449838)
(3.07425 0.722182 0.312283)
(2.46817 0.657248 0.940737)
(1.97562 0.0226594 0.596541)
(1.63418 -0.540042 0.63463)
(1.56831 -0.72172 0.358211)
(0.677019 -1.6179 0.0960267)
(1.09682 -1.50229 -0.810909)
(1.49805 -1.72212 -0.884219)
(2.42229 -0.298425 1.40412)
(-0.442047 -3.45267 -1.07399)
(3.2711 -2.6142 0.0950921)
(0.64627 1.80517 -0.119437)
(1.18263 1.58787 0.320839)
(1.41776 1.54844 0.386892)
(1.73902 1.09708 0.666957)
(1.8164 0.719586 0.105739)
(1.55124 0.607406 0.040005)
(1.18305 0.42191 0.0436221)
(0.648227 -0.088475 0.0491368)
(0.395588 -0.527144 -0.0567485)
(0.38036 -0.564936 0.0850949)
(0.0632364 -1.10498 -0.160318)
(0.199238 -0.499423 -0.156624)
(0.402219 -1.07777 -0.729065)
(0.167056 -0.683485 -0.821989)
(0.315751 -0.324369 -0.335095)
(2.47098 -0.71337 0.701581)
(0.176957 1.2027 -0.690931)
(0.143382 1.51206 -0.332581)
(0.6547 1.38198 -0.0965887)
(0.800557 0.904927 -0.637406)
(0.831659 0.117566 -1.46409)
(0.264715 -0.200551 -1.74647)
(-0.105512 0.135571 -1.59987)
(-0.271302 0.0827626 -1.58008)
(-0.424388 0.0623903 -1.40612)
(-0.401604 0.0783528 -1.35499)
(-0.312401 0.24539 -1.3954)
(-0.364251 0.0741884 -1.04211)
(-0.280388 -0.162527 -1.23962)
(-0.11438 0.0262845 -1.3418)
(0.586295 -0.00156556 -1.11993)
(0.364094 -0.103306 -0.774264)
(0.174028 -0.259769 0.283208)
(1.45421 0.876268 0.00592149)
(1.68917 0.893945 0.0326621)
(1.52317 0.868882 0.00397159)
(2.05519 0.690987 -0.00346784)
(1.94452 0.535829 -0.0104826)
(1.72175 0.657613 6.54882e-05)
(2.30677 0.503537 0.152856)
(2.26089 0.401548 -0.13213)
(2.18281 0.508228 0.0256285)
(1.93522 0.637053 -0.0250297)
(2.37452 0.623447 0.205225)
(2.40345 0.392569 0.189748)
(2.43209 0.314457 0.0505837)
(2.45637 0.5425 0.0532396)
(2.18789 0.443055 -0.0297622)
(2.42697 0.411647 0.463469)
(2.49169 0.424375 0.239271)
(2.35289 0.189959 0.120677)
(2.4252 0.192309 0.00936014)
(2.48913 0.193946 0.0298637)
(2.29968 0.597001 0.0500527)
(2.74143 0.312405 0.580471)
(2.70985 0.412633 0.62738)
(2.65225 0.209897 0.32763)
(2.49853 0.144947 0.256297)
(2.47745 0.328602 0.198013)
(2.48483 0.662535 0.159201)
(2.28133 0.685717 0.0734716)
(3.0335 0.21278 0.834494)
(3.06345 0.00841772 0.761529)
(2.96048 -0.10156 0.657481)
(2.89299 -0.196058 0.607794)
(2.71757 -0.409389 0.391573)
(2.54813 -0.187762 0.421258)
(2.5509 0.11056 -0.104261)
(2.43141 0.266832 0.0117918)
(3.38784 0.321288 0.8589)
(3.45013 0.0879573 0.983639)
(3.45503 -0.246572 0.981725)
(3.52161 -0.483025 0.802249)
(3.46014 -0.675057 0.395586)
(3.32032 -0.925577 0.244427)
(2.9782 -0.672075 -0.341564)
(2.83844 -0.195805 -0.159696)
(2.75809 0.377745 -0.0824321)
(3.92308 -0.2554 0.886619)
(3.9751 0.0744756 0.820007)
(3.8297 -0.179922 0.844217)
(3.72288 -0.63626 0.992397)
(3.50021 -1.17706 0.948593)
(3.13023 -1.72907 0.667036)
(2.92656 -1.54038 0.256709)
(3.18181 -1.23591 -0.190758)
(3.4968 -0.158931 -0.20748)
(3.18852 0.900336 -0.379795)
(4.04206 0.693218 0.899511)
(4.14249 0.0476443 0.645574)
(4.4276 -0.287238 0.373309)
(4.35372 -0.754684 0.432749)
(3.71236 -0.914839 1.29032)
(3.34616 -1.35513 1.86477)
(3.30082 -2.40116 1.22994)
(3.85428 -2.17381 0.643396)
(4.07705 -0.627992 0.269463)
(4.0346 -0.256879 0.471622)