/*--------------------------------*- C++ -*----------------------------------*\
  =========                 |
  \\      /  F ield         | OpenFOAM: The Open Source CFD Toolbox
   \\    /   O peration     | Website:  https://openfoam.org
    \\  /    A nd           | Version:  7
     \\/     M anipulation  |
\*---------------------------------------------------------------------------*/
FoamFile
{
    version     2.0;
    format      ascii;
    class       surfaceScalarField;
    location    "5.5";
    object      phi;
}
// * * * * * * * * * * * * * * * * * * * * * * * * * * * * * * * * * * * * * //

dimensions      [0 3 -1 0 0 0 0];

internalField   nonuniform List<scalar> 
54125
(
-4.50764e-05
1.85646e-05
-0.00109492
-0.000151328
-4.31196e-05
0.0030296
5.97761e-05
-4.7484e-05
-0.0017087
-3.46166e-05
1.62456e-05
-0.00107655
-0.000662673
0.000325118
0.00554276
0.000118833
-0.000131414
0.00112688
-2.19912e-05
-5.63311e-05
0.0030733
-7.00296e-05
-8.98708e-05
8.41274e-05
5.46256e-05
-4.22584e-05
-0.00170482
-2.84825e-05
1.58216e-05
-0.00106389
-0.00139964
0.000619294
0.00608494
7.45657e-05
5.88542e-05
0.00387275
-0.000457795
0.000280221
0.00569834
-0.000117545
-0.000141604
0.00169888
0.000152648
-0.000126231
0.00109876
3.95745e-05
-7.45977e-05
0.00307984
-5.02593e-05
-9.62496e-05
-0.00037128
-6.33805e-05
-8.10099e-05
0.000186259
5.40652e-05
-4.18802e-05
-0.00170119
-2.30042e-05
1.65396e-05
-0.00105742
-0.00188471
0.000505415
0.00451935
-0.00051712
0.000539104
0.00632808
-0.00136406
0.000618889
0.00637232
-0.000161781
-0.000118622
0.00286284
0.000221231
0.000103953
0.00398043
-0.000351616
0.000290789
0.00579874
-4.51872e-05
-0.000136914
0.00151558
-0.000120095
-0.000125066
0.00175442
0.000172698
-0.000142929
0.00104846
0.000120886
-8.9139e-05
0.00302509
-3.22251e-06
-9.20365e-05
0.000379821
-4.99819e-05
-8.7268e-05
-0.00031504
-5.35956e-05
-8.0878e-05
0.000278853
5.57238e-05
-4.03566e-05
-0.00170001
-2.07971e-05
1.64943e-05
-0.00105312
-0.00177496
0.000270246
0.00312498
-0.00142595
0.000979178
0.00644214
-0.00178292
0.000490198
0.00444801
-7.19069e-05
0.000178506
0.0065576
-5.14337e-05
0.000506229
0.0067134
-0.00142471
0.000690956
0.00675446
-7.09654e-05
-7.69285e-05
0.00229373
-0.000161827
-4.68614e-05
0.00305538
0.000262016
0.000141004
0.0040409
-0.000207407
0.000281716
0.00584532
1.83753e-05
-0.000115921
0.00232402
-5.85584e-05
-0.000115404
0.00151449
-9.57712e-05
-0.000130368
0.00178404
0.000167721
-0.000147157
0.000994482
0.000167258
-9.0144e-05
0.00292718
3.56708e-05
-6.55627e-05
0.000772315
-3.52851e-06
-8.22116e-05
0.000378293
-5.40167e-05
-8.62642e-05
-0.000255637
-6.11846e-05
-8.06879e-05
0.000380368
5.4286e-05
-3.92389e-05
-0.00169857
-2.50268e-05
1.48619e-05
-0.00104296
-0.00183329
1.54591e-05
0.00513141
-0.00168001
0.000810296
0.00550848
-0.00171619
0.000446142
0.00261211
-0.00018865
0.00120884
0.0074012
-0.00106567
0.000839764
0.00710681
-0.00192803
0.000501454
0.00444988
7.0016e-05
0.000153645
0.00590624
4.31093e-06
0.00018964
0.00670805
7.5701e-05
0.000529938
0.00706073
-0.00137817
0.000767152
0.00715807
-0.000116415
0.00010715
0.00256842
-0.000162613
-7.75487e-05
0.00242847
-0.000175246
4.82897e-05
0.00322757
0.000204518
0.000208062
0.00407776
-0.000255125
0.000301962
0.00596574
9.69426e-05
-7.0305e-05
0.0024659
2.21916e-05
-0.000103499
0.00228639
-9.19583e-05
-0.000106555
0.00152862
-0.000123433
-0.000122907
0.00182204
0.000119298
-0.000149103
0.000988429
0.000113188
-8.11766e-05
0.00287014
5.70164e-06
-5.70321e-05
0.000552693
3.11637e-05
-5.98098e-05
0.00071875
-6.64121e-06
-8.01252e-05
0.000378795
-5.62272e-05
-8.48608e-05
-0.000195237
-6.09114e-05
-8.105e-05
0.000483091
4.19146e-05
-4.07657e-05
-0.00168485
-3.91364e-05
1.59031e-05
-0.00101972
-0.00207888
0.000184996
0.00426735
-0.00141614
0.00016962
0.00504711
-0.00158731
-4.55063e-06
0.00500708
-0.00082719
0.00146004
0.00696132
-0.00172448
0.000649376
0.00596405
-0.00180457
0.000446965
0.00204168
6.29251e-05
0.00137066
0.00684174
-0.000379298
0.00102849
0.00759608
-0.00102521
0.000982482
0.0077267
-0.00203089
0.000463107
0.00463949
-4.66723e-05
0.000280351
0.00472059
2.46863e-05
0.00017371
0.00573487
0.000238418
0.000213297
0.00661103
-5.94339e-05
0.000626936
0.0074649
-0.00147823
0.000730319
0.00765086
-0.00011475
0.000216415
0.00363015
-0.000136765
7.86438e-05
0.00257119
-0.000213815
-1.76345e-06
0.00260038
-0.000161465
0.000126539
0.00334713
0.000356352
0.000243194
0.00389947
-0.000294925
0.000317408
0.00605645
-6.11725e-05
1.01941e-05
0.00229163
7.99776e-05
-4.15459e-05
0.00235513
2.02743e-05
-9.91086e-05
0.00225203
-0.000114126
-9.97306e-05
0.00156334
-0.000133794
-0.000117736
0.00186355
8.13067e-05
-0.000132316
0.00100018
4.9633e-05
-6.63707e-05
0.00284774
-2.52807e-05
-8.14272e-05
0.000476271
-8.0616e-06
-5.31505e-05
0.000554095
2.90426e-05
-6.04524e-05
0.000670034
-1.1731e-05
-7.76344e-05
0.0003833
-5.99242e-05
-8.33656e-05
-0.000132997
-6.72686e-05
-8.15863e-05
0.00059118
3.54398e-05
-3.9185e-05
-0.00166521
-4.66717e-05
1.45873e-05
-0.000987638
-0.00170358
-0.000138273
0.00380342
-0.0012913
0.000393991
0.00567304
-0.0018084
0.000129701
0.00435874
-0.00122807
0.000686733
0.0059147
-0.00134573
8.74276e-05
0.00457638
-0.00148877
0.000184671
0.00450661
-0.000292833
0.00170897
0.00675202
-0.00115821
0.00119204
0.00719756
-0.00188217
0.000626301
0.00664168
-0.00191671
-0.000133014
0.00206052
4.19143e-05
0.0013773
0.00632493
8.02022e-05
0.00110996
0.00670475
-0.000125092
0.00108204
0.00786003
-0.00117315
0.00123271
0.00807081
-0.00202865
0.00033906
0.00485085
-0.000228787
0.00017203
0.00389737
-0.000284618
0.000305635
0.00473652
-0.000117041
0.000181567
0.00566982
0.00034871
0.000385937
0.00634185
0.000243274
0.00084254
0.00746576
-0.00136625
0.000761956
0.00796023
-0.000347433
0.000303497
0.00397675
-8.60363e-05
0.00027836
0.00359645
-0.000158433
9.1781e-05
0.00265635
-0.000238237
2.41063e-05
0.00282692
-0.000179113
0.000206723
0.00342892
5.42064e-05
0.000330264
0.00391372
-0.000382168
0.000377667
0.00611058
-9.45519e-05
5.12768e-05
0.00208556
3.97444e-05
3.80776e-05
0.0021642
5.95806e-05
-3.56058e-05
0.00226109
-1.13738e-05
-9.40063e-05
0.00224595
-0.000153352
-8.59949e-05
0.00162503
-0.000171207
-9.88227e-05
0.001934
-8.47134e-06
-0.000107804
0.00108552
-4.45041e-06
-5.38295e-05
0.00285935
-5.22159e-05
-8.70254e-05
0.000121132
-2.69812e-05
-7.45668e-05
0.000524668
-9.89243e-06
-5.507e-05
0.000558605
2.76444e-05
-6.13846e-05
0.00062614
-1.37013e-05
-7.50081e-05
0.000388644
-6.44448e-05
-8.26984e-05
-6.74402e-05
-7.43862e-05
-8.28368e-05
0.000709218
2.16543e-05
-3.93556e-05
-0.00163292
-5.97417e-05
1.29587e-05
-0.000940855
-0.00171918
-9.42782e-06
0.00433514
-0.00129492
-2.73713e-05
0.00521656
-0.00146901
-7.50849e-05
0.00353911
-0.00122405
0.000300421
0.00570728
-0.00136319
0.00041321
0.005407
-0.00177764
9.63983e-05
0.0045512
-0.000423965
0.000959181
0.00624983
-0.00123297
0.000300495
0.0057764
-0.00158377
0.000131345
0.0043313
-0.00156935
0.000271252
0.00388799
-0.000260845
0.00169667
0.00685228
-0.000662952
0.00156176
0.00712545
-0.00122695
0.000939151
0.00798657
-0.00185444
0.000190343
0.00699961
-0.00190167
-0.00057001
0.00250355
-0.000172493
0.00112375
0.00638973
-0.000257391
0.00106233
0.00634534
-0.000301072
0.00114936
0.00682146
-5.37422e-05
0.00149567
0.00799952
-0.00124936
0.00123749
0.00866502
-0.00200605
0.000484651
0.00500599
-0.000370095
-4.40271e-05
0.00439662
-0.000349619
0.000257531
0.00420906
-0.00028882
0.00029758
0.00475089
-1.98088e-06
0.000308435
0.00551107
-0.000214964
0.000643089
0.00657715
-0.000300176
0.000998273
0.00758383
-0.0013598
0.000811057
0.00812681
-0.000323296
0.00035293
0.00387915
-9.09332e-05
0.000368098
0.00401768
-0.000128373
0.000261848
0.00361434
-0.000223144
0.000111639
0.00278059
-0.00031457
0.000136931
0.00305793
-0.000383819
0.000319627
0.00365217
-0.00023118
0.000422698
0.00409139
-0.000422372
0.000373345
0.00615516
-9.72129e-05
2.42051e-06
0.0028397
-4.42968e-05
5.61177e-05
0.00208483
-8.21905e-05
5.19843e-05
0.00214891
5.14754e-05
-3.02677e-05
0.00217352
5.87368e-06
-8.84843e-05
0.00222886
-0.000186046
-6.27011e-05
0.00171051
-0.000213392
-7.72046e-05
0.00204241
-0.000111862
-7.96941e-05
0.0012449
-6.14588e-05
-5.09966e-05
0.00291207
-9.91951e-05
-6.28968e-05
-0.000611603
-4.58503e-05
-8.11859e-05
0.000173601
-2.80282e-05
-7.58026e-05
0.000573429
-1.32417e-05
-5.6935e-05
0.000567398
2.91101e-05
-6.25765e-05
0.000584598
-2.44652e-05
-7.24248e-05
0.000402835
-6.71635e-05
-8.42748e-05
1.16133e-06
-8.18988e-05
-8.47107e-05
0.000836472
1.34778e-05
-4.07809e-05
-0.00159266
-7.66408e-05
1.30863e-05
-0.000877301
-0.00192684
0.000148106
0.00298387
-0.00136513
0.000268889
0.00444768
-0.00145388
6.62775e-06
0.00431338
-0.0011876
0.000145257
0.00502384
-0.00149607
-9.66411e-06
0.00528403
-0.00168524
-1.06548e-06
0.00344778
-0.000740932
0.000466187
0.00626731
-0.00130068
0.00034461
0.00584359
-0.00146883
0.000333084
0.00505538
-0.00179179
0.000154389
0.00461926
-0.00041565
0.00104269
0.00671421
-0.000684808
0.000553676
0.0060185
-0.000937918
0.000166348
0.00545236
-0.00162489
7.78455e-05
0.00429515
-0.00157096
0.00019166
0.00336562
-0.000290201
0.00159981
0.00681407
-0.000326918
0.00157328
0.0069103
-0.000948067
0.001361
0.00735059
-0.00123667
0.000769691
0.00859015
-0.00178155
-0.000153391
0.00711518
-0.00184408
-0.000802364
0.00314395
-0.000321258
0.000823213
0.00651886
-0.000388693
0.000910125
0.00658101
-0.000233808
0.00111864
0.00632105
-0.000211631
0.0013927
0.00713409
-0.000734813
0.0015275
0.00822936
-0.00129499
0.00126976
0.00887471
-0.00189377
0.000400671
0.00513929
-0.000286419
-0.000105088
0.00441247
-0.000387291
0.000103319
0.00484719
-0.000157425
0.000297954
0.00423774
-0.000236309
0.000327925
0.00474457
-0.000385184
0.000483757
0.00574102
-0.00056358
0.000769933
0.00698525
-0.00087034
0.00109753
0.00793651
-0.00130501
0.000734983
0.00827446
-0.000140971
0.000211021
0.00398289
-0.000214787
0.000316145
0.00410159
-0.000280109
0.000346399
0.00413105
-0.000158147
0.000246504
0.0036891
-0.000155723
0.000158645
0.00292047
-0.000392028
0.000195387
0.00338815
-0.000442265
0.000414756
0.00388898
-0.000461175
0.000462278
0.00435177
-0.000443155
0.000394799
0.00614205
-0.000128882
-4.10633e-05
0.00299204
-9.7345e-05
1.53037e-05
0.002932
-3.22166e-05
6.94468e-05
0.00207156
-0.000104716
6.66034e-05
0.00214351
3.7006e-05
-2.85409e-05
0.00210568
-6.90036e-05
-7.38625e-05
0.00228456
-0.000214082
-5.34788e-05
0.0018337
-0.000268788
-5.73131e-05
0.00220692
-0.000177392
-5.17373e-05
0.00143651
-0.000131613
-5.09994e-05
0.00301804
-4.78925e-05
-3.95825e-05
-8.96852e-05
-9.23726e-05
-5.76282e-05
-0.000542788
-4.68762e-05
-8.36373e-05
0.000228312
-3.12042e-05
-7.56395e-05
0.000623338
-2.01322e-05
-5.95856e-05
0.000584539
3.16607e-05
-6.37294e-05
0.000544242
-1.83927e-05
-7.12403e-05
0.000408194
-6.89292e-05
-8.64677e-05
7.18475e-05
-8.8732e-05
-8.8342e-05
0.000972765
1.29959e-06
-4.47148e-05
-0.00153615
-9.45776e-05
1.26158e-05
-0.000795339
-0.00196268
0.000112254
0.00292457
-0.00160769
0.000356558
0.00403407
-0.00180116
0.000233374
0.00309778
-0.00124049
0.000408844
0.00471713
-0.00152437
0.000191901
0.0042907
-0.00153335
-1.26922e-05
0.00417418
-0.000898406
0.000300023
0.00546025
-0.00126258
0.000105301
0.00487077
-0.00138427
5.17119e-05
0.00514669
-0.00178418
-2.8265e-07
0.00344046
-0.000659722
0.000574947
0.00629773
-0.000608482
0.000487573
0.00604802
-0.00101197
0.000431701
0.00581903
-0.00150119
0.000348304
0.00473777
-0.00160937
0.000139392
0.00451828
-0.000353676
0.0010379
0.00670396
-0.000434882
0.00084204
0.00653381
-0.000956789
0.000459352
0.00573422
-0.00111224
2.88251e-05
0.00537695
-0.00160875
0.000125357
0.00418864
-0.00161289
9.61003e-05
0.00303832
-0.000439478
0.00151675
0.00678448
-0.000174253
0.00140992
0.00676298
-0.000319299
0.00142542
0.00693137
-0.00103471
0.000995559
0.0079478
-0.00114173
0.000631024
0.00821265
-0.00155061
-0.000603857
0.0071723
-0.00177938
-0.00055773
0.0035873
-0.000126074
0.000607818
0.00582294
-0.000390548
0.000784086
0.00664816
-0.000106533
0.000941195
0.00670756
-0.000252768
0.00115205
0.00657816
-0.000558661
0.0012358
0.00759926
-0.000916117
0.00133765
0.00851401
-0.00149518
0.00101979
0.00888043
-0.00181648
0.000331075
0.00531968
-0.000298984
-3.79792e-05
0.00508156
-0.00042859
4.51902e-08
0.00472955
-0.000356965
0.000196077
0.00502592
-0.000403726
0.000307601
0.00450364
-0.000366636
0.000449999
0.00498924
-0.000633849
0.000564227
0.00618855
-0.000717186
0.00092721
0.0074305
-0.00105222
0.0011087
0.00815384
-0.00119053
0.000575402
0.00844644
-4.93902e-05
5.79492e-05
0.00401366
-0.000146891
0.000231941
0.00411664
-0.000169538
0.000314012
0.0042713
-0.00033608
0.000343763
0.00426516
-0.000175942
0.000245305
0.00381538
-0.0002878
0.000182796
0.00315186
-0.000455226
0.000291152
0.0037529
-0.00062576
0.000402649
0.00430558
-0.000681644
0.000538479
0.00471234
-0.000484955
0.000337264
0.00615813
-7.56768e-05
-5.95302e-05
0.00250531
-0.000113238
-1.72037e-05
0.00304542
-7.63824e-05
4.37486e-05
0.00298721
-2.25019e-06
7.8802e-05
0.0020304
-0.00016093
7.65001e-05
0.00217927
2.79707e-05
-2.54747e-05
0.00206098
-0.000108746
-6.35226e-05
0.00238496
-0.00025607
-3.65027e-05
0.00200003
-0.000341269
-2.23929e-05
0.00243011
-0.000262204
-2.85902e-05
0.00167761
-0.000217811
-5.26339e-05
0.00319391
1.87237e-05
-3.83639e-05
0.00100061
-4.9401e-05
-3.59179e-05
-6.19943e-05
-9.6444e-05
-5.80557e-05
-0.000471926
-4.65944e-05
-8.43619e-05
0.000283629
-3.31898e-05
-7.49612e-05
0.000671903
-2.27101e-05
-6.21033e-05
0.000605623
2.82958e-05
-6.41408e-05
0.000508847
-2.06689e-05
-7.03378e-05
0.000412733
-6.82143e-05
-8.94438e-05
0.000141164
-8.79016e-05
-9.52941e-05
0.00111125
-5.67055e-06
-4.67249e-05
-0.00147114
-0.000112887
1.16734e-05
-0.000694125
-0.00192332
4.11166e-05
0.00313339
-0.00163994
0.000130012
0.00377953
-0.00177638
0.00013977
0.00276001
-0.00110002
0.000388134
0.00431947
-0.00152165
0.000327199
0.00393753
-0.00184594
0.000234011
0.00317636
-0.000985832
0.000434579
0.00494722
-0.00138831
0.000302525
0.00473223
-0.00147299
4.90433e-05
0.00431768
-0.00156357
-8.37146e-05
0.00403728
-0.000772054
0.000447927
0.00567962
-0.000858226
0.000275579
0.00553972
-0.0012786
0.000157333
0.00503177
-0.00141384
0.000104628
0.00495442
-0.00161195
2.97069e-05
0.00341333
-0.000642826
0.000767445
0.00627876
-0.000588482
0.000599703
0.0063392
-0.000860937
0.000597471
0.0057864
-0.00113521
0.000587411
0.00560289
-0.00151374
0.000366479
0.00441567
-0.00163465
0.000178251
0.00436179
-0.000513023
0.00105278
0.00675065
-0.000171168
0.000978252
0.00656466
-0.000350917
0.000676791
0.00634799
-0.00112495
0.000316031
0.00553726
-0.00111492
0.000174237
0.00530127
-0.00155956
0.000149908
0.00414379
-0.00174795
3.33666e-06
0.00300355
-0.000335615
0.00144759
0.00689298
-0.00042477
0.00127009
0.00695853
-0.000423165
0.00128846
0.00721657
-0.00069309
0.00114518
0.00722208
-0.000788204
0.00087014
0.00793823
-0.00116839
0.000321812
0.00753925
-0.00119198
-0.000459194
0.00677056
-0.00169531
-0.000230879
0.00369701
-0.000129163
0.000436011
0.00581177
-0.000509188
0.000614631
0.00607299
-0.000375762
0.00071261
0.00689554
-0.000426763
0.00087392
0.00700873
-0.000484965
0.000972796
0.00695949
-0.000736288
0.0010821
0.00795726
-0.0011479
0.00117657
0.00878794
-0.00138476
0.00095672
0.00858732
-0.00174131
0.00033027
0.00554019
-0.000167029
-1.77246e-05
0.00548239
-0.000201349
-3.0717e-06
0.00513913
-0.000394213
6.56674e-05
0.00508463
-0.000419257
0.000254686
0.00516202
-0.000454981
0.000372039
0.00486064
-0.000502765
0.000453896
0.00531453
-0.000606104
0.000668982
0.00659765
-0.000884237
0.000976857
0.00782081
-0.00116381
0.000986193
0.00822522
-0.0010537
0.000543791
0.00847139
-0.000179854
-3.64917e-05
0.00430916
-7.50193e-05
0.000134733
0.00407265
-0.000112139
0.000256667
0.00420974
9.61211e-06
0.000297763
0.00430544
-0.000406718
0.000368908
0.00438734
-0.000212337
0.00024826
0.00399023
-0.000379095
0.000243069
0.00347029
-0.000548568
0.000240199
0.00420785
-0.000786196
0.000527101
0.00476189
-0.000872213
0.000580505
0.00507911
-0.000493427
0.00029017
0.00614358
3.20316e-05
-6.23489e-05
0.00264023
-7.15138e-05
-2.40131e-05
0.00253424
-0.000122998
1.37836e-05
0.00310194
-3.22412e-05
6.05905e-05
0.00299107
-7.00957e-05
8.51268e-05
0.00205868
-0.0001343
8.07946e-05
0.00218459
1.72873e-05
-1.71319e-05
0.0020256
-7.98501e-05
-3.08681e-05
0.00243851
-0.00022176
-8.17393e-06
0.00213936
-0.000358985
-1.57451e-06
0.00267418
-0.000287218
-6.14405e-06
0.00191266
-0.000305015
-5.14069e-05
0.00343744
1.37904e-05
-3.74521e-05
0.000659593
1.87918e-05
-3.51218e-05
0.000981022
-5.4072e-05
-3.62257e-05
-2.97523e-05
-0.000100502
-5.79887e-05
-0.000397797
-4.72303e-05
-8.29982e-05
0.000338897
-3.55149e-05
-7.52744e-05
0.000720589
-2.32579e-05
-6.49647e-05
0.000629705
1.74044e-05
-6.34972e-05
0.000484602
-2.62415e-05
-7.0901e-05
0.000420431
-6.45973e-05
-9.36635e-05
0.00020413
-9.39576e-05
-0.000100808
0.00125929
-1.32721e-05
-4.81445e-05
-0.00139805
-0.000129344
1.1581e-05
-0.000576362
-0.00177549
-0.000197739
0.00316799
-0.00150717
-9.58604e-05
0.00404742
-0.00166985
-7.26086e-06
0.00303412
-0.00113621
0.000307123
0.00431666
-0.0014589
1.44387e-05
0.00384211
-0.00185214
0.000111776
0.00265444
-0.000898081
0.000472827
0.0046348
-0.0012261
0.00031831
0.00416615
-0.00139664
0.000370108
0.00372509
-0.00175718
0.000199128
0.00317085
-0.000669091
0.000410831
0.00500968
-0.000786227
0.000282635
0.00489511
-0.00137427
0.000110743
0.0047662
-0.00159997
-3.0828e-05
0.00445092
-0.00158999
-6.06081e-05
0.00407593
-0.000719362
0.000566087
0.00558431
-0.000697461
0.00043958
0.0056246
-0.000866378
0.000272709
0.00542979
-0.00123921
0.000174129
0.00506627
-0.00135227
0.000187303
0.00463536
-0.00168823
5.2117e-05
0.00341479
-0.000476392
0.000753888
0.00644743
-0.00050248
0.000734993
0.00647478
-0.000537946
0.000715286
0.00640841
-0.000988226
0.00070937
0.00552772
-0.00107855
0.000646031
0.00528697
-0.0014386
0.000272882
0.00420008
-0.00175479
0.000120449
0.00424818
-0.00041608
0.00117081
0.00668524
-0.000366783
0.000921729
0.00674919
-0.000496628
0.000752318
0.0065626
-0.000582546
0.000508652
0.00604483
-0.000922217
0.000363582
0.00548193
-0.00109803
0.000222372
0.00515844
-0.00143652
0.00019005
0.00420162
-0.0016777
-2.11122e-05
0.00300706
-0.000236529
0.00127042
0.0065986
-0.000544991
0.00122079
0.00697808
-0.000508118
0.00121919
0.00716015
-0.000576021
0.00116622
0.00734478
-0.000795421
0.00106368
0.00733899
-0.000734423
0.00073128
0.00752689
-0.00115335
0.000153271
0.00693224
-0.00101129
-0.00012528
0.0062915
-0.00162074
-0.000169371
0.0037458
-1.42956e-07
0.00027943
0.00636926
-0.000198118
0.000379765
0.0060434
-0.0005571
0.000575383
0.00637311
-0.000376118
0.000659697
0.00706662
-0.000472346
0.000811286
0.0071876
-0.000524818
0.000869177
0.00719446
-0.000661567
0.00103256
0.00815674
-0.000935985
0.00111881
0.0086776
-0.00110967
0.000918067
0.00794538
-0.00160198
0.000482896
0.00560558
-0.000223113
-8.47349e-05
0.00571822
-0.000149255
-7.17367e-06
0.00556072
-0.000426979
6.29896e-05
0.00545665
-0.000199136
0.000148294
0.00539977
-0.000463305
0.00022709
0.00536355
-0.000504752
0.000332791
0.00527416
-0.000464557
0.000504161
0.00556482
-0.000594432
0.000763538
0.00685683
-0.000991766
0.000886312
0.00812627
-0.0012125
0.00100554
0.00810375
-0.000779649
0.000559585
0.00819802
-1.1309e-05
-0.000133253
0.0046002
-1.38752e-05
3.79717e-05
0.00434828
-0.000157765
0.000195453
0.00416863
-4.71391e-05
0.000245456
0.00427695
-0.000192146
0.000394854
0.00440154
-0.000409997
0.000344306
0.00456699
-0.000207858
0.000263176
0.00419527
-0.000356344
0.000233432
0.00375355
-0.000477494
0.000449788
0.0045409
-0.00082363
0.000543012
0.00526403
-0.000782992
0.000564385
0.00530067
-0.000577975
0.000239547
0.00617699
3.52038e-05
-4.9825e-05
0.00226465
2.20293e-05
-2.9552e-05
0.00264253
-6.38942e-05
-7.24664e-06
0.00256509
-0.000125544
3.78715e-05
0.0031497
-1.46921e-05
6.00923e-05
0.00298356
-7.99585e-05
8.81904e-05
0.00209573
-0.000129485
8.17261e-05
0.00219196
-5.35123e-05
1.68073e-06
0.00206397
-0.000160333
-1.27905e-05
0.00257722
-0.000214575
5.12947e-06
0.00228263
-0.000385494
2.11535e-05
0.00293841
-0.000330106
-1.91729e-05
0.00219726
-0.000373021
-4.82288e-05
0.00372935
-3.85214e-05
-3.60383e-05
-0.000176107
1.45726e-05
-3.45974e-05
0.000644496
2.49829e-05
-3.57925e-05
0.000955606
-5.63631e-05
-3.68289e-05
5.45099e-06
-0.000102351
-5.73819e-05
-0.000321063
-4.65318e-05
-8.15637e-05
0.000391718
-3.81756e-05
-7.66597e-05
0.00077046
-3.02184e-05
-6.62111e-05
0.000662637
1.22078e-05
-6.28777e-05
0.000464371
-2.48353e-05
-7.31823e-05
0.000424785
-6.1841e-05
-9.83801e-05
0.000263544
-7.77541e-05
-0.000105774
0.00139467
-1.58806e-05
-4.80547e-05
-0.00132254
-0.000143339
1.18498e-05
-0.000444873
-0.00161443
0.000116409
0.00236445
-0.00178951
1.75934e-05
0.00369693
-0.00159069
-0.000163449
0.00325228
-0.00125076
-5.18138e-05
0.00418648
-0.00122612
-0.000130928
0.00393831
-0.00166563
-7.23022e-05
0.0029199
-0.000612703
0.000199703
0.00439971
-0.00117319
5.97708e-05
0.00421843
-0.00124741
7.60125e-05
0.00372865
-0.00182026
4.07757e-05
0.00267674
-0.000423154
0.00052758
0.00463933
-0.00064535
0.000367613
0.00444462
-0.00111549
0.000256731
0.00402075
-0.00172393
0.000271716
0.00377647
-0.00183918
0.000199555
0.00322049
-0.000620804
0.000435866
0.00507061
-0.000776036
0.000339978
0.00503092
-0.000969821
0.000195146
0.00491415
-0.00135033
7.70976e-05
0.0047694
-0.00150445
-4.67436e-05
0.00458924
-0.00150626
6.25767e-05
0.00383139
-0.000477719
0.000583959
0.00582485
-0.000665538
0.000558265
0.00562868
-0.000656067
0.000465019
0.00555041
-0.000841456
0.000233626
0.00522352
-0.00105154
0.000229791
0.00499677
-0.00109838
0.000111884
0.00423536
-0.00186339
0.000187294
0.00333609
-0.000584504
0.000867886
0.00647039
-0.000530036
0.000730201
0.00661548
-0.000560044
0.000836155
0.00641733
-0.000496663
0.00079224
0.00623966
-0.0009823
0.000671014
0.00556282
-0.00111966
0.000553386
0.00502811
-0.0015738
0.000265301
0.0041925
-0.00169594
9.21915e-05
0.00417422
-0.000537669
0.00123078
0.00697415
-0.00052205
0.00090104
0.00668299
-0.000423361
0.00077336
0.00664339
-0.000594696
0.000594463
0.00649546
-0.000649085
0.000402895
0.00585918
-0.00090673
0.000333139
0.00554347
-0.00119513
0.00031597
0.0050743
-0.00141556
0.000175265
0.00440951
-0.00161073
-6.35133e-06
0.0030034
-0.000113738
0.00107704
0.00653971
-0.000366021
0.00114435
0.00684294
-0.000601865
0.00120001
0.00704203
-0.000480016
0.001187
0.00724328
-0.000510236
0.00105804
0.00738831
-0.000744927
0.000886378
0.007404
-0.000767541
0.000474222
0.00731192
-0.000859136
0.000239621
0.00649049
-0.000918623
8.31002e-06
0.00592277
-0.00162304
-2.32095e-05
0.00379007
0.000192832
0.0002411
0.00599597
0.000112713
0.000214655
0.00627241
-0.000581372
0.000387139
0.00638604
-0.000471356
0.000592666
0.00671236
-0.000472186
0.000625878
0.00726091
-0.000609494
0.000821794
0.00733973
-0.000607619
0.000827286
0.0075428
-0.000607951
0.000981022
0.00830804
-0.00102511
0.000838132
0.00879088
-0.00110633
0.000964458
0.00735766
-0.00140367
0.000607736
0.00562186
-0.000154546
-0.000115953
0.00554932
-3.58157e-05
-2.70891e-05
0.00576008
-0.00030142
0.000137794
0.00562957
-2.20613e-05
4.75736e-05
0.00553229
-0.000263085
8.40372e-05
0.00561376
-0.000409804
0.000126349
0.0055698
-0.000474513
0.000382404
0.00566257
-0.000536708
0.000613128
0.00589559
-0.000567839
0.000672428
0.00716106
-0.000998066
0.000892177
0.00841406
-0.00109389
0.00103729
0.00793694
-0.000716603
0.000313779
0.00802287
8.08116e-05
-0.000241237
0.00462543
1.51097e-05
-4.30128e-05
0.0046881
-2.29271e-05
0.000108844
0.00439393
-8.58175e-05
0.000240464
0.0041339
-5.64092e-05
0.000311759
0.00440176
-0.000275884
0.000280876
0.0046609
-0.000396005
0.000389403
0.00470729
-0.000277981
0.00028358
0.00436959
-0.000516929
0.000353649
0.00420628
-0.000437651
0.00037264
0.00493434
-0.00081846
0.000505201
0.00575618
-0.000959793
0.000505011
0.0056649
-0.000693058
0.000230157
0.00626687
1.24875e-05
-7.38923e-05
0.000853878
2.9768e-05
-2.69931e-05
0.0022469
1.42985e-05
-1.11168e-05
0.00265708
-9.90465e-05
1.04679e-05
0.00263518
-0.000113805
4.479e-05
0.00317645
-4.31915e-05
7.51418e-05
0.00299327
-0.000101114
9.99106e-05
0.00214049
-0.000133054
8.009e-05
0.00221639
-6.74949e-05
-1.29942e-06
0.00213218
-9.76095e-05
6.92589e-06
0.00264819
-0.00025545
2.2773e-05
0.00247462
-0.000324312
1.17254e-05
0.00315407
-0.000314286
-1.51289e-05
0.00246257
-0.000428702
-3.81488e-05
0.00405286
-9.92109e-05
-3.11224e-05
-0.00119162
-3.85449e-05
-3.21912e-05
-0.000139968
2.3839e-05
-3.54031e-05
0.000620267
2.95946e-05
-3.68642e-05
0.000926047
-5.91184e-05
-3.74332e-05
4.46206e-05
-0.000109672
-5.58254e-05
-0.000237129
-4.78456e-05
-8.01208e-05
0.000443024
-3.56165e-05
-7.70593e-05
0.000816925
-3.29841e-05
-6.64002e-05
0.000699144
-2.52505e-07
-6.36814e-05
0.000455123
-2.30173e-05
-7.57556e-05
0.000425178
-5.95057e-05
-0.00010333
0.000320605
-8.04674e-05
-0.000108975
0.00153606
-2.04382e-05
-4.86822e-05
-0.00124157
-0.000155437
1.27537e-05
-0.000302189
-0.00152582
-0.000106517
0.00288326
-0.00138551
1.34917e-05
0.00285868
-0.00152224
0.000135021
0.00216098
-0.0012883
8.42363e-05
0.00392496
-0.0014933
5.54927e-05
0.00374517
-0.00163782
-0.000104212
0.00332868
-0.0006625
5.7276e-05
0.00430024
-0.00115436
-0.000122349
0.00415907
-0.00122214
-0.000106294
0.00394702
-0.00164424
-0.000124921
0.0028688
-0.00050213
0.000313084
0.00456596
-0.000676043
0.000114792
0.00437538
-0.000978485
0.000104337
0.00405309
-0.00142456
5.95589e-05
0.0034105
-0.00179836
6.85028e-05
0.00256742
-0.000509104
0.000630228
0.00471548
-0.000791962
0.000424681
0.00459819
-0.000923218
0.00029272
0.00436203
-0.00124058
0.000190825
0.00399189
-0.00172427
0.000196273
0.00399957
-0.00185375
7.47623e-05
0.00349322
-0.000467598
0.000492484
0.00539273
-0.000603834
0.000378384
0.0049705
-0.000750665
0.000303996
0.00501666
-0.00101091
0.000235866
0.00492483
-0.00126169
9.63986e-05
0.00483641
-0.00111053
-3.07977e-05
0.00469477
-0.00153276
-8.47816e-05
0.00358554
-0.000763304
0.000784819
0.005788
-0.000571368
0.000602243
0.00582221
-0.000624632
0.000569011
0.00558928
-0.000620803
0.000388467
0.00551971
-0.000967125
0.000256982
0.00518115
-0.00104186
0.000243063
0.00478778
-0.0012906
0.000288456
0.003851
-0.001814
0.000241974
0.00321219
-0.000646618
0.0010439
0.00627338
-0.000579394
0.000845033
0.00641291
-0.00032114
0.000829427
0.00651999
-0.00061464
0.000870323
0.00635919
-0.000422713
0.000648969
0.00603534
-0.000893084
0.000499572
0.00560299
-0.00128593
0.000514562
0.00486964
-0.00157105
0.000286408
0.00415378
-0.00160841
8.6731e-05
0.00408517
-0.000533855
0.00147698
0.00684039
-0.00060218
0.000986484
0.00712487
-0.000584886
0.000736063
0.00670331
-0.000339931
0.00066921
0.00642856
-0.000411289
0.000449172
0.00635023
-0.000894504
0.000356663
0.00598523
-0.000895669
0.000339235
0.00564833
-0.00123922
0.000413558
0.0052161
-0.00140139
0.000219695
0.00466623
-0.0017163
-3.86316e-06
0.00310053
0.000108839
0.00110411
0.00650777
-9.63406e-05
0.0010844
0.00680872
-0.000546931
0.00120628
0.00680222
-0.000609665
0.00120442
0.00716292
-0.000622326
0.00109239
0.00735907
-0.000719076
0.000923813
0.00746046
-0.000862208
0.000659508
0.00747331
-0.000782309
0.000458262
0.00726763
-0.00103179
0.000361087
0.00614439
-0.00116305
0.000101884
0.00585439
-0.00161807
6.04275e-06
0.00399842
-0.000151988
3.79339e-05
0.00587157
-5.2387e-05
0.000250711
0.00597649
-8.40204e-05
0.000228715
0.00621343
-0.000100744
0.000421438
0.00663595
-0.000445985
0.000611592
0.00690955
-0.00035386
0.000692685
0.00733407
-0.000589678
0.000730696
0.00755148
-0.000589689
0.00081267
0.00776413
-0.000601427
0.000827079
0.00835268
-0.000851097
0.000712559
0.00889581
-0.00109288
0.000762684
0.0072017
-0.00124304
0.000436531
0.00571177
2.32555e-05
-0.000125155
0.00594859
-8.43655e-05
1.0231e-05
0.00561147
-4.20127e-05
9.80586e-05
0.0058189
-0.000132495
0.000236843
0.00548698
-0.000225404
0.00012831
0.00565701
-0.000311854
4.66802e-05
0.0057294
-0.000590934
0.000245083
0.00590205
-0.000411193
0.00047797
0.00593094
-0.000578977
0.000489604
0.00614046
-0.000508487
0.000662948
0.00746113
-0.00086018
0.000787652
0.00870543
-0.00137048
0.000701685
0.00795972
-0.000815543
0.000388423
0.00775694
7.00385e-05
-0.000212246
0.00366338
4.74945e-05
-7.54937e-05
0.00464019
-1.85208e-05
5.01884e-05
0.00477958
-0.000143895
0.000173038
0.0045062
-0.000239713
0.000236251
0.00433531
-0.000113669
0.000215696
0.00453742
-0.000340318
0.000469947
0.00481955
-0.000343618
0.000360948
0.00484048
-0.000391316
0.000306996
0.00474006
-0.000412938
0.000295655
0.0045986
-0.000536877
0.000381691
0.00533928
-0.000724844
0.000487434
0.00617429
-0.000899691
0.000463344
0.00601711
-0.000683028
0.000243505
0.00627769
-0.000110957
-9.35303e-05
-0.00112501
-1.54976e-05
-5.45802e-05
0.000858418
3.88089e-05
-8.64903e-06
0.00222946
5.51455e-05
9.71655e-06
0.00263228
-0.000110805
3.08853e-05
0.00270077
-9.2188e-05
6.99781e-05
0.00316413
-4.77778e-05
9.28973e-05
0.00300022
-9.01188e-05
0.000104883
0.00217019
-0.000136265
6.84604e-05
0.00224991
-7.11267e-05
5.27969e-06
0.0022047
-7.35085e-05
3.17808e-05
0.00268968
-0.000244403
2.76552e-05
0.00264359
-0.000358556
1.23975e-05
0.00340464
-0.00030096
-2.25159e-06
0.00270719
-0.000482049
-2.79917e-05
0.00440746
-0.000108234
-2.23585e-05
-0.0016429
-9.73654e-05
-2.92748e-05
-0.00109718
-4.07543e-05
-3.26075e-05
-0.000102009
2.49583e-05
-3.66094e-05
0.000595054
3.26583e-05
-3.76041e-05
0.000893559
-6.328e-05
-3.8204e-05
9.02793e-05
-0.000112126
-5.37845e-05
-0.000151339
-4.32371e-05
-7.66821e-05
0.000485884
-3.53073e-05
-7.765e-05
0.000863482
-2.90615e-05
-6.56214e-05
0.000730145
-6.20019e-06
-6.52652e-05
0.000450832
-2.64246e-05
-7.83085e-05
0.000426582
-4.78288e-05
-0.000108607
0.000368065
-6.98359e-05
-0.000113189
0.0016704
-2.73917e-05
-4.83014e-05
-0.00115312
-0.000164295
1.40582e-05
-0.000151952
-0.00157209
3.71676e-05
0.00210415
-0.00123806
-0.000132862
0.00346504
-0.00135704
-0.000130135
0.00284819
-0.0012444
2.2181e-05