/*--------------------------------*- C++ -*----------------------------------*\
  =========                 |
  \\      /  F ield         | OpenFOAM: The Open Source CFD Toolbox
   \\    /   O peration     | Website:  https://openfoam.org
    \\  /    A nd           | Version:  7
     \\/     M anipulation  |
\*---------------------------------------------------------------------------*/
FoamFile
{
    version     2.0;
    format      ascii;
    class       surfaceScalarField;
    location    "5.5";
    object      phi_0;
}
// * * * * * * * * * * * * * * * * * * * * * * * * * * * * * * * * * * * * * //

dimensions      [0 3 -1 0 0 0 0];

internalField   nonuniform List<scalar> 
54125
(
-4.11467e-05
1.85619e-05
-0.00111606
-0.000118805
-4.81638e-05
0.00297582
6.0679e-05
-4.76833e-05
-0.00172882
-3.18144e-05
1.61108e-05
-0.00110035
-0.000612004
0.000317764
0.00554478
0.000127765
-0.000132224
0.00109675
-2.44205e-06
-6.03213e-05
0.00300677
-7.02999e-05
-9.00366e-05
0.000101441
5.53934e-05
-4.24702e-05
-0.00172564
-2.65169e-05
1.55773e-05
-0.00108942
-0.00138982
0.000619571
0.00614479
0.0001051
5.96155e-05
0.00384533
-0.000421731
0.000275436
0.00568863
-0.000120956
-0.000140517
0.00169966
0.000158922
-0.000127168
0.00106006
6.12634e-05
-7.7626e-05
0.00299662
-5.11824e-05
-9.64223e-05
-0.000361482
-6.30998e-05
-8.11927e-05
0.000203264
5.37548e-05
-4.22614e-05
-0.00172155
-2.12435e-05
1.59535e-05
-0.00108413
-0.00188075
0.000507282
0.00455477
-0.000494263
0.000525157
0.00641783
-0.00136392
0.000634271
0.0064527
-0.00016405
-0.000112187
0.00283138
0.000251857
0.00010556
0.00392227
-0.000296799
0.000283655
0.00576304
-5.00359e-05
-0.000134978
0.00152372
-0.000120943
-0.000125094
0.00175543
0.000172719
-0.00014338
0.00100685
0.000138276
-9.01775e-05
0.00292727
-3.02099e-06
-9.19412e-05
0.00038855
-5.00697e-05
-8.74551e-05
-0.00030515
-5.42855e-05
-8.10414e-05
0.00029633
5.45676e-05
-4.09991e-05
-0.00171917
-1.90576e-05
1.67044e-05
-0.00108177
-0.00178778
0.000297423
0.00307583
-0.00144064
0.000949557
0.00656454
-0.00179783
0.000499003
0.00448968
-4.63169e-05
0.000164406
0.00655126
4.30515e-05
0.000503957
0.00675695
-0.00140268
0.000712795
0.00684579
-7.56757e-05
-7.51146e-05
0.00227996
-0.000168573
-3.99739e-05
0.00302455
0.000258988
0.000145804
0.00397385
-0.000173153
0.000276236
0.00579823
1.88307e-05
-0.000115612
0.0023419
-6.08113e-05
-0.000114292
0.00152366
-9.90285e-05
-0.000129943
0.00178674
0.000163432
-0.000147162
0.000954974
0.000174537
-8.94772e-05
0.00282316
3.54651e-05
-6.56309e-05
0.000767665
-3.35801e-06
-8.20345e-05
0.000386487
-5.41494e-05
-8.63988e-05
-0.000245643
-6.14415e-05
-8.09574e-05
0.00039773
5.47797e-05
-3.90267e-05
-0.00171822
-2.5521e-05
1.48594e-05
-0.00107111
-0.00182755
6.24791e-06
0.00507673
-0.00170061
0.000831286
0.00549005
-0.00172607
0.000445014
0.00255906
-0.000189643
0.00117833
0.00743202
-0.000986925
0.000854064
0.00723946
-0.00195968
0.000505664
0.00454101
9.14762e-05
0.000158019
0.00583737
2.03815e-05
0.000189006
0.00667726
9.72372e-05
0.000534842
0.00709665
-0.00135077
0.000781001
0.0072424
-0.000119548
0.000108958
0.00256805
-0.000171793
-7.34405e-05
0.00242441
-0.000174428
6.23882e-05
0.00318336
0.000225256
0.000212969
0.00397529
-0.000236987
0.000302674
0.00590708
8.94992e-05
-6.78198e-05
0.00246219
2.33877e-05
-0.000103425
0.00230429
-9.61675e-05
-0.000104853
0.00154059
-0.000126668
-0.00012269
0.00182749
0.000111616
-0.00014841
0.00095707
0.00010007
-7.98537e-05
0.00277742
4.61975e-06
-5.69908e-05
0.000551571
3.06999e-05
-5.98581e-05
0.000714789
-6.80072e-06
-7.99037e-05
0.000386793
-5.61866e-05
-8.50548e-05
-0.000185359
-6.07189e-05
-8.13668e-05
0.000500789
4.05009e-05
-4.06224e-05
-0.00170323
-4.18588e-05
1.59405e-05
-0.00104519
-0.00208238
0.00018257
0.00427915
-0.00143824
0.000158335
0.00499312
-0.00158521
1.34453e-05
0.00492243
-0.000863186
0.00146742
0.00701478
-0.00175301
0.000662879
0.00603827
-0.00181544
0.000408192
0.00200662
8.84341e-05
0.0013501
0.00679787
-0.000341164
0.00102942
0.00761821
-0.00101215
0.00103714
0.00781737
-0.00204347
0.000460103
0.00477362
-5.62499e-05
0.000288672
0.0046772
1.67737e-05
0.000178551
0.00565926
0.00028261
0.000222389
0.00653267
-1.61333e-05
0.000653919
0.00746512
-0.00144152
0.000717814
0.00772912
-0.000121952
0.000221029
0.00364066
-0.000136692
8.01776e-05
0.00257451
-0.000220842
7.75946e-06
0.00260371
-0.000162836
0.00013721
0.00329529
0.000377086
0.000249483
0.00376301
-0.00029742
0.000318131
0.00598644
-6.08812e-05
1.37422e-05
0.00228127
7.82099e-05
-3.95647e-05
0.00235082
1.8547e-05
-9.86417e-05
0.00227273
-0.000118114
-9.79345e-05
0.00157776
-0.000138024
-0.000116682
0.00187307
6.66997e-05
-0.000128784
0.000979802
3.25668e-05
-6.48108e-05
0.00276781
-2.49627e-05
-8.15277e-05
0.00048131
-9.04855e-06
-5.31248e-05
0.000553886
2.86003e-05
-6.05223e-05
0.000666807
-1.19382e-05
-7.74149e-05
0.000391091
-6.01756e-05
-8.36413e-05
-0.000122909
-6.86358e-05
-8.19403e-05
0.000610742
3.30349e-05
-3.93665e-05
-0.00168096
-4.748e-05
1.48849e-05
-0.0010126
-0.00170901
-0.000134751
0.00378279
-0.00130738
0.000397283
0.00564061
-0.00180721
0.000124395
0.00437675
-0.00123117
0.000655451
0.00590683
-0.00137406
8.65882e-05
0.00454103
-0.00149683
0.000205623
0.0043982
-0.000336108
0.00171939
0.00681251
-0.00116063
0.00118599
0.00731113
-0.00189816
0.000596772
0.0067357
-0.00191949
-0.000192341
0.00207498
3.25915e-05
0.00135902
0.00630682
7.26264e-05
0.00109817
0.00667327
-7.1299e-05
0.00112507
0.00788419
-0.00117187
0.00128702
0.00814619
-0.00202626
0.000369829
0.00498853
-0.000237892
0.000178588
0.00390502
-0.00030742
0.000308911
0.00471756
-0.000130366
0.000193494
0.00559768
0.000261007
0.000427608
0.00633514
0.000301195
0.000864007
0.00739482
-0.00132599
0.000783668
0.00797402
-0.000343245
0.00030555
0.00398445
-8.5559e-05
0.000286463
0.00359815
-0.000163435
9.60272e-05
0.00266822
-0.000245325
3.358e-05
0.00283455
-0.000208799
0.000220239
0.00339531
-4.20594e-05
0.000344357
0.00384555
-0.000392347
0.000379996
0.00603136
-9.40878e-05
5.27211e-05
0.00208233
3.41988e-05
4.1619e-05
0.00215684
5.70296e-05
-3.47776e-05
0.00225852
-1.35735e-05
-9.34022e-05
0.00226983
-0.000158679
-8.32013e-05
0.00164278
-0.000181088
-9.54228e-05
0.00195216
-2.61882e-05
-0.000104129
0.00107834
-1.863e-05
-5.43245e-05
0.00279328
-5.14493e-05
-8.69729e-05
0.000126605
-2.72869e-05
-7.43425e-05
0.000529814
-1.0366e-05
-5.51435e-05
0.000558873
2.75582e-05
-6.14863e-05
0.000623321
-1.40315e-05
-7.47829e-05
0.000396264
-6.44512e-05
-8.31769e-05
-5.72213e-05
-7.55717e-05
-8.33951e-05
0.000730343
2.06794e-05
-3.94887e-05
-0.00164727
-6.19772e-05
1.3262e-05
-0.000963882
-0.00171534
-1.25636e-05
0.00434013
-0.00131387
-2.78983e-05
0.00522155
-0.00147481
-7.05523e-05
0.00352094
-0.00123789
0.000309775
0.00571438
-0.00138071
0.000409583
0.00536207
-0.00177534
9.72618e-05
0.00455801
-0.000459732
0.000920153
0.00624049
-0.00123116
0.000295255
0.0057687
-0.00160295
0.000130594
0.00432085
-0.00157921
0.000268662
0.00378926
-0.000275527
0.00169844
0.00689335
-0.000675008
0.00156057
0.00718556
-0.00122788
0.000913934
0.00815055
-0.00185574
0.000152408
0.00707482
-0.00189955
-0.000610268
0.00255854
-0.000198782
0.00110855
0.00641399
-0.000286797
0.00103752
0.00634685
-0.000331501
0.00117023
0.00682925
-0.000168132
0.00155015
0.0080502
-0.001246
0.00128002
0.00878319
-0.00198814
0.000496016
0.00515466
-0.00037718
-2.7906e-05
0.00441533
-0.000358388
0.000266381
0.00422038
-0.000281288
0.000299922
0.00472899
-4.79972e-05
0.000334771
0.00549319
-0.000248985
0.00067363
0.0065657
-0.000483564
0.00102081
0.00759919
-0.00134642
0.000807363
0.00812073
-0.000329242
0.000353075
0.00390491
-9.37706e-05
0.000375743
0.00402314
-0.000133407
0.000262616
0.003622
-0.000224141
0.000117045
0.00279532
-0.000327252
0.000150803
0.00307256
-0.000418265
0.000335411
0.00364143
-0.000286934
0.000432855
0.00405343
-0.000431337
0.000364974
0.00607909
-0.000101571
4.23333e-06
0.00283951
-4.18155e-05
5.78151e-05
0.00208067
-8.70458e-05
5.49951e-05
0.00214375
4.99928e-05
-3.05079e-05
0.00217319
4.45987e-06
-8.7524e-05
0.00225567
-0.000190833
-5.99414e-05
0.00173368
-0.000224698
-7.45136e-05
0.00207167
-0.000129526
-7.70704e-05
0.00125129
-8.15763e-05
-5.22448e-05
0.00286512
-9.97753e-05
-6.2697e-05
-0.000612343
-4.5317e-05
-8.08526e-05
0.000178432
-2.83174e-05
-7.57054e-05
0.000578693
-1.35722e-05
-5.70277e-05
0.000567987
2.9577e-05
-6.26811e-05
0.000581642
-2.4913e-05
-7.22745e-05
0.000410275
-6.67775e-05
-8.50222e-05
1.11831e-05
-8.27619e-05
-8.55389e-05
0.000859155
1.18248e-05
-4.13737e-05
-0.00160446
-7.97432e-05
1.33066e-05
-0.000897446
-0.00192503
0.000150279
0.00299241
-0.00138022
0.000267321
0.00444115
-0.00145021
5.42523e-06
0.0043101
-0.00119723
0.00013996
0.00501423
-0.00150114
-8.14706e-06
0.00527958
-0.0016982
3.13266e-06
0.00344067
-0.0007351
0.000474797
0.00625311
-0.00130322
0.000348088
0.00584793
-0.00148094
0.000329032
0.00500829
-0.00178586
0.00015479
0.00460986
-0.000431222
0.00103082
0.00670082
-0.00068121
0.000548186
0.00599376
-0.000924254
0.000155749
0.00543992
-0.00163231
7.65451e-05
0.00428954
-0.00157919
0.00017607
0.00329283
-0.000290329
0.0015929
0.00684778
-0.000325027
0.00157027
0.00692188
-0.000978201
0.0013182
0.00742799
-0.0012272
0.000770679
0.00859135
-0.00177873
-0.000209456
0.00720674
-0.00184102
-0.000789287
0.00320071
-0.000319386
0.000815444
0.0065394
-0.000401975
0.000891687
0.00660341
-0.000228653
0.00111942
0.00634502
-0.000244521
0.00140658
0.00716935
-0.00072194
0.00151538
0.0082878
-0.00135023
0.00124176
0.00890412
-0.00187641
0.000416278
0.00526838
-0.000310052
-9.23042e-05
0.00443381
-0.000392018
0.00011532
0.00486464
-0.000155691
0.000301775
0.00424081
-0.000231239
0.000338511
0.00473235
-0.000439784
0.000504233
0.00577512
-0.000637027
0.000786885
0.00701839
-0.000932715
0.00110689
0.00794544
-0.00128551
0.00071577
0.00825913
-0.000146929
0.000218754
0.00400842
-0.000204145
0.000316341
0.00412664
-0.000286899
0.000346654
0.00413896
-0.000160958
0.000244642
0.00370535
-0.000156217
0.000164984
0.00294182
-0.000403329
0.000205437
0.00341503
-0.000471714
0.000419983
0.00390132
-0.000511021
0.000467226
0.00433267
-0.000453975
0.000385872
0.00606562
-0.000129374
-3.78065e-05
0.00296967
-9.71142e-05
1.81848e-05
0.00293093
-2.88621e-05
7.15537e-05
0.00206465
-0.000110381
6.78634e-05
0.00214219
3.56075e-05
-2.9017e-05
0.00210866
-7.74618e-05
-7.20155e-05
0.00232029
-0.000219128
-5.23954e-05
0.00186391
-0.000280507
-5.40286e-05
0.00224638
-0.000190969
-4.87415e-05
0.00145058
-0.000153963
-5.2941e-05
0.00299228
-4.88907e-05
-3.9657e-05
-0.000103367
-9.27775e-05
-5.73944e-05
-0.000543024
-4.68047e-05
-8.34455e-05
0.000232976
-3.09787e-05
-7.53011e-05
0.000627946
-2.0597e-05
-5.97775e-05
0.00058568
3.19165e-05
-6.37727e-05
0.000541223
-1.71639e-05
-7.12047e-05
0.000413621
-6.81008e-05
-8.7424e-05
8.11689e-05
-8.84332e-05
-8.97494e-05
0.000995964
2.56854e-07
-4.50239e-05
-0.00154638
-9.81299e-05
1.29639e-05
-0.00081228
-0.00196366
0.000115496
0.0029156
-0.00161257
0.00035666
0.00403131
-0.00180134
0.00023176
0.00311179
-0.00125254
0.000406506
0.00471405
-0.00152746
0.000184002
0.00428889
-0.00153345
-1.91404e-05
0.00416449
-0.000895998
0.000298603
0.00546473
-0.00126477
0.000102915
0.00486472
-0.00138583
5.74789e-05
0.00513012
-0.00178868
4.95386e-06
0.00343854
-0.000661562
0.000582898
0.00630657
-0.000607511
0.000496962
0.00603054
-0.000997534
0.00044001
0.00581023
-0.00150859
0.000342196
0.00469716
-0.00160697
0.000139635
0.004498
-0.000344366
0.0010379
0.006702
-0.000428404
0.000831189
0.00652119
-0.000976307
0.000447227
0.00570039
-0.00112157
3.2036e-05
0.00537879
-0.00160892
0.000122048
0.00417375
-0.00162103
7.782e-05
0.00299502
-0.00043329
0.00150595
0.00682653
-0.000177923
0.00139835
0.00679565
-0.000339605
0.00139746
0.00695358
-0.00100994
0.000976828
0.00798726
-0.0011282
0.00061794
0.00817022
-0.00150393
-0.000625161
0.00719631
-0.00177856
-0.000506179
0.00360904
-0.000166156
0.000608105
0.00583907
-0.000400449
0.000772548
0.00666697
-0.000101106
0.000932367
0.00673587
-0.000252995
0.00114334
0.00663002
-0.000599541
0.00118994
0.00765454
-0.000974466
0.00130683
0.00856016
-0.00149922
0.00101324
0.00887367
-0.00180164
0.00033231
0.0054522
-0.000289006
-3.3936e-05
0.00510089
-0.000438462
7.81006e-06
0.00477563
-0.000360741
0.000209886
0.00503037
-0.000420602
0.000311902
0.00452707
-0.00039702
0.000460208
0.00501717
-0.000642803
0.000575718
0.00622576
-0.000749335
0.000943884
0.00745902
-0.00109075
0.0010947
0.00814624
-0.00116553
0.00054678
0.0084239
-5.2606e-05
7.06563e-05
0.00401182
-0.000144849
0.000238268
0.00413422
-0.000150018
0.000314469
0.00427998
-0.000346285
0.0003458
0.00427371
-0.000179566
0.000246201
0.00383931
-0.000303348
0.000187881
0.00318526
-0.000468964
0.000293358
0.0037915
-0.000664109
0.000407256
0.00434489
-0.000730882
0.00054342
0.00471504
-0.000499715
0.00031787
0.0060935
-7.85342e-05
-5.51494e-05
0.00249835
-0.000115022
-1.2558e-05
0.00302265
-7.11652e-05
4.68908e-05
0.00297996
-9.34113e-06
7.87884e-05
0.00203209
-0.000164987
7.69785e-05
0.00218058
2.78143e-05
-2.57271e-05
0.00206647
-0.000107818
-6.08531e-05
0.0024194
-0.000256161
-3.41737e-05
0.00203212
-0.00034895
-1.89912e-05
0.00247714
-0.000272033
-2.82917e-05
0.00169822
-0.000242043
-5.38924e-05
0.00319009
1.81673e-05
-3.83469e-05
0.000994531
-5.05307e-05
-3.59976e-05
-7.42332e-05
-9.68372e-05
-5.78455e-05
-0.000471787
-4.59588e-05
-8.39711e-05
0.000287605
-3.3302e-05
-7.46572e-05
0.000676127
-2.21827e-05
-6.24167e-05
0.000606507
2.73855e-05
-6.40462e-05
0.000506679
-2.05509e-05
-7.04936e-05
0.000417241
-6.68717e-05
-9.06276e-05
0.000148919
-8.70975e-05
-9.65866e-05
0.00113462
-6.30584e-06
-4.6568e-05
-0.00148055
-0.000116194
1.20674e-05
-0.000708153
-0.00192353
4.2106e-05
0.00312656
-0.00164121
0.000131136
0.00377686
-0.00177964
0.000142229
0.00275167
-0.00111222
0.000387421
0.00431016
-0.00152071
0.000327203
0.00392912
-0.00184299
0.00023214
0.00318919
-0.000984909
0.000428365
0.00494889
-0.00139518
0.000293748
0.00473471
-0.00148067
3.79821e-05
0.00432661
-0.00156776
-8.55752e-05
0.00402914
-0.000764985
0.000446888
0.00567669
-0.000855314
0.000276323
0.00553913
-0.00127679
0.000162985
0.00503847
-0.00141273
0.000111135
0.00492808
-0.00161158
3.23643e-05
0.00341079
-0.000636374
0.000774592
0.00629664
-0.000584544
0.000609094
0.00635058
-0.000879332
0.000609277
0.0057643
-0.00113839
0.000591771
0.00557748
-0.00151455
0.000359364
0.00438306
-0.00163556
0.000176817
0.00433571
-0.000501665
0.00104876
0.00675538
-0.000177337
0.000967279
0.00656533
-0.000353056
0.000661831
0.00632004
-0.00112425
0.000310842
0.00553589
-0.00111563
0.000180087
0.00530818
-0.00155278
0.000147748
0.00415267
-0.0017576
-4.47495e-06
0.00297853
-0.000361611
0.00143993
0.00692306
-0.00042458
0.00125961
0.00698941
-0.000438258
0.00127158
0.00725867
-0.000723095
0.00112085
0.00727966
-0.00076702
0.000866282
0.0079064
-0.00117884
0.000288042
0.00746139
-0.00115115
-0.00041078
0.00675284
-0.00169148
-0.000201889
0.00370077
-0.000120478
0.000427404
0.00583919
-0.000540252
0.000613692
0.00609972
-0.000380193
0.00069761
0.00692118
-0.000451193
0.000858625
0.00705118
-0.000520538
0.000934866
0.00700861
-0.000730933
0.00106187
0.00798764
-0.00114748
0.0011681
0.00880344
-0.0013734
0.000953412
0.00853522
-0.0017183
0.000357462
0.00564751
-0.000160659
-9.33845e-06
0.00548333
-0.000206178
8.13602e-06
0.0051619
-0.000373539
7.7038e-05
0.005132
-0.000428967
0.000257155
0.0051678
-0.000464469
0.000372632
0.00489954
-0.000512348
0.000456896
0.005345
-0.00060351
0.000680821
0.00662337
-0.00092061
0.000967762
0.00784246
-0.0011921
0.000967122
0.00818711
-0.00102556
0.000531001
0.00841875
-0.000173769
-2.5826e-05
0.00431904
-9.30518e-05
0.000147595
0.00408052
-0.000101462
0.000258496
0.00422049
-4.27934e-06
0.000306077
0.00431464
-0.000414445
0.000369018
0.00440035
-0.000213479
0.000250173
0.00401831
-0.000385418
0.00024671
0.00350951
-0.00054591
0.00024769
0.00424081
-0.000806909
0.000537817
0.00480846
-0.000883881
0.00057445
0.00507031
-0.000508693
0.000275627
0.00608452
3.75248e-05
-5.87908e-05
0.0026293
-7.1664e-05
-2.01983e-05
0.00252712
-0.000123261
1.82239e-05
0.00307775
-2.5981e-05
6.04619e-05
0.00297831
-7.25088e-05
8.52823e-05
0.00206299
-0.00013065
8.03349e-05
0.00218299
1.1414e-05
-1.58969e-05
0.00203749
-7.9797e-05
-2.83438e-05
0.00247282
-0.000216621
-5.85816e-06
0.00216874
-0.000360236
-6.45745e-07
0.00272263
-0.000289948
-1.13461e-05
0.00193932
-0.000326382
-5.17765e-05
0.00345205
1.34084e-05
-3.72138e-05
0.000661917
1.84668e-05
-3.51476e-05
0.000975214
-5.56394e-05
-3.63691e-05
-4.00701e-05
-0.000100809
-5.77931e-05
-0.000397156
-4.63761e-05
-8.25614e-05
0.000341885
-3.55161e-05
-7.53613e-05
0.000724588
-2.29417e-05
-6.52444e-05
0.000630647
1.69626e-05
-6.33234e-05
0.000482547
-2.62863e-05
-7.13103e-05
0.000424211
-6.29266e-05
-9.5065e-05
0.000210324
-9.24386e-05
-0.000101732
0.00128223
-1.34531e-05
-4.76797e-05
-0.00140735
-0.000132242
1.20266e-05
-0.000587938
-0.00177728
-0.000198987
0.00317347
-0.00150483
-9.70066e-05
0.00404238
-0.00167047
-7.19655e-06
0.00302458
-0.00114749
0.000306615
0.00431014
-0.00145844
1.57393e-05
0.00384108
-0.00185437
0.000112733
0.00265031
-0.000900716
0.00047119
0.00462825
-0.00123164
0.000315883
0.00415794
-0.0014062
0.000368421
0.00371836
-0.00175491
0.000197195
0.00317914
-0.000671565
0.000407486
0.00501114
-0.000786989
0.000277295
0.00489701
-0.0013745
0.000102186
0.00476822
-0.00159632
-3.5e-05
0.00445963
-0.00158756
-5.84008e-05
0.00406352
-0.00071592
0.00056795
0.00558713
-0.000696152
0.000443357
0.00562127
-0.000867712
0.000273573
0.00541692
-0.00123441
0.000179927
0.00506569
-0.00134805
0.000189582
0.00460437
-0.00169764
5.67736e-05
0.0034161
-0.000471731
0.000758924
0.00645743
-0.000502274
0.000743831
0.00648684
-0.00052799
0.000723904
0.00641089
-0.000999948
0.000716722
0.00551505
-0.00108253
0.000641512
0.00526223
-0.00144442
0.000267066
0.00418445
-0.00176027
0.000113907
0.00422447
-0.000416952
0.00115231
0.00668466
-0.000362714
0.00090656
0.00675423
-0.000513114
0.000734613
0.0065674
-0.000613323
0.000490458
0.00603065
-0.000909892
0.000367358
0.00549149
-0.00110156
0.00022837
0.00515028
-0.00142348
0.000189598
0.00423093
-0.00167624
-2.55216e-05
0.00298882
-0.000239391
0.00127205
0.00662571
-0.000563019
0.00121416
0.00699127
-0.000518399
0.00120908
0.00719011
-0.000594815
0.00115063
0.00737251
-0.000782044
0.00105308
0.00735436
-0.000728203
0.000705754
0.00748596
-0.0011345
0.000151368
0.00688626
-0.00099445
-8.94943e-05
0.00626149
-0.00162123
-0.000156551
0.00376025
2.47551e-05
0.000268729
0.00636797
-0.000219792
0.000376901
0.0060896
-0.000558922
0.000570313
0.0064124
-0.000382721
0.00064655
0.00708701
-0.000486013
0.000798536
0.00720906
-0.000533815
0.000852807
0.00723914
-0.000644986
0.00102245
0.00817476
-0.000928881
0.00109584
0.00866929
-0.00108776
0.000928412
0.00785993
-0.00156712
0.000508304
0.00568076
-0.000211126
-7.23032e-05
0.00572277
-0.000171545
3.18627e-06
0.00556678
-0.000406758
6.43134e-05
0.00547992
-0.000186562
0.000148554
0.00542288
-0.000461881
0.000218788
0.00536908
-0.000506704
0.00033178
0.00531789
-0.000467154
0.000516129
0.00559142
-0.000588826
0.000751359
0.00688269
-0.00101
0.000871715
0.00814095
-0.00120755
0.000993746
0.00804804
-0.000750977
0.000542274
0.00811876
2.09527e-05
-0.000123818
0.00460695
9.65843e-06
5.09609e-05
0.00433435
-0.000150478
0.000204952
0.00416128
-4.2535e-05
0.000249777
0.00429335
-0.000203792
0.000393203
0.00442174
-0.000411302
0.000346258
0.00458491
-0.00021192
0.000267163
0.00422119
-0.000364794
0.000238694
0.0038035
-0.000463479
0.000458397
0.00456709
-0.000828774
0.000535522
0.00531592
-0.000780951
0.000548988
0.00528795
-0.000621905
0.00023248
0.00614757
3.61604e-05
-4.71663e-05
0.00224724
1.85697e-05
-2.58276e-05
0.00263482
-6.69838e-05
-3.71012e-06
0.0025604
-0.000127848
3.99018e-05
0.00312534
-1.78867e-05
6.03122e-05
0.00297479
-8.1988e-05
8.9044e-05
0.00210076
-0.000128691
8.07402e-05
0.0021921
-5.88972e-05
1.34148e-06
0.00208366
-0.000160693
-1.03683e-05
0.00261173
-0.000218013
6.43915e-06
0.00231674
-0.000378799
1.72633e-05
0.00298039
-0.000328895
-2.23278e-05
0.00222531
-0.000390636
-4.73396e-05
0.00375779
-3.92237e-05
-3.5881e-05
-0.000181187
1.43158e-05
-3.44151e-05
0.000646868
2.49289e-05
-3.58963e-05
0.000949813
-5.78169e-05
-3.69321e-05
-3.11423e-06
-0.000103092
-5.72313e-05
-0.000319394
-4.61251e-05
-8.14031e-05
0.000394052
-3.80981e-05
-7.68832e-05
0.000774325
-3.02631e-05
-6.59435e-05
0.00066353
1.1583e-05
-6.27893e-05
0.000462443
-2.40404e-05
-7.37703e-05
0.000426956
-5.98593e-05
-9.99325e-05
0.000268383
-7.63561e-05
-0.000106408
0.00141731
-1.5709e-05
-4.73922e-05
-0.00133222
-0.000145695
1.23643e-05
-0.000454607
-0.00161735
0.000117291
0.00235863
-0.00179031
1.73327e-05
0.00370279
-0.00159091
-0.000164581
0.00325849
-0.00125741
-5.46163e-05
0.00418421
-0.0012259
-0.000130008
0.00393265
-0.00166768
-7.21511e-05
0.00291004
-0.00061072
0.000196766
0.00439234
-0.00117255
5.80168e-05
0.00420877
-0.00124725
7.90958e-05
0.00371577
-0.00181983
4.3295e-05
0.00267194
-0.000429346
0.000525854
0.00463039
-0.000648525
0.000366052
0.00443962
-0.00111835
0.000253642
0.00401657
-0.00173279
0.000267848
0.00378418
-0.00184049
0.000195443
0.00323663
-0.000617661
0.000432791
0.00506501
-0.000775598
0.00033753
0.00503035
-0.000974488
0.000191143
0.00491483
-0.00134837
7.51722e-05
0.00477201
-0.00149326
-4.74727e-05
0.00459391
-0.00150844
6.179e-05
0.00381253
-0.000481471
0.000588426
0.00583034
-0.000669673
0.000562245
0.00563564
-0.00065365
0.000465284
0.00555522
-0.00084875
0.000235224
0.00521043
-0.00104326
0.000234965
0.00498103
-0.00109992
0.000116028
0.00420061
-0.00186688
0.000194456
0.00332826
-0.000581038
0.000871311
0.00647311
-0.000525119
0.000739414
0.00662425
-0.000559773
0.000843651
0.00641376
-0.000492763
0.000793735
0.00621331
-0.000972487
0.000658667
0.00556048
-0.00113225
0.000545589
0.0050144
-0.00157569
0.000264057
0.00418651
-0.00169158
8.65063e-05
0.0041533
-0.000558018
0.00121847
0.0070015
-0.000544837
0.000877456
0.00669559
-0.000428207
0.000763447
0.00663521
-0.000602251
0.000577593
0.0064877
-0.000651839
0.000397607
0.0058702
-0.000898206
0.000332579
0.00555728
-0.00119151
0.00032381
0.00507307
-0.00140994
0.000173785
0.00444711
-0.0016162
-7.11247e-06
0.00299091
-9.99103e-05
0.00108119
0.00657777
-0.000383047
0.00114766
0.00685547
-0.000605918
0.00119772
0.00704962
-0.000482342
0.00118088
0.00725949
-0.000511262
0.00104642
0.00740442
-0.000751482
0.000860947
0.00741684
-0.000775671
0.000462182
0.00730583
-0.000849657
0.000258025
0.00645952
-0.000922755
2.52732e-05
0.00591466
-0.00162086
-1.22179e-05
0.0038262
0.000205438
0.000237535
0.00597244
0.000105807
0.000210653
0.00625686
-0.000557572
0.000386963
0.00642376
-0.000459611
0.000590427
0.00674157
-0.000472212
0.000623253
0.00727262
-0.000617263
0.000805331
0.00736709
-0.000606266
0.000817508
0.00758319
-0.000594706
0.000961159
0.00831532
-0.00102081
0.000792696
0.00881582
-0.00110609
0.000965301
0.00730148
-0.00137183
0.000578585
0.00572304
-0.000118045
-0.000103579
0.00556923
-1.10834e-05
-2.38957e-05
0.00577059
-0.000291047
0.000162583
0.00560908
-1.5154e-05
6.09945e-05
0.00554009
-0.000266513
7.56458e-05
0.00562875
-0.000440834
0.000127231
0.00560316
-0.000466578
0.000395175
0.0056935
-0.000553657
0.0006063
0.00592535
-0.000562793
0.000662013
0.0071917
-0.000992028
0.000867324
0.00843063
-0.00110601
0.00101376
0.00790162
-0.000749579
0.000292259
0.00795417
8.59439e-05
-0.000227046
0.00461717
9.03206e-06
-2.50662e-05
0.00469251
-3.98576e-05
0.000121089
0.00439109
-0.000108785
0.000244217
0.00414778
-6.27905e-05
0.000309624
0.00442183
-0.000289379
0.00028564
0.00468975
-0.00039033
0.000390831
0.00472289
-0.000294394
0.00028705
0.00440833
-0.000515546
0.000354448
0.0042623
-0.000445177
0.000362688
0.00496709
-0.000806931
0.000494726
0.00579831
-0.00097951
0.00049488
0.00567616
-0.000701209
0.00023147
0.00622667
7.9349e-06
-7.11746e-05
0.00084317
2.80683e-05
-2.40289e-05
0.00223169
1.55253e-05
-7.14647e-06
0.00264766
-0.000104787
1.37245e-05
0.00263355
-0.000112506
4.68241e-05
0.00314825
-4.66981e-05
7.59005e-05
0.0029885
-0.00010361
0.000100825
0.00214618
-0.000133226
7.78123e-05
0.00221859
-6.81216e-05
-2.01004e-06
0.00215501
-9.12102e-05
9.9254e-06
0.00267542
-0.000255424
2.28795e-05
0.00250669
-0.000319984
8.99008e-06
0.0031927
-0.000307182
-1.65898e-05
0.00248604
-0.000443591
-3.62987e-05
0.00409198
-0.000100219
-3.11191e-05
-0.0011933
-3.92267e-05
-3.1896e-05
-0.000144479
2.32681e-05
-3.52369e-05
0.000622941
2.92809e-05
-3.69108e-05
0.00092051
-6.05063e-05
-3.7559e-05
3.77198e-05
-0.000110037
-5.57451e-05
-0.000235015
-4.73287e-05
-8.01399e-05
0.000444638
-3.48412e-05
-7.69392e-05
0.000820162
-3.14303e-05
-6.60001e-05
0.000698171
-6.09182e-07
-6.39484e-05
0.00045323
-2.29825e-05
-7.64562e-05
0.000426462
-5.67473e-05
-0.000105014
0.000323737
-7.92269e-05
-0.00010932
0.00155847
-2.08177e-05
-4.81468e-05
-0.00125089
-0.000157217
1.33166e-05
-0.000310707
-0.00152539
-0.000107474
0.00288283
-0.00139399
1.57258e-05
0.00285445
-0.00152515
0.000134776
0.00215809
-0.00129278
8.26495e-05
0.00392433
-0.00148978
5.34769e-05
0.00374861
-0.00163832
-0.000104271
0.00333341
-0.000660417
5.66881e-05
0.00429736
-0.0011524
-0.000121995
0.00415606
-0.00122219
-0.00010589
0.00394133
-0.00164646
-0.00012481
0.00286148
-0.000502779
0.000309897
0.00455776
-0.000683049
0.000116462
0.00436842
-0.000978194
0.000107861
0.00403985
-0.00143525
6.29055e-05
0.00339862
-0.00180101
7.04002e-05
0.00256206
-0.00050648
0.000628508
0.00470722
-0.000801215
0.000423132
0.00459893
-0.000928523
0.000289423
0.00435788
-0.00124754
0.000187352
0.00399624
-0.00171426
0.000190395
0.00401022
-0.00184563
6.804e-05
0.00350579
-0.000462878
0.000488261
0.00538639
-0.000613663
0.000376733
0.00496979
-0.000752271
0.000304169
0.00501595
-0.00101908
0.000237226
0.00492311
-0.00125464
9.57934e-05
0.00484012
-0.0010983
-3.01768e-05
0.00468426
-0.00153477
-9.3131e-05
0.00357354
-0.000765317
0.000786924
0.00579415
-0.000569585
0.000605874
0.00583118
-0.000619327
0.00057005
0.00559043
-0.000613744
0.000387904
0.00552352
-0.000964833
0.000262933
0.00517481
-0.00105071
0.000246942
0.00476857
-0.00130595
0.000297438
0.00382789
-0.0018155
0.000242034
0.00321015
-0.000658872
0.00103834
0.00627536
-0.000586613
0.000849881
0.00640442
-0.00030579
0.000834911
0.00651057
-0.00061271
0.00086661
0.00635134
-0.000437422
0.000635709
0.00602186
-0.000886024
0.000491661
0.00560223
-0.0012873
0.000509784
0.00486447
-0.00156943
0.000281619
0.00415089
-0.0016111
8.24694e-05
0.00406573
-0.000540236
0.00147782
0.0068668
-0.000612617
0.000972905
0.00713562
-0.000584897
0.000728346
0.00670967
-0.000350997
0.000657143
0.00642431
-0.000417484
0.000442301
0.00634923
-0.000898851
0.000356866
0.00599328
-0.000896311
0.000344916
0.00565682
-0.00124126
0.000417836
0.00522063
-0.0013969
0.000226377
0.00468776
-0.00171325
-2.28349e-06
0.00308558
0.000127041
0.00111434
0.00650304
-0.000106494
0.00109871
0.00683903
-0.000549172
0.00121461
0.00683019
-0.000608159
0.00120335
0.0071757
-0.000633213
0.00106872
0.0073982
-0.00073126
0.000911643
0.00746772
-0.000863508
0.00064164
0.00749462
-0.000775267
0.000462912
0.0072815
-0.001031
0.000365031
0.00612995
-0.00117629
0.000109377
0.00586327
-0.00161381
2.15133e-05
0.00404666
-0.000172196
4.27483e-05
0.00589805
-7.01795e-05
0.000247065
0.00599512
-9.88432e-05
0.000232891
0.00621873
-9.20249e-05
0.000430044
0.00666101
-0.00045712
0.000608318
0.00694711
-0.000396123
0.000680201
0.00735304
-0.000585897
0.000730121
0.0075738
-0.000591113
0.000804166
0.00777764
-0.000601324
0.000800781
0.00834576
-0.000828973
0.00071131
0.00890676
-0.00111552
0.00070638
0.00718319
-0.00122274
0.000454332
0.00574187
2.55586e-05
-0.000108663
0.00596516
-7.83834e-05
1.6165e-05
0.00561659
-6.43543e-05
0.000130362
0.00582731
-0.000165856
0.000252391
0.00547475
-0.000240504
0.000129733
0.00566372
-0.000325156
5.26863e-05
0.00573907
-0.000574265
0.000270141
0.00591213
-0.00043144
0.000483678
0.00595316
-0.000575958
0.000485391
0.00616238
-0.000502902
0.000655455
0.0074613
-0.000832292
0.000769235
0.00870051
-0.00139426
0.000663887
0.00794473
-0.000812076
0.000392569
0.00767247
5.8803e-05
-0.000198892
0.00365276
4.5895e-05
-4.96946e-05
0.00462397
-2.03901e-05
6.24046e-05
0.00478711
-0.000166543
0.000181108
0.00451595
-0.000220291
0.000233805
0.00433138
-0.000116531
0.000223561
0.00455374
-0.000346508
0.000472649
0.00485083
-0.000353978
0.000360983
0.0048697
-0.000392472
0.00030637
0.00478076
-0.000397254
0.000292167
0.00463887
-0.000540237
0.0003851
0.00536153
-0.000711055
0.000485476
0.00619879
-0.000872614
0.000463283
0.00600978
-0.000705086
0.000245743
0.00624242
-0.00011287
-9.06626e-05
-0.00112259
-1.74057e-05
-5.2351e-05
0.000849671
3.75972e-05
-4.8004e-06
0.00221501
5.96107e-05
1.19885e-05
0.00261907
-0.000116399
3.37655e-05
0.0027025
-9.40971e-05
7.08264e-05
0.00313738
-5.04398e-05
9.43657e-05
0.00299807
-8.57408e-05
0.000104542
0.00217035
-0.000127554
6.54152e-05
0.00224729
-7.52754e-05
5.99184e-06
0.00223361
-7.25824e-05
3.29444e-05
0.00271495
-0.00023964
2.75281e-05
0.00267104
-0.000351083
8.43847e-06
0.00343953
-0.000299268
-2.08726e-06
0.00273028
-0.000494987
-2.5958e-05
0.00445571
-0.000108349
-2.21413e-05
-0.00163206
-9.85695e-05
-2.84872e-05
-0.00109814
-4.14436e-05
-3.24666e-05
-0.000105806
2.42639e-05
-3.64573e-05
0.000598223
3.23056e-05
-3.76447e-05
0.000888291
-6.4536e-05
-3.83382e-05
8.4849e-05
-0.000112497
-5.38332e-05
-0.000148824
-4.23468e-05
-7.68078e-05
0.000486853
-3.5031e-05
-7.75374e-05
0.00086673
-2.76448e-05
-6.55599e-05
0.000727427
-6.58181e-06
-6.56451e-05
0.000449001
-2.50754e-05
-7.90975e-05
0.000425621
-4.40708e-05
-0.000110318
0.000368806
-6.72324e-05
-0.000113602
0.00169115
-2.80058e-05
-4.75504e-05
-0.00116202
-0.000165365
1.46425e-05
-0.000159984
-0.0015716
3.74143e-05
0.00210657
-0.00124066
-0.000135409
0.00346172
-0.00135809
-0.000129732
0.00284551
-0.00125036
2.56674e-05