/*--------------------------------*- C++ -*----------------------------------*\
  =========                 |
  \\      /  F ield         | OpenFOAM: The Open Source CFD Toolbox
   \\    /   O peration     | Website:  https://openfoam.org
    \\  /    A nd           | Version:  7
     \\/     M anipulation  |
\*---------------------------------------------------------------------------*/
FoamFile
{
    version     2.0;
    format      ascii;
    class       volVectorField;
    location    "5.5";
    object      U_0;
}
// * * * * * * * * * * * * * * * * * * * * * * * * * * * * * * * * * * * * * //

dimensions      [0 1 -1 0 0 0 0];

internalField   nonuniform List<vector> 
18750
(
(0.686015 -0.661805 0.978505)
(-2.01924 -0.0361381 0.122594)
(1.20606 0.700758 -0.235148)
(0.734732 -0.663886 0.943701)
(-3.76006 -1.10965 1.62303)
(-0.767322 0.497942 -0.882063)
(-2.0781 0.0796093 -0.0671946)
(-0.0528664 -0.866699 -1.73909)
(1.15274 0.704723 -0.222203)
(0.78471 -0.653452 0.91648)
(-4.24367 -2.88595 1.28029)
(-2.50214 0.848378 0.745851)
(-3.82169 -0.317369 1.47598)
(-1.14298 -0.434912 -0.951706)
(-0.728687 0.571827 -0.953447)
(-2.10085 0.177833 -0.233431)
(0.265026 -0.64709 -2.05065)
(-0.0610701 -0.853427 -1.71239)
(1.13878 0.695802 -0.212905)
(0.770034 -0.63548 0.888233)
(-3.27015 -4.15185 0.343477)
(-3.99875 -0.00294106 2.09987)
(-4.13287 -3.22919 1.31353)
(-1.90917 -0.845646 -0.197393)
(-2.65087 1.05204 0.751458)
(-3.90519 -0.0443257 1.39575)
(-1.02203 -0.233191 -0.917672)
(-1.13964 -0.509312 -0.966534)
(-0.786283 0.600241 -1.05683)
(-2.10965 0.241799 -0.304942)
(-0.25757 -0.229997 -1.98629)
(0.266903 -0.651346 -2.04841)
(-0.0738122 -0.834524 -1.7088)
(1.0945 0.75475 -0.160836)
(0.814741 -0.65404 0.855856)
(-2.39283 -3.55404 0.566038)
(-4.29055 -2.2888 1.82631)
(-2.96485 -4.76847 0.273288)
(-4.34929 -0.141216 1.08355)
(-4.48454 0.544916 2.36463)
(-4.2387 -3.07554 1.56818)
(-1.52501 -0.252281 -0.691761)
(-1.9164 -1.10101 0.325781)
(-2.76844 0.94186 0.890473)
(-4.02316 0.419437 1.22366)
(-1.57157 0.382632 -0.962705)
(-1.01891 -0.36251 -0.863676)
(-1.18342 -0.341316 -1.07651)
(-0.769062 0.596171 -1.16069)
(-2.07571 0.287659 -0.299646)
(-0.530485 0.0830165 -1.8387)
(-0.243979 -0.297954 -1.97837)
(0.266114 -0.650018 -2.03357)
(-0.087685 -0.850577 -1.69969)
(1.03245 0.813104 -0.0760609)
(0.917965 -0.708595 0.868175)
(-3.472 -2.32968 0.0587714)
(-3.88561 -3.39397 0.504161)
(-1.62637 -3.8178 1.14616)
(-4.98923 0.257551 2.57932)
(-4.47147 -0.461576 2.03856)
(-2.47718 -5.54367 -0.501256)
(-4.06418 -0.17238 -0.0539238)
(-4.48119 -0.422497 1.05103)
(-4.87318 0.299988 2.5307)
(-4.35141 -3.12975 1.81985)
(-1.72728 -0.0860353 0.137265)
(-1.58748 -0.464858 -0.690557)
(-2.0249 -1.25669 0.597256)
(-2.86217 0.601455 0.973242)
(-4.17381 0.406132 1.18278)
(-1.66926 0.861251 -0.700599)
(-1.57002 0.356389 -0.884628)
(-0.984684 -0.512099 -0.816222)
(-1.14227 -0.608834 -1.0026)
(-0.775785 0.561045 -1.13342)
(-2.04558 0.160465 -0.258645)
(-0.380397 -0.0508487 -0.915429)
(-0.494715 0.0793135 -1.77691)
(-0.215264 -0.368092 -1.9297)
(0.26545 -0.647734 -2.0253)
(-0.0997161 -0.862507 -1.69812)
(1.07064 0.692414 -0.174169)
(0.975986 -0.721209 0.868538)
(-2.84465 -2.85023 -0.440888)
(-3.59484 -2.29991 -0.0387795)
(-3.34683 -2.63759 0.0265265)
(-4.74169 -0.784973 2.48745)
(-3.44276 -4.37465 0.653535)
(-1.14048 -4.00937 0.831823)
(-4.515 1.08729 2.76041)
(-4.95726 0.369399 2.38775)
(-5.11927 -0.571463 2.8073)
(-2.28632 -5.67106 -0.715558)
(-3.25001 -0.745778 0.968556)
(-3.76562 -1.15772 0.200086)
(-4.43619 -0.700884 1.10736)
(-4.83841 -0.0859262 2.74452)
(-4.27264 -4.20515 0.815812)
(-2.41839 0.238079 0.727337)
(-1.70864 -0.202413 0.0752568)
(-1.56613 -0.897715 -0.0309704)
(-1.90773 -1.50117 1.15509)
(-2.60545 -0.147633 1.25234)
(-4.01604 -0.731419 1.09298)
(-1.56851 0.266092 -0.24806)
(-1.63072 0.662344 -0.760342)
(-1.56897 0.266138 -0.776237)
(-0.96364 -0.613708 -0.800438)
(-1.1325 -0.667324 -1.04289)
(-0.787538 0.381123 -1.01032)
(-1.90184 -0.312133 -0.200287)
(-0.305642 -0.308052 -1.47651)
(-0.374715 -0.0306634 -0.988019)
(-0.471963 0.0877644 -1.71262)
(-0.184871 -0.430934 -1.86068)
(0.266338 -0.657369 -2.02812)
(-0.114885 -0.904962 -1.66789)
(0.98878 0.758123 -0.123497)
(0.995521 -0.737391 0.826457)
(-2.60625 -2.35566 -0.0152474)
(-3.84808 -1.61239 0.918043)
(-2.81835 -2.7533 -0.400627)
(-4.09641 -1.79501 0.559629)
(-3.16382 -2.52612 0.0264188)
(-3.00197 -2.9381 0.182007)
(-4.40744 -0.454953 3.04764)
(-4.54709 -2.27839 2.0185)
(-3.96932 -4.91139 0.841553)
(-0.713836 -4.27049 0.181717)
(-4.19315 0.849763 3.35693)
(-4.56541 1.12458 2.73873)
(-5.38184 1.63154 2.566)
(-5.29166 -1.53556 2.78477)
(-2.24432 -5.54633 -0.941694)
(-2.5767 -1.0932 0.799367)
(-3.08313 -1.1652 0.978982)
(-3.69252 -1.39861 0.335468)
(-4.28272 -0.707886 1.71485)
(-5.53155 1.45414 3.31574)
(-4.50863 -4.02334 0.471558)
(-2.68196 -0.77791 0.966658)
(-2.46201 0.141011 0.631536)
(-1.7293 -0.386388 0.135459)
(-1.73622 -1.24345 0.0793121)
(-2.0393 -1.81783 1.20262)
(-2.55279 -0.660773 1.51166)
(-3.88316 -1.34028 1.11185)
(-1.37708 -0.150639 0.47271)
(-1.4455 -0.318785 0.157335)
(-1.59554 0.442086 -0.796418)
(-1.55586 0.117619 -0.675974)
(-0.937597 -0.761428 -0.683368)
(-1.06413 -0.944546 -0.860844)
(-0.761606 0.0580897 -0.814156)
(-1.84976 -0.509651 -0.197317)
(-0.0825724 -0.504964 -1.89811)
(-0.320467 -0.37586 -1.45738)
(-0.378478 -0.0342094 -1.0739)
(-0.457001 0.113812 -1.6545)
(-0.151564 -0.483495 -1.77772)
(0.259028 -0.663418 -2.06561)
(-0.128229 -0.945168 -1.65762)
(0.96357 0.732751 -0.118547)
(1.0693 -0.774189 0.750607)
(-2.91237 -1.41451 -0.102631)
(-3.55118 -1.52714 -0.278065)
(-2.43286 -2.53855 0.0452283)
(-3.77449 -1.68591 0.148125)
(-3.6356 -2.13307 0.766904)
(-2.83045 -2.54114 -0.228454)
(-4.2277 -0.480916 1.39196)
(-3.75791 -2.21236 0.293196)
(-2.5948 -2.93538 0.51046)
(-2.23772 -3.31182 0.191171)
(-4.45443 -0.472463 3.23356)
(-4.59132 -1.12741 2.88708)
(-4.92353 -3.01811 1.59095)
(-4.08744 -5.20905 -0.91833)
(-0.705623 -4.35738 -0.259255)
(-4.25888 0.199221 2.78828)
(-4.21898 -0.610125 2.74115)
(-4.47554 0.101678 3.03981)
(-5.60662 0.785477 3.81844)
(-5.288 -2.17606 2.55129)
(-1.98934 -5.59599 -0.738609)
(-2.90202 -1.49218 0.183852)
(-2.65428 -1.09375 1.06768)
(-3.02524 -1.47438 0.944723)
(-3.5001 -1.56931 0.991014)
(-4.13409 -1.13013 2.64076)
(-4.79802 -1.82357 4.06611)
(-4.16111 -4.4925 0.563036)
(-2.54242 -0.677855 1.58539)
(-2.55936 0.711845 1.84737)
(-2.4005 -0.132069 0.706965)
(-1.70677 -0.819282 0.271917)
(-1.58662 -1.75042 0.748205)
(-1.71957 -2.17024 1.81807)
(-2.19158 -1.61268 2.02413)
(-3.61572 -2.14943 0.697665)
(-1.86763 -0.578768 0.232503)
(-1.37835 -0.297288 0.517494)
(-1.4131 -0.469971 0.279082)
(-1.53718 0.234767 -0.826564)
(-1.5681 0.0403698 -0.561367)
(-0.919022 -0.941022 -0.544708)
(-1.0167 -1.21274 -0.679191)
(-0.760107 -0.25275 -0.638129)
(-1.72801 -0.896977 -0.293896)
(0.381906 -1.07681 -1.75749)
(-0.0980561 -0.535793 -1.93346)
(-0.323523 -0.426087 -1.44881)
(-0.381152 -0.0651407 -1.1667)
(-0.449923 0.149672 -1.60559)
(-0.118825 -0.536026 -1.70222)
(0.251324 -0.656533 -2.125)
(-0.160573 -1.00391 -1.6673)
(0.922897 0.722017 -0.112192)
(1.14727 -0.800833 0.73313)
(-2.06437 -1.86845 0.0517497)
(-3.12276 -1.26737 0.0856528)
(-2.93474 -1.33647 -0.0498321)
(-3.44173 -1.25516 0.19962)
(-3.4033 -1.95423 -0.205344)
(-2.02072 -2.9324 0.0538849)
(-4.12148 -0.642601 0.658535)
(-3.7309 -2.16556 0.428528)
(-3.25556 -2.78735 0.50231)
(-2.64012 -2.61796 0.15996)
(-4.44963 -0.240171 1.47628)
(-4.01657 -1.82854 0.645063)
(-3.63691 -2.27664 -0.0353164)
(-2.46624 -2.95052 0.6783)
(-1.64164 -3.47037 -0.135484)
(-4.46095 -0.638841 3.10114)
(-4.62968 -0.836164 3.34743)
(-4.75756 -2.37632 2.1529)
(-5.33488 -3.19516 1.55882)
(-3.74224 -5.40805 -2.18975)
(-0.796074 -4.28781 -0.325936)
(-4.34262 -0.184321 2.18066)
(-4.29645 -1.11736 2.41391)
(-4.16082 -0.595943 2.7688)
(-4.69413 0.255005 3.87764)
(-5.2021 -2.16614 3.95821)
(-5.34383 -3.55187 2.9126)
(-1.88743 -5.58005 -0.545476)
(-2.92975 -1.43654 -0.351001)
(-3.00678 -1.7149 0.577225)
(-2.6994 -1.51178 1.01635)
(-2.93619 -1.78788 1.18953)
(-3.42881 -1.97221 1.55897)
(-3.95681 -2.71285 2.89883)
(-4.54458 -3.10018 4.06424)
(-4.33477 -4.44495 0.00594721)
(-2.60528 -0.16132 1.3715)
(-2.66736 -0.256997 1.58725)
(-2.79848 -0.863298 1.56738)
(-2.42159 -0.229362 0.736034)
(-1.84053 -0.786031 0.670792)
(-1.70248 -2.19616 1.11953)
(-1.81273 -2.6812 2.11142)
(-2.00507 -2.83383 2.26454)
(-3.27689 -2.798 0.0972715)
(-1.95636 -1.01786 -0.184565)
(-1.89683 -0.614852 0.330193)
(-1.36831 -0.355169 0.588941)
(-1.34317 -0.636234 0.388768)
(-1.48859 0.114087 -0.842368)
(-1.51579 -0.295328 -0.346799)
(-0.901065 -1.09142 -0.411632)
(-0.963215 -1.49404 -0.447302)
(-0.769997 -0.486268 -0.501723)
(-1.54368 -1.33534 -0.429821)
(0.0442959 -0.689417 -0.860746)
(0.400499 -1.10845 -1.80357)
(-0.0894859 -0.571596 -1.99806)
(-0.333691 -0.462832 -1.42741)
(-0.379779 -0.114832 -1.25962)
(-0.443404 0.173232 -1.55837)
(-0.0876223 -0.545822 -1.70995)
(0.240471 -0.637501 -2.19514)
(-0.202016 -1.01409 -1.75933)
(0.875783 0.706692 -0.0951863)
(1.20584 -0.815768 0.704856)
(-2.01052 -1.62428 0.239461)
(-2.71551 -1.32637 0.241065)
(-1.92072 -2.04442 0.101225)
(-3.20916 -1.22504 0.438657)
(-2.74948 -2.00054 0.0664746)
(-2.60989 -1.78803 -0.0426763)
(-3.61635 -0.961333 0.154447)
(-3.21295 -1.63343 0.176908)
(-3.35705 -2.00925 -0.0496579)
(-1.76419 -3.1134 -0.0777537)
(-4.13226 -0.685676 0.612646)
(-4.12589 -0.627992 0.600082)
(-3.93124 -1.51726 0.4708)
(-2.81439 -3.07601 0.282414)
(-2.61311 -2.58955 0.278471)
(-4.42385 -0.110382 1.76741)
(-4.38635 -0.738527 1.24526)
(-3.72505 -2.20943 0.509715)
(-3.17318 -2.64328 -0.383262)
(-2.29044 -2.86076 0.68596)
(-1.15218 -3.57082 -0.308434)
(-4.42807 -0.723565 2.76577)
(-4.55896 -0.791662 3.10208)
(-4.51921 -1.13833 3.0812)
(-4.76374 -2.72253 1.64061)
(-5.17752 -3.22478 1.28519)
(-3.74301 -4.98135 -2.80863)
(-0.977456 -4.16438 -0.174191)
(-3.76841 0.187677 1.61229)
(-4.3707 -0.698055 2.03045)
(-4.42465 0.0510952 2.72373)
(-4.31881 -0.384751 3.13481)
(-4.78803 -2.077 3.5586)
(-4.97681 -3.28572 3.39388)
(-4.55295 -5.35501 2.36812)
(-1.48725 -5.77564 -0.556031)
(-3.40175 -0.737566 -0.206416)
(-2.95409 -1.46697 0.226421)
(-3.17253 -1.82947 0.861073)
(-2.69506 -1.95134 1.0304)
(-2.99523 -1.59972 1.6915)
(-3.45559 -2.50065 1.97772)
(-4.31858 -3.03782 3.4233)
(-4.27235 -4.02373 4.05272)
(-4.18262 -4.36852 -0.62053)
(-2.57707 0.106033 0.493587)
(-2.71074 -0.502731 1.33966)
(-2.75379 -0.30489 1.58518)
(-2.70465 -1.19616 1.43103)
(-2.46247 -0.542482 0.742908)
(-1.67097 -1.55459 0.796918)
(-1.63731 -2.59313 1.54186)
(-1.76462 -3.29702 2.20455)
(-1.68764 -3.51591 3.03408)
(-2.88246 -3.39986 -0.445584)
(-1.63488 -0.206519 -0.312849)
(-1.96144 -1.09105 -0.0500271)
(-1.91529 -0.71346 0.466315)
(-1.2945 -0.484117 0.664391)
(-1.28912 -0.876852 0.433703)
(-1.45615 0.0310932 -0.804133)
(-1.58353 -0.17363 -0.372158)
(-0.899511 -1.25039 -0.33917)
(-0.870441 -1.81019 -0.164156)
(-0.7808 -0.800815 -0.380207)
(-1.32511 -1.82512 -0.523167)
(-0.666704 0.200981 -0.787774)
(0.0721312 -0.731057 -0.832019)
(0.424198 -1.14476 -1.84103)
(-0.0887436 -0.60669 -1.99145)
(-0.326293 -0.509548 -1.44375)
(-0.375762 -0.17735 -1.34526)
(-0.446066 0.188025 -1.49204)
(-0.0616105 -0.543625 -1.7319)
(0.223147 -0.606104 -2.27377)
(-0.284248 -0.987065 -1.94506)
(0.825928 0.687157 -0.0775048)
(1.26206 -0.837743 0.648962)
(-2.1043 -1.65492 0.0143907)
(-2.51149 -1.57016 -0.0600479)
(-1.82682 -1.76214 0.262087)
(-2.96157 -1.11868 0.400825)
(-2.58845 -1.59685 0.361575)
(-1.89966 -2.07516 0.0268166)
(-3.22992 -0.861253 0.448259)
(-3.00011 -1.72983 0.336405)
(-2.73286 -1.96605 0.010044)
(-2.41221 -2.07529 -0.0573079)
(-3.79054 -0.79108 0.507997)
(-3.61291 -1.30057 0.118439)
(-3.08094 -1.89244 0.202739)
(-3.06932 -2.15309 0.0929704)
(-1.88345 -2.90532 -0.214472)
(-4.09309 -0.571747 0.987291)
(-4.13508 -0.855703 0.822719)
(-3.73809 -1.62152 0.787825)
(-3.35464 -2.13859 0.732295)
(-2.36597 -3.2362 0.153553)
(-2.41488 -2.65754 0.44972)
(-4.48239 -0.545659 1.44539)
(-4.37475 -0.204156 1.64923)
(-4.23161 -1.01331 1.07432)
(-3.32668 -2.51004 0.458336)
(-3.03459 -2.77018 -0.219126)
(-2.11135 -2.73238 0.536668)
(-0.876069 -3.65606 -0.392562)
(-4.4581 -0.552307 2.74147)
(-4.57221 -1.24997 2.57352)
(-4.52127 -1.26186 2.66909)
(-4.45279 -2.00334 2.20194)
(-4.95234 -2.52015 1.27099)
(-4.37389 -3.69091 0.226242)
(-3.43277 -4.07929 -1.7752)
(-1.07753 -3.92347 0.132018)
(-3.82388 -0.371589 1.10827)
(-3.78261 -1.1939 1.85326)
(-4.41358 -0.88733 1.94601)
(-4.41977 -1.48973 2.40442)
(-4.29949 -2.05551 2.34855)
(-4.53825 -3.24936 3.06754)
(-4.71157 -4.37836 2.74859)
(-4.08359 -5.68486 2.02333)
(-1.31533 -5.70515 -0.832099)
(-3.59672 -0.349277 0.0158005)
(-3.35295 -0.821046 -0.194417)
(-3.10027 -1.34841 0.520596)
(-3.08993 -2.32175 0.891742)
(-2.69427 -2.08606 1.27447)
(-2.93738 -2.26892 1.7156)
(-3.55919 -3.02601 2.32917)
(-3.78972 -4.2405 3.37171)
(-3.59727 -5.32252 3.70149)
(-4.0107 -4.48971 -0.833808)
(-2.7926 -0.371313 0.0653437)
(-2.64382 -0.0986634 0.853585)
(-2.70881 -0.400882 1.32423)
(-2.9252 -0.206648 1.64218)
(-2.41364 -1.81636 1.4445)
(-2.489 -0.821596 0.79687)
(-1.45487 -2.31079 1.15438)
(-1.67109 -3.15311 1.28262)
(-1.43088 -3.89813 2.15075)
(-1.37237 -4.33668 3.02746)
(-2.33833 -4.00777 -0.677689)
(-1.71517 0.171708 -0.443658)
(-1.63966 -0.407158 -0.134801)
(-1.89653 -1.19976 0.257386)
(-1.89631 -0.753636 0.50014)
(-1.26102 -0.591059 0.742324)
(-1.25986 -0.932995 0.448365)
(-1.37685 -0.238519 -0.609717)
(-1.6563 -0.42101 -0.173015)
(-0.906191 -1.36671 -0.112283)
(-0.872559 -2.04465 0.0208722)
(-0.790915 -1.04712 -0.305132)
(-1.11158 -2.30438 -0.568615)
(-0.436954 0.283959 -0.802449)
(-0.661241 0.203911 -0.814895)
(0.106185 -0.757136 -0.805196)
(0.456851 -1.18589 -1.854)
(-0.0875817 -0.665385 -1.93416)
(-0.318036 -0.567813 -1.46085)
(-0.361539 -0.237567 -1.41427)
(-0.448764 0.199712 -1.42811)
(-0.0344401 -0.549253 -1.78063)
(0.195705 -0.564825 -2.37193)
(-0.316683 -1.06193 -2.04296)
(0.777398 0.661162 -0.0584328)
(1.32157 -0.846735 0.623872)
(-2.0959 -1.13589 -0.189516)
(-2.66879 -1.07591 0.0468661)
(-1.99158 -1.77527 -0.0243598)
(-2.87526 -0.777918 0.301801)
(-2.40748 -1.69844 -0.0223466)
(-1.56406 -1.97441 0.123852)
(-3.0578 -0.960302 0.3408)
(-2.68234 -1.54417 0.317853)
(-2.36815 -1.87439 0.4337)
(-1.88188 -2.07454 0.0623811)
(-3.36126 -0.695402 0.401313)
(-3.20827 -1.06275 0.351886)
(-2.974 -1.89141 0.0694498)
(-2.52411 -2.19793 -0.114794)
(-2.32315 -2.15511 -0.0203421)
(-3.67692 -0.808485 0.596504)
(-3.69944 -1.03161 0.556203)
(-3.49848 -1.48205 0.205296)
(-3.05167 -2.05234 0.170243)
(-2.69937 -2.26485 0.285056)
(-1.37734 -3.13355 -0.0140677)
(-4.2308 -0.553382 1.05713)
(-4.16199 -0.584996 1.03278)
(-4.17087 -0.90115 0.995692)
(-3.42284 -2.16809 0.956248)
(-3.21132 -2.37413 0.836826)
(-1.99241 -3.34507 0.0496884)
(-1.82323 -3.1006 0.1712)
(-4.51136 -0.364258 1.81117)
(-4.38248 -0.675983 1.64643)
(-4.20211 -1.30344 1.17653)
(-3.78238 -2.04108 0.678982)
(-3.28251 -2.32457 0.743705)
(-2.82073 -2.86927 0.0325609)
(-2.05608 -2.65084 0.359706)
(-0.604893 -3.68743 -0.416946)
(-4.29094 0.143152 2.59673)
(-4.61926 -1.36725 2.49335)
(-4.54124 -1.51317 2.45203)
(-4.60172 -1.74478 2.33446)
(-4.53147 -2.08666 2.11951)
(-4.70104 -2.48604 0.98179)
(-3.70595 -3.75254 0.0535188)
(-3.10676 -3.56253 -0.870018)
(-0.962696 -3.76916 0.184497)
(-4.18999 -0.107279 0.808923)
(-3.92068 -0.435203 1.2315)
(-4.14319 -1.41509 1.53406)
(-4.49133 -1.25325 1.85893)
(-4.41909 -2.08811 2.1842)
(-4.20194 -2.47102 2.14755)
(-4.64989 -3.12794 3.03603)
(-4.42611 -4.64666 2.65927)
(-3.7164 -5.1103 2.4474)
(-1.48035 -5.33593 -0.4105)
(-3.65762 -0.667166 -0.0694946)
(-3.64186 -0.893307 0.262024)
(-3.35246 -0.963183 -0.0600857)
(-3.51754 -0.796095 0.786755)
(-3.06397 -2.42564 1.04461)
(-2.82777 -2.43531 1.18897)
(-3.11476 -2.43257 2.05405)
(-3.57078 -3.43891 2.50683)
(-3.52878 -5.06625 2.8675)
(-2.99841 -5.81375 3.8453)
(-4.0788 -4.271 -1.15411)
(-2.98564 0.430113 -0.269719)
(-2.8213 -0.440725 0.481105)
(-2.73856 -0.392724 1.02531)
(-2.87367 -0.146805 1.22059)
(-2.65877 -1.09919 1.82226)
(-2.77359 -1.70842 1.447)
(-2.58671 -1.02485 0.932952)
(-2.0657 -2.19844 1.00306)
(-1.78291 -2.8531 2.40392)
(-1.49964 -4.1609 2.37522)
(-1.28111 -4.5122 2.91705)
(-1.80152 -4.53827 -0.661063)
(-1.50025 -0.1133 -0.406386)
(-1.73424 0.044772 -0.174282)
(-1.62033 -0.591319 0.0487435)
(-1.84216 -1.29831 0.430185)
(-1.83378 -0.79234 0.508283)
(-1.25315 -0.683836 0.766047)
(-1.22215 -0.967829 0.399965)
(-1.22843 -0.651625 -0.297153)
(-1.56938 -0.67893 0.0270616)
(-0.929715 -1.44579 -0.0326693)
(-0.799122 -2.25191 0.196583)
(-0.787492 -1.30275 -0.233299)
(-0.899747 -2.74033 -0.576649)
(0.102679 -0.596505 -0.818463)
(-0.441365 0.313132 -0.791888)
(-0.673865 0.225998 -0.850808)
(0.119283 -0.725203 -0.778404)
(0.488792 -1.23049 -1.83404)
(-0.0619059 -0.71175 -1.93722)
(-0.307029 -0.615537 -1.50443)
(-0.311221 -0.391078 -1.43653)
(-0.419239 0.114308 -1.40718)
(-0.00499259 -0.550823 -1.86512)
(0.156407 -0.518532 -2.4764)
(-0.427639 -1.0518 -2.11604)
(0.729742 0.631389 -0.0349216)
(1.36128 -0.861202 0.61447)
(-1.68747 -1.37055 0.0697442)
(-2.39495 -1.02007 -0.0734814)
(-2.07964 -1.12685 -0.231014)
(-2.73603 -1.00514 -0.181932)
(-2.61342 -1.20194 0.0138293)
(-1.78583 -1.89593 -0.0713163)
(-2.97384 -0.527555 0.193845)
(-2.72584 -1.15221 0.0619064)
(-2.51206 -1.39823 0.0753696)
(-1.47883 -2.01505 0.0586101)
(-3.16494 -0.472578 0.527389)
(-3.02099 -0.886992 0.340508)
(-2.57401 -1.63763 0.315497)
(-2.12251 -2.1622 0.333479)
(-1.59247 -2.30731 0.164442)
(-3.35701 -0.583867 0.495888)
(-3.2287 -0.908504 0.275823)
(-3.1193 -1.28456 0.180957)
(-2.90977 -1.96001 0.0171738)
(-2.58693 -2.256 -0.110549)
(-2.14089 -2.23026 0.136575)
(-3.85987 -0.40217 0.672329)
(-3.6358 -1.06792 0.639605)
(-3.54545 -1.25537 0.508159)
(-3.31688 -1.60427 0.308283)
(-3.08997 -1.97046 0.210075)
(-2.59216 -2.17013 0.139139)
(-1.2862 -3.19784 -0.0556633)
(-4.22774 -0.521208 0.988908)
(-4.20267 -0.709679 1.11889)
(-4.20548 -1.07673 1.15853)
(-4.03938 -1.18103 1.14584)
(-3.28731 -2.08538 1.07333)
(-2.93354 -2.48437 0.712924)
(-1.84925 -3.2789 0.162874)
(-1.81547 -3.05768 0.0397631)
(-4.47685 -0.655117 1.74805)
(-4.32212 -0.967119 1.48461)
(-4.29666 -1.29626 1.32985)
(-4.05997 -1.87407 0.942616)
(-3.42843 -2.60871 0.56182)
(-3.03664 -2.61137 0.653169)
(-2.58918 -2.91068 0.348327)
(-1.93122 -2.82537 0.311069)
(-0.446187 -3.71275 -0.411908)
(-4.11633 0.472986 2.10464)
(-4.4465 -0.806023 2.45267)
(-4.42916 -1.76301 2.41965)
(-4.55242 -1.6962 2.33823)
(-4.69407 -1.89927 2.14231)
(-4.50215 -2.28834 1.75157)
(-4.16126 -2.77978 0.622657)
(-3.72443 -2.91802 0.493727)
(-3.03789 -3.39903 -0.767366)
(-0.828137 -3.78536 0.139178)
(-4.0767 -0.00107641 0.454436)
(-4.14489 -0.146485 0.590048)
(-3.8457 -1.89084 1.29368)
(-4.14077 -1.43519 1.40722)
(-4.43181 -1.84122 1.76435)
(-4.37823 -2.48428 1.97986)
(-4.29858 -2.65195 1.94255)
(-4.6016 -3.27545 2.80295)
(-4.09815 -4.85652 1.9699)
(-3.08416 -4.79384 2.76435)
(-1.59551 -4.54907 1.32708)
(-3.65784 -0.111449 -0.339)
(-3.84367 0.314811 -0.257926)
(-3.48417 -1.38724 0.493042)
(-3.52156 -1.23524 0.111128)
(-3.37527 -1.63572 0.364893)
(-2.9027 -2.94289 0.877246)
(-3.06923 -2.65274 1.22126)
(-2.88207 -2.95163 2.28393)
(-3.52539 -3.48593 2.44801)
(-3.2879 -5.43615 2.81402)
(-3.05851 -5.27931 4.22001)
(-3.30876 -4.58009 -0.718101)
(-2.9647 0.709405 -0.76954)
(-3.02615 0.0305669 0.0083088)
(-2.86062 -0.461159 0.832477)
(-2.66127 -0.635293 1.04725)
(-2.76932 -0.280037 1.80838)
(-2.79407 -1.42972 1.58838)
(-2.67776 -1.92133 1.49193)
(-2.48728 -1.58851 1.00338)
(-1.22368 -2.86263 1.78975)
(-2.09261 -3.30751 2.09819)
(-1.59571 -4.52954 2.1237)
(-0.955496 -4.88815 2.51773)
(-1.41085 -4.92792 -0.614284)
(-0.57377 -0.134904 -0.306192)
(-1.45352 -0.245467 -0.237805)
(-1.74165 0.020721 -0.105698)
(-1.59574 -0.790698 0.208618)
(-1.86283 -1.37935 0.435069)
(-1.82685 -0.837096 0.527967)
(-1.23094 -0.794467 0.812789)
(-1.16767 -1.01583 0.322705)
(-1.19556 -0.76441 -0.205326)
(-1.61275 -0.745983 0.124047)
(-0.910698 -1.56997 0.044479)
(-1.00781 -2.20161 -0.0216175)
(-0.864512 -1.4551 -0.163813)
(-0.703521 -3.13295 -0.535315)
(0.743762 -1.27258 -0.639895)
(0.118179 -0.604205 -0.84708)
(-0.45803 0.340054 -0.783765)
(-0.663871 0.213959 -0.896678)
(0.14276 -0.712337 -0.758651)
(0.541317 -1.29309 -1.76604)
(-0.0421972 -0.741745 -1.95338)
(-0.312523 -0.633589 -1.49711)
(-0.269337 -0.491475 -1.41739)
(-0.333108 -0.049404 -1.42196)
(0.0152685 -0.538537 -1.96144)
(0.104221 -0.46814 -2.5832)
(-0.423039 -1.14967 -2.11278)
(0.685324 0.598265 -0.0103183)
(1.38783 -0.872786 0.622177)
(-1.90682 -0.739329 -0.0413578)
(-1.91821 -1.53032 0.0740748)
(-1.41229 -1.59487 0.11822)
(-2.56373 -0.753325 0.0920078)
(-2.40248 -0.980821 -0.0140711)
(-2.04544 -1.22591 -0.155166)
(-2.88368 -0.314075 0.0824784)
(-2.67375 -1.22545 -0.244249)
(-2.42082 -1.43099 -0.0410831)
(-1.61244 -1.96608 -0.119164)
(-3.03698 -0.106678 0.163205)
(-2.84562 -0.601644 0.0487341)
(-2.66298 -1.14049 0.0650537)
(-2.00471 -1.95574 0.0248455)
(-1.32912 -2.07643 0.033328)
(-3.14185 -0.471937 0.49673)
(-2.91891 -1.02428 0.412516)
(-2.70685 -1.39989 0.228696)
(-2.34829 -1.82371 0.213194)
(-2.1057 -2.16283 0.212081)
(-1.62414 -2.35024 0.0752401)
(-3.59788 -0.437789 0.367533)
(-3.22342 -0.817397 0.516818)
(-3.20251 -1.00204 0.23469)
(-3.02611 -1.5025 0.174897)
(-2.79403 -1.97665 -0.00572634)
(-2.66174 -2.10688 -0.00489766)
(-1.58353 -2.63515 0.0393411)
(-3.74182 -0.692421 0.774476)
(-3.75415 -1.01012 0.761457)
(-3.6138 -1.15202 0.717762)
(-3.48378 -1.27842 0.314449)
(-3.02262 -2.00958 0.373719)
(-2.65458 -2.30921 0.167468)
(-1.73953 -2.69945 0.568957)
(-1.07562 -3.20257 -0.0235483)
(-4.14464 -0.602506 1.34428)
(-4.14328 -1.02102 1.07745)
(-4.32024 -0.8282 1.28975)
(-4.02904 -1.29597 1.21074)
(-3.93925 -1.13905 0.843338)
(-3.21639 -2.12869 0.834004)
(-2.37392 -2.87477 0.591846)
(-1.61516 -3.29883 0.234736)
(-1.66027 -2.96593 0.0971647)
(-4.37772 -0.530639 2.06841)
(-4.58151 -0.883117 1.46362)
(-4.28304 -1.27269 1.29131)
(-4.19588 -1.50665 1.05584)
(-3.99287 -1.9512 0.774184)
(-3.31211 -2.76581 0.508005)
(-2.95431 -2.82534 0.664025)
(-2.38564 -3.15589 0.319545)
(-1.95225 -3.06581 0.383903)
(-0.142182 -3.78173 -0.357854)
(-4.15818 1.04631 1.90145)
(-4.41144 0.344087 2.18785)
(-4.38235 -1.25562 2.4342)
(-4.40022 -1.85872 2.38277)
(-4.52719 -2.04534 2.09291)
(-4.33876 -2.59573 1.74457)
(-4.17607 -3.0025 1.13144)
(-3.99956 -2.99804 0.603497)
(-2.88362 -3.30643 0.835744)
(-2.25579 -3.80177 -0.182104)
(-0.524738 -3.9376 -0.0320556)
(-3.69569 -0.213872 0.602236)
(-3.82371 -0.62986 0.528459)
(-3.9721 -0.752585 0.630405)
(-4.41829 0.0333535 1.44927)
(-4.24115 -1.53054 1.34988)
(-4.63572 -1.70977 1.98897)
(-4.29791 -2.58972 2.00905)
(-4.30465 -3.10498 1.83899)
(-4.42143 -3.75899 1.99925)
(-4.03228 -4.97958 1.78842)
(-2.4521 -5.04805 1.38741)
(-1.61815 -4.34182 1.8877)
(-3.89992 0.0840903 -0.266973)
(-3.66126 -0.175462 0.11568)
(-3.73357 -0.480868 0.504457)
(-3.66283 -1.18716 0.329701)
(-3.50453 -1.6132 0.0834355)
(-3.21381 -2.37071 -0.0554456)
(-3.02427 -3.01326 1.23907)
(-2.97606 -3.01662 1.56078)
(-2.89806 -3.44225 1.70192)
(-3.60389 -3.57217 2.46497)
(-3.2461 -5.64022 2.4768)
(-1.81875 -6.32277 2.27358)
(-2.70098 -4.97438 -0.450762)
(-2.42023 0.340683 -1.16656)
(-3.03334 0.489314 -0.250678)
(-3.05921 -0.275497 0.263867)
(-2.76175 -0.950491 1.16233)
(-2.69162 -0.673293 1.0259)
(-3.07337 -0.979701 1.03812)
(-2.65065 -1.84785 1.90061)
(-2.5121 -2.1688 1.60178)
(-2.47485 -1.88072 1.21077)
(-2.18338 -2.74037 1.20674)
(-1.5963 -3.69792 2.062)
(-1.82209 -4.46635 2.02259)
(-1.09342 -4.91207 2.44231)
(-0.900312 -5.19024 -0.415749)
(0.709804 -0.532132 -0.609138)
(-0.543726 -0.245151 -0.169377)
(-1.44719 -0.188774 -0.00473347)
(-1.75341 -0.0155563 -0.0214905)
(-1.58201 -0.977271 0.313027)
(-1.72859 -1.49049 0.659886)
(-1.77846 -0.92967 0.652958)
(-1.2171 -0.801794 0.83757)
(-1.17595 -0.989643 0.189266)
(-1.17116 -0.92691 -0.0158089)
(-1.61735 -0.881376 0.276831)
(-0.885916 -1.71754 0.14547)
(-0.904554 -2.35448 -0.0183608)
(-0.845187 -1.67166 -0.0420847)
(-0.498326 -3.49547 -0.502681)
(1.1037 -1.19454 -0.588883)
(0.756796 -1.29622 -0.583961)
(0.134772 -0.611811 -0.888634)
(-0.462249 0.331787 -0.777199)
(-0.66769 0.221891 -0.941964)
(0.162052 -0.714796 -0.742635)
(0.593238 -1.30985 -1.67585)
(-0.0291861 -0.738837 -1.95255)
(-0.305581 -0.632273 -1.50792)
(-0.247385 -0.520097 -1.43775)
(-0.284812 -0.125801 -1.43332)
(0.0284405 -0.517568 -2.06316)
(0.0383657 -0.407892 -2.6934)
(-0.466014 -1.13412 -2.18052)
(0.647801 0.559418 0.0225784)
(1.39921 -0.880473 0.641893)
(-1.40442 -1.02519 -0.0594459)
(-2.33133 -0.230413 -0.101692)
(-1.84635 -0.804642 -0.0895719)
(-2.31238 -0.944525 -0.0478957)
(-1.79297 -1.60454 0.0651534)
(-1.18643 -1.74814 0.0436999)
(-2.62282 -0.497201 0.0360944)
(-2.52286 -0.86245 0.0874286)
(-2.37198 -1.04344 -0.0040141)
(-2.02044 -1.34336 -0.080851)
(-2.76728 -0.538496 0.0182621)
(-2.70121 -0.865402 0.0430955)
(-2.6406 -1.18381 -0.151994)
(-2.40638 -1.47117 -0.0913994)
(-1.49544 -2.01052 -0.0690999)
(-3.00536 -0.270515 0.346447)
(-2.82439 -0.786667 0.154653)
(-2.67458 -1.00013 0.149284)
(-2.35385 -1.46509 0.081841)
(-1.70064 -2.1533 0.0834698)
(-1.12937 -2.18899 0.0548634)
(-3.24421 -0.27154 0.642845)
(-2.99277 -0.74495 0.475039)
(-2.88053 -1.22793 0.339583)
(-2.60126 -1.64151 0.176625)
(-2.28434 -1.91 0.195301)
(-2.35547 -1.83793 0.0502738)
(-1.83764 -2.21511 -0.00975005)
(-3.48123 -0.817683 0.683893)
(-3.42999 -0.610583 0.323188)
(-3.14853 -1.03187 0.491334)
(-3.11809 -1.30592 0.337541)
(-2.93262 -1.71606 0.225864)
(-2.75862 -1.94066 -0.0634097)
(-2.47427 -2.14452 -0.25328)
(-1.50042 -2.67829 0.0438506)
(-3.84075 -0.841761 1.01663)
(-3.73126 -0.833369 0.847916)
(-3.76284 -0.726134 0.717056)
(-3.42334 -1.49756 0.672872)
(-3.34992 -1.60723 0.327423)
(-2.93033 -2.13499 0.432189)
(-2.41607 -2.53691 0.161292)
(-1.51652 -2.82733 0.623293)
(-0.81488 -3.16836 0.0368035)
(-4.2213 -0.734005 1.44052)
(-3.98935 -1.242 1.4116)
(-4.097 -1.3239 1.19842)
(-4.15893 -0.875445 1.31936)
(-4.00276 -1.13175 1.05394)
(-3.36271 -2.11283 0.626921)
(-3.11059 -2.30271 0.83196)
(-2.20551 -3.06109 0.53433)
(-1.40019 -3.36457 0.158898)
(-1.21037 -3.1457 0.171685)
(-4.41702 -0.328064 2.51049)
(-4.49853 -0.994273 1.92668)
(-4.57025 -1.60463 1.1487)
(-4.16571 -1.72446 1.15214)
(-3.7596 -2.174 0.756633)
(-3.56717 -2.43336 0.695257)
(-3.19309 -2.86487 0.52988)
(-2.83211 -3.0064 1.015)
(-2.15946 -3.55928 0.355492)
(-1.5972 -3.5589 0.35205)
(-0.0906864 -3.72164 -0.344777)
(-3.98551 -0.291934 2.19811)
(-4.19949 0.0327254 2.32105)
(-4.51534 -0.491081 2.44551)
(-4.30224 -1.78878 2.49468)
(-4.4022 -2.29251 2.16937)
(-4.4414 -2.4602 1.90301)
(-4.21679 -2.9358 1.47772)
(-4.10604 -3.12179 1.1834)
(-3.91959 -3.09203 0.670617)
(-3.06584 -2.99655 0.552484)
(-2.22266 -3.86171 0.109341)
(-0.642772 -3.93807 -0.137064)
(-3.68269 0.340026 -0.38562)
(-3.79817 -0.438354 0.649257)
(-3.86695 -0.461935 0.574568)
(-4.02152 -0.777376 0.743197)
(-4.28053 -1.34149 1.60571)
(-4.43031 -1.64297 1.38387)
(-4.2258 -2.86984 1.58191)
(-4.42221 -2.60895 2.0398)
(-4.18181 -3.36925 1.85896)
(-4.1904 -3.9459 1.77979)
(-4.23673 -4.64905 1.89961)
(-1.87174 -5.39233 0.211048)
(-1.41048 -4.34351 2.11925)
(-3.88443 0.286505 -0.372852)
(-3.86519 -0.374828 -0.0227793)
(-3.64282 -0.473429 0.408283)
(-3.63846 -1.32801 1.20956)
(-3.00362 -2.2938 0.807921)
(-3.35099 -1.71419 0.363776)
(-3.19839 -2.70766 0.493496)
(-3.23462 -2.93007 1.46787)
(-2.60886 -3.79369 1.37915)
(-2.83686 -3.46321 1.62445)
(-3.37299 -4.14232 2.21762)
(-3.09792 -5.68957 2.18848)
(-1.85741 -6.10535 2.60661)
(-2.62529 -4.95283 -0.506469)
(-0.573055 -0.730262 -0.52547)
(-2.36276 -0.0472408 -0.204624)
(-3.01402 0.241812 0.28603)
(-3.18764 -0.0306368 0.443685)
(-2.86435 -1.19543 1.09387)
(-2.82451 -0.652369 1.01355)
(-2.42769 -1.05013 2.41583)
(-2.87428 -2.01508 1.53072)
(-2.5 -2.47705 1.55162)
(-2.56398 -2.20073 1.26522)
(-2.06756 -2.63121 1.33831)
(-1.77374 -3.81036 2.09655)
(-1.30735 -4.86751 1.86741)
(-1.01901 -4.90261 2.37176)
(-0.376785 -5.44035 -0.280821)
(0.726563 -0.943625 -0.613237)
(0.715709 -0.553752 -0.563749)
(-0.528075 -0.310888 -0.0753908)
(-1.41478 -0.276683 0.184229)
(-1.72229 -0.105133 0.163793)
(-1.53178 -1.17468 0.445631)
(-1.65154 -1.54741 0.810705)
(-1.77751 -0.914732 0.672231)
(-1.16258 -0.937563 0.783135)
(-1.18609 -0.950139 0.127301)
(-1.14357 -1.07629 0.154574)
(-1.51752 -1.07405 0.24293)
(-1.01746 -1.69959 0.129189)
(-1.03121 -2.3791 0.0324831)
(-0.761062 -1.92861 0.0800023)
(-0.323353 -3.82052 -0.421827)
(0.463795 -0.820294 -0.364227)
(1.11163 -1.17781 -0.649433)
(0.785051 -1.29756 -0.568762)
(0.14882 -0.616613 -0.94306)
(-0.469156 0.314113 -0.759993)
(-0.671855 0.228298 -0.992263)
(0.182231 -0.730051 -0.732253)
(0.620989 -1.33175 -1.50974)
(-0.0200681 -0.703191 -1.95591)
(-0.319314 -0.633718 -1.45924)
(-0.227828 -0.549797 -1.48745)
(-0.213008 -0.230449 -1.43655)
(0.0343704 -0.483466 -2.16969)
(-0.038439 -0.351167 -2.77834)
(-0.515179 -1.2605 -2.16952)
(0.611996 0.516814 0.0577323)
(1.38673 -0.897196 0.668234)
(-1.37553 -0.815066 0.0333559)
(-1.61494 -1.14082 0.11064)
(-1.31997 -1.12555 0.00107454)
(-2.17122 -0.615199 -0.051008)
(-2.17136 -0.566311 -0.0899032)
(-1.73835 -0.943031 -0.0793291)
(-2.4415 -0.622464 0.0762011)
(-2.24271 -1.09728 -0.0040521)
(-1.74839 -1.55931 0.0815013)
(-1.07221 -1.80628 0.018477)
(-2.62158 -0.392922 0.195445)
(-2.63939 -0.720808 0.0218665)
(-2.47659 -0.927355 0.0736877)
(-2.28384 -1.24836 0.00553278)
(-1.94664 -1.52879 -0.0396549)
(-2.81049 -0.487645 0.235452)
(-2.76182 -0.693821 0.0755644)
(-2.6562 -1.07117 0.017212)
(-2.47376 -1.37445 -0.163197)
(-1.91027 -1.92319 -0.0607828)
(-1.16523 -2.22381 -0.0550589)
(-3.00107 -0.435004 0.437504)
(-2.87029 -0.57496 0.349162)
(-2.71604 -0.906528 0.253785)
(-2.55098 -1.17265 0.185212)
(-2.12081 -1.75592 0.126409)
(-1.95945 -1.7328 0.0290898)
(-1.08574 -2.2045 0.0196323)
(-3.09711 -0.646547 0.844756)
(-3.04376 -0.777552 0.580342)
(-2.84672 -1.09497 0.442388)