/*--------------------------------*- C++ -*----------------------------------*\
  =========                 |
  \\      /  F ield         | OpenFOAM: The Open Source CFD Toolbox
   \\    /   O peration     | Website:  https://openfoam.org
    \\  /    A nd           | Version:  7
     \\/     M anipulation  |
\*---------------------------------------------------------------------------*/
FoamFile
{
    version     2.0;
    format      ascii;
    class       volScalarField;
    location    "5.5";
    object      nut;
}
// * * * * * * * * * * * * * * * * * * * * * * * * * * * * * * * * * * * * * //

dimensions      [0 2 -1 0 0 0 0];

internalField   nonuniform List<scalar> 
18750
(
0.000715265
0.000679884
0.000785354
0.00122645
0.00132263
0.000739531
0.00101923
0.00073635
0.00105934
0.00151217
0.00230207
0.000961244
0.00471481
0.0005991
0.000932201
0.000610129
0.000632588
0.000832625
0.00154166
0.000457053
0.00317856
0.0024348
0.00195088
0.000881453
0.000564558
0.000879303
0.000458271
0.000847956
0.000747547
0.000273854
0.000515082
0.000606324
0.00150043
0.000588159
0.00028686
0.00259753
0.00364606
0.00248456
0.00251495
0.00217774
0.00106577
0.000714655
0.000976386
0.000980582
0.000997112
0.000390088
0.000656028
0.000769474
0.000422662
0.000484114
0.000411711
0.000450812
0.00142625
0.000779272
0.000250756
0.000309309
0.00305654
0.00302835
0.00226806
0.00411259
0.00217346
0.00151402
0.00300468
0.00349423
0.000451896
0.00121772
0.000742972
0.00182996
0.000999132
0.000669134
0.000686326
0.000393986
0.00054437
0.000863705
0.000569877
0.000303105
0.000385063
0.000384312
0.000408257
0.00132454
0.000975463
0.000290775
0.000274652
0.000108215
0.00288881
0.00302785
0.00253057
0.00299678
0.00258174
0.00201693
0.00363249
0.00297599
0.00115415
0.000633616
0.00360708
0.002725
0.00062178
0.000907659
0.000710468
0.00112746
0.0016321
0.00067325
0.000592016
0.00097418
0.000924315
0.000433287
0.000585578
0.000818287
0.000463479
0.000484778
0.000329761
0.000551443
0.000306898
0.000397977
0.00135552
0.00114918
0.00021248
0.000230268
0.000122101
0.000322517
0.0024578
0.00291559
0.00108408
0.00313474
0.00196393
0.00190762
0.00291062
0.00220232
0.0017592
0.000810109
0.00416455
0.00273564
0.00130873
0.000712856
0.000987453
0.00338595
0.00121062
0.000718514
0.000302533
0.000842536
0.000856316
0.00156741
0.00156512
0.000549023
0.000516723
0.000753981
0.000752101
0.00111964
0.000463879
0.000711593
0.000569592
0.000317313
0.000251322
0.000212997
0.000501364
0.000371027
0.000231734
0.000382346
0.00134127
0.00127813
0.000296078
0.00023123
0.000184099
0.000328905
0.000241579
0.0023992
0.002561
0.00124107
0.00285995
0.00137669
0.000809235
0.00315732
0.00188533
0.00154147
0.00143531
0.00330245
0.00213412
0.00132991
0.000931908
0.00135618
0.00484217
0.00285798
0.00111154
0.000653144
0.00048474
0.000778949
0.00312317
0.000871773
0.00048975
0.00054273
0.000913789
0.000931852
0.00128413
0.00197132
0.00132334
0.00072231
0.000665444
0.000494501
0.000753508
0.00101422
0.0006464
0.000507249
0.000715242
0.000697653
0.000246697
0.000970346
0.000397175
0.000585295
0.000376197
0.00073273
0.000220771
0.000387628
0.00118572
0.00134518
0.000279774
0.000186957
0.000260643
0.000352156
0.000301263
0.000151321
0.00244734
0.00252435
0.000836981
0.00245897
0.00124509
0.00104394
0.00287526
0.00110408
0.0010594
0.000416469
0.00307763
0.00147041
0.000938862
0.0012795
0.000675901
0.00405267
0.00248031
0.000893695
0.00131699
0.000431396
0.00104327
0.00528322
0.00270666
0.00143194
0.000864607
0.00152508
0.000755424
0.00113167
0.00216967
0.000902595
0.000749448
0.000149874
0.000961008
0.000757833
0.00221281
0.000858382
0.00198707
0.000905009
0.000915259
0.000797585
0.000212632
0.000597019
0.000666278
0.000532525
0.000441467
0.00088413
0.000686706
0.000849576
0.000556522
0.000611176
0.000317759
0.000363848
0.000373905
0.000644808
0.000223687
0.000234113
0.000390264
0.00107353
0.00134032
0.000287846
0.000139415
0.000277062
0.000371832
0.000324059
0.000230231
0.000165552
0.00247697
0.00238684
0.000931584
0.00251898
0.00100871
0.000722942
0.00271173
0.000904075
0.00102648
0.000738433
0.00283245
0.00094129
0.00109465
0.00140804
0.000912476
0.00304815
0.0014559
0.00170455
0.00186039
0.00175095
0.000809818
0.00301737
0.0021596
0.00260258
0.00129454
0.00193618
0.00058496
0.000106151
0.00472578
0.0026378
0.00145651
0.000335534
0.000733922
0.00131903
0.000875642
0.000846537
0.00165581
0.000992174
0.000734331
0.000362925
0.00107098
0.0012794
0.000852513
0.000542607
0.000692696
0.00134411
0.000567453
0.000939052
0.000773761
0.00035892
0.000494281
0.000622754
0.000572628
0.000703806
0.000385123
0.000881696
0.000698713
0.000894707
0.000814565
0.000283144
0.000289664
0.00034356
0.000321964
0.000207673
0.000268538
0.000331842
0.000250836
0.000395895
0.00095189
0.00128445
0.000336683
0.000269473
0.00032405
0.000352623
0.000323208
0.000228075
0.000146605
7.81537e-05
0.00249127
0.00256055
0.000654564
0.00264229
0.00241045
0.000764312
0.000699865
0.00241089
0.00104437
0.000715841
0.000538483
0.00278452
0.000834662
0.000823206
0.00067308
0.000794992
0.00276829
0.00146895
0.000760604
0.000812108
0.0010686
0.000669636
0.00317023
0.00132732
0.00115758
0.00105883
0.000693834
0.0012702
0.000471511
0.00413063
0.00117243
0.00176162
0.000897124
0.00104387
0.00175762
0.000825054
0.000527608
0.00574004
0.00139985
0.000956386
0.000712241
0.000575065
0.000943675
0.000251979
0.000416493
0.000722231
0.00400769
0.00222282
0.000512764
0.000545443
0.000871673
0.0017584
0.000493181
0.000772713
0.000928981
0.000713093
0.000831315
0.000837282
0.000972272
0.000836407
0.00043364
0.000776534
0.000597448
0.00043886
0.000460757
0.000475721
0.000375248
0.000606871
0.000704932
0.000853575
0.000875513
0.000327156
0.000537385
0.000479632
0.000253884
0.000439757
0.00029884
0.000317727
0.000329119
0.00028785
0.0004285
0.000818366
0.00120973
0.000473781
0.000201981
0.000316008
0.000327947
0.000311675
0.000218498
0.000144165
7.81071e-05
3.54189e-05
0.00198233
0.00230958
0.000798568
0.00252608
0.00240967
0.000971681
0.000602154
0.000895548
0.00234937
0.000757852
0.000688001
0.000222468
0.00233035
0.000872421
0.000787032
0.000763478
0.000623812
0.00278042
0.000901714
0.00097932
0.000753558
0.000641527
0.00074234
0.00278723
0.00119354
0.0010053
0.000882407
0.00089277
0.000955844
0.000631983
0.00316666
0.00153364
0.00103569
0.00147844
0.000756704
0.000748958
0.00075904
0.000722919
0.0039263
0.00262147
0.00184449
0.00177637
0.000838576
0.00094051
0.00109326
0.000843042
0.000570343
0.00511581
0.00262192
0.0018289
0.00116819
0.000665617
0.000671724
0.000326688
0.000524318
0.000791379
0.00107451
0.00403524
0.00130095
0.000257244
0.000385835
0.000764453
0.000784128
0.000682448
0.000677928
0.000747436
0.000509703
0.000323238
0.000749773
0.000826781
0.00097319
0.00100233
0.000564181
0.000919824
0.000518332
0.000369902
0.000463741
0.000470883
0.000483542
0.000405491
0.000648678
0.000697156
0.000823114
0.000858335
0.000549666
0.000349742
0.00021473
0.000250199
0.000576823
0.000271998
0.000306174
0.000227473
9.93781e-05
0.000246122
0.000422306
0.0006789
0.00107855
0.000548363
0.000171587
0.000305556
0.000291456
0.000303952
0.00021911
0.000123777
8.82143e-05
5.91021e-05
0.000141458
0.00216261
0.00195159
0.000530205
0.00218848
0.00225962
0.00078734
0.00077004
0.000732162
0.0023912
0.000851663
0.000685919
0.000705827
0.000471504
0.00237415
0.000694837
0.000877057
0.000460187
0.000676079
0.00262814
0.000672308
0.00104335
0.000743144
0.000617252
0.000590957
0.00282758
0.00101758
0.00101874
0.00105358
0.000739169
0.000997485
0.000694194
0.00286398
0.00103552
0.00118998
0.00101312
0.00112483
0.00122799
0.00104298
0.000994498
0.00296427
0.00118412
0.00102025
0.000951599
0.00117854
0.000940382
0.000863636
0.000784238
0.000936953
0.00344309
0.00219979
0.00157564
0.000802903
0.00123249
0.000661996
0.000845157
0.00041644
0.000341341
0.000745434
0.00445152
0.000921945
0.000891832
0.000554541
0.000458631
0.000407061
0.000473866
0.00124988
0.000846892
0.000525201
0.000437687
0.00199829
0.000660125
0.000188934
0.000925068
0.000750078
0.000747054
0.00100769
0.000777005
0.000616242
0.00043163
0.000435088
0.000562382
0.000918826
0.000985174
0.00081391
0.000992353
0.000716394
0.000901248
0.000825766
0.000330504
0.000513697
0.000431941
0.000390853
0.000694208
0.000701627
0.000632864
0.000723558
0.000772107
0.000629143
0.000682781
0.000301941
0.000304583
0.000316209
0.000437169
0.00026719
0.000257455
0.000380242
0.000204201
0.000272629
0.000521456
0.000441052
0.000556399
0.000871707
0.000666424
0.00013741
0.000315128
0.000279142
0.000253537
0.000119927
0.000127177
0.000111538
6.80256e-05
9.62378e-05
0.000136421
0.00231944
0.00227623
0.000537127
0.00243662
0.00221523
0.000538933
0.000356467
0.000601658
0.00224581
0.000728156
0.000682039
0.000548011
0.00073298
0.00229608
0.000700081
0.000799029
0.000683101
0.000571307
0.000467834
0.00231273
0.000980447
0.000695956
0.000663882
0.000398199
0.00068927
0.00247844
0.000894711
0.000856055
0.000676731
0.000464158
0.00095579
0.000649284
0.00279459
0.00106493
0.000873439
0.000878376
0.00105716
0.000695854
0.000840971
0.000695951
0.00279233
0.000855663
0.000751294
0.00074903
0.00107092
0.000884649
0.00113313
0.00089174
0.00091388
0.00280232
0.000858208
0.00126184
0.000954626
0.000912893
0.000888259
0.000900052
0.000829255
0.000861582
0.000696499
0.00384597
0.00152279
0.00126956
0.000941256
0.000871468
0.000780682
0.000517763
0.000471966
0.000440408
0.000273473
0.000380637
0.00408582
0.000911414
0.000627636
0.000968093
0.000352372
0.000762414
0.000395446
0.000644863
0.000275286
0.000352957
0.000506566
0.000430626
0.0019305
0.000925342
0.000637044
0.000816755
0.000791853
0.000525563
0.000575647
0.000807648
0.000663317
0.000627475
0.000596117
0.000672943
0.00044592
0.00103577
0.00113395
0.000733943
0.00100509
0.000733057
0.00103177
0.000979388
0.000421645
0.00047517
0.000517175
0.000417236
0.000351903
0.000529599
0.00105968
0.000641198
0.000762231
0.000607112
0.000411809
0.000549545
0.000685983
0.000291799
0.000508242
0.000614866
0.000224932
0.000206835
0.000406256
0.000160493
0.000127056
9.95702e-05
0.000311016
0.000477214
0.000471182
0.000624184
0.00065538
0.0001687
0.000291999
0.000261144
0.000158778
9.97729e-05
0.000128384
0.000103126
6.29878e-05
9.67326e-05
0.000123211
0.000166784
0.00223055
0.00216816
0.000479011
0.00248328
0.00210731
0.000450983
0.000402412
0.000453688
0.00246388
0.00221927
0.000921214
0.000658815
0.000311301
0.000490217
0.00228209
0.000605997
0.000701606
0.000380235
0.00027542
0.000830097
0.00243585
0.000635563
0.000642498
0.000701668
0.00036506
0.000735847
0.000719557
0.00244532
0.000887157
0.000761813
0.000647744
0.000505113
0.000957468
0.000733181
0.00246609
0.000818066
0.000861203
0.000460078
0.000335896
0.000525604
0.000643567
0.000511825
0.00277961
0.000878836
0.000826347
0.00060355
0.000722442
0.000672518
0.000750175
0.000446355
0.000655215
0.00296385
0.00108512
0.000723468
0.000804511
0.000906648
0.000927912
0.000914788
0.000927561
0.000696905
0.00086639
0.00317477
0.00142371
0.00136895
0.0012994
0.000989502
0.000920733
0.000866446
0.000911597
0.000527579
0.000669334
0.000527448
0.00389314
0.00143437
0.000951515
0.000464418
0.00023497
0.000373127
0.000695559
0.000554918
0.000208244
0.000529746
0.00052855
0.000411075
0.00506054
0.000946893
0.000995374
0.000225809
0.000796327
0.000380751
0.00058241
0.000430566
0.000434473
0.000671579
0.000797812
0.000245085
0.000903081
0.00221102
0.00117757
0.00110587
0.00107582
0.000905249
0.000654348
0.000802118
0.00105903
0.000581241
0.00054072
0.000474058
0.000487891
0.000650807
0.000845762
0.000887051
0.00123539
0.000639076
0.001181
0.000775993
0.00103241
0.0011249
0.000551526
0.000481293
0.000565888
0.000344654
0.000532182
0.000506411
0.000454301
0.000505681
0.00070597
0.000778068
0.000390316
0.000439204
0.00067805
0.000533819
0.000321733
0.000384486
0.000500318
0.000176438
0.000157294
0.000434363
3.50329e-05
0.000241193
0.00018401
0.000274872
0.00026185
0.000499112
0.00039418
0.000472639
0.00065764
0.000148817
0.000257339
0.000211876
9.68046e-05
0.000164184
0.000128942
9.63942e-05
6.9088e-05
0.000100111
0.000119541
0.000305722
0.000250901
0.00205855
0.00227103
0.000421304
0.00237576
0.00211623
0.000621052
0.000246325
0.00040722
0.00249796
0.0022024
0.000516748
0.000491854
0.000371341
0.000441405
0.000321233
0.00229541
0.000702612
0.000686218
0.000464191
0.000400578
0.000370773
0.00235764
0.00055445
0.000691896
0.00062056
0.000594851
0.000334665
0.000560978
0.00238063
0.000667711
0.000556608
0.000573183
0.000879973
0.000289393
0.000783524
0.000487439
0.0024511
0.000679918
0.000929185
0.000437908
0.000778494
0.000593655
0.000916156
0.000587441
0.00263078
0.001037
0.000824556
0.000720954
0.0005358
0.000633919
0.000801561
0.000611653
0.000473015
0.002976
0.0010015
0.000982698
0.000866068
0.000747405
0.000705662
0.000734161
0.000600848
0.000459335
0.000721889
0.00319484
0.00110587
0.00145412
0.00101061
0.000992681
0.00112811
0.000895483
0.000811272
0.00073525
0.000857745
0.000859396
0.00284097
0.00109601
0.00145186
0.00115626
0.000914971
0.00102089
0.000874819
0.000846904
0.000625681
0.000646187
0.000630845
0.000883897
0.00318443
0.00116499
0.00119129
0.000540603
0.000441184
0.000737199
0.000756632
0.000293641
0.00065536
0.000351996
0.000613297
0.000780174
0.000830346
0.00469782
0.00110102
0.000987893
0.00116153
0.00102648
0.00101432
0.000619071
0.000427106
0.000350712
0.000574938
0.000494504
0.000901996
0.00203122
0.000638233
0.00229346
0.00111529
0.00117377
0.000851409
0.0008936
0.00105226
0.00103243
0.000852962
0.000884993
0.000431081
0.000291846
0.000489446
0.000667796
0.000857271
0.00105629
0.000735041
0.00137779
0.000579656
0.00104147
0.000920796
0.000924191
0.00148076
0.000665238
0.000566392
0.000299388
0.000331674
0.000488262
0.000291952
0.000797124
0.000441609
0.000609127
0.000723283
0.000797837
0.000497993
0.000522953
0.000673422
0.000508372
0.000381763
0.000343672
0.000245463
0.00011562
0.00010904
0.000124774
9.27959e-05
0.000192106
0.000178321
0.000277102
0.000429589
0.000296606
0.000567335
0.000325618
0.000350435
0.000607157
0.000335435
0.000239787
0.000178639
0.00015181
0.000197634
0.000130144
0.000104758
6.51563e-05
8.66393e-05
0.000128688
0.000228689
0.000243226
0.000261786
0.00210809
0.00210845
0.00027946
0.00230496
0.0022693
0.000216051
0.000414325
0.00037729
0.00228953
0.00213691
0.000676992
0.000419426
0.000350993
0.000337229
0.000540387
0.00218866
0.000238693
0.000567665
0.000237032
0.000262814
0.00048425
0.000376935
0.00223016
0.000750877
0.000595224
0.000740126
0.000463981
0.00027679
0.00050961
0.00231321
0.000672135
0.000583135
0.00075844
0.000369857
0.000499616
0.000506775
0.000371715
0.00230192
0.000673743
0.000725445
0.000574028
0.000250608
0.000508145
0.000525079
0.000515587
0.000655451
0.00245843
0.000774015
0.000924085
0.000636016
0.000804623
0.000514397
0.000741839
0.000620617
0.000489434
0.00256773
0.00104877
0.000730324
0.000498276
0.000898235
0.000649792
0.000796979
0.00066077
0.000569166
0.000458528
0.00278663
0.000736485
0.000833423
0.000728336
0.000618879
0.000573026
0.000684979
0.000849329
0.000496722
0.000321066
0.000582542
0.00299131
0.000780859
0.00123295
0.00105246
0.000814721
0.000856628
0.00079046
0.000846859
0.000771493
0.000737261
0.000678772
0.000707942
0.00285325
0.00087361
0.00132012
0.000874864
0.000953351
0.000803482
0.000812414
0.000854492
0.000934837
0.000729931
0.000548515
0.00065799
0.000668405
0.00312141
0.00098995
0.00171701
0.000927763
0.000550492
0.000604425
0.000571298
0.000392245
0.00037138
0.000162045
0.000309432
0.000861821
0.000732974
0.00120001
0.00467533
0.00268125
0.00124047
0.000361635
0.00103646
0.00148792
0.000568238
0.000536668
0.000524897
0.00105031
0.000321377
0.000890008
0.000434012
0.00068544
0.000818976
0.00173609
0.00121957
0.000976716
0.000754029
0.00076405
0.00129453
0.00108917
0.00109397
0.000545417
0.000440348
0.000484079
0.00053146
0.00104586
0.000447936
0.000645699
0.000662646
0.000826044
0.00146157
0.000763465
0.000890104
0.00101681
0.000869742
0.00162741
0.000749495
0.000388794
0.000491117
0.000439085
0.000462587
0.000419844
0.000506544
0.000709629
0.000546774
0.000552336
0.000796614
0.000744047
0.000642156
0.0005012
0.000841834
0.000619706
0.000346676
0.000587702
0.000254618
0.000188724
0.000131753
9.20041e-05
6.89455e-05
0.00019566
0.000184231
0.000325256
0.000434336
0.00018134
0.000263176
0.00057834
0.000292784
0.000257665
0.000535868
0.000195793
0.000225278
0.000128799
0.000197716
0.00023254
0.000110533
0.000113769
6.56877e-05
7.89306e-05
0.000129357
0.000166086
0.000290754
0.000203535
0.000152274
0.00214246
0.00218164
0.000299987
0.00222983
0.00204997
0.000297923
0.000335503
0.000377713
0.00217276
0.00219137
0.000496261
0.000444494
0.000483062
0.000423032
0.000441737
0.0021542
0.000607536
0.000262467
0.000531204
0.000314682
0.000328403
0.000363742
0.0021161
0.000313852
0.000483121
0.000434792
0.000195288
0.000307296
0.000551434
0.000372953
0.00215243
0.000723061
0.000597823
0.000564877
0.000414444
0.000431627
0.000410057
0.000371788
0.00239006
0.000580227
0.000732891
0.000583454
0.000388806
0.000672727
0.000446947
0.0004111
0.000594549
0.00238353
0.000460482
0.000674202
0.000578235
0.000598132
0.000356185
0.000414344
0.000422032
0.000403925
0.000531385
0.00246725
0.000607246
0.000603654
0.000503235
0.000514576
0.000456318
0.000431402
0.000544201
0.000534621
0.000416715
0.00261483
0.000863292
0.000853086
0.000772882
0.00062484
0.000726537
0.000373126
0.000666388
0.000493727
0.000613587
0.000499949
0.00265104
0.000860621
0.000510398
0.000915207
0.000766828
0.000550567
0.00045819
0.000672218
0.00070681
0.00062217
0.000279794
0.00034826
0.00292161
0.000954974
0.000680407
0.000839716
0.00103138
0.000609169
0.000914692
0.000849994
0.000892209
0.000652269
0.000719093
0.000531403
0.000647018
0.00314059
0.0011827
0.00117137
0.00109064
0.00101637
0.000803693
0.000979123
0.00083666
0.000715179
0.000653034
0.000945248
0.000570723
0.000561943
0.000630995
0.00297548
0.000719991
0.00113103
0.00155
0.00119185
0.00105559
0.000643051
0.000347681
0.000290709
0.000413739
0.000511237
0.000729913
0.00142937
0.000558027
0.000554197
0.00408234
0.00269794
0.00176198
0.000732545
0.000548284
0.00126603
0.000769254
0.000766097
0.000876308
0.000906491
0.000452195
0.000445727
0.0013155
0.000612974
0.000576956
0.000545828
0.00164312
0.00124102
0.00111327
0.000814218
0.000470908
0.000944298
0.00114547
0.000852682
0.00115318
0.000852653
0.000436759
0.000602891
0.000760431
0.00114147
0.000715982
0.000782341
0.000637369
0.000895662
0.00148981
0.00065287
0.000800462
0.000893693
0.000715972
0.00146214
0.000850465
0.000544299
0.000470529
0.000366073
0.000568935
0.000400069
0.000484357
0.000575516
0.000553555
0.000750262
0.000357215
0.000864323
0.000677425
0.000377125
0.00047798
0.000577242
0.000477055
0.000397208
0.000317341
0.000219032
0.00021838
0.000175018
0.000182811
0.0001166
0.000202334
0.000248093
0.000319825
0.000407363
0.000201627
0.000248882
0.000271433
0.000556583
0.000270113
0.000201882
0.000455891
0.000191998
0.000257206
9.33839e-05
0.000218879
0.000191643
9.89182e-05
0.000134198
6.53237e-05
6.92114e-05
0.000107598
0.000224032
0.000241518
0.000251416
0.000138933
0.00020844
0.00206017
0.00204366
0.000318946
0.00224525
0.00224522
0.00053006
0.00023886
0.00034242
0.00226066
0.00218505
0.000576287
0.000321051
0.000160978
0.000213334
0.000406146
0.00221689
0.000428025
0.000485372
0.000449736
0.000254069
0.00053131
0.000582665
0.00224806
0.000428732
0.000164101
0.000460313
0.000421433
0.000390923
0.000250342
0.000388359
0.0021263
0.000291041
0.000441876
0.000241511
0.000243419
0.000530165
0.000265731
0.000303859
0.000533386
0.00225415
0.00077761
0.000807744
0.000398111
0.000609392
0.000591196
0.000461693
0.000508065
0.000498046
0.00251796
0.00051231
0.000585484
0.000687806
0.000700895
0.000453895
0.000412008
0.000664584
0.000403202
0.000452099
0.00232568
0.000524896
0.000595265
0.000633224
0.000600589
0.000478887
0.000393091
0.00040765
0.000353851
0.000658615
0.000498693
0.00246009
0.000759995
0.000754132
0.000906698
0.000468624
0.000326186
0.000511296
0.000489699
0.000512469
0.000672573
0.000456023
0.002661
0.000745979
0.000780938
0.000973757
0.000702007
0.000540824
0.000637962
0.000397848
0.000655043
0.000753559
0.000722617
0.000556513
0.00277152
0.000779694
0.00076644
0.000729503
0.000981344
0.000779338
0.000576515
0.000691178
0.000736785
0.000682823
0.000684627
0.000372176
0.000504561
0.00296951
0.000935846
0.000903366
0.000923985
0.000940107
0.000697285
0.000871858
0.000849902
0.000759341
0.000600166
0.000772852
0.000660077
0.000741801
0.000901917
0.00337027
0.00162267
0.00117832
0.00104801
0.000654059
0.000846689
0.000497771
0.000819529
0.000701573
0.000715375
0.000898301
0.000947655
0.000802416
0.000705484
0.000727577
0.0031642
0.00239343
0.000883486
0.000900876
0.0020125
0.000790357
0.000811914
0.00072681
0.000958316
0.000888908
0.000383934
0.000258432
0.000478274
0.000603059
0.000592858
0.000571721
0.00343136
0.00181102
0.00228029
0.00104834
0.00158151
0.00131895
0.00153034
0.000309343
0.00049304
0.000575983
0.000406779
0.000762128
0.00108958
0.000573
0.000525902
0.000621727
0.000976541
0.00181227
0.00151493
0.0011367
0.000684918
0.000598264
0.00120516
0.000481669
0.000750122
0.00115628
0.000524237
0.000408425
0.000611582
0.000632168
0.000841623
0.000788178
0.000784136
0.000789558
0.000876055
0.00100743
0.00143419
0.000816782
0.00084911
0.00070957
0.000615595
0.0010838
0.00102044
0.000483392
0.000515854
0.000632289
0.000746527
0.000420841
0.000554214
0.00074123
0.000755357
0.000686675
0.000375466
0.000522394
0.000916718
0.00063285
0.000374755
0.000473884
0.000500243
0.000429701
0.00035839
0.000223566
0.000211426
0.000479371
0.000201649
0.000134542
0.000172797
0.000195161
0.000256362
0.000325478
0.000345719
0.000247884
0.000259135
0.000533015
0.000274453
0.000584748
0.000268137
0.000166397
0.000361674
0.000348583
0.000264572
0.000117649
0.000204788
0.00015626
7.70596e-05
0.000148081
7.14494e-05
0.000106758
9.35043e-05
0.000231754
0.000258555
0.000219783
0.000129982
0.000197714
8.1094e-05
0.00206858
0.00212915
0.000735847
0.00230916
0.00217106
0.000272651
0.00031041
0.000374303
0.00229007
0.00226203
0.000201389
0.000377719
0.000399264
0.000230953
0.000338408
0.00218298
0.000455141
0.000475873
0.000289795
0.000233537
0.000132188
0.000331801
0.00214721
0.00034566
0.000495047
8.91719e-05
0.000357603
0.000335963
0.000391589
0.000347209
0.00216413
0.000382908
0.000369628
0.000262006
0.000555096
0.000349962
0.000406818
0.000261411
0.000581449
0.00225932
0.000385917
0.000579987
0.000440418
0.000210234
0.000266676
0.000462611
0.000387396
0.000431628
0.000360598
0.00237145
0.000419364
0.000777504
0.000648757
0.000345825
0.000349287
0.000177568
0.000234759
0.000365475
0.000447118
0.00247715
0.000468862
0.000807639
0.000703966
0.000483088
0.000486988
0.00029575
0.000412989
0.000430606
0.000363173
0.000360508
0.0023722
0.000507297
0.000844344
0.000674718
0.00058103
0.000394565
0.000542187
0.000470537
0.000388473
0.000501392
0.000509644
0.000540754
0.00248253
0.000707622
0.000583694
0.000598991
0.000534179
0.000366259
0.000633828
0.000508196
0.000475577
0.00067593
0.000499943
0.000449632
0.00271374
0.00103176
0.000668942
0.000556756
0.00050364
0.000478495
0.00068509
0.000654346
0.000479951
0.000369213
0.000546327
0.00053745
0.000621146
0.00290527
0.00111973
0.000744396
0.000935981
0.000691108
0.000560178
0.000845595
0.00075448
0.000592358
0.000552354
0.000737406
0.000577072
0.000713882
0.000677822
0.00318354
0.000864636
0.000676226
0.00102431
0.000739395
0.00100524
0.000802192
0.000801519
0.000792228
0.000865289
0.000614331
0.000544749
0.000590519
0.000727107
0.000851376
0.00339983
0.00186168
0.00135529
0.00102534
0.00096807
0.000743336
0.00115819
0.000743022
0.000388226
0.000518102
0.000637633
0.000704773
0.000813302
0.00040745
0.000398571
0.000853036
0.00311432
0.00367417
0.000459461
0.00059031
0.000870789
0.000685099
0.00134709
0.000576379
0.000513699
0.000530241
0.000548768
0.000325551
0.000745768
0.000515197
0.000341617
0.000436291
0.000189299
0.00279882
0.000897684
0.00133774
0.00110791
0.00115002
0.00112199
0.00145624
0.00066415
0.00108382
0.0016845
0.000615498
0.000271009
0.00061359
0.000684123
0.000712694
0.000970972
0.0015406
0.000560395
0.00177667
0.00157633
0.000934998
0.000732403
0.00156534
0.00217992
0.000669804
0.00103589
0.000880779
0.000700361
0.000355595
0.000505071
0.000613574
0.00064252
0.000881898
0.000918669
0.000727174
0.00107264
0.000510886
0.00108672
0.00139107
0.000668703
0.000653068
0.000487372
0.000660165
0.000836452
0.00089978
0.000486921
0.00048676
0.000390155
0.000540572
0.000509924
0.000602761
0.000869826
0.000723242
0.000608054
0.000568725
0.00054544
0.000763629
0.00100276
0.000660957
0.000527932
0.000414895
0.000577242
0.000465254
0.000381111
0.000225633
0.000209936
0.000468195
0.000474031
0.00015461
0.000143052
0.00021771
0.000322745
0.000368331
0.000302053
0.00045586
0.000330955
0.000510992
0.000328663
0.000297119
0.000614328
0.000267837
0.000176585
0.000292756
0.000104835
0.000271677
0.000236243
0.000234243
0.000142796
8.74309e-05
0.000161525
8.85978e-05
0.000109441
9.11387e-05
0.000239484
0.000271557
0.000228334
0.000152968
0.000175083
0.00010598
4.74256e-05
0.0019154
0.0019768
0.000361348
0.00223884
0.00206933
0.000485318
0.000349794
0.000841165
0.0023583
0.00224373
0.000399736
0.000421893
0.000313007
0.000427909
0.000461775
0.00225845
0.000303556
0.000255313
0.00025821
0.000212906
0.000412425
0.00036135
0.00219358
0.000437155
5.87219e-05
0.000199183
0.000384047
0.000488894
0.00022479
0.000268688
0.00212724
0.000441309
0.000363767
0.000204151
0.000280326
0.000377017
0.000377299
0.000371165
0.000301437
0.00221292
0.000387619
0.000446063
0.000329195
0.000428164
0.000312785
0.000290659
0.00037549
0.000485607
0.000206774
0.00220702
0.000705547
0.000318333
0.000423095
0.000304593
0.000244046
0.000478723
0.000307066
0.000451126
0.00024891
0.000322301
0.00230263
0.000889463
0.000721752
0.000345356
0.000415767
0.000364413
0.000243617
0.000124319
0.000433118
0.000338066
0.000357593
0.00256428
0.000528563
0.000633933
0.000537301
0.000613743
0.000334731
0.000512711
0.000430344
0.000406514
0.000474045
0.000326488
0.000492133
0.00242069
0.000499721
0.000944571
0.000649607
0.000638892
0.000561904
0.00066245
0.000468346
0.000445066
0.000490876
0.00054433
0.000456536
0.000489403
0.00256739
0.001021
0.000672491
0.000544883
0.000704994
0.000655962
0.000395448
0.000441405
0.000449096
0.000477248
0.000731854
0.00058726
0.000848408
0.00275182
0.00107303
0.00071879
0.000587242
0.000493978
0.000511317
0.0005995
0.000581802
0.000525483
0.000377435
0.000490557
0.000572802
0.00101112
0.000572037
0.00271417
0.00100318
0.000458688
0.000700294
0.00058163
0.00096957
0.000879584
0.000492042
0.000684536
0.000590745
0.000572323
0.000860577
0.00057963
0.000540196
0.000796797
0.00292536
0.000902035
0.000718974
0.000967347
0.00100952
0.00104883
0.00112306
0.000956643
0.000805513
0.0006647
0.00077539
0.000664435
0.000557542
0.000390874
0.000372095
0.00112844
0.00314848
0.0016609
0.00163694
0.00132538
0.00108648
0.000945726
0.00141643
0.00124795
0.000954537
0.000352275
0.000356903
0.000458994
0.00054979
0.000663614
0.000424806
0.000442422
0.000605668
0.00296036
0.00189315
0.00194899
0.000959147
0.00135823
0.000869773
0.000464766
0.000438095
0.000488009
0.000723659
0.00052447
0.00049294
0.000321841
0.000757151
0.000613337
0.000288305
0.000665335
0.000540337
0.00263228
0.00124688
0.00115242
0.00106983
0.000879603
0.00146547
0.00181081
0.000890413
0.000303987
0.000646474
0.000756241
0.00062218
0.00042269
0.00053692
0.000807463
0.00175904
0.000754669
0.000377061
0.000609203
0.00197524
0.00119061
0.00106906
0.00119339
0.00196444
0.00215603
0.00133509
0.0011559
0.000923634
0.000635524
0.000577214
0.000697269
0.000575049
0.00070577
0.0010567
0.00125252
0.0012444
0.00119011
0.00036913
0.000592951
0.00132746
0.00139087
0.000545758
0.000556866
0.000320382
0.000753694
0.000667426
0.00081384
0.000529748
0.000526889
0.000543164
0.000858115
0.000336181
0.000765758
0.000828282
0.000620184
0.00046267
0.000607877
0.000532681
0.000746389
0.000823397
0.00106721
0.000711965
0.000412831
0.000421305
0.000575872
0.000414523
0.000361795
0.000245968
0.000373317
0.000391151
0.000523894
0.000221076
0.000215781
0.00028044
0.000415262
0.000378347
0.000345816
0.000430599
0.000343866
0.000281275
0.00017882
0.000143517
0.000319148
0.00052409
0.000264847
0.000198522
0.000297176
0.000109076
0.000299793
0.000241385
0.000262878
0.000188426
0.000175895
0.000179172
0.000115299
0.000112258
0.000100667
0.000206046
0.000263562
0.000298168
0.000163865
9.76117e-05
8.17534e-05
7.47128e-05
2.01927e-05
0.00193521
0.00198581
0.000870838
0.00204053
0.0019572
0.000514171
0.000655137
0.000288143
0.00224987
0.00210917
0.000312047
0.000531382
0.000603284
0.000276117
0.000681984
0.00226247
0.000262237
0.000376372
0.000304926
0.000586328
0.000367808
0.000443975
0.00220478
0.000268333
0.000149786
0.000227174
6.22243e-05
0.000438785
0.000479795
0.000463015
0.00211969
0.000445866
0.000322417
0.000152186
0.000374391
0.000414123
0.000482145
0.000558223
0.000308351
0.00222006
0.000485007
0.000316723
0.000203425
0.000238355
0.000529944
0.000400515
0.00038108
0.000511816
0.000273488
0.00224293
0.000312181
0.000491772
0.000242413
0.000441005
0.000500854
0.000182863
0.000292237
0.000413128
0.000466298
0.000333976
0.00227447
0.000676092
0.00038473
0.000309336
0.000430065
0.000350704
0.000377487
0.000536686
0.000430284
0.000268873
0.000393909
0.000486161
0.00236847
0.00038085
0.000586422
0.000650673
0.000532535
0.000275688
0.000566713
0.000403238
0.000396744
0.000699565
0.000354227
0.000559144
0.00249903
0.000635524
0.00063182
0.000742138
0.000595614
0.000348734
0.000368395
0.000477447
0.000477092
0.000716903
0.000408594
0.000372204
0.0002557
0.0024667
0.000740547
0.000883221
0.00080386
0.000488462
0.000532588
0.000505371
0.000633776
0.000561599
0.000254887
0.000455837
0.000478093
0.000532776
0.000696306
0.00264614
0.00079744
0.00112488
0.000529983
0.000734619
0.00084717