/*--------------------------------*- C++ -*----------------------------------*\
  =========                 |
  \\      /  F ield         | OpenFOAM: The Open Source CFD Toolbox
   \\    /   O peration     | Website:  https://openfoam.org
    \\  /    A nd           | Version:  7
     \\/     M anipulation  |
\*---------------------------------------------------------------------------*/
FoamFile
{
    version     2.0;
    format      ascii;
    class       volScalarField;
    location    "5.5";
    object      p;
}
// * * * * * * * * * * * * * * * * * * * * * * * * * * * * * * * * * * * * * //

dimensions      [0 2 -2 0 0 0 0];

internalField   nonuniform List<scalar> 
18750
(
-73.5522
-74.1551
-73.6879
-74.2844
-69.2579
-74.3597
-73.7925
-73.8476
-74.5188
-74.7936
-66.7167
-70.1141
-64.394
-74.5784
-73.9729
-75.327
-74.0163
-74.739
-74.8544
-76.3274
-63.2739
-66.8849
-70.3352
-70.7968
-68.2192
-73.2643
-74.7617
-74.2148
-75.4616
-76.5945
-74.1847
-74.9185
-75.0203
-76.3369
-77.3495
-63.5378
-63.0978
-70.0372
-67.7592
-71.1353
-74.0996
-71.5722
-71.0021
-74.055
-74.6814
-74.9693
-74.4902
-75.6811
-76.6626
-76.9306
-74.354
-75.0614
-75.2269
-76.3725
-77.3914
-77.6119
-60.3239
-63.5048
-64.2536
-63.4393
-70.8196
-69.8525
-69.0564
-72.161
-75.4027
-75.9926
-72.7126
-72.6075
-74.7208
-74.9806
-75.4773
-75.1566
-74.7081
-75.9241
-76.7537
-77.0426
-76.7131
-74.5459
-75.179
-75.5298
-76.4501
-77.4268
-77.6302
-77.6206
-57.0323
-60.7864
-59.1922
-63.8696
-64.8514
-64.8201
-64.2691
-71.6825
-70.9466
-72.5805
-70.7755
-73.341
-76.5149
-76.2786
-75.4362
-74.1225
-73.9453
-75.2272
-75.1817
-75.6225
-75.863
-75.2793
-74.8516
-76.1478
-76.8772
-77.1176
-76.7
-76.9399
-74.7574
-75.2866
-75.8736
-76.5778
-77.4727
-77.6568
-77.6327
-77.2559
-55.35
-57.1241
-57.1345
-60.9105
-59.2459
-62.2156
-63.9824
-65.3625
-63.8403
-65.6655
-64.3043
-71.2665
-72.3663
-72.9469
-72.3385
-72.9012
-75.3371
-77.7269
-76.6211
-75.7199
-75.965
-75.7309
-75.2947
-75.6859
-75.2984
-75.7921
-75.9373
-75.6538
-75.3858
-74.9914
-76.4104
-77.027
-77.143
-76.7255
-76.9557
-76.6225
-74.857
-75.3895
-76.2084
-76.7487
-77.5091
-77.6703
-77.6442
-77.2751
-76.845
-53.857
-55.3661
-55.2545
-57.2851
-57.1128
-57.218
-60.818
-59.4987
-61.4119
-60.7342
-64.566
-66.2022
-64.3521
-66.5835
-66.2602
-64.8366
-71.1199
-73.481
-73.4857
-73.2475
-72.387
-75.954
-77.3994
-79.1349
-76.9416
-76.004
-76.2801
-76.1601
-77.3995
-76.7024
-76.06
-75.4298
-75.9127
-76.1028
-75.663
-74.7135
-75.5204
-75.1631
-76.6893
-77.2191
-77.2106
-76.7269
-76.9578
-76.6764
-76.318
-74.8385
-75.4924
-76.5113
-76.9531
-77.5538
-77.6767
-77.6681
-77.2972
-76.8906
-76.354
-52.8109
-53.8202
-53.7156
-55.3798
-55.0583
-55.3505
-57.3478
-57.1358
-57.161
-57.0586
-60.7133
-60.139
-60.8695
-61.1573
-60.7725
-65.4531
-65.9936
-66.1087
-66.2316
-66.6163
-66.55
-66.0078
-72.3366
-73.7643
-74.051
-73.127
-72.8416
-71.8678
-79.4125
-79.2437
-80.574
-77.3669
-76.3869
-76.6106
-76.1464
-74.6207
-79.0746
-78.0627
-76.2916
-75.6183
-75.995
-76.2045
-75.4629
-74.6971
-74.3613
-75.6596
-75.3193
-76.8821
-77.395
-77.1584
-76.7414
-76.9662
-76.7167
-76.4225
-76.0614
-74.8589
-75.6144
-76.7785
-77.169
-77.5993
-77.6952
-77.7004
-77.3237
-76.9472
-76.3658
-75.978
-52.0633
-52.9611
-52.9214
-53.7642
-53.735
-53.8276
-55.2724
-55.0774
-55.5002
-55.3651
-57.352
-57.6142
-57.035
-56.7437
-57.579
-60.6462
-60.3049
-60.9469
-61.0946
-60.4176
-61.3432
-65.3668
-66.098
-66.3055
-66.4375
-66.7845
-66.986
-66.4538
-66.6828
-73.824
-74.8865
-74.8761
-73.82
-72.5727
-72.3991
-71.6212
-83.9599
-81.104
-81.7207
-77.7927
-76.5377
-76.9755
-76.0704
-74.7288
-73.3425
-80.6337
-79.0138
-76.3846
-75.8214
-76.0148
-76.1838
-75.3321
-74.6653
-74.3853
-74.487
-75.7043
-75.3953
-76.9774
-77.5275
-77.2309
-76.7829
-76.9832
-76.7598
-76.5682
-76.0968
-75.757
-74.889
-75.6975
-76.995
-77.3735
-77.6413
-77.71
-77.7142
-77.3416
-77.0049
-76.3806
-75.9891
-75.6884
-51.3535
-52.0496
-52.0943
-52.0495
-52.9426
-52.9109
-52.9393
-53.9152
-53.7709
-53.9926
-53.8864
-55.1792
-55.1191
-55.5652
-55.2359
-55.4403
-57.3834
-57.528
-57.0744
-57.7799
-57.3846
-57.801
-60.4092
-60.2917
-62.0828
-60.87
-62.0413
-60.9223
-61.6874
-65.261
-66.4466
-65.205
-66.8598
-66.2735
-67.0991
-66.454
-66.2914
-69.1447
-75.2746
-77.5242
-75.6144
-74.7349
-72.9479
-72.5638
-71.609
-70.638
-87.0654
-83.5466
-82.2731
-78.298
-76.783
-76.9022
-76.1251
-74.4421
-73.3257
-73.2553
-81.2285
-79.1033
-76.4231
-75.8969
-75.9872
-75.9789
-75.1861
-74.6716
-74.3974
-74.5328
-74.7684
-75.6816
-75.4223
-77.0597
-77.6021
-77.335
-76.8003
-77.0289
-76.813
-76.7199
-76.1423
-75.7894
-75.5071
-74.8039
-75.7044
-77.1561
-77.5759
-77.6805
-77.7248
-77.719
-77.355
-77.0569
-76.3958
-75.9987
-75.6982
-75.4339
-50.9809
-51.4498
-51.3511
-51.2738
-52.0781
-52.0052
-52.1288
-51.984
-52.9884
-52.8854
-52.9378
-52.9263
-53.9536
-53.9139
-53.9116
-53.8444
-53.9096
-55.264
-55.1624
-55.3123
-55.3247
-55.4409
-55.5919
-57.3028
-57.389
-57.2592
-57.8166
-57.6666
-57.7168
-58.1067
-60.027
-60.4186
-61.823
-61.0797
-61.9412
-61.8829
-61.4382
-61.8105
-62.1482
-66.4142
-64.9666
-67.1372
-66.7367
-66.6163
-66.7253
-66.1008
-66.3026
-72.6129
-76.8248
-78.6449
-75.9376
-75.3173
-73.2866
-72.5177
-71.4879
-70.5999
-70.0333
-89.1363
-84.3338
-82.7279
-78.6841
-77.1244
-76.6896
-76.0564
-74.3018
-73.3305
-73.3213
-73.6586
-81.23
-78.9383
-76.4569
-75.9549
-75.9627
-75.8265
-75.0237
-74.6583
-74.4639
-74.6031
-74.8252
-74.7976
-75.6199
-75.4127
-77.13
-77.6242
-77.3256
-76.812
-77.0886
-76.8635
-76.8464
-76.204
-75.8228
-75.5369
-75.3645
-74.7061
-75.8411
-77.2634
-77.7444
-77.7291
-77.746
-77.7246
-77.3635
-77.1021
-76.4123
-76.0092
-75.7126
-75.4613
-74.9956
-50.6221
-50.9811
-50.9279
-50.9309
-51.4862
-51.4102
-51.3592
-51.377
-52.0917
-51.9766
-51.9659
-52.0875
-52.148
-52.9682
-53.0066
-52.785
-52.9214
-52.8882
-53.8748
-53.9374
-53.8559
-53.8464
-53.93
-54.0869
-55.2719
-55.3728
-55.3022
-55.3979
-55.5177
-55.5249
-55.876
-57.2042
-57.4926
-57.2675
-57.5202
-57.5121
-57.8014
-58.0281
-58.1876
-59.8129
-60.0481
-61.2405
-60.6434
-61.3241
-61.5933
-61.6853
-61.7494
-61.8002
-62.5587
-64.6313
-66.0109
-66.8956
-66.8771
-66.4721
-66.5732
-66.3127
-66.1866
-65.8429
-74.106
-78.6655
-77.7455
-75.9288
-75.539
-73.6443
-72.5758
-71.4382
-70.6812
-70.2203
-70.2129
-89.5492
-84.8004
-82.789
-78.4227
-77.0731
-76.5563
-75.9219
-74.3428
-73.4112
-73.4365
-73.764
-73.9298
-80.7429
-78.5813
-76.47
-76.0011
-75.9438
-75.704
-74.9224
-74.6203
-74.5292
-74.6562
-74.8358
-74.7068
-74.857
-75.4787
-75.3802
-77.1827
-77.6071
-77.2303
-76.8497
-77.1122
-76.9055
-76.9478
-76.2776
-75.8545
-75.5705
-75.3801
-74.9229
-74.7376
-76.1047
-77.3232
-77.8647
-77.7797
-77.7545
-77.7258
-77.356
-77.1415
-76.4292
-76.0187
-75.73
-75.4852
-75.0173
-73.6867
-50.3512
-50.6014
-50.6781
-50.5999
-50.9971
-50.9161
-50.8895
-50.9252
-51.5146
-51.4989
-51.325
-51.4189
-51.3706
-52.1389
-52.0605
-51.9019
-52.0312
-52.1349
-52.0776
-52.9795
-52.9266
-52.9459
-52.9544
-52.9993
-52.9999
-53.8611
-53.8376
-53.8733
-53.773
-54.0311
-53.9762
-54.2459
-55.2265
-55.4551
-55.3446
-55.3725
-55.5573
-55.6495
-55.8443
-56.1047
-57.1441
-57.5881
-57.4214
-57.5835
-57.4971
-57.8225
-57.8892
-58.1381
-58.2459
-59.9469
-60.8743
-60.9214
-60.9974
-61.1888
-61.6114
-61.7933
-61.7238
-61.8811
-61.9065
-62.4291
-64.3839
-66.314
-66.6343
-66.7124
-66.4163
-66.2653
-66.4797
-66.2504
-66.1405
-66.0866
-73.5702
-78.3451
-77.8673
-75.3832
-75.5239
-73.3843
-72.6793
-71.5215
-70.9441
-70.5636
-70.3275
-70.3224
-87.5328
-84.7382
-82.1601
-78.3288
-76.7993
-76.3851
-76.0228
-74.3211
-73.4399
-73.5847
-73.7148
-73.8591
-74.4994
-79.8567
-78.1457
-76.4384
-76.0472
-75.8929
-75.5084
-74.7782
-74.5973
-74.6008
-74.69
-74.8613
-74.7547
-74.7196
-74.2891
-75.3002
-75.3348
-77.1949
-77.5943
-77.2085
-76.8675
-77.1314
-76.9533
-77.0263
-76.3668
-75.8839
-75.5867
-75.4128
-75.0091
-73.7897
-74.8817
-76.1415
-77.3479
-77.9109
-77.843
-77.7516
-77.7238
-77.373
-77.1694
-76.4452
-76.0242
-75.7442
-75.5098
-75.035
-73.7021
-72.5017
-50.0942
-50.3649
-50.402
-50.3613
-50.6388
-50.7477
-50.6464
-50.6919
-50.5872
-51.0012
-50.929
-50.91
-50.9818
-50.9244
-51.5009
-51.4789
-51.3543
-51.4653
-51.546
-51.4143
-52.1561
-52.122
-52.069
-51.9748
-52.2347
-52.1295
-52.0922
-52.957
-52.9666
-52.8601
-52.8671
-53.0481
-53.0108
-53.1143
-53.8986
-53.9541
-53.8456
-53.9034
-54.137
-54.0954
-54.1773
-54.3766
-55.1566
-55.4459
-55.5479
-55.5573
-55.6476
-55.9003
-55.9303
-56.1297
-56.4277
-56.8968
-57.591
-57.6645
-57.7084
-57.7119
-57.8078
-57.9883
-58.1424
-58.391
-58.5974
-59.5546
-60.7324
-60.9822
-60.8129
-61.4626
-61.5855
-61.7993
-61.8925
-61.9625
-62.0536
-62.0895
-61.6172
-64.101
-65.3138
-67.135
-66.576
-66.6422
-66.1918
-66.3238
-66.3639
-66.3408
-66.1824
-65.9392
-71.44
-78.7869
-77.3634
-75.8336
-74.7546
-73.2223
-72.7713
-71.7451
-71.2081
-70.6539
-70.3363
-70.3797
-70.2748
-83.823
-83.9333
-80.9291
-78.3894
-76.4812
-76.1051
-75.9932
-74.3137
-73.4589
-73.6274
-73.6897
-73.8833
-74.4418
-73.7371
-78.8203
-77.6166
-76.3852
-76.1
-75.8323
-75.3403
-74.6606
-74.5873
-74.7053
-74.7845
-74.9074
-74.8045
-74.6694
-74.2045
-73.7323
-75.0813
-75.285
-77.1725
-77.5865
-77.1739
-76.8387
-77.1338
-77.0232
-77.0796
-76.4692
-75.8938
-75.6126
-75.4514
-75.0582
-73.7534
-72.7129
-74.9937
-76.1251
-77.3477
-77.8976
-77.8877
-77.7533
-77.7193
-77.3984
-77.174
-76.4703
-76.0278
-75.7571
-75.5342
-75.0498
-73.7189
-72.4849
-71.3963
-49.9177
-50.0817
-50.1
-50.0696
-50.3561
-50.4569
-50.3898
-50.3179
-50.3102
-50.6325
-50.6794
-50.6658
-50.6879
-50.6507
-50.7223
-50.9238
-50.9523
-50.9088
-51.0217
-51.0732
-50.9938
-51.475
-51.5391
-51.4118
-51.4321
-51.5486
-51.6562
-51.4761
-52.1278
-52.2417
-52.0401
-51.9542
-52.1988
-52.2471
-52.2018
-52.1929
-52.9468
-52.9692
-52.8971
-52.9448
-53.0421
-53.0539
-53.137
-53.3192
-53.7834
-53.9697
-53.9035
-53.9879
-54.0509
-54.222
-54.3024
-54.4265
-54.7212
-55.0846
-55.3411
-55.4816
-55.5459
-55.698
-55.8669
-55.9917
-56.2632
-56.444
-56.5698
-56.5211
-57.392
-57.7157
-57.7143
-57.7476
-57.8753
-58.0223
-58.0217
-58.3957
-58.5285
-58.7288
-59.2773
-60.5033
-60.7169
-61.0601
-61.4469
-61.6672
-61.9303
-61.8749
-61.8612
-62.2526
-62.1641
-62.303
-61.5328
-64.2055
-64.8178
-66.7617
-66.5552
-66.4006
-66.1171
-66.399
-66.3805
-66.2722
-66.2416
-65.962
-65.8165
-69.9471
-78.4958
-75.9753
-75.5447
-74.3025
-73.2456
-72.802
-71.9072
-71.1202
-70.6899
-70.5625
-70.5055
-70.1671
-69.7923
-80.7325
-82.6308
-79.8589
-77.791
-76.1588
-75.6986
-75.8487
-74.3853
-73.4713
-73.7665
-73.7301
-73.9737
-74.4515
-73.4857
-73.0359
-77.725
-76.9519
-76.3634
-76.0894
-75.7212
-75.1775
-74.6037
-74.5905
-74.8081
-74.8902
-74.9169
-74.7831
-74.6599
-74.121
-73.685
-73.1845
-74.7804
-75.2495
-77.1483
-77.5705
-77.1631
-76.8436
-77.1378
-77.1038
-77.1065
-76.5602
-75.8935
-75.6427
-75.4607
-75.0511
-73.689
-72.6577
-72.3008
-75.0517
-76.1239
-77.3238
-77.8608
-77.9096
-77.7571
-77.7158
-77.4076
-77.155
-76.5004
-76.0319
-75.7679
-75.5583
-75.0616
-73.7351
-72.4899
-71.3467
-70.6108
-49.7451
-49.8439
-49.957
-49.8538
-50.0266
-50.0797
-50.092
-50.0526
-50.0505
-50.3925
-50.3711
-50.4176
-50.3722
-50.3571
-50.2888
-50.6282
-50.6097
-50.635
-50.7086
-50.7426
-50.6442
-50.6624
-50.9369
-50.9403
-50.925
-50.9413
-51.0804
-51.1583
-51.0684
-51.4982
-51.5
-51.5027
-51.4231
-51.5662
-51.7163
-51.6914
-51.6037
-52.1589
-52.1869
-52.0215
-52.0158
-52.1419
-52.2168
-52.3138
-52.4388
-52.2642
-52.926
-52.8521
-52.8875
-52.8237
-53.0518
-53.1764
-53.1859
-53.4053
-53.5601
-53.767
-53.8862
-53.8459
-53.984
-54.1116
-54.2541
-54.3926
-54.4347
-54.7432
-54.8375
-55.0406
-55.2898
-55.3513
-55.5538
-55.5597
-55.8368
-56.051
-56.2165
-56.4762
-56.6089
-56.663
-56.2159
-57.4182
-57.568
-57.6246
-57.8181
-57.9224
-58.1173
-58.0874
-58.3001
-58.6423
-58.8154
-58.8247
-59.2524
-60.4905
-60.6694
-61.0844
-61.3178
-61.7713
-61.8406
-61.8895
-61.7216
-62.2303
-62.4274
-62.3459
-62.1604
-63.1134
-63.7288
-64.7924
-65.8381
-66.4058
-66.1586
-66.1708
-66.471
-66.47
-66.3884
-66.2617
-65.8721
-65.6241
-65.606
-69.9447
-77.3062
-74.3864
-74.3951
-73.9796
-72.8339
-72.7633
-71.9755
-71.4012
-70.7611
-70.6335
-70.8319
-70.9517
-69.6152
-69.4267
-77.9423
-80.8944
-79.1413
-77.114
-75.7943
-75.2233
-75.6546
-74.2619
-73.5297
-73.9598
-73.7223
-73.7526
-73.7033
-73.4575
-72.9485
-72.2881
-76.6239
-76.215
-76.35
-76.0594
-75.5922
-75.0125
-74.5653
-74.5999
-74.8576
-74.9199
-74.878
-74.7655
-74.6032
-73.9829
-73.5588
-73.0357
-72.5736
-74.4562
-75.2046
-77.0967
-77.5385
-77.1574
-76.8763
-77.1431
-77.1689
-77.1439
-76.6452
-75.8925
-75.6482
-75.4608
-74.9947
-73.6568
-72.579
-72.1954
-71.7154
-75.0868
-76.0553
-77.2806
-77.8174
-77.9108
-77.7508
-77.7189
-77.4077
-77.1326
-76.5279
-76.0385
-75.7798
-75.5808
-75.0724
-73.7507
-72.4948
-71.3066
-70.5502
-70.0946
-49.5163
-49.7365
-49.7714
-49.725
-49.8688
-49.9471
-49.8907
-49.9002
-49.8745
-50.0978
-50.0216
-50.0082
-50.0864
-50.0644
-50.0096
-50.3608
-50.3595
-50.3578
-50.3716
-50.4309
-50.3057
-50.3498
-50.6222
-50.6315
-50.6671
-50.6698
-50.7831
-50.7567
-50.714
-50.6318
-50.982
-50.9166
-50.9393
-51.0016
-51.0765
-51.1538
-51.2238
-51.152
-51.4727
-51.406
-51.4701
-51.5046
-51.5689
-51.6064
-51.7978
-51.8929
-51.6614
-52.1088
-52.0988
-51.9532
-51.9848
-52.0856
-52.3168
-52.358
-52.4918
-52.6363
-52.4313
-52.8431
-52.8676
-52.8066
-52.8919
-52.8424
-53.1611
-53.3254
-53.4367
-53.5902
-53.681
-53.8153
-53.9244
-53.7705
-53.8587
-54.1247
-54.2555
-54.4553
-54.4683
-54.6638
-54.9115
-55.0842
-55.1095
-55.3861
-55.3477
-55.3649
-55.6101
-55.84
-56.1928
-56.2177
-56.4919
-56.6896
-56.7554
-56.8516
-56.1553
-57.2328
-57.3524
-57.6898
-57.7959
-58.0072
-58.196
-58.2795
-58.3018
-58.5373
-58.9098
-59.051
-59.0332
-59.0824
-60.166
-60.3968
-60.8396
-61.0716
-61.5777
-61.8154
-61.8904
-62.2383
-62.1024
-62.3973
-62.4132
-62.1742
-62.3452
-63.1908
-63.6655
-64.3553
-65.6464
-66.1698
-66.2391
-66.1338
-66.6127
-66.5033
-66.3241
-66.1717
-65.7985
-65.2322
-65.5362
-65.542
-68.5775
-75.8742
-72.9884
-73.2882
-73.5684
-72.2681
-72.5396
-71.963
-71.5334
-70.9434
-70.7262
-70.7764
-71.0677
-69.5424
-69.2332
-69.1116
-75.4625
-78.7006
-78.1187
-76.2843
-75.3298
-74.9976
-75.3828
-74.0969
-73.6178
-73.9923
-73.6728
-73.6012
-73.5829
-73.187
-72.7139
-72.0212
-71.5588
-75.5596
-75.5216
-76.2623
-75.9932
-75.4521
-74.8143
-74.5751
-74.6494
-74.8565
-74.8801
-74.8041
-74.7165
-74.4923
-73.8862
-73.4132
-72.8755
-72.3033
-71.6492
-74.1743
-75.1585
-77.0074
-77.423
-77.1167
-76.9067
-77.1587
-77.2119
-77.1735
-76.7467
-75.8899
-75.6629
-75.4665
-74.9295
-73.6626
-72.5026
-72.103
-71.5175
-70.6298
-75.12
-76.084
-77.2345
-77.7635
-77.8942
-77.7552
-77.7237
-77.4101
-77.1148
-76.5596
-76.0463
-75.7932
-75.6006
-75.0839
-73.7672
-72.4788
-71.2713
-70.4904
-70.0351
-69.7921
-49.427
-49.5359
-49.5944
-49.5226
-49.71
-49.7634
-49.7381
-49.7243
-49.6859
-49.8714
-49.8823
-49.9111
-49.9324
-49.8995
-49.8814
-50.0735
-50.1043
-50.0834
-50.037
-50.1498
-50.0929
-50.0485
-50.3328
-50.3918
-50.3709
-50.3558
-50.3915
-50.4264
-50.3629
-50.3483
-50.6095
-50.6231
-50.652
-50.7099
-50.712
-50.7174
-50.8525
-50.7501
-50.6944
-50.8764
-50.8722
-50.8555
-51.0323
-51.0597
-51.1786
-51.2604
-51.3589
-51.2108
-51.3094
-51.4169
-51.374
-51.4465
-51.4506
-51.6647
-51.7966
-51.8943
-52.0244
-51.8035
-52.0477
-52.1268
-52.0183
-51.9595
-52.0466
-52.3058
-52.41
-52.5223
-52.6126
-52.7556
-52.6493
-52.8291
-52.8928
-52.698
-52.6865
-52.9393
-53.1417
-53.2672
-53.467
-53.6353
-53.6899
-53.8501
-53.7511
-53.9452
-53.8877
-53.9418
-53.9851
-54.3307
-54.382
-54.5667
-54.7054
-54.8241
-55.0428
-55.2196
-54.8928
-55.2643
-55.4362
-55.4264
-55.5771
-55.8373
-56.0602
-56.2884
-56.3762
-56.6839
-56.7604
-56.9274
-57.043
-56.03
-56.8789
-57.2195
-57.6819
-57.7923
-57.9498
-58.1295
-58.3603
-58.4851
-58.5057
-58.7735
-58.9863
-59.0102
-59.4249
-58.9012
-59.6355
-60.1865
-60.5493
-61.0036
-61.2449
-61.8966
-61.8256
-62.039
-62.0685
-62.3756
-62.3575
-62.1509
-62.1158
-62.1635
-63.1717
-63.9985
-64.2272
-65.3889
-65.9333
-66.1231
-66.1303
-66.4926
-66.4997
-66.2138
-66.1099
-66.0885
-65.8676
-65.4609
-65.437
-65.1814
-67.86
-73.7653
-71.896
-72.5575
-72.8142
-71.9319
-72.2647
-71.9418
-71.0672
-71.0397
-70.705
-70.3612
-70.2196
-69.4199
-69.1275
-68.8751
-68.5926
-73.5245
-76.5076
-76.8084
-75.3842
-74.758
-74.8422
-75.2108
-74.032
-73.467
-73.7568
-73.7179
-73.5261
-73.3518
-72.8155
-72.306
-71.7578
-71.2792
-70.8604
-74.5377
-75.0032
-76.1016
-75.8486
-75.2716
-74.7534
-74.7099
-74.7042
-74.8446
-74.8227
-74.7498
-74.6818
-74.4276
-73.7892
-73.2628
-72.6591
-72.0698
-71.4186
-70.5043
-73.954
-75.1282
-76.9497
-77.2885
-77.097
-76.8859
-77.1603
-77.2294
-77.1937
-76.8487
-75.8916
-75.673
-75.4628
-74.8848
-73.7462
-72.429
-72.0262
-71.302
-70.4692
-69.683
-75.1697
-76.1793
-77.1859
-77.7049
-77.8626
-77.7393
-77.7264
-77.4039
-77.0917
-76.5858
-76.053
-75.8084
-75.6198
-75.0938
-73.7833
-72.46
-71.2313
-70.4441
-69.9735
-69.7519
-69.6218
-49.2622
-49.3799
-49.4466
-49.4089
-49.5303
-49.5603
-49.5876
-49.563
-49.5247
-49.7274
-49.7532
-49.7483
-49.714
-49.7395
-49.6851
-49.867
-49.896
-49.9105
-49.9437
-49.921
-49.9277
-49.8534
-50.081
-50.096
-50.0743
-50.0973
-50.111
-50.1859
-50.1551
-50.0813
-50.3072
-50.3717
-50.3265
-50.3907
-50.3662
-50.4852
-50.4543
-50.4271
-50.385
-50.4849
-50.6082
-50.4876
-50.6945
-50.7096
-50.776
-50.8368
-50.9654
-50.8088
-50.7221
-50.8632
-50.9298
-50.8479
-50.954
-51.1076
-51.1914
-51.2383
-51.3546
-51.5141
-51.3273
-51.3448
-51.4191
-51.2706
-51.3766
-51.4778
-51.6778
-51.8252
-51.945
-52.0663
-52.0845
-51.9825
-52.0222
-52.0483
-51.9477
-51.9547
-52.1242
-52.3361
-52.3977
-52.5702
-52.6786
-52.7154
-52.8912
-52.7344
-52.7781
-52.8593
-52.8181
-52.9175
-52.83
-53.1525
-53.1302
-53.4493
-53.6101
-53.7171
-53.8424
-53.9597
-53.6979
-53.7292
-53.9106
-53.9357
-54.0387
-54.2349
-54.3821
-54.5672
-54.7169
-54.8183
-54.9291
-55.1771
-55.3191
-54.8167
-55.1026
-55.4007
-55.4494
-55.6054
-56.0696
-56.0664
-56.1707
-56.5069
-56.7063
-56.8145
-56.9451
-56.985
-57.0242
-55.9076
-56.5402
-57.0369
-57.4742
-57.9009
-57.8802
-57.9295
-58.2542
-58.5034
-58.6435
-58.819
-58.8983
-59.0333
-59.2924
-59.3197
-58.759
-58.8889
-59.8884
-60.4457
-60.8042
-61.2607
-61.8361
-61.801
-61.9604
-62.1343
-62.2559
-62.3004
-62.1948
-62.0449
-62.1115
-62.0649
-63.2403
-63.4632
-64.5578
-65.3401
-65.7717
-65.9143
-66.0385
-66.2708
-66.4498
-66.3247
-66.098
-65.8374
-66.0047
-65.4941
-65.2914
-65.0748
-64.8241
-68.2751
-71.3925
-71.01
-71.7616
-71.8951
-71.3964
-71.8813
-71.631
-71.1399
-70.8245
-70.7328
-70.3405
-69.7951
-69.2345
-69.0714
-68.6297
-68.4538
-68.244
-71.9249
-74.8539
-75.5956
-74.5216
-74.2167
-74.5095
-74.9554
-73.8638
-73.4747
-73.8883
-73.6406
-73.3844
-73.1184
-72.4683
-71.9291
-71.4041
-71.1471
-70.5564
-69.4084
-73.5716
-74.655
-75.9116
-75.6313
-75.0964
-74.7266
-74.8115
-74.7383
-74.8344
-74.7532
-74.6863
-74.6762
-74.3572
-73.6495
-73.0755
-72.3821
-71.8748
-71.211
-70.2989
-69.0316
-73.7654
-75.1436
-76.88
-77.1925
-77.0887
-76.8526
-77.1489
-77.2265
-77.219
-76.9417
-75.8904
-75.6773
-75.4615
-74.8681
-73.7908
-72.3504
-71.9239
-71.0597
-70.3137
-69.5334
-69.0672
-75.2369
-76.1797
-77.1366
-77.6482
-77.8357
-77.7186
-77.7199
-77.3965
-77.0534
-76.5946
-76.0626
-75.8268
-75.6383
-75.1061
-73.7985
-72.4555
-71.1907
-70.3765
-69.9328
-69.7114
-69.5928
-69.5826
-49.1213
-49.2623
-49.3358
-49.2474
-49.3862
-49.4116
-49.4581
-49.4161
-49.3841
-49.565
-49.5217
-49.5359
-49.5024
-49.5631
-49.5531
-49.7238
-49.7317
-49.7771
-49.7582
-49.7316
-49.705
-49.6814
-49.8422
-49.8869
-49.9596
-49.9421
-49.98
-50.0207
-49.9318
-49.8779
-50.0457
-50.085
-50.0573
-50.1501
-50.1442
-50.1957
-50.2465
-50.2132
-50.1557
-50.2771
-50.3115
-50.4085
-50.4218
-50.4137
-50.4928
-50.501
-50.6294
-50.4405
-50.424
-50.5682
-50.4891
-50.5258
-50.637
-50.7257
-50.7901
-50.8305
-50.9552
-51.0511
-50.9097
-50.8251
-50.9098
-50.7933
-50.8442
-50.9175
-51.0562
-51.2025
-51.2572
-51.362
-51.4959
-51.5831
-51.4691
-51.2849
-51.3893
-51.2959
-51.4
-51.4114
-51.5912
-51.7497
-51.9064
-52.0685
-52.1524
-52.2477
-52.0174
-51.9436
-51.992
-51.9506
-52.0656
-52.0918
-52.2957
-52.4068
-52.5283
-52.6743
-52.7384
-52.842
-53.0547
-52.8922
-52.7463
-52.7605
-52.7691
-52.8684
-52.9693
-53.0627
-53.2788
-53.4523
-53.6696
-53.7746
-53.9032
-53.9766
-53.9598
-53.736
-53.5729
-53.9051
-53.9575
-54.19
-54.2255
-54.2531
-54.557
-54.8123
-54.9044
-54.8825
-55.1394
-55.2287
-55.4593
-54.9496
-54.9831
-55.409
-55.5295
-55.6512
-55.6574
-56.1241
-56.2413
-56.4642
-56.7188
-56.8693
-57.033
-56.9397
-57.0238
-57.0901
-56.0612
-56.3071
-57.1054
-57.3677
-57.7351
-57.9509
-57.9298
-58.3155
-58.5298
-58.7681
-58.9497
-58.9405
-59.1949
-59.3056
-59.2305
-59.4678
-58.6644
-57.9292
-59.5186
-59.9959
-60.6672
-61.2464
-61.4887
-61.7755
-62.1702
-62.0967
-62.1563
-62.3131
-62.3236
-61.9841
-62.0489
-62.0989
-62.2089
-62.5691
-63.6005
-64.7747
-65.6748
-65.4443
-66.1204
-66.0151
-66.6255
-66.3615
-66.4211
-65.7613
-65.7415
-65.9184
-65.37
-64.9055
-65.0201
-64.9298
-64.8469
-67.4197
-70.2024
-69.9124
-70.9735
-70.9341
-71.0032
-71.0123
-71.3735
-70.9783
-70.5618
-70.7347
-70.3018
-69.6844
-69.4034
-68.9518
-68.5409
-68.5048
-68.0755
-66.9886
-70.6284
-73.7001
-74.4222
-73.6965
-73.6633
-74.125
-74.565
-73.4739
-73.1122
-73.7179
-73.494
-73.1611
-72.8353
-72.1913
-71.5474
-71.118
-70.9072
-70.317
-69.1221
-67.8151
-72.7078
-74.3994
-75.7852
-75.4522
-74.9648
-74.5378
-74.7654
-74.8124
-74.844
-74.6207
-74.5928
-74.6836
-74.269
-73.5215
-72.9225
-72.1532
-71.708
-71.05
-70.1108
-68.7833
-67.8319
-73.618
-75.2182
-76.8115
-77.1282
-77.0865
-76.8479
-77.1383
-77.2111
-77.239
-76.9882
-75.9036
-75.6686
-75.4608
-74.8766
-73.8065
-72.2777
-71.7852
-70.8513
-70.1649
-69.395
-68.9941
-68.9819
-75.3298
-76.0888
-77.0867
-77.5982
-77.8164
-77.7059
-77.7054
-77.4031
-77.0037
-76.5991
-76.0799
-75.8385
-75.656
-75.1209
-73.8143
-72.4544
-71.149
-70.2822
-69.8839
-69.6759
-69.5521
-69.5759
-69.7635
-49.0415
-49.1082
-49.0668
-49.0951
-49.2706
-49.3011
-49.3325
-49.3352
-49.2272
-49.4004
-49.3983
-49.4415
-49.4692
-49.4257
-49.3996
-49.543
-49.5411
-49.5595
-49.5725
-49.5987
-49.5332
-49.5269
-49.7192
-49.7474
-49.7921
-49.7348
-49.7817
-49.7566
-49.7459
-49.6536
-49.8401
-49.867
-49.9575
-49.9485
-49.972
-49.9861
-50.0617
-49.9836
-49.9459
-50.0546
-50.0477
-50.0794
-50.1694
-50.1738
-50.1799
-50.2263
-50.3347
-50.2204
-50.3133
-50.2624
-50.2758
-50.3891
-50.3861
-50.4013
-50.4748
-50.5802
-50.6113
-50.7546
-50.5909
-50.4535
-50.5766
-50.534
-50.6323
-50.613
-50.6674
-50.7673
-50.866
-50.9616
-51.0575
-51.1201
-51.0228
-50.8838
-50.8651
-50.8368
-50.8423
-50.8754
-50.9747
-51.1445
-51.264
-51.3743
-51.4623
-51.5416
-51.697
-51.5048
-51.3023
-51.3349
-51.2771
-51.2761
-51.4484
-51.5842
-51.6783
-51.8007
-52.0422
-52.051
-52.2146
-52.3966
-52.2341
-51.9168
-51.8817
-51.8953
-51.9824
-52.1475
-52.2446
-52.3998
-52.5483
-52.6675
-52.8367
-52.8498
-53.0387
-53.1111
-53.017
-52.6288
-52.5702
-52.6473
-52.8096
-53.004
-52.8524
-53.1936
-53.3594
-53.6303
-53.8113
-53.915
-53.9715
-54.0393
-54.1566
-53.631
-53.5222
-53.717
-54.0045
-54.1211
-54.2103
-54.4506
-54.4841
-54.7684
-54.8648
-55.0631
-55.1049
-55.3441
-55.4664
-55.4179
-54.8872
-54.8082
-55.4438
-55.486
-55.5463
-55.7871
-55.8891
-56.1989
-56.5326
-56.6471
-56.7627
-57.0287
-57.022
-57.1093
-57.1864
-57.1034
-56.0795
-56.1468
-56.8742
-57.356
-57.5796
-58.044
-57.7326
-58.2836
-58.5705
-58.658
-58.9673
-59.1386
-59.2336
-59.3349
-59.2632
-59.4447
-59.5581
-58.3648
-58.699
-59.0533
-59.834
-60.6835
-60.9239
-61.3961
-61.8421
-61.9315
-62.1897
-62.0839
-62.3066
-62.3915
-62.0521
-62.001
-62.0163
-62.242
-61.9084
-61.9478
-63.9534
-64.7586
-65.3282
-65.4761
-65.8099
-66.4048
-66.5328
-66.0663
-65.9199
-65.7044
-65.5748
-65.5528
-65.3349
-64.7771
-64.9014
-64.8288
-64.8216
-64.3325
-65.6601
-68.9217
-68.6863
-70.1318
-70.4672
-70.3509
-70.2812
-70.8971
-70.6265
-70.5738
-70.5844
-70.2146
-69.5988
-69.3001
-68.8981
-68.5325
-68.2617
-67.9513
-66.7182
-65.8085
-69.5329
-72.935
-73.5341
-73.0344
-73.3358
-73.8519
-74.3094
-73.5297
-72.9181
-73.6687
-73.3615
-73.0368
-72.5562
-71.8571
-71.1793
-70.8863
-70.6741
-70.1818
-68.7951
-67.5453
-67.1353
-71.8334
-74.3026
-75.7084
-75.3285
-74.8789
-74.379
-74.6919
-74.845
-74.7919
-74.4657
-74.4724
-74.5993
-74.1683
-73.4286
-72.8189
-71.9781
-71.5698
-70.8923
-69.8852
-68.5663
-67.7462
-68
-73.5796
-75.3402
-76.8231
-77.0645
-77.0446
-76.8412
-77.1216
-77.184
-77.2552
-77.0248
-75.952
-75.6647
-75.4532
-74.8969
-73.8294
-72.2195
-71.6346
-70.6966
-70.014
-69.2662
-68.9335
-68.9388
-69.2092
-75.4645
-76.0657
-77.0347
-77.5568
-77.79
-77.6728
-77.6902
-77.4197
-76.9696
-76.6148
-76.1011
-75.8448
-75.6828
-75.1381
-73.8391
-72.4664
-71.1059
-70.1971
-69.8542
-69.6389
-69.5148
-69.5723
-69.7669
-69.9348
-48.9181
-49.0527
-49.0911
-49.0819
-49.1479
-49.0779
-49.2121
-49.1069
-49.0831
-49.2833
-49.2638
-49.3152
-49.3045
-49.3122
-49.2946
-49.3976
-49.3945
-49.426
-49.4694
-49.4976
-49.3967
-49.3921
-49.5136
-49.5549
-49.5501
-49.5857
-49.587
-49.5538
-49.5065
-49.491
-49.7152
-49.7334
-49.7485
-49.7762
-49.7481
-49.7265
-49.7381
-49.7726
-49.7121
-49.8737
-49.8455
-49.9107
-49.9036
-49.9663
-49.9665
-50.0044
-50.0747
-50.021
-49.9635
-50.0643
-50.0464
-50.0701
-50.1212
-50.1219
-50.2052
-50.2374
-50.3274
-50.4245
-50.3435
-50.2227
-50.2587
-50.36
-50.3951
-50.3294
-50.3752
-50.4957
-50.5746
-50.6678
-50.6904
-50.7673
-50.6751
-50.593
-50.5093
-50.5899
-50.6232
-50.5443
-50.6192
-50.7573
-50.8473
-50.9543
-51.0599
-51.1053
-51.2987
-51.0939
-51.0132
-50.8647
-50.9043
-50.8042
-50.8546
-50.9257
-51.1011
-51.2999
-51.3687
-51.494
-51.5321
-51.7184
-51.8631
-51.7166
-51.3082
-51.284
-51.2667
-51.2626
-51.3864
-51.5556
-51.6562
-51.8258
-51.9758
-52.1483
-52.2904
-52.3534
-52.4174
-52.3557
-51.8855
-51.7927
-51.7923
-51.9162
-51.9374
-52.1473
-52.3837
-52.4676
-52.6529
-52.8187
-53.0373
-53.0036
-53.148
-53.3557
-53.1335
-52.6078
-52.5186
-52.6057
-52.7518
-52.7989
-53.079
-53.1089
-53.3493
-53.5288
-53.7201
-53.9285
-54.0506
-54.0897
-54.3553
-54.2743
-53.5015
-53.4101
-53.6793
-53.8872
-54.1172
-54.2462
-54.3828
-54.5478
-54.7825
-54.8863
-55.0504
-55.3391
-55.3355
-55.5068
-55.592
-55.6168
-54.7542
-54.7014
-55.3006
-55.4911
-55.6102
-55.85
-55.8422
-56.278
-56.5155
-56.7092
-56.8795
-57.0076
-57.0596
-57.2422
-57.2036
-57.2966
-57.4586
-55.8912
-56.0619
-56.6429
-57.0967
-57.5236
-57.6734
-58.1109
-58.4665
-58.6008
-58.6944
-59.0715
-59.2346
-59.2235
-59.3232
-59.568
-59.6015
-59.5993
-59.7654
-58.5355
-58.872
-58.9087
-59.679
-60.5817
-60.683
-61.3063
-61.7123
-62.0999
-62.1552
-62.1174
-62.2407
-62.257
-62.391
-61.9994
-61.9451
-62.0835
-61.9213
-61.71
-61.6163
-63.5549
-64.678
-65.0163
-65.6158
-65.8213
-66.0976
-66.3379
-66.3716
-65.9617
-65.7037
-65.6862
-65.4648
-64.6992
-64.7831
-64.9234
-65.0495
-64.7142
-64.269
-63.7888
-64.4554
-67.999
-68.0836
-69.7609
-70.1292
-70.1003
-69.8546
-70.3318
-70.3402
-70.1575
-70.4119
-70.1233
-69.2984
-69.1032
-68.7773
-68.5338
-68.2482
-67.8882
-66.4711
-65.5862
-65.6535
-68.8562
-72.334
-73.2069
-72.5924
-73.414
-73.6902
-73.9602
-73.4545
-73.0676
-73.562
-73.2255
-72.809
-72.2506
-71.476
-70.9259
-70.7959
-70.5502
-70.0281
-68.471
-67.4216
-67.1318
-66.9905
-71.2364
-74.338
-75.7296
-75.2828
-74.7834
-74.2007
-74.679
-74.8717
-74.6897
-74.2911
-74.3335
-74.5001
-74.0357
-73.3626
-72.792
-71.8408
-71.4546
-70.7049
-69.643
-68.3816
-67.7175
-67.9811
-68.7819
-73.6881
-75.523
-76.8172
-76.9884
-76.9792
-76.7907
-77.1109
-77.1457
-77.2567
-77.0622
-76.0142
-75.6594
-75.5127
-74.9543
-73.8381
-72.1736
-71.4684
-70.5395
-69.8504
-69.1578
-68.88
-68.9088
-69.1984
-69.8328
-76.1228
-76.9791
-77.5139
-77.7594
-77.646
-77.6744
-77.4311
-76.9657
-76.6348
-76.1146
-75.8544
-75.7166
-75.1587
-73.8777
-72.4796
-71.0623
-70.1172
-69.8156
-69.5883
-69.4806
-69.5701
-69.7718
-69.9491
-70.0443
-48.9448
-48.9172
-48.9031
-49.0855
-49.0987
-49.0497
-49.0764
-49.0216
-49.1582
-49.1652
-49.1993
-49.1934
-49.2415
-49.135
-49.2753
-49.2729
-49.3004
-49.2826
-49.3591
-49.3185
-49.3076
-49.3589
-49.4019
-49.4023
-49.4456
-49.3975
-49.4087
-49.3936
-49.3417
-49.5378
-49.5358
-49.5016
-49.6079
-49.6098
-49.5913
-49.589
-49.5432
-49.4998
-49.6976
-49.7135
-49.7252
-49.7925
-49.7526
-49.7772
-49.7742
-49.8193
-49.7692
-49.6768
-49.8255
-49.8458
-49.8871
-49.9295
-49.9588
-49.9967
-50.0606
-50.0679
-50.137
-50.1191
-49.9748
-50.022
-50.0309
-50.0407
-50.0808
-50.1069
-50.2093
-50.2878
-50.3051
-50.39
-50.4738
-50.4164
-50.2597
-50.2078
-50.2742
-50.2698
-50.3684
-50.3565
-50.4592
-50.5567
-50.6349
-50.716
-50.7677
-50.9358
-50.7905
-50.6542
-50.4705
-50.561
-50.4656
-50.6499
-50.6261
-50.735
-50.8023
-50.9263
-51.0731
-51.2217
-51.3547
-51.3979
-51.3252
-51.0639
-50.8438
-50.9568
-50.8027
-50.8738
-50.9387
-51.0677
-51.2123
-51.3314
-51.4582
-51.6296
-51.7706
-51.8077
-51.9769
-51.8236
-51.2585
-51.2985
-51.2385
-51.2875
-51.351
-51.5333
-51.7377
-51.7947
-51.9709
-52.0938
-52.3226
-52.3342
-52.4325
-52.6862
-52.4145
-51.867
-51.8092
-51.8363
-51.9115
-52
-52.2086
-52.3129
-52.5368
-52.6793
-52.7823
-52.9803
-53.0739
-53.1082
-53.3878
-53.4403
-53.2972
-52.6441
-52.6027
-52.5642
-52.7532
-52.8503
-53.0078
-53.2481
-53.3099
-53.5275
-53.67
-53.8346
-54.0482
-54.12
-54.2445
-54.2745
-54.5005
-53.4285
-53.4363
-53.6697
-53.8304
-54.0944
-54.2225
-54.4204
-54.5211
-54.777
-55.0543
-55.1601
-55.3219
-55.3703
-55.5158
-55.6426
-55.7856
-55.9078
-54.8232
-54.801
-55.2448
-55.4659
-55.7239
-55.7671
-56.0429
-56.1495
-56.4259
-56.6196
-56.8987
-56.9925
-57.2019
-57.2977
-57.2402
-57.4017
-57.4728
-57.7651
-56.0431
-56.1811
-56.7107
-57.1166
-57.4776
-57.8225
-57.9816
-58.2727
-58.5726
-58.8632
-59.0816
-59.1921
-59.3842
-59.1614
-59.5202
-59.4474
-59.6362
-59.7405
-59.7808
-58.8504
-58.9353
-59.3597
-60.0485
-60.6471
-61.0342
-60.8875
-61.8535
-62.132
-62.0694
-62.0771
-62.1837
-62.2642
-62.4665
-61.9352
-61.9852
-61.7807
-61.9359
-61.5428
-61.4205
-61.3507
-63.1074
-64.3692
-64.979
-65.4586
-65.8938
-65.711
-66.259