/*--------------------------------*- C++ -*----------------------------------*\
  =========                 |
  \\      /  F ield         | OpenFOAM: The Open Source CFD Toolbox
   \\    /   O peration     | Website:  https://openfoam.org
    \\  /    A nd           | Version:  7
     \\/     M anipulation  |
\*---------------------------------------------------------------------------*/
FoamFile
{
    version     2.0;
    format      ascii;
    class       volVectorField;
    location    "5.5";
    object      U_0;
}
// * * * * * * * * * * * * * * * * * * * * * * * * * * * * * * * * * * * * * //

dimensions      [0 1 -1 0 0 0 0];

internalField   nonuniform List<vector> 
18750
(
(1.15069 -0.530965 1.83727)
(3.02375 -0.181112 0.809304)
(0.984268 -0.607757 1.74302)
(2.55842 -0.431123 0.0622882)
(0.785067 1.72212 -0.00556953)
(2.70105 -0.161163 0.58222)
(1.86659 0.185512 -0.591792)
(0.821195 -0.687518 1.63992)
(2.23598 -0.399305 -0.0472843)
(1.99038 0.403445 -0.615439)
(0.754763 4.50668 1.5243)
(0.802012 1.90001 -0.216809)
(0.198231 1.97931 0.0616828)
(2.38896 -0.146308 0.384009)
(2.00065 0.372059 -0.669103)
(0.830449 1.56794 -0.488976)
(0.70239 -0.764109 1.52387)
(2.00668 -0.38415 -0.196705)
(2.22325 0.44207 -0.99818)
(0.700678 0.787458 0.442902)
(-3.59944 5.64581 -1.30103)
(0.187318 4.65174 1.56444)
(2.6378 3.22508 1.48083)
(0.625527 2.03144 -0.43398)
(0.10291 1.73094 0.029757)
(2.33711 1.02298 1.51081)
(2.11441 -0.128882 0.234311)
(2.16461 0.523966 -0.780451)
(1.06836 1.52976 -0.435577)
(0.711123 1.93086 -0.10772)
(0.644955 -0.827359 1.41232)
(1.8548 -0.369447 -0.339163)
(2.35019 0.473836 -1.44153)
(0.822777 0.794836 0.444977)
(0.483186 0.913044 -0.553692)
(-3.4787 4.6461 -1.25109)
(-4.38927 5.59836 -1.38717)
(2.17934 5.73131 3.6904)
(0.145945 4.99859 1.75961)
(2.44523 3.19697 0.853378)
(1.59507 2.78791 -0.624273)
(0.386833 2.05365 -0.604503)
(0.291569 1.88984 -0.141197)
(2.35103 1.06968 1.06627)
(1.21068 1.14658 -0.297072)
(1.88132 -0.137016 0.164933)
(2.27635 0.664754 -0.892947)
(1.40404 1.52617 -0.507024)
(0.797872 1.91893 -0.00910198)
(0.295128 1.50033 -0.422067)
(0.620484 -0.87779 1.32543)
(1.75975 -0.352573 -0.426915)
(2.32935 0.478314 -1.89208)
(0.986521 0.805472 0.369532)
(0.485938 0.955808 -0.530443)
(-0.143183 0.593178 -1.96393)
(-2.39242 4.24048 0.0906968)
(-3.65419 4.12978 -1.38909)
(1.16756 5.81561 3.05421)
(-3.78683 5.75339 -0.534158)
(3.37757 5.5457 3.52498)
(2.66589 4.46153 2.40108)
(0.554485 5.31307 1.83419)
(3.34591 3.27284 0.0442533)
(1.41669 3.00432 -0.524136)
(0.97315 1.83459 -0.997984)
(-0.0177036 1.97973 -0.866389)
(0.500232 1.43073 -0.235432)
(2.0948 1.025 0.592054)
(1.28425 1.28996 -0.238634)
(0.28057 1.54437 -1.05678)
(1.62633 -0.143666 0.137109)
(2.30531 0.801584 -0.984379)
(1.68952 1.58929 -0.804415)
(0.967813 1.91375 0.136067)
(0.737441 1.5082 -0.289855)
(-0.424289 1.51143 -0.29123)
(0.622868 -0.906188 1.25632)
(1.69916 -0.327811 -0.486022)
(2.1573 0.437999 -2.30089)
(1.16414 0.817754 0.203056)
(0.505588 0.988194 -0.521949)
(-0.216887 0.612762 -1.9648)
(-0.180056 0.181567 -2.1884)
(-2.20348 3.43626 -0.137584)
(-2.65485 4.05949 0.019815)
(-1.6077 5.22498 -0.279879)
(-3.88293 3.60879 -1.2233)
(1.14023 5.78108 3.18985)
(1.1376 5.48747 2.94697)
(-3.75812 5.80604 -0.305296)
(1.28164 5.30262 3.21386)
(2.08099 4.66085 2.3174)
(0.687961 4.43863 1.39703)
(1.23512 5.8311 1.84101)
(4.26542 3.61574 -1.23727)
(1.15546 3.06592 -0.254014)
(0.970094 1.83282 -0.0702232)
(1.35494 2.81812 -0.390312)
(-0.356346 1.744 -0.986631)
(0.673116 1.08665 -0.357166)
(1.74813 0.957299 0.331043)
(1.23575 1.35485 -0.271918)
(0.208694 1.45086 -0.741305)
(-0.0106068 1.4383 -0.762564)
(1.36021 -0.181694 0.1467)
(2.26869 0.894517 -0.977717)
(1.84707 1.58922 -1.20802)
(1.17472 1.96963 0.200624)
(0.0862295 1.58794 -0.56763)
(-0.614306 1.53334 -0.284725)
(-0.412364 1.26273 -1.38929)
(0.643207 -0.937131 1.20894)
(1.65576 -0.304988 -0.542811)
(1.87877 0.351783 -2.59157)
(1.31761 0.825569 -0.0651432)
(0.483613 1.02396 -0.544375)
(-0.270699 0.63778 -1.97468)
(-0.192508 0.186096 -2.18171)
(0.407195 0.0725036 -2.28059)
(-2.40913 2.56924 0.0452632)
(-2.23079 3.38934 -0.112108)
(-1.4675 4.23215 0.163474)
(-2.93457 3.77382 0.0116658)
(-1.92644 5.22676 -0.27547)
(0.211655 5.5861 1.80573)
(-4.03884 3.4557 -1.26196)
(0.264782 6.0512 2.57339)
(1.58736 5.2765 3.00925)
(1.89675 4.87726 2.64172)
(-4.60692 5.75053 -0.625793)
(-0.277092 5.10565 3.50852)
(1.42674 4.84048 1.99559)
(0.391998 4.48879 1.37234)
(0.598231 4.43942 1.60984)
(2.1049 6.43237 1.81627)
(4.10315 4.01309 -1.10866)
(1.12804 2.98956 0.037018)
(0.215552 1.95674 -0.00852334)
(1.12639 2.76894 -0.384021)
(1.06256 3.8035 -0.874628)
(-0.612188 1.39015 -0.924587)
(0.810568 0.728677 -0.423624)
(1.45733 0.866514 0.262157)
(1.16391 1.40632 -0.365645)
(-0.02194 1.42635 -0.239744)
(-0.299094 1.21415 -0.764859)
(-0.546524 1.51894 0.0490543)
(1.07395 -0.239212 0.179328)
(2.16894 0.973649 -0.906517)
(1.75349 1.57383 -1.55046)
(1.32193 1.98386 0.109715)
(0.911184 1.52498 -0.334003)
(-0.6198 1.63032 -0.216377)
(-0.470848 1.36847 -1.37745)
(-0.0391793 1.42086 -1.55474)
(0.667188 -0.968319 1.1858)
(1.62476 -0.276098 -0.57767)
(1.49212 0.20157 -2.80223)
(1.40723 0.816677 -0.417129)
(0.500625 1.05113 -0.572084)
(-0.322792 0.672899 -1.98016)
(-0.268198 0.192317 -2.14435)
(0.292182 0.0745793 -2.21924)
(0.568828 -0.0442153 -2.09235)
(-1.80143 2.48871 0.0854269)
(-2.45316 2.54708 -0.00616123)
(-1.56234 3.41189 0.0421433)
(-2.34227 3.30367 -0.0684311)
(-1.72898 4.11486 0.182201)
(-0.65194 4.89275 0.502845)
(-3.05913 3.5348 0.00763721)
(-2.56052 5.27994 -0.271662)
(-0.164022 5.51442 1.87406)
(-0.0678745 5.12172 1.68295)
(-3.93645 3.14914 -1.04113)
(-0.306433 5.86541 2.50401)
(-0.139272 5.48368 2.56394)
(0.615339 5.52882 2.80119)
(-0.156292 5.27964 2.31879)
(-2.96675 6.81114 0.565106)
(-0.842126 5.43522 3.16214)
(1.25399 5.25185 1.71992)
(0.276531 4.52934 1.47317)
(0.104051 4.60687 1.27527)
(0.835073 4.75397 1.53291)
(2.69459 6.69421 1.60846)
(3.45329 4.16114 -0.41055)
(0.931221 2.86621 0.155378)
(0.249559 1.87948 -0.261398)
(0.520429 2.81495 -0.149646)
(1.2655 3.70973 -0.834626)
(1.29585 3.43925 -1.11985)
(-0.710387 0.963658 -0.71831)
(0.974155 0.408217 -0.443452)
(1.13128 0.769447 0.305205)
(1.21539 1.51894 -0.315273)
(-0.0681783 1.39322 -0.0434306)
(-0.388335 1.02238 -0.664118)
(-0.241975 1.38003 -0.310149)
(-0.280593 1.60167 -0.724187)
(0.802034 -0.341144 0.22657)
(2.0781 1.01577 -0.729667)
(1.56899 1.48272 -1.61058)
(1.26603 1.96401 0.0491586)
(0.121136 1.70356 -0.685673)
(-0.575125 1.63686 -0.323281)
(-0.176811 1.43024 -1.43783)
(-0.13507 1.44662 -1.60419)
(0.586904 1.08178 -1.42963)
(0.675959 -0.987904 1.16812)
(1.59403 -0.231744 -0.613414)
(1.15176 0.0360257 -2.87417)
(1.40757 0.77484 -0.811743)
(0.52743 1.08911 -0.586604)
(-0.398807 0.662598 -1.99071)
(-0.297455 0.166054 -2.08307)
(0.220313 0.0631968 -2.14034)
(0.532478 -0.0652051 -2.01183)
(0.410062 -0.434482 -1.17125)
(-2.41243 1.75871 -0.100093)
(-1.83093 2.36916 0.0844825)
(-1.11803 3.04021 0.0711708)
(-2.63916 2.30654 -0.0281563)
(-1.93959 3.23621 0.115411)
(-0.66385 4.03388 0.172637)
(-2.18476 3.34657 -0.0171879)
(-2.03055 4.0149 0.21815)
(-0.606643 5.01671 0.458755)
(0.00963815 4.98146 0.795958)
(-3.33984 3.11522 -0.12347)
(-2.91599 5.23476 -0.435601)
(-0.78968 5.42156 1.70717)
(0.509558 5.39569 1.88654)
(-0.361629 5.43538 1.73867)
(-3.15579 3.14176 0.0231556)
(-0.807443 5.3284 3.1067)
(1.49133 5.64404 3.05218)
(-0.311726 5.51436 2.79332)
(1.25978 5.3754 2.8122)
(-0.200427 5.47654 2.16464)
(-3.23348 6.68922 0.823848)
(-0.199668 5.88675 2.63409)
(0.81476 5.51337 1.63805)
(-0.0952326 4.7224 1.25229)
(0.135265 4.63012 1.04514)
(-0.0637617 4.86695 1.45087)
(0.116653 5.09323 1.9026)
(2.80229 6.52966 1.28142)
(2.61638 4.25877 0.101253)
(0.275864 2.65539 0.158979)
(-0.190406 1.85737 -0.226578)
(0.12215 2.67154 0.0894034)
(1.15441 3.58076 -0.584122)
(-0.0680765 3.18077 0.393909)
(-0.589124 2.16938 0.677121)
(-0.759701 0.408525 -0.477356)
(1.11926 0.212748 -0.40371)
(0.745225 0.652432 0.40662)
(1.08229 1.57657 -0.231605)
(-0.188829 1.36555 0.0485489)
(-0.427034 0.870581 -0.532291)
(-0.152417 1.37503 -0.453238)
(-0.284517 1.71072 -0.676857)
(0.27816 1.35808 -0.848308)
(0.553822 -0.437692 0.291327)
(1.87033 1.03439 -0.682515)
(1.13559 1.39872 -1.65286)
(1.11513 1.89718 -0.0698969)
(0.0623806 1.62911 -0.818027)
(-0.624121 1.63569 -0.399671)
(-0.20827 1.49873 -1.41757)
(-0.271733 1.43996 -1.63785)
(0.835029 1.08648 -1.51082)
(0.0404063 0.917389 -1.0178)
(0.671957 -0.986326 1.15726)
(1.57606 -0.202911 -0.632287)
(0.839276 -0.131995 -2.85545)
(1.31614 0.684386 -1.20399)
(0.554814 1.13672 -0.599093)
(-0.377631 0.701363 -2.00451)
(-0.335484 0.152398 -1.99714)
(0.119158 0.0488734 -2.05182)
(0.485197 -0.0971196 -1.92779)
(0.422068 -0.44069 -1.16461)
(0.115832 -0.171394 -0.980971)
(-1.56365 2.05355 -0.190395)
(-2.22127 1.84876 -0.100996)
(-1.48085 2.70668 0.0798324)
(-1.96015 2.18917 0.0809567)
(-1.44075 2.95877 0.0935336)
(-0.361905 3.48206 0.0920352)
(-2.22686 2.5307 -0.0395717)
(-2.18175 3.11513 0.133883)
(-0.97183 3.98716 0.0692139)
(-0.258535 4.1968 0.235081)
(-2.4803 2.95394 -0.0260036)
(-2.02544 4.01829 0.142348)
(-1.07621 4.82795 0.379491)
(-0.306428 4.9456 0.748764)
(-0.32471 4.86654 0.761549)
(-3.38898 3.05633 -0.125728)
(-2.94329 5.14691 -0.418014)
(-0.911971 5.43523 1.7108)
(-1.26227 5.52362 1.35092)
(-0.467627 5.49038 1.73742)
(-0.26656 5.61283 1.81151)
(-3.01247 3.00203 0.407288)
(-2.56414 4.69273 1.96276)
(-0.693398 5.99052 2.81951)
(-0.703957 5.35649 2.81287)
(-1.07537 5.53425 2.80148)
(0.880698 5.28982 3.22091)
(-0.394741 5.42412 2.5533)
(-0.481412 8.0112 0.877891)
(-1.49089 6.06776 2.642)
(-0.103764 5.42568 1.87571)
(-0.326747 4.74253 1.18864)
(0.332302 4.81059 0.82847)
(0.111322 4.89292 1.29578)
(0.0460151 5.35142 1.50442)
(-0.215449 4.61584 1.3112)
(2.82193 6.37311 0.644765)
(1.77229 3.85703 0.26587)
(-0.583027 2.24079 0.0971136)
(-0.548336 1.7538 -0.183791)
(-0.238389 2.4287 0.50975)
(0.777374 3.36734 -0.159622)
(-0.722444 2.82462 0.930858)
(-0.667144 2.01776 0.694664)
(-0.433294 2.15907 0.604559)
(-0.883751 -0.0982949 -0.286769)
(1.14917 0.0780451 -0.32519)
(0.312195 0.551909 0.518988)
(0.818845 1.608 -0.147505)
(-0.262291 1.36164 0.171606)
(-0.527409 0.821277 -0.371997)
(-0.0962434 1.41395 -0.668111)
(-0.344149 1.76927 -0.475188)
(-0.117696 1.44631 -0.889098)
(0.0177144 1.41661 -0.301917)
(-0.0377247 -0.695683 0.457338)
(1.68234 1.01948 -0.607945)
(0.877326 1.26053 -1.51245)
(0.821541 1.76908 -0.334201)
(-0.0685839 1.57668 -0.915496)
(-0.446987 1.77821 -0.470409)
(-0.148063 1.54528 -1.42234)
(-0.345232 1.43099 -1.65964)
(0.888242 1.13295 -1.57185)
(0.0197205 0.920511 -1.09453)
(-0.0750337 0.880888 -1.08339)
(0.695797 -1.0003 1.15857)
(1.56593 -0.169261 -0.647621)
(0.580774 -0.294866 -2.78061)
(1.13937 0.555738 -1.5526)
(0.579252 1.16915 -0.663465)
(-0.478214 0.670326 -2.00457)
(-0.387316 0.122056 -1.90594)
(0.0412608 0.0251541 -1.95678)
(0.429627 -0.134046 -1.84586)
(0.458741 -0.447729 -1.16094)
(0.122247 -0.165201 -0.978162)
(-0.36885 0.387186 -1.31915)
(-1.31156 1.96371 0.141776)
(-1.66996 1.84384 -0.0592171)
(-1.12256 2.62536 -0.277247)
(-1.42933 2.21784 -0.192436)
(-1.95174 1.92723 -0.0357536)
(-1.58627 2.64753 0.0122965)
(-0.333734 3.14251 0.220495)
(-2.2708 1.84307 0.0884251)
(-1.89802 2.72168 0.111078)
(-0.592051 3.33782 0.178582)
(-0.190435 3.63366 0.0241594)
(-2.39812 2.42621 0.0853235)
(-1.98806 3.20855 -0.036788)
(-1.11143 3.95182 0.00442751)
(-0.45701 4.19934 0.283263)
(-0.276393 4.06803 0.295657)
(-2.7098 2.78556 -0.0523895)
(-2.21631 3.75833 0.11036)
(-1.24106 4.80444 0.366741)
(-0.745427 4.95199 0.754081)
(-0.588929 4.81469 0.709769)
(-0.371884 4.70377 0.797705)
(-3.49099 3.0737 -0.0712587)
(-2.86295 5.01896 -0.157193)
(-1.69111 5.4212 1.60266)
(-1.42501 5.42438 1.32151)
(-1.04261 5.69439 1.57174)
(-0.445597 5.59377 1.84241)
(-0.0623275 5.63505 1.71182)
(-3.21551 3.01641 0.526019)
(-2.28406 4.69237 2.40479)
(-1.84348 5.68738 2.5224)
(-0.177675 5.83575 3.17661)
(-1.41026 5.41502 2.66644)
(-1.04563 5.6333 2.6988)
(-0.148115 5.37734 2.91271)
(0.264447 5.31893 2.32936)
(-3.58977 7.0389 1.415)
(0.333243 7.05742 3.04287)
(0.512841 6.0201 2.0856)
(-0.853443 4.58171 1.23417)
(-0.939686 4.68303 1.30018)
(-0.347256 4.91271 1.40229)
(0.116534 5.29138 1.57217)
(0.0448299 4.70287 0.979568)
(-0.420662 3.90647 1.10437)
(1.2463 5.62644 0.202646)
(0.0590136 3.1197 0.474368)
(-1.06195 1.87369 0.279859)
(-0.715233 1.70071 -0.103609)
(-0.600782 2.16856 0.747472)
(-0.485478 2.92024 0.536667)
(-1.00518 2.62908 0.906096)
(-0.771776 1.9985 0.706013)
(-0.408843 2.26404 0.642071)
(0.0226875 2.8305 0.59652)
(-1.2889 -0.555275 -0.0612264)
(1.05637 0.015901 -0.237172)
(-0.00377085 0.461188 0.659228)
(0.572925 1.64934 -0.0823029)
(-0.393422 1.31812 0.392532)
(-0.667448 0.84011 -0.152095)
(-0.10694 1.44659 -0.883124)
(-0.384343 1.81103 -0.372506)
(-0.239604 1.3626 -1.03241)
(-0.0462502 1.33856 -0.4446)
(0.412718 1.36435 -0.569281)
(-0.185474 -0.815639 0.520114)
(1.50211 1.01017 -0.524317)
(0.623921 1.16941 -1.32838)
(0.634229 1.62776 -0.681837)
(-0.0767512 1.70997 -0.931525)
(-0.687056 1.70431 -0.58871)
(-0.531204 1.47962 -1.39794)
(-0.385639 1.42939 -1.65846)
(0.659573 1.13042 -1.56684)
(0.0289624 0.918351 -1.17761)
(-0.136592 0.880615 -1.21935)
(-0.142593 0.849096 -1.66524)
(0.707677 -1.01309 1.15758)
(1.55698 -0.101124 -0.664666)
(0.378191 -0.441475 -2.67414)
(0.915479 0.384559 -1.84084)
(0.573564 1.18486 -0.788479)
(-0.534845 0.641875 -2.00655)
(-0.435449 0.0880126 -1.81743)
(-0.0143058 0.002725 -1.85887)
(0.362139 -0.173454 -1.7707)
(0.474128 -0.454425 -1.16723)
(0.140208 -0.151712 -0.979934)
(-0.380152 0.384613 -1.32594)
(-0.222608 0.123804 -1.54784)
(-1.25788 1.61532 -0.0113089)
(-1.70339 1.59215 0.142007)
(-1.2197 2.33233 -0.0014872)
(-1.21311 2.01714 -0.0138217)
(-1.63322 1.8325 0.139426)
(-1.27774 2.45377 -0.298771)
(-0.451305 2.90357 -0.0270342)
(-0.987305 2.684 -0.197371)
(-1.97054 1.77031 0.0415309)
(-1.68251 2.47205 -0.0325275)
(-0.570495 3.11027 0.236653)
(-0.0964925 3.20636 0.123952)
(-2.19471 1.88367 0.00737858)
(-2.04337 2.618 0.236744)
(-0.461706 3.32694 0.168156)
(-0.347539 3.52313 0.0429728)
(-0.482232 3.54384 0.159002)
(-2.77048 2.26618 0.177864)
(-2.04406 3.15287 0.120097)
(-1.14391 3.84423 0.00418286)
(-0.522925 4.19731 0.281379)
(-0.515919 4.07206 0.238422)
(-0.355873 4.00725 0.476361)
(-3.07308 2.55064 -0.052841)
(-2.53846 3.53545 0.150961)
(-1.18323 4.77384 0.392111)
(-0.997377 4.80275 0.687964)
(-0.912302 4.77522 0.649408)
(-0.287925 4.6891 0.875222)
(-0.164427 4.68414 0.935161)
(-3.68519 3.0009 0.0112116)
(-3.16017 4.55998 0.0748508)
(-2.11173 5.19751 1.47076)
(-1.77499 5.39016 1.28345)
(-1.27507 5.67785 1.54504)
(-0.792836 5.70284 1.63334)
(-0.0990657 5.61961 1.69939)
(0.22659 5.50679 1.75629)
(-3.56497 2.82758 0.885194)
(-2.93271 4.86018 2.30158)
(-2.17238 5.52543 2.47725)
(-2.24256 5.77725 2.46615)
(-1.42799 5.54531 2.76074)
(-1.63282 5.54058 2.38854)
(-1.12975 5.53461 2.50064)
(-0.333979 5.33143 2.15204)
(-0.416973 5.0998 2.04859)
(-3.9293 7.12079 1.68771)
(-2.90606 6.76029 2.38933)
(-1.53976 5.9611 1.99701)
(-1.53485 4.45796 1.09291)
(-0.903339 4.79568 0.984702)
(-0.844019 4.99683 1.44598)
(-0.492282 5.23062 1.51891)
(-0.985861 4.45396 1.41847)
(-0.505133 3.88305 1.11275)
(0.343137 4.02038 1.16099)
(-2.45946 2.65512 -0.256351)
(-1.73993 1.9382 0.554842)
(-1.46231 1.65056 0.368625)
(-1.06919 1.48657 0.171214)
(-1.14045 1.75104 0.953774)
(-1.05001 2.58077 1.04466)
(-1.20982 2.47135 0.922069)
(-0.864477 2.00724 0.618008)
(-0.102886 2.30626 0.435167)
(0.150062 2.77859 0.539414)
(-0.183622 2.87778 0.812949)
(-1.68675 -0.888409 0.194886)
(0.879634 0.00638277 -0.120813)
(-0.299817 0.345228 0.875773)
(0.244077 1.59483 0.0276125)
(-0.366833 1.41421 0.518337)
(-0.859722 0.866814 0.21292)
(-0.165573 1.45486 -0.951646)
(-0.536222 1.8179 -0.314368)
(-0.276359 1.47741 -0.895657)
(-0.108153 1.29679 -0.521068)
(0.250151 1.41502 -0.545098)
(-0.0566538 1.3671 -0.865042)
(-0.480348 -0.937675 0.61864)
(1.31113 0.980236 -0.463068)
(0.370709 1.10335 -1.12696)
(0.273708 1.52197 -1.01369)
(-0.420982 1.61921 -1.05248)
(-0.788549 1.70344 -0.556777)
(-0.596582 1.46942 -1.38965)
(-0.480524 1.40256 -1.6162)
(0.350947 1.07328 -1.49836)
(0.0260572 0.92505 -1.2659)
(-0.213736 0.899069 -1.32361)
(-0.19013 0.861198 -1.73967)
(-0.221811 0.616808 -1.94185)
(0.73388 -0.985293 1.15306)
(1.54867 -0.0236645 -0.675587)
(0.230472 -0.563952 -2.55344)
(0.684366 0.186032 -2.05138)
(0.526939 1.17837 -0.954891)
(-0.59714 0.620388 -2.01229)
(-0.481561 0.0486167 -1.72774)
(-0.052299 -0.0167498 -1.76409)
(0.290775 -0.215304 -1.70429)
(0.509128 -0.453629 -1.17087)
(0.135604 -0.153736 -0.984493)
(-0.378761 0.38916 -1.324)
(-0.250539 0.132563 -1.52881)
(0.238402 -0.465934 -1.46296)
(-1.30016 1.45535 0.0776446)
(-1.23644 1.65465 -0.169235)
(-1.00567 1.9499 0.044565)
(-1.21516 1.66214 0.0434519)
(-1.86523 1.46226 0.0336858)
(-1.28119 2.28627 0.121621)
(-0.605996 2.60219 0.117905)
(-1.10151 2.40984 -0.085653)
(-1.72251 1.7989 0.173915)
(-1.44194 2.27825 -0.147852)
(-0.549267 2.84013 -0.0231899)
(-0.2422 2.8922 0.112047)
(-0.380464 2.9713 0.00183346)
(-2.13336 1.60069 0.101524)
(-1.77395 2.30268 -0.040551)
(-0.780685 3.12056 0.129743)
(-0.11076 3.19881 0.0920783)
(-0.363571 3.16344 0.251223)
(-2.32196 1.75148 -0.0194771)
(-2.05091 2.622 0.113497)
(-0.940602 3.2216 0.18288)
(-0.620945 3.39155 0.0969462)
(-0.56374 3.4566 0.173263)
(-0.3884 3.61775 0.374977)
(-2.87225 2.10175 0.198804)
(-2.23024 3.20111 0.220951)
(-1.31785 3.70647 0.121083)
(-0.736789 4.10262 0.256678)
(-0.440176 4.04941 0.197575)
(-0.611716 3.93763 0.511712)
(-0.133148 3.99807 0.633635)
(-3.11471 2.50436 -0.0452174)
(-2.64304 3.48312 0.144448)
(-1.60642 4.44649 0.499498)
(-1.12017 4.61043 0.601403)
(-0.88751 4.69473 0.553283)
(-0.86149 4.65784 0.7523)
(-0.313335 4.64366 0.927)
(-0.258267 4.56442 1.0494)
(-3.86146 2.7966 0.0287507)
(-3.27724 4.31988 0.390988)
(-2.18972 4.91399 1.4966)
(-2.2526 5.34955 1.10005)
(-1.58188 5.46162 1.51407)
(-1.08257 5.6457 1.5669)
(-0.390767 5.60151 1.61034)
(0.0162129 5.48034 1.76149)
(0.0191381 5.30942 2.03016)
(-3.71164 2.71897 1.08087)
(-4.27369 4.26332 1.38221)
(-2.82038 5.68681 2.48287)
(-2.75106 5.53399 2.42566)
(-2.18248 5.65311 2.37674)
(-1.93109 5.51841 2.08627)
(-1.26798 5.62763 2.22435)
(-0.565342 5.38623 2.00887)
(-0.581992 5.04231 1.95561)
(0.00723041 4.70027 2.17568)
(-3.25269 7.4694 2.17681)
(-3.03284 6.5801 2.39275)
(-2.22576 5.59557 1.8872)
(-1.61768 4.79814 0.670527)
(-1.46184 4.64224 0.970234)
(-1.08277 4.94777 1.40427)
(-0.613897 5.27275 1.40317)
(-0.473726 4.54584 0.916046)
(-0.244247 3.8764 1.06065)
(0.0246035 3.98484 1.2536)
(0.440116 4.18316 1.60355)
(-3.30237 1.6387 -0.261588)
(-2.02546 1.57083 0.67089)
(-2.02045 1.25717 0.493806)
(-1.43613 1.34148 0.437433)
(-1.44544 1.47082 1.10252)
(-1.02717 2.54073 1.11065)
(-1.09534 2.46659 0.966286)
(-0.752152 1.96099 0.662735)
(-0.376793 2.18643 0.571406)
(-0.306338 2.64713 0.686049)
(-0.514363 2.81229 0.935795)
(-0.299434 2.8208 0.610911)
(-2.07016 -1.21192 0.41489)
(0.64842 -0.0244139 -0.000158182)
(-0.500426 0.372024 1.00297)
(-0.187747 1.50042 0.163834)
(-0.616199 1.28279 0.775027)
(-1.00453 0.859108 0.613516)
(-0.34281 1.42321 -0.786572)
(-0.58439 1.80371 -0.297072)
(-0.351283 1.48198 -0.963574)
(-0.132102 1.24549 -0.634036)
(-0.0592209 1.41362 -0.516539)
(0.185782 1.29914 -0.955949)
(-0.243478 1.25211 -1.2092)
(-0.690692 -1.02579 0.704584)
(1.10626 0.946068 -0.418149)
(0.163642 1.04188 -0.904566)
(0.0416349 1.33678 -1.2484)
(-0.465317 1.56837 -1.10929)
(-0.594213 1.87183 -0.539463)
(-0.621324 1.48682 -1.34424)
(-0.529024 1.37195 -1.54526)
(0.0534853 0.99544 -1.39019)
(0.0118682 0.930267 -1.35028)
(-0.27699 0.893951 -1.43031)
(-0.123211 0.903181 -1.8064)
(-0.313456 0.607726 -1.93165)
(-0.311447 0.343145 -1.99831)
(0.681778 -0.984181 1.14386)
(1.55454 0.0246371 -0.664505)
(0.134869 -0.656647 -2.43332)
(0.476665 -0.0171387 -2.18276)
(0.451624 1.14892 -1.13114)
(-0.648912 0.579149 -2.03162)
(-0.528008 0.00678166 -1.63635)
(-0.077736 -0.0324336 -1.67649)
(0.220826 -0.263023 -1.64664)
(0.526505 -0.464249 -1.18335)
(0.13169 -0.144432 -0.983665)
(-0.403735 0.381405 -1.31202)
(-0.275738 0.127182 -1.51056)
(0.198702 -0.466572 -1.45335)
(0.688677 -0.985451 -1.24659)
(-1.27312 1.50865 0.00406472)
(-1.27941 1.46832 0.132436)
(-1.37885 1.68622 0.0871019)
(-1.21027 1.59341 0.0568564)
(-1.44752 1.48937 -0.195029)
(-0.83261 2.00277 3.79879e-05)
(-0.721688 2.25668 0.178162)
(-0.873262 2.02786 0.119522)
(-1.87296 1.44522 -0.0483004)
(-1.41941 2.15153 0.0556409)
(-0.792041 2.54372 0.110502)
(-0.766585 2.69903 0.421803)
(-0.332308 2.6997 0.0774109)
(-1.99492 1.56711 0.132332)
(-1.56209 2.22136 -0.0439746)
(-0.809281 2.73364 0.082111)
(-0.55491 2.91375 0.163624)
(-0.724215 2.89074 0.450879)
(-0.17083 2.85771 0.188964)
(-2.31464 1.47975 0.0803286)
(-1.90705 2.26211 0.0281077)
(-1.07597 3.09511 0.0507671)
(-0.375394 3.22927 0.158226)
(-0.811328 3.11025 0.378983)
(-0.309289 3.29601 0.192481)
(-2.61818 1.43469 0.0473783)
(-2.14831 2.55154 0.11708)
(-1.23153 3.18814 0.223946)
(-0.8356 3.37597 0.150098)
(-0.640397 3.4529 0.216052)
(-0.877618 3.42717 0.450263)
(-0.509157 3.58309 0.627044)
(-2.78445 2.1223 0.258045)
(-2.74495 2.924 -0.0620655)
(-1.62578 3.73729 0.175001)
(-1.24963 3.92198 0.441104)
(-0.829995 3.91034 0.340955)
(-0.892387 3.95419 0.462126)
(-0.409705 4.00266 0.691256)
(-0.625858 4.05332 0.899667)
(-3.33337 2.06231 -0.032223)
(-2.762 3.29154 0.168501)
(-1.77753 4.25903 0.56494)
(-1.39672 4.45948 0.676762)
(-1.29427 4.51354 0.62433)
(-1.13004 4.62433 0.676517)
(-0.763958 4.65272 0.919579)
(-0.447776 4.69734 1.0769)
(-0.376974 4.63102 1.23495)
(-3.6782 3.01085 0.00625319)
(-3.18832 4.20665 0.555473)
(-2.46271 4.64014 1.36749)
(-2.30036 5.2161 1.13192)
(-1.93492 5.29785 1.37564)
(-1.44696 5.46703 1.50694)
(-0.902532 5.5146 1.53268)
(-0.377381 5.45291 1.69863)
(-0.517358 5.20209 1.90507)
(-0.0361101 4.96852 2.19358)
(-4.06 2.50791 1.01012)
(-4.41093 4.13568 1.07147)
(-3.85991 5.52965 1.97063)
(-3.05833 5.61344 2.13865)
(-2.82991 5.60593 1.86902)
(-2.29168 5.57853 1.97999)
(-1.99093 5.44982 2.36096)
(-0.748712 5.3414 1.93344)
(-0.66172 5.05275 1.98352)
(-0.0959517 4.75503 2.1988)
(-0.024937 4.60635 2.32584)
(-3.40209 6.64089 2.01025)
(-3.36612 6.50074 2.42537)
(-2.79244 5.34604 2.05622)
(-2.59896 3.97635 1.90682)
(-2.3238 4.17382 1.30103)
(-2.04426 4.50957 1.41355)
(-1.01816 5.20071 1.61764)
(-0.605826 4.41964 1.0717)
(-0.665824 3.829 1.13991)
(-0.299268 3.95957 1.26258)
(0.335848 4.13916 1.64163)
(0.574424 4.10867 1.34044)
(-3.9522 0.455227 -0.0885631)
(-2.44295 1.11674 1.04665)
(-2.34726 0.989738 0.512647)
(-1.57545 1.10142 0.855152)
(-1.70956 1.25209 1.34602)
(-1.21931 2.45144 1.29731)
(-1.12865 2.47135 0.963166)
(-0.728575 1.9553 0.619932)
(-0.4805 2.14837 0.631353)
(-0.440161 2.60096 0.670059)
(-0.285359 2.86963 0.702381)
(-0.455559 2.74031 0.608957)
(-0.572044 3.00305 0.263237)
(-2.39046 -1.48538 0.682935)
(0.403448 -0.0420029 0.116713)
(-0.599393 0.438179 0.983309)
(-0.497486 1.44381 0.286914)
(-0.84413 1.20133 0.870159)
(-1.13287 0.885745 1.01859)
(-0.608513 1.37895 -0.459683)
(-0.61914 1.79031 -0.333318)
(-0.359889 1.55085 -0.998571)
(-0.173029 1.23741 -0.65805)
(-0.168996 1.41443 -0.495021)
(0.0640582 1.41242 -0.997231)
(-0.403612 1.24156 -1.20384)
(-0.336945 0.98324 -1.31437)
(-0.865633 -1.10163 0.78442)
(0.898327 0.888146 -0.338753)
(0.0124655 0.97561 -0.726995)
(-0.0760314 1.23046 -1.37844)
(-0.864445 1.36531 -1.18275)
(-0.892075 1.73757 -0.563163)
(-0.818737 1.42686 -1.2088)
(-0.454402 1.38284 -1.43664)
(-0.141592 0.928163 -1.32403)
(0.0130711 0.936798 -1.4236)
(-0.43527 0.889158 -1.4635)
(-0.0920152 0.862446 -1.8926)
(-0.463935 0.614423 -1.91768)
(-0.334495 0.328818 -2.07007)
(-0.0823684 -0.146688 -2.11756)
(0.850642 -0.727999 1.21034)
(1.54445 0.101283 -0.659548)
(0.085295 -0.720698 -2.32598)
(0.325056 -0.20672 -2.24378)
(0.343167 1.07019 -1.31627)
(-0.649916 0.571007 -2.03264)
(-0.569242 -0.0467172 -1.55339)
(-0.0882094 -0.0593788 -1.59734)
(0.161728 -0.302196 -1.60329)
(0.50781 -0.484365 -1.1886)
(0.123588 -0.135907 -0.982303)
(-0.421588 0.373775 -1.30888)
(-0.300946 0.129775 -1.49002)
(0.157973 -0.456483 -1.44492)
(0.68255 -0.977543 -1.23727)
(0.693862 -1.22819 -0.857921)
(-0.719002 1.70204 -0.0865102)
(-1.42944 1.31055 -0.00450977)
(-0.694834 2.07318 -0.145737)
(-1.10977 1.70819 -0.0392183)
(-1.57225 1.19895 0.114679)
(-1.59267 1.55231 0.14356)
(-0.759258 2.03177 0.199432)
(-1.10404 1.91145 0.0786985)
(-1.01323 1.7578 0.0246871)
(-1.4104 1.56734 -0.0898325)
(-0.915531 2.04584 -0.0828596)
(-0.746383 2.22617 0.10915)
(-0.778201 2.23651 0.293875)
(-0.762792 2.27508 0.202294)
(-1.88863 1.39299 -0.121619)
(-1.62204 1.9779 -0.0427699)
(-0.946985 2.5074 0.0598809)
(-0.658399 2.72808 0.417567)
(-0.79684 2.65206 0.633107)
(-0.681764 2.67384 0.288496)
(-2.042 1.58109 0.0307649)
(-1.77797 2.15342 -0.00847728)
(-1.00778 2.70177 0.133099)
(-0.759435 2.89855 0.0589785)
(-0.786599 2.86973 0.452828)
(-0.9213 2.79994 0.538401)
(-0.449728 2.85677 0.438877)
(-2.39111 1.3434 0.0548486)
(-2.28556 1.96874 0.110462)
(-1.25317 3.02465 0.154019)
(-0.832604 3.18058 0.234063)
(-0.411593 3.28734 0.257131)
(-1.13773 3.13995 0.389291)
(-0.580871 3.18666 0.641863)
(-2.67871 1.45252 -0.00288441)
(-2.11297 2.60522 0.184988)
(-1.61956 3.05617 0.192452)
(-0.995042 3.341 0.22249)
(-0.840566 3.38707 0.287888)
(-0.988512 3.44956 0.351484)
(-0.538872 3.56218 0.619642)
(-0.543081 3.70824 0.905799)
(-2.94154 1.99102 0.306243)
(-2.77985 2.87076 -0.0717035)
(-1.83933 3.73868 0.0940674)
(-1.22866 3.92918 0.445904)
(-1.16287 3.82903 0.372294)
(-0.994337 3.9161 0.428663)
(-0.813883 3.97751 0.719848)
(-0.504689 4.11641 0.82474)
(-0.610479 4.15164 1.08174)
(-3.2949 2.10538 0.0257205)
(-2.76012 3.30138 0.197496)
(-1.73875 4.13224 0.564846)
(-1.404 4.36995 0.719245)
(-1.4501 4.47443 0.62742)
(-1.11648 4.59464 0.708699)
(-1.04517 4.63964 0.89577)
(-0.701628 4.70798 1.13721)
(-0.713841 4.66493 1.27557)
(-0.295902 4.56494 1.33677)
(-3.8169 2.77794 0.0173157)
(-3.26646 3.72956 0.606083)
(-2.7094 4.20544 1.20684)
(-2.4001 4.94953 1.03476)
(-2.12239 5.13898 1.33174)
(-1.59342 5.33914 1.33166)
(-1.06162 5.41934 1.4155)
(-0.649801 5.31339 1.80047)
(-0.7056 5.1044 2.13906)
(-0.397003 5.06105 2.20652)
(0.0183003 4.93506 2.27876)
(-4.7511 2.28717 0.690961)
(-4.9807 3.87146 0.100344)
(-3.82352 5.43685 1.94429)
(-3.43373 5.50948 1.93003)
(-2.82976 5.61625 1.82531)
(-2.90669 5.41754 1.91998)
(-1.45934 5.70581 1.87319)
(-0.996763 5.29485 1.96107)
(-0.634115 5.0442 2.0724)
(-0.486423 4.80316 2.12721)
(-0.400081 4.64736 2.3183)
(0.0330817 4.5876 2.3143)
(-5.20172 3.88072 0.0540513)
(-4.44363 5.90456 2.9782)
(-3.84123 4.46823 2.78209)
(-2.23747 4.55359 1.85625)
(-2.64521 3.9774 1.47325)
(-2.39582 4.39413 1.32526)
(-1.12887 5.25395 1.16916)
(-0.699681 4.39772 1.12333)
(-0.846557 3.68086 1.2432)
(-0.647911 3.76006 1.42055)
(-0.372522 3.99914 1.74316)
(0.353492 4.03083 1.42495)
(0.225208 4.12971 1.48415)
(-4.31133 -0.0444174 0.250146)
(-2.77282 0.68957 1.43959)
(-2.39775 0.879646 0.548729)
(-1.67505 0.980733 1.2056)
(-1.78887 1.07236 1.60898)
(-1.72706 2.13414 1.51594)
(-1.33255 2.34144 1.21369)
(-0.720231 1.77342 1.03116)
(-0.5402 2.10754 0.671804)
(-0.206941 2.64981 0.645854)
(-0.683259 2.73128 0.745241)
(-0.420938 2.79504 0.552424)
(-0.739159 3.05563 0.22509)
(-0.402506 3.17983 0.261672)
(-2.6227 -1.77593 0.963244)
(0.140748 -0.0413641 0.233256)
(-0.651155 0.44948 0.95758)
(-0.927885 1.23275 0.51361)
(-1.06838 1.00763 1.06057)
(-1.42786 0.834647 1.39554)
(-0.779437 1.38259 -0.192814)
(-0.726821 1.7519 -0.32616)
(-0.409728 1.55328 -0.912245)
(-0.19134 1.10155 -0.852664)
(-0.273373 1.4031 -0.487133)
(-0.116986 1.45073 -0.982758)
(-0.551487 1.22836 -1.16577)
(0.177128 1.07133 -1.56157)
(0.321751 0.798102 -1.58787)
(-1.05048 -1.15566 0.814125)
(0.699329 0.829513 -0.258255)
(-0.0865531 0.946895 -0.672007)
(-0.273349 1.17308 -1.44638)
(-0.318688 1.7491 -0.964596)
(-0.964635 1.6707 -0.649049)
(-0.797912 1.42105 -1.1961)
(-0.323562 1.44672 -1.32579)
(-0.57364 0.735711 -1.22943)
(-0.000985956 0.956393 -1.47023)
(-0.561956 0.87162 -1.45914)
(-0.452574 0.784938 -1.88397)
(-0.522119 0.620353 -1.92726)
(-0.500352 0.353318 -2.05534)
(-0.168202 -0.110326 -2.1198)
(0.185028 -0.35424 -1.90656)
(0.717793 -0.810613 1.16537)
(1.52723 0.188661 -0.638625)
(0.0695142 -0.761872 -2.23629)
(0.253326 -0.327237 -2.23867)
(0.237818 0.970334 -1.47749)
(-0.674855 0.512921 -1.99638)
(-0.608192 -0.0977594 -1.47693)
(-0.101582 -0.0809043 -1.52522)
(0.12957 -0.327975 -1.58834)
(0.459974 -0.518153 -1.20103)
(0.108265 -0.132944 -0.978143)
(-0.443217 0.375733 -1.30058)
(-0.323924 0.125706 -1.46597)
(0.1268 -0.460966 -1.43031)
(0.672846 -0.966836 -1.23141)
(0.694656 -1.22823 -0.84298)
(0.287803 -1.2192 -1.12125)
(-1.10623 1.24223 0.176841)
(-0.872255 1.62423 -0.00817944)
(-1.23099 1.63867 0.0269177)
(-0.60409 1.74392 -0.0855941)
(-1.44283 1.29948 -0.0124876)
(-0.54939 2.11939 -0.132961)
(-0.517413 2.12193 -0.0895535)
(-0.710077 2.0653 -0.131782)
(-1.015 1.79072 -0.0832826)
(-1.42554 1.36653 0.10125)
(-1.8166 1.3374 0.0595251)
(-1.03054 1.87039 0.159824)
(-0.905049 2.0554 0.188875)
(-0.678763 2.12427 0.197725)
(-1.09569 1.97534 0.113294)
(-1.52771 1.3974 -0.00803234)
(-1.28509 1.90849 -0.124824)
(-1.00768 2.09921 0.156961)
(-0.66366 2.26446 0.307875)
(-0.788628 2.30516 0.385421)
(-0.830961 2.31213 0.380106)
(-2.01329 1.29644 -0.135656)
(-1.67053 1.95533 -0.0860031)
(-1.19757 2.44529 -0.0416112)
(-0.770603 2.56943 0.351551)
(-0.80375 2.63351 0.543111)
(-0.854105 2.64105 0.571587)
(-0.796114 2.636 0.650345)
(-2.3026 1.21761 0.00765419)
(-1.82639 2.09391 -0.049888)
(-1.23551 2.66265 0.109327)
(-0.953225 2.83121 0.252062)
(-0.988772 2.80704 0.444702)
(-1.03548 2.81837 0.431792)
(-0.990358 2.78742 0.621026)
(-0.731483 2.79133 0.560278)
(-2.4921 1.12491 0.0844272)
(-2.34216 1.88928 0.108031)
(-1.4962 2.91239 0.293264)
(-0.986528 3.09432 0.278484)
(-0.956504 3.15334 0.362942)
(-1.2735 3.14098 0.490527)