/*--------------------------------*- C++ -*----------------------------------*\
  =========                 |
  \\      /  F ield         | OpenFOAM: The Open Source CFD Toolbox
   \\    /   O peration     | Website:  https://openfoam.org
    \\  /    A nd           | Version:  7
     \\/     M anipulation  |
\*---------------------------------------------------------------------------*/
FoamFile
{
    version     2.0;
    format      ascii;
    class       volScalarField;
    location    "7";
    object      nut;
}
// * * * * * * * * * * * * * * * * * * * * * * * * * * * * * * * * * * * * * //

dimensions      [0 2 -1 0 0 0 0];

internalField   nonuniform List<scalar> 
18750
(
0.00164065
0.00127102
0.00176124
0.00125552
0.00105858
0.00138642
0.00105431
0.00174848
0.00152542
0.00037767
0.00274664
0.00132493
0.00339251
0.0014957
0.00074239
0.000480504
0.0016553
0.00172681
0.000557517
0.000317785
0.00334264
0.00334055
0.00132459
0.00136087
0.000701152
0.000696106
0.0014568
0.000692063
0.00053153
0.000592804
0.0014672
0.00171645
0.000513603
0.000317589
0.000308385
0.00310873
0.00325224
0.00159603
0.00202175
0.000399935
0.000376401
0.00112992
0.000633254
0.000622689
0.000948793
0.00140771
0.00113166
0.000509819
0.00046253
0.000501194
0.00121464
0.00159927
0.000222597
0.000202518
0.000424266
0.000217938
0.00253012
0.00300498
0.00177092
0.0030315
0.00156969
0.000516102
0.00181706
0.000912416
0.00171178
0.00102555
0.00102335
0.00134874
0.000660709
0.000516217
0.000464335
0.00132649
0.00131488
0.000519113
0.000412215
0.000577932
0.000556518
0.000939545
0.00121896
0.000304482
0.000200475
0.00047963
0.000207583
0.000634137
0.00226609
0.00245564
0.000903787
0.00287213
0.00151682
0.00146874
0.00280143
0.00222195
0.00146227
0.00132126
0.00164329
0.00143794
0.00136292
0.000828678
0.000531926
0.000988484
0.00100986
0.000725188
0.000282192
0.0006744
0.000830616
0.00123512
0.00143595
0.000714216
0.000350172
0.000702039
0.000644445
0.000531046
0.000684157
0.0010049
0.000587136
0.000480635
0.000393942
0.000150967
0.00044053
0.000265985
0.00231725
0.00216196
0.000626972
0.00262454
0.00105518
0.000915402
0.0029413
0.00168422
0.000613735
0.000504988
0.00327175
0.00128729
0.00123582
0.000479141
0.000551098
0.00164993
0.00116012
0.00105891
0.00070392
0.000459999
0.00112241
0.00116883
0.000854262
0.000609188
0.000744947
0.000799138
0.000185903
0.000461255
0.00117009
0.00141368
0.000737875
0.000328905
0.000638875
0.000725463
0.000581684
0.000411554
0.000574377
0.00051343
0.000630265
0.000216991
0.000292562
0.000157246
0.000351588
0.000337569
0.000414648
0.00233809
0.00237516
0.000703194
0.00229896
0.000726272
0.000311406
0.00251151
0.00161
0.000944059
0.000857833
0.00331162
0.00155006
0.000502676
0.000875404
0.000676381
0.00376677
0.00121516
0.00115811
0.000271565
0.000682395
0.00101746
0.00140684
0.000701211
0.00088935
0.000641298
0.00169788
0.000810887
0.000657827
0.00124204
0.000852584
0.000915552
0.000560532
0.000172466
0.000213281
0.000646512
0.000686089
0.00110394
0.0012073
0.000850404
0.000366146
0.000527985
0.000811803
0.000622739
0.000451672
0.000385273
0.000578977
0.000384727
0.000864114
0.000278649
0.000319952
0.000173721
0.00032859
0.000384402
0.000355044
0.000231929
0.00254542
0.0023721
0.00062994
0.00230434
0.000913781
0.000638488
0.00253288
0.000551621
0.000497456
0.000454958
0.00261148
0.0011463
0.000833931
0.00108545
0.00141989
0.00326529
0.00122534
0.000528178
0.00138325
0.000981449
0.000583907
0.00326653
0.00220398
0.00100094
0.00127357
0.00120736
0.00048477
0.000825041
0.00184067
0.000899074
0.000564821
0.00079028
0.000365733
0.000436211
0.000656802
0.000550624
0.0014089
0.000982906
0.000698751
0.000835364
0.000228316
0.000786703
0.000399709
0.000712341
0.000480955
0.0010444
0.00125259
0.00103072
0.000495788
0.000476855
0.000660518
0.00069285
0.000542178
0.000396571
0.00028994
0.000593398
0.000279084
0.000942072
0.000461597
0.000289924
0.000143235
0.000308073
0.000406377
0.000303597
0.000224579
0.000181147
0.00224724
0.00250958
0.000748853
0.00243804
0.000651447
0.000274615
0.00242215
0.00075676
0.000545649
0.000656489
0.00247587
0.000789878
0.000457203
0.000771643
0.0008735
0.00275383
0.00108211
0.000932782
0.000950806
0.00116489
0.00136187
0.00307629
0.00168778
0.00127249
0.0012593
0.00128516
0.000926783
0.000516893
0.00404865
0.00147466
0.000928467
0.000892435
0.000906704
0.000941699
0.00107911
0.000715902
0.00255964
0.0011872
0.00065654
0.000738651
0.00241576
0.00136729
0.000615938
0.000475219
0.000433145
0.00154531
0.000875529
0.00115151
0.000954499
0.00102016
0.000371238
0.000496776
0.000564041
0.0004412
0.000461719
0.000974588
0.00118448
0.00121985
0.000664447
0.000544735
0.000542441
0.000626877
0.000474436
0.000358346
0.000267678
0.00029375
0.000603772
0.000317453
0.000954442
0.000183163
0.000288412
0.000124604
0.000212469
0.000400411
0.000260632
0.000202811
0.000170672
0.000208926
0.00216292
0.00219158
0.000511157
0.00241452
0.00252597
0.000546948
0.000340703
0.00233073
0.000615168
0.000287219
0.000857521
0.00244144
0.000802446
0.000517244
0.000555861
0.000527037
0.00241585
0.000414772
0.0006641
0.000866503
0.000668081
0.000466107
0.0028317
0.000886059
0.00123318
0.000976935
0.00106351
0.00116396
0.00124204
0.00304322
0.00142176
0.00212732
0.0014386
0.00168144
0.00128156
0.000649211
0.000609199
0.00382534
0.000768917
0.00105048
0.000985048
0.002011
0.000613048
0.000525781
0.000736274
0.000640837
0.00228196
0.000472052
0.000349315
0.00134403
0.00231167
0.000387458
0.000563383
0.000544199
0.000505916
0.000494612
0.00150396
0.000474469
0.000614208
0.000869313
0.000510252
0.000657258
0.000646128
0.000961563
0.000625103
0.000440256
0.000500199
0.00089305
0.00105678
0.00129318
0.000719065
0.000697705
0.000608769
0.000562059
0.000460132
0.000393741
0.000309403
0.000323156
0.000413875
0.000610714
0.000385671
0.000882578
0.000124598
0.000312291
0.00018406
0.000206293
0.000382249
0.000240194
0.000171167
0.000162492
0.000176452
0.000121485
0.00213271
0.00208212
0.000582871
0.00226679
0.00221743
0.000684346
0.000397088
0.000783015
0.00250685
0.000843298
0.000752432
0.000281985
0.00221441
0.000450812
0.000644061
0.000488522
0.000692458
0.00236641
0.000441421
0.000862584
0.000660778
0.000707336
0.000404997
0.00233766
0.000202411
0.00093551
0.000941415
0.000998648
0.000908351
0.000797667
0.00307364
0.00093178
0.00104112
0.00109772
0.000739877
0.001165
0.00128436
0.00110702
0.00269687
0.00103269
0.00165785
0.00151798
0.000658957
0.000751768
0.00103079
0.00052041
0.000517544
0.00302219
0.000592584
0.00115393
0.00113412
0.00158286
0.00094323
0.00072633
0.000984554
0.000463125
0.0004302
0.00235178
0.00103691
0.00097141
0.000922346
0.000547201
0.000465581
0.00082211
0.000571996
0.000404781
0.000680965
0.00067141
0.00138727
0.00103683
0.000673079
0.000629982
0.00108164
0.000622536
0.000808413
0.000537452
0.000748325
0.000548189
0.000470473
0.000361448
0.000854125
0.000866844
0.00140289
0.000735571
0.000792653
0.000645768
0.00061501
0.000482557
0.000357273
0.000301955
0.000374501
0.000554757
0.00091105
0.000619209
0.00040911
0.000730674
0.00022803
0.00034369
0.000265081
0.000393928
0.00030847
0.000168151
0.000111547
0.000158379
0.000137912
0.000178926
0.000133474
0.00207661
0.00215225
0.000455265
0.00229322
0.00217108
0.00067297
0.000587014
0.000406364
0.00228889
0.000826536
0.000680537
0.000674365
0.000412494
0.00239966
0.000986384
0.000949602
0.000593457
0.000714298
0.00214831
0.000674011
0.000449183
0.000698475
0.000600762
0.000659696
0.00250073
0.00079711
0.000706262
0.000354155
0.000631154
0.000738384
0.000349959
0.00238993
0.000797953
0.000758505
0.00069385
0.000736245
0.000814759
0.000611587
0.000743794
0.00283861
0.000584329
0.000706288
0.000789906
0.000834421
0.000972412
0.00135166
0.00101013
0.000896905
0.00241302
0.000903989
0.00148895
0.00124996
0.000880145
0.000884951
0.000994425
0.00079821
0.000438453
0.000205184
0.00307902
0.000700893
0.00106006
0.000877801
0.00142846
0.00106392
0.000602185
0.000421076
0.000813096
0.00044361
0.000302311
0.00194416
0.00133276
0.000582959
0.000650086
0.00206014
0.00226698
0.00151383
0.000280086
0.000642338
0.000570176
0.000502196
0.000693693
0.00143784
0.000615973
0.0010642
0.000722186
0.000623977
0.000341906
0.000353545
0.000552282
0.000645709
0.000650602
0.000467496
0.000591496
0.00052596
0.000823031
0.000817996
0.00140463
0.0007288
0.000685751
0.000667177
0.000554216
0.000449133
0.000428485
0.000360529
0.000400475
0.000475577
0.000802968
0.000576532
0.000624714
0.000471414
0.000591715
0.000322138
0.000333822
0.000340759
0.000500061
0.000184988
0.000108916
7.88769e-05
0.000140485
0.000199816
0.000167996
0.000123768
0.000123665
0.00208242
0.00213108
0.000406318
0.00233802
0.00221514
0.000375658
0.000403179
0.000392649
0.00220418
0.000535012
0.000614439
0.000618463
0.000548174
0.00223976
0.000534996
0.000486004
0.000627008
0.000683805
0.000641366
0.00244449
0.000504334
0.000639228
0.000669861
0.00046673
0.000533365
0.00226409
0.000533658
0.000516075
0.000604525
0.000401241
0.000638777
0.000476298
0.00253744
0.00082614
0.000634643
0.000576553
0.000414758
0.00066534
0.000633439
0.000537037
0.00230575
0.000528578
0.000895089
0.00071903
0.000474225
0.000507849
0.000712483
0.000671901
0.000577837
0.00267429
0.000606132
0.000962101
0.00061545
0.000692887
0.00128845
0.000887768
0.00126641
0.0011885
0.000990339
0.00275602
0.000614242
0.00113519
0.00123109
0.00131852
0.000833954
0.000741431
0.00118251
0.00124658
0.000969402
0.000745863
0.00282731
0.00100817
0.000417946
0.000664885
0.0013609
0.00154469
0.000439705
0.000598668
0.000646133
0.000463537
0.000628688
0.00046765
0.00229923
0.000705059
0.000517694
0.000996126
0.00108407
0.000776355
0.00192963
0.00065685
0.000430697
0.000617942
0.000635454
0.00104574
0.000255315
0.00144658
0.000516105
0.000967512
0.000839113
0.000562406
0.000580427
0.000556324
0.000922157
0.00136306
0.000570006
0.000621945
0.000452152
0.000550251
0.000570745
0.000772683
0.000911249
0.0013055
0.000802786
0.000625968
0.00073951
0.000583667
0.000471114
0.000457204
0.000354947
0.000398853
0.000507691
0.000518652
0.000800561
0.000459666
0.000624996
0.000540105
0.000517539
0.000251343
0.000314553
0.000442531
0.000543237
0.00017526
0.000152496
8.81904e-05
0.000121727
0.00020709
0.000255
0.000142988
0.000145537
0.000244436
0.0020391
0.00210524
0.000434496
0.00222967
0.00221262
0.000449598
0.000472706
0.000431495
0.00233027
0.00225183
0.000593186
0.000540567
0.00043386
0.000499694
0.00220796
0.000548793
0.000629453
0.000477865
0.000255213
0.000676597
0.00227727
0.000626101
0.000501694
0.00053244
0.000280946
0.000620698
0.000892199
0.00246311
0.000651787
0.000492255
0.000665347
0.000450757
0.000560802
0.00053892
0.00210955
0.000324766
0.000539646
0.000603577
0.000303394
0.000419398
0.000444852
0.000349594
0.00251599
0.000726476
0.000539888
0.000884277
0.000648229
0.000663028
0.000610364
0.000563667
0.000544311
0.00222377
0.000719061
0.000635264
0.000853611
0.00070887
0.000921687
0.000540899
0.000555447
0.000513969
0.000548191
0.00292668
0.00128744
0.00081862
0.000727152
0.000544901
0.000965826
0.00107899
0.000700587
0.000687626
0.000783568
0.00111528
0.00315411
0.000803682
0.000802912
0.000957155
0.000515505
0.000452824
0.000965242
0.000837039
0.000942091
0.000928545
0.000445229
0.000834421
0.003128
0.00174794
0.000806409
0.000751711
0.00208702
0.00110127
0.00141444
0.000712985
0.000517184
0.000568966
0.000348145
0.000232788
0.000501281
0.00230447
0.000895926
0.00086163
0.00011173
0.00307351
0.00171632
0.00172094
0.000793936
0.000418164
0.000559061
0.000553848
0.000599643
0.000632098
0.000258836
0.00143885
0.000733747
0.00108598
0.000821922
0.00053912
0.000480702
0.000442049
0.000528248
0.00085007
0.000981819
0.000554426
0.000606444
0.00051533
0.000494343
0.000587867
0.000748746
0.000969115
0.00113865
0.00089253
0.000604129
0.00074661
0.000595609
0.000484675
0.000466239
0.000404768
0.000383907
0.000427236
0.000487209
0.00066584
0.000453557
0.000566084
0.000625961
0.000420901
0.000423724
0.000297631
0.000181904
0.000498923
0.000503515
0.000189113
0.000224285
0.00011698
0.000103418
0.000146625
0.00034508
0.000165189
0.000163833
0.000320795
0.000205341
0.00205364
0.00206314
0.000529726
0.00218043
0.0021701
0.000482141
0.000145711
0.000300719
0.00223889
0.00231032
0.000545669
0.000470742
0.000300086
0.000525774
0.000383566
0.00225482
0.00060705
0.000496045
0.000343074
0.000333827
0.000565515
0.00230376
0.00061174
0.000614439
0.000432626
0.000613757
0.000604169
0.000636045
0.00219491
0.000802733
0.000450481
0.000655168
0.000491229
0.00064356
0.000695721
0.000397504
0.00235538
0.00073798
0.000453001
0.000554026
0.000490554
0.000469162
0.000498362
0.000507238
0.00220025
0.000486621
0.000493966
0.000184057
0.000632027
0.000603704
0.000527809
0.000660714
0.000515135
0.00235018
0.00100025
0.000926056
0.000544362
0.000785128
0.000293101
0.000194374
0.000413431
0.00036184
0.000566586
0.00244144
0.000821661
0.000568283
0.000661009
0.000751011
0.000598075
0.000703059
0.000388964
0.000358131
0.000675984
0.000802012
0.00269121
0.000565031
0.000832012
0.000816975
0.00078804
0.000620865
0.00128194
0.00120314
0.000984337
0.000755176
0.000621066
0.00111949
0.00249151
0.000679452
0.000839224
0.000713631
0.00077673
0.00148645
0.000806067
0.000710778
0.000862557
0.000580342
0.000403983
0.000528392
0.000670127
0.00192072
0.00219715
0.00120713
0.000971291
0.000798386
0.00197745
0.000935439
0.000506385
0.000370513
0.000111587
0.000472342
0.000677285
0.000166121
0.00069109
0.00199982
0.000492585
0.00110344
0.000458785
0.000521246
0.00101528
0.00110077
0.000611575
0.000807402
0.000568201
0.000655591
0.000664657
0.000273793
0.000416743
0.000313819
0.0014222
0.000862375
0.00083408
0.000667575
0.000510157
0.000479989
0.000587324
0.000602339
0.000835073
0.000824141
0.000598203
0.000609026
0.000390127
0.000540796
0.000564856
0.00028926
0.000783359
0.000981429
0.00103337
0.000811875
0.0005901
0.000773509
0.000642038
0.00046202
0.00046909
0.000421129
0.000395749
0.000365368
0.000479992
0.000516984
0.000410727
0.00059884
0.000593357
0.000619365
0.000413838
0.000428945
0.000238622
0.000137314
0.000468632
0.000387184
0.000139216
0.000255095
9.50909e-05
0.000106419
0.000199651
0.000223162
0.000152217
0.000174352
0.000413485
0.000285079
0.000188778
0.00203056
0.00204174
0.000416146
0.00213282
0.0020393
0.000526191
0.000309635
0.000481779
0.00218141
0.00222966
0.000469943
0.000282327
0.000365131
0.000304757
0.000310012
0.00230221
0.000429604
0.000269485
0.000223733
0.000214368
0.000415598
0.000266488
0.00230739
0.000321303
0.000495863
0.000284873
0.00028363
0.000444762
0.000529606
0.0023081
0.000283516
0.000537678
0.000374139
0.000373656
0.000200915
0.000492952
0.000496577
0.00220138
0.000409452
0.000505163
0.000443468
0.000459444
0.000410429
0.000260519
0.000518252
0.000617757
0.00249548
0.000491083
0.000661505
0.000390056
0.000662755
0.000570098
0.000385144
0.000425753
0.000512016
0.00218781
0.000611887
0.000606467
0.000657845
0.000433497
0.000541226
0.00055673
0.000302049
0.000513045
0.000524879
0.00253859
0.000755064
0.000818798
0.000513954
0.000484388
0.000621858
0.000676739
0.000393254
0.000447306
0.000485717
0.000532461
0.0027204
0.000445127
0.000681968
0.000723614
0.000991332
0.000720434
0.000621578
0.000608043
0.000455845
0.000405864
0.000592506
0.0010111
0.00264756
0.000624441
0.000848719
0.000669812
0.0012787
0.000606379
0.000508445
0.0010983
0.00104571
0.00101661
0.00125046
0.000953764
0.000643927
0.0028103
0.00161025
0.000719395
0.000564952
0.00157527
0.000821355
0.00109795
0.00134248
0.00102685
0.000690277
0.00127256
0.00058682
0.000499263
0.000681258
0.00281425
0.00219372
0.00144659
0.000737193
0.000881385
0.00114201
0.000810682
0.000921683
0.000395423
0.000395609
0.000151679
0.000729187
0.000351722
0.000514668
0.000616226
0.00214134
0.000382716
0.000804742
0.000519274
0.00050493
0.000653895
0.000456166
0.000803063
0.0005583
0.000641564
0.000540347
0.000456944
0.000262428
0.000447472
0.000375254
0.000787298
0.00140286
0.000813884
0.000828224
0.0011559
0.000612167
0.000696861
0.000649779
0.000413664
0.00118179
0.000667174
0.000738688
0.00057427
0.000345555
0.000481694
0.000557841
0.000300679
0.000441359
0.000809752
0.0010122
0.00103641
0.000964946
0.000591285
0.000796565
0.000711551
0.000496642
0.000517908
0.000432523
0.000395996
0.000363799
0.000434676
0.000512578
0.000415964
0.000582532
0.000633939
0.000661536
0.000612818
0.000465264
0.000419103
0.000157079
0.000153018
0.000419068
0.000196902
0.000171663
0.000269944
0.00013884
0.000214782
0.000258285
0.000271336
0.000185232
0.000186061
0.000535151
0.000323587
0.00017687
0.000254452
0.00215772
0.00201684
0.000364243
0.00219562
0.00201073
0.000431233
0.000402715
0.000474435
0.0020919
0.00203521
0.000593528
0.000305782
0.00047879
0.000482093
0.000385949
0.00220274
0.000345169
0.000476772
0.000542294
0.000306326
0.000364931
0.000487194
0.00222502
0.000502621
0.000302967
0.000343426
0.000229155
0.000309594
0.000340574
0.000276286
0.00223756
0.000326613
0.000538388
0.000242907
0.000382783
0.000457668
0.000479127
0.00039059
0.00220346
0.000548314
0.000519738
0.000606949
0.000286934
0.00035365
0.000341916
0.000328945
0.00065797
0.00220105
0.000418759
0.000484329
0.000467014
0.000607441
0.000494705
0.000560574
0.000260272
0.000765087
0.000600939
0.00244203
0.000552526
0.000314943
0.000588809
0.000536047
0.000259376
0.000610598
0.00046748
0.000375484
0.000549834
0.0022626
0.000663811
0.00016737
0.000588813
0.000411957
0.000317658
0.000603472
0.000301287
0.000393773
0.000275847
0.000371762
0.00241756
0.00089246
0.00021006
0.000575548
0.000487205
0.000810165
0.000943559
0.000585848
0.00052974
0.000499072
0.000422507
0.000427573
0.00252057
0.00127472
0.000764655
0.000882363
0.000618028
0.000927354
0.00052793
0.000416043
0.000569878
0.000443073
0.000470723
0.00072131
0.00082402
0.00311072
0.00138278
0.00079081
0.000763783
0.000448234
0.000867073
0.000879533
0.000696704
0.000844897
0.000785935
0.000730987
0.000688028
0.000609907
0.000440846
0.00320533
0.00215554
0.00089758
0.000700906
0.000577572
0.000849302
0.000909233
0.000783682
0.00122529
0.000711722
0.000532657
0.000509156
0.000543398
0.000781041
0.000454962
0.00343217
0.00147919
0.00159191
0.000528059
0.000782261
0.00124655
0.000866289
0.000312498
0.000492856
0.000172785
0.000340172
0.000155772
0.000351982
0.000336913
0.000486949
0.000726977
0.00224342
0.000474988
0.000241651
0.000366912
0.000442879
0.000916301
0.000427462
0.000600753
0.000576684
0.000472001
0.000470448
0.000357342
0.000256571
0.000361308
0.000321116
0.000137975
0.000481175
0.00232695
0.00124079
0.000960288
0.000727124
0.000600174
0.000730054
0.000639974
0.000529413
0.000799976
0.00102868
0.000572651
0.000676886
0.000365308
0.00041146
0.000523577
0.000271463
0.00048068
0.000743199
0.000739829
0.000928654
0.00103555
0.000796335
0.000622738
0.000829763
0.000770079
0.000559213
0.000559031
0.000434644
0.000327256
0.000381361
0.000421261
0.000484815
0.000414217
0.000779295
0.000657512
0.000609564
0.000569066
0.000600697
0.000475183
0.000290606
0.000256902
0.000178009
0.000361616
0.000407133
0.000295361
0.000257152
0.000205973
0.000116286
0.000243823
0.000319591
0.000199088
0.000188891
0.000363794
0.000301574
0.000188691
0.000303091
0.000181607
0.00199603
0.00219115
0.000463577
0.00216743
0.002047
0.000403805
0.000391437
0.000544251
0.00219034
0.00202204
0.000461402
0.000400667
0.000212629
0.000552793
0.000459962
0.00203585
0.000535802
0.000368078
0.000328952
0.000276015
0.000609473
0.000521916
0.00220628
0.000391627
0.000585213
0.000483583
0.000409691
0.000301935
0.000208657
0.000361929
0.00223841
0.000448008
0.000312106
0.000387293
0.000342322
0.000253983
0.000534758
0.000461583
0.000526918
0.00219166
0.000214498
0.000303967
0.000183613
0.000391996
0.00055693
0.000379903
0.000458815
0.000556934
0.00220071
0.000500414
0.000608885
0.000561486
0.000531403
0.000625633
0.000507941
0.000465192
0.00049044
0.000550691
0.00219635
0.000444926
0.000520873
0.000510836
0.00037411
0.000343338
0.000627778
0.00055483
0.000336586
0.000531202
0.000489899
0.00238286
0.000565364
0.000395065
0.000461146
0.000428565
0.000452113
0.000388224
0.000736986
0.000303164
0.000274613
0.000372191
0.00227129
0.000536105
0.000489822
0.000509084
0.000491037
0.00034776
7.59989e-05
0.000621904
0.000439063
0.000436735
0.000329585
0.000519535
0.00247555
0.000979586
0.00053613
0.000521009
0.000615276
0.000464217
0.00028655
0.000396358
0.000559336
0.000623192
0.000696573
0.000468881
0.000698586
0.00249748
0.000983677
0.000730902
0.000714642
0.00072612
0.000642603
0.000803759
0.000697667
0.000729238
0.000741797
0.000649334
0.000655352
0.000749653
0.000711586
0.00288972
0.000415535
0.000767507
0.000770708
0.000764348
0.000709573
0.000761962
0.000946314
0.000737747
0.00112362
0.000671524
0.000841505
0.000855746
0.000976418
0.000434411
0.00248725
0.00105837
0.00102351
0.000860593
0.000610785
0.00119891
0.000907497
0.00116136
0.000652673
0.00080056
0.000419933
0.000567203
0.000548236
0.000752417
0.000968455
0.00058063
0.00221531
0.000868449
0.00171924
0.000891056
0.000521474
0.000720187
0.000836472
0.00079947
0.000420447
0.000104862
0.000159948
0.00036817
0.00033644
0.00029804
0.000533117
0.000781048
0.000676421
0.00222394
0.000724594
0.000462013
0.000685096
0.000351038
0.000469896
0.000528719
0.00041643
0.000469723
0.000248251
0.000337641
0.00138243
0.000181598
0.000355143
0.000494328
0.000269707
0.000424909
0.000420349
0.00249877
0.00160554
0.00105685
0.00110984
0.000723321
0.000818035
0.000739456
0.000570749
0.00079675
0.00077593
0.00067352
0.000755181
0.000359579
0.000414204
0.000490396
0.000330725
0.000408049
0.000667972
0.000882217
0.000860399
0.000878956
0.00100733
0.000820275
0.000629991
0.000837655
0.00067906
0.000564314
0.000517708
0.000485564
0.000325914
0.000401234
0.000465314
0.000467688
0.000435495
0.00066536
0.000618651
0.000635332
0.000515636
0.000386801
0.000582815
0.000519242
0.000326686
0.00043485
0.000233536
0.000316239
0.00050391
0.000344698
0.000222487
0.000179866
0.000172525
0.000258125
0.000337008
0.000214846
0.00018691
0.000341307
0.000285827
0.000200491
0.000242384
0.000133645
0.000171684
0.00211904
0.00202349
0.000373797
0.00218933
0.00217366
0.000494834
0.000600164
0.000601617
0.00218353
0.00200894
0.000366793
0.000333543
0.000401131
0.000395332
0.000614885
0.00196096
0.000353527
0.000459224
0.000340268
0.000237969
0.000392291
0.000613288
0.00206087
0.000514421
0.000413421
0.000393308
0.000243006
0.000239035
0.000269101
0.000335377
0.00218683
0.000458804
0.00029078
0.000420587
0.000509601
0.000430747
0.000544885
0.000564747
0.000520515
0.00224424
0.000193968
0.00054091
0.00046216
0.000318791
0.000331478
0.000410747
0.000403573
0.000625081
0.000323451
0.00225287
0.000375748
0.000262727
0.000344607
0.000361244
0.000392638
0.000373432
0.000422584
0.000490494
0.000403569
0.00225434
0.00048554
0.000554366
0.000452135
0.000567995
0.000363471
0.000358099
0.000443462
0.000631374
0.000435484
0.000725203
0.00226475
0.000518497
0.000439987
0.000596608
0.000358473
0.000470878
0.000180772
0.000407174
0.000288756
0.00052081
0.00030709
0.000790362
0.00233303
0.00062342
0.000482969
0.00057903
0.00058496
0.000658791
0.000425815
0.000153419
0.000575379
0.000566755
0.000384917
0.000343055
0.00220684
0.000469812
0.00072254
0.000658135
0.000579691
0.00065083
0.00079082
0.000303978
0.00052087
0.000418412
0.000462552
0.000467483
0.000708108
0.00240164
0.000717009
0.000669195
0.000465506
0.000666356
0.000482017
0.0007465
0.000680457
0.000467665
0.000341057
0.000715151
0.000817288
0.000586915
0.000485616
0.00247364
0.000820844
0.000751423
0.000633579
0.00088439
0.00069496
0.000944596
0.000863338
0.000622246
0.00061924
0.00049992
0.000638044
0.000628799
0.000466032
0.000415633
0.00274572
0.000776913
0.000894079
0.000650396
0.000860066
0.000677764
0.00057846
0.000750788
0.000833487
0.000910584
0.000810505
0.000961176
0.000775399
0.000393533
0.000662149
0.000777062
0.00255846
0.00177
0.000556456
0.000834314
0.000546809
0.000511697
0.000879261
0.00126973
0.000854407
0.000564585
0.000489275
0.000615442
0.000585206
0.000461401
0.00107774
0.000666919
0.000446077
0.00226868
0.00112412
0.00164885
0.00114885
0.000558166
0.00072411
0.000699591
0.000322354
0.00040992
0.000381553
0.000549697
0.000425709
0.000234241
0.000189533
0.00063641
0.000386256
0.000578139
0.000695105
0.00214763
0.000856399
0.000484436
0.000172044
0.00026659
0.000415025
0.000534371
0.000219854
0.000294839
0.000635665
0.000480242
0.000436676
0.000687529
0.000207333
0.000460143
0.000585692
0.000490614
0.000337259
0.000505687
0.00205789
0.00173023
0.00109117
0.00116219
0.000766507
0.000935518
0.000761676
0.000557565
0.000998069
0.000753606
0.000669898
0.000383068
0.000431937
0.00043154
0.000344121
0.000259882
0.000440034
0.000877805
0.000963144
0.00085076
0.00108728
0.000860804
0.00100642
0.000789908
0.000643949
0.000817693
0.000674312
0.000538681
0.000595973
0.000483456
0.000329099
0.000430646
0.000558049
0.000449813
0.000422211
0.000448415
0.000642434
0.000604472
0.000517381
0.000389843
0.000322021
0.000554088
0.000545037
0.000307185
0.000469788
0.000335618
0.00027779
0.000531364
0.000311719
0.000175061
0.000163199
0.000172059
0.000228854
0.000397737
0.000258446
0.000201966
0.000419055
0.000246406
0.000175512
0.000278141
0.000135039
0.000139452
0.000167438
0.00193397
0.00211872
0.000373426
0.00222522
0.00213108
0.000354401
0.000215819
0.00040882
0.00216659
0.00214684
0.000391729
0.000428403
0.000410526
0.000647024
0.000411264
0.00205235
0.000314158
0.00030756
0.000191898
0.000165413
0.000417839
0.000421312
0.00197043
0.000327263
0.000442924
0.000353908
0.000332119
0.000295614
0.000280239
0.000500151
0.00208521
0.000325537
0.000361982
0.000432969
0.00036896
0.000258523
0.0005522
0.000320262
0.000400513
0.00206574
0.000311608
0.000243918
0.000467923
0.000519832
0.000289313
0.00031472
0.00027676
0.000538753
0.000685037
0.00219455
0.000546342
0.000552852
0.000432756
0.000439089
0.000480001
0.000276791
0.000286384
0.000498664
0.000437338
0.000381131
0.00225685
0.000500954
0.00034138
0.000446673
0.000296965
0.000220005
0.000383321
0.000281677
0.000521643
0.000576689
0.000498071
0.00220803
0.000325692
0.00044624
0.000363381
0.000355821
0.000261748
0.000357127
0.000216998
0.000593299
0.000689394
0.000298611
0.000490839
0.00225606
0.000551033
0.000479285
0.000639751
0.000712046
0.000471878
0.00052959
0.000323703
0.000738582
0.00043479
0.00046995
0.000338527
0.000548161
0.00238358
0.000558404
0.000203239
0.000449591
0.000672896
0.000500468
0.000683308
0.000402167
0.000534465
0.000439029
0.000531588
0.000351082
0.000337248
0.002197
0.000522207
0.000355904
0.000456969
0.00050552
0.000766204
0.000838303
0.000519968
0.00031312
0.000308306
0.000484033
0.000476626
0.000534875
0.000329187
0.00244302
0.000953213
0.000459113
0.000575511
0.000335223
0.000454135
0.000471954
0.000753907
0.000588998
0.000481854
0.000388438
0.000714369
0.000710346
0.000330174
0.000469023
0.00263201
0.00120046
0.000619814
0.000726263
0.000620137
0.000774827
0.000620342
0.000649155
0.000527623
0.000520031
0.000429243
0.000487448
0.000550159
0.000414108
0.00033179
0.000427167
0.00312394
0.00139744
0.00062848
0.000782409
0.000592092
0.000938006
0.00059256
0.000526732
0.000846026
0.000463607
0.000636442
0.000508578
0.000650531
0.000604516
0.000879334
0.000750171
0.000498103
0.00244769
0.00175705
0.00105003
0.000436348
0.000558159
0.000605206
0.000728217
0.000508156
0.00150197
0.000756994
0.000391116
0.000369368
0.000395201
0.000523517
0.000535223
0.000591737
0.000446185
0.000695967
0.00315717
0.00109947
0.000950501
0.000959722
0.000607841
0.000815891
0.000850723
0.000468284
0.000450035
0.000417845
0.000568299
0.000384642
0.000301112
0.000539441
0.00051545
0.000526351
0.000489736
0.000673373
0.000310758
0.00212814
0.000967588
0.000275029
0.000637636
0.000398542
0.000483484
0.000515344
0.000254357
0.000415012
0.000693632
0.000650043
0.000348114
0.000622551
0.000260291
0.00015912
0.000346703
0.000303978
0.000293987
0.000720772
0.000820793
0.00213986
0.00169977
0.0011451
0.000921167
0.000673607
0.000945377
0.000841142
0.00068349
0.000715214
0.000714561
0.000755814
0.000565973
0.000419422
0.000291216
0.00039935
0.000332141
0.000385054
0.000690805
0.000817005
0.000755529
0.000611109
0.001208
0.00087336
0.00098062
0.000713553
0.000665029
0.00079708
0.000612753
0.000520801
0.000578061
0.000485138
0.000359957
0.000470648
0.000562748
0.000469561
0.000463894
0.000531798
0.000636788
0.000593057
0.000484688
0.000382617
0.000209216
0.000554287
0.000533017
0.000555128
0.000305259
0.000491433
0.000410949
0.000216323
0.000492743
0.000293954
0.000121032
0.000135226
0.000167294
0.000153286
0.000229898
0.000265804
0.000214519
0.000427065
0.00018857
0.000164119
0.000332819
0.000142051
9.42204e-05
0.000135377
0.000254028
0.00193899
0.00198143
0.000674985
0.00207355
0.00205795
0.000368681
0.000356719
0.000391426
0.00209357
0.00218277
0.000471679
0.000205534
0.000248119
0.000270327
0.000424293
0.00207345
0.000525404
0.000358759
0.000389981
0.000100724
0.000332065
0.000626097
0.0020902
0.000230873
0.000377199
0.000146086
0.000158514
0.000295872
0.000309526
0.000797225
0.00202909
0.00036762
0.000281632
0.000342806
0.000480012
0.00039186
0.000337431
0.000325055
0.000262929
0.00211414
0.000321671
0.000354415
0.000370128
0.000591804
0.000571292
0.00022111
0.0003429
0.000558198
0.000602001
0.00211009
0.000266448
0.000468636
0.000230777
0.000679935
0.000500464
0.000234583
0.000352197
0.000526659
0.000387299
0.000638911
0.0021478
0.000252369
0.000335184
0.000478089
0.000443297
0.000270409
0.000361532
0.000322167
0.00045232
0.000325173
0.000347511
0.000536084
0.00217307
0.000310295
0.000456065
0.000340413
0.000348923
0.000217583
0.000436457
0.000433219
0.000251011
0.000454756
0.00046463
0.00037621
0.00222092
0.00037143
0.00048216
0.000271545
0.000296067
0.000498261
0.000468036
0.000611776
0.000316066
0.000496164
0.00065843
0.000550117
0.000670665
0.00236405
0.00047157
0.000612943
0.0004503
0.000427416
0.00041795
0.000553144
0.000637248
0.000343642
0.000318797
0.000575748
0.000631681
0.000841249
0.000426406
0.0024143