/*--------------------------------*- C++ -*----------------------------------*\
  =========                 |
  \\      /  F ield         | OpenFOAM: The Open Source CFD Toolbox
   \\    /   O peration     | Website:  https://openfoam.org
    \\  /    A nd           | Version:  7
     \\/     M anipulation  |
\*---------------------------------------------------------------------------*/
FoamFile
{
    version     2.0;
    format      ascii;
    class       volScalarField;
    location    "7";
    object      p;
}
// * * * * * * * * * * * * * * * * * * * * * * * * * * * * * * * * * * * * * //

dimensions      [0 2 -2 0 0 0 0];

internalField   nonuniform List<scalar> 
18750
(
-59.934
-63.8759
-59.9447
-62.2625
-65.2222
-63.758
-63.2099
-60.0827
-62.3581
-63.6471
-67.7722
-66.4047
-60.9089
-63.5772
-63.3256
-63.3584
-60.3102
-62.4948
-63.6364
-63.4646
-58.7133
-69.4925
-65.4361
-66.9098
-64.0422
-65.0613
-63.4216
-63.5386
-63.4549
-63.6884
-60.5729
-62.7553
-63.5639
-63.4791
-63.3489
-48.4896
-58.6058
-59.0718
-68.9743
-66.6612
-65.6795
-67.409
-66.1393
-65.4948
-64.582
-63.2914
-63.7066
-63.5454
-63.7185
-64.1623
-60.8205
-63.053
-63.4677
-63.4956
-63.3979
-63.5996
-48.1603
-48.9821
-50.1357
-59.2573
-59.8697
-60.6434
-68.5115
-68.1065
-66.0232
-64.8318
-67.762
-67.138
-65.8852
-64.9136
-64.6688
-63.1545
-63.8713
-63.6392
-63.7474
-64.2009
-63.4383
-61.0191
-63.3579
-63.3703
-63.5136
-63.4484
-63.6077
-63.8344
-47.3573
-48.5091
-48.8248
-50.3375
-50.5446
-52.4627
-59.3143
-60.3404
-60.3389
-60.5943
-68.1112
-69.026
-66.687
-65.2762
-63.1094
-67.6812
-67.537
-66.328
-65.3138
-64.7101
-64.5745
-63.0153
-64.045
-63.6833
-63.7748
-64.2305
-63.4352
-63.1836
-61.1456
-63.5877
-63.301
-63.5205
-63.5034
-63.61
-63.8721
-64.5758
-46.7574
-47.5966
-47.7322
-48.8723
-49.2359
-49.6744
-51.2374
-50.3998
-53.0718
-54.2753
-58.8418
-60.5352
-59.6123
-60.4368
-60.4676
-67.2763
-68.7623
-67.2931
-65.7193
-63.2403
-63.8849
-67.4705
-67.7718
-66.7741
-65.5818
-64.7344
-64.6389
-63.4289
-62.8421
-64.1277
-63.7143
-63.7684
-64.2448
-63.4243
-63.2439
-64.2725
-61.2049
-63.6761
-63.3195
-63.5436
-63.5537
-63.6108
-63.9047
-64.6158
-65.0895
-45.845
-46.5832
-46.8385
-47.6045
-47.775
-48.3065
-49.0186
-49.2954
-49.7855
-50.5113
-51.4448
-50.3895
-52.9987
-53.8252
-54.7326
-58.72
-61.2531
-59.2289
-60.5386
-60.3472
-60.0716
-66.3958
-68.3518
-67.613
-65.6787
-63.211
-63.3946
-63.9404
-67.0085
-67.819
-66.9854
-65.7539
-64.8914
-64.485
-63.4689
-63.1847
-62.6159
-64.1346
-63.7413
-63.7623
-64.2333
-63.4141
-63.2993
-64.3173
-65.2933
-61.2327
-63.6968
-63.3825
-63.5543
-63.5858
-63.6093
-63.9331
-64.6511
-65.1074
-65.5389
-44.7438
-45.8749
-45.8529
-46.4382
-46.7658
-46.905
-47.4772
-47.6479
-48.2355
-48.5142
-48.9954
-49.3045
-49.91
-50.2876
-50.59
-51.4562
-50.8171
-52.8547
-53.526
-54.6128
-54.838
-58.0097
-60.5104
-58.7994
-59.8365
-59.9399
-59.8074
-60.0386
-65.3309
-67.5159
-67.7128
-65.6688
-63.2527
-63.468
-64.1243
-64.0222
-66.3808
-67.6939
-67.1441
-65.9014
-64.9322
-64.0167
-63.4673
-63.2726
-63.8486
-62.3703
-64.0647
-63.7138
-63.739
-64.2074
-63.3992
-63.3574
-64.3576
-65.2884
-66.0446
-61.263
-63.695
-63.4669
-63.5378
-63.6046
-63.6108
-63.9546
-64.6851
-65.12
-65.5467
-65.8904
-44.3011
-44.7449
-44.7746
-45.8139
-45.8458
-45.8965
-46.495
-46.6681
-46.813
-47.0163
-47.474
-47.5835
-48.1546
-48.4544
-48.8625
-49.026
-49.4206
-49.8481
-49.9105
-50.461
-51.2442
-51.6004
-50.7274
-52.8413
-53.8476
-54.5624
-55.0462
-55.4055
-57.3193
-59.4311
-58.4805
-59.3338
-59.6284
-59.6165
-59.7248
-60.1366
-64.1002
-66.3535
-67.4532
-65.7358
-63.1946
-63.6067
-64.1267
-64.1508
-64.1325
-65.6224
-67.4711
-66.8294
-66.0269
-64.8545
-64.0837
-63.4156
-63.3624
-63.8807
-64.8128
-62.1072
-63.9461
-63.6738
-63.711
-64.1842
-63.3726
-63.4198
-64.3862
-65.2872
-66.0551
-66.6506
-61.307
-63.6719
-63.5554
-63.5421
-63.6149
-63.6172
-63.9708
-64.7168
-65.1309
-65.5531
-65.8863
-66.2765
-43.8326
-44.2726
-44.2812
-44.311
-44.7751
-44.927
-45.0029
-45.7502
-45.8285
-45.9785
-45.9444
-46.3941
-46.6578
-46.8356
-46.9638
-47.2086
-47.4281
-47.6696
-48.0765
-48.2962
-48.7595
-49.3866
-48.9745
-49.354
-49.5169
-50.0429
-50.3797
-51.0318
-51.5129
-51.5201
-51.6273
-52.7094
-53.9961
-54.7122
-55.0789
-55.2913
-55.6033
-56.8811
-59.3533
-58.445
-58.9309
-59.6137
-59.315
-59.6954
-60.0957
-60.5175
-62.6631
-65.4519
-66.7542
-65.3958
-63.1238
-63.5144
-64.0322
-64.2528
-64.1614
-64.1051
-64.7748
-66.7856
-66.6194
-66.0589
-65.2155
-64.0625
-63.3585
-63.3406
-63.8887
-64.7933
-65.7555
-61.8431
-63.8004
-63.6322
-63.6905
-64.1493
-63.3444
-63.4536
-64.4257
-65.2798
-66.0514
-66.6577
-67.6362
-61.3645
-63.6622
-63.6541
-63.5613
-63.6187
-63.6218
-63.9794
-64.7436
-65.1406
-65.5576
-65.879
-66.2688
-66.3427
-43.502
-43.8343
-43.8511
-43.863
-44.2805
-44.2467
-44.3655
-44.1248
-44.8484
-44.9274
-44.9446
-44.9365
-45.7911
-45.8661
-45.8449
-45.9622
-46.0125
-46.3172
-46.8228
-46.7393
-46.9013
-47.1248
-47.4862
-47.3618
-47.7441
-47.8712
-48.1264
-48.6095
-48.9689
-49.2485
-48.6982
-49.5072
-49.2402
-49.8057
-50.5349
-50.7538
-51.4205
-51.6336
-51.6322
-52.3559
-52.73
-53.8022
-54.9625
-55.0966
-55.2752
-55.5646
-55.7726
-56.8743
-59.3463
-58.4066
-58.7627
-59.3582
-59.267
-59.4554
-60.0364
-60.4298
-60.5351
-61.5961
-64.8983
-66.0392
-65.2117
-63.7776
-63.7695
-63.9976
-64.1795
-64.176
-64.1312
-64.3237
-63.9577
-65.818
-66.3443
-66.0168
-65.4044
-63.9081
-63.241
-63.5067
-63.8781
-64.7713
-65.6982
-66.8855
-61.5772
-63.6274
-63.5932
-63.6616
-64.0948
-63.3077
-63.4498
-64.4443
-65.2873
-66.0462
-66.6638
-67.6327
-67.8331
-61.432
-63.6865
-63.7431
-63.5295
-63.6197
-63.6274
-63.9845
-64.7646
-65.1489
-65.5608
-65.8676
-66.2626
-66.3012
-66.2372
-43.2222
-43.4935
-43.5099
-43.5115
-43.8422
-43.8449
-43.8863
-43.8474
-44.3039
-44.1842
-44.2764
-44.292
-44.2642
-44.9265
-44.9195
-44.9051
-44.9518
-45.02
-45.8013
-45.8718
-45.8598
-45.8523
-46.0941
-46.2289
-46.2176
-46.6326
-46.6024
-46.814
-47.1537
-47.3248
-47.7148
-47.2515
-47.6996
-47.9023
-48.1425
-48.5723
-48.7842
-49.3129
-49.7524
-48.5492
-49.6945
-49.5696
-49.8276
-50.4815
-51.0935
-51.219
-51.6831
-52.1673
-51.7967
-52.5034
-52.8721
-53.78
-55.069
-54.9036
-55.2887
-55.4635
-55.7258
-56.2468
-56.5392
-59.0738
-58.2093
-58.3278
-58.4445
-59.5283
-59.2754
-59.8579
-60.2415
-60.5095
-60.6933
-61.0974
-64.3184
-65.348
-65.0921
-63.9727
-63.8513
-63.9638
-64.0809
-64.0217
-64.0605
-64.2585
-64.5585
-63.033
-64.976
-65.7403
-65.7063
-65.4911
-64.0858
-63.1178
-63.5222
-63.9059
-64.7407
-65.6503
-66.8046
-67.0243
-61.3054
-63.4312
-63.5343
-63.613
-64.0388
-63.2649
-63.4947
-64.4535
-65.2847
-66.0362
-66.6656
-67.6073
-67.7282
-67.456
-61.5072
-63.6137
-63.7859
-63.4716
-63.6212
-63.6379
-63.995
-64.7773
-65.1572
-65.5617
-65.8552
-66.2339
-66.219
-66.1943
-66.2865
-42.9946
-43.2382
-43.2405
-43.2416
-43.5054
-43.521
-43.4563
-43.5206
-43.8533
-43.8339
-43.8896
-43.9322
-43.888
-44.333
-44.2875
-44.2855
-44.4119
-44.4566
-44.2811
-44.8499
-45.0144
-44.911
-45.0051
-45.1572
-45.352
-45.7893
-45.8585
-45.8573
-45.9448
-46.1587
-46.1963
-46.5017
-46.1904
-46.5565
-46.6324
-46.8832
-47.1776
-47.4796
-47.6519
-48.1196
-47.3176
-47.6652
-47.9723
-48.0395
-48.5177
-48.7187
-49.1241
-49.6079
-50.1251
-48.8437
-49.7425
-49.6903
-50.0314
-50.4457
-50.9949
-51.4532
-51.5877
-52.2019
-52.6522
-51.6753
-52.6755
-52.9274
-53.7633
-54.4461
-54.6952
-55.4076
-55.3971
-55.651
-56.1436
-56.2797
-55.4193
-58.6966
-58.0284
-58.1158
-58.2862
-59.55
-59.2278
-59.6451
-60.151
-60.2466
-60.8166
-60.7495
-60.283
-63.8067
-64.5962
-64.8014
-64.8029
-64.4202
-63.8068
-64.036
-63.9097
-63.9365
-64.1357
-64.3712
-64.4959
-62.0762
-64.0621
-65.2503
-65.2782
-65.2704
-64.2479
-63.3247
-63.227
-63.8519
-64.753
-65.5931
-66.7039
-66.8152
-66.5806
-61.0832
-63.2185
-63.4605
-63.5404
-63.978
-63.2255
-63.5587
-64.4809
-65.2663
-66.0169
-66.6657
-67.572
-67.6184
-67.3348
-67.9457
-61.5937
-63.4993
-63.7917
-63.4478
-63.6145
-63.6534
-64.0119
-64.784
-65.1656
-65.5612
-65.843
-66.1796
-66.1281
-66.1264
-66.2183
-65.906
-42.7727
-42.9951
-42.9546
-42.9987
-43.2478
-43.2075
-43.222
-43.2728
-43.2567
-43.5304
-43.4896
-43.4455
-43.5056
-43.5095
-43.9263
-43.8636
-43.8686
-43.9372
-44.0696
-43.7556
-44.3604
-44.3287
-44.266
-44.3811
-44.4914
-44.5341
-44.4034
-44.8151
-44.9794
-44.933
-44.9814
-45.1192
-45.2531
-45.5525
-45.8363
-45.7806
-45.9209
-45.7283
-46.1175
-46.2336
-46.5253
-46.7157
-46.2399
-46.497
-46.6395
-46.8111
-47.1955
-47.4178
-47.7166
-48.0182
-48.2983
-47.4857
-47.6616
-47.8912
-48.0351
-48.4936
-48.8136
-49.2104
-49.5098
-49.9992
-50.4316
-48.505
-49.7138
-49.834
-50.1732
-50.6009
-50.8789
-51.2729
-51.628
-52.1251
-52.4544
-52.9446
-51.3762
-52.7438
-52.9321
-53.7279
-54.5242
-55.134
-54.9396
-55.356
-55.6898
-56.0057
-56.252
-56.2075
-54.765
-57.8581
-57.909
-58.1759
-57.5675
-58.9535
-59.7739
-59.6651
-60.2237
-60.1782
-60.6405
-60.6663
-60.434
-59.5838
-62.4892
-64.1808
-64.5962
-64.8421
-64.7306
-63.9475
-63.9225
-63.9944
-63.8157
-63.9913
-64.2177
-64.2319
-63.7844
-61.319
-63.0478
-64.4666
-64.9054
-64.9574
-64.0778
-63.3681
-63.3154
-64.0282
-64.7427
-65.5566
-66.6171
-66.5759
-66.3401
-66.5567
-60.9172
-63.0274
-63.3684
-63.4955
-63.9224
-63.204
-63.6257
-64.4876
-65.253
-66.0006
-66.6594
-67.5352
-67.4673
-67.1823
-67.7343
-67.4006
-61.6924
-63.4691
-63.7636
-63.436
-63.6017
-63.679
-64.0353
-64.7922
-65.1736
-65.5606
-65.8292
-66.119
-66.0341
-66.0502
-66.1349
-65.7848
-65.4151
-42.6027
-42.7682
-42.7815
-42.7802
-42.9849
-42.9574
-42.9944
-42.996
-43.0124
-43.2843
-43.2144
-43.2336
-43.2307
-43.1894
-43.2465
-43.6023
-43.4921
-43.4906
-43.5469
-43.6271
-43.5062
-43.9313
-43.8817
-43.9115
-43.918
-44.0284
-43.9839
-43.8602
-44.4242
-44.3132
-44.3988
-44.2817
-44.4473
-44.5338
-44.6628
-44.5747
-44.9221
-45.0347
-44.9859
-45.0075
-45.1151
-45.2786
-45.5213
-45.6429
-45.7943
-45.7803
-45.9175
-45.8798
-45.9539
-46.3016
-46.5044
-46.7495
-46.9365
-46.2212
-46.5895
-46.5991
-46.8468
-47.0057
-47.4452
-47.7531
-47.9938
-48.294
-48.4931
-47.061
-47.638
-47.9249
-48.0678
-48.5328
-48.9528
-49.0267
-49.5547
-49.9667
-50.1689
-50.4729
-48.4395
-49.6975
-49.9288
-50.2507
-50.5925
-50.9175
-51.0972
-51.7061
-51.9812
-52.6123
-52.4834
-52.8691
-51.9385
-52.4854
-52.7613
-53.6995
-54.1437
-55.0327
-55.2819
-55.2337
-55.5544
-55.8326
-56.2891
-56.0518
-56.1248
-55.1187
-57.2933
-57.5871
-58.138
-58.5553
-58.9172
-60.008
-59.8649
-60.1852
-60.1157
-60.2788
-60.5906
-60.2097
-59.4634
-58.931
-61.2268
-63.3989
-64.3414
-64.0893
-64.4339
-64.1604
-63.9747
-63.8626
-63.7076
-63.7819
-64.0527
-63.8857
-63.5031
-63.1932
-60.5789
-62.2153
-63.6311
-64.453
-64.5486
-63.8356
-63.2694
-63.4196
-64.2072
-64.7707
-65.5352
-66.4931
-66.3286
-66.0876
-66.2415
-66.1693
-60.7708
-62.8846
-63.292
-63.4797
-63.848
-63.1848
-63.7127
-64.5172
-65.252
-65.9702
-66.6457
-67.474
-67.3096
-67.018
-67.5238
-67.1164
-65.6751
-61.8033
-63.4488
-63.7065
-63.4308
-63.5931
-63.7158
-64.0588
-64.8026
-65.1807
-65.5589
-65.8131
-66.0561
-65.9358
-65.9931
-66.0378
-65.6484
-65.3292
-65.1298
-42.5239
-42.6063
-42.6485
-42.6262
-42.7781
-42.81
-42.8276
-42.7856
-42.8141
-43.0327
-42.9674
-43.0443
-42.953
-42.9621
-43.0552
-43.3222
-43.2611
-43.2884
-43.3145
-43.3309
-43.2319
-43.23
-43.5944
-43.594
-43.607
-43.6125
-43.588
-43.6893
-43.5594
-43.9626
-43.9912
-43.959
-43.9949
-44.032
-44.1285
-44.1134
-43.9873
-44.4905
-44.4586
-44.4574
-44.5001
-44.4146
-44.6738
-44.7567
-44.8564
-44.6885
-44.923
-45.1233
-44.9783
-45.1526
-45.0323
-45.2548
-45.5266
-45.7394
-45.9555
-45.681
-45.7729
-45.886
-45.9127
-45.9546
-46.2483
-46.439
-46.7785
-46.9478
-47.0393
-46.0471
-46.5517
-46.6665
-46.8699
-46.981
-47.2997
-47.5701
-47.9841
-48.2942
-48.489
-48.6028
-47.2505
-47.6226
-47.9415
-48.182
-48.4618
-48.873
-49.2464
-49.359
-49.8482
-50.218
-50.36
-50.4342
-48.8047
-49.5435
-50.0702
-50.4498
-50.6811
-51.0375
-51.3648
-51.6043
-51.9404
-52.4956
-52.4537
-52.924
-53.0277
-51.8837
-52.5392
-52.7167
-53.6092
-53.9215
-54.8853
-55.231
-55.1994
-55.1017
-55.6477
-56.0614
-55.9825
-56.0435
-56.0933
-54.5571
-56.8531
-57.2931
-57.8739
-58.725
-58.5783
-60.2346
-59.976
-59.8616
-59.9526
-60.1436
-60.2928
-60.0385
-59.3097
-59.0153
-58.4505
-60.4294
-62.515
-63.5421
-63.4747
-64.3459
-64.0387
-63.7263
-63.8029
-63.5577
-63.5798
-63.8288
-63.591
-63.1957
-62.9687
-62.5344
-59.8516
-61.5775
-63.0562
-63.9269
-64.1463
-63.4625
-63.1143
-63.4177
-63.8576
-64.7821
-65.5208
-66.3495
-66.0841
-65.8137
-65.9281
-65.7439
-64.5706
-60.6653
-62.7803
-63.2668
-63.4212
-63.7654
-63.1734
-63.8063
-64.5576
-65.2322
-65.9311
-66.6302
-67.3901
-67.1524
-66.8527
-67.3074
-66.8299
-65.4333
-64.8434
-61.9258
-63.4054
-63.7057
-63.4456
-63.5829
-63.7573
-64.0933
-64.8136
-65.1894
-65.5547
-65.7956
-65.9874
-65.83
-65.9343
-65.9312
-65.4975
-65.2366
-65.0928
-65.0435
-42.2781
-42.526
-42.5195
-42.4719
-42.6474
-42.616
-42.6972
-42.6142
-42.6294
-42.8374
-42.7738
-42.8392
-42.7789
-42.8043
-42.8466
-43.0695
-43.0215
-43.0461
-42.9947
-43.1094
-43.0183
-42.956
-43.3465
-43.3591
-43.3564
-43.3239
-43.3569
-43.3572
-43.3134
-43.2557
-43.641
-43.6659
-43.6492
-43.6419
-43.628
-43.6309
-43.7449
-43.6539
-44.0243
-44.0439
-44.0077
-44.0423
-44.0564
-44.1268
-44.2292
-44.3192
-44.1141
-44.5313
-44.4798
-44.4988
-44.5328
-44.5697
-44.6348
-44.7953
-44.971
-45.0885
-44.8547
-44.9958
-45.1227
-45.0867
-45.1276
-45.3012
-45.3825
-45.4789
-45.7229
-45.9024
-46.0619
-45.6691
-45.7456
-45.9763
-45.9033
-46.1018
-46.1933
-46.2921
-46.6828
-46.9503
-47.1296
-47.2347
-46.3707
-46.4754
-46.7675
-46.822
-47.0223
-47.2935
-47.5345
-47.8108
-48.2498
-48.5075
-48.7363
-48.9015
-47.4982
-47.703
-48.1415
-48.2176
-48.4694
-48.8891
-49.2895
-49.5844
-49.8383
-50.1064
-50.2471
-50.5561
-50.7103
-48.8075
-49.3591
-50.0428
-50.6072
-50.7469
-51.0878
-51.204
-51.7089
-51.8304
-52.3687
-52.9024
-52.8241
-53.1046
-53.2276
-51.398
-52.6638
-52.5858
-53.3583
-54.1755
-54.6953
-55.2879
-55.1327
-55.3092
-55.5645
-55.8972
-55.9685
-55.949
-56.0066
-55.8185
-53.9197
-56.7678
-56.9746
-57.6896
-58.4556
-58.2464
-59.6682
-60.1216
-59.8578
-59.8051
-60.0104
-60.2452
-59.8179
-59.1834
-58.8079
-58.7787
-58.1353
-59.6217
-61.7822
-63.0169
-63.0606
-64.0574
-63.7918
-63.5197
-63.5739
-63.3774
-63.4033
-63.7367
-63.3125
-62.9064
-62.7414
-62.2882
-61.7013
-59.2394
-60.9454
-62.3289
-63.7317
-63.7271
-63.0555
-62.9486
-63.4667
-63.9098
-64.6713
-65.5413
-66.1748
-65.8316
-65.5519
-65.6033
-65.2903
-64.1937
-63.5051
-60.6514
-62.7359
-63.2533
-63.3952
-63.6816
-63.179
-63.9115
-64.6013
-65.2141
-65.8972
-66.6105
-67.2815
-66.996
-66.6757
-67.0843
-66.5518
-65.1923
-64.7136
-64.3571
-62.0554
-63.3991
-63.7528
-63.4597
-63.5748
-63.802
-64.132
-64.8316
-65.1967
-65.5497
-65.7763
-65.9064
-65.7105
-65.8534
-65.8209
-65.3992
-65.14
-65.0989
-65.03
-64.9821
-42.3058
-42.3216
-42.2906
-42.2699
-42.5489
-42.5303
-42.5596
-42.4755
-42.4458
-42.6767
-42.6087
-42.6612
-42.6686
-42.5918
-42.6439
-42.8438
-42.8273
-42.8339
-42.8609
-42.8968
-42.7614
-42.8668
-43.0608
-43.0671
-43.0328
-43.0241
-43.0947
-43.1078
-43.0999
-43.0236
-43.3235
-43.3281
-43.3312
-43.3423
-43.3056
-43.4035
-43.413
-43.3799
-43.2777
-43.674
-43.6778
-43.6687
-43.6312
-43.6859
-43.6353
-43.775
-43.8799
-43.6908
-44.066
-44.0422
-44.0004
-44.0565
-44.1729
-44.1209
-44.2124
-44.3446
-44.4038
-44.2535
-44.5766
-44.4148
-44.468
-44.4888
-44.6583
-44.7304
-44.6932
-44.8845
-45.0842
-45.238
-45.1729
-45.0596
-45.161
-45.1649
-45.1405
-45.3357
-45.4171
-45.4903
-45.5655
-45.9617
-46.0967
-46.2517
-45.6668
-45.788
-46.006
-45.9175
-46.1186
-46.3469
-46.5612
-46.6553
-46.9139
-47.0829
-47.2849
-47.4114
-46.3954
-46.5276
-46.6902
-46.887
-47.0778
-47.3174
-47.61
-47.8219
-48.073
-48.3185
-48.6514
-48.7916
-48.9633
-47.5379
-47.6605
-48.124
-48.2296
-48.4817
-48.8951
-49.2472
-49.6076
-49.8273
-49.9728
-50.1769
-50.4385
-50.5756
-50.7717
-48.8174
-49.4739
-49.9283
-50.5206
-51.0012
-51.1131
-51.3593
-51.6461
-52.113
-52.218
-52.7796
-52.8373
-52.9497
-53.0977
-53.3243
-51.5606
-53.3703
-52.4887
-53.253
-54.09
-54.2662
-55.0667
-55.2813
-55.2973
-55.2345
-55.709
-55.9157
-55.7472
-55.7155
-55.575
-55.6569
-54.486
-56.7905
-56.188
-57.5958
-58.2033
-58.4403
-59.3269
-59.7343
-59.9472
-59.6694
-59.9086
-60.1212
-59.6601
-59.0547
-58.55
-58.5052
-58.44
-57.9345
-58.912
-60.8138
-62.47
-62.7501
-63.2597
-63.2264
-63.2711
-63.2543
-63.1929
-63.2301
-63.4336
-63.0693
-62.6036
-62.5116
-61.9224
-61.5509
-61.2007
-58.8578
-60.4496
-61.6108
-63.4105
-63.3524
-62.6357
-62.7209
-63.5571
-64.0414
-64.7258
-65.5058
-65.9555
-65.5704
-65.2782
-65.2467
-64.8548
-63.858
-63.2739
-62.6936
-60.6892
-62.8043
-63.2506
-63.374
-63.6044
-63.1975
-64.0412
-64.6493
-65.2197
-65.8715
-66.5685
-67.1694
-66.8376
-66.4862
-66.8568
-66.2362
-64.968
-64.565
-64.3215
-64.8475
-62.1914
-63.428
-63.797
-63.485
-63.5724
-63.8346
-64.1844
-64.8504
-65.2072
-65.5452
-65.753
-65.8141
-65.5764
-65.757
-65.7111
-65.3442
-65.077
-65.0674
-65.0221
-64.9955
-65.101
-42.0952
-42.2949
-42.3224
-42.2797
-42.3533
-42.3456
-42.3091
-42.2124
-42.2747
-42.5566
-42.589
-42.5246
-42.4836
-42.5253
-42.4755
-42.6974
-42.6773
-42.6612
-42.6777
-42.7072
-42.5663
-42.6007
-42.8485
-42.8638
-42.8154
-42.8849
-42.8775
-42.9007
-42.901
-42.9161
-43.0647
-43.107
-43.0793
-43.0497
-43.0819
-43.0941
-43.1276
-43.0664
-43.0147
-43.3614
-43.3657
-43.3933
-43.3486
-43.3902
-43.4365
-43.4586
-43.5304
-43.4019
-43.366
-43.6963
-43.6235
-43.6223
-43.6751
-43.7061
-43.7914
-43.8103
-43.9075
-43.9748
-43.8464
-44.0314
-43.9596
-44.0377
-44.0749
-44.1587
-44.2416
-44.2639
-44.3454
-44.4271
-44.5942
-44.3924
-44.5535
-44.4793
-44.5694
-44.4846
-44.6231
-44.7415
-44.9308
-45.0297
-45.0845
-45.2756
-45.4167
-45.0982
-45.0703
-45.1607
-45.1541
-45.182
-45.236
-45.3597
-45.5666
-45.7535
-45.828
-46.0706
-46.2539
-46.4299
-45.7547
-45.8632
-45.9581
-45.9746
-46.0999
-46.2813
-46.4777
-46.7176
-46.7667
-47.0327
-47.1818
-47.3511
-47.4634
-46.4575
-46.5802
-46.7682
-46.9092
-47.1331
-47.3114
-47.4516
-47.7614
-48.0776
-48.3359
-48.4751
-48.7369
-48.8183
-49.1984
-47.6714
-47.7777
-48.1513
-48.2389
-48.5514
-48.894
-49.3065
-49.5449
-49.8076
-49.9446
-50.1397
-50.3229
-50.4723
-50.6562
-50.9387
-49.2728
-49.7147
-49.8706
-50.5264
-51.0345
-51.2251
-51.3207
-51.5926
-51.9291
-52.1608
-52.5525
-52.7415
-52.8677
-53.0807
-53.3116
-53.286
-52.2147
-53.1114
-52.7108
-53.0825
-53.745
-54.3261
-54.8759
-55.2055
-55.1736
-55.2434
-55.4862
-55.6358
-55.6728
-55.6915
-55.4033
-55.4535
-55.406
-54.853
-56.0457
-56.0505
-57.4781
-58.0743
-58.1983
-59.3041
-59.6535
-59.7392
-59.4813
-59.7175
-59.7333
-59.4543
-58.93
-58.3876
-58.3102
-58.2301
-58.0371
-58.1501
-58.5295
-60.0767
-61.9014
-62.2031
-62.6819
-62.5163
-62.8503
-62.9103
-62.8451
-63.007
-63.155
-62.7297
-62.3241
-62.1745
-61.4006
-61.1907
-60.8582
-60.6368
-58.8843
-60.1065
-61.2751
-62.7465
-62.9355
-62.2514
-62.5239
-63.5838
-64.0015
-64.8677
-65.4296
-65.8058
-65.3162
-64.9907
-64.9548
-64.4592
-63.502
-63.1203
-62.5973
-62.7983
-60.8268
-62.8732
-63.277
-63.2804
-63.5376
-63.2447
-64.1183
-64.7074
-65.2325
-65.8609
-66.5135
-67.0567
-66.6751
-66.2883
-66.6146
-65.8597
-64.7216
-64.4324
-64.311
-64.9165
-65.8634
-62.333
-63.4928
-63.8298
-63.523
-63.5775
-63.8584
-64.253
-64.8788
-65.2177
-65.5403
-65.725
-65.7609
-65.4375
-65.6469
-65.5894
-65.2797
-65.0146
-65.0421
-64.9989
-65.011
-65.1356
-64.5946
-41.9601
-42.1162
-42.2023
-42.1075
-42.2692
-42.2802
-42.2362
-42.2989
-42.2456
-42.3639
-42.3735
-42.3522
-42.4271
-42.2986
-42.2661
-42.5636
-42.6262
-42.5766
-42.509
-42.551
-42.4784
-42.431
-42.7124
-42.7209
-42.6862
-42.6903
-42.7041
-42.6971
-42.6783
-42.6214
-42.8757
-42.8518
-42.8929
-42.834
-42.8992
-42.9385
-42.9312
-42.9116
-42.8711
-43.1681
-43.1227
-43.1219
-43.0647
-43.1345
-43.1186
-43.2089
-43.2629
-43.138
-43.0757
-43.4399
-43.2901
-43.4015
-43.3949
-43.3959
-43.4523
-43.507
-43.5843
-43.5902
-43.5267
-43.3904
-43.6928
-43.7038
-43.7041
-43.7508
-43.7364
-43.8284
-43.8712
-43.9684
-43.9259
-44.0137
-43.8843
-44.0788
-44.0752
-44.1166
-44.0881
-44.1772
-44.2715
-44.3611
-44.4587
-44.4549
-44.5898
-44.7204
-44.4722
-44.6069
-44.5755
-44.5964
-44.5888
-44.5276
-44.7759
-44.8693
-45.0768
-45.0455
-45.2253
-45.4019
-45.5729
-45.2505
-45.1527
-45.2199
-45.2347
-45.2562
-45.2573
-45.3752
-45.4301
-45.716
-45.8362
-46.0538
-46.15
-46.4387
-46.594
-45.8352
-45.8623
-46.0447
-46.0305
-46.1918
-46.276
-46.4504
-46.6488
-46.8408
-47.0693
-47.2063
-47.2946
-47.5677
-47.7105
-46.5024
-46.6054
-46.8429
-47.038
-47.2429
-47.3702
-47.5212
-47.7246
-48.0415
-48.3202
-48.5441
-48.6791
-48.9324
-49.1493
-49.3327
-47.7932
-47.631
-48.2292
-48.3724
-48.5857
-48.8213
-49.383
-49.5581
-49.7949
-50.1526
-50.1714
-50.2491
-50.4567
-50.6949
-50.8979
-51.0947
-49.171
-49.7842
-50.1701
-50.6245
-51.0928
-51.2073
-51.4956
-51.5969
-51.7837
-52.1915
-52.5059
-52.6731
-52.7525
-52.9816
-53.3946
-53.3774
-53.1988
-52.0341
-52.6319
-53.0191
-53.1443
-53.6344
-54.1838
-54.778
-55.2481
-55.1143
-55.1932
-55.4346
-55.5554
-55.5484
-55.4588
-55.2915
-55.4286
-55.3291
-55.4762
-54.9248
-55.6258
-55.8658
-57.5355
-58.0087
-58.0609
-58.844
-59.4147
-59.4096
-59.2448
-59.3785
-59.6377
-59.2251
-58.7435
-58.3467
-58.1013
-58.0082
-57.9123
-58.1669
-58.4478
-58.3435
-59.7751
-61.3848
-61.7845
-62.162
-62.0342
-62.4819
-62.5442
-62.6291
-62.6053
-62.7757
-62.459
-62.048
-61.8753
-61.1322
-60.828
-60.5352
-60.4981
-60.6232
-59.1155
-60.0454
-61.0626
-62.0867
-62.6025
-61.8731
-62.365
-63.4454
-63.9366
-64.8853
-65.383
-65.5676
-65.0996
-64.6995
-64.6419
-64.062
-63.2341
-62.8844
-62.5212
-62.9193
-65.4109
-61.1235
-62.9737
-63.3315
-63.2818
-63.4765
-63.2993
-64.1933
-64.7648
-65.2646
-65.8534
-66.476
-66.9116
-66.5184
-66.0862
-66.363
-65.4704
-64.4907
-64.3365
-64.2737
-64.9747
-66.0834
-65.2576
-62.4733
-63.5858
-63.8334
-63.5617
-63.5925
-63.882
-64.3203
-64.8998
-65.2315
-65.5338
-65.6936
-65.7423
-65.3722
-65.5374
-65.4854
-65.2115
-64.9191
-65.0572
-64.996
-65.0272
-65.1681
-64.596
-64.0057
-41.9343
-41.9754
-41.926
-41.9492
-42.1539
-42.1256
-42.1273
-42.2544
-42.1199
-42.3182
-42.2659
-42.2803
-42.3242
-42.2996
-42.1845
-42.4129
-42.3341
-42.4042
-42.4654
-42.4147
-42.3476
-42.2536
-42.6073
-42.6015
-42.6026
-42.6013
-42.5758
-42.5477
-42.5235
-42.4289
-42.7137
-42.7079
-42.7388
-42.7021
-42.7109
-42.7183
-42.7469
-42.7136
-42.7015
-42.8758
-42.8748
-42.9041
-42.8708
-42.8994
-42.9338
-42.9999
-43.0287
-42.9218
-42.8245
-43.1544
-43.1339
-43.1396
-43.1357
-43.112
-43.1594
-43.2564
-43.2893
-43.2996
-43.2071
-43.0759
-43.4638
-43.5241
-43.3893
-43.3693
-43.426
-43.4895
-43.5619
-43.5885
-43.6042
-43.6877
-43.6117
-43.4439
-43.7602
-43.805
-43.722
-43.7265
-43.7923
-43.8395
-43.8856
-43.9553
-44.0661
-43.9979
-44.1865
-44.0339
-44.1765
-44.1851
-44.0812
-44.1788
-44.1508
-44.239
-44.3071
-44.4073
-44.5428
-44.5412
-44.6912
-44.786
-44.5929
-44.6232
-44.612
-44.6237
-44.6511
-44.6332
-44.6803
-44.9364
-45.0086
-45.2131
-45.2434
-45.363
-45.5112
-45.6093
-45.5671
-45.1704
-45.2042
-45.2942
-45.309
-45.3799
-45.4598
-45.6257
-45.6329
-45.9585
-46.0534
-46.2436
-46.2308
-46.5148
-46.6708
-45.8378
-45.7759
-46.0612
-46.0572
-46.2212
-46.3747
-46.5733
-46.6424
-46.8265
-47.0178
-47.2507
-47.3088
-47.5154
-47.6551
-47.827
-46.5445
-46.6106
-47.0005
-47.194
-47.3399
-47.4444
-47.7432
-47.749
-47.9614
-48.1228
-48.4462
-48.6475
-48.8563
-49.1445
-49.2533
-49.4137
-47.8401
-47.6298
-48.1997
-48.615
-48.8839
-48.7634
-49.3265
-49.6897
-49.7309
-50.0312
-50.135
-50.2638
-50.4564
-50.4841
-50.6359
-50.967
-51.1977
-49.3989
-49.9605
-50.1902
-50.7067
-51.2716
-51.3775
-51.3755
-51.562
-51.6931
-52.0374
-52.4298
-52.5562
-52.657
-52.7936
-53.0076
-53.1708
-53.2186
-53.3032
-52.0368
-52.8015
-52.9202
-53.1873
-53.6165
-54.1828
-54.6148
-54.9823
-55.1797
-55.0269
-55.4083
-55.485
-55.483
-55.1706
-55.1947
-55.2134
-55.2735
-55.2838
-55.4154
-54.9629
-55.6954
-55.5567
-57.262
-58.0607
-58.0401
-58.4521
-59.1358
-59.2278
-59.0041
-59.1121
-59.3249
-59.0833
-58.5798
-58.2247
-57.8713
-57.8902
-57.7935
-58.0253
-58.3234
-57.8556
-58.7964
-59.5512
-60.7333
-61.6532
-61.7205
-61.6707
-62.0324
-62.1612
-62.3673
-62.493
-62.3194
-62.2643
-61.7561
-61.5149
-60.9495
-60.6099
-60.375
-60.257
-60.5705
-61.3404
-59.7893
-60.5794
-60.8531
-61.8476
-62.3205
-61.5959
-62.1916
-63.4185
-64.1
-64.8885
-65.3335
-65.3476
-64.8062
-64.4093
-64.2673
-63.7234
-62.9698
-62.6869
-62.5055
-63.1097
-65.8117
-66.8291
-61.4717
-63.1492
-63.3965
-63.3079
-63.4238
-63.3656
-64.2763
-64.7991
-65.3301
-65.8481
-66.4366
-66.7386
-66.3174
-65.8946
-66.126
-65.1549
-64.3178
-64.2372
-64.2828
-65.0596
-66.2697
-65.3645
-64.3388
-62.6179
-63.694
-63.8357
-63.5958
-63.6189
-63.9152
-64.3669
-64.9125
-65.2449
-65.5203
-65.6599
-65.7192
-65.3677
-65.4898
-65.445
-65.1427
-64.8261
-65.0595
-65.0108
-65.0435
-65.1918
-64.5954
-64.0009
-63.2007
-41.7773
-41.9698
-41.9215
-41.933
-42.0132
-42.012
-42.0765
-41.9875
-41.9555
-42.1618
-42.1678
-42.1675
-42.1338
-42.078
-42.1619
-42.3526
-42.3109
-42.2577
-42.3371
-42.2836
-42.3214
-42.1917
-42.4256
-42.3426
-42.3875
-42.5225
-42.4511
-42.4229
-42.3769
-42.3279
-42.6741
-42.6236
-42.6271
-42.5569
-42.643
-42.5768
-42.5777
-42.5466
-42.5269
-42.7324
-42.7408
-42.7794
-42.7385
-42.719
-42.7902
-42.7915
-42.8202
-42.714
-42.7068
-42.9157
-42.9114
-42.8456
-42.9544
-42.9006
-42.9963
-43.0797
-43.0523
-43.1021
-42.951
-42.9501
-43.1761
-43.1677
-43.1246
-43.14
-43.1895
-43.2164
-43.2717
-43.3085
-43.334
-43.405
-43.3076
-43.2236
-43.4611
-43.502
-43.4188
-43.386
-43.4299
-43.487
-43.5858
-43.6073
-43.6662
-43.6914
-43.776
-43.6783
-43.5244
-43.7762
-43.8145
-43.7315
-43.7652
-43.7744
-43.7881
-43.9075
-43.9251
-44.0415
-44.1046
-44.1966
-44.2891
-44.1484
-44.151
-44.1416
-44.1588
-44.1182
-44.2283
-44.1938
-44.3305
-44.3731
-44.478
-44.6455
-44.7354
-44.8036
-44.8174
-44.7948
-44.6474
-44.5942
-44.6308
-44.6908
-44.7497
-44.7979
-44.9304
-45.0483
-45.1543
-45.3058
-45.4436
-45.5174
-45.6209
-45.8015
-45.762
-45.2408
-45.2189
-45.279
-45.362
-45.3844
-45.5188
-45.6514
-45.7381
-45.8475
-46.0154
-46.2669
-46.3051
-46.4635
-46.6478
-46.9077
-45.838
-45.9239
-45.9734
-46.1167
-46.2725
-46.3723
-46.5795
-46.7637
-46.8172
-46.9347
-47.2358
-47.3254
-47.4516
-47.5994
-47.8469
-48.0444
-46.5782
-46.7522
-47.0189
-47.2661
-47.4301
-47.4881
-47.6382
-47.8424
-47.9386
-48.1385
-48.3064
-48.5956
-48.8627
-49.0355
-49.1207
-49.2652
-49.4934
-47.8708
-47.6955
-48.2234
-48.6037
-48.8384
-49.2224
-49.1828
-49.6247
-49.8351
-49.9867
-50.1157
-50.2838
-50.3721
-50.3581
-50.5758
-50.7053
-50.9683
-51.3779
-49.311
-50.3158
-50.3023
-50.7149
-51.1684
-51.658
-51.6091
-51.4715
-51.8303
-51.8948
-52.3392
-52.4954
-52.4823
-52.683
-53.1773
-53.1459
-53.1089
-53.1476
-53.4979
-51.7817
-53.1555
-52.6576
-53.1171
-53.5492
-54.1565
-54.6009
-54.7817
-55.0615
-55.0531
-55.3118
-55.3605
-55.4164
-55.146
-55.1051
-55.1458
-55.0562
-55.1676
-55.382
-55.5646
-55.1682
-55.7201
-55.3335
-57.0127
-57.8991
-57.8168
-58.4166
-58.7874
-58.8893
-59.0182
-58.79
-59.1288
-58.8234
-58.4593
-58.1371
-57.7828
-57.72
-57.6074
-57.8214
-58.2276
-58.3735
-57.6921
-59.4364
-59.2214
-60.4991
-61.4473
-61.4214
-61.3333
-61.5668
-61.7706
-62.2096
-62.2798
-62.0568
-61.9615
-61.5076
-61.2002
-60.7049
-60.3993
-60.1109
-60.0759
-60.579
-61.3043
-64.4508
-60.5534
-61.1912
-60.8004
-61.557
-62.0347
-61.3852
-62.1108
-63.4412
-64.2101
-64.9909
-65.2953
-65.2221
-64.5368
-64.1251
-63.8279
-63.4209
-62.7202
-62.6072
-62.4987
-63.2223
-65.9422
-67.1469
-65.4935
-61.8055
-63.3052
-63.5034
-63.3027
-63.3926
-63.4363
-64.3149
-64.8358
-65.3886
-65.8153
-66.3991
-66.5721
-66.0943
-65.6627
-65.8212
-64.9004
-64.1523
-64.1525
-64.3336
-65.1381
-66.4372
-65.4758
-64.328
-63.5364
-63.8129
-63.8695
-63.6275
-63.655
-63.9378
-64.3978
-64.9292
-65.2527
-65.501
-65.6253
-65.7022
-65.358
-65.4886
-65.3828
-65.0708
-64.7616
-65.055
-65.0266
-65.0556
-65.2092
-64.5907
-63.9925
-63.1919
-62.4902
-41.7881
-41.7822
-41.7618
-41.9887
-41.9771
-41.9561
-41.88
-41.9124
-42.032
-42.0521
-42.043
-41.9572
-42.0818
-42.0326
-42.1785
-42.1942
-42.1702
-42.065
-42.1768
-42.1476
-42.0815
-42.3561
-42.3245
-42.2767
-42.2447
-42.2814
-42.3285
-42.2879
-42.2527
-42.4239
-42.3439
-42.4296
-42.3486
-42.436
-42.4753
-42.473
-42.4148
-42.3581
-42.6777
-42.6902
-42.642
-42.6354
-42.5611
-42.6255
-42.6373
-42.6735
-42.5444
-42.5509
-42.8032
-42.7868
-42.7835
-42.8043
-42.774
-42.8219
-42.7957
-42.8512
-42.959
-42.757
-42.8003
-42.9998
-42.9555
-42.8756
-42.9123
-42.9933
-43.0008
-43.0314
-43.0907
-43.1328
-43.1543
-43.0802
-42.9899
-43.2146
-43.1765
-43.2086
-43.1633
-43.1946
-43.2002
-43.2442
-43.3242
-43.3626
-43.4325
-43.5238
-43.4083
-43.2667
-43.4781
-43.4469
-43.462
-43.3767
-43.4395
-43.465
-43.5312
-43.6168
-43.7028
-43.6911
-43.8522
-43.9021
-43.7655
-43.6969
-43.7715
-43.7454
-43.7743
-43.7812
-43.7893
-43.8877
-43.9274
-43.9843
-44.0146
-44.1636
-44.282
-44.3127
-44.453
-44.3109
-44.1875
-44.1354
-44.1916
-44.1791
-44.2452
-44.3578
-44.3075
-44.4782
-44.4915
-44.6596
-44.7734
-44.9634
-45.0067
-45.0856
-44.9491
-44.6836
-44.679
-44.6765
-44.6879
-44.7518
-44.8272
-44.9054
-45.0847
-45.1675
-45.2625
-45.4208
-45.5992
-45.6759
-45.8091
-45.9216
-45.7627
-45.2414
-45.3496
-45.3435
-45.417
-45.4431
-45.5305
-45.6495
-45.84
-45.8387
-45.9697
-46.1561
-46.2665
-46.4767
-46.579
-46.966
-47.0219
-45.8272
-45.8949
-46.0277
-46.2135
-46.3018
-46.4288
-46.5312
-46.8049
-46.9087
-47.0685
-47.1875
-47.3106
-47.4988
-47.5343
-47.7809
-47.9639
-48.0797
-46.7236
-46.8399
-47.0863
-47.301
-47.4255
-47.6477
-47.7019
-47.8305
-48.0539
-48.1803
-48.3594
-48.5653
-48.7064
-48.9386
-49.1524
-49.3726
-49.4793
-49.601
-47.9649
-47.7537
-47.9912
-48.6103
-48.8617
-49.2712
-49.4236
-49.5918
-49.8206
-50.0143
-50.1583
-50.2319
-50.2446
-50.4295
-50.4067
-50.7863
-50.9725
-51.278
-51.67
-49.3182
-50.3775
-50.518
-50.6155
-51.112
-51.5486
-51.7359
-51.6462
-51.7622
-51.9773
-52.1123
-52.3567
-52.5181
-52.6094
-52.8945
-53.1287
-53.0679
-53.1762
-53.1759
-53.7929
-51.5195
-53.1309
-52.6805
-53.0392