/*--------------------------------*- C++ -*----------------------------------*\
  =========                 |
  \\      /  F ield         | OpenFOAM: The Open Source CFD Toolbox
   \\    /   O peration     | Website:  https://openfoam.org
    \\  /    A nd           | Version:  7
     \\/     M anipulation  |
\*---------------------------------------------------------------------------*/
FoamFile
{
    version     2.0;
    format      ascii;
    class       surfaceScalarField;
    location    "7";
    object      phi;
}
// * * * * * * * * * * * * * * * * * * * * * * * * * * * * * * * * * * * * * //

dimensions      [0 3 -1 0 0 0 0];

internalField   nonuniform List<scalar> 
54095
(
0.000294247
-0.000249624
-2.60132e-05
0.000401381
-0.00195491
-0.000108722
0.000282362
-0.000486909
-4.50779e-05
0.000314667
0.000292187
-5.0162e-05
0.000638099
0.00174113
-7.08176e-05
0.000366406
-0.00190542
-0.000133531
0.00047658
0.000236682
-0.000129776
0.000257528
-0.000680944
-6.34929e-05
0.000310914
-7.20044e-06
-5.66048e-05
0.000115919
0.00166713
-6.26207e-05
0.000808596
0.00612692
9.86683e-05
0.000241509
0.00188315
-1.71143e-05
0.000532905
0.00225068
0.000168916
0.000317648
-0.00181675
-0.00014879
0.000513985
6.20555e-05
-0.000161976
0.000343418
0.00128873
-0.000163755
0.000226274
-0.000828205
-7.90132e-05
0.000288128
-0.000293511
-6.53102e-05
0.000123763
0.00154908
-6.23235e-05
5.38897e-05
0.00179074
-8.46814e-05
-5.5274e-05
0.00960049
0.000355764
0.000156504
0.00612023
9.16953e-05
0.000519838
0.0051834
0.000130334
2.06365e-05
0.00214888
3.12765e-05
0.000421194
0.00216564
0.00016072
0.000260437
0.00100317
0.000289541
0.000269607
-0.00171355
-0.000146533
0.000508709
-0.000131395
-0.00017592
0.000344637
0.00107471
-0.000168826
0.000160842
0.00159567
-0.000139564
0.000193043
-0.000930281
-9.09668e-05
0.000251992
-0.000550127
-7.43895e-05
0.000128528
0.0014188
-6.35538e-05
5.04265e-05
0.00176524
-8.72542e-05
5.07298e-05
0.000882667
-7.86327e-05
-0.000587194
0.00756077
0.000365448
-0.000310863
0.00969262
0.00037523
-0.000144789
0.00958493
0.000791569
-0.000341278
0.00637097
0.000111175
0.000426991
0.00523883
3.04603e-05
0.000107839
0.0047304
0.000142931
-9.73078e-06
0.0023394
8.88203e-05
0.000454406
0.00206714
0.000184082
0.000232399
0.000964961
0.000311167
0.00017498
0.00181457
0.000387345
0.000205822
-0.00159134
-0.000134992
0.000435861
-0.0002921
-0.000169696
0.000350636
0.000846865
-0.000170184
0.000155135
0.00145144
-0.000129309
0.000114726
0.0013155
-0.000181021
0.00016143
-0.000992338
-9.9373e-05
0.000210972
-0.000771493
-8.05726e-05
0.00013371
0.00127516
-6.44586e-05
5.64061e-05
0.00173511
-8.98314e-05
4.61277e-05
0.00082893
-7.96454e-05
3.43198e-05
0.00070544
-6.94e-05
-0.00112425
0.00527358
0.000289814
-0.000605555
0.00754468
0.000310782
-0.000730622
0.00833965
0.000689379
-0.000583303
0.00963952
0.000295132
-1.76102e-05
0.00953981
0.000864948
-0.000125452
0.00777452
0.00101772
-0.000294162
0.0064149
0.0002405
0.000320778
0.0054857
-2.06368e-06
-6.02408e-05
0.00494603
0.000107473
-1.51292e-06
0.00363111
0.00019106
-0.000113189
0.00251929
0.000139121
0.000285421
0.00207044
0.000235955
0.000268025
0.00091785
0.000313804
0.000285846
0.00156865
0.000426384
0.000109377
0.00240004
0.000407974
0.000144221
-0.00145115
-0.000122983
0.000351673
-0.000417524
-0.000150269
0.000328794
0.00064791
-0.000165825
0.000164962
0.0012944
-0.000121696
0.000114184
0.00128448
-0.000166346
2.77847e-05
0.0013365
-0.000170059
0.000133642
-0.00102189
-0.000104087
0.000168607
-0.000950768
-8.87054e-05
0.000136748
0.00112286
-6.50211e-05
6.58735e-05
0.00169607
-9.12902e-05
4.00358e-05
0.000779375
-8.03117e-05
3.3121e-05
0.0006636
-7.09262e-05
7.64036e-05
0.000585965
-8.18711e-05
-0.00147667
0.00382904
0.000263891
-0.00109777
0.00530713
0.000458663
-0.000985948
0.00543921
0.000465968
-0.000521199
0.00725738
0.000225191
-0.000612366
0.00860682
0.00063836
-0.000561408
0.00850553
0.000817537
-0.000500921
0.00959851
0.000247762
-0.000260869
0.00955903
0.000857558
-0.000362633
0.00803898
0.000902883
-0.000212804
0.00689796
0.000906608
-0.000184626
0.00618769
0.000298643
8.551e-05
0.00576308
0.000163029
4.4108e-05
0.0050564
0.000111484
3.22702e-05
0.00372224
0.000269921
-6.86508e-05
0.00367236
0.00034491
-0.000246576
0.00272761
0.000182471
7.3323e-05
0.00221039
0.000277524
0.000246588
0.000896939
0.000339072
0.00020004
0.0013936
0.000453775
2.65464e-05
0.00243886
0.000475202
-7.16241e-05
0.0013269
0.000402491
7.67056e-05
-0.0012916
-0.000102615
0.000263816
-0.000503492
-0.000132224
0.000296516
0.000493965
-0.000156092
0.000143923
0.00116303
-0.000112507
7.76109e-05
0.00127
-0.000144799
2.54881e-05
0.00133488
-0.000157091
1.69976e-05
0.00173497
-0.000142167
0.00011055
-0.00102433
-0.000108117
0.000130112
-0.00108971
-9.52563e-05
0.000132982
0.00097088
-6.9709e-05
7.21194e-05
0.0016519
-9.29682e-05
3.09241e-05
0.000737859
-8.0698e-05
3.21416e-05
0.000622602
-7.14553e-05
7.20831e-05
0.00052586
-8.29035e-05
6.28134e-05
0.000607742
-9.25283e-05
-0.00156212
0.00323761
0.000150417
-0.00145849
0.00392182
0.000267947
-0.00106241
0.00460235
0.000442794
-0.00103633
0.00542869
0.00039357
-0.000855095
0.00544365
0.00069695
-0.000540404
0.00595759
0.000549458
-0.000427053
0.00709232
9.12011e-05
-0.000619681
0.00860927
0.00058156
-0.000561108
0.00854338
0.000798987
-0.000321361
0.0082863
0.000954953
-0.000188123
0.00935121
0.0002508
-0.000456339
0.00959683
0.000751817
-0.000252576
0.00822058
0.000972636
-0.000193557
0.0071132
0.000913475
-9.66263e-05
0.00593796
0.000990238
-0.00038827
0.0060605
0.000268882
-0.000124301
0.005941
0.000318347
2.04787e-05
0.00524188
0.000203652
2.84836e-05
0.00374402
0.000261259
-0.000173017
0.00380072
0.000341122
-0.000195107
0.00437032
0.00018263
-0.000384224
0.00298694
0.000201602
-5.48397e-05
0.0023992
0.000312314
0.000157302
0.000943566
0.00037011
6.70965e-05
0.00133562
0.000473878
5.46415e-05
0.00241234
0.000503263
-3.79963e-05
0.00139117
0.000474407
3.81319e-05
0.000771593
0.000319379
8.45558e-06
-0.00110028
-8.9227e-05
0.00017138
-0.000536062
-0.000111313
0.000254635
0.000386483
-0.000146394
0.000133219
0.00105642
-0.000110577
7.24287e-05
0.00123493
-0.000118932
1.75e-05
0.00134577
-0.000141049
1.00217e-05
0.00177053
-0.000130587
4.38322e-05
0.00167015
-0.000140112
9.39599e-05
-0.00100902
-0.000109264
9.1539e-05
-0.00118479
-0.000104574
0.000129976
0.000819435
-7.37883e-05
7.92302e-05
0.0015973
-9.43424e-05
2.51195e-05
0.000700046
-8.02749e-05
3.08096e-05
0.000582266
-7.11721e-05
6.85559e-05
0.000468425
-8.25763e-05
6.17848e-05
0.000552593
-8.95399e-05
1.30545e-05
0.000240336
-7.96836e-05
-0.00149635
0.00372276
6.89039e-05
-0.00157134
0.00320508
0.000145389
-0.000994067
0.00424314
0.000178279
-0.00144802
0.00414452
0.000188987
-0.00112337
0.00472561
0.000412963
-0.000594452
0.00534816
0.000494194
-0.000869685
0.00554041
0.000330912
-0.00091142
0.0055167
0.000612263
-0.000522301
0.00607523
0.000540503
-0.000319021
0.00598389
0.00064632
-0.000402113
0.00726735
3.89573e-05
-0.000731929
0.0085023
0.000473754
-0.000415777
0.00853706
0.000751079
-0.000120361
0.0079927
0.00101939
4.85696e-06
0.00758516
0.00111465
-0.000265731
0.00899285
0.000235825
-0.000384471
0.00936039
0.000747413
-0.000209789
0.00836806
0.000834605
-7.107e-05
0.00729835
0.000887033
-0.000115836
0.00571409
0.00108016
-0.000151706
0.0058711
0.00100277
-0.000547759
0.00599752
0.000226517
-0.000322348
0.00608684
0.000390548
2.98921e-07
0.00543207
0.000285168
-0.000236904
0.00403739
0.000214292
-0.000195627
0.00404487
0.000267376
-0.000208826
0.00465445
0.00022783
-1.05792e-05
0.00401967
4.89634e-05
-0.000515303
0.00326215
0.000248555
-0.000169678
0.00257777
0.000364087
1.89187e-05
0.00108539
0.000406204
4.3792e-05
0.00133612
0.000459039
0.000144551
0.00226778
0.000546316
-6.97724e-05
0.00149829
0.000483416
1.42929e-05
0.000871238
0.000370491
0.000144474
0.00121549
0.000198947
-3.72674e-05
-0.00089205
-7.69979e-05
0.000115686
-0.000552044
-9.73922e-05
0.000212788
0.000331622
-0.000139264
0.000123668
0.000978113
-0.000112529
6.2932e-05
0.0011881
-0.00010156
-9.54055e-06
0.00138484
-0.000117645
9.24713e-06
0.00180527
-0.000116483
3.9915e-05
0.0016885
-0.000127069
2.87328e-05
0.00101596
-0.00016266
8.04712e-05
-0.000979105
-0.000110388
7.54492e-05
-0.00125714
-0.000112361
0.000125876
0.000670306
-8.13213e-05
8.09425e-05
0.00153641
-9.3839e-05
2.01563e-05
0.000665322
-7.97754e-05
2.94328e-05
0.000542604
-7.0045e-05
6.37378e-05
0.000414969
-8.14539e-05
5.76326e-05
0.00049866
-8.62754e-05
1.07228e-05
0.000216368
-7.62946e-05
1.62033e-05
-0.000319563
-6.48588e-05
-0.00136497
0.00337916
-0.00010802
-0.00153301
0.00358971
9.47173e-05
-0.00100696
0.00465652
0.000111414
-0.00152488
0.00312235
0.00015959
-0.00110278
0.00413196
0.00023598
-0.000601429
0.00484918
0.000234412
-0.00133762
0.00436971
0.000242753
-0.00112465
0.00476847
0.000359354
-0.000623289
0.00544529
0.000416823
-0.000449521
0.00551833
0.000522819
-0.000804562
0.00567373
0.000269126
-0.00101768
0.00564763
0.000485735
-0.000455005
0.00623836
0.000488363
-0.000347966
0.00616784
0.000584161
-0.00033993
0.00614968
0.000877017
-0.000397166
0.00733535
6.34311e-05
-0.000608207
0.00833199
0.000433011
-0.000223379
0.00829951
0.000724895
-0.000178973
0.00785124
0.00100044
-0.000127557
0.00745607
0.0011602
-8.8066e-06
0.00725056
0.00121736
-0.000257053
0.00857995
0.000122189
-0.000463962
0.00913941
0.000598415
-0.000119855
0.00848447
0.000751163
-0.00030464
0.00726772
0.000932974
-0.000316936
0.00584772
0.000874712
-0.000187149
0.00585028
0.0010793
-0.00010377
0.00591303
0.00100417
-0.000572365
0.00578443
0.000270153
-0.000578345
0.00630255
0.000419479
-0.000145606
0.00557637
0.000410767
-0.000313647
0.00435037
0.000329624
0.000246274
0.00400437
0.000153069
-0.000198425
0.00482834
0.000222136
-9.55074e-05
0.00424534
0.000111955
-5.37772e-05
0.00396804
0.000111128
-0.000650576
0.00361026
0.000265198
-0.000121955
0.00267768
0.000386292
-7.24489e-05
0.00125599
0.000478732
-2.17209e-05
0.00141725
0.000470455
-2.83302e-06
0.00223973
0.000552851
-0.000125336
0.00163585
0.000524556
-3.0237e-05
0.000982528
0.000411609
0.000126137
0.00127243
0.000227331
6.33239e-05
0.00163036
0.000111783
-7.55634e-05
-0.000667638
-6.83769e-05
-1.95821e-05
-0.000455952
-7.80589e-05
0.000151986
0.000334379
-0.000126259
9.74918e-05
0.000931737
-0.000109437
5.34193e-05
0.00114186
-9.95521e-05
-1.33912e-05
0.00142281
-9.67104e-05
-9.72361e-06
0.0018614
-0.000100307
2.82555e-05
0.0017125
-0.000111098
2.88314e-05
0.0010277
-0.000156917
2.14031e-05
0.000580022
-0.000191781
6.77834e-05
-0.000935495
-0.000111394
5.61197e-05
-0.00130293
-0.000120726
0.000118033
0.000529044
-8.91318e-05
8.13485e-05
0.00146764
-9.3899e-05
1.82423e-05
0.000632524
-7.92832e-05
2.89537e-05
0.000503264
-6.93892e-05
5.89443e-05
0.000365591
-7.96117e-05
5.05808e-05
0.000449732
-8.3107e-05
5.91258e-06
0.000197282
-7.31013e-05
1.31282e-05
-0.0003463
-6.26863e-05
8.51294e-06
-0.00045975
-5.76332e-05
-0.00133123
0.00305761
8.48555e-05
-0.0031762
-0.00144451
0.00339925
-0.000108594
-0.00106925
0.0044179
-6.2007e-05
-0.00147822
0.00350061
4.24349e-05
-0.000988865
0.00446301
0.000174315
-0.000618668
0.00484114
0.000107742
-0.0015471
0.0031534
0.000178423
-0.00122634
0.00413758
0.000255656
-0.000628522
0.00481135
0.000279037
-0.00060676
0.00494916
0.00037662
-0.00120081
0.00447271
0.000293241
-0.00114274
0.0048309
0.000305385
-0.000543184
0.00547353
0.000419292
-0.000458215
0.00555975
0.000485648
-0.000456975
0.00557783
0.000565847
-0.000732185
0.00573096
0.000277786
-0.00103834
0.00591319
0.000433692
-0.000435253
0.00646576
0.000470211
-0.00039938
0.00633986
0.000536746
-0.000407519
0.00628604
0.000727764
-0.000277858
0.00613082
0.00103933
-0.000307233
0.00727616
0.000109374
-0.000580815
0.0081514
0.000360875
-0.000110264
0.00800483
0.000718104
-0.000269861
0.00770727
0.000834087
-0.000171085
0.00716457
0.00114609
1.98782e-05
0.00694536
0.00125837
-5.43983e-06
0.00693892
0.00128412
-8.28577e-05
0.00796056
0.000129883
-0.000751934
0.00905529
0.0003799
-0.000297628
0.00855767
0.00067723
-0.000497486
0.00742751
0.000775207
-6.99369e-05
0.00608126
0.00101564
-0.000210206
0.0057175
0.00101928
-0.000153668
0.00596869
0.0010818
-0.000175871
0.00604611
0.000963824
-0.000991671
0.00579404
0.000331486
-0.000479974
0.0063625
0.000568217
-0.000225487
0.00573538
0.000413512
-0.00037463
0.0047044
0.000409642
-0.000315054
0.00447128
0.000174935
-0.000123124
0.00481774
0.00016146
-0.000248949
0.00450968
0.000176507
-6.07071e-06
0.0040739
0.000138303
-4.81995e-05
0.00353577
0.000124289
-0.000701162
0.00393275
0.000303108
-0.000270395
0.00273242
0.000461265
-0.00024327
0.0015458
0.000491729
-0.000114449
0.00154635
0.000561576
-0.000146189
0.00236416
0.000545633
4.43979e-05
0.00159038
0.000540535
-5.09992e-05
0.00112514
0.000423217
8.32702e-05
0.00135805
0.000270968
6.33335e-05
0.00169435
0.000128832
2.22975e-05
0.00210781
8.65663e-05
-0.000104244
-0.000435014
-6.0597e-05
-8.8851e-05
-0.000320289
-5.90696e-05
0.000126282
0.000355991
-0.000107919
5.38004e-05
0.000926372
-9.33456e-05
5.72786e-05
0.00108894
-9.55544e-05
1.3412e-05
0.00142707
-8.82657e-05
8.68299e-06
0.00190469
-8.97409e-05
1.17369e-05
0.00175366
-0.000102628
1.21043e-05
0.00105825
-0.000147839
1.9544e-05
0.000605947
-0.000189257
-2.75692e-05
0.000647694
-0.000202984
5.66464e-05
-0.000879925
-0.000112216
3.7436e-05
-0.0013233
-0.000128454
0.000109492
0.000395683
-9.68575e-05
8.14169e-05
0.00139014
-9.30462e-05
1.67603e-05
0.000600522
-7.86566e-05
2.96692e-05
0.000464207
-6.98959e-05
5.38749e-05
0.000319797
-7.74701e-05
4.72409e-05
0.000403155
-8.02762e-05
9.09068e-06
0.000175525
-7.04407e-05
9.98574e-06
-0.00036868
-6.07073e-05
6.43229e-06
-0.000472809
-5.60605e-05
-1.80625e-05
-0.000856738
-5.00196e-05
-0.00142628
0.00278978
2.67976e-05
-0.00272154
-0.00139617
0.00299357
1.56922e-05
-0.00108601
0.00368302
0.000184245
-0.00376565
-0.00144334
1.51336e-06
-0.00144035
0.00346024
-9.88537e-05
-0.00100702
0.00443505
-0.000107586
-0.000761896
0.004623
0.00013725
-0.00150872
0.0034133
4.89306e-05
-0.00105962
0.0042842
5.4525e-05
-0.000510406
0.00474032
0.000157015
-0.000650216
0.00488445
0.000283579
-0.00148578
0.00322561
0.000212762
-0.00129705
0.0041632
0.000307112
-0.000602036
0.00480376
0.000322097
-0.00059224
0.00495534
0.00040688
-0.000578458
0.00512568
0.000541196
-0.00110007
0.00455987
0.00028072
-0.00123369
0.00504329
0.000276202
-0.000594721
0.00554452
0.000393861
-0.000575238
0.00566526
0.000489644
-0.000550355
0.0055994
0.000606913
-0.000492379
0.0056344
0.000659128
-0.000640757
0.00575256
0.000311921
-0.000872529
0.00610384
0.000378856
-0.000417698
0.00671181
0.00049508
-0.000451931
0.00649347
0.000498675
-0.000500471
0.00650417
0.000648002
-0.000295088
0.00631733
0.00085622
-0.000264649
0.00617252
0.0011336
-0.000270518
0.00731217
0.00015165
-0.000686861
0.00790912
0.000286581
-0.000367664
0.00772882
0.000706917
-0.000385864
0.00752319
0.000790567
-0.000445157
0.0073985
0.000975379
-0.00013535
0.00683868
0.00117792
-0.000116725
0.00687018
0.00129016
-0.000170305
0.00677045
0.00132614
-0.000583909
0.00740272
0.000150084
-0.000713371
0.0091187
0.000299861
-0.000461563
0.00865855
0.000515095
-0.000605419
0.00759325
0.00074228
-0.000534586
0.00624278
0.000833216
-0.000159468
0.00566113
0.00110835
-0.00028606
0.00587784
0.00114724
-0.000143056
0.00623871
0.00102618
-0.000134639
0.00592706
0.000842121
-0.00103468
0.00577761
0.00034995
-0.000475011
0.00628443
0.000614172
-0.00045183
0.00589277
0.000619383
-0.000507773
0.0052813
0.000229941
-0.000553896
0.00500182
0.000286817
0.000108252
0.00486965
5.91663e-05
-0.000175805
0.00462198
0.000173972
-0.000124325
0.00421958
0.000238415
-6.23473e-05
0.00364539
0.000154356
-0.000136986
0.00368133
0.000256405
-0.000722661
0.00422004
0.000331128
-0.000312103
0.00280122
0.000457566
-0.000177657
0.00172608
0.000584934
-0.000142426
0.00163796
0.000596349
0.000251516
0.00209732
0.000634179
-5.94469e-05
0.00164607
0.0005628
-1.40094e-05
0.00120691
0.000481462
9.88409e-06
0.00148693
0.000296187
-6.40357e-07
0.0018128
0.000165272
-6.44852e-06
0.00215282
0.000109819
-4.04132e-05
0.00259375
6.31019e-05
-0.000117862
-0.000202132
-5.83731e-05
-0.000137599
-0.000167103
-3.87478e-05
6.25014e-05
0.000432627
-8.87147e-05
3.22002e-05
0.000941322
-7.36528e-05
1.08991e-05
0.0010882
-8.67427e-05
8.00591e-06
0.00143637
-8.31924e-05
8.30909e-06
0.00193773
-7.57393e-05
1.7763e-05
0.00179416
-0.000100762
1.83216e-05
0.0010895
-0.000143111
1.34008e-05
0.000635555
-0.000180862
-2.27587e-05
0.000674624
-0.000186996
-3.21167e-05
0.000599477
-0.000192423
4.68519e-05
-0.000814687
-0.00011209
2.21947e-05
-0.00132256
-0.000135157
9.98035e-05
0.000272392
-0.000104966
8.26711e-05
0.0013024
-9.17903e-05
1.43312e-05
0.000571237
-7.80928e-05
3.1439e-05
0.000425673
-7.15608e-05
5.52855e-05
0.000270541
-7.59254e-05
4.35036e-05
0.00035996
-7.77787e-05
1.17818e-05
0.00015196
-6.8493e-05
4.66784e-06
-0.000384837
-5.89513e-05
4.02359e-06
-0.000482531
-5.5008e-05
-2.75148e-05
-0.000836477
-4.88062e-05
-3.64245e-05
-0.00111653
-5.4176e-05
-0.00147545
0.00261007
2.9305e-05
-0.00259021
-0.00143665
0.00277363
5.66319e-05
-0.00106249
0.00335946
4.07041e-05
-0.00339688
-0.00157602
8.45116e-05
-0.00142705
0.00301033
-3.00693e-05
-0.00110552
0.00374438
5.28312e-05
-0.000763028
0.00405278
0.000207158
-0.00407456
-0.0012315
0.000192039
-0.00148789
0.00342391
1.55095e-05
-0.000917578
0.00429362
-9.94687e-05
-0.000637189
0.0045382
0.000103999
-0.000800905
0.00464324
0.000289159
-0.00154448
0.00342334
4.8652e-05
-0.00124429
0.00421677
6.35998e-05
-0.000700932
0.0047172
0.000176541
-0.000607803
0.00477789
0.000279137
-0.000751318
0.00490519
0.000457496
-0.00142428
0.00330323
0.000246604
-0.00132083
0.004136
0.000327108
-0.00072109
0.00486152
0.000375722
-0.000702104
0.00495863
0.000445676
-0.000720412
0.00516886
0.00053376
-0.000608249
0.00527386
0.000662417
-0.00102948
0.00465709
0.000291504
-0.000854025
0.00509251
0.000213001
-0.000658735
0.0056846
0.000377159
-0.000620518
0.00573828
0.000489425
-0.000654199
0.00565887
0.000583897
-0.000389381
0.00563566
0.000699947
-0.000532706
0.00558689
0.000752995
-0.000675223
0.00582632
0.000330953
-0.000834749
0.00618831
0.000375337
-0.000569997
0.00685205
0.000440949
-0.000535468
0.00665186
0.000486289
-0.000597749
0.00656937
0.000586071
-0.000534117
0.00657133
0.00079277
-0.000427567
0.00634863
0.000990954
-0.000454227
0.00606515
0.00119947
-0.000525638
0.00714266
0.000111235
-0.000690642
0.00782032
0.000217721
-0.000552578
0.00751409
0.000592324
-0.000518621
0.00741579
0.000727518
-0.000446316
0.00717858
0.00092221
-0.00032053
0.00687546
0.00109966
-0.000137556
0.00666897
0.00123063
-0.000219157
0.00678866
0.00134805
-0.000270839
0.00647007
0.00140703
-0.000756702
0.00690269
0.000222046
-0.000635267
0.00918534
0.000243708
-0.00056254
0.00861687
0.000452256
-0.000763476
0.00764174
0.000722307
-0.000625951
0.00613498
0.000922136
-0.000196092
0.00580876
0.000989934
-0.000334602
0.00597925
0.00116574
-0.000192012
0.00639276
0.00106089
-2.21614e-06
0.00601803
0.000875083
-0.00020342
0.00578662
0.000862784
-0.00113159
0.00584833
0.000338197
-0.000438691
0.00613469
0.000626282
-0.000384228
0.00613639
0.000577121
-0.000433168
0.005701
0.000490425
0.000375758
0.00505064
5.68795e-05
-0.000166357
0.00505288
0.000210498
-7.3255e-05
0.00456151
0.000178873
-0.000257199
0.00438537
0.000275267
-0.000133897
0.00376625
0.00025081
-0.000193806
0.00372534
0.000297702
-0.000175499
0.00388086
0.000401784
-0.000695003
0.00444687
0.00035031
-0.000433215
0.00288444
0.000543521
-0.000258495
0.00195298
0.000551655
-0.000181315
0.00177781
0.000658592
-0.000167772
0.00220007
0.000672267
2.7491e-05
0.00163327
0.000627493
-0.000137895
0.00143943
0.000476485
-2.3456e-06
0.00160779
0.000380719
9.28275e-06
0.0019226
0.000195419
-5.83956e-05
0.00225982
0.000130065
-5.16147e-05
0.00264336
8.90687e-05
-8.05618e-05
0.00296073
7.68122e-05
-0.000132703
4.12448e-05
-6.38222e-05
-0.000175602
-6.12408e-06
-2.15547e-05
3.33051e-05
0.000534503
-7.41255e-05
-5.69501e-07
0.000994037
-5.81888e-05
-2.36568e-05
0.00112511
-7.25785e-05
6.2707e-06
0.00145501
-8.02184e-05
-1.72184e-05
0.0019966
-6.9559e-05
-1.69941e-05
0.00186961
-9.06869e-05
1.43995e-05
0.00112426
-0.000138133
7.96841e-06
0.00065743
-0.000168286
-2.62113e-05
0.000691165
-0.000167169
-5.71903e-05
0.000602296
-0.00016014
-0.000112824
0.000752727
-0.000164112
3.76763e-05
-0.00074122
-0.000111143
1.23635e-05
-0.00130644
-0.00014057
8.80989e-05
0.000161529
-0.000112393
8.29073e-05
0.00120545
-9.09269e-05
1.12325e-05
0.000545928
-7.77139e-05
3.28901e-05
0.000388885
-7.41958e-05
6.03042e-05
0.000214444
-7.57677e-05
3.97721e-05
0.00031983
-7.55672e-05
1.23296e-05
0.000128985
-6.71339e-05
4.48534e-08
-0.00039588
-5.74941e-05
4.40515e-07
-0.000488644
-5.32794e-05
-3.45321e-05
-0.000808589
-4.83642e-05
-5.38251e-05
-0.00105859
-5.2924e-05
-2.13179e-05
-0.000820703
-6.6565e-05
-0.00147896
0.00241339
2.12007e-05
-0.00243109
-0.00150872
0.00261747
6.46695e-05
-0.00118152
0.00316862
0.000101451
-0.00312174
-0.00161938
1.82794e-05
-0.00149574
0.00277842
6.39161e-05
-0.00112608
0.00329629
0.000140367
-0.000948723
0.0037504
0.000255349
-0.00377935
-0.00130144
7.12226e-05
-0.00150473
0.00304374
-1.65693e-05
-0.00109085
0.00378688
0.000100711
-0.000820105
0.00409418
0.000194346
-0.000887493
0.00411142
0.000350953
-0.00416863
-0.000914424
0.000216469
-0.0015401
0.00339221
2.73181e-05
-0.00112127
0.00415466
3.1456e-05
-0.000865939
0.00442457
0.000179163
-0.000701598
0.00456704
0.000273989
-0.000995657
0.00461395
0.000453397
-0.00138055
0.00332741
5.21994e-05
-0.00120334
0.0040549
9.30251e-05
-0.000821665
0.00463243
0.000248947
-0.000738373
0.00469296
0.000297739
-0.000869116
0.00492367
0.000409364
-0.000771784
0.00501129
0.000630637
-0.00146017
0.00347882
0.000255092
-0.00115307
0.00429464
0.000386999
-0.000715529
0.00484104
0.000404389
-0.000778774
0.00502712
0.000465484
-0.000774737
0.00521385
0.000521221
-0.00062441
0.0053784
0.000664244
-0.000579603
0.00524283
0.000696992
-0.00105214
0.0047481
0.000285908
-0.000826961
0.0051619
0.000214325
-0.000693941
0.00565
0.000371551
-0.000595942
0.00570441
0.000471506
-0.00075121
0.00570775
0.00059401
-0.000749944
0.00575977
0.000675617
-0.000525222
0.00564197
0.000742529
-0.000652389
0.00556191
0.000821636
-0.000944531
0.00594744
0.000297776
-0.000821019
0.00625176
0.000397875
-0.000532454
0.00680456
0.000402694
-0.000559111
0.00670398
0.000429322
-0.000544545
0.00666566
0.000488222
-0.000424269
0.00656775
0.000693388
-0.000438231
0.00652694
0.000915131
-0.000409121
0.00614392
0.00110215
-0.000400791
0.00592663
0.00124906
-0.000619308
0.00691431
9.09555e-05
-0.000512554
0.00763999
0.000168848
-0.000563048
0.00725744
0.000474878
-0.000583926
0.00720317
0.000625391
-0.000483969
0.00697337
0.000790747
-0.000403635
0.00694435
0.00106086
-0.00044282
0.00668611
0.00119074
-0.000239636
0.00672865
0.00133828
-0.000125811
0.00650905
0.00143266
-0.00030024
0.00634661
0.00146737
-0.000854238
0.00644792
0.00017742
-0.000529689
0.0091899
0.000308477
-0.00069961
0.00876914
0.000406815
-0.000787945
0.00775593
0.000692851
-0.000113487
0.00653655
0.000809982
-0.000365331
0.00579775
0.00113211
-0.000222224
0.00600025
0.00111791
-0.000336228
0.00652897
0.00110855
-0.000154094
0.00622238
0.000876728
-0.000211117
0.00581952
0.000859499
-0.000238952
0.00588482
0.000879336
-0.00101307
0.0058231
0.000343297
-0.000432531
0.0058522
0.000620007
-0.000393511
0.00617594
0.000721749
-0.000423003
0.00607198
0.000447823
-0.000344083
0.00551487
0.000202505
-0.000137494
0.00524579
2.89574e-05
-0.000286143
0.00465078
0.000269481
-0.000180163
0.00440339
0.000338669
-0.000219346
0.00397645
0.000293696
-0.000282988
0.00382778
0.000372963
-0.000223917
0.00390594
0.000444926
-0.000185923
0.00408276
0.000539514
-0.000680618
0.00462663
0.000368146
-0.000468996
0.00302762
0.000500522
-0.000329858
0.0022286
0.00063107
-0.000271545
0.00194254
0.000657902
0.000272928
0.00188135
0.000680735
0.00016923
0.00149919
0.000643387
0.000108859
0.00141619
0.000524657
-7.05353e-05
0.00180276
0.000335048
-4.8222e-05
0.00209941
0.000266533
-4.24154e-05
0.00235009
0.00015553
-7.24239e-05
0.0027168
0.000102836
-0.00021729
0.0031033
0.000106596
-0.000286289
0.00325345
0.000140326
-0.000139662
0.000291149
-7.25667e-05
-0.000190526
0.000152709
-1.97655e-05
-4.57941e-05
0.000702264
-5.54219e-05
3.89001e-06
0.00105473
-5.58008e-05
-3.69531e-05
0.00117437
-5.92651e-05
1.16277e-06
0.00148944
-7.52762e-05
1.5998e-06
0.00203681
-6.17259e-05
4.67405e-06
0.00192621
-9.10628e-05
-2.90467e-06
0.00118021
-0.000131403
4.02615e-06
0.00067107
-0.000155754
-3.14511e-05
0.000705181
-0.000150411
-9.32106e-05
0.000629788
-0.000135982
-0.000153766
0.000821356
-0.000128829
-0.000126412
0.00117185
-0.000106441
3.14232e-05
-0.000662266
-0.000110377
8.32423e-06
-0.00128078
-0.000145124
7.70942e-05
6.1106e-05
-0.000117241
8.2706e-05
0.00110015
-8.97992e-05
1.19045e-05
0.000520497
-7.73999e-05
3.51973e-05
0.000353403
-7.74285e-05
6.95149e-05
0.000147854
-7.71204e-05
3.82046e-05
0.000279711
-7.38532e-05
1.26023e-05
0.000107435
-6.6619e-05
-2.87963e-06
-0.000403616
-5.65188e-05
3.26175e-07
-0.000495047
-5.14174e-05
-3.94097e-05
-0.000774944
-4.75152e-05
-6.459e-05
-0.000990323
-5.20413e-05
-3.05664e-05
-0.000776534
-6.6526e-05
-3.92662e-05
-0.000525389
-7.4066e-05
-0.00142964
0.00239357
-3.23072e-05
-0.00241058
-0.00154573
0.00244144
8.96022e-06
-0.00125839
0.0029644
0.000100283
-0.0029666
-0.00158686
-1.37154e-05
-0.00244989
-0.00160728
0.00264726
8.17519e-05
-0.00114865
0.00315134
0.00010452
-0.00117921
0.00337928
0.00026514
-0.00331247
-0.00131259
3.8967e-05
-0.00156904
0.00276489
7.78388e-05
-0.00117665
0.00325582
0.000190177
-0.000954947
0.00369083
0.000334774
-0.00106571
0.00381253
0.000476115
-0.00385508
-0.00101685
0.000167009
-0.00152224
0.00302876
-2.88213e-06
-0.00124211
0.00376765
0.0001235
-0.000961272
0.00404328
0.000246937
-0.00094048
0.00409733
0.00044732
-0.00103509
0.00409486
0.000456861
-0.00416134
-0.00071855
0.000331098
-0.00136621
0.00332639
5.14878e-05
-0.00109377
0.00404462
2.77858e-05
-0.000932137
0.00435212
0.000214381
-0.000841228
0.00448019
0.000368872
-0.000950498
0.00452003
0.000449297
-0.000791487
0.00462308
0.000577217
-0.00153754
0.00331978
8.50101e-05
-0.00125111
0.00404455
0.000160593
-0.000862873
0.0046109
0.000261903
-0.00076993
0.00456739
0.000365672
-0.000853545
0.0048844
0.000415821
-0.000879327
0.00505895
0.000616615
-0.000682279
0.0050506
0.000737881
-0.001481
0.00365531
0.000252368
-0.00109064
0.00439899
0.000414428
-0.000784446
0.00490677
0.000411768
-0.000690221
0.00505855
0.000467236
-0.000740795
0.00515234
0.00051658
-0.000755344
0.0052682
0.00063682
-0.000609622
0.00528842
0.00070306
-0.000671519
0.00536722
0.000769334
-0.00113274
0.00473125
0.000205055
-0.000812538
0.0051865
0.000252822
-0.000707075
0.00567317
0.000365775
-0.000671045
0.00570087
0.000487023
-0.000671766
0.00567956
0.000626914
-0.000628195
0.00583796
0.000719739
-0.000622584
0.0057772
0.000724733
-0.000629344
0.00571393
0.000810729
-0.000625608
0.0056941
0.000914361
-0.000875835
0.00594514
0.000258825
-0.000638131
0.00626728
0.000407834
-0.000554674
0.00674497
0.000449094
-0.000563488
0.00669158
0.000394661
-0.000498044
0.0067398
0.000369266
-0.000631605
0.0067372
0.000546745
-0.00062637
0.00665161
0.000752271
-0.000591305
0.00641287
0.000997844
-0.000468812
0.0062015
0.00117028
-0.000500213
0.00606225
0.00130894
-0.000624074
0.00662556
5.85888e-05
-0.000461001
0.0075002
0.00016206
-0.000653038
0.00698342
0.000396297
-0.000618164
0.00701452
0.000493748
-0.000448892
0.00713005
0.000804122
-0.000561341
0.00703748
0.000893628
-0.000359412
0.0067575
0.00112666
-0.000350787
0.00666772
0.00126622
-0.000325082
0.00660603
0.00141228
-0.000290322
0.00646948
0.00138899
-0.000253756
0.0063291
0.00145951
-0.000823857
0.00601051
0.000248203
-0.000161908
0.00877259
0.000324111
-0.000544462
0.00879618
0.000432395
-0.000795353
0.0078833
0.000651788
-0.0005554
0.00636338
0.00107734
-0.000506705
0.0060656
0.000911349
-0.000258931
0.00596138
0.00114377
-0.000289444
0.00667457
0.00108159
-0.000329946
0.00647743
0.000964109
-0.000392488
0.00594364
0.000862111
-0.000443754
0.00607783
0.000886324
-0.000316822
0.00614578
0.000894127
-0.00115348
0.00595141
0.000344557
-0.000432899
0.00553084
0.000628552
-0.000366473
0.00605776
0.000774806
-0.000440728
0.00617512
0.000787797
0.000309118
0.00552012
0.000406386
0.000409839
0.00498691
0.000220773
0.00011284
0.00450236
0.000173394
-0.000224746
0.00445732
0.000369767
-0.000116726
0.00397908
0.000404548
-0.000284509
0.00395821
0.000405363
-0.000256205
0.00396026
0.000502424
-0.000297374
0.00405669
0.000551079
-0.000385881
0.00452832
0.000596825
-0.000651831
0.00477863
0.000360175
-0.000494195
0.00322134
0.000478096
-0.000433474
0.00255569
0.000561105
-0.00026882
0.00219313
0.000653189
-0.000171605
0.00200165
0.000672247
6.52674e-05
0.00150299
0.000612831
7.07017e-05
0.00144055
0.000549923
-1.14647e-05
0.00188614
0.000457423
-8.32159e-05
0.00228732
0.000227446
-8.24339e-05
0.00249814
0.000204949
-0.000131135
0.00283831
0.000133699
-0.000225263
0.00320035
0.000137841
-0.000357698
0.00339333
0.000170646
-0.000351861
0.00367156
0.000223656
-0.000128553
0.000536908
-8.57823e-05
-0.000202229
0.000322263
-3.15675e-05
-9.28017e-05
0.000892513
-4.01189e-05
-1.62663e-05
0.00114762
-4.93396e-05
-5.67741e-05
0.00124167
-5.44169e-05
-1.39608e-05
0.0015505
-7.11667e-05
4.68889e-06
0.00208165
-5.52922e-05
-5.80987e-06
0.00199205
-8.35521e-05
4.24668e-05
0.00118986
-0.000130579
4.03543e-06
0.000677013
-0.000144262
-2.32782e-05
0.000701026
-0.000127995
-9.33731e-05
0.000651732
-0.000118392
-0.000180714
0.000901726
-0.000100228
-0.000145198
0.00124228
-8.46349e-05
-0.000180968
0.00175329
-4.65385e-05
2.54158e-05
-0.00057827
-0.000109411
1.20646e-05
-0.00125443
-0.000148799
6.78571e-05
-3.27947e-05
-0.00011908
8.09507e-05
0.000989906
-8.79441e-05
7.71172e-06
0.000499832
-7.68465e-05
3.85926e-05
0.000318273
-8.08631e-05
8.02705e-05
6.90313e-05
-7.88767e-05
4.05204e-05