/*--------------------------------*- C++ -*----------------------------------*\
  =========                 |
  \\      /  F ield         | OpenFOAM: The Open Source CFD Toolbox
   \\    /   O peration     | Website:  https://openfoam.org
    \\  /    A nd           | Version:  7
     \\/     M anipulation  |
\*---------------------------------------------------------------------------*/
FoamFile
{
    version     2.0;
    format      ascii;
    class       surfaceScalarField;
    location    "7";
    object      phi_0;
}
// * * * * * * * * * * * * * * * * * * * * * * * * * * * * * * * * * * * * * //

dimensions      [0 3 -1 0 0 0 0];

internalField   nonuniform List<scalar> 
54095
(
0.000293568
-0.000253509
-2.57022e-05
0.00039493
-0.00197206
-0.000107101
0.000281523
-0.000490171
-4.48615e-05
0.00031438
0.000279783
-4.95726e-05
0.000602464
0.00170736
-6.485e-05
0.000359015
-0.00191805
-0.0001315
0.000471871
0.000225277
-0.000128296
0.000256601
-0.000683479
-6.32923e-05
0.000310598
-1.97185e-05
-5.59577e-05
0.000116265
0.00166064
-6.25816e-05
0.000738726
0.00610868
9.8921e-05
0.000172766
0.00190482
-1.12053e-05
0.000510159
0.00224106
0.000174029
0.000308857
-0.00182365
-0.00014666
0.000508193
5.57238e-05
-0.000159541
0.000343209
0.00126406
-0.000162817
0.0002253
-0.000830006
-7.87737e-05
0.000287728
-0.000305207
-6.55316e-05
0.00012364
0.0015431
-6.20539e-05
5.3027e-05
0.00179034
-8.49961e-05
-0.000105163
0.00966456
0.000360924
6.46002e-06
0.00617605
9.89376e-05
0.000492223
0.0051967
0.000134886
8.9748e-06
0.0021673
3.73942e-05
0.00041275
0.00215744
0.00016786
0.000251095
0.000989161
0.000295316
0.000262358
-0.00171595
-0.000144757
0.000501348
-0.000131857
-0.0001727
0.000343986
0.00105252
-0.000168342
0.000157952
0.0015838
-0.000137238
0.000192051
-0.000931407
-9.06493e-05
0.000251456
-0.000560949
-7.44877e-05
0.000128351
0.00141313
-6.39112e-05
4.98566e-05
0.00176597
-8.75358e-05
4.95998e-05
0.000884494
-7.8761e-05
-0.000593285
0.00756414
0.000356333
-0.000368843
0.00967594
0.000363914
-0.000150074
0.00959685
0.000819193
-0.000343133
0.00640432
0.000123832
0.000423827
0.00525772
2.68386e-05
7.97854e-05
0.00474423
0.000148085
-1.56164e-05
0.00234895
9.63252e-05
0.000446725
0.00205715
0.000192309
0.000232426
0.000951523
0.000317059
0.00017444
0.00180268
0.000394973
0.000198398
-0.00158868
-0.000133616
0.000425375
-0.000284556
-0.000165977
0.000348664
0.00082842
-0.000168916
0.000152979
0.00144029
-0.000127948
0.000112737
0.00131647
-0.000179
0.000160429
-0.000992818
-9.90176e-05
0.000210288
-0.000781085
-8.08016e-05
0.0001349
0.0012684
-6.46574e-05
5.68749e-05
0.00173519
-9.00125e-05
4.47344e-05
0.000831939
-7.97154e-05
3.34859e-05
0.000707846
-6.95641e-05
-0.00112104
0.0052901
0.000295307
-0.000601145
0.00749628
0.000300166
-0.000732183
0.00837363
0.000678055
-0.000586825
0.0096262
0.000293432
-9.41876e-06
0.00951687
0.00087714
-0.00015662
0.00777687
0.00102158
-0.000270859
0.00640135
0.000258216
0.000304161
0.00551291
1.12057e-05
-5.13462e-05
0.00494731
0.000107531
-1.29933e-05
0.00362914
0.000194942
-0.0001463
0.00254871
0.000144946
0.000244151
0.0020889
0.0002458
0.000270789
0.000901516
0.000320191
0.000279711
0.00155986
0.000433145
0.000107204
0.00239585
0.000414001
0.000137391
-0.00144374
-0.0001219
0.000344173
-0.000405218
-0.000146839
0.00032604
0.000635304
-0.000164001
0.000162624
0.0012856
-0.000119981
0.000111081
0.00128608
-0.000163905
2.66196e-05
0.00133769
-0.000168822
0.000132663
-0.00102172
-0.00010376
0.000167874
-0.000959373
-8.86035e-05
0.000136801
0.00111627
-6.5475e-05
6.59874e-05
0.00169593
-9.13848e-05
3.86246e-05
0.000783627
-8.03246e-05
3.23075e-05
0.00066668
-7.08567e-05
7.50769e-05
0.000587794
-8.19606e-05
-0.00147359
0.00384013
0.00026371
-0.00108967
0.00531316
0.000465473
-0.000984044
0.00544343
0.000472955
-0.000513974
0.00721665
0.000206774
-0.000598299
0.00863367
0.000629006
-0.000565684
0.00851466
0.000806923
-0.000466103
0.00957829
0.000243156
-0.000288173
0.00955062
0.000852018
-0.000351638
0.00804926
0.000905037
-0.000216947
0.00690877
0.000909264
-0.000203614
0.00616271
0.000295954
1.9107e-05
0.00580427
0.000191898
4.46353e-05
0.00506834
0.000116326
2.39412e-05
0.00371189
0.000280556
-6.68714e-05
0.00367101
0.000343475
-0.000258363
0.00275664
0.000187818
6.00096e-05
0.00223118
0.00028683
0.000242731
0.000884582
0.000346043
0.000193792
0.00138846
0.000460421
1.9027e-05
0.00244025
0.000480799
-6.96722e-05
0.00132435
0.000405102
7.04835e-05
-0.00127945
-0.000102108
0.000257389
-0.000487297
-0.000129337
0.000291903
0.000487716
-0.000154353
0.000140734
0.0011579
-0.000111043
7.41981e-05
0.00127248
-0.00014196
2.33286e-05
0.00133829
-0.00015553
1.64833e-05
0.00173673
-0.000141461
0.000109762
-0.00102368
-0.000107802
0.000129104
-0.00109699
-9.52476e-05
0.000132887
0.000964604
-6.98239e-05
7.19721e-05
0.00165156
-9.30756e-05
2.95502e-05
0.00074333
-8.06385e-05
3.14366e-05
0.000626261
-7.13419e-05
7.14287e-05
0.000528264
-8.27561e-05
6.27329e-05
0.000608909
-9.24017e-05
-0.00156415
0.00323099
0.000151771
-0.00145489
0.00393606
0.000269286
-0.00106322
0.00460209
0.000441293
-0.00102701
0.00543742
0.000388774
-0.000844509
0.00545138
0.000703726
-0.000538089
0.00595508
0.000548038
-0.000417773
0.00709145
7.68751e-05
-0.000626957
0.00861404
0.000565195
-0.000552374
0.00854853
0.000795869
-0.000304792
0.00826331
0.000957338
-0.000163296
0.00928742
0.000250552
-0.000484908
0.00954771
0.00075008
-0.00024834
0.00823252
0.000961733
-0.000184699
0.0071063
0.000916153
-9.17811e-05
0.0059152
0.000999036
-0.000402126
0.00604106
0.000265417
-0.000130488
0.00595876
0.000331961
2.26986e-05
0.00526185
0.000218422
1.6551e-05
0.00374667
0.000258782
-0.000181384
0.00381166
0.000340324
-0.000207817
0.00439807
0.000182036
-0.000403972
0.00302396
0.000207136
-7.13534e-05
0.00242662
0.00032112
0.000145854
0.000939557
0.000377902
5.91475e-05
0.00133739
0.000478702
6.2666e-05
0.00240395
0.000508252
-3.67344e-05
0.0013887
0.000476513
3.71449e-05
0.000770727
0.000320692
3.38535e-06
-0.00108383
-8.92411e-05
0.000167058
-0.000518116
-0.000109243
0.000249361
0.000386762
-0.000144857
0.000131976
0.00105343
-0.000109885
6.93715e-05
0.00123772
-0.000116098
1.50666e-05
0.00135187
-0.000139167
9.50708e-06
0.00177289
-0.000129775
4.35724e-05
0.00167349
-0.000139529
9.33076e-05
-0.00100802
-0.000108972
9.03979e-05
-0.00119061
-0.000104582
0.000129661
0.000813663
-7.39672e-05
7.87412e-05
0.00159739
-9.4392e-05
2.37887e-05
0.000706661
-8.01951e-05
3.012e-05
0.000586493
-7.09908e-05
6.77404e-05
0.000471562
-8.23798e-05
6.16291e-05
0.000553928
-8.94041e-05
1.30508e-05
0.000242927
-7.98873e-05
-0.0015002
0.00371117
7.05908e-05
-0.00157276
0.00320313
0.000145734
-0.00099458
0.00423394
0.000180392
-0.0014433
0.00416399
0.000188368
-0.00112233
0.00473713
0.000412074
-0.000591113
0.0053529
0.000491017
-0.000859628
0.00555432
0.000324955
-0.000919856
0.0055321
0.000600953
-0.000519602
0.00608779
0.000538247
-0.000314661
0.00599053
0.000641795
-0.000400807
0.00729292
3.60396e-05
-0.000734621
0.00848121
0.000459412
-0.000393978
0.00851661
0.000742752
-0.000105592
0.00795639
0.00102368
4.96046e-06
0.00755338
0.0011196
-0.000273436
0.00894971
0.000209024
-0.000377381
0.00930478
0.00074037
-0.000193191
0.00837506
0.000823431
-9.42167e-05
0.00729482
0.000883972
-0.000120642
0.00569113
0.00107947
-0.000166177
0.00586203
0.00101165
-0.000563364
0.00597197
0.000228474
-0.000375949
0.00612824
0.00040054
-1.13624e-05
0.00544951
0.000301511
-0.000245525
0.00404895
0.000220813
-0.000182541
0.0040595
0.000256143
-0.000201491
0.00467599
0.000227161
-1.36293e-05
0.00404028
5.07929e-05
-0.000534272
0.00330734
0.000254275
-0.000175093
0.00260292
0.000372982
5.45286e-06
0.0010897
0.000414886
4.26465e-05
0.00134108
0.000463542
0.000141005
0.00226084
0.000550181
-7.67795e-05
0.00150333
0.000485468
1.13275e-05
0.00087393
0.00037149
0.000142694
0.00121776
0.00019966
-3.97105e-05
-0.000873519
-7.72969e-05
0.000111291
-0.000532565
-9.56849e-05
0.000207257
0.000337683
-0.00013776
0.000121447
0.000977836
-0.000111971
6.05376e-05
0.00119126
-0.000100181
-1.15632e-05
0.00139262
-0.000115169
8.55173e-06
0.00180817
-0.000115256
3.94338e-05
0.00169247
-0.000126562
2.8573e-05
0.00101972
-0.000162625
8.0068e-05
-0.000977971
-0.000110114
7.44937e-05
-0.00126163
-0.000112445
0.00012554
0.000664977
-8.14359e-05
8.01025e-05
0.00153719
-9.38675e-05
1.92559e-05
0.000672725
-7.97116e-05
2.88201e-05
0.000547313
-6.98351e-05
6.2871e-05
0.000418919
-8.12187e-05
5.71073e-05
0.000500586
-8.61452e-05
1.07561e-05
0.000219262
-7.64952e-05
1.61234e-05
-0.000316655
-6.52227e-05
-0.00136782
0.00337925
-0.000108835
-0.0015351
0.00357892
9.45914e-05
-0.00100646
0.00464743
0.000114431
-0.00152401
0.00312156
0.000162274
-0.00110662
0.00412587
0.000238087
-0.000600155
0.0048467
0.000235455
-0.00132945
0.0043871
0.000246709
-0.00112569
0.00477525
0.000356081
-0.000620986
0.00545286
0.000413498
-0.000445659
0.00552547
0.000521615
-0.000800542
0.00568761
0.000266438
-0.00102213
0.00566756
0.000477006
-0.000452482
0.00626184
0.000485408
-0.000349343
0.0061935
0.000579027
-0.000347042
0.00616333
0.000872352
-0.000390672
0.0073447
6.54572e-05
-0.000597985
0.00831447
0.000423386
-0.000205047
0.00826243
0.000725456
-0.000196565
0.00781407
0.000987418
-0.000136044
0.0074304
0.00116207
4.55496e-06
0.00721027
0.0012203
-0.000248407
0.00851108
0.000123668
-0.000522089
0.00910429
0.000555655
-0.000124518
0.00848934
0.000739249
-0.000312643
0.00725106
0.000934312
-0.000330092
0.00585472
0.00086794
-0.000183744
0.00584423
0.00107953
-0.000101417
0.00592189
0.00100899
-0.000604557
0.00576164
0.000280614
-0.000576084
0.00632144
0.000436257
-0.000156856
0.00558762
0.000424741
-0.000314714
0.00436546
0.000342366
0.000257204
0.00401563
0.000148489
-0.000194102
0.0048357
0.000213753
-0.000105972
0.00426812
0.000116618
-5.10022e-05
0.00397843
0.000114054
-0.000661248
0.00366005
0.000268831
-0.000126346
0.00270075
0.000394082
-8.73753e-05
0.00126909
0.00048822
-2.6554e-05
0.00142518
0.00047879
-1.41862e-05
0.00224355
0.000555551
-0.000120108
0.00163616
0.000525894
-3.1841e-05
0.000987845
0.000411946
0.000123858
0.00127716
0.000227663
6.21062e-05
0.00163704
0.000112484
-7.66959e-05
-0.000647522
-6.92334e-05
-2.56378e-05
-0.00043363
-7.61014e-05
0.000146712
0.000345202
-0.000124375
9.43263e-05
0.000934331
-0.000108479
5.17933e-05
0.00114536
-9.86068e-05
-1.41982e-05
0.00143051
-9.50493e-05
-1.06912e-05
0.00186583
-9.92686e-05
2.68908e-05
0.00171786
-0.000110427
2.86206e-05
0.00103215
-0.00015686
2.16653e-05
0.000583229
-0.00019219
6.75265e-05
-0.000934332
-0.000111165
5.55531e-05
-0.00130652
-0.000120771
0.000117337
0.000524466
-8.92712e-05
8.07548e-05
0.0014688
-9.38079e-05
1.75227e-05
0.000640542
-7.92075e-05
2.85102e-05
0.000508333
-6.92418e-05
5.81277e-05
0.000370307
-7.93507e-05
5.02818e-05
0.000452084
-8.29985e-05
6.06799e-06
0.000200347
-7.32983e-05
1.31317e-05
-0.000343248
-6.3034e-05
8.27276e-06
-0.000456724
-5.79532e-05
-0.00133255
0.00305622
8.48419e-05
-0.00317633
-0.00144712
0.00340018
-0.000108903
-0.00106811
0.00441939
-6.38613e-05
-0.00147898
0.00349243
4.14586e-05
-0.000990292
0.00445108
0.000174618
-0.000614643
0.00483741
0.000111136
-0.00154445
0.00315615
0.000180414
-0.00123234
0.00413634
0.000258454
-0.000628389
0.00481073
0.000281459
-0.000610445
0.00494999
0.000377093
-0.00119383
0.00448887
0.000291513
-0.00114333
0.00484075
0.000302417
-0.000543008
0.00548154
0.000417925
-0.000462586
0.00556758
0.000484625
-0.0004637
0.00558266
0.000566793
-0.000722789
0.00574108
0.000278651
-0.00103093
0.00593752
0.000429426
-0.000432224
0.00649628
0.000469743
-0.000403468
0.00635369
0.000532124
-0.000415446
0.00630529
0.000716471
-0.000271937
0.00614464
0.00103045
-0.000301784
0.00728236
0.000115716
-0.000591935
0.00810168
0.000348098
-0.00011889
0.00796427
0.000715913
-0.000273639
0.00767485
0.000825667
-0.000186399
0.00714265
0.00113148
1.61792e-05
0.0069145
0.00125791
-1.44608e-05
0.00693173
0.00128559
-0.000100269
0.00787294
0.000133852
-0.000755724
0.00903879
0.000368808
-0.000325344
0.0085531
0.000660377
-0.000517276
0.00742947
0.000763406
-6.13417e-05
0.00608354
0.00102404
-0.000209492
0.00570615
0.00102141
-0.000161558
0.00596853
0.00108848
-0.000174926
0.00606171
0.000964911
-0.00102302
0.00578366
0.000339755
-0.000469844
0.00635835
0.000587202
-0.000244726
0.00575094
0.000430288
-0.00038442
0.00473974
0.000408327
-0.000351572
0.00451721
0.000178172
-0.000103435
0.00481421
0.000153311
-0.000252744
0.00452639
0.000176387
-7.58456e-06
0.00408324
0.000143252
-4.77943e-05
0.00353924
0.000126703
-0.00070657
0.00398209
0.000307838
-0.000273588
0.00274874
0.000468792
-0.000250619
0.00156071
0.000499796
-0.000116432
0.0015535
0.000570654
-0.000134369
0.00235741
0.000551101
5.14984e-05
0.00158444
0.000541576
-4.94611e-05
0.00112945
0.000423059
7.82163e-05
0.00136672
0.000271067
6.10541e-05
0.00170325
0.00012902
2.08536e-05
0.0021164
8.70076e-05
-0.000103765
-0.000414446
-6.17842e-05
-9.16062e-05
-0.000297943
-5.77602e-05
0.000122191
0.000369986
-0.000105738
5.01642e-05
0.00093217
-9.1624e-05
5.47353e-05
0.00109401
-9.43385e-05
1.33594e-05
0.00143453
-8.74814e-05
8.43656e-06
0.00190891
-8.84337e-05
1.14129e-05
0.00176026
-0.000102793
1.1889e-05
0.00106379
-0.000147887
1.96755e-05
0.000609355
-0.00018953
-2.77202e-05
0.000647763
-0.000203384
5.65238e-05
-0.000878893
-0.000111964
3.66363e-05
-0.00132582
-0.000128504
0.000108908
0.000391759
-9.69726e-05
8.11739e-05
0.00139125
-9.28868e-05
1.60701e-05
0.000609208
-7.85444e-05
2.91977e-05
0.000469733
-6.98051e-05
5.3381e-05
0.000324936
-7.72521e-05
4.68313e-05
0.000406094
-8.01925e-05
9.507e-06
0.000178479
-7.06377e-05
9.99516e-06
-0.000365514
-6.10268e-05
6.25507e-06
-0.00046966
-5.63526e-05
-1.8554e-05
-0.000849635
-5.03154e-05
-0.00142622
0.00279066
2.64922e-05
-0.00272348
-0.00139772
0.00299303
1.37917e-05
-0.00108493
0.00368515
0.000181291
-0.00376478
-0.00144238
2.78699e-06
-0.00144171
0.00345975
-9.68471e-05
-0.00100484
0.00443338
-0.000108341
-0.000758611
0.0046225
0.000136187
-0.00150929
0.00340695
5.03211e-05
-0.0010665
0.00427388
5.28123e-05
-0.000512368
0.00473604
0.000159969
-0.000653838
0.00487851
0.000286414
-0.00148285
0.00323069
0.000214485
-0.00129616
0.00416008
0.000309506
-0.000603304
0.00480434
0.000325139
-0.00059615
0.00495577
0.000409237
-0.000586444
0.00512607
0.000541254
-0.00109069
0.00457536
0.000281417
-0.00122742
0.00505602
0.000272733
-0.000598262
0.00555759
0.000392409
-0.000580378
0.00567283
0.000489586
-0.000558742
0.00560344
0.000607147
-0.000486812
0.00563976
0.000661724
-0.000638214
0.00576424
0.000313266
-0.000870695
0.00611796
0.000376966
-0.000423501
0.00673718
0.000493133
-0.00046053
0.00651273
0.000497592
-0.000506584
0.00651519
0.000642414
-0.000313961
0.00634273
0.000848523
-0.000280322
0.00619027
0.00112515
-0.000276261
0.0073076
0.000150752
-0.000690923
0.007874
0.000278588
-0.000404606
0.00769385
0.00069778
-0.000406178
0.00749569
0.000783978
-0.000454387
0.00739166
0.000969697
-0.000158156
0.00682799
0.00116665
-0.000113617
0.00685353
0.00128817
-0.000174879
0.0067674
0.00132665
-0.000630297
0.00732651
0.000153704
-0.000701219
0.00911009
0.000293934
-0.000473425
0.00864824
0.000502367
-0.000624499
0.00759167
0.000738253
-0.000561795
0.0062326
0.000824569
-0.000145061
0.00565984
0.00111198
-0.000295073
0.00588163
0.00115064
-0.000138727
0.0062521
0.00102922
-0.000134592
0.00594098
0.000839364
-0.00104905
0.0057735
0.000352643
-0.000464097
0.00626718
0.000621433
-0.000462375
0.00591302
0.000636885
-0.000503336
0.0053287
0.000228236
-0.000515484
0.00502183
0.00028482
0.000114819
0.00487236
5.66953e-05
-0.000164506
0.00462277
0.00017198
-0.000139234
0.00423277
0.000244302
-6.58121e-05
0.00365023
0.000159136
-0.000133922
0.00367826
0.0002604
-0.000716861
0.00426147
0.000333709
-0.000317816
0.00281965
0.000463144
-0.000176217
0.00173478
0.000593133
-0.000142607
0.00164191
0.000604161
0.00027984
0.0020613
0.000641658
-6.96839e-05
0.00165294
0.000565649
-1.7868e-05
0.00121594
0.000481393
3.2251e-06
0.0015007
0.000297262
-2.37317e-06
0.00182294
0.000165635
-9.1293e-06
0.0021644
0.000109819
-4.48623e-05
0.0025999
6.30373e-05
-0.000116921
-0.000181042
-5.99595e-05
-0.000138466
-0.00014698
-3.7646e-05
5.81571e-05
0.000449979
-8.7003e-05
2.8761e-05
0.000950872
-7.20279e-05
6.43781e-06
0.00109743
-8.54123e-05
6.20411e-06
0.00144551
-8.23217e-05
7.50851e-06
0.00194278
-7.54787e-05
1.60948e-05
0.00180294
-0.000100382
1.86219e-05
0.0010953
-0.000143423
1.34406e-05
0.000639052
-0.000181029
-2.23551e-05
0.000674087
-0.000187243
-3.26999e-05
0.000596205
-0.00019231
4.68846e-05
-0.000813736
-0.000112042
2.15009e-05
-0.00132411
-0.00013518
9.90883e-05
0.000269508
-0.000105341
8.2533e-05
0.00130338
-9.16377e-05
1.35991e-05
0.000580661
-7.79391e-05
3.10554e-05
0.000431601
-7.14678e-05
5.51079e-05
0.000275778
-7.57553e-05
4.32029e-05
0.000363356
-7.77166e-05
1.20807e-05
0.000154892
-6.8686e-05
4.69367e-06
-0.000381604
-5.92418e-05
3.80385e-06
-0.000479193
-5.52981e-05
-2.80289e-05
-0.000828999
-4.89602e-05
-3.71369e-05
-0.00111238
-5.43146e-05
-0.00147573
0.0026103
2.96382e-05
-0.00259042
-0.00143708
0.00277364
5.63748e-05
-0.00106179
0.00335887
4.1878e-05
-0.0033974
-0.00157471
8.42257e-05
-0.00142818
0.00301057
-3.10701e-05
-0.00110457
0.00374809
5.05837e-05
-0.000764281
0.00405397
0.00020668
-0.00407369
-0.00123295
0.000193065
-0.00148902
0.00342161
1.78797e-05
-0.000920369
0.00428819
-9.77943e-05
-0.000637009
0.00453516
0.000103638
-0.000800917
0.00464213
0.000288154
-0.00154373
0.00341785
4.99779e-05
-0.00124727
0.0042087
6.66169e-05
-0.000705688
0.00471253
0.000178705
-0.000610745
0.00477232
0.000280745
-0.000755997
0.00490359
0.000456419
-0.00142221
0.00331324
0.000248955
-0.0013214
0.0041396
0.000328937
-0.000726412
0.00486356
0.00037844
-0.000708451
0.00496201
0.000446973
-0.000725794
0.00516936
0.000532998
-0.000606724
0.00527812
0.000662143
-0.00102437
0.00467143
0.000290087
-0.000842104
0.0050975
0.00021134
-0.000662362
0.0056935
0.000375685
-0.000624534
0.00574145
0.000487795
-0.000657369
0.00565929
0.000584521
-0.000407757
0.00564143
0.000699268
-0.000533135
0.00558934
0.000751393
-0.000683825
0.0058438
0.000328006
-0.000829383
0.00619409
0.000375603
-0.000575222
0.00684986
0.000434908
-0.000538578
0.00665692
0.000481346
-0.000596267
0.00657512
0.000579538
-0.000530162
0.00657273
0.000784423
-0.000423586
0.00636061
0.000988147
-0.000448226
0.00606869
0.00119394
-0.00054903
0.00712233
0.000104002
-0.000686938
0.00780174
0.000208738
-0.000559717
0.00747971
0.000579027
-0.00053161
0.00738589
0.000714693
-0.000448652
0.0071454
0.000917094
-0.000323132
0.00687488
0.00110088
-0.000154397
0.00665265
0.00122685
-0.00021706
0.00678441
0.0013495
-0.000275348
0.00647347
0.00140874
-0.000777691
0.00682608
0.000229077
-0.00062534
0.0091794
0.000245628
-0.000579676
0.00861117
0.000448309
-0.00077011
0.0076357
0.000725115
-0.00060538
0.00614413
0.000916621
-0.000202478
0.00581334
0.000988362
-0.000323728
0.00598969
0.00116314
-0.000204491
0.00640665
0.00106134
1.05921e-06
0.00603012
0.000873214
-0.00019075
0.0057822
0.000860654
-0.00112814
0.00584702
0.000337748
-0.000431087
0.00610293
0.000630167
-0.000379341
0.00614599
0.000591583
-0.000422995
0.00573034
0.000515632
0.000436681
0.00505522
3.80021e-05
-0.00020261
0.00507135
0.000218759
-7.40166e-05
0.00455425
0.000181357
-0.000262928
0.00439162
0.000279281
-0.000140723
0.00377646
0.000256416
-0.000201109
0.0037264
0.000302974
-0.000182783
0.00387815
0.00040753
-0.000689863
0.00448186
0.000352551
-0.000440488
0.0029066
0.000548781
-0.000270334
0.00197026
0.00055615
-0.000188861
0.00178957
0.000663101
-0.00019824
0.00219374
0.000676391
4.65083e-05
0.00162499
0.000629298
-0.000143095
0.00145602
0.000476168
-4.04341e-06
0.00162185
0.00038038
5.47356e-06
0.0019363
0.00019705
-5.9815e-05
0.00227346
0.000129833
-5.31126e-05
0.00265178
8.86961e-05
-8.5473e-05
0.00296834
7.80921e-05
-0.000131849
6.35975e-05
-6.59058e-05
-0.000176093
1.14167e-05
-2.07616e-05
2.88099e-05
0.000555047
-7.24349e-05
-1.78546e-06
0.00100562
-5.74316e-05
-2.53432e-05
0.00113554
-7.11913e-05
5.85897e-06
0.0014649
-7.96033e-05
-1.76699e-05
0.00200228
-6.90418e-05
-1.66866e-05
0.00187816
-9.08102e-05
1.37748e-05
0.00113158
-0.00013835
8.06542e-06
0.000660708
-0.000168452
-2.61458e-05
0.000690425
-0.000167417
-5.84338e-05
0.000598778
-0.000159412
-0.000114633
0.000756917
-0.000163675
3.78089e-05
-0.000740343
-0.000111202
1.19918e-05
-0.00130761
-0.000140526
8.72532e-05
0.000159537
-0.000112462
8.25488e-05
0.00120657
-9.10784e-05
1.0737e-05
0.000555793
-7.75064e-05
3.24676e-05
0.000395273
-7.40793e-05
6.01447e-05
0.00021985
-7.56842e-05
3.94403e-05
0.000323683
-7.55224e-05
1.27216e-05
0.000131767
-6.73135e-05
7.96291e-08
-0.00039261
-5.77596e-05
2.18538e-07
-0.000485021
-5.36325e-05
-3.49964e-05
-0.000800688
-4.86121e-05
-5.5092e-05
-0.00105327
-5.29756e-05
-2.18863e-05
-0.000821733
-6.67069e-05
-0.00148019
0.00241279
2.24657e-05
-0.0024308
-0.00150968
0.00261729
6.56029e-05
-0.00118139
0.003169
0.000101973
-0.00312173
-0.00161929
1.88022e-05
-0.00149616
0.00277774
6.38794e-05
-0.0011269
0.00329576
0.000141812
-0.000949653
0.00374955
0.000257238
-0.00377954
-0.00129963
7.06249e-05
-0.0015068
0.00304487
-1.6535e-05
-0.00109317
0.00378896
0.000100862
-0.000821376
0.00409503
0.00019389
-0.000890052
0.00410987
0.000352114
-0.00416616
-0.000912427
0.000216259
-0.00153948
0.00338944
2.79311e-05
-0.00112372
0.00414916
3.33661e-05
-0.000870359
0.00442158
0.000180461
-0.000701122
0.00456245
0.000273686
-0.000995725
0.00461216
0.00045207
-0.00138033
0.00332214
5.38297e-05
-0.00120638
0.0040476
9.60509e-05
-0.000827233
0.00462879
0.000251175
-0.000742855
0.00468627
0.000299167
-0.00087129
0.00492111
0.000408716
-0.000774396
0.00501127
0.000630316
-0.0014578
0.00349041
0.000256274
-0.00114405
0.00430171
0.000388793
-0.000716979
0.00484297
0.000404137
-0.000777834
0.0050287
0.00046505
-0.000774029
0.0052131
0.000519893
-0.000630068
0.00537105
0.000662377
-0.00057669
0.00524283
0.000695472
-0.00105334
0.00475808
0.000282865
-0.000825815
0.00516957
0.000214453
-0.000693092
0.00565132
0.000371392
-0.000597462
0.00570545
0.000470567
-0.00075591
0.0057107
0.000596021
-0.000749599
0.00576925
0.000676139
-0.000527605
0.00565064
0.000741986
-0.000650237
0.00557061
0.000820817
-0.0009491
0.00595244
0.000291431
-0.000818841
0.00625528
0.000398715
-0.000533198
0.00679603
0.000402909
-0.000565584
0.00670258
0.000423223
-0.000542524
0.00667315
0.000477187
-0.000430017
0.00657687
0.000682285
-0.000445517
0.00653052
0.000905636
-0.000411503
0.00615613
0.00109515
-0.000404274
0.0059355
0.00124369
-0.000630496
0.0068902
8.49324e-05
-0.000502592
0.00762013
0.000162862
-0.000571918
0.00721935
0.000461337
-0.000588953
0.00717032
0.000613435
-0.000487315
0.00696062
0.000781409
-0.00041089
0.00694592
0.00105447
-0.000444983
0.00668608
0.00118871
-0.000245544
0.00671536
0.00133695
-0.000123007
0.00651386
0.00143317
-0.000291841
0.0063503
0.00147261
-0.000864608
0.00638633
0.000176222
-0.000503497
0.0091615
0.000319394
-0.000703796
0.00877194
0.000409308
-0.00078747
0.00775177
0.00069671
-9.4412e-05
0.00657558
0.000824759
-0.000391438
0.00579535
0.00112344
-0.000213226
0.00600239
0.00111487
-0.000346273
0.00654652
0.00110663
-0.000164357
0.0062389
0.000876196
-0.000226574
0.00582287
0.00085801
-0.000233492
0.0058822
0.000878494
-0.00101454
0.00582819
0.000343514
-0.000423281
0.00579729
0.000626183
-0.000393407
0.00615854
0.000740691
-0.000422073
0.00607597
0.000479157
-0.000394965
0.00554149
0.000226084
-9.52338e-05
0.00523519
1.59068e-05
-0.000297516
0.00465331
0.000274127
-0.000168808
0.00439512
0.000342625
-0.000217431
0.00397854
0.000300107
-0.000286648
0.00383144
0.00037821
-0.000224769
0.00390404
0.00044874
-0.000188762
0.00407676
0.000542281
-0.000675914
0.00465695
0.000368976
-0.000476615
0.00306033
0.000499334
-0.000341105
0.00225384
0.000635115
-0.000276034
0.00195911
0.000660854
0.000262405
0.00188791
0.000681191
0.00018278
0.00148315
0.000641317
0.0001337
0.00140913
0.000524823
-7.03948e-05
0.00181699
0.000334743
-5.18868e-05
0.00211618
0.000266158
-4.29032e-05
0.00236495
0.000156525
-7.54566e-05
0.00272843
0.000102493
-0.000221994
0.00311282
0.000107782
-0.000290811
0.003261
0.000141489
-0.000136714
0.000313105
-7.4984e-05
-0.000190694
0.000168372
-2.0175e-05
-5.08278e-05
0.000725879
-5.35129e-05
2.26986e-06
0.00106869
-5.52285e-05
-3.89787e-05
0.00118625
-5.84296e-05
-4.84648e-07
0.00150128
-7.4618e-05
2.19931e-06
0.00204191
-6.12974e-05
5.0773e-06
0.00193462
-9.1138e-05
-2.04778e-06
0.00118733
-0.000131797
4.17139e-06
0.000674204
-0.000155937
-3.10668e-05
0.000703908
-0.000150649
-9.4075e-05
0.000626797
-0.000136358
-0.000156109
0.000825345
-0.000126823
-0.000127605
0.0011789
-0.000106275
3.16154e-05
-0.00066166
-0.000110299
7.97547e-06
-0.00128185
-0.000144944
7.60012e-05
5.99977e-05
-0.000116988
8.2787e-05
0.00110102
-8.96997e-05
1.13196e-05
0.00053053
-7.71348e-05
3.46901e-05
0.000360349
-7.72724e-05
6.95986e-05
0.000153274
-7.71014e-05
3.81989e-05
0.000283684
-7.38841e-05
1.29917e-05
0.000110051
-6.67973e-05
-2.83063e-06
-0.000400344
-5.67492e-05
1.95826e-07
-0.000491213
-5.17636e-05
-3.92927e-05
-0.000767398
-4.76304e-05
-6.47193e-05
-0.000984914
-5.22476e-05
-3.16172e-05
-0.000776387
-6.67044e-05
-3.9908e-05
-0.000521969
-7.4379e-05
-0.00143016
0.00239403
-3.26696e-05
-0.00241139
-0.00154718
0.00244117
9.1234e-06
-0.00125947
0.00296471
0.000101833
-0.002966
-0.00158729
-1.32002e-05
-0.00244959
-0.00160844
0.00264732
8.22616e-05
-0.0011483
0.00315072
0.00010528
-0.00117997
0.00338139
0.000265455
-0.00331455
-0.00131287
4.07502e-05
-0.00156997
0.00276389
7.7023e-05
-0.00118023
0.00325515
0.000191545
-0.000956283
0.00369011
0.00033615
-0.00106764
0.00381121
0.000477755
-0.00385414
-0.00101618
0.000168802
-0.00152119
0.00302923
-2.64188e-06
-0.00124245
0.00376774
0.00012341
-0.000965443
0.004044
0.000246973
-0.000942159
0.00409745
0.000447339
-0.00103825
0.00409374
0.000458376
-0.00415748
-0.000726126
0.000332161
-0.0013656
0.00332319
5.15171e-05
-0.00109573
0.00403849
2.79485e-05
-0.000936604
0.00435058
0.000213734
-0.000844453
0.00447427
0.000370239
-0.000952848
0.00451814
0.000449261
-0.000796067
0.00462182
0.0005769
-0.00153925
0.00331732
8.62678e-05
-0.00125146
0.00404437
0.000164473
-0.000863379
0.00460699
0.000264258
-0.000778612
0.00457088
0.000367338
-0.000853985
0.00488298
0.000417258
-0.000884885
0.00505912
0.000615681
-0.000681763
0.00505094
0.000737759
-0.00147826
0.00366325
0.000252073
-0.00108931
0.00440427
0.000417215
-0.000784828
0.00491135
0.000412157
-0.0006898
0.00505803
0.000467144
-0.000740947
0.00514683
0.000516353
-0.000761586
0.00526707
0.00063586
-0.000611973
0.00528759
0.000701987
-0.000675255
0.00536772
0.000769335
-0.00113292
0.00474056
0.000201337
-0.000813454
0.00519468
0.00025237
-0.000710238
0.00567651
0.000366295
-0.000676727
0.0057009
0.000487088
-0.00067005
0.00568152
0.000627281
-0.0006252
0.00583974
0.000720715
-0.000623902
0.0057816
0.000723563
-0.000630256
0.00572264
0.000808712
-0.000625176
0.00570152
0.000911884
-0.000868891
0.00593317
0.000257669
-0.000631783
0.0062697
0.000406202
-0.000560071
0.00673079
0.000452107
-0.000560022
0.00668385
0.000392702
-0.000495848
0.00674337
0.000361541
-0.000637904
0.00674628
0.000534783
-0.000626387
0.0066502
0.000744006
-0.000598348
0.00642356
0.000991011
-0.000473912
0.00621753
0.00116402
-0.000500302
0.00607998
0.00130287
-0.000647105
0.00661188
6.08195e-05
-0.000455159
0.00749302
0.000163699
-0.000654343
0.00695084
0.000381915
-0.000627236
0.00698959
0.000481841
-0.000446717
0.00712808
0.000798287
-0.000568096
0.00702236
0.000881625
-0.000376976
0.00678228
0.00112201
-0.000365733
0.00666405
0.00125949
-0.000328501
0.00660272
0.00141224
-0.000303423
0.00647643
0.00138388
-0.00024857
0.00632999
0.00146171
-0.000838758
0.00596335
0.000247192
-0.000117632
0.0087008
0.000331274
-0.000525583
0.00878295
0.000440564
-0.00078714
0.00786958
0.000656562
-0.000581361
0.00636361
0.00109507
-0.000491974
0.00608503
0.000931826
-0.000267966
0.00595378
0.0011425
-0.000271323
0.00668913
0.00107477
-0.000332348
0.00649624
0.000964208
-0.000398429
0.00594876
0.000862084
-0.00045199
0.00608068
0.000886759
-0.000313532
0.00614366
0.00089223
-0.00115477
0.00596155
0.0003455
-0.000449294
0.0054826
0.000630881
-0.000361401
0.00601877
0.000786247
-0.000432419
0.00617239
0.000800661
0.000285976
0.00553925
0.000457829
0.000437011
0.00496454
0.000242506
0.000151289
0.00447885
0.000172771
-0.000218109
0.00444288
0.000374078
-0.000103841
0.00396096
0.000412157
-0.000281175
0.00395943
0.000410391
-0.000259035
0.00395912
0.000506709
-0.000300426
0.00405212
0.000551813
-0.000397996
0.00453147
0.0005976
-0.000644057
0.00480451
0.000359781
-0.000501639
0.0032623
0.000477958
-0.000442617
0.00258608
0.000558888
-0.000267928
0.00221082
0.000653602
-0.000174845
0.00201168
0.000672949
4.61941e-05
0.00150677
0.000610885
6.22615e-05
0.00144211
0.000548273
-8.98192e-06
0.00189495
0.000460914
-8.4398e-05
0.00230482
0.000228461
-8.37812e-05
0.00251432
0.000204741
-0.000134656
0.00285299
0.000135558
-0.000222599
0.00320516
0.000138672
-0.000360122
0.00340019
0.000172605
-0.000352476
0.00367864
0.00022487
-0.000124688
0.000557828
-8.84204e-05
-0.000201118
0.000335276
-3.27952e-05
-9.5786e-05
0.00091615
-3.86594e-05
-1.8314e-05
0.00116514
-4.88648e-05
-5.89088e-05
0.00125503
-5.37815e-05
-1.57742e-05
0.00156389
-7.05764e-05
4.19138e-06
0.00208777
-5.50664e-05
-8.6146e-06
0.00200339
-8.32516e-05
4.22066e-05
0.00119807
-0.000131089
4.40509e-06
0.000679789
-0.000144618
-2.30964e-05
0.000699647
-0.000128384
-9.38397e-05
0.000649101
-0.000118406
-0.000181491
0.000906308
-0.000100549
-0.00014784
0.00125191
-8.36082e-05
-0.000183379
0.00176753
-4.57423e-05
2.57721e-05
-0.000578103
-0.000109329
1.14874e-05
-0.00125486
-0.000148773
6.73028e-05
-3.35591e-05
-0.00011869
8.05186e-05
0.000991171
-8.76603e-05
7.10786e-06
0.000510247
-7.65247e-05
3.80702e-05
0.000325816
-8.06713e-05
8.0378e-05
7.44699e-05
-7.88469e-05