/*--------------------------------*- C++ -*----------------------------------*\
  =========                 |
  \\      /  F ield         | OpenFOAM: The Open Source CFD Toolbox
   \\    /   O peration     | Website:  https://openfoam.org
    \\  /    A nd           | Version:  7
     \\/     M anipulation  |
\*---------------------------------------------------------------------------*/
FoamFile
{
    version     2.0;
    format      ascii;
    class       volVectorField;
    location    "7";
    object      U_0;
}
// * * * * * * * * * * * * * * * * * * * * * * * * * * * * * * * * * * * * * //

dimensions      [0 1 -1 0 0 0 0];

internalField   nonuniform List<vector> 
18750
(
(3.04431 0.00404444 0.0537781)
(3.86706 -1.22997 -1.22733)
(2.95142 0.0104769 -0.446286)
(3.29749 0.403341 -1.26336)
(0.51257 1.23494 -0.808219)
(3.72112 -0.984933 -1.25447)
(4.00089 0.366372 -0.350137)
(2.70391 0.0118578 -0.880151)
(3.12579 0.382072 -1.63565)
(0.936331 1.17921 -1.02382)
(3.83047 4.36373 0.427369)
(0.135353 1.25396 -0.490815)
(1.36278 1.39682 0.343365)
(3.44473 -0.779442 -1.32733)
(4.15574 0.460121 -0.708149)
(1.98272 0.995397 -1.65454)
(2.374 -0.0059413 -1.22626)
(2.79938 0.325924 -2.0361)
(0.862368 1.15749 -0.930272)
(0.467896 1.26755 -1.79894)
(0.0898192 6.39705 0.437578)
(0.597594 4.32804 0.277384)
(2.04823 3.66848 0.291616)
(-0.326286 1.33069 -0.232623)
(1.34963 1.4531 0.416988)
(1.71952 0.696631 1.02526)
(3.11455 -0.584745 -1.33135)
(3.9862 0.585957 -0.903899)
(2.17718 0.993843 -1.75321)
(0.775979 1.13359 -0.798823)
(2.03033 -0.0397843 -1.48124)
(2.40348 0.234196 -2.38589)
(0.726395 1.09416 -0.947257)
(0.41897 1.24952 -1.86303)
(0.444212 0.65834 -2.08686)
(-0.786793 5.04881 0.46543)
(-1.46804 6.57953 -0.323799)
(0.604804 6.53136 1.31177)
(-0.455186 4.23028 0.314122)
(1.06267 3.53627 0.410322)
(-0.185543 3.16296 0.499013)
(-0.676481 1.45934 0.0441082)
(1.08346 1.84528 0.600283)
(1.34331 0.799097 0.958558)
(0.885377 1.36275 1.8535)
(2.75082 -0.419739 -1.28881)
(3.55728 0.6251 -0.88894)
(2.407 1.00494 -1.70551)
(0.577727 1.09568 -0.772318)
(0.65121 0.920943 -1.36751)
(1.72051 -0.0791158 -1.65575)
(1.99211 0.107985 -2.66108)
(0.709222 1.05452 -0.981647)
(0.442477 1.27406 -1.91818)
(0.337586 0.637907 -2.13122)
(0.331546 0.50154 -1.53488)
(-1.97988 3.43479 0.196872)
(-1.04602 5.02662 0.289089)
(-1.57995 5.4412 1.01276)
(-2.9857 6.15882 -0.688298)
(0.59193 6.62173 2.06676)
(0.42872 5.16186 2.87986)
(-0.712514 4.36467 0.450489)
(1.26599 3.77097 0.445842)
(-0.183091 3.26283 -0.260884)
(0.176762 2.36756 0.456146)
(-1.13964 1.39285 0.22504)
(0.528878 1.50421 0.832324)
(1.01262 0.792858 1.0577)
(0.898129 1.12862 2.05404)
(0.45797 1.55736 1.65398)
(2.38028 -0.28421 -1.22062)
(3.06177 0.601258 -0.776421)
(2.47774 1.02358 -1.58423)
(0.59353 1.02087 -0.826858)
(0.568508 0.932137 -1.24725)
(0.453607 0.917291 -1.28)
(1.47767 -0.111069 -1.76463)
(1.62624 -0.0522389 -2.85587)
(0.687856 1.04038 -0.965862)
(0.46308 1.3443 -1.94129)
(0.228824 0.608952 -2.16372)
(0.264523 0.488105 -1.51353)
(1.20475 0.470065 -1.65436)
(-1.8908 2.47914 0.275501)
(-2.21078 3.39747 0.0476297)
(-1.69004 3.56866 0.775621)
(-1.14916 4.86305 0.0785757)
(-1.80223 5.66336 0.978)
(-1.37404 5.52035 1.62352)
(-2.99647 6.00904 -0.912211)
(-1.01919 6.29501 2.06752)
(-0.855236 5.34424 2.43649)
(-0.451646 4.59955 2.14678)
(-1.62996 3.98149 0.419864)
(-0.0173528 4.09445 1.11889)
(0.194997 3.42393 -0.377379)
(0.72709 2.48894 0.936523)
(0.249169 2.43519 0.880841)
(-1.57247 1.3808 0.301104)
(-0.0397815 1.42636 1.02175)
(0.557875 0.713623 1.30821)
(0.854474 1.15878 1.91744)
(0.357922 1.76991 1.80342)
(-0.324763 0.918361 2.11826)
(2.01292 -0.184684 -1.14977)
(2.50292 0.532896 -0.675907)
(2.4247 1.08633 -1.37844)
(0.647013 0.978722 -0.868792)
(0.457512 0.941818 -1.06008)
(0.425543 0.93665 -1.1637)
(0.243761 1.16279 -1.24745)
(1.30872 -0.117858 -1.82694)
(1.37946 -0.16603 -2.9623)
(0.611922 0.955725 -1.09907)
(0.436572 1.31229 -2.00468)
(0.102692 0.562683 -2.19578)
(0.222518 0.469113 -1.48886)
(1.09235 0.48487 -1.72703)
(1.07182 0.474958 -2.13635)
(-2.40036 2.1274 0.0817079)
(-1.92156 2.42539 0.302452)
(-1.72114 3.05912 0.506615)
(-2.20301 3.29673 0.0830177)
(-1.47204 3.6002 1.49559)
(-1.14308 3.97047 0.840433)
(-1.27478 4.62627 0.0352429)
(-1.96045 5.61941 0.81772)
(-1.63973 5.59053 1.44748)
(-0.737139 5.62808 1.65668)
(-2.17108 6.06194 -1.09181)
(-2.05456 6.15827 2.02372)
(-1.24537 5.34348 2.29213)
(-1.2621 4.48978 1.9477)
(-0.899118 3.95834 2.4428)
(-2.33657 3.60752 0.328743)
(-1.03029 3.85392 1.41228)
(0.214598 3.60512 0.0899058)
(-0.11718 2.59139 1.12672)
(-0.646203 2.46182 0.98166)
(-0.35209 2.97184 1.24017)
(-2.05224 1.29574 0.356203)
(-0.591675 1.48658 1.28455)
(0.0916735 0.636691 1.51307)
(0.417442 1.02043 1.88983)
(-0.0975054 1.57329 2.20033)
(-0.435926 0.703934 2.54987)
(-0.163036 0.510139 1.68696)
(1.64871 -0.103199 -1.07806)
(1.87489 0.425678 -0.451744)
(2.33174 1.09397 -1.19714)
(0.701781 0.963535 -0.92662)
(0.305668 0.939911 -0.875532)
(0.363134 0.966518 -1.00914)
(0.191465 1.19826 -1.15832)
(0.00663206 1.11249 -0.978602)
(1.22481 -0.0821382 -1.83855)
(1.0875 -0.300496 -3.10075)
(0.606336 0.917181 -1.267)
(0.437511 1.27803 -2.06875)
(0.0351895 0.531295 -2.20248)
(0.222261 0.4594 -1.45177)
(0.989623 0.500292 -1.76491)
(1.00308 0.498218 -2.08262)
(0.227212 0.185515 -2.10808)
(-1.71316 2.4734 -0.0470361)
(-2.53459 1.901 -0.0264729)
(-1.48307 2.88879 0.29772)
(-2.08684 2.39861 0.218012)
(-1.87026 2.937 0.506308)
(-0.877858 3.55777 0.750786)
(-2.1486 3.30807 0.165024)
(-1.98397 3.4092 1.21623)
(-1.34046 3.84726 0.900714)
(-0.683441 4.01441 1.00937)
(-1.47928 4.60112 0.0472331)
(-2.41783 5.32386 0.319109)
(-1.50872 5.59802 1.3424)
(-0.362804 5.44603 1.83622)
(0.323502 5.14169 2.24763)
(-2.94176 5.50239 -0.651087)
(-2.41667 6.07623 2.2008)
(-2.0035 5.28342 1.82655)
(-0.906893 4.79943 2.32572)
(-0.93809 3.82263 2.67418)
(-0.978153 3.97455 2.54661)
(-3.15534 3.09342 -0.0552332)
(-1.86987 3.6703 1.29649)
(-0.266874 3.68208 0.633987)
(-0.822923 2.43647 1.3545)
(-0.0717387 2.59269 0.639109)
(-0.152669 2.917 1.13992)
(0.326948 2.55004 -0.0535356)
(-2.48135 1.17473 0.476957)
(-1.05456 1.49833 1.38525)
(-0.426925 0.662042 1.63892)
(0.129415 0.951467 1.927)
(-0.146454 1.59371 2.37408)
(-0.623658 1.08822 2.41282)
(-0.298559 0.517334 1.90662)
(0.526619 0.78043 1.19922)
(1.29991 -0.0400652 -1.00892)
(1.38426 0.26337 -0.330872)
(2.12064 1.15077 -1.11007)
(0.769897 0.990821 -0.964362)
(0.161301 0.898385 -0.798955)
(0.214697 0.982397 -0.791264)
(0.129343 1.23303 -1.06371)
(-0.0302114 1.12585 -0.880169)
(-0.0612116 0.687381 -1.1597)
(1.16997 -0.034718 -1.82158)
(1.178 -0.296606 -3.139)
(0.616287 0.875872 -1.5155)
(0.3199 1.35505 -2.0763)
(-0.0481389 0.489816 -2.17654)
(0.202607 0.451549 -1.4048)
(0.881591 0.505036 -1.77759)
(0.919245 0.508596 -2.0139)
(0.166235 0.175698 -2.00607)
(0.222531 -0.18925 -1.56833)
(-1.73433 2.17864 0.00940586)
(-1.87611 2.26633 -0.0609549)
(-1.21769 3.06767 0.213882)
(-2.58011 1.7472 -0.0382456)
(-1.82295 2.59127 0.386883)
(-0.944889 3.21276 0.18163)
(-1.99555 2.52659 0.434881)
(-1.98043 2.90721 0.341685)
(-1.0535 3.51154 0.660186)
(-0.601674 3.61448 0.738742)
(-2.38604 3.26329 0.121406)
(-2.46827 3.25842 0.898556)
(-1.47239 3.94374 0.814998)
(-0.891776 3.93706 0.946086)
(-0.606913 4.03698 1.23493)
(-1.74495 4.65101 0.376006)
(-2.27538 5.23197 0.125203)
(-1.14233 5.49771 1.40813)
(-0.957983 5.07696 1.71447)
(-0.294709 4.96813 2.26084)
(0.0735063 4.92141 2.35784)
(-3.33997 5.03936 -0.360001)
(-3.32464 5.37669 1.58154)
(-2.29107 5.24733 1.61281)
(-1.97716 4.60614 2.11479)
(-1.95289 3.53396 2.14003)
(-1.59544 3.7185 2.68599)
(-0.6084 3.89618 2.50512)
(-3.84826 2.65824 -0.431062)
(-2.59011 3.54795 1.41613)
(-1.00163 3.61212 1.16492)
(-0.911045 2.70347 1.37385)
(0.274239 2.85838 0.142011)
(-0.629152 3.1717 0.934833)
(0.0925354 2.7674 0.279455)
(0.288566 2.6135 0.391174)
(-2.86218 1.13058 0.579599)
(-1.17796 1.46132 1.66076)
(-0.721232 0.379664 2.01919)
(-0.210447 0.92281 2.04527)
(-0.209488 1.49564 2.23112)
(-0.865296 0.828535 2.64936)
(-0.361748 0.545581 2.05988)
(0.376719 0.899033 1.41507)
(0.424618 1.04803 0.594725)
(0.968138 0.00545149 -0.943056)
(0.870996 0.123498 -0.217541)
(1.88803 1.16705 -1.02263)
(0.798599 1.02131 -0.937226)
(0.0884937 0.858036 -0.781566)
(0.102803 1.02065 -0.62543)
(0.0392165 1.26309 -0.918774)
(-0.143418 1.13131 -0.744985)
(-0.0817164 0.672655 -1.04397)
(0.051883 0.369171 -1.31879)
(1.09928 0.0112614 -1.80083)
(1.17995 -0.291606 -3.19097)
(0.622676 0.83503 -1.81234)
(0.279667 1.27828 -2.13962)
(-0.102404 0.443326 -2.12816)
(0.146416 0.421743 -1.39218)
(0.785417 0.500849 -1.76323)
(0.828554 0.514943 -1.93543)
(0.138382 0.168329 -1.90806)
(0.195434 -0.198763 -1.50157)
(0.192711 -0.295354 -1.41951)
(-1.24366 2.03809 -0.00577596)
(-1.88465 2.07019 0.0576461)
(-1.17053 2.81898 -0.23141)
(-1.92497 2.10143 0.0758257)
(-1.48326 2.89307 0.28795)
(-0.776349 3.14059 0.0395924)
(-2.64075 1.55045 -0.0387952)
(-2.03468 2.43924 0.439275)
(-1.24641 3.03175 0.240627)
(-0.870718 3.19299 0.429917)
(-1.95627 2.54633 0.59869)
(-2.16102 2.83019 0.275019)
(-1.16192 3.48736 0.659128)
(-0.980113 3.62557 0.591806)
(-0.811115 3.59902 0.765868)
(-2.59577 3.20834 0.195175)
(-2.63254 3.30624 0.728286)
(-1.70887 4.00139 0.746308)
(-1.173 4.01885 0.841571)
(-0.999852 4.00633 1.03805)
(-0.327109 4.02837 1.68186)
(-1.7472 4.62981 0.563274)
(-2.44614 4.97274 -0.0840792)
(-1.20438 5.32315 1.48426)
(-1.4124 5.0074 1.52174)
(-0.66837 4.80948 2.24125)
(0.143662 4.67468 2.50531)
(-0.039752 4.58663 2.55899)
(-3.17503 4.85724 -0.155679)
(-4.2083 4.83301 0.887151)
(-2.79618 5.08365 1.27663)
(-2.75037 4.28291 1.91572)
(-0.210981 3.95863 2.57384)
(-1.4737 3.7947 2.16055)
(-1.23861 3.81411 2.67857)
(-0.762291 3.87906 2.55159)
(-4.45127 1.9353 -0.17778)
(-2.40638 3.59024 2.08758)
(-1.71426 3.53247 1.29309)
(-1.34929 2.74066 1.64087)
(-1.10366 2.64088 0.910503)
(-0.942479 3.14684 0.756259)
(-0.447177 2.93256 0.407517)
(0.0891487 2.68318 0.499894)
(-0.178852 2.27769 0.319034)
(-3.14982 1.06843 0.733827)
(-2.08497 0.849702 1.66521)
(-1.45487 0.67129 1.92642)
(-0.669045 0.771769 2.29124)
(-0.395752 1.55346 2.25317)
(-0.911806 0.837935 2.77757)
(-0.644703 0.626871 2.11497)
(0.211775 0.888236 1.63135)
(0.327678 1.15708 0.63023)
(0.187736 1.37035 0.402432)
(0.662416 0.0350767 -0.889048)
(0.411183 -0.0346287 -0.15959)
(1.55263 1.1667 -0.846896)
(0.731157 1.05359 -0.816416)
(0.0746755 0.843417 -0.741861)
(0.0854972 1.04581 -0.618881)
(-0.0678859 1.29552 -0.784879)
(-0.309799 1.12161 -0.632251)
(-0.226225 0.67837 -0.923778)
(0.00797677 0.401034 -1.33927)
(-0.115626 0.405808 -1.57403)
(1.01909 0.0646703 -1.77438)
(1.15677 -0.273844 -3.22909)
(0.63132 0.80773 -2.1122)
(0.251065 1.25886 -2.17106)
(-0.126909 0.410842 -2.05524)
(0.132636 0.410281 -1.404)
(0.691318 0.493373 -1.73588)
(0.735307 0.514027 -1.85415)
(0.14484 0.165626 -1.82603)
(0.159551 -0.210928 -1.44143)
(0.191238 -0.296796 -1.37285)
(-0.262492 -0.577727 -1.26916)
(-1.34576 1.77116 0.0689188)
(-1.48211 1.84239 -0.0336602)
(-1.18061 2.41775 0.16922)
(-1.07828 2.151 -0.0790871)
(-1.9648 2.01092 0.0713733)
(-1.2502 2.83427 -0.296284)
(-0.77393 3.03304 0.0855209)
(-2.08663 1.8796 0.156885)
(-1.88423 2.60076 0.0133447)
(-0.92405 3.10938 0.0929632)
(-0.869073 3.16291 0.225133)
(-2.5928 1.50353 0.0383809)
(-2.25553 2.35157 0.476737)
(-1.34029 3.03487 0.236304)
(-0.938164 3.18544 0.48714)
(-0.682477 3.33826 0.532013)
(-1.881 2.55147 0.721511)
(-2.43016 2.64163 0.223403)
(-1.35217 3.45652 0.582507)
(-1.3393 3.53815 0.603332)
(-1.1083 3.62938 0.793232)
(-0.837913 3.60931 0.9027)
(-2.73084 3.05905 0.256774)
(-2.94991 3.25983 0.690792)
(-1.89032 4.07206 0.776332)
(-1.54337 4.08798 0.822201)
(-1.33088 4.06824 0.958961)
(-0.901579 4.05267 1.36868)
(-0.260049 4.0061 1.89623)
(-1.84069 4.57292 0.701759)
(-3.06787 4.51905 -0.123038)
(-2.16608 4.7909 1.41356)
(-2.08357 4.70243 1.39292)
(-1.88751 4.4546 1.82685)
(-0.686141 4.42147 2.33528)
(-0.182929 4.56392 2.54738)
(-0.20468 4.43917 2.68146)
(-4.58398 3.02006 -0.0719543)
(-4.43417 4.65234 0.710819)
(-3.09913 5.01223 1.03169)
(-3.15671 4.22832 1.85212)
(-2.62249 3.68642 1.87664)
(-1.00672 3.50625 2.53986)
(-1.89637 3.69916 2.83122)
(-0.744192 4.03123 2.74054)
(-0.224596 3.83809 2.19884)
(-4.72606 1.61229 0.0844055)
(-2.66369 3.39913 2.16753)
(-2.58571 3.03471 1.63114)
(-1.90624 2.93035 1.52644)
(-2.19248 2.57372 1.04594)
(0.21485 3.263 0.145396)
(-0.544922 3.0411 0.200081)
(-0.28483 2.73828 0.745756)
(-0.303552 2.37413 0.398947)
(-0.202781 2.40133 0.536283)
(-3.331 0.999439 0.914502)
(-2.46767 0.781757 1.84148)
(-1.21145 0.170664 2.54166)
(-1.25033 0.686785 2.44354)
(-0.421735 1.33954 2.77306)
(-0.723205 0.956824 2.71667)
(-0.429224 0.691901 2.11966)
(0.0271191 1.0807 1.67707)
(0.151871 1.1913 0.797285)
(0.0962432 1.43348 0.511731)
(-0.234929 1.68997 0.390596)
(0.388649 0.0599449 -0.851202)
(-0.0277484 -0.210809 -0.100476)
(1.21624 1.1282 -0.637068)
(0.620284 1.07558 -0.704737)
(0.0059951 0.816478 -0.600489)
(0.02508 1.06494 -0.592067)
(-0.187972 1.31739 -0.681729)
(-0.365011 1.1299 -0.58943)
(-0.198466 0.677122 -0.914317)
(-0.0216432 0.413282 -1.31649)
(-0.165652 0.426972 -1.50445)
(-0.164215 0.384669 -1.5966)
(0.934967 0.115076 -1.74288)
(1.13107 -0.237533 -3.25562)
(0.640236 0.766851 -2.39803)
(0.272899 1.25391 -2.19218)
(-0.125646 0.389544 -1.96794)
(0.125093 0.399417 -1.43146)
(0.662454 0.499826 -1.73618)
(0.644042 0.503951 -1.77587)
(0.171744 0.16772 -1.76282)
(0.120119 -0.225539 -1.39089)
(0.188582 -0.295933 -1.32893)
(-0.26508 -0.606853 -1.23928)
(-0.547737 -0.783438 -1.02907)
(-1.22665 1.64839 0.0574476)
(-1.4514 1.70576 0.0352678)
(-0.975212 2.23109 -0.0226849)
(-1.24347 1.82695 0.104992)
(-1.61011 1.75062 -0.0774908)
(-1.23496 2.33514 0.0609376)
(-0.911749 2.65667 0.168985)
(-0.952558 2.48834 0.0873847)
(-2.09452 1.88816 0.0668627)
(-1.2813 2.78391 -0.282465)
(-0.732556 3.02987 0.0847784)
(-0.779099 3.00805 0.212929)
(-2.18829 1.70978 0.146396)
(-2.08774 2.41195 -0.0519133)
(-1.1247 3.00061 0.109073)
(-1.14976 3.08519 0.289532)
(-0.999395 3.17392 0.420675)
(-2.65507 1.38197 -0.0128831)
(-2.4942 2.10897 0.470054)
(-1.68281 2.92135 0.344485)
(-1.3335 3.10422 0.587786)
(-1.07435 3.32025 0.552088)
(-0.745034 3.4078 0.863373)
(-1.86637 2.59099 0.756824)
(-2.12361 2.94411 0.0621653)
(-1.66669 3.40495 0.576357)
(-1.65858 3.50767 0.589897)
(-1.54395 3.53492 0.788269)
(-0.865509 3.7249 1.00541)
(-0.935903 3.58171 1.06376)
(-2.98423 2.88532 0.317085)
(-3.0908 3.2249 0.733439)
(-2.46774 3.94201 0.631411)
(-1.841 4.02914 0.844861)
(-1.59892 4.13708 0.833153)
(-1.14962 4.10876 1.21383)
(-1.00337 4.07765 1.54248)
(-0.656299 3.87559 1.95608)
(-2.55777 4.16046 0.424752)
(-3.20176 4.30616 -0.15372)
(-3.06006 4.22593 1.24978)
(-2.65228 4.32487 1.3432)
(-2.18969 4.50259 1.70952)
(-1.36271 4.35658 2.03535)
(-0.598601 4.43879 2.36985)
(-0.586267 4.42411 2.69014)
(-0.56986 4.17549 2.73067)
(-4.85666 2.75331 0.00422241)
(-4.65326 4.44775 0.715888)
(-3.73124 4.64669 0.836772)
(-3.82921 4.01407 1.32896)
(-2.77894 3.36059 1.82634)
(-1.45594 3.57816 2.19502)
(-1.75485 3.58582 2.87752)
(-1.44768 4.03667 2.89211)
(-0.574097 3.87847 2.30836)
(-0.679493 3.79022 2.06448)
(-4.84954 1.27361 0.222331)
(-2.93533 3.28965 1.97503)
(-2.38757 3.38646 1.77512)
(-1.80803 3.0377 2.35582)
(0.481761 3.94626 -0.015084)
(-1.31217 3.18721 0.665889)
(-0.754682 2.96294 0.217951)
(-0.87798 2.76781 0.897442)
(-0.761322 2.29506 0.793733)
(-0.573267 2.40561 0.665285)
(-0.258087 2.50685 1.11077)
(-3.44082 1.02584 0.99251)
(-2.45974 0.581614 1.9234)
(-2.05194 0.65841 2.21357)
(-1.39904 0.428182 2.69735)
(-1.01511 1.21901 2.90149)
(-0.824987 0.791373 3.04703)
(-0.477216 0.76528 2.34067)
(0.0500376 0.875913 2.13403)
(0.0637297 1.29881 0.973982)
(-0.0733991 1.45715 0.666837)
(-0.244674 1.69571 0.483245)
(-0.265507 1.91001 0.144311)
(0.143383 0.0764603 -0.827918)
(-0.370453 -0.369166 -0.110807)
(0.872123 1.05825 -0.406683)
(0.44382 1.09519 -0.632919)
(-0.132473 0.780805 -0.41464)
(0.00403447 1.0784 -0.598362)
(-0.215478 1.33484 -0.633036)
(-0.440338 1.15148 -0.485993)
(-0.232725 0.701194 -0.915139)
(-0.0999358 0.416008 -1.25373)
(-0.221459 0.424291 -1.39419)
(-0.417066 0.358901 -1.41497)
(-0.246614 0.467833 -1.29848)
(0.851178 0.165272 -1.70797)
(1.10879 -0.226814 -3.269)
(0.631771 0.741342 -2.65246)
(0.209563 1.24058 -2.25224)
(-0.116181 0.379739 -1.87359)
(0.133925 0.397493 -1.48023)
(0.700309 0.533235 -1.77092)
(0.561434 0.492981 -1.696)
(0.202222 0.176196 -1.71011)
(0.0835053 -0.243078 -1.35496)
(0.188606 -0.293726 -1.28697)
(-0.243486 -0.597015 -1.22916)
(-0.591923 -0.787617 -0.982347)
(-0.303453 -0.582792 -1.46108)
(-1.25231 1.53909 0.0371962)
(-1.32642 1.60869 0.0912481)
(-0.991045 2.00415 -0.0100014)
(-1.10612 1.72974 0.0687506)
(-1.57251 1.61006 0.00442677)
(-1.25287 2.03737 0.0650455)
(-0.691834 2.43118 0.0915586)
(-1.02204 2.24391 0.0248434)
(-1.77656 1.65023 -0.0564258)
(-1.3404 2.29355 0.0267874)
(-1.06947 2.576 0.0325764)
(-0.999531 2.66045 0.220188)
(-0.89981 2.69614 0.219504)
(-2.2449 1.65928 0.0399008)
(-1.71672 2.41532 -0.0344762)
(-1.29041 2.72394 0.093771)
(-0.727663 3.02471 0.126967)
(-0.84051 2.9791 0.387135)
(-2.18922 1.65439 0.115226)
(-2.11582 2.30343 -0.0359079)
(-1.4262 2.79738 0.208828)
(-1.3661 2.95603 0.31287)
(-1.33825 3.11629 0.337674)
(-0.95212 3.21758 0.644882)
(-2.76901 1.292 -0.0479671)
(-2.13767 2.29048 0.616819)
(-1.92604 2.77789 0.415394)
(-1.53792 3.00849 0.599996)
(-1.33845 3.24108 0.562023)
(-0.941681 3.41887 0.825252)
(-0.769979 3.39346 0.855941)
(-2.13476 2.48803 0.688225)
(-2.22302 2.76423 0.0651922)
(-2.03416 3.30343 0.547071)
(-2.07885 3.36269 0.527415)
(-2.00586 3.37189 0.797924)
(-1.77283 3.42915 0.939101)
(-1.10077 3.59346 1.04887)
(-1.06419 3.543 1.13049)
(-3.53126 2.47724 0.329)
(-3.30556 2.94782 0.701254)
(-2.57177 3.89643 0.571825)
(-2.26015 3.90227 0.783444)
(-1.81768 4.04245 0.755538)
(-1.59232 4.10282 1.14147)
(-1.22974 4.10185 1.46203)
(-0.937833 3.91225 1.8155)
(-0.664376 3.82455 2.10018)
(-3.23707 3.54451 0.0574959)
(-3.21662 4.16079 -0.0476024)
(-3.31773 3.91239 1.02033)
(-3.14431 3.94259 1.02455)
(-2.59899 4.04385 1.49792)
(-1.68779 4.33612 2.00952)
(-1.33025 4.11713 2.40133)
(-0.655582 4.39979 2.58943)
(-0.129208 4.26065 2.8017)
(-0.340693 4.08614 2.93708)
(-4.92532 1.6681 -0.312744)
(-4.76974 4.28425 0.994803)
(-4.19667 4.31246 0.582976)
(-3.97916 3.75261 1.307)
(-1.06241 3.97974 2.23639)
(-2.01345 3.33008 2.64219)
(-1.48393 3.75283 2.62832)
(-1.94233 3.93961 2.87967)
(-0.879207 4.00539 2.3158)
(-1.02461 3.68836 2.10432)
(-0.909736 3.82527 2.15374)
(-4.89383 1.06052 0.322855)
(-3.65019 2.17345 1.7737)
(-2.87031 3.10261 1.97076)
(-2.52518 3.50997 1.9089)
(-2.64118 2.6768 1.02881)
(-0.56059 3.41175 0.245076)
(-1.95421 2.57042 0.757625)
(-1.14093 2.69084 0.917448)
(-0.898941 2.52246 0.875616)
(-1.05277 2.30662 0.903123)
(-0.580923 2.52339 1.2401)
(-0.49319 2.85015 1.48186)
(-3.5382 0.927385 1.01049)
(-2.47646 0.443794 2.01237)
(-1.71943 0.109762 2.84412)
(-1.7509 0.46198 2.69221)
(-1.22442 0.775835 3.08462)
(-0.927165 0.710744 3.17063)
(-0.91353 0.691611 2.53515)
(-0.563177 1.26619 1.88622)
(-0.106616 1.29472 1.28511)
(-0.191635 1.54127 0.766544)
(-0.361206 1.73056 0.49837)
(-0.424339 1.97056 0.27254)
(-1.16955 2.0249 0.596069)
(-0.118793 0.0835577 -0.798865)
(-0.545004 -0.439284 -0.222481)
(0.479613 0.976116 -0.157714)
(0.343983 1.12013 -0.643038)
(-0.316419 0.729889 -0.256629)
(-0.0816356 1.10011 -0.57099)
(-0.281007 1.37261 -0.591743)
(-0.538395 1.15334 -0.432598)
(-0.336375 0.716721 -0.867405)
(-0.151162 0.42899 -1.16559)
(-0.298797 0.401217 -1.26127)
(-0.630306 0.311436 -1.20987)
(-0.65368 0.451885 -0.967121)
(-0.202759 0.733129 -1.13559)
(0.766984 0.218402 -1.66856)
(1.08003 -0.190112 -3.27842)
(0.63823 0.726127 -2.85056)
(0.196885 1.1877 -2.28507)
(-0.10101 0.369327 -1.77693)
(0.159617 0.412865 -1.54512)
(0.769993 0.587338 -1.82545)
(0.518394 0.490763 -1.64037)
(0.184123 0.169346 -1.67322)
(0.0557225 -0.258086 -1.33762)
(0.181531 -0.293502 -1.24523)
(-0.253477 -0.609705 -1.18507)
(-0.626096 -0.803843 -0.960841)
(-0.326653 -0.584271 -1.44227)
(-0.34199 -0.399715 -1.63479)
(-1.03536 1.52792 -0.000281527)
(-1.38759 1.46193 -0.055157)
(-1.03536 1.88537 -0.00707064)
(-1.16047 1.61289 0.0450869)
(-1.49323 1.51283 0.0481683)
(-1.06648 1.97168 0.00531459)
(-1.05636 2.13081 0.177178)
(-0.849971 2.08147 -0.0440808)
(-1.73081 1.48151 0.0175271)
(-1.39126 1.95692 0.109289)
(-0.942225 2.35164 0.169766)
(-0.820444 2.46386 0.362275)
(-0.469463 2.48688 0.0829482)
(-1.88133 1.56373 -0.0475357)
(-1.60328 2.16649 0.0272705)
(-1.29481 2.47568 0.150906)
(-1.21213 2.57504 0.318965)
(-1.35752 2.55744 0.433011)
(-0.618153 2.77381 0.165496)
(-2.12129 1.73724 0.0864417)
(-1.93242 2.25881 0.0107871)
(-1.56172 2.60756 0.107095)
(-1.14656 2.76253 0.266233)
(-1.13093 2.86392 0.425881)
(-0.977406 2.99176 0.527869)
(-2.33232 1.39649 0.15987)
(-2.35344 1.94043 0.00943644)
(-1.49232 2.7634 0.245401)
(-1.65242 2.72763 0.379215)
(-1.56091 2.99081 0.352553)
(-1.23559 3.16395 0.608295)
(-0.85777 3.2406 0.779292)
(-2.87695 1.22514 -0.0393958)
(-2.29945 2.10665 0.668151)
(-2.02015 2.71209 0.391984)
(-1.45116 3.10115 0.577014)
(-1.54415 3.14441 0.582935)
(-1.38079 3.31663 0.757928)
(-0.999682 3.34465 0.887482)
(-0.954136 3.48067 0.921856)
(-2.63216 2.16013 0.429129)
(-2.3057 2.69546 0.0942998)
(-2.22373 3.15381 0.5386)
(-2.13481 3.27279 0.551235)
(-2.08539 3.34148 0.813149)
(-1.5005 3.63221 0.957785)
(-1.41305 3.54635 1.03863)
(-1.09514 3.59215 1.12709)
(-0.886775 3.62764 1.27108)
(-3.50032 2.60449 0.27339)
(-3.14974 3.11339 0.564683)
(-2.75663 3.65792 0.687851)
(-2.41923 3.83778 0.742536)
(-1.98044 3.99475 0.63193)
(-2.12844 3.99236 0.873509)
(-2.01019 3.94547 1.16915)
(-1.49082 3.91384 1.60537)
(-1.07092 3.86209 1.92204)
(-0.945739 3.85964 2.13584)
(-3.35915 3.27302 -0.182893)
(-3.10639 3.98761 0.246065)
(-3.67539 3.31184 0.725335)
(-3.49453 3.5675 0.806691)
(-2.73234 3.88012 1.40234)
(-2.31227 4.05881 1.63187)
(-1.70292 4.15858 2.16685)
(-1.28767 4.21127 2.38826)
(-1.02981 4.1795 2.83079)
(-0.599322 4.15467 2.94401)
(-0.249221 4.04394 3.04874)
(-4.62647 1.9381 0.364342)
(-4.10384 4.58192 1.0611)
(-4.28478 4.23059 0.657926)
(-4.05748 3.67885 1.33108)
(-2.67438 3.65449 2.04606)
(-2.87192 3.24713 1.80162)
(-1.73003 3.56942 2.84974)
(-1.61569 4.08653 2.8547)
(-1.59715 3.83019 2.5517)
(-1.35558 3.69954 2.09269)
(-1.19204 3.82022 2.11154)
(-0.725314 3.91125 2.23141)
(-4.95408 0.806801 0.315995)
(-3.97176 1.67248 1.69792)
(-3.48391 2.4962 2.11574)
(-2.93982 2.85997 2.68106)
(0.605031 4.33351 1.22302)
(0.200448 3.84225 0.266235)
(0.299328 3.31206 -0.140057)
(-1.44664 2.64939 0.948191)
(-1.41327 2.25645 1.27022)
(-1.0713 2.42996 1.09393)
(-0.897869 2.44997 1.47163)
(-1.61016 2.41178 1.63432)
(-1.03185 2.94672 2.05332)
(-3.54764 0.900146 1.03897)
(-2.61255 0.504744 2.1103)
(-2.588 0.119522 2.28385)
(-1.71076 0.412678 2.74403)
(-1.29909 0.741594 3.06608)
(-1.00704 0.583706 3.01857)
(-0.747537 0.637642 2.51996)
(-0.287613 1.08398 2.11323)
(-0.453519 1.5902 1.08937)
(-0.31394 1.51879 1.06011)
(-0.469113 1.76081 0.62825)
(-0.736125 1.96419 0.374276)
(-1.32859 2.0897 0.746673)
(-1.36008 2.2971 0.74316)
(-0.30216 0.0781423 -0.781851)
(-0.624128 -0.421111 -0.382208)
(0.069075 0.855297 -0.0339818)
(0.217125 1.15903 -0.611499)
(-0.410691 0.707088 -0.205657)
(-0.183656 1.1051 -0.545667)
(-0.295796 1.42945 -0.550085)
(-0.622878 1.16651 -0.356197)
(-0.341213 0.682794 -0.921983)
(-0.193315 0.396584 -1.10624)
(-0.282719 0.403105 -1.15868)
(-0.693333 0.268778 -1.07964)
(-0.836836 0.442268 -0.812024)
(-0.45308 0.749913 -0.907654)
(-0.727183 1.09173 -0.548536)
(0.682262 0.2642 -1.62069)
(1.07265 -0.0583547 -3.28315)
(0.670246 0.740807 -2.99023)
(0.180957 1.13637 -2.25581)
(-0.134179 0.341956 -1.67199)
(0.204364 0.450402 -1.6142)
(0.851936 0.653867 -1.88887)
(0.51492 0.499895 -1.63145)
(0.182307 0.167293 -1.64559)
(0.0277795 -0.277801 -1.34157)
(0.158868 -0.300488 -1.20602)
(-0.317767 -0.619965 -1.12974)
(-0.668295 -0.825899 -0.939329)
(-0.356887 -0.57409 -1.42794)
(-0.36597 -0.388454 -1.63685)
(-0.336464 -0.0523091 -1.77326)
(-1.0365 1.32913 -0.0177113)
(-1.16782 1.45949 -0.0615056)
(-0.919762 1.80657 -0.0408551)
(-0.890329 1.60023 0.0180946)
(-1.55463 1.36906 -0.108028)
(-1.10578 1.84 0.0698858)
(-0.961802 2.04073 0.163339)
(-0.937017 1.97048 -0.0650956)
(-0.99409 1.72988 0.00936003)
(-1.63924 1.41321 0.0347561)
(-1.22928 1.91143 0.0839435)
(-1.06716 2.14326 0.172108)
(-1.15072 2.24632 0.234117)
(-0.972906 2.17247 0.105486)
(-1.84252 1.36154 -0.0135961)
(-1.58694 1.83649 0.116751)
(-1.23853 2.22682 0.208209)
(-0.991905 2.38778 0.412231)
(-0.731718 2.60721 0.432043)
(-0.413061 2.5188 0.190767)
(-1.93153 1.46149 -0.0629043)
(-1.55766 2.17876 0.0437574)
(-1.43738 2.41298 0.203401)
(-1.3674 2.48238 0.302258)
(-1.28363 2.58863 0.519105)
(-0.780627 2.85656 0.442632)
(-0.519611 2.82301 0.394124)
(-2.35495 1.29385 -0.0373361)
(-1.95684 2.16406 0.00956467)
(-1.89448 2.44578 0.053179)
(-1.27326 2.72416 0.325746)
(-1.19853 2.8166 0.497893)
(-1.26616 2.89489 0.51517)
(-0.844532 3.07601 0.660294)
(-2.43791 1.23795 0.13039)
(-2.3321 1.96616 0.0338088)
(-1.87885 2.52459 0.348945)
(-1.90878 2.60905 0.376575)
(-1.62379 2.932 0.433804)
(-1.50294 3.11941 0.602002)
(-1.11706 3.20512 0.787698)
(-0.916761 3.30312 0.910974)
(-2.85303 1.26235 -0.000799766)
(-2.55982 2.04286 0.643263)
(-2.26028 2.58353 0.384761)
(-1.97422 2.81828 0.636165)
(-1.62498 3.06305 0.622029)
(-1.75309 3.15192 0.751414)
(-1.37958 3.2808 0.879661)
(-1.30058 3.39024 0.903206)
(-1.05889 3.47848 1.06859)
(-2.80167 1.93131 0.28913)
(-2.42539 2.67699 0.128195)
(-2.48844 2.95271 0.619075)
(-2.35204 3.07324 0.545736)
(-2.20621 3.21409 0.834743)
(-2.07439 3.39345 1.00755)
(-1.64636 3.53793 1.11736)
(-1.6041 3.54241 1.06461)
(-1.15117 3.64638 1.21879)
(-0.894506 3.64755 1.41718)
(-3.61454 2.14816 0.201412)
(-3.40124 2.80277 0.532984)
(-2.94646 3.43158 0.828456)
(-2.57358 3.66373 0.790127)
(-2.21541 3.95147 0.566153)
(-2.54898 3.83005 0.5907)
(-1.95074 4.11395 0.908122)
(-1.80327 3.98955 1.34757)
(-1.4344 3.91326 1.74542)
(-1.22715 3.90928 2.0139)
(-0.901296 3.89626 2.31682)
(-3.90216 2.38726 -0.17249)
(-2.94867 4.09791 0.387544)
(-3.34618 3.34093 0.43465)
(-3.7891 3.14864 0.740494)
(-3.66588 3.38 1.02968)
(-2.4418 3.99437 1.76997)
(-2.13317 4.08691 1.87472)
(-1.85068 3.98984 2.33363)
(-1.50419 4.09863 2.68048)
(-1.51356 4.0596 2.82133)
(-1.41733 4.06164 2.64727)
(-0.813654 3.91951 2.92097)
(-4.84091 0.594192 -0.477673)
(-3.94312 4.20553 0.685935)
(-3.91206 4.48232 0.639057)
(-3.97096 3.72455 1.411)
(-3.13423 3.27485 1.92749)
(-1.06536 3.63107 3.28912)
(-2.18187 3.41544 2.69628)
(-2.00099 3.97251 2.70769)
(-0.906932 4.33415 2.41907)
(-1.72553 3.62127 2.26088)
(-1.43354 3.7635 2.12286)
(-0.563852 3.95436 2.27056)
(-1.2693 3.97031 2.24331)
(-4.99584 0.590297 0.468908)
(-4.13885 1.1059 1.70923)
(-3.68622 2.2021 2.23186)
(-3.24855 2.82663 2.75708)
(-2.77254 2.95956 2.35334)
(-0.837563 3.46053 1.52403)
(-0.549019 3.06782 1.34181)
(-1.31676 2.4664 1.19638)
(-1.68625 2.27548 1.43545)
(-1.49739 2.26009 1.39406)
(-1.51614 2.3607 1.47766)
(-1.5684 2.45581 1.74449)
(-1.6842 2.82536 1.93295)
(-1.31055 3.22395 1.84904)
(-3.50271 0.978262 1.02871)
(-2.76691 0.439719 2.03047)
(-2.76827 0.00387232 2.05969)
(-2.07956 0.336232 2.57354)
(-1.53577 0.599176 2.9434)
(-1.18875 0.427324 2.93742)
(-0.921042 0.640287 2.34825)
(-0.580112 1.15693 2.28683)
(0.101643 1.36822 1.95823)
(-0.46908 1.77274 0.912053)
(-0.560752 1.8252 0.753069)
(-0.80673 2.01695 0.527009)
(-1.55465 2.02293 0.931754)
(-1.48847 2.28164 0.867068)
(-1.37035 2.5889 1.24949)
(-0.521029 0.0797868 -0.776179)
(-0.659889 -0.368534 -0.592646)
(-0.303557 0.70336 -0.0497784)
(0.0289292 1.18497 -0.515755)
(-0.564335 0.665991 -0.14099)
(-0.308138 1.11009 -0.528592)
(-0.310497 1.48984 -0.518903)
(-0.67883 1.18553 -0.29848)
(-0.351258 0.746294 -0.87436)
(-0.233708 0.390683 -1.03)
(-0.311391 0.377987 -1.04915)
(-0.934294 0.188926 -0.839533)
(-1.01984 0.413058 -0.655427)
(-0.735521 0.737216 -0.66532)
(-0.881288 1.08453 -0.424377)
(-1.22358 1.10443 -0.142477)
(0.590553 0.305409 -1.56768)
(1.11015 -0.0581358 -3.24302)
(0.711017 0.78405 -3.10145)
(0.153716 1.11171 -2.16317)
(-0.139547 0.321591 -1.59577)
(0.280224 0.517545 -1.67862)
(0.930199 0.719936 -1.95639)
(0.519476 0.518656 -1.63111)
(0.211216 0.181639 -1.61243)
(0.0323682 -0.287169 -1.35581)
(0.135695 -0.309557 -1.17564)
(-0.345774 -0.632539 -1.08488)
(-0.592191 -0.799077 -1.02445)
(-0.374427 -0.571746 -1.41988)
(-0.379084 -0.374952 -1.65016)
(-0.346579 -0.0334238 -1.83553)
(-0.560495 0.304622 -1.68343)
(-0.9727 1.23277 0.00862799)
(-1.15319 1.26724 0.0129627)
(-0.903392 1.65219 0.0372919)
(-1.00982 1.31836 -0.0484623)
(-1.27028 1.43202 -0.0395902)
(-1.12042 1.6896 -0.0701055)
(-1.07783 1.89632 0.00676177)
(-0.771173 1.87043 -0.0525486)
(-0.862562 1.61849 0.0438265)
(-1.6017 1.33311 -0.0771503)
(-1.36376 1.75757 0.0725419)
(-1.25776 1.90815 0.154419)
(-0.965388 2.10299 0.229775)
(-0.71439 2.083 0.165133)
(-0.820069 2.02123 -0.0464032)
(-1.69448 1.33993 0.0352151)
(-1.61542 1.70853 0.0495118)
(-1.28001 2.06011 0.203245)
(-1.24279 2.2053 0.26377)
(-0.999227 2.35418 0.378392)
(-0.882212 2.26504 0.260615)
(-1.82293 1.34354 0.0505457)
(-1.7099 1.76539 0.0756753)
(-1.50141 2.08072 0.26375)
(-1.19532 2.27087 0.444412)
(-0.972507 2.4653 0.448525)
(-0.892214 2.56771 0.387442)
(-0.676096 2.55517 0.376193)
(-1.97303 1.39429 -0.0298621)
(-1.8367 1.8524 0.0623839)
(-1.57404 2.27254 0.193403)
(-1.61609 2.35273 0.236067)
(-1.46167 2.41065 0.518148)
(-1.33066 2.65421 0.449347)
(-1.06244 2.83371 0.52448)
(-0.75268 2.84069 0.436168)
(-2.45652 1.1481 -0.0522395)
(-2.17817 1.83377 0.0606753)
(-1.85484 2.44474 0.0829503)
(-1.81491 2.42426 0.227397)
(-1.32429 2.68047 0.492998)
(-1.40014 2.84925 0.476564)
(-1.14458 3.00442 0.65231)
(-0.878218 3.09673 0.854973)
(-2.4426 1.22189 0.104881)
(-2.35192 1.86664 -0.00440488)
(-1.90264 2.48367 0.426812)
(-1.85771 2.72468 0.403805)
(-1.64162 2.85127 0.442365)
(-1.57443 3.02232 0.571662)