/*--------------------------------*- C++ -*----------------------------------*\
  =========                 |
  \\      /  F ield         | OpenFOAM: The Open Source CFD Toolbox
   \\    /   O peration     | Website:  https://openfoam.org
    \\  /    A nd           | Version:  7
     \\/     M anipulation  |
\*---------------------------------------------------------------------------*/
FoamFile
{
    version     2.0;
    format      ascii;
    class       volScalarField;
    location    "3";
    object      nut;
}
// * * * * * * * * * * * * * * * * * * * * * * * * * * * * * * * * * * * * * //

dimensions      [0 2 -1 0 0 0 0];

internalField   nonuniform List<scalar> 
150000
(
0.00101858
0.000735405
0.0012772
0.000894532
0.000823527
0.00151979
0.000641282
0.00133125
0.00092745
0.00137402
0.00086761
0.000450791
0.000908333
0.00101875
0.00307368
0.00138115
0.00543146
0.00201251
0.000631816
0.00118119
0.000615434
0.00227437
0.00101988
0.00136514
0.000645569
0.000408149
0.000225868
0.000481946
0.000830018
0.00122591
0.00207424
0.00277464
0.00160686
0.00199011
0.00167639
0.000359175
0.00181405
0.000259822
0.00135188
0.000637066
0.00130797
0.000378987
0.000549719
0.000712709
0.00137286
0.00107538
0.00125835
0.000514829
0.000346841
0.000242312
0.000130395
0.000251878
0.000445575
0.00080709
0.00131785
0.00212779
0.00182294
0.00180448
0.00202792
0.00192635
0.00150782
0.000416069
0.00152721
0.00149872
0.00204284
0.00134841
0.00200739
0.000964415
0.00106342
0.00255683
0.00111389
0.000651021
0.000989724
0.000931964
0.00070792
0.000407278
0.000401223
0.00093789
0.000449983
0.00102694
0.00103126
0.000686385
0.000221933
0.000254909
0.000145932
0.000144989
0.000166224
0.000274558
0.000425074
0.000834966
0.00129398
0.00209263
0.00224741
0.00197999
0.0021554
0.00217042
0.00142846
0.000529274
0.00153176
0.00168798
0.00196582
0.00146299
0.000436353
0.00121916
0.00115038
0.00209768
0.00118116
0.00185465
0.00164933
0.00164331
0.00175104
0.00107683
0.000578802
0.000797076
0.000135137
0.000814902
0.00069821
0.000958226
0.00109522
0.00117026
0.000443353
0.000302232
0.000450878
0.000271802
0.000854073
0.0012059
0.000871501
0.000706639
0.000665697
0.000274453
0.000142359
0.000178473
0.000169513
0.000159449
9.14083e-05
0.000248809
0.000383205
0.000404468
0.000781493
0.00117256
0.00229064
0.00213579
0.000870673
0.00208674
0.00235538
0.00123558
0.00104932
0.00219446
0.00227487
0.00237119
0.00164105
0.000472466
0.000345263
0.00201662
0.0019552
0.00182912
0.00175207
0.00148792
0.0010161
0.00149408
0.000850148
0.000924787
0.00164802
0.00332716
0.00117899
0.0017766
0.00105673
0.00128572
0.00150358
0.00120582
0.00114887
0.000889691
0.00147745
0.00115354
0.00442956
0.000525253
0.000741917
0.00145057
0.00101711
0.0012043
0.000460783
0.000134265
0.000293739
0.000296754
0.000483224
0.000263525
0.000792299
0.00126357
0.000706105
0.000346284
0.000442061
0.000246944
0.000399057
0.000203541
9.63596e-05
0.000185112
0.00010923
0.000258488
0.000121167
0.000283639
0.000433016
0.000428934
0.000787972
0.000974868
0.00226189
0.00258771
0.000934268
0.00259658
0.00258036
0.00090204
0.000917583
0.00124298
0.00200842
0.00235287
0.00117855
0.000883657
0.000962445
0.00103063
0.00173434
0.00217917
0.00221803
0.00229184
0.000472748
0.000390606
0.00097369
0.000421446
0.00112543
0.00201426
0.00185507
0.00140212
0.000878911
0.000951832
0.000861774
0.000689429
0.00190992
0.000742403
0.000827429
0.00159217
0.00166193
0.0014766
0.0017087
0.000989458
0.000696754
0.000854056
0.000989477
0.000876798
0.000764205
0.00120165
0.000706529
0.00169894
0.000567456
0.000883316
0.000571729
0.000749488
0.00147722
0.000997117
0.000918742
0.000503304
6.65272e-05
0.000278353
0.000259872
0.000435218
0.000284316
0.000531493
0.000235808
0.000759679
0.000472852
0.000597907
0.000216806
0.000314391
0.000270243
0.000390891
0.000275274
9.24496e-05
0.000164108
0.000106337
0.00015812
0.000113332
0.000243202
9.9158e-05
0.000117806
0.00021483
0.000295652
0.000773503
0.000729292
0.00222773
0.00235971
0.000730072
0.00221298
0.00274712
0.000684443
0.000683512
0.00081395
0.00216443
0.00276059
0.00122478
0.00154901
0.00156576
0.00127838
0.00104936
0.00220699
0.00247077
0.00162894
0.000842869
0.00143133
0.000745846
0.00144787
0.0016448
0.00173687
0.00180119
0.00200891
0.00249953
0.000690116
0.000607742
0.00106882
0.00156281
0.000551145
0.000765039
0.00121856
0.00182722
0.00199252
0.00140343
0.000573313
0.000650541
9.86837e-05
0.000504345
0.000692151
0.00165161
0.00161416
0.00121919
0.000525051
0.00122883
0.00144915
0.00157
0.00128156
0.000818285
0.00105678
0.000937222
0.000479185
0.000570938
0.000367121
0.000429355
0.000958751
0.00075259
0.00128358
0.000378264
0.000599356
0.0019036
0.000796631
0.000679869
0.00120049
0.000727883
0.00088985
0.000584235
0.000150107
0.000239807
0.000213209
0.000354877
0.00029182
0.000596013
0.000323068
0.000478404
0.000368489
0.000509899
0.000546381
0.000495155
0.000259329
0.00024858
0.000252054
0.000188818
0.000233313
8.80318e-05
0.000146594
0.000116335
0.000159404
0.000209099
0.000171927
0.000110924
0.000212292
0.000141495
0.000231053
0.000196674
0.000215246
0.00073254
0.000506341
0.0021308
0.002176
0.000601964
0.00254868
0.00236705
0.000688642
0.000601685
0.000864785
0.00235199
0.00281584
0.000721105
0.00116931
0.000923206
0.000276976
0.000942333
0.00223749
0.00301451
0.00122332
0.00148723
0.00208709
0.000660459
0.00141268
0.000815045
0.000712283
0.00190948
0.00305287
0.00182222
0.00110718
0.000402668
0.000217518
0.000901324
0.000308392
0.00140525
0.000844147
0.000908056
0.00205899
0.0018859
0.00161278
0.00108772
0.00106611
0.00159126
0.00143224
0.000805316
0.00195885
0.000318949
0.00110244
0.000904228
0.000845731
0.00204135
0.00132829
0.00101778
0.000578638
0.000723406
0.000563837
0.000752003
0.00103039
0.000937978
0.00195634
0.000421505
0.00122614
0.00102867
0.000389239
0.00158467
0.0014131
0.00122156
0.00113158
0.000734626
0.000607545
0.000374493
0.00054639
0.000280667
0.000414118
0.000292187
0.000600363
0.00075854
0.000888995
0.00110123
0.00116076
0.000960205
0.00131191
0.00060872
0.000615395
0.000821633
0.00046942
0.000682628
0.000572494
0.000187651
0.000282165
0.000208126
0.000264214
0.000380387
0.000449869
0.000296688
0.000818494
0.000434791
0.000333864
0.000611828
0.000588677
0.00079951
0.000518153
0.000224929
0.000183067
0.000162841
0.000161098
0.000185564
0.000120984
0.000147638
0.000132865
0.000163406
0.00021062
0.000111803
0.000238331
0.000166426
0.000112177
0.000173831
0.000136256
0.000218717
0.000190068
0.000196887
0.000547346
0.000375888
0.00209799
0.00200988
0.000631128
0.0023877
0.00218801
0.000392513
0.000773413
0.000797117
0.00250945
0.00234625
0.000519398
0.000368626
0.000271135
0.000340491
0.000930863
0.00231198
0.00307522
0.000820252
0.000618502
0.000737401
0.000846548
0.000869744
0.000328609
0.000790673
0.00229524
0.00367793
0.00103526
0.00194059
0.00116074
0.000874312
0.000614904
0.00135351
0.000625418
0.0011535
0.00116276
0.00198883
0.00320845
0.00170771
0.00139141
0.00147866
0.000567775
0.000768133
0.00106291
0.000376965
0.00129266
0.00162426
0.000772182
0.000557206
0.00209825
0.00177625
0.00106383
0.00119011
0.00116736
0.00141696
0.000985694
0.00226502
0.00169466
0.00138878
0.00126502
0.000653243
0.000684745
0.000590023
0.000838261
0.00215759
0.0010704
0.00112891
0.000740211
0.000690513
0.000454941
0.000912323
0.000681551
0.000709224
0.000723512
0.00111614
0.00114353
0.000780035
0.000723518
0.000683911
0.000414635
0.00103731
0.0015334
0.00100544
0.000984341
0.000450329
0.000668593
0.000952063
0.000492196
0.000304047
0.000407485
0.000231866
0.000416849
0.00028458
0.000687463
0.000713131
0.00154354
0.000939561
0.00101749
0.0012336
0.00129627
0.000869984
0.000550419
0.000516588
0.000405236
0.000531051
0.000466323
0.00032377
0.000296285
0.000211643
0.000289038
0.000349302
0.000193253
0.000473018
0.000384427
0.00030534
0.000780225
0.000568888
0.00025879
0.000327243
0.000506397
0.000926446
0.000480949
0.000207491
0.00013877
0.00018375
0.000333719
0.000236015
0.000121827
0.000148276
0.000151598
0.000167468
0.00020555
0.000102491
0.000121543
0.000124319
0.000257039
0.000157314
0.000119395
0.000218044
0.000298502
0.000233447
0.000179049
0.000360378
0.00043476
0.000317451
0.00213788
0.00204491
0.000408005
0.0021389
0.00226867
0.000954401
0.000711872
0.000617211
0.00224247
0.002213
0.000659152
0.000793014
0.00030648
0.000610018
0.000822692
0.00238322
0.00237493
0.000545455
0.000601341
0.000293295
0.000441937
0.000657876
0.00063548
0.00101684
0.00239761
0.00293732
0.000628256
0.00072179
0.00192066
0.000949526
0.000731882
0.0010253
0.000746563
0.000332992
0.000661702
0.00240114
0.00355886
0.00126016
0.00154957
0.00118911
0.0012799
0.000820374
0.000806244
0.000788607
0.00112241
0.000806761
0.000495459
0.00112488
0.00204733
0.00315407
0.001267
0.00118897
0.000355609
0.0010477
0.000791521
0.000816903
0.000696474
0.000976338
0.000547884
0.000531979
0.00121989
0.000770892
0.00112502
0.00197521
0.00204446
0.000818787
0.000942127
0.00142689
0.000887037
0.0014632
0.00173939
0.00149261
0.00130644
0.00122615
0.00195276
0.00071862
0.000735905
0.000700448
0.000377659
0.000559422
0.00226176
0.000963523
0.000698728
0.000443812
0.00152333
0.000866441
0.00100282
0.000533353
0.000676906
0.000691577
0.000405464
0.000346028
0.00137355
0.00049109
0.000955581
0.000564045
0.000403777
0.000169976
0.000744129
0.00162301
0.000917991
0.000688635
0.000332375
0.000649409
0.00114625
0.000646016
0.000154313
0.000371465
0.000186411
0.000515966
0.000567073
0.000378856
0.000271069
0.000698922
0.00104375
0.0014082
0.000624259
0.000755977
0.000416522
0.0015381
0.000877795
0.000450412
0.000391134
0.000476377
0.00051649
0.000766383
0.000360207
0.000205385
0.000236112
0.000285183
0.000343605
0.000207625
0.00026537
0.000206874
0.000449154
0.000342881
0.00027705
0.0008098
0.000441919
0.000247769
0.000493948
0.000516891
0.000554626
0.000467681
0.000218149
0.000131656
0.000192861
0.000242449
0.000242893
0.000168861
8.73399e-05
0.000169467
0.000170882
0.000195678
0.000116571
9.78791e-05
0.000176017
0.000106138
0.000133754
0.000267028
0.0001435
0.000138916
0.000243532
0.00023583
0.000264171
0.000209532
0.000415244
0.00040201
0.000293025
0.00211138
0.00203818
0.000642757
0.00224215
0.00208525
0.000703771
0.000670492
0.000647318
0.00226676
0.0021773
0.000767738
0.000515149
0.000328134
0.000578481
0.000748759
0.0020276
0.00240047
0.000318872
0.000561711
0.000515185
0.000477597
0.000562942
0.000610151
0.000867184
0.00238859
0.00258839
0.000704071
0.000396439
0.000521439
0.000759179
0.00106886
0.000460187
0.000342674
0.000594498
0.000951071
0.00246783
0.00270479
0.00098354
0.000559557
0.000404878
0.000845846
0.00126279
0.000866356
0.000772872
0.000841595
0.000549681
0.000535817
0.00110913
0.00257412
0.00328425
0.00142934
0.00147251
0.00146342
0.000664122
0.000803101
0.000925186
0.000728626
0.00100565
0.000703398
0.000859774
0.00150878
0.000478226
0.000443985
0.00200568
0.00301627
0.00133391
0.00136762
0.000892296
0.000782091
0.000691903
0.000161303
0.000378652
0.000587806
0.000684503
0.000825786
0.000577321
0.000943235
0.000654817
0.00031174
0.000984714
0.0022078
0.00219578
0.000509974
0.000544173
0.00120671
0.000747075
0.00172427
0.000909414
0.000881654
0.00142911
0.00091064
0.00119329
0.000619194
0.00126492
0.000790622
0.000737911
0.00033563
0.000718752
0.000390503
0.00220448
0.000863216
0.000805645
0.0010345
0.00120909
0.000803892
0.000717136
0.000347741
0.000905966
0.00102989
0.000578062
0.000608735
0.000703365
0.000805761
0.00150362
0.000590785
0.000810521
0.000772223
0.000419895
0.000275581
0.000694051
0.00169012
0.000859247
0.000502371
0.000548639
0.000547745
0.000919583
0.000759097
0.000374516
0.000298256
0.000192058
0.00050013
0.000658268
0.000610889
0.000487628
0.00043231
0.000355441
0.000797382
0.000906369
0.000948858
0.000792796
0.000552623
0.000526266
0.00123539
0.000818391
0.000450059
0.000351224
0.000530267
0.00037242
0.000815477
0.000328615
0.000235702
0.000245433
0.000295264
0.000294723
0.000162056
0.000248833
0.000282942
0.000271281
0.000221056
0.000385277
0.000311776
0.000263593
0.000648296
0.000287073
0.000330274
0.000590636
0.000478732
0.000684917
0.000433583
0.000201897
0.000140226
0.000326311
0.00032831
0.000155331
0.000256958
0.000129435
0.000206167
0.000174123
0.000184109
9.52081e-05
7.46795e-05
0.000130132
0.000208331
0.000164542
8.58826e-05
0.000161249
0.000271793
0.00013974
0.000152527
0.000246795
0.000141767
0.000360481
0.000188395
0.000190093
0.000455195
0.000273287
0.00216874
0.00204058
0.00050906
0.00227379
0.00224491
0.000600093
0.000459492
0.000830356
0.00222229
0.00213308
0.000415057
0.000617992
0.000206391
0.000707298
0.00102089
0.00217669
0.00221201
0.000591726
0.000813286
0.000443722
0.000399614
0.000294998
0.000608867
0.000889565
0.00201953
0.00249754
0.000558415
0.000634605
0.000348343
0.000447701
0.000746457
0.00040382
0.000523903
0.000681657
0.000895327
0.00214445
0.00214322
0.000435075
0.000522386
0.000296242
0.000733447
0.00088878
0.000984484
0.000559076
0.00057686
0.000513986
0.000559421
0.000724633
0.00246391
0.00275107
0.000943864
0.000546926
0.00158648
0.00122971
0.000612723
0.00113001
0.000738826
0.000725409
0.00100525
0.00098629
0.000715164
0.000307936
0.000840035
0.00251764
0.00365459
0.00192572
0.00116208
0.00183786
0.00151519
0.000901598
0.000526424
0.000845812
0.000690774
0.000810884
0.00100464
0.000722007
0.0010137
0.000716408
0.000545672
0.0010811
0.00223948
0.00305739
0.00145864
0.0010916
0.000895037
0.00117885
0.00125814
0.000696103
0.000910498
0.00144364
0.000493484
0.000927106
0.00108449
0.00067759
0.000489142
0.00028065
0.000771237
0.000673998
0.000466899
0.00227044
0.00209991
0.00117411
0.000552852
0.000541589
0.00126606
0.00105145
0.000889736
0.000886186
0.00120927
0.000272706
0.00061389
0.00135734
0.00102304
0.000728555
0.000857148
0.000831841
0.000879645
0.000389053
0.000420239
0.000520102
0.0021791
0.000855133
0.00076543
0.0010272
0.000808189
0.000756792
0.000512508
0.000521723
0.000730398
0.000756589
0.000526217
0.000736595
0.000469017
0.000498055
0.00068568
0.000836137
0.000810331
0.00102152
0.000627279
0.000800573
0.000471136
0.000462894
0.000591826
0.00170138
0.000839454
0.000368639
0.000635776
0.00030851
0.000601571
0.000639689
0.000350243
0.000329917
0.000142325
0.000494046
0.000695868
0.000710673
0.000658163
0.00057072
0.000393466
0.000568034
0.000431084
0.00087239
0.000802013
0.00106304
0.000900402
0.000364964
0.000743495
0.000910367
0.000858698
0.000455948
0.00041111
0.000570807
0.000215523
0.000700064
0.000283432
0.000255753
0.000267289
0.000294816
0.000268891
0.000209221
0.000271992
0.000263181
0.000560155
0.000289753
0.000270382
0.00021494
0.00038763
0.000296956
0.000292552
0.000650262
0.000664637
0.00038721
0.000461842
0.000457337
0.000649464
0.000404333
0.000192883
0.000143484
0.000324436
0.000664242
9.04725e-05
0.000272007
9.47492e-05
0.000224358
0.000179808
0.000169323
9.46162e-05
6.57557e-05
0.00018836
8.79871e-05
0.000232713
0.000362313
9.18104e-05
0.000313899
0.000151781
0.000261867
0.000168874
0.000154572
0.00025471
0.000160956
0.000363981
0.00022956
0.000189258
0.000461691
0.000242027
0.00209675
0.00222872
0.000675984
0.00231427
0.00205174
0.000662298
0.000455834
0.000549598
0.00230755
0.00205458
0.000472979
0.000557169
0.000361777
0.000476477
0.000649723
0.00220238
0.00202103
0.000701046
0.000793309
0.000381751
0.000443409
0.000319682
0.000572429
0.000988355
0.00210522
0.00236968
0.000821311
0.00077914
0.000335758
0.000390856
0.000670848
0.00048057
0.000442655
0.000443619
0.000620035
0.00194796
0.00250034
0.000558261
0.000614221
0.000407562
0.000480326
0.000359302
0.000785919
0.00068135
0.000379693
0.000460352
0.000620607
0.000590409
0.00201049
0.00234438
0.000321537
0.000563826
0.00050541
0.00083244
0.000767857
0.00104236
0.000806737
0.000686979
0.000698972
0.000488833
0.00064729
0.000242476
0.00089918
0.00222001
0.0030152
0.00142395
0.000892291
0.000730219
0.00110514
0.00122281
0.00111736
0.000966752
0.000866019
0.000808778
0.00100372
0.000813307
0.000394804
0.00068964
0.000440417
0.000462203
0.00264428
0.00329924
0.00247318
0.00137553
0.00129236
0.00147565
0.00120471
0.000889483
0.000721178
0.000567939
0.000572058
0.000516114
0.000935842
0.000945949
0.000634708
0.000805621
0.000444245
0.00053456
0.000473643
0.00267818
0.00364647
0.00103404
0.000898201
0.000652732
0.000698109
0.00028368
0.000754815
0.000907251
0.00112055
0.000480414
0.000712179
0.000518281
0.000630442
0.000907198
0.000555616
0.000693964
0.000938561
0.000640913
0.000524754
0.000564655
0.00227418
0.00215574
0.000670993
0.0012447
0.000853563
0.00129114
0.00105015
0.000747229
0.000984057
0.000754556
0.000602151
0.000473614
0.000503414
0.000599032
0.000673729
0.000682438
0.000840774
0.000805256
0.000954826
0.000924456
0.000427793
0.000531866
0.000509107
0.00220626
0.00110563
0.00089744
0.000454133
0.000845388
0.00107588
0.000287045
0.000695005
0.000564712
0.00051199
0.000495804
0.000641039
0.000465049
0.000419996
0.000390423
0.000313314
0.000875545
0.000895956
0.00103926
0.0011539
0.00103609
0.000746215
0.000477623
0.000478628
0.000305517
0.00161912
0.000853607
0.000360218
0.000566624
0.000336803
0.000722032
0.000453169
0.00031162
0.000381141
0.000149833
0.000457928
0.000613631
0.000667409
0.000514454
0.000583086
0.000842368
0.000575007
0.000396563
0.000511886
0.000562727
0.000931221
0.000822061
0.000637316
0.000613354
0.000331
0.000789
0.0009842
0.000812426
0.000368057
0.000506214
0.000596422
0.000276186
0.000863603
0.000328912
0.000260371
0.000275918
0.000276902
0.000254279
0.000191242
0.000230474
0.000208388
0.000507834
0.000407982
0.000521843
0.000377632
0.00027122
0.000180864
0.000449701
0.00030233
0.000341069
0.000418295
0.000604483
0.000373594
0.000367852
0.000434352
0.000667353
0.000384238
0.000212806
0.000150571
0.000272232
0.000833642
0.000200704
0.000152515
7.60983e-05
0.000278998
0.000190779
0.000160705
8.14581e-05
9.57645e-05
0.000100021
0.000126041
0.000180055
0.000234378
0.000129312
0.000220327
0.000125328
0.00011501
0.000165895
0.000245164
0.000202719
0.000145542
0.000255404
0.000169811
0.000202849
0.000222768
0.000309291
0.000376996
0.000201066
0.00193432
0.00210301
0.000466661
0.00219949
0.00220556
0.000632131
0.000386327
0.000599558
0.00233774
0.00204391
0.000500705
0.00056969
0.000300768
0.000354228
0.00079165
0.00219317
0.00212275
0.000493431
0.000590515
0.000237642
0.00050073
0.000265411
0.000454029
0.000684423
0.00218371
0.00222718
0.000401734
0.00059566
0.000293347
0.000436039
0.000336846
0.000262179
0.0003185
0.00044462
0.000621306
0.00218334
0.0024238
0.000434374
0.000756919
0.000563013
0.000534635
0.000521317
0.000558731
0.000766917
0.000503581
0.000337546
0.000363865
0.000489413
0.00217239
0.00259761
0.000757591
0.000497025
0.000765006
0.000160347
0.00107105
0.000500258
0.000727328
0.00073651
0.000373953
0.000615465
0.000797602
0.000454191
0.000486716
0.00206012
0.00240266
0.00112495
0.000659542
0.000856982
0.000586638
0.00115192
0.00112069
0.000938556
0.000785848
0.000840176
0.000719464
0.000750028
0.000508097
0.000319305
0.000380464
0.000525468
0.0020736
0.00309996
0.00158105
0.000965998
0.000837775
0.000979955
0.000955982
0.00111184
0.00123637
0.00105737
0.000857688
0.00083861
0.000892361
0.00103559
0.000939317
0.00108248
0.000385625
0.000363131
0.000933638
0.00241595
0.0026512
0.00213888
0.00114528
0.00119341
0.00119773
0.00140232
0.0012433
0.000976747
0.000521535
0.000364977
0.000582215
0.000528999
0.000684175
0.00109673
0.000987672
0.000915463
0.000833556
0.000745213
0.000621424
0.000447187
0.00262898
0.00364347
0.00119803
0.000616331
0.00049215
0.000615243
0.000714827
0.000924125
0.000503668
0.000175806
0.000551045
0.000704734
0.000924588
0.000633975
0.000648316
0.000706831
0.00046658
0.000826733
0.000711097
0.000502409
0.000574143
0.000502234
0.000596773
0.00220541
0.00225215
0.000852584
0.00147381
0.000461998
0.000751912
0.000942135
0.000802636
0.000823303
0.000469572
0.000523333
0.000907188
0.000791839
0.000464905
0.000297375
0.000490252
0.000585119
0.0001336
0.00109895
0.00094392
0.00124248
0.000594645
0.00041764
0.000462774
0.000543159
0.00226524
0.0013069
0.00128135
0.000553603
0.000883031
0.000747294
0.000443993
0.000572046
0.000482191
0.000588994
0.000494712
0.00052858
0.000453657
0.000328511
0.000581566
0.00099053
0.000461799
0.00051587
0.000636098
0.000954025
0.00110197
0.000968452
0.0010739
0.000611826
0.000494817
0.000193331
0.000290389
0.00177364
0.000843572
0.000486946
0.000558886
0.000543608
0.000655595
0.000383831
0.000305939
0.000407266
0.000137616
0.000398257
0.000560331
0.000579267
0.000568543
0.00055769
0.000414987
0.000602737
0.000762138
0.000585767
0.0005117
0.000407529
0.000627388
0.00074831
0.00064196
0.00061385
0.000626242
0.000363041
0.00058984
0.000910289
0.000629611
0.000399851
0.000366389
0.000599587
0.000437301
0.000813684
0.000319225
0.000278987
0.000292782
0.000273176
0.00019525
0.000234499
0.00022656
0.000168327
0.000562771
0.00054878
0.000460766
0.000417587
0.000692974
0.000388955
0.000217601
0.000192862
0.000418974
0.000325437
0.000292786
0.000285732
0.000513741
0.000546586
0.000230017
0.000386691
0.000688665
0.000336107
0.000222904
0.000189699
0.000143495
0.000867363
0.000268394
0.000169112
0.00012571
0.000145013
0.000205677
0.000158787
6.16096e-05
6.98898e-05
5.80221e-05
0.000151296
0.000150381
0.000224752
0.000178869
0.000259352
0.000235617
0.000236009
0.000166755
0.000188275
0.000180525
0.000221979
0.000206355
0.000156747
0.000240714
0.000135789
0.000136588
0.000349048
0.00019704
0.000284827
0.000244072
0.00196195
0.00197106
0.000499595
0.00213096
0.00210034
0.00061748
0.000416317
0.000639001
0.00215551
0.00217187
0.000523303
0.000376953
0.000421408
0.000206633
0.00047402
0.00232029
0.00222916
0.000375185
0.000676071
0.00021436
0.000648994
0.000227887
0.000295572
0.000731533
0.00223801
0.00225726
0.000290583
0.000683848
0.000299142
0.000301383
0.00055722
0.00043076
0.000367851
0.000395018
0.000780337
0.0021856
0.00215238
0.000739894
0.00059142
0.000554765
0.000391041
0.000503275
0.00037133
0.000521583
0.00031127
0.000378297
0.000320039
0.00059398
0.00212576
0.00223467
0.000809458
0.000602386
0.000631019
0.000390551
0.000487564
0.000478935
0.000846688
0.000813144
0.000590487
0.000495539
0.000375677
0.000216787
0.000690174
0.00226415
0.00267009
0.000760502
0.000679347
0.000492954
0.000507028
0.000435713
0.000550617
0.000528718
0.000559471
0.000509859
0.000494742
0.000288188
0.000525748
0.000693061
0.000389025
0.00015941
0.00220242
0.00246882
0.000823917
0.000426482
0.000639882
0.000886384
0.00118285
0.000477753
0.000742369
0.000748314
0.000719048
0.000820547
0.000867684
0.000680934
0.000772056
0.000512953
0.000530612
0.000417652
0.00046542
0.00231364
0.00335548
0.00105001
0.000894238
0.000918538
0.00071095
0.00104104
0.00111734
0.00119407
0.00140685
0.00121285
0.000736477
0.00127813
0.000559747
0.000790553
0.00127213
0.000498777
0.000764074
0.000616573
0.000517973
0.000500798
0.00231881
0.00277979
0.00178038
0.00100141
0.00149291
0.000926725
0.000964391
0.000949458
0.00103974
0.000895625
0.000656925
0.000335909
0.000338834
0.000616253
0.000355837
0.000895646
0.000996945
0.000460968
0.000665091
0.000675419
0.000334294
0.000403685
0.00104997
0.00220346
0.00337063
0.00122661
0.00135306
0.000795861
0.000544824
0.00114919
0.000860663
0.000291354
0.000261526
0.000505796
0.000619026
0.00102247
0.000478505
0.000299945
0.000504463
0.000882317
0.000461594
0.000634105
0.000668282
0.000579411
0.000505565
0.000460965
0.000658029
0.000712217
0.00203383
0.00244769
0.000601664
0.00122856
0.000714819
0.000934082
0.00102482
0.000701265
0.00103777
0.000784726
0.000515222
0.000507752
0.000204704
0.00117376
0.000437363
0.000461709
0.000438782
0.000533848
0.000222158
0.00030281
0.00132878
0.00093524
0.000726184
0.000455411
0.000426206
0.000469533
0.000345242
0.00226301
0.0014455
0.001149
0.000771462
0.000605574
0.000671507
0.000409352
0.000646895
0.000336648
0.000548645
0.000372883
0.000586875
0.000234231
0.00069324
0.00049591
0.000337046
0.000629422
0.000595365
0.000483719
0.000558752
0.000562126
0.000743257
0.000975657
0.0010046
0.000586285
0.000467233
0.000494697
0.000219534
0.000230836
0.00182385
0.000907624
0.000561841
0.000583356
0.000610485
0.000503387
0.000625853
0.00030952
0.000416848
0.000296051
0.000390895
0.000588352
0.000487969
0.000588097
0.000582012
0.000344276
0.000644447
0.000584834
0.000674583
0.000804941
0.000473981
0.000594803
0.000394823
0.00070225
0.000722981
0.0004708
0.000632024
0.000428424
0.000347456
0.000661921
0.000485468
0.000870257
0.000418981
0.000258386
0.000562949
0.000533156
0.000629446
0.000371336
0.000293559
0.000323649
0.000271359
0.000142964
0.000253301
0.000245734
0.00019251
0.00067306
0.000622931
0.000342802
0.000226007
0.000513121
0.000418462
0.000525252
0.000388224
0.000247214
0.000181978
0.000277294
0.00029351
0.000318753
0.000541071
0.000562139
0.00069571
0.000459174
0.000437656
0.00065346
0.000309341
0.000224835
0.000196207
0.000137588
0.00090338
0.000213948
0.000304955
0.000302427
0.000117893
0.000217565
0.000184534
6.17183e-05
9.14903e-05
0.000162311
0.000119025
0.000151169
0.000236329
0.000173789
0.00016262
0.000203192
0.000226731
0.000213943
7.92115e-05
0.000149772
0.000266129
0.000161346
0.000212276
0.000172488
0.000249637
0.00022684
0.000158568
0.000141117
0.000456642
0.000208241
0.000364003
0.000333844
0.0019633
0.00195869
0.00037253
0.00213189
0.00205438
0.00054882
0.000274472
0.000517209
0.00213641
0.00215405
0.000724522
0.000328142
0.000603431
0.00028963
0.000537145
0.00210054
0.00213001
0.000406355
0.000548805
0.000411983
0.000541693
0.000590713
0.000355688
0.000625076
0.00220105
0.00206911
0.000448163
0.000597356
0.000407275
0.000466793
0.000651982
0.000526677
0.00031633
0.00029552
0.000561871
0.00222667
0.0021313
0.000505547
0.000628969
0.000578176
0.00045841
0.000787638
0.000430961
0.00055192
5.31932e-05
0.000362757
0.000348692
0.000699227
0.00222359
0.00216359
0.000584206
0.000714395
0.000565531
0.000310413
0.000400363
0.000504261
0.000389615
0.000485352
0.000488773
0.000519753
0.000295426
0.000312355
0.000597635
0.00217137
0.00249918
0.000518271
0.000645026
0.000880109
0.000566612
0.000498279
0.000539396
0.000378655
0.000627081
0.000632477
0.000601041
0.000453513
0.000532223
0.000584847
0.000259336
0.000678669
0.00220609
0.00254386
0.000364651
0.000751131
0.000640574
0.000797282
0.00076397
0.000731053
0.000468436
0.000803778
0.000436905
0.000665216
0.000930979
0.000549201
0.000727595
0.0006086
0.000456832
0.0004346
0.000547468
0.00229619
0.00268003
0.00075107
0.000707273
0.000448419
0.000980547
0.000909417
0.00104025
0.000707955
0.000710032
0.000791712
0.000420336
0.000750535
0.000790003
0.000782505
0.00103661
0.000680133
0.00062707
0.000518661
0.000341695
0.000376518
0.0021935
0.00306138
0.00147162
0.00144016
0.000877007
0.000712454
0.00114327
0.00100353
0.000847575
0.000731124
0.00115998
0.000950217
0.000755631
0.00128286
0.000707096
0.000751046
0.00101327
0.000503992
0.00120136
0.00107432
0.00085179
0.000464162
0.000532761
0.00248516
0.00314472
0.00161486
0.00165739
0.00088432
0.00076857
0.00048327
0.000548538
0.000418798
0.000420909
0.000826289
0.000591509
0.000445798
0.000470413
0.000559911
0.000329033
0.000791735
0.00100573
0.000943233
0.000672078
0.000874268
0.000688096
0.000420306
0.000562238
0.000725903
0.00222107
0.00372947
0.00117919
0.00132888
0.000956732
0.000932698
0.000384013
0.000530157
0.000578563
0.000247572
0.000299686
0.000237482
0.000604771
0.00047486
0.000438143
0.000288355
0.000267967
0.000457048
0.00061053
0.000787966
0.000617555
0.000869557
0.000421414
0.000812389
0.000410842
0.000513006
0.000721941
0.00214834
0.00259532
0.000506352
0.000997728
0.000995736
0.000734705
0.000908844
0.000671371
0.000736908
0.00099972
0.000626323
0.000572184
0.000641022
0.000267485
0.000402585
0.000380786
0.000521676
0.000553872
0.000567759
0.000419341
0.000647026
0.000884006
0.00133297
0.00083438
0.000943245
0.00027228
0.000408869
0.000424564
0.000403258
0.00248517
0.00163949
0.00107559
0.00152591
0.000317389
0.0005932
0.000675636
0.000849093
0.000462832
0.000511164
0.000279279
0.000469833
0.000293118
0.000772103
0.000845031
0.00036081
0.000460036
0.000876819
0.000946413
0.000856382
0.0003682
0.000472953
0.000548165
0.000689477
0.000791931
0.00102955
0.000539871
0.00042102
0.000512511
0.000445389
0.000255509
0.00177392
0.000926015
0.000534041
0.00063396
0.000640826
0.000291362
0.00045
0.000284876
0.000335353
0.000259243
0.000370813
0.000515587
0.00050078
0.000553298
0.000568691
0.000809228
0.00053041
0.000400207
0.000454306
0.000615512
0.000602557
0.000703226
0.000387929
0.000486446
0.000483438
0.000819287
0.000863341
0.000353057
0.000534111
0.000536539
0.000438968
0.0010736
0.000344087
0.000794503
0.000363972
0.000256414
0.000528528
0.000601624
0.000517857
0.000385273
0.000299841
0.000329804
0.000354676
0.000107607
0.00030936
0.00025384
0.000282125
0.000583415
0.000542159
0.000313941
0.000301685
0.000329873
0.000319497
0.000421619
0.000478103
0.000575467
0.000425383
0.000210079
0.000192385
0.000378984
0.000324722
0.000422421
0.000266002
0.000442975
0.000659471
0.000763953
0.000563965
0.000568272
0.000332526
0.000211349
0.000169962
0.000291249
0.000839074
0.000334998
0.000244926
0.000224836
0.000248151
0.000223889
0.000176491
6.43781e-05
0.000106093
0.000168193
0.000155505
0.000164904
0.000240979
0.000174812
0.000171753
0.000118523
0.000188388
0.000223907
0.000202329
0.000146221
0.000151425
0.00013962
0.000284643
0.000170213
0.000210522
0.000188361
0.000285616
0.000198736
0.000145055
0.000190834
0.000386796
0.00019266
0.000348676
0.000189648
0.00201555
0.00196364
0.000361912
0.00210547
0.00199656
0.000401663
0.000354383
0.000355129
0.00213188
0.00206338
0.000600277
0.000259268
0.00017283
0.000330172
0.000576821
0.00216465
0.00218717
0.000615935
0.000420574
0.000552871
0.000312283
0.000780904
0.000259839
0.000388118
0.00208526
0.00212201
0.000370438
0.000624516
0.000360302
0.000438019
0.00121544
0.000574382
0.000396829
0.000502422
0.000693036
0.00220348
0.00209745
0.000381907
0.000559558
0.000287155
0.000519686
0.00114473
0.000503303
0.000336389