/*--------------------------------*- C++ -*----------------------------------*\
  =========                 |
  \\      /  F ield         | OpenFOAM: The Open Source CFD Toolbox
   \\    /   O peration     | Website:  https://openfoam.org
    \\  /    A nd           | Version:  7
     \\/     M anipulation  |
\*---------------------------------------------------------------------------*/
FoamFile
{
    version     2.0;
    format      ascii;
    class       volScalarField;
    location    "3";
    object      p;
}
// * * * * * * * * * * * * * * * * * * * * * * * * * * * * * * * * * * * * * //

dimensions      [0 2 -2 0 0 0 0];

internalField   nonuniform List<scalar> 
150000
(
-70.3629
-69.5429
-70.5696
-72.2144
-70.2007
-65.7295
-69.7046
-69.7752
-69.3108
-70.9534
-72.3951
-73.7873
-72.0498
-70.0853
-65.5565
-66.3614
-64.1603
-65.524
-69.8466
-70.0911
-72.2004
-69.5356
-69.1363
-71.3977
-72.5491
-73.8014
-74.4409
-73.7759
-71.9047
-70.0327
-67.165
-65.8479
-69.24
-66.0799
-67.1665
-67.8764
-70.6797
-63.4451
-65.6059
-70.1405
-70.4858
-72.3605
-73.8228
-72.101
-69.4583
-69.0629
-71.8523
-72.7142
-73.8209
-74.4346
-75.1421
-74.4363
-73.7671
-71.8173
-70.0879
-66.6495
-67.256
-68.7057
-67.2214
-66.8483
-70.1442
-70.8212
-68.1021
-66.6415
-68.0691
-70.1369
-71.1439
-72.6762
-70.5725
-53.7242
-65.9984
-70.511
-70.8229
-72.5251
-73.8683
-74.59
-73.7811
-72.0571
-69.4313
-69.0901
-72.2675
-72.9048
-73.8458
-74.431
-75.1378
-75.9037
-75.1421
-74.4252
-73.7654
-71.8009
-70.2443
-64.1017
-66.4043
-66.4748
-66.4441
-67.9616
-69.3079
-69.5176
-68.0173
-67.1037
-68.0968
-70.5773
-71.7338
-71.7034
-70.1601
-67.2052
-67.1225
-69.1167
-71.1174
-71.8034
-72.7278
-73.5131
-72.5551
-70.8633
-61.3392
-66.3814
-70.8886
-71.0534
-72.7144
-73.9303
-74.664
-75.2984
-74.4846
-73.739
-72.0591
-69.3888
-69.1977
-72.5723
-73.1136
-73.8598
-74.4385
-75.1379
-75.9041
-76.3074
-75.9004
-75.1392
-74.4111
-73.7782
-71.83
-70.4557
-62.8971
-64.0525
-64.517
-64.1104
-66.0966
-66.8074
-67.4069
-65.9597
-65.8931
-68.7297
-69.456
-69.8278
-70.0858
-68.9086
-67.0895
-66.9495
-69.7211
-71.1124
-72.2733
-72.2844
-73.0357
-71.2743
-69.3222
-66.8906
-67.4123
-70.2158
-71.8247
-72.2802
-72.8771
-73.6965
-74.5871
-73.4251
-72.3131
-71.0251
-61.6163
-66.7561
-71.2189
-71.4401
-72.9453
-74.011
-74.7046
-75.3594
-76.1543
-75.2509
-74.3902
-73.7255
-72.0663
-69.532
-69.3503
-72.7595
-73.2985
-73.8675
-74.4577
-75.1497
-75.9019
-76.2776
-75.43
-76.3395
-75.8995
-75.1387
-74.4008
-73.801
-71.8956
-70.6713
-62.328
-62.7825
-63.7118
-63.0321
-64.0472
-64.8425
-64.4144
-64.183
-64.096
-66.3697
-67.15
-67.5714
-68.0312
-66.3965
-65.4762
-65.5837
-69.6935
-69.6412
-70.4755
-70.6628
-70.9977
-69.9664
-68.2492
-66.7137
-66.8262
-71.6952
-71.9697
-72.6889
-72.8867
-73.3429
-74.3727
-72.7212
-70.8579
-69.0397
-67.3855
-67.7242
-71.2022
-72.3539
-72.6687
-73.2129
-73.9249
-74.5959
-75.0888
-74.4703
-73.4153
-72.3196
-71.3178
-64.208
-67.0651
-71.5074
-71.9565
-73.1328
-74.1093
-74.7338
-75.4248
-76.0851
-75.4891
-76.2452
-75.2294
-74.3056
-73.6923
-72.1244
-69.846
-69.5261
-72.8333
-73.4238
-73.8736
-74.4477
-75.1644
-75.8976
-76.2492
-75.4214
-75.1994
-75.4389
-76.3659
-75.9117
-75.1326
-74.4035
-73.8214
-71.9971
-70.8555
-61.486
-62.2644
-62.782
-62.4141
-62.5286
-63.7905
-63.8716
-63.6581
-63.225
-63.7897
-65.2529
-64.321
-65.8549
-64.3488
-64.1977
-64.0346
-66.9996
-67.2781
-68.0012
-68.198
-69.3341
-67.4177
-65.9433
-65.4225
-65.5004
-70.8827
-70.329
-71.3043
-71.484
-71.4372
-72.5172
-71.0554
-69.377
-68.0087
-66.6906
-66.609
-73.3995
-72.9394
-73.1792
-73.5817
-73.8816
-74.577
-74.8926
-74.1726
-72.4835
-70.5149
-69.3936
-67.8308
-68.208
-71.9358
-72.9994
-73.1867
-73.6084
-74.1371
-74.5846
-75.1167
-75.081
-74.9928
-74.2744
-73.4315
-72.4528
-71.6524
-65.5229
-67.5418
-71.7662
-72.4039
-73.2934
-74.2177
-74.754
-75.4856
-76.0289
-75.4638
-75.4096
-75.5228
-76.3476
-75.2115
-74.2316
-73.6613
-72.2465
-70.0123
-69.7106
-72.8284
-73.5053
-73.8834
-74.3913
-75.1855
-75.8942
-76.2209
-75.413
-75.2086
-75.328
-75.1892
-75.4472
-76.3816
-75.9117
-75.1181
-74.4113
-73.8425
-72.1283
-70.9887
-60.8774
-61.503
-61.737
-61.4556
-62.2348
-62.8455
-62.8226
-62.6434
-62.4003
-62.1601
-63.7302
-63.878
-64.3553
-63.9488
-63.4974
-63.2711
-63.8293
-65.564
-64.529
-66.3298
-66.6861
-65.219
-64.4141
-64.2048
-64.0867
-67.5727
-67.8234
-68.3868
-68.7136
-69.43
-69.9978
-68.9621
-66.9002
-66.0887
-65.5655
-65.3393
-72.2569
-71.7219
-72.3194
-71.924
-71.8916
-72.6241
-74.3224
-72.2442
-70.5473
-69.0103
-67.9354
-66.7633
-66.5416
-74.6379
-73.887
-73.8772
-74.1768
-74.3525
-74.5642
-74.8636
-75.6911
-74.8753
-73.8549
-72.2849
-70.3733
-69.6714
-68.139
-68.5758
-72.5338
-73.5413
-73.6406
-73.8916
-74.3094
-74.7517
-75.1235
-75.1153
-75.1927
-75.0836
-74.8433
-74.0212
-73.286
-72.3891
-71.4569
-66.5617
-68.1287
-71.9873
-72.7501
-73.4434
-74.3403
-74.7829
-75.554
-75.9527
-75.4385
-75.4209
-75.6962
-75.4007
-75.5595
-76.4342
-75.203
-74.1667
-73.6266
-72.3294
-69.933
-69.9104
-72.8317
-73.57
-73.9071
-74.3443
-75.2273
-75.8921
-76.196
-75.4057
-75.2173
-75.3438
-75.5175
-75.3059
-75.1782
-75.4537
-76.3893
-75.9141
-75.1054
-74.4392
-73.8389
-72.2703
-71.0753
-60.3244
-60.9485
-60.926
-60.7974
-61.5382
-61.7482
-61.691
-61.672
-61.4178
-62.2554
-62.9101
-62.9509
-63.0321
-62.833
-62.453
-62.4365
-61.7272
-63.7217
-63.9372
-64.8155
-64.4467
-64.2308
-63.9736
-63.5355
-63.1768
-63.9199
-65.8712
-65.0374
-65.7568
-67.0259
-66.9594
-66.0608
-66.0536
-64.562
-64.2768
-64.1244
-68.6917
-69.0476
-68.8103
-69.4617
-69.9403
-70.2928
-71.2086
-69.7626
-68.4064
-67.0314
-66.1274
-65.5101
-65.2443
-73.6487
-73.375
-73.233
-72.454
-72.4734
-73.128
-74.5926
-75.2385
-73.8137
-71.7671
-70.2428
-68.9282
-67.9738
-66.9496
-66.4308
-75.6655
-74.7103
-74.5959
-74.5516
-74.7294
-74.4798
-74.8256
-75.5512
-75.8415
-75.6478
-74.7266
-73.6543
-72.2041
-70.4483
-69.9322
-68.4548
-68.8372
-73.0571
-73.9324
-74.0115
-74.118
-74.5163
-74.8599
-75.1562
-75.144
-75.2038
-76.1324
-75.1769
-75.1488
-74.6643
-73.7625
-73.0888
-72.3296
-71.3703
-67.6171
-68.6629
-72.1741
-73.0026
-73.5812
-74.4625
-74.8311
-75.613
-75.881
-75.4109
-75.4346
-75.6885
-75.9753
-75.6904
-75.393
-75.5988
-76.4993
-75.2266
-74.0925
-73.5879
-72.3525
-69.9561
-70.1497
-72.851
-73.6257
-73.9369
-74.3123
-75.2675
-75.8896
-76.1774
-75.4001
-75.2252
-75.3541
-75.508
-76.1162
-75.5264
-75.2764
-75.167
-75.4587
-76.3893
-75.9219
-75.1017
-74.4822
-73.81
-72.382
-71.1375
-59.8087
-60.3035
-60.3867
-60.2641
-60.7994
-60.8049
-60.915
-60.867
-60.7199
-61.573
-61.6146
-61.6431
-61.927
-61.725
-61.4941
-61.4565
-62.2318
-63.0156
-63.0039
-63.1156
-63.2726
-63.0012
-62.7967
-62.2253
-62.5044
-61.8343
-63.9406
-64.0899
-64.5189
-64.3878
-64.7067
-64.5068
-64.4437
-63.9288
-63.5594
-63.1304
-64.1725
-66.1413
-65.1907
-66.4718
-67.0279
-66.8739
-67.1265
-66.8945
-66.3099
-65.5225
-64.8217
-64.3695
-64.1018
-70.2796
-69.8284
-70.2809
-69.9778
-70.3021
-70.7508
-71.971
-72.3262
-70.8841
-69.4388
-68.1632
-66.9442
-66.1545
-65.5165
-65.1023
-75.2947
-75.0676
-74.063
-73.31
-72.9213
-73.5273
-74.5788
-75.1004
-74.8485
-75.4311
-73.4219
-71.2729
-70.0206
-68.982
-67.7557
-67.2088
-66.4235
-76.3559
-75.6057
-75.1941
-74.7107
-75.0139
-74.4017
-74.7442
-75.3642
-75.6535
-76.2347
-76.042
-75.5375
-74.4193
-73.3343
-72.0401
-70.629
-70.2068
-68.9021
-69.0434
-73.4197
-74.2289
-74.2846
-74.3798
-74.8072
-74.8382
-75.1956
-75.1635
-75.214
-76.1324
-76.5593
-76.11
-75.1524
-75.2246
-74.5198
-73.5351
-72.9064
-72.4449
-71.862
-68.2962
-69.2001
-72.3373
-73.1971
-73.6841
-74.5551
-74.9053
-75.6554
-75.8455
-75.3811
-75.4472
-75.6768
-75.9479
-76.8951
-75.9996
-75.674
-75.3883
-75.6477
-76.5417
-75.2616
-74.0043
-73.5463
-72.4049
-70.1982
-70.3664
-72.8259
-73.6402
-73.9687
-74.2953
-75.2762
-75.8873
-76.162
-75.3962
-75.2323
-75.3577
-75.4959
-76.0804
-76.181
-76.146
-75.5344
-75.242
-75.1556
-75.4614
-76.3859
-75.9179
-75.0893
-74.5095
-73.831
-72.4743
-71.1985
-59.5498
-59.8164
-59.9261
-59.8664
-60.2762
-60.2349
-60.34
-60.3478
-60.1806
-60.7206
-60.8811
-60.9494
-61.0446
-60.9602
-60.6458
-60.8425
-61.5691
-61.7204
-61.6792
-61.9392
-61.9161
-61.81
-61.6836
-61.3868
-61.3937
-62.3306
-62.9524
-62.9422
-63.1155
-63.0938
-63.1752
-63.1405
-62.9875
-62.8072
-62.4042
-62.4987
-61.9629
-63.8561
-64.2415
-64.2666
-64.2935
-64.3874
-64.8295
-64.7107
-64.5178
-64.1483
-63.9004
-63.2191
-63.0928
-65.2395
-66.1884
-65.6031
-67.0138
-67.2075
-66.9449
-67.1278
-67.5546
-67.3822
-66.824
-66.1665
-65.3501
-64.753
-64.362
-64.1537
-71.3979
-71.0999
-71.3941
-71.0462
-70.509
-71.2703
-72.6462
-72.6167
-72.2829
-71.9559
-70.6219
-69.1907
-67.9165
-66.9948
-66.2215
-65.7589
-65.0953
-76.5876
-76.8033
-75.1042
-74.0147
-73.7727
-73.7039
-74.629
-75.0563
-74.8121
-75.0352
-74.8197
-75.2666
-72.7709
-70.857
-69.7845
-69.0225
-67.7453
-67.5251
-66.5987
-76.4669
-76.1794
-75.7556
-74.9615
-75.2101
-74.3556
-74.7388
-75.1312
-75.5737
-76.3008
-76.6699
-76.127
-76.0118
-75.3714
-73.9736
-73.0637
-71.8543
-70.7638
-70.3468
-69.5042
-69.3412
-73.6745
-74.4481
-74.4516
-74.6718
-75.0942
-74.9519
-75.2187
-75.181
-75.242
-76.1147
-76.5195
-77.4649
-76.5987
-76.0706
-75.1168
-75.2505
-74.4615
-73.3967
-72.7513
-72.5971
-72.0626
-69.0942
-69.6584
-72.4754
-73.3545
-73.7657
-74.6496
-74.9896
-75.6797
-75.813
-75.3548
-75.457
-75.6653
-75.9167
-76.9109
-77.1416
-76.882
-76.0201
-75.6504
-75.384
-75.7008
-76.5688
-75.2732
-73.9401
-73.561
-72.4999
-70.4037
-70.5672
-72.8077
-73.5961
-74.0163
-74.3094
-75.2578
-75.8879
-76.1368
-75.3948
-75.2382
-75.3546
-75.4827
-76.0444
-76.145
-76.4753
-76.2295
-76.1633
-75.5391
-75.2037
-75.1432
-75.4624
-76.3767
-75.9234
-75.0541
-74.5068
-73.9128
-72.5495
-71.278
-59.1557
-59.4747
-59.5593
-59.5392
-59.759
-59.843
-59.8355
-59.9793
-59.8976
-60.2839
-60.3765
-60.3336
-60.3878
-60.3941
-60.1093
-60.2633
-60.6872
-60.9014
-60.9309
-60.9747
-61.0039
-60.9853
-61.0102
-60.7924
-60.8059
-61.6905
-61.7381
-61.6346
-61.9203
-61.9121
-61.6788
-61.9171
-61.833
-61.6149
-61.5112
-61.4466
-62.7223
-62.8662
-63.1168
-63.1306
-63.0492
-62.9978
-63.172
-63.0624
-63.1052
-62.8727
-62.7886
-62.4798
-62.5141
-62.4693
-63.9801
-64.3207
-64.4799
-64.4701
-64.6693
-64.4442
-65.0727
-64.7306
-64.7518
-64.4348
-63.9114
-63.8261
-63.3239
-63.0669
-65.9821
-66.3717
-66.2099
-67.2212
-67.4514
-67.3631
-67.3966
-67.6136
-67.6795
-67.5708
-67.1133
-66.869
-66.3408
-65.3963
-64.8025
-64.1875
-64.1567
-72.2803
-72.7302
-71.7021
-71.7175
-71.3087
-71.5942
-72.9183
-72.7705
-72.4812
-72.3029
-72.0211
-71.5487
-70.127
-68.9762
-68.1198
-66.9267
-66.136
-66.0427
-65.2112
-76.9532
-77.9581
-76.1423
-74.8349
-74.2106
-74.0715
-74.7519
-75.0082
-74.733
-74.9369
-74.8419
-74.9996
-74.908
-74.9114
-72.5183
-70.6165
-69.5462
-68.9458
-67.7594
-67.6983
-66.6991
-76.5024
-76.254
-75.9634
-75.388
-75.456
-74.5417
-74.7056
-74.968
-75.5364
-76.3595
-76.7012
-76.901
-76.631
-75.9946
-75.8894
-75.0478
-73.7342
-72.966
-71.645
-70.8662
-70.4846
-70.2126
-69.8246
-73.8402
-74.5963
-74.5741
-74.9362
-75.3511
-75.1332
-75.2398
-75.1788
-75.264
-76.0813
-76.4994
-77.4899
-77.8578
-77.4531
-76.6099
-76.0178
-75.1087
-75.2161
-74.3986
-73.2132
-72.6676
-72.6367
-72.0021
-69.8594
-70.0008
-72.6016
-73.455
-73.8433
-74.7517
-75.0937
-75.7206
-75.7735
-75.3286
-75.4632
-75.6505
-75.8776
-76.9161
-77.1826
-78.0791
-77.0897
-76.8714
-76.0363
-75.6202
-75.3785
-75.7547
-76.5926
-75.2488
-73.9189
-73.6116
-72.5922
-70.6239
-70.7726
-72.8402
-73.5568
-74.0795
-74.3412
-75.2423
-75.8928
-76.116
-75.398
-75.2431
-75.3463
-75.4689
-76.0017
-76.1271
-76.425
-77.0475
-76.5203
-76.2726
-76.1539
-75.5419
-75.1644
-75.1287
-75.4629
-76.3674
-75.9377
-75.0207
-74.485
-73.9742
-72.6063
-71.3683
-58.8369
-59.0724
-59.1506
-59.1691
-59.5252
-59.4577
-59.529
-59.5761
-59.5099
-59.7752
-59.8405
-59.7839
-59.9179
-59.8753
-60.0375
-59.8932
-60.2014
-60.2727
-60.2945
-60.3636
-60.3717
-60.4048
-60.3758
-60.1671
-60.3089
-60.7299
-60.8082
-60.9735
-60.9465
-60.9772
-60.8512
-61.0269
-60.9735
-61.0016
-60.7338
-60.7874
-61.8219
-61.8081
-61.6822
-61.8909
-61.8645
-61.8988
-61.7443
-61.8188
-61.8979
-61.8132
-61.6063
-61.6112
-61.4583
-63.0058
-62.9115
-63.1952
-63.1617
-63.1285
-62.9332
-63.0471
-63.2462
-63.1569
-63.0829
-63.07
-62.8107
-62.7795
-62.3835
-62.3778
-62.8712
-63.5002
-64.4874
-64.0197
-64.5239
-64.3542
-64.5319
-64.8026
-65.2334
-64.9109
-64.4572
-64.6768
-64.6986
-63.9246
-63.7485
-63.3692
-63.006
-66.801
-66.4672
-66.7803
-67.8934
-67.2326
-67.2694
-67.7978
-67.8692
-67.8037
-67.8813
-67.8517
-67.4632
-66.7845
-66.7782
-66.316
-65.3538
-64.8416
-64.457
-64.006
-73.0951
-74.4035
-72.6568
-72.4331
-72.2801
-72.3932
-72.8343
-72.6958
-72.5795
-72.4745
-71.8809
-72.0123
-71.8174
-71.3918
-69.7848
-68.8542
-67.7679
-67.0615
-66.2648
-66.0874
-65.2186
-76.5492
-78.4106
-76.6618
-75.608
-74.5872
-74.506
-74.6717
-74.9511
-74.8896
-74.9315
-74.9374
-74.838
-74.7605
-74.9996
-74.9791
-74.2572
-72.1191
-70.4161
-69.4973
-68.9082
-67.9045
-67.8414
-66.8652
-76.3395
-76.2735
-75.8661
-75.6784
-75.4901
-74.7658
-74.6701
-74.8723
-75.6304
-76.4062
-76.6964
-76.9719
-76.9535
-76.8387
-76.6762
-75.8882
-75.6716
-74.7201
-73.5061
-72.6706
-71.4716
-71.056
-70.6958
-70.8272
-70.2331
-73.9014
-74.6833
-74.6693
-75.0908
-75.6741
-75.26
-75.2388
-75.1578
-75.2692
-76.0492
-76.478
-77.5058
-77.8769
-78.4219
-77.8735
-77.4429
-76.5718
-75.9628
-75.0853
-75.1433
-74.3806
-73.1308
-72.6283
-72.645
-71.9813
-70.5537
-70.3043
-72.701
-73.5571
-73.9163
-74.7967
-75.1835
-75.7409
-75.7406
-75.2993
-75.4655
-75.6337
-75.8308
-76.9012
-77.2163
-78.136
-79.3373
-78.0467
-77.0406
-76.8665
-76.0473
-75.5875
-75.37
-75.8081
-76.6061
-75.2052
-73.9091
-73.6896
-72.6882
-70.8463
-70.9498
-72.896
-73.5614
-74.1403
-74.3923
-75.2406
-75.9007
-76.1038
-75.4074
-75.2472
-75.3328
-75.4534
-75.9491
-76.1187
-76.362
-76.984
-77.3169
-77.1244
-76.5939
-76.3008
-76.1429
-75.541
-75.127
-75.1117
-75.4654
-76.3395
-75.9495
-75.0265
-74.4596
-74.0026
-72.6476
-71.4903
-58.6094
-58.8325
-58.7905
-58.9019
-59.0704
-59.1248
-59.1241
-59.2358
-59.1401
-59.4705
-59.4804
-59.4529
-59.5098
-59.5835
-59.5093
-59.5439
-59.697
-59.8095
-59.7833
-59.8779
-59.8586
-59.9315
-59.9064
-59.8847
-59.9247
-60.1445
-60.2533
-60.2944
-60.3052
-60.3497
-60.2746
-60.4141
-60.4132
-60.3913
-60.2615
-60.279
-60.6843
-60.8105
-60.8642
-60.9327
-60.9359
-60.9592
-60.9877
-60.9143
-61.0958
-61.0304
-60.9469
-60.8703
-60.8394
-61.7894
-61.8573
-61.7201
-61.7318
-61.855
-61.6336
-62.0082
-61.8823
-61.8184
-61.9253
-61.9147
-61.735
-61.6637
-61.5728
-61.4488
-62.8328
-62.6893
-63.1999
-63.1629
-62.8868
-62.9241
-62.7678
-63.1921
-63.4773
-63.1762
-63.1648
-63.0592
-63.0888
-62.7964
-62.6545
-62.4036
-62.1954
-63.5154
-63.677
-64.548
-64.5908
-64.4086
-64.5722
-64.5302
-64.9383
-65.1687
-65.175
-65.2273
-64.8296
-64.616
-64.6481
-64.1644
-63.8774
-63.6552
-63.2085
-63.0363
-67.0289
-67.1002
-67.3499
-67.9488
-67.7528
-66.9933
-68.1187
-68.0265
-68.2429
-68.2879
-68.1473
-67.7725
-67.7852
-67.2333
-66.9735
-66.5135
-66.0382
-65.4366
-64.9954
-64.4713
-63.9982
-72.4124
-75.1952
-73.3387
-73.1444
-72.6856
-72.7653
-73.1381
-72.6942
-72.7573
-72.6013
-71.9601
-71.5292
-71.7887
-71.8689
-71.5408
-70.7704
-69.5873
-68.6818
-67.7941
-67.0443
-66.3596
-66.1974
-65.2222
-75.7403
-78.5647
-76.7877
-75.9874
-74.8955
-74.5328
-74.5726
-74.8915
-75.08
-74.9411
-74.9372
-74.9381
-73.7488
-74.6879
-74.8449
-74.9037
-74.7426
-73.1783
-71.5765
-70.4944
-69.5986
-68.9735
-67.9737
-68.2094
-67.0408
-76.009
-76.1493
-75.6549
-75.8627
-75.5397
-74.8951
-74.7199
-74.7942
-75.6247
-76.421
-76.7799
-77.1415
-77.1835
-75.844
-76.608
-76.7768
-76.6185
-75.7892
-75.3423
-74.4395
-73.2459
-72.4564
-71.4817
-71.197
-70.9776
-71.3277
-70.4622
-73.8868
-74.7121
-74.7196
-75.1395
-75.9565
-75.4438
-75.2458
-75.1265
-75.255
-75.9968
-76.4524
-77.4573
-77.8851
-78.4503
-77.3554
-78.3228
-77.8523
-77.4442
-76.5078
-75.8814
-75.0791
-75.1101
-74.3928
-73.0938
-72.6181
-72.6693
-72.0052
-71.1827
-70.5354
-72.7427
-73.6482
-73.9831
-74.8273
-75.2492
-75.7489
-75.7071
-75.267
-75.4637
-75.617
-75.7769
-76.8724
-77.2415
-78.208
-79.2816
-77.218
-79.3312
-78.0207
-77.01
-76.8779
-76.0525
-75.5407
-75.3569
-75.8531
-76.5984
-75.1302
-73.8866
-73.7273
-72.7609
-71.0693
-71.1095
-73.0268
-73.582
-74.2091
-74.4605
-75.237
-75.914
-76.0882
-75.4142
-75.2509
-75.3137
-75.4345
-75.8928
-76.0889
-76.3084
-76.9206
-77.2773
-76.7028
-77.3585
-77.2171
-76.6495
-76.316
-76.1376
-75.5348
-75.0926
-75.0941
-75.4699
-76.3175
-75.9611
-75.0498
-74.4287
-74.0437
-72.695
-71.6782
-58.4481
-58.6165
-58.6208
-58.637
-58.815
-58.8541
-58.8942
-58.8174
-58.887
-59.0577
-59.1642
-59.1611
-59.1154
-59.196
-59.1566
-59.1528
-59.3579
-59.4027
-59.3964
-59.4786
-59.4919
-59.5363
-59.5991
-59.5263
-59.5615
-59.6719
-59.7139
-59.7681
-59.8322
-59.8281
-60.268
-59.9281
-59.9295
-59.9027
-60.0158
-59.969
-60.1779
-60.1591
-60.1851
-60.3172
-60.3154
-60.2523
-60.383
-60.3498
-60.4523
-60.4326
-60.4134
-60.2874
-60.3126
-60.6993
-60.769
-60.8102
-60.8925
-60.8918
-60.9017
-61.0803
-60.9687
-61.0191
-61.0442
-61.0925
-60.9954
-61.0261
-60.891
-60.8589
-61.6919
-61.8477
-61.7299
-61.7292
-61.773
-61.8947
-61.9478
-62.1372
-62.1557
-61.8939
-61.8732
-62.0333
-61.8755
-61.7389
-61.7621
-61.5817
-61.438
-62.7358
-63.0341
-63.1897
-63.2154
-62.8739
-62.5466
-62.7984
-62.9383
-63.5991
-63.5314
-63.3183
-63.1193
-63.258
-63.0105
-63.035
-62.7551
-62.5585
-62.3486
-62.1254
-63.7043
-63.8397
-64.8301
-64.6521
-64.5214
-64.5975
-64.8209
-65.1114
-65.1189
-65.3839
-65.4001
-65.4163
-65.1827
-64.616
-64.6547
-64.7653
-64.2372
-63.8396
-63.5876
-63.1878
-62.9884
-66.7164
-67.5805
-67.8775
-68.1099
-67.8942
-67.4818
-68.2851
-68.2501
-68.2776
-68.2024
-68.2481
-67.79
-68.0554
-67.7867
-67.6866
-67.0143
-66.9534
-66.3794
-66.0654
-65.5602
-64.9494
-64.4834
-64.1662
-72.0924
-75.5487
-74.0727
-73.6782
-73.0048
-72.9393
-73.1683
-72.9588
-72.6448
-72.6836
-71.9975
-71.444
-71.0052
-71.5587
-71.6037
-71.7503
-71.3666
-70.2188
-69.3548
-68.7631
-67.7198
-67.1258
-66.4694
-66.3789
-65.3736
-74.8322
-78.1067
-76.9192
-76.1
-74.9512
-74.2544
-74.517
-74.7551
-75.0227
-75.0397
-74.9985
-75.2958
-73.6724
-73.2588
-73.8089
-74.5501
-74.9251
-74.7865
-74.3838
-72.6807
-71.3561
-70.6098
-69.8139
-69.0625
-68.1059
-68.5302
-67.0977
-75.4733
-75.8844
-75.4317
-75.9511
-75.7673
-75.0603
-74.663
-74.7502
-75.6312
-76.4051
-76.8715
-77.4275
-77.3651
-75.7336
-74.7437
-76.1063
-76.5188
-76.7089
-76.5899
-75.677
-75.0195
-74.3419
-73.119
-72.3808
-71.6248
-71.3504
-71.2538
-71.8383
-70.6214
-73.7947
-74.7143
-74.7204
-75.1353
-76.1163
-75.6414
-75.2705
-75.099
-75.2149
-75.9365
-76.4355
-77.3991
-77.8963
-78.4219
-77.2392
-75.6388
-77.4915
-78.244
-77.8001
-77.4237
-76.4465
-75.7835
-75.0891
-75.0872
-74.4262
-73.0904
-72.6168
-72.7224
-72.0228
-71.7371
-70.6773
-72.7871
-73.7101
-74.0471
-74.8712
-75.3024
-75.7418
-75.6732
-75.2411
-75.4593
-75.6013
-75.7184
-76.8357
-77.2576
-78.3249
-79.1512
-77.1757
-76.8319
-77.2738
-79.3426
-77.9958
-76.9994
-76.8886
-76.0516
-75.4764
-75.3374
-75.8608
-76.5817
-75.0688
-73.8647
-73.7339
-72.8054
-71.3055
-71.225
-73.2851
-73.5866
-74.2715
-74.5285
-75.2308
-75.9228
-76.0751
-75.4058
-75.2538
-75.2903
-75.4101
-75.8305
-76.0433
-76.2495
-76.8613
-77.2349
-76.6806
-76.3346
-76.7265
-77.4046
-77.3057
-76.681
-76.3211
-76.14
-75.5259
-75.0612
-75.077
-75.4725
-76.2845
-75.9622
-75.0758
-74.4283
-74.0622
-72.7679
-71.9858
-58.3108
-58.4316
-58.4729
-58.4617
-58.5908
-58.6099
-58.6583
-58.6397
-58.6623
-58.8023
-58.7978
-58.8498
-58.906
-58.9725
-58.8655
-58.9062
-59.0488
-59.107
-59.2038
-59.1377
-59.0902
-59.0967
-59.1721
-59.1328
-59.1797
-59.3124
-59.3582
-59.3042
-59.4311
-59.4647
-59.5076
-59.5377
-59.5362
-59.5805
-59.6318
-59.5743
-59.6908
-59.6692
-59.6816
-59.7799
-59.8225
-59.6191
-59.9736
-59.9386
-59.9787
-59.9372
-59.9541
-59.9161
-59.935
-60.1398
-60.1631
-60.2019
-60.2383
-60.2896
-60.2809
-60.3829
-60.3878
-60.4168
-60.4081
-60.4693
-60.463
-60.4277
-60.3258
-60.3066
-60.8117
-60.8811
-60.7919
-60.7795
-60.8562
-60.8174
-60.9926
-61.1554
-61.1152
-60.9443
-61.0812
-61.0518
-61.0605
-61.038
-61.0318
-60.9461
-60.8496
-61.6888
-62.0142
-61.8192
-61.7216
-61.6557
-61.8585
-61.8719
-62.0249
-62.2223
-62.2168
-62.0414
-61.8915
-62.0302
-61.9869
-61.8644
-61.7399
-61.7511
-61.5462
-61.4548
-62.5094
-63.1478
-63.3287
-63.219
-62.8823
-62.8531
-62.8477
-63.063
-63.1281
-63.3958
-63.5253
-63.5065
-63.261
-63.3636
-63.024
-63.2015
-62.8989
-62.7422
-62.4803
-62.3872
-62.1377
-64.1481
-64.196
-64.9546
-65.007
-64.7827
-64.4995
-64.8367
-65.0863
-65.2928
-65.4595
-65.4903
-65.5524
-65.2232
-65.2575
-65.0587
-64.6316
-64.5765
-64.659
-64.0273
-63.8745
-63.6139
-62.9971
-62.9322
-67.5611
-68.7475
-67.9699
-67.9564
-68.0727
-67.9136
-68.6486
-68.452
-68.4556
-68.4164
-68.2296
-67.9104
-67.5419
-67.772
-68.0623
-67.7595
-67.6655
-67.2769
-67.0408
-66.6183
-65.994
-65.5827
-65.0664
-64.5412
-64.2638
-71.6009
-75.8678
-74.8133
-74.0497
-73.1064
-72.9674
-73.0271
-73.0082
-72.6366
-72.7921
-71.9456
-71.4506
-70.916
-70.3145
-71.1684
-71.4652
-71.4284
-71.5847
-70.9171
-70.416
-69.3973
-68.8738
-67.9815
-67.2824
-66.4304
-66.5947
-65.491
-73.6147
-77.0572
-76.6005
-76.2066
-74.8476
-74.3168
-74.4886
-74.5742
-75.0041
-75.089
-75.0322
-75.1155
-74.0065
-73.0739
-72.6679
-73.4715
-73.9715
-74.5541
-74.7608
-74.6344
-73.6846
-73.224
-71.5145
-70.5796
-69.9507
-69.1456
-68.2208
-68.811
-67.2832
-74.8478
-75.4073
-75.1416
-75.7922
-75.9843
-75.1894
-74.659
-74.7173
-75.7256
-76.4048
-76.9376
-77.4893
-77.3055
-75.7269
-74.7297
-73.9339
-74.8668
-76.1398
-76.4546
-76.6052
-76.4405
-75.5995
-74.8504
-74.1369
-72.8822
-72.3688
-71.7522
-71.4553
-71.4564
-72.3849
-70.8497
-73.6563
-74.623
-74.7139
-75.1157
-76.1792
-75.8133
-75.287
-75.0732
-75.1705
-75.873
-76.4363
-77.3466
-77.9303
-78.4001
-77.1928
-75.3882
-74.7723
-75.7808
-77.7158
-78.1766
-77.7684
-77.3891
-76.4036
-75.6956
-75.0421
-75.1126
-74.4304
-73.0826
-72.6244
-72.8224
-72.1596
-72.2399
-70.9052
-72.8649
-73.756
-74.1034
-74.9033
-75.3136
-75.7511
-75.6403
-75.2251
-75.4518
-75.587
-75.6598
-76.7907
-77.2158
-78.5077
-79.0121
-77.1865
-76.8041
-76.1218
-76.8417
-77.3391
-79.3806
-77.937
-77.0008
-76.8942
-76.0416
-75.4104
-75.3171
-75.8555
-76.5413
-75.008
-73.8596
-73.7663
-72.8599
-71.5467
-71.3081
-73.5277
-73.5849
-74.2964
-74.6093
-75.2186
-75.927
-76.065
-75.4043
-75.2558
-75.2686
-75.3843
-75.7553
-76.0026
-76.1861
-76.826
-77.1927
-76.6629
-76.3323
-76.1392
-76.341
-76.7563
-77.4483
-77.3722
-76.7011
-76.3118
-76.137
-75.5136
-75.0325
-75.062
-75.4676
-76.2536
-75.9659
-75.0978
-74.4616
-74.0176
-72.8677
-72.42
-58.1491
-58.2784
-58.3117
-58.3089
-58.3916
-58.4182
-58.4526
-58.4884
-58.4992
-58.5811
-58.5531
-58.6735
-58.6985
-58.7062
-58.6024
-58.6335
-58.7795
-58.7461
-58.7993
-58.8849
-58.8658
-58.8701
-58.9273
-58.9191
-58.966
-59.0059
-59.1162
-59.0959
-59.1282
-59.1468
-58.9348
-59.1594
-59.1695
-59.1655
-59.1329
-59.1616
-59.3178
-59.3708
-59.3778
-59.3517
-59.4162
-59.4604
-59.5472
-59.612
-59.5476
-59.576
-59.6122
-59.6551
-59.5651
-59.6964
-59.8127
-59.6949
-59.6831
-59.7832
-59.6965
-59.9006
-60.0038
-60.0201
-59.8654
-59.9732
-59.9615
-59.9644
-59.9141
-59.9005
-60.1475
-60.1288
-60.1952
-60.2278
-60.228
-60.2664
-60.3882
-60.4011
-60.4903
-60.4235
-60.3542
-60.4944
-60.4599
-60.4543
-60.4325
-60.3229
-60.3666
-60.7795
-60.8336
-60.8495
-60.901
-60.9225
-60.8535
-60.9234
-61.0834
-61.0982
-61.3152
-61.0463
-61.1383
-61.0723
-60.9496
-61.1076
-61.0147
-61.0169
-60.9356
-60.7941
-61.7985
-62.017
-61.8455
-61.939
-61.6397
-61.5849
-61.7557
-61.8773
-62.0856
-62.3264
-62.415
-62.2289
-62.0634
-62.2835
-62.0604
-61.966
-61.8161
-61.7238
-61.6839
-61.5629
-61.4243
-62.5508
-63.3501
-63.2383
-63.1209
-62.8642
-62.8629
-62.8638
-63.1232
-63.3217
-63.5985
-63.6364
-63.7151
-63.3948
-63.3197
-63.3077
-63.4901
-63.1253
-63.2148
-62.7386
-62.5899
-62.4779
-62.1959
-62.0925
-64.2103
-64.5974
-65.1642
-65.1256
-64.9764
-64.5777
-64.8143
-65.1336
-65.2337
-65.4638
-65.4339
-65.3728
-65.3609
-65.3959
-65.3437
-65.1841
-64.8963
-64.7077
-64.673
-64.3388
-64.1212
-63.9278
-63.4893
-63.0633
-63.0058
-67.6732
-68.9553
-68.3536
-68.1291
-67.9913
-68.3668
-68.79
-68.5481
-68.7003
-68.5105
-68.3473
-68.0031
-67.6574
-67.3459
-67.4529
-67.8545
-68.0279
-67.9932
-67.6321
-67.2531
-67.0002
-66.6485
-65.8617
-65.6563
-65.1031
-64.6252
-64.144
-70.8856
-75.4444
-74.9253
-74.2712
-72.9686
-72.6517
-72.9748
-72.9157
-72.6142
-72.7368
-72.1117
-71.2683
-70.822
-70.2217
-69.7535
-70.3869
-71.1366
-71.4054
-71.147
-71.3772
-70.6844
-70.3066
-69.4944
-68.8573
-68.0839
-67.304
-66.5691
-66.5868
-65.8867
-72.6329
-75.7335
-75.8423
-75.961
-75.0034
-74.2691
-74.1613
-74.5521
-74.965
-75.0319
-75.1684
-74.9207
-74.0169
-72.9282
-72.4691
-71.992
-72.8815
-73.831
-74.353
-74.6611
-74.6686
-74.6099
-73.2509
-72.6921
-71.3947
-70.6374
-70.0715
-69.2983
-68.4841
-69.2742
-67.5938
-74.231
-74.8713
-75.0483
-75.4821
-76.0207
-75.4013
-74.6983
-74.6415
-75.67
-76.3429
-76.904
-77.5453
-77.4335
-75.8594
-74.5241
-73.8613
-72.9644
-74.0627
-75.1847
-76.0886
-76.5352
-76.5449
-76.3108
-75.5283
-74.6604
-73.7219
-72.6794
-72.5122
-71.905
-71.5639
-71.7619
-72.9254
-70.8611
-73.5479
-74.4371
-74.7005
-75.0957
-76.1456
-75.9257
-75.3081
-75.0374
-75.1207
-75.81
-76.4417
-77.2556
-77.9602
-78.3256
-77.1861
-75.3138
-74.6944
-74.1521
-74.7861
-75.8694
-77.9108
-78.059
-77.7518
-77.3564
-76.3172
-75.597
-74.8817
-75.0942
-74.3415
-73.1196
-72.6878
-72.9091
-72.3913
-72.7823
-71.1622
-72.935
-73.7939
-74.1596
-74.9123
-75.3508
-75.7924
-75.607
-75.2024
-75.4426
-75.5626
-75.6046
-76.7423
-77.1191
-78.7427
-78.8583
-77.2191
-76.7821
-76.1597
-75.2689
-76.1601
-76.8794
-77.4352
-79.4238
-77.8595
-77.0165
-76.8895
-76.0186
-75.3437
-75.3057
-75.8409
-76.4948
-74.9702
-73.8736
-73.8177
-72.9439
-71.7697
-71.3999
-73.6238
-73.6022
-74.3136
-74.6856
-75.1955
-75.9334
-76.0557
-75.4082
-75.2568
-75.2507
-75.3725
-75.6759
-75.9811
-76.1431
-76.808
-77.1544
-76.6502
-76.3331
-76.1142
-76.1237
-76.169
-76.3517
-76.7944
-77.4898
-77.4266
-76.7142
-76.2952
-76.1177
-75.4981
-75.0038
-75.0513
-75.4568
-76.2247
-75.9784
-75.1046
-74.4925
-73.9373
-72.9752
-72.7823
-58.0338
-58.1219
-58.1756
-58.1573
-58.2413
-58.3034
-58.3255
-58.3369
-58.3409
-58.3913
-58.3763
-58.4529
-58.5181
-58.4941
-58.5058
-58.4893
-58.5962
-58.5452
-58.6327
-58.6387
-58.6946
-58.7305
-58.6928
-58.5978
-58.6497
-58.7744
-58.7756
-58.8078
-58.8292
-58.8765
-58.9559
-58.8863
-58.856
-58.9556
-59.0052
-58.9974
-59.0265
-59.071
-59.0843
-59.0377
-59.1316
-59.2109
-59.2165
-59.2535
-59.1582
-59.1902
-59.2208
-59.2437
-59.1485
-59.2866
-59.3155
-59.3422
-59.2979
-59.397
-59.446
-59.4828
-59.5836
-59.6295
-59.5137
-59.5643
-59.6168
-59.5912
-59.5893
-59.5759
-59.6599
-59.6314
-59.6629
-59.7064
-59.7543
-59.7215
-59.9016
-59.9659
-60.0211
-60.0777
-59.9036
-60.0623
-59.9507
-59.9373
-59.9774
-59.9407
-59.8905
-60.1404
-60.0817
-60.0888
-60.3788
-60.2185
-60.1485
-60.3152
-60.3914
-60.4905
-60.6558
-60.5202
-60.5742
-60.5352
-60.4485
-60.4465
-60.3854
-60.4614
-60.3299
-60.2538
-60.9005
-60.8487
-60.529
-60.854
-60.8325
-60.7977
-60.8938
-61.0261
-61.2608
-61.2912
-61.4824
-61.3226
-61.259
-61.0574
-61.1927
-61.1966
-61.0965
-61.0124
-60.9638
-60.8381
-60.7945
-61.8502
-61.9062
-61.687
-61.7295
-61.5715
-61.6744
-61.6709
-61.8581
-62.0631
-62.2762
-62.3072
-62.4196
-62.5368
-62.3139
-62.2011
-62.1642
-62.0246
-61.9907
-61.8013
-61.7386
-61.5838
-61.5558
-61.4243
-62.5705
-63.4166
-63.1536
-62.9927
-62.834
-62.7335
-62.8823
-63.0528
-63.3877
-63.5825
-63.7285
-63.846
-63.8344
-63.7609
-63.6875
-63.4178
-63.3531
-63.0478
-63.1866
-62.8622
-62.7397
-62.6021
-62.4391
-62.0958
-62.0828
-64.2278
-64.8177
-65.1358
-65.1589
-65.0404
-64.5174
-65.0355
-65.2722
-65.3003
-65.3154
-65.5095
-65.2753
-65.4083
-65.3973
-65.4149
-65.379
-65.2533
-65.1773
-65.0343
-64.7189
-64.8292
-64.4884
-64.0147
-63.8091
-63.4346
-63.2081
-62.9929
-67.7908
-69.1843
-68.8089
-68.2751
-68.2354
-68.4886
-68.5222
-68.5003
-68.6617
-68.7247
-68.4182
-68.0199
-67.6559
-67.3889
-67.1543
-67.4162
-67.5999
-67.921
-68.0449
-67.7981
-67.9666
-67.0671
-66.8054
-66.5298
-65.8924
-65.7055
-65.1695
-64.5582
-64.2622
-70.1827
-74.552
-74.6014
-74.0599
-73.0512
-72.457
-72.7432
-72.6824
-72.5164
-72.5923
-72.0979
-71.3304
-70.8574
-70.3048
-69.5664
-69.3501
-69.8511
-70.2967
-71.1696
-71.4781
-71.1439
-71.0942
-71.0764
-69.776
-69.4059
-68.8179
-68.0861
-67.4201
-66.7291
-66.6952
-66.1053
-71.7902
-74.4493
-74.9104
-75.3249
-74.9852
-74.0839
-74.1327
-74.3773
-74.9306
-74.9825
-75.2998
-74.8172
-73.7366
-73.0138
-72.1471
-71.9278
-71.3091
-72.0427
-72.9949
-74.3337
-74.5267
-74.6252
-74.5747
-74.5609
-73.6693
-72.041
-71.3279
-70.7309
-70.2013
-69.5454
-68.8053
-69.7206
-67.8019
-73.7233
-74.2433
-74.7264
-75.1444
-75.9216
-75.5781
-74.6944
-74.6524
-75.5928
-76.2802
-76.7975
-77.4958
-77.5651
-76.083
-74.2356
-73.828
-72.9105
-72.4796
-73.057
-74.2617
-75.3149
-76.1676
-76.5287
-76.5677
-76.2492
-75.4476
-74.4751
-73.5265
-72.8444
-72.4876
-72.073
-71.7571
-72.0622
-73.4569
-70.7768
-73.5097
-74.2772
-74.7153
-75.093
-76.1118
-75.9806
-75.2978
-74.9839
-75.0419
-75.7365
-76.4129
-77.1348
-77.9099
-78.0963
-77.2392
-75.3026
-74.6162
-74.1385
-73.8282
-74.1913
-74.85
-76.1092
-78.0554
-77.9905
-77.7383
-77.3223
-76.2287
-75.4631
-74.6749
-74.9876
-74.2434
-73.1047
-72.6598
-72.9548
-72.6169
-73.328
-71.5044
-72.9984
-73.8329
-74.2191
-74.9363
-75.4449
-75.831
-75.5704
-75.1804
-75.4293
-75.5353
-75.5447
-76.717
-77.0134
-78.8437
-78.6472
-77.2484
-76.8007
-76.2258
-75.2815
-74.9098
-75.2812
-76.15
-76.9781
-77.5204
-79.4492
-77.7638
-77.0536
-76.8754
-75.9723
-75.2835
-75.2964
-75.8277
-76.4661
-74.947
-73.8783
-73.8635
-73.0479
-71.9524
-71.4522
-73.6291
-73.6339
-74.3465
-74.7551
-75.176
-75.9382
-76.0543
-75.4053
-75.2536
-75.2356
-75.3665
-75.6332
-75.96
-76.0911
-76.8156
-77.1234
-76.6415
-76.3362
-76.0914
-76.0644
-76.4039
-76.1465
-76.2017
-76.3613