/*--------------------------------*- C++ -*----------------------------------*\
  =========                 |
  \\      /  F ield         | OpenFOAM: The Open Source CFD Toolbox
   \\    /   O peration     | Website:  https://openfoam.org
    \\  /    A nd           | Version:  7
     \\/     M anipulation  |
\*---------------------------------------------------------------------------*/
FoamFile
{
    version     2.0;
    format      ascii;
    class       surfaceScalarField;
    location    "6";
    object      phi;
}
// * * * * * * * * * * * * * * * * * * * * * * * * * * * * * * * * * * * * * //

dimensions      [0 3 -1 0 0 0 0];

internalField   nonuniform List<scalar> 
54451
(
-1.17236e-05
0.00117252
-4.9214e-05
-0.0001026
0.00343387
-0.00013586
-2.24054e-06
0.00116285
-5.04241e-05
-1.47243e-05
0.00242429
-3.73969e-05
-0.000246527
0.0037341
-7.77625e-06
-7.84379e-05
0.00351024
-0.000139086
-7.12756e-06
0.0035291
-0.00010296
7.29779e-06
0.00114296
-5.10849e-05
-8.1723e-06
0.00241898
-3.69362e-05
-1.09627e-05
0.00141908
-3.09538e-05
-0.000335787
0.00488375
0.000405288
-0.000212773
0.0039264
4.01276e-06
-0.000163639
0.00484416
1.47563e-05
-5.01044e-05
0.00357295
-0.000141281
5.31867e-06
0.0034797
-0.000103178
3.42081e-05
0.00348403
-4.94395e-05
1.69713e-05
0.00111252
-5.1294e-05
1.01234e-06
0.00240378
-3.68969e-05
-7.12537e-06
0.00141996
-3.06957e-05
-3.11103e-05
0.00121774
-2.86143e-05
-0.000236844
0.00560868
0.00084208
-0.000249315
0.00493944
0.000396292
-0.000259659
0.00506133
0.000394622
-0.000172349
0.0041205
3.35228e-06
-0.000141511
0.00499485
1.53272e-07
9.19972e-05
0.00509468
-9.33634e-06
-1.27412e-05
0.00361303
-0.000143586
2.45576e-05
0.00342534
-0.000110474
7.39849e-05
0.00334971
-4.99747e-05
8.23821e-05
0.00269959
-4.73388e-06
2.51405e-05
0.00107236
-5.03202e-05
1.40121e-05
0.00237394
-3.54666e-05
-2.97641e-06
0.00141702
-3.09738e-05
-2.46417e-05
0.00124032
-2.864e-05
-4.93148e-05
0.000385293
-3.28106e-05
-0.000228886
0.00687237
0.00111553
-6.11939e-05
0.00552944
0.000873898
-4.49778e-05
0.00588433
0.000709015
-0.000258902
0.00507896
0.000379011
-0.000228201
0.00507653
0.000467777
2.13636e-05
0.00536646
0.000373333
-0.000107264
0.00430007
-4.61725e-06
-1.38475e-05
0.0050623
-2.56992e-05
0.000148836
0.00505779
-3.78002e-05
0.00023604
0.00428465
-3.88987e-05
1.91764e-05
0.00363413
-0.000148007
5.62011e-05
0.00336101
-0.000121438
9.65571e-05
0.00319847
-5.87595e-05
0.000117445
0.00250794
-4.11003e-07
8.45381e-05
0.00279131
2.94378e-05
3.56301e-05
0.00102028
-4.94556e-05
2.12218e-05
0.00233703
-3.46363e-05
-2.90522e-06
0.00141547
-3.10096e-05
-2.01965e-05
0.00125779
-2.82474e-05
-4.53117e-05
0.000433364
-3.13997e-05
-6.77993e-05
-6.73921e-05
-3.19374e-05
-0.000319718
0.00706946
0.00140574
7.83188e-06
0.0068955
0.00107278
9.66959e-06
0.00679145
0.00115254
-8.11902e-05
0.00545005
0.000880261
1.65541e-05
0.00573455
0.000778926
1.92779e-05
0.00586393
0.000725917
-0.000225945
0.00511403
0.000520302
-9.06775e-05
0.00512496
0.000407416
3.2508e-05
0.00556393
0.000386631
0.000346233
0.00574248
0.000247345
-4.52987e-05
0.00446136
-2.32386e-05
-0.000112738
0.0052911
-6.4471e-05
0.000238734
0.00495751
-6.75963e-05
0.000304659
0.00410578
-4.61484e-05
0.000149738
0.00439434
2.76276e-05
5.67916e-05
0.00362733
-0.000148848
0.000104224
0.00324312
-0.000113124
0.000102506
0.00304287
-7.12563e-05
0.000132262
0.0022968
-7.52183e-08
9.45728e-05
0.00260258
4.84357e-05
-6.16956e-05
0.00270063
2.6773e-05
4.306e-05
0.000960216
-4.95519e-05
2.82268e-05
0.00229327
-3.39209e-05
1.34793e-05
0.0013987
-3.13537e-05
-1.76594e-05
0.00127202
-2.75793e-05
-4.37079e-05
0.000479162
-3.03371e-05
-6.52769e-05
-2.28378e-06
-3.12311e-05
-3.73743e-05
0.000120923
-2.66959e-05
-0.000297289
0.00648811
0.00159396
-0.000126872
0.00719122
0.00141063
-4.40483e-05
0.00737956
0.0014275
-2.80425e-05
0.00684114
0.00114123
8.98141e-05
0.00660721
0.00118376
0.000180843
0.00652457
0.00112622
-6.53612e-05
0.00539043
0.000884661
-6.61098e-05
0.00581399
0.00077625
2.61805e-05
0.00589841
0.000750776
0.000326646
0.00620179
0.000654972
-0.000164191
0.00516399
0.000415561
-0.000270546
0.00532401
0.000479054
0.000155265
0.00585237
0.000202449
0.000483792
0.00573105
0.00021893
0.000448226
0.00515574
0.000149542
9.33337e-06
0.00463886
-5.39813e-05
0.000136532
0.00533838
-0.000102829
0.00032342
0.0047772
-0.000105073
0.000300447
0.00389654
-2.65391e-05
7.26886e-05
0.0043269
4.31752e-05
-8.14088e-05
0.00435715
0.000105697
8.63503e-05
0.0035914
-0.000149254
0.000156046
0.00307215
-0.000105691
0.000144487
0.00285797
-5.92275e-05
0.000112405
0.0020976
-2.12435e-06
5.85422e-05
0.002437
6.32556e-05
-4.83665e-05
0.00269358
3.8578e-05
-7.37044e-05
0.000815452
-8.77093e-06
4.43531e-05
0.000897684
-4.91549e-05
3.39095e-05
0.00224365
-3.38369e-05
2.91643e-05
0.00136732
-3.16966e-05
-1.85743e-05
0.00128598
-2.67408e-05
-4.23607e-05
0.000523676
-2.97331e-05
-6.23015e-05
6.06092e-05
-3.09285e-05
-4.03972e-05
0.000157506
-2.74168e-05
-3.22001e-05
4.07903e-06
-2.89228e-05
-0.000285015
0.006077
0.00185056
-0.00016745
0.00651643
0.0016065
-6.43169e-05
0.00673296
0.00160114
-0.000122723
0.00725853
0.00142438
4.0496e-05
0.00737839
0.00146112
0.000173049
0.00705623
0.00150095
3.08844e-05
0.00669196
0.00120339
3.0369e-05
0.00634053
0.00131143
0.000206686
0.00626973
0.00125811
0.000445455
0.00630448
0.00126713
-7.44442e-05
0.00542303
0.000865998
-7.83049e-06
0.0056546
0.000781332
6.70868e-05
0.00607563
0.000687205
0.000394896
0.00645674
0.000584723
0.000586623
0.00669694
0.000476622
-8.62917e-05
0.00527124
0.000371474
2.21499e-05
0.00552075
0.000333202
0.000277365
0.00627233
0.000105142
0.000523112
0.00565421
5.66235e-05
0.000420643
0.00482835
0.000198365
0.000288596
0.00430391
0.000164359
6.52289e-05
0.00482863
-8.1028e-05
0.000235277
0.00535962
-0.000154452
0.000376453
0.00456059
-0.000118189
0.000282755
0.00364354
-2.24197e-05
-4.77174e-05
0.00432739
7.92362e-05
-0.000116809
0.0043491
0.000119663
-7.36482e-05
0.00411907
4.37476e-05
0.000115797
0.00351743
-0.000153934
0.000188736
0.00288635
-0.000118284
0.000164137
0.00266492
-4.76111e-05
6.02139e-05
0.00196498
-5.39295e-06
6.66355e-05
0.00225195
7.39277e-05
-2.72805e-05
0.00267328
4.85361e-05
-7.51069e-05
0.000895726
-6.9859e-06
-9.80084e-05
0.00114257
-2.39161e-05
4.83466e-05
0.000829702
-4.89384e-05
4.05274e-05
0.00218687
-3.29101e-05
3.12228e-05
0.00133396
-3.17054e-05
-2.09771e-05
0.00130142
-2.61557e-05
-4.00814e-05
0.000566601
-2.95847e-05
-5.80233e-05
0.00012014
-3.12409e-05
-4.31792e-05
0.000197996
-2.82386e-05
-3.27503e-05
3.88459e-05
-2.94334e-05
3.12368e-05
1.09718e-05
-3.51061e-05
-0.000290822
0.00578854
0.00220007
-0.000222774
0.0060898
0.0018859
-8.97864e-05
0.00612302
0.00190502
-0.000136691
0.00649923
0.00163047
6.82577e-05
0.00667526
0.00163644
0.000192204
0.00653268
0.00161722
-3.89439e-05
0.00729618
0.001431
6.77285e-05
0.00726728
0.00149814
0.000148639
0.00696776
0.00160764
0.000560791
0.00624963
0.00156554
2.4493e-05
0.00656673
0.00116742
5.48931e-05
0.00612544
0.00135575
0.000167796
0.00621608
0.00126437
0.000336867
0.00634139
0.00127923
0.00054246
0.00682698
0.00129924
2.79697e-06
0.00551496
0.000778952
5.69565e-05
0.005611
0.00087479
0.000144966
0.00634926
0.000640102
0.00056799
0.00664718
0.000451886
0.000764983
0.00644982
0.000487504
0.000576956
0.00567562
0.00031256
1.05223e-05
0.00537851
0.000332114
0.000190796
0.00576548
0.000171225
0.000362762
0.00646693
0.000152294
0.000652768
0.00535238
3.69575e-05
0.000444107
0.00416524
0.000227913
0.000211981
0.00396317
0.000210319
-7.2296e-05
0.00506136
0.00022358
0.000162511
0.00496662
-9.7391e-05
0.000317688
0.00533124
-0.000181601
0.000416701
0.00427759
-0.000124018
0.000164083
0.00343119
-9.71338e-06
-2.78078e-05
0.00430786
9.15519e-05
-8.67261e-05
0.00435228
0.000135504
-0.000131669
0.00422314
7.21503e-05
-0.000199001
0.00428197
-1.95076e-05
0.000155209
0.00339482
-0.00015214
0.000211189
0.00268497
-0.000123216
0.000141283
0.00249561
-5.90362e-05
4.12738e-07
0.00190606
-1.00787e-05
7.56661e-05
0.00205068
8.01293e-05
3.48966e-07
0.00263113
5.77094e-05
-5.47206e-05
0.000962403
-6.59953e-06
-8.77343e-05
0.00121251
-2.19419e-05
-5.76631e-05
0.00193518
-5.1984e-05
5.48881e-05
0.00075408
-4.93338e-05
4.8956e-05
0.00212068
-3.17021e-05
3.45251e-05
0.00129779
-3.12598e-05
-2.20831e-05
0.00131725
-2.54469e-05
-3.97078e-05
0.000609872
-2.97187e-05
-5.18053e-05
0.000174547
-3.21864e-05
-4.67468e-05
0.000242584
-2.90826e-05
-3.25429e-05
7.32149e-05
-3.00646e-05
2.85182e-05
-1.19515e-05
-3.50283e-05
3.54321e-05
0.00120413
-4.85035e-05
-0.000326273
0.0056611
0.0024639
-0.000229237
0.00584389
0.00217377
-5.14577e-05
0.00573995
0.00219811
-0.000202972
0.00609529
0.00192625
7.39733e-05
0.0060928
0.0019104
0.000192497
0.00612977
0.00191972
1.14252e-05
0.00642124
0.00164357
6.56273e-05
0.00662833
0.0016795
0.000167617
0.00648301
0.00166712
0.000275373
0.00662284
0.00170405
-3.49553e-06
0.00729597
0.00142911
9.76356e-05
0.00712838
0.00152716
0.000170733
0.00684723
0.00161573
0.000401231
0.00619523
0.00159768
0.000536
0.00615981
0.00156152
9.4699e-05
0.00645904
0.00116317
6.42936e-05
0.00609828
0.00118724
0.000248553
0.00619761
0.00127064
0.000473586
0.00648162
0.00121854
0.000603151
0.00715421
0.00111384
0.000516298
0.00718446
0.00103027
9.21988e-05
0.00562847
0.000772291
0.000219407
0.00568856
0.00067278
0.000180437
0.00667494
0.000731434
0.000764701
0.00677053
0.000404815
0.000893752
0.00596398
0.000488075
0.000737228
0.00524989
0.000387981
7.15241e-05
0.00512464
0.000324223
8.08266e-05
0.00540258
0.000410209
0.000325112
0.00608951
6.61027e-07
0.000661419
0.00629633
9.7113e-05
0.000627496
0.00490949
0.000131776
0.000432195
0.00353077
0.000211425
5.7081e-05
0.00381117
0.000236105
-0.00013561
0.00499754
0.000278073
-0.000259749
0.00481234
0.000232547
0.000254033
0.00502242
-0.000117303
0.000370829
0.00517775
-0.000103539
0.000467539
0.00387834
-0.000108602
5.15747e-05
0.0032562
-1.83217e-07
1.41682e-05
0.00426725
9.23957e-05
-5.16472e-05
0.00434063
0.000155203
-0.000113569
0.00431262
0.000104872
-0.000120635
0.00437715
9.87094e-06
-0.000239967
0.00352598
-3.30062e-05
0.000179218
0.00324164
-0.000141823
0.000214573
0.00249781
-0.000130598
0.000146231
0.00232749
-6.68015e-05
-2.25514e-05
0.00185904
-1.1556e-05
7.31739e-05
0.001851
7.67257e-05
3.44884e-05
0.00255954
6.54223e-05
-4.79552e-05
0.00102957
-8.2476e-06
-7.48395e-05
0.00126891
-2.07082e-05
-5.10219e-05
0.0020399
-4.71179e-05
-9.23119e-05
0.00229609
-9.18115e-05
5.89781e-05
0.000674725
-5.04415e-05
5.5644e-05
0.00204681
-3.11031e-05
3.54777e-05
0.001261
-3.03939e-05
-1.56829e-05
0.00132609
-2.4423e-05
-3.82656e-05
0.000652695
-3.00041e-05
-4.53616e-05
0.000223892
-3.3702e-05
-5.07846e-05
0.000291195
-3.00123e-05
-3.32986e-05
0.000108125
-3.06939e-05
2.53649e-05
-3.23962e-05
-3.49849e-05
3.30299e-05
0.00118502
-4.89476e-05
3.1e-05
0.00142508
-5.87674e-05
-0.000262207
0.0054174
0.0027614
-0.000232714
0.00565276
0.00248464
-0.000122413
0.00558051
0.00249915
-0.000117164
0.00579995
0.00218225
6.72664e-05
0.00571446
0.00220597
0.000229682
0.0057343
0.00223597
-6.34311e-05
0.00610289
0.00195094
1.27629e-05
0.00609774
0.00197417
0.000119507
0.00605753
0.00203075
0.000135031
0.00602291
0.00198085
4.53515e-06
0.00642631
0.00161669
0.000137799
0.00658153
0.00165021
0.00026866
0.00640264
0.00166194
0.000482022
0.00647926
0.00172991
0.000289674
0.00642088
0.00185534
7.7969e-05
0.00725836
0.00146182
0.000154754
0.00694538
0.00152165
0.000206883
0.006797
0.00161905
0.000449094
0.00624886
0.00158659
0.000513598
0.00639375
0.00145329
0.000622586
0.00645012
0.00146396
0.000107044
0.00648299
0.00112377
0.000214287
0.00585793
0.00140863
0.000355481
0.00613203
0.00107778
0.000717943
0.0066758
0.00112322
0.000920102
0.00717503
0.00117137
0.000743754
0.00739134
0.000900429
0.000324432
0.00642689
0.00073606
0.000204395
0.00565824
0.000804996
0.000313854
0.00586395
0.000608165
0.00045091
0.00702481
0.000533428
0.000866491
0.00678565
0.000477314
0.00100995
0.0052667
0.000524338
0.00049226
0.00481475
0.000488036
0.00015335
0.00485287
0.000370786
-7.46177e-05
0.00425923
0.000394697
9.94574e-05
0.00565094
0.00025615
0.00035587
0.0063791
0.000135583
0.00086726
0.00590883
-1.15622e-05
0.000603964
0.0042253
0.000228909
0.000303209
0.0031511
0.0002224
-7.83684e-05
0.00380149
0.000247828
-0.00014097
0.0049685
0.000292548
-0.000113103
0.00475714
0.000325743
-0.000172549
0.00411306
0.000239429
0.00031651
0.00499997
-0.000151057
0.000504059
0.00480096
-2.99993e-05
0.000498699
0.00342251
-1.79206e-07
-2.68661e-05
0.00315633
-4.42184e-06
4.45108e-05
0.00420686
8.88688e-05
-4.0696e-06
0.00430129
0.000170287
-0.000101572
0.00438994
0.000131503
-7.05125e-05
0.00443851
3.91886e-05
-0.000153529
0.00364567
-7.30924e-06
-0.000411371
0.00308364
4.62116e-05
0.000196125
0.00306444
-0.000129421
0.000200515
0.00233778
-0.000126664
0.000141361
0.00217565
-8.46427e-05
-2.72115e-05
0.00181317
-9.39694e-06
7.45484e-05
0.00165901
6.76169e-05
7.22467e-05
0.00245236
6.62955e-05
-5.21498e-05
0.0011079
-1.15488e-05
-6.52386e-05
0.0013131
-2.04947e-05
-4.65928e-05
0.00213803
-4.68758e-05
-6.12976e-05
0.00242397
-8.06669e-05
-2.38253e-05
0.00137268
-0.000100496
5.87922e-05
0.000596191
-5.11769e-05
5.94354e-05
0.00196849
-3.15614e-05
4.26075e-05
0.00121689
-2.95965e-05
-7.36391e-06
0.0013261
-2.30419e-05
-3.30968e-05
0.000691154
-2.97857e-05
-3.91086e-05
0.00026855
-3.55537e-05
-5.49098e-05
0.000343482
-3.10796e-05
-3.41656e-05
0.000143567
-3.12887e-05
2.20318e-05
-4.99482e-05
-3.51736e-05
3.45374e-05
0.0011646
-4.91048e-05
2.26467e-05
0.00141269
-5.91997e-05
-4.72916e-05
0.00120715
-5.23507e-05
-5.37221e-05
0.00506987
0.00316253
-0.000151012
0.00536069
0.00279733
-0.000203231
0.0053644
0.00282228
-0.000123638
0.00565127
0.00249107
-3.93322e-05
0.00563755
0.0025342
0.000157
0.00552432
0.0025331
3.91045e-07
0.00574546
0.00219166
0.000105138
0.00559657
0.00220776
0.00014219
0.00568194
0.00223564
0.000277094
0.00563906
0.00228083
-4.22076e-05
0.00608602
0.00197655
0.000128869
0.00605599
0.00200161
0.000260111
0.00603922
0.00200104
0.000477082
0.00595038
0.00210822
0.000268379
0.0061373
0.00196236
3.6032e-05
0.00644599
0.0016141
0.000239894
0.00649341
0.00161966
0.000142832
0.00643914
0.00167777
0.000402967
0.00646061
0.00172671
0.000436774
0.00635456
0.00187306
0.000567995
0.00644966
0.00197865
0.000141908
0.00718661
0.00149026
8.10268e-05
0.00696459
0.00157587
0.000363578
0.00669751
0.00161305
0.000589461
0.00641808
0.00157832
0.000952162
0.0065193
0.00142898
0.000658525
0.00658857
0.00140007
0.000283898
0.00630706
0.00145473
0.000269409
0.00641391
0.00118089
0.000315309
0.0058365
0.00114375
0.000462844
0.00626852
0.0012602
0.000698425
0.00682401
0.00109763
0.000875241
0.00746991
0.00096304
0.000796418
0.00725594
0.00100262
0.00048138
0.00624615
0.000753135
0.000309121
0.00573096
0.000549064
0.000167264
0.00582548
0.000704593
0.000409864
0.00602172
0.000593226
0.000844716
0.0071733
0.000482215
0.000973471
0.00646379
0.000485784
0.000805999
0.00471057
0.000530653
0.000428632
0.00429371
0.000538377
7.87403e-05
0.00470856
0.000412638
-3.17039e-06
0.00413687
0.00038321
0.00013763
0.00432238
0.000236827
0.000226506
0.00586624
0.00012188
0.000600284
0.00643225
0.000106773
0.0009687
0.00558705
-1.26368e-05
0.000439978
0.00350074
0.000246154
0.000145976
0.00307862
0.000199927
-8.43076e-05
0.00383972
0.000264409
-0.000137803
0.00492832
0.000324246
-4.97224e-05
0.00473222
0.000296678
-0.000121922
0.00414568
0.000261524
-0.000223136
0.00335947
0.0002896
0.000395431
0.00488726
-0.000141886
0.000567263
0.00432135
-3.8192e-05
0.000421835
0.00302541
8.66224e-05
-4.16706e-05
0.00316744
3.171e-06
7.61504e-05
0.00411406
8.6779e-05
7.10809e-05
0.00421584
0.000175484
-6.03771e-05
0.00441566
0.000152788
-1.22557e-05
0.0044603
5.67246e-05
-0.000144933
0.00378476
-1.5596e-06
-0.000324119
0.00329104
4.81166e-05
-6.63961e-05
0.00170118
2.5181e-05
0.000208278
0.00287159
-0.000126966
0.000187142
0.00219231
-0.000111658
0.000135092
0.0020528
-9.63014e-05
-1.13684e-05
0.00174733
-1.4801e-05
7.83077e-05
0.00148349
5.4716e-05
0.000102594
0.00232231
5.59657e-05
-4.06423e-05
0.00117912
-1.919e-05
-5.70977e-05
0.001344
-1.952e-05
-4.54083e-05
0.00222504
-4.00707e-05
-4.05178e-05
0.00252746
-7.5305e-05
-3.87598e-05
0.00144644
-9.30268e-05
-0.00020711
0.000486972
-9.10146e-05
6.29302e-05
0.000513853
-5.19195e-05
5.71415e-05
0.00189198
-3.18052e-05
4.59099e-05
0.00116894
-2.95238e-05
-1.61957e-06
0.00132021
-2.20793e-05
-2.81651e-05
0.000724941
-2.86637e-05
-3.32976e-05
0.000309298
-3.72357e-05
-5.86115e-05
0.000398762
-3.22225e-05
-3.51524e-05
0.000179484
-3.18442e-05
1.9656e-05
-6.55534e-05
-3.53395e-05
3.16837e-05
0.00114721
-4.94652e-05
2.09656e-05
0.00140235
-5.97337e-05
-5.22299e-05
0.00125206
-5.18826e-05
-0.000115964
0.00106309
-3.70878e-05
4.23665e-05
0.00482271
0.00332806
-2.4681e-05
0.00498361
0.00317662
-0.000103685
0.00503597
0.00314671
-0.000108118
0.00534763
0.00282448
-3.8019e-05
0.00531481
0.0028456
0.0001992
0.00525833
0.00282041
-3.01283e-06
0.00560284
0.00251284
0.000112298
0.00556479
0.00255667
0.000195836
0.00544656
0.00255831
0.00024889
0.00550349
0.00253008
4.77811e-05
0.0056825
0.00220036
0.000135709
0.00553827
0.00224312
0.00022328
0.00566559
0.00226094
0.00029663
0.00578025
0.00227491
0.000369075
0.0057865
0.00224617
-3.91291e-06
0.00605918
0.00200379
0.000161359
0.0060928
0.00201828
0.000108617
0.00606405
0.002011
0.000157194
0.0062573
0.00193989
0.000433117
0.00622665
0.00202253
0.000558378
0.00625469
0.00192227
0.000146892
0.00643039
0.00159596
5.9268e-05
0.00648146
0.00164781
0.000275932
0.00648677
0.00165968
0.000275657
0.00664968
0.00180251
0.000480629
0.00665059
0.00190222
0.000512201
0.00647722
0.00199182
0.000265847
0.00650392
0.00199865
0.000266934
0.00715953
0.0015148
0.00029592
0.00688844
0.00158579
0.00055195
0.00654758
0.00163669
0.000630134
0.00651211
0.00158731
0.000672573
0.00683544
0.00146485
0.000753339
0.00663421
0.00142642
0.000340093
0.00650159
0.00134682
0.000472092
0.00678128
0.00143128
0.000315609
0.00630081
0.00117994
0.000427165
0.00590263
0.00109745
0.000503793
0.00680501
0.000948185
0.000790335
0.0071531
0.00111425
0.00074706
0.007513
0.00111348
0.000853764
0.00697063
0.000823219
0.00033713
0.00620336
0.000787019
0.000218387
0.00573652
0.000526018
0.000260796
0.00563079
0.000315223
0.000285089
0.00600249
0.000677571
0.000610188
0.00629508
0.000421338
0.000943561
0.00733304
0.000458621
0.00108067
0.00578216
0.000523153
0.00057155
0.00425066
0.000520122
0.000196562
0.00403045
0.000513051
9.86586e-05
0.00454233
0.000468141
4.89289e-05
0.00407337
0.000377492
0.000145749
0.00430001
0.000137908
0.000208011
0.00452146
0.000184254
0.000436315
0.00607443
-1.42133e-05
0.000794237
0.00616585
0.000161309
0.000894882
0.00513391
8.68619e-05
0.000372198
0.00287555
0.000198685
8.20271e-06
0.003214
0.000178724
-3.09141e-05
0.00389701
0.000244627
-6.12032e-05
0.00489444
0.000299112
-1.63145e-05
0.00475416
0.000306365
-0.000132018
0.0042496
0.000179839
-0.000262051
0.00335681
0.000202113
0.000106924
0.00323919
0.00034782
0.000471341
0.00464634
-8.01703e-05
0.000639148
0.00375468
-2.72289e-05
0.000224876
0.002797
0.000100442
-4.59189e-05
0.00327509
1.35233e-05
9.99993e-05
0.00399897
9.65627e-05
0.000137283
0.00408677
0.000181167
3.91183e-06
0.00438192
0.000164669
1.29801e-05
0.0044767
6.63111e-05
-0.000120395
0.00391731
-8.40043e-07
-0.000247567
0.0034389
5.76292e-05
-9.3669e-05
0.00179342
1.07804e-05
-0.000212428
-7.58953e-05
-0.00013487
0.000219715
0.00266918
-0.000118288
0.000169296
0.00205068
-9.74908e-05
0.000123897
0.00195645
-9.32963e-05
1.30541e-05
0.00166708
-3.07229e-05
7.85016e-05
0.00132994
3.2083e-05
0.000128683
0.00218092
3.41241e-05
-2.37004e-05
0.00122854
-2.83655e-05
-5.25198e-05
0.0013647
-2.25212e-05
-4.01912e-05
0.00230329
-3.79201e-05
-3.4527e-05
0.00261288
-5.92798e-05
-3.87594e-05
0.00152016
-8.92915e-05
-0.000217565
0.00065011
-9.08296e-05
-0.000349746
0.000669492
-0.000118517
6.44918e-05
0.000429723
-5.2463e-05
6.21339e-05
0.00181026
-3.2339e-05
4.77661e-05
0.00111914
-2.97718e-05
4.61976e-06
0.00130811
-2.20484e-05
-2.72772e-05
0.000757159
-2.70192e-05
-3.07266e-05
0.000349686
-3.83255e-05
-6.12973e-05
0.000456288
-3.3464e-05
-3.50122e-05
0.000214615
-3.23414e-05
1.56659e-05
-7.75547e-05
-3.55089e-05
3.41929e-05
0.00112752
-4.98444e-05
2.20615e-05
0.00139066
-5.98365e-05
-4.82117e-05
0.00129329
-5.27485e-05
-0.000119588
0.00116776
-3.69698e-05
-0.000141718
0.00173204
-2.87936e-05
1.55783e-06
0.00475415
0.00367044
0.000132976
0.00467549
0.00333192
0.00011138
0.00477878
0.003312
-5.71552e-05
0.00493395
0.00321372
3.99553e-05
0.00498693
0.00314768
0.000215271
0.00509006
0.00310271
7.65594e-06
0.00531458
0.00286248
0.000107804
0.00529249
0.00285129
0.000197339
0.00525597
0.00284646
0.000248412
0.00520632
0.00281967
3.6597e-05
0.00554182
0.00252785
0.000160282
0.00546525
0.0025878
0.000261397
0.0053764
0.00258872
0.000408862
0.00541062
0.00253894
0.000407854
0.00549166
0.00252824
7.51369e-05
0.00561996
0.00222637
8.20244e-05
0.00554519
0.00227278
0.000183491
0.00558267
0.00225117
0.000143195
0.00577126
0.00228392
0.000456612
0.00580007
0.00223784
0.000523069
0.00577355
0.00224038
0.000160048
0.00600862
0.00197326
0.000242309
0.00588605
0.0020275
0.000233553
0.0061139
0.0020108
0.000182265
0.00635629
0.00200541
0.000284922
0.00637986
0.00198238
0.000475575
0.00632966
0.00198419
0.000294365
0.00629081
0.00191371
0.000178754
0.00649253
0.0015953
0.000286588
0.00646148
0.00162527
0.000241071
0.00677286
0.0016726
0.000401203
0.0067536
0.00178469
0.000418407
0.00677386
0.0019334
0.000415749
0.0066918
0.00202523
0.000344446
0.00649166
0.00199973
0.000537367
0.00656072
0.0020126
0.000381059
0.00704035
0.00154165
0.000454062
0.00686093
0.00151541
0.000273447
0.00672649
0.00163723
0.000791098
0.0065391
0.00160895
0.000669066
0.00690507
0.00159568
0.000629501
0.00684141
0.00148191
0.000376982
0.00648282
0.00140535
0.000437975
0.00665372
0.0012548
0.000311758
0.00679143
0.00143924
0.000284235
0.00632513
0.00124492
0.000524784
0.00616262
0.00100536
0.00106748
0.00678546
0.000993083
0.000926064
0.00721675
0.00103914
0.000682147
0.00751144
0.0010052
0.000406409
0.00679585
0.00107842
0.000398427
0.00598244
0.000744372
0.000424872
0.00562124
0.000526351
0.000494954
0.0055872
0.000220401
0.00030734
0.0063537
0.000123247
0.000515614
0.00618564
0.000589671
0.000670975
0.00674813
0.00034778
0.00105664
0.00716731
0.000425312
0.000909411
0.00515737
0.000546204
0.000430722
0.0038471
0.000504193
0.000278569
0.00380562
0.000435465
6.65305e-05
0.00446711
0.000460541
9.04298e-05
0.00404412
0.000390649
0.000161456
0.00422551
0.000158517
0.000245055
0.00417301
-2.07409e-05
0.000395192
0.00489235
0.000279389
0.000572866
0.00616396
2.47142e-05
0.000924352
0.00575887
0.000107558
0.000703897
0.00456666
0.000249538
0.000199755
0.00257286
0.000143877
-7.52336e-06
0.00336093
0.000159273
5.12811e-05
0.00395931
0.000202431
1.24004e-05
0.00485827
0.000272303
5.85877e-06
0.00483131
0.000229083
-0.00011356
0.00438345
0.000165681
-0.000225732
0.00344689
6.79219e-05
0.000117387
0.00301408
0.000216171
-0.000171785
0.00272452
0.000430075
0.000499286
0.00429827
1.247e-06
0.000624715
0.00320591
1.31842e-05
0.000151191
0.00264255
9.99261e-05
2.38692e-06
0.00334788
3.83145e-05
0.000143764
0.00384717
0.000100063
0.000198744
0.00390074
0.000212527
8.87524e-05
0.0042804
0.000170231
3.34218e-05
0.0044828
7.26333e-05
-0.000123152
0.00407268
-6.09694e-06
-0.000188128
0.00355919
3.24637e-05
-0.000143365
0.00193968
1.59793e-05
-0.000266408
0.000103918
-0.000120189
-0.000406595
-9.65895e-05
-0.000291783
0.000214015
0.00249075
-0.000124142
0.000156638
0.00192053
-8.26372e-05
0.000109844
0.00188237
-8.54898e-05
3.40316e-05
0.00158218
-3.78113e-05
6.60349e-05
0.00121595
-1.00444e-05
0.000141444
0.00203433
6.50712e-06
-8.13244e-06
0.00125076
-4.12625e-05
-4.08284e-05
0.0013682
-2.60489e-05
-3.90636e-05
0.00236929
-3.37942e-05
-2.38519e-05
0.00268779
-5.47855e-05
-4.77862e-05
0.00160842
-7.76972e-05
-0.000212573
0.000826023
-0.000100843
-0.000357576
0.00093628
-0.00011963
-0.000400716
0.00176031
-0.000138877
6.36534e-05
0.000346548
-5.30005e-05
6.53054e-05
0.00172528
-3.27889e-05
4.33886e-05
0.00107338
-2.9969e-05
1.00803e-05
0.00129078
-2.25251e-05
-2.29945e-05
0.000785174
-2.70689e-05
-3.59752e-05
0.000397429
-3.87872e-05
-6.21422e-05
0.000514924
-3.48198e-05
-3.45172e-05
0.000248451
-3.27827e-05
1.37531e-05
-8.78639e-05
-3.57854e-05
3.77817e-05
0.00110444
-5.02036e-05
2.26877e-05
0.00137826
-6.01265e-05
-5.41751e-05
0.0013398
-5.21772e-05
-0.000112863
0.00126487
-3.69908e-05
-0.000140495
0.00186538
-2.98055e-05
-0.000136528
0.00189567
-2.27271e-05
-2.47017e-05
0.0044246
0.0039585
0.000161468
0.00469167
0.00366939
0.000222956
0.00464204
0.00363464
-0.000111848
0.00468072
0.003348
0.000116775
0.00470039
0.00333349
0.000201158
0.00486459
0.00335013
2.68221e-05
0.00491607
0.00324142
0.000177557
0.00495265
0.00317825
0.000222167
0.00511089
0.00310202
0.000300152
0.00496714
0.00311806
4.30829e-06
0.00529734
0.0029021
0.00018126
0.00524531
0.00288868
0.000243964
0.00525223
0.00287245
0.00044665
0.00516549
0.0028495
0.000457421
0.00506584
0.00284992
9.24717e-05
0.00546727
0.00250567
9.17801e-05
0.00540224
0.0025811
0.000205356
0.00535913
0.0025832
0.000311997
0.00524802
0.00258252
0.00057963
0.0053553
0.00255228
0.000567747
0.00539661
0.00254497
0.000150809
0.00562081
0.00224159
0.000212711
0.00551346
0.0022877
0.000311929
0.00550997
0.0022671
0.000217715
0.00574271
0.00224427
0.000291455
0.00581754
0.00225992
0.000415834
0.00586524
0.00220589
0.000409897
0.00566158
0.00213227
0.000150934
0.00600341
0.00196544
0.000336522
0.00580014
0.00200924
0.000311837
0.00605016
0.00202048
0.0004473
0.0062926
0.00202839
0.0004104
0.00636806
0.00202522
0.00036325
0.00632521
0.00203933
0.000435823
0.00621186
0.00197176
0.000588308
0.00614392
0.00190399
0.000297031
0.00652639
0.00161388
0.000518972
0.00638652
0.00160535
0.000492735
0.00647625
0.00170258
0.000559497
0.0068674
0.0017904
0.000450969
0.00683122
0.00194542
0.000518473
0.00672473
0.00201149
0.000388139
0.00649756
0.00200817
0.00061445
0.00640565
0.00197832
0.000585375
0.00621017
0.00190639
0.000376275
0.00691548
0.00155668
0.000447535
0.00691008
0.00156975
0.00108401
0.00665769
0.00156768
0.000580041
0.00691131
0.00161104
0.00067698
0.00689395
0.00162523
0.000426282
0.00682243
0.00159478
0.000445436
0.00654578
0.00137194
0.000755932
0.00643192
0.00129608
0.000530932
0.00679715
0.0012131
0.000592605
0.00694248
0.000891089
0.000442922
0.00636758
0.00126601
0.000651151
0.00641846
0.00100891
0.000959756
0.00685359
0.00103412
0.000802173
0.007272
0.00104507
0.000692381
0.00724762
0.00104131
0.000616851
0.0066467
0.000816066
0.000326426
0.00593025
0.000870707
0.000341221
0.00551388
0.000600947
0.000515334
0.00551709
0.000242589
0.000597694
0.00605911
0.000162358
0.000637637
0.00535896
0.000142521
0.000641861
0.00644212
0.000531134
0.000984816
0.00691543
0.000361905
0.00126379
0.0065365
0.000418697
0.000671639
0.00459939
0.000511407
0.000349604
0.00355662
0.000479562
0.000194519
0.00381979
0.000346786
0.000190102
0.00430181
0.000423064
0.0001297
0.00411363
0.000267186
0.000199019
0.00414578
0.000157808
0.000225232
0.0039157
-3.51368e-05
0.000336682
0.00450212
0.000150196
-5.09721e-05
0.00614132
6.21904e-05
0.000654452
0.00597117
0.000210969
0.000984309
0.00524937
0.000174621
0.000625936
0.00390443
0.000295045
6.81617e-05
0.00266848
8.81483e-05
5.78105e-05
0.00349068
0.000100083
0.000133174
0.00400917
0.00017498
0.000129611
0.0048163
0.000203546
4.25795e-05
0.00491029
0.000184164
-0.000113865
0.00448127
0.000121977
-0.000136298
0.00350828
5.24599e-05
1.59674e-06
0.00286414
7.28979e-05
-0.000144492
0.00246595
0.000352829
-0.000152941
0.00364244
0.000361245
0.000518036
0.00389454
7.793e-05
0.000500354
0.00278866
7.47852e-05
0.000127592
0.00253614
0.000101845
5.54498e-05
0.00337678
4.9612e-05
0.000184302
0.0036937
7.35189e-05
0.00026104
0.00368478
0.000196429
0.000161867
0.00413693
0.000186003
5.49123e-05
0.00449363
6.36556e-05
-0.000111096
0.00422875
-1.1408e-05
-0.000159173
0.0036786
9.8207e-06
-0.000165069
0.0020833
6.1265e-06
-0.000298667
0.00031286
-0.000106869
-0.000468293
0.000172997
-0.000279058
-0.000668477
0.00117337
-0.00029521
0.000170437
0.00236229
-0.000118645
0.000133955
0.00182253
-9.47916e-05
8.77774e-05
0.00183788
-8.25351e-05
3.67221e-05
0.00151272
-4.26685e-05
5.70771e-05
0.00114046
-4.23944e-05
0.000126538
0.00189724
-3.54687e-05
-4.23754e-06
0.00125276
-5.33961e-05
-2.41654e-05
0.00135108
-3.44947e-05
-3.08713e-05
0.00242296
-3.50937e-05
-7.52678e-06
0.00274519
-4.58854e-05
-5.00384e-05
0.00170527
-7.89124e-05
-0.000245009
0.00102639
-8.72279e-05
-0.000354894
0.0012032
-0.000125736
-0.000403824
0.00204449
-0.000140477
-0.000458116
0.00270091
-3.2136e-05
6.00606e-05
0.00026798
-5.33046e-05
7.33968e-05
0.00163214
-3.32515e-05
3.79958e-05
0.00103272
-3.01245e-05
1.39563e-05
0.00126958
-2.27252e-05
-1.80491e-05
0.000808765
-2.8067e-05
-4.08871e-05
0.000451472
-4.0224e-05
-6.02315e-05
0.000572592
-3.62237e-05
-3.2696e-05
0.000279509
-3.31818e-05
1.16789e-05
-9.61681e-05
-3.61573e-05
3.91189e-05
0.00108016
-5.06249e-05
2.40542e-05
0.00136449
-6.04894e-05
-5.36504e-05
0.00138499
-5.16625e-05
-0.000119385
0.00136904
-3.696e-05
-0.000135274
0.00199361
-2.99533e-05
-0.000127629
0.00201663
-2.31381e-05
-8.22547e-05
0.000721628
-1.93201e-05
0.000116415
0.00422225
0.00413779
6.17599e-05
0.00452389
0.00401919
0.000242325
0.00447684
0.00392409
-4.77148e-05
0.00457176
0.00370504
0.000181425
0.00456054
0.00368623
0.000267995
0.00459776
0.00361708
-3.35958e-05
0.00466425
0.00337879
0.000176773
0.00465655
0.00339263
0.000262971
0.00478682
0.00337046
0.000316311
0.00478042
0.00337891
4.30889e-05
0.00487894
0.00323986
0.000236881
0.00492649
0.00321196
0.000377274
0.00501874
0.0031371
0.000405725
0.00499462
0.00311546
0.000418552
0.00486722
0.00314241
3.35489e-05
0.00530124
0.00291518
0.000136791
0.00521703
0.00288537
0.000233535
0.00522973
0.002883
0.000334454
0.00513235
0.00288313
0.000606056
0.00500572