/*--------------------------------*- C++ -*----------------------------------*\
  =========                 |
  \\      /  F ield         | OpenFOAM: The Open Source CFD Toolbox
   \\    /   O peration     | Website:  https://openfoam.org
    \\  /    A nd           | Version:  7
     \\/     M anipulation  |
\*---------------------------------------------------------------------------*/
FoamFile
{
    version     2.0;
    format      ascii;
    class       surfaceScalarField;
    location    "6";
    object      phi_0;
}
// * * * * * * * * * * * * * * * * * * * * * * * * * * * * * * * * * * * * * //

dimensions      [0 3 -1 0 0 0 0];

internalField   nonuniform List<scalar> 
54451
(
-1.05343e-05
0.0011569
-4.96798e-05
-0.000101071
0.00344498
-0.000136749
-1.20578e-06
0.00114618
-5.08401e-05
-1.37772e-05
0.00241515
-3.71871e-05
-0.000246117
0.00375863
-6.75505e-06
-7.56407e-05
0.00352044
-0.000139819
-5.8103e-06
0.00350931
-0.000103631
8.45553e-06
0.00112487
-5.12471e-05
-7.70955e-06
0.00240912
-3.71051e-05
-1.07907e-05
0.00141099
-3.07946e-05
-0.000334543
0.00488565
0.000405072
-0.000208959
0.00395262
3.66349e-06
-0.000163073
0.0048668
8.29173e-06
-4.65912e-05
0.0035813
-0.000141387
4.94687e-06
0.00346178
-0.000104944
3.88681e-05
0.00345769
-5.02679e-05
1.78173e-05
0.00109313
-5.10257e-05
3.43261e-06
0.00239117
-3.67311e-05
-6.70361e-06
0.00141145
-3.08678e-05
-3.01604e-05
0.00121473
-2.87627e-05
-0.000229753
0.00559389
0.000843747
-0.000245578
0.00493877
0.000394687
-0.000263215
0.00506746
0.000392569
-0.000166505
0.00414695
1.35715e-06
-0.000134681
0.00501296
-2.86779e-06
0.000104158
0.00508072
-1.7874e-05
-8.13817e-06
0.00361838
-0.000144328
2.84563e-05
0.00340832
-0.000112946
7.78431e-05
0.00331992
-5.17209e-05
8.79426e-05
0.00266404
-4.45026e-06
2.58897e-05
0.00105168
-4.99282e-05
1.55229e-05
0.0023597
-3.50805e-05
-3.19686e-06
0.00140899
-3.10713e-05
-2.38427e-05
0.00123644
-2.87353e-05
-4.92326e-05
0.000390515
-3.27197e-05
-0.000216867
0.00686851
0.00111701
-5.73442e-05
0.00551518
0.000873126
-4.71485e-05
0.00585933
0.000718566
-0.00026414
0.00508606
0.000380609
-0.000224042
0.00507998
0.000471528
3.08235e-05
0.0053972
0.000365892
-9.97143e-05
0.00432656
-8.3514e-06
-6.467e-06
0.00508242
-3.31811e-05
0.000158644
0.00503925
-4.21999e-05
0.00024396
0.00425428
-4.18116e-05
2.33091e-05
0.00363622
-0.000148327
6.21691e-05
0.00333989
-0.000122548
9.60316e-05
0.0031697
-6.19503e-05
0.000120905
0.00246843
-8.60484e-07
8.41018e-05
0.00276593
3.21967e-05
3.64496e-05
0.000998592
-4.94479e-05
2.07457e-05
0.00232337
-3.43438e-05
-1.91631e-06
0.00140698
-3.11547e-05
-1.9984e-05
0.0012536
-2.82555e-05
-4.57704e-05
0.000438836
-3.12857e-05
-6.83786e-05
-6.31681e-05
-3.18012e-05
-0.000309135
0.0070892
0.0014063
8.43138e-06
0.00688893
0.0010748
9.71195e-06
0.00677704
0.00116101
-8.60708e-05
0.00543665
0.000878517
3.91541e-06
0.00572208
0.000782413
1.46661e-05
0.0058712
0.000729863
-0.000222585
0.00511781
0.000521953
-8.45325e-05
0.00514654
0.000392122
4.1643e-05
0.0056139
0.000371837
0.00035978
0.00574646
0.000244104
-3.85848e-05
0.00449007
-2.87404e-05
-0.000100033
0.0053092
-7.29234e-05
0.000253373
0.00492422
-7.54992e-05
0.000308372
0.00406952
-4.49125e-05
0.000136048
0.00437457
2.91628e-05
6.09509e-05
0.00362471
-0.000148779
0.000111133
0.00321241
-0.000111238
0.000104851
0.00301276
-7.23735e-05
0.00013101
0.00225649
-9.99535e-07
8.80677e-05
0.00258071
5.05286e-05
-6.06332e-05
0.00271353
2.89899e-05
4.27467e-05
0.000938674
-4.95934e-05
2.79706e-05
0.00227979
-3.38397e-05
1.72576e-05
0.00138691
-3.15317e-05
-1.76479e-05
0.00126765
-2.75482e-05
-4.4408e-05
0.000485256
-3.02673e-05
-6.57463e-05
2.37283e-06
-3.10804e-05
-3.84115e-05
0.000114827
-2.66947e-05
-0.000288388
0.00649455
0.00159649
-0.000122973
0.00720754
0.00141116
-4.37548e-05
0.00738438
0.0014329
-2.30944e-05
0.00681653
0.00114949
8.31996e-05
0.00657394
0.00119862
0.000178695
0.00649438
0.00114381
-6.83445e-05
0.00538653
0.000881155
-6.94176e-05
0.00581253
0.000772951
2.70014e-05
0.00592213
0.00074613
0.000336921
0.00623286
0.000645302
-0.000158839
0.00517328
0.000407389
-0.000262686
0.00535033
0.00048081
0.000177356
0.00591256
0.00016948
0.000494503
0.00573222
0.000199938
0.000445591
0.00511946
0.000152247
1.58244e-05
0.00467244
-5.99704e-05
0.000155126
0.00534871
-0.000112253
0.000331039
0.00473603
-0.000110921
0.000295767
0.00385607
-2.68011e-05
5.15631e-05
0.0043191
4.70608e-05
-8.63607e-05
0.00434934
0.000106395
8.86648e-05
0.00358414
-0.000149858
0.000161012
0.00303768
-0.000107084
0.000152321
0.00282335
-5.68965e-05
0.000105483
0.00206441
-3.43219e-06
5.53297e-05
0.00241537
6.46001e-05
-4.70591e-05
0.00270502
4.03532e-05
-7.54493e-05
0.000825424
-8.39471e-06
4.33985e-05
0.000876761
-4.90952e-05
3.41409e-05
0.00222976
-3.3702e-05
2.98209e-05
0.00135505
-3.1805e-05
-1.88118e-05
0.00128164
-2.67181e-05
-4.29523e-05
0.000530346
-2.96861e-05
-6.26085e-05
6.55658e-05
-3.08519e-05
-4.14793e-05
0.000152564
-2.73387e-05
-3.31104e-05
-4.75623e-06
-2.88365e-05
-0.000279122
0.0060758
0.00185379
-0.0001611
0.00651871
0.00160937
-5.79352e-05
0.00673498
0.00160419
-0.000116558
0.00727157
0.00142686
4.38803e-05
0.0073696
0.00146525
0.000169419
0.00703327
0.00151
2.95143e-05
0.00666242
0.0012088
2.26235e-05
0.00630897
0.00132242
0.000205122
0.00624665
0.00126822
0.00044103
0.00629803
0.00127323
-7.6903e-05
0.00543253
0.000857269
-7.88211e-06
0.00565482
0.000784061
7.64397e-05
0.00611889
0.000677103
0.000406243
0.00649535
0.000571902
0.000608507
0.00669502
0.000471938
-7.83408e-05
0.00528629
0.000366911
4.12103e-05
0.00555814
0.000313492
0.000291332
0.00632573
0.000107341
0.000531761
0.00562595
3.97626e-05
0.000415223
0.00475329
0.000202448
0.000285109
0.00424793
0.000169886
7.45529e-05
0.00486032
-8.43061e-05
0.000247849
0.00536532
-0.000163412
0.000381369
0.00451578
-0.000121047
0.000270994
0.00360146
-2.18246e-05
-5.3525e-05
0.00431959
8.15651e-05
-0.000117606
0.00434622
0.000120729
-8.55423e-05
0.0041387
4.69383e-05
0.000118528
0.00350392
-0.000154818
0.00019205
0.00284915
-0.000119244
0.000160919
0.00263429
-4.91151e-05
4.9811e-05
0.00194557
-6.67813e-06
6.58953e-05
0.00222841
7.46736e-05
-2.48174e-05
0.00268179
5.00366e-05
-7.43673e-05
0.000905614
-6.9488e-06
-9.75862e-05
0.00113562
-2.29839e-05
4.86245e-05
0.000808234
-4.90781e-05
4.18237e-05
0.00217146
-3.26148e-05
3.14843e-05
0.00132159
-3.17235e-05
-2.11496e-05
0.00129714
-2.61484e-05
-4.06135e-05
0.000573823
-2.95821e-05
-5.80328e-05
0.00012516
-3.12471e-05
-4.42966e-05
0.000194196
-2.81872e-05
-3.37186e-05
3.09011e-05
-2.92774e-05
2.98259e-05
-8.80834e-07
-3.47972e-05
-0.000286498
0.00579182
0.00219693
-0.00021689
0.00608872
0.00188866
-8.47391e-05
0.00612156
0.00190945
-0.000130187
0.00650025
0.00163303
7.18636e-05
0.00667602
0.00164034
0.000188804
0.00652132
0.00162069
-3.15328e-05
0.00729952
0.00143209
6.48195e-05
0.00724991
0.00150435
0.000146112
0.00694493
0.00161259
0.000554473
0.00623531
0.00156986
1.79155e-05
0.00654504
0.00116782
5.08154e-05
0.00610602
0.00135305
0.000167288
0.00621288
0.00126535
0.00033126
0.00636426
0.00127698
0.000536624
0.00685787
0.0012877
1.68383e-05
0.00552508
0.000768999
6.79338e-05
0.00562934
0.000856032
0.000151827
0.00639987
0.000642585
0.000590429
0.00667483
0.000438959
0.000784121
0.00640682
0.000491201
0.000595435
0.00563576
0.00031803
2.15361e-05
0.00538774
0.000331655
0.00020805
0.00582346
0.000141396
0.000396351
0.00647119
0.000153047
0.000660106
0.00530148
4.26932e-05
0.000444379
0.0040671
0.000228055
0.000192675
0.00392575
0.000214356
-8.52846e-05
0.00505454
0.000230496
0.000174935
0.00498533
-9.82081e-05
0.000328645
0.00532507
-0.000180655
0.000420915
0.00421746
-0.000125092
0.00014192
0.00339684
-8.53396e-06
-2.34598e-05
0.00429543
9.16839e-05
-8.34353e-05
0.00434861
0.000137791
-0.000134066
0.00424197
7.71591e-05
-0.00019258
0.00430669
-1.59668e-05
0.000158966
0.00337521
-0.000150774
0.000211901
0.00264895
-0.000124693
0.000139186
0.00246829
-6.09549e-05
-5.69095e-06
0.00189226
-1.12613e-05
7.47018e-05
0.00202623
8.01886e-05
3.08818e-06
0.00263627
5.90791e-05
-5.30694e-05
0.000971192
-6.76776e-06
-8.69277e-05
0.00120318
-2.13029e-05
-5.85098e-05
0.00194373
-5.03892e-05
5.50502e-05
0.000732618
-4.97541e-05
4.96686e-05
0.00210437
-3.16621e-05
3.42074e-05
0.00128595
-3.11788e-05
-2.13344e-05
0.00131213
-2.53816e-05
-4.01762e-05
0.000617594
-2.97428e-05
-5.15072e-05
0.000179357
-3.22726e-05
-4.79555e-05
0.000239961
-2.90566e-05
-3.35531e-05
6.61896e-05
-2.99226e-05
2.71723e-05
-2.26228e-05
-3.47077e-05
3.39313e-05
0.00119575
-4.82414e-05
-0.00032539
0.00566063
0.00246574
-0.000219383
0.00584178
0.00217273
-4.67759e-05
0.00573775
0.0021988
-0.000197558
0.00609536
0.00192948
7.69843e-05
0.00609075
0.00191435
0.000188996
0.00612654
0.00192407
1.83615e-05
0.00642516
0.00164366
7.24633e-05
0.00662346
0.00167795
0.000164232
0.00647311
0.00167044
0.000269862
0.00662877
0.00170689
-6.16126e-06
0.00729143
0.0014331
9.57505e-05
0.00710721
0.00152986
0.000176235
0.00682321
0.00161713
0.000393162
0.00618863
0.00159737
0.000525331
0.00616845
0.00155485
0.00010297
0.00644076
0.00116261
7.04858e-05
0.00609185
0.00117943
0.000258277
0.00620061
0.00125886
0.000496053
0.00651129
0.0012127
0.000622338
0.00719044
0.0011062
0.000522887
0.00722351
0.00101796
0.000101938
0.00564198
0.000768773
0.0002323
0.00571005
0.000664034
0.000216249
0.00671951
0.000716504
0.000786996
0.00678098
0.00040954
0.000904525
0.0058944
0.000491231
0.000725573
0.00519346
0.000400598
7.7104e-05
0.00508647
0.000329297
8.4254e-05
0.00543587
0.000392698
0.000335898
0.00614902
-1.15742e-06
0.000683183
0.00627127
7.90502e-05
0.000623138
0.00482436
0.000148953
0.000421447
0.00345474
0.000210144
3.122e-05
0.0037996
0.000239546
-0.000141305
0.00499267
0.00028346
-0.000249645
0.00481436
0.000244243
0.000262495
0.00502384
-0.000121442
0.000387579
0.00513636
-8.51759e-05
0.000471519
0.0038055
-0.000101027
4.02715e-05
0.00322635
-5.65973e-07
1.75781e-05
0.00425237
9.16509e-05
-4.73593e-05
0.00433327
0.000157468
-0.000113558
0.00433086
0.000109382
-0.000111914
0.00439366
1.51789e-05
-0.00022813
0.00355716
-3.42064e-05
0.0001797
0.00321974
-0.000139812
0.000210752
0.00246777
-0.000130675
0.000144876
0.00230271
-6.97775e-05
-2.48387e-05
0.00184707
-1.22599e-05
7.17627e-05
0.00182777
7.52641e-05
3.99667e-05
0.00255862
6.6365e-05
-4.87889e-05
0.00103978
-8.67373e-06
-7.40633e-05
0.00125711
-2.01875e-05
-5.2071e-05
0.00204735
-4.56793e-05
-9.53037e-05
0.00232751
-9.00932e-05
5.8305e-05
0.000654224
-5.07872e-05
5.56688e-05
0.00203037
-3.14239e-05
3.60678e-05
0.00124848
-3.02596e-05
-1.4219e-05
0.00131947
-2.43e-05
-3.8161e-05
0.000660367
-2.99936e-05
-4.53052e-05
0.000228758
-3.38383e-05
-5.20927e-05
0.000289792
-3.00108e-05
-3.45453e-05
0.000102234
-3.05556e-05
2.40464e-05
-4.1894e-05
-3.46979e-05
3.18018e-05
0.00117787
-4.8624e-05
2.9804e-05
0.00143013
-5.85608e-05
-0.000262249
0.00541604
0.00276213
-0.000223735
0.00565189
0.00248617
-0.000119389
0.00558152
0.00250179
-0.000108756
0.00579376
0.00218174
7.25139e-05
0.00570809
0.00220686
0.000227317
0.00573063
0.00223749
-5.8042e-05
0.00610387
0.00195509
1.8745e-05
0.00609658
0.00197736
0.000122338
0.00605153
0.00203126
0.000123079
0.0060265
0.00198201
6.12663e-06
0.00642783
0.00161444
0.000139323
0.00657633
0.00164721
0.000263961
0.00640251
0.00166082
0.000481236
0.00647838
0.00173276
0.000290297
0.00642134
0.0018582
8.21663e-05
0.00725722
0.00146505
0.000150583
0.00693315
0.00152706
0.000215771
0.00677767
0.00161791
0.000471698
0.00624863
0.00158149
0.000528333
0.00641498
0.00144484
0.000615305
0.00645963
0.00145719
0.000107592
0.00647829
0.00112311
0.000226337
0.00585916
0.00140126
0.000370316
0.00615832
0.00106765
0.000734983
0.0067104
0.00111176
0.000923624
0.00721821
0.00116583
0.000758513
0.00739832
0.00089845
0.000336071
0.00640863
0.000734126
0.000206652
0.00568639
0.00078855
0.000327147
0.00588997
0.000597609
0.00047823
0.00706118
0.000527315
0.000882755
0.00675413
0.000483738
0.00100104
0.00519469
0.000529655
0.000458416
0.00475827
0.000499224
0.000148206
0.00482114
0.000376414
-7.2061e-05
0.00423572
0.000393299
0.000108638
0.00569262
0.000237971
0.000384642
0.00640872
0.000135927
0.000885341
0.00587118
-1.48818e-05
0.000591991
0.00411546
0.000236234
0.00028104
0.00311853
0.000221705
-8.82251e-05
0.00380171
0.000248903
-0.000146516
0.0049687
0.00029648
-9.90778e-05
0.00475741
0.000327574
-0.00016213
0.00411793
0.000244565
0.000323022
0.00499367
-0.000152807
0.000509206
0.00474642
-2.99506e-05
0.000493552
0.00335338
1.82769e-05
-3.39058e-05
0.00313888
-4.49359e-06
4.735e-05
0.00418821
8.80041e-05
2.45154e-06
0.00429091
0.000171527
-0.000100001
0.00440369
0.000135858
-6.46155e-05
0.00445038
4.32069e-05
-0.000150673
0.00367597
-5.03173e-06
-0.000412114
0.00312252
4.41794e-05
0.000196261
0.00304061
-0.00012818
0.000196335
0.00231207
-0.000124777
0.000139913
0.00215516
-8.69655e-05
-2.68512e-05
0.00180009
-1.01653e-05
7.41594e-05
0.00163754
6.56467e-05
7.59094e-05
0.00244709
6.55808e-05
-5.25832e-05
0.00111896
-1.23265e-05
-6.48435e-05
0.00129877
-2.00328e-05
-4.76642e-05
0.0021442
-4.5323e-05
-6.02077e-05
0.00245269
-7.88503e-05
-2.47195e-05
0.00139152
-9.99816e-05
5.82687e-05
0.000576512
-5.14919e-05
5.86896e-05
0.0019527
-3.18055e-05
4.28673e-05
0.0012038
-2.9613e-05
-6.65614e-06
0.00131877
-2.29032e-05
-3.25778e-05
0.000698316
-2.96709e-05
-3.8964e-05
0.000273419
-3.56907e-05
-5.62886e-05
0.000343347
-3.11049e-05
-3.54184e-05
0.000138796
-3.11543e-05
2.08836e-05
-5.84491e-05
-3.48839e-05
3.28976e-05
0.00115903
-4.87519e-05
2.14547e-05
0.00141906
-5.90124e-05
-4.80119e-05
0.00122075
-5.22511e-05
-5.28373e-05
0.00506581
0.00316105
-0.000145799
0.00536121
0.00279819
-0.000197737
0.00536184
0.00282462
-0.000116562
0.00564957
0.00249272
-3.0091e-05
0.00563464
0.00253566
0.000159147
0.00552244
0.00253628
7.05986e-06
0.00573622
0.00219216
0.000107885
0.00559071
0.00220998
0.000142069
0.00568126
0.0022365
0.000264174
0.00563712
0.00227802
-3.62986e-05
0.00608328
0.00197867
0.000131257
0.00605693
0.00200282
0.00024899
0.00604259
0.00200127
0.000477478
0.00595416
0.00210734
0.000262742
0.00614996
0.00196101
3.91733e-05
0.00644745
0.00161399
0.000235563
0.00648728
0.00161851
0.000145922
0.00644011
0.00167946
0.000409893
0.0064718
0.0017292
0.000440753
0.00636362
0.00187805
0.000568039
0.00645074
0.00197968
0.000144928
0.00718294
0.00149501
8.50834e-05
0.00696237
0.00157708
0.000377714
0.0066834
0.00161393
0.000592078
0.00643238
0.00157706
0.000950468
0.00654245
0.00142718
0.000662368
0.00660161
0.00139901
0.000285983
0.00631828
0.0014514
0.000279151
0.00640027
0.00118491
0.000325589
0.00584586
0.00113798
0.000500042
0.00629467
0.0012431
0.000700968
0.00686475
0.00109509
0.000877845
0.00750057
0.000952594
0.000789639
0.00723508
0.000997843
0.000475587
0.00622513
0.000754571
0.000311459
0.00572277
0.000541649
0.000168841
0.00586274
0.000698045
0.000430659
0.0060654
0.000567099
0.000863914
0.00720633
0.000473878
0.000984261
0.00640177
0.000487405
0.000769328
0.00465677
0.000533374
0.000411489
0.00424832
0.000539893
6.76408e-05
0.0046876
0.000418602
3.30225e-06
0.00412831
0.000381445
0.000138455
0.00431909
0.000226615
0.000249523
0.00590415
9.88336e-05
0.000623121
0.0064163
0.000116475
0.000964128
0.00553782
-1.28998e-06
0.000420729
0.00340203
0.000243915
0.000125292
0.00307849
0.000198324
-8.36545e-05
0.00384476
0.000264761
-0.000132482
0.00492612
0.000323967
-4.33781e-05
0.00473833
0.000294321
-0.000122402
0.00416271
0.000254523
-0.000227596
0.00335892
0.000286484
0.000405024
0.00486434
-0.000135275
0.000574811
0.00425328
-3.81458e-05
0.000396254
0.00297889
8.81919e-05
-4.23301e-05
0.0031692
3.43585e-06
7.81425e-05
0.00409238
8.73541e-05
7.82161e-05
0.00420142
0.000175188
-5.3256e-05
0.00442035
0.000155539
-6.2836e-06
0.0044678
5.9879e-05
-0.000143076
0.0038152
-6.16072e-07
-0.000315589
0.00332483
4.80351e-05
-6.4645e-05
0.00172441
2.45481e-05
0.000208372
0.00284693
-0.000126147
0.000184114
0.00216741
-0.000108951
0.000131619
0.00203842
-9.67889e-05
-9.90511e-06
0.00173292
-1.65473e-05
7.79462e-05
0.00146503
5.18209e-05
0.00010581
0.00231414
5.38148e-05
-3.98218e-05
0.0011884
-2.03263e-05
-5.73366e-05
0.00132758
-1.92244e-05
-4.67571e-05
0.0022303
-3.84898e-05
-4.01846e-05
0.00255359
-7.31391e-05
-4.05755e-05
0.00146695
-9.22458e-05
-0.000209004
0.000512945
-9.06408e-05
6.26525e-05
0.000494568
-5.21939e-05
5.66124e-05
0.00187672
-3.21219e-05
4.60136e-05
0.0011556
-2.96236e-05
-1.10689e-06
0.00131236
-2.20963e-05
-2.77953e-05
0.000731643
-2.8435e-05
-3.33564e-05
0.000314419
-3.73141e-05
-5.99711e-05
0.000399896
-3.22677e-05
-3.63381e-05
0.000175746
-3.17168e-05
1.84259e-05
-7.29912e-05
-3.50381e-05
3.09537e-05
0.00114231
-4.91228e-05
2.00379e-05
0.00140977
-5.95013e-05
-5.24634e-05
0.00126601
-5.18124e-05
-0.000116717
0.00107834
-3.6982e-05
4.443e-05
0.00481698
0.00332732
-2.32928e-05
0.00498383
0.00317522
-9.86639e-05
0.00503301
0.00314494
-0.00010146
0.00534662
0.00282598
-2.78603e-05
0.00531092
0.00284688
0.000201655
0.00525564
0.00282198
2.82953e-06
0.00559772
0.0025154
0.000120669
0.00555558
0.002559
0.000201348
0.00543941
0.00255941
0.000248317
0.00549852
0.00252962
4.86625e-05
0.005678
0.00220127
0.000134019
0.00553553
0.00224458
0.000220105
0.0056586
0.00226151
0.000299212
0.00577821
0.00227368
0.000358618
0.00578551
0.00224383
1.97265e-06
0.0060536
0.00200565
0.00016655
0.00608595
0.00201866
0.000109488
0.00606942
0.00201242
0.000153629
0.00627497
0.00193673
0.000437955
0.00623873
0.00202137
0.000558104
0.00626139
0.00191934
0.000150119
0.00643212
0.00159486
5.47773e-05
0.0064857
0.00164588
0.000279986
0.00649774
0.00165861
0.000264137
0.00667132
0.00180788
0.000467395
0.00666629
0.00190961
0.000507589
0.00648815
0.00199542
0.000269756
0.0065078
0.0019966
0.000274557
0.00715592
0.0015178
0.00031164
0.00688537
0.00158596
0.000570629
0.00655265
0.00163725
0.000636558
0.0065199
0.00159081
0.000669054
0.00685299
0.00147532
0.000740764
0.00664594
0.00143172
0.000339597
0.00650819
0.00134508
0.000479117
0.00677821
0.00142614
0.000311988
0.00629608
0.00118491
0.000433566
0.00593837
0.00108949
0.000500382
0.00684844
0.000947741
0.000803358
0.00718323
0.00110553
0.000723934
0.00752267
0.00111838
0.000829799
0.00694441
0.000824955
0.000321043
0.00618645
0.000783121
0.000223583
0.00573227
0.000524793
0.000285859
0.00564828
0.000298923
0.000308601
0.00604003
0.000668431
0.000624304
0.00635225
0.000410016
0.000956257
0.00733081
0.0004505
0.00106269
0.0057066
0.000527085
0.000545743
0.00420388
0.000519849
0.000177477
0.00401113
0.000509435
9.26355e-05
0.00453132
0.000471055
5.82734e-05
0.00406784
0.000377419
0.000148296
0.00429591
0.000133933
0.000207465
0.00448595
0.000171844
0.000455443
0.00610771
-2.09174e-05
0.000814817
0.00611651
0.000158619
0.000866057
0.00507307
0.000111421
0.000355762
0.00280941
0.000193235
4.34363e-07
0.00322404
0.000176076
-2.56847e-05
0.00390563
0.00024135
-5.17182e-05
0.00489276
0.000296582
-1.22744e-05
0.00476448
0.000303802
-0.000130538
0.00427169
0.000172804
-0.000261784
0.00337363
0.000186004
0.000114475
0.00322712
0.000340877
0.000475858
0.0046074
-6.8379e-05
0.000641375
0.00368408
-2.33371e-05
0.000200141
0.00277125
0.000100972
-4.49576e-05
0.00327668
1.57664e-05
0.000102322
0.00397403
9.74127e-05
0.000144112
0.00406761
0.000182867
1.16159e-05
0.00437868
0.000165418
1.50921e-05
0.00448249
6.84223e-05
-0.000118151
0.00394659
-1.14921e-07
-0.000239231
0.00346607
5.71977e-05
-0.000100208
0.00182264
9.43721e-06
-0.000217588
-4.77389e-05
-0.000135633
0.000218632
0.00264713
-0.000118218
0.000165667
0.00202735
-9.51395e-05
0.000120655
0.00194701
-9.21877e-05
1.47099e-05
0.00165297
-3.26538e-05
7.76249e-05
0.00131494
2.8121e-05
0.000130893
0.00217084
3.08739e-05
-2.20546e-05
0.001234
-2.97019e-05
-5.22498e-05
0.00134578
-2.26086e-05
-4.15712e-05
0.00230756
-3.64929e-05
-3.47114e-05
0.00263769
-5.69269e-05
-3.95589e-05
0.00154154
-8.81323e-05
-0.000219587
0.000678426
-9.06037e-05
-0.000352838
0.000695529
-0.000117258
6.36297e-05
0.000411464
-5.27186e-05
6.2108e-05
0.00179504
-3.2618e-05
4.70507e-05
0.00110634
-2.99056e-05
5.40028e-06
0.00129953
-2.2197e-05
-2.70576e-05
0.000763503
-2.68985e-05
-3.12626e-05
0.000355556
-3.83094e-05
-6.25194e-05
0.00045862
-3.35197e-05
-3.6103e-05
0.000211796
-3.22154e-05
1.4435e-05
-8.39111e-05
-3.52318e-05
3.36693e-05
0.00112308
-4.94723e-05
2.11845e-05
0.00139906
-5.95984e-05
-4.90482e-05
0.00130824
-5.26755e-05
-0.000120204
0.00118334
-3.66064e-05
-0.000141949
0.00175101
-2.86335e-05
4.59649e-06
0.0047521
0.0036695
0.000130686
0.00467206
0.00333125
0.00011188
0.00477414
0.00331301
-4.99278e-05
0.00493517
0.0032137
4.54211e-05
0.00498769
0.00314726
0.000214281
0.00509103
0.0031023
1.15127e-05
0.00531289
0.00286482
0.00011584
0.00528923
0.00285251
0.000201352
0.00525555
0.00284697
0.000250158
0.00520108
0.0028222
3.95049e-05
0.00553445
0.00252838
0.000159581
0.00545671
0.00258871
0.000260343
0.00536844
0.00258972
0.00041496
0.00540297
0.00253921
0.000403713
0.0054838
0.00252752
7.77158e-05
0.00561747
0.00222729
8.58585e-05
0.00554366
0.00227383
0.000182845
0.0055787
0.00225112
0.000136592
0.00577235
0.00228441
0.000456749
0.00580336
0.00223703
0.000519063
0.00577173
0.00223751
0.000164431
0.0060036
0.00197156
0.000246492
0.00587244
0.00202743
0.000242464
0.00611525
0.00201036
0.000185669
0.00636057
0.00200529
0.000276131
0.00638696
0.00197976
0.000475826
0.00632992
0.0019846
0.000305289
0.00628117
0.0019128
0.000181954
0.00649698
0.00159619
0.000307613
0.00646066
0.00162393
0.000245148
0.00679429
0.0016748
0.000410664
0.00676988
0.00178594
0.000420531
0.00678485
0.00193784
0.000405367
0.00670505
0.00202811
0.000348169
0.00649543
0.00199921
0.000543525
0.0065514
0.00200997
0.000386105
0.00702775
0.00154329
0.000457658
0.00686587
0.0015132
0.000265713
0.00673461
0.00163866
0.000774037
0.00657413
0.00161234
0.000658341
0.0069048
0.00160459
0.000605453
0.00685336
0.00149224
0.000374861
0.00648065
0.00140545
0.000456524
0.00664309
0.00124725
0.000337981
0.0067936
0.00142641
0.000286872
0.00633917
0.00124862
0.000536114
0.00620777
0.0010037
0.00110783
0.00679154
0.000994826
0.000913495
0.00724134
0.00103882
0.000676352
0.0074982
0.000999395
0.000379001
0.00678243
0.00107884
0.000390731
0.00596311
0.000750203
0.000430432
0.00561512
0.000528114
0.00050958
0.00559197
0.000219825
0.000331592
0.0063493
0.000119628
0.000533506
0.0062336
0.000577661
0.000687093
0.00680273
0.000345669
0.00107407
0.00710869
0.000424117
0.00087869
0.00508545
0.000548721
0.000419109
0.00380873
0.000503561
0.00027665
0.00380075
0.000427895
7.28037e-05
0.00445757
0.00045867
9.71312e-05
0.00404383
0.000385662
0.000164192
0.0042197
0.000158901
0.000247892
0.00414402
-3.38127e-05
0.000397841
0.00486008
0.000272669
0.000587047
0.0061619
4.49765e-05
0.000934926
0.00569578
0.00010626
0.000680743
0.00448245
0.000268635
0.000179424
0.002557
0.000139444
-7.58105e-06
0.00337276
0.000154423
6.06238e-05
0.00396829
0.000196911
2.49413e-05
0.00485485
0.000265934
9.88601e-06
0.00484727
0.000219003
-0.00011004
0.00440298
0.000164396
-0.000217054
0.00346323
6.10241e-05
0.000109461
0.00300531
0.000198145
-0.000171607
0.00271057
0.00042126
0.00049956
0.00424853
1.40795e-05
0.000610361
0.00315004
2.09687e-05
0.000145314
0.00262339
9.98644e-05
3.89066e-06
0.00334773
4.0736e-05
0.000147252
0.00382125
9.89216e-05
0.000205607
0.00387629
0.000214016
9.95109e-05
0.00426901
0.000170975
3.52147e-05
0.00448745
7.29927e-05
-0.000126054
0.00410559
-6.09694e-06
-0.000185249
0.00358571
3.07748e-05
-0.000144649
0.0019697
1.52259e-05
-0.000272662
0.000135602
-0.000120828
-0.000420359
-8.54551e-05
-0.000291073
0.000208732
0.00247478
-0.000123232
0.000151994
0.00190205
-8.28052e-05
0.000105926
0.00187755
-8.45518e-05
3.42744e-05
0.00157047
-3.85679e-05
6.45602e-05
0.00120767
-1.69994e-05
0.000141811
0.00202332
2.56396e-06
-7.35191e-06
0.00125221
-4.25058e-05
-3.98182e-05
0.00134629
-2.64963e-05
-4.03716e-05
0.00237227
-3.25152e-05
-2.38119e-05
0.0027118
-5.31232e-05
-4.82521e-05
0.00163054
-7.64905e-05
-0.000213928
0.000855683
-0.000100509
-0.000360124
0.000963051
-0.000118205
-0.000402075
0.0017858
-0.000138562
6.20627e-05
0.0003302
-5.32626e-05
6.56716e-05
0.0017097
-3.30574e-05
4.17659e-05
0.00106201
-3.00557e-05
1.07196e-05
0.00128156
-2.26502e-05
-2.21128e-05
0.000790513
-2.70949e-05
-3.82517e-05
0.00040572
-3.88112e-05
-6.31458e-05
0.000518347
-3.48901e-05
-3.55062e-05
0.000246444
-3.26614e-05
1.26588e-05
-9.3278e-05
-3.55074e-05
3.7043e-05
0.00110063
-4.98282e-05
2.24473e-05
0.00138699
-5.98476e-05
-5.46537e-05
0.00135527
-5.19807e-05
-0.000113117
0.00128054
-3.67555e-05
-0.000140953
0.00188482
-2.94623e-05
-0.000135661
0.00191236
-2.26336e-05
-2.06057e-05
0.00442721
0.00395846
0.000159589
0.00468678
0.00367022
0.000224248
0.00463763
0.00363454
-0.000111244
0.00468322
0.00334841
0.00011595
0.00470013
0.00333474
0.00020086
0.00486096
0.00335104
3.39245e-05
0.00491536
0.00324101
0.000186032
0.0049527
0.00317849
0.000228834
0.00510928
0.00310153
0.000302341
0.00496232
0.00311876
4.33492e-06
0.00529805
0.0029033
0.0001839
0.00524042
0.00288931
0.000246239
0.00524924
0.00287292
0.000449652
0.00516249
0.00285087
0.000455886
0.00505997
0.0028519
9.25352e-05
0.00546253
0.00250544
9.2048e-05
0.0053995
0.0025794
0.000204198
0.0053546
0.0025812
0.000309565
0.00523761
0.00258211
0.000583201
0.00534393
0.00255262
0.000565517
0.00538979
0.00254372
0.000154524
0.00561967
0.00224125
0.000221001
0.00550806
0.00228838
0.000318851
0.0055077
0.00226845
0.000229144
0.00573811
0.00224189
0.000293358
0.00581282
0.00225772
0.000413167
0.00586908
0.00220234
0.000410115
0.00566441
0.00213061
0.000151977
0.00599902
0.00196704
0.000347592
0.00579572
0.00200831
0.000321441
0.00604557
0.00202082
0.000459052
0.00629316
0.00202938
0.000426351
0.00636019
0.00202623
0.000356538
0.00631659
0.00204193
0.000438952
0.00620086
0.00197412
0.000592314
0.00613474
0.0019038
0.000312313
0.0065163
0.00161783
0.000531226
0.00637728
0.001606
0.00051589
0.00646415
0.0017039
0.000546879
0.006876
0.00179584
0.000452386
0.00683115
0.0019456
0.000518898
0.00672126
0.00200819
0.000385402
0.00650672
0.00200628
0.000620395
0.00641199
0.00197475
0.000598404
0.00620076
0.0018991
0.000376172
0.00690559
0.00155862
0.00045897
0.00691393
0.00157238
0.0011284
0.00666296
0.00156429
0.000578713
0.00693239
0.00161519
0.000665266
0.00689906
0.00162916
0.000413526
0.00682371
0.00159972
0.000453241
0.00654309
0.00136728
0.000755116
0.00643634
0.00128752
0.000542918
0.00680862
0.00119889
0.000616941
0.00696399
0.000887278
0.000463692
0.00637854
0.00126292
0.000674416
0.00645846
0.00101061
0.000955849
0.00687254
0.00104092
0.000786005
0.0072887
0.00104015
0.000687199
0.00722849
0.00104043
0.000620478
0.00663505
0.000802943
0.000334375
0.00591049
0.000869884
0.000346512
0.00550596
0.000609979
0.000514857
0.00550746
0.000261959
0.000622438
0.00601738
0.000177196
0.000638741
0.00532494
0.000149961
0.000654617
0.00649516
0.000529018
0.000984881
0.00696259
0.000367844
0.00127858
0.00643796
0.000418562
0.000638634
0.004538
0.000512362
0.000348828
0.00352508
0.00047596
0.00019245
0.00383085
0.000341638
0.000201397
0.00429165
0.000417356
0.000134611
0.00412612
0.000251655
0.000198284
0.00414504
0.000151998
0.00022003
0.00389473
-2.88946e-05
0.000324282
0.00447242
0.000139028
-3.51787e-05
0.00613768
5.80856e-05
0.000664499
0.00592439
0.000237463
0.000972882
0.00518163
0.000196609
0.000608189
0.00383024
0.000295592
5.30189e-05
0.00269188
8.46301e-05
6.45693e-05
0.00350198
9.29055e-05
0.000142726
0.0040166
0.000168993
0.000143552
0.00481507
0.00019265
4.5383e-05
0.00492644
0.000176593
-0.000116179
0.00449748
0.000114636
-0.000130552
0.00352271
5.02198e-05
-7.42234e-06
0.00286258
6.65281e-05
-0.00013196
0.00242509
0.000342925
-0.000167923
0.00360849
0.00035162
0.000511085
0.00384741
8.73088e-05
0.000480206
0.00275262
8.32852e-05
0.000121138
0.00252634
0.000102809
5.77381e-05
0.00337358
5.05562e-05
0.000187697
0.00367105
6.77975e-05
0.00026736
0.0036579
0.000191766
0.00016815
0.00411969
0.000187827
5.58418e-05
0.00449862
6.41468e-05
-0.00011147
0.00426208
-1.23909e-05
-0.000156159
0.00370342
8.54821e-06
-0.000165746
0.00211374
4.22781e-06
-0.000302577
0.000347459
-0.000107982
-0.0004776
0.000188286
-0.000277093
-0.000672955
0.00120351
-0.000293927
0.000161743
0.00235433
-0.000118447
0.000130923
0.00180857
-9.5e-05
8.30887e-05
0.00183578
-8.23625e-05
3.52901e-05
0.00150516
-4.38042e-05
5.70661e-05
0.00113343
-4.35082e-05
0.000121415
0.00188861
-4.19553e-05
-4.52796e-06
0.00125064
-5.44837e-05
-2.3204e-05
0.00132662
-3.51471e-05
-3.15895e-05
0.00242451
-3.44798e-05
-8.87093e-06
0.00276888
-4.36765e-05
-4.9716e-05
0.00172792
-7.83374e-05
-0.000246206
0.00105669
-8.59437e-05
-0.000356873
0.00123034
-0.000124044
-0.000404417
0.00206979
-0.00013873
-0.00045596
0.00272485
-3.16115e-05
5.93187e-05
0.000252781
-5.35345e-05
7.36332e-05
0.00161636
-3.35494e-05
3.70905e-05
0.0010221
-3.02363e-05
1.45593e-05
0.00125982
-2.28781e-05
-1.79476e-05
0.000813968
-2.81576e-05
-4.0862e-05
0.000459792
-4.03046e-05
-6.09387e-05
0.00057678
-3.63056e-05
-3.36745e-05
0.00027829
-3.30614e-05
1.05427e-05
-0.000100576
-3.59061e-05
3.80264e-05
0.00107735
-5.02589e-05
2.3295e-05
0.0013741
-6.02316e-05
-5.39511e-05
0.00140083
-5.14576e-05
-0.000120614
0.00138593
-3.67577e-05
-0.000135452
0.00201302
-2.95056e-05
-0.000126685
0.0020327
-2.31251e-05
-8.13081e-05
0.00073173
-1.93816e-05
0.000121125
0.00422532
0.00413755
6.33181e-05
0.00452256
0.0040202
0.000243296
0.0044768
0.00392524
-4.64572e-05
0.00456502
0.00370633
0.000182049
0.00455465
0.00368709
0.000267078
0.00459481
0.00361733
-2.57249e-05
0.00466617
0.00337932
0.000183611
0.00465647
0.00339449
0.000265843
0.00478556
0.00337313
0.000318261
0.00477677
0.0033801
3.97088e-05
0.0048819
0.00323857
0.000241951
0.00492464
0.00321101
0.000383652
0.00501376
0.0031366
0.000406073
0.00499172
0.00311572
0.000418531
0.00486622
0.00314237
3.80444e-05
0.00529917
0.00291482
0.000134968
0.00521578
0.00288502
0.000231426
0.00522895
0.00288237
0.000336048
0.0051259