/*--------------------------------*- C++ -*----------------------------------*\
  =========                 |
  \\      /  F ield         | OpenFOAM: The Open Source CFD Toolbox
   \\    /   O peration     | Website:  https://openfoam.org
    \\  /    A nd           | Version:  7
     \\/     M anipulation  |
\*---------------------------------------------------------------------------*/
FoamFile
{
    version     2.0;
    format      ascii;
    class       volVectorField;
    location    "6";
    object      U;
}
// * * * * * * * * * * * * * * * * * * * * * * * * * * * * * * * * * * * * * //

dimensions      [0 1 -1 0 0 0 0];

internalField   nonuniform List<vector> 
18870
(
(-0.15026 0.582444 -1.3122)
(-0.435152 1.66791 -0.922279)
(-0.124673 0.58894 -1.33817)
(-0.389883 1.18526 -0.964335)
(-0.938735 1.70733 -0.0929576)
(-0.424463 1.71634 -0.941615)
(-0.234711 1.7834 -1.09558)
(-0.103179 0.596227 -1.37169)
(-0.407991 1.15021 -0.978314)
(-0.320851 0.706798 -0.728025)
(-1.06872 2.2646 1.30504)
(-0.986055 1.76801 0.0224829)
(-0.452065 2.35225 0.0342161)
(-0.450718 1.74188 -0.94774)
(-0.279778 1.74613 -1.11177)
(-0.158099 1.77087 -0.506087)
(-0.0649994 0.598132 -1.40047)
(-0.392733 1.14103 -0.969743)
(-0.408551 0.65497 -0.695004)
(-0.568673 0.523751 -0.652656)
(-1.10271 2.63568 2.41824)
(-1.11558 2.34027 1.09543)
(-1.20821 2.36495 1.30623)
(-0.976987 1.83302 0.0636808)
(-0.565597 2.41419 0.0206673)
(-0.175503 2.56316 0.096475)
(-0.483622 1.75707 -0.951842)
(-0.321155 1.72077 -1.13933)
(-0.086915 1.75545 -0.479555)
(-0.0774797 1.40193 -0.199119)
(-0.0531308 0.599481 -1.40548)
(-0.346378 1.1357 -0.934544)
(-0.414164 0.639699 -0.702372)
(-0.587547 0.501073 -0.672782)
(-0.942602 0.0354816 -0.667014)
(-0.620509 3.3787 2.21145)
(-1.01109 2.68132 2.43192)
(-0.698554 2.88734 1.75716)
(-1.15873 2.14927 1.47783)
(-1.2666 2.28971 1.45624)
(-0.0521844 2.66803 1.23306)
(-0.916273 1.92397 0.0138383)
(-0.620149 2.47365 -0.0296557)
(-0.177035 2.56111 -0.0271909)
(0.251823 2.23846 -0.189398)
(-0.509523 1.78041 -0.955166)
(-0.333904 1.70696 -1.15951)
(-0.138537 1.67924 -0.547903)
(-0.025559 1.33031 -0.236432)
(0.192581 1.47705 0.113677)
(-0.0433793 0.593358 -1.40669)
(-0.377453 1.12239 -0.868057)
(-0.411883 0.6417 -0.684998)
(-0.599353 0.48605 -0.676766)
(-0.929458 0.00674875 -0.640813)
(-0.842135 -0.18027 -0.851122)
(-1.0145 3.37689 2.38191)
(-0.484806 3.34984 2.30895)
(-0.389393 3.39123 2.3118)
(-1.21265 2.50393 2.39954)
(-0.807864 2.77222 1.85736)
(-0.739032 2.81853 1.77936)
(-1.2227 2.35506 1.2395)
(-0.877545 2.58484 1.0041)
(-0.080039 2.69656 1.51696)
(0.325026 2.93314 1.10321)
(-0.884609 2.02621 -0.0593187)
(-0.596711 2.5273 -0.0528752)
(-0.175269 2.56242 -0.223625)
(0.293355 2.20565 -0.326796)
(-0.0127514 2.25731 -0.161782)
(-0.483169 1.81706 -0.962782)
(-0.335253 1.67219 -1.2073)
(-0.28982 1.56517 -0.689313)
(-0.0197849 1.24581 -0.297109)
(0.185103 1.41457 0.224984)
(-0.315634 1.30848 0.336041)
(-0.0285193 0.583063 -1.40755)
(-0.429003 1.10331 -0.808145)
(-0.407418 0.614187 -0.703821)
(-0.583744 0.476831 -0.676001)
(-0.907217 -0.0208653 -0.613982)
(-0.820467 -0.193037 -0.807287)
(-0.373358 -0.00412511 -0.57318)
(-0.755683 3.13079 2.33208)
(-0.944227 3.42248 2.35566)
(-0.645095 3.59124 2.35809)
(-0.717737 3.38486 2.20829)
(-0.437359 3.42228 2.131)
(-0.0734534 3.16337 2.3015)
(-1.36615 2.37206 2.43762)
(-1.01858 2.66134 1.86965)
(-1.00103 2.83143 2.05692)
(0.191564 3.07511 1.7854)
(-1.22133 2.34641 1.08506)
(-1.61403 1.73948 2.06231)
(-0.0125015 3.02483 1.52464)
(0.368308 2.9654 0.894027)
(0.133494 2.68484 0.495783)
(-0.885065 2.12137 -0.0470953)
(-0.472259 2.67443 -0.159901)
(-0.18633 2.52249 -0.552961)
(0.237517 2.14366 -0.396827)
(-0.126088 2.18737 -0.0789502)
(-0.68249 2.08246 0.445738)
(-0.510621 1.81921 -1.01643)
(-0.306998 1.63269 -1.20289)
(-0.085748 1.57843 -0.516357)
(-0.0861273 1.13571 -0.337408)
(0.118075 1.3412 0.290843)
(-0.350122 1.2912 0.514716)
(-0.324704 0.3394 0.0793985)
(-0.0174678 0.575719 -1.41243)
(-0.456457 1.04902 -0.797317)
(-0.400974 0.593432 -0.725959)
(-0.572434 0.465235 -0.664814)
(-0.871338 -0.0441608 -0.582598)
(-0.797272 -0.208347 -0.780136)
(-0.407366 -0.0185288 -0.578935)
(-0.247156 -0.0409188 -0.645975)
(-0.763954 2.9237 2.34027)
(-0.776745 3.117 2.33812)
(-0.495033 3.28079 2.31952)
(-1.23152 3.35087 2.32345)
(-0.817376 3.58124 2.37829)
(-0.431301 3.4718 2.50406)
(-0.824451 3.294 2.25672)
(-0.750608 3.02464 2.46925)
(-0.173756 3.17878 2.50582)
(0.0120242 3.0949 2.31784)
(-1.44535 2.32417 2.41224)
(-1.0644 2.68412 1.84474)
(-0.937776 2.807 2.02936)
(0.312493 3.24617 1.59071)
(0.756184 3.46999 1.4001)
(-1.21342 2.26178 1.02447)
(-1.0121 2.76108 1.46986)
(0.102485 3.26585 0.942986)
(0.0897821 2.98883 -0.274149)
(-0.474742 2.4703 0.52892)
(-0.360884 2.20666 0.475384)
(-0.913519 2.22159 0.0759595)
(-0.411862 2.81695 -0.455986)
(-0.26824 2.42569 -0.783494)
(-0.00068105 2.00115 -0.38627)
(-0.5753 2.06095 0.169992)
(-0.752741 2.03993 0.509242)
(-0.691537 1.93629 0.43227)
(-0.637232 1.7391 -1.15266)
(-0.294581 1.56711 -1.14655)
(0.112493 1.59276 -0.402769)
(-0.210282 1.01419 -0.325373)
(0.034327 1.25069 0.293606)
(-0.379647 1.27682 0.671733)
(-0.358492 0.350094 0.0772912)
(-0.439023 0.483796 -0.210609)
(-0.010291 0.566516 -1.4275)
(-0.445297 1.03871 -0.763566)
(-0.389102 0.577663 -0.728946)
(-0.54974 0.463342 -0.662991)
(-0.814386 -0.0498805 -0.55218)
(-0.775512 -0.225832 -0.777745)
(-0.440498 -0.0343884 -0.586426)
(-0.245012 -0.0416697 -0.668326)
(0.358367 0.06695 -0.681038)
(-0.647455 2.77708 2.51709)
(-0.850436 2.8821 2.37209)
(-0.583301 2.94048 2.40603)
(-0.879678 3.09168 2.33112)
(-0.538588 3.26881 2.32819)
(-0.169015 3.20632 2.34014)
(-1.37491 3.36088 2.29404)
(-0.982139 3.47555 2.43835)
(-0.625585 3.39489 2.56831)
(0.230961 3.2066 2.55122)
(-1.09884 3.13768 2.16521)
(-0.893098 2.94175 2.58196)
(-0.51046 3.17065 2.70267)
(-0.297726 3.02646 2.63907)
(0.240347 3.40362 2.68204)
(-1.43065 2.3423 2.21473)
(-1.09238 2.60604 1.79516)
(-1.00351 2.85728 2.06287)
(0.301629 3.47936 1.26871)
(0.938534 3.53232 1.25443)
(0.769157 2.97927 0.963937)
(-1.27456 2.3204 0.976239)
(-0.854027 2.76822 1.33314)
(0.100074 3.4356 0.637022)
(-0.0112842 2.93195 -0.325645)
(-0.831784 2.09502 0.653777)
(-0.704161 1.91105 0.738784)
(-0.285241 2.49996 0.558296)
(-0.835265 2.39932 0.0943929)
(-0.416704 2.86638 -0.822279)
(-0.499604 2.22323 -0.943308)
(-0.406866 1.75726 -0.259376)
(-0.601864 2.06094 0.194098)
(-0.761511 2.02685 0.580974)
(-0.809825 1.92358 0.501059)
(-0.80286 1.963 -0.0057386)
(-0.693549 1.6792 -1.23164)
(-0.328403 1.46799 -1.07505)
(0.0224541 1.50212 -0.634525)
(-0.389528 0.894341 -0.258806)
(-0.0586604 1.1417 0.228155)
(-0.378758 1.26448 0.826659)
(-0.391471 0.364377 0.0694473)
(-0.488953 0.491574 -0.185283)
(-0.120039 0.920488 -0.161012)
(-0.00369545 0.552919 -1.44989)
(-0.416556 1.06061 -0.727795)
(-0.381724 0.557557 -0.716196)
(-0.531915 0.469437 -0.655573)
(-0.751024 -0.0500068 -0.522028)
(-0.758666 -0.242139 -0.795638)
(-0.471865 -0.052539 -0.598164)
(-0.23301 -0.032986 -0.693873)
(0.329849 0.0722172 -0.677016)
(0.181187 0.647029 -0.941569)
(-0.65756 2.69215 2.50905)
(-0.788466 2.75426 2.45365)
(-0.454075 2.7719 2.51002)
(-1.04434 2.8093 2.40227)
(-0.639956 2.92757 2.44278)
(-0.351969 2.9699 2.46226)
(-0.944242 3.06406 2.3552)
(-0.691725 3.19863 2.38482)
(-0.441221 3.16969 2.41513)
(0.111389 3.20491 2.37942)
(-1.49141 3.29261 2.29837)
(-1.12067 3.37788 2.47628)
(-0.791343 3.33375 2.62003)
(-0.056029 3.08363 2.82021)
(0.318771 3.06786 2.78677)
(-1.16233 2.98711 2.31308)
(-1.00661 2.88173 2.51585)
(-0.52695 2.94672 2.80179)
(-0.201345 3.32667 2.39245)
(0.182238 3.60124 2.42717)
(0.159702 3.44473 2.49306)
(-1.34404 2.40067 2.19781)
(-0.95237 2.63877 1.57289)
(-1.15056 2.93707 2.45596)
(0.505863 3.68503 0.964093)
(1.15088 3.52276 0.928737)
(0.576718 2.91099 1.15826)
(-0.822134 2.48265 0.642242)
(-1.28633 2.42796 0.87255)
(-0.79052 2.86888 1.1418)
(0.165149 3.69448 -0.303855)
(-0.394916 2.63939 0.297978)
(-0.863488 1.71614 0.588924)
(-0.756494 1.77404 0.788727)
(-0.752501 2.369 0.586571)
(-0.846246 2.23734 0.884283)
(-0.768281 2.56749 -0.0343702)
(-0.401252 2.9135 -0.987886)
(-0.704424 1.98602 -0.809947)
(-0.787443 1.47296 -0.129883)
(-0.592778 2.06365 0.174012)
(-0.752427 2.01997 0.65541)
(-0.750847 1.9782 0.567549)
(-0.821842 2.01309 0.177222)
(-0.817731 1.57301 -0.173348)
(-0.679953 1.63762 -1.22482)
(-0.360746 1.36605 -0.961902)
(-0.0310221 1.4388 -0.772345)
(-0.537458 0.783517 -0.194962)
(-0.188418 0.997586 0.085966)
(-0.32997 1.26016 0.980086)
(-0.444057 0.367171 0.0518328)
(-0.543595 0.489338 -0.175614)
(-0.205058 0.960213 -0.155412)
(0.109256 1.12071 -0.601661)
(0.0108949 0.542297 -1.47107)
(-0.406807 1.07256 -0.711029)
(-0.361565 0.559339 -0.694859)
(-0.486726 0.497126 -0.641514)
(-0.686804 -0.0391356 -0.491841)
(-0.742674 -0.259681 -0.827374)
(-0.500081 -0.0712862 -0.617902)
(-0.231351 -0.0261228 -0.716754)
(0.290052 0.0727217 -0.67436)
(0.147079 0.647465 -0.935167)
(0.275988 0.751768 -1.25428)
(-0.63722 2.55519 2.58224)
(-0.749646 2.65755 2.51831)
(-0.446499 2.66202 2.54428)
(-0.884224 2.69861 2.46815)
(-0.447044 2.76399 2.49811)
(-0.17852 2.82492 2.49989)
(-1.05719 2.82035 2.42266)
(-0.855629 2.86614 2.4914)
(-0.495458 2.95751 2.44373)
(-0.443296 2.8945 2.48291)
(-1.10655 2.94397 2.36842)
(-0.884825 3.12448 2.36599)
(-0.61669 3.13031 2.46383)
(-0.376309 3.24976 2.41747)
(-0.0344356 3.19525 2.62856)
(-1.57253 3.24843 2.29962)
(-1.32522 3.23539 2.46068)
(-0.860834 3.22965 2.65753)
(-0.292259 3.11138 2.78757)
(0.098582 3.1467 2.62684)
(0.341925 3.20816 2.43907)
(-1.39143 2.96347 2.22023)
(-0.952635 2.83364 2.35295)
(-0.703031 3.15811 2.1512)
(-0.20284 3.3435 2.28157)
(-0.0366304 3.62078 2.41612)
(0.450613 3.88924 1.97067)
(0.197241 3.24464 1.73297)
(-1.48376 2.4574 2.15209)
(-0.92586 2.74078 1.53116)
(-0.669863 3.60558 1.64368)
(0.44402 3.8161 1.03233)
(0.994155 3.26175 0.981609)
(-0.185357 2.55121 1.5029)
(-0.856956 2.32547 0.839441)
(-0.907271 2.01612 0.936833)
(-1.28794 2.47655 0.865638)
(-1.04615 2.95705 1.69011)
(0.408384 3.73763 -1.15092)
(-0.654427 2.21718 0.929163)
(-0.77486 1.42921 0.578951)
(-0.810348 1.69112 0.735605)
(-1.01136 2.27134 0.696345)
(-0.688495 2.26039 1.19777)
(-0.962077 1.90335 0.619439)
(-0.876979 2.59551 -0.255456)
(-0.480776 2.79956 -1.03553)
(-0.650148 1.76413 0.0577887)
(-0.887358 1.32771 -0.137062)
(-0.622659 2.04841 0.127155)
(-0.707513 2.02573 0.681413)
(-0.806872 2.00338 0.66382)
(-0.810273 2.02686 0.387861)
(-0.834042 1.6416 -0.0955729)
(-1.31424 1.12672 -0.0919566)
(-0.698402 1.55422 -1.18917)
(-0.390533 1.26934 -0.80462)
(-0.13664 1.31162 -0.989279)
(-0.589673 0.71914 -0.163883)
(-0.2858 0.844141 -0.00105341)
(-0.272735 1.25313 1.06739)
(-0.511315 0.359965 0.0127193)
(-0.603918 0.469157 -0.185541)
(-0.282531 0.991813 -0.144953)
(-0.0349133 1.18176 -0.531025)
(-0.0870465 0.630813 -0.793651)
(0.028992 0.539078 -1.48723)
(-0.363034 1.07216 -0.726844)
(-0.278385 0.595164 -0.679042)
(-0.467093 0.512409 -0.615486)
(-0.625022 -0.017814 -0.458072)
(-0.720024 -0.275445 -0.865299)
(-0.523096 -0.0893984 -0.648136)
(-0.233106 -0.0221027 -0.735847)
(0.260498 0.0721033 -0.673357)
(0.101088 0.639942 -0.928086)
(0.138548 0.759966 -1.27462)
(-0.164162 0.558111 -1.41769)
(-0.484894 2.43308 2.71652)
(-0.716623 2.53316 2.58223)
(-0.535745 2.54313 2.58384)
(-0.802408 2.64335 2.51726)
(-0.595942 2.671 2.55658)
(-0.266082 2.66164 2.56456)
(-0.969395 2.67144 2.46199)
(-0.671084 2.69055 2.48885)
(-0.510724 2.71887 2.4992)
(-0.17886 2.76962 2.60104)
(-1.23914 2.72847 2.4572)
(-0.866048 2.84741 2.50742)
(-0.46089 2.91848 2.54088)
(0.107958 2.87665 2.69488)
(-0.301732 2.94811 2.55213)
(-1.2651 2.93381 2.26751)
(-0.928358 3.13095 2.26227)
(-0.804924 3.04163 2.39504)
(-0.351475 3.20863 2.36528)
(-0.259564 3.12289 2.65349)
(0.112262 3.24896 2.75525)
(-1.71543 3.15909 2.36079)
(-1.29372 3.14063 2.55635)
(-0.887191 3.22692 2.61648)
(-0.0568652 3.20737 2.7376)
(0.732151 3.38192 2.54861)
(0.166838 3.30983 2.21755)
(-0.185716 3.06081 2.5687)
(-1.2866 2.91677 2.303)
(-1.00952 2.79266 2.28727)
(-0.822778 2.66553 3.07215)
(-0.312406 3.44161 2.1506)
(0.13585 3.83064 2.10971)
(0.138003 3.72309 2.24969)
(0.186192 3.2021 1.7312)
(-0.0723753 2.85964 1.22716)
(-1.73698 2.27472 2.19168)
(-0.998986 2.85784 1.68323)
(-0.52638 3.73074 1.37144)
(0.376901 3.87466 0.888696)
(0.303018 2.8326 1.26741)
(-0.866378 2.0417 1.6426)
(-0.842361 2.16779 0.980292)
(-0.689792 1.9173 0.956364)
(-0.332691 2.09966 1.00902)
(-1.32222 2.63753 0.792967)
(-0.863884 3.49466 0.695343)
(0.357753 3.63355 -0.929606)
(-0.946482 1.66304 1.09204)
(-0.743551 1.3253 0.555424)
(-0.863067 1.66682 0.7936)
(-1.1646 2.17788 0.824239)
(-0.711183 2.23487 1.1754)
(-0.686177 1.89167 0.900779)
(-1.33118 1.50459 0.946365)
(-0.941699 2.56875 -0.34403)
(-0.605062 2.50688 -1.09607)
(-0.56245 1.55344 0.757403)
(-0.95908 1.23493 -0.0282261)
(-0.626731 2.02323 0.0907417)
(-0.657315 2.03389 0.69734)
(-0.929869 1.97283 0.774327)
(-0.824611 2.03446 0.515557)
(-0.871847 1.64534 -0.0409357)
(-1.10434 1.42208 0.0393197)
(-0.346249 0.763761 0.489188)
(-0.766152 1.39607 -1.20842)
(-0.485842 1.13709 -0.645306)
(-0.219688 1.20498 -1.08193)
(-0.563415 0.69534 -0.193948)
(-0.305701 0.728006 0.00151948)
(-0.227146 1.23918 1.01442)
(-0.58907 0.341357 -0.0645614)
(-0.662418 0.444199 -0.200059)
(-0.380465 1.00782 -0.130489)
(-0.0872505 1.2285 -0.533001)
(-0.166179 0.669373 -0.688691)
(-0.899728 0.0794478 -0.716874)
(0.0434591 0.533112 -1.5035)
(-0.363286 1.08243 -0.731626)
(-0.260227 0.604872 -0.677891)
(-0.48185 0.494911 -0.595449)
(-0.568358 0.00320499 -0.422017)
(-0.690401 -0.287856 -0.885331)
(-0.539969 -0.105212 -0.687976)
(-0.235333 -0.0187141 -0.7508)
(0.234986 0.0698501 -0.673909)
(0.047514 0.628354 -0.927623)
(0.0933131 0.746334 -1.28796)
(-0.232651 0.567685 -1.40301)
(-0.690724 0.385058 -0.959957)
(-0.306481 2.34692 2.62118)
(-0.548739 2.38104 2.71336)
(-0.500423 2.39436 2.69257)
(-0.810531 2.47226 2.5959)
(-0.576494 2.52352 2.61484)
(-0.298036 2.53788 2.63378)
(-0.849491 2.6135 2.52524)
(-0.630085 2.67078 2.54655)
(-0.400816 2.64231 2.60352)
(-0.177844 2.65403 2.61799)
(-1.06019 2.58808 2.48971)
(-0.782539 2.59746 2.5108)
(-0.631422 2.69181 2.49905)
(-0.4054 2.71557 2.59001)
(-0.0785505 2.81442 2.57453)
(-1.37832 2.64925 2.472)
(-0.995856 2.8099 2.51854)
(-0.896724 2.80739 2.5551)
(-0.576556 3.04932 2.46496)
(-0.159163 2.99534 2.67847)
(0.11283 3.11256 2.47031)
(-1.3676 2.88389 2.24276)
(-1.42852 2.82075 2.34375)
(-0.82702 3.05474 2.38544)
(-0.66012 3.06528 2.45344)
(-0.277496 3.15648 2.62942)
(-0.0370016 3.1697 2.76774)
(-0.144902 3.1882 3.00859)
(-1.71301 3.09938 2.46211)
(-1.41046 3.14712 2.54553)
(-0.623625 3.32547 2.67683)
(-0.476413 3.28634 2.73349)
(-0.126224 3.53027 2.54376)
(0.211065 3.39209 2.25523)
(-0.124113 3.11859 2.5158)
(0.0581219 3.34372 2.38074)
(-1.47683 2.87636 2.40193)
(-1.01065 2.73661 2.40453)
(-0.597571 3.60988 2.06284)
(-0.425749 3.60111 1.99104)
(-0.223155 3.91224 2.09904)
(0.367901 3.89468 1.75725)
(-0.341305 3.02902 1.84208)
(-0.308667 2.77087 1.27403)
(0.0290551 2.75137 0.979637)
(-1.68671 2.38338 2.16712)
(-0.97559 3.14828 1.13866)
(-0.566798 3.90774 1.11704)
(0.0170188 3.5846 0.920244)
(-0.390207 2.27194 1.47812)
(-1.00322 1.8154 1.38771)
(-0.917882 2.0869 1.05967)
(-0.666462 1.91063 1.01481)
(-0.67238 1.9974 0.922086)
(-0.0780826 2.32121 0.168312)
(-1.33893 2.86478 0.717074)
(-0.619521 3.62599 -0.0557785)
(-0.19932 3.25121 -0.105966)
(-0.931668 1.27522 0.856814)
(-0.780262 1.33232 0.500679)
(-0.753449 1.77875 0.664598)
(-1.09376 2.15563 0.884723)
(-0.668481 2.17163 1.23369)
(-0.847759 1.88416 0.723493)
(-1.27016 1.37216 0.795918)
(-0.40607 1.58354 0.927939)
(-0.917959 2.56308 -0.235182)
(-0.588352 2.25622 -0.916511)
(-0.575025 1.43563 0.750327)
(-1.00417 1.24966 0.0496504)
(-0.678489 1.96522 0.0483875)
(-0.645584 2.01349 0.716424)
(-0.897718 1.98099 0.80541)
(-0.857457 2.03674 0.582056)
(-0.940426 1.6599 -0.00958433)
(-1.05321 1.43764 0.0312538)
(-0.479627 0.754061 0.373726)
(-0.819858 -0.19032 -0.262111)
(-0.754912 1.31935 -1.16367)
(-0.611974 0.91981 -0.573847)
(-0.284783 1.12855 -1.01843)
(-0.516911 0.680936 -0.263544)
(-0.32839 0.633277 -0.0564279)
(-0.192788 1.20758 0.815552)
(-0.668298 0.308778 -0.16783)
(-0.715292 0.39492 -0.242826)
(-0.465664 1.01998 -0.0999162)
(-0.208898 1.27529 -0.443692)
(-0.241092 0.684078 -0.599218)
(-0.959876 0.0424978 -0.70384)
(-1.42007 0.049135 -0.67356)
(0.0538935 0.527864 -1.51649)
(-0.350304 1.10894 -0.7356)
(-0.249366 0.611306 -0.683498)
(-0.483751 0.479876 -0.590406)
(-0.519188 0.0303904 -0.395901)
(-0.636756 -0.287794 -0.870234)
(-0.550345 -0.117893 -0.736585)
(-0.239683 -0.0150213 -0.759889)
(0.209717 0.0664349 -0.67591)
(0.0418276 0.626125 -0.927997)
(0.0590989 0.737977 -1.29596)
(-0.226501 0.573415 -1.40761)
(-0.754999 0.37847 -0.942278)
(-0.974506 0.658035 -0.757345)
(-0.344134 2.26147 2.66222)
(-0.468977 2.24469 2.61529)
(-0.342349 2.32909 2.59527)
(-0.670622 2.29286 2.72746)
(-0.522797 2.36154 2.68949)
(-0.168741 2.44143 2.63388)
(-0.897725 2.42657 2.61093)
(-0.634298 2.49173 2.61922)
(-0.405781 2.5115 2.64413)
(-0.241557 2.51041 2.62486)
(-0.972822 2.53995 2.54238)
(-0.762676 2.57498 2.57277)
(-0.457841 2.58738 2.62754)
(-0.267285 2.65931 2.61426)
(-0.147401 2.67865 2.57834)
(-1.15577 2.51674 2.49531)
(-0.927161 2.53864 2.48312)
(-0.788223 2.63409 2.51515)
(-0.729406 2.70961 2.59515)
(-0.264509 2.81805 2.54878)
(-0.00232034 2.77645 2.54692)
(-1.40194 2.62795 2.44428)
(-1.14338 2.73346 2.54724)
(-0.992831 2.82897 2.56331)
(-0.815617 2.9474 2.53414)
(-0.499704 3.11216 2.50696)
(-0.224085 3.05732 2.52659)
(-0.215324 3.06289 2.43842)
(-1.45861 2.8297 2.23396)
(-1.25937 2.95869 2.30083)
(-1.13388 3.07552 2.3647)
(-0.705743 3.29934 2.37411)
(-0.628418 3.25817 2.71227)
(-0.298369 3.19525 2.85998)
(-0.461328 3.10445 3.0134)
(0.0120978 3.21557 2.84924)
(-1.83229 3.06332 2.46621)
(-1.47076 3.1213 2.53708)
(-1.49735 2.95984 2.73003)
(-0.555653 3.27397 2.74285)
(-0.56662 3.43906 2.59116)
(-0.350965 3.38111 2.38882)
(-0.382961 3.21357 2.49672)
(-0.327411 3.37231 2.08887)
(-0.178285 3.28203 2.42762)
(-1.57976 2.78632 2.49231)
(-1.05221 2.92243 2.27191)
(-0.71066 3.63103 1.80957)
(-0.207153 3.93636 1.73494)
(-0.549909 3.85695 2.3033)
(-0.4137 3.36349 2.40006)
(-0.522118 3.05185 1.5999)
(-0.479035 2.73768 1.26808)
(0.127015 2.78815 0.826126)
(-0.108761 3.15632 0.296675)
(-1.55969 2.76887 1.79597)
(-0.992237 3.31605 1.02412)
(-0.737036 4.02671 0.805994)
(-0.131545 3.12288 1.10069)
(-0.930648 1.73422 1.61076)
(-1.06615 1.578 1.11232)
(-0.908215 2.00868 1.16034)
(-0.791093 1.8039 1.2062)
(-0.796303 1.93952 0.825868)
(-0.497959 2.03536 -0.233047)
(0.318801 2.52048 0.768422)
(-1.44705 3.01166 0.49631)
(-0.409961 3.69939 -0.824856)
(-1.08976 2.32064 1.00434)
(-0.934694 0.943356 0.721618)
(-0.829668 1.40057 0.433394)
(-0.65531 1.84363 0.578854)
(-1.06967 2.13092 0.883149)
(-0.804213 2.23743 0.997892)
(-0.917932 1.92367 0.723405)
(-1.11573 1.38787 0.448282)
(-0.546288 1.43731 0.509974)
(-0.583954 1.29022 1.22317)
(-0.956509 2.45098 -0.124668)
(-0.479813 2.05621 -0.465383)
(-0.625833 1.27628 0.680403)
(-1.03735 1.29474 0.177619)
(-0.746102 1.88632 0.0478884)
(-0.615543 1.95736 0.844924)
(-0.818218 2.01054 0.828163)
(-0.903468 2.00826 0.643154)
(-1.01408 1.69884 0.0113182)
(-1.05534 1.41135 0.0053482)
(-0.502672 0.802852 0.463267)
(-0.815801 -0.188185 -0.283612)
(-1.57565 -0.339337 -1.04168)
(-0.751495 1.19883 -1.09883)
(-0.671084 0.808717 -0.471254)
(-0.360056 1.03823 -0.884546)
(-0.467117 0.682805 -0.277359)
(-0.400897 0.47948 -0.232543)
(-0.254268 1.12303 0.536388)
(-0.731342 0.257775 -0.297979)
(-0.750454 0.364578 -0.281842)
(-0.577027 1.00199 -0.0998746)
(-0.28765 1.28274 -0.440202)
(-0.287969 0.713604 -0.444046)
(-0.986863 0.129213 -0.73333)
(-1.45797 0.0634546 -0.680751)
(-1.68194 0.513998 -1.12526)
(0.0724959 0.517549 -1.52798)
(-0.324599 1.12767 -0.737665)
(-0.245727 0.601541 -0.697532)
(-0.461374 0.491176 -0.587673)
(-0.472887 0.0670675 -0.393785)
(-0.572873 -0.253824 -0.823058)
(-0.55544 -0.12565 -0.790942)
(-0.239468 -0.00898332 -0.764018)
(0.186299 0.0594368 -0.680152)
(0.0148876 0.623934 -0.930679)
(0.00134064 0.734997 -1.30318)
(-0.317734 0.564928 -1.39295)
(-0.760713 0.391878 -0.964874)
(-1.01365 0.650625 -0.763511)
(-0.895342 0.745565 -0.51465)
(-0.307197 2.06553 2.68664)
(-0.339193 2.26082 2.62934)
(-0.2207 2.25038 2.63535)
(-0.63476 2.14482 2.59195)
(-0.402331 2.23092 2.59641)
(-0.269739 2.31331 2.59333)
(-0.715549 2.27754 2.73702)
(-0.562973 2.328 2.70848)
(-0.378486 2.44092 2.62446)
(-0.156023 2.41355 2.65095)
(-1.01051 2.37628 2.63302)
(-0.725698 2.44771 2.64719)
(-0.550485 2.4867 2.64265)
(-0.218155 2.50068 2.62539)
(-0.0287751 2.48375 2.62149)
(-1.12341 2.43902 2.51101)
(-0.992474 2.44171 2.57393)
(-0.666289 2.52148 2.63498)
(-0.480151 2.54463 2.65117)
(-0.148943 2.64236 2.58167)
(0.0341623 2.65886 2.59107)
(-1.19586 2.48694 2.48379)
(-0.958695 2.53961 2.49718)
(-0.817946 2.56606 2.57485)
(-0.818 2.70523 2.54955)
(-0.59092 2.74297 2.58375)
(-0.172679 2.83803 2.52776)
(-0.14799 2.70404 2.54636)
(-1.56137 2.4827 2.43687)
(-1.21647 2.60028 2.51426)
(-1.16414 2.76155 2.54668)
(-0.987842 2.96528 2.52466)
(-0.636015 3.05844 2.53744)
(-0.553877 3.02219 2.54497)
(-0.100855 3.02491 2.50017)
(0.162808 3.01389 2.45853)
(-1.54148 2.88672 2.22468)
(-1.2624 2.97136 2.28507)
(-1.26131 3.09112 2.31129)
(-0.732954 3.39109 2.40475)
(-0.660443 3.34409 2.73871)
(-0.504028 3.33291 2.87056)
(-0.492477 3.11827 3.01505)
(-0.0862235 3.16425 2.80423)
(-0.03218 2.97912 3.01725)
(-2.07916 2.77482 2.54618)
(-1.61853 2.97505 2.59799)
(-0.441132 3.47633 2.43232)
(-0.936091 3.24989 2.65274)
(-0.829201 3.33973 2.62714)
(-1.04796 3.16329 2.70715)
(-0.429476 3.19408 2.52511)
(0.147004 3.1301 2.32721)
(-0.0116256 3.37262 2.07617)
(0.0487738 3.27657 2.50885)
(-1.60806 2.81326 2.37445)
(-1.44655 2.92869 2.35766)
(-0.657818 3.66698 1.5731)
(-0.890659 3.76204 2.05205)
(-0.62903 3.86417 2.28582)
(-0.403792 3.56222 1.76362)
(-0.835956 2.72403 1.93246)
(-0.472979 2.71994 1.32399)
(0.00247932 2.83564 0.831764)
(0.194507 3.10358 0.0649713)
(0.126356 2.7422 0.17937)
(-1.55866 2.94464 1.66149)
(-1.30156 3.54176 0.938664)
(-0.548489 4.02743 0.543592)
(-0.649385 2.55751 1.29464)
(-1.1025 1.45383 1.50048)
(-1.0968 1.53327 0.891659)
(-0.89559 1.96062 1.03247)
(-0.867109 1.80006 1.06737)
(-0.893301 1.85581 0.6931)
(-0.701506 1.81193 -0.040533)
(0.296091 2.39993 0.138038)
(-0.661565 2.89308 0.547756)
(-1.5646 2.98814 0.328001)
(-0.655133 3.43138 -0.39853)
(-1.217 1.71655 1.48133)
(-0.849493 0.95241 0.644724)
(-0.766206 1.54717 0.205637)
(-0.610327 1.94765 0.512024)
(-0.95231 2.19735 0.696456)
(-0.917625 2.22605 0.839805)
(-1.12177 1.86899 0.462303)
(-0.993287 1.46784 0.348289)
(-0.930063 1.21163 -0.00875777)
(-0.950066 1.10436 0.805576)
(-0.906173 1.71095 1.47516)
(-0.949273 2.22168 0.0914439)
(-0.448107 1.83138 0.113981)
(-0.704017 1.14725 0.599897)
(-1.09076 1.29058 0.239205)
(-0.79634 1.7886 0.121346)
(-0.56868 1.92418 0.868323)
(-0.725217 1.98703 0.964175)
(-0.925473 2.00594 0.65372)
(-1.0929 1.72928 0.00767624)
(-1.09668 1.45215 -0.0530669)
(-0.6606 0.830039 0.267672)
(-0.779995 -0.0769669 -0.320642)
(-1.61169 -0.328003 -0.876105)
(-1.81736 0.226005 -1.45169)
(-0.799134 1.06783 -0.994902)
(-0.677434 0.640966 -0.617052)
(-0.500778 0.881571 -0.784924)
(-0.47466 0.630287 -0.285217)
(-0.43046 0.394991 -0.318889)
(-0.46699 0.886134 0.0997725)
(-0.767437 0.208305 -0.436184)
(-0.765027 0.301448 -0.346643)
(-0.649711 0.993048 -0.108986)
(-0.337625 1.31915 -0.376411)
(-0.312065 0.735606 -0.376575)
(-1.04353 0.109444 -0.710663)
(-1.41683 0.188359 -0.797392)
(-1.73053 0.582961 -1.11818)
(-1.87192 0.970003 -0.959119)
(0.0737448 0.511687 -1.52195)
(-0.316834 1.14482 -0.742402)
(-0.262711 0.576442 -0.706631)
(-0.438258 0.508347 -0.580544)
(-0.419567 0.122879 -0.410045)
(-0.515366 -0.226246 -0.823367)
(-0.554836 -0.12968 -0.847922)
(-0.23295 -0.00170247 -0.76583)
(0.164319 0.0523476 -0.686286)
(-0.00724345 0.617488 -0.934359)
(-0.023017 0.729166 -1.30544)
(-0.370252 0.558419 -1.38732)
(-0.818411 0.378104 -0.943036)
(-1.04329 0.673645 -0.740817)
(-0.883905 0.759378 -0.553522)
(-0.412601 0.25377 -0.544093)
(-0.334293 1.9873 2.66323)
(-0.415112 2.11413 2.69195)
(-0.190332 2.12977 2.63945)
(-0.695445 2.11476 2.64982)
(-0.398824 2.1628 2.65114)
(-0.187426 2.2018 2.63483)
(-0.764224 2.12732 2.59492)
(-0.459308 2.20359 2.59962)
(-0.350667 2.30012 2.58453)
(-0.175423 2.29428 2.64077)
(-0.883019 2.19595 2.7277)
(-0.655724 2.29935 2.72171)
(-0.476316 2.40946 2.64405)
(-0.20848 2.39027 2.64586)
(-0.0667161 2.33317 2.6618)
(-1.05735 2.33969 2.64435)
(-0.866136 2.37419 2.66124)
(-0.720461 2.42042 2.6634)
(-0.443466 2.45242 2.65219)
(-0.0798378 2.43842 2.65931)
(0.0281548 2.46582 2.67)
(-1.26067 2.35431 2.49308)
(-1.06789 2.39881 2.5404)
(-0.731215 2.49614 2.59913)
(-0.568018 2.45385 2.61575)
(-0.386301 2.52132 2.58745)
(-0.294994 2.56579 2.61315)
(0.0167522 2.60943 2.59796)
(-1.33192 2.40784 2.44272)
(-1.01398 2.50637 2.50331)
(-0.844355 2.566 2.58019)
(-0.549549 2.75144 2.52902)
(-0.620453 2.77425 2.51227)
(-0.40837 2.83453 2.50857)
(-0.34584 2.77104 2.48317)
(0.0181689 2.80844 2.31474)
(-1.6552 2.42671 2.43592)
(-1.11781 2.61865 2.48476)
(-0.903229 2.81469 2.49009)
(-1.02789 2.87348 2.54846)
(-0.934363 2.93755 2.56966)
(-0.555686 3.04518 2.57765)
(-0.396379 2.99674 2.59971)
(0.0552721 3.00192 2.52947)
(0.346528 2.92305 2.42422)
(-1.58614 2.83938 2.25473)
(-1.42048 2.81936 2.35776)
(-0.953697 3.15969 2.29128)
(-1.25668 3.1397 2.53946)
(-0.774486 3.33022 2.71384)
(-0.609879 3.27064 2.86215)
(-0.668888 3.1206 2.96123)
(-0.175778 3.18756 2.79366)
(-0.107912 3.05291 2.95792)
(0.367132 3.12684 2.57097)
(-2.02529 2.73539 2.47954)
(-1.48763 3.21611 2.50301)
(-1.30203 3.25403 2.52426)
(-1.09489 3.36152 2.71578)
(-1.13631 3.21151 2.70463)
(-1.00173 3.25727 2.74098)
(-0.608696 3.18015 2.5654)
(-0.544747 3.21614 2.12413)
(-0.205877 3.32259 1.94451)
(0.0884121 3.52273 2.04878)
(0.665848 3.38792 0.432096)
(-1.75362 2.78653 2.21878)
(-0.930606 3.4056 2.43068)
(-0.683833 3.8038 1.45693)
(-1.23746 3.5324 2.41103)
(-0.835713 3.67111 2.05909)
(-0.825019 3.18313 1.89733)
(-0.784638 2.828 1.47993)
(-0.540552 2.64024 1.4675)
(-0.0244851 2.72729 1.06369)
(0.102393 3.03616 0.146555)
(-0.278011 2.47785 0.55447)
(-0.266139 2.24305 0.370128)
(-1.69916 3.04485 1.75556)
(-1.25087 3.82862 0.762224)
(-0.516776 3.7924 0.699977)
(-1.13591 1.80311 1.55588)
(-1.13418 1.26063 1.10836)
(-1.09399 1.51838 0.872416)
(-0.835706 1.90936 0.792433)
(-0.896934 1.81896 1.01427)
(-0.905187 1.77675 0.225961)
(-0.671885 1.71593 0.0824875)
(0.0636686 2.17169 -0.129201)
(-0.401698 2.91722 0.558969)
(-0.291095 3.07381 -0.203388)
(-1.49916 2.86231 0.624784)
(-1.05372 2.67069 0.856665)
(-1.16613 1.40733 1.51267)
(-0.792349 1.15777 0.444337)
(-0.732808 1.67579 -0.0973902)
(-0.589712 2.03944 0.376238)
(-0.900356 2.22795 0.588387)
(-1.05337 2.17548 0.593352)
(-1.26634 1.84962 0.326367)
(-0.992183 1.43527 0.325441)
(-1.00516 1.09578 -0.0169906)
(-1.2164 0.764639 0.424884)
(-1.24621 1.44925 1.4168)
(-2.05557 0.911259 0.952631)
(-1.11669 1.81405 0.188609)
(-0.479879 1.58656 0.541351)
(-0.760334 1.05218 0.564362)
(-1.16451 1.22738 0.332205)
(-0.874707 1.66089 0.152889)
(-0.489877 1.90063 0.552001)
(-0.782 1.9513 0.794429)
(-0.925517 2.04172 0.633951)
(-1.17532 1.75599 -0.0781406)
(-1.15198 1.48924 -0.0896308)
(-0.775507 0.800135 0.131526)
(-1.00757 -0.187448 -0.21648)
(-1.69336 -0.302485 -0.710701)
(-1.85377 0.225789 -1.50564)
(-2.2015 0.511919 -1.26356)
(-0.845685 0.902198 -1.02791)
(-0.676234 0.626855 -0.639079)
(-0.602208 0.729609 -0.795652)
(-0.510544 0.548327 -0.338905)
(-0.470653 0.305873 -0.383699)
(-0.63982 0.652495 -0.284792)
(-0.751844 0.167472 -0.584627)
(-0.761044 0.256561 -0.388386)
(-0.72015 0.966834 -0.160659)
(-0.426712 1.32007 -0.382013)
(-0.383883 0.763008 -0.306)
(-1.04839 0.129372 -0.790363)
(-1.53724 0.105891 -0.612423)
(-1.72533 0.618889 -1.08219)
(-1.84581 0.986852 -0.996138)
(-1.35615 1.36306 0.482811)
(0.0871924 0.49548 -1.50734)
(-0.303459 1.17309 -0.753544)
(-0.291583 0.532316 -0.714063)
(-0.435669 0.503028 -0.576006)
(-0.406582 0.142533 -0.420341)
(-0.497778 -0.21366 -0.842348)
(-0.547234 -0.126916 -0.902336)
(-0.231973 0.00246364 -0.766454)
(0.15167 0.0495307 -0.693849)
(-0.0301403 0.608793 -0.941443)
(-0.0710292 0.716434 -1.31114)
(-0.379333 0.564112 -1.38937)
(-0.870747 0.36494 -0.916858)
(-1.06481 0.642089 -0.763455)
(-0.880282 0.766364 -0.568943)
(-0.417905 0.261844 -0.517588)
(-0.330103 -0.37636 -0.321564)
(-0.156054 2.01962 2.43268)
(-0.399592 1.97879 2.66995)
(-0.210584 2.10362 2.54988)
(-0.520816 2.08733 2.71584)
(-0.316307 2.11982 2.6965)
(-0.172519 2.14689 2.64521)
(-0.718579 2.04232 2.65831)
(-0.530502 2.0932 2.66806)
(-0.299339 2.16613 2.65548)
(-0.134225 2.20041 2.61701)
(-0.833811 2.0976 2.59297)
(-0.571558 2.17072 2.62538)
(-0.335085 2.25662 2.65555)
(-0.272862 2.25984 2.67856)
(-0.115937 2.27995 2.65233)
(-1.08174 2.11386 2.71057)
(-0.839503 2.21752 2.70594)
(-0.581549 2.31993 2.67547)
(-0.436339 2.35552 2.64215)
(-0.100882 2.36712 2.63112)
(0.0289283 2.33789 2.6724)
(-1.25232 2.25722 2.63003)
(-0.998357 2.32838 2.65056)
(-0.774855 2.41465 2.62992)
(-0.620967 2.39749 2.63822)
(-0.218549 2.42389 2.66041)
(-0.0106015 2.4551 2.66967)
(0.00964376 2.45086 2.66754)
(-1.39171 2.28608 2.46535)
(-1.13622 2.3801 2.53202)
(-0.940753 2.43773 2.56539)
(-0.551377 2.44642 2.58025)
(-0.393413 2.45212 2.57403)
(-0.30146 2.51925 2.58406)
(-0.292889 2.5444 2.58371)
(0.189953 2.59817 2.45823)
(-1.23604 2.46631 2.45473)
(-1.18074 2.45303 2.47995)
(-0.85811 2.5772 2.54917)
(-0.666217 2.67426 2.55135)
(-0.44507 2.79145 2.52658)
(-0.521602 2.79479 2.51982)
(-0.441693 2.77299 2.46447)
(-0.133526 2.71231 2.39044)
(0.0388151 2.64394 2.41291)
(-1.5737 2.4593 2.43028)
(-1.35217 2.52622 2.53837)
(-1.19406 2.67704 2.51777)
(-0.976562 2.88294 2.55706)
(-0.966421 2.87998 2.64004)
(-1.02058 2.85482 2.64554)
(-0.668849 2.92891 2.65504)
(-0.322224 3.00453 2.59908)
(0.154125 2.97596 2.49338)