/*--------------------------------*- C++ -*----------------------------------*\
  =========                 |
  \\      /  F ield         | OpenFOAM: The Open Source CFD Toolbox
   \\    /   O peration     | Website:  https://openfoam.org
    \\  /    A nd           | Version:  7
     \\/     M anipulation  |
\*---------------------------------------------------------------------------*/
FoamFile
{
    version     2.0;
    format      ascii;
    class       volVectorField;
    location    "6";
    object      U_0;
}
// * * * * * * * * * * * * * * * * * * * * * * * * * * * * * * * * * * * * * //

dimensions      [0 1 -1 0 0 0 0];

internalField   nonuniform List<vector> 
18870
(
(-0.140161 0.577531 -1.32427)
(-0.425289 1.67488 -0.927482)
(-0.114445 0.584969 -1.35168)
(-0.385208 1.18163 -0.970185)
(-0.937531 1.71923 -0.0721803)
(-0.417792 1.72413 -0.943243)
(-0.223186 1.77445 -1.10233)
(-0.0895859 0.590078 -1.3867)
(-0.399887 1.14467 -0.983086)
(-0.330142 0.702327 -0.714516)
(-1.0713 2.27325 1.27876)
(-0.97305 1.78441 0.0292799)
(-0.45361 2.36159 0.022244)
(-0.448416 1.74722 -0.946965)
(-0.280412 1.73464 -1.12441)
(-0.136556 1.76263 -0.509564)
(-0.0537515 0.591512 -1.40624)
(-0.369119 1.14237 -0.96168)
(-0.409013 0.646737 -0.699159)
(-0.567054 0.522362 -0.658005)
(-1.09389 2.6324 2.41969)
(-1.11021 2.33835 1.09693)
(-1.20513 2.36099 1.32926)
(-0.954453 1.85259 0.0557599)
(-0.567118 2.42554 0.00864615)
(-0.157388 2.55939 0.0513071)
(-0.479413 1.76204 -0.950717)
(-0.306444 1.71883 -1.14302)
(-0.0723127 1.74583 -0.490088)
(-0.0562394 1.3886 -0.208475)
(-0.0474633 0.5906 -1.40776)
(-0.331751 1.1282 -0.914024)
(-0.405931 0.639714 -0.704429)
(-0.583709 0.50128 -0.676837)
(-0.946755 0.0377336 -0.668394)
(-0.603666 3.37718 2.22044)
(-0.998685 2.67899 2.42475)
(-0.711542 2.87426 1.76482)
(-1.15481 2.14546 1.49482)
(-1.23302 2.3078 1.4418)
(-0.00248205 2.68635 1.19577)
(-0.892717 1.94592 -0.000660816)
(-0.605188 2.48643 -0.0397693)
(-0.156512 2.55815 -0.0469334)
(0.279555 2.22886 -0.222215)
(-0.497759 1.78787 -0.954465)
(-0.319556 1.70047 -1.17073)
(-0.151902 1.65722 -0.580211)
(-0.00957931 1.31411 -0.252454)
(0.203275 1.466 0.127182)
(-0.0360939 0.583616 -1.40993)
(-0.390083 1.11152 -0.845385)
(-0.40354 0.637806 -0.690293)
(-0.595594 0.484775 -0.67826)
(-0.932572 0.00872333 -0.641704)
(-0.848009 -0.179612 -0.845396)
(-0.999651 3.39093 2.37858)
(-0.483217 3.35373 2.29996)
(-0.383377 3.39332 2.30752)
(-1.23197 2.48557 2.39427)
(-0.822533 2.75724 1.86124)
(-0.756463 2.81735 1.81726)
(-1.2161 2.36877 1.21012)
(-0.853721 2.5892 1.00071)
(-0.0529325 2.71216 1.5536)
(0.342865 2.93707 1.0922)
(-0.866758 2.04903 -0.0676202)
(-0.559925 2.54997 -0.0736184)
(-0.156069 2.55417 -0.282166)
(0.312156 2.19301 -0.347062)
(-0.0263424 2.24222 -0.152995)
(-0.470978 1.82261 -0.969137)
(-0.318295 1.66557 -1.213)
(-0.277173 1.55739 -0.696172)
(-0.0143185 1.22644 -0.31263)
(0.182522 1.40241 0.231943)
(-0.316581 1.31461 0.366158)
(-0.0220126 0.574691 -1.41135)
(-0.437419 1.09328 -0.802296)
(-0.398174 0.609806 -0.713074)
(-0.575393 0.478603 -0.676983)
(-0.908365 -0.0182694 -0.613698)
(-0.824972 -0.192068 -0.80098)
(-0.383982 -0.00947627 -0.573175)
(-0.747657 3.13585 2.33449)
(-0.944214 3.431 2.35292)
(-0.652257 3.5953 2.36247)
(-0.70715 3.37863 2.21396)
(-0.453094 3.40408 2.14562)
(-0.0670391 3.13332 2.3392)
(-1.36266 2.37108 2.43071)
(-1.01848 2.65768 1.86603)
(-0.99077 2.84621 2.07235)
(0.22862 3.08936 1.76581)
(-1.21114 2.35249 1.05958)
(-1.59117 1.75833 2.10241)
(0.0367502 3.08833 1.42976)
(0.372521 2.96919 0.763397)
(0.0706838 2.66427 0.486988)
(-0.870763 2.14538 -0.0356051)
(-0.432761 2.69932 -0.202825)
(-0.172852 2.50763 -0.608539)
(0.231485 2.12308 -0.408756)
(-0.177413 2.16986 -0.0454067)
(-0.676356 2.08067 0.450553)
(-0.518566 1.81274 -1.03791)
(-0.289268 1.62273 -1.19568)
(-0.0115578 1.58511 -0.481674)
(-0.0928653 1.11344 -0.346598)
(0.107442 1.32724 0.288291)
(-0.351736 1.29697 0.540529)
(-0.328938 0.343305 0.0806768)
(-0.01115 0.567672 -1.4186)
(-0.453761 1.04442 -0.793475)
(-0.392746 0.591772 -0.729023)
(-0.562171 0.468001 -0.666341)
(-0.870025 -0.0403093 -0.580503)
(-0.801768 -0.208088 -0.776913)
(-0.418529 -0.0239328 -0.578782)
(-0.255055 -0.0464376 -0.645523)
(-0.755672 2.92368 2.34349)
(-0.768751 3.12035 2.3408)
(-0.488628 3.28477 2.32297)
(-1.22871 3.3596 2.32224)
(-0.814428 3.58231 2.38305)
(-0.436313 3.45643 2.51896)
(-0.832576 3.27713 2.26461)
(-0.754313 3.00229 2.49562)
(-0.185127 3.166 2.54516)
(0.00858419 3.07544 2.35282)
(-1.43658 2.32941 2.39205)
(-1.05946 2.68484 1.83623)
(-0.914074 2.83036 2.02052)
(0.344495 3.27543 1.54864)
(0.814042 3.48416 1.37359)
(-1.20349 2.27072 1.01502)
(-0.966738 2.8071 1.44417)
(0.131675 3.29044 0.913325)
(0.0761648 2.98067 -0.385429)
(-0.532412 2.42879 0.538866)
(-0.390962 2.17025 0.501589)
(-0.892132 2.25366 0.0928635)
(-0.386068 2.83258 -0.522725)
(-0.273238 2.39983 -0.824572)
(-0.0374503 1.9679 -0.381313)
(-0.584394 2.05419 0.181483)
(-0.742402 2.03985 0.512194)
(-0.704174 1.94212 0.437802)
(-0.651679 1.72177 -1.18214)
(-0.283539 1.55202 -1.13461)
(0.120744 1.58166 -0.429176)
(-0.226429 0.993865 -0.325306)
(0.0224295 1.23473 0.280993)
(-0.378218 1.28284 0.695216)
(-0.362504 0.353916 0.0766754)
(-0.44517 0.480417 -0.205767)
(-0.00396803 0.557968 -1.43573)
(-0.427508 1.04633 -0.753631)
(-0.381537 0.574289 -0.728276)
(-0.538546 0.46668 -0.665214)
(-0.811284 -0.0449535 -0.549639)
(-0.780727 -0.225197 -0.777433)
(-0.451217 -0.039947 -0.586777)
(-0.253874 -0.045925 -0.664542)
(0.348603 0.0598191 -0.676767)
(-0.644411 2.78029 2.51102)
(-0.84703 2.88218 2.37454)
(-0.577112 2.93994 2.41237)
(-0.870457 3.09609 2.33468)
(-0.535182 3.2694 2.33264)
(-0.170182 3.20004 2.34648)
(-1.36762 3.36869 2.29392)
(-0.990416 3.46425 2.44868)
(-0.611779 3.38754 2.57648)
(0.226705 3.19661 2.5655)
(-1.10884 3.11302 2.18098)
(-0.894119 2.92694 2.59501)
(-0.513349 3.16666 2.71798)
(-0.298769 3.04108 2.64364)
(0.247662 3.42167 2.67166)
(-1.4137 2.35492 2.1899)
(-1.07234 2.61937 1.77292)
(-0.990355 2.87296 2.08311)
(0.34633 3.51023 1.2241)
(0.984414 3.5328 1.2345)
(0.792685 2.97305 0.968806)
(-1.2641 2.33631 0.962105)
(-0.826512 2.80346 1.3113)
(0.128514 3.47114 0.534906)
(-0.0223984 2.91078 -0.280695)
(-0.838738 2.04324 0.659223)
(-0.714597 1.88367 0.755337)
(-0.336447 2.48659 0.567437)
(-0.80325 2.43574 0.0882646)
(-0.392591 2.88297 -0.869434)
(-0.517469 2.18612 -0.955175)
(-0.458558 1.7137 -0.242178)
(-0.586489 2.05969 0.19513)
(-0.74556 2.02955 0.59192)
(-0.801295 1.93503 0.508394)
(-0.794166 1.98068 0.0173543)
(-0.683015 1.67774 -1.23357)
(-0.321838 1.45014 -1.06073)
(0.0254871 1.48877 -0.661013)
(-0.406707 0.876933 -0.255077)
(-0.0716641 1.1236 0.207326)
(-0.370855 1.27167 0.850877)
(-0.396597 0.368125 0.0675393)
(-0.494278 0.485945 -0.18377)
(-0.133794 0.923146 -0.152171)
(0.0031396 0.544338 -1.45842)
(-0.399874 1.06284 -0.726215)
(-0.374439 0.556126 -0.712801)
(-0.518188 0.475969 -0.655796)
(-0.746742 -0.0438414 -0.519358)
(-0.764224 -0.242071 -0.797863)
(-0.482108 -0.0581083 -0.599347)
(-0.241198 -0.0401753 -0.690682)
(0.320762 0.0657729 -0.673024)
(0.170955 0.640699 -0.933326)
(-0.65378 2.69153 2.50945)
(-0.780245 2.75572 2.45223)
(-0.450725 2.77227 2.50963)
(-1.04213 2.81046 2.40522)
(-0.635862 2.92782 2.44774)
(-0.356357 2.96735 2.46693)
(-0.935602 3.06719 2.35871)
(-0.688532 3.19843 2.38633)
(-0.458181 3.16141 2.42353)
(0.0997314 3.20908 2.38287)
(-1.49088 3.291 2.29876)
(-1.12239 3.36843 2.48098)
(-0.783584 3.32351 2.6297)
(-0.0720574 3.07568 2.8317)
(0.292793 3.06464 2.78693)
(-1.14222 2.98767 2.31706)
(-0.996069 2.88209 2.50013)
(-0.52085 2.94727 2.77802)
(-0.179315 3.34274 2.38158)
(0.196809 3.61605 2.41417)
(0.19078 3.48983 2.46047)
(-1.31973 2.42124 2.18484)
(-0.927451 2.66096 1.54825)
(-1.07238 3.02268 2.38405)
(0.547634 3.71057 0.954895)
(1.18024 3.49975 0.912285)
(0.520515 2.87738 1.20033)
(-0.819282 2.46834 0.668255)
(-1.2727 2.44622 0.865455)
(-0.781279 2.90398 1.1478)
(0.219155 3.71288 -0.466544)
(-0.434079 2.58191 0.409185)
(-0.841637 1.6734 0.583545)
(-0.75276 1.76367 0.784974)
(-0.777586 2.36159 0.595864)
(-0.822774 2.24545 0.918017)
(-0.755363 2.58476 -0.0674202)
(-0.386036 2.91182 -0.990164)
(-0.701526 1.95661 -0.751905)
(-0.806367 1.44402 -0.12694)
(-0.578353 2.06221 0.166861)
(-0.735249 2.02381 0.657815)
(-0.73463 1.99305 0.577197)
(-0.809615 2.02615 0.213345)
(-0.81112 1.59399 -0.16379)
(-0.670367 1.63115 -1.21975)
(-0.354283 1.34904 -0.941604)
(-0.0371947 1.41778 -0.808991)
(-0.54202 0.773201 -0.195511)
(-0.201441 0.97742 0.0634285)
(-0.314178 1.26634 1.00152)
(-0.451285 0.369935 0.0476527)
(-0.549001 0.482545 -0.176478)
(-0.217654 0.96145 -0.147578)
(0.0920011 1.13371 -0.586347)
(0.0184167 0.534656 -1.47837)
(-0.388929 1.06949 -0.722781)
(-0.342735 0.564233 -0.691453)
(-0.470803 0.505207 -0.640544)
(-0.681771 -0.0319609 -0.48886)
(-0.748284 -0.259721 -0.83092)
(-0.510015 -0.0767978 -0.620017)
(-0.242101 -0.0334779 -0.713854)
(0.28208 0.0657164 -0.670617)
(0.138252 0.641008 -0.925941)
(0.262367 0.751684 -1.24931)
(-0.639768 2.55409 2.58109)
(-0.741986 2.6594 2.51872)
(-0.44217 2.66284 2.54665)
(-0.876594 2.69916 2.46787)
(-0.444931 2.76244 2.49811)
(-0.179761 2.82291 2.50194)
(-1.05096 2.82184 2.4284)
(-0.843498 2.86862 2.49633)
(-0.483913 2.95698 2.44835)
(-0.442653 2.89054 2.48834)
(-1.11292 2.94314 2.36399)
(-0.885201 3.12251 2.3614)
(-0.607508 3.12971 2.46144)
(-0.377931 3.24998 2.41952)
(-0.0332304 3.19518 2.63292)
(-1.56779 3.24962 2.30516)
(-1.3146 3.22482 2.47432)
(-0.838325 3.22452 2.65979)
(-0.255451 3.11586 2.78349)
(0.130315 3.15723 2.61105)
(0.322436 3.20881 2.41911)
(-1.39353 2.96262 2.21469)
(-0.940924 2.83387 2.34551)
(-0.694144 3.16224 2.1339)
(-0.181014 3.36723 2.25676)
(-0.0292739 3.64268 2.40044)
(0.475912 3.89969 1.95848)
(0.213631 3.2461 1.71871)
(-1.49736 2.46367 2.14126)
(-0.908445 2.76136 1.52661)
(-0.640938 3.62251 1.62695)
(0.484041 3.82663 1.03062)
(0.956991 3.20995 1.0162)
(-0.279068 2.49036 1.53869)
(-0.849221 2.30716 0.86289)
(-0.889118 2.00275 0.93375)
(-1.27862 2.50619 0.855416)
(-1.00728 3.0384 1.58412)
(0.445913 3.73533 -1.16916)
(-0.664964 2.15666 0.977781)
(-0.757161 1.40726 0.576773)
(-0.805024 1.68955 0.732783)
(-1.03275 2.26247 0.721954)
(-0.656673 2.26863 1.22228)
(-0.907124 1.90982 0.661554)
(-0.878295 2.5938 -0.278416)
(-0.487841 2.76185 -1.03894)
(-0.613958 1.72428 0.223324)
(-0.88842 1.3119 -0.131452)
(-0.610503 2.04572 0.119828)
(-0.679321 2.03178 0.683694)
(-0.811384 2.01147 0.680632)
(-0.797198 2.03673 0.416211)
(-0.82923 1.65719 -0.0839213)
(-1.32297 1.14271 -0.111895)
(-0.700673 1.53507 -1.18899)
(-0.391456 1.25158 -0.780205)
(-0.143799 1.29253 -1.01031)
(-0.584712 0.715052 -0.169023)
(-0.289049 0.828671 -0.0114853)
(-0.262761 1.25786 1.06783)
(-0.520736 0.361768 0.00475546)
(-0.608753 0.460776 -0.188314)
(-0.295178 0.991716 -0.136459)
(-0.0486414 1.19327 -0.517175)
(-0.0911605 0.638812 -0.781819)
(0.0360394 0.531425 -1.49352)
(-0.353431 1.0724 -0.73566)
(-0.266072 0.598726 -0.678252)
(-0.462097 0.512427 -0.613634)
(-0.619504 -0.0096322 -0.454074)
(-0.725126 -0.275706 -0.867797)
(-0.532527 -0.0947576 -0.651189)
(-0.243569 -0.0293249 -0.733154)
(0.255271 0.0656986 -0.669599)
(0.0863501 0.632653 -0.919112)
(0.126213 0.759268 -1.26822)
(-0.172705 0.56374 -1.41393)
(-0.482313 2.43291 2.71541)
(-0.711515 2.53493 2.58153)
(-0.5355 2.54337 2.58577)
(-0.795621 2.6454 2.51725)
(-0.589648 2.67255 2.55847)
(-0.268616 2.66199 2.56884)
(-0.964181 2.66885 2.46328)
(-0.673025 2.6866 2.48983)
(-0.516845 2.71608 2.50059)
(-0.199818 2.76257 2.60159)
(-1.2294 2.73296 2.45977)
(-0.861362 2.84855 2.51134)
(-0.480335 2.91296 2.54383)
(0.105198 2.88184 2.69168)
(-0.300817 2.95297 2.55202)
(-1.262 2.9368 2.26383)
(-0.940747 3.12147 2.26024)
(-0.803808 3.0399 2.3918)
(-0.338084 3.21263 2.36262)
(-0.260582 3.12235 2.65845)
(0.114377 3.24792 2.75999)
(-1.71065 3.15892 2.37247)
(-1.27624 3.14702 2.56028)
(-0.856345 3.23165 2.61967)
(-0.0399325 3.21891 2.73239)
(0.726306 3.40395 2.53601)
(0.179682 3.31521 2.20754)
(-0.168976 3.06483 2.56411)
(-1.26782 2.91626 2.31761)
(-0.995448 2.80394 2.28899)
(-0.781592 2.71331 3.0517)
(-0.304884 3.46448 2.12571)
(0.149711 3.85771 2.08503)
(0.137787 3.71788 2.2477)
(0.169462 3.18263 1.7384)
(-0.0772394 2.85337 1.23114)
(-1.73224 2.29161 2.18191)
(-0.978167 2.90503 1.6177)
(-0.496912 3.76422 1.32107)
(0.374512 3.85266 0.876023)
(0.222773 2.76849 1.30452)
(-0.905703 2.00179 1.63651)
(-0.836303 2.15503 0.996643)
(-0.665476 1.91589 0.958555)
(-0.350242 2.09109 1.00528)
(-1.30912 2.67747 0.780559)
(-0.810208 3.52209 0.594371)
(0.333195 3.59989 -0.821207)
(-0.946634 1.59912 1.08641)
(-0.734829 1.32353 0.554045)
(-0.851678 1.67522 0.790777)
(-1.15495 2.18235 0.834079)
(-0.695475 2.23873 1.17414)
(-0.683271 1.89973 0.887543)
(-1.32495 1.50087 0.936144)
(-0.922935 2.57366 -0.328768)
(-0.60034 2.46698 -1.0861)
(-0.547789 1.54186 0.760599)
(-0.955961 1.23219 -0.0239025)
(-0.615059 2.01793 0.0844743)
(-0.639472 2.03727 0.69711)
(-0.924786 1.97901 0.78421)
(-0.815443 2.04329 0.535325)
(-0.868803 1.66028 -0.0333571)
(-1.0847 1.44896 0.0451774)
(-0.351356 0.77445 0.48995)
(-0.763577 1.3809 -1.20801)
(-0.495712 1.11022 -0.627347)
(-0.225178 1.18821 -1.07847)
(-0.552369 0.694134 -0.206005)
(-0.303452 0.717651 -0.00566561)
(-0.215333 1.24158 0.995537)
(-0.600514 0.341572 -0.0760855)
(-0.666441 0.434416 -0.204619)
(-0.393049 1.0065 -0.120978)
(-0.0997246 1.24013 -0.518361)
(-0.173194 0.6782 -0.674173)
(-0.90475 0.0910551 -0.720961)
(0.0491843 0.524426 -1.50912)
(-0.354137 1.08598 -0.73923)
(-0.251952 0.606681 -0.679244)
(-0.478198 0.491886 -0.596897)
(-0.563157 0.0107577 -0.417929)
(-0.693 -0.287315 -0.884427)
(-0.548776 -0.110254 -0.691836)
(-0.245169 -0.0260323 -0.748423)
(0.229941 0.0635234 -0.670165)
(0.0430713 0.622982 -0.91918)
(0.0826756 0.746125 -1.28051)
(-0.233477 0.572671 -1.40172)
(-0.695042 0.391653 -0.958781)
(-0.306762 2.34469 2.61977)
(-0.54647 2.37975 2.71265)
(-0.493416 2.39468 2.69103)
(-0.807806 2.47282 2.59593)
(-0.568222 2.52347 2.61664)
(-0.292479 2.53709 2.63601)
(-0.841296 2.61378 2.52767)
(-0.622579 2.66972 2.54873)
(-0.393706 2.64172 2.60521)
(-0.178051 2.65507 2.61914)
(-1.05788 2.58495 2.49103)
(-0.781855 2.59487 2.51121)
(-0.631571 2.69019 2.50076)
(-0.40275 2.71554 2.59006)
(-0.0921351 2.81169 2.56951)
(-1.37476 2.64819 2.4746)
(-0.990038 2.81197 2.52027)
(-0.891944 2.81143 2.5553)
(-0.577211 3.05146 2.46495)
(-0.150251 2.9991 2.67995)
(0.111504 3.11521 2.46551)
(-1.36483 2.88515 2.24201)
(-1.4352 2.81636 2.34688)
(-0.826049 3.05827 2.38461)
(-0.679662 3.06697 2.4604)
(-0.287409 3.16139 2.63811)
(-0.0439137 3.16832 2.77749)
(-0.157802 3.18646 3.00912)
(-1.70398 3.10425 2.46735)
(-1.40407 3.15181 2.54904)
(-0.58206 3.3429 2.67758)
(-0.484072 3.29157 2.73492)
(-0.136817 3.52941 2.54605)
(0.195367 3.3987 2.26198)
(-0.120242 3.12602 2.5195)
(0.0678689 3.34969 2.37582)
(-1.48236 2.86736 2.41974)
(-0.998869 2.75627 2.40617)
(-0.57929 3.63315 2.04114)
(-0.390133 3.64207 1.94178)
(-0.250238 3.91545 2.1131)
(0.367038 3.88335 1.74748)
(-0.375504 3.01548 1.8284)
(-0.319476 2.76584 1.27099)
(0.0524711 2.76753 0.94684)
(-1.65545 2.44125 2.12585)
(-0.958544 3.17544 1.11907)
(-0.562634 3.93666 1.05453)
(-0.00168927 3.52763 0.936587)
(-0.45908 2.206 1.50045)
(-1.00717 1.79491 1.36515)
(-0.904088 2.08588 1.06885)
(-0.658113 1.91032 1.02743)
(-0.680172 1.99534 0.910725)
(-0.103943 2.29871 0.122445)
(-1.32896 2.90163 0.694115)
(-0.554027 3.65037 -0.183664)
(-0.303399 3.1484 0.0576788)
(-0.913246 1.2361 0.835595)
(-0.778311 1.33778 0.493455)
(-0.734939 1.79109 0.655406)
(-1.06825 2.16312 0.890448)
(-0.65582 2.18059 1.22092)
(-0.847957 1.89515 0.709781)
(-1.24847 1.38057 0.763447)
(-0.391035 1.57985 0.916838)
(-0.899099 2.56208 -0.205627)
(-0.560689 2.23347 -0.872557)
(-0.57247 1.41225 0.742179)
(-1.00355 1.25399 0.0612528)
(-0.672067 1.95569 0.0456142)
(-0.62952 2.01174 0.72781)
(-0.878528 1.99072 0.80523)
(-0.852891 2.04196 0.594976)
(-0.941489 1.67576 -0.00158369)
(-1.0428 1.45387 0.0310528)
(-0.491155 0.764433 0.365725)
(-0.831008 -0.179231 -0.266834)
(-0.745783 1.31151 -1.15364)
(-0.621706 0.892049 -0.562017)
(-0.289066 1.11658 -0.99685)
(-0.505473 0.68115 -0.27372)
(-0.329309 0.622892 -0.0722044)
(-0.188029 1.20503 0.779668)
(-0.679804 0.30659 -0.181015)
(-0.717306 0.384114 -0.249264)
(-0.479073 1.01706 -0.0911779)
(-0.219233 1.28411 -0.429872)
(-0.246338 0.69278 -0.580552)
(-0.967879 0.0536611 -0.70633)
(-1.43235 0.0594901 -0.663903)
(0.0591463 0.518375 -1.52113)
(-0.336006 1.11222 -0.742661)
(-0.24155 0.607588 -0.689016)
(-0.475254 0.481591 -0.593093)
(-0.514953 0.0381158 -0.394831)
(-0.63719 -0.284462 -0.864643)
(-0.558525 -0.122487 -0.741096)
(-0.248913 -0.0223173 -0.75764)
(0.204765 0.06022 -0.672226)
(0.0371757 0.621708 -0.919627)
(0.0467827 0.738794 -1.28819)
(-0.236555 0.579143 -1.40486)
(-0.759643 0.385165 -0.940216)
(-0.975679 0.666294 -0.753862)
(-0.341529 2.26184 2.66099)
(-0.46864 2.24101 2.61412)
(-0.342176 2.32545 2.59569)
(-0.66447 2.29545 2.72796)
(-0.516937 2.36244 2.68819)
(-0.17048 2.4422 2.63285)
(-0.89759 2.42579 2.61195)
(-0.627771 2.49157 2.62134)
(-0.404544 2.51099 2.64444)
(-0.240864 2.50919 2.62596)
(-0.971805 2.53709 2.54376)
(-0.764322 2.56919 2.57512)
(-0.459587 2.58161 2.62994)
(-0.26433 2.65646 2.61452)
(-0.150294 2.67734 2.57711)
(-1.15044 2.51776 2.49523)
(-0.923141 2.53962 2.48305)
(-0.791361 2.63055 2.5176)
(-0.736728 2.70844 2.59641)
(-0.264822 2.81797 2.54784)
(-0.00328525 2.77346 2.54496)
(-1.39762 2.62725 2.44359)
(-1.14235 2.72783 2.54927)
(-0.988855 2.83383 2.56331)
(-0.822288 2.95148 2.5355)
(-0.521141 3.11859 2.49788)
(-0.225203 3.05818 2.52269)
(-0.193376 3.06279 2.43502)
(-1.45269 2.8361 2.23432)
(-1.23512 2.97557 2.29829)
(-1.14047 3.08679 2.35746)
(-0.69492 3.31854 2.37118)
(-0.631891 3.26956 2.72202)
(-0.317353 3.20054 2.87363)
(-0.467689 3.10389 3.01539)
(0.0194743 3.20916 2.84105)
(-1.83179 3.06097 2.47055)
(-1.47437 3.11915 2.54191)
(-1.53604 2.95107 2.72784)
(-0.568566 3.27642 2.74502)
(-0.603356 3.43161 2.60036)
(-0.410057 3.36528 2.42054)
(-0.393097 3.21205 2.50571)
(-0.300747 3.36712 2.08204)
(-0.136164 3.2877 2.41447)
(-1.57058 2.79556 2.49116)
(-1.05507 2.94769 2.27057)
(-0.70003 3.65715 1.77253)
(-0.228968 3.94271 1.75176)
(-0.541367 3.85711 2.31745)
(-0.45611 3.33061 2.41126)
(-0.547086 3.02754 1.61363)
(-0.457054 2.74319 1.26414)
(0.145033 2.79707 0.825285)
(-0.0803181 3.16378 0.262843)
(-1.54006 2.81395 1.76464)
(-1.00032 3.35155 1.0192)
(-0.703804 4.03322 0.772305)
(-0.162668 3.05983 1.13046)
(-0.954285 1.6976 1.61082)
(-1.06118 1.57425 1.08843)
(-0.892646 2.00921 1.16256)
(-0.788413 1.80256 1.21176)
(-0.7941 1.9374 0.812882)
(-0.520342 2.01286 -0.240606)
(0.335588 2.51214 0.749986)
(-1.44991 3.02888 0.461082)
(-0.390623 3.68758 -0.840399)
(-1.15095 2.20278 1.12298)
(-0.92086 0.929587 0.716634)
(-0.820941 1.4132 0.419642)
(-0.635953 1.85877 0.568505)
(-1.04448 2.14244 0.871411)
(-0.800421 2.24799 0.975329)
(-0.913068 1.93665 0.720339)
(-1.08809 1.40828 0.416382)
(-0.572436 1.42401 0.438356)
(-0.604443 1.28415 1.19075)
(-0.944526 2.43015 -0.0920484)
(-0.455761 2.0342 -0.390219)
(-0.628974 1.25722 0.671567)
(-1.03585 1.29676 0.190297)
(-0.738765 1.87566 0.0540786)
(-0.59757 1.95647 0.854848)
(-0.792237 2.02221 0.83134)
(-0.895292 2.01429 0.648771)
(-1.0153 1.71509 0.0164839)
(-1.05303 1.42569 0.00359546)
(-0.509744 0.816776 0.459631)
(-0.826244 -0.174957 -0.286746)
(-1.59185 -0.338228 -1.04556)
(-0.75 1.18466 -1.08239)
(-0.672134 0.78476 -0.479923)
(-0.37066 1.02221 -0.862723)
(-0.459176 0.681843 -0.282691)
(-0.402817 0.46823 -0.251132)
(-0.263763 1.11247 0.493713)
(-0.740399 0.254212 -0.311223)
(-0.750007 0.352982 -0.289443)
(-0.589365 0.997844 -0.0950256)
(-0.294561 1.2921 -0.427848)
(-0.291001 0.725204 -0.421979)
(-0.994847 0.142877 -0.734193)
(-1.46892 0.0741174 -0.675369)
(-1.68953 0.525075 -1.1165)
(0.0761811 0.507727 -1.53132)
(-0.313626 1.12787 -0.745123)
(-0.241725 0.5959 -0.701155)
(-0.45027 0.496155 -0.589366)
(-0.467534 0.0769302 -0.396954)
(-0.572851 -0.249552 -0.819272)
(-0.563077 -0.129673 -0.795865)
(-0.248808 -0.0165625 -0.761796)
(0.181435 0.0530613 -0.676459)
(0.00925883 0.618689 -0.922783)
(-0.0042638 0.735855 -1.29342)
(-0.324743 0.569298 -1.39046)
(-0.762734 0.399085 -0.964142)
(-1.02002 0.659148 -0.74919)
(-0.892649 0.753815 -0.510456)
(-0.306207 2.06734 2.68603)
(-0.34077 2.25875 2.62879)
(-0.219354 2.2486 2.63499)
(-0.632891 2.14543 2.59199)
(-0.401084 2.22966 2.59652)
(-0.269703 2.31191 2.59369)
(-0.711111 2.27949 2.73706)
(-0.558972 2.32949 2.70849)
(-0.37407 2.44109 2.62438)
(-0.15434 2.41196 2.65138)
(-1.00534 2.3779 2.63426)
(-0.722984 2.44657 2.64908)
(-0.549254 2.48681 2.64282)
(-0.210985 2.49941 2.62656)
(-0.0307874 2.48016 2.62459)
(-1.12328 2.43556 2.51067)
(-0.989696 2.4394 2.57381)
(-0.663253 2.51981 2.63444)
(-0.48187 2.53913 2.65106)
(-0.147373 2.63667 2.5822)
(0.0310962 2.65577 2.59069)
(-1.19163 2.48827 2.48275)
(-0.94958 2.54211 2.49857)
(-0.806927 2.56765 2.57789)
(-0.807377 2.7081 2.54689)
(-0.588521 2.74393 2.58206)
(-0.172101 2.84042 2.52564)
(-0.150301 2.70417 2.54308)
(-1.56258 2.47988 2.43737)
(-1.20118 2.60213 2.51184)
(-1.15811 2.76319 2.54458)
(-0.986751 2.96953 2.52347)
(-0.630748 3.05665 2.53807)
(-0.557214 3.01941 2.54792)
(-0.087802 3.02105 2.5048)
(0.168684 3.00874 2.46041)
(-1.53208 2.89438 2.2266)
(-1.25075 2.97563 2.28613)
(-1.24346 3.10145 2.30943)
(-0.764743 3.38086 2.41849)
(-0.647886 3.34616 2.74541)
(-0.500251 3.33707 2.87303)
(-0.483375 3.12411 3.01151)
(-0.0689853 3.16509 2.79916)
(-0.0125932 2.9726 3.01719)
(-2.07879 2.76449 2.54943)
(-1.60386 2.98685 2.59714)
(-0.360059 3.51444 2.41833)
(-0.960061 3.25543 2.65914)
(-0.8471 3.33038 2.63491)
(-1.07051 3.15749 2.72862)
(-0.419277 3.19407 2.52752)
(0.13692 3.13036 2.31888)
(0.00448688 3.37957 2.05735)
(0.0830771 3.29643 2.47648)
(-1.60436 2.82812 2.35831)
(-1.42671 2.96568 2.36767)
(-0.636 3.68097 1.5665)
(-0.927333 3.74537 2.09992)
(-0.622827 3.86222 2.27139)
(-0.411416 3.55824 1.73172)
(-0.829474 2.71956 1.91803)
(-0.452885 2.72146 1.33165)
(0.00992915 2.83919 0.843173)
(0.233389 3.09919 0.0632536)
(0.121674 2.73023 0.198051)
(-1.5485 2.99312 1.64811)
(-1.29468 3.59077 0.910535)
(-0.489834 4.01137 0.538311)
(-0.697766 2.48022 1.32535)
(-1.10667 1.43064 1.48077)
(-1.08746 1.54055 0.887513)
(-0.877226 1.96493 1.01751)
(-0.862315 1.80572 1.05584)
(-0.889238 1.8553 0.663338)
(-0.698702 1.80032 -0.0256788)
(0.294601 2.38263 0.0797422)
(-0.639529 2.9035 0.534959)
(-1.54545 2.98603 0.348325)
(-0.689005 3.35106 -0.249742)
(-1.19954 1.67758 1.49628)
(-0.844585 0.957927 0.644277)
(-0.752012 1.56458 0.179954)
(-0.59437 1.96478 0.495936)
(-0.923149 2.21264 0.672162)
(-0.920034 2.23356 0.811244)
(-1.14374 1.86941 0.421817)
(-0.986887 1.47696 0.342869)
(-0.932597 1.21024 -0.0215534)
(-0.975582 1.08362 0.764396)
(-0.957605 1.67675 1.45486)
(-0.946873 2.18102 0.127421)
(-0.441622 1.80301 0.186568)
(-0.708078 1.132 0.595883)
(-1.09352 1.28677 0.247178)
(-0.790349 1.77739 0.129321)
(-0.546805 1.92529 0.851422)
(-0.704719 1.9894 0.967227)
(-0.913891 2.01579 0.654781)
(-1.09567 1.74598 0.00435974)
(-1.09803 1.46728 -0.0579844)
(-0.670701 0.841626 0.255078)
(-0.789738 -0.0603818 -0.323014)
(-1.62544 -0.324337 -0.879884)
(-1.82353 0.239477 -1.44092)
(-0.805448 1.04378 -0.990119)
(-0.673646 0.635216 -0.618076)
(-0.518402 0.856469 -0.778578)
(-0.473698 0.622797 -0.293061)
(-0.427836 0.394298 -0.324436)
(-0.501323 0.845101 0.0165615)
(-0.77234 0.204306 -0.449161)
(-0.761718 0.289397 -0.352579)
(-0.658643 0.989313 -0.10828)
(-0.346389 1.32851 -0.362279)
(-0.313006 0.745544 -0.363527)
(-1.0491 0.122531 -0.714372)
(-1.42694 0.201203 -0.792328)
(-1.73559 0.593388 -1.10238)
(-1.86015 0.984561 -0.963486)
(0.0784086 0.499821 -1.52515)
(-0.30665 1.14551 -0.751155)
(-0.263614 0.566436 -0.709702)
(-0.429955 0.51021 -0.581856)
(-0.418157 0.127896 -0.413695)
(-0.517185 -0.223194 -0.82176)
(-0.561774 -0.133399 -0.852814)
(-0.241868 -0.00944646 -0.763906)
(0.158843 0.045743 -0.682784)
(-0.0122879 0.61199 -0.926737)
(-0.0326785 0.728829 -1.29553)
(-0.37773 0.56333 -1.38441)
(-0.826551 0.383158 -0.936338)
(-1.04841 0.681244 -0.731078)
(-0.875853 0.769467 -0.552905)
(-0.410348 0.258882 -0.544704)
(-0.331028 1.98854 2.66203)
(-0.415521 2.11489 2.69271)
(-0.190528 2.13036 2.64001)
(-0.696201 2.11117 2.6504)
(-0.400369 2.15945 2.65219)
(-0.187243 2.20013 2.63479)
(-0.760055 2.13081 2.5959)
(-0.453582 2.20577 2.60061)
(-0.346366 2.30003 2.58649)
(-0.174191 2.29306 2.64226)
(-0.888098 2.19401 2.72667)
(-0.653812 2.29958 2.72086)
(-0.474124 2.40903 2.64389)
(-0.210629 2.38793 2.64594)
(-0.066101 2.3323 2.66208)
(-1.0565 2.33974 2.64498)
(-0.866905 2.37215 2.66166)
(-0.723427 2.41786 2.66328)
(-0.443751 2.45035 2.65277)
(-0.0747405 2.43728 2.66006)
(0.0278087 2.46418 2.67054)
(-1.25817 2.35395 2.49306)
(-1.06394 2.40036 2.53955)
(-0.731243 2.49466 2.59648)
(-0.559449 2.45166 2.6123)
(-0.383242 2.51598 2.58682)
(-0.29923 2.56143 2.61312)
(0.0189923 2.60756 2.59566)
(-1.32778 2.40871 2.44175)
(-1.00898 2.5073 2.50368)
(-0.833634 2.57008 2.58009)
(-0.531194 2.75481 2.52833)
(-0.596743 2.77856 2.50915)
(-0.415419 2.83396 2.50625)
(-0.350804 2.77326 2.4784)
(0.0208362 2.80907 2.31371)
(-1.6389 2.43585 2.43831)
(-1.10614 2.62452 2.4873)
(-0.877909 2.82444 2.48859)
(-1.01701 2.87099 2.5514)
(-0.941112 2.93092 2.57377)
(-0.556331 3.04008 2.57846)
(-0.413618 2.98904 2.60415)
(0.0503185 2.99941 2.53194)
(0.354396 2.92129 2.42117)
(-1.57686 2.83554 2.26172)
(-1.41074 2.81901 2.36738)
(-0.942067 3.16554 2.29447)
(-1.24285 3.14661 2.54548)
(-0.782917 3.32829 2.71481)
(-0.613166 3.26481 2.85668)
(-0.661687 3.1286 2.95005)
(-0.172921 3.19607 2.78905)
(-0.0971746 3.0595 2.95307)
(0.389871 3.13283 2.55074)
(-1.98939 2.76146 2.468)
(-1.47228 3.23496 2.50287)
(-1.34249 3.24727 2.53413)
(-1.10345 3.36648 2.72058)
(-1.15064 3.20649 2.71306)
(-0.985302 3.2655 2.74673)
(-0.59189 3.18633 2.55945)
(-0.55182 3.22099 2.10657)
(-0.217306 3.32933 1.92455)
(0.115313 3.5385 2.01797)
(0.676025 3.38474 0.452544)
(-1.75713 2.795 2.20149)
(-0.984494 3.40754 2.43299)
(-0.685924 3.82379 1.45128)
(-1.25712 3.52371 2.44653)
(-0.81367 3.67026 1.99538)
(-0.836392 3.16331 1.91128)
(-0.764243 2.82347 1.45649)
(-0.531904 2.64099 1.47759)
(-0.0274728 2.7165 1.09276)
(0.0939848 3.01115 0.213369)
(-0.30809 2.44229 0.613854)
(-0.238946 2.23927 0.383411)
(-1.70529 3.07909 1.76475)
(-1.2342 3.86347 0.763486)
(-0.531631 3.72555 0.761769)
(-1.168 1.73552 1.56348)
(-1.12631 1.25146 1.08184)
(-1.08377 1.53478 0.873838)
(-0.814155 1.91708 0.769846)
(-0.891085 1.82796 1.0002)
(-0.894753 1.77772 0.161165)
(-0.656941 1.71218 0.08363)
(0.0407208 2.14925 -0.114435)
(-0.319673 2.921 0.563453)
(-0.287831 3.06562 -0.211006)
(-1.47748 2.84119 0.674816)
(-1.07686 2.57278 0.999343)
(-1.16115 1.37938 1.50665)
(-0.789312 1.18363 0.433039)
(-0.718686 1.69471 -0.121723)
(-0.578379 2.05114 0.358949)
(-0.885885 2.23608 0.566678)
(-1.06717 2.17824 0.548189)
(-1.27822 1.85254 0.307496)
(-0.983244 1.44522 0.319224)
(-1.00177 1.0971 -0.0262135)
(-1.22603 0.73591 0.399054)
(-1.27511 1.43633 1.39972)
(-2.0743 0.920158 0.906463)
(-1.12269 1.76444 0.2229)
(-0.481348 1.55814 0.584942)
(-0.762522 1.04452 0.565493)
(-1.16766 1.22111 0.344171)
(-0.867936 1.65217 0.153109)
(-0.466466 1.89893 0.492505)
(-0.773429 1.94748 0.770532)
(-0.915898 2.04988 0.643739)
(-1.17843 1.77251 -0.0752663)
(-1.1613 1.49683 -0.0939658)
(-0.782452 0.812978 0.125432)
(-1.02051 -0.176909 -0.2199)
(-1.70404 -0.295236 -0.718855)
(-1.85884 0.240027 -1.48384)
(-2.19421 0.523073 -1.26248)
(-0.84285 0.899655 -1.02977)
(-0.673255 0.619335 -0.638972)
(-0.602969 0.724892 -0.796588)
(-0.507577 0.548328 -0.342404)
(-0.472909 0.298752 -0.393156)
(-0.639565 0.651388 -0.295858)
(-0.750902 0.164568 -0.59607)
(-0.757538 0.2444 -0.392884)
(-0.727421 0.962144 -0.164725)
(-0.442334 1.32467 -0.373493)
(-0.391303 0.772841 -0.286795)
(-1.05155 0.144171 -0.79446)
(-1.55654 0.108364 -0.590911)
(-1.7288 0.633607 -1.06185)
(-1.84264 1.00025 -0.984938)
(-1.34017 1.36546 0.494674)
(0.0908536 0.483388 -1.50768)
(-0.291391 1.17736 -0.760783)
(-0.29253 0.520022 -0.717035)
(-0.432455 0.499451 -0.578012)
(-0.407145 0.145817 -0.425651)
(-0.501442 -0.211869 -0.843497)
(-0.553288 -0.129695 -0.907067)
(-0.240607 -0.0060554 -0.764781)
(0.146863 0.0433271 -0.690155)
(-0.0357963 0.603303 -0.935001)
(-0.0790035 0.71772 -1.30173)
(-0.381211 0.571401 -1.38759)
(-0.878343 0.37049 -0.910111)
(-1.0603 0.645107 -0.762065)
(-0.879975 0.774052 -0.558107)
(-0.415461 0.267259 -0.517693)
(-0.334127 -0.370709 -0.323395)
(-0.154781 2.01991 2.43232)
(-0.398512 1.98028 2.66864)
(-0.20948 2.10391 2.55059)
(-0.517436 2.08675 2.71437)
(-0.31307 2.11959 2.69738)
(-0.173348 2.14717 2.64653)
(-0.7132 2.04129 2.65815)
(-0.528108 2.09156 2.66857)
(-0.300127 2.16478 2.65633)
(-0.132397 2.19963 2.61763)
(-0.832633 2.09778 2.59461)
(-0.567414 2.17216 2.62588)
(-0.329211 2.25704 2.65732)
(-0.270064 2.25839 2.68056)
(-0.116178 2.27854 2.65288)
(-1.0777 2.11715 2.71013)
(-0.839881 2.21615 2.70433)
(-0.579725 2.31696 2.67467)
(-0.43249 2.35418 2.64188)
(-0.101726 2.36792 2.63034)
(0.0316367 2.3383 2.67232)
(-1.25308 2.25647 2.62891)
(-0.993245 2.33019 2.64949)
(-0.767412 2.41651 2.62836)
(-0.617301 2.39604 2.63746)
(-0.219478 2.42236 2.65979)
(-0.00927376 2.45295 2.66904)
(0.012116 2.44881 2.66528)
(-1.38533 2.28815 2.46607)
(-1.13358 2.38181 2.5318)
(-0.936383 2.4384 2.56473)
(-0.545564 2.44719 2.57923)
(-0.385512 2.45166 2.57346)
(-0.293166 2.5178 2.58281)
(-0.287576 2.5421 2.5807)
(0.196901 2.59704 2.4565)
(-1.22537 2.46976 2.45851)
(-1.18277 2.45361 2.48157)
(-0.857621 2.5804 2.54911)
(-0.669927 2.6703 2.55215)
(-0.43917 2.78944 2.52693)
(-0.516073 2.79216 2.51983)
(-0.430275 2.77175 2.46263)
(-0.129285 2.70701 2.3944)
(0.0441778 2.64236 2.41533)
(-1.56585 2.46274 2.43433)
(-1.35323 2.52845 2.54163)
(-1.20955 2.6724 2.52407)
(-0.964936 2.88051 2.5643)
(-0.956819 2.87851 2.64342)
(-1.02805 2.84902 2.64716)
(-0.653762 2.92905 2.65148)
(-0.323608 3.00424 2.59846)