/*--------------------------------*- C++ -*----------------------------------*\
  =========                 |
  \\      /  F ield         | OpenFOAM: The Open Source CFD Toolbox
   \\    /   O peration     | Website:  https://openfoam.org
    \\  /    A nd           | Version:  7
     \\/     M anipulation  |
\*---------------------------------------------------------------------------*/
FoamFile
{
    version     2.0;
    format      ascii;
    class       surfaceScalarField;
    location    "3.5";
    object      phi;
}
// * * * * * * * * * * * * * * * * * * * * * * * * * * * * * * * * * * * * * //

dimensions      [0 3 -1 0 0 0 0];

internalField   nonuniform List<scalar> 
54184
(
-0.000116299
-0.00145759
-8.48831e-05
-0.000201058
-0.00349337
-0.000119013
-0.000131102
-0.00131893
-9.25285e-05
-8.32238e-05
-0.00317908
-8.11257e-05
-0.000280903
-0.00515426
0.000251431
-0.000281187
-0.00339232
-0.000107469
-0.000265407
-0.0042818
-6.31154e-05
-0.000138977
-0.0011747
-8.83022e-05
-0.000103587
-0.00308027
-8.77545e-05
-3.30955e-05
-0.00419636
-5.52181e-05
-0.000211685
-0.00603712
0.0004744
-0.000350714
-0.00515676
0.00028454
-0.000324116
-0.00565063
0.000255794
-0.000308959
-0.00326868
-9.87719e-05
-0.000264251
-0.00416428
-6.4329e-05
-0.0001746
-0.00625986
1.82009e-05
-0.000140703
-0.00103017
-8.75544e-05
-0.000119467
-0.00296224
-8.68655e-05
-5.96912e-05
-0.00416423
-6.01975e-05
-3.68947e-05
-0.00479812
-4.71373e-05
4.22468e-05
-0.00733728
0.000787896
-0.00023549
-0.00618659
0.000581124
-0.000123813
-0.00635094
0.000385389
-0.000407595
-0.00509024
0.000303623
-0.00027716
-0.00568752
0.000334342
-0.000254772
-0.00503281
0.000289788
-0.000292107
-0.00316397
-8.02521e-05
-0.000310478
-0.00401139
-6.0651e-05
-0.000221909
-0.00619335
3.13832e-05
-3.0978e-05
-0.00545654
-2.13777e-05
-0.000147273
-0.0008808
-8.4297e-05
-0.000131908
-0.00283306
-8.48228e-05
-6.86132e-05
-0.00412278
-5.96957e-05
-6.06621e-05
-0.00474699
-5.06637e-05
4.97795e-06
-0.00394287
-7.11252e-05
0.000155637
-0.0072485
0.00114735
-4.08528e-05
-0.00744206
0.00086766
-3.40952e-05
-0.00715395
0.000658738
-0.000274346
-0.00637001
0.000602853
-0.000180064
-0.00631947
0.00045256
-8.43954e-05
-0.00634562
0.000370054
-0.000385593
-0.00501552
0.000348367
-0.000352129
-0.00567438
0.000332128
-0.000284992
-0.00499513
0.000359746
3.30484e-05
-0.00543805
0.000232253
-0.000340046
-0.00301104
-7.69763e-05
-0.000333775
-0.00382884
-6.09397e-05
-0.000244836
-0.00611093
3.31538e-05
-7.45948e-05
-0.00539684
-1.43935e-05
4.64098e-05
-0.00509896
-0.000109243
-0.000152498
-0.000726212
-8.32985e-05
-0.000140064
-0.00269507
-8.22261e-05
-8.40355e-05
-0.0040642
-5.9372e-05
-8.03277e-05
-0.00467578
-5.05735e-05
-8.08053e-06
-0.00390799
-7.74593e-05
-3.98317e-05
-0.00354218
-7.65735e-05
6.74492e-05
-0.00733751
0.00140377
0.000217847
-0.00741447
0.00121256
-2.71731e-05
-0.00705625
0.00107895
-0.000164423
-0.00743634
0.000875384
-9.38804e-05
-0.00713027
0.000757798
0.000133723
-0.00707341
0.000496832
-0.000299783
-0.00647252
0.0005852
-0.000207503
-0.00637745
0.000516209
-6.20274e-05
-0.0065376
0.000421582
7.40781e-05
-0.00550674
0.000426794
-0.000453607
-0.00491756
0.000352262
-0.000418166
-0.00559207
0.000350446
-0.000300283
-0.00496482
0.000357261
-5.98622e-05
-0.00541495
0.000321919
9.55296e-05
-0.00566906
7.88273e-05
-0.000373029
-0.00282942
-6.64517e-05
-0.000337561
-0.00365168
-5.66382e-05
-0.000263834
-0.00602523
3.31564e-05
-0.000108114
-0.0053204
-1.54998e-05
2.04551e-05
-0.0050209
-0.000120996
-2.28951e-05
-0.00445898
-0.000209955
-0.000155066
-0.000568901
-8.10757e-05
-0.00015448
-0.00254434
-7.95534e-05
-9.80891e-05
-0.00398938
-5.89517e-05
-0.00010013
-0.00458601
-4.90116e-05
-2.64438e-05
-0.00385724
-7.48782e-05
-7.0211e-05
-0.0034664
-8.30266e-05
-5.08861e-06
-0.00325372
-7.08369e-05
-4.25994e-05
-0.00728015
0.00144335
0.000184181
-0.00729406
0.00155857
-2.60491e-05
-0.00736846
0.00131947
-9.58298e-05
-0.00739091
0.00119277
0.00014075
-0.0072625
0.00118418
0.000175652
-0.00693457
0.00104877
-0.000118734
-0.007538
0.000896735
-0.00010248
-0.00716577
0.000805861
0.000132077
-0.00708249
0.000572777
9.67052e-05
-0.00693754
0.000474551
-0.000431996
-0.00647155
0.000615821
-0.000244875
-0.00648854
0.000522993
-5.8262e-05
-0.00670132
0.000437903
1.64039e-05
-0.00570571
0.000544285
0.000131401
-0.00515321
0.000370876
-0.000496615
-0.00482255
0.000383372
-0.000419481
-0.00553686
0.000378973
-0.00032869
-0.0049216
0.000372081
-0.000140431
-0.00533867
0.000313295
5.51441e-05
-0.00553396
0.000152131
0.000111147
-0.00595007
-0.000187157
-0.000371163
-0.00264742
-6.10871e-05
-0.000344262
-0.00348086
-4.74845e-05
-0.000293502
-0.00592374
3.72842e-05
-0.000145931
-0.00522348
-1.79599e-05
-2.24485e-05
-0.00490653
-0.000133864
-8.18776e-05
-0.00433997
-0.000228338
-5.20402e-05
-0.00324691
-0.000203118
-0.000152411
-0.000413632
-8.06533e-05
-0.000165556
-0.0023834
-7.64569e-05
-0.000115559
-0.00389551
-5.78703e-05
-0.00012087
-0.00447919
-4.49035e-05
-4.3968e-05
-0.00378799
-7.42998e-05
-8.00252e-05
-0.0033801
-8.11566e-05
-8.92587e-06
-0.00325138
-7.64396e-05
8.93343e-05
-0.00361114
-6.30293e-05
4.15879e-05
-0.00675862
0.00174552
-2.72224e-05
-0.00712015
0.00168682
-0.000114821
-0.00711081
0.00147063
-5.16588e-05
-0.00732582
0.00151057
3.4484e-05
-0.00722336
0.00151973
8.87113e-05
-0.0071025
0.00119763
-8.13394e-05
-0.00732782
0.00118119
0.00010612
-0.00744013
0.0011618
0.000157723
-0.00693325
0.00115721
0.00026134
-0.00664882
0.000796856
-0.00026028
-0.00760483
0.000907007
-9.64136e-05
-0.00717248
0.000754993
0.000124708
-0.00714521
0.000685607
0.000169843
-0.00705642
0.000538216
0.000465732
-0.00629913
0.000532091
-0.000446791
-0.00652365
0.000618689
-0.000308176
-0.00652856
0.000544545
-0.000143351
-0.00681699
0.000453329
-7.48715e-05
-0.0059082
0.000574834
9.58141e-05
-0.00513521
0.000485607
0.000123145
-0.00545536
0.000185683
-0.000493169
-0.00472798
0.000393343
-0.000415159
-0.00547368
0.00039109
-0.00035942
-0.00486047
0.000383769
-0.000131062
-0.00535773
0.000376273
6.89867e-06
-0.00541294
0.000162928
2.96489e-05
-0.00573419
-0.000175275
0.000175471
-0.00433167
-0.000267611
-0.000380775
-0.00245167
-3.70368e-05
-0.000374921
-0.00329471
-3.78691e-05
-0.000334126
-0.0058021
4.9441e-05
-0.000182518
-0.00510524
-1.93019e-05
-1.89502e-05
-0.0048033
-0.000146203
-9.68686e-05
-0.00422503
-0.000231961
-5.84349e-05
-0.00321592
-0.000209821
8.85213e-05
-0.00402573
-0.000133266
-0.000153776
-0.000257801
-7.73855e-05
-0.000177049
-0.00221152
-7.54826e-05
-0.00013866
-0.00377811
-5.51994e-05
-0.000132584
-0.00435503
-4.94426e-05
-7.60697e-05
-0.00368373
-7.30886e-05
-9.79976e-05
-0.00327569
-8.07147e-05
-4.0575e-05
-0.0032185
-7.34596e-05
9.31206e-05
-0.00371252
-6.81788e-05
9.26007e-05
-0.00393474
-5.68626e-05
0.000164046
-0.00589297
0.00230879
7.42394e-05
-0.00629468
0.00196133
-0.000139987
-0.0065911
0.00198311
-0.000183881
-0.00688186
0.00166022
-0.000248256
-0.00701818
0.00169917
-0.000163069
-0.00678462
0.00155819
0.000103442
-0.00693059
0.00138224
-0.000155225
-0.00723703
0.00148638
-3.07578e-05
-0.0070713
0.00149539
0.000648033
-0.00740432
0.00133125
0.000356017
-0.00719238
0.00107238
-0.000117937
-0.0073425
0.00117003
-4.44201e-05
-0.00745298
0.00114205
5.84145e-05
-0.00685466
0.00114951
0.000278594
-0.00656647
0.000966112
0.000679722
-0.00652682
0.000708398
-0.000315966
-0.00761699
0.000912537
-0.000207917
-0.00727684
0.000911107
5.60851e-06
-0.0071159
0.000576722
0.000274233
-0.00726449
0.000544576
0.000356855
-0.0066832
0.000661244
0.000258087
-0.00536553
0.000434523
-0.000446422
-0.00657248
0.000623676
-0.000293956
-0.0065821
0.000551022
-0.0002019
-0.00693116
0.000501194
-6.61926e-05
-0.00606241
0.000542662
0.000233017
-0.00536094
0.000574453
9.06311e-05
-0.00525883
0.000228102
0.00036904
-0.00645855
1.36286e-05
-0.000525417
-0.00460313
0.000389895
-0.000462533
-0.00538928
0.000396555
-0.000397196
-0.00475317
0.000346856
-0.000105229
-0.00536158
0.000310328
3.16415e-05
-0.00532726
0.000239996
2.33859e-05
-0.00555793
-0.000133592
0.000197404
-0.00445954
-0.000303242
7.66333e-05
-0.00317433
-0.000191276
-0.000376858
-0.00225644
-5.17753e-05
-0.000414252
-0.00306937
-2.51823e-05
-0.000371757
-0.00566162
5.47459e-05
-0.000173903
-0.00499217
-2.23094e-05
-8.76608e-05
-0.00466413
-0.000146883
-0.000126022
-0.00411363
-0.000229578
-5.27497e-05
-0.00325032
-0.000185388
0.000122702
-0.00414059
-0.000124543
0.000224746
-0.00465924
-0.000143378
-0.000150916
-0.000105728
-7.48539e-05
-0.000185146
-0.00203069
-7.30676e-05
-0.00014977
-0.00364932
-5.44965e-05
-0.000149398
-0.00421433
-4.65092e-05
-4.94896e-05
-0.00361102
-7.2668e-05
-9.80282e-05
-0.00317094
-7.98102e-05
-4.38316e-05
-0.00318467
-7.07153e-05
8.8878e-05
-0.00380946
-6.53964e-05
9.0799e-05
-0.00403167
-6.20472e-05
4.61334e-05
-0.00326404
-5.37894e-05
0.000132148
-0.00546733
0.00270571
-3.08852e-05
-0.00579144
0.00231876
9.81708e-05
-0.00562119
0.00234652
-0.000164169
-0.00614255
0.00218154
-5.3323e-05
-0.00627622
0.00192827
-0.000284231
-0.00652503
0.00200779
-2.67896e-05
-0.00685721
0.00182218
0.000149202
-0.00672683
0.00171589
-0.000461546
-0.00684793
0.00172444
-0.000156476
-0.00658144
0.00162171
0.000847591
-0.00697362
0.00140166
0.000292417
-0.00658536
0.00141338
0.000159265
-0.0074675
0.00145336
-0.000152475
-0.00696607
0.0014892
6.60561e-05
-0.00725891
0.00134233
0.000347678
-0.00712539
0.00119517
0.00056982
-0.00676645
0.00110325
-0.000240061
-0.00727369
0.00117464
-0.000134128
-0.00748298
0.00112624
-1.96714e-05
-0.00682442
0.00113709
0.000565465
-0.00665564
0.000947449
0.0005246
-0.00657952
0.000851071
0.000529966
-0.00628839
0.000740139
-0.000228911
-0.00771557
0.000919368
-0.000189395
-0.00730803
0.000839162
-6.80546e-05
-0.00712548
0.000786846
4.9541e-05
-0.0074134
0.000609903
0.000427673
-0.00690484
0.000571565
0.000322398
-0.00550828
0.000572227
0.000603659
-0.0057511
7.21573e-06
-0.000518755
-0.00656943
0.000610321
-0.000259459
-0.00673555
0.000574053
-0.000257216
-0.00701102
0.000490897
2.10557e-05
-0.0062597
0.000572201
0.000147624
-0.00551088
0.000576616
0.000117539
-0.0051021
0.000323567
0.000329928
-0.00630312
-5.98447e-05
0.000396562
-0.00433225
-5.99477e-05
-0.000482847
-0.00451577
0.000403452
-0.000555012
-0.00526158
0.000402959
-0.000450788
-0.00465954
0.000381959
-0.00013177
-0.00537919
0.000322337
-6.42193e-05
-0.0052153
0.000174931
-3.30336e-06
-0.00535354
-8.71072e-05
0.000212292
-0.00456384
-0.000294333
0.00019135
-0.003326
-0.00022023
0.000401641
-0.00378071
-0.000270464
-0.000384984
-0.00205105
-5.12219e-05
-0.00042384
-0.0028783
-4.14583e-06
-0.000398392
-0.00549373
5.55555e-05
-0.000222802
-0.00485936
-4.66141e-06
-7.90622e-05
-0.00450315
-0.000153715
-0.000150005
-0.00398669
-0.000221852
-4.55327e-05
-0.00331327
-0.000164926
0.000151717
-0.00429373
-9.50797e-05
0.000239402
-0.0047944
-0.000137982
9.51735e-05
-0.00379775
-0.000144147
-0.00015147
4.58974e-05
-7.08764e-05
-0.000193223
-0.00184163
-7.06911e-05
-0.00016402
-0.00350666
-5.17112e-05
-0.000165569
-0.00405906
-4.41896e-05
-9.03831e-05
-0.00349784
-6.93051e-05
-0.000104809
-0.0030606
-7.81935e-05
-5.21194e-05
-0.00314302
-6.93421e-05
7.42309e-05
-0.00389173
-6.26752e-05
7.79303e-05
-0.00411366
-6.13416e-05
3.50683e-05
-0.00330283
-5.83256e-05
7.09876e-05
-0.0023638
-4.96453e-05
2.51804e-05
-0.00524368
0.00279017
1.24056e-05
-0.00549886
0.00264241
0.000206468
-0.00541495
0.00255815
-0.000140622
-0.00580381
0.00253701
6.85928e-06
-0.00573799
0.00237538
0.000274892
-0.00550623
0.00217274
-0.000258726
-0.00606491
0.00217235
2.89084e-05
-0.00629579
0.00214541
0.000238233
-0.00597701
0.00188508
-0.000503307
-0.00646633
0.00202121
-0.000135073
-0.00676766
0.00189684
0.000192755
-0.00621346
0.00196365
0.000184677
-0.00631812
0.00181988
1.79791e-05
-0.00656404
0.00190339
-0.000244592
-0.0064095
0.00164462
7.74564e-05
-0.00684811
0.00148479
0.000327493
-0.0067333
0.00156979
0.000489882
-0.00631901
0.00135171
-0.000504296
-0.00716386
0.00144739
-7.28012e-05
-0.00706326
0.00148922
5.29425e-05
-0.00714182
0.0012995
0.00051182
-0.00695694
0.00122752
0.000396417
-0.0066446
0.0012015
0.000563668
-0.00618479
0.00104564
-0.000190847
-0.00719056
0.00121041
-0.000196348
-0.00742584
0.00112446
-0.000113266
-0.00679549
0.00114252
0.000185101
-0.00663809
0.000983977
0.000411253
-0.00647512
0.000859474
0.000720272
-0.00665446
0.000819276
0.000823703
-0.00601856
0.000552318
-0.000420694
-0.00768101
0.000930356
-0.000145934
-0.00739875
0.000896566
-0.000157821
-0.00714121
0.000755497
9.14953e-05
-0.00736836
0.000671358
0.000461128
-0.00719531
0.00058687
0.000386135
-0.00575402
0.000548706
0.000569132
-0.00541314
-4.9389e-06
0.000736147
-0.00556775
-0.000115091
-0.000497739
-0.00651958
0.000606949
-0.000530164
-0.00671487
0.00056479
-0.000387324
-0.00698885
0.000488417
-5.01537e-07
-0.00647367
0.000573601
6.98163e-05
-0.0056597
0.000586985
0.000286971
-0.00515731
0.000341555
0.000299519
-0.00599266
-7.41236e-05
0.000556406
-0.0046006
-0.000156553
0.000454527
-0.00338338
-2.97286e-05
-0.000558817
-0.00437434
0.000416254
-0.000568165
-0.00513241
0.00041861
-0.000451049
-0.00460996
0.000406035
-0.000247874
-0.00529477
0.000322607
-3.84321e-05
-0.00514072
0.000207122
-1.33088e-05
-0.00525309
-6.22162e-05
0.000176883
-0.00462221
-0.000251162
0.000296724
-0.00353009
-0.000235243
0.000437386
-0.00392616
-0.000272766
0.000259048
-0.00305547
-0.000332163
-0.000387918
-0.00184739
-5.28798e-05
-0.000436091
-0.00269159
4.93031e-06
-0.000382267
-0.00530336
2.37233e-05
-0.000239515
-0.00471175
-1.81074e-05
-0.000127498
-0.00433602
-0.000134676
-0.000158148
-0.00387532
-0.000211743
-6.97163e-05
-0.00338779
-0.000129732
0.000173587
-0.00448213
-7.5888e-05
0.000214006
-0.0048972
-0.00012836
9.17279e-05
-0.0038447
-0.000147693
0.000126736
-0.00256466
-0.000136887
-0.000150252
0.000195887
-6.91353e-05
-0.000201955
-0.00164202
-6.85323e-05
-0.000185173
-0.0033423
-4.98745e-05
-0.000184524
-0.00388448
-4.17716e-05
-9.33481e-05
-0.00338292
-6.57578e-05
-0.000108306
-0.00294411
-7.74898e-05
-7.08919e-05
-0.003083
-6.73177e-05
7.05183e-05
-0.00396946
-6.21261e-05
6.30573e-05
-0.00417878
-6.06078e-05
1.95095e-05
-0.00332624
-5.7439e-05
6.81898e-05
-0.00243634
-5.39741e-05
0.000153474
-0.00139285
-3.79001e-05
0.000234702
-0.0048205
0.00316275
3.11902e-05
-0.00507791
0.00303284
6.45702e-05
-0.00522364
0.0028134
0.000292958
-0.00513482
0.00273669
-0.000107216
-0.00551985
0.00288718
2.47542e-05
-0.00534792
0.00255748
0.000414917
-0.00555049
0.00249143
-0.000315135
-0.00571088
0.00253866
1.52866e-05
-0.0057254
0.00253805
0.00030676
-0.00541251
0.00221313
0.000478981
-0.00575764
0.00206767
-0.000452371
-0.00610078
0.00222006
-0.000202093
-0.00623382
0.0021774
5.39064e-05
-0.00580318
0.00211042
0.00013765
-0.00614582
0.00176014
-0.000536904
-0.00589456
0.0020454
-0.000256492
-0.00666159
0.00192705
0.000104808
-0.00631723
0.00197326
0.000231346
-0.00627489
0.00201657
0.000494563
-0.00588518
0.00170061
-0.000835798
-0.00634968
0.00168878
-0.000112688
-0.00628215
0.00181592
5.98979e-05
-0.00668087
0.00147042
0.000213809
-0.0065341
0.00158361
0.00041548
-0.00625944
0.00149116
0.000585267
-0.00637537
0.00125379
-0.00030473
-0.00704265
0.00147378
-0.000321979
-0.00698208
0.00149184
5.26637e-06
-0.00707765
0.00130651
0.000248548
-0.0069274
0.00120652
0.000311613
-0.00653248
0.00121504
0.000803589
-0.00616601
0.00109941
0.00102584
-0.00581975
0.000597391
-0.000368651
-0.00718979
0.0012585
-0.000231692
-0.00727683
0.00114715
-0.000223326
-0.00674393
0.0011384
0.00024616
-0.00662458
0.000974347
0.000672358
-0.00661576
0.000913383
0.000652941
-0.00694502
0.000883222
0.000839511
-0.00608284
0.00061317
0.00100124
-0.00594422
0.000453913
-0.000576551
-0.00744744
0.000938558
-0.000311123
-0.00754766
0.000860223
-0.000342166
-0.00709676
0.000806952
0.000200452
-0.00751854
0.000704729
0.000225053
-0.00724974
0.000570547
0.000619256
-0.00605127
0.000551843
0.000457475
-0.00514123
0.000118843
0.000845165
-0.005582
-0.000279445
0.000266062
-0.00378647
0.000159969
-0.000642075
-0.00641046
0.000700174
-0.000560399
-0.00670364
0.00058796
-0.000313014
-0.00707249
0.000510399
-0.000238205
-0.00651939
0.000524463
3.16325e-05
-0.00571807
0.000561907
0.000262223
-0.00519377
0.000347907
0.000214082
-0.00559532
-9.2981e-05
0.000593677
-0.0047603
-0.000211376
0.000550231
-0.00362744
-2.53375e-05
0.000327315
-0.00354701
-6.62628e-05
-0.000573756
-0.00422399
0.000419441
-0.000549856
-0.00501359
0.000411198
-0.000363103
-0.00462971
0.000419196
-0.000209857
-0.00524152
0.000323126
-0.000103549
-0.00499902
0.000156956
-6.92653e-05
-0.00508154
-5.33104e-05
0.000105741
-0.00465899
-0.000200889
0.000347181
-0.00375742
-0.000197428
0.000375287
-0.00406057
-0.000262107
0.000284595
-0.00314636
-0.000374746
0.000224388
-0.00200119
-0.000266974
-0.000404758
-0.00162417
-5.24031e-05
-0.00046325
-0.00248665
3.4813e-06
-0.000443689
-0.00510739
6.74845e-05
-0.000294816
-0.00450325
-7.44931e-05
-0.000152047
-0.00415013
-0.000145301
-0.000169783
-0.00374954
-0.000198984
-0.000100324
-0.00345465
-0.000115451
0.000205595
-0.0047068
-4.01379e-05
0.000197369
-0.00498712
-0.000120283
4.95101e-05
-0.00385479
-0.000148262
0.000101822
-0.00261137
-0.000134617
0.000213708
-0.00177751
-0.00013716
-0.000150647
0.000345261
-6.51754e-05
-0.000206437
-0.00143706
-6.76618e-05
-0.00020319
-0.00315937
-4.8273e-05
-0.000193762
-0.00369879
-4.18009e-05
-0.000115434
-0.0032456
-6.36641e-05
-0.000116301
-0.00281773
-7.5835e-05
-7.99954e-05
-0.00301356
-6.69375e-05
5.45921e-05
-0.00403036
-6.10171e-05
5.05888e-05
-0.00423164
-5.98585e-05
4.74646e-06
-0.00333452
-5.70739e-05
5.38161e-05
-0.00249397
-5.362e-05
0.000168487
-0.00157339
-4.19254e-05
0.000110856
-0.00151231
-2.57221e-05
0.000235952
-0.00428543
0.00349989
2.62914e-05
-0.00472911
0.0031953
0.000457478
-0.00464675
0.00311948
-6.64104e-05
-0.00494673
0.00309067
0.000321087
-0.00478962
0.00298438
-9.46442e-05
-0.00509141
0.00304303
9.58662e-05
-0.0051383
0.00274576
0.000323095
-0.00518137
0.00275401
-0.000305857
-0.00548528
0.00284909
2.01109e-05
-0.00525126
0.00278569
0.000116808
-0.0053644
0.00256134
0.000547608
-0.00511083
0.00238757
-0.000504373
-0.00560425
0.00252142
-0.000224671
-0.0056871
0.00252294
0.000195512
-0.00545148
0.00243541
0.000256752
-0.00566452
0.00200091
0.000617579
-0.00566809
0.00194136
-0.000492669
-0.00613622
0.00223717
-0.000337938
-0.00612252
0.00219021
0.000128827
-0.00581085
0.00216105
0.000372551
-0.00612929
0.0019527
0.000631108
-0.00575196
0.00178873
-0.000794913
-0.00599072
0.00208237
-0.00035078
-0.00636649
0.00198839
-6.33989e-05
-0.00622973
0.00196284
0.000141804
-0.00625098
0.00202135
0.000500193
-0.00580715
0.00185382
0.000760151
-0.00605717
0.00151815
-0.00020023
-0.00643551
0.00172091
-0.000285544
-0.00627075
0.00164096
0.000154559
-0.00660947
0.00159524
0.000134419
-0.00655932
0.00160977
0.00022224
-0.00606869
0.00148223
0.00066197
-0.00616675
0.00142415
0.00114997
-0.00565467
0.00106588
-0.000513259
-0.00689711
0.00149251
-0.000312575
-0.00693867
0.00151126
-0.00025008
-0.00686919
0.00131013
0.000409968
-0.00698776
0.00120306
0.000398088
-0.0062846
0.00123292
0.000860542
-0.00633967
0.0011811
0.00105744
-0.00594985
0.00101158
0.00129476
-0.005865
0.000407637
-0.000444918
-0.00724852
0.00127618
-0.000205144
-0.0073346
0.0012103
-0.000329465
-0.00676202
0.00115254
0.00022433
-0.00655742
0.00104736
0.000367187
-0.0066831
0.000899556
0.000494514
-0.00686481
0.000957917
0.000716716
-0.00618946
0.000730609
0.000994886
-0.00589719
0.000416414
0.000575999
-0.00492142
0.000267065
-0.00063984
-0.00731914
0.000988617
-0.00051583
-0.00751532
0.000861644
-0.000240393
-0.00710803
0.000798876
-5.38627e-05
-0.00759461
0.000698673
0.000117093
-0.00719259
0.000562122
0.000493466
-0.00630561
0.000593643
0.000339904
-0.00507601
0.000360797
0.000853239
-0.00556095
-0.000161764
0.00037693
-0.00385966
-3.29537e-05
0.00040558
-0.00380855
0.000243919
-0.000768412
-0.0061847
0.000667783
-0.000534227
-0.00664465
0.000625554
-0.000314564
-0.00706216
0.000529092
-0.000239636
-0.00651932
0.000540109
-7.63552e-05
-0.00580298
0.000582183
0.000141841
-0.00519306
0.000350092
0.000136998
-0.00525808
-2.05935e-05
0.000557192
-0.00488337
-0.000179922
0.000543567
-0.00390512
-0.000101975
0.000343403
-0.00362643
-4.73198e-06
0.000564693
-0.00361548
-0.000175785
-0.000659303
-0.00401247
0.000420311
-0.000627432
-0.00484126
0.000411296
-0.000499211
-0.00456948
0.000406487
-0.000278324
-0.00515123
0.000312417
-0.000176754
-0.00478503
0.000133846
-5.21027e-05
-0.00497572
-6.65492e-05
5.27981e-05
-0.00471524
-0.000150178
0.000333225
-0.00395517
-0.000130772
0.000335912
-0.00417014
-0.000226401
0.000226826
-0.00322124
-0.000364536
0.000301703
-0.00226671
-0.000309102
0.000134473
-0.00196509
-0.00017156
-0.000399352
-0.0014087
-5.32927e-05
-0.000479103
-0.00227443
8.04122e-06
-0.000472772
-0.0048739
3.95691e-05
-0.000298957
-0.00430092
-2.9645e-05
-0.000197791
-0.00399164
-0.000150628
-0.000163887
-0.00365775
-0.000189498
-0.000108146
-0.00351985
-0.000105633
0.000176819
-0.00492374
-2.07317e-05
0.000181384
-0.00504083
-0.000117214
9.26403e-06
-0.0038347
-0.00014489
9.03339e-05
-0.00267724
-0.00011891
0.000240764
-0.00184473
-0.000139674
8.95375e-05
-0.00162597
-9.38232e-05
-0.00014936
0.000493448
-6.31805e-05
-0.000212507
-0.00122455
-6.51777e-05
-0.00021178
-0.00296794
-4.73161e-05
-0.000209923
-0.00349605
-4.1096e-05
-0.000124892
-0.00310051
-6.19979e-05
-0.000119119
-0.0026868
-7.54821e-05
-8.03091e-05
-0.00294316
-6.59224e-05
3.03475e-05
-0.00406678
-6.08628e-05
3.72254e-05
-0.00426957
-6.03095e-05
3.01778e-07
-0.00333943
-5.52535e-05
3.66458e-05
-0.00253564
-5.20564e-05
0.000161079
-0.00174659
-4.15007e-05
0.000114748
-0.00164053
-2.84594e-05
1.42629e-05
-0.0011684
-1.40371e-05
0.000271004
-0.00422851
0.00375866
0.000456533
-0.00456242
0.0033404
0.000520032
-0.00434477
0.00343266
5.70127e-05
-0.00466169
0.00324006
0.000369048
-0.00464888
0.00314947
0.000698063
-0.0044642
0.00309215
-0.000215161
-0.00479855
0.00343582
0.000145767
-0.00477681
0.00302796
0.000360079
-0.00486942
0.00293963
-0.00014454
-0.00515096
0.00303287
-1.10292e-06
-0.00511309
0.00303904
1.61921e-05
-0.00500471
0.00266971
0.0007454
-0.00516497
0.00265383
-0.000530109
-0.00541362
0.00284335
-0.000228828
-0.00516052
0.00276251
0.000359919
-0.00541656
0.00267344
0.000453803
-0.00514461
0.00239807
0.0008021
-0.00528367
0.00214875
-0.000645397
-0.00541228
0.00256068
-0.000433315
-0.00557995
0.00250965
0.000285197
-0.00546502
0.00238012
0.000494125
-0.00564198
0.0022913
0.000508745
-0.0054601
0.00191529
0.00100992
-0.00532385
0.00187167
-0.000633164
-0.00624923
0.00214172
-0.000478522
-0.00596846
0.00221085
-3.60209e-05
-0.00578258
0.00213456
0.000136665
-0.0059539
0.0019908
0.00050034
-0.00593015
0.00213073
0.000817185
-0.00532181
0.00160693
-0.000336414
-0.00590597
0.00216836
-0.000440526
-0.00610431
0.00197517
-0.000112728
-0.00604232
0.00206827
-3.27097e-05
-0.00617466
0.00205365
0.00034518
-0.00575237
0.00184364
0.000781129
-0.00595597
0.00163345
0.00151505
-0.00558776
0.00140322
-0.000634713
-0.00638904
0.00172018
-0.000286141
-0.00625033
0.00167405
-0.000253
-0.00646973
0.00150414
0.000279105
-0.00643947
0.00160625
0.000193901
-0.00581984
0.0015651
0.000840119
-0.00612364
0.00145954
0.00114255
-0.00556358
0.00124795
0.00131393
-0.00543136
0.000872411
-0.000488252
-0.00689947
0.00157957
-0.000506064
-0.00675628
0.00161104
-0.000341023
-0.00670374
0.00135737
0.000283305
-0.00697597
0.00123937
0.000242759
-0.00622893
0.00127182
0.000404437
-0.00621188
0.00119521
0.00101903
-0.00597519
0.000904128
0.00117251
-0.00587543
0.000844383
0.000854515
-0.0047351
0.000489147
-0.000649054
-0.0071719
0.00129328
-0.000474364
-0.00730445
0.00120456
-3.23463e-05
-0.00691925
0.00115949
0.000172421
-0.00672765
0.00109649
0.000177904
-0.00666633
0.000969776
0.000446564
-0.00690706
0.000988709
0.000590765
-0.0062364
0.000753996
0.00106114
-0.00575469
0.000380207
0.000631803
-0.00497465
0.000214767
0.00063425
-0.00383872
7.76614e-05
-0.000863107
-0.00712156
0.000998501
-0.000592694
-0.00738777
0.000919532
-0.000309335
-0.00707
0.000818379
-0.00015072
-0.00758514
0.000700493
7.60589e-05
-0.00719889
0.000552557
0.000351191
-0.00656929
0.000616446
0.000244586
-0.00505999
0.000470034
0.000632602
-0.00523034
-4.523e-05
0.000511692
-0.00392417
-6.53833e-05
0.000477484
-0.00386525
-0.000110329
0.00066068
-0.00380647
8.47143e-05
-0.000880434
-0.00593281
0.000679792
-0.000662808
-0.00656862
0.000627125
-0.000445647
-0.00701668
0.000526508
-0.000235344
-0.00657131
0.000538105
-0.000191213
-0.00581527
0.000566857
0.000158973
-0.00524954
0.000427588
0.000104402
-0.00506233
0.000102736
0.000457686
-0.00490977
-0.000118653
0.000615815
-0.0044094
4.4461e-05
0.000306734
-0.00370356
-0.000104752
0.000523862
-0.00369721
-0.00014516
2.14501e-05
-0.00319178
-2.17307e-05
-0.000615818
-0.00384937
0.00043013
-0.000666152
-0.00465141
0.000417507
-0.000515592
-0.00453598
0.000420613
-0.000307447
-0.00502167
0.000285417
-0.000237517
-0.00455198
0.000119095
-4.09869e-05
-0.0049119
-5.28725e-05
2.35901e-05
-0.00480075
-0.000112776
0.000276752
-0.00411724
-8.80373e-05
0.000281034
-0.00427381
-0.000126756
0.000176896
-0.00327942
-0.00033586
0.000316057
-0.00256341
-0.000293558
0.000151368
-0.0020119
-0.000172897
-0.000175844
-0.00268179
-0.00012349
-0.0004041
-0.0011845
-5.62202e-05
-0.000481962
-0.00207607
1.77965e-05
-0.000481849
-0.00463999
4.42035e-05
-0.0003398
-0.00407991
-5.15696e-05
-0.000270135
-0.00373989
-0.000136152
-0.00016093
-0.00358885
-0.000177724
-5.68857e-05
-0.00364262
-9.01568e-05
0.000130926
-0.0051158
-1.41529e-05
0.000157912
-0.00507571
-0.000106541
2.21997e-06
-0.00380972
-0.000144118
6.32454e-05
-0.00274118
-0.000107547
0.000243852
-0.00191809
-0.000128317
3.18188e-05
-0.0015778
-0.00010492
-0.00012666
-0.00301283
-5.41877e-05
-0.000149606
0.000641381
-6.00135e-05
-0.000214509
-0.00100871
-6.45117e-05
-0.000225988
-0.00276026
-4.68686e-05
-0.000218024
-0.00328431
-4.10234e-05
-0.000137427
-0.00294317
-6.10066e-05
-0.000128051
-0.00254724
-7.3504e-05
-8.67685e-05
-0.00286557
-6.63096e-05
8.16388e-06
-0.00408175
-5.91153e-05
2.03537e-05
-0.00429063
-6.01536e-05
-1.05483e-05
-0.00333573
-5.34591e-05
1.50543e-05
-0.0025544
-5.15493e-05
0.000148224
-0.00190751
-3.93624e-05
0.000109541
-0.00176332
-2.82519e-05
9.75323e-06
-0.00119102
-1.55922e-05
-1.74044e-05
-0.00218043
-7.34322e-06
0.000208618
-0.00415895
0.00389799
0.000704772
-0.00431013
0.00360998
0.000666935
-0.00435851
0.00354719
0.000233034
-0.00462891
0.00332695
0.00033003
-0.00431768
0.00335233
0.000881054
-0.00438756
0.0033534
-3.96769e-05
-0.0046743
0.00362894
5.75896e-05
-0.00449402
0.00317338
0.000410043
-0.00451983
0.00315513
0.000926406
-0.00425881
0.00313166
-0.00011433
-0.00477503
0.0034247
2.75882e-05
-0.00472257
0.00335289
0.000189149
-0.00493256
0.00291814
0.000844755
-0.00471123
0.00285371
-0.000322793
-0.00524773
0.00303436
-0.000141311
-0.00500472
0.00283699
0.000444881
-0.00509144
0.0030408
0.000559748
-0.00521169
0.00261048
0.000925084
-0.00488153
0.00253096
-0.000690141
-0.00528632
0.00281742
-0.000243344
-0.00524123
0.00273408
0.000214256
-0.00526239
0.00267928
0.000358491
-0.00496082
0.00262528
0.000600662
-0.00519783
0.00222031
0.00102749
-0.0052007
0.00211082
-0.000639151
-0.00539662
0.002597
-0.000558406
-0.00542022
0.00248084
6.39135e-05
-0.00545882
0.00240351
0.000182483
-0.00550831
0.00220063
0.000590168
-0.00542181
0.00216318
0.000963641
-0.00538786
0.00183284
0.00118445
-0.00536567
0.00174847
-0.000565273
-0.00599964
0.00220128
-0.00062673
-0.00591699
0.00227645
-0.000214922
-0.00573609
0.00226655
-0.000163102
-0.00568976
0.00200081
0.000489378
-0.00596496
0.00188142
0.000914687
-0.00533756
0.00201292
0.00164478
-0.00530749
0.00155702
-0.000698986
-0.00587673
0.00211208
-0.000515617
-0.00579733
0.00209086
-0.00043711
-0.00589359
0.00201055
1.26891e-05
-0.0059504
0.00211043
0.000309594
-0.00572623
0.00191181
0.000713336
-0.00563913
0.00165358
0.00106594
-0.00560034
0.00172265
0.00132184
-0.00557575
0.00125799
-0.000775919
-0.00618683
0.00176758
-0.000544245
-0.00624642
0.00175445
-0.000151286
-0.00645981
0.00147439
8.65827e-05
-0.00631084
0.00157223
0.000166308
-0.00572776
0.00159063
0.000619742
-0.00603745
0.0012636
0.00116599
-0.00564812
0.00139713
0.00129526
-0.00543361
0.00112745
0.00100633
-0.0046825
0.000755831
-0.000725533
-0.00687736
0.00153873
-0.000634513
-0.00655773
0.00154117
-0.00013025
-0.00649067
0.00149586
0.000235363
-0.00699763
0.00131609
0.000137581
-0.00624565
0.00129641
0.000405187
-0.00616218
0.00126349
0.000792936
-0.00606131
0.00107916
0.00107466
-0.00561463
0.000629808
0.000981091
-0.004804
0.000563998
0.00103401
-0.00422833
0.000184827
-0.000901981
-0.00706594
0.00129908
-0.000681599
-0.00715258
0.00123032
-0.000270824
-0.00689374
0.00114054
8.07558e-05
-0.00691185
0.00111221
0.000173012
-0.00668277
0.00101597
0.000296652
-0.0068736
0.000990853
0.000467485
-0.00633581
0.000865221
0.00101674
-0.00566801
0.00028318
0.000742254
-0.00492911
0.000104107
0.000643574
-0.00381986
2.982e-05
0.000741111
-0.00354947
-6.27668e-05
-0.000891483
-0.00700168
0.000971476
-0.000727682
-0.00725544
0.000931048
-0.000361595
-0.00704474
0.000810222
-0.000189602
-0.00751914
0.000706635
-3.93006e-06
-0.00721977
0.000534095
0.000266978
-0.00667644
0.000551703
0.000166574
-0.00503563
0.000529918
0.000563839
-0.00486745
9.94347e-07
0.000775303
-0.00409899
-2.98927e-05
0.000430784
-0.00398259
-7.20929e-05
0.000610073
-0.00386466
-0.00013835
-0.000153057
-0.00382644
-0.000127022
-0.000844377
-0.00568637
0.000695216
-0.000736204
-0.00645918
0.000640404
-0.00053491
-0.00692772
0.000557489
-0.00033829
-0.00654557
0.00053161
-0.000198241
-0.00588938
0.000572934
0.000128779
-0.00526919
0.000416736
5.06183e-05
-0.00484097
0.000179199
0.000316681
-0.00486067
1.37064e-05
0.000537923
-0.00484882
6.38723e-05
0.000271566
-0.00377915
2.538e-05
0.000604059
-0.00393426
-0.000155706
3.25309e-05
-0.00304163
-0.000176473
-0.000399749
-0.00389075
-7.95069e-05
-0.00068598
-0.00363103
0.000431179