/*--------------------------------*- C++ -*----------------------------------*\
  =========                 |
  \\      /  F ield         | OpenFOAM: The Open Source CFD Toolbox
   \\    /   O peration     | Website:  https://openfoam.org
    \\  /    A nd           | Version:  7
     \\/     M anipulation  |
\*---------------------------------------------------------------------------*/
FoamFile
{
    version     2.0;
    format      ascii;
    class       volVectorField;
    location    "3.5";
    object      U;
}
// * * * * * * * * * * * * * * * * * * * * * * * * * * * * * * * * * * * * * //

dimensions      [0 1 -1 0 0 0 0];

internalField   nonuniform List<vector> 
18780
(
(0.694266 0.913286 -1.77144)
(1.71848 1.1235 -0.588745)
(0.667392 0.867626 -1.79743)
(1.59387 0.563603 -1.99621)
(2.53934 0.680652 1.22581)
(1.79035 1.10686 -0.32435)
(2.15528 1.01077 -1.16458)
(0.721963 0.887908 -1.72709)
(1.56964 0.581285 -1.93547)
(2.05658 0.231246 -1.77343)
(2.94914 0.972454 1.58714)
(2.65662 0.908649 0.996094)
(2.76573 1.34868 1.13129)
(1.76327 1.08454 -0.289445)
(2.15179 0.939145 -1.10639)
(3.14795 0.515439 0.18552)
(0.658417 0.851206 -1.79175)
(1.56481 0.636775 -1.8649)
(2.06282 0.298855 -1.76716)
(2.38896 0.427601 -0.707816)
(3.66461 0.156569 2.13948)
(3.0607 0.582733 1.77712)
(3.14705 0.580289 1.4192)
(2.65834 0.85705 1.20849)
(2.88833 0.858643 1.42909)
(2.5003 1.09176 1.27933)
(1.83656 1.04556 -0.0952046)
(2.15226 0.897206 -1.03318)
(3.14385 0.455795 0.203745)
(2.7328 0.27712 0.115332)
(0.693977 0.850401 -1.7607)
(1.55237 0.665234 -1.79533)
(2.11484 0.196395 -1.80416)
(2.39594 0.43121 -0.684755)
(2.0211 0.0338784 -1.50597)
(3.53768 -0.104269 2.54852)
(3.7057 0.143934 2.13618)
(3.56113 0.120387 1.88291)
(3.24995 0.562468 1.71783)
(3.191 0.295228 1.58767)
(3.09147 0.57089 1.08468)
(2.62287 0.443729 1.56524)
(2.96544 0.973116 1.3646)
(2.52819 1.01181 1.42212)
(2.699 0.126485 1.30622)
(1.82968 1.03468 -0.102272)
(2.14045 0.846704 -0.978053)
(3.13021 0.391966 0.190406)
(2.72531 0.240308 0.256415)
(2.56441 -0.0255321 -0.473971)
(0.661876 0.853838 -1.77298)
(1.55506 0.641202 -1.73098)
(2.11573 0.191739 -1.79756)
(2.40747 0.442261 -0.679525)
(1.96481 0.0374525 -1.48761)
(1.79299 0.201893 -1.75996)
(3.70161 -0.0980481 2.41317)
(3.70707 -0.303634 2.38583)
(3.48659 0.200972 2.14603)
(3.67496 -0.167971 2.17211)
(3.56051 0.169475 1.88598)
(3.5249 -0.0904008 1.37768)
(3.34606 0.497513 1.72816)
(3.15118 0.149904 1.82092)
(3.23766 0.313843 1.08212)
(2.71028 -0.143907 1.32057)
(2.7319 0.575748 1.45505)
(3.02668 0.892364 1.39418)
(2.59997 0.896499 1.46649)
(2.70824 0.121969 1.50548)
(2.848 -0.246848 0.814356)
(1.84637 1.02509 -0.0462758)
(2.10626 0.800245 -0.935752)
(3.13275 0.287598 0.138153)
(2.71236 0.203381 0.291079)
(2.52577 -0.100067 -0.483207)
(2.21609 0.625952 -1.20752)
(0.662606 0.863748 -1.72749)
(1.53373 0.703149 -1.68076)
(2.08073 0.152361 -1.78187)
(2.38197 0.440344 -0.673718)
(1.9577 0.0436969 -1.46265)
(1.73728 0.338753 -1.74286)
(1.65272 -0.180227 -1.72903)
(3.64319 0.163186 2.15354)
(3.57001 -0.458818 2.39389)
(3.69645 0.099639 2.35011)
(3.67823 -0.0833332 2.36214)
(3.55228 -0.145583 2.12267)
(3.44028 -0.157982 2.2088)
(3.77408 -0.483038 2.13611)
(3.58405 -0.00951625 1.90464)
(3.53846 -0.374823 1.5263)
(3.41723 -0.000197386 1.1457)
(3.37419 0.317024 1.92132)
(3.31632 0.160444 1.73355)
(3.34645 0.119829 1.2124)
(2.79626 0.0139142 1.40498)
(2.5819 -0.0810249 1.36426)
(2.7291 0.592569 1.54665)
(3.01707 0.672175 1.54838)
(2.66077 0.802196 1.59243)
(2.71643 0.0621529 1.46276)
(2.78635 -0.263143 1.15621)
(2.99756 -0.361844 -0.124633)
(1.81133 0.993324 -0.0522234)
(2.09937 0.7678 -0.845853)
(3.13981 0.206858 0.155026)
(2.69916 0.173363 0.341366)
(2.47338 -0.1298 -0.526521)
(2.21443 0.608459 -1.21727)
(1.60456 0.521951 -1.96866)
(0.628504 0.850444 -1.7416)
(1.55144 0.704914 -1.63162)
(2.06909 0.108811 -1.75077)
(2.39442 0.442065 -0.641998)
(1.99063 0.0374464 -1.44886)
(1.76701 0.301674 -1.68961)
(1.65454 -0.290453 -1.67821)
(1.79574 -0.717603 -1.52561)
(3.33555 0.137138 2.3871)
(3.49411 -0.185446 2.1996)
(3.53922 0.173395 2.15701)
(3.54881 -0.386439 2.31279)
(3.5773 -0.439406 2.44195)
(3.54643 -0.119797 2.22341)
(3.6151 -0.402603 2.38625)
(3.63134 -0.421823 2.07566)
(3.42658 -0.264229 2.22648)
(3.29897 -0.117529 2.05328)
(3.80996 -0.237314 2.20368)
(3.54393 -0.359259 2.06615)
(3.41283 -0.642808 1.76987)
(3.45467 -0.308918 1.11441)
(3.09007 -0.32832 1.17052)
(3.50629 0.140648 1.91043)
(3.34121 -0.01193 1.75845)
(3.38875 -0.0449664 1.34243)
(2.89474 0.135713 1.39834)
(2.5186 -0.157836 1.7233)
(2.70969 -0.122175 1.09516)
(2.6989 0.337233 1.62693)
(3.00225 0.466312 1.72575)
(2.66066 0.761815 1.68753)
(2.70974 0.0424587 1.47986)
(2.80376 -0.236731 1.12175)
(2.88492 -0.219025 0.0738836)
(2.11345 -0.022309 -1.55311)
(1.8375 0.90093 0.196816)
(2.10912 0.757365 -0.746025)
(3.14282 0.229919 0.18949)
(2.68418 0.14815 0.38363)
(2.42356 -0.161578 -0.611582)
(2.19534 0.534274 -1.36814)
(1.61663 0.49624 -1.91173)
(1.9897 -0.64726 -1.1391)
(0.639371 0.839398 -1.6638)
(1.53847 0.719827 -1.60971)
(2.11369 0.187907 -1.65745)
(2.43814 0.427194 -0.678644)
(1.99855 0.225625 -1.37069)
(1.71957 0.351067 -1.68505)
(1.61946 -0.0500967 -1.67363)
(1.80106 -0.76066 -1.49623)
(1.94269 -0.608485 -1.37463)
(2.88657 0.22938 2.3514)
(3.1021 -0.0170613 2.32837)
(3.26631 0.0236991 2.41865)
(3.35825 0.298061 2.10591)
(3.48642 -0.191111 2.17897)
(3.37894 0.145782 2.37469)
(3.45411 0.116752 2.09061)
(3.59726 -0.568296 2.27548)
(3.47089 -0.543282 2.39448)
(3.59289 -0.332236 2.27992)
(3.56749 -0.398519 1.84221)
(3.61464 -0.744045 2.42078)
(3.65687 -0.55678 2.00933)
(3.36806 -0.398866 2.2305)
(3.26512 -0.425758 2.03936)
(3.23255 -1.06335 1.16794)
(3.77241 -0.525269 2.19985)
(3.62285 -0.40401 2.03084)
(3.62815 -0.65036 1.38267)
(3.49261 -0.534299 1.3722)
(3.16422 -0.419099 1.26611)
(2.64623 -0.185936 1.4477)
(3.50351 0.0354721 1.90403)
(3.31101 -0.218034 1.83534)
(3.444 -0.231513 1.44561)
(2.96603 -0.292719 1.37757)
(2.54312 -0.325479 1.91524)
(2.64009 -0.132375 1.20063)
(3.21949 -0.80494 0.0590793)
(2.6806 0.254296 1.63896)
(3.0926 0.404392 1.7317)
(2.73392 0.677149 1.6255)
(2.66755 -0.00641493 1.49258)
(2.43747 -0.546212 1.64814)
(2.75211 -0.373356 0.209607)
(2.16656 -0.24739 -1.50733)
(1.54214 0.0299143 -0.820338)
(1.76717 0.870243 -0.0401246)
(2.09409 0.78002 -0.662508)
(3.15219 0.19368 0.222255)
(2.65632 0.0681021 0.524687)
(2.40294 -0.246449 -0.681401)
(2.18944 0.518099 -1.46429)
(1.64037 0.43777 -1.81631)
(1.9905 -0.800286 -1.00706)
(2.29494 -0.890591 -0.90038)
(0.597218 0.836409 -1.62105)
(1.54225 0.733916 -1.57278)
(2.06586 0.129264 -1.65364)
(2.43728 0.427869 -0.668044)
(1.8726 -0.252083 -1.44163)
(1.68242 0.208804 -1.69198)
(1.61168 -0.124337 -1.64411)
(1.79305 -0.810174 -1.40146)
(1.95672 -0.626594 -1.3571)
(1.61831 -0.488333 -1.23778)
(2.63965 0.0189092 2.55577)
(2.81765 0.0639467 2.41355)
(2.73396 0.202531 2.44127)
(3.02938 0.0147041 2.3679)
(3.08075 0.212127 2.1973)
(3.26932 0.0213767 2.4587)
(3.37076 -0.0226849 2.18473)
(3.28171 -0.113163 2.17301)
(3.57843 -0.248925 2.20674)
(3.31261 -0.0594355 2.42943)
(3.35765 -1.38664 1.72661)
(3.23809 -0.260174 2.0265)
(3.65789 -0.599 2.30035)
(3.43094 -0.493717 2.37257)
(3.58379 -0.417361 2.26396)
(3.54524 -0.485366 1.88011)
(3.3208 -0.575278 1.80545)
(3.60261 -0.737298 2.4547)
(3.66419 -0.677283 1.94814)
(3.37179 -0.512984 2.24306)
(3.16598 -0.969233 1.99744)
(3.15241 -0.912323 1.52156)
(2.9768 -0.564035 1.77398)
(3.81991 -0.919343 2.28395)
(3.55492 -0.675056 2.08851)
(3.32354 -0.64749 2.1589)
(3.63936 -0.578962 1.26872)
(3.258 -1.18418 1.06176)
(2.65745 -0.356312 1.67537)
(2.92632 -0.629232 0.815692)
(3.49413 -0.0977287 1.89478)
(3.45198 -0.377172 1.87812)
(3.56108 -0.379666 1.39588)
(2.95803 -0.738294 1.58088)
(2.68317 -0.445474 1.76661)
(2.5428 -0.273239 1.53499)
(3.1688 -0.91296 0.0791849)
(2.08352 -0.333049 0.0346223)
(2.64972 0.0543945 1.72304)
(3.12369 0.434904 1.69496)
(2.76832 0.65752 1.66986)
(2.77644 -0.400087 1.26209)
(2.71952 -0.299492 1.08663)
(2.66295 -0.466578 0.317517)
(2.19096 -0.50884 -1.31453)
(1.59583 -0.245504 -0.944438)
(1.86534 -0.874581 -0.944612)
(1.75262 0.769434 -0.0806043)
(2.07661 0.741384 -0.641629)
(3.1418 0.174271 0.315036)
(2.63181 0.0259473 0.569849)
(2.29968 -0.225956 -0.87067)
(2.17577 0.482182 -1.42556)
(1.70623 0.334434 -1.70465)
(2.00287 -0.983755 -0.76894)
(2.30113 -0.993482 -0.727023)
(1.8534 -0.11416 -1.24668)
(0.624017 0.838333 -1.51987)
(1.54694 0.742188 -1.53661)
(2.0723 0.117572 -1.59664)
(2.43119 0.403066 -0.643594)
(1.88688 0.0400958 -1.34062)
(1.67624 0.19753 -1.65982)
(1.59017 -0.166672 -1.6371)
(1.799 -0.772922 -1.32805)
(1.96114 -0.646243 -1.34895)
(1.62454 -0.498009 -1.23349)
(1.17659 -0.582346 -1.24674)
(2.58361 0.266336 2.39582)
(2.67856 0.155343 2.47448)
(2.63196 0.146235 2.505)
(2.84382 0.0343882 2.3902)
(2.77833 0.0573793 2.38142)
(2.76616 0.178903 2.3436)
(2.99383 -0.170607 2.40835)
(3.06404 -0.159508 2.19182)
(2.92119 -0.000683199 2.2346)
(3.25605 -0.000596564 2.47516)
(3.35434 -0.277807 2.25019)
(3.11185 -0.412661 2.17678)
(3.10119 -0.126859 2.29204)
(2.93779 -1.35551 2.62675)
(3.23684 -0.290028 2.51912)
(3.32756 -0.437949 1.88949)
(3.2628 -0.508881 2.04018)
(3.13747 -0.597597 2.09811)
(3.5218 -0.729813 2.32)
(3.43379 -0.605362 2.31895)
(3.50856 -0.570299 2.26926)
(3.28743 -1.12564 1.96862)
(3.27115 -0.581718 1.8011)
(3.01562 -0.668533 1.98496)
(3.39149 -1.08819 2.52213)
(3.59021 -0.915217 1.95937)
(3.29468 -0.666523 2.26523)
(3.20745 -0.726687 1.97199)
(3.20906 -0.78894 1.54882)
(3.17371 -0.864545 1.65696)
(2.9637 -1.09566 1.20056)
(3.81401 -0.926628 2.40605)
(3.49166 -1.17195 2.08308)
(3.52888 -0.829387 1.80205)
(3.54136 -0.871849 1.47688)
(3.35783 -1.13164 1.47591)
(2.70985 -0.686915 1.47171)
(2.67478 -0.608718 1.03416)
(2.73978 -1.16412 -0.797034)
(3.58636 -0.578028 1.8836)
(3.56028 -0.342707 1.80357)
(3.54538 -0.481001 1.50758)
(3.10784 -0.625492 1.58753)
(2.72107 -0.626943 1.75437)
(2.52783 -0.376088 1.69457)
(2.93984 -1.07055 0.332777)
(2.19121 -0.825254 -0.427397)
(1.67409 -1.24125 -0.402226)
(2.62012 0.0245165 1.7721)
(3.09969 0.297844 1.74749)
(2.72597 0.561568 1.77662)
(2.71931 -0.257983 1.53544)
(2.47956 -0.672465 1.41277)
(2.58827 -0.544223 0.347758)
(2.18064 -0.731355 -1.03771)
(1.64268 -0.53291 -1.08208)
(1.8645 -0.977237 -0.898142)
(1.45162 -0.548854 -1.52692)
(1.68821 0.73056 -0.189026)
(2.08538 0.721765 -0.592242)
(3.12831 0.12269 0.592489)
(2.61367 0.0141897 0.498294)
(2.28146 -0.176362 -0.648458)
(2.13787 0.354017 -1.35105)
(1.76604 0.286326 -1.65179)
(2.00017 -1.09608 -0.601838)
(2.29248 -1.08958 -0.557772)
(1.92115 -0.076708 -1.15045)
(1.25496 -0.596337 -0.974349)
(0.592315 0.861018 -1.49387)
(1.55275 0.75856 -1.49005)
(2.09104 0.166857 -1.53235)
(2.43332 0.389048 -0.60478)
(1.88548 -0.0679154 -1.28413)
(1.649 0.144524 -1.64221)
(1.58469 -0.0856735 -1.62359)
(1.80673 -0.767872 -1.29044)
(1.9627 -0.691262 -1.31953)
(1.60917 -0.500858 -1.21888)
(1.16773 -0.66992 -1.21607)
(0.697581 -1.3237 -1.01364)
(2.32179 0.223088 2.27229)
(2.47027 0.162433 2.3538)
(2.53975 -0.0218133 2.44609)
(2.51363 0.0187386 2.35968)
(2.68049 -0.0128958 2.45788)
(2.62543 0.0946435 2.47632)
(2.74053 -0.0918521 2.27175)
(2.83606 -0.0199776 2.40195)
(2.7899 -0.0695154 2.37491)
(2.58878 -0.20711 2.50543)
(2.76519 -0.106883 2.16051)
(2.99414 -0.16119 2.38414)
(3.08858 -0.143211 2.15086)
(2.9087 -0.0645707 2.28987)
(2.99971 -0.0330823 2.06639)
(3.08508 -0.0596096 2.5264)
(3.27885 -0.290677 2.31617)
(3.04272 -0.320607 2.25217)
(3.05376 -0.309391 2.37041)
(2.90686 -0.207173 2.37774)
(3.2593 -0.210718 2.21409)
(2.98457 -0.751044 2.5736)
(3.37324 -0.710198 1.84257)
(3.19138 -0.640754 2.11155)
(3.03434 -0.498775 2.15743)
(3.14072 -0.506545 1.91693)
(3.41269 -0.890394 2.38898)
(3.4073 -0.648842 2.30462)
(3.45101 -0.583917 2.32058)
(3.32027 -0.841496 1.85953)
(3.20554 -0.847604 1.79895)
(2.95602 -1.12954 1.94477)
(2.84749 -1.06435 1.62753)
(3.45811 -0.978058 2.4645)
(3.51016 -0.996342 2.04487)
(3.22914 -0.693857 2.27134)
(3.13183 -0.987121 1.99125)
(2.92416 -1.41313 1.72795)
(3.29233 -1.12111 1.62645)
(2.89249 -1.1961 1.36061)
(2.89537 -1.14795 1.02914)
(3.7098 -1.02359 2.46407)
(3.76646 -0.703306 1.99862)
(3.49208 -0.656544 2.08501)
(3.37199 -1.38095 1.70853)
(3.42302 -1.08886 1.55688)
(2.60854 -1.59318 1.17253)
(2.47812 -0.6538 1.14814)
(2.6584 -1.43497 -1.07154)
(1.85419 -0.419252 0.238721)
(3.4718 -0.359094 2.28859)
(3.51078 -0.509569 1.81097)
(3.47556 -0.712324 1.56185)
(3.26758 -0.568721 1.46498)
(2.70196 -0.658623 1.77581)
(2.39691 -0.566068 1.79945)
(2.6854 -0.995189 0.321794)
(2.19461 -1.33985 -0.788277)
(1.66634 -1.34514 -0.459786)
(1.76731 -0.774718 0.194354)
(2.60465 -0.086682 1.78561)
(3.09417 0.143454 1.82041)
(2.7256 0.0827114 1.87237)
(2.65337 -0.461032 1.64474)
(2.44342 -0.6224 1.16258)
(2.47428 -0.611835 0.297256)
(2.17106 -0.76253 -0.856908)
(1.68051 -0.872097 -1.01856)
(1.87221 -0.963204 -0.881804)
(1.54134 -0.728024 -1.36519)
(0.9531 -0.2687 -1.55973)
(1.68082 0.670055 -0.224759)
(2.09502 0.724431 -0.505509)
(3.15038 0.140628 0.66385)
(2.63878 0.104028 -0.236476)
(2.20055 -0.251022 -0.769087)
(2.12008 0.225751 -1.3023)
(1.84994 0.250328 -1.59641)
(2.00629 -1.40599 -0.16728)
(2.29186 -1.11536 -0.462807)
(1.87371 -0.0666244 -1.2052)
(1.25465 -0.424475 -0.910472)
(0.898922 -1.15196 -1.12827)
(0.624338 0.877931 -1.39871)
(1.55088 0.749698 -1.4575)
(2.08977 0.182988 -1.48985)
(2.44168 0.378938 -0.6002)
(1.90757 0.0704308 -1.20868)
(1.6433 0.182945 -1.57253)
(1.57429 -0.0792978 -1.62002)
(1.8179 -0.81849 -1.23394)
(1.96174 -0.743571 -1.34456)
(1.59077 -0.482588 -1.22635)
(1.15823 -0.701244 -1.20653)
(0.700016 -1.34142 -1.02396)
(0.7546 -1.07842 -0.739318)
(2.03252 0.184039 2.3561)
(2.28869 0.223034 2.29093)
(2.2574 0.0406375 2.29839)
(2.41155 0.0914923 2.40957)
(2.33095 0.0592637 2.4265)
(2.46363 -0.0332482 2.47477)
(2.43776 0.0167783 2.40478)
(2.48454 -0.0272843 2.34601)
(2.68006 -0.0727171 2.45145)
(2.55138 -0.12867 2.48493)
(2.5922 -0.10912 2.35324)
(2.50146 -0.112908 2.37984)
(2.77307 -0.115177 2.41675)
(2.78123 -0.127457 2.39348)
(2.61707 -0.216635 2.40202)
(2.80404 -0.0274588 2.09163)
(2.77095 -0.150454 2.05319)
(2.94346 -0.364897 2.36704)
(2.99858 -0.31951 2.31305)
(2.74224 -0.430754 2.42056)
(2.96319 -0.261462 2.099)
(2.79702 -0.52841 2.01589)
(3.05417 0.0507615 2.54163)
(3.19656 -0.445611 2.3025)
(3.08402 -0.455507 2.25622)
(3.0339 -0.352818 2.37194)
(2.80029 -0.45945 2.38356)
(2.99014 -0.503094 2.03526)
(3.07076 -0.857305 2.40057)
(3.02079 -0.586938 2.37255)
(2.98806 -0.950743 2.30016)
(3.1306 -0.764588 2.15252)
(2.97696 -0.4633 2.15534)
(3.07266 -0.801508 1.89319)
(2.79174 -1.15264 1.78622)
(3.37728 -0.998804 2.44033)
(3.36431 -0.908138 2.32028)
(3.38284 -0.672912 2.36021)
(3.2529 -1.12626 1.83062)
(2.92019 -1.22151 1.88293)
(2.97644 -1.1532 2.01924)
(2.86764 -1.1732 1.50549)
(3.00269 -1.42171 0.366254)
(3.63063 -0.878932 2.47015)
(3.30207 -1.49619 2.28978)
(3.32341 -0.764533 2.27366)
(2.98841 -1.2222 1.99205)
(3.11242 -1.19929 1.68376)
(3.18585 -1.30525 1.66103)
(2.89945 -1.1982 1.66907)
(2.89133 -1.32475 0.870999)
(2.3901 -0.358925 0.8308)
(3.68416 -1.06318 2.49895)
(3.77246 -0.914319 2.01331)
(3.35821 -1.14912 2.03938)
(3.60569 -1.07771 1.65452)
(3.31559 -1.31204 1.5046)
(2.7821 -1.64337 1.0657)
(2.46467 -0.683567 1.4386)
(2.63883 -1.38717 -0.646218)
(1.85854 -0.728601 -0.171049)
(1.83046 -0.467576 0.586097)
(3.54601 -0.590238 2.10679)
(3.40323 -0.849999 2.00675)
(3.41895 -1.13234 1.71468)
(3.13497 -0.909349 1.54758)
(2.7856 -0.729441 1.62671)
(2.56374 -0.558626 1.60706)
(2.51826 -0.923383 0.282766)
(2.14367 -1.51698 -0.910146)
(1.67197 -1.32018 -0.409841)
(1.68299 -0.776028 0.307265)
(1.75146 -0.932032 -0.641363)
(2.59837 -0.0721172 1.78973)
(3.09875 0.114731 1.84227)
(2.80636 0.219831 1.74241)
(2.69492 -0.427164 1.68688)
(2.3839 -0.598812 1.07859)
(2.39858 -0.652868 0.1228)
(2.18826 -0.773332 -0.740297)
(1.69717 -1.10084 -0.795186)
(1.86288 -1.11713 -0.634215)
(1.54563 -0.668452 -1.31549)
(1.01915 -0.335968 -1.80553)
(0.96084 -0.411129 -0.822073)
(1.60352 0.643516 -0.348022)
(2.08843 0.695214 -0.464251)
(3.17955 0.190308 0.559234)
(2.57909 -0.0143226 0.322908)
(2.1725 -0.311643 -0.856528)
(2.07593 0.0838797 -1.34944)
(1.89802 0.152289 -1.47389)
(2.06802 -1.3793 -0.0275753)
(2.26713 -1.16465 -0.401272)
(1.90705 -0.082958 -1.18954)
(1.26948 -0.28962 -0.862214)
(0.846015 -1.25102 -0.976095)
(0.804196 -0.577628 -0.992504)
(0.608586 0.919195 -1.34984)
(1.55754 0.76334 -1.40144)
(2.06747 0.151417 -1.48813)
(2.43037 0.376422 -0.582102)
(1.85833 -0.000151528 -1.21885)
(1.5844 0.15263 -1.56961)
(1.55472 -0.143267 -1.63076)
(1.81725 -0.790496 -1.23429)
(1.95832 -0.762894 -1.36451)
(1.59286 -0.602216 -1.17606)
(1.1316 -0.745447 -1.18985)
(0.697549 -1.34656 -1.02859)
(0.750103 -1.08232 -0.739483)
(0.582084 -0.321482 -0.431797)
(1.98927 0.181199 2.40701)
(2.11548 0.151914 2.29962)
(2.07529 0.107841 2.34112)
(2.23293 0.128186 2.40581)
(2.24012 -0.0302549 2.32114)
(2.15492 -0.141717 2.22566)
(2.34622 -0.00681973 2.45636)
(2.29846 0.0156291 2.46069)
(2.35647 0.0774523 2.27948)
(2.47254 -0.0676598 2.42314)
(2.50148 -0.0647531 2.29632)
(2.51414 0.108852 2.29886)
(2.47154 -0.194014 2.33069)
(2.67592 -0.0546485 2.46176)
(2.51244 -0.0793378 2.45417)
(2.63575 -0.200492 2.24511)
(2.47531 -0.182584 2.40045)
(2.56392 -0.295031 2.09239)
(2.70344 -0.210398 2.47335)
(2.75695 -0.123633 2.37699)
(2.6469 -0.304424 2.36483)
(2.68768 -0.506225 2.17086)
(2.68184 -0.347779 2.02323)
(2.60202 -0.55021 1.96617)
(3.09097 -0.480897 2.21631)
(2.92137 -0.384146 2.39277)
(2.78774 -0.415288 2.31501)
(2.90534 -0.473203 2.12257)
(2.8055 -0.538312 2.00145)
(2.76846 -0.649202 2.02573)
(2.81669 -0.918056 2.61921)
(3.02017 -0.644631 2.39903)
(2.85928 -0.693449 2.4524)
(2.99859 -0.516711 2.37568)
(2.77419 -0.509988 2.39705)
(2.89116 -0.614798 1.97939)
(2.69981 -1.02242 1.88905)
(3.16419 -0.732037 2.37003)
(3.01796 -0.776574 2.31335)
(3.16507 -0.779228 2.09568)
(2.98025 -1.2838 2.0324)
(2.82907 -0.613314 2.2299)
(2.85566 -1.28464 1.84961)
(2.78174 -1.20831 1.83992)
(2.68405 -1.4208 1.30835)
(3.1122 -1.36234 2.59882)
(3.34632 -0.867522 2.34488)
(3.35995 -0.784118 2.39331)
(3.22616 -1.20953 1.81087)
(2.89104 -1.10992 1.93436)
(2.95928 -0.952109 1.99516)
(2.78923 -1.23481 1.67968)
(2.68442 -1.31908 1.58415)
(2.25365 -1.07301 1.05236)
(3.58717 -1.08303 2.519)
(3.51478 -1.16093 2.37011)
(3.28483 -0.979694 2.25047)
(3.02178 -1.24723 2.07469)
(3.1332 -1.037 1.94104)
(3.15119 -1.32914 1.65935)
(2.8783 -1.22777 1.91653)
(2.58498 -1.77441 1.00827)
(2.37529 -0.565147 0.676529)
(1.88948 -0.766353 0.244183)
(3.78685 -0.844444 2.50659)
(3.6824 -1.07717 2.21012)
(3.34741 -1.1571 2.0605)
(3.63079 -1.15486 1.64922)
(3.3203 -1.26612 1.54954)
(2.83569 -1.64337 1.054)
(2.41097 -0.731258 1.72646)
(2.46313 -1.40753 0.17035)
(1.78453 -0.972047 -0.0694069)
(1.79805 -0.636294 0.0288429)
(1.68489 -1.3185 0.589699)
(3.51371 -0.392792 2.21415)
(3.48963 -0.794325 1.99407)
(3.52874 -1.00191 1.75228)
(3.11506 -0.974712 1.53483)
(2.85019 -0.684822 1.65737)
(2.38856 -0.874572 1.87408)
(2.36619 -0.918713 0.53002)
(2.11637 -1.48808 -0.433361)
(1.84048 -1.25328 -0.0950213)
(1.73097 -0.795904 -0.219489)
(1.6854 -1.31584 -0.338517)
(1.54675 -0.209556 -0.495102)
(2.51686 -0.187178 1.79987)
(3.09094 0.0434599 1.86678)
(2.82124 0.0537346 1.72941)
(2.69414 -0.562445 1.72651)
(2.39212 -0.44359 0.960431)
(2.32862 -0.827953 0.00618434)
(2.15288 -0.897196 -0.67426)
(1.70512 -1.23281 -0.498104)
(1.84723 -1.24563 -0.305601)
(1.43361 -0.580003 -1.27554)
(1.11188 -0.599308 -1.75863)
(0.947765 -0.456701 -0.710821)
(1.3748 -0.00162913 -0.772187)
(1.56523 0.59474 -0.447158)
(2.0889 0.673694 -0.357857)
(3.18146 0.140344 0.584908)
(2.57044 0.0313794 0.0249931)
(2.14519 -0.217194 -0.768593)
(2.00987 0.0218065 -1.35229)
(1.92791 -0.0220434 -1.28887)
(2.15436 -1.33264 -0.0214931)
(2.22841 -1.24739 -0.266562)
(1.92513 -0.101935 -1.21593)
(1.32875 -0.0837583 -0.841879)
(0.802446 -1.25518 -0.809683)
(0.769046 -0.56538 -0.991127)
(1.50044 0.280745 -0.395359)
(0.647167 0.948742 -1.26527)
(1.54825 0.756281 -1.37868)
(2.08529 0.196151 -1.43844)
(2.42705 0.34487 -0.558589)
(1.8307 0.0121318 -1.21285)
(1.61276 0.130622 -1.49704)
(1.55057 -0.11229 -1.62764)
(1.83505 -0.804164 -1.19383)
(1.96246 -0.757373 -1.36969)
(1.56062 -0.62277 -1.17861)
(1.14716 -0.773483 -1.18276)
(0.709055 -1.36469 -0.987431)
(0.752201 -1.09853 -0.723975)
(0.576737 -0.33881 -0.438987)
(1.06128 0.162311 -0.21593)
(1.99245 0.173283 2.30405)
(2.11098 -0.26811 2.29758)
(2.09446 -0.0207494 2.31146)
(2.20556 -0.0548535 2.23956)
(2.06745 0.0133833 2.26634)
(2.08678 0.0385838 2.2914)
(2.25803 0.0821664 2.43537)
(2.17412 -0.0698796 2.33356)
(2.17697 -0.103888 2.28111)
(2.08107 -0.245043 2.26474)
(2.29013 -0.225867 2.48009)
(2.26861 -0.0889311 2.46464)
(2.3685 0.0223725 2.31523)
(2.25262 -0.314476 2.30587)
(2.54042 -0.146182 2.39008)
(2.46271 -0.126368 2.3039)
(2.35084 -0.436116 2.40346)
(2.526 -0.30557 2.25373)
(2.34696 -0.348669 2.23773)
(2.66715 -0.0894238 2.48403)
(2.53035 -0.125362 2.43807)
(2.5211 -0.581106 2.25295)
(2.41064 -0.317515 2.33022)
(2.54966 -0.248195 2.13198)
(2.61488 -0.470234 1.90803)
(2.67741 -0.276806 2.50909)
(2.70408 -0.175517 2.40225)
(2.6206 -0.42234 2.35101)
(2.66988 -0.303442 2.14194)
(2.56904 -0.411315 2.14316)
(2.58864 -0.589424 1.95257)
(2.65797 -0.724815 1.88192)
(2.9513 -0.618673 2.32677)
(2.91833 -0.39129 2.36346)
(2.84421 -0.433343 2.25854)
(2.89031 -0.391618 2.13093)
(2.87475 -0.604833 2.00792)
(2.36822 -0.807533 2.38466)
(2.52536 -1.56707 1.7356)
(2.86079 -0.603315 2.53435)
(2.7865 -0.800072 2.54991)
(2.91229 -0.529177 2.35941)
(2.85412 -0.606587 2.4768)
(2.7114 -0.661172 2.45887)
(2.73981 -0.849206 1.96069)
(2.73748 -1.13082 1.81725)
(2.89027 -1.05071 1.69162)
(3.11981 -0.731742 2.40615)
(3.05069 -0.802611 2.32452)
(3.13388 -0.906422 2.20824)
(2.79704 -1.3193 1.99592)
(2.67054 -0.744741 2.34226)
(2.80842 -0.885466 1.96979)
(2.38743 -1.41902 2.00024)
(2.64614 -1.33629 1.5252)
(2.34196 -0.828768 1.31229)
(3.29627 -1.13997 2.46011)
(3.16792 -0.952462 2.48121)
(2.71663 -1.6409 2.70364)
(3.06502 -1.48216 1.98488)
(2.80843 -1.22305 2.09771)
(2.76593 -1.18163 2.05903)
(2.74011 -1.24048 1.74699)
(2.89011 -1.35777 1.09288)
(2.27154 -1.17245 1.07386)
(2.02095 -0.862631 0.637581)
(3.55028 -1.0403 2.55924)
(3.49183 -1.18256 2.43881)
(3.16402 -1.17455 2.21235)
(3.08145 -1.4021 2.16479)
(2.94839 -1.37147 2.0574)
(3.13567 -1.3338 1.69364)
(2.83183 -1.26688 2.03649)
(2.73381 -1.40503 0.873742)
(2.35015 -1.01481 0.382389)
(1.79327 -0.897647 0.123689)
(1.73041 -0.781659 0.0833109)
(3.78317 -0.999553 2.45054)
(3.68302 -1.10279 2.2245)
(3.36279 -1.30044 2.14677)
(3.41998 -1.50331 1.72575)
(3.29839 -1.30974 1.59345)
(2.76633 -1.70996 0.980189)
(2.19178 -0.848237 1.85932)
(2.18704 -1.33133 0.408788)
(1.6923 -1.60552 -0.379947)
(1.85808 -0.722607 -0.210112)
(1.90869 -0.769995 -0.530825)
(1.88386 0.23439 -0.180886)
(3.33124 -0.769748 2.30948)
(3.46918 -0.888081 1.97808)
(3.44833 -1.10433 1.80606)
(3.20025 -1.11579 1.49956)
(2.81176 -0.840621 1.65287)
(2.4073 -1.09465 1.75639)
(2.22781 -0.885615 0.743993)
(2.10457 -1.33943 0.0596614)
(2.05517 -1.14729 -0.225321)
(1.71002 -0.84261 0.347655)
(1.78138 -1.29828 -0.40286)
(1.50038 -0.34013 -0.530265)
(1.91232 1.12981 0.363513)
(2.48383 -0.213861 1.78352)
(3.00377 -0.113922 1.96032)
(2.80592 -0.161906 1.77727)
(2.59945 -0.499286 1.87695)
(2.46592 -0.209969 0.706063)
(2.21433 -0.998787 0.0107904)
(1.9983 -1.43202 -0.436245)
(1.73917 -1.26917 -0.252944)
(1.81085 -1.27367 -0.246512)
(1.53349 -0.783015 -0.763715)
(1.20948 -0.840982 -1.54914)
(0.957153 -0.615969 -0.656591)
(1.24275 0.375584 -0.759726)
(1.90089 0.951132 -0.293455)
(1.48684 0.561413 -0.594789)
(2.07491 0.62145 -0.30701)
(3.15706 0.108018 0.624684)
(2.53549 -0.00438054 0.0662588)
(2.05829 -0.155748 -0.783466)
(2.02589 -0.0525763 -1.24204)
(1.95538 -0.241633 -1.13164)
(2.24903 -1.2602 -0.00113037)
(2.19986 -1.28067 -0.175439)
(1.88849 -0.147295 -1.20699)
(1.42843 0.153297 -0.814931)
(0.780983 -1.1558 -0.674403)
(0.707239 -0.592393 -1.01091)
(1.46235 0.276877 -0.411429)
(1.68162 0.23091 -0.46557)
(0.659822 0.969433 -1.25337)
(1.5535 0.767039 -1.3428)
(2.07304 0.181735 -1.43624)
(2.40002 0.359527 -0.595273)
(1.79056 -0.0159659 -1.23708)
(1.58905 0.132196 -1.47189)
(1.55115 -0.131187 -1.62075)
(1.81751 -0.821641 -1.22865)
(1.97247 -0.771312 -1.34574)
(1.5135 -0.659397 -1.18219)
(1.06811 -0.932287 -1.13106)
(0.700059 -1.34928 -0.976845)
(0.730326 -1.1359 -0.681012)
(0.559184 -0.355218 -0.452838)
(1.05323 0.168166 -0.214222)
(0.883725 0.272081 -0.10868)
(1.9188 0.21663 2.06363)
(1.91377 -0.0454378 2.33458)
(1.95411 0.003546 2.31605)
(2.02136 -0.0706973 2.36387)
(2.07604 0.0261316 2.26709)
(2.10557 -0.321449 2.17097)
(2.24313 -0.189501 2.22569)
(2.05878 0.145239 2.31048)
(2.11655 0.0570485 2.23216)
(2.12328 -0.10985 2.23192)
(2.23381 -0.105703 2.4261)
(2.14811 -0.0903445 2.38193)
(2.16578 -0.12712 2.2852)
(2.10026 -0.284507 2.29144)
(2.0786 -0.233028 2.27039)
(2.29087 -0.266343 2.44635)
(2.26937 -0.176391 2.45969)
(2.27395 -0.237809 2.3746)
(2.26518 -0.250522 2.2972)
(2.25448 -0.399142 2.21695)
(2.56797 -0.253522 2.4097)
(2.35319 -0.387381 2.35896)
(2.43404 -0.195668 2.20011)
(2.44377 -0.280729 2.35219)
(2.36434 -0.43076 2.25284)
(2.42035 -0.480051 2.07423)
(2.54024 -0.347108 2.55301)
(2.55078 -0.241513 2.39761)
(2.45769 -0.50294 2.25909)
(2.35078 -0.421944 2.33795)
(2.46135 -0.535087 2.13116)
(2.44935 -0.665029 2.014)
(2.56516 -0.541757 2.0253)
(2.60663 -0.534702 2.51669)
(2.66056 -0.275045 2.46118)
(2.5751 -0.50123 2.28517)
(2.66 -0.295524 2.21686)
(2.61933 -0.721637 1.99335)
(2.60116 -0.768929 1.90822)
(2.65811 -0.950954 1.78754)
(2.79661 -0.931869 1.701)
(2.91127 -0.682957 2.26871)
(2.9323 -0.3897 2.36482)
(2.67192 -0.391406 2.46139)
(2.47188 -0.655417 2.54331)
(2.79585 -0.759947 2.04073)
(2.5506 -0.860219 1.97577)
(2.55428 -0.837162 1.90183)
(2.77474 -1.1768 1.80039)
(2.92018 -0.717523 2.49406)
(2.77232 -0.659826 2.56389)
(2.67254 -0.960811 2.48198)
(2.88766 -0.53592 2.42383)
(2.64969 -0.804391 2.48454)
(2.4341 -1.19931 2.1063)
(2.43152 -1.29994 1.91808)
(2.40394 -1.2476 2.20073)
(2.33999 -1.04105 1.59674)
(3.01636 -0.852493 2.54542)
(2.99343 -0.738468 2.44135)
(2.89289 -0.596217 2.54792)
(2.83379 -1.31388 1.88046)
(2.71239 -0.76382 2.26748)
(2.76015 -1.01437 1.95381)
(2.6523 -1.37071 1.4444)
(2.36186 -1.50345 1.79366)
(2.143 -1.07819 1.54698)
(1.87859 -1.42559 0.870018)
(3.48691 -0.995911 2.31126)
(3.26689 -0.841369 2.49325)
(2.94891 -1.23538 2.40667)
(3.07911 -1.58095 2.12199)
(2.80386 -1.23866 2.172)
(2.8676 -1.2229 1.95634)
(2.73955 -1.25592 1.91327)
(2.19419 -1.98062 1.58737)
(2.25093 -1.31893 0.908414)
(2.01737 -0.83766 0.689905)
(1.97723 -1.06371 -0.0316191)
(3.48364 -1.27428 2.56701)
(3.43567 -1.16564 2.46135)
(3.21186 -1.3859 2.26544)
(3.12277 -1.33479 2.11829)
(2.94483 -1.50661 2.04631)
(3.04993 -1.38919 1.75895)
(2.89241 -1.23638 2.01253)
(2.27556 -1.47702 1.20715)
(2.17761 -1.42215 0.150347)
(1.77366 -0.927788 0.0227466)
(1.72483 -1.16498 -0.00570506)
(2.03981 0.40089 -0.366133)
(3.62865 -1.06953 2.49935)
(3.6871 -1.15593 2.15795)
(3.36196 -1.25519 2.19069)
(3.44187 -1.47882 1.6227)
(3.22289 -1.53226 1.56883)
(2.84521 -1.80091 0.866178)
(2.34409 -1.01505 1.62801)
(2.00728 -1.20276 0.567061)
(1.71254 -1.77265 -0.409697)
(1.84885 -0.796157 0.254743)
(1.75212 -1.38001 -0.111274)
(1.82908 0.119451 -0.134062)
(2.48271 0.535731 -0.434327)
(3.34342 -0.563744 2.22776)
(3.30677 -1.10711 2.01586)
(3.25079 -1.47073 1.9196)
(3.20895 -1.06818 1.63036)
(2.78484 -1.09142 1.65995)
(2.3253 -1.10618 1.81439)
(2.17842 -0.914578 0.807535)
(2.05903 -1.21923 0.289733)
(2.19079 -1.24833 0.0275414)
(1.68126 -0.933192 0.583591)
(1.71099 -1.44539 -0.195542)
(1.39246 -0.930968 -0.53482)
(1.82952 0.413785 -0.510608)
(2.14436 0.632983 -0.845932)
(2.46389 -0.219341 1.74989)
(2.91223 -0.256521 1.99037)
(2.79627 -0.25244 1.78646)
(2.59805 -0.566922 1.85586)
(2.41522 -0.240094 0.425595)
(2.1578 -1.00205 0.112518)
(2.00901 -1.46426 -0.571086)
(1.79061 -1.20203 -0.188318)
(1.77845 -1.39812 0.148718)
(1.52819 -0.580424 -0.770799)
(1.311 -1.02404 -1.14583)
(0.976802 -0.914712 -0.708876)
(1.18347 0.128942 -0.751756)
(2.02918 0.130571 -0.630162)
(1.67526 0.234092 -0.907335)
(1.41522 0.533939 -0.743397)
(2.0759 0.598538 -0.267663)
(3.12344 0.0666178 0.601047)
(2.51205 0.00730236 -0.0801148)
(2.03419 -0.174679 -0.811869)
(1.98792 -0.237514 -1.19867)
(1.96918 -0.408179 -1.03308)
(2.26621 -1.31417 0.0345081)
(2.2082 -1.25141 -0.125206)
(1.86491 -0.213966 -1.08448)
(1.4719 0.107368 -0.811826)
(0.78974 -1.02301 -0.568732)
(0.643278 -0.636203 -1.01592)
(1.43186 0.283295 -0.36708)
(1.67444 0.281301 -0.467738)
(0.992028 0.060381 -0.143582)
(0.645004 0.983791 -1.30109)
(1.56757 0.768741 -1.31808)
(2.08085 0.225335 -1.39884)
(2.43556 0.282791 -0.617219)
(1.81918 0.0402313 -1.17707)
(1.56223 0.11736 -1.43954)
(1.57207 -0.112933 -1.6021)
(1.8349 -0.83948 -1.22303)
(1.94957 -0.820134 -1.31405)
(1.51023 -0.668672 -1.18018)
(1.03476 -0.82969 -1.16122)
(0.697813 -1.31322 -1.01346)
(0.718514 -1.13111 -0.689927)
(0.54558 -0.370219 -0.456035)
(1.05824 0.183846 -0.197803)
(0.895328 0.301425 -0.124082)
(-0.0884609 -0.448779 0.827141)
(1.82474 0.264325 1.90662)
(1.93829 0.0114117 2.12287)
(1.98315 0.0896256 2.0972)
(1.87036 -0.0573193 2.36496)
(1.93822 -0.0655128 2.323)
(1.9517 0.110227 2.25783)
(1.98658 -0.170353 2.3484)
(2.10578 -0.159096 2.26186)
(1.98716 -0.196387 2.20598)
(1.92684 -0.105253 2.31374)
(2.21465 -0.31132 2.26645)
(2.16779 -0.193069 2.21263)
(2.06309 -0.0133285 2.25538)
(2.02259 -0.346432 2.2799)
(2.1698 -0.136845 2.22758)
(2.19455 -0.262728 2.40839)
(2.14948 -0.197691 2.39631)
(2.13774 -0.196415 2.3028)
(2.04989 -0.366973 2.30321)
(2.05823 -0.400633 2.29199)
(2.16405 -0.39303 2.21995)
(2.29382 -0.359635 2.42912)
(2.25232 -0.301739 2.42318)
(2.26209 -0.22918 2.38356)
(2.24357 -0.243143 2.33624)
(2.25299 -0.339084 2.21219)
(2.27145 -0.491711 2.09552)
(2.54107 -0.315893 2.41004)
(2.47562 -0.311099 2.22643)