/*--------------------------------*- C++ -*----------------------------------*\
  =========                 |
  \\      /  F ield         | OpenFOAM: The Open Source CFD Toolbox
   \\    /   O peration     | Website:  https://openfoam.org
    \\  /    A nd           | Version:  7
     \\/     M anipulation  |
\*---------------------------------------------------------------------------*/
FoamFile
{
    version     2.0;
    format      ascii;
    class       volScalarField;
    location    "5.5";
    object      p;
}
// * * * * * * * * * * * * * * * * * * * * * * * * * * * * * * * * * * * * * //

dimensions      [0 2 -2 0 0 0 0];

internalField   nonuniform List<scalar> 
18780
(
-68.3159
-67.2826
-68.2958
-67.3961
-66.1568
-67.1937
-66.6038
-68.2661
-67.3556
-66.3203
-66.1278
-66.0676
-65.3869
-67.1016
-66.5345
-65.7164
-68.2359
-67.321
-66.2399
-65.3779
-65.1207
-66.0344
-65.0809
-65.953
-65.3987
-64.8
-67.0114
-66.466
-65.6484
-64.7712
-68.2078
-67.2988
-66.1242
-65.2908
-64.5978
-62.9118
-64.9906
-63.7349
-65.812
-65.0769
-64.058
-65.8136
-65.2943
-64.7534
-64.2941
-66.9215
-66.3925
-65.5743
-64.6404
-64.3653
-68.1824
-67.274
-65.977
-65.1777
-64.5368
-64.0716
-61.0133
-62.7076
-61.8884
-64.7114
-63.5631
-63.0598
-65.4448
-64.9438
-64.0581
-63.3239
-65.6556
-65.2372
-64.6509
-64.1368
-63.8295
-66.84
-66.3079
-65.4891
-64.5315
-64.1282
-63.9317
-68.1605
-67.2393
-65.8224
-65.0589
-64.4473
-64.0171
-63.7583
-59.6366
-60.6145
-60.2607
-62.4
-61.6492
-61.5261
-64.2935
-63.6403
-62.8544
-62.2639
-64.982
-64.6878
-64.0597
-63.1611
-62.7788
-65.5063
-65.1563
-64.5488
-63.9588
-63.6635
-63.4033
-66.7558
-66.2315
-65.3908
-64.4215
-63.9093
-63.8271
-63.6003
-68.1359
-67.1993
-65.6803
-64.9518
-64.3576
-63.9646
-63.701
-63.5441
-58.6859
-59.3885
-59.4125
-60.6778
-60.0744
-60.2286
-62.1424
-61.493
-61.344
-61.0005
-63.8788
-63.3897
-62.7565
-62.0706
-61.6261
-64.6178
-64.4372
-64.0098
-63.0196
-62.7501
-62.4869
-65.3754
-65.0128
-64.4704
-63.8286
-63.5105
-63.2372
-63.2375
-66.6666
-66.1407
-65.3139
-64.3268
-63.7548
-63.705
-63.5131
-63.3804
-68.1094
-67.1646
-65.5592
-64.8656
-64.301
-63.9212
-63.6456
-63.4941
-63.3014
-56.9341
-57.6749
-58.5807
-58.543
-59.4455
-59.1723
-59.6165
-60.4885
-60.1082
-60.2625
-60.439
-61.8599
-61.3879
-61.1422
-60.7785
-60.7478
-63.529
-63.0662
-62.5696
-61.6879
-61.4833
-61.816
-64.2878
-64.156
-63.9668
-62.8704
-62.2431
-62.3772
-62.5595
-65.2565
-64.8205
-64.4153
-63.7327
-63.302
-63.0818
-63.1032
-63.0785
-66.5774
-66.0135
-65.2321
-64.2209
-63.6429
-63.6053
-63.4405
-63.2885
-63.2494
-68.0853
-67.1367
-65.4562
-64.7944
-64.2602
-63.8959
-63.5914
-63.4425
-63.267
-62.549
-56.2825
-56.9671
-57.4811
-57.8035
-57.7842
-58.5357
-58.3309
-59.0444
-59.2589
-59.0825
-59.4084
-59.9529
-60.2175
-60.0322
-59.8636
-60.1138
-60.3467
-61.4966
-61.2913
-60.8898
-60.4144
-60.3547
-60.9974
-63.0626
-62.7114
-62.4356
-61.5792
-61.0855
-61.4759
-61.9675
-64.0188
-63.9499
-63.8297
-62.8311
-62.1113
-62.2505
-62.3355
-62.5892
-65.1107
-64.6446
-64.3986
-63.6477
-63.1094
-63.0402
-62.9964
-62.8609
-63.1071
-66.5083
-65.8927
-65.1231
-64.1192
-63.5439
-63.4433
-63.3544
-63.2091
-63.1378
-62.8695
-68.0591
-67.1163
-65.3733
-64.7278
-64.2368
-63.8659
-63.5386
-63.3904
-63.2406
-62.5101
-62.1808
-55.6993
-56.083
-56.691
-56.8804
-57.1904
-58.5716
-57.5887
-57.6343
-58.5103
-58.4274
-58.258
-58.765
-59.486
-59.1436
-59.0182
-58.9938
-59.4702
-59.8612
-60.0079
-59.9085
-59.6354
-59.708
-60.1952
-60.2466
-61.2315
-61.0022
-60.7384
-60.2676
-60.4137
-60.841
-61.2605
-62.7142
-62.4528
-62.2432
-61.4987
-60.9842
-61.3196
-61.7687
-62.3388
-63.8352
-63.7611
-63.5766
-62.8032
-61.9748
-62.146
-62.1036
-62.5496
-62.9315
-64.9495
-64.4063
-64.2758
-63.5885
-62.9126
-62.9197
-62.8716
-62.7321
-62.9499
-62.9381
-66.4481
-65.783
-65.0109
-64.036
-63.4659
-63.283
-63.2544
-63.1317
-63.0354
-62.7371
-62.431
-68.0382
-67.1095
-65.3197
-64.6547
-64.2142
-63.8229
-63.4983
-63.3419
-63.2158
-62.4707
-62.1405
-62.0176
-55.1246
-55.3668
-55.8899
-56.1463
-56.4375
-56.461
-57.5001
-56.9815
-57.1154
-57.8833
-59.431
-57.45
-57.6282
-58.1654
-59.2854
-57.9743
-58.1946
-58.4855
-59.2156
-59.3738
-58.969
-58.8884
-58.8794
-59.116
-59.6969
-59.5052
-59.7593
-59.7459
-59.4819
-59.533
-60.0975
-60.0726
-60.4259
-60.9877
-60.7726
-60.6207
-60.1309
-60.2521
-60.4548
-61.0058
-61.9184
-62.4011
-62.182
-62.0366
-61.4304
-60.865
-61.0549
-61.5105
-62.128
-63.0046
-63.6861
-63.3747
-63.3334
-62.7606
-61.8703
-61.9239
-61.8601
-62.3135
-62.6505
-63.1924
-64.83
-64.1958
-64.0848
-63.5302
-62.7361
-62.7145
-62.7304
-62.5898
-62.7425
-62.7642
-63.1132
-66.3889
-65.6834
-64.8758
-63.9518
-63.3935
-63.1684
-63.1489
-63.0534
-62.9251
-62.6231
-62.3451
-62.6464
-68.0222
-67.1098
-65.2771
-64.5907
-64.1665
-63.7493
-63.457
-63.2962
-63.2022
-62.4286
-62.0974
-61.9813
-61.804
-55.0814
-55.0072
-55.2429
-55.3982
-55.7462
-55.9931
-56.0666
-56.6879
-56.1852
-56.3488
-57.0587
-58.6441
-56.6218
-57.0749
-57.5541
-59.1901
-58.7716
-57.0815
-57.4569
-57.8311
-59.0086
-59.3645
-57.8484
-58.1258
-58.2699
-58.8854
-59.3296
-59.2667
-58.7218
-58.876
-58.7824
-59.1238
-59.8308
-59.4597
-59.9011
-59.6467
-59.5723
-59.0995
-59.2824
-59.9181
-59.947
-60.2837
-61.6708
-60.7833
-60.6496
-60.3926
-59.998
-60.0429
-60.2753
-60.8071
-61.6461
-63.0453
-62.0723
-61.9971
-61.7613
-61.2906
-60.7313
-60.8144
-61.2749
-61.6959
-62.7345
-63.6836
-63.5536
-63.1903
-62.9835
-62.8382
-61.7364
-61.7616
-61.6739
-62.0224
-62.3998
-62.9711
-63.4277
-64.7953
-64.1961
-63.8573
-63.4964
-62.6788
-62.5722
-62.5898
-62.4003
-62.5436
-62.6056
-62.9987
-63.2136
-66.3561
-65.5826
-64.7185
-63.869
-63.3191
-63.0734
-63.0274
-62.9858
-62.8181
-62.5285
-62.2659
-62.5578
-62.3663
-68.0111
-67.1153
-65.2306
-64.5434
-64.1
-63.6722
-63.3956
-63.2601
-63.1885
-62.3882
-62.0444
-61.9419
-61.7915
-61.7126
-54.7308
-54.8696
-54.8542
-54.9591
-55.2577
-55.6711
-55.2867
-55.7734
-56.3264
-55.5257
-55.9957
-56.2896
-57.2749
-56.0868
-56.4061
-56.3355
-58.2614
-58.5138
-56.5722
-56.7819
-57.38
-58.7549
-59.2769
-58.3369
-57.019
-57.3775
-57.6332
-58.5053
-59.2423
-59.2227
-57.8896
-58.1405
-58.0144
-58.5517
-59.3812
-59.3618
-59.7111
-58.545
-58.7692
-58.6175
-58.8503
-59.5909
-59.5651
-60.0449
-61.5233
-59.527
-59.481
-59.0432
-58.9848
-59.7272
-60.0176
-60.2798
-61.5456
-63.4634
-60.6037
-60.5365
-60.1903
-59.861
-59.7499
-60.2316
-60.6655
-61.4464
-62.9667
-63.8729
-61.9125
-61.7465
-61.5295
-61.2078
-60.5814
-60.7841
-61.1576
-61.5174
-62.5465
-63.4431
-63.7506
-63.4095
-63.0601
-62.8011
-62.8313
-61.5972
-61.7111
-61.5857
-61.8109
-62.2627
-62.782
-63.2693
-63.6566
-64.7577
-64.0485
-63.5748
-63.4629
-62.6052
-62.4553
-62.445
-62.2256
-62.3419
-62.467
-62.879
-63.0687
-62.9107
-66.313
-65.4647
-64.548
-63.8172
-63.2257
-63.0032
-62.9167
-62.9193
-62.7418
-62.4239
-62.1901
-62.4607
-62.3327
-62.2553
-68.0077
-67.1225
-65.2619
-64.4897
-64.0307
-63.6494
-63.32
-63.2314
-63.1716
-62.3501
-61.9864
-61.9122
-61.7803
-61.7156
-61.8689
-54.4685
-54.7954
-54.7589
-54.829
-54.8636
-55.1721
-54.9879
-55.291
-55.4623
-55.9214
-55.3736
-55.7516
-55.9752
-56.7144
-55.653
-56.117
-56.6077
-56.919
-57.5784
-56.2784
-56.5076
-56.8991
-57.6488
-58.7854
-57.886
-56.472
-56.7692
-56.8066
-58.3329
-59.2012
-58.578
-59.5772
-57.0297
-57.3428
-57.5524
-58.2693
-59.1218
-59.0645
-59.688
-57.7137
-57.9644
-57.8752
-58.1697
-59.2679
-59.5247
-59.7467
-61.5019
-58.3758
-58.5419
-58.4629
-58.3947
-59.3765
-59.4842
-59.7121
-61.576
-63.8142
-59.244
-59.2847
-58.9463
-58.8428
-59.5408
-59.9214
-60.0885
-61.4248
-63.4572
-64.4624
-60.3803
-60.3455
-60.0318
-59.725
-59.6283
-60.0772
-60.6088
-61.2779
-62.9138
-63.8791
-64.1649
-61.8207
-61.5824
-61.3853
-60.9824
-60.352
-60.6761
-61.043
-61.4196
-62.3828
-62.9332
-63.633
-63.6891
-63.2879
-62.9694
-62.7563
-62.7427
-61.5045
-61.5139
-61.4162
-61.5989
-62.074
-62.5989
-63.1401
-63.5277
-63.364
-64.7205
-63.9152
-63.2513
-63.4211
-62.5382
-62.3064
-62.2855
-62.1281
-62.1732
-62.3367
-62.7662
-62.9051
-62.8575
-62.5221
-66.2625
-65.3176
-64.3932
-63.7663
-63.1402
-62.9278
-62.8187
-62.8548
-62.6706
-62.3285
-62.119
-62.3595
-62.2924
-62.2471
-62.0466
-68.0125
-67.1179
-65.3096
-64.4351
-63.9655
-63.6376
-63.2474
-63.2045
-63.1513
-62.3137
-61.9295
-61.8895
-61.7715
-61.7181
-61.8701
-60.9041
-54.3828
-54.5195
-54.6193
-54.7952
-54.7575
-54.8597
-54.5403
-54.7709
-55.1353
-55.5055
-54.9899
-55.2556
-55.2532
-55.9598
-56.2878
-55.1642
-55.6591
-56.3788
-56.6151
-56.9058
-55.7306
-55.9664
-56.5592
-56.708
-57.8776
-57.7504
-56.1959
-56.3679
-56.4862
-57.6305
-58.8064
-58.4116
-58.9018
-56.5836
-56.6917
-56.9561
-57.9799
-59.061
-59.0308
-59.4466
-60.7489
-57.0128
-57.2813
-57.5871
-57.7965
-59.0382
-59.2064
-59.7154
-61.0781
-57.6773
-57.836
-58.0619
-58.1177
-59.0958
-59.3043
-59.8725
-61.1297
-63.7299
-58.222
-58.3485
-58.3626
-58.3937
-59.2378
-59.4402
-59.8111
-61.5554
-63.8649
-65.5225
-58.9681
-59.1469
-58.8614
-58.6621
-59.3588
-59.7093
-60.1318
-61.3469
-63.4615
-64.6877
-64.774
-60.1882
-60.1924
-59.867
-59.6294
-59.4757
-59.8004
-60.4067
-61.1552
-62.814
-63.9099
-64.218
-63.971
-61.6307
-61.4563
-61.3267
-60.8492
-60.2754
-60.5455
-60.7833
-61.1518
-62.2683
-63.2483
-63.5628
-63.6877
-63.516
-63.189
-62.8516
-62.5241
-62.5861
-61.4126
-61.3284
-61.2432
-61.4571
-61.9111
-62.4469
-63.0104
-63.3518
-63.3132
-62.7527
-64.6779
-63.8494
-63.0385
-63.4368
-62.4857
-62.1617
-62.1379
-62.0181
-62.0234
-62.2066
-62.6519
-62.7616
-62.8303
-62.496
-62.0661
-66.2355
-65.2363
-64.2566
-63.6948
-63.0592
-62.8583
-62.7242
-62.7873
-62.5972
-62.2498
-62.0455
-62.2626
-62.247
-62.2373
-62.0491
-61.2945
-68.0235
-67.1127
-65.3573
-64.4036
-63.93
-63.5985
-63.2049
-63.1955
-63.1317
-62.2753
-61.8741
-61.8667
-61.7642
-61.7193
-61.8715
-60.9464
-60.6274
-54.3478
-54.4204
-54.4295
-54.5685
-54.6926
-54.691
-54.4853
-54.8325
-54.8639
-55.2301
-54.9322
-55.0239
-55.1449
-55.3134
-55.708
-55.2038
-55.264
-55.7671
-55.8995
-56.2475
-56.7182
-55.4413
-55.5428
-55.9701
-56.6102
-56.8455
-57.2515
-55.8543
-55.8611
-56.1059
-56.9255
-57.7417
-58.0609
-58.6929
-56.0559
-56.293
-56.4485
-57.0757
-58.7121
-58.7907
-58.8339
-60.416
-56.5335
-56.7133
-57.0664
-57.4798
-58.8519
-59.12
-59.4533
-60.7334
-61.812
-56.921
-57.2579
-57.4606
-57.8024
-58.7959
-59.2461
-59.695
-61.2439
-62.6721
-57.5592
-57.7899
-57.9126
-58.0188
-58.8601
-59.2585
-59.7725
-61.3407
-63.739
-65.4578
-58.2041
-58.2387
-58.2409
-58.2499
-59.0561
-59.418
-59.6534
-61.5994
-63.9209
-65.9349
-64.7143
-58.9746
-59.0071
-58.762
-58.5562
-59.1165
-59.7115
-59.9262
-61.2384
-63.3648
-64.8515
-64.8105
-64.6817
-60.1612
-60.0794
-59.7632
-59.535
-59.3209
-59.6934
-60.2503
-60.9019
-62.6382
-63.9082
-64.2248
-64.0245
-63.6608
-61.5
-61.2894
-61.0899
-60.7223
-60.1529
-60.2624
-60.6888
-60.9418
-62.0167
-63.008
-63.4978
-63.7362
-63.4175
-62.7439
-63.0906
-62.7757
-62.1015
-62.4236
-61.3783
-61.1205
-61.0998
-61.3274
-61.7713
-62.273
-62.8904
-63.2461
-63.3059
-62.6844
-62.4135
-64.6874
-63.8374
-62.9212
-63.2937
-62.4607
-62.0503
-61.9875
-61.8887
-61.8783
-62.0639
-62.5362
-62.6279
-62.7858
-62.4901
-62.1113
-61.5367
-66.2276
-65.1978
-64.1527
-63.6039
-62.9649
-62.7932
-62.6345
-62.7306
-62.5153
-62.1621
-61.957
-62.1693
-62.2039
-62.232
-62.0751
-61.3686
-60.3748
-68.0383
-67.1105
-65.4145
-64.3823
-63.9184
-63.5743
-63.1735
-63.1783
-63.1115
-62.2353
-61.8336
-61.8458
-61.756
-61.72
-61.8757
-60.9888
-60.6688
-60.1851
-54.2372
-54.3231
-54.3527
-54.4148
-54.4368
-54.5465
-54.5507
-54.7407
-54.6553
-54.9998
-54.7301
-54.8329
-54.8318
-55.0761
-55.3852
-55.1285
-55.0725
-55.2182
-55.4564
-55.8286
-56.2153
-55.1766
-55.2976
-55.3775
-55.8813
-56.2831
-56.7944
-57.3617
-55.3077
-55.7104
-55.7745
-56.1789
-56.8965
-57.2731
-58.0221
-55.6962
-55.8464
-56.1766
-56.6024
-57.828
-58.1775
-58.5673
-60.1994
-56.0265
-56.3473
-56.49
-57.1264
-58.4458
-58.9752
-59.1396
-60.506
-61.6812
-56.3077
-56.6797
-56.7352
-57.3978
-58.5677
-59.2299
-59.3251
-60.8663
-62.0498
-63.0428
-56.9648
-57.1178
-57.117
-57.5979
-58.5511
-59.2146
-59.4018
-61.298
-62.6401
-63.9635
-57.4882
-57.5922
-57.7584
-57.7793
-58.5893
-59.2415
-59.5004
-61.293
-63.7557
-65.6163
-63.9005
-58.1903
-58.1269
-58.1366
-58.0647
-58.7868
-59.3896
-59.6099
-61.385
-63.9567
-66.1759
-65.0217
-64.5371
-59.2126
-58.8649
-58.6775
-58.3936
-58.9028
-59.5112
-59.8201
-61.0967
-63.2541
-64.9246
-64.9059
-64.7271
-63.6411
-60.4479
-59.9195
-59.6026
-59.3891
-59.2459
-59.5581
-60.1287
-60.7756
-62.4924
-63.9235
-64.2616
-64.1515
-63.6623
-62.6125
-61.5329
-61.1237
-60.7891
-60.6096
-60.1196
-60.1781
-60.5667
-60.9465
-61.7791
-62.7977
-63.4765
-63.7362
-63.4082
-62.7875
-62.5115
-63.0023
-62.6903
-62.0624
-62.23
-61.4057
-61.0052
-60.9265
-61.2231
-61.6253
-62.0995
-62.7683
-63.1576
-63.2522
-62.6698
-62.423
-61.6557
-64.6929
-63.8818
-63.0535
-63.1283
-62.44
-61.9676
-61.819
-61.7508
-61.742
-61.916
-62.4127
-62.5152
-62.7315
-62.5046
-62.1798
-61.5378
-60.2892
-66.2377
-65.1729
-64.0646
-63.522
-62.8649
-62.7441
-62.5537
-62.6805
-62.4441
-62.0495
-61.8793
-62.0825
-62.16
-62.2312
-62.1163
-61.42
-60.4239
-59.9442
-68.0555
-67.104
-65.4544
-64.368
-63.9461
-63.5581
-63.1257
-63.1339
-63.0889
-62.1989
-61.808
-61.8178
-61.7434
-61.7199
-61.8832
-61.0229
-60.7107
-60.2419
-60.1319
-54.172
-54.2341
-54.239
-54.3591
-54.3233
-54.3797
-54.455
-54.4398
-54.5135
-54.7176
-54.5497
-54.5615
-54.6858
-54.8908
-55.1149
-54.726
-54.8837
-54.9338
-55.1408
-55.4746
-55.7538
-54.7011
-55.2095
-55.2814
-55.417
-55.8689
-56.2744
-56.7361
-55.0103
-55.2961
-55.4951
-55.5915
-56.3155
-56.9211
-57.4168
-58.1582
-55.3437
-55.5988
-55.8157
-56.0681
-56.9975
-57.4268
-58.0778
-59.3406
-55.6111
-55.9031
-56.298
-56.5166
-57.5745
-58.4426
-58.9612
-60.1442
-61.4727
-55.9271
-56.1943
-56.4119
-56.9156
-58.1288
-59.0837
-59.2035
-60.544
-61.7795
-62.8327
-56.3583
-56.4623
-56.7593
-57.0943
-58.2808
-59.2189
-59.2482
-60.8585
-62.2001
-63.0858
-63.2781
-56.7741
-56.9452
-57.1261
-57.3778
-58.2304
-59.0164
-59.5498
-61.063
-62.7672
-63.9239
-63.9879
-57.3476
-57.4934
-57.6616
-57.7186
-58.4306
-59.2579
-59.6675
-61.2279
-63.5959
-65.8363
-64.0869
-63.8169
-58.0547
-58.0263
-58.0881
-57.9699
-58.5643
-59.3337
-59.5601
-61.1964
-63.6295
-66.3454
-65.2927
-64.5364
-64.0029
-59.0023
-58.7981
-58.6303
-58.3469
-58.7541
-59.4538
-59.7038
-60.9573
-63.0505
-64.8754
-65.0239
-64.7257
-63.6236
-62.196
-60.274
-59.8707
-59.5234
-59.2943
-59.1489
-59.538
-59.9502
-60.5966
-62.2712
-63.8753
-64.3391
-64.3436
-63.6962
-62.5208
-62.3365
-61.4781
-61.0583
-60.7468
-60.4715
-60.0781
-60.3395
-60.3664
-60.7622
-61.5229
-62.7392
-63.4339
-63.732
-63.4972
-62.7885
-62.4985
-61.8316
-62.9451
-62.6283
-61.9474
-61.9365
-61.4168
-60.9503
-60.889
-61.1111
-61.449
-61.9003
-62.6604
-63.0796
-63.2214
-62.7251
-62.4744
-61.5829
-60.4955
-64.7049
-63.8183
-62.9047
-62.9142
-62.4489
-61.9207
-61.7604
-61.623
-61.6254
-61.7667
-62.2789
-62.4205
-62.6786
-62.5344
-62.2725
-61.5509
-60.3151
-60.05
-66.2654
-65.1626
-63.9926
-63.4581
-62.7547
-62.6436
-62.463
-62.6247
-62.374
-61.9481
-61.8215
-62.0052
-62.1185
-62.2349
-62.159
-61.4601
-60.461
-59.9764
-59.5767
-68.0757
-67.0984
-65.4765
-64.3483
-63.989
-63.5341
-63.0754
-63.0909
-63.0677
-62.1617
-61.7852
-61.7782
-61.7287
-61.7186
-61.8911
-61.0492
-60.7307
-60.2945
-60.1099
-60.2364
-54.1082
-54.1996
-54.1242
-54.2316
-54.1926
-54.2665
-54.4025
-54.3541
-54.3698
-54.5267
-54.5108
-54.4124
-54.5302
-54.7002
-54.8664
-54.675
-54.7372
-54.7209
-54.7964
-55.1564
-55.3926
-54.7342
-54.8369
-54.9543
-55.1969
-55.5999
-55.7975
-56.1839
-54.9002
-55.0934
-55.3215
-55.4415
-55.8626
-56.3517
-56.712
-57.3698
-55.0059
-55.2905
-55.4676
-55.7
-56.2438
-56.8934
-57.5397
-58.2279
-58.9861
-55.3506
-55.4682
-55.8602
-56.1998
-57.0621
-57.6364
-58.3198
-59.3634
-60.422
-55.5913
-55.7965
-56.3132
-56.5158
-57.3558
-58.3094
-58.8281
-60.0409
-61.4499
-62.3551
-55.9761
-56.0785
-56.6397
-56.6543
-57.8589
-59.092
-59.1739
-60.2924
-61.8884
-62.7976
-63.9281
-56.2502
-56.4408
-56.8801
-56.9574
-58.049
-58.9107
-59.2535
-60.7246
-62.3538
-63.1939
-63.383
-64.0921
-56.6975
-56.8887
-57.0816
-57.4461
-58.1954
-58.8871
-59.3333
-60.8503
-62.7328
-63.9514
-64.0554
-63.6726
-57.3114
-57.5014
-57.6043
-57.5945
-58.3107
-59.1478
-59.329
-61.0354
-63.3654
-66.1972
-64.5721
-64.032
-63.768
-57.9585
-58.2392
-58.0288
-57.899
-58.5864
-59.2235
-59.3968
-61.0475
-63.3419
-66.374
-65.5298
-64.6046
-63.8657
-61.858
-58.6857
-58.9856
-58.627
-58.2828
-58.5925
-59.3177
-59.5785
-60.6817
-62.7369
-64.8128
-65.0971
-64.6781
-63.6677
-62.138
-62.0551
-59.6232
-59.759
-59.5059
-59.2149
-59.0331
-59.4634
-59.8943
-60.4285
-61.9802
-63.8444
-64.4154
-64.4914
-63.7782
-62.484
-62.3351
-61.9165
-61.3721
-61.0217
-60.7447
-60.3556
-60.0156
-60.2276
-60.3747
-60.6553
-61.3661
-62.56
-63.354
-63.7909
-63.5913
-62.7769
-62.5474
-61.7387
-60.6603
-62.8575
-62.5925
-61.8751
-61.799
-61.487
-60.861
-60.8046
-61.0483
-61.3559
-61.7021
-62.5591
-63.0273
-63.2157
-62.8049
-62.5913
-61.5558
-60.4784
-60.3365
-64.7231
-63.834
-62.611
-62.6681
-62.4762
-61.9172
-61.7107
-61.5365
-61.505
-61.6398
-62.1519
-62.3407
-62.6347
-62.5702
-62.3915
-61.5779
-60.4203
-60.0918
-59.5541
-66.3107
-65.1689
-63.923
-63.4076
-62.669
-62.5782
-62.3845
-62.5743
-62.2934
-61.8605
-61.7634
-61.9357
-62.0814
-62.2399
-62.1939
-61.5132
-60.5136
-59.9965
-59.6208
-59.5844
-68.1003
-67.0818
-65.4871
-64.3263
-64.0058
-63.4981
-63.0278
-63.049
-63.0456
-62.1235
-61.7669
-61.739
-61.7154
-61.7165
-61.8971
-61.0709
-60.7505
-60.3402
-60.1029
-60.2727
-60.7944
-54.0258
-54.1319
-54.0321
-54.2171
-54.1413
-54.1509
-54.3084
-54.2423
-54.2756
-54.334
-54.4462
-54.3469
-54.3988
-54.5513
-54.659
-54.5755
-54.5343
-54.5626
-54.6308
-54.8657
-55.0753
-54.6889
-54.6704
-54.7315
-54.9083
-55.3414
-55.4663
-55.7248
-54.7264
-54.9016
-54.9859
-55.1089
-55.5877
-55.8247
-56.2644
-56.6634
-54.8778
-55.0848
-55.2515
-55.4817
-55.8904
-56.3353
-56.9264
-57.4289
-57.9433
-55.1005
-55.2355
-55.465
-55.7344
-56.4571
-56.8502
-57.3589
-58.1044
-59.1148
-59.5448
-55.3755
-55.4213
-55.9204
-56.1057
-56.9287
-57.4663
-58.2549
-59.2706
-60.386
-61.109
-55.6952
-55.7616
-56.3642
-56.5031
-57.3093
-58.2912
-58.9207
-59.7826
-61.3455
-62.3558
-63.6997
-55.9019
-56.0622
-56.3862
-56.9288
-57.4782
-58.7841
-59.207
-60.1424
-61.7415
-62.727
-63.6828
-64.4837
-56.47
-56.5464
-56.8255
-57.0229
-57.8166
-59.0053
-59.2204
-60.5933
-62.2387
-63.1831
-63.3184
-63.829
-63.6066
-56.782
-56.9783
-57.1269
-57.3555
-58.046
-58.8147
-59.3169
-60.8851
-62.6682
-63.9829
-64.0851
-63.7654
-63.3895
-57.2941
-57.6752
-57.5157
-57.6243
-58.0752
-59.0606
-59.3351
-60.7316
-63.3149
-66.36
-65.1538
-64.3365
-63.4157
-61.5309
-58.0164
-58.1325
-57.9715
-57.8036
-58.3471
-59.0985
-59.3574
-60.8012
-63.054
-66.2027
-65.7887
-64.7066
-63.8334
-61.8957
-61.0743
-58.8914
-58.6397
-58.635
-58.3029
-58.4802
-59.2002
-59.4941
-60.5804
-62.5253
-64.7427
-65.1969
-64.6618
-63.7427
-62.1513
-61.8716
-61.0883
-59.7108
-59.6759
-59.4954
-59.261
-59.0132
-59.3142
-59.7438
-60.3293
-61.7457
-63.7763
-64.459
-64.5294
-63.8796
-62.5267
-62.4325
-61.7033
-60.5684
-61.328
-60.898
-60.6982
-60.3081
-59.9538
-59.967
-60.3035
-60.5148
-61.1442
-62.442
-63.3024
-63.8109
-63.6713
-62.8453
-62.6739
-61.6387
-60.6457
-60.3905
-62.8093
-62.5205
-61.7194
-61.7926
-61.4958
-60.8044
-60.679
-60.914
-61.1962
-61.4893
-62.4522
-62.9753
-63.1931
-62.8755
-62.7488
-61.522
-60.4713
-60.4462
-59.8949
-64.7539
-63.9214
-62.5905
-62.5076
-62.5428
-61.9062
-61.6313
-61.4533
-61.4069
-61.5123
-62.0227
-62.2698
-62.6097
-62.6044
-62.5408
-61.6247
-60.4598
-60.1494
-59.6046
-59.3291
-66.3583
-65.1816
-63.8878
-63.3672
-62.6007
-62.5252
-62.3802
-62.5599
-62.2152
-61.7804
-61.7041
-61.8698
-62.0449
-62.2428
-62.2171
-61.5839
-60.5921
-60.0426
-59.683
-59.6657
-59.7059
-68.1231
-67.072
-65.5393
-64.2909
-63.9978
-63.477
-62.9826
-62.9949
-63.0226
-62.1002
-61.7506
-61.7011
-61.7007
-61.7134
-61.9025
-61.0939
-60.7833
-60.3782
-60.1099
-60.3485
-60.9108
-61.5183
-53.871
-54.0288
-53.9645
-54.1708
-54.0349
-54.0299
-54.2968
-54.1662
-54.1484
-54.2177
-54.3245
-54.2477
-54.2676
-54.3709
-54.4643
-54.5188
-54.405
-54.4645
-54.5431
-54.7058
-54.8143
-54.6305
-54.6229
-54.6323
-54.8143
-54.8953
-55.1268
-55.353
-54.6694
-54.7077
-54.8264
-54.8759
-55.2526
-55.5434
-55.8894
-56.033
-54.759
-54.8964
-55.0293
-55.1959
-55.4893
-55.901
-56.3565
-56.787
-57.0513
-54.989
-55.0763
-55.2111
-55.4282
-55.7593
-56.3764
-56.9298
-57.4934
-57.9582
-58.3019
-55.2445
-55.3096
-55.4824
-55.7348
-56.3011
-56.8553
-57.4627
-58.104
-59.0986
-59.5807
-59.9428
-55.3688
-55.488
-55.9462
-56.1118
-56.8072
-57.3547
-58.2796
-59.1255
-60.2938
-61.0913
-61.6058
-55.5879
-55.6839
-56.0995
-56.5873
-57.154
-58.1384
-59.0435
-59.78
-61.1389
-62.2658
-63.3952
-63.4612
-55.9339
-56.0762
-56.4545
-56.5026
-57.2723
-58.5912
-59.3698
-60.1082
-61.5774
-62.5762
-63.4956
-64.3684
-63.3332
-56.2961
-56.4854
-56.7612
-56.9569
-57.5265
-58.6653
-59.4537
-60.4816
-62.0104
-63.3476
-63.2049
-64.0291
-63.5548
-63.0073
-56.6707
-56.8952
-57.0636
-57.2898
-57.7049
-58.7387
-59.245
-60.6152
-62.5247
-64.0103
-64.3837
-63.8989
-63.3623
-61.8984
-57.3759
-57.3237
-57.4371
-57.7342
-57.9648
-58.9061
-59.2645
-60.4546
-62.8568
-66.3948
-65.7261
-64.6502
-63.9762
-61.5002
-60.1454
-58.042
-57.8613
-57.9881
-57.9338
-58.1408
-58.9014
-59.3085
-60.6115
-62.7572
-65.7887
-65.9595
-64.7602
-63.7488
-62.0631
-61.016
-60.6635
-59.2904
-58.6772
-58.631
-58.3446
-58.4408
-59.0632
-59.3128
-60.4008
-62.2537
-64.595
-65.1903
-64.7267
-63.9237
-62.2769
-61.8845
-61.0624
-60.6376
-60.2014
-59.6167
-59.3654
-59.2639
-59.0076
-59.2505
-59.544
-60.0216
-61.385
-63.6441
-64.468
-64.575
-64.0134
-62.6529
-62.6261
-61.4148
-60.3915
-60.5237
-61.3054
-60.9071
-60.5158
-60.2084
-59.8966
-59.9504
-60.1862
-60.3379
-60.8435
-62.2491
-63.2449
-63.8371
-63.7883
-62.9339
-62.8141
-61.5281
-60.619
-60.3465
-60.1946
-62.8684
-62.4706
-61.6782
-61.5333
-61.4971
-60.8421
-60.5519
-60.8213
-60.9387
-61.3072
-62.3421
-62.9282
-63.2033
-62.9719
-62.851
-61.5081
-60.4768
-60.4906
-59.8938
-59.2104
-64.7953
-63.9322
-62.5701
-62.3675
-62.5183
-61.871
-61.5618
-61.4145
-61.3195
-61.3893
-61.893
-62.2056
-62.6004
-62.6351
-62.7049
-61.6537
-60.5232
-60.2069
-59.6466
-59.4005
-58.9534
-66.4256
-65.2295
-63.9176
-63.3374
-62.574
-62.463
-62.3126
-62.5063
-62.1414
-61.707
-61.6449
-61.8026
-62.0051
-62.2434
-62.2465
-61.6777
-60.6749
-60.1195
-59.7523
-59.7382
-59.7629
-60.9593
-68.1435
-67.0622
-65.6343
-64.261
-63.985
-63.4604
-62.9419
-62.9359
-63.0119
-62.0786
-61.7328
-61.6604
-61.6831
-61.7089
-61.9107
-61.1178
-60.8129
-60.4202
-60.1249
-60.4397
-61.0593
-61.6166
-62.2984
-53.8889
-53.8193
-54.1051
-53.9318
-53.921
-54.153
-54.0595
-53.9648
-54.0671
-54.3262
-54.2092
-54.1145
-54.2226
-54.2865
-54.397
-54.2778
-54.2876
-54.3635
-54.4886
-54.5536
-54.4954
-54.4894
-54.5143
-54.6065
-54.6971
-54.8834
-55.021
-54.608
-54.6137
-54.6958
-54.7754
-54.97
-55.127
-55.4679
-55.5652
-54.7157
-54.7883
-54.8677
-54.9495
-55.1489
-55.5601
-55.7997
-56.2658
-56.3502
-54.8769
-54.9233
-55.0613
-55.2342
-55.4289
-55.8914
-56.3837
-56.8195
-57.0778
-57.297
-55.0466
-55.1273
-55.2424
-55.5136
-55.8024
-56.358
-56.8413
-57.4626
-58.0068
-58.4244
-58.4498
-55.1744
-55.4069
-55.4142
-55.8285
-56.3996
-56.946
-57.4316
-58.2399
-59.0061
-59.6983
-59.9372
-59.5754
-55.4042
-55.5141
-55.8561
-55.9726
-56.7318
-57.3187
-58.0926
-59.099
-60.1619
-61.0444
-61.4972
-61.304
-55.5723
-55.7048
-56.2691
-56.0806
-56.9181
-57.7424
-58.9015
-59.8231
-60.7879
-61.9721
-62.9431
-63.3919
-62.0326
-55.8826
-56.0925
-56.4679
-56.7505
-57.2316
-58.2728
-59.4689
-60.1363
-61.3489
-62.4222
-63.3995
-64.4326
-63.3475
-62.3496
-56.1607
-56.474
-56.6572
-56.936
-57.2739
-58.4453
-59.1776
-60.2705
-61.8284
-62.9523
-63.2938
-63.9426
-63.608
-62.2145
-61.2377
-56.7042
-56.7863
-56.9819
-57.2033
-57.6205
-58.5164
-59.2586
-60.2849
-62.3576
-64.0593
-64.7234
-64.0847
-63.7714
-61.8534
-59.6736
-57.369
-57.3652
-57.4534
-57.5798
-57.862
-58.6352
-59.1999
-60.3052
-62.5832
-66.2103
-66.193
-64.8156
-63.6723
-61.5934
-60.0039
-59.6567
-58.0416
-57.9959
-57.947
-57.8132
-58.0834
-58.7182
-59.1658
-60.3214
-62.4671
-65.3972
-65.9229
-64.765
-63.8197
-62.2479
-61.1439
-60.5234
-60.5523
-59.015
-58.8943
-58.6355
-58.4124
-58.3903
-58.9496
-59.3346
-60.2415
-62.0316
-64.3767
-65.253
-64.8758
-64.0896
-62.5127
-62.0216
-60.9833
-60.0682
-60.5149
-60.3784
-59.695
-59.3298
-59.2804
-59.0201
-59.1433
-59.4172
-59.9565
-61.1755
-63.4448
-64.4442
-64.5944
-64.1559
-62.842
-62.6886
-61.2973
-60.3747
-60.3097
-60.0912
-61.2283
-60.9181
-60.4913
-60.2056
-59.784
-59.8497
-59.9403
-60.1786
-60.6851
-62.1276
-63.1691
-63.8679
-63.8603
-63.0774
-62.8079
-61.5535
-60.6768
-60.3245
-60.1524
-59.2384
-62.8054
-62.4626
-61.7928
-61.2274
-61.4763
-60.8857
-60.5287
-60.7404
-60.8183
-61.1916
-62.2332
-62.8893
-63.2344
-63.0649
-62.9267
-61.6282
-60.4958
-60.5028
-59.8774
-59.2112
-59.1346
-64.8601
-63.9443
-62.6308
-62.2889
-62.4446
-61.8984
-61.5181
-61.3723
-61.2421
-61.2916
-61.7711
-62.1434
-62.5904
-62.6369
-62.7724
-61.6677
-60.626
-60.2532
-59.6906
-59.4811
-58.958
-59.4388
-66.5131
-65.2822
-63.8433
-63.3037
-62.5619
-62.5859
-62.2502
-62.4029
-62.0692
-61.6466
-61.5895
-61.7383
-61.9715
-62.2474
-62.2933
-61.7899
-60.7744
-60.1896
-59.8281
-59.808
-59.8702
-61.0053
-61.3194
-68.1758
-67.0518
-65.7308
-64.2463
-63.981
-63.4352
-62.907
-62.8872
-63.0053
-62.0539
-61.7132
-61.6211
-61.6642
-61.7044
-61.9216
-61.1407
-60.8484
-60.4463
-60.1597
-60.5441
-61.1072
-61.7158
-62.3525
-62.6357
-53.8897
-53.807
-53.7609
-54.1367
-53.9894
-53.8984
-53.9358
-54.2539
-54.0972
-53.9951
-54.0503
-54.1152
-54.4268
-54.2833
-54.164
-54.2161
-54.3054
-54.3543
-54.4403
-54.3566
-54.3489
-54.3661
-54.4846
-54.5668
-54.6204
-54.5294
-54.5213
-54.5591
-54.565
-54.7004
-54.8604
-55.1308
-55.1457
-54.6595
-54.662
-54.7197
-54.7836
-54.9883
-55.1538
-55.35
-55.5812
-55.7754
-54.7819
-54.8307
-54.9028
-55.0371
-55.2106
-55.5423
-55.8983
-56.1513
-56.4145
-56.5216
-54.825
-54.949
-55.0526
-55.2914
-55.5123
-55.9561
-56.337
-56.8346
-57.1043
-57.3965
-57.3977
-55.0005
-55.164
-55.2722
-55.4772
-55.88
-56.328
-56.8866
-57.4422
-57.9544
-58.3195
-58.538
-58.2944
-55.25
-55.4991
-55.6303
-55.6676
-56.3454
-56.8019
-57.4486
-58.1851
-59.0026
-59.6745
-59.9721
-59.8962
-58.8033
-55.3285
-55.4733
-55.7805
-56.2082
-56.5512
-57.2233
-57.8001
-59.0668
-59.9591
-60.9019
-61.348
-61.2089
-60.6158
-55.702
-55.7246
-56.1299
-56.4591
-56.61
-57.5931
-58.7645
-59.8966
-60.6622
-61.5715
-62.6283
-63.3625
-62.1987
-60.9845
-55.8901
-56.1292
-56.312
-56.5441
-56.9695
-57.8927
-59.2659
-60.1064
-61.1855
-62.23
-63.0168
-64.3121
-63.1381
-61.9691
-62.1268
-56.2157
-56.4582
-56.5859
-56.7882
-57.1767
-58.3301
-59.1031
-60.1377
-61.6575
-63.0503
-63.21
-63.7789
-63.905
-61.8223
-60.1685
-59.3232
-56.7291
-56.7489
-56.9386
-57.0305
-57.5377
-58.258
-59.3668
-60.064
-62.1337
-64.0854
-64.9483
-64.1305
-63.9533
-61.9564
-59.6307
-58.9781
-57.4419
-57.4121
-57.3471
-57.5135
-57.7337
-58.4815
-59.1987
-60.124
-62.2113
-65.659
-66.7708
-65.2787
-63.4847
-61.7181
-60.4116
-59.0975
-60.233
-57.684
-58.2563
-57.9318
-57.912
-57.9778
-58.5868
-59.0819
-60.0857
-62.1213
-65.0063
-65.8477
-64.7282
-63.9935
-62.4915
-61.3686
-60.4638
-59.8973
-60.2594
-58.7496
-58.8475
-58.676
-58.463
-58.3571
-58.809
-59.2235
-60.0668
-61.7315
-64.0886
-65.1975
-64.9682
-64.2094
-62.7312
-62.0164
-61.0382
-59.7943
-60.059
-60.2591
-60.196
-59.6139
-59.375
-59.2856
-59.0175
-59.0653
-59.2648
-59.763
-60.9314
-63.1714
-64.3722
-64.6191
-64.2752
-63.0345
-62.605
-61.3834
-60.4162
-60.0578
-59.8581
-59.3855
-61.4917
-60.8943
-60.3583
-60.0857
-59.8191
-59.7621
-59.8728
-60.0708
-60.4667
-61.9608
-63.076
-63.8596
-63.8902
-63.2111
-62.8433
-61.7505
-60.8068
-60.1844
-60.1002
-59.181
-58.72
-62.7284
-62.4411
-61.918
-61.3343
-61.362
-60.8991
-60.472
-60.6169
-60.7501
-61.0352
-62.1234
-62.8271
-63.2446
-63.0956
-63.0324
-61.8798
-60.7279
-60.448
-59.8443
-59.2431
-59.2396
-58.4297
-64.9417
-64.0387
-62.7783
-62.2357
-62.348
-61.9093
-61.4714
-61.3193
-61.1745
-61.2061
-61.6473
-62.0825
-62.5615
-62.6261
-62.7774
-61.8184
-60.7903
-60.2993
-59.7482
-59.5596
-58.9327
-59.5701
-60.2851
-66.6036
-65.3343
-63.7801
-63.267
-62.5659
-62.5637
-62.222
-62.3401
-62.0075
-61.5909
-61.5365
-61.6766
-61.95
-62.2439
-62.334
-61.9189
-60.8927
-60.2687
-59.8856
-59.9017
-60.0209
-61.0808
-61.3739
-61.3483
-67.0693
-65.7635
-64.2562
-63.9805
-63.4158
-62.8766
-62.8472
-62.992
-62.0318
-61.6903
-61.5848
-61.6456
-61.7016
-61.9371
-61.175
-60.8856
-60.4526
-60.1869
-60.6036
-61.1782
-61.7743
-62.3991
-62.6676
-63.6583
-54.0239
-53.8016
-53.7717
-53.7802
-54.2086
-54.004
-53.8753
-53.9512
-53.9763
-54.299
-54.1407
-54.0465
-54.0285
-54.1156
-54.1671
-54.4984
-54.322
-54.2572
-54.1893
-54.3291
-54.3926
-54.4038
-54.4893
-54.4272
-54.3734
-54.4194
-54.5009
-54.63
-54.7616
-54.7827
-54.6459
-54.5267
-54.532
-54.5516
-54.7528
-54.8651
-55.0294
-55.0599
-55.2908
-54.6278
-54.6828
-54.7294
-54.8541
-55.0161
-55.2015
-55.4014
-55.582
-55.7417
-55.9057
-54.7876
-54.9032
-54.9142
-55.09
-55.2222
-55.5979
-55.9136
-56.1896
-56.3995
-56.563
-56.5677
-54.7652
-54.9423
-54.9556
-55.2319
-55.5371
-55.8438
-56.2675
-56.7696
-57.0504
-57.3854
-57.4169
-57.2739
-55.051
-55.2441
-55.3318
-55.4436
-55.7227
-56.1764
-56.9187
-57.4646
-57.886
-58.2955
-58.5709
-58.406
-57.9172
-55.1693
-55.3035
-55.4403
-55.9488
-56.06
-56.6555
-57.1443
-58.195
-58.8507
-59.5302
-59.9919
-60.025
-59.1371
-58.0191
-55.3511
-55.4977
-55.8315
-56.1683
-56.3816
-57.0825
-57.8909
-59.1163
-59.8023
-60.5857
-61.1603
-61.317
-60.6021
-59.2419
-55.6223
-55.7044
-56.0237
-56.3413
-57.031
-57.3225
-58.6442
-59.5831
-60.5509
-61.2289
-62.359
-63.106
-62.1435
-60.7491
-60.5822
-55.922
-56.0133
-56.2534
-56.509
-56.5467
-57.7452
-58.9938
-60.0812
-61.1111
-62.0849
-63.0442
-63.7907
-63.2365
-61.5159
-60.9279
-60.032
-56.2952
-56.3173
-56.475
-56.7257
-57.0226
-58.0238
-59.13
-60.0657
-61.329