/*--------------------------------*- C++ -*----------------------------------*\
  =========                 |
  \\      /  F ield         | OpenFOAM: The Open Source CFD Toolbox
   \\    /   O peration     | Website:  https://openfoam.org
    \\  /    A nd           | Version:  7
     \\/     M anipulation  |
\*---------------------------------------------------------------------------*/
FoamFile
{
    version     2.0;
    format      ascii;
    class       surfaceScalarField;
    location    "5.5";
    object      phi;
}
// * * * * * * * * * * * * * * * * * * * * * * * * * * * * * * * * * * * * * //

dimensions      [0 3 -1 0 0 0 0];

internalField   nonuniform List<scalar> 
54184
(
0.000120662
-0.00105495
-0.000101764
0.00022129
-0.00233534
-0.000232736
0.000140425
-0.00118792
-0.00011041
9.45363e-05
-0.000857915
-0.000103681
0.000260793
-0.00212134
-0.000253507
0.000290848
-0.00249607
-0.000273032
0.00016297
-0.00258288
-0.000219211
0.000144305
-0.00132737
-0.000111411
0.000102117
-0.000960468
-0.000109974
0.000114596
-0.000243729
-7.71499e-05
0.000293473
-0.00287942
-0.00027387
0.000423412
-0.0023243
-0.000305834
1.346e-05
-0.00239882
-0.000224264
0.00034037
-0.00269473
-0.000281234
0.000193095
-0.00270145
-0.000245448
0.000209944
-0.00219504
-0.000189908
0.00014559
-0.00146834
-0.000113069
0.000103757
-0.00107123
-0.00010441
0.000139796
-0.000413235
-8.02648e-05
0.000204314
-0.000660661
-5.43575e-05
0.000322425
-0.00448846
-0.000354029
0.000474953
-0.00304813
-0.00040882
-0.000148354
-0.0032024
-0.000186122
0.000550111
-0.00258861
-0.000332618
0.000247604
-0.00250016
-0.000258996
0.000252734
-0.00264197
-0.000289618
0.000355818
-0.00290869
-0.000277422
0.000218795
-0.00285256
-0.000245157
0.000217043
-0.00231875
-0.000198985
0.000363444
-0.00145023
-0.00016429
0.000147406
-0.00160812
-0.000115651
0.000114882
-0.00120054
-9.86312e-05
0.000156203
-0.00060099
-7.28589e-05
0.000234873
-0.000920102
-5.56965e-05
0.000169816
-0.000708768
-5.04742e-05
0.000542121
-0.00574684
0.000112952
0.000610792
-0.00494446
-0.000145379
8.62766e-05
-0.00434799
-0.000208278
0.000703024
-0.00324462
-0.000489419
0.000211778
-0.00326347
-0.000311925
0.000312262
-0.00325362
-0.000163866
0.000650808
-0.00291479
-0.000358029
0.000424286
-0.00274546
-0.000292809
0.000222857
-0.00262979
-0.000276996
0.000397002
-0.00270996
-0.000307815
0.000361204
-0.00313199
-0.000255171
0.000261244
-0.00303468
-0.000241666
0.000218677
-0.00243653
-0.000189846
0.000408228
-0.00166299
-0.000159573
0.000373622
-0.00117493
-0.000187368
0.000146533
-0.00174381
-0.000117912
0.00011582
-0.00133859
-9.34221e-05
0.000164802
-0.000800139
-6.42841e-05
0.000239584
-0.00118191
-5.06343e-05
0.000192818
-0.000905411
-5.18719e-05
0.000153547
-0.00082372
-5.90702e-05
0.000743905
-0.00592279
0.000616768
0.000896828
-0.00602432
6.39039e-05
0.000517094
-0.00485552
3.37657e-05
0.000798803
-0.00523585
-0.000156555
0.000272679
-0.00452901
-2.52639e-05
0.00044227
-0.00407251
-9.93131e-05
0.000909018
-0.00350789
-0.000464494
0.00060819
-0.003574
-0.000362796
0.000195838
-0.00324528
-0.000293239
0.000538978
-0.00390931
-0.000232126
0.000668698
-0.00321811
-0.000369146
0.000486811
-0.00303787
-0.000291189
0.000197314
-0.00261553
-0.000285706
0.000405284
-0.00268791
-0.000296094
0.000330135
-0.00313955
-0.000291395
0.000367059
-0.00336907
-0.000213973
0.000302067
-0.00324333
-0.000232764
0.00020144
-0.00253457
-0.000180264
0.000370671
-0.00185387
-0.000130058
0.000421956
-0.00137648
-0.000187158
0.000273844
-0.00112473
-0.000203233
0.000144889
-0.00187564
-0.000118542
0.000117975
-0.00148598
-8.84966e-05
0.000168381
-0.00100632
-5.56199e-05
0.000243522
-0.0014436
-4.61195e-05
0.00019268
-0.00110055
-4.81755e-05
0.000162997
-0.000975392
-6.31968e-05
0.000137066
-0.000121618
-7.02853e-05
0.00123305
-0.00568896
0.000740906
0.00106931
-0.00560284
0.000412983
0.00108888
-0.00488587
0.000283255
0.000972951
-0.00618894
9.55246e-05
0.000491182
-0.00515013
0.000140007
0.000739276
-0.00445957
-0.000283587
0.00091766
-0.00526708
-0.000258468
0.000563026
-0.00457636
-6.40415e-05
0.000323578
-0.00415781
-6.77047e-05
0.000777437
-0.00461942
-0.000240613
0.000962439
-0.00385706
-0.000318918
0.000773527
-0.00405053
-0.000274684
0.000200655
-0.00335166
-0.000259765
0.000413009
-0.00395685
-0.00025342
0.000388991
-0.00407204
-0.000366655
0.000642983
-0.00345941
-0.000341763
0.000613274
-0.00340344
-0.000314781
0.000261073
-0.00271494
-0.00025141
0.000351323
-0.00273003
-0.000224245
0.000406386
-0.00310941
-0.000310672
0.000314751
-0.00277191
-0.000300938
0.000368137
-0.00360329
-0.000178116
0.000366462
-0.00349271
-0.000213082
0.000178584
-0.00260428
-0.00017326
0.000345454
-0.00202711
-0.000108959
0.000464968
-0.00162968
-0.000149145
0.000310024
-0.00124143
-0.000217486
0.000300594
-0.00143374
-0.000198729
0.000140809
-0.00200175
-0.000118151
0.000120126
-0.00164125
-8.34063e-05
0.00016634
-0.00121706
-4.40973e-05
0.000238845
-0.00169747
-4.0597e-05
0.00018246
-0.00128333
-4.57959e-05
0.000158635
-0.00112134
-6.08637e-05
0.000149686
-0.000257325
-7.71756e-05
0.000107898
0.000941932
-7.19477e-05
0.00142264
-0.00542131
0.00133065
0.00124072
-0.00553171
0.000884389
0.00146707
-0.00470629
0.000213476
0.00116482
-0.00568517
0.000654833
0.000965282
-0.00508491
0.000137918
0.00114787
-0.00424389
-0.00028184
0.00116062
-0.00609057
9.91501e-05
0.000654953
-0.00552451
0.000377982
0.000780223
-0.00458614
-0.000190062
0.00104541
-0.00448555
-0.000499004
0.000989211
-0.00527403
-0.000238443
0.000859584
-0.00486194
-5.89435e-05
0.000348345
-0.00445448
8.49443e-05
0.000589886
-0.00467585
-0.000188154
0.000720299
-0.00430389
-0.000549512
0.000941407
-0.00421893
-0.00023147
0.000905195
-0.00453298
-0.000128384
0.000372343
-0.00356001
-0.000177603
0.000350711
-0.00394389
-0.000272119
0.00066283
-0.00428675
-0.000295148
0.000428324
-0.0037574
-0.000455983
0.000613501
-0.00365347
-0.000303764
0.000698651
-0.00377157
-0.000305829
0.00029934
-0.00290763
-0.000242846
0.000281343
-0.00270219
-0.000215134
0.00046059
-0.00308527
-0.000244001
0.00029905
-0.00277218
-0.000299431
0.000390769
-0.00249645
-0.000344467
0.000368103
-0.00385396
-0.000124365
0.000402593
-0.00375796
-0.000195336
0.000160649
-0.00264944
-0.000162228
0.000315485
-0.00217713
-9.98725e-05
0.000419515
-0.00185069
-0.000125007
0.000314651
-0.00134895
-0.000197642
0.000316016
-0.00160183
-0.000215731
0.000278159
-0.00169822
-0.000203057
0.000141144
-0.0021267
-0.00011591
0.000134124
-0.00181465
-7.88686e-05
0.000172804
-0.00143552
-3.77471e-05
0.000238349
-0.00194503
-3.48835e-05
0.000174035
-0.00145552
-4.24426e-05
0.000154574
-0.00126268
-5.90269e-05
0.00015517
-0.000397168
-7.61901e-05
0.000112416
0.000829129
-7.67881e-05
0.000142275
-0.000275716
-7.54471e-05
0.00176398
-0.0055781
0.00256062
0.00175183
-0.00556835
0.00189436
0.0017072
-0.00568312
0.00145564
0.00172629
-0.00497445
0.000715412
0.00160913
-0.00577492
0.00110021
0.00144231
-0.00476726
0.000468334
0.00139514
-0.00455444
-9.97143e-05
0.00159166
-0.00586833
0.000553509
0.00103021
-0.00538908
0.000583754
0.00135723
-0.00451445
-0.000168528
0.00124009
-0.00452841
-0.000722128
0.00130126
-0.00615006
0.000295583
0.000773185
-0.00559158
0.000252614
0.000744504
-0.00485564
0.000251324
0.00104335
-0.00459351
-0.000535557
0.000698201
-0.00422027
-0.000518539
0.00110386
-0.00548845
2.94466e-05
0.000982085
-0.0050866
-9.06763e-05
0.000465439
-0.00491242
0.000305896
0.000524512
-0.00444951
-0.0003152
0.000929601
-0.00422606
-0.000532755
0.000493933
-0.00382236
-0.000667643
0.000847902
-0.00447215
-0.000121116
0.000932248
-0.00489558
-0.000102465
0.000573857
-0.00381743
-0.000145479
0.000306812
-0.00388089
-0.000266066
0.000184216
-0.00399557
-0.000286932
0.000441583
-0.00376364
-0.000431441
0.000518073
-0.00315413
-0.000526672
0.000586447
-0.00380789
-0.000234231
0.000726789
-0.00409437
-0.000305153
0.000372826
-0.00318539
-0.000240249
0.000244498
-0.00270131
-0.000172744
0.000377618
-0.00301661
-0.000241898
0.000290082
-0.00272574
-0.000265867
0.000450295
-0.00259604
-0.000334112
0.000402587
-0.00258864
-0.000390474
0.000333436
-0.0040625
-9.6294e-05
0.000432507
-0.00401756
-0.000163145
0.000257461
-0.00277292
-0.000156511
0.000286966
-0.00230859
-7.93878e-05
0.000379652
-0.00207699
-7.91859e-05
0.000322849
-0.00146949
-0.000172746
0.000317208
-0.00176276
-0.000198746
0.000286158
-0.00185715
-0.00023055
0.000294756
-0.00205126
-0.000221265
0.000133791
-0.00224354
-0.000113208
0.000132743
-0.00198773
-7.55798e-05
0.000171069
-0.00165331
-3.21527e-05
0.000221993
-0.00217002
-3.47517e-05
0.000160935
-0.00160932
-4.20194e-05
0.000164558
-0.00141108
-5.86046e-05
0.000161436
-0.000542564
-7.50669e-05
0.000107963
0.000719832
-7.4856e-05
0.000144123
-0.00041567
-8.09574e-05
0.000174181
-0.000342109
-6.97715e-05
0.00170652
-0.00587882
0.00310995
0.00198745
-0.00578491
0.00241
0.00201983
-0.00530886
0.0022823
0.00216507
-0.0059762
0.00202264
0.00189667
-0.00499248
0.00133996
0.00177348
-0.00597175
0.00165306
0.00180669
-0.00494946
0.00106627
0.00191881
-0.00503824
0.000149136
0.00196208
-0.00610321
0.0012245
0.00130479
-0.00472647
0.000784832
0.00168008
-0.00467189
0.000262932
0.00149893
-0.00500965
-0.000412819
0.00183156
-0.0060856
0.000604387
0.000883713
-0.00551403
0.000567927
0.00138484
-0.00463265
6.16113e-05
0.00146021
-0.00447312
-0.000640672
0.000568775
-0.00398286
-0.000712277
0.00127553
-0.0061698
0.000433047
0.00102651
-0.00562883
0.000288411
0.000711019
-0.00520805
0.000359444
0.00100298
-0.00444341
-0.000377249
0.000849974
-0.00396897
-0.000707231
0.000465413
-0.00395898
-0.00063222
0.00109981
-0.0056909
0.00020048
0.000988195
-0.00522228
0.000109182
0.000596444
-0.00515003
0.000124346
0.00049122
-0.00445514
0.000127123
0.000228407
-0.00397677
-0.000608678
0.000697538
-0.00386512
-0.000745951
0.000693118
-0.00341575
-0.000657131
0.000818801
-0.00470034
1.39538e-05
0.000910356
-0.00508781
-0.000112458
0.000760006
-0.00419232
-0.00011475
0.000241566
-0.00381193
-0.000211506
0.00045582
-0.00410234
-0.000237494
0.000301948
-0.00372081
-0.000341625
0.000596582
-0.00319997
-0.000531895
0.000531815
-0.00313885
-0.000556549
0.000511558
-0.00393902
-0.00015428
0.000704432
-0.00427386
-0.000326667
0.000553733
-0.00353501
-0.000251803
0.000175165
-0.00269988
-0.000129875
0.000395685
-0.00303905
-0.000166341
0.000305262
-0.00269693
-0.000253121
0.000463151
-0.00272583
-0.000282022
0.000444832
-0.00266085
-0.000420579
0.00045022
-0.00199038
-0.000438333
0.00029319
-0.00423065
-7.40839e-05
0.000423587
-0.00425268
-0.000152022
0.000318556
-0.00292895
-0.000154607
0.000232141
-0.00240823
-6.70233e-05
0.000335308
-0.0022524
-7.83504e-05
0.000422703
-0.00168066
-0.000126163
0.000323932
-0.00192322
-0.000174779
0.000285187
-0.00200557
-0.000227546
0.000288651
-0.00217627
-0.000250073
0.000287986
-0.00108051
-0.00027786
0.000113167
-0.00233938
-0.000112321
0.000131101
-0.00215868
-7.33495e-05
0.000165896
-0.00186711
-2.76767e-05
0.000202155
-0.00237152
-3.2801e-05
0.000146783
-0.00174847
-4.23834e-05
0.000145663
-0.00153985
-5.8909e-05
0.000156401
-0.000683072
-7.44981e-05
0.00010326
0.00061572
-7.4214e-05
0.000129994
-0.000542007
-7.85129e-05
0.000188748
-0.000535547
-7.62673e-05
0.000102545
-0.000404742
-7.32537e-05
0.00161499
-0.00599742
0.00356723
0.0016674
-0.0057581
0.0031091
0.0018069
-0.00545406
0.00296697
0.00213444
-0.00579454
0.00271092
0.00191047
-0.00507155
0.00215888
0.00252656
-0.00609078
0.00203459
0.00185439
-0.00615145
0.00224394
0.0021688
-0.00516549
0.00183353
0.00239685
-0.00563924
0.000634315
0.00208057
-0.00612307
0.00144023
0.00155559
-0.00500083
0.00145363
0.00192521
-0.00485108
0.000633978
0.00177013
-0.00475702
0.00022191
0.0021707
-0.00629858
0.00123443
0.00127706
-0.00500251
0.0011072
0.00168735
-0.00477474
0.000585181
0.00177433
-0.00471407
-0.000346772
0.00054766
-0.00442708
-0.000452294
0.00171764
-0.00627375
0.000848315
0.000930993
-0.00540349
0.000589365
0.00112228
-0.00465476
0.000178773
0.00147687
-0.00437709
-0.000508306
0.000845098
-0.00390553
-0.000713122
0.000406274
-0.0041289
-0.000728831
0.00133035
-0.00627185
0.0005534
0.00107104
-0.00561401
0.000335384
0.00073513
-0.00539243
0.000334101
0.000962734
-0.00432985
-0.000225628
0.000755897
-0.00419263
-0.000681079
0.000614593
-0.00384041
-0.000742857
0.000883298
-0.00347661
-0.000888562
0.00104944
-0.00579277
0.000180755
0.000946525
-0.00528102
0.000223047
0.000895119
-0.00539369
0.00021773
0.000441663
-0.00458819
5.72994e-05
0.000813563
-0.00388417
-0.00032322
0.000436918
-0.00398946
-0.000619311
0.000676078
-0.00350012
-0.000741076
0.000673978
-0.00322057
-0.000833346
0.000786454
-0.00502559
0.000147613
0.000895563
-0.00514602
-0.000118963
0.000856204
-0.00446892
-0.000138335
0.000247438
-0.00390205
-9.69029e-05
0.000315972
-0.00402555
-0.000208584
0.000372141
-0.00377996
-0.000245222
0.000659091
-0.00327363
-0.000463901
0.000600379
-0.0031696
-0.000656686
0.000657221
-0.00216895
-0.000715286
0.000456071
-0.00404728
-8.08545e-05
0.000676827
-0.00436713
-0.000314246
0.000647047
-0.00389803
-0.000292143
9.81733e-05
-0.00270393
-0.000113788
0.000426702
-0.00314021
-0.000120104
0.000397502
-0.00263316
-0.000204918
0.000409453
-0.00287567
-0.000188807
0.000471451
-0.00271455
-0.000414582
0.000401414
-0.00203264
-0.00049109
0.000406664
-0.00168648
-0.000548476
0.000253793
-0.00437586
-4.90386e-05
0.000397884
-0.0044533
-0.000140242
0.000350448
-0.00311535
-0.000150174
0.000186522
-0.00248477
-6.24274e-05
0.000291226
-0.00242157
-4.22959e-05
0.000348344
-0.00183564
-0.000126046
0.000319862
-0.00205163
-0.000161221
0.000334265
-0.00217433
-0.000237025
0.000251681
-0.00227526
-0.000250243
0.000305595
-0.0011409
-0.000306533
0.000148502
-0.00102181
-0.000337781
0.000101734
-0.00242334
-0.000110464
0.000129194
-0.00232806
-7.21367e-05
0.000161175
-0.00207496
-2.66777e-05
0.000186499
-0.00255463
-3.1074e-05
0.000138974
-0.00187962
-4.063e-05
0.000143207
-0.0016656
-5.98455e-05
0.000152845
-0.000820085
-7.47404e-05
0.00010524
0.000510592
-7.46104e-05
9.58947e-05
-0.00063595
-7.6166e-05
0.000179462
-0.000717751
-7.57712e-05
0.000109708
-0.000510928
-7.97899e-05
6.52271e-05
0.000390475
-9.94546e-05
0.000636118
-0.00546456
0.0040335
0.00143931
-0.0056688
0.00370689
0.00126268
-0.00577307
0.00341143
0.00165544
-0.00562851
0.00367182
0.00221377
-0.00581267
0.00321033
0.00198237
-0.00537334
0.00295648
0.00246046
-0.00626866
0.00269675
0.00213511
-0.00609234
0.00270272
0.00216519
-0.00492278
0.00256576
0.002743
-0.00583705
0.001559
0.00184049
-0.00551818
0.00158537
0.00214012
-0.00638959
0.00203671
0.00195672
-0.00520205
0.00187937
0.00238932
-0.00542819
0.00115837
0.00221112
-0.00485952
0.000448554
0.00224962
-0.00618085
0.00167992
0.00160824
-0.00532446
0.00143268
0.00189734
-0.00465029
0.00104286
0.00218322
-0.00490318
0.000371258
0.000350849
-0.00410253
0.000431871
0.00201871
-0.00640557
0.00128479
0.00123467
-0.00524238
0.00117063
0.00152303
-0.00483836
0.000770064
0.00186702
-0.00445511
-6.394e-05
0.000909821
-0.00422748
-0.00061109
0.000339177
-0.00374067
-0.000697981
0.00158421
-0.00627575
0.00101647
0.00120215
-0.00536089
0.000674612
0.00117043
-0.00490575
0.000405066
0.00143421
-0.00427386
-0.00039594
0.000920814
-0.00397012
-0.000608628
0.000580624
-0.00397663
-0.000831425
0.000923233
-0.0033412
-0.0011632
0.00134834
-0.00633399
0.000634613
0.00104978
-0.00558077
0.000416902
0.000894847
-0.00537692
0.000320141
0.00103173
-0.00449031
-9.55095e-05
0.000998034
-0.00397681
-0.000625916
0.000513358
-0.00391957
-0.00067836
0.000853487
-0.00346816
-0.000928718
0.000922744
-0.00293541
-0.00117465
0.00113132
-0.00606139
0.000269562
0.000938844
-0.00536576
0.000222219
0.000935414
-0.00552623
0.000276379
0.000535944
-0.00485368
0.000194713
0.000560827
-0.00381594
-0.000255791
0.00054518
-0.00389375
-0.000591974
0.000644983
-0.00339239
-0.000712932
0.000785389
-0.0032543
-0.000892352
0.000769749
-0.00246818
-0.00113818
0.000711524
-0.00525159
0.000203834
0.000854742
-0.0052126
3.62729e-05
0.000909084
-0.00473753
-0.000112384
0.000199567
-0.00393291
-0.000208873
0.000476742
-0.00401854
-0.000153952
0.00031744
-0.00367966
-0.000228823
0.00062324
-0.00332505
-0.000407589
0.000543267
-0.00307566
-0.000629661
0.000608505
-0.00224186
-0.000790867
0.000597997
-0.00200105
-0.000915713
0.000457338
-0.00423512
-3.39529e-05
0.000601505
-0.00441678
-0.00023483
0.000666392
-0.00421044
-0.00031778
0.000103973
-0.00277248
-0.000141042
0.000256804
-0.00314308
-7.64962e-05
0.000362781
-0.00257583
-0.000191864
0.000374629
-0.00288384
-0.000251519
0.000591548
-0.00284196
-0.000318687
0.000346394
-0.00205073
-0.000491197
0.000439132
-0.00171177
-0.000599337
0.000333222
-0.00148183
-0.000674361
0.000208178
-0.00448434
-2.64725e-05
0.000372525
-0.00462661
-0.00011906
0.000392975
-0.00334438
-0.00014301
0.000143502
-0.00253573
-5.6218e-05
0.000237035
-0.00255304
-2.90218e-05
0.000371291
-0.00201273
-9.32902e-05
0.00033755
-0.00220772
-0.000154663
0.000227298
-0.00224381
-0.000213799
0.000179321
-0.00232978
-0.000265926
0.000307622
-0.00121409
-0.000305212
0.000137494
-0.000989113
-0.000367014
0.000143824
-0.000417234
-0.000404772
9.52735e-05
-0.00250053
-0.000107788
0.000124159
-0.00249085
-7.18327e-05
0.000158385
-0.00227916
-2.63173e-05
0.000170969
-0.00272064
-3.16366e-05
0.000133863
-0.00200494
-3.96143e-05
0.000133065
-0.00178009
-5.91966e-05
0.000151905
-0.000955387
-7.64495e-05
9.92068e-05
0.000412796
-7.61505e-05
0.000100171
-0.000736105
-7.46267e-05
0.000163512
-0.000883052
-7.43781e-05
0.000101516
-0.000609217
-7.89985e-05
7.65007e-05
0.000343326
-0.000109141
-4.58406e-06
0.000622505
-0.000120503
0.00100761
-0.00468712
0.00444539
0.00117793
-0.00520988
0.00412993
0.00179701
-0.00523235
0.00425348
0.0010087
-0.00552752
0.00372696
0.00143396
-0.0059683
0.0039586
0.00179661
-0.00544343
0.00373407
0.00157173
-0.00535328
0.00354685
0.00224865
-0.00591589
0.00375093
0.00201008
-0.00569588
0.0031739
0.00207701
-0.00529498
0.00322014
0.00267668
-0.00579881
0.00255294
0.00217431
-0.00641459
0.00253865
0.00206661
-0.00605632
0.00263868
0.00230962
-0.00524517
0.00267222
0.00261148
-0.00525083
0.00175738
0.00260993
-0.0056599
0.0013019
0.000747207
-0.00326367
0.000550371
0.00216942
-0.00614688
0.00216876
0.00188899
-0.00542719
0.0019811
0.00222647
-0.00508383
0.00120588
0.0028381
-0.00509231
0.000736281
0.00058568
-0.0036652
0.000538948
0.00214556
-0.00637813
0.0015968
0.00178759
-0.005686
0.00148854
0.00177391
-0.00464938
0.0011809
0.00243116
-0.00489489
0.000470428
0.000839711
-0.00400079
0.000339626
8.40085e-05
-0.00373692
0.000158263
0.00186079
-0.00637391
0.00112195
0.00141974
-0.00534048
0.0011653
0.00155597
-0.00492197
0.000868699
0.00172978
-0.00420857
0.000227955
0.00109058
-0.0041602
-0.000300994
0.000998498
-0.00402332
-0.000746318
0.00114852
-0.00316109
-0.00116266
0.00174228
-0.00644699
0.000995711
0.00154444
-0.00556749
0.000728413
0.00103699
-0.00489374
0.000520453
0.00162762
-0.00429971
-0.000164972
0.00135299
-0.00417656
-0.000544455
0.000273374
-0.00365486
-0.000690416
0.00104108
-0.00309131
-0.00126891
0.000909744
-0.00248999
-0.00156766
0.00138429
-0.00633681
0.000688913
0.00103842
-0.00557247
0.000526732
0.00102875
-0.0053996
0.00034625
0.000847451
-0.00455419
7.25125e-05
0.000940682
-0.00386555
-0.000586628
0.000535182
-0.00381416
-0.000721327
0.000960976
-0.00348536
-0.000977148
0.00100925
-0.00278752
-0.00130046
0.00105158
-0.00236011
-0.00152193
0.00115428
-0.00642139
0.000490509
0.000954882
-0.00546669
0.000270354
0.000933615
-0.00552173
0.000193188
0.000484077
-0.00495404
9.22305e-05
0.000650346
-0.00364959
-0.000145239
0.000432779
-0.00375838
-0.000506495
0.000646837
-0.00332825
-0.000679706
0.000628029
-0.0032036
-0.000848398
0.000819387
-0.00230551
-0.0012659
0.000714703
-0.00271204
-0.00132873
0.000673373
-0.00543288
0.000247639
0.000753792
-0.00526898
0.000107927
0.000900909
-0.004901
-3.47802e-05
0.000314885
-0.00426236
6.15898e-06
0.000204926
-0.00392504
-0.000250488
0.000285622
-0.00355184
-0.000204613
0.000548344
-0.00339426
-0.000333326
0.000595448
-0.00289862
-0.000588524
0.000641265
-0.00242938
-0.000737008
0.000582092
-0.00195731
-0.000977571
0.000421376
-0.00201138
-0.00100657
0.000428131
-0.0045656
0.000174377
0.000542582
-0.00447063
-0.000150164
0.000708583
-0.00448352
-0.00027735
9.38506e-05
-0.00294087
-9.97316e-05
0.000299778
-0.0032577
-8.91653e-05
0.000492266
-0.00261681
-0.00015649
0.000383454
-0.00292111
-0.000200493
0.000454838
-0.00295718
-0.00036383
0.000361921
-0.002082
-0.000470026
0.000437408
-0.0017524
-0.000580357
0.000330177
-0.0015402
-0.000733644
0.000259852
-0.00156855
-0.000736828
0.000167086
-0.00457717
1.27574e-05
0.00031969
-0.0047507
-9.79143e-05
0.000425235
-0.00360213
-0.000128156
0.000113012
-0.00257173
-4.906e-05
0.000226748
-0.00268175
-2.03951e-05
0.000344966
-0.00217892
-7.47375e-05
0.000339291
-0.00233977
-0.000148621
0.000247374
-0.00233428
-0.000212356
0.000225208
-0.00241401
-0.000254608
0.000292483
-0.00130389
-0.000305095
0.000109627
-0.000942655
-0.00035978
0.000162533
-0.000430168
-0.000440112
2.21253e-05
-0.000930163
-0.000426175
8.28788e-05
-0.00256524
-0.000105562
0.000122386
-0.00265032
-7.07056e-05
0.000156528
-0.00248258
-2.49407e-05
0.000159162
-0.00287515
-3.09629e-05
0.000129223
-0.00212819
-3.76114e-05
0.000121201
-0.00188263
-5.82805e-05
0.000151272
-0.00108811
-7.77422e-05
9.47972e-05
0.000319593
-7.80436e-05
9.00714e-05
-0.000827712
-7.46148e-05
0.000147044
-0.00103188
-7.28378e-05
9.75078e-05
-0.000702676
-7.8427e-05
8.65883e-05
0.000285607
-0.000107868
-8.32637e-06
0.000654425
-0.000132734
-3.25637e-05
-9.97712e-05
-0.000126066
0.000925375
-0.00475798
0.00442601
0.00119381
-0.00480979
0.00452182
0.00156736
-0.00502521
0.00446221
0.00103312
-0.00529654
0.00394975
0.00143416
-0.00523726
0.00413464
0.00168552
-0.00527849
0.00422971
0.00131324
-0.00530518
0.00428227
0.000961435
-0.00541601
0.00378496
0.00222414
-0.00596079
0.00393538
0.00192615
-0.00531816
0.00362371
0.00192694
-0.00537041
0.00390127
0.00268223
-0.0058697
0.00349513
0.0022288
-0.0063016
0.00358039
0.00198899
-0.00557964
0.00307492
0.00242308
-0.00546755
0.00323302
0.00248472
-0.00521711
0.0027652
0.00251594
-0.00627199
0.00250434
0.00127788
-0.00428839
0.00192364
0.00217547
-0.00605952
0.00261461
0.0021284
-0.00545728
0.00261137
0.00238138
-0.00508741
0.00235389
0.00338863
-0.005648
0.00119495
0.00124209
-0.00372882
0.00111064
0.0017064
-0.00321362
0.000218552
0.00193889
-0.0059927
0.00210327
0.0018503
-0.00561965
0.0022985
0.00197721
-0.00480864
0.00150261
0.00284549
-0.00492964
0.000628886
0.00116154
-0.00397299
0.000722234
3.89936e-05
-0.00371938
0.000632117
0.00193638
-0.00641505
0.00179308
0.00171236
-0.00607646
0.00169463
0.0019118
-0.0048205
0.00130384
0.00220985
-0.00475847
0.000564405
0.00150247
-0.00427469
0.000332432
0.00114244
-0.00362047
7.92375e-05
0.00153008
-0.0035457
-0.000346061
0.00173379
-0.00622857
0.00124683
0.00179219
-0.00549211
0.00102584
0.00120365
-0.00478831
0.00086497
0.00176267
-0.00405413
0.000579218
0.0017978
-0.0041469
-0.000230146
0.000206205
-0.00388839
-0.00036876
0.00128087
-0.00297977
-0.00116743
0.00118297
-0.00274431
-0.00134174
0.00155204
-0.00647783
0.00102637
0.00150603
-0.00576719
0.000727797
0.00120576
-0.00495135
0.000609016
0.00136687
-0.0042552
-4.34804e-05
0.001356
-0.0042621
-0.000494754
0.000591867
-0.00355577
-0.000700231
0.00147032
-0.00312309
-0.00116798
0.00120822
-0.00228346
-0.00167441
0.00119962
-0.00238091
-0.00186181
0.00142277
-0.00643635
0.00077266
0.00106955
-0.00554769
0.000549457
0.00103565
-0.00541782
0.000442919
0.000814197
-0.00465078
0.000112723
0.000991619
-0.00366796
-0.000466348
0.00042476
-0.00365034
-0.000742425
0.000830676
-0.00340149
-0.000989038
0.000903796
-0.00270638
-0.00133406
0.00113826
-0.00231162
-0.00166783
0.000784787
-0.00255121
-0.00170145
0.00107504
-0.0067294
0.000615143
0.00098812
-0.00561196
0.000401452
0.000910536
-0.00555462
0.000293616
0.000655915
-0.00503325
-6.86369e-05
0.000467547
-0.00366343
-0.000156556
0.000520279
-0.003748
-0.000390274
0.000617883
-0.00322418
-0.000680107
0.000657494
-0.00311155
-0.000833802
0.000895201
-0.00221621
-0.00119163
0.000550006
-0.00243189
-0.00151396
0.00036556
-0.00229888
-0.00141867
0.000727313
-0.00578527
0.000363365
0.00068834
-0.00533757
0.000170478
0.00090718
-0.00506256
7.08946e-05
0.000282079
-0.00442686
-5.85125e-05
0.000370626
-0.00387395
-0.000115788
0.000509948
-0.00359276
-0.000227254
0.000620027
-0.00350007
-0.000335377
0.000688153
-0.00292706
-0.000538202
0.000612282
-0.00255016
-0.000718111
0.000626299
-0.00190993
-0.00097328
0.000368451
-0.00192359
-0.00110364
0.000226653
-0.0017395
-0.00105958
0.000379541
-0.00475291
6.25852e-05
0.000427177
-0.00453503
0.000131288
0.000708024
-0.00471291
-0.000203566
0.000145936
-0.00309193
-0.000159213
0.000194574
-0.00334294
1.76765e-05
0.000485287
-0.0027124
-0.000133904
0.000363781
-0.00290259
-0.000199499
0.000458993
-0.00306347
-0.00030583
0.000381922
-0.00216701
-0.000435533
0.00042514
-0.00178805
-0.00056703
0.000249262
-0.00153589
-0.000724301
0.000221365
-0.00155846
-0.00080257
-1.85414e-05
-0.00121143
-0.00071945
0.000138898
-0.00461804
1.72905e-05
0.000296063
-0.00484935
-6.22748e-05
0.000458009
-0.00389865
-0.000102883
0.000136043
-0.00262427
-5.24908e-05
0.000195955
-0.00279101
-6.53113e-06
0.000340741
-0.0023573
-6.15555e-05
0.000346008
-0.0024657
-0.000143544
0.000198646
-0.00237913
-0.000207621
0.000212883
-0.00249396
-0.000255223
0.000270022
-0.00137657
-0.000304901
8.71074e-05
-0.00088696
-0.00035039
0.000179224
-0.000451378
-0.000431206
-7.35688e-06
-0.000901877
-0.000469368
-6.7142e-05
-0.000487251
-0.000421838
6.7337e-05
-0.0026141
-0.00010412
0.000109349
-0.00279643
-6.88063e-05
0.000146497
-0.0026762
-2.35856e-05
0.000161669
-0.0030318
-2.99624e-05
0.000122301
-0.00224377
-3.76853e-05
0.000115122
-0.00197953
-5.58297e-05
0.000147334
-0.00121544
-7.82908e-05
8.98663e-05
0.000232201
-8.02174e-05
8.79123e-05
-0.0009186
-7.50682e-05
0.000131829
-0.00116641
-7.19227e-05
9.3122e-05
-0.000790467
-7.81687e-05
9.38927e-05
0.00022025
-0.000106963
-1.30566e-05
0.000692039
-0.000132426
-4.03702e-05
-5.33497e-05
-0.000138785
-6.96867e-05
0.000378705
-0.000128138
0.000656626
-0.00442182
0.00456049
0.000886046
-0.00471566
0.00449039
0.00126634
-0.00479233
0.00469828
0.0013039
-0.0053107
0.00431372
0.00138853
-0.0047581
0.00430034
0.00153941
-0.00545317
0.00459887
0.00172228
-0.00579149
0.00416196
0.00119304
-0.00534959
0.00383047
0.00214341
-0.00521305
0.00414994
0.00122216
-0.00568527
0.00439789
0.00209443
-0.00541756
0.00385157
0.00171533
-0.00524977
0.00432765
0.00222873
-0.00562004
0.00389771
0.00220804
-0.00593329
0.00398492
0.00169964
-0.00505523
0.00360228
0.00224778
-0.00552651
0.00395511
0.00181934
-0.00504225
0.00373919
0.00237798
-0.006229
0.00356049
0.00148538
-0.00558314
0.00328893
0.0022121
-0.00568062
0.00308769
0.00189351
-0.00552922
0.00337147
0.00274203
-0.00520181
0.00285706
0.00328182
-0.00576775
0.00236777
0.00169922
-0.00466441
0.00242322
0.0016579
-0.00340801
0.00137864
0.00154995
-0.00576081
0.00282321
0.00211663
-0.00575197
0.00264298
0.00196994
-0.0048718
0.00240304
0.0030838
-0.00536178
0.00182936
0.00199215
-0.00435647
0.000991987
0.000316355
-0.00343559
0.00105525
0.00162337
-0.00382469
0.000523857
0.00203971
-0.00604767
0.00219681
0.00183481
-0.00606586
0.00242703
0.00189879
-0.0044928
0.00199568
0.0027626
-0.00499719
0.00101741
0.00192698
-0.00430819
0.000539577
0.000976061
-0.00325836
0.000427597
0.00152929
-0.00367384
0.000472614
0.00155138
-0.00620208
0.00175477
0.00175585
-0.00603011
0.00178308
0.0014913
-0.00491614
0.00150262
0.00198196
-0.00460142
0.000927501
0.00212034
-0.00423007
0.000197237
0.000550142
-0.003945
0.000313022
0.00152613
-0.00353188
-0.000179845
0.00159684
-0.00224882
-0.000568323
0.00167247
-0.00624852
0.00138819
0.00178316
-0.00569217
0.00116976
0.00118441
-0.00468363
0.000942518
0.0016263
-0.00403792
0.000589332
0.00196183
-0.0042337
6.01795e-05
0.000745568
-0.0037311
-0.00054113
0.00174089
-0.00264301
-0.000976086
0.00124264
-0.00262189
-0.00132427
0.0011955
-0.00264649
-0.00141239
0.0014008
-0.00634951
0.00110471
0.00134918
-0.00583227
0.00081183
0.00114051
-0.00492667
0.000598241
0.00137533
-0.00428852
8.11964e-05
0.00138896
-0.00412282
-0.000580099
0.000464887
-0.00348271
-0.000607936
0.00107941
-0.00307126
-0.0010008
0.00131924
-0.00231745
-0.00154943
0.00123325
-0.00224282
-0.00190749
0.000505007
-0.00269626
-0.00189258
0.00142248
-0.00660794
0.000785136
0.00120166
-0.00564934
0.00066077
0.00104979
-0.00553648
0.000528863
0.000876058
-0.00459307
0.000165063
0.000853979
-0.00359754
-0.000344134
0.000725929
-0.0036861
-0.000636242
0.000820098
-0.00340951
-0.000936622
0.000885643
-0.00260954
-0.00131402
0.00111143
-0.00221166
-0.00165024
0.000706322
-0.00252421
-0.00185114
0.000283536
-0.00308334
-0.00173944
0.00103971
-0.00686589
0.00057821
0.000996212
-0.00575542
0.000450731
0.000933657
-0.00548166
0.000302016
0.000499391
-0.00514197
0.000185025
0.000474829
-0.00363161
-0.000204651
0.000470316
-0.0035082
-0.00035673
0.000904926
-0.00329705
-0.000602303
0.000745951
-0.00300343
-0.000846018
0.000894067
-0.00218698
-0.00114482
0.000581249
-0.00215664
-0.00142184
0.000164843
-0.00206276
-0.00154647
2.17312e-05
-0.00200176
-0.00137267
0.000731285
-0.00617781
0.000372586
0.000665135
-0.00559214
0.000379977
0.000845355
-0.00513025
0.000100837
0.000358228
-0.00454679
-2.14681e-05
0.000236744
-0.00381403
-0.000160595
0.000525995
-0.00350931
-0.000239949
0.000458608
-0.00344253
-0.000379624
0.000569713
-0.00279567
-0.000577493
0.000590612
-0.00255974
-0.00073731
0.000631778
-0.00187419
-0.000960483
0.000258911
-0.0017874
-0.00111912
0.000165439
-0.00161435
-0.00117287
-6.15833e-05
-0.00121453
-0.00103125
0.000368833
-0.00507869
0.000184045
0.000379907
-0.00458049
2.42076e-05
0.000748937
-0.00481304
-5.95107e-05
0.000228325
-0.00326853
-0.000119253
9.56762e-05
-0.00331977
-8.20997e-05
0.000548795
-0.00286592
-3.68493e-05
0.000385937
-0.00287314
-0.000203287
0.000367121
-0.00312672