/*--------------------------------*- C++ -*----------------------------------*\
  =========                 |
  \\      /  F ield         | OpenFOAM: The Open Source CFD Toolbox
   \\    /   O peration     | Website:  https://openfoam.org
    \\  /    A nd           | Version:  7
     \\/     M anipulation  |
\*---------------------------------------------------------------------------*/
FoamFile
{
    version     2.0;
    format      ascii;
    class       volVectorField;
    location    "5.5";
    object      U;
}
// * * * * * * * * * * * * * * * * * * * * * * * * * * * * * * * * * * * * * //

dimensions      [0 1 -1 0 0 0 0];

internalField   nonuniform List<vector> 
18780
(
(0.548217 -0.904057 -2.22664)
(1.20388 -1.21933 -1.78044)
(0.562681 -1.02805 -2.23862)
(0.454954 -0.713004 -2.4429)
(1.05594 -0.616448 -1.32486)
(1.18085 -1.31637 -1.89586)
(1.31383 -0.920219 -1.78015)
(0.551649 -1.04739 -2.34146)
(0.441355 -0.780619 -2.36725)
(0.129881 -0.979723 -2.31588)
(1.48295 -0.6948 -1.18961)
(1.09016 -1.05261 -1.40796)
(1.25931 -0.3953 -0.978281)
(1.17517 -1.52525 -1.92336)
(1.30902 -0.901777 -1.90643)
(1.10807 -0.921953 -1.54501)
(0.553878 -1.09184 -2.43239)
(0.456139 -0.821044 -2.32374)
(0.148406 -1.14794 -2.2226)
(0.347976 -1.68909 -1.23218)
(2.21254 -0.40652 -1.04117)
(1.43942 -1.09741 -1.36227)
(1.60834 0.478167 -0.540366)
(1.1 -1.40227 -1.521)
(1.18958 -0.717195 -1.12187)
(1.33229 -0.779101 -1.06762)
(1.168 -1.65757 -1.89598)
(1.31584 -1.02716 -2.00841)
(1.11074 -1.00354 -1.4844)
(0.736191 -1.7586 -1.31877)
(0.544286 -1.17004 -2.49465)
(0.458548 -0.904618 -2.32219)
(0.144505 -1.32767 -2.04941)
(0.357106 -1.85469 -1.13289)
(0.366835 -1.15888 -1.26242)
(2.8367 -0.61166 0.109751)
(2.30668 -0.837994 -0.684042)
(2.02361 0.202223 -0.65515)
(1.45893 -1.58491 -1.42198)
(1.60661 -0.557548 -1.00368)
(1.64773 -0.492949 -0.652765)
(1.14018 -1.58215 -1.58369)
(1.21196 -0.981093 -1.24524)
(1.35076 -0.741107 -1.02385)
(1.38886 -1.11273 -1.57655)
(1.16029 -1.75998 -1.69423)
(1.2989 -1.29579 -1.99944)
(1.09749 -1.14746 -1.39995)
(0.719789 -1.76886 -1.23132)
(0.594298 -1.81367 -1.22304)
(0.531403 -1.22383 -2.54075)
(0.467874 -0.907398 -2.39151)
(0.13471 -1.47614 -1.82028)
(0.353983 -2.02634 -1.00846)
(0.389206 -1.20216 -1.19272)
(0.433236 -1.22068 -1.06361)
(3.0114 -0.702248 1.14082)
(2.88746 -1.29942 -0.210607)
(2.37776 -0.407088 0.382698)
(2.475 -1.53335 -0.176537)
(2.28571 -0.385165 0.0843612)
(2.01899 -0.703354 -0.434366)
(1.33523 -2.14764 -1.41402)
(1.58771 -1.40159 -1.4267)
(1.58119 -0.422672 -0.812784)
(1.92467 -1.02174 -0.416419)
(1.19406 -1.73071 -1.44856)
(1.27397 -1.23238 -1.40814)
(1.18807 -0.765024 -1.18317)
(1.32141 -1.30175 -1.26592)
(1.5969 -1.19198 -1.2304)
(1.16129 -1.85852 -1.38699)
(1.27623 -1.49409 -1.90673)
(1.07504 -1.19707 -1.37608)
(0.737478 -1.70154 -1.20462)
(0.570508 -1.96335 -1.01584)
(0.571046 -1.32644 -1.61325)
(0.520753 -1.25916 -2.55161)
(0.495601 -0.882144 -2.46498)
(0.118494 -1.59438 -1.54347)
(0.337253 -2.15859 -0.889828)
(0.397216 -1.2738 -1.11541)
(0.433091 -1.19235 -0.979785)
(0.0646824 -1.01559 -1.65217)
(2.8323 -0.91845 1.69614)
(2.77432 -1.19342 1.13442)
(2.25565 -0.957521 1.03621)
(2.95541 -1.57112 0.123083)
(2.44688 -0.657391 0.480658)
(2.21353 -0.699163 -0.251957)
(2.34097 -2.02291 -0.343982)
(2.14696 -1.34654 -0.504742)
(2.0059 -0.462447 -0.214959)
(2.27265 -1.12309 -0.0479212)
(1.32427 -2.35354 -1.35567)
(1.6069 -1.70552 -1.29396)
(1.61386 -0.445111 -0.687285)
(1.94143 -0.865178 -0.902965)
(2.05525 -0.531427 -1.06959)
(1.19056 -1.89582 -1.23321)
(1.3018 -1.56886 -1.65189)
(1.24589 -0.750757 -1.0192)
(1.22723 -1.23866 -1.17761)
(1.55092 -1.22432 -1.1999)
(1.4442 -0.864253 -1.38423)
(1.14571 -1.97572 -1.06272)
(1.24732 -1.77784 -1.64488)
(1.04071 -1.20482 -1.35647)
(0.709313 -1.70397 -1.10701)
(0.546471 -1.96838 -0.626714)
(0.539978 -1.34568 -1.56693)
(0.712276 -1.317 -1.49105)
(0.509616 -1.29123 -2.54114)
(0.504378 -0.952732 -2.50378)
(0.108273 -1.64748 -1.27225)
(0.327676 -2.21903 -0.81327)
(0.407711 -1.33439 -1.0521)
(0.433937 -1.15478 -0.909754)
(0.0753512 -1.03727 -1.66265)
(-0.446994 -0.807602 -1.59075)
(2.55136 -1.45424 1.9943)
(2.66843 -1.28446 1.80141)
(2.33831 -1.45543 0.518692)
(2.66103 -1.50082 1.07973)
(2.56359 -0.784746 0.196828)
(2.16512 -1.28062 -0.109803)
(2.77667 -1.79773 0.725687)
(2.58782 -0.919637 0.268828)
(2.21281 -0.714435 0.00475874)
(2.23653 -1.41146 -0.896738)
(2.15506 -2.29931 -0.552381)
(2.05791 -1.96594 -0.804282)
(2.04899 -0.730587 0.208209)
(2.28549 -0.848824 -0.0911936)
(2.2585 -1.0055 -1.11339)
(1.41735 -2.34075 -1.12812)
(1.68669 -2.33109 -0.495734)
(1.57613 -1.02236 -0.31778)
(1.89989 -0.8728 -0.844595)
(2.09442 -0.97699 -0.591677)
(1.87319 -0.83798 -1.31236)
(1.15329 -2.01686 -1.06087)
(1.28337 -2.02826 -1.64826)
(1.25519 -0.739075 -0.987058)
(1.1714 -1.19057 -1.0562)
(1.41226 -1.68551 -0.706751)
(1.31126 -1.02897 -1.34023)
(1.25568 -1.08916 -1.39032)
(1.13877 -2.07374 -0.737455)
(1.22583 -1.92302 -1.47286)
(1.02415 -1.22177 -1.35377)
(0.712757 -1.68189 -1.04033)
(0.589612 -1.80648 -0.422692)
(0.519756 -1.43454 -1.45534)
(0.724884 -1.31463 -1.45183)
(0.839853 -1.04053 -1.55063)
(0.440808 -1.43717 -2.46069)
(0.503219 -1.05394 -2.51973)
(0.120815 -1.64069 -1.02665)
(0.307123 -2.29193 -0.607477)
(0.406105 -1.43821 -0.901818)
(0.435511 -1.1129 -0.881645)
(0.0738347 -1.07463 -1.64506)
(-0.439232 -0.787801 -1.57403)
(0.145369 -1.09394 -1.72658)
(2.87579 -1.09848 2.55567)
(2.79907 -1.0529 2.29443)
(2.81679 -1.21489 2.06488)
(2.48706 -1.4246 1.47156)
(2.61395 -1.55305 1.82489)
(2.31648 -1.41999 0.601339)
(2.34618 -1.27934 0.0866864)
(2.56657 -2.09772 1.02866)
(2.42124 -1.23336 0.999552)
(2.13223 -1.40925 0.19513)
(2.31101 -1.28972 -0.887773)
(2.64518 -2.07167 0.898256)
(2.58581 -1.55972 -0.332436)
(2.26176 -0.803319 1.07643)
(2.22942 -1.15205 -0.708381)
(2.11993 -1.31626 -1.07797)
(1.98321 -2.5454 -0.0122391)
(2.0442 -2.16606 -0.502738)
(2.2242 -1.10434 0.538252)
(2.24896 -0.871613 0.183926)
(1.90012 -1.75405 -0.729199)
(2.02856 -0.780083 -1.68716)
(1.4621 -2.32716 -0.535922)
(1.67479 -2.60644 -0.218246)
(1.55228 -1.45861 -0.286942)
(1.83395 -0.75491 -0.708509)
(1.88401 -1.019 -0.733372)
(1.87601 -0.594614 -1.14733)
(1.59899 -1.02719 -1.67152)
(1.10224 -2.17055 -0.640023)
(1.20942 -2.43119 -1.50916)
(1.3497 -0.798035 -0.933364)
(1.11319 -1.13382 -1.01268)
(1.20539 -1.65129 -0.750657)
(1.24766 -1.10607 -1.29283)
(1.19844 -1.11057 -1.15379)
(1.24526 -1.20873 -1.73608)
(1.1625 -2.09492 -0.478411)
(1.13692 -2.28169 -1.04552)
(0.890693 -1.51421 -1.28855)
(0.65032 -1.73396 -0.891133)
(0.637261 -1.63128 -0.362381)
(0.489617 -1.54514 -1.34913)
(0.718327 -1.44432 -1.29441)
(0.853249 -0.952654 -1.55229)
(1.0223 -1.26919 -1.56034)
(0.395644 -1.50549 -2.38499)
(0.496833 -1.13679 -2.526)
(0.154627 -1.60052 -0.826318)
(0.307123 -2.27491 -0.592992)
(0.394462 -1.43673 -0.872055)
(0.452696 -1.10258 -0.900319)
(0.0748627 -1.11169 -1.60542)
(-0.435259 -0.754168 -1.56245)
(0.147549 -1.06142 -1.64685)
(0.178749 -1.44902 -1.72042)
(2.93297 -1.02404 2.76074)
(2.79369 -1.66488 2.4195)
(2.75004 -1.36828 2.69597)
(2.76136 -1.83396 2.21948)
(2.49661 -1.60387 2.07758)
(2.62957 -1.99756 2.06405)
(2.42659 -1.46291 1.41467)
(2.55848 -1.42924 0.31554)
(2.62704 -2.28831 1.58841)
(2.2117 -1.45698 1.17622)
(2.16379 -1.67269 0.616018)
(2.53985 -1.53485 -0.392283)
(2.42065 -2.54635 1.31757)
(2.59323 -1.25239 0.747987)
(1.99889 -1.58277 0.794582)
(2.08801 -1.60013 -0.697763)
(1.97509 -0.426577 -1.52862)
(2.43989 -2.49535 0.922262)
(2.39376 -2.06767 0.237902)
(2.30134 -1.13728 1.23618)
(2.09503 -1.23797 -0.117449)
(1.92033 -1.2356 -1.21589)
(2.11443 -0.773115 -1.02162)
(2.03155 -2.55586 0.585826)
(1.98199 -2.30359 0.15174)
(2.15647 -1.75492 0.0780576)
(1.97204 -1.07781 0.868649)
(2.07988 -0.0540759 -1.57342)
(1.59192 -1.2056 -1.75139)
(1.67703 -0.984223 -1.66748)
(1.47229 -2.29295 0.0143396)
(1.69487 -2.64229 -0.164222)
(1.48499 -2.05043 -0.422714)
(1.76183 -0.804316 -0.537301)
(1.91937 -0.815859 -0.843549)
(1.7506 -0.653693 -0.996252)
(1.51173 -1.29964 -1.41261)
(1.56431 -0.950971 -1.70041)
(1.09583 -2.13511 -0.343182)
(1.19561 -2.55747 -1.34354)
(1.24815 -1.45849 -1.08283)
(1.11105 -0.9887 -1.03827)
(1.16197 -1.71621 -0.43804)
(1.25023 -1.18839 -1.2593)
(1.23661 -1.12679 -0.926377)
(1.25486 -1.31035 -1.61374)
(0.996317 -1.08623 -1.84989)
(1.19009 -2.07983 -0.286934)
(1.11133 -2.36173 -0.911624)
(0.802548 -1.72892 -1.27226)
(0.65009 -1.63995 -0.875914)
(0.673743 -1.53993 -0.230923)
(0.296773 -1.88931 -0.775299)
(0.674284 -1.60285 -1.05296)
(0.87117 -0.952545 -1.48673)
(1.01021 -1.16141 -1.65476)
(0.571979 -1.32838 -1.81366)
(0.438631 -1.41134 -2.38771)
(0.480844 -1.23778 -2.5076)
(0.201143 -1.5528 -0.68673)
(0.323565 -2.23899 -0.56468)
(0.416318 -1.40712 -0.888298)
(0.461085 -1.14206 -0.921484)
(0.069177 -1.12181 -1.57728)
(-0.426918 -0.703176 -1.56673)
(0.152302 -0.990756 -1.59275)
(0.188318 -1.40143 -1.7154)
(0.221082 -1.09212 -1.49286)
(2.9336 -0.830692 2.86384)
(2.86489 -1.20582 2.71389)
(2.92659 -1.11431 3.02239)
(2.78698 -1.69248 2.49699)
(2.58683 -1.40957 2.6112)
(3.18359 -1.68891 1.91552)
(2.80904 -1.59085 2.45222)
(2.44728 -1.69913 2.0835)
(2.86034 -1.89288 0.925341)
(2.78766 -2.35511 1.6051)
(2.2625 -1.45589 1.92472)
(2.37269 -1.6236 1.03037)
(2.30609 -1.44863 0.0596321)
(2.5645 -2.70103 1.58421)
(2.07656 -1.46917 1.77574)
(2.11735 -1.80744 0.899882)
(2.33118 -1.70111 0.0889551)
(2.20145 -0.781523 -0.822841)
(2.50988 -2.42231 1.70466)
(2.34916 -1.74072 0.632822)
(2.15513 -1.48422 1.04386)
(2.04398 -1.69081 -0.599403)
(1.88933 -0.950917 -1.28773)
(2.0747 -0.375458 -0.863441)
(2.22837 -2.81871 1.16865)
(2.22041 -2.25306 0.742302)
(2.4919 -1.24227 0.81733)
(1.98146 -1.16298 0.144082)
(1.93289 -1.09497 -1.28968)
(1.71128 -1.0417 -1.42116)
(1.65051 -1.21095 -1.5824)
(1.89487 -2.78375 0.557932)
(1.85539 -2.49571 0.375022)
(2.0823 -2.1827 0.337152)
(2.02941 -1.07627 0.514214)
(1.65315 -1.609 -0.27053)
(2.02828 -0.897735 -1.25011)
(1.69517 -0.985312 -1.67334)
(1.70348 -1.10088 -1.57458)
(1.56105 -2.25214 0.378864)
(1.62342 -2.67715 0.0648704)
(1.36673 -2.57312 -0.536228)
(1.77053 -0.796084 -0.230996)
(1.86732 -1.0771 -0.694857)
(1.78159 -0.888715 -0.606682)
(1.45163 -1.5658 -1.01025)
(1.59749 -1.00667 -1.72038)
(1.13122 -1.37863 -1.93962)
(1.05157 -2.0738 -0.122754)
(1.02216 -2.63589 -0.945268)
(1.19577 -1.9374 -1.45121)
(1.14457 -0.817036 -1.00246)
(1.13266 -1.64467 -0.0598458)
(0.925363 -1.64783 -0.968767)
(1.21076 -1.14811 -0.856405)
(1.28329 -1.46986 -1.43459)
(0.98323 -1.04783 -1.89908)
(0.855625 -1.02133 -2.09432)
(1.20454 -2.07181 -0.103315)
(1.08713 -2.42955 -0.790015)
(0.720897 -1.90791 -1.25704)
(0.670086 -1.54052 -0.872724)
(0.698151 -1.49652 -0.0804307)
(0.447441 -1.63831 -0.891268)
(0.639996 -1.58453 -0.987536)
(0.912528 -0.977486 -1.41047)
(1.01382 -1.11071 -1.68672)
(0.501199 -1.41506 -1.81405)
(0.520313 -0.396545 -2.37376)
(0.417924 -1.43046 -2.34012)
(0.454842 -1.33359 -2.48928)
(0.259055 -1.51887 -0.613835)
(0.288954 -2.19069 -0.519418)
(0.393182 -1.41865 -0.842329)
(0.450721 -1.16437 -0.926541)
(0.0739342 -1.13329 -1.57651)
(-0.421224 -0.665405 -1.5816)
(0.14972 -0.916885 -1.57449)
(0.194437 -1.31812 -1.68245)
(0.210936 -1.15606 -1.47798)
(-0.171031 -0.510972 -1.88692)
(2.87457 0.197916 2.87858)
(2.80578 -0.664734 2.84354)
(3.05545 -0.861746 2.7126)
(2.93618 -0.862031 3.14817)
(2.81463 -1.36334 2.80187)
(2.45728 -1.29367 3.12158)
(3.38747 -1.54161 2.50289)
(2.74565 -1.75785 2.5491)
(2.27744 -1.76583 2.67659)
(2.9404 -1.94103 1.78874)
(2.66467 -0.852297 2.17585)
(2.79373 -2.19837 2.01525)
(2.38045 -1.66392 2.31247)
(2.65076 -1.71284 1.68272)
(2.32426 -1.61789 0.531064)
(2.21503 -2.73098 2.01889)
(2.28017 -1.70455 1.8895)
(2.10777 -1.7921 1.43906)
(2.30955 -1.81293 0.435982)
(1.99747 -0.249063 0.541464)
(2.35472 -2.96637 1.79146)
(2.34677 -1.40363 1.82598)
(2.15172 -1.6574 1.17516)
(2.04269 -1.92564 0.67675)
(2.06154 -0.992591 -1.03324)
(1.89804 -0.497013 -0.456662)
(2.34504 -2.55756 1.94479)
(2.15475 -1.97038 1.01023)
(1.96071 -1.77186 1.19871)
(1.91266 -1.9054 -0.497434)
(1.83519 -1.16067 -1.02537)
(1.98919 -0.580082 -0.883532)
(1.67211 -1.1704 -1.61721)
(2.23852 -2.78052 1.47567)
(2.1285 -2.22079 0.956494)
(2.14541 -2.01553 0.490063)
(1.94484 -1.28925 0.471621)
(1.81917 -1.48568 -1.00753)
(1.8924 -0.839933 -1.21133)
(1.66773 -1.20148 -1.33199)
(1.43571 -1.07184 -1.97616)
(1.73408 -3.05647 0.601694)
(1.70436 -2.69701 0.316053)
(2.05624 -2.3171 0.643874)
(2.0485 -1.42337 0.689389)
(1.73715 -1.05247 -0.242979)
(1.70916 -1.17511 -1.25715)
(1.57841 -1.16238 -1.61293)
(1.4191 -1.33069 -1.64862)
(1.1058 -1.19641 -2.66584)
(1.63153 -2.33985 0.871159)
(1.52657 -2.62362 0.523788)
(1.22267 -2.844 -0.798546)
(1.74675 -0.781443 -0.269412)
(1.59493 -1.51647 -0.321907)
(1.63513 -1.01099 -0.586818)
(1.39287 -1.46948 -0.817651)
(1.38239 -1.18516 -1.75827)
(0.961593 -1.07725 -2.15355)
(1.00381 -1.15503 -2.6808)
(1.08294 -2.05773 0.0180475)
(0.955103 -2.60968 -0.54481)
(1.12734 -2.2072 -1.77075)
(1.13622 -0.728819 -0.992534)
(1.02866 -1.50298 0.0619464)
(0.884246 -1.50824 -0.953878)
(1.18188 -1.2947 -0.758487)
(0.902245 -2.02074 -0.724962)
(0.896909 -0.94742 -2.02959)
(0.791515 -0.913185 -2.10971)
(0.732022 -0.773781 -2.89561)
(1.22216 -2.05967 0.0298216)
(1.04845 -2.49893 -0.615012)
(0.622268 -2.09963 -1.21976)
(0.651988 -1.47372 -0.834855)
(0.694863 -1.48725 -0.0234121)
(0.394302 -1.69647 -0.531023)
(0.627942 -1.61748 -0.888701)
(0.857555 -1.11611 -1.29197)
(1.03091 -0.660281 -1.89106)
(0.437368 -1.4634 -1.8023)
(0.489263 -0.287986 -2.38487)
(0.223262 -0.535219 -2.83753)
(0.339154 -1.49605 -2.2685)
(0.438663 -1.40018 -2.48007)
(0.308145 -1.48998 -0.592788)
(0.283241 -2.15161 -0.555919)
(0.359056 -1.40818 -0.820426)
(0.414711 -1.17984 -0.900121)
(0.0712621 -1.15876 -1.62032)
(-0.418621 -0.648262 -1.60569)
(0.151045 -0.87449 -1.59149)
(0.208669 -1.24732 -1.61658)
(0.179413 -1.17835 -1.50098)
(-0.187252 -0.507932 -1.87081)
(-0.290679 0.107502 -2.67404)
(2.21972 -0.119134 3.19027)
(2.42518 -0.58213 3.05901)
(2.6368 -0.751762 3.03213)
(2.73817 -0.574116 2.85523)
(2.92155 -0.697039 3.01402)
(2.48659 -1.60782 2.89861)
(2.5653 -1.32384 3.21596)
(2.86999 -1.34873 3.20775)
(2.6248 -1.75661 2.71542)
(2.65647 -1.37154 2.73039)
(2.8771 -2.06007 2.4276)
(3.35793 -1.40939 2.41191)
(2.67844 -2.00619 2.40747)
(2.37686 -1.76109 2.56694)
(2.64495 -2.07658 2.08705)
(2.83658 -1.81068 1.33525)
(1.72938 -0.0806809 1.22777)
(2.62682 -2.34925 2.14305)
(2.32648 -1.78746 2.29508)
(2.3571 -1.85384 1.60781)
(2.43075 -1.95178 0.692212)
(1.69959 -0.252299 0.546977)
(2.6074 -2.65764 1.70376)
(2.26597 -2.08113 2.00435)
(2.01869 -1.94393 1.44473)
(2.20318 -2.03373 0.989992)
(1.92111 -0.882026 0.466232)
(1.9855 -0.0594992 0.607827)
(2.34667 -2.90779 1.8049)
(2.12998 -2.04528 1.75525)
(2.04446 -1.74656 1.31319)
(1.86366 -1.9348 0.918616)
(1.9919 -1.21714 -0.875198)
(1.80814 -0.829018 -0.542923)
(1.63562 -0.903811 -1.60906)
(2.10038 -2.99316 1.83214)
(2.04129 -2.24568 1.31608)
(2.0141 -1.69392 1.12117)
(1.48005 -2.18633 0.10047)
(1.7327 -1.59974 -0.776125)
(1.75417 -0.785126 -0.816621)
(1.56985 -1.07182 -1.64534)
(1.30177 -1.35559 -2.35642)
(1.93872 -3.01712 1.56984)
(2.00929 -2.26251 0.964414)
(1.9931 -2.33803 0.588795)
(1.8446 -1.51622 0.750352)
(1.6285 -1.49468 -0.845806)
(1.74039 -1.07855 -1.3103)
(1.61416 -1.14064 -1.3288)
(1.35355 -1.17014 -2.04959)
(1.22358 -1.3177 -2.87302)
(1.69678 -3.1002 1.15505)
(1.5355 -2.85106 0.687363)
(1.87989 -2.48068 0.716501)
(2.01986 -1.53086 0.655643)
(1.48545 -1.39293 0.242262)
(1.68604 -1.0545 -0.963508)
(1.40826 -1.3277 -1.48361)
(1.50088 -1.18317 -1.58602)
(1.24802 -1.24278 -2.45472)
(1.58137 -1.15424 -3.10571)
(1.40716 -2.62895 0.837117)
(1.50179 -2.52705 0.387555)
(1.14091 -2.95003 -0.305062)
(1.74411 -1.13729 0.114504)
(1.72943 -0.936177 -0.933219)
(1.51784 -1.15196 -0.636529)
(1.35522 -1.32797 -0.743164)
(1.25728 -1.36745 -1.62797)
(1.06479 -1.04546 -1.94759)
(0.919591 -1.3588 -2.51304)
(1.0068 -1.02719 -3.21372)
(1.21031 -2.0636 0.31887)
(0.981275 -2.63826 -0.292854)
(0.994986 -2.58248 -1.49605)
(1.26817 -0.662758 -0.912427)
(1.18905 -1.30775 -0.166414)
(0.71291 -1.74418 -0.726739)
(1.0173 -1.55268 -0.682486)
(1.25486 -1.19095 -1.32404)
(0.852464 -1.05041 -1.96066)
(0.778524 -0.968058 -2.00915)
(0.727518 -0.774263 -2.86442)
(0.772594 -0.590952 -3.29568)
(1.24207 -2.0441 0.152335)
(0.989908 -2.56336 -0.424955)
(0.497255 -2.33348 -1.09541)
(0.632104 -1.40577 -0.787208)
(0.675674 -1.53777 0.0229784)
(0.419067 -1.59647 -0.396656)
(0.572 -1.68433 -0.792632)
(0.867965 -1.07605 -1.30299)
(1.0064 -0.941315 -1.69377)
(0.412278 -1.36248 -1.83974)
(0.468433 -0.155507 -2.39548)
(0.192708 -0.630368 -2.76621)
(0.457427 -0.0660545 -3.30341)
(0.307484 -1.49843 -2.2165)
(0.399223 -1.47041 -2.46026)
(0.314421 -1.48577 -0.585261)
(0.293549 -2.13678 -0.566301)
(0.373075 -1.41624 -0.815507)
(0.419636 -1.20088 -0.883833)
(0.0434791 -1.19334 -1.63211)
(-0.415421 -0.636291 -1.64863)
(0.162625 -0.844619 -1.65166)
(0.224131 -1.19007 -1.54345)
(0.14598 -1.18987 -1.5187)
(-0.194885 -0.548263 -1.82806)
(-0.297623 0.113651 -2.67994)
(0.0456694 0.323969 -2.86683)
(2.3058 -0.249128 2.76832)
(2.24927 -0.309612 3.08504)
(2.56439 -0.471889 2.8767)
(2.58106 -0.496659 2.82368)
(2.50912 -0.525197 2.98266)
(2.85398 -0.594697 3.03825)
(2.53954 -0.673525 2.90567)
(2.84247 -0.455928 3.05912)
(3.02066 -0.864076 3.13444)
(2.53111 -1.31608 2.84268)
(2.63248 -1.36866 2.96953)
(2.93512 -1.46441 2.87668)
(3.19995 -1.06847 3.11568)
(2.46145 -1.73781 2.76418)
(2.36032 -1.9176 2.6924)
(2.54913 -1.7913 2.76345)
(3.09831 -1.96786 2.23458)
(2.23096 -0.642109 2.44647)
(2.54906 -2.24175 2.39108)
(2.18391 -1.91663 2.62477)
(2.31131 -1.96513 2.49169)
(2.62129 -2.38855 1.1143)
(1.61142 -0.616865 1.44136)
(1.36177 -1.48693 -0.104728)
(2.28752 -2.64297 2.09296)
(2.22745 -2.10283 2.46986)
(2.18224 -1.76634 1.89318)
(2.13886 -2.50351 0.875548)
(1.80121 -0.59445 0.883147)
(1.907 0.0403888 0.704115)
(2.28168 -2.71013 2.26043)
(2.4307 -2.17512 2.06003)
(1.78987 -2.20559 1.53457)
(2.08205 -2.01553 1.33073)
(1.91194 -1.27353 0.115996)
(1.6027 -1.11881 0.362271)
(1.7272 -1.32733 -0.177706)
(1.95557 -3.07572 1.86581)
(1.79882 -2.80145 1.29905)
(1.9582 -1.80918 1.41763)
(1.47332 -2.17879 1.08055)
(1.64846 -1.98305 -0.338358)
(2.00662 -0.187413 0.117796)
(1.53716 -1.21199 -1.44102)
(1.43897 -0.69539 -1.84105)
(2.05126 -3.12562 1.84629)
(1.99213 -2.46876 1.36883)
(1.85874 -1.98988 1.01216)
(1.71633 -1.84739 0.55186)
(1.7627 -1.68827 -0.657931)
(1.63663 -0.798216 -0.886185)
(1.34065 -1.5527 -1.31235)
(1.16893 -1.38632 -2.35866)
(1.23415 -1.43741 -3.10982)
(1.65693 -3.32036 1.52027)
(1.85836 -2.39464 1.08122)
(1.80785 -2.40296 1.0037)
(1.87883 -1.57264 0.755596)
(1.4227 -1.56609 -0.47996)
(1.70831 -1.05489 -1.34479)
(1.50382 -1.14793 -1.38741)
(1.20941 -0.978658 -2.23865)
(1.04793 -1.30551 -2.84625)
(1.24049 -1.17849 -3.36617)
(1.87813 -3.05064 1.55604)
(1.47605 -2.84164 1.16881)
(1.75498 -2.59939 0.578378)
(1.84432 -1.92642 0.187201)
(1.48025 -1.16975 -0.198705)
(1.64418 -0.969756 -0.949648)
(1.3801 -1.3863 -1.41244)
(1.35496 -1.35312 -1.58352)
(0.851139 -1.54917 -2.34675)
(1.03802 -0.80149 -3.37786)
(1.21448 -0.58424 -3.54824)
(1.28391 -2.8566 0.968058)
(1.47793 -2.50813 0.701482)
(1.06783 -3.04543 0.262609)
(1.70707 -1.4684 0.0680208)
(1.42967 -1.61924 -0.0669126)
(1.25981 -1.70459 -0.627416)
(1.43768 -1.28047 -0.562417)
(1.06867 -1.77507 -1.27185)
(1.06736 -1.15654 -1.8616)
(0.825892 -1.3983 -2.43128)
(0.933284 -0.965569 -3.20122)
(0.906397 -0.739166 -3.36675)
(1.25937 -2.08858 0.417558)
(0.974774 -2.34586 1.20423)
(0.840456 -2.8165 -1.02255)
(1.34774 -0.705176 -0.87158)
(1.14904 -1.34913 0.0986088)
(0.687954 -1.79332 -0.621389)
(0.960379 -1.64282 -0.612442)
(1.04125 -1.56887 -0.970585)
(0.778134 -1.27111 -1.74769)
(0.707186 -1.05873 -1.92735)
(0.680377 -0.794917 -2.83904)
(0.754006 -0.582613 -3.24551)
(0.602183 -0.0732272 -3.37465)
(1.241 -2.02759 0.238776)
(0.860049 -2.63322 0.0297536)
(0.390318 -2.53073 -0.9813)
(0.585524 -1.42649 -0.715813)
(0.611279 -1.63501 0.0765087)
(0.482693 -1.53345 -0.32214)
(0.533829 -1.73205 -0.669599)
(0.856662 -1.06731 -1.3241)
(0.990375 -0.921829 -1.67174)
(0.396075 -1.23302 -1.88878)
(0.442193 -0.115997 -2.3762)
(0.144456 -0.768473 -2.67181)
(0.459285 -0.00548981 -3.30363)
(0.235992 0.217714 -3.1984)
(0.313096 -1.46374 -2.18069)
(0.391515 -1.52589 -2.43481)
(0.411221 -1.52719 -0.54361)
(0.2548 -2.11522 -0.52442)
(0.367874 -1.41794 -0.784914)
(0.432794 -1.24777 -0.814241)
(0.0314556 -1.21611 -1.61593)
(-0.423426 -0.63198 -1.70433)
(0.144013 -0.871762 -1.7042)
(0.23644 -1.1451 -1.48761)
(0.129721 -1.16834 -1.53708)
(-0.207523 -0.549074 -1.80115)
(-0.308147 0.121464 -2.68696)
(0.0472483 0.342692 -2.86917)
(-0.198036 0.701554 -2.98271)
(2.18015 0.0137445 2.67401)
(2.33749 -0.459692 2.79066)
(2.39323 -0.357366 2.81902)
(2.47804 -0.454521 2.84444)
(2.41462 -0.586093 2.98642)
(2.59335 -0.473989 3.05812)
(2.61612 -0.864137 2.66298)
(2.58373 -0.527714 2.85695)
(2.49109 -1.33121 2.9853)
(2.8717 -0.370651 3.15536)
(2.49652 -1.38236 2.72699)
(2.41367 -1.01898 3.20709)
(2.69405 -1.66727 2.93823)
(2.97056 -1.12218 3.10496)
(2.28931 -1.58429 2.84037)
(2.44281 -1.60742 2.84227)
(2.74225 -1.349 3.07172)
(3.0528 -1.38702 3.0435)
(2.749 -0.695766 3.07211)
(2.3674 -2.00064 2.7156)
(2.43772 -1.79816 2.54785)
(2.43761 -1.84985 2.87605)
(2.78328 -2.52119 1.85255)
(2.10409 -1.12408 2.55058)
(1.77718 -0.840406 1.24935)
(2.41569 -1.89465 2.65844)
(2.48185 -1.9085 2.60886)
(2.00786 -2.01656 2.38322)
(2.52704 -2.16121 1.86026)
(1.95114 -1.25122 1.18371)
(1.74783 -0.0112463 0.963479)
(1.94717 -1.16064 0.517499)
(2.18985 -2.52039 2.33898)
(2.32454 -2.35393 2.39516)
(1.7987 -1.91822 2.39686)
(2.1137 -2.4452 1.22125)
(1.89289 -1.61144 0.435225)
(1.54733 -0.870252 0.687127)
(1.81088 -1.33464 0.782425)
(2.30216 -2.55449 2.25758)
(2.24471 -2.43019 2.05326)
(1.90384 -1.8468 2.06487)
(1.79158 -1.99944 1.56755)
(1.78201 -2.06787 -0.034996)
(1.85006 -0.564907 0.705479)
(1.64927 -1.31774 -0.163058)
(0.846146 -1.61471 -0.760269)
(1.9245 -2.95718 2.01103)
(1.67814 -2.83118 1.54658)
(1.66711 -2.10494 1.52949)
(1.43338 -2.20498 0.980831)
(1.59708 -2.1862 0.42586)
(1.64667 -1.09468 -0.235784)
(1.01317 -1.94257 -1.05449)
(1.2478 -1.20592 -1.71362)
(1.26675 -1.26808 -2.16383)
(1.78212 -3.13014 1.94815)
(1.83656 -2.68554 1.43314)
(1.71806 -2.17785 0.983181)
(1.47923 -1.9487 0.956729)
(1.5693 -1.92048 -0.712347)
(1.60699 -0.788439 -0.861632)
(1.2354 -1.46458 -1.24033)
(0.810025 -1.47931 -2.31434)
(1.00908 -1.56326 -2.94378)
(1.47101 -0.858276 -3.32624)
(1.49801 -3.56235 1.43466)
(1.5502 -2.74467 1.44875)
(1.74558 -2.52019 0.993296)
(1.59545 -1.9074 0.71684)
(1.38453 -1.46484 -0.338579)
(1.23487 -1.57432 -1.27577)
(1.43123 -1.22182 -1.40844)
(1.14513 -1.07998 -2.23528)
(0.99891 -1.34644 -2.80708)
(1.23473 -0.973998 -3.38208)
(1.49022 -0.565939 -3.48706)
(1.72089 -3.37154 1.41162)
(1.39409 -2.90953 1.3516)
(1.5107 -2.75704 0.722283)
(1.91255 -1.7781 0.791013)
(1.42403 -1.27417 -0.478813)
(1.45004 -1.43265 -0.558316)
(1.0843 -1.9185 -0.896713)
(1.24917 -1.44881 -1.63325)
(0.882488 -1.50811 -2.27196)
(1.03236 -1.16556 -3.07999)
(1.01589 -0.427668 -3.51156)
(0.988396 -0.147828 -3.47605)
(1.32784 -3.02725 1.0182)
(1.50868 -2.47459 1.27957)
(1.0906 -3.04141 0.318102)
(1.42754 -1.93662 0.138165)
(1.49777 -1.21192 -0.382777)
(1.14147 -1.81741 -0.684266)
(1.35597 -1.24859 -0.704438)
(1.0025 -1.50476 -1.45176)
(1.02373 -1.15602 -1.93983)
(0.685266 -1.38739 -2.41183)
(0.85751 -0.632641 -3.28163)
(0.79588 -0.517951 -3.36673)
(0.576954 0.228532 -3.40765)
(1.25 -2.20406 0.676594)
(1.00376 -2.30349 0.136549)
(0.589156 -3.05599 -0.0593228)
(1.20574 -1.02602 -0.754091)
(1.22129 -1.16862 -0.436443)
(0.434943 -1.9497 0.038086)
(0.750078 -1.74994 -0.518937)
(1.17916 -1.40488 -1.03412)
(0.714636 -1.36906 -1.62482)
(0.639018 -1.12313 -1.87337)
(0.638086 -0.741813 -2.83316)
(0.677239 -0.6212 -3.19659)
(0.57647 0.0303309 -3.37297)
(0.369389 0.339316 -3.14289)
(1.23995 -2.02996 0.457738)
(0.897288 -2.57613 0.00474358)
(0.333866 -2.64673 -0.920358)
(0.406442 -1.65847 -0.482181)
(0.553476 -1.68596 -0.0437673)
(0.460045 -1.5639 -0.173797)
(0.509426 -1.75117 -0.559657)
(0.834594 -1.02758 -1.38802)
(0.994197 -0.963427 -1.59485)
(0.385797 -1.11331 -1.93015)
(0.411602 -0.126771 -2.34609)
(0.0831827 -0.918869 -2.57343)
(0.436252 0.0866006 -3.30356)
(0.236805 0.258766 -3.20404)
(0.0682374 0.366672 -3.29748)
(0.295369 -1.44669 -2.14396)
(0.394419 -1.55609 -2.41999)
(0.321429 -1.60012 -0.51614)
(0.237191 -2.09645 -0.514858)
(0.339196 -1.42262 -0.78486)
(0.391822 -1.20589 -0.854023)
(0.000320503 -1.25682 -1.57379)
(-0.438629 -0.63292 -1.7603)
(0.130757 -0.901109 -1.75615)
(0.251491 -1.11022 -1.46336)
(0.118436 -1.10088 -1.56423)
(-0.208149 -0.525565 -1.78925)
(-0.320759 0.130747 -2.69157)
(0.0494719 0.360763 -2.87136)
(-0.190922 0.703906 -2.99025)
(0.129741 1.08547 -2.85173)
(1.93005 0.0146676 2.51175)
(2.0546 -0.0277619 2.81975)
(2.32942 -0.134417 2.66677)
(2.26664 -0.704383 2.81434)
(2.2835 -0.413798 2.904)
(2.36981 -0.363646 3.07935)
(2.61963 -1.08001 2.47772)
(2.17835 -0.66337 3.02469)
(2.67714 -0.536516 2.86726)
(2.65502 -0.142584 3.18033)
(2.67867 -1.4572 2.18857)
(2.5579 -1.01623 2.89464)
(2.48854 -0.87346 2.85172)
(2.72488 -0.954172 3.10424)
(2.75404 -0.42886 3.25346)
(2.37852 -1.23676 2.75063)
(2.41775 -1.50873 2.82411)
(2.85732 -0.926249 3.03018)
(2.87131 -1.34651 3.13044)
(2.86991 -0.653416 3.17827)
(2.03096 -1.91638 2.75832)
(2.46259 -1.43823 2.85236)
(2.01476 -1.96305 3.27026)
(2.81817 -1.78043 2.82008)
(2.80933 -1.07089 3.0816)
(2.10651 -0.975734 2.58356)
(2.32806 -1.76547 2.76148)
(2.26348 -2.18127 2.63566)
(2.1033 -1.3869 3.24679)
(2.54538 -2.67169 1.98594)
(2.3057 -1.60639 2.18636)
(1.68442 -0.324135 2.12197)
(1.95965 -0.97088 1.24119)
(2.06988 -2.43836 2.43876)
(2.30183 -1.98418 2.75492)
(2.04067 -1.96602 2.44327)
(2.13911 -2.41147 2.06637)
(2.01134 -1.65541 1.60564)
(1.65258 -0.685347 0.751587)
(1.72161 -1.02301 1.14021)
(1.54671 -0.661585 0.582568)
(2.21256 -2.38674 2.42462)
(2.32799 -2.47203 2.34725)
(1.8319 -1.84433 2.69637)
(1.79339 -2.28539 1.83469)
(1.81623 -2.09947 0.886986)
(1.54551 -0.726615 0.747701)
(1.73146 -1.26294 0.203231)
(1.35374 -1.27992 0.261255)
(1.89623 -2.72116 2.37035)
(2.06172 -2.64878 1.97182)
(2.08341 -1.7234 2.23587)
(1.79085 -1.98976 1.50275)
(1.52684 -2.37676 0.556763)
(1.77459 -0.851484 0.535801)
(1.63551 -1.46084 0.0648267)
(1.20637 -1.25533 -0.24422)
(1.18757 -1.03193 -0.740936)
(1.85591 -2.83477 2.15777)
(1.88735 -2.67809 1.77648)
(1.6649 -2.03033 1.66523)
(1.28212 -2.27133 1.07923)
(1.52732 -2.23752 0.550587)
(1.57976 -1.03358 -0.247872)
(1.2569 -1.31915 -1.17011)
(1.07407 -1.4887 -1.65514)
(1.30899 -1.05502 -1.89025)
(1.4141 -0.133043 -2.12896)
(1.50805 -3.17878 1.75835)
(1.61594 -2.8565 1.57768)
(1.50183 -2.32023 1.19876)
(1.43752 -1.94037 0.964611)
(1.44308 -1.86977 -0.724419)
(1.335 -1.08602 -1.07176)
(1.28242 -1.5589 -0.989523)
(1.09434 -1.51894 -1.95585)
(1.00215 -1.58079 -2.63555)
(1.14019 -0.828981 -3.06967)
(1.68655 -0.0294212 -3.06079)
(1.43375 -3.49899 1.5675)
(1.38798 -2.99227 1.58517)
(1.59815 -2.63319 1.07742)
(1.60982 -1.87895 1.04523)
(1.20836 -1.55728 -0.102792)
(1.56654 -1.28037 -0.950629)
(1.20859 -1.70074 -1.08781)
(1.00343 -1.41633 -2.04545)
(0.835743 -1.47938 -2.76248)
(1.12152 -0.735857 -3.37691)
(1.52487 -0.140726 -3.38765)
(1.65131 0.175545 -3.60381)
(1.41098 -3.55699 1.48792)
(1.19291 -3.1933 1.33091)
(1.34697 -2.84265 0.781332)
(1.8662 -1.81016 0.690509)
(1.28292 -1.35559 0.100574)
(1.17364 -1.47197 -0.514758)
(1.08927 -1.51439 -1.12585)
(0.983289 -1.35363 -1.79322)
(0.755133 -1.52995 -2.33318)
(0.936791 -1.21991 -3.04259)
(0.91162 -0.500386 -3.43364)
(0.939478 -0.172691 -3.4629)
(1.1034 0.0580813 -3.45068)
(1.22615 -3.2358 1.04382)
(1.44599 -2.60977 1.2898)
(0.674222 -2.9562 1.0572)
(1.2509 -2.20829 0.259044)
(1.49726 -1.10116 -0.239656)
(0.813937 -1.96764 -0.638241)
(1.21542 -1.34396 -0.725728)
(0.90074 -1.41496 -1.57403)
(0.990726 -1.03819 -2.02974)
(0.657641 -1.21473 -2.45088)
(0.729012 -0.60342 -3.25593)
(0.718827 -0.178877 -3.38917)
(0.582262 0.320838 -3.45148)
(0.689231 0.0159446 -3.20027)
(1.23515 -2.40428 0.656582)
(0.940924 -2.26789 0.933686)
(0.597993 -2.90128 0.0867888)
(0.814529 -1.71503 -0.508496)
(1.20175 -1.1726 -0.210058)
(0.680852 -1.74956 -0.2866)
(0.652842 -1.79842 -0.362915)
(1.13284 -1.20984 -1.17393)
(0.636696 -1.39823 -1.56097)
(0.581799 -1.08502 -1.88481)
(0.590122 -0.690055 -2.82398)
(0.597821 -0.574944 -3.17227)
(0.565526 0.163521 -3.37789)
(0.397014 0.398061 -3.18392)
(0.409008 0.4361 -3.27591)
(1.26015 -2.04897 0.609044)
(0.849509 -2.54011 0.538187)
(0.308214 -2.69961 -0.881988)
(0.261455 -1.86472 -0.276722)
(0.523278 -1.70615 0.09922)
(0.467371 -1.56362 -0.213654)
(0.45123 -1.74965 -0.419896)
(0.797235 -0.992621 -1.46048)
(0.976973 -0.968502 -1.53666)
(0.391473 -1.01142 -1.96415)
(0.37976 -0.141879 -2.3159)
(0.0169976 -1.00741 -2.4952)
(0.415706 0.118881 -3.2892)
(0.228187 0.287872 -3.20573)
(0.0647956 0.457767 -3.31351)
(0.49531 1.29415 -2.9448)
(0.260436 -1.44268 -2.10618)
(0.348689 -1.62974 -2.37085)
(0.279324 -1.63391 -0.498692)
(0.205475 -2.11816 -0.465078)
(0.317739 -1.47727 -0.764727)
(0.383595 -1.21083 -0.835319)
(-0.000154083 -1.28884 -1.5342)
(-0.437941 -0.640343 -1.80483)
(0.110392 -0.927139 -1.80253)
(0.254794 -1.08448 -1.46809)
(0.10166 -1.05176 -1.55653)
(-0.205507 -0.501495 -1.78288)
(-0.332665 0.140336 -2.69332)
(0.0514339 0.380265 -2.87228)
(-0.187708 0.703982 -2.99935)
(0.138758 1.10552 -2.83355)
(0.661412 1.29282 -2.29943)
(1.86278 0.0562073 2.38929)
(1.91119 -0.193867 2.57941)
(2.03938 -0.0994371 2.57087)
(2.21502 -0.406266 2.73506)
(2.12168 -0.373027 2.85235)
(2.2376 -0.239624 2.88132)
(2.22229 -0.774163 2.76286)
(2.32044 -0.357522 2.90479)
(2.39169 -0.639731 2.927)
(2.39842 -0.231543 3.15335)
(2.38881 -0.833497 2.61881)
(2.59369 -0.846499 2.61881)
(2.23733 -0.824746 3.06484)
(2.74403 -0.356648 3.03733)
(2.45108 -0.181911 3.23199)
(2.52455 -0.799736 2.61385)