/*--------------------------------*- C++ -*----------------------------------*\
  =========                 |
  \\      /  F ield         | OpenFOAM: The Open Source CFD Toolbox
   \\    /   O peration     | Website:  https://openfoam.org
    \\  /    A nd           | Version:  7
     \\/     M anipulation  |
\*---------------------------------------------------------------------------*/
FoamFile
{
    version     2.0;
    format      ascii;
    class       volScalarField;
    location    "7";
    object      p;
}
// * * * * * * * * * * * * * * * * * * * * * * * * * * * * * * * * * * * * * //

dimensions      [0 2 -2 0 0 0 0];

internalField   nonuniform List<scalar> 
18750
(
-62.7594
-62.1228
-63.9407
-62.9069
-61.8814
-63.4797
-62.3852
-64.0533
-64.0707
-63.0595
-59.1895
-62.2374
-62.3154
-63.9207
-63.5921
-62.6498
-63.7114
-64.1923
-64.1904
-63.2039
-55.1979
-60.7711
-58.8758
-61.7702
-62.5295
-62.6475
-63.6218
-64.0173
-63.7152
-62.9411
-63.7354
-63.7819
-64.343
-64.2962
-63.3495
-50.4907
-55.7035
-54.9328
-61.4816
-61.3612
-59.4815
-61.9197
-62.0479
-62.8198
-63.0018
-63.5648
-63.7384
-64.1127
-63.8145
-63.2425
-64.1884
-63.7654
-63.8964
-64.4943
-64.3954
-63.4972
-49.1135
-52.6083
-50.8785
-56.3855
-56.3613
-54.2151
-59.857
-62.0643
-62.4562
-60.1554
-61.7967
-62.1998
-62.1421
-63.1589
-63.4608
-63.8751
-63.6793
-63.8497
-64.2101
-63.9477
-63.5555
-64.5212
-64.2388
-63.8135
-64.044
-64.6362
-64.4888
-63.6386
-48.0199
-50.2195
-49.1057
-53.5833
-52.5242
-50.9003
-57.2819
-56.3122
-56.9601
-54.4467
-59.6019
-59.8892
-61.4751
-63.1472
-61.1469
-62.1957
-62.1249
-62.4644
-62.4927
-63.4996
-64.0962
-64.6499
-64.0757
-63.8099
-63.964
-64.3342
-64.1441
-63.8747
-65.0019
-64.5497
-64.279
-63.8793
-64.1906
-64.7626
-64.5764
-63.7722
-47.1237
-48.5296
-47.9894
-51.1323
-50.2629
-49.2358
-54.268
-53.8118
-52.8663
-50.771
-57.9586
-57.1282
-56.2912
-57.0734
-55.208
-60.9451
-59.8464
-59.9184
-61.6162
-64.2399
-62.0617
-63.2829
-62.4533
-62.4245
-62.7456
-62.9321
-63.883
-64.6822
-65.0555
-64.7482
-64.2114
-63.9383
-64.099
-64.4851
-64.3466
-64.1833
-65.2251
-65.0142
-64.5753
-64.3181
-63.9516
-64.3204
-64.8663
-64.6598
-63.8934
-46.1678
-47.3345
-47.1972
-48.9791
-48.6247
-47.9685
-51.6846
-51.1716
-50.1426
-49.2111
-54.6897
-54.4986
-53.591
-52.7592
-50.797
-58.3233
-58.0803
-57.5017
-56.4705
-57.6364
-55.891
-62.0315
-61.5769
-60.1961
-60.1186
-62.3101
-63.6877
-62.8159
-64.5437
-63.6174
-62.5481
-62.6772
-63.0224
-63.2918
-64.3376
-65.24
-65.6645
-65.1206
-64.8325
-64.3262
-64.0597
-64.2367
-64.637
-64.5525
-64.4643
-65.3233
-65.2199
-65.0254
-64.6009
-64.3575
-64.0186
-64.4331
-64.9426
-64.7388
-64.0035
-45.2948
-46.3607
-46.1969
-47.7329
-47.5774
-47.139
-49.2824
-48.8971
-48.6582
-47.9392
-52.0463
-51.6027
-51.1819
-50.2706
-49.2209
-54.8578
-55.0823
-54.8072
-53.707
-52.6896
-50.9623
-59.2158
-58.71
-58.2819
-58.1886
-56.9995
-57.823
-56.1261
-62.4851
-62.5381
-62.0138
-60.6187
-60.6298
-62.735
-63.5415
-63.5039
-65.913
-64.7836
-63.8938
-62.5994
-62.8297
-63.34
-63.6654
-64.8578
-65.688
-66.1744
-65.6762
-65.1791
-64.898
-64.4362
-64.1699
-64.3616
-64.7709
-64.756
-64.707
-65.3259
-65.3042
-65.211
-65.0341
-64.634
-64.3821
-64.0902
-64.5228
-64.9991
-64.8108
-64.0991
-44.9321
-45.3814
-45.2806
-46.3377
-46.1963
-46.1895
-47.8246
-47.5843
-47.382
-47.1751
-49.4514
-49.4022
-49.2567
-48.5119
-48.1104
-51.9374
-52.0719
-51.6856
-51.1258
-50.3163
-49.4285
-55.3865
-55.232
-55.6056
-55.375
-54.0093
-52.6704
-50.9505
-58.7238
-59.174
-59.085
-58.754
-58.6577
-57.7508
-57.4097
-56.7131
-63.2538
-62.7222
-63.1575
-62.2798
-61.2626
-61.6307
-63.9977
-64.7902
-64.0076
-66.1777
-66.0576
-65.1479
-64.2538
-62.8509
-63.0978
-63.6259
-64.136
-65.5044
-65.9884
-66.2188
-66.1623
-65.694
-65.2401
-64.9776
-64.5326
-64.2739
-64.4789
-64.8888
-64.9441
-64.9277
-65.2593
-65.2951
-65.2848
-65.197
-65.0419
-64.6802
-64.412
-64.1651
-64.589
-65.0462
-64.8748
-64.1602
-44.3759
-44.9408
-44.9309
-45.3688
-45.3371
-45.2258
-46.5865
-46.4081
-46.1961
-46.2728
-47.9062
-47.927
-47.8168
-47.2701
-47.3829
-49.647
-49.5396
-49.6859
-49.0834
-48.4361
-48.17
-51.706
-51.8077
-52.2079
-51.7556
-51.1522
-50.1864
-49.6514
-56.0305
-55.3712
-55.2824
-55.5203
-55.5741
-53.4493
-52.7127
-50.8875
-59.8809
-59.141
-59.5819
-59.7765
-59.4374
-59.8775
-59.3562
-56.9578
-57.0405
-63.9205
-63.4283
-63.299
-63.9954
-62.8397
-61.9777
-62.5713
-65.2861
-66.521
-64.2366
-65.835
-66.1926
-66.2258
-65.571
-64.6315
-63.2326
-63.4391
-63.7288
-64.5327
-65.9064
-66.2121
-65.6394
-66.1836
-66.1651
-65.73
-65.3106
-65.0792
-64.6187
-64.3479
-64.5656
-64.9823
-65.1027
-65.1119
-64.7879
-65.2338
-65.2672
-65.264
-65.1789
-65.0444
-64.722
-64.4747
-64.2316
-64.6332
-65.0884
-64.9355
-64.2352
-43.9062
-44.4087
-44.3301
-44.9399
-44.9119
-44.9012
-45.7466
-45.6558
-45.4235
-45.2505
-46.6543
-46.848
-46.4732
-46.4061
-46.3445
-48.0313
-47.8704
-47.8024
-47.8643
-47.6305
-47.4212
-49.765
-49.6802
-49.5606
-49.6023
-48.8846
-48.5682
-48.1907
-53.3947
-52.119
-51.8797
-51.9628
-52.2023
-51.0309
-50.2376
-49.7807
-55.6679
-54.6643
-55.347
-55.9188
-55.6138
-54.5414
-53.3328
-52.7991
-51.2838
-59.5631
-59.8959
-59.9915
-60.4975
-60.3481
-60.4997
-61.359
-60.6402
-56.8186
-57.2216
-63.3951
-64.349
-63.7522
-64.1116
-64.7998
-63.6658
-62.6228
-63.1478
-66.0514
-67.378
-63.8541
-64.9038
-65.8694
-66.2065
-66.4602
-66.0292
-65.0169
-63.5075
-63.63
-63.868
-64.6369
-66.2388
-66.2718
-64.1137
-65.5319
-66.146
-66.1786
-65.7832
-65.3814
-65.1904
-64.7193
-64.4381
-64.6215
-65.07
-65.2345
-65.2348
-64.5301
-64.7291
-65.2091
-65.2449
-65.2418
-65.1629
-65.0384
-64.7438
-64.5563
-64.2951
-64.6679
-65.1089
-65.0022
-64.3561
-43.5762
-43.8943
-43.8524
-44.394
-44.3745
-44.3173
-45.009
-44.9068
-44.8565
-44.8756
-45.7027
-45.5459
-45.4286
-45.4361
-45.2641
-46.76
-46.6475
-46.27
-46.4735
-46.4304
-46.3305
-48.0327
-47.9836
-47.7516
-47.7388
-47.9568
-47.5752
-47.3011
-50.1998
-49.8378
-49.6035
-49.7628
-49.0706
-48.8734
-48.5865
-48.3105
-52.3217
-52.5599
-51.6995
-51.7342
-51.8275
-52.1483
-50.7685
-50.5138
-50.04
-55.7294
-55.7846
-54.9861
-56.2136
-56.198
-55.6516
-54.5527
-53.7787
-53.2144
-51.8862
-59.5761
-59.7633
-60.2856
-60.9247
-61.2229
-61.153
-61.4084
-61.8922
-60.5905
-57.7626
-57.4852
-61.5587
-63.6418
-64.3523
-64.1856
-64.6837
-65.5313
-64.1971
-63.2981
-63.8234
-66.0497
-67.4335
-63.4476
-62.9525
-64.8511
-65.8063
-66.3132
-66.7528
-66.4853
-65.2569
-63.734
-63.8416
-64.0554
-64.7081
-66.3617
-66.1457
-63.814
-64.0796
-65.4351
-66.0945
-66.2086
-65.8375
-65.4608
-65.2974
-64.8274
-64.5401
-64.6685
-65.1557
-65.3613
-65.2942
-64.4268
-64.5007
-64.6863
-65.1843
-65.2193
-65.2163
-65.1495
-65.0325
-64.7433
-64.6354
-64.3537
-64.7027
-65.1041
-65.0684
-64.4547
-43.3294
-43.6389
-43.5464
-43.9505
-43.8424
-43.832
-44.4082
-44.36
-44.3663
-44.2644
-45.0108
-44.6739
-44.8562
-44.7871
-44.8391
-45.6836
-45.5456
-45.4566
-45.4782
-45.4231
-45.2371
-46.6572
-46.7309
-46.633
-46.3539
-46.448
-46.3382
-46.2971
-47.8199
-47.9806
-47.9887
-47.9206
-47.8561
-47.9708
-47.5214
-47.3155
-50.3814
-49.9017
-49.2595
-49.5121
-49.4762
-49.8447
-48.8543
-48.5696
-48.1441
-52.3827
-52.167
-52.4295
-51.8726
-52.3557
-52.194
-51.4273
-50.6781
-50.74
-50.0637
-55.5539
-55.7441
-55.8165
-56.3965
-56.4038
-55.6177
-55.1633
-54.9208
-53.727
-53.9671
-52.6287
-58.8962
-59.8736
-60.4183
-61.2998
-61.6396
-62.05
-62.2701
-62.5167
-62.244
-61.7923
-58.3466
-57.7141
-60.2774
-61.6759
-63.9532
-64.3695
-64.4677
-65.287
-65.9876
-64.6786
-64.1374
-64.4466
-66.201
-67.879
-62.9233
-62.0352
-63.0026
-64.7768
-65.699
-66.4418
-67.1413
-66.8646
-65.3102
-64.0698
-64.1187
-64.2582
-64.7
-66.3232
-65.7945
-63.3061
-63.7601
-64.049
-65.3487
-66.0723
-66.2494
-65.8915
-65.5358
-65.4032
-64.9445
-64.6336
-64.739
-65.2359
-65.4789
-65.3618
-64.3566
-64.3876
-64.4639
-64.6499
-65.1562
-65.1929
-65.191
-65.1339
-65.0266
-64.7524
-64.698
-64.4021
-64.7455
-65.0978
-65.1225
-64.5354
-43.1138
-43.3134
-43.2857
-43.5873
-43.569
-43.5063
-43.8839
-43.9052
-43.7958
-43.7677
-44.4136
-44.3514
-44.3906
-44.3512
-44.2192
-44.9723
-44.9601
-45.166
-44.8631
-44.6963
-44.7305
-45.7507
-45.6484
-45.5808
-45.5346
-45.57
-45.22
-45.2072
-46.46
-46.6107
-46.743
-46.638
-46.5411
-46.568
-46.4411
-46.4928
-48.3011
-48.1648
-47.956
-47.815
-47.8791
-48.0311
-47.6773
-47.6516
-47.5013
-50.3919
-49.7015
-49.5479
-49.187
-49.7442
-49.3231
-49.7731
-48.9397
-48.7051
-48.2189
-52.603
-52.6194
-52.2898
-52.6904
-52.9125
-52.1814
-52.4323
-51.4694
-51.6094
-51.1769
-50.4435
-55.4651
-55.7881
-55.7751
-56.4112
-56.1804
-55.8243
-56.6127
-55.9751
-55.2931
-53.8448
-53.7348
-53.0883
-58.0596
-59.3542
-59.9363
-61.1327
-61.8587
-62.0568
-63.0296
-63.0613
-63.6745
-62.7876
-62.6142
-59.1712
-56.6604
-60.0233
-60.4529
-61.8166
-64.1617
-64.5434
-65.2907
-66.0406
-66.345
-65.3089
-64.981
-64.8965
-66.0666
-68.0635
-62.2312
-61.8531
-62.0615
-62.9979
-64.7464
-65.6251
-66.681
-67.3708
-67.1636
-65.4423
-64.3786
-64.4501
-64.4891
-64.6724
-66.3314
-65.2412
-63.216
-63.3474
-63.7306
-64.0106
-65.2386
-66.0065
-66.2907
-65.9392
-65.5963
-65.5105
-65.0691
-64.7115
-64.8154
-65.3382
-65.5882
-65.4823
-64.4201
-64.3361
-64.3548
-64.4279
-64.619
-65.1319
-65.1629
-65.1706
-65.1149
-65.0193
-64.7791
-64.7239
-64.439
-64.8079
-65.0919
-65.1687
-64.6122
-42.8497
-43.1103
-43.0342
-43.2478
-43.2662
-43.2323
-43.5955
-43.544
-43.509
-43.4882
-43.9737
-43.8766
-43.8615
-43.7645
-43.7589
-44.5162
-44.3903
-44.3612
-44.2432
-44.268
-44.2265
-45.1811
-45.0663
-44.9285
-45.0512
-44.8832
-44.6305
-44.6441
-46.0433
-45.6091
-45.6967
-45.6895
-45.5123
-45.4545
-45.2377
-45.3308
-46.6068
-46.5754
-46.9849
-46.6954
-46.6291
-46.6615
-46.6194
-46.5718
-46.5289
-48.4321
-48.1725
-48.0378
-47.8654
-47.6767
-47.8862
-47.8598
-47.6645
-47.8693
-47.5912
-50.1179
-50.0228
-49.7539
-49.0274
-49.7499
-49.8328
-49.8328
-49.4652
-49.116
-48.8817
-48.7005
-52.7733
-52.7192
-52.8512
-52.8279
-52.7632
-51.9824
-51.5368
-52.119
-52.0916
-51.8709
-51.4043
-50.8128
-55.8873
-55.7967
-55.9379
-56.0916
-56.7958
-56.3674
-56.5661
-57.1205
-55.9358
-55.2436
-53.853
-53.4726
-53.3294
-57.6185
-58.1291
-59.55
-60.4924
-61.4995
-61.8599
-62.6661
-63.9755
-64.4522
-64.6336
-63.2597
-62.9078
-60.2061
-56.3653
-60.0928
-60.0827
-60.5551
-62.0257
-64.2385
-64.8824
-65.917
-66.6936
-66.6994
-66.0581
-65.457
-65.4112
-65.7001
-67.7475
-62.0903
-62.3215
-61.977
-62.0999
-63.0105
-64.7849
-65.5477
-66.9303
-67.6493
-67.3566
-65.6294
-64.6549
-64.7633
-64.7206
-64.6626
-66.114
-64.715
-64.2141
-63.4466
-63.3852
-63.7093
-63.9848
-65.1053
-65.9083
-66.3156
-66.0068
-65.6471
-65.6145
-65.1897
-64.7995
-64.8857
-65.4605
-65.7146
-65.6402
-65.036
-64.4192
-64.3198
-64.3218
-64.4045
-64.5986
-65.0952
-65.1236
-65.1459
-65.0967
-65.0113
-64.8035
-64.7309
-64.4606
-64.8622
-65.0905
-65.2093
-64.6595
-42.6618
-42.9083
-42.7862
-43.0641
-43.0452
-42.9804
-43.3058
-43.285
-43.2114
-43.2297
-43.5689
-43.5433
-43.4337
-43.4728
-43.466
-43.9984
-43.9308
-43.9024
-43.764
-43.6949
-43.7431
-44.5435
-44.4299
-44.3953
-44.3196
-44.2673
-44.2218
-44.2066
-45.3815
-45.2423
-45.0686
-45.0607
-44.8976
-44.7392
-44.692
-44.7045
-46.154
-45.8488
-45.7631
-45.7001
-45.6681
-45.6106
-45.4133
-45.3698
-45.4655
-47.1376
-46.896
-46.8417
-46.8673
-46.6283
-46.6426
-46.537
-46.6425
-46.6151
-46.5338
-48.5818
-48.4436
-48.1506
-48.0015
-47.8492
-47.6482
-47.9276
-47.9303
-47.7465
-47.6836
-47.5939
-50.4515
-50.2388
-50.1236
-49.8299
-50.3499
-49.9356
-49.5823
-49.436
-49.4808
-49.1736
-48.7111
-48.9751
-53.1023
-52.9084
-52.753
-52.9434
-52.9046
-52.4782
-52.113
-52.8507
-52.7349
-52.4781
-51.9519
-51.2158
-50.9574
-55.621
-55.6116
-55.8013
-55.9979
-56.4155
-57.0118
-57.224
-57.6197
-57.065
-56.4903
-55.3973
-54.0575
-53.8011
-53.6902
-57.6407
-57.7821
-58.3876
-59.8469
-61.0337
-61.5948
-62.7289
-63.4637
-64.3203
-65.5844
-65.5163
-63.9945
-63.1284
-61.2148
-56.6619
-60.5444
-60.2667
-60.199
-60.6597
-62.132
-64.4268
-65.2452
-65.9562
-67.1634
-67.0063
-66.3205
-65.7069
-65.7849
-65.3099
-67.1461
-61.3939
-63.3165
-62.5813
-62.1404
-62.1705
-63.0606
-64.7625
-65.4968
-67.1897
-67.9306
-67.4653
-65.8494
-64.8834
-65.0151
-64.9593
-64.6543
-65.5667
-64.1666
-65.4034
-64.378
-63.6379
-63.4377
-63.7041
-63.9352
-64.9566
-65.8142
-66.3295
-66.0914
-65.6868
-65.7239
-65.3047
-64.9118
-64.9493
-65.6073
-65.8671
-65.8571
-65.1385
-65.0342
-64.4254
-64.309
-64.2924
-64.385
-64.5862
-65.037
-65.0852
-65.1177
-65.0787
-65.0004
-64.8154
-64.7329
-64.463
-64.8993
-65.0867
-65.2448
-64.7024
-42.5356
-42.5926
-42.634
-42.9518
-42.8021
-42.7915
-43.0712
-43.0614
-42.9703
-42.9491
-43.3321
-43.2411
-43.2417
-43.198
-43.213
-43.5762
-43.5983
-43.5354
-43.5142
-43.4819
-43.4037
-44.0109
-43.9122
-43.927
-43.8202
-43.9002
-43.7406
-43.6907
-44.668
-44.449
-44.3212
-44.4342
-44.2562
-44.2815
-44.2543
-44.2195
-45.459
-45.3958
-45.2374
-45.0645
-45.0046
-44.8943
-44.7433
-44.7198
-44.7172
-46.2407
-46.0819
-45.9868
-45.7446
-45.7051
-45.6862
-45.6451
-45.5495
-45.3527
-45.4734
-47.2004
-47.176
-47.0877
-46.8774
-46.7797
-46.6483
-46.6045
-46.7503
-46.6811
-46.483
-46.6569
-48.7417
-48.5419
-48.381
-48.1553
-48.2532
-48.3208
-48.1934
-48.0955
-48.0077
-47.9338
-47.5808
-47.7454
-50.3664
-50.3896
-50.3625
-50.2479
-50.2956
-50.3712
-49.6968
-50.0592
-49.9535
-49.6944
-49.2364
-48.8555
-49.1027
-53.0765
-53.1998
-52.8846
-53.0078
-52.8675
-52.8859
-52.8696
-52.7816
-53.2247
-52.6634
-52.4727
-52.1627
-51.5984
-51.2265
-55.5838
-55.5682
-55.7557
-55.9982
-56.2709
-56.7467
-57.0493
-57.1197
-58.1795
-57.5386
-56.9385
-55.4805
-54.3034
-54.5628
-54.2841
-57.9444
-57.7649
-58.1235
-58.8528
-60.113
-61.3059
-62.0113
-62.977
-63.9336
-64.9944
-65.9075
-65.5693
-64.7368
-63.1303
-61.5478
-56.4735
-61.3232
-60.8859
-60.4162
-60.3324
-60.7763
-62.1217
-64.5462
-65.4847
-66.4355
-67.5854
-67.5334
-66.3605
-65.7879
-65.9477
-64.7212
-66.1474
-60.5671
-63.956
-63.6842
-62.8222
-62.2764
-62.2608
-63.0755
-64.7001
-65.4956
-67.4244
-68.1809
-67.5501
-66.0573
-65.0579
-65.141
-65.1483
-64.6811
-65.1887
-63.7758
-64.8534
-65.4125
-64.442
-63.789
-63.5189
-63.7034
-63.8698
-64.7998
-65.6981
-66.3414
-66.1216
-65.7192
-65.8266
-65.4086
-64.9993
-64.9855
-65.6904
-66.0525
-66.1592
-64.9922
-65.1135
-65.0349
-64.4311
-64.3051
-64.2853
-64.3676
-64.5779
-64.9817
-65.0432
-65.0898
-65.0586
-64.9855
-64.8164
-64.7331
-64.4533
-64.9239
-65.0805
-65.277
-64.7548
-42.4121
-42.555
-42.5227
-42.6458
-42.5377
-42.6237
-42.8833
-42.8407
-42.7665
-42.7698
-43.0865
-43.0207
-42.9882
-42.9641
-42.9302
-43.3477
-43.3166
-43.2468
-43.2732
-43.2533
-43.1753
-43.6387
-43.5933
-43.5514
-43.4322
-43.5406
-43.4516
-43.3725
-44.1573
-43.9743
-43.8766
-43.8963
-43.7997
-43.8049
-43.7063
-43.6764
-44.8511
-44.6852
-44.4183
-44.4757
-44.3092
-44.3093
-44.2661
-44.2497
-44.2324
-45.4827
-45.4628
-45.3487
-45.0485
-45.037
-44.9613
-44.8606
-44.8733
-44.7421
-44.6215
-46.24
-46.2759
-46.0918
-45.9969
-45.8271
-45.6958
-45.7136
-45.6371
-45.5773
-45.3966
-45.4999
-47.5055
-47.3324
-47.1651
-47.0527
-46.9325
-46.9814
-46.7945
-46.6814
-46.7673
-46.6432
-46.6521
-46.6751
-48.6797
-48.5706
-48.4815
-48.3289
-48.4049
-48.6043
-48.3226
-48.1908
-48.2045
-48.07
-47.9144
-47.7961
-47.7947
-50.5389
-50.696
-50.5221
-50.4151
-50.3653
-50.3432
-49.7285
-50.1113
-49.964
-50.066
-49.7802
-49.407
-49.1062
-48.9852
-53.0413
-53.2477
-52.7643
-52.9058
-53.1657
-53.0581
-53.1018
-53.0546
-53.5538
-53.0879
-52.7692
-52.7483
-52.3651
-51.7204
-51.3517
-55.744
-55.6622
-55.8687
-56.1543
-56.5445
-56.6615
-56.8182
-57.2643
-57.9402
-57.649
-57.7306
-57.0154
-55.3823
-54.9428
-54.8148
-55.0309
-58.5472
-57.8887
-58.0717
-58.3666
-59.1541
-60.1579
-61.4837
-62.3988
-63.3333
-64.3938
-65.6102
-65.8047
-65.4713
-64.7489
-62.4995
-61.6017
-57.447
-61.7478
-61.5204
-61.1505
-60.6282
-60.4902
-60.8816
-62.1506
-64.5518
-65.7995
-67.0128
-67.8856
-67.8117
-66.307
-65.7691
-66.1459
-64.321
-65.0568
-60.2292
-64.7976
-63.9688
-63.7853
-63.0189
-62.3418
-62.3859
-63.0296
-64.3995
-65.4798
-67.5058
-68.2161
-67.5924
-66.1911
-65.2779
-65.2645
-65.2849
-64.7908
-64.8937
-63.6435
-65.1585
-64.8354
-65.3808
-64.4763
-63.8781
-63.6006
-63.7063
-63.8096
-64.6571
-65.5467
-66.3113
-66.1319
-65.7558
-65.8954
-65.486
-65.0613
-65.0985
-65.7341
-66.2863
-66.5483
-64.938
-64.9746
-65.0962
-65.0298
-64.4433
-64.3074
-64.2715
-64.3537
-64.5734
-64.9443
-64.9966
-65.0559
-65.0378
-64.9657
-64.8068
-64.7258
-64.442
-64.9141
-65.0762
-65.3096
-64.7995
-42.2741
-42.4244
-42.3553
-42.5795
-42.596
-42.4693
-42.6778
-42.6062
-42.6238
-42.5968
-42.8621
-42.8398
-42.7606
-42.7705
-42.7419
-43.1236
-43.0085
-43.0069
-42.9488
-42.9182
-42.8801
-43.4089
-43.3334
-43.2655
-43.2182
-43.2327
-43.1889
-43.1488
-43.8079
-43.6885
-43.6093
-43.5024
-43.496
-43.386
-43.3701
-43.3531
-44.3501
-44.1154
-43.9362
-43.9255
-43.8807
-43.7539
-43.8142
-43.6502
-43.7152
-44.8796
-44.7157
-44.5857
-44.4365
-44.3497
-44.3222
-44.2836
-44.3176
-44.2321
-44.2365
-45.4681
-45.428
-45.3319
-44.9667
-44.8838
-44.8852
-44.9648
-44.88
-44.8613
-44.7012
-44.5908
-46.5374
-46.3385
-46.2884
-46.0891
-45.9051
-45.9354
-45.8107
-45.7009
-45.674
-45.6706
-45.6617
-45.6685
-47.496
-47.3157
-47.2474
-47.0594
-47.0194
-47.1563
-46.9253
-46.7672
-46.7999
-46.7956
-46.8368
-46.8804
-46.755
-48.9009
-48.881
-48.6263
-48.5731
-48.5464
-48.5934
-48.3253
-48.3105
-48.3185
-48.3558
-48.1173
-48.0361
-47.7191
-47.7587
-50.5366
-50.747
-50.7551
-50.5638
-50.5069
-50.3057
-50.3695
-50.4288
-50.161
-49.6094
-49.8865
-49.914
-49.7202
-49.2097
-49.0779
-53.0569
-53.0564
-52.7328
-52.9231
-53.2228
-53.3178
-53.3305
-53.115
-53.2993
-53.5317
-53.4871
-53.5937
-53.162
-52.4791
-51.9562
-51.5905
-55.8668
-55.9615
-56.0691
-56.3196
-56.4446
-56.7174
-56.7631
-57.0252
-57.4081
-57.9454
-58.1968
-57.746
-57.0358
-55.4269
-55.697
-55.107
-55.2797
-58.9869
-58.9122
-58.4503
-58.194
-58.6978
-59.3879
-60.2212
-61.4912
-62.4003
-63.6038
-65.0751
-66.002
-65.5284
-65.4859
-64.9935
-61.7478
-61.0277
-57.5015
-62.5413
-62.03
-61.7922
-61.4036
-60.8914
-60.6912
-60.9996
-62.274
-64.5636
-65.9943
-67.3064
-68.0648
-67.7714
-66.1334
-65.6109
-66.1421
-64.4343
-64.0997
-59.8724
-65.2458
-64.9231
-64.1446
-63.7746
-63.2304
-62.4986
-62.4878
-62.986
-64.1927
-65.4083
-67.4657
-68.1073
-67.5985
-66.3166
-65.5189
-65.337
-65.4291
-64.9827
-64.7147
-63.9234
-64.769
-65.0965
-64.8784
-65.3134
-64.5111
-63.9206
-63.6681
-63.6953
-63.746
-64.555
-65.3965
-66.1944
-66.1306
-65.7991
-65.9549
-65.5341
-65.1057
-65.2764
-65.8487
-66.5762
-67.0285
-64.1789
-64.9294
-64.9656
-65.0766
-65.0227
-64.4583
-64.3175
-64.2498
-64.3451
-64.5645
-64.9182
-64.9504
-65.0169
-65.0147
-64.9412
-64.7934
-64.706
-64.422
-64.8971
-65.0702
-65.3408
-64.8426
-42.1601
-42.2827
-42.2477
-42.4404
-42.3895
-42.3233
-42.5317
-42.5625
-42.5216
-42.442
-42.717
-42.6435
-42.6071
-42.603
-42.5571
-42.9041
-42.8412
-42.8159
-42.7477
-42.6943
-42.674
-43.1761
-43.0606
-42.9722
-43.0675
-42.9244
-42.8485
-42.8524
-43.4685
-43.3695
-43.2881
-43.2325
-43.1931
-43.1898
-43.173
-43.1672
-43.8772
-43.6755
-43.7155
-43.5891
-43.481
-43.4702
-43.4188
-43.3468
-43.3592
-44.2974
-44.1663
-43.8552
-43.9375
-43.8372
-43.8633
-43.8009
-43.8253
-43.6727
-43.7145
-44.9746
-44.6826
-44.6987
-44.5525
-44.4142
-44.3062
-44.2736
-44.3742
-44.1345
-44.1794
-44.2448
-45.7055
-45.5643
-45.4821
-45.4558
-45.0146
-44.961
-44.9612
-44.8487
-44.9697
-44.8608
-44.8035
-44.6873
-46.8193
-46.53
-46.428
-46.2205
-46.1533
-45.8575
-46.026
-45.8369
-45.7451
-45.749
-45.8032
-45.7865
-45.7212
-47.5921
-47.4594
-47.3239
-47.3202
-47.1959
-47.1644
-47.1761
-46.9387
-46.7588
-46.9017
-46.9524
-46.9588
-46.7649
-46.7516
-48.9064
-48.8879
-48.774
-48.7213
-48.5177
-48.6386
-48.3784
-48.3426
-48.4288
-48.4113
-48.4137
-48.2351
-48.1328
-47.8281
-47.7778
-50.8409
-50.8165
-50.7688
-50.6636
-50.7518
-50.6405
-50.8342
-50.4934
-50.1224
-50.0728
-49.9656
-50.0789
-50.2236
-49.9631
-49.5539
-49.1994
-53.3353
-53.2942
-53.0981
-53.071
-53.2575
-53.2252
-53.3463
-53.4576
-53.3189
-53.9199
-53.8381
-53.9207
-53.8898
-53.912
-52.2831
-52.22
-51.446
-56.02
-56.0258
-55.9144
-56.3016
-56.4494
-56.6646
-56.9906
-56.9908
-57.1807
-57.8135
-57.9189
-58.4261
-57.8631
-56.9908
-55.6078
-56.1472
-55.4657
-55.2314
-59.5244
-59.3637
-59.2236
-58.9278
-58.5058
-58.9293
-59.5734
-60.5061
-61.4274
-62.5862
-63.8812
-65.1068
-66.127
-65.0131
-65.2345
-64.7849
-61.6135
-61.2677
-57.4135
-62.3334
-62.8449
-62.3513
-62.134
-61.6925
-61.1795
-60.8946
-61.1421
-62.3821
-64.6009
-66.0195
-67.3819
-68.3438
-67.6132
-66.0334
-65.4919
-66.1173
-64.6051
-63.1429
-59.3283
-63.283
-65.0274
-64.9708
-64.5444
-64.0567
-63.4242
-62.713
-62.5442
-62.9506
-64.0795
-65.3728
-67.3982
-68.0326
-67.5936
-66.4504
-65.7303
-65.4121
-65.5374
-65.283
-64.7784
-64.348
-63.6534
-64.6645
-65.0504
-64.8818
-65.2405
-64.5072
-63.9565
-63.7109
-63.6551
-63.7121
-64.4403
-65.2925
-66.0524
-66.1359
-65.8138
-66.0121
-65.5562
-65.1357
-65.3188
-65.9572
-66.8667
-67.5249
-63.7225
-64.1594
-64.9177
-64.963
-65.061
-65.0202
-64.4747
-64.335
-64.2414
-64.3413
-64.5467
-64.8909
-64.9071
-64.9926
-64.9869
-64.9148
-64.7818
-64.6869
-64.3951
-64.9092
-65.0582
-65.3643
-64.8941
-42.0918
-42.1556
-42.1188
-42.2853
-42.2645
-42.1956
-42.4799
-42.3886
-42.3545
-42.3011
-42.5615
-42.584
-42.5385
-42.455
-42.4111
-42.7437
-42.7178
-42.6146
-42.6078
-42.5658
-42.5242
-42.9889
-42.8823
-42.8246
-42.749
-42.7922
-42.6401
-42.691
-43.207
-43.1401
-43.0384
-43.0033
-42.8718
-42.8971
-42.8198
-42.868
-43.6032
-43.4191
-43.3264
-43.2703
-43.2392
-43.2174
-43.165
-43.1918
-43.1745
-43.9625
-43.7151
-43.6601
-43.6081
-43.5466
-43.4759
-43.5004
-43.3637
-43.3503
-43.2979
-44.4305
-44.2302
-44.076
-44.2515
-43.9788
-43.9259
-43.8178
-43.7579
-43.6706
-43.6957
-43.7561
-45.1344
-44.9272
-44.7305
-44.733
-44.5269
-44.3718
-44.3494
-44.2246
-44.2052
-44.1553
-44.1904
-44.3375
-45.7981
-45.7907
-45.5716
-45.4865
-45.0865
-45.0306
-45.0295
-44.98
-44.8576
-44.7942
-44.797
-44.8836
-44.7272
-46.7142
-46.4788
-46.4622
-46.2332
-46.1428
-46.1257
-45.9749
-45.8784
-45.7599
-45.824
-46.0151
-45.6059
-45.7744
-45.7209
-47.7315
-47.5801
-47.412
-47.4677
-47.182
-47.3681
-47.0796
-47.1824
-47.0128
-47.1254
-47.0333
-47.0603
-46.9316
-46.7899
-46.7268
-49.1694
-49.032
-48.9599
-48.8004
-48.8019
-48.2785
-48.6979
-48.6152
-48.628
-48.4976
-48.586
-48.5808
-48.2602
-48.1379
-47.79
-47.7143
-51.3685
-50.8072
-50.9559
-50.8562
-50.8235
-50.5098
-50.7066
-50.5056
-50.3093
-50.5214
-50.1935
-50.4634
-50.3927
-50.2958
-49.9951
-49.563
-49.1985
-53.7145
-53.4478
-53.4383
-53.1243
-53.3293
-53.4498
-53.323
-53.4999
-53.6236
-53.6142
-53.7122
-53.9296
-53.7771
-53.9188
-53.2692
-52.1897
-52.184
-51.5801
-56.3136
-56.1898
-56.2652
-56.1802
-56.4126
-56.7553
-57.0426
-57.1336
-57.065
-57.4361
-57.7813
-58.3413
-58.2518
-58.1727
-56.902
-56.0725
-55.8752
-55.5409
-55.037
-59.1592
-59.8128
-59.7775
-59.6013
-59.1325
-58.92
-59.1677
-59.6669
-60.4776
-61.6112
-62.5944
-64.1781
-65.0923
-65.7593
-64.7238
-64.6878
-64.8014
-61.7839
-61.5681
-57.2223
-61.234
-62.2732
-63.0616
-62.596
-62.456
-61.947
-61.4306
-61.1948
-61.2987
-62.3495
-64.5415
-65.8182
-67.5634
-68.5818
-67.4497
-65.8629
-65.3007
-65.978
-64.654
-62.4421
-59.0472
-62.3119
-63.1358
-64.7685
-64.923
-64.8205
-64.4636
-63.5474
-62.831
-62.6165
-62.9536
-63.9631
-65.3306
-67.1587
-67.9395
-67.4817
-66.5461
-65.8712
-65.4686
-65.5804
-65.6802
-65.1342
-64.8169
-63.138
-63.6087
-64.5857
-64.9947
-64.8911
-65.1596
-64.4777
-63.9785
-63.7357
-63.6247
-63.6886
-64.3509
-65.2348
-65.8765
-66.1028
-65.8009
-66.0587
-65.5727
-65.2156
-65.3696
-66.079
-67.1512
-68.006
-63.0369
-63.7507
-64.1376
-64.8922
-64.9581
-65.0461
-65.0164
-64.4897
-64.3546
-64.2324
-64.3443
-64.5487
-64.865
-64.8641
-64.9533
-64.9638
-64.8869
-64.7748
-64.6687
-64.3781
-64.873
-65.0464
-65.3871
-64.937
-41.9873
-42.0914
-42.061
-42.1978
-42.1148
-42.0873
-42.3416
-42.2523
-42.1964
-42.1661
-42.487
-42.438
-42.2571
-42.3051
-42.267
-42.5918
-42.5513
-42.6386
-42.4825
-42.5207
-42.4061
-42.8158
-42.7779
-42.6795
-42.5482
-42.5826
-42.5656
-42.5431
-43.069
-42.954
-42.9128
-42.8678
-42.691
-42.721
-42.62
-42.682
-43.2845
-43.1891
-43.0923
-43.0369
-42.943
-42.8941
-42.8346
-42.8254
-42.8531
-43.668
-43.464
-43.3655
-43.251
-43.2712
-43.2273
-43.1359
-43.1009
-43.1344
-43.1276
-44.0513
-43.8136
-43.8449
-43.6392
-43.5806
-43.5255
-43.422
-43.3607
-43.3193
-43.3255
-43.2535
-44.5441
-44.3232
-44.2211
-43.9608
-44.1232
-43.8887
-43.9046
-43.8158
-43.6065
-43.706
-43.7344
-43.8061
-45.0682
-45.0324
-44.7729
-44.7225
-44.6079
-44.4412
-44.2381
-44.3045
-44.284
-44.1229
-44.0745
-44.2691
-44.3507
-45.8595
-45.7238
-45.6499
-45.4095
-45.2366
-45.0691
-44.978
-44.9405
-44.9685
-44.9017
-44.8499
-44.7537
-44.8275
-44.7598
-46.7322
-46.6489
-46.5491
-46.3345
-46.1552
-46.2038
-46.2706
-46.0905
-45.8407
-45.9101
-45.9768
-45.5677
-45.6974
-45.7699
-45.8101
-47.8043
-47.6511
-47.5308
-47.3993
-47.2107
-47.2969
-47.1141
-47.1226
-47.2033
-47.1886
-47.096
-47.1272
-47.0171
-46.9021
-46.7527
-46.8118
-49.5048
-49.2435
-48.9699
-48.9787
-49.1519
-48.7245
-48.8383
-48.7418
-48.7543
-48.418
-48.6012
-48.6854
-48.4236
-48.2531
-48.0994
-47.8406
-47.6649
-51.3717
-51.0744
-51.1254
-51.146
-50.9875
-50.9856
-50.6737
-50.6895
-50.4416
-50.0841
-50.5016
-50.6628
-50.3928
-50.5035
-50.3102
-49.9506
-49.5165
-49.2388
-53.9425
-53.851
-53.7068
-53.3461
-53.1833
-53.5677
-53.5938
-53.5813
-53.5984
-53.8276
-54.1645
-53.7623
-53.6896
-54.0905
-54.087
-53.362
-51.8335
-52.0111
-51.8
-56.6346
-56.5739
-56.5308
-56.5355
-56.5676
-56.693
-57.0403
-57.3516
-57.2246
-57.1864
-57.671
-58.0497
-58.4459
-58.3753
-58.2034
-57.0012
-55.7993
-55.7631
-55.734
-54.7215
-58.6919
-59.3697
-59.8954
-60.0393
-59.8592
-59.5246
-59.392
-59.2548
-59.9745
-60.6096
-61.7264
-62.6878
-64.3856
-65.3802
-65.6557
-64.5929
-64.2184
-64.3318
-62.0589
-61.7841
-56.9014
-60.9154
-61.3428
-62.2079
-63.1859
-62.9365
-62.7383
-62.2015
-61.6703
-61.4153
-61.471
-62.4769
-64.5642
-65.8534
-67.5211
-68.5817
-67.2834
-65.8082
-65.1347
-65.5292
-64.7085
-62.134
-59.1553
-61.5609
-62.3271
-62.981
-64.6378
-64.9004
-65.0225
-64.5382
-63.5426
-62.9616
-62.7082
-63.0015
-63.9691
-65.2228
-66.8991
-67.7807
-67.369
-66.6316
-65.9377
-65.4853
-65.582
-66.1019
-65.6984
-65.363
-62.4824
-63.0679
-63.5685
-64.4968
-64.9365
-64.9009
-65.108
-64.4143
-63.9499
-63.7434
-63.6048
-63.65
-64.3242
-65.1587
-65.7254
-66.0291
-65.7654
-66.0884
-65.6051
-65.2831
-65.4067
-66.2106
-67.4824
-68.5037
-62.3115
-63.0407
-63.7708
-64.1175
-64.8637
-64.9522
-65.0323
-65.0136
-64.506
-64.3743
-64.2283
-64.3443
-64.5597
-64.8398
-64.8241
-64.9048
-64.9432
-64.8533
-64.7742
-64.641
-64.3688
-64.8111
-65.0385
-65.4082
-64.9523
-41.9715
-41.9478
-42.0883
-42.0652
-42.0252
-42.2153
-42.1054
-42.1002
-42.079
-42.3621
-42.2354
-42.1926
-42.1834
-42.1447
-42.5457
-42.438
-42.3283
-42.3084
-42.2141
-42.2617
-42.6266
-42.6604
-42.5267
-42.4982
-42.4537
-42.5504
-42.4015
-42.8714
-42.774
-42.7105
-42.6437
-42.615
-42.498
-42.5549
-42.5039
-43.1178
-43.0707
-42.8707
-42.8468
-42.7319
-42.7095
-42.6268
-42.6658
-42.6619
-43.3593
-43.2804
-43.1712
-43.0318
-43.0233
-42.9288
-42.8387
-42.8499
-42.8007
-42.8369
-43.6905
-43.5957
-43.4569
-43.3061
-43.2414
-43.243
-43.1256
-43.105
-43.0933
-43.1488
-43.2217
-44.0491
-43.9382
-43.8009
-43.6207
-43.6131
-43.487
-43.5035
-43.4385
-43.3191
-43.3075
-43.3642
-43.2757
-44.6382
-44.3422
-44.3641
-44.1659
-44.1931
-43.918
-43.8661
-43.892
-43.8044
-43.836
-43.6724
-43.6886
-43.7595
-45.2694
-45.1182
-44.9203
-44.8431
-44.6568
-44.5284
-44.3543
-44.3113
-44.3665
-44.2054
-44.1102
-44.2686
-44.251
-44.3459
-46.1101
-45.9415
-45.753
-45.6017
-45.3893
-45.2782
-45.2829
-45.0784
-45.0225
-44.955
-44.8622
-44.8577
-44.8792
-44.7755
-44.8041
-47.1204
-46.7928
-46.7062
-46.3741
-46.436
-46.2962
-46.0747
-45.6372
-45.8104
-45.8931
-46.0258
-45.9666
-45.6943
-45.8459
-45.7393
-45.9282
-47.8583
-47.9335
-47.7078
-47.4723
-47.6744
-47.6716
-47.2048
-47.2966
-47.3949
-47.3262
-47.0457
-47.1838
-47.1433
-47.0478
-46.9689
-46.9494
-46.882
-49.7664
-49.5804
-49.2503
-49.2345
-49.1275
-48.8781
-48.7329
-48.7627
-48.5092
-48.6056
-48.6292
-48.69
-48.4823
-48.6133
-48.1756
-48.0353
-47.9579
-47.5468
-51.7832
-51.4652
-51.1888
-51.2923
-50.9383
-51.0975
-51.0095
-51.1205
-51.0715
-50.5982
-50.7629
-50.5916
-50.7137
-50.6609
-50.7903
-50.1506
-50.1238
-49.5415
-49.4131
-54.055
-54.0102
-54.0833
-53.8246
-53.4626
-53.4868
-53.8959
-53.8224
-53.8104
-53.8649
-54.0118
-54.1766
-54.1411
-54.1321
-53.9422
-54.0059
-53.3175
-52.0169
-51.8103
-51.9021
-56.3915
-56.7105
-56.9173
-56.7102
-56.7656
-56.8916
-57.0968
-57.2525
-57.4781
-57.4767
-57.3977
-57.8012
-58.2934
-58.4894
-58.6457
-58.2673
-57.6024
-56.1095
-55.94
-55.6475
-54.2551
-58.5867
-58.8552
-59.3723
-60.0984
-60.2191
-60.1701
-59.9173
-59.6955
-59.5288
-60.2337
-60.7949
-61.697
-63.1054
-64.5498
-65.4396
-65.646
-64.3075
-64.0144
-63.9754
-61.9974
-62.9842
-56.648
-60.3608
-61.1011
-61.495
-62.3811
-63.1875
-63.2984
-63.0504
-62.4557
-61.9344
-61.5395
-61.6368
-62.5395
-64.5406
-66.1107
-67.5506
-68.5093
-67.1282
-65.9694
-65.0005
-65.1752
-64.7408
-62.1484
-59.4895
-60.826
-61.624
-62.3449
-62.8325
-64.5393
-64.8872
-65.2678
-64.537
-63.4388
-63.0735
-62.646
-62.9588
-63.9047
-65.1056
-66.6741
-67.5149
-67.2346
-66.7541
-66.0431
-65.5483
-65.5767
-66.6124
-66.4069
-65.935
-61.7278
-62.4685
-63.0085
-63.5091
-64.4371
-64.8734
-64.8984
-65.0514
-64.3602
-63.9148
-63.7219
-63.5622
-63.6109
-64.2303
-65.0771
-65.6818
-65.9683
-65.7053
-66.0974
-65.6292
-65.3101
-65.4301
-66.3123
-67.8318
-69.0453
-62.3409
-61.7628
-63.0595
-63.7552
-64.1084
-64.8413
-64.9465
-65.0202
-65.0117
-64.5245
-64.3924
-64.2262
-64.3339
-64.5647
-64.814
-64.7818
-64.8477
-64.9041
-64.8137
-64.7462
-64.6094
-64.3512
-64.7678
-65.0399
-65.4246
-41.9537
-41.931
-41.9082
-42.0814
-42.0046
-42.0261
-41.9887
-42.215
-42.1386
-42.1206
-42.0838
-42.0381
-42.2554
-42.3051
-42.1639
-42.2025
-42.1675
-42.114
-42.4943
-42.3691
-42.4117
-42.2494
-42.2915
-42.162