/*--------------------------------*- C++ -*----------------------------------*\
  =========                 |
  \\      /  F ield         | OpenFOAM: The Open Source CFD Toolbox
   \\    /   O peration     | Website:  https://openfoam.org
    \\  /    A nd           | Version:  7
     \\/     M anipulation  |
\*---------------------------------------------------------------------------*/
FoamFile
{
    version     2.0;
    format      ascii;
    class       surfaceScalarField;
    location    "7";
    object      phi_0;
}
// * * * * * * * * * * * * * * * * * * * * * * * * * * * * * * * * * * * * * //

dimensions      [0 3 -1 0 0 0 0];

internalField   nonuniform List<scalar> 
54125
(
8.00247e-05
-7.23061e-05
-8.85227e-05
0.000251358
-0.000112996
0.00121498
-1.90666e-06
-0.000123256
-0.000798055
7.8714e-05
-6.0759e-05
-0.000106477
0.000452523
-0.000166499
0.00303158
-1.12068e-05
-0.000235891
0.00118886
0.000164557
-9.67008e-05
0.00122584
2.56292e-05
-0.000134362
-0.000676938
-2.94422e-06
-0.000104494
-0.000751375
8.37937e-05
-5.6607e-05
-0.000133664
0.000862011
0.000101291
0.00517536
0.000279139
-0.000210638
0.00245731
0.000346841
-0.000245038
0.00309433
-1.78907e-05
-0.000180169
0.00143344
3.04154e-05
-0.000221884
0.00128068
0.00018866
-9.34143e-05
0.00121438
0.000109581
-0.00011258
-0.000402442
2.07089e-05
-0.00011304
-0.0006891
-4.68453e-06
-9.74427e-05
-0.000705855
9.04608e-05
-5.24841e-05
-0.000171641
0.000442845
0.000357023
0.00521899
0.000823996
0.00030558
0.00544442
0.000697645
-0.000191983
0.00501654
0.000146668
5.17341e-05
0.00308915
0.000386398
-0.000246663
0.00210295
0.000354166
-0.000230664
0.00315949
0.000116269
-0.000151402
0.0015009
-1.61628e-05
-0.000171154
0.00141959
5.87135e-05
-0.000229523
0.00135339
0.000205249
-8.59849e-05
0.00118558
7.71927e-05
-8.18746e-05
-6.81763e-05
9.96468e-05
-9.67699e-05
-0.000518359
1.92903e-05
-0.000103548
-0.000702285
-5.37415e-06
-9.05109e-05
-0.000662454
9.55788e-05
-4.88627e-05
-0.000218357
-0.00056711
0.000612561
0.0058246
0.000231031
0.000743181
0.00644855
0.000115713
0.000174665
0.00562625
0.000177587
0.000540153
0.00816823
0.000889134
-3.84414e-05
0.00478814
0.000551299
-0.000108997
0.0049284
0.000180926
0.000382314
0.00335568
0.000138446
-2.20948e-05
0.00270997
0.000291777
-0.000327872
0.00196709
0.000402379
-0.000208042
0.0031704
0.000145953
-0.000133039
0.00208027
7.43935e-05
-0.000141308
0.00149631
-1.76338e-05
-0.000182868
0.00140985
8.07595e-05
-0.000235421
0.0014167
0.000223982
-7.1731e-05
0.00112891
5.88195e-05
-6.35337e-05
-0.000581795
7.85896e-05
-7.16691e-05
-0.000171867
9.58706e-05
-8.96918e-05
-0.000628086
1.98158e-05
-9.38894e-05
-0.000718723
-4.71878e-06
-8.40905e-05
-0.000622508
9.99299e-05
-4.55796e-05
-0.000272707
-0.00101144
0.000372994
0.00507566
-0.000582418
0.00113604
0.00616509
-0.000672355
0.00057709
0.00603558
-0.000157805
0.000983326
0.00701156
0.000310493
0.0006153
0.00658656
-7.30934e-05
0.000265274
0.00598537
0.000138352
0.000703571
0.00776812
0.000279463
0.000401857
0.00758692
0.000590337
6.22097e-05
0.00431838
0.000420923
-0.000324609
0.00523446
0.000282769
0.000264698
0.00421314
0.000164528
0.000242612
0.00300084
0.000174011
-0.000233833
0.00242429
0.000363232
-0.000364634
0.00184121
0.000405875
-0.000191827
0.00318033
0.000247369
-0.000116109
0.00163749
0.000173571
-0.00013084
0.00197482
6.0079e-05
-0.000146146
0.00149538
-8.87745e-07
-0.000198332
0.00139347
0.000103055
-0.000238952
0.00147614
0.00023684
-5.58706e-05
0.00104787
6.50478e-05
-7.69002e-05
-0.00103772
5.16707e-05
-5.51456e-05
-0.000649989
8.39044e-05
-6.91211e-05
-0.000276342
9.11894e-05
-8.2024e-05
-0.000731141
1.515e-05
-8.4394e-05
-0.000733569
-3.34834e-06
-7.83107e-05
-0.000586428
0.000102517
-4.26882e-05
-0.000332536
-0.00124052
0.00017385
0.00477002
-0.000799786
0.000592625
0.00603866
-0.000993301
0.000378101
0.00501851
-0.000250532
0.00114062
0.00646963
-0.000474939
0.00103244
0.00649517
-0.000800901
0.000580984
0.00618241
6.82976e-05
0.000898467
0.00820126
3.04921e-05
0.000885526
0.00699031
0.000160318
0.000712312
0.00656954
-0.000392987
0.000313054
0.00648623
0.000206896
0.000775846
0.00682673
0.000297965
0.000571952
0.00746459
0.00037432
0.000392719
0.0070561
0.000590429
-0.000129912
0.00389648
0.00052803
-0.000230684
0.00534299
0.000569955
0.000250385
0.00381252
0.000384579
0.000170842
0.0040739
0.000170249
6.77995e-05
0.00258904
0.000273738
-0.00034952
0.00213455
0.00033316
-0.000346367
0.00176565
0.000400788
-0.000144856
0.00316124
0.000235242
-0.000109272
0.00121413
0.000212899
-0.000136595
0.00148202
0.000180026
-0.000143467
0.00187602
7.33222e-05
-0.000154164
0.00146908
6.14739e-06
-0.000217329
0.00138085
0.000126176
-0.000231643
0.00152239
0.000236738
-4.01482e-05
0.000953797
3.82489e-05
-8.69211e-05
-0.000463065
5.19857e-05
-6.93118e-05
-0.00107554
4.92336e-05
-5.43325e-05
-0.000714012
8.47555e-05
-6.65256e-05
-0.000376596
8.62722e-05
-7.39363e-05
-0.000827871
1.13594e-05
-7.56024e-05
-0.000747637
-1.67352e-06
-7.33179e-05
-0.000554125
0.000103175
-4.01817e-05
-0.000395529
-0.00131199
6.32572e-05
0.00435777
-0.000998066
0.000335746
0.00543636
-0.00117542
0.00019221
0.00475993
-0.000434279
0.000718896
0.00602825
-0.00078151
0.000535523
0.00618781
-0.00114098
0.000314068
0.00504451
0.000269226
0.000984077
0.00687781
-0.000105423
0.00111074
0.00652724
-0.00052079
0.000972581
0.00678468
-0.000910907
0.000569772
0.00613055
0.000107001
0.000752274
0.00814312
0.000186141
0.000828625
0.00836999
9.4583e-05
0.000923023
0.00705933
4.46131e-05
0.00053169
0.00689672
-0.000277902
0.000239671
0.00705249
0.00066052
0.000647604
0.00599815
0.0003615
0.000672956
0.0067488
0.000378201
0.000603461
0.0070459
0.000755802
0.000338654
0.00610547
0.000344629
-0.00024595
0.00390028
0.000393013
-0.000198833
0.0055496
0.000503849
0.000372402
0.00217155
0.000519939
0.000260041
0.00341628
0.000386138
0.000203722
0.00373187
0.000248136
-2.28951e-05
0.0020876
0.000331439
-0.000370349
0.00183324
0.000342814
-0.000288806
0.00169296
0.000316031
-8.96719e-05
0.00317162
0.0001529
-5.97971e-05
0.00133447
0.000202247
-0.000128606
0.00105588
0.000149687
-0.000156256
0.00139435
0.00017537
-0.00015315
0.00178439
9.34901e-05
-0.000164296
0.00140882
2.12257e-05
-0.000230271
0.00136961
0.000146649
-0.000216852
0.00155077
0.000222127
-2.80348e-05
0.000862879
2.89878e-06
-6.88663e-05
-0.000317243
3.49083e-05
-8.147e-05
-0.000485816
4.69125e-05
-6.92043e-05
-0.00110758
4.51437e-05
-5.39499e-05
-0.000771731
8.10164e-05
-6.3591e-05
-0.000467958
7.70319e-05
-6.60984e-05
-0.000914406
3.62994e-06
-6.79861e-05
-0.000756599
3.98752e-07
-6.9174e-05
-0.000525532
0.00010341
-3.81214e-05
-0.000460818
-0.00153356
3.84826e-05
0.00413446
-0.00106693
8.61727e-05
0.00531799
-0.00124827
0.000132863
0.00429775
-0.000698572
0.000480688
0.00571567
-0.00105167
0.000360393
0.00553833
-0.00126722
0.000231968
0.00465421
0.000110996
0.00079511
0.00604609
-0.00037284
0.000725781
0.00610541
-0.0007283
0.000459467
0.00624992
-0.0011501
0.000238097
0.0050456
0.000297165
0.000851651
0.00713206
-0.000101784
0.00104114
0.00723534
-0.00018139
0.00113314
0.00664266
-0.000600662
0.000936302
0.00706342
-0.00109583
0.000548122
0.00640036
0.000742345
0.000762608
0.00750964
0.000202072
0.000851957
0.00827922
0.000196284
0.000933123
0.00854181
0.000518521
0.000722669
0.00710564
-0.000159928
0.000804028
0.00683692
-0.000476472
0.00056664
0.00735533
0.000854843
0.000456262
0.00491295
0.000723126
0.00057528
0.00589264
0.000465382
0.000721741
0.00655128
0.000625217
0.000521204
0.00648627
0.000557424
-5.90224e-05
0.00569255
9.86184e-05
-0.000437195
0.00438284
0.000193228
-0.000118918
0.00579132
0.000237741
0.000307097
0.00292861
0.000479501
0.000407882
0.00174646
0.000430743
0.000289809
0.00304913
0.000408252
0.000209912
0.00326618
0.000338114
-0.000163855
0.00163648
0.000277981
-0.00031877
0.00160645
0.000381696
-0.00022203
0.00159027
0.000265041
-4.56176e-05
0.00317433
6.35702e-05
-6.70522e-05
0.000939823
0.000155541
-7.56022e-05
0.00116083
0.000195118
-0.00015176
0.000903176
0.000127463
-0.000150906
0.00130979
0.000182356
-0.000152641
0.00167139
9.39398e-05
-0.00018105
0.00134269
2.43821e-05
-0.000225712
0.00135772
0.000164793
-0.000196687
0.00155503
0.000206499
-2.58764e-05
0.000785666
-2.12396e-05
-6.53311e-05
-0.000144045
2.21699e-06
-6.62051e-05
-0.000334725
3.32028e-05
-8.41036e-05
-0.000504119
4.97092e-05
-6.90317e-05
-0.00114221
4.38953e-05
-5.35646e-05
-0.000825653
7.75878e-05
-6.03972e-05
-0.000551247
7.23377e-05
-5.91083e-05
-0.000995622
-5.5387e-06
-6.16983e-05
-0.000758536
1.65901e-06
-6.57775e-05
-0.000499535
0.000103067
-3.65548e-05
-0.00052733
-0.00163953
9.84456e-05
0.00326427
-0.00126059
0.000104035
0.00477543
-0.00129363
-5.9634e-05
0.00423947
-0.00081735
0.000227899
0.00532651
-0.000913658
0.000120438
0.0051924
-0.00119591
1.5702e-05
0.00421073
-0.00023252
0.000620785
0.00590119
-0.000612783
0.000488728
0.00582727
-0.000733286
0.000356667
0.00541862
-0.00133196
0.000184445
0.00465163
0.000263041
0.000783623
0.00590669
-0.000303965
0.000790391
0.00618366
-0.000516804
0.000679925
0.00622036
-0.000714352
0.000416951
0.00618476
-0.00124781
0.000173389
0.0050242
0.000727229
0.000952937
0.00653882
0.000419561
0.000993113
0.00696259
0.000327663
0.00109983
0.00713727
4.40548e-05
0.00111094
0.00694248
-0.00060993
0.000851735
0.00720981
-0.00120289
0.000533292
0.00659348
0.00103498
0.000770129
0.00622771
0.000721253
0.000975376
0.00738809
0.000362788
0.000988345
0.00832659
0.000417381
0.000873738
0.00859857
8.88133e-05
0.00084016
0.00753811
-0.000574299
0.000603082
0.00747339
-0.000507401
0.000451326
0.00760464
0.000607252
0.000402129
0.00492401
0.000650281
0.000394946
0.0049225
0.000805548
0.000617794
0.00562178
0.00078672
0.000719042
0.00597497
0.000781458
0.000223197
0.0057607
0.000891306
-0.000432485
0.00507452
4.86036e-05
-0.000404364
0.00500137
7.19668e-05
-9.53998e-06
0.00599394
0.000170208
0.000122839
0.00292463
0.000293543
0.000378573
0.00281992
0.000485324
0.000395336
0.00135073
0.000433745
0.000260113
0.00269265
0.000498743
0.000100238
0.0026857
0.000300468
-0.000236131
0.00134732
0.000327583
-0.000261082
0.0013423
0.000400031
-0.000183859
0.00149327
0.0001705
4.64708e-06
0.00320568
-2.11275e-05
-0.000145015
0.000529612
5.45729e-05
-7.76268e-05
0.000889492
0.000183502
-0.000106428
0.000965202
0.000185908
-0.000152167
0.000768238
0.000135232
-0.000145144
0.00121096
0.0001832
-0.000144361
0.00152909
0.000108169
-0.000183478
0.00126463
1.80421e-05
-0.000210416
0.00134787
0.000177125
-0.000172751
0.00152644
0.000170705
-3.54705e-05
0.000753498
-3.29473e-05
-6.92175e-05
-4.19381e-05
-1.83178e-05
-6.11516e-05
-0.000130781
1.96065e-06
-7.01603e-05
-0.000350629
2.95366e-05
-8.66731e-05
-0.000516014
5.27279e-05
-6.87234e-05
-0.00117978
4.73564e-05
-5.29063e-05
-0.0008805
7.75095e-05
-5.75263e-05
-0.000630338
6.91552e-05
-5.32772e-05
-0.0010732
-7.50995e-06
-5.6746e-05
-0.000760058
1.89213e-07
-6.30399e-05
-0.000473239
0.000101344
-3.55234e-05
-0.000593151
-0.00177182
0.000140071
0.00289776
-0.0013266
0.000102076
0.00409164
-0.00149678
9.44178e-05
0.003373
-0.000951391
0.000247309
0.0048316
-0.000895335
-6.79083e-05
0.00476538
-0.0012177
-2.02128e-05
0.00428147
-0.000515047
0.000427537
0.00535456
-0.000829186
0.000210239
0.00545311
-0.000845172
6.68687e-05
0.00525312
-0.00134115
2.90998e-05
0.00419082
0.000119298
0.00078125
0.00552475
-0.000138971
0.000540549
0.00568438
-0.000575782
0.000475204
0.00576771
-0.000764531
0.000328124
0.00532512
-0.0013927
0.000229982
0.00456653
0.000371645
0.000899689
0.00581371
0.000418291
0.000729709
0.00596865
0.000176447
0.000783592
0.00623121
-0.000353804
0.000697036
0.00633814
-0.000866673
0.00039169
0.0062232
-0.0013366
0.000192326
0.00496559
0.000653702
0.00133147
0.0061268
0.000592526
0.00110979
0.00655087
0.00055758
0.00111123
0.0067564
0.000290307
0.00107067
0.00730462
-3.08556e-05
0.00105879
0.0068551
-0.000612693
0.000736035
0.00704546
-0.00116436
0.000502013
0.00674843
0.00068206
0.000881233
0.00582191
0.000544936
0.000887574
0.00642086
0.000844923
0.0010184
0.00731866
0.00085872
0.00102559
0.00810274
0.000505915
0.000859091
0.00885519
0.000759885
0.000312608
0.00796001
-0.000636606
0.000547712
0.00806222
-0.000598369
0.000432454
0.00784252
0.000462729
0.0003805
0.00497844
0.000636225
0.000287252
0.00468902
0.000851399
0.000425706
0.00474851
0.000941445
0.000643076
0.00519004
0.0010494
0.000545147
0.00510237
0.000905455
7.19889e-05
0.00465124
0.000813534
-0.000456186
0.00464039
4.44619e-05
-0.000267048
0.00561445
-0.000204542
5.29773e-05
0.006316
0.000248212
1.81995e-05
0.00264319
0.000180258
0.000195087
0.00298243
0.00036722
0.000444418
0.00258712
0.000495497
0.000325373
0.000975877
0.000524783
0.000217555
0.00218579
0.000378424
5.9608e-06
0.00224838
0.000175839
-0.000206716
0.00122528
0.000339476
-0.000222247
0.00105925
0.000489536
-0.000134373
0.00131988
5.98296e-05
6.66305e-05
0.00324992
-1.20764e-05
-0.000190783
0.000217233
-2.52422e-05
-0.000138899
0.000597808
6.98763e-05
-0.00010006
0.000815208
0.000207601
-0.00013841
0.000773381
0.000155461
-0.000156737
0.000677098
0.000136008
-0.00011882
0.00109676
0.000168365
-0.0001277
0.00138246
0.000129462
-0.000175966
0.00116987
3.05234e-05
-0.000190852
0.00132794
0.000168628
-0.000157241
0.00147977
0.000148661
-4.90478e-05
0.000755229
-3.08887e-05
-6.58723e-05
0.000234776
-2.97577e-05
-6.35214e-05
-9.81083e-06
-1.64656e-05
-6.35254e-05
-0.00012095
2.24839e-06
-7.42196e-05
-0.000365331
2.82684e-05
-8.90082e-05
-0.000523998
5.72046e-05
-6.87543e-05
-0.00122113
5.30068e-05
-5.24716e-05
-0.000938561
7.98655e-05
-5.53682e-05
-0.000708113
5.9097e-05
-4.88161e-05
-0.00114023
-1.01857e-05
-5.31001e-05
-0.000759812
-2.74458e-06
-6.07143e-05
-0.000445304
9.88973e-05
-3.45074e-05
-0.000657541
-0.00168446
-0.000146445
0.00276145
-0.00125763
6.1784e-05
0.00369531
-0.00166482
0.000152823
0.00291298
-0.00117164
0.000245951
0.00444216
-0.00112114
5.46434e-05
0.00435723
-0.00143156
7.40952e-05
0.00351277
-0.000703752
0.000337328
0.00501839
-0.00096038
9.05369e-05
0.00480434
-0.000986097
-3.65475e-05
0.00492264
-0.00125835
-6.04261e-05
0.0042591
-0.000171131
0.000676166
0.00542714
-0.000352521
0.000393848
0.0053845
-0.00069541
0.000220201
0.00541941
-0.000852586
8.10716e-05
0.00528921
-0.00142079
8.18105e-05
0.0041371
0.000244966
0.000854911
0.00573455
0.00018698
0.000691107
0.0056055
-0.000159191
0.000648043
0.00584718
-0.000530561
0.000497763
0.00577483
-0.000872768
0.00035272
0.00520847
-0.00147411
0.000213263
0.00449078
0.000206858
0.00112465
0.00611105
0.00046992
0.000809318
0.00585671
0.000638025
0.000812221
0.00585957
3.43292e-05
0.000818526
0.0063657
-0.00037974
0.000665796
0.00641291
-0.000799096
0.000382451
0.00621948
-0.0013465
0.000186654
0.00496107
0.00024711
0.00131836
0.00649144
0.000627001
0.00118518
0.00596935
0.000702103
0.00118869
0.00661624
0.000588314
0.00115094
0.00694653
0.000898057
0.00106043
0.00691084
0.00010746
0.000926626
0.00731693
-0.000669414
0.000622148
0.00695814
-0.00119963
0.000435262
0.00691444
0.000652723
0.00101879
0.00620114
0.00058169
0.000856266
0.00590775
0.000961359
0.000953663
0.00637564
0.00123003
0.00106714
0.00698853
0.00105448
0.00099038
0.00796637
0.000802426
0.000711994
0.00855883
0.000692791
0.000347157
0.00828131
-0.000638771
0.000574057
0.00860385
-0.000745734
0.000421759
0.00796195
0.00058386
0.00031083
0.00511947
0.00030264
0.000252869
0.00489044
0.000737033
7.86155e-05
0.0046663
0.000957325
0.000499063
0.0044307
0.00113732
0.000572865
0.00454979
0.000878117
0.000481825
0.00419284
0.00074038
4.50996e-05
0.00358542
0.000737364
-0.000224111
0.00419957
-5.87973e-06
-4.70704e-05
0.00620991
-0.000503452
0.000294192
0.00658509
0.000260209
8.17855e-05
0.00307558
0.000159095
1.23134e-05
0.00264163
0.000273218
0.000260265
0.00296324
0.000444052
0.000446612
0.00222943
0.000461684
0.000260843
0.000626366
0.000427545
0.000164808
0.0017354
0.000167033
-1.99216e-05
0.00206292
5.30073e-05
-0.000168693
0.00124818
0.000208993
-0.000191218
0.000937629
0.000338789
-7.90963e-05
0.00129545
-5.08487e-05
0.000117366
0.00333207
-4.24014e-06
-0.000166057
0.000617541
-2.25184e-05
-0.000175218
0.000246312
-9.64051e-06
-0.000152727
0.00064365
9.04736e-05
-0.000127762
0.000716336
0.000214795
-0.000166597
0.000596714
0.000164681
-0.000149836
0.000600638
0.000130835
-0.000103042
0.000994277
0.000160124
-0.000122338
0.00124857
0.000117063
-0.000164997
0.00108605
2.77193e-05
-0.000171519
0.00130431
0.000149447
-0.000151025
0.00142956
0.000106936
-5.96707e-05
0.000806861
-5.05176e-05
-6.89078e-05
0.00100638
-3.24648e-05
-6.05885e-05
0.000264308
-2.92856e-05
-6.43562e-05
2.03055e-05
-1.45858e-05
-6.61801e-05
-0.000114404
3.10089e-06
-7.82905e-05
-0.000379149
3.09255e-05
-9.09054e-05
-0.000532772
5.40208e-05
-6.86201e-05
-0.00125901
5.51112e-05
-5.19698e-05
-0.000997071
8.22415e-05
-5.35627e-05
-0.000785608
4.97296e-05
-4.55451e-05
-0.00119751
-1.9119e-05
-5.04327e-05
-0.000750974
-4.44196e-06
-5.82248e-05
-0.000417144
9.36001e-05
-3.32802e-05
-0.000717861
-0.00169465
-2.93278e-05
0.0026684
-0.00134066
-1.45543e-05
0.0035423
-0.0015164
-0.000166842
0.00277988
-0.00116649
9.51184e-05
0.00395956
-0.00109297
0.000138166
0.00368179
-0.00161536
0.000174541
0.00292223
-0.000920857
0.000373725
0.00453105
-0.00107716
0.00020479
0.00440879
-0.00105685
5.07497e-05
0.00445133
-0.00140121
9.60006e-05
0.00355963
-0.000389798
0.000491436
0.00491909
-0.00024256
0.000258149
0.00474082
-0.000795097
4.16282e-05
0.00482585
-0.000897827
-4.32692e-05
0.00495072
-0.00135287
-7.82379e-05
0.00426942
8.0947e-05
0.000847858
0.00544779
-0.000102876
0.000647946
0.0054629
-0.000332456
0.000350553
0.00542742
-0.000723661
0.000193045
0.00550053
-0.000802081
0.000187552
0.00511278
-0.00148718
9.13232e-05
0.00405884
0.000207929
0.00092854
0.0058632
0.000381766
0.000810005
0.0057038
0.000304628
0.000754553
0.00583239
-0.000105081
0.000724389
0.00575996
-0.000565582
0.000457135
0.00585626
-0.000909696
0.000309467
0.00522287
-0.00145459
0.000202373
0.0043965
0.000275413
0.0010368
0.00653636
0.000595215
0.000932062
0.00602009
0.00054862
0.000820429
0.00600198
0.000183993
0.000874852
0.00620757
0.000547944
0.000825674
0.00655593
-0.000392555
0.000751918
0.00654346
-0.000950167
0.000417468
0.00626942
-0.00148166
0.000219355
0.00502374
0.00051514
0.00121461
0.00700194
0.00026875
0.00123617
0.0067534
0.000484766
0.00117498
0.00645965
0.001023
0.00130088
0.00667333
0.000935896
0.00118453
0.00694101
0.000404012
0.00101289
0.00722299
0.000187786
0.000841735
0.00760235
-0.000675142
0.000566629
0.00686314
-0.00122368
0.000411043
0.00698134
0.000567416
0.001029
0.00656613
0.000380636
0.000894556
0.00608486
0.000654654
0.000865906
0.00607789
0.00117157
0.00101571
0.00621282
0.00113562
0.00108131
0.0068993
0.0010041
0.000957041
0.00759534
0.000896415
0.000549348
0.0082006
0.00042114
0.000508541
0.00866305
-0.000877705
0.000671374
0.00922606
-0.000974967
0.000341077
0.00809239
0.00055187
0.000381469
0.00585445
0.00013572
0.000173544
0.00522217
0.000676695
-6.13415e-05
0.00462692
0.000695096
0.00042947
0.00448484
0.00105043
0.000498903
0.00391592
0.000993303
0.000540842
0.00392501
0.000692868
0.000467997
0.0032441
0.000461904
0.000179517
0.00277289
0.000371536
5.22638e-05
0.00393769
0.000113034
0.000324717
0.00640514
-0.000715404
0.000367283
0.00688236
0.000185501
0.000174493
0.00429572
0.000216353
4.76124e-06
0.00284426
0.000174712
4.09708e-05
0.00267657
0.000283203
0.000289798
0.00292733
0.00048287
0.000417699
0.0018045
0.000404418
0.000167748
0.000383688
0.0001758
0.000112851
0.00155766
0.000157707
-4.53681e-05
0.00194201
9.02611e-05
-0.000132235
0.001216
4.72061e-05
-0.000155472
0.000994518
0.000305363
-1.04228e-05
0.00126732
-0.000214965
0.000164793
0.00348917
2.08103e-05
-0.000133734
0.00147388
-2.1777e-05
-0.000143883
0.000575518
-5.23894e-05
-0.000181883
0.000298573
2.135e-05
-0.000172854
0.000652805
0.000110773
-0.000157913
0.000599979
0.000217352
-0.000189541
0.000449992
0.000180256
-0.000166289
0.00053765
0.000146438
-0.000105814
0.000886426
0.000198896
-0.000121108
0.00108803
0.000111481
-0.000144626
0.000997406
8.33252e-06
-0.000161988
0.00128782
0.000130178
-0.00015226
0.00138753
9.51367e-05
-6.27654e-05
0.00086809
-2.64563e-05
-7.96707e-05
0.00081327
-4.81327e-05
-6.30876e-05
0.00105701
-3.53896e-05
-6.16781e-05
0.000297019
-2.87039e-05
-6.53099e-05
4.81392e-05
-1.23268e-05
-6.9104e-05
-0.000111263
4.32486e-06
-8.21491e-05
-0.00039223
3.23538e-05
-9.22472e-05
-0.000541499
4.86737e-05
-6.78093e-05
-0.00129184
5.67762e-05
-5.16249e-05
-0.00105579
8.53167e-05
-5.18366e-05
-0.000864633
4.89565e-05
-4.30371e-05
-0.00125386
-2.32437e-05
-4.82358e-05
-0.00073772
-1.6428e-06
-5.56407e-05
-0.000393141
9.08418e-05
-3.1526e-05
-0.000777176
-0.00180056
6.0301e-05
0.00228204
-0.00141445
-7.14128e-05
0.00300645
-0.00148677
-3.23673e-05
0.00267114
-0.00117346
-7.5393e-05
0.0038372
-0.00119833
-5.7805e-05
0.00353862
-0.00154298
-0.000182354
0.00288986
-0.00104992
0.000283764
0.00401942
-0.00102738
8.54343e-05
0.00396251
-0.0010548
0.000160938
0.00369334
-0.00160531
0.000163843
0.00296248
-0.000468281
0.000450061
0.0044838
-0.000474255
0.0003905
0.00457704
-0.000934472
3.55606e-05
0.00456336
-0.000931247
8.7862e-05
0.00449289
-0.00149229
6.05758e-05
0.00363847
-0.000188009
0.000691803
0.00502686
-0.00032771
0.000404964
0.00499711
-0.000748912
0.000289054
0.00490985
-0.000953729
1.96503e-05
0.004993
-0.000773057
-9.17043e-05
0.00493517
-0.00139552
-0.00013499
0.00431275
0.000228763
0.000895066
0.00547224
0.000158348
0.000836923
0.00548223
-0.000117933
0.000608134
0.00562788
-0.000369126
0.000387164
0.00549734
-0.000452388
0.000252632
0.00532226
-0.000885175
0.000190234
0.00498935
-0.00151774
0.000234699
0.00388729
0.000376235
0.000874808
0.00621761
0.000411421
0.000930859
0.00592614
0.000347888
0.000861492
0.0057976
2.55633e-05
0.000833844
0.00588137
-0.000229968
0.00070985
0.00628516
-0.000647551
0.000550033
0.00587069
-0.000996931
0.000305696
0.00516631
-0.0017018
0.000200753
0.00441588
0.000396146
0.00103615
0.0068654
0.000119099
0.000900312
0.00671776
0.000176853
0.000909147
0.00623929
0.00030849
0.000979275
0.00661207
0.000555111
0.00100539
0.00640864
1.68388e-05
0.000899669
0.00679535
-0.000450312
0.000725091
0.00687394
-0.000934112
0.000406981
0.00634076
-0.00144379
0.000442954
0.0048009
0.000611237
0.00104263
0.00776023
0.000370731
0.00105481
0.00719321
0.000190477
0.00115793
0.00723462
0.00124075
0.00120437
0.00648697
0.000715869
0.00128788
0.00698973
0.000860539
0.00112896
0.0069685
0.000452365
0.000963927
0.00754485
-0.000131428
0.000895115
0.00782643
-0.00086122
0.00054473
0.00671297
-0.001255
0.000286615
0.00697476
0.000475991
0.000793444
0.00715724
6.05232e-05
0.000807117
0.00672877
0.000655806
0.000882155
0.0060895
0.000630276
0.00102194
0.00613647
0.000974652
0.0011091
0.0062608
0.000985068
0.00107797
0.0067866
0.00129203
0.000775128
0.0067704
0.000750244
0.000622428
0.00779838
-7.31791e-05
0.000732702
0.00904643
-0.000403295
0.000605306
0.00947816
-0.00108695
0.000451238
0.0080127
0.000489221
0.000589105
0.00609525
0.000475423
0.000222597
0.00554633
0.000473735
7.79503e-05
0.00478386
0.000598427
0.000255479
0.00448569
0.000718966
0.000468257
0.00427939
0.000930237
0.000462582
0.00346836
0.000672638
0.000601377
0.00329479
0.000707482
0.000347087
0.00252676
0.000390627
0.000184376
0.00234041
0.000273509
0.000291009
0.00374509
0.000224635
0.000376525
0.00647663
-0.00086115
0.0004064
0.00712215
0.000265714
0.000193317
0.004268
0.000156188
0.000150669
0.00397185
0.00011814
-4.40981e-06
0.00271911
0.000178172
5.96837e-05
0.00274987
0.000339834
0.000330012
0.00278595
0.000465494
0.000346217
0.00137788
0.000242428
8.13997e-05
0.000352967
0.000216902
4.45103e-05
0.00139732
0.000283437
-2.08209e-05
0.00174606
0.000113593
-0.000111618
0.00117004
5.21594e-05
-0.000136786
0.00107705
0.000210129
2.92829e-05
0.00132288
-0.00020858
0.000221846
0.00357105
0.000100461
-0.000126444
0.00217132
-1.19268e-05
-0.000123167
0.00141695
-2.42811e-05
-0.000144431
0.000526957
-6.55971e-05
-0.000192257
0.00035487
4.6252e-05
-0.000195351
0.000631664
0.000126269
-0.000187939
0.000476434
0.000230452
-0.000216196
0.000301801
0.000195108
-0.000184399
0.000469801
0.000170374
-0.000121573
0.000773294
0.00023257
-0.000119479
0.00091563
0.000116367
-0.000135069
0.000903076
2.55474e-06
-0.000165986
0.00127575
0.000113217
-0.000155705
0.00136561
3.75397e-06
-6.69109e-05
0.00102209
-4.44201e-06
-7.64012e-05
0.000849115
-1.76681e-05
-7.21958e-05
0.000840046
-4.67895e-05
-6.43263e-05
0.00110645
-3.81516e-05
-6.16985e-05
0.00033156
-2.69577e-05
-6.65932e-05
7.2586e-05
-1.03625e-05
-7.21421e-05
-0.000110908
7.31582e-06
-8.57408e-05
-0.000406053
3.21169e-05
-9.2927e-05
-0.000548498
4.12992e-05
-6.70072e-05
-0.00131776
5.54959e-05
-5.09997e-05
-0.00111212
8.34828e-05
-5.04867e-05
-0.000940666
5.44467e-05
-4.11426e-05
-0.0013154
-2.42624e-05
-4.65179e-05
-0.00072258
-4.8391e-07
-5.36482e-05
-0.000370535
9.22601e-05
-3.06403e-05
-0.000838796
-0.00178672
-1.97587e-05
0.00228466
-0.00139307
3.86508e-05
0.00280581
-0.00159517
5.82825e-05
0.00233215
-0.00127114
-1.14044e-05
0.00332051
-0.0012466
-1.06258e-05
0.00303298
-0.00156287
-3.75123e-05
0.00272853
-0.00105005
-2.71849e-05
0.00391031
-0.000967536
-8.49551e-05
0.00380451
-0.00116038
-0.000102855
0.0035647
-0.00147492
-0.000176405
0.00293588
-0.000507897
0.000357775
0.00407805
-0.000904229
0.000219583
0.00431525
-0.00103544
0.000139975
0.00408445
-0.000958897
0.000130937
0.0037539
-0.0016817
0.00011169
0.0030402
-0.000173395
0.000434396
0.00461348
-0.000440523
0.000385199
0.00460191
-0.000922866
0.000240624
0.00454593
-0.000920528
0.000152418
0.0044656
-0.000929149
0.000295093
0.00441447
-0.0014698
3.1138e-05
0.00368161
-3.02149e-05
0.000871691
0.00497223
-0.000139226
0.000602345
0.00512705
-0.000278063
0.000426423
0.00501987
-0.000756719
0.000263074
0.00505402
-0.000782505
1.17302e-05
0.00521969
-0.00102877
-5.99742e-05
0.00500374
-0.0015136
-8.29506e-05
0.00439156
0.000176627
0.00099424
0.00565948
0.00037766
0.000946109
0.00539682
3.05389e-07
0.000856561
0.00558138
-0.000227044
0.000642374
0.00562528
-0.000350506
0.000392438
0.00547808
-0.000481041
0.000221941
0.00512404
-0.000960868
0.000167684
0.0050203
-0.0016873
0.000203759
0.00366903
0.000326179
0.0010226
0.00617552
0.000139303
0.0008961
0.00623217
0.000269883
0.000932094
0.00576251
6.53304e-05
0.000873977
0.00600062
5.52498e-05
0.000863783
0.00622729
-0.000118244
0.000777426
0.00619285
-0.000718951
0.000544984
0.00590004
-0.00110615
0.000311582
0.00522752
-0.00151919
0.000199563
0.00429171
0.000516612
0.000988469
0.00717935
0.000224877
0.000883873
0.00702769
2.6736e-05
0.00090811
0.00688254
0.000772578
0.000915881
0.00677086
0.000736917
0.00100652
0.00658989
0.000492105
0.000993469
0.00668327
1.73628e-05
0.000979798
0.00697565
-0.00050409
0.00069458
0.006959
-0.00112592
0.000560511
0.0064879
-0.0017002
0.000223866
0.00502223
0.000383772
0.000950761
0.00769616
0.00026425
0.000934751
0.00767656
0.000338132
0.000973706
0.0076951
0.000706967
0.00115334
0.00720897
0.000561198
0.00120858
0.00697973
0.000622019
0.00121577
0.00726597
0.0009493
0.00109254
0.00718262
0.000459068
0.00113985
0.0075913
-0.000494012
0.000895358
0.00789664
-0.000624874
0.000531434
0.00668973
-0.0012168
0.000165056
0.00693955
0.000590595
0.000679135
0.00735102
0.000457809
0.000725472
0.00725649
0.000524961
0.000897831
0.00666186
0.000619626
0.000944793
0.00614545
0.000604093
0.00107439
0.00628605
0.000763723
0.00108559
0.0064197
0.00108184
0.000979749
0.00617278
0.00099827
0.000682662
0.00641938
0.000663471
0.000793009
0.00746523
0.000111806
0.000742501
0.00907094
-0.000338448
0.000728761
0.00976372
-0.00088955
0.000559751
0.00748135
0.000571136
0.000718707
0.00600632
0.000407896
0.00045546
0.00561068
0.000403687
0.000198374
0.00514036
0.000394015
0.000133426
0.00469007
0.000607854
0.000290069
0.00439585
0.000662898
0.000499519
0.00404505
0.000640307
0.00053027
0.00314158
0.000780229
0.00055437
0.00252418
0.000746101
0.000152589
0.00209588
0.000351368
0.000132913
0.00226073
0.000300989
0.000315419
0.00355737
0.000173539
0.000460802
0.00645882
-0.00087138
0.000519677
0.00726527
0.000326694
0.000178747
0.00419431
0.000231908
0.000170042
0.00400479
0.000146523
0.000113676
0.00368296
6.66991e-05
-9.35824e-06
0.00265585
0.000223088
9.72214e-05
0.00280582
0.00042237
0.000329917
0.00250615
0.000428243
0.000246086
0.00101541
0.000166437
7.44233e-06
0.000418706
0.000360793
2.7653e-06
0.00118332
0.000323971
-1.42872e-05
0.00155732
0.000185461
-0.000133535
0.00109769
4.78106e-05
-0.000118351
0.00117943
0.000212535
6.12285e-05
0.00138418
-0.000454483
0.000266583
0.0037627
0.000214195
-0.000197234
0.00259467
0.000106262
-0.000141486
0.00206571
7.40134e-06
-0.000126553
0.00134489
-1.35307e-05
-0.000149245
0.000459324
-6.87135e-05
-0.000206205
0.000407479
6.63877e-05
-0.000212045
0.00057902
0.000147207
-0.000216162
0.000336509
0.000222465
-0.000236169
0.000163222
0.000203983
-0.000206371
0.000391915
0.000189289
-0.000147972
0.000667994
0.000229105
-0.000121885
0.000756825
0.000146789
-0.000141702
0.000786449
6.34143e-06
-0.000182802
0.00127224
0.000106426
-0.000163693
0.00135548
1.48505e-05
-7.59974e-05
0.0011755
5.06171e-05
-8.41629e-05
0.000995801
5.24262e-06
-6.95864e-05
0.000841263
-1.16138e-05
-7.24777e-05
0.000859811
-4.14315e-05
-6.465e-05
0.00115084
-3.92125e-05
-6.27513e-05
0.00036693
-2.67128e-05
-6.82874e-05
9.54441e-05
-1.21274e-05
-7.50176e-05
-0.000109504
8.00068e-06
-8.87902e-05
-0.00041819
3.0921e-05
-9.28293e-05
-0.000553597
3.14328e-05
-6.59087e-05
-0.00133428
5.27144e-05
-5.1285e-05
-0.00116403
7.60347e-05
-4.93444e-05
-0.0010085
5.62447e-05
-3.9702e-05
-0.00137846
-2.31611e-05
-4.47983e-05
-0.000708269
-1.30517e-08
-5.17673e-05
-0.000349395
9.17206e-05
-3.00477e-05
-0.000900469
-0.00181095
2.14898e-05
0.00212835
-0.00164541
0.000112792
0.00275999
-0.00162269
1.33351e-05
0.00229885
-0.00123065
-9.93386e-06
0.00309869
-0.00121419
8.84304e-06
0.00282284
-0.00162861
6.91834e-05
0.00232872
-0.00107354
-2.06453e-06
0.00356955
-0.00113619