/*--------------------------------*- C++ -*----------------------------------*\
  =========                 |
  \\      /  F ield         | OpenFOAM: The Open Source CFD Toolbox
   \\    /   O peration     | Website:  https://openfoam.org
    \\  /    A nd           | Version:  7
     \\/     M anipulation  |
\*---------------------------------------------------------------------------*/
FoamFile
{
    version     2.0;
    format      ascii;
    class       volVectorField;
    location    "7";
    object      U;
}
// * * * * * * * * * * * * * * * * * * * * * * * * * * * * * * * * * * * * * //

dimensions      [0 1 -1 0 0 0 0];

internalField   nonuniform List<vector> 
18750
(
(0.050223 0.595871 -0.892369)
(-0.836729 1.25451 0.0759415)
(0.512856 -0.320379 -2.18115)
(0.022666 0.650557 -0.800192)
(-2.19898 1.38013 -0.816604)
(-0.762424 0.454474 -1.73039)
(-0.898288 1.30359 0.24026)
(0.436461 0.329498 -2.93954)
(0.506965 -0.340843 -2.03818)
(-0.0101548 0.712535 -0.726856)
(-3.73244 2.08205 0.264612)
(-1.82387 -0.608774 -0.549065)
(-2.02708 0.269049 -1.48337)
(-0.985848 0.098868 -1.55026)
(-0.881392 0.464508 -1.79731)
(-0.968285 1.29553 0.33698)
(0.259721 1.3411 -2.63505)
(0.430326 0.235755 -2.7376)
(0.493322 -0.34032 -1.90949)
(-0.0478374 0.798696 -0.645802)
(-3.07547 2.77883 0.349296)
(-3.96119 2.66603 0.691866)
(-3.40909 2.39099 0.113571)
(-2.21828 -0.0993021 -1.05518)
(-1.52451 -0.283969 -0.746644)
(-2.18293 0.336728 -1.13979)
(-0.998944 0.760286 -0.899776)
(-0.986513 0.16869 -1.60247)
(-0.958652 0.415581 -1.82882)
(-1.05363 1.28195 0.449597)
(0.0360264 0.826992 -2.03712)
(0.259672 1.32108 -2.4161)
(0.42796 0.173483 -2.52609)
(0.48833 -0.330268 -1.79265)
(-0.0838809 0.879563 -0.576277)
(-3.75606 -0.666294 0.0538434)
(-4.19171 2.00643 1.27849)
(-3.93624 1.46719 -0.253315)
(-5.67577 1.35339 1.49871)
(-3.32186 3.05677 -1.54955)
(-3.61997 1.88936 0.0222151)
(-2.38468 0.594629 1.53958)
(-2.03156 -0.441409 -1.37134)
(-1.40011 -0.00558261 -0.985114)
(-2.25912 0.355867 -0.931508)
(-1.41324 0.689228 -1.20102)
(-1.04174 0.758786 -0.942961)
(-1.00223 0.224972 -1.68007)
(-1.026 0.356479 -1.81309)
(-1.10556 1.23181 0.620802)
(0.361157 0.335524 -1.38589)
(0.0515653 0.866042 -1.99747)
(0.261606 1.21349 -2.17209)
(0.435634 0.149943 -2.31122)
(0.483225 -0.316352 -1.687)
(-0.128639 0.959824 -0.51319)
(-3.49411 -1.15302 0.321139)
(-4.05285 -0.987613 2.08159)
(-3.9299 -1.19372 0.160028)
(-4.77064 -0.107773 2.1623)
(-4.32544 2.1386 1.01029)
(-4.00121 0.69593 -0.321174)
(-5.27803 0.975771 1.90226)
(-5.50131 1.27163 1.31966)
(-3.71613 1.75635 -0.793838)
(-3.6054 1.84411 -0.221506)
(-2.79166 0.961453 1.74326)
(-2.2587 -0.040897 1.24269)
(-1.69142 -0.725283 -1.87199)
(-1.35269 0.187092 -0.970946)
(-2.29148 0.439303 -0.808481)
(-1.11521 1.00262 -0.644412)
(-1.39563 0.791966 -1.21907)
(-1.09597 0.772062 -1.01947)
(-1.02507 0.280197 -1.7697)
(-1.08698 0.321581 -1.76359)
(-1.12388 1.15974 0.761778)
(0.67485 0.31343 -1.25244)
(0.392367 0.310833 -1.30302)
(0.0648476 0.860312 -1.90098)
(0.286599 1.05956 -1.92841)
(0.449901 0.119933 -2.11114)
(0.478619 -0.2986 -1.59232)
(-0.175681 1.0341 -0.457758)
(-3.23243 -1.57834 0.131195)
(-4.06177 -0.822874 0.783952)
(-3.32371 -1.67502 0.451461)
(-4.28981 -0.388522 2.20592)
(-4.14631 -1.05067 2.0575)
(-4.06367 -1.73217 0.334242)
(-5.5504 -0.0228438 2.18988)
(-4.71254 0.0431603 2.11818)
(-4.61723 1.12052 1.50589)
(-4.04101 -0.524083 0.0853011)
(-4.48517 1.10078 2.26038)
(-5.21983 1.15995 1.44728)
(-5.06994 1.32579 1.23763)
(-2.51323 1.8829 -2.00747)
(-3.97434 1.28025 -0.320591)
(-2.62175 1.75697 0.530462)
(-2.85588 1.07654 1.08756)
(-1.83107 -0.45159 -0.16282)
(-1.45042 -0.774413 -2.26101)
(-1.33591 0.339472 -0.946282)
(-2.38428 0.469096 -0.564778)
(-0.842372 1.16807 -0.978142)
(-1.08811 0.967445 -0.77801)
(-1.38552 0.895364 -1.20865)
(-1.14635 0.852492 -1.14115)
(-1.01841 0.190636 -1.86788)
(-1.16385 0.291773 -1.6526)
(-1.11573 1.05185 0.842425)
(0.294459 0.0591633 -1.98907)
(0.688896 0.321022 -1.21464)
(0.417973 0.331816 -1.27338)
(0.0874384 0.826999 -1.77911)
(0.316298 0.929308 -1.68039)
(0.470411 0.0879012 -1.93171)
(0.475618 -0.278729 -1.50927)
(-0.223826 1.09612 -0.410553)
(-3.00693 -1.43704 0.062994)
(-3.65812 -1.2741 0.313876)
(-3.17236 -1.69066 0.093145)
(-3.94853 -0.276649 1.04003)
(-4.05207 -1.05083 0.788017)
(-3.18313 -2.06687 0.460351)
(-4.64367 0.587346 1.9016)
(-4.37683 -0.301737 2.2203)
(-4.39662 -1.24146 1.88897)
(-3.89151 -2.40482 0.394514)
(-5.30706 0.0632365 1.96304)
(-5.50166 0.0717804 2.23468)
(-4.67082 -0.129715 2.20059)
(-4.7017 0.641867 1.35119)
(-4.55979 0.038095 -0.945181)
(-3.8556 2.23274 2.23086)
(-4.60616 1.56147 2.19973)
(-5.04791 1.22959 1.38885)
(-4.7902 1.855 1.34379)
(-3.10335 1.12079 -1.31283)
(-4.10042 0.85251 -0.408002)
(-1.57042 1.39967 1.46319)
(-2.55199 1.49012 0.52879)
(-2.75515 0.80447 0.884521)
(-1.57007 -0.572808 -0.862304)
(-1.25634 -0.687032 -2.1574)
(-1.34715 0.42705 -0.7744)
(-2.42411 0.40892 -0.387609)
(-0.908412 0.922081 -0.484969)
(-0.801779 0.969645 -1.3152)
(-1.05381 0.837694 -0.974513)
(-1.38579 0.927018 -1.19584)
(-1.2082 0.912705 -1.3159)
(-1.0186 0.129021 -1.86915)
(-1.22022 0.262954 -1.49128)
(-1.08024 0.912208 0.828865)
(0.206242 -0.0374975 -1.63528)
(0.30705 0.0705088 -2.00164)
(0.685551 0.3212 -1.19627)
(0.438808 0.36955 -1.26408)
(0.110335 0.78546 -1.6435)
(0.357296 0.841207 -1.44808)
(0.493837 0.0629319 -1.77769)
(0.474139 -0.257012 -1.43714)
(-0.271993 1.13858 -0.376139)
(-2.7094 -1.388 0.0366082)
(-3.56133 -1.07801 0.0797883)
(-2.78968 -1.86526 0.110366)
(-3.78154 -0.746771 0.593838)
(-3.55548 -1.69425 0.431671)
(-2.94274 -2.11677 0.134504)
(-4.06319 0.601099 1.22224)
(-4.11337 -0.34589 1.03939)
(-4.05333 -1.52022 0.592294)
(-3.15569 -2.25044 0.340509)
(-4.78346 0.765914 1.72018)
(-4.63346 0.443076 2.2089)
(-4.31819 -0.409761 2.16687)
(-4.38845 -1.83991 1.78)
(-3.57601 -3.10866 0.522306)
(-5.21647 1.40128 1.39054)
(-5.46261 -0.0374284 1.92791)
(-5.59377 -0.247659 2.29678)
(-4.92547 1.1541 1.41273)
(-4.53851 -0.493316 1.94741)
(-4.9775 -0.944765 -0.22175)
(-3.28302 2.14612 1.55585)
(-4.02542 2.17454 2.04473)
(-4.66176 1.48259 2.43249)
(-4.84759 1.60511 1.03956)
(-4.5533 2.01329 0.0537654)
(-3.14339 0.838262 -0.91223)
(-4.0147 -0.176666 -0.257551)
(-1.92195 0.642396 1.55042)
(-1.37304 1.31485 1.70296)
(-2.26616 0.693843 0.983677)
(-2.51386 0.496253 0.788344)
(-1.18836 -0.489761 -1.22998)
(-1.08042 -0.514062 -1.80753)
(-1.37034 0.51973 -0.458535)
(-2.43627 0.198405 -0.203757)
(-0.643786 0.152719 -0.34018)
(-0.876778 0.889466 -0.614974)
(-0.740474 0.84741 -1.42208)
(-1.0254 0.649512 -1.12151)
(-1.40901 0.829118 -1.14631)
(-1.202 0.797484 -1.52724)
(-0.985922 -0.0287163 -1.79854)
(-1.27267 0.240722 -1.28778)
(-1.03575 0.793775 0.675554)
(0.105193 -0.144096 -1.24619)
(0.223086 -0.0151584 -1.73624)
(0.320828 0.0833549 -2.00859)
(0.69507 0.321903 -1.17837)
(0.454195 0.395139 -1.25588)
(0.131208 0.745075 -1.50735)
(0.386969 0.796566 -1.24705)
(0.512861 0.0489432 -1.65226)
(0.473353 -0.233213 -1.37351)
(-0.313142 1.16054 -0.358225)
(-2.16945 -1.54941 0.118053)
(-3.08981 -1.1696 0.040564)
(-2.73083 -1.43855 -0.0504508)
(-3.54939 -0.86034 0.115915)
(-3.40501 -1.52658 0.203019)
(-2.71995 -2.01483 0.109434)
(-3.85364 -0.0415906 0.677582)
(-3.79885 -1.0181 0.664395)
(-3.61667 -1.51622 0.50837)
(-2.83384 -2.32195 -0.0183383)
(-3.92934 0.49039 1.17735)
(-3.9957 -1.08899 1.48228)
(-4.00515 -1.11223 1.00531)
(-3.99291 -1.78701 0.435509)
(-2.88612 -2.62731 0.176405)
(-4.20109 1.94563 1.38939)
(-4.74637 0.636247 2.03553)
(-4.83951 0.184841 2.32473)
(-4.49164 -0.359388 2.13683)
(-4.53582 -2.05729 1.57181)
(-3.50275 -3.61534 0.637688)
(-3.9651 2.48237 1.86649)
(-4.97862 1.63481 2.27782)
(-5.55502 -0.0563591 2.43422)
(-5.83079 0.0260501 2.06039)
(-4.98985 -0.762766 2.14282)
(-4.33008 -2.24116 2.83749)
(-4.79425 -1.55093 0.212646)
(-3.42217 1.16261 1.26489)
(-3.27996 2.04725 1.65025)
(-4.10643 1.95828 2.10372)
(-4.55373 1.52333 2.3892)
(-4.6942 1.96731 -0.0491055)
(-4.0784 1.18887 -1.83813)
(-3.36754 0.710866 -0.574591)
(-3.96922 -0.712298 -0.140044)
(-1.88722 0.56041 0.850644)
(-1.93838 0.65663 1.97353)
(-1.14849 1.25746 1.48608)
(-1.99651 0.422401 1.19438)
(-2.19486 0.543213 -0.0578074)
(-0.931923 -0.396564 -1.12476)
(-0.953343 -0.341021 -1.50774)
(-1.39854 0.593384 -0.258181)
(-2.40769 -0.0218366 0.000803664)
(-0.332962 -0.368975 -0.608502)
(-0.616839 0.0893078 -0.527978)
(-0.78801 0.813954 -0.860829)
(-0.715582 0.963709 -1.18356)
(-0.99631 0.563114 -1.16106)
(-1.3397 0.769451 -1.17042)
(-1.19606 0.738535 -1.53851)
(-0.909277 -0.26952 -1.68574)
(-1.30516 0.203851 -1.0922)
(-1.0116 0.690094 0.452628)
(0.0381866 -0.336538 -1.47709)
(0.103389 -0.125063 -1.3096)
(0.235568 0.00961754 -1.83431)
(0.331718 0.0884614 -2.01148)
(0.701515 0.319007 -1.16143)
(0.458623 0.412731 -1.24007)
(0.157178 0.718136 -1.38112)
(0.410943 0.792804 -1.07938)
(0.529503 0.0479796 -1.55317)
(0.471334 -0.208841 -1.31475)
(-0.339607 1.16453 -0.364623)
(-2.02494 -1.43467 0.145297)
(-2.72031 -1.16771 0.0614357)
(-2.15349 -1.56981 0.135353)
(-3.25205 -0.718935 0.202075)
(-3.23784 -0.8785 -0.0753551)
(-2.76929 -1.46369 -0.0541018)
(-3.45352 -0.3751 0.424029)
(-3.51671 -0.973821 0.122223)
(-3.45636 -1.23106 -0.0604845)
(-2.46269 -2.32982 0.070028)
(-3.56308 0.501343 0.995723)
(-3.86727 -0.094967 0.7274)
(-3.79489 -1.27346 0.555312)
(-3.40932 -1.58993 0.538355)
(-2.61496 -2.53187 0.0328608)
(-3.66593 0.709323 1.33015)
(-3.98218 0.654718 1.15657)
(-4.11794 0.173616 1.30562)
(-4.06744 -0.826404 0.992524)
(-3.70976 -2.15837 0.376799)
(-2.63992 -2.9267 0.351898)
(-3.82577 2.09682 2.17694)
(-4.51415 1.38084 1.9409)
(-4.61983 0.676077 2.20042)
(-4.9334 0.249143 2.24575)
(-4.60936 -0.968742 1.97943)
(-4.2845 -2.50555 1.38915)
(-3.5403 -3.67446 0.742432)
(-3.98408 2.26872 1.74488)
(-4.51566 1.40469 2.41066)
(-5.02469 1.73196 2.42122)
(-5.73094 1.02901 2.40803)
(-5.95115 -0.0827987 1.9853)
(-5.31107 1.50994 0.210062)
(-4.6042 -3.30729 2.02284)
(-4.67571 -2.29188 0.634974)
(-3.45441 0.881563 1.06093)
(-3.14044 1.37475 0.99905)
(-3.40417 1.81621 1.76745)
(-3.97639 1.81461 2.22042)
(-4.23564 1.89222 1.60091)
(-4.18708 1.50877 -0.624904)
(-3.87911 1.14603 -2.17317)
(-3.89245 0.184085 -0.00542359)
(-3.86818 -1.62693 0.0256888)
(-1.80499 0.294681 0.0980122)
(-1.97598 0.418377 1.34307)
(-1.91512 0.904119 2.11882)
(-0.936828 0.910402 1.04202)
(-1.81261 0.465005 1.11136)
(-1.83297 0.52968 -0.941098)
(-0.832173 -0.236741 -0.867557)
(-0.804208 -0.178024 -1.37037)
(-1.37237 0.654374 -0.0271623)
(-2.25556 -0.49387 0.272862)
(-0.139326 -0.384797 -1.38895)
(-0.360507 -0.379794 -0.674501)
(-0.575805 0.0310566 -0.747197)
(-0.699968 0.71729 -1.10823)
(-0.724413 1.09888 -1.06536)
(-0.992554 0.626457 -1.00929)
(-1.32172 0.791964 -1.19681)
(-1.18671 0.681595 -1.41832)
(-0.875325 -0.31327 -1.5021)
(-1.26303 0.096659 -1.00524)
(-1.00246 0.577303 0.245123)
(-0.14005 -0.344068 -1.45816)
(0.0329643 -0.333357 -1.49685)
(0.10203 -0.10862 -1.38048)
(0.241731 0.036433 -1.92895)
(0.330126 0.0894597 -2.00942)
(0.728129 0.322831 -1.14039)
(0.464483 0.447901 -1.22715)
(0.17519 0.70687 -1.27646)
(0.420877 0.81407 -0.947665)
(0.542055 0.0563415 -1.47903)
(0.4668 -0.185828 -1.25471)
(-0.373758 1.13858 -0.384668)
(-1.82848 -1.43205 -0.265387)
(-2.45514 -1.18303 0.083279)
(-1.80754 -1.69913 0.113729)
(-2.91069 -0.991977 0.142971)
(-2.7018 -1.29451 0.0712021)
(-2.10774 -1.65683 0.0159177)
(-3.26622 -0.56732 0.309774)
(-3.10558 -1.27551 -0.0843749)
(-3.02625 -1.48714 0.0164952)
(-2.56473 -1.818 -0.142023)
(-3.50302 -0.0368059 0.595122)
(-3.56443 -0.535815 0.394594)
(-3.52842 -1.05809 0.22067)
(-3.22401 -1.59876 0.0111078)
(-2.2946 -2.5651 0.0806908)
(-3.70846 0.55221 1.07977)
(-3.67846 0.359171 0.899747)
(-3.72979 -0.484681 0.8366)
(-3.63824 -1.50426 0.42395)
(-3.06632 -2.06755 0.609271)
(-2.33836 -2.78625 0.150208)
(-3.88741 0.349371 1.52705)
(-3.8484 0.61458 1.38515)
(-3.98334 0.666278 1.39585)
(-4.16074 -0.595382 1.3345)
(-4.12737 -1.05032 0.960951)
(-3.76653 -2.17461 0.248968)
(-2.47466 -3.18922 0.136284)
(-4.49357 0.786304 2.52102)
(-4.18342 0.783927 2.5152)
(-4.54444 1.16239 2.30934)
(-4.69153 1.16929 2.16091)
(-4.87976 0.0570335 2.19839)
(-4.56877 -0.880412 1.69285)
(-4.07376 -2.66874 1.15724)
(-3.3731 -3.83406 0.536886)
(-4.12439 1.73527 2.09251)
(-3.88012 1.98356 2.05321)
(-4.15939 2.32878 2.56686)
(-5.14992 2.01503 2.69203)
(-5.80375 1.71838 2.36135)
(-6.2164 0.659271 1.43972)
(-6.08275 0.470411 0.441918)
(-4.52235 -3.49087 1.60398)
(-4.39955 -3.32114 0.69197)
(-3.2778 1.62868 1.06462)
(-3.19507 0.822571 0.854533)
(-3.18802 1.36046 1.03671)
(-3.41659 2.0345 1.78991)
(-3.75197 2.2175 1.92009)
(-3.63704 0.985623 1.13688)
(-3.18652 0.395691 -0.655102)
(-3.63077 0.999259 -1.88516)
(-4.49565 0.332057 0.06733)
(-3.68459 -2.37658 0.538183)
(-2.13261 0.410851 0.0229698)
(-1.74699 0.0478446 0.422713)
(-2.02143 0.484047 1.83598)
(-1.80481 1.16931 1.93267)
(-0.618931 0.329221 0.757074)
(-1.464 0.340122 1.02578)
(-1.62533 0.209938 -0.974712)
(-0.917101 -0.00742747 -0.617563)
(-0.740377 -0.025671 -1.14601)
(-1.35814 0.576888 0.217721)
(-2.15223 -0.783413 0.417752)
(-0.448166 -0.27892 -1.28283)
(-0.135045 -0.385668 -1.43129)
(-0.383672 -0.363066 -0.79049)
(-0.519489 -0.00864091 -0.984325)
(-0.621378 0.70905 -1.29632)
(-0.803623 1.27404 -0.828635)
(-1.00968 0.756528 -0.720247)
(-1.32672 0.870552 -1.20552)
(-1.06902 0.409756 -1.30609)
(-0.827981 -0.382351 -1.32905)
(-1.19956 -0.0261041 -0.993991)
(-1.01659 0.445002 0.100892)
(-0.6053 -0.604963 -1.21682)
(-0.131681 -0.366894 -1.46552)
(0.0323554 -0.329979 -1.5242)
(0.102 -0.0952562 -1.45849)
(0.249582 0.0633303 -2.01774)
(0.341796 0.116883 -2.00741)
(0.746261 0.315849 -1.12777)
(0.495904 0.48154 -1.22585)
(0.18633 0.714312 -1.19994)
(0.416686 0.841227 -0.850602)
(0.55234 0.069883 -1.42418)
(0.453741 -0.153394 -1.18407)
(-0.338805 1.07516 -0.403421)
(-1.7621 -1.08777 0.07261)
(-2.36672 -0.794734 0.0288153)
(-1.76728 -1.52071 -0.266943)
(-2.67085 -1.03236 0.024473)
(-2.40134 -1.19876 0.168333)
(-1.79816 -1.71464 0.152787)
(-2.88164 -0.685296 0.305149)
(-2.87488 -1.0792 0.0376648)
(-2.82148 -1.27286 0.128681)
(-2.13551 -1.67054 0.0496602)
(-3.18586 -0.152911 0.407808)
(-3.2275 -0.570885 0.280463)
(-3.11944 -1.25197 -0.112792)
(-3.06069 -1.54211 -0.00181442)
(-2.43908 -2.04793 -0.200297)
(-3.54196 0.281511 0.965406)
(-3.55789 -0.0934354 0.651233)
(-3.52978 -0.631766 0.364571)
(-3.49151 -1.12221 0.170247)
(-3.17704 -1.82694 0.110028)
(-2.05506 -2.75566 0.0870984)
(-3.82511 0.43159 1.23355)
(-3.74384 0.578285 1.11391)
(-3.84919 0.681359 1.0192)
(-3.80478 -0.546379 1.00219)
(-3.54171 -1.7915 0.425352)
(-3.01807 -2.26736 0.450511)
(-2.23124 -2.87521 0.179132)
(-4.36522 0.375291 1.81469)
(-3.9905 1.19007 1.44039)
(-4.00975 0.559863 1.39198)
(-3.96578 -0.355501 1.50328)
(-4.50375 1.33526 1.22072)
(-4.15892 -1.22021 1.0681)
(-3.45462 -2.66068 0.445728)
(-2.15588 -3.47734 0.380552)
(-4.41316 1.21212 2.51525)
(-4.36369 0.437954 2.43936)
(-4.0823 1.19866 2.43513)
(-4.45909 2.16125 2.55074)
(-5.00826 0.819487 2.18035)
(-4.85781 0.0203306 1.96541)
(-4.9415 -0.712509 1.44706)
(-3.73234 -3.10613 1.12761)
(-3.26855 -3.97374 0.422716)
(-4.16512 1.63427 2.54889)
(-4.22245 0.598704 2.14839)
(-3.9325 2.06792 2.20699)
(-4.63403 2.17687 2.50887)
(-5.21314 2.32861 2.57279)
(-5.8668 1.41691 2.16895)
(-6.27463 0.683399 1.21013)
(-6.0695 -0.366676 1.08195)
(-4.29867 -4.59622 1.41976)
(-3.62476 -4.61397 0.663789)
(-3.91127 1.64289 0.880653)
(-3.41084 1.00249 0.804621)
(-3.27763 1.13647 -0.609575)
(-3.33881 1.36872 1.46697)
(-3.35038 2.25641 1.6442)
(-3.46966 1.59329 1.8697)
(-2.60437 -0.333763 0.877775)
(-1.96341 -0.785884 0.389325)
(-3.18013 -0.118513 -0.685955)
(-4.38441 -1.24993 1.02553)
(-3.41602 -3.2008 0.800362)
(-2.91591 0.400513 0.679768)
(-1.985 0.126483 -0.308841)
(-1.74553 0.0917562 0.532663)
(-2.08191 0.59303 2.08075)
(-1.62976 1.16634 1.59333)
(-0.376513 0.202948 0.385506)
(-1.19014 0.0530661 0.838328)
(-1.42651 -0.111776 -0.909448)
(-0.961763 0.081405 -0.586545)
(-0.716949 -0.051237 -0.905555)
(-1.31056 0.389737 0.491989)
(-1.91996 -1.31364 0.621221)
(-0.993089 -0.225952 -0.938039)
(-0.366835 -0.40841 -1.25264)
(-0.138 -0.38098 -1.51437)
(-0.384846 -0.339839 -0.968621)
(-0.448773 -0.0191438 -1.22466)
(-0.582427 0.767989 -1.4157)
(-0.843831 1.24491 -0.872094)
(-1.02928 0.810076 -0.621795)
(-1.34088 0.926314 -1.15705)
(-0.917336 0.155036 -1.17553)
(-0.65324 -0.616463 -1.22329)
(-1.11907 -0.143224 -1.00586)
(-1.0432 0.349942 0.0158776)
(-0.508564 -0.545795 -1.66647)
(-0.640556 -0.56732 -1.23656)
(-0.131755 -0.401713 -1.46042)
(0.0365738 -0.328129 -1.55541)
(0.104246 -0.0848934 -1.54105)
(0.253889 0.0801433 -2.09326)
(0.342703 0.118256 -1.99132)
(0.790559 0.301406 -1.10187)
(0.505923 0.506677 -1.21285)
(0.20118 0.733609 -1.14463)
(0.409567 0.867019 -0.779461)
(0.568626 0.0960072 -1.37374)
(0.407268 -0.0779521 -1.09565)
(-0.349359 1.06838 -0.389478)
(-1.50806 -1.27307 -0.004325)
(-1.96691 -1.13248 -0.110719)
(-1.7268 -1.17321 0.0502387)
(-2.52248 -0.768511 -0.0479273)
(-2.26918 -0.994341 -0.0250263)
(-1.71389 -1.60284 -0.268047)
(-2.67027 -0.851755 0.13859)
(-2.52732 -1.2786 0.0784029)
(-2.28799 -1.3377 0.182138)
(-1.67595 -1.85477 0.206949)
(-2.94032 -0.429753 0.418972)
(-3.09179 -0.108034 0.421069)
(-2.87075 -1.05157 -0.0151198)
(-2.79078 -1.33384 0.139593)
(-1.99124 -1.90786 -0.00290459)
(-3.22506 0.0995986 0.607664)
(-3.20663 -0.38854 0.34082)
(-3.06231 -0.783931 0.226018)
(-2.93687 -1.65173 -0.0888413)
(-3.07217 -1.52766 0.0189132)
(-2.35384 -2.2607 -0.253851)
(-3.55052 0.320741 1.02107)
(-3.54629 0.254284 0.999958)
(-3.632 -0.482183 0.525675)
(-3.46927 -0.846058 0.356437)
(-3.40221 -1.35154 0.335864)
(-2.94356 -2.06862 0.133145)
(-1.94101 -2.87057 0.121149)
(-4.04179 0.803679 1.18583)
(-3.84695 0.367312 1.3094)
(-3.86826 0.441909 1.20937)
(-3.89639 -0.343948 1.1609)
(-3.79996 -1.25129 0.885694)
(-3.45798 -2.15705 0.474706)
(-2.79951 -2.60198 0.399824)
(-1.73487 -3.1335 0.223194)
(-4.52479 0.774429 1.59343)
(-4.42835 0.236582 1.67855)
(-4.06433 -0.215241 1.42261)
(-4.14091 0.367509 1.4734)
(-4.24965 0.648127 1.6532)
(-4.50539 -1.26578 1.39563)
(-4.10309 -1.73159 0.977804)
(-3.52171 -2.67186 0.282898)
(-1.86681 -3.76408 0.602335)
(-4.95134 0.959091 1.9243)
(-4.73357 0.864802 2.44926)
(-4.39572 0.19069 2.39214)
(-4.46821 1.88217 2.56208)
(-4.97551 0.751132 2.56171)
(-4.907 0.3605 2.14812)
(-5.05315 -0.189297 1.87324)
(-4.97499 -1.88769 1.24487)
(-3.40534 -3.46467 1.14598)
(-3.1417 -4.03879 0.23612)
(-4.50651 1.44556 2.10704)
(-4.53025 -0.35856 2.31772)
(-3.77944 1.84417 1.93567)
(-4.38043 1.36868 2.56343)
(-4.65525 2.0585 2.68541)
(-5.18467 1.7893 2.63189)
(-5.64205 1.46829 1.49438)
(-5.96488 0.300351 1.37326)
(-5.69583 -1.62761 1.65141)
(-5.20371 -3.71305 1.02438)
(-3.02703 -5.45473 0.746489)
(-4.13009 1.18731 1.55341)
(-3.7787 1.38779 0.386202)
(-3.46484 0.739382 0.19649)
(-3.25855 0.826632 1.18264)
(-3.2937 1.45644 1.65667)
(-3.11393 1.93934 1.42963)
(-2.66088 -0.0137763 2.03277)
(-1.96087 -0.17085 0.600963)
(-1.49954 -0.670868 0.886135)
(-2.18329 -1.27975 1.09144)
(-4.24953 -1.51127 1.21509)
(-2.83904 -4.13621 0.861573)
(-2.87394 0.663342 0.810493)
(-2.73951 0.112696 0.380345)
(-1.78217 -0.310575 -0.184305)
(-1.84457 0.272168 0.557342)
(-2.08199 0.711927 2.18105)
(-1.41745 1.0586 1.10958)
(-0.387475 0.38496 0.130571)
(-1.10565 0.0766913 0.540411)
(-1.47314 0.148974 -0.614574)
(-1.06952 0.232694 -0.524572)
(-0.77207 -0.108643 -0.619905)
(-1.25144 0.221298 0.687817)
(-1.84632 -1.57606 0.943552)
(-1.45347 0.257786 -0.978157)
(-0.922367 -0.484968 -0.866853)
(-0.317401 -0.457884 -1.24915)
(-0.152021 -0.376188 -1.62641)
(-0.373616 -0.300392 -1.18064)
(-0.382949 0.0103763 -1.45078)
(-0.549512 0.840451 -1.60231)
(-0.864105 1.17601 -0.997988)
(-1.05356 0.85855 -0.635997)
(-1.35571 0.996015 -0.987815)
(-0.86689 0.138427 -1.12723)
(-0.571107 -0.738263 -1.21008)
(-1.05898 -0.229563 -0.978458)
(-1.09641 0.197778 -0.0685567)
(-0.565424 -0.778691 -1.68754)
(-0.501833 -0.555325 -1.67222)
(-0.599755 -0.559751 -1.28102)
(-0.119417 -0.432667 -1.4536)
(0.0375766 -0.321967 -1.59356)
(0.10688 -0.0780125 -1.62507)
(0.259427 0.0943671 -2.15635)
(0.348648 0.127812 -1.96135)
(0.81168 0.279108 -1.08797)
(0.510786 0.550967 -1.18757)
(0.206439 0.760143 -1.09833)
(0.405088 0.891344 -0.72702)
(0.548898 0.103229 -1.33737)
(0.362324 -0.0250345 -1.02771)
(-0.406914 1.06513 -0.407363)
(-1.52869 -1.08173 -0.0457856)
(-1.85499 -0.827625 0.0782102)
(-1.4756 -1.30631 0.00771891)
(-2.16341 -0.902847 0.00295494)
(-1.94064 -1.16248 -0.0962961)
(-1.61973 -1.34483 0.0228728)
(-2.58154 -0.750589 -0.0721985)
(-2.47882 -0.795597 -0.0688628)
(-2.22291 -1.07313 -0.0516617)
(-1.71389 -1.66805 -0.329881)
(-2.68467 -0.264013 0.336098)
(-2.64665 -1.0412 0.0940963)
(-2.49044 -1.37519 0.126312)
(-2.28435 -1.34033 0.111864)
(-1.56223 -1.98731 0.210916)
(-3.00968 -0.268327 0.41982)
(-2.90799 -0.508258 0.380267)
(-2.79107 -1.4291 0.0900917)
(-2.80803 -1.34494 0.0420694)
(-2.72061 -1.43278 0.130702)
(-1.95597 -2.08182 -0.0289143)
(-3.16389 0.395863 0.817411)
(-3.29072 -0.097144 0.576798)
(-3.27358 -0.440944 0.398688)
(-3.10194 -1.0818 0.143853)
(-3.20336 -1.16455 -0.218986)
(-2.87679 -1.79596 -0.0384874)
(-2.17666 -2.52676 -0.169059)
(-3.62015 0.413717 1.08034)
(-3.52849 0.548573 1.15783)
(-3.62778 -0.151473 1.02543)
(-3.62278 -0.748465 0.609752)
(-3.50845 -1.00019 0.329037)
(-3.16289 -1.59856 0.320373)
(-2.69505 -2.2855 0.456282)
(-1.27523 -3.2259 0.0902951)
(-4.05696 0.604696 1.20627)
(-4.1707 -0.0730371 1.35039)
(-3.87503 0.125391 1.3352)
(-3.80453 -0.666642 1.23251)
(-3.86588 -0.656367 1.21302)
(-3.96603 -1.07101 1.04523)
(-3.32895 -2.30914 0.49771)
(-2.50813 -2.93673 0.369384)
(-2.05147 -3.02469 0.294281)
(-4.5045 1.32039 1.53882)
(-4.53431 0.277145 1.51875)
(-4.32162 -0.388593 1.61119)
(-4.20227 1.43383 1.77447)
(-4.4882 -0.091302 1.71981)
(-4.69868 0.23064 1.60894)
(-4.32066 -1.4094 1.45939)
(-4.05729 -2.27399 1.01971)
(-3.00568 -3.27742 0.834399)
(-1.43309 -4.02755 0.543668)
(-4.8233 0.837729 1.94554)
(-5.10256 0.502794 1.98094)
(-4.89591 0.323209 2.20214)
(-4.81542 0.228237 2.39416)
(-4.83981 0.454607 2.67259)
(-4.90429 0.100562 2.37369)
(-5.11036 1.07349 1.89613)
(-5.08469 -1.01203 2.23433)
(-4.07973 -3.52344 1.10293)
(-3.20865 -3.60611 0.905972)
(-2.88836 -4.14066 -0.130245)
(-4.74949 1.4611 1.6028)
(-4.78871 1.03807 1.70785)
(-4.17031 1.12072 2.51283)
(-4.33177 1.25537 2.26856)
(-4.38482 0.933003 2.84224)
(-4.69602 1.39677 2.64977)
(-5.09686 1.28893 2.44156)
(-5.22001 1.24346 1.47255)
(-5.46055 -0.370771 1.95941)
(-6.0621 -1.66457 1.78717)
(-5.5722 -3.31581 1.28966)
(-2.60187 -5.55095 0.797003)
(-4.03964 1.44515 1.94052)
(-3.88702 1.00019 1.17253)
(-3.64489 0.820374 0.267167)
(-3.18006 0.347411 0.386012)
(-3.12838 0.805844 1.30703)
(-3.17654 1.26933 1.60912)
(-2.57703 0.495675 1.63698)
(-2.12819 0.0972839 1.59892)
(-1.83745 0.378867 0.193482)
(-1.37795 -0.839245 0.705923)
(-2.06315 -1.38029 1.2262)
(-3.75064 -2.27242 1.36084)
(-2.84584 -4.32023 1.26858)
(-2.75715 0.960243 0.774955)
(-2.73157 0.309452 1.05339)
(-2.52008 -0.0461049 0.14118)
(-1.68551 -0.621851 -0.00885695)
(-1.92552 0.368801 0.798414)
(-2.04436 0.743879 2.03547)
(-1.21655 1.11937 0.572672)
(-0.515107 0.561451 -0.151647)
(-1.08396 0.235454 0.435173)
(-1.48034 0.387764 -0.465573)
(-1.0678 0.219123 -0.652735)
(-0.824702 -0.169649 -0.412334)
(-1.24847 -0.00975148 0.840498)
(-1.10908 -2.42636 0.9832)
(-1.6829 1.25839 -0.699006)
(-1.38569 0.326699 -1.07831)
(-0.859244 -0.569829 -0.880762)
(-0.240867 -0.497593 -1.26871)
(-0.157984 -0.347713 -1.73761)
(-0.34431 -0.256167 -1.40428)
(-0.320585 0.103855 -1.65683)
(-0.527405 0.855884 -1.73228)
(-0.851193 1.05776 -1.20702)
(-1.02165 0.799575 -0.787109)
(-1.29355 0.953232 -0.877085)
(-0.934948 0.298408 -1.18793)
(-0.495035 -0.764254 -1.27478)
(-0.996636 -0.334229 -0.947112)
(-1.16722 0.0551265 -0.195458)
(-0.658056 -0.256634 -1.5025)
(-0.510295 -0.750378 -1.66434)
(-0.497653 -0.556605 -1.6733)
(-0.659172 -0.502953 -1.28791)
(-0.126078 -0.455465 -1.45782)
(0.0451829 -0.317741 -1.63399)
(0.109895 -0.0618881 -1.70756)
(0.265469 0.108784 -2.20092)
(0.349895 0.132791 -1.9227)
(0.848146 0.254865 -1.07817)
(0.514772 0.585589 -1.17133)
(0.216558 0.780937 -1.06072)
(0.405695 0.921324 -0.682314)
(0.558417 0.134067 -1.30401)
(0.318192 0.0184882 -0.968329)
(-0.42071 1.06392 -0.429402)
(-1.41674 -1.10287 0.0223532)
(-1.77055 -0.91354 0.0207727)
(-1.45375 -1.17656 -0.0263436)
(-2.02182 -0.807582 -0.0215336)
(-1.80152 -0.964826 0.0736871)
(-1.40236 -1.41937 0.0309252)
(-2.32677 -0.687435 -0.0165668)
(-2.12191 -0.995375 0.0769785)
(-1.88356 -1.25788 -0.0760533)
(-1.6482 -1.36461 0.0402547)
(-2.62126 -0.396285 0.0306115)
(-2.51065 -0.825865 -0.0802428)
(-2.34338 -1.00257 -0.121971)
(-2.19843 -1.17696 0.0135038)
(-1.54867 -1.87291 -0.329001)
(-2.68216 0.13746 0.291325)
(-2.63723 -0.579658 0.297943)
(-2.74233 -0.998582 0.112348)
(-2.53023 -1.36556 0.123061)
(-2.1922 -1.53501 0.0127589)
(-1.62298 -1.97791 0.356955)
(-3.03147 -0.261119 0.419368)
(-2.98411 -0.386904 0.411277)
(-2.97018 -0.706555 0.389358)
(-2.76077 -1.49948 0.264299)
(-2.58408 -1.87197 0.465744)
(-2.41645 -1.98288 0.104365)
(-1.7977 -2.3113 -0.146066)
(-3.09821 0.206423 1.0401)
(-3.27881 0.169824 0.78902)
(-3.33511 -0.474851 0.613019)
(-3.20601 -0.876991 0.431345)
(-3.17615 -1.3139 0.244719)
(-3.21037 -1.37213 -0.112411)
(-2.77136 -2.12621 -0.034143)
(-2.04018 -2.68191 -0.103029)
(-3.6064 0.472025 1.22462)
(-3.64569 0.194983 1.25614)
(-3.57298 -0.0707013 1.1929)
(-3.62508 -0.266604 1.04191)
(-3.59639 -0.808017 0.643435)
(-3.40372 -1.37124 0.27167)
(-2.85434 -1.96278 -0.0203929)
(-2.5332 -2.53664 0.400023)
(-1.14609 -3.27618 0.0690121)
(-3.97133 0.367611 1.5074)
(-4.05132 0.172857 1.34919)
(-3.96381 -0.288227 1.36592)
(-3.84808 -0.19755 1.36575)
(-4.05349 0.593131 1.25469)
(-4.05747 -0.963809 1.29)
(-3.89145 -1.37767 1.02826)
(-3.25016 -2.41083 0.511437)
(-2.29852 -3.17037 0.270752)
(-1.11923 -3.46949 -0.089465)
(-4.56486 0.730531 1.58753)
(-4.74385 0.207239 1.43572)
(-4.558 0.036959 1.54782)
(-4.70935 1.02039 1.35419)
(-4.73245 -0.432889 1.63668)
(-4.45776 -0.343699 1.78911)
(-4.53562 -0.974588 1.7815)
(-4.46794 -1.21205 1.35997)
(-3.92058 -2.57387 0.988556)
(-3.5309 -2.95848 0.189188)
(-1.3807 -4.10086 0.707014)
(-4.94149 1.26597 1.54635)
(-5.0719 0.730301 1.82016)
(-5.09347 0.333082 1.87893)
(-5.06268 0.244026 2.2074)
(-5.06091 -0.0941905 2.17815)
(-4.73151 -0.309476 2.57325)
(-5.09631 0.486137 2.46738)
(-5.1389 -0.405926 2.15536)
(-5.04274 -1.24329 2.36749)
(-4.09461 -3.58766 1.21258)
(-2.65152 -3.99171 0.826207)
(-3.13488 -3.69043 0.0875079)
(-4.45915 1.60986 1.54162)
(-4.75857 0.905436 1.92471)
(-4.79776 0.753421 1.86103)
(-4.5754 0.668829 2.48958)
(-4.46322 0.90541 2.40284)
(-4.4242 0.428982 2.7375)
(-4.78391 0.892014 2.43776)
(-4.95537 1.48844 1.87025)
(-5.02301 0.692666 1.63524)
(-5.21199 -0.788151 2.01308)
(-6.12439 -1.92918 2.00892)
(-5.71998 -3.37546 1.73605)
(-1.7488 -5.50056 0.353272)
(-3.71193 1.3938 2.25155)
(-3.8281 1.33988 1.76523)
(-3.56825 0.715122 1.08963)
(-3.35318 0.412172 0.363889)
(-3.09643 0.22817 0.492665)
(-3.1744 1.17842 1.52032)
(-2.97059 0.741237 1.74965)
(-1.89879 -0.402254 1.866)
(-2.07144 1.0314 0.722908)
(-1.78515 0.365924 0.0759917)
(-1.40832 -0.404344 0.673338)
(-1.85656 -1.49133 1.67494)
(-3.69118 -2.38691 1.56327)
(-1.98105 -4.95102 1.34469)
(-3.10034 1.00406 0.735666)
(-2.6995 0.781774 0.505377)
(-2.5737 0.410358 0.96923)
(-2.3922 0.0201111 -0.0939767)
(-1.62335 -0.775379 0.0885266)
(-2.02863 0.390542 0.94356)
(-1.96625 0.798318 1.67679)
(-1.04458 1.01948 0.219435)
(-0.667243 0.713084 -0.403571)
(-1.11445 0.454555 0.358142)
(-1.46182 0.300763 -0.515975)
(-1.11049 0.268192 -0.691713)
(-0.910152 -0.219284 -0.269816)
(-1.16038 -0.0173301 1.16953)
(-1.09534 -2.59794 1.18509)
(-1.38137 1.87753 -1.99757)
(-1.67011 1.33255 -1.013)
(-1.34873 0.384249 -1.10394)
(-0.763041 -0.624796 -0.923713)
(-0.186338 -0.496971 -1.3372)
(-0.203775 -0.371101 -1.7376)
(-0.274782 -0.323875 -1.62406)
(-0.274603 0.143069 -1.81776)
(-0.498812 0.856031 -1.82658)
(-0.797725 0.913844 -1.44426)
(-0.97519 0.713581 -0.916019)
(-1.18168 0.780271 -0.895135)
(-0.961184 0.368231 -1.35746)
(-0.477971 -0.756247 -1.40688)
(-0.918796 -0.442801 -0.941544)
(-1.2395 -0.115905 -0.346506)
(-0.505548 0.0964224 -2.00244)
(-0.619203 -0.24128 -1.53162)
(-0.462732 -0.724431 -1.65776)
(-0.469156 -0.568381 -1.67438)
(-0.617231 -0.504211 -1.32297)
(-0.0951218 -0.47748 -1.48463)
(0.061222 -0.355739 -1.66745)
(0.119063 -0.0680234 -1.78492)
(0.271042 0.118266 -2.21796)
(0.358598 0.132048 -1.87728)
(0.867768 0.293628 -1.10291)
(0.542387 0.582463 -1.14957)
(0.221907 0.801335 -1.02939)
(0.401539 0.95102 -0.640479)
(0.561872 0.149931 -1.2678)
(0.27585 0.0567541 -0.914535)
(-0.433972 1.05105 -0.453075)
(-1.36031 -0.940048 0.0258826)
(-1.65066 -1.07533 0.00144983)
(-1.34674 -1.1677 -0.01451)
(-1.93021 -0.712859 0.123795)
(-1.79246 -0.944351 0.0453108)
(-1.37331 -1.2821 -0.0129433)
(-2.17613 -0.732988 0.00652373)
(-1.97326 -0.929619 -0.0591849)
(-1.74508 -1.14579 0.0651954)
(-1.27555 -1.54744 0.047465)
(-2.42693 -0.458886 0.0115117)
(-2.29231 -0.810451 0.0288255)
(-2.20478 -0.965344 -0.0300766)
(-1.96252 -1.27478 -0.0237217)
(-1.49525 -1.55956 0.0126398)
(-2.57997 -0.384542 0.21596)
(-2.57343 -0.732192 -0.0166686)
(-2.40357 -1.03923 -0.0459709)
(-2.26209 -1.19829 -0.132972)
(-2.10983 -1.41419 0.135114)
(-1.54666 -1.92187 -0.295564)
(-2.77675 -0.22138 0.375038)
(-2.60822 -0.432575 0.334375)
(-2.64899 -0.757485 0.238003)
(-2.61787 -1.12812 0.0754436)
(-2.53736 -1.27907 0.16291)
(-2.27777 -1.57927 -0.196948)
(-1.29669 -2.24012 0.171853)
(-3.05188 -0.136069 0.803809)
(-3.0036 -0.501648 0.500754)
(-3.05847 -0.550001 0.406531)
(-2.91393 -1.0905 0.263373)
(-2.77595 -1.53938 0.27376)
(-2.80979 -1.61028 -0.0193146)
(-2.48086 -2.04288 0.103914)
(-1.83599 -2.39474 -0.204518)
(-3.04762 0.327218 1.16307)
(-3.10616 0.0991613 1.02203)
(-3.41175 -0.360113 0.73931)
(-3.30597 -0.780508 0.630727)
(-3.18071 -1.00303 0.414404)
(-3.13515 -1.39075 0.177356)