/*--------------------------------*- C++ -*----------------------------------*\
  =========                 |
  \\      /  F ield         | OpenFOAM: The Open Source CFD Toolbox
   \\    /   O peration     | Website:  https://openfoam.org
    \\  /    A nd           | Version:  7
     \\/     M anipulation  |
\*---------------------------------------------------------------------------*/
FoamFile
{
    version     2.0;
    format      ascii;
    class       volVectorField;
    location    "7";
    object      U_0;
}
// * * * * * * * * * * * * * * * * * * * * * * * * * * * * * * * * * * * * * //

dimensions      [0 1 -1 0 0 0 0];

internalField   nonuniform List<vector> 
18750
(
(0.0575318 0.609251 -0.890339)
(-0.829523 1.27522 0.0868702)
(0.518106 -0.317127 -2.18908)
(0.0301289 0.664071 -0.798107)
(-2.20085 1.30328 -0.854736)
(-0.763117 0.469284 -1.73943)
(-0.891457 1.31062 0.249864)
(0.438353 0.335828 -2.94973)
(0.511995 -0.338076 -2.04581)
(-0.00280215 0.725408 -0.725437)
(-3.70587 2.1077 0.249088)
(-1.80064 -0.592368 -0.541913)
(-2.03166 0.252777 -1.48447)
(-0.976188 0.109026 -1.55725)
(-0.880246 0.473222 -1.80424)
(-0.961625 1.30034 0.344308)
(0.25765 1.33282 -2.65293)
(0.432222 0.239109 -2.74901)
(0.498464 -0.338333 -1.91675)
(-0.0409223 0.811277 -0.644209)
(-3.11587 2.75951 0.304987)
(-3.87877 2.73167 0.320306)
(-3.42248 2.38984 0.102008)
(-2.19177 -0.17418 -1.12895)
(-1.49441 -0.229075 -0.766357)
(-2.18868 0.359908 -1.12418)
(-0.997799 0.767724 -0.886857)
(-0.980692 0.184335 -1.61273)
(-0.955348 0.41791 -1.82981)
(-1.04615 1.28514 0.46015)
(0.0304349 0.835013 -2.0464)
(0.25812 1.31806 -2.43566)
(0.430238 0.172394 -2.53851)
(0.493081 -0.327748 -1.79949)
(-0.0766617 0.891129 -0.574386)
(-3.76978 -0.690631 0.0643088)
(-4.20581 2.01744 1.26717)
(-3.95482 1.46919 -0.259252)
(-5.66469 1.39645 1.46976)
(-3.33023 3.0312 -1.50451)
(-3.62786 1.8889 -0.00871117)
(-2.36378 0.536099 1.53777)
(-1.99789 -0.477314 -1.41366)
(-1.38696 0.025491 -0.980205)
(-2.26291 0.374904 -0.925543)
(-1.41188 0.708165 -1.20042)
(-1.04261 0.762831 -0.937022)
(-0.997043 0.238871 -1.69258)
(-1.01876 0.36297 -1.81202)
(-1.09509 1.23164 0.634041)
(0.357221 0.341525 -1.39378)
(0.0467631 0.874337 -2.00799)
(0.259322 1.21695 -2.19065)
(0.43819 0.147303 -2.3241)
(0.487836 -0.313242 -1.69337)
(-0.121318 0.97002 -0.510852)
(-3.49491 -1.16508 0.314515)
(-4.0698 -0.955643 2.07197)
(-3.94494 -1.22231 0.181523)
(-4.78293 -0.0550342 2.16755)
(-4.35896 2.04699 1.05445)
(-4.03501 0.65074 -0.328161)
(-5.28021 1.01001 1.84443)
(-5.45446 1.29675 1.30496)
(-3.67321 1.69164 -0.796611)
(-3.61807 1.84545 -0.225302)
(-2.79989 0.997881 1.68583)
(-2.23971 -0.0753242 1.18572)
(-1.65813 -0.72964 -1.92031)
(-1.34281 0.214376 -0.956199)
(-2.29604 0.465622 -0.789288)
(-1.11151 1.01418 -0.647098)
(-1.39505 0.811904 -1.21163)
(-1.09713 0.779944 -1.021)
(-1.01826 0.286822 -1.78297)
(-1.08564 0.330186 -1.75576)
(-1.11071 1.1597 0.766948)
(0.674655 0.313635 -1.25352)
(0.389541 0.312312 -1.30804)
(0.0603784 0.867889 -1.91098)
(0.283807 1.06577 -1.94617)
(0.45249 0.118203 -2.12389)
(0.483056 -0.295188 -1.5982)
(-0.168169 1.04279 -0.455164)
(-3.23278 -1.57938 0.128597)
(-4.06203 -0.812168 0.783637)
(-3.32022 -1.68835 0.454235)
(-4.29499 -0.343286 2.21663)
(-4.16372 -1.04304 2.04865)
(-4.07039 -1.77156 0.352172)
(-5.56805 0.0164402 2.20383)
(-4.71589 0.0874166 2.11607)
(-4.62286 1.11081 1.5256)
(-4.07421 -0.564058 0.0739973)
(-4.49074 1.20701 2.257)
(-5.20349 1.20851 1.41898)
(-5.00969 1.44035 1.25955)
(-2.47794 1.88028 -2.02006)
(-3.99743 1.27215 -0.342635)
(-2.6116 1.79096 0.519864)
(-2.85629 1.09531 1.03816)
(-1.80243 -0.459552 -0.256733)
(-1.42758 -0.752267 -2.27397)
(-1.32812 0.364251 -0.925169)
(-2.38472 0.480541 -0.542413)
(-0.8381 1.17271 -1.00054)
(-1.08178 0.974069 -0.789043)
(-1.38503 0.912836 -1.19914)
(-1.14623 0.864895 -1.15018)
(-1.01106 0.193559 -1.87447)
(-1.15957 0.300223 -1.63847)
(-1.10101 1.04573 0.845592)
(0.295074 0.0610127 -1.98758)
(0.688723 0.321342 -1.21552)
(0.415689 0.330894 -1.27677)
(0.0833017 0.833253 -1.78814)
(0.315051 0.93429 -1.69823)
(0.472945 0.086436 -1.9439)
(0.479932 -0.275092 -1.5146)
(-0.215804 1.1033 -0.407774)
(-3.0061 -1.43929 0.0651873)
(-3.65647 -1.28261 0.311789)
(-3.17279 -1.69175 0.0942697)
(-3.95159 -0.253089 1.03961)
(-4.05555 -1.06015 0.777497)
(-3.18445 -2.07237 0.455685)
(-4.64364 0.640634 1.91635)
(-4.38211 -0.275056 2.21362)
(-4.41067 -1.26615 1.87041)
(-3.88984 -2.44048 0.406379)
(-5.32182 0.0560456 1.96389)
(-5.51531 0.0898537 2.23876)
(-4.68584 -0.0638526 2.17737)
(-4.72041 0.590059 1.37014)
(-4.6184 0.0782204 -0.992107)
(-3.87104 2.24066 2.20214)
(-4.61812 1.61098 2.21997)
(-5.02986 1.28486 1.3754)
(-4.76961 1.90461 1.29529)
(-3.12489 1.09929 -1.26431)
(-4.10914 0.779142 -0.418094)
(-1.55821 1.39 1.5083)
(-2.53745 1.44516 0.566141)
(-2.73706 0.786021 0.883959)
(-1.53246 -0.560617 -0.94196)
(-1.23678 -0.656908 -2.13843)
(-1.33911 0.448501 -0.744074)
(-2.41827 0.401467 -0.368795)
(-0.907896 0.921128 -0.492305)
(-0.800059 0.971555 -1.31964)
(-1.05242 0.838741 -0.980886)
(-1.38715 0.932865 -1.18611)
(-1.20738 0.91281 -1.3343)
(-1.01191 0.131718 -1.8646)
(-1.21459 0.271557 -1.47158)
(-1.06391 0.904351 0.825704)
(0.205795 -0.0411729 -1.63564)
(0.3075 0.0720062 -1.99936)
(0.686383 0.321861 -1.19652)
(0.436741 0.367181 -1.26773)
(0.10665 0.790116 -1.65156)
(0.354809 0.843581 -1.46471)
(0.496094 0.0609244 -1.78903)
(0.478319 -0.253173 -1.44194)
(-0.263186 1.14454 -0.37359)
(-2.71507 -1.38254 0.0337117)
(-3.56059 -1.07219 0.0780543)
(-2.78565 -1.87464 0.11106)
(-3.78327 -0.74205 0.595407)
(-3.55529 -1.69239 0.436029)
(-2.93773 -2.1287 0.132342)
(-4.06425 0.595286 1.23627)
(-4.11262 -0.385402 1.03556)
(-4.05253 -1.5481 0.567036)
(-3.1529 -2.26249 0.328303)
(-4.76862 0.783589 1.75834)
(-4.6432 0.454738 2.22399)
(-4.32783 -0.380776 2.16182)
(-4.40328 -1.85654 1.76147)
(-3.57819 -3.14745 0.539427)
(-5.21213 1.44734 1.44875)
(-5.4749 -0.0124307 1.95147)
(-5.61842 -0.235381 2.27853)
(-4.95227 1.17653 1.38641)
(-4.51347 -0.638637 2.0575)
(-5.01651 -0.948348 -0.162648)
(-3.29277 2.13169 1.55672)
(-4.03982 2.17859 2.02319)
(-4.66205 1.4932 2.45641)
(-4.83052 1.68001 0.941996)
(-4.50139 1.98481 -0.171899)
(-3.17913 0.840545 -0.878891)
(-4.01542 -0.223728 -0.247083)
(-1.92418 0.642784 1.58877)
(-1.3505 1.31808 1.72756)
(-2.23475 0.634505 1.04328)
(-2.49247 0.493116 0.763246)
(-1.16215 -0.463472 -1.24928)
(-1.06663 -0.485591 -1.78701)
(-1.36205 0.54064 -0.432833)
(-2.42714 0.178873 -0.184577)
(-0.644494 0.147379 -0.350783)
(-0.876045 0.88878 -0.624389)
(-0.735978 0.846617 -1.41905)
(-1.02465 0.644175 -1.12833)
(-1.40733 0.828431 -1.14138)
(-1.19526 0.790123 -1.53868)
(-0.972638 -0.0426278 -1.79209)
(-1.26619 0.24931 -1.26473)
(-1.02037 0.785959 0.668412)
(0.103002 -0.148505 -1.24594)
(0.222549 -0.0190091 -1.73648)
(0.321154 0.085064 -2.00576)
(0.695153 0.32288 -1.17884)
(0.450526 0.392527 -1.25917)
(0.128669 0.748151 -1.51424)
(0.386613 0.796057 -1.262)
(0.515089 0.0458693 -1.66253)
(0.477305 -0.22926 -1.37788)
(-0.305815 1.16421 -0.355716)
(-2.17066 -1.54967 0.117385)
(-3.09454 -1.16325 0.0388006)
(-2.73611 -1.43488 -0.0529011)
(-3.54879 -0.856278 0.111835)
(-3.39729 -1.54092 0.205926)
(-2.71074 -2.02641 0.107883)
(-3.85506 -0.0179055 0.681033)
(-3.79863 -1.02202 0.661549)
(-3.61925 -1.49752 0.511584)
(-2.83798 -2.31849 -0.022555)
(-3.925 0.529173 1.16852)
(-3.9968 -1.12235 1.4912)
(-4.01299 -1.07446 1.00353)
(-3.99139 -1.78297 0.430591)
(-2.88265 -2.63645 0.177363)
(-4.17885 2.02419 1.38093)
(-4.7269 0.665846 2.03544)
(-4.84993 0.206377 2.31463)
(-4.50938 -0.353637 2.12304)
(-4.55221 -2.05015 1.54971)
(-3.52042 -3.62782 0.656377)
(-3.96239 2.52099 1.89082)
(-4.96338 1.68092 2.32558)
(-5.56481 0.063074 2.4724)
(-5.85091 0.0617805 2.04494)
(-5.04305 -0.721168 2.05423)
(-4.34113 -2.41914 2.84658)
(-4.78703 -1.62067 0.299572)
(-3.40567 1.1955 1.20821)
(-3.28254 2.0503 1.65052)
(-4.10835 1.95366 2.11015)
(-4.5284 1.56908 2.35186)
(-4.66105 1.98651 -0.126875)
(-4.02932 1.17798 -1.96501)
(-3.42629 0.703393 -0.510476)
(-3.9629 -0.796159 -0.120776)
(-1.89184 0.556012 0.886833)
(-1.93965 0.676298 2.00148)
(-1.13563 1.26373 1.47843)
(-1.98122 0.432451 1.20767)
(-2.15227 0.565101 -0.167888)
(-0.914567 -0.377874 -1.11476)
(-0.938805 -0.317854 -1.49825)
(-1.3896 0.613024 -0.223173)
(-2.39363 -0.0541355 0.0235432)
(-0.335681 -0.371295 -0.606902)
(-0.616521 0.0827685 -0.539966)
(-0.785177 0.812484 -0.86967)
(-0.712811 0.971807 -1.17735)
(-0.995915 0.567239 -1.15665)
(-1.33911 0.773887 -1.17319)
(-1.19362 0.73779 -1.53354)
(-0.897786 -0.277617 -1.6735)
(-1.29442 0.207183 -1.07363)
(-0.997128 0.682027 0.445793)
(0.0335644 -0.341017 -1.47626)
(0.101281 -0.129637 -1.30939)
(0.234918 0.00558016 -1.83459)
(0.332936 0.0899326 -2.00856)
(0.702743 0.320884 -1.1612)
(0.459223 0.412796 -1.2434)
(0.154051 0.719387 -1.38706)
(0.411222 0.789359 -1.09309)
(0.532537 0.0440775 -1.562)
(0.475039 -0.204984 -1.31904)
(-0.329775 1.16873 -0.363064)
(-2.02599 -1.43259 0.147145)
(-2.72322 -1.16547 0.0610785)
(-2.15891 -1.56522 0.133317)
(-3.24909 -0.734045 0.191007)
(-3.24031 -0.879241 -0.0762125)
(-2.76967 -1.46776 -0.0558455)
(-3.45552 -0.367516 0.423631)
(-3.51788 -0.969991 0.126111)
(-3.45828 -1.22178 -0.0679756)
(-2.46056 -2.33113 0.0705142)
(-3.55676 0.52263 0.999004)
(-3.86174 -0.086614 0.729983)
(-3.79249 -1.2691 0.54984)
(-3.39183 -1.60783 0.54102)
(-2.60682 -2.53852 0.037562)
(-3.66942 0.721415 1.33267)
(-3.97885 0.694473 1.16103)
(-4.12702 0.283642 1.28834)
(-4.07576 -0.803227 0.99073)
(-3.70903 -2.15738 0.369947)
(-2.6346 -2.93901 0.352745)
(-3.83187 2.04595 2.21978)
(-4.51768 1.35803 1.99232)
(-4.59885 0.734493 2.20527)
(-4.92323 0.276719 2.23539)
(-4.6221 -0.952841 1.95867)
(-4.26413 -2.51802 1.36496)
(-3.56095 -3.6599 0.743059)
(-3.98245 2.26986 1.76627)
(-4.52373 1.42464 2.4558)
(-5.01744 1.80895 2.44589)
(-5.73833 1.19317 2.39598)
(-5.97806 0.00529171 1.94429)
(-5.36983 1.66656 0.098223)
(-4.67549 -3.30355 1.95365)
(-4.65637 -2.39027 0.685937)
(-3.45016 0.834129 1.08814)
(-3.12059 1.4108 0.98336)
(-3.40595 1.83347 1.77885)
(-3.95964 1.85652 2.20596)
(-4.18366 1.90905 1.52938)
(-4.09903 1.43443 -0.655781)
(-3.86429 1.17754 -2.14723)
(-3.9467 0.193451 0.0507963)
(-3.85418 -1.71881 0.0604439)
(-1.79936 0.25087 0.148205)
(-1.98077 0.42112 1.38092)
(-1.91346 0.928811 2.12439)
(-0.921973 0.90828 1.03283)
(-1.78734 0.484082 1.1138)
(-1.81363 0.533174 -0.950476)
(-0.825093 -0.221193 -0.850754)
(-0.787406 -0.163208 -1.36595)
(-1.36414 0.661088 -0.000961952)
(-2.24567 -0.518832 0.288448)
(-0.14083 -0.386944 -1.38552)
(-0.363806 -0.381587 -0.674017)
(-0.574303 0.0255975 -0.758966)
(-0.697248 0.717418 -1.11202)
(-0.722539 1.10949 -1.0537)
(-0.993214 0.637776 -0.993549)
(-1.32197 0.802485 -1.20409)
(-1.17944 0.670731 -1.4106)
(-0.866331 -0.317868 -1.48703)
(-1.24861 0.094417 -0.995309)
(-0.989717 0.56793 0.240635)
(-0.144587 -0.347271 -1.45759)
(0.0285149 -0.338141 -1.49608)
(0.1 -0.113353 -1.38041)
(0.240606 0.0322069 -1.92925)
(0.33005 0.0879952 -2.00649)
(0.727759 0.325723 -1.14017)
(0.464058 0.443489 -1.23147)
(0.174247 0.707523 -1.28081)
(0.422284 0.808378 -0.958921)
(0.544497 0.0514856 -1.48636)
(0.470478 -0.182713 -1.25972)
(-0.362777 1.14538 -0.382689)
(-1.82856 -1.4328 -0.265708)
(-2.4553 -1.18242 0.0843683)
(-1.8068 -1.69994 0.115717)
(-2.91155 -0.989337 0.138952)
(-2.70723 -1.29049 0.0696387)
(-2.11321 -1.65262 0.0126716)
(-3.26475 -0.561783 0.310268)
(-3.10782 -1.26746 -0.0873724)
(-3.02575 -1.49103 0.0159962)
(-2.56236 -1.82403 -0.144688)
(-3.50269 -0.0249921 0.599978)
(-3.56936 -0.530921 0.393797)
(-3.52958 -1.04979 0.224629)
(-3.2201 -1.60158 0.0137419)
(-2.29206 -2.56779 0.0815483)
(-3.70965 0.562856 1.08141)
(-3.68618 0.377844 0.897561)
(-3.72445 -0.484544 0.844608)
(-3.63813 -1.50178 0.418939)
(-3.06777 -2.06457 0.604236)
(-2.33162 -2.7922 0.15606)
(-3.89584 0.363919 1.52288)
(-3.85948 0.629466 1.38499)
(-3.98498 0.624501 1.40298)
(-4.16955 -0.557816 1.33099)
(-4.1375 -1.03956 0.959147)
(-3.75975 -2.18961 0.252588)
(-2.47094 -3.20161 0.13663)
(-4.51927 0.772248 2.52073)
(-4.17367 0.833224 2.51059)
(-4.53351 1.22008 2.33524)
(-4.69689 1.22744 2.15533)
(-4.88077 0.0938904 2.17134)
(-4.59221 -0.857258 1.67038)
(-4.04928 -2.68458 1.14492)
(-3.38488 -3.82584 0.501888)
(-4.11394 1.76315 2.10348)
(-3.88388 1.97192 2.08411)
(-4.14694 2.41125 2.57394)
(-5.14339 2.1128 2.69853)
(-5.79778 1.79037 2.35697)
(-6.22647 0.755007 1.39888)
(-6.11147 0.302982 0.57339)
(-4.56875 -3.52885 1.50873)
(-4.3466 -3.44721 0.703486)
(-3.26496 1.62224 1.05941)
(-3.17559 0.846718 0.832804)
(-3.18458 1.38993 1.0595)
(-3.41416 2.07744 1.79389)
(-3.73113 2.25065 1.89768)
(-3.55149 0.874653 1.10713)
(-3.07356 0.288549 -0.595512)
(-3.60337 0.970981 -1.7936)
(-4.52408 0.215503 0.177231)
(-3.68185 -2.44055 0.592297)
(-2.11858 0.385135 0.0138223)
(-1.74774 0.0562398 0.422553)
(-2.0259 0.500468 1.85842)
(-1.7964 1.19428 1.92069)
(-0.600344 0.325945 0.74672)
(-1.43239 0.337871 1.01908)
(-1.60094 0.188532 -0.968492)
(-0.913239 0.000533019 -0.60817)
(-0.730849 -0.0220397 -1.13004)
(-1.34767 0.56948 0.246381)
(-2.13529 -0.829814 0.441467)
(-0.448499 -0.280694 -1.27698)
(-0.137676 -0.387619 -1.42813)
(-0.38536 -0.364813 -0.791822)
(-0.516871 -0.0114375 -0.994242)
(-0.619247 0.714137 -1.2934)
(-0.801012 1.2787 -0.819627)
(-1.01117 0.767563 -0.704227)
(-1.32931 0.881435 -1.20658)
(-1.05909 0.391312 -1.29578)
(-0.813209 -0.393138 -1.3175)
(-1.18181 -0.0322771 -0.991371)
(-1.0073 0.433434 0.0989243)
(-0.610129 -0.597587 -1.22241)
(-0.1363 -0.37012 -1.46474)
(0.0281727 -0.334985 -1.52371)
(0.100045 -0.100099 -1.45871)
(0.24915 0.0595153 -2.018)
(0.343311 0.117887 -2.00351)
(0.746125 0.318123 -1.12602)
(0.494851 0.47889 -1.22676)
(0.185779 0.713891 -1.20323)
(0.418475 0.83425 -0.859585)
(0.554066 0.0638004 -1.4306)
(0.458511 -0.152975 -1.19036)
(-0.336866 1.07915 -0.405358)
(-1.76351 -1.08617 0.0718741)
(-2.3669 -0.793961 0.0288998)
(-1.76655 -1.52244 -0.266842)
(-2.67121 -1.03144 0.025224)
(-2.40142 -1.19839 0.170321)
(-1.79983 -1.71273 0.155223)
(-2.88313 -0.676973 0.304117)
(-2.87514 -1.07537 0.0312163)
(-2.82726 -1.26781 0.12796)
(-2.14019 -1.66845 0.0468259)
(-3.18644 -0.148893 0.406519)
(-3.22534 -0.565549 0.278267)
(-3.11822 -1.2525 -0.112573)
(-3.06283 -1.53693 -0.00327851)
(-2.43787 -2.05346 -0.202697)
(-3.54121 0.289675 0.967667)
(-3.56337 -0.0923597 0.652547)
(-3.53301 -0.622669 0.364632)
(-3.49213 -1.11561 0.168933)
(-3.16998 -1.83296 0.115526)
(-2.04545 -2.76198 0.0888843)
(-3.82294 0.444421 1.23658)
(-3.74834 0.589709 1.11878)
(-3.85665 0.648708 1.03314)
(-3.81586 -0.556216 1.00455)
(-3.54312 -1.80405 0.425933)
(-3.01305 -2.27709 0.440347)
(-2.22837 -2.87415 0.179535)
(-4.3835 0.351173 1.79885)
(-3.99841 1.24505 1.42689)
(-4.02249 0.56347 1.39228)
(-3.97992 -0.316356 1.50695)
(-4.51224 1.25719 1.22527)
(-4.17004 -1.22948 1.06312)
(-3.46455 -2.65034 0.443793)
(-2.15367 -3.49084 0.395746)
(-4.43111 1.22361 2.51868)
(-4.39084 0.429701 2.42964)
(-4.0837 1.23731 2.43738)
(-4.48097 2.11333 2.5584)
(-5.0154 0.813265 2.17716)
(-4.87517 0.0331247 1.94826)
(-4.9736 -0.737534 1.4211)
(-3.73095 -3.09243 1.12796)
(-3.2802 -3.95652 0.400012)
(-4.17281 1.67478 2.57258)
(-4.21674 0.629045 2.141)
(-3.94619 2.05426 2.24254)
(-4.63833 2.18425 2.51875)
(-5.20424 2.3415 2.57496)
(-5.84272 1.43078 2.12444)
(-6.26368 0.712355 1.19637)
(-6.0752 -0.4158 1.13369)
(-4.29452 -4.67808 1.38998)
(-3.55295 -4.73241 0.673725)
(-3.89328 1.64778 0.81143)
(-3.41766 0.981992 0.751768)
(-3.27188 1.1803 -0.594683)
(-3.33524 1.39233 1.51337)
(-3.33763 2.29132 1.63197)
(-3.42493 1.51675 1.87737)
(-2.52128 -0.374584 0.857201)
(-1.8837 -0.804196 0.475253)
(-3.09568 -0.252842 -0.467468)
(-4.39469 -1.26913 1.05242)
(-3.38886 -3.29641 0.814823)
(-2.89879 0.38823 0.661355)
(-1.97561 0.11027 -0.311198)
(-1.7501 0.106397 0.535156)
(-2.08236 0.616298 2.09308)
(-1.61923 1.17677 1.58178)
(-0.364494 0.207452 0.374073)
(-1.16945 0.0463574 0.820608)
(-1.41506 -0.109652 -0.892634)
(-0.959335 0.0920085 -0.577718)
(-0.712674 -0.0549718 -0.887457)
(-1.30142 0.378264 0.520006)
(-1.905 -1.35578 0.650234)
(-0.988058 -0.235475 -0.927764)
(-0.368655 -0.408826 -1.24828)
(-0.141546 -0.382437 -1.51198)
(-0.384411 -0.343027 -0.971363)
(-0.445076 -0.0206178 -1.23152)
(-0.581451 0.774923 -1.4072)
(-0.840324 1.24587 -0.866263)
(-1.03039 0.820831 -0.613776)
(-1.34234 0.93329 -1.15468)
(-0.907611 0.142446 -1.16706)
(-0.645506 -0.620005 -1.21593)
(-1.10475 -0.145823 -1.00318)
(-1.03659 0.343566 0.0187089)
(-0.511517 -0.543584 -1.66712)
(-0.645674 -0.559411 -1.24162)
(-0.13647 -0.40519 -1.45925)
(0.0334206 -0.333191 -1.55542)
(0.10231 -0.0899932 -1.54151)
(0.252807 0.0757195 -2.09387)
(0.343672 0.117763 -1.98801)
(0.791066 0.306862 -1.10169)
(0.506958 0.503991 -1.2143)
(0.200967 0.73313 -1.14694)
(0.411168 0.859812 -0.785894)
(0.573501 0.0916151 -1.37952)
(0.41352 -0.0799086 -1.10182)
(-0.340004 1.07155 -0.388062)
(-1.50845 -1.27193 -0.00390331)
(-1.96922 -1.1299 -0.111493)
(-1.72749 -1.17344 0.0489224)
(-2.52402 -0.764627 -0.049085)
(-2.26946 -0.993636 -0.0251092)
(-1.715 -1.60298 -0.268061)
(-2.67024 -0.857088 0.137278)
(-2.52669 -1.28049 0.081278)
(-2.28955 -1.33646 0.181751)
(-1.67663 -1.85389 0.209028)
(-2.94086 -0.427097 0.418004)
(-3.09023 -0.129732 0.414014)
(-2.87378 -1.04849 -0.0162292)
(-2.79268 -1.33234 0.138458)
(-1.99523 -1.90883 -0.00717189)
(-3.22634 0.100171 0.609497)
(-3.20944 -0.386336 0.341366)
(-3.0644 -0.783099 0.223483)
(-2.94252 -1.64103 -0.0904222)
(-3.07196 -1.52499 0.0188637)
(-2.35103 -2.26823 -0.252188)
(-3.54773 0.326856 1.02772)
(-3.54934 0.256921 1.00368)
(-3.63498 -0.491308 0.526263)
(-3.47052 -0.846935 0.35726)
(-3.39463 -1.35911 0.344006)
(-2.92788 -2.08022 0.147967)
(-1.92689 -2.87729 0.122812)
(-4.0518 0.769741 1.18739)
(-3.85432 0.358504 1.31326)
(-3.87424 0.427206 1.21516)
(-3.89948 -0.339036 1.16414)
(-3.80817 -1.25621 0.888461)
(-3.46439 -2.15608 0.476522)
(-2.7936 -2.61302 0.394949)
(-1.73387 -3.13369 0.22728)
(-4.53355 0.758413 1.5906)
(-4.43851 0.217486 1.66539)
(-4.08208 -0.267522 1.42809)
(-4.16123 0.361219 1.4798)
(-4.27545 0.689541 1.65918)
(-4.51439 -1.2471 1.39621)
(-4.11323 -1.75903 0.975159)
(-3.51882 -2.67807 0.297936)
(-1.8549 -3.78135 0.609911)
(-4.96978 0.954599 1.91801)
(-4.766 0.856527 2.42603)
(-4.42541 0.181767 2.38219)
(-4.5034 1.80077 2.57022)
(-4.97645 0.722218 2.55153)
(-4.90748 0.355127 2.13442)
(-5.07002 -0.220148 1.89039)
(-4.90064 -2.06975 1.22102)
(-3.37766 -3.47298 1.13517)
(-3.13741 -4.02231 0.193014)
(-4.55147 1.43498 2.04167)
(-4.56626 -0.470563 2.29692)
(-3.7743 1.89958 1.95918)
(-4.38755 1.28643 2.61413)
(-4.64608 2.03889 2.69916)
(-5.16332 1.75353 2.6315)
(-5.58714 1.51908 1.45045)
(-5.92221 0.264242 1.43633)
(-5.72722 -1.66058 1.71013)
(-5.42 -3.41789 0.954744)
(-3.02437 -5.47477 0.765407)
(-4.0974 1.21625 1.51655)
(-3.76356 1.35967 0.371119)
(-3.46165 0.73494 0.18153)
(-3.25386 0.842716 1.20239)
(-3.29259 1.46019 1.66537)
(-3.09644 1.88831 1.43424)
(-2.60318 -0.0794703 2.0252)
(-1.93435 -0.109737 0.576799)
(-1.48759 -0.660517 0.896303)
(-2.16324 -1.29414 1.1474)
(-4.22169 -1.57092 1.25332)
(-2.82728 -4.1941 0.884786)
(-2.86067 0.632684 0.8531)
(-2.71553 0.100018 0.356638)
(-1.76867 -0.349066 -0.159692)
(-1.85132 0.291762 0.560429)
(-2.08002 0.726642 2.18106)
(-1.40724 1.06648 1.09604)
(-0.380986 0.381193 0.123276)
(-1.092 0.0865887 0.526702)
(-1.46491 0.170976 -0.596958)
(-1.06218 0.239325 -0.522243)
(-0.769897 -0.116155 -0.600584)
(-1.24609 0.213804 0.705915)
(-1.82332 -1.62678 0.970346)
(-1.44822 0.27194 -0.990259)
(-0.921792 -0.488443 -0.858328)
(-0.318448 -0.457984 -1.24529)
(-0.156012 -0.37675 -1.62529)
(-0.372129 -0.302606 -1.18362)
(-0.379105 0.00990489 -1.45456)
(-0.547558 0.844812 -1.59519)
(-0.860969 1.17674 -0.993292)
(-1.05155 0.86416 -0.638095)
(-1.35673 1.00261 -0.977901)
(-0.864857 0.137256 -1.12608)
(-0.563427 -0.739851 -1.20672)
(-1.0465 -0.2309 -0.966351)
(-1.09495 0.188232 -0.0732219)
(-0.56394 -0.773326 -1.68378)
(-0.504044 -0.55277 -1.67168)
(-0.605457 -0.549692 -1.28602)
(-0.12466 -0.434832 -1.45281)
(0.0344789 -0.327215 -1.59411)
(0.105329 -0.0836721 -1.62585)
(0.258895 0.0895901 -2.15759)
(0.349581 0.12715 -1.95833)
(0.814429 0.288822 -1.08909)
(0.51034 0.545009 -1.18899)
(0.206417 0.759746 -1.10002)
(0.407503 0.885614 -0.731751)
(0.551779 0.0969203 -1.34153)
(0.367959 -0.0256681 -1.03247)
(-0.39681 1.06899 -0.405567)
(-1.52876 -1.08137 -0.0458139)
(-1.85537 -0.826789 0.0782245)
(-1.47678 -1.30509 0.00809765)
(-2.16456 -0.90071 0.00268724)
(-1.94226 -1.16113 -0.0967207)
(-1.62132 -1.34411 0.0218467)
(-2.58098 -0.75185 -0.0716875)
(-2.47821 -0.795283 -0.0698061)
(-2.22392 -1.07122 -0.0508255)
(-1.71318 -1.67066 -0.329428)
(-2.68432 -0.268739 0.336057)
(-2.64885 -1.03845 0.0945703)
(-2.49339 -1.37339 0.127034)
(-2.28684 -1.33901 0.111036)
(-1.56519 -1.98516 0.213203)
(-3.0103 -0.269257 0.4189)
(-2.91032 -0.506349 0.379823)
(-2.79196 -1.42651 0.0938561)
(-2.80451 -1.3553 0.0492351)
(-2.72137 -1.43614 0.129328)
(-1.95926 -2.08482 -0.0351514)
(-3.16681 0.395213 0.817355)
(-3.29362 -0.100473 0.57804)
(-3.27323 -0.450305 0.400372)
(-3.10629 -1.0864 0.14258)
(-3.21359 -1.14638 -0.22113)
(-2.87473 -1.79982 -0.0404392)
(-2.17024 -2.53423 -0.163074)
(-3.62165 0.411813 1.08847)
(-3.52995 0.538849 1.16488)
(-3.63093 -0.153544 1.02678)
(-3.62401 -0.739429 0.614483)
(-3.50566 -1.01023 0.32671)
(-3.15113 -1.60956 0.309331)
(-2.69431 -2.28366 0.45582)
(-1.27195 -3.22419 0.090955)
(-4.05673 0.612227 1.20755)
(-4.17122 -0.069891 1.35241)
(-3.88215 0.125406 1.33638)
(-3.81078 -0.673642 1.23833)
(-3.87778 -0.662731 1.21402)
(-3.97304 -1.04299 1.05284)
(-3.33085 -2.30527 0.499273)
(-2.50296 -2.94437 0.36319)
(-2.03465 -3.03633 0.281968)
(-4.4991 1.37219 1.53869)
(-4.54099 0.262601 1.51302)
(-4.33826 -0.355287 1.59863)
(-4.23099 1.43268 1.76916)
(-4.50185 -0.0991616 1.72118)
(-4.70247 0.136758 1.61848)
(-4.33139 -1.40093 1.45776)
(-4.05437 -2.28683 1.02423)
(-3.01936 -3.26755 0.829021)
(-1.44742 -4.0271 0.547746)
(-4.83658 0.828574 1.94629)
(-5.10671 0.50972 1.9803)
(-4.93002 0.303552 2.17178)
(-4.84517 0.226636 2.37148)
(-4.85119 0.418154 2.66803)
(-4.90725 0.0702443 2.35902)
(-5.11976 1.10001 1.89224)
(-5.07351 -1.05382 2.27215)
(-4.09044 -3.51248 1.11122)
(-3.17798 -3.61294 0.884043)
(-2.89879 -4.10795 -0.153516)
(-4.75783 1.43934 1.60165)
(-4.79387 1.04631 1.7241)
(-4.16458 1.23664 2.53473)
(-4.35887 1.20295 2.31202)
(-4.39097 0.919229 2.83445)
(-4.70686 1.33561 2.6402)
(-5.07093 1.30861 2.39929)
(-5.17341 1.21112 1.50791)
(-5.42398 -0.399062 1.99436)
(-6.09814 -1.62621 1.80836)
(-5.65552 -3.21816 1.35345)
(-2.55818 -5.53334 0.790243)
(-4.01885 1.48051 1.92764)
(-3.85232 0.990147 1.16058)
(-3.61749 0.781938 0.287573)
(-3.16962 0.327544 0.416645)
(-3.12079 0.830135 1.32408)
(-3.16433 1.24774 1.62799)
(-2.53261 0.40154 1.65865)
(-2.11189 0.161482 1.54308)
(-1.83185 0.406801 0.193258)
(-1.37461 -0.820357 0.711852)
(-2.05224 -1.38563 1.26748)
(-3.73581 -2.28918 1.37618)
(-2.84909 -4.34842 1.30892)
(-2.75298 0.957067 0.761127)
(-2.71441 0.309782 1.07846)
(-2.49967 -0.0354276 0.121413)
(-1.688 -0.616065 -0.00484818)
(-1.93009 0.379798 0.811767)
(-2.0408 0.758305 2.02308)
(-1.20877 1.12378 0.566006)
(-0.511081 0.556907 -0.16302)
(-1.07227 0.243515 0.433142)
(-1.46691 0.388898 -0.463376)
(-1.058 0.22259 -0.65175)
(-0.823157 -0.175895 -0.401034)
(-1.24231 -0.022869 0.858961)
(-1.07339 -2.48087 0.991031)
(-1.68525 1.27522 -0.725097)
(-1.38384 0.337898 -1.08109)
(-0.85467 -0.573579 -0.875869)
(-0.242684 -0.496836 -1.26606)
(-0.163084 -0.347811 -1.73645)
(-0.341534 -0.257981 -1.40738)
(-0.317352 0.107881 -1.65794)
(-0.524873 0.857518 -1.72492)
(-0.84792 1.0577 -1.20434)
(-1.01995 0.805514 -0.784071)
(-1.29124 0.951744 -0.873205)
(-0.933738 0.296693 -1.19159)
(-0.487975 -0.765518 -1.27583)
(-0.984057 -0.336325 -0.93664)
(-1.16848 0.0478798 -0.204552)
(-0.657965 -0.24894 -1.50328)
(-0.507846 -0.745406 -1.66256)
(-0.497905 -0.555126 -1.67257)
(-0.665023 -0.495415 -1.29056)
(-0.131084 -0.458269 -1.45755)
(0.0420443 -0.322813 -1.63508)
(0.108371 -0.0687516 -1.70867)
(0.265143 0.103925 -2.2028)
(0.351021 0.132037 -1.9201)
(0.848038 0.25762 -1.07549)
(0.512019 0.586282 -1.17141)
(0.217046 0.779735 -1.06234)
(0.408921 0.913955 -0.689732)
(0.561734 0.128413 -1.30805)
(0.322982 0.0180505 -0.972247)
(-0.413069 1.06655 -0.428422)
(-1.41702 -1.10281 0.0218114)
(-1.77141 -0.910912 0.0215123)
(-1.45374 -1.1768 -0.0258769)
(-2.02131 -0.809162 -0.0223835)
(-1.80165 -0.965916 0.07314)
(-1.40221 -1.4199 0.0314211)
(-2.32751 -0.689502 -0.0157269)
(-2.12392 -0.993829 0.077704)
(-1.88604 -1.25602 -0.0761481)
(-1.65001 -1.36436 0.0388223)
(-2.6219 -0.395469 0.0303658)
(-2.50922 -0.828066 -0.0799369)
(-2.34303 -1.00312 -0.122216)
(-2.19898 -1.17736 0.016131)
(-1.54842 -1.87465 -0.326596)
(-2.68245 0.13794 0.293101)
(-2.63804 -0.579946 0.295834)
(-2.74231 -0.995775 0.112711)
(-2.5335 -1.36097 0.122946)
(-2.19556 -1.5349 0.0083194)
(-1.6231 -1.97913 0.356853)
(-3.03347 -0.260355 0.419391)
(-2.98634 -0.383824 0.411405)
(-2.97052 -0.713959 0.385588)
(-2.76293 -1.49656 0.266124)
(-2.59112 -1.86809 0.455429)
(-2.41625 -1.99153 0.103754)
(-1.80349 -2.31202 -0.151676)
(-3.09775 0.206087 1.04319)
(-3.28223 0.161336 0.788513)
(-3.3359 -0.485219 0.613711)
(-3.20746 -0.872959 0.430628)
(-3.17852 -1.30833 0.246529)
(-3.20593 -1.38232 -0.106773)
(-2.76364 -2.13675 -0.0306621)
(-2.03002 -2.68491 -0.101016)
(-3.6084 0.449749 1.23233)
(-3.64367 0.199581 1.25931)
(-3.5734 -0.0626999 1.19495)
(-3.62546 -0.267181 1.04289)
(-3.59658 -0.800087 0.648209)
(-3.40747 -1.36175 0.273199)
(-2.85324 -1.96811 -0.0257103)
(-2.52452 -2.5421 0.396365)
(-1.14273 -3.27392 0.0705437)
(-3.98303 0.372044 1.49469)
(-4.05426 0.153109 1.36224)
(-3.96588 -0.284462 1.36531)
(-3.85166 -0.193242 1.36997)
(-4.06664 0.622151 1.26073)
(-4.07174 -0.961405 1.28317)
(-3.88923 -1.39255 1.02318)
(-3.246 -2.41757 0.511798)
(-2.2971 -3.174 0.273458)
(-1.12058 -3.46979 -0.0916099)
(-4.57202 0.713123 1.56911)
(-4.75813 0.120694 1.42097)
(-4.56648 0.0505946 1.54511)
(-4.70983 0.906394 1.36853)
(-4.74319 -0.478356 1.62706)
(-4.46987 -0.343977 1.78623)
(-4.56055 -0.93561 1.77212)
(-4.48482 -1.19723 1.34668)
(-3.91723 -2.56132 0.988881)
(-3.55288 -2.93279 0.162707)
(-1.39909 -4.0944 0.715541)
(-4.94368 1.29685 1.54089)
(-5.09245 0.739253 1.79952)
(-5.10781 0.325193 1.86621)
(-5.09233 0.234228 2.20083)
(-5.09206 -0.112556 2.16566)
(-4.74752 -0.374702 2.56215)
(-5.10291 0.425836 2.46908)
(-5.13289 -0.511334 2.1699)
(-5.03224 -1.25337 2.35688)
(-4.11288 -3.57948 1.22664)
(-2.65553 -4.00969 0.812437)
(-3.17701 -3.61515 0.126431)
(-4.43554 1.63554 1.55093)
(-4.75386 0.883054 1.93101)
(-4.81592 0.731542 1.87556)
(-4.6086 0.634356 2.48799)
(-4.46876 0.877523 2.41305)
(-4.43575 0.394952 2.73517)
(-4.77633 0.867868 2.44134)
(-4.90687 1.43157 1.90889)
(-4.96893 0.592554 1.7006)
(-5.19939 -0.774823 1.98501)
(-6.12085 -1.95549 2.02754)
(-5.74875 -3.37631 1.78933)
(-1.61728 -5.51165 0.308791)
(-3.70266 1.39842 2.25294)
(-3.79584 1.32293 1.75958)
(-3.53232 0.698069 1.08285)
(-3.32998 0.395828 0.376502)
(-3.10688 0.244055 0.499395)
(-3.17703 1.11436 1.56015)
(-2.96231 0.702742 1.76005)
(-1.89785 -0.39905 1.85709)
(-2.05879 1.03725 0.723666)
(-1.76723 0.360811 0.0800819)
(-1.41183 -0.381367 0.669469)
(-1.84627 -1.49981 1.72254)
(-3.69439 -2.38367 1.60156)
(-1.93115 -5.00223 1.32734)
(-3.0952 0.997964 0.725406)
(-2.69776 0.780823 0.488293)
(-2.5603 0.43661 0.967847)
(-2.37444 0.000736682 -0.0843338)
(-1.61928 -0.782681 0.102201)
(-2.03267 0.397078 0.947325)
(-1.9626 0.801621 1.66013)
(-1.03885 1.01344 0.217242)
(-0.66215 0.710058 -0.41311)
(-1.10377 0.46409 0.355116)
(-1.4475 0.298415 -0.513859)
(-1.10075 0.27082 -0.689738)
(-0.914412 -0.225644 -0.255019)
(-1.16318 -0.0262206 1.18152)
(-1.12666 -2.59535 1.20533)
(-1.38079 1.87995 -2.00364)
(-1.67377 1.34519 -1.03481)
(-1.34707 0.392711 -1.09783)
(-0.759786 -0.623805 -0.919129)
(-0.189419 -0.495498 -1.33854)
(-0.207228 -0.370114 -1.74116)
(-0.270995 -0.331421 -1.62589)
(-0.271081 0.143539 -1.81602)
(-0.495292 0.853402 -1.82015)
(-0.793581 0.912669 -1.44297)
(-0.971413 0.71503 -0.917803)
(-1.17745 0.777665 -0.897134)
(-0.961149 0.369487 -1.36384)
(-0.471785 -0.757454 -1.41011)
(-0.910924 -0.439039 -0.932008)
(-1.24015 -0.122374 -0.358923)
(-0.503549 0.109519 -2.00357)
(-0.619368 -0.231454 -1.53194)
(-0.461219 -0.719977 -1.6579)
(-0.471139 -0.567226 -1.67256)
(-0.621564 -0.498194 -1.32566)
(-0.100576 -0.47888 -1.48545)
(0.0578787 -0.358693 -1.66928)
(0.117268 -0.0735467 -1.78668)
(0.270761 0.113401 -2.22071)
(0.359505 0.131414 -1.87509)
(0.874315 0.284682 -1.09578)
(0.54144 0.58491 -1.15301)
(0.222738 0.799529 -1.03087)
(0.404613 0.941879 -0.644887)
(0.565564 0.144634 -1.27143)
(0.280272 0.0563906 -0.917909)
(-0.424985 1.05535 -0.454904)
(-1.36082 -0.939802 0.0260821)
(-1.65071 -1.075 0.00162156)
(-1.34733 -1.16728 -0.0150012)
(-1.93052 -0.713203 0.123608)
(-1.79324 -0.943856 0.0455912)
(-1.37306 -1.2827 -0.0126177)
(-2.17702 -0.732996 0.00741316)
(-1.97471 -0.928367 -0.0590103)
(-1.74589 -1.14639 0.0654108)
(-1.27701 -1.54643 0.0479576)
(-2.4272 -0.458592 0.0118378)
(-2.29271 -0.809587 0.0292891)
(-2.20461 -0.968109 -0.0300635)
(-1.96521 -1.27421 -0.0240378)
(-1.49635 -1.56016 0.0110979)
(-2.5808 -0.386371 0.216052)
(-2.57274 -0.736415 -0.0173353)
(-2.4045 -1.03733 -0.0450696)
(-2.26262 -1.20109 -0.132485)
(-2.11015 -1.41644 0.13641)
(-1.54804 -1.92139 -0.292053)
(-2.7765 -0.225781 0.378061)
(-2.60811 -0.440817 0.33476)
(-2.65016 -0.756815 0.235286)
(-2.61537 -1.13024 0.0734714)
(-2.53714 -1.27721 0.165501)
(-2.27796 -1.58393 -0.200117)
(-1.29623 -2.24202 0.17013)
(-3.05373 -0.140945 0.802109)
(-3.00598 -0.496386 0.500567)
(-3.06084 -0.547099 0.40613)
(-2.91519 -1.08631 0.262479)
(-2.78039 -1.53513 0.273816)
(-2.81413 -1.60755 -0.0230723)
(-2.48738 -2.03787 0.104015)
(-1.84332 -2.39348 -0.207445)
(-3.04651 0.327839 1.16549)
(-3.10549 0.0931775 1.02177)
(-3.41273 -0.364339 0.738681)
(-3.30807 -0.777301 0.629706)
(-3.18292 -1.00163 0.414182)