/*--------------------------------*- C++ -*----------------------------------*\
  =========                 |
  \\      /  F ield         | OpenFOAM: The Open Source CFD Toolbox
   \\    /   O peration     | Website:  https://openfoam.org
    \\  /    A nd           | Version:  7
     \\/     M anipulation  |
\*---------------------------------------------------------------------------*/
FoamFile
{
    version     2.0;
    format      ascii;
    class       volScalarField;
    location    "4.5";
    object      nut;
}
// * * * * * * * * * * * * * * * * * * * * * * * * * * * * * * * * * * * * * //

dimensions      [0 2 -1 0 0 0 0];

internalField   nonuniform List<scalar> 
18750
(
0.000520804
0.00135626
0.00030399
0.000507973
0.00214442
0.00192322
0.00218872
0.000548261
0.000315228
0.000462714
0.00386526
0.00240958
0.0019987
0.000710403
0.00152362
0.00235145
0.000175444
0.000604191
0.000386674
0.000522256
0.00393812
0.00148357
0.00276168
0.000621933
0.000927642
0.00174664
0.000362869
0.000661867
0.00232338
0.00142735
0.000360239
0.000294374
0.00063581
0.000437332
0.00037947
0.00262369
0.00394736
0.00395998
0.00121952
0.00248151
0.0028762
0.000935628
0.00102778
0.000966693
0.00174366
0.000465345
0.000411347
0.000714582
0.00218044
0.00163315
0.000411685
0.000353667
0.000380694
0.000650512
0.000340494
0.000444074
0.00283128
0.00174036
0.00245975
0.00146999
0.00179912
0.00334311
0.000783522
0.00168467
0.00213172
0.00346689
0.000698482
0.000731747
0.00123171
0.00265996
0.00193205
0.000467966
0.000439307
0.000537218
0.000878067
0.00111235
0.00131316
0.000426691
0.000377175
0.00036309
0.000132978
0.000702423
0.00041061
0.000383779
0.00297281
0.00127025
0.00285955
0.000998439
0.00151747
0.00229382
0.000451873
0.0023147
0.00300921
0.00320139
0.00137531
0.0010186
0.00179221
0.00232274
0.00322138
0.000664148
0.000537979
0.000507177
0.00127726
0.00256678
0.00218807
0.000714904
0.000346202
0.000351
0.000550959
0.000864084
0.00156008
0.000950374
0.000488027
0.000344236
0.000349298
0.000355322
0.000285828
0.000733844
0.000450333
0.000555521
0.00270225
0.00107534
0.00291226
0.00107157
0.00110106
0.00277877
0.00061397
0.00109938
0.00169364
0.00193918
0.00121624
0.000913318
0.00220347
0.00257559
0.00283608
0.00110066
0.00138147
0.000540787
0.00120398
0.00189832
0.00272784
0.00114414
0.000542839
0.000464931
0.000578061
0.00166893
0.0012076
0.00194499
0.000919574
0.000602284
0.000358283
0.000317024
0.000536882
0.000944758
0.00154171
0.00121502
0.000487203
0.000327642
0.000268808
0.000320304
0.000329459
0.000365127
0.000758596
0.000269719
0.000566534
0.00252233
0.00085406
0.00255103
0.000591227
0.00105576
0.0026654
0.000904726
0.000984827
0.00109159
0.00309498
0.000793237
0.000507571
0.00154125
0.000957965
0.00279735
0.000888084
0.00112342
0.0009902
0.00265979
0.00287793
0.00170658
0.000861604
0.000702624
0.00108619
0.000695821
0.000546128
0.00162188
0.00261115
0.000851198
0.000872924
0.000700269
0.000467626
0.000560242
0.00180486
0.00115044
0.00173528
0.00024134
0.0012517
0.000528956
0.000389344
0.000543341
0.000330902
0.000956083
0.00144197
0.00108795
0.000408929
0.000439189
0.00021678
0.000214667
0.00029373
0.000362571
0.000204017
0.000758446
0.000345651
0.000403195
0.00247387
0.000819011
0.00251262
0.000755897
0.000536739
0.00254977
0.000716362
0.000896658
0.00174006
0.00245502
0.00137453
0.000960804
0.00112736
0.00121262
0.00276758
0.000604337
0.000497916
0.000996802
0.00169581
0.00168791
0.00268025
0.000878752
0.00177398
0.000809381
0.0010609
0.00331858
0.00203197
0.0021234
0.000692029
0.000812199
0.000884697
0.000953474
0.000617411
0.00242206
0.00169138
0.0025543
3.19823e-05
0.00092751
0.000838266
0.000637127
0.00061436
0.000502864
0.000629851
0.00103688
0.00166923
0.000683647
0.0002353
0.00127842
0.000623444
0.000428268
0.000451601
0.000174975
0.000898771
0.00149292
0.00102731
0.00043948
0.000375949
0.000401839
0.000200616
0.000200034
0.000290772
0.000364293
0.000292199
0.000752823
0.000394723
0.000448982
0.00255879
0.000692228
0.00256
0.00073898
0.000935608
0.00258094
0.000944819
0.000690589
0.00184617
0.00248914
0.000780209
0.000484214
0.00102214
0.000959309
0.00265446
0.000558236
0.000635133
0.00103233
0.00103791
0.00153621
0.00284245
0.000613178
0.000861295
0.000642468
0.00143031
0.00247132
0.00157471
0.00194305
0.000445869
0.000669714
0.000651597
0.00108779
0.000931345
0.00156922
0.0021516
0.00243438
0.00118728
0.000737457
0.000675771
0.00108186
0.000844588
0.00172549
0.00311962
0.00166269
0.00223145
0.00149466
0.000240636
0.000937912
0.000687727
0.00049455
0.000781008
0.00112626
0.00189382
0.000677569
0.00162014
0.000731913
0.000526554
0.000343379
0.00116209
0.000510443
0.000344463
0.000286198
0.000709389
0.000899327
0.00124528
0.000834598
0.00056468
0.000411553
0.000341014
0.00036135
0.000227456
0.000245038
0.00026382
0.000323138
0.000353771
0.000744147
0.000317109
0.000461326
0.0022135
0.000752846
0.0024737
0.000739421
0.000541996
0.00250737
0.000631238
0.00081797
0.000696015
0.00252677
0.000851499
0.000771233
0.000981755
0.00134621
0.00237633
0.000859854
0.00106709
0.000717713
0.00123191
0.00126011
0.00250736
0.00072682
0.000664922
0.000509199
0.00105386
0.00144151
0.00150587
0.00265245
0.000913715
0.000977417
0.000863182
0.000522891
0.0018075
0.00214885
0.00193697
0.00265395
0.00040449
0.000429947
0.000954606
0.000769943
0.000996305
0.000545686
0.000882234
0.00219164
0.0021781
0.00100636
0.00129189
0.000986477
0.000729041
0.000946145
0.00127779
0.00249611
0.00123448
0.00225752
0.00218448
0.00140301
0.00139886
0.000516842
0.00100365
0.000710292
0.000511736
0.000613374
0.00113776
0.002755
0.000781163
0.0016404
0.000829177
0.000744443
0.000442124
0.000384029
0.0011925
0.000508601
0.000306174
0.000138496
0.000296981
0.000932772
0.000965949
0.000891557
0.000349742
0.000571448
0.00039106
0.00030857
0.000339293
0.000252072
0.000335078
0.000240725
0.00032064
0.000335374
0.000736274
0.000416273
0.000469335
0.00217255
0.000662816
0.00231403
0.00075845
0.000701904
0.00242606
0.000602614
0.000451628
0.0007023
0.00243142
0.000651734
0.000768566
0.000550637
0.00116378
0.00230457
0.000528808
0.000813697
0.000606003
0.000950919
0.000519314
0.00249942
0.000902429
0.0011954
0.000569298
0.00104683
0.00115621
0.00115921
0.00249447
0.000641843
0.000897182
0.000792867
0.000890231
0.00117767
0.00168392
0.00161632
0.00285122
0.000739849
0.000593386
0.000569442
0.000979694
0.00141256
0.0016469
0.00180435
0.00222616
0.0022776
0.000956198
0.000605872
0.000540161
0.000528568
0.000547054
0.00101098
0.00166575
0.000801852
0.002237
0.00203025
0.00124502
0.00122149
0.000889574
0.00114012
0.000694149
0.00110332
0.00174581
0.0016386
0.00107565
0.00146574
0.00189731
0.00118387
0.00122376
0.00142928
0.000552426
0.000917226
0.000815018
0.000476429
0.000674507
0.00158231
0.00203331
0.00142282
0.00209717
0.000536769
0.000669631
0.000703601
0.000455736
0.00041081
0.00119851
0.000516426
0.000395302
0.000295141
0.000596329
0.00133872
0.000859247
0.00109159
0.000190652
0.000317424
0.000566082
0.000364965
0.000284414
0.000307943
0.000277544
0.000421404
0.00022672
0.000321887
0.000331133
0.000720611
0.000381221
0.000498381
0.00217387
0.000506617
0.00218214
0.000770929
0.000518807
0.00223983
0.000653366
0.000568928
0.000609101
0.00244641
0.000427345
0.000473481
0.000597907
0.000837259
0.00232285
0.000645538
0.000818441
0.000781252
0.000818549
0.000539755
0.00234526
0.000820448
0.00136933
0.000675667
0.000682181
0.000857324
0.00107674
0.00278845
0.000732389
0.00088955
0.000453634
0.000872293
0.00120817
0.00105087
0.00110027
0.00291938
0.00107292
0.00115311
0.00116748
0.000912529
0.000906469
0.000940522
0.00158277
0.00135841
0.00229928
0.000604233
0.00042183
0.000443821
0.000604657
0.000571105
0.000925378
0.00214867
0.00143633
0.0017238
0.00241627
0.000798957
0.000701453
0.000362844
0.000627439
0.000696829
0.000597526
0.000492112
0.000760708
0.000647741
0.00223882
0.00186906
0.00110035
0.00100809
0.00129978
0.000946287
0.000817604
0.00059841
0.0010417
0.00124933
0.000838224
0.00113205
0.000857002
0.00210228
0.000913759
0.00118661
0.00128052
0.00105075
0.000951548
0.000628245
0.000743435
0.000618567
0.000710486
0.00159313
0.00123442
0.00140608
0.00212826
0.000367839
0.000447259
0.000480726
0.000697313
0.000682028
0.000729584
0.00110089
0.00062207
0.000493419
0.000373605
0.000581427
0.00125236
0.000853131
0.000943074
0.000244468
0.00020341
0.000282428
0.000549276
0.000332175
0.000277589
0.000262506
0.000371726
0.000452212
0.000192429
0.000311599
0.000321584
0.000686957
0.000385123
0.000544275
0.00219182
0.00055377
0.00216537
0.000436282
0.000423222
0.00238937
0.000745811
0.000728594
0.000578243
0.00224613
0.000512771
0.000805108
0.000570526
0.000872063
0.00241449
0.0005698
0.000599073
0.000431796
0.000458897
0.000537723
0.00243206
0.000769664
0.000568885
0.000701864
0.000801417
0.000923432
0.000728526
0.00230207
0.00115687
0.00093855
0.000972118
0.000579093
0.00067572
0.000793047
0.000970504
0.00236674
0.000670354
0.000400212
0.000949919
0.000700363
0.00100779
0.00096185
0.000814018
0.000838399
0.00245723
0.000939239
0.000961515
0.000930102
0.000653091
0.00105587
0.00126492
0.0011687
0.00197195
0.00188423
0.00238147
0.000667749
0.000415162
0.00061844
0.000374227
0.000587395
0.000439743
0.00140702
0.00157114
0.00115446
0.00184667
0.00224278
0.000909597
0.000670359
0.000881759
0.000256457
0.000568287
0.000561077
0.000731553
0.000406602
0.00115122
0.000601789
0.00207204
0.002188
0.00129777
0.000807915
0.000797305
0.000875279
0.00143657
0.000819641
0.00077067
0.000591133
0.00107941
0.00119588
0.00079469
0.000885656
0.00233797
0.000475609
0.000782824
0.00128254
0.0014106
0.000644645
0.000901682
0.000946702
0.000664653
0.000576372
0.0006124
0.00057024
0.00138045
0.000560476
0.00153877
0.000294246
0.000433339
0.000427472
0.000421461
0.000751602
0.000856254
0.000809056
0.00124134
0.00073675
0.000551542
0.000312802
0.000440538
0.00103687
0.000858015
0.000871305
0.000315497
0.000201439
0.000207395
0.000254331
0.000507257
0.000309098
0.000223535
0.000252733
0.000624398
0.000465375
0.000161663
0.000312963
0.000309332
0.000643865
0.000377971
0.000597574
0.00217373
0.000528085
0.00204843
0.000373455
0.000547284
0.00215113
0.000342904
0.000804875
0.000270368
0.00222636
0.000601673
0.000619716
0.000502313
0.000770368
0.00217983
0.000405465
0.000430481
0.000514721
0.000657917
0.000610863
0.00230746
0.000846588
0.000939823
0.000586805
0.000421999
0.000466223
0.000598256
0.0024006
0.000525104
0.000632267
0.000914642
0.000762699
0.000805249
0.00062811
0.000525708
0.00233819
0.000701568
0.000387777
0.0011009
0.000452556
0.000554974
0.000677968
0.000971578
0.000873383
0.00232635
0.000594809
0.000831152
0.00156351
0.000952203
0.00117103
0.00148873
0.000947024
0.000935014
0.0013703
0.00205764
0.000822812
0.000939393
0.000966655
0.000761034
0.000730622
0.000933366
0.000638925
0.00166226
0.00182528
0.00104059
0.00240392
0.000601137
0.000578759
0.000387305
0.000389
0.000561098
0.000615326
0.000487789
0.00157263
0.00156588
0.000675631
0.00145125
0.00227131
0.001585
0.000636621
0.000678988
0.000460737
0.000614383
0.000745336
0.000284634
0.00119805
0.000495556
0.000924226
0.00070148
0.00118206
0.00257508
0.000933365
0.00102707
0.000932386
0.00136026
0.000809895
0.000924507
0.000930724
0.000895496
0.000453351
0.000961474
0.0023326
0.000546957
0.00109684
0.00252967
0.000541304
0.000490509
0.00085624
0.00111474
0.00111181
0.00083513
0.000709344
0.000891695
0.000739796
0.000572327
0.000653712
0.000883219
0.00134236
0.000493685
0.00173873
0.000173765
0.000471466
0.00041161
0.000456161
0.000434132
0.000674941
0.0010338
0.000818809
0.00120428
0.000584222
0.000491651
0.000331877
0.000592162
0.000925308
0.000809969
0.000877769
0.000529752
0.000247262
0.000214621
0.000209992
0.000248652
0.000456733
0.000248785
0.00013889
0.000225913
0.000517553
0.000512397
0.000182243
0.000322606
0.000323242
0.000578787
0.000331207
0.000605135
0.00207449
0.000666107
0.00221857
0.000267139
0.000278065
0.00208564
0.000485814
0.000280055
0.000385617
0.00199854
0.000531875
0.00080441
0.0004962
0.000495212
0.00218562
0.000301884
0.000423125
0.00069987
0.000831424
0.000652202
0.00200747
0.000535839
0.000476655
0.000539327
0.000381191
0.000372575
0.00060232
0.00228388
0.000550053
0.000665043
0.000569204
0.000606563
0.00053751
0.000600256
0.000595056
0.00238931
0.000604974
0.00105024
0.000851536
0.000851531
0.000604487
0.000481463
0.000800278
0.000694503
0.00222249
0.000538363
0.00056096
0.00067738
0.000695245
0.000641849
0.000715734
0.000923461
0.000661861
0.000593947
0.00232137
0.000585614
0.000447671
0.000990544
0.000661317
0.000929122
0.00122981
0.000788658
0.000657148
0.00118601
0.000819141
0.00234597
0.000464119
0.000921041
0.000774344
0.000798484
0.000659792
0.000778023
0.000774808
0.00117973
0.00159734
0.0014339
0.00105157
0.00216211
0.000719224
0.0003613
0.00056917
0.000566538
0.000403043
0.000721954
0.000268015
0.000861896
0.00100377
0.00161236
0.0010186
0.00101045
0.00254839
0.00111749
0.0011212
0.000935797
0.000615401
0.00035645
0.000381844
0.000586183
0.000625929
0.000926406
0.000537557
0.00015035
0.00107502
0.00106746
0.00232583
0.00119015
0.00079984
0.000951225
0.00119096
0.00152701
0.00120186
0.00106246
0.000892906
0.000906852
0.000902474
0.00155038
0.00205766
0.000474566
0.000904727
0.00245315
0.000613393
0.000534425
0.000534253
0.00102532
0.00118323
0.000764005
0.000722783
0.00122707
0.000931306
0.000555814
0.000634178
0.000847218
0.0015194
0.00128633
0.000940562
0.00184595
0.000209123
0.000229195
0.000378639
0.000358133
0.000480228
0.000324553
0.000674888
0.00108131
0.00102412
0.000919858
0.00066099
0.000293254
0.000327122
0.00123856
0.000907547
0.00085042
0.000901488
0.000116033
0.000431745
0.000194585
0.000266939
0.000208723
0.00027322
0.000406201
0.000169843
0.000230062
0.000119712
0.000503835
0.000599573
0.000189503
0.000340789
0.000342192
0.000559629
0.000329318
0.000662708
0.00217291
0.000394423
0.00208867
0.00032766
0.000611091
0.00207921
0.00034223
0.000400931
0.00050806
0.0020781
0.000573328
0.000655044
0.000599674
0.000265637
0.00203942
0.000493657
0.000393119
0.000325104
0.0005243
0.000584016
0.00201936
0.000363491
0.000628278
0.000386844
0.000537345
0.000540685
0.000462135
0.00206491
0.000504932
0.00075865
0.000460055
0.000366593
0.000376675
0.000422211
0.000630074
0.00213653
0.000462072
0.00050007
0.000413325
0.000625286
0.000764983
0.000555203
0.000571338
0.000494903
0.00222251
0.000418575
0.000684531
0.000392554
0.00081239
0.000735776
0.000610077
0.000709954
0.000703035
0.000589073
0.00235807
0.000582754
0.00027122
0.000657845
0.00118424
0.000707436
0.000880442
0.0010274
0.00079347
0.000871408
0.00129565
0.00211293
0.000471269
0.000443636
0.000903454
0.000707031
0.000830371
0.000844696
0.000868754
0.000639826
0.000948445
0.00122081
0.000490077
0.00234964
0.000790133
0.000609344
0.000920992
0.00084339
0.000703517
0.000689783
0.000976095
0.000732297
0.00122746
0.00133564
0.00107836
0.00094586
0.00228434
0.000871984
0.000583449
0.000467998
0.000381474
0.000361872
0.000417009
0.000512243
0.000517216
0.0011572
0.000896195
0.000685115
0.00167513
0.000794846
0.00246671
0.000460421
0.00149116
0.00106779
0.000813385
0.00103957
0.000521527
0.000660415
0.000670757
0.00100278
0.000475054
0.000786751
0.00108311
0.00139329
0.00111025
0.00247569
0.00110847
0.0010218
0.000770674
0.00121944
0.000900263
0.00103541
0.00101829
0.000779052
0.00118039
0.000687327
0.000774632
0.000807264
0.00137812
0.000696106
0.00114278
0.00222233
0.000330948
0.000720805
0.000290455
0.00073856
0.00104818
0.00148309
0.000753701
0.000681343
0.000409625
0.00124822
0.000548897
0.000543334
0.000839814
0.00157529
0.00125858
0.000960079
0.00163377
0.000273544
0.000241903
0.000202139
0.000424647
0.00036225
0.000373918
0.000355062
0.000785473
0.00117926
0.00145215
0.00083549
0.00102172
0.000263727
0.000211671
0.00116194
0.00091524
0.000909695
0.000936043
0.000207827
0.000251503
0.000310307
0.000146505
0.000176666
0.000206944
0.000269225
0.000349157
0.000174608
0.000205532
0.000138073
0.000684
0.000636911
0.000203715
0.000363553
0.00036474
0.000565388
0.000357234
0.000681147
0.00217776
0.000604611
0.0021109
0.000474296
0.000339433
0.0021269
0.000654218
0.000307121
0.000630445
0.00214841
0.000533267
9.28785e-05
0.000204501
0.000599834
0.00208346
0.000409543
0.000355881
0.000394346
0.00038957
0.000340797
0.00190666
0.000337826
0.000341882
0.000373836
0.00049815
0.00047661
0.000540072
0.00195623
0.000647933
0.000616803
0.000391352
0.000236436
0.000516848
0.000694858
0.000752533
0.00208328
0.000541999
0.000295166
0.000494189
0.000390386
0.000646994
0.000413637
0.000367569
0.000491862
0.00212303
0.000617379
0.000666936
0.00056528
0.000537814
0.000909985
0.000356569
0.000450313
0.000707561
0.000440077
0.00214591
0.000770235
0.000879956
0.000358517
0.000827829
0.00068185
0.000690118
0.000645134
0.000684991
0.000620317
0.000479902
0.00217305
0.00064799
0.000492208
0.000633558
0.000910888
0.000704179
0.000842533
0.00105235
0.00096487
0.000647009
0.000635851
0.000439541
0.00242878
0.000500517
0.000499635
0.000793152
0.000514435
0.000597775
0.00065991
0.000710041
0.00052199
0.000702633
0.00129711
0.00131244
0.000976867
0.00230278
0.000647164
0.000777415
0.000773718
0.000942616
0.000994448
0.00102092
0.000730578
0.00086726
0.000831602
0.00135623
0.00228296
0.00114824
0.000805886
0.00251264
0.000805675
0.000920853
0.000361109
0.000592208
0.000292955
0.000325014
0.000439936
0.000261532
0.000671426
0.00152491
0.00176279
0.00218491
0.000792968
0.000827433
0.00235338
0.000935614
0.000731932
0.00127596
0.000675157
0.000606051
0.00076651
0.000552137
0.000719365
0.000536572
0.00091557
0.00156618
0.000884246
0.00112668
0.000957583
0.000997253
0.00200986
0.000769259
0.000641422
0.000614003
0.000730333
0.000996804
0.000915971
0.000968765
0.000927134
0.00112235
0.000789297
0.000902454
0.00111771
0.00143922
0.000542458
0.000480567
0.000520638
0.00245093
0.000434335
0.000640414
0.00060878
0.000372753
0.000935276
0.00123814
0.000927421
0.00108964
0.000838558
0.000713933
0.000961028
0.000564933
0.000528658
0.000754917
0.00135365
0.000702294
0.000630112
0.0016627
0.000141041
0.000444326
0.000393007
0.0002054
0.000449981
0.00028182
0.000336972
0.000441614
0.000631994
0.00126392
0.00167469
0.000851897
0.000439275
0.000510435
0.000213651
0.000546322
0.000894238
0.000911854
0.000941408
0.000149111
0.000212199
0.000251162
0.000239033
0.00021187
0.000174827
0.000187701
0.000237705
0.000269612
0.000229993
0.000226506
0.000259054
0.000813563
0.000682343
0.000223037
0.000391119
0.000364815
0.00054409
0.000392138
0.000715491
0.00223076
0.000313658
0.00212598
0.000385155
0.000309585
0.00210507
0.000484193
0.000390089
0.000528839
0.00216216
0.000653234
0.000543006
0.000340943
0.000562229
0.00212641
0.000377334
0.000291065
0.000520842
0.000327092
0.000482895
0.00208322
0.000373016
0.000464531
0.000262856
0.000162536
0.000281665
0.000475993
0.00194008
0.000632097
0.000386718
0.000354741
0.00013478
0.000550225
0.000346227
0.000685424
0.00192122
0.000390957
0.000138628
0.000356231
0.000305106
0.000434824
0.00039724
0.000630241
0.000512663
0.00207028
0.000685146
0.000409925
0.000618708
0.00060009
0.00088391
0.000767297
0.000448124
0.000485316
0.000343961
0.00213977
0.000583012
0.000581101
0.000539443
0.000414099
0.000337169
0.000497911
0.000679547
0.00057057
0.000495171
0.000452835
0.00209208
0.000887496
0.00071556
0.000329089
0.000728394
0.000394683
0.000611906
0.000613011
0.000490149
0.000546183
0.000731952
0.000294491
0.00217635
0.000596229
0.000715119
0.000884996
0.00087703
0.000688462
0.000946698
0.00088647
0.000892374
0.000741486
0.000900217
0.000691855
0.000885418
0.00244198
0.00104041
0.000904917
0.000555604
0.000592798
0.000617203
0.000627119
0.000841721
0.000734847
0.000604369
0.000827218
0.00094259
0.00101887
0.000591961
0.00234827
0.000564714
0.0004731
0.000845825
0.000850468
0.000827778
0.000969364
0.00067632
0.000722833
0.000512727
0.00151791
0.000924874
0.00110156
0.00105748
0.000776467
0.00248172
0.000835771
0.000961997
0.000566012
0.000265798
0.000203917
0.000260068
0.000480653
0.000845435
0.000803224
0.0010343
0.000834435
0.000883605
0.00204223
0.00184444
0.00107035
0.00259433
0.000667015
0.000960414
0.00151759
0.000988841
0.000533608
0.000528218
0.000380462
0.000388355
0.000476253
0.000729295
0.000488733
0.000522826
0.00110383
0.000433052
0.00138093
0.00171805
0.00209936
0.000185404
0.000836081
0.001009
0.00118712
0.00087799
0.000825891
0.00112746
0.0014163
0.000899909
0.00129634
0.00113641
0.000998326
0.000670393
0.00105413
0.000778037
0.000539022
0.000574573
0.00274801
0.000434138
0.00026654
0.00108586
0.000708672
0.000615153
0.00132987
0.000726284
0.000966916
0.00105981
0.000802999
0.000789581
0.00124695
0.000741719
0.00060577
0.000754873
0.00129311
0.000725878
0.000643411
0.0015723
0.000196518
0.000187677
0.000529446
0.000397361
0.000276084
0.000350413
0.000160194
0.0003549
0.000463208
0.000491777
0.00119636
0.00177142
0.000929635
0.000235701
0.000326669
0.000181176
0.000387554
0.000980964
0.000846871
0.000769285
8.42701e-05
0.000214002
0.000213315
0.000194925
0.00026263
0.000122923
0.000231437
0.000170765
0.000230413
0.000256984
0.000280203
0.000345871
0.000427908
0.000911622
0.000666119
0.000235953
0.000419782
0.000395621
0.000554496
0.000412225
0.000836507
0.00201698
0.000614713
0.00212928
0.000420901
0.000535687
0.00218924
0.000251695
0.0003706
0.000300076
0.0020792
0.000235725
0.000186048
0.00028965
0.000618387
0.00218796
0.000301343
0.000509381
0.000332271
0.000199434
0.000262837
0.0021864
0.000207974
0.000400907
0.000239563
0.000244857
0.000461716
0.000222503
0.00209013
0.000707431
0.000331046
0.000408276
0.000235736
0.000322774
0.000153977
0.000441834
0.00185966
0.000538801
0.000366768
0.000580269
0.000446567
0.000105364
0.000427692
0.00047532
0.000539535
0.00181861
0.000335694
0.000513275
0.000333462
0.000278019
0.000297645
0.0003979
0.000395906
0.000557848
0.000506479
0.00192956
0.000556448
0.000631199
0.000444356
0.000616575
0.000417236
0.000818298
0.000515438
0.000350221
0.00037479
0.000434303
0.00206018
0.000533541
0.000617878
0.000572577
0.000309498
0.000645427
0.000663237
0.000480486
0.000621932
0.000391682
0.000522076
0.000374261
0.00219516
0.000725006
0.000621568
0.000715548
0.000577537
0.000891164
0.000783569
0.000628957
0.000790902
0.000831693
0.000921171
0.000530593
0.000501425
0.00220481
0.000657034
0.00106373
0.000752963
0.00113041
0.000596767
0.00060213
0.000512615
0.00087319
0.000552102
0.000454859
0.00049151
0.00083243
0.000748168
0.00235205
0.000705346
0.000917422
0.00043444
0.00054515
0.000366581
0.000838337
0.00103402
0.00085766
0.000682661
0.000798477
0.000910454
0.000835684
0.000910061
0.000771586
0.00222707
0.000739627
0.000478196
0.000625301
0.000895826
0.00101939
0.000910169
0.000627976
0.000358447
0.000530468
0.000847551
0.000879518
0.00150438
0.000818139
0.000659016
0.000979779
0.00248663
0.000521755
0.000503179
0.00102287
0.000630498
0.000153957
0.000233064
0.000290171
0.000395991
0.000499625
0.00171348
0.0013824
0.000666427
0.000987624
0.00150034
0.000633874
0.0011705
0.00246618
0.000874618
0.000767835
0.000711846
0.00123398
0.00151974
0.000649735
0.000565485
0.000588638
0.00103459
0.000724196
0.000547669
0.00116942
0.000652594
0.000921884
0.00157491
0.0012185
0.00062888
0.00216322
0.000695047
0.000655974
0.000448414
0.00117644
0.0012113
0.00116349
0.000984035
0.00135522
0.00149739
0.000857074
0.000760509
0.00136732
0.000493892
0.000952975
0.000991674
0.000536229
0.00106887
0.000550887
0.00210538
0.000718111
0.000470039
0.000333967
0.000668613
0.000463504
0.000710198
0.000661688
0.000932727
0.00104156
0.000928069
0.000824643
0.000894684
0.00104821
0.000840799
0.000595577
0.000929411
0.00112444
0.00112525
0.000586678
0.00162732
0.000335925
0.000145221
0.000275671
0.000449326
0.000352657
0.00027449
0.00033483
9.2844e-05
0.000368007
0.000448495
0.000488075
0.00106136
0.00159642
0.00148218
0.000530176
0.000143441
0.000533293
0.000466265
0.0009898
0.000846059
0.000693863
8.93147e-05
6.99609e-05
0.000186038
0.00023561
0.000156455
0.000137172
6.15657e-05
0.000157838
0.000158174
0.000226013
0.000215329
0.000283865
0.000460361
0.000694964
0.000860436
0.000648203
0.000312796
0.00046444
0.000379991
0.00055803
0.000436012
0.000828838
0.00210518
0.000362438
0.00208665
0.000602564
0.000356844
0.00210704
0.000160582
0.000403988
0.000478027
0.00198173
0.00050989
0.000260678
0.000329884
0.000504346
0.00215147
0.00039287
0.00046662
0.000281181
0.000645605
0.000274736
0.00216475
0.000442126
0.000551016
0.000284272
0.000229299
0.000344969
0.000410936
0.00219512
0.000524821
0.000297344
0.000330181
0.000135256
0.000283646
0.000255482
0.000400792
0.00200371
0.000567095
0.000295142
0.000480858
0.000294765
0.000168962
0.000298489
0.000150749
0.000390939
0.00176402
0.000499067
0.000318802
0.000286592
0.000368659
0.000552701
0.000407303
0.000430479
0.000534242
0.000571637
0.00188217
0.000527676
0.000325679
0.000306849
0.000485484
0.000344915
0.000518375
0.0005339
0.00057353
0.000451427
0.000553328
0.0020486
0.000383399
0.000370305
0.000612613
0.000571976
0.000502528
0.000508891
0.00068325
0.000584769
0.000401255
0.000456956
0.000500968
0.00202711
0.00066219
0.000296502
0.000972179
0.000565554
0.000475866
0.000432709
0.000391382
0.000517792
0.000509827
0.000485474
0.000613719
0.00041897
0.0021408
0.000811426
0.00065471
0.000959776
0.00095653
0.000519107
0.000760128
0.0010257
0.00107295
0.000718511
0.000656769
0.000774071
0.000403065
0.000652293
0.00186989
0.000914966
0.000823924
0.000538996
0.000474897
0.000349561
0.000838514
0.00050953
0.000474424
0.000462267
0.000583277
0.000535193
0.000549198
0.000733475
0.000626338
0.00234883
0.000770662
0.00066254
0.00111769
0.000526927
0.000633321
0.000649882
0.000715762
0.000827931
0.000597536
0.000598282
0.00118519
0.00151034
0.00145995
0.000592599
0.000854635
0.00201191
0.000828198
0.000463428
0.000432584
0.000546897
0.000583329
0.000910953
0.000557304
0.000719413
0.000848047
0.000809619
0.0010884
0.00121729
0.000759897
0.00225598
0.000419604
0.00124828
0.00241977
0.000831591
0.000778895
0.0010308
0.000901155
0.000667138
0.000313668
0.000484022
0.000362063
0.000428462
0.000772615
0.000418076
0.00136737
0.000604237
0.00149565
0.00135337
0.000891195
0.00126546
0.00249014
0.00196915
0.00215886
0.000742061
0.00129127
0.00084904
0.00097689
0.000352679
0.00027461
0.000636714
0.000276458
0.000341778
0.000437677
0.00092775
0.000694775
0.00247793
0.000652302
0.00128262
0.000752419
0.00204082
0.000829057
0.000545741
0.000954063
0.000720184
0.00111055
0.000957698
0.00161216
0.00113155
0.00133654
0.00074603
0.000886521
0.000990102
0.000916679
0.000646785
0.000680476
0.00106811
0.000627863
0.00057118
0.000877216
0.00209258
0.000538187
0.000570919
0.000546901
0.000602257
0.000905599
0.000499753
0.000780229
0.000926155
0.00118379
0.00101536
0.000770529
0.00100673
0.00102964
0.000948122
0.000550415
0.000536548
0.000889446
0.00100926
0.00102909
0.000561673
0.00159196
0.000430141
0.00038081
0.000269734
0.000367161
0.000238379
0.000317577
0.000399718
0.000355812
0.000105971
0.00037602
0.000459475
0.000469698
0.000904718
0.00132325
0.00145192
0.000689923
0.000267172
0.000799616
0.000524934
0.00091947
0.000813944
0.000711935
0.000696759
7.80044e-05
8.62023e-05
0.00010116
0.000102428
0.000250727
0.000266777
6.63207e-05
0.000200292
0.00014941
0.000152187
0.000219508
0.000145747
0.000329941
0.000584589
0.000769973
0.000789475
0.000571015
0.000476258
0.000523581
0.000456826
0.000543277
0.000462249
0.000740847
0.00203673
0.000383871
0.00206064
0.000673666
0.000329133
0.00197492
0.00111851
0.000568196
0.000449883
0.00218151
0.000345812
0.000331322
0.000375105
0.000364023
0.00206936
0.000465986
0.000418864
0.000186725
0.0002739
0.000692623
0.00201009
0.000267947
0.000266855
0.000332697
0.000404417
0.000354116
0.000289823
0.00214822
0.00028484
0.000436864
0.000573216
0.000265906
0.000140428
0.000313047
0.000386887
0.00207192
0.000472187
0.000417218
0.000325342
0.000263738
0.000158708
0.000173177
0.000261876
0.00031778
0.00199603
0.000336955
0.000690082
0.000359574
0.000493784
0.000336273
0.000225792
0.000303811
0.00025268
0.000490445
0.00176471
0.000258855
0.000421564
0.000464727
0.000467531
0.000361291
0.000485945
0.000317516
0.000401044
0.000483012
0.000485199
0.00190063
0.000422692
0.000499368
0.000514204
0.000347013
0.000502044
0.000512199
0.000489776
0.00057826
0.000392353
0.00042513
0.000593878
0.00192913
0.000454444
0.000412843
0.00046627
0.000634064
0.000469741
0.000371694
0.000223202
0.000435585
0.000569403
0.000764505
0.000609361
0.000807605
0.00205266
0.000574061
0.000552207
0.000816865
0.000785647
0.000570746
0.000706905
0.000586123
0.000545471
0.000572045
0.000391969
0.000474905
0.00062162
0.000499656
0.00222872
0.00141429
0.000478386
0.00100064
0.000445979
0.000556407
0.00109748
0.000546105
0.000576846
0.000597684
0.000601042
0.000634109
0.0004361
0.000217172
0.000468641
0.00193554
0.00101153
0.000672106
0.00142944
0.000607411
0.000749674
0.000723928
0.000315729
0.00051673
0.00081943
0.000549488
0.000499687
0.000473672
0.000664016
0.000768847
0.000508236
0.00225099
0.000744137
0.000898214
0.000606922
0.000467271
0.000605404
0.000577988
0.000686921
0.000666093
0.000474516
0.000290652
0.00103803
0.000876168
0.000564712
0.000373746
0.000587223
0.000777454
0.00200732
0.000930442
0.000510626
0.000721709
0.000784293
0.000623206
0.000586182
0.00050373
0.000605982
0.000444962
0.00077358
0.00111182
0.000734539
0.000624834
0.000954362
0.000355337
0.000406683
0.000809033
0.00244005
0.00100421
0.00079137
0.00050517
0.000705041
0.000661176
0.000582997
0.000324644
0.000357584
0.000393029
0.000605029
0.0004468
0.000977213
0.000404023
0.000868478
0.000823606
0.00187324
0.000375817
0.00167529
0.00231042
0.00100878
0.000354871
0.000835549
0.00110547
0.00136757
0.00169455
0.000966288
0.000641324
0.000546556
0.000238004
0.000271981
0.000568901
0.000657414
0.000713301
0.000721254
0.000598253
0.00118032
0.00182168
0.000523506
0.00206821
0.000241317
0.000527435
0.000664568
0.000619356
0.000881434
0.000760363
0.00100263
0.00181232
0.00123875
0.00127932