/*--------------------------------*- C++ -*----------------------------------*\
  =========                 |
  \\      /  F ield         | OpenFOAM: The Open Source CFD Toolbox
   \\    /   O peration     | Website:  https://openfoam.org
    \\  /    A nd           | Version:  7
     \\/     M anipulation  |
\*---------------------------------------------------------------------------*/
FoamFile
{
    version     2.0;
    format      ascii;
    class       surfaceScalarField;
    location    "4.5";
    object      phi;
}
// * * * * * * * * * * * * * * * * * * * * * * * * * * * * * * * * * * * * * //

dimensions      [0 3 -1 0 0 0 0];

internalField   nonuniform List<scalar> 
54125
(
0.000109126
-7.43971e-05
-0.00246038
0.000614059
-9.52072e-05
-0.00254994
5.30011e-05
-7.08677e-05
-0.0024343
9.57211e-05
-7.56795e-05
-0.00248042
0.00107039
-0.000173522
-0.00526366
0.000394548
9.8619e-05
-0.00179109
0.000529585
-3.97429e-05
-0.00294406
2.62199e-05
-1.74082e-05
0.000345906
5.90014e-05
-7.14974e-05
-0.00249748
8.29302e-05
-7.73695e-05
-0.00248598
0.000541799
0.000440939
-0.00837646
0.000888766
-0.000148727
-0.00436097
0.000964794
-0.000252027
-0.00544684
0.000224571
-6.8103e-05
-0.000698226
0.000438061
0.000105375
-0.00231527
0.000446876
-2.99244e-05
-0.00327808
2.25877e-05
-2.19311e-05
0.00129803
3.17623e-05
-1.62172e-05
0.000258864
5.67194e-05
-7.21506e-05
-0.00255942
8.02813e-05
-7.67307e-05
-0.00248953
-0.000386668
0.000776606
-0.00646402
0.000626386
0.000617766
-0.0063241
0.00054809
0.000444732
-0.00840449
0.00044622
-4.32931e-05
-0.00180986
0.000790548
-0.000285512
-0.00467998
0.00080503
-0.000214479
-0.00559052
9.14189e-05
-0.000134178
-0.000533994
0.000248926
-7.98038e-05
-0.000730211
0.000426901
1.18374e-05
-0.00272721
0.000383145
-2.8054e-05
-0.00355289
5.61805e-05
-8.84898e-05
0.000662639
2.92266e-05
-2.15287e-05
0.00127411
3.07295e-05
-1.40143e-05
0.000169998
4.15221e-05
-7.23026e-05
-0.00260537
7.36078e-05
-7.25792e-05
-0.00249056
-0.00103636
0.000526948
-0.00520046
-0.000448143
0.00126398
-0.0047077
-0.000310416
0.000749104
-0.00635461
0.000376349
0.000750197
-0.00593875
0.000293858
0.000563936
-0.00594662
0.000291437
0.00042422
-0.00831512
5.39354e-05
0.000121058
-0.00224472
0.000477734
-6.53701e-05
-0.00225881
0.000888146
-0.000294299
-0.0050614
0.000540618
-4.12341e-05
-0.00570675
8.81684e-05
-0.00023359
-0.000201676
0.000120532
-0.000137228
-0.000567875
0.000249091
-0.000111076
-0.000825658
0.000429248
-8.2506e-05
-0.00306049
0.000292809
-6.50063e-05
-0.00370709
1.51264e-05
-0.000126028
0.000695115
5.72326e-05
-8.63824e-05
0.00067026
2.51562e-05
-1.92908e-05
0.00125423
2.70952e-05
-1.37787e-05
8.43792e-05
2.66637e-05
-7.18036e-05
-0.00263281
5.36218e-05
-7.0078e-05
-0.00247411
-0.00127925
9.7647e-05
-0.00537002
-0.00072803
0.000868228
-0.00689236
-0.00107151
0.000535632
-0.00497499
-0.000183762
0.00146091
-0.00705741
-0.000524571
0.00135585
-0.00449602
-0.000583962
0.00067987
-0.00615909
2.09709e-05
0.000576743
-0.00443763
0.000483277
0.000562807
-0.00594316
0.000903712
0.000270052
-0.00580802
-0.000128906
0.000485112
-0.00813071
-8.71654e-06
0.000191448
-0.00273826
0.000180295
8.22932e-05
-0.00245214
0.000606913
-6.18748e-05
-0.00284906
0.000872409
-0.000196888
-0.00534891
0.000282192
0.000218389
-0.00591453
1.44361e-05
-0.00023994
0.000394453
9.87583e-05
-0.000238506
-0.000141924
0.000131368
-0.000150493
-0.00063467
0.000267051
-0.000154258
-0.000993862
0.00047889
-0.000186374
-0.00339134
0.000197508
2.7451e-05
-0.00387843
-2.48208e-05
-0.000117367
-0.000243441
2.45415e-05
-0.000121293
0.000705484
5.86072e-05
-8.43092e-05
0.000676671
2.55084e-05
-1.90565e-05
0.001234
1.84002e-05
-1.43875e-05
8.56288e-06
1.43951e-05
-7.13419e-05
-0.00264594
3.68076e-05
-6.92945e-05
-0.00244162
-0.00150395
5.28947e-05
-0.00500416
-0.000528623
0.000217561
-0.00735749
-0.00139353
0.000135322
-0.00518332
-0.000150583
0.000901879
-0.00781053
-0.000356066
0.000876307
-0.00740154
-0.00115666
0.000364767
-0.00476706
9.02979e-05
0.00131652
-0.00730834
-5.33776e-05
0.00146231
-0.00662721
9.2848e-05
0.00144278
-0.00444807
-0.000871582
0.000570993
-0.0059874
1.85606e-05
0.000187773
-0.00366521
9.64879e-05
0.00035275
-0.00414377
0.000945571
0.000222728
-0.00623449
0.000939104
0.000159345
-0.00554894
-0.000419275
0.00045428
-0.00788352
0.000174236
4.96871e-05
-0.00219572
1.16586e-06
0.000176414
-0.00273479
0.000213819
4.91133e-05
-0.00264558
0.0006386
-2.48535e-05
-0.00339264
0.000993021
-1.55157e-05
-0.00562913
8.94206e-05
0.000267066
-0.0060735
-1.25346e-05
-0.000240587
0.000227288
3.07479e-05
-0.000254838
0.000404579
0.000116822
-0.000236886
-0.000113746
0.000127597
-0.000168734
-0.000722283
0.000305863
-0.000201226
-0.00126647
0.000454073
-0.000188379
-0.00361519
0.00012168
8.29882e-05
-0.00404629
7.36428e-05
-0.000128334
-0.000910665
-2.44909e-05
-0.000111427
-0.000228817
3.18144e-05
-0.000117071
0.000706431
6.12908e-05
-8.25214e-05
0.000678845
3.28514e-05
-2.01057e-05
0.00120687
4.11118e-06
-1.21355e-05
-5.47546e-05
6.49734e-06
-7.05717e-05
-0.00265116
2.77245e-05
-6.65749e-05
-0.00240277
-0.00162012
-2.1488e-05
-0.00397569
-0.000705885
0.000171283
-0.00616009
-0.00150284
-6.2561e-05
-0.00483229
-0.00031557
0.000502491
-0.00705933
-0.00049661
0.000304021
-0.00738565
-0.00138781
0.000188895
-0.00514106
0.000116337
0.00097352
-0.00801997
-0.000122907
0.000851694
-0.00771639
-0.000205727
0.000727419
-0.00746562
-0.0012403
0.000379253
-0.0047776
0.000257028
0.00101078
-0.00694745
3.26108e-05
0.00138136
-0.0071635
0.000466661
0.00156029
-0.00626581
0.000336174
0.0013553
-0.00462944
-0.00102928
0.000541244
-0.00591865
0.000313115
8.59189e-05
-0.00366319
6.05147e-06
8.98048e-05
-0.00340715
0.00030681
0.000140556
-0.00415459
0.000904103
1.53803e-05
-0.00635603
0.00135528
9.40752e-05
-0.00555099
-0.000571142
0.000376077
-0.00759904
0.00028911
-0.000248241
-0.00258164
0.000106807
6.6863e-05
-0.00216223
5.62247e-05
0.000134362
-0.00275944
0.000190791
4.64063e-05
-0.00278003
0.00071009
-9.8594e-06
-0.00380253
0.000983653
-6.94687e-05
-0.00582218
-4.08955e-05
0.000258793
-0.00616972
0.000176832
-0.000295273
2.31716e-05
-2.21378e-05
-0.000237149
0.000207245
5.9538e-05
-0.000256523
0.000396493
0.00013871
-0.000228597
-0.000131302
0.000121459
-0.000198472
-0.000813645
0.000352429
-0.000231969
-0.0015712
0.000405865
-0.00014756
-0.00378401
7.78744e-05
9.02664e-05
-0.0041867
8.4297e-05
-0.00012461
-0.000692999
5.95004e-05
-0.000121806
-0.000959785
-1.9817e-05
-0.000107201
-0.000218869
3.89609e-05
-0.000113308
0.000698257
6.14997e-05
-8.08359e-05
0.000678076
3.544e-05
-1.72427e-05
0.00117654
-1.01838e-05
-1.22826e-05
-0.00010286
-3.96136e-06
-7.02454e-05
-0.00264353
2.46756e-05
-6.37149e-05
-0.00236373
-0.00152861
-6.67939e-05
-0.00352162
-0.000961091
8.00336e-05
-0.00501876
-0.00159342
3.56785e-05
-0.0039208
-0.000486569
0.00025171
-0.00618671
-0.000919071
0.000213781
-0.00601397
-0.00151409
-0.000110762
-0.00459525
7.77377e-06
0.000734058
-0.00688367
-0.000228326
0.000538622
-0.00718851
-0.000493836
0.000367862
-0.00727651
-0.00144536
0.000160049
-0.00509605
0.000287318
0.000867922
-0.00757485
3.79942e-05
0.000951204
-0.00812487
7.72974e-05
0.000873586
-0.00747319
4.05946e-06
0.000760644
-0.00751489
-0.00130812
0.0004276
-0.00492635
0.000488147
0.00067467
-0.006252
0.000233906
0.00101635
-0.0068103
0.000250308
0.00136581
-0.00691253
0.000501918
0.00149593
-0.00600426
0.000917971
0.00137449
-0.00502538
-0.000850324
0.000544708
-0.00618417
0.000482603
0.000173898
-0.004227
0.000107782
6.70655e-05
-0.00364142
7.99521e-05
-5.51593e-05
-0.00323516
0.000274788
3.23087e-05
-0.00425551
0.00125122
-0.000127024
-0.00667607
0.00138723
0.000170059
-0.00574855
-0.000718616
0.000330131
-0.00725145
0.000327286
-0.000522026
-0.00226025
0.000262231
-0.00022546
-0.00257368
0.000139198
4.29082e-05
-0.00215044
8.81035e-05
6.47142e-05
-0.00272714
0.000122365
4.55354e-05
-0.00283634
0.000793587
-0.000123241
-0.00418991
0.000921385
-0.000151116
-0.00592779
-0.000132394
0.000251882
-0.00621133
0.00014151
-0.000326719
0.000501371
0.000144067
-0.000281036
-1.75082e-05
-1.06575e-05
-0.000224352
0.000165914
0.000106829
-0.000241776
0.000341804
0.000152634
-0.000231543
-0.000189365
0.000129851
-0.000238872
-0.000901153
0.000360559
-0.000237654
-0.00185185
0.000367823
-0.000130402
-0.00393513
4.64191e-05
0.000112084
-0.00432053
1.7057e-05
-0.000111305
-0.00120873
8.45271e-05
-0.000118436
-0.000780896
3.82746e-05
-0.000117064
-0.000988197
-2.21933e-05
-0.0001042
-0.000205784
4.46248e-05
-0.000110257
0.000683053
6.06129e-05
-7.88772e-05
0.000679097
4.06767e-05
-1.69991e-05
0.00114058
-2.33468e-05
-1.22614e-05
-0.000137497
-1.92442e-05
-7.07585e-05
-0.00261724
1.39626e-05
-6.37024e-05
-0.00231399
-0.00151469
1.72897e-05
-0.00349504
-0.000999333
1.70624e-05
-0.00438406
-0.00156037
-5.45337e-06
-0.00354921
-0.000631736
0.000209273
-0.00548919
-0.00106075
0.000152317
-0.00499373
-0.00165017
1.3471e-05
-0.00379819
-8.52516e-07
0.000396025
-0.00647116
-0.000423422
0.000375415
-0.00615325
-0.000962987
0.000109252
-0.00576484
-0.00151308
-7.11035e-05
-0.00445643
0.000141527
0.000781904
-0.00677807
-8.13146e-05
0.000705392
-0.00693113
-0.000162114
0.000591164
-0.0071724
-0.000366482
0.000380584
-0.0071265
-0.00148926
0.000153072
-0.00506798
0.00043847
0.000707612
-0.0073762
0.000496461
0.000887583
-0.00777378
-3.41886e-09
0.000948407
-0.00794938
0.000155092
0.000934945
-0.00730067
0.000144061
0.000852329
-0.00716571
-0.00111469
0.000388827
-0.00505081
0.000627803
0.000424835
-0.00610203
0.000320527
0.000704267
-0.00615266
0.000222921
0.00102258
-0.00661003
0.00026318
0.00132835
-0.00673334
0.00124454
0.00131903
-0.00594213
0.00106726
0.00125963
-0.00542033
-0.00121624
0.000479232
-0.00616578
0.00059454
0.000124345
-0.00470792
0.000439027
0.000116828
-0.00445356
-2.817e-05
6.51063e-05
-0.00359432
9.57317e-05
-0.00013575
-0.00307473
0.000426417
-3.9026e-05
-0.00464756
0.0013369
-7.98229e-05
-0.0069695
0.0013829
0.000443214
-0.00632314
-0.000769002
0.000255493
-0.00687033
0.000214202
-0.000543805
-0.00247969
0.000328656
-0.000530615
-0.00213968
0.000245244
-0.000227
-0.00255968
0.000252098
-2.02827e-05
-0.00221071
9.94566e-05
3.09397e-05
-0.00265937
0.000147609
2.26315e-05
-0.00299997
0.00086711
-0.000235005
-0.00461258
0.0008029
-6.77241e-05
-0.00604326
-0.000270488
0.000277332
-0.00617176
-0.000128794
-0.000286077
0.000493936
0.000181436
-0.000318993
0.000442419
0.000113791
-0.000260475
-5.69013e-05
-1.95619e-05
-0.000203784
0.000125291
0.000118674
-0.000226244
0.000262455
0.000164792
-0.000243863
-0.000288553
0.00013233
-0.000252381
-0.00097808
0.00034209
-0.000221328
-0.00212636
0.000316308
-0.000108702
-0.00404989
1.47926e-05
0.000127738
-0.0044491
6.41295e-05
-0.000127899
-0.00144354
1.51081e-05
-0.000105896
-0.00123637
8.43744e-05
-0.000113146
-0.000869188
2.09368e-05
-0.0001135
-0.000999834
-2.43769e-05
-0.000102105
-0.00018956
4.4592e-05
-0.000108082
0.000667666
5.86361e-05
-7.77131e-05
0.000681175
5.02839e-05
-1.67613e-05
0.00109479
-3.41467e-05
-1.16597e-05
-0.000162449
-3.04555e-05
-7.22981e-05
-0.00257819
2.78481e-06
-6.35237e-05
-0.00225325
-0.00142333
-0.000175143
-0.00324889
-0.00108728
1.46316e-05
-0.00409444
-0.00150494
-4.75906e-05
-0.00350288
-0.00065048
8.68844e-05
-0.00468589
-0.000973256
-5.97023e-06
-0.00447103
-0.00149535
-9.65625e-05
-0.00360747
-0.000197215
0.000266698
-0.00551839
-0.000589923
0.000230675
-0.00540105
-0.00104946
0.000201738
-0.00509552
-0.00145781
-9.6558e-05
-0.00375689
1.47826e-05
0.000544366
-0.00640118
-8.09456e-05
0.000402442
-0.00649856
-0.000467617
0.000322221
-0.00606072
-0.000225066
7.33768e-05
-0.00605073
-0.00147041
-4.98358e-05
-0.00442545
0.000375754
0.000781182
-0.00690773
0.000449993
0.000737745
-0.00676396
-4.63287e-05
0.000707334
-0.00700097
-0.00011631
0.000622768
-0.00714318
-0.000313473
0.000484975
-0.00700087
-0.00157161
0.00015761
-0.00476867
0.000611639
0.000667574
-0.00735967
0.00041884
0.000729224
-0.00731615
0.000193919
0.000885467
-0.00768184
5.35274e-05
0.000993675
-0.00779845
0.000471408
0.00110726
-0.00678247
0.000363574
0.000889799
-0.006963
-0.00149567
0.000306208
-0.00507759
0.000756356
0.000539531
-0.00580692
0.000563333
0.00062592
-0.00614798
0.00020531
0.00078737
-0.00615093
0.00013761
0.00102775
-0.00635131
0.000731104
0.0011379
-0.0068569
0.00162058
0.00116062
-0.00612679
0.00117252
0.00120234
-0.00593307
-0.0010349
0.000363657
-0.00626354
0.000447892
-4.72922e-05
-0.00495413
0.000512222
0.000116008
-0.00489066
0.000392266
0.000156607
-0.00469208
0.000228135
2.03946e-05
-0.0037265
0.00024857
-0.000189756
-0.00307312
0.000456717
-0.000101272
-0.00493522
0.0013349
0.000189343
-0.00718341
0.00126196
0.000632278
-0.00715898
-0.000958158
0.000197162
-0.00637982
-0.000100478
-0.000396099
-0.00135942
0.000260864
-0.000609957
-0.00247978
0.000349849
-0.000547516
-0.00205522
0.000242218
-0.000225603
-0.00261614
0.000328904
-6.52164e-05
-0.00232478
0.000114572
-4.28857e-06
-0.00258223
0.000355898
-3.99053e-05
-0.00341863
0.000873459
-0.000179316
-0.00503235
0.000709903
8.22208e-05
-0.00624175
-0.000228261
0.000245215
-0.00617392
7.70307e-05
-0.000236586
-0.000793696
-8.92516e-05
-0.000264193
0.000543496
0.000215627
-0.000305489
0.000356181
7.59917e-05
-0.000236247
-7.94929e-05
-2.23952e-05
-0.000181136
7.82013e-05
0.000102806
-0.000214551
0.000174929
0.000165257
-0.000250014
-0.00039754
0.000114336
-0.000240657
-0.0010228
0.000326873
-0.000211315
-0.00238477
0.000256559
-9.84089e-05
-0.00411076
-1.31094e-05
0.000149639
-0.00458284
5.64699e-05
-0.000135362
-0.000911729
4.86877e-05
-0.000121317
-0.00147681
1.29925e-05
-0.000100936
-0.00126158
8.41152e-05
-0.000108677
-0.000958126
2.52006e-06
-0.00011024
-0.000994219
-2.21684e-05
-0.000100857
-0.000174616
5.27747e-05
-0.000106673
0.000643851
6.07913e-05
-7.66299e-05
0.000680253
6.15899e-05
-1.55954e-05
0.00103714
-4.29099e-05
-1.0833e-05
-0.000181004
-4.50819e-05
-7.18531e-05
-0.00252478
3.73745e-06
-5.94773e-05
-0.00219751
-0.00140618
-5.108e-05
-0.00313948
-0.0012386
-7.27669e-05
-0.00373531
-0.00132054
-0.000172188
-0.00326111
-0.000610206
3.45783e-05
-0.00425302
-0.00107085
8.31643e-05
-0.0041276
-0.0014309
-4.51732e-05
-0.00352215
-0.00034722
0.000181649
-0.00493341
-0.00064903
2.90882e-05
-0.00466184
-0.00086654
-8.70913e-05
-0.00466343
-0.00134172
-0.000149513
-0.00357405
-0.000153595
0.000347817
-0.00566842
-0.00023137
0.000268563
-0.00540585
-0.000628798
0.000286571
-0.0053247
-0.000395356
5.81012e-05
-0.00507989
-0.00146195
9.9606e-05
-0.00386496
9.92181e-05
0.000796098
-0.00622753
0.000111717
0.000604089
-0.00626455
-0.000115854
0.000388873
-0.00649568
-0.000269889
0.000300158
-0.00613392
-0.000649883
7.81398e-05
-0.0058423
-0.00144321
-5.70023e-05
-0.00449685
0.000562425
0.00084394
-0.00713
0.000496328
0.000753082
-0.00700056
0.000132931
0.000718359
-0.006714
9.08157e-06
0.000719719
-0.00705348
6.28804e-05
0.000688124
-0.0069378
-0.000122398
0.00047846
-0.00683575
-0.00143658
3.19014e-05
-0.00485965
0.000652854
0.000691502
-0.00728199
0.000577892
0.000618638
-0.00726364
0.000542949
0.000727431
-0.00749576
0.00019233
0.00110027
-0.00784315
0.000379828
0.00116338
-0.00750329
0.000891863
0.00115597
-0.00631993
0.000380937
0.000912892
-0.00677809
-0.00123905
0.000323244
-0.00519668
0.000654257
0.000565906
-0.00591307
0.000762785
0.000687102
-0.00611866
0.000655608
0.000630675
-0.00625463
0.000352528
0.000760534
-0.00600811
0.000424974
0.000956628
-0.00634644
0.000751326
0.00099806
-0.00698895
0.00163305
0.00111425
-0.00633686
0.001196
0.00105244
-0.00655589
-0.00104721
0.000352429
-0.00652692
0.000513534
-0.000217707
-0.00553672
0.000448752
-1.09189e-05
-0.00501509
0.00050557
0.000267314
-0.00515709
0.000286274
0.000135899
-0.00485164
0.000287383
4.05155e-05
-0.00391525
0.000231853
-7.03296e-05
-0.00322134
0.000845767
5.82053e-06
-0.00524157
0.00133479
0.000441669
-0.00745413
0.0010767
0.000511975
-0.0078406
-0.000870505
0.000252891
-0.00599047
0.000101723
-0.000366519
-0.000962284
-4.89397e-05
-0.00042434
-0.00158535
0.000275918
-0.000698766
-0.00238882
0.000290111
-0.000528479
-0.00196647
0.00020743
-0.000248392
-0.00266279
0.000271055
-9.43109e-05
-0.00240301
0.000216015
-6.07593e-05
-0.00261213
0.000439316
-5.50125e-05
-0.00386792
0.000806625
-6.80315e-05
-0.00536185
0.000508895
0.000228004
-0.00647687
-0.000178673
0.000235759
-0.00624412
0.000163317
-0.000249705
-0.00231426
1.08711e-05
-0.00019354
-0.000826532
-2.3583e-05
-0.000244018
0.000518601
0.000230453
-0.000285163
0.000258759
4.15019e-05
-0.000211004
-8.86075e-05
-2.16538e-05
-0.000160755
2.3891e-05
0.00012093
-0.000217984
7.47435e-05
0.000156812
-0.000255604
-0.000478615
0.000173617
-0.000227445
-0.0011187
0.000322676
-0.00022848
-0.00262028
0.000195338
-5.76383e-05
-0.0041439
-4.88582e-05
0.000154679
-0.00468493
5.4422e-05
-0.000130048
-0.00100655
4.3285e-05
-0.00012966
-0.00094667
3.20205e-05
-0.000115037
-0.00149473
9.84067e-06
-9.64378e-05
-0.00128366
7.80704e-05
-0.000104853
-0.00104158
-1.64252e-05
-0.000107204
-0.000971446
-2.12273e-05
-0.000100598
-0.000159464
6.18787e-05
-0.000105825
0.000611168
6.43376e-05
-7.51329e-05
0.000675452
5.62353e-05
-1.44462e-05
0.000984517
-4.55845e-05
-9.91979e-06
-0.000197353
-4.99905e-05
-7.00595e-05
-0.0024642
-1.0527e-05
-5.73905e-05
-0.00212959
-0.00160424
0.000171858
-0.00252207
-0.00136685
4.9182e-05
-0.0033742
-0.00126793
-3.08019e-05
-0.00316128
-0.000935088
6.08042e-05
-0.00390186
-0.00113549
-7.61525e-05
-0.0037667
-0.00117094
-0.000219836
-0.00330123
-0.000491361
0.000139678
-0.00442226
-0.000670303
0.000114333
-0.00426292
-0.000983161
0.000109154
-0.00416531
-0.00131538
-5.61757e-05
-0.00349232
-0.000275274
0.000319994
-0.00506814
-0.000419088
0.00015479
-0.00487139
-0.000652722
1.78025e-05
-0.00474281
-0.000745965
-6.82849e-05
-0.00439405
-0.00129119
-0.000128616
-0.00361619
-0.000134824
0.00059605
-0.00571348
-6.07939e-05
0.000358658
-0.005586
-0.000128645
0.000329027
-0.00543552
-0.00042017
0.000285996
-0.00540232
-0.000852119
0.000188108
-0.00496615
-0.00142923
7.939e-05
-0.00395833
0.000362251
0.00097089
-0.0061394
0.000184358
0.000799274
-0.00611074
9.88193e-05
0.000572643
-0.00641421
-0.000127762
0.000388249
-0.00644693
-9.35528e-05
0.000318839
-0.00621819
-0.000479499
6.38096e-05
-0.00560601
-0.00132347
-2.66339e-05
-0.00458333
0.000702264
0.000938923
-0.00711597
0.000509991
0.000807501
-0.00711651
0.00046951
0.000723099
-0.00693186
0.00027846
0.000765536
-0.00684594
0.00024788
0.000778919
-0.00701232
0.000294284
0.000713742
-0.0065755
-0.0002749
0.000335068
-0.00648308
-0.00128683
-4.84865e-05
-0.00476339
0.000643097
0.000893579
-0.0072871
0.000818485
0.000638682
-0.00735773
0.000862433
0.000722104
-0.00746514
0.000452264
0.00100769
-0.00750291
0.000207334
0.00123568
-0.00769781
0.000496319
0.00121086
-0.00730317
0.00100948
0.00118825
-0.00597172
0.000329076
0.000876392
-0.00646432
-0.00113591
0.000304723
-0.0054127
0.000539003
0.00067839
-0.00591905
0.000580096
0.000690536
-0.00604785
0.000747391
0.0005905
-0.00632031
0.000397621
0.000702238
-0.00630768
0.00032074
0.000900824
-0.00598566
0.000555315
0.000953112
-0.00662495
0.000948683
0.000796855
-0.00677448
0.00169424
0.000913601
-0.00655747
0.00123549
0.00108723
-0.00744948
-0.000957004
0.000188249
-0.00662867
0.000385037
-0.00020566
-0.00506578
0.000382495
-8.12947e-05
-0.00589778
0.000508183
0.000215721
-0.00519576
0.000366455
0.000250621
-0.00534816
0.000286773
0.000149506
-0.00503998
0.000331525
0.000161686
-0.00420774
0.000508722
6.757e-05
-0.0035758
0.0012191
9.71058e-05
-0.00567679
0.0011626
0.000247012
-0.00754515
0.000688064
0.00048064
-0.00824752
-0.000738169
0.000363174
-0.00579415
0.000269472
-0.000379581
-0.0011837
9.82328e-05
-0.000316946
-0.00115704
5.04495e-05
-0.000503698
-0.00185445
0.000293314
-0.000714957
-0.0022652
0.000259496
-0.000517176
-0.00191568
0.00017751
-0.000273431
-0.00268283
0.000236523
-0.000143815
-0.00243554
0.00028525
-7.11796e-05
-0.0027244
0.000534088
-7.17614e-05
-0.00422466
0.000736423
8.14552e-05
-0.00562905
0.000548817
0.00023669
-0.00683128
-0.000165155
0.000273267
-0.00640109
0.000122451
-0.000313
-0.00268827
9.28088e-05
-0.000205271
-0.00235205
-1.51801e-05
-0.000164063
-0.000859286
4.32087e-05
-0.000216813
0.000416883
0.000253963
-0.000260832
0.000132694
1.17321e-05
-0.000187225
-9.02949e-05
-3.01377e-05
-0.000147979
-3.72039e-05
0.00013864
-0.000229684
-2.7937e-05
0.00015989
-0.000269286
-0.000532326
0.000252891
-0.00024759
-0.00129624
0.000297274
-0.000210158
-0.00281062
9.49591e-05
-2.84386e-05
-0.00410574
-0.000146906
0.000140173
-0.00468872
5.47884e-05
-0.000126643
-0.00119206
5.19935e-05
-0.000126588
-0.00106161
2.77623e-05
-0.00012397
-0.0009655
1.86499e-05
-0.000109208
-0.00150061
5.06523e-06
-9.24356e-05
-0.00130114
6.87028e-05
-0.000101609
-0.00111588
-3.35343e-05
-0.00010484
-0.00093367
-1.50663e-05
-0.000101409
-0.000148814
7.02627e-05
-0.000105168
0.00057094
6.57119e-05
-7.42392e-05
0.000669534
5.25953e-05
-1.36315e-05
0.000935633
-4.64948e-05
-8.65767e-06
-0.00021226
-6.02788e-05
-6.86652e-05
-0.00239265
-1.38153e-05
-5.42734e-05
-0.00206151
-0.00167508
1.477e-05
-0.00209888
-0.00138237
0.000182777
-0.00280733
-0.00157639
0.000341091
-0.0025547
-0.00122996
0.000260479
-0.00360996
-0.00132184
2.00776e-05
-0.00323872
-0.00104835
-1.48057e-05
-0.00326907
-0.000786656
0.000289856
-0.00401414
-0.000809411
5.25239e-05
-0.00389143
-0.00117458
-4.62766e-05
-0.00374884
-0.00104644
-0.000237901
-0.00333227
-0.000390467
0.000264796
-0.00440191
-0.000439246
0.000116582
-0.00440436
-0.000582356
0.000106148
-0.00433028
-0.000934044
9.35505e-05
-0.00412695
-0.00120002
-2.33294e-05
-0.00356016
-0.000352899
0.000517046
-0.00496408
-0.000319912
0.00035248
-0.00500671
-0.000305218
0.000176562
-0.00485358
-0.000622949
8.32111e-05
-0.00469153
-0.000725649
-0.000120244
-0.00452889
-0.00132297
-6.23731e-05
-0.00366008
-1.58164e-05
0.000973293
-0.00554068
-0.000222055
0.000616822
-0.00556523
-6.45363e-05
0.000463504
-0.00555712
-0.00012434
0.000319944
-0.00547289
-0.000322835
0.000308783
-0.00529371
-0.000801357
0.000209679
-0.00477459
-0.00126858
5.34971e-05
-0.00406672
0.00070357
0.00113769
-0.00611226
0.000299821
0.00106167
-0.00619162
0.000547986
0.000718598
-0.00633517
4.10321e-05
0.000559747
-0.00634828
4.47899e-06
0.000453199
-0.00633789
-4.16735e-05
0.000327439
-0.00614586
-0.000579032
5.62983e-05
-0.00538481
-0.00103798
-4.83259e-05
-0.00478385
0.000484403
0.00111283
-0.00669683
0.000541487
0.000883788
-0.00691526
0.000614388
0.000808252
-0.00695362
0.000401347
0.000780749
-0.00689615
0.000257302
0.000847713
-0.00696471
0.000369112
0.000859036
-0.00703041
0.0003572
0.000664828
-0.00625298
-0.000282163
0.000257232
-0.00617755
-0.000887636
-8.69508e-05
-0.00492472
0.000447852
0.00104091
-0.00708111
0.000620273
0.000844121
-0.00753271
0.000813491
0.000748307
-0.00745003
0.000700616
0.000856497
-0.00761695
0.000620414
0.00113327
-0.00770018
0.000467369
0.00134303
-0.00774204
0.000626298
0.00124049
-0.00703303
0.00121276
0.00112891
-0.00574275
0.000546824
0.000873936
-0.00634487
-0.00107507
0.000214052
-0.00550869
0.000439305
0.000765497
-0.00592851
0.000490092
0.000761058
-0.00609717
0.000726646
0.000654015
-0.00632983
0.000575691
0.000697669
-0.00652497
0.000422004
0.000839288
-0.00638138
0.00037675
0.00100192
-0.00607969
0.000689116
0.000821695
-0.00683018
0.00143139
0.000681863
-0.00675503
0.00150892
0.00104035
-0.0068569
0.000870262
0.000802396
-0.00824582
-0.000854347
9.51505e-05
-0.00660764
0.000376216
-0.000316595
-0.00469667
0.000488244
-6.26058e-05
-0.00547448
0.000422368
-2.98199e-05
-0.00602416
0.000530324
0.00026485
-0.005447
0.000360409
0.000207248
-0.00550681
0.000229997
0.000138591
-0.00506937
0.000288201
0.000197014
-0.00438886
0.000626469
0.00011569
-0.0039356
0.0011728
7.50224e-05
-0.00614351
0.000986729
0.00015875
-0.00747357
0.000619241
0.000542614
-0.00849738
-0.000617816
0.000406695
-0.00574818
0.000256768
-0.000296334
-0.00209745
0.000184924
-0.000321988
-0.00127077
9.45536e-05
-0.000314024
-0.00145645
0.000182205
-0.000593942
-0.00211447
0.000314782
-0.00069342
-0.00214978
0.000291662
-0.000476767
-0.00199227
0.000191208
-0.000320357
-0.00272763
0.00022932
-0.000165947
-0.00243146
0.000263508
-9.04082e-05
-0.00280937
0.000649385
-0.000101076
-0.00443862
0.000617729
4.60316e-05
-0.00575885
0.000351754
0.000288061
-0.00710287
-0.000251973
0.000234766
-0.00653078
0.000132932
-0.000319646
-0.00290651
0.000104893
-0.000283891
-0.00266255
2.08992e-05
-0.000191119
-0.00231813
8.96206e-06
-0.000133912
-0.000932499
7.6686e-05
-0.000184389
0.00026882
0.000198556
-0.000235654
5.12698e-05
-1.45534e-05
-0.000164769
-9.2486e-05
-2.95578e-05
-0.000146409
-0.000105988
0.000146917
-0.000248724
-0.000125153
0.000153864
-0.000298873
-0.000569194
0.000278819
-0.000253001
-0.00147963
0.000264435
-0.000177295
-0.00297269
5.27969e-05
-1.39811e-05
-0.00406466
-0.00019399
0.000124393
-0.00463294
6.59015e-05
-0.000113992
-0.00146157
4.20726e-05
-0.000123954
-0.00123676
3.65927e-05
-0.000122968
-0.00109921
1.46451e-05
-0.000118607
-0.000970745
4.26688e-06
-0.000103808
-0.0014935
-1.68229e-06
-8.90136e-05
-0.00131205
5.37538e-05
-9.89694e-05
-0.00117551
-4.80058e-05
-0.000103412
-0.00088366
4.03717e-06
-0.000104175
-0.000153845
7.96431e-05
-0.000104798
0.000521856
6.67135e-05
-7.35337e-05
0.000662722
5.10142e-05
-1.28283e-05
0.000888789
-5.24548e-05
-7.85613e-06
-0.000220615
-7.09124e-05
-6.7038e-05
-0.00230897
-2.32435e-05
-5.2693e-05
-0.00198557
-0.00174506
-1.08405e-05
-0.00209467
-0.00138586
0.000213114
-0.00276486
-0.00176657
7.02153e-05
-0.00197891
-0.00126754
0.000286898
-0.00325608
-0.00137282
0.000266947
-0.00268221
-0.00154299
0.000427199
-0.00248727
-0.00122663
0.000448712
-0.00369534
-0.00103838
0.000230778
-0.0035917
-0.00141213
0.000104333
-0.00312031
-0.000936632
-5.32157e-05
-0.00332566
-0.000561126
0.000415866
-0.00405352
-0.000681824
0.000296384
-0.00401543
-0.00066763
7.28811e-05
-0.00392531
-0.00120374
-4.10896e-05
-0.00367596
-0.000815814
-0.000327379
-0.0033891
-0.000607951
0.000512824
-0.00456201
-0.000459035
0.000255798
-0.004402
-0.000303201
0.000141318
-0.00444154
-0.00058665
6.22493e-05
-0.00433528
-0.000720357
3.75717e-05
-0.00419315
-0.00124613
-0.000102651
-0.00353435
-0.000294502
0.000791944
-0.00507852
-0.000269483
0.000552753
-0.00511693
-0.000243406
0.000333398
-0.00498468
-0.000329276
0.000226968
-0.0047924
-0.000581927
9.31522e-05
-0.00464583
-0.000821247
-0.000114476
-0.0044569
-0.00117141
-6.2143e-05
-0.00369511
0.000346306
0.00120574
-0.00530654
-2.29015e-05
0.000942353
-0.00554348
0.000254515
0.000654066
-0.00546232
-6.9743e-06
0.00039799
-0.00558716
-2.733e-05
0.000325746
-0.00545804
-0.000231689
0.000317135
-0.00521115
-0.000756867
0.000167298
-0.00471055
-0.00103093
-2.21051e-06
-0.00407155
0.000305216
0.0014087
-0.00577585
0.000579777
0.00122155
-0.00631043
0.000404373
0.00088962
-0.00615263
0.000233155
0.000718856
-0.00632609
5.61934e-05
0.000555125
-0.0062491
6.81484e-05
0.000494483
-0.00620397
3.41865e-05
0.000309178
-0.00607573
-0.00040534
1.59887e-05
-0.00532595
-0.000784423
-8.82242e-05
-0.00479884
0.000397304
0.00126153
-0.0064011
0.000486964
0.00103644
-0.00671617
0.000678566
0.000884802
-0.00685689
0.000675034
0.000830266
-0.00697756
0.000504628
0.000863803
-0.00679646
0.000445092
0.000948387
-0.00703178
0.000322134
0.00089208
-0.0069535
0.000399834
0.00064672
-0.00582955
-0.000349452
0.000290401
-0.00565863
-0.00113999
-2.81867e-05
-0.0048316
0.000324035
0.00113213
-0.00663108
0.000530652
0.000992777
-0.00727032
0.000637392
0.00085862
-0.00755377
0.000695544
0.00083309
-0.00754648
0.000589046
0.000960147
-0.00761086
0.000474027
0.00127454
-0.00772896
0.000415926
0.00131816
-0.00754653
0.00106351
0.00123602
-0.00677227
0.00127319
0.00115465
-0.00578774
0.000303952
0.000751899
-0.00631641
-0.000988602
0.000183082
-0.00555752
0.000522575
0.000742715
-0.00621924
0.000527942
0.000815284
-0.00602243
0.000513371
0.000787906
-0.00632207
0.000680806
0.000660081
-0.00644272
0.000565121
0.000765961
-0.00665636
0.000422
0.000889098
-0.00646056
0.000358216
0.00106664
-0.00639466
0.000844525
0.000710545
-0.00707692
0.00110015
0.000903194
-0.00654522
0.0013369
0.000891583
-0.00729626
0.000315167
0.000543401
-0.00839
-0.000826864
0.000145256
-0.00654385
0.0004765
-0.000356489
-0.00441864
0.000324597
-0.000180955
-0.004718
0.000412367
-8.95695e-05
-0.00573254
0.000444954
6.79566e-05
-0.00609001
0.000449779
0.000244549
-0.0056193
0.000339414
0.000233781
-0.00564975
0.000223921
0.000183721
-0.00508879
0.000394048
0.000146345
-0.00458424
0.000579948
0.000219855
-0.00439687
0.0011048
1.7984e-05
-0.00645815
0.000849487
0.000376315
-0.00753902
0.000312772
0.000538325
-0.00859003
-0.000571624
0.000430774
-0.0058593
0.000177602
-0.000249508
-0.00239742
0.000209708
-0.000251508
-0.00227274
0.000122965
-0.00029183
-0.00139503
0.000148713
-0.000368247
-0.00182189
0.000256715
-0.000642542
-0.00234537
0.000192951
-0.000621754
-0.00199919
0.000303006
-0.000471455
-0.00215873
0.000194931
-0.000349397
-0.00276867
0.000212177
-0.000168716
-0.00241841
0.000239636
-0.000114588
-0.00288163
0.000646987
-0.000172855
-0.0045879
0.000491953
4.04805e-05
-0.00573878
0.000214521
0.000327011
-0.00735684
-0.000299361
0.00021488
-0.00664029
0.000162857
-0.000297597
-0.00295028
9.32228e-05
-0.000304346
-0.0029372
5.3132e-05
-0.000267031
-0.00260318
-4.42931e-05
-0.000170148
-0.00222296
8.78704e-06
-0.000106339
-0.00101507
9.46122e-05
-0.000150858
8.77301e-05
0.000217743
-0.000208332
-6.91556e-05
-7.67888e-05
-0.000148752
-6.13601e-05
4.30402e-06
-0.000151143
-0.000203836
0.000174805
-0.000274838
-0.00024435
0.000153845
-0.000318735
-0.000590591
0.000261921
-0.000247956
-0.00161987
0.000221028
-0.000164401
-0.00309575
2.87355e-05
-1.52721e-05
-0.00402464
-0.000225574
0.000111746
-0.00454235
0.000100935
-0.000103019
-0.00122538
6.04931e-05
-0.000111153
-0.00153486
3.60822e-05
-0.000121022
-0.00127479
3.38474e-05
-0.000119273
-0.00113239
4.19258e-06
-0.000113534
-0.000965212
-9.80566e-06
-9.87538e-05
-0.00147395
-1.08063e-05
-8.6272e-05