/*--------------------------------*- C++ -*----------------------------------*\
  =========                 |
  \\      /  F ield         | OpenFOAM: The Open Source CFD Toolbox
   \\    /   O peration     | Website:  https://openfoam.org
    \\  /    A nd           | Version:  7
     \\/     M anipulation  |
\*---------------------------------------------------------------------------*/
FoamFile
{
    version     2.0;
    format      ascii;
    class       volVectorField;
    location    "4.5";
    object      U_0;
}
// * * * * * * * * * * * * * * * * * * * * * * * * * * * * * * * * * * * * * //

dimensions      [0 1 -1 0 0 0 0];

internalField   nonuniform List<vector> 
18750
(
(1.59858 -0.894932 -1.07031)
(1.33147 -2.25283 -3.284)
(1.67808 -0.230014 -2.03894)
(1.54199 -1.02159 -1.0651)
(3.11412 -4.74361 -0.691024)
(0.843144 -1.51881 1.80063)
(1.54614 -1.93569 -2.86834)
(-0.217045 0.445113 -0.878985)
(1.68833 -0.283662 -2.09306)
(1.52752 -1.07498 -1.07578)
(5.36772 -3.75199 1.16621)
(2.6597 -2.70082 -0.648663)
(2.98743 -4.61194 -0.28165)
(0.324198 -1.48514 -0.522215)
(1.05455 -1.9628 2.12734)
(1.7547 -1.81473 -1.65449)
(-0.85529 0.13037 0.124779)
(-0.136669 0.467323 -0.852168)
(1.72435 -0.287499 -2.15951)
(1.46196 -1.16271 -1.06683)
(4.24425 -0.122196 1.23253)
(3.53481 -4.6688 1.36786)
(5.23327 -3.85018 0.974931)
(1.01544 -0.67028 -0.320811)
(2.52404 -3.05373 -1.99358)
(2.89123 -4.27081 0.105456)
(0.295375 -0.685648 -0.407157)
(0.207757 -1.69882 -0.644372)
(1.24238 -2.32059 1.18878)
(1.88622 -1.86241 -0.663288)
(-0.513917 -0.54573 -0.981384)
(-0.843415 0.0746537 0.145847)
(-0.0269286 0.515268 -0.833928)
(1.78706 -0.192554 -2.2122)
(1.3371 -1.3201 -0.935344)
(3.72927 1.23026 -0.325136)
(4.08674 0.53058 2.29842)
(4.39021 -0.829261 0.282046)
(3.72415 -2.77875 2.19963)
(3.79334 -3.85023 1.58472)
(4.89008 -3.79841 0.996423)
(1.44815 -0.376585 0.0893387)
(1.17422 -0.858535 -0.31305)
(2.65767 -2.9835 -2.33925)
(2.79986 -3.98725 0.927922)
(0.124671 -0.513871 -1.40072)
(0.269345 -0.676701 -0.447089)
(0.128025 -1.7748 -0.880153)
(1.30572 -2.43935 0.195962)
(1.93626 -1.88538 -0.15662)
(-0.558332 -0.633061 -2.70685)
(-0.559261 -0.507064 -0.976687)
(-0.806194 0.182674 0.223807)
(0.0733579 0.563109 -0.826421)
(1.86337 -0.103168 -2.22308)
(1.34216 -1.29847 -0.817332)
(3.84556 1.45705 0.31466)
(4.65671 0.919878 2.06329)
(3.63954 0.964836 -0.318359)
(4.98002 0.0280793 3.18072)
(3.2462 1.53261 2.90857)
(4.35548 -0.138737 -0.390337)
(3.07144 -0.249231 2.68913)
(3.52296 -3.17982 1.68255)
(2.87504 -5.05682 1.33997)
(4.93819 -2.83976 1.063)
(1.82432 -0.55113 0.91075)
(1.44816 -0.882389 -0.120116)
(1.47358 -1.01024 -0.261792)
(2.69324 -3.3021 -1.74639)
(2.89717 -3.44563 1.66803)
(-0.178448 0.757407 -1.88029)
(0.0417745 -0.54317 -1.38853)
(0.254751 -0.679032 -0.637156)
(0.0950423 -1.80587 -1.24596)
(1.40376 -2.51123 -0.908416)
(2.01978 -1.81164 0.928574)
(0.129983 -0.212177 -2.57705)
(-0.612046 -0.608948 -2.64051)
(-0.596588 -0.456272 -0.97584)
(-0.795142 0.210968 0.217712)
(0.192616 0.622572 -0.8199)
(1.90129 -0.134675 -2.21171)
(1.31413 -1.22089 -0.846711)
(3.61316 1.60534 -0.0661973)
(4.90951 0.473015 -0.0312034)
(3.85699 1.40023 0.247206)
(5.25369 -0.143568 1.32357)
(4.75999 -0.218844 2.14908)
(3.62929 0.916056 -0.150279)
(4.91916 -0.614971 3.59386)
(4.72658 -0.607503 3.13272)
(3.02324 -0.917093 3.31172)
(4.3879 0.515389 -0.900418)
(2.62361 0.211601 0.970331)
(2.83754 -0.852169 2.06517)
(3.21675 -4.30333 0.284905)
(2.57903 -5.01064 1.66637)
(5.03768 -2.12383 0.524254)
(1.36964 -1.19232 0.614815)
(1.73854 -0.751361 0.821892)
(1.47172 -1.2004 -0.19207)
(1.71709 -1.42071 -0.0846228)
(2.41808 -4.19015 -0.231578)
(3.14666 -2.96727 1.57257)
(-0.0485555 1.0508 -1.41949)
(-0.168824 0.539731 -1.97562)
(-0.0352559 -0.594947 -1.37502)
(0.269973 -0.701559 -0.864496)
(0.0969496 -1.78989 -1.70989)
(1.48252 -2.48246 -0.855419)
(2.13159 -1.73369 1.30797)
(0.522711 -0.638674 -2.38833)
(0.108702 -0.195106 -2.46518)
(-0.655416 -0.583577 -2.57408)
(-0.617322 -0.406891 -0.980504)
(-0.794555 0.187177 0.185006)
(0.320408 0.692801 -0.823552)
(1.89021 -0.245018 -2.17685)
(1.25018 -1.22638 -0.816777)
(2.81221 1.65357 -0.0427534)
(4.28234 0.330198 0.218659)
(3.55157 1.50265 -0.200011)
(4.65262 -0.334242 0.64981)
(4.98815 -0.230353 0.19609)
(3.84622 1.30331 0.261446)
(5.26045 -0.882369 1.8871)
(5.20212 -0.515435 1.35123)
(5.01402 -1.08308 1.39726)
(3.67399 0.940277 -0.0695393)
(4.60489 -1.12669 2.43486)
(4.84759 -0.969887 3.57786)
(3.84999 -2.54946 3.41068)
(2.76057 -1.38075 3.36027)
(4.58419 0.834701 -1.74523)
(2.42593 -0.461564 0.109169)
(2.44178 0.134632 0.348684)
(2.58632 -1.0442 1.46838)
(3.03047 -4.61304 -0.758207)
(1.98332 -5.18767 2.05768)
(5.02209 -1.71417 0.227575)
(1.63781 -1.30879 -0.14593)
(1.30806 -1.15821 0.585517)
(1.69361 -1.00362 0.628888)
(1.50652 -1.33006 -0.110947)
(1.802 -2.12245 -0.0231646)
(2.26439 -4.53254 0.476836)
(3.33154 -2.70971 1.43387)
(-0.137219 -1.00576 -1.94344)
(0.0157583 0.98702 -1.54301)
(-0.1906 0.379029 -1.98233)
(-0.117331 -0.686098 -1.39937)
(0.26771 -0.792617 -1.11551)
(0.251936 -1.71597 -1.96386)
(1.5766 -2.4216 -0.245322)
(2.25342 -1.71397 1.21001)
(0.342183 -0.778474 -2.99703)
(0.52759 -0.636984 -2.26833)
(0.0934421 -0.181579 -2.37379)
(-0.693189 -0.560151 -2.50887)
(-0.638713 -0.352146 -0.983092)
(-0.742299 0.24675 0.284924)
(0.45787 0.766773 -0.83302)
(1.91587 -0.317778 -2.14788)
(1.09163 -1.36293 -0.706128)
(2.47501 1.53398 -0.147777)
(3.49472 0.72131 -0.00658501)
(2.96931 1.39528 -0.0335394)
(4.13412 0.398731 0.244462)
(4.16098 0.304482 0.061336)
(3.58416 1.12496 -0.171099)
(4.50761 -0.505212 0.939897)
(4.70598 -0.662896 0.707646)
(4.94666 -0.503893 0.360323)
(3.92553 1.08594 0.185008)
(4.99378 -1.0282 1.84229)
(5.28743 -0.96616 1.72129)
(4.94948 -1.24122 1.48672)
(4.68313 -2.16046 1.35217)
(3.57149 0.877688 0.0438536)
(3.94008 -1.79612 1.93967)
(4.41464 -1.37709 2.91151)
(4.3742 -2.17752 3.63381)
(3.64738 -2.47358 3.22432)
(2.07664 -3.69377 4.03576)
(4.88706 0.656409 -1.60773)
(2.61248 -1.13031 0.48368)
(2.45165 -0.201412 0.220047)
(2.25368 -0.190903 -0.367069)
(2.59043 -1.10692 1.03066)
(2.80741 -4.77945 -1.56011)
(1.84983 -5.2813 1.93668)
(4.99881 -1.45976 0.0300574)
(1.44279 -0.948494 -1.9225)
(1.56634 -1.23409 0.0600103)
(1.22031 -1.30807 0.460146)
(1.56311 -1.26457 0.535645)
(1.53019 -1.33801 0.00241213)
(1.60528 -3.0908 -0.920754)
(2.14582 -4.51961 0.579107)
(3.31378 -2.7553 1.20523)
(-0.450456 -1.00793 -2.26104)
(-0.112431 -0.680239 -1.77913)
(0.0726846 0.833714 -1.57593)
(-0.17563 0.224207 -1.86313)
(-0.147232 -0.728932 -1.55974)
(0.238125 -0.933372 -1.37916)
(0.42977 -1.66241 -1.97393)
(1.60655 -2.39856 0.0591336)
(2.36571 -1.68885 1.00009)
(0.779893 -0.00107525 -2.29978)
(0.354184 -0.754522 -2.85758)
(0.528072 -0.629568 -2.19799)
(0.0791041 -0.171841 -2.30112)
(-0.72552 -0.53839 -2.4481)
(-0.654521 -0.310019 -0.969682)
(-0.733166 0.261553 0.285847)
(0.601304 0.838269 -0.844074)
(1.90609 -0.366532 -2.13668)
(0.945571 -1.44861 -0.601858)
(2.45793 1.18757 -0.00865522)
(2.98291 0.862356 -0.00133506)
(2.62165 1.35505 -0.0372607)
(3.68189 0.116187 0.184881)
(3.53501 0.852656 0.122797)
(2.91365 1.45143 -0.0882265)
(4.25269 -0.370268 0.421864)
(4.18174 -0.0982425 0.520326)
(3.95347 0.0619068 -0.0972924)
(3.46701 1.15063 -0.0332426)
(4.52845 -0.862313 1.31338)
(4.50812 -0.790604 0.969244)
(4.61563 -1.19336 0.759196)
(4.83037 -0.716904 0.374624)
(4.06991 0.960891 -0.103074)
(4.82089 -1.11973 1.29401)
(4.96811 -1.29244 1.90819)
(5.27679 -1.04091 1.65692)
(4.67824 -1.8666 1.61277)
(4.31937 -2.57187 1.42149)
(3.77523 -0.645428 -0.0202641)
(3.90697 -1.94408 1.03868)
(3.8332 -1.55723 1.69432)
(4.31636 -1.74201 2.87538)
(4.07116 -2.48315 3.51345)
(2.53705 -4.46441 2.77608)
(1.97262 -4.27173 3.91969)
(4.91974 0.668853 -1.51232)
(2.91007 -1.64747 0.480193)
(2.72745 -1.33167 0.253027)
(2.37881 -0.49797 0.103459)
(2.12669 -0.355487 -0.724102)
(2.70346 -1.01193 0.855287)
(2.85828 -4.90995 -0.892663)
(1.63269 -5.29136 1.82144)
(4.96334 -1.28784 -0.141624)
(1.64973 -0.367258 -2.61222)
(1.37416 -1.05668 -1.88698)
(1.46005 -1.25424 0.0166869)
(1.00841 -1.69108 -0.0192782)
(1.39241 -1.49415 0.436969)
(1.47729 -1.41402 0.0497849)
(1.39323 -3.66782 -1.83336)
(2.02036 -4.5071 0.771222)
(3.15506 -2.88728 1.1164)
(-0.344455 -0.605388 -2.13961)
(-0.491471 -1.09503 -2.23912)
(-0.0288479 -0.197621 -1.57364)
(0.162978 0.8607 -1.51406)
(-0.182027 0.121404 -1.75671)
(-0.167243 -0.712053 -1.86073)
(0.170519 -1.06468 -1.5212)
(0.537796 -1.66532 -1.94539)
(1.71534 -2.31241 0.451915)
(2.48367 -1.63779 0.952611)
(0.905006 -0.327766 -2.39623)
(0.800431 -0.0333301 -2.19876)
(0.381667 -0.692733 -2.74423)
(0.527057 -0.605732 -2.15881)
(0.0591216 -0.17617 -2.25235)
(-0.755406 -0.518512 -2.39378)
(-0.661769 -0.225491 -0.980334)
(-0.707374 0.26789 0.301305)
(0.744512 0.893318 -0.85576)
(1.86076 -0.480526 -2.22771)
(0.92148 -1.37655 -0.614219)
(2.26235 1.19856 -0.243848)
(2.79789 0.648093 0.0535965)
(2.5151 1.10312 -0.12669)
(3.13647 0.636929 0.0433743)
(3.03706 0.524715 0.0305801)
(2.69014 1.16356 -0.138165)
(3.66879 -0.378643 0.300928)
(3.67282 -0.0656786 0.220003)
(3.47189 0.942931 0.148065)
(2.96331 1.03673 -0.0109397)
(4.1761 -0.446689 0.636634)
(4.27751 -0.419159 0.468333)
(4.06157 -0.267429 0.380846)
(3.99094 -0.691878 -0.150781)
(3.4905 0.863777 0.00507936)
(4.46777 -1.25729 1.16847)
(4.18238 -1.89408 1.21868)
(4.45368 -1.25188 1.03532)
(4.55195 -1.50618 0.819209)
(4.5665 -1.28141 0.64114)
(4.07026 1.16514 -0.138095)
(4.72422 -1.5533 1.31447)
(4.65272 -1.34413 1.3836)
(4.85624 -1.47731 1.96624)
(5.17789 -1.31651 1.73248)
(4.03943 -2.93955 1.89891)
(3.79315 -3.18131 1.41544)
(3.97534 0.628913 -0.238055)
(3.56838 -2.19349 0.905744)
(3.8073 -2.00491 1.45618)
(4.13066 -0.865303 1.82638)
(3.99083 -1.97463 2.89209)
(3.35582 -3.8664 3.06735)
(2.01619 -5.43826 2.27268)
(1.71914 -4.69149 3.59774)
(5.01127 0.10136 -1.32772)
(3.04955 -1.604 0.259162)
(2.89602 -1.82449 0.400336)
(2.77502 -1.48799 0.358026)
(2.23596 -1.02789 -0.0696865)
(2.04122 -0.373344 -1.00995)
(2.85213 -1.3877 0.430316)
(2.64227 -5.20778 0.496571)
(2.20395 -5.1545 1.58057)
(5.0661 -0.611877 -0.331459)
(1.08158 2.20593 -1.73525)
(1.51339 -0.748331 -2.73473)
(1.11926 -1.39134 -1.84006)
(1.4296 -1.29261 -0.0676604)
(0.951738 -1.79108 -0.199932)
(1.17903 -1.70583 0.228108)
(1.55537 -1.51529 -0.112042)
(1.41699 -3.89721 -1.48191)
(1.90458 -4.48868 1.05757)
(2.93224 -3.08206 1.11939)
(0.371888 -1.33125 -1.95655)
(-0.480136 -0.54591 -2.08371)
(-0.564775 -1.23851 -2.16077)
(0.0889111 0.142799 -1.35112)
(0.274172 0.888322 -1.42708)
(-0.093998 0.128844 -1.65158)
(-0.132846 -0.775731 -1.94425)
(0.0129432 -1.28165 -1.35079)
(0.660248 -1.74277 -2.06576)
(1.78139 -2.26678 0.743677)
(2.63857 -1.71027 0.939938)
(0.566593 -0.276401 -2.98514)
(0.920996 -0.320012 -2.28668)
(0.821546 -0.0541737 -2.10553)
(0.422876 -0.628539 -2.65401)
(0.520562 -0.560161 -2.12819)
(0.0306549 -0.196203 -2.23609)
(-0.789299 -0.504858 -2.3429)
(-0.663761 -0.195853 -0.988134)
(-0.665535 0.281666 0.340951)
(0.884542 0.925865 -0.863676)
(1.9132 -0.503721 -2.23675)
(0.7493 -1.44916 -0.52701)
(2.13033 0.823943 -0.0615867)
(2.55115 0.867002 -0.0475719)
(2.34701 0.947966 -0.237194)
(2.86992 0.170755 -0.0289808)
(2.85437 0.540002 0.0449885)
(2.58391 0.834954 -0.165222)
(3.28058 0.136176 0.137034)
(3.16006 0.276783 -0.0364484)
(3.15143 0.120445 -0.0576757)
(2.74278 0.786121 -0.221329)
(3.73486 -0.338805 0.312133)
(3.55429 -0.663332 0.313015)
(3.53542 -0.211722 0.318654)
(3.50308 -1.01633 -0.21709)
(3.03677 0.865905 0.0904163)
(4.01697 -0.731963 0.847757)
(4.06092 -0.825872 0.650239)
(4.27103 -0.63073 0.478748)
(4.03316 -0.653484 0.359564)
(3.94817 -0.787106 -0.125063)
(3.53911 0.594403 0.0194973)
(4.55042 -1.4345 1.27423)
(4.38359 -1.56072 1.1407)
(4.26692 -1.33204 1.18609)
(4.36686 -1.67344 1.06692)
(4.37355 -1.82812 0.914471)
(4.27219 -1.83787 0.703053)
(4.08059 0.807437 -0.187262)
(4.67597 -1.70162 1.18447)
(4.59312 -1.83805 1.2916)
(4.58717 -2.12198 1.24764)
(5.01135 -1.33737 2.02163)
(4.5728 -2.3023 2.09138)
(3.0498 -3.96266 2.04738)
(3.27353 -3.55955 1.4239)
(3.94904 -0.255448 -0.208283)
(3.63717 -1.44637 1.44201)
(3.61482 -2.05919 1.40281)
(3.68364 -2.05061 1.70087)
(3.62502 -1.91615 1.90887)
(3.26164 -3.03017 2.49878)
(3.30588 -4.0394 2.88851)
(1.87682 -5.45322 2.37603)
(1.62121 -5.20011 2.93932)
(5.17606 -0.207001 -1.31443)
(3.28162 -2.11592 -0.457146)
(3.03841 -1.86329 0.191536)
(2.91544 -1.93247 0.531724)
(2.77066 -1.77917 0.266274)
(2.05609 -1.82473 -0.170877)
(2.04673 -0.419244 -0.922772)
(2.25884 -3.06412 0.192902)
(2.31618 -5.6708 2.3737)
(2.30657 -5.13248 1.38917)
(4.77184 -0.874104 -0.159011)
(0.65779 0.592568 -1.42219)
(1.22698 1.61963 -2.17001)
(1.44812 -1.06397 -2.94614)
(0.972432 -1.45204 -1.7266)
(1.36797 -1.42833 -0.251081)
(0.975183 -1.76637 -0.222652)
(1.01947 -1.75434 -0.155186)
(2.00539 -1.36999 -0.213343)
(1.4087 -4.07767 -0.558376)
(1.91882 -4.46022 0.904744)
(2.7729 -3.25913 1.08491)
(1.34922 -1.25501 -1.35768)
(0.343646 -1.07606 -1.70681)
(-0.490256 -0.518484 -2.01094)
(-0.645692 -1.39446 -2.04313)
(0.229159 0.45965 -1.12423)
(0.341261 0.847846 -1.39131)
(-0.115082 -0.0534813 -1.702)
(-0.149353 -0.852138 -1.95438)
(-0.20476 -1.56317 -1.07923)
(0.718943 -1.83819 -2.21483)
(1.80181 -2.2072 1.10739)
(2.62687 -1.88568 1.083)
(0.6086 -0.432401 -2.71854)
(0.582561 -0.269065 -2.83811)
(0.936145 -0.301744 -2.18504)
(0.845465 -0.0683282 -2.02223)
(0.468096 -0.585694 -2.576)
(0.508789 -0.504463 -2.09712)
(-0.0155685 -0.235771 -2.24785)
(-0.81474 -0.496094 -2.29741)
(-0.67385 -0.140771 -0.982766)
(-0.620985 0.289505 0.385257)
(1.01788 0.93408 -0.86275)
(1.85975 -0.580896 -2.18316)
(0.680224 -1.42276 -0.493318)
(1.73058 0.985224 0.0933869)
(2.31041 0.799433 -0.0190292)
(2.18934 0.610909 -0.0205992)
(2.64438 0.43646 -0.0717861)
(2.61941 0.570736 -0.0502387)
(2.39894 0.796234 -0.286663)
(2.91769 0.00476355 0.0898802)
(2.81755 0.127482 0.106041)
(2.86623 0.330645 0.0830917)
(2.57835 0.56477 -0.205792)
(3.32906 -0.00760314 0.227447)
(3.25054 0.0590822 0.0931232)
(3.22328 0.116112 -0.120552)
(3.09986 -0.0823158 -0.0671239)
(2.76953 0.583004 -0.159059)
(3.71771 -0.272951 0.50844)
(3.627 -0.69918 0.311613)
(3.45024 -0.864925 0.356713)
(3.47675 -0.850263 0.34311)
(3.40548 -0.0847495 0.127762)
(3.12358 0.621485 0.0864127)
(3.91536 -1.0406 1.31697)
(3.86814 -1.29059 0.952985)
(4.0655 -1.04604 0.59211)
(4.19681 -0.892669 0.435521)
(3.87707 -1.35901 0.335299)
(3.64034 -1.24554 -0.154759)
(3.52558 0.193038 0.0410903)
(4.56548 -1.42107 1.35163)
(4.51103 -1.64018 1.21939)
(4.30633 -1.83115 1.08622)
(4.03656 -2.07363 1.21186)
(4.15767 -2.22098 1.15015)
(3.8549 -2.51717 0.91692)
(4.11981 -1.86516 0.344943)
(4.00706 0.361218 -0.200249)
(4.47336 -1.90418 1.42952)
(4.47128 -2.53478 0.9989)
(4.30135 -2.75006 1.36815)
(4.51876 -2.17332 1.95941)
(4.83155 -1.8275 2.30939)
(4.21158 -2.80722 2.18793)
(2.44635 -4.3329 2.06675)
(3.1115 -3.74637 1.44289)
(3.88351 -0.611138 -0.247816)
(3.70223 -1.37649 1.26307)
(3.71068 -1.6761 1.62234)
(3.66766 -2.44037 1.18195)
(3.92328 -1.76606 1.55024)
(3.60103 -1.82862 2.01841)
(3.22964 -3.37854 2.00659)
(2.92424 -4.60981 2.56196)
(1.58305 -5.49743 2.28595)
(2.07703 -5.14782 2.87979)
(5.15779 -0.686533 -1.14668)
(3.00587 -1.68819 -0.720688)
(3.47486 -2.22899 -0.375818)
(3.083 -1.97544 0.958783)
(3.13835 -1.77787 0.512583)
(2.88001 -1.77203 0.435785)
(2.15938 -1.7847 0.44844)
(1.95466 -1.27273 -0.209505)
(1.54995 -4.39408 0.285693)
(2.27402 -5.59414 1.9499)
(3.44855 -4.69726 1.43562)
(4.29139 -1.32784 0.375081)
(0.682462 -0.630943 -1.70177)
(0.809068 0.923898 -1.23267)
(1.35892 0.747574 -2.71446)
(1.37453 -1.08703 -2.91187)
(0.819454 -1.50895 -1.71824)
(1.3178 -1.50335 -0.46013)
(0.875387 -1.82129 -0.372206)
(1.055 -1.72539 -0.188689)
(2.06733 -1.84787 -0.226324)
(1.27828 -4.34877 1.02592)
(2.05043 -4.38577 0.853292)
(2.77029 -3.27008 1.00512)
(1.6612 -0.941551 -2.18043)
(1.38589 -1.09886 -1.00459)
(0.344685 -0.805365 -1.48254)
(-0.485845 -0.483038 -1.88873)
(-0.648937 -1.37406 -1.91277)
(0.420704 0.793353 -0.877226)
(0.469312 0.849181 -1.42011)
(-0.16002 -0.234403 -1.77925)
(-0.231656 -0.954516 -2.03504)
(-0.150599 -1.48664 -1.21029)
(0.664957 -2.02025 -2.01272)
(1.76494 -2.23813 1.14753)
(2.75994 -1.8748 0.93024)
(0.731918 -0.435874 -2.78847)
(0.628715 -0.392654 -2.64955)
(0.594791 -0.247809 -2.69291)
(0.952495 -0.279965 -2.09051)
(0.87072 -0.0800586 -1.95145)
(0.514433 -0.559954 -2.50556)
(0.492445 -0.454111 -2.08443)
(-0.0750793 -0.294105 -2.27781)
(-0.844904 -0.483825 -2.25217)
(-0.67131 -0.0984961 -0.986532)
(-0.591005 0.293525 0.4232)
(1.13954 0.912995 -0.854518)
(1.80668 -0.657338 -2.13591)
(0.518831 -1.44604 -0.431959)
(1.51649 1.09713 -0.0422794)
(1.93706 0.915067 0.147608)
(1.83294 0.735644 0.297268)
(2.43187 0.679899 0.102135)
(2.31591 0.592824 -0.0294242)
(2.23966 0.206319 -0.0727683)
(2.68124 0.327311 0.178246)
(2.61282 0.2234 -0.0837539)
(2.62233 0.291442 -0.0794612)
(2.42585 0.551136 -0.31406)
(2.87931 -0.0257964 0.187507)
(2.86522 -0.174753 0.105898)
(2.87754 -0.123936 0.113226)
(2.83213 -0.0299806 0.106134)
(2.62508 0.305713 -0.145615)
(3.20827 -0.132905 0.450616)
(3.2759 -0.305431 0.235429)
(3.22487 -0.385071 0.148285)
(3.19292 -0.156086 -0.0901356)
(3.06492 -0.285811 -0.114791)
(2.81017 0.383778 -0.0205637)
(3.56081 -0.574661 0.914197)
(3.71907 -0.358741 0.541791)
(3.51521 -0.958873 0.422387)
(3.41685 -1.03331 0.34346)
(3.40181 -1.07114 0.35488)
(3.39164 -0.478369 0.111523)
(3.12167 0.267578 0.0543536)
(3.83384 -1.45551 1.2807)
(3.88465 -1.28284 1.24048)
(3.86444 -1.48851 0.932082)
(4.02061 -1.24991 0.622174)
(3.97482 -1.48588 0.520498)
(3.73236 -1.7276 0.322499)
(3.47879 -1.20035 -0.104668)
(3.44067 -0.194529 -0.0240888)
(4.29204 -1.16309 1.59864)
(4.36358 -1.74468 1.30703)
(4.20568 -2.25899 1.17333)
(4.18638 -2.03454 1.18347)
(4.00993 -2.15324 1.30207)
(3.92745 -2.66164 1.24801)
(3.4127 -2.73509 0.825342)
(3.83232 -1.94081 0.0682457)
(3.96775 -0.111588 -0.247665)
(4.44819 -1.40436 1.86722)
(4.60124 -1.97973 1.3785)
(4.31741 -2.71611 1.32172)
(4.39072 -2.6971 1.6815)
(4.36697 -2.72032 2.20195)
(4.44367 -2.66861 2.42108)
(3.73393 -3.45932 2.29417)
(1.59109 -4.68294 1.95364)
(2.1608 -4.37146 1.38998)
(3.81851 -1.10137 -0.255118)
(3.72846 -0.963088 1.77084)
(3.79932 -1.14876 1.65575)
(3.64126 -2.41532 1.43441)
(3.69978 -2.42952 1.65775)
(3.59503 -2.21251 2.09203)
(3.21572 -2.53788 2.48652)
(2.88798 -4.31273 1.43801)
(1.95587 -5.4034 1.70985)
(1.72965 -5.32124 2.50963)
(2.64943 -5.13688 2.04787)
(4.92717 -1.28967 -0.534411)
(2.94289 -1.54756 -0.578067)
(3.1412 -2.32946 -0.03308)
(3.52987 -2.31119 0.158794)
(2.84788 -2.34956 0.937453)
(3.17232 -1.75348 0.467282)
(2.91679 -1.80821 0.5657)
(2.31525 -1.77197 0.572408)
(1.61427 -2.12401 0.351458)
(1.25392 -5.01139 -0.332654)
(2.25781 -5.30029 1.66616)
(2.75401 -5.36319 1.60314)
(3.77486 -1.76994 0.739986)
(1.19455 -0.622972 -1.42305)
(0.755376 -0.23076 -1.48808)
(1.06221 0.768613 -1.34215)
(1.30929 -0.102686 -2.89684)
(0.807811 -1.36528 -2.82716)
(0.715888 -1.65669 -1.70227)
(1.26185 -1.5587 -0.737858)
(0.786287 -1.86251 -0.442217)
(1.04461 -1.76072 -0.298146)
(1.40993 -2.99069 -0.430396)
(1.34293 -4.29384 1.22772)
(2.57489 -4.06902 1.18192)
(3.22238 -3.0277 0.627742)
(1.785 -1.0137 -2.17224)
(1.612 -1.15578 -1.89957)
(1.3781 -0.890368 -0.829147)
(0.395817 -0.652676 -1.21674)
(-0.430399 -0.430638 -1.7179)
(-0.642634 -1.25207 -1.81787)
(0.635936 1.07897 -0.671903)
(0.512245 0.744422 -1.54369)
(-0.20483 -0.430789 -1.89165)
(-0.313904 -0.992778 -2.21157)
(-0.0729447 -1.48192 -1.22546)
(0.537351 -2.24296 -1.5969)
(1.76901 -2.16707 1.12978)
(2.77036 -1.91868 0.850852)
(0.885528 -0.638795 -2.5139)
(0.744441 -0.449011 -2.73973)
(0.644903 -0.378563 -2.57574)
(0.609278 -0.208815 -2.55808)
(0.965521 -0.259137 -2.00176)
(0.896307 -0.0974356 -1.89496)
(0.556122 -0.540084 -2.44395)
(0.472359 -0.428598 -2.09361)
(-0.149427 -0.367177 -2.31835)
(-0.8373 -0.465375 -2.22287)
(-0.672353 -0.0638754 -0.996732)
(-0.546576 0.307837 0.477983)
(1.24404 0.867654 -0.845077)
(1.80626 -0.692572 -2.07178)
(0.418954 -1.4207 -0.409102)
(1.51346 0.861631 -0.0366438)
(1.88605 0.770462 0.0642577)
(1.53296 1.08008 -0.0403565)
(2.1756 0.798628 0.123661)
(1.95207 0.803807 0.182761)
(1.82321 0.533097 0.318476)
(2.53577 0.537906 0.281488)
(2.43044 0.352046 0.0576557)
(2.26016 0.605403 0.0512535)
(2.20756 -0.0586089 -0.129502)
(2.65831 0.191712 0.302433)
(2.65079 0.0639234 0.176367)
(2.62311 -0.0714423 -5.91846e-05)
(2.56342 0.251842 -0.0786317)
(2.49781 0.226571 -0.313425)
(3.00621 0.27012 0.295044)
(2.85037 -0.0139269 0.116563)
(2.90573 -0.358128 0.0994932)
(2.89849 -0.292042 0.0628311)
(2.86445 -0.30334 0.105111)
(2.63474 0.180994 -0.110833)
(3.28751 -0.0616766 0.627424)
(3.27493 -0.300332 0.491235)
(3.25951 -0.466512 0.217924)
(3.09971 -0.634505 0.265233)
(3.09441 -0.536871 -0.130938)
(3.07715 -0.394656 -0.119828)
(2.82554 0.0613032 0.0342765)
(3.40402 -0.981178 1.34404)
(3.56603 -0.677358 0.91477)
(3.32294 -1.57037 0.693038)
(3.46696 -1.12073 0.398926)
(3.40241 -1.25173 0.35814)
(3.23432 -1.2741 0.404031)
(3.19223 -0.524855 0.0609604)
(3.05639 -0.474936 -0.173293)
(3.64903 -0.949805 1.75763)
(3.95973 -1.12129 1.56446)
(3.84067 -1.39915 1.07712)
(3.84112 -1.62352 0.881792)
(3.8481 -1.5812 0.68696)
(3.69862 -1.89852 0.570604)
(3.54582 -2.0261 0.262206)
(3.35242 -1.44449 -0.0863357)
(3.06655 -1.64604 -0.0488279)
(4.06332 -1.00713 1.90817)
(4.12067 -1.64633 1.46815)
(4.08384 -2.12628 1.34217)
(4.02132 -2.44966 1.26865)
(3.7452 -2.65044 1.37515)
(3.83731 -2.73944 1.47947)
(3.76044 -2.88863 1.22125)
(2.8608 -3.07806 0.819682)
(3.44267 -1.93074 0.00168104)
(3.91397 -0.268185 -0.206584)
(4.18585 -1.43396 2.05391)
(4.39475 -2.09477 1.72033)
(4.51828 -2.4584 1.42326)
(4.35435 -2.62626 1.52127)
(4.39478 -2.74972 1.95656)
(4.33711 -2.69466 2.61603)
(4.29444 -2.8811 2.49564)
(2.43661 -4.45608 2.26708)
(1.41637 -4.71114 2.04841)
(2.12398 -3.97871 1.07484)
(3.71009 -1.53009 -0.199169)
(3.87693 -1.11677 1.75374)
(3.68465 -1.4091 1.78958)
(3.74237 -1.76948 1.71112)
(3.56656 -2.64098 1.4373)
(3.51242 -2.88656 1.78037)
(3.62889 -2.44435 2.1452)
(3.18402 -2.85905 2.51804)
(2.70919 -4.50649 1.59289)
(1.80989 -4.99927 2.24619)
(1.88959 -5.21091 2.17652)
(3.17091 -4.81144 0.931431)
(4.63182 -1.76403 0.028175)
(2.67686 -1.46549 -1.39686)
(2.81487 -1.70121 -0.324243)
(3.25178 -2.52223 -0.317912)
(3.38005 -2.55926 0.544947)
(3.00581 -2.36288 0.707681)
(3.09442 -2.12605 0.29994)
(2.71371 -2.09533 0.728166)
(2.36302 -1.95177 0.316542)
(1.68419 -2.33642 0.952691)
(1.38245 -5.05272 -0.880566)
(2.12964 -5.0772 1.85845)
(2.76211 -5.39506 1.55417)
(3.46148 -2.22323 0.840173)
(1.45444 -0.703487 -1.05865)
(1.37585 -0.436028 -1.16929)
(0.895414 0.153894 -1.33413)
(1.17749 0.142122 -1.9534)
(1.33707 -0.695239 -2.88399)
(1.26922 -1.13968 -2.4863)
(0.540656 -1.82795 -1.8256)
(1.18103 -1.57931 -0.892766)
(0.777863 -1.84526 -0.517322)
(1.04168 -1.74899 -0.304395)
(0.902952 -3.52796 -0.860662)
(1.45297 -4.05497 1.26417)
(2.75633 -4.11804 1.36691)
(3.46056 -3.0122 0.531243)
(1.79715 -1.01129 -2.26874)
(1.78048 -0.877795 -2.05755)
(1.54145 -0.947632 -1.8668)
(1.33228 -0.758616 -0.690498)
(0.482156 -0.483546 -0.925155)
(-0.303973 -0.348043 -1.49112)
(-0.531779 -1.00242 -1.70285)
(0.876387 1.31656 -0.535468)
(0.402477 0.361552 -1.72506)
(-0.36573 -0.634105 -2.13414)
(-0.366477 -1.00492 -2.32714)
(-0.0583508 -1.52346 -1.15977)
(0.508948 -2.29996 -1.33292)
(1.77094 -2.13691 0.998815)
(2.83945 -1.91127 0.818878)
(0.68325 -1.00467 -2.29494)
(0.90614 -0.62015 -2.47041)
(0.749478 -0.452181 -2.68607)
(0.650491 -0.373523 -2.50312)
(0.626165 -0.154338 -2.43327)
(0.974186 -0.240656 -1.92216)
(0.921715 -0.120753 -1.85308)
(0.596422 -0.518726 -2.39322)
(0.396251 -0.404703 -2.178)
(-0.234846 -0.449863 -2.35537)
(-0.87297 -0.457946 -2.19216)
(-0.676124 -0.0329983 -1.01876)
(-0.515994 0.315353 0.499171)
(1.32585 0.802884 -0.841669)
(1.74502 -0.765337 -2.02695)
(0.243663 -1.42392 -0.363407)
(1.32919 1.08699 0.0782312)
(1.86735 0.735139 0.0261956)
(1.48607 0.886757 0.000618791)
(2.03682 0.662975 0.219756)
(1.88805 0.606484 0.131427)
(1.49519 1.04787 -0.0304208)
(2.05637 0.885649 0.260825)
(2.20834 0.525888 0.210203)
(1.97856 0.753283 0.26877)
(1.79888 0.387188 0.113348)
(2.46383 0.272048 0.445456)
(2.45109 0.304582 0.293759)
(2.47976 0.0793395 0.0950644)
(2.23116 0.445397 0.0510169)
(2.23614 -0.483917 -0.096942)
(2.73437 0.246929 0.413209)
(2.68258 -0.0341319 0.318052)
(2.62201 -0.361744 0.122729)
(2.57359 -0.240218 0.00733024)
(2.56487 -0.261966 -0.245669)
(2.50455 0.153035 -0.312465)
(2.95622 0.0622505 0.69653)
(2.94926 -0.146364 0.350703)
(2.93056 -0.426333 0.154165)
(2.89186 -0.44552 0.0615762)
(2.87991 -0.384402 -0.0291587)
(2.84114 -0.376576 -0.0896505)
(2.57861 -0.177917 -0.0272235)
(3.25332 -0.414128 1.01382)
(3.31372 -0.420846 0.655605)
(3.28933 -0.522296 0.510774)
(3.11595 -0.858199 0.225785)
(2.96977 -1.05456 0.317048)
(2.9755 -0.909801 -0.106821)
(2.97534 -0.691481 -0.176463)
(2.77068 -0.130812 0.0483721)
(3.37718 -0.517573 1.55128)
(3.20714 -1.56474 1.30239)
(3.38212 -1.26704 0.845338)
(3.31939 -1.1604 0.567452)
(3.45649 -1.28347 0.398685)
(3.29124 -1.40973 0.346773)
(3.02318 -1.54021 0.372509)
(3.0489 -1.16825 0.166652)
(2.97342 -0.137875 -0.0141549)
(3.65654 -0.827866 2.04879)
(3.62793 -0.994199 1.81353)
(3.68573 -1.66006 1.32195)
(3.58331 -1.88548 1.11161)
(3.75327 -1.75154 0.815002)
(3.58744 -2.01413 0.747209)
(3.55534 -1.98556 0.588205)
(3.43145 -2.0514 0.148337)
(3.2766 -1.35854 -0.148999)
(3.14763 -0.954181 0.0175559)
(4.03503 -0.520108 2.04617)
(3.96627 -1.19579 1.8066)
(4.06675 -1.8036 1.45487)
(3.96777 -2.40898 1.31181)
(3.91124 -2.58986 1.34907)
(3.71557 -2.71469 1.49292)
(3.83853 -3.00268 1.58289)
(3.31812 -3.22549 1.19457)
(2.28411 -3.46882 0.895748)
(3.25019 -1.9509 0.128763)
(3.84206 -0.641687 -0.202061)
(4.083 -1.73462 2.16942)
(4.05568 -1.88465 2.02724)
(4.4001 -2.08799 1.74909)
(4.38006 -2.61949 1.52163)
(4.3026 -2.65795 1.66638)
(4.0866 -3.10542 2.13581)
(4.34592 -2.95017 2.44852)
(3.62817 -3.65041 2.45268)
(2.74766 -3.94935 2.30935)
(1.27957 -4.74592 1.94727)
(2.99001 -2.99368 0.872798)
(3.62519 -1.67645 -0.188357)
(4.141 -1.62141 1.51481)
(3.96492 -1.14982 1.90674)
(3.74043 -1.42134 1.94551)
(3.73631 -2.2086 1.67863)
(3.45348 -2.82879 1.64193)
(3.57202 -2.91146 1.94221)
(3.52909 -2.46801 2.56447)
(2.81272 -3.68019 1.92513)
(2.47341 -4.60625 1.97378)
(1.53845 -5.26745 1.97321)
(2.07668 -5.17201 1.90771)
(3.81946 -4.20688 0.588541)
(4.40912 -2.01731 0.0456364)
(2.51515 -0.790151 -0.80173)
(2.65731 -1.69911 -0.787493)
(2.71952 -1.8959 -0.212253)
(3.18708 -2.56845 -0.0737826)
(3.1833 -2.74222 0.645734)
(3.16518 -2.25491 1.04305)
(3.03379 -2.35802 0.422269)
(2.52769 -2.3983 0.687317)
(2.27903 -2.1316 0.353749)
(1.87417 -2.59972 0.975929)
(1.4548 -4.89351 0.0878037)
(2.2021 -5.01081 1.90458)
(3.00783 -5.12476 1.62238)
(3.33213 -2.50413 0.738703)
(1.38734 -1.03259 -0.96054)
(1.48905 -0.683179 -0.945817)
(1.4632 -0.31793 -1.06261)
(1.16245 0.516734 -1.17236)
(1.27215 -0.275894 -2.41154)
(1.19757 -1.12932 -2.70766)
(0.448548 -1.52908 -2.29498)
(0.773885 -1.70523 -1.94575)
(1.13567 -1.64003 -0.868904)
(0.56515 -1.83331 -0.732277)
(0.981773 -1.86967 -0.473574)
(0.799624 -3.59808 -1.01898)
(1.43807 -3.84599 1.54099)
(2.61706 -4.36509 1.24063)
(3.41709 -3.23115 0.67714)
(1.47494 -1.27442 -1.83035)
(1.77446 -1.12543 -2.18545)
(1.76585 -0.929916 -1.88057)
(1.45639 -1.05778 -1.69863)
(1.23015 -0.707915 -0.598128)
(0.60812 -0.316551 -0.674021)
(-0.141417 -0.233355 -1.23899)
(-0.381628 -0.750954 -1.60344)
(1.20668 1.65109 -0.428082)
(0.376342 0.181145 -1.88479)
(-0.476583 -0.82412 -2.30084)
(-0.456954 -1.01269 -2.34194)
(-0.103405 -1.59232 -1.19223)
(0.528191 -2.30333 -1.19024)
(1.77999 -2.11611 0.836422)
(2.85384 -1.91835 0.817966)
(0.521074 -1.21724 -2.04434)
(0.695175 -1.00138 -2.235)
(0.911213 -0.621327 -2.42152)
(0.75109 -0.451553 -2.62487)
(0.652318 -0.394499 -2.43032)
(0.637694 -0.123325 -2.31291)
(0.987294 -0.226407 -1.85605)
(0.937637 -0.138079 -1.83002)
(0.640868 -0.508143 -2.35122)
(0.341968 -0.479384 -2.29059)
(-0.325486 -0.517975 -2.39492)
(-0.897216 -0.469599 -2.17643)
(-0.680575 -0.00624147 -1.05125)
(-0.484146 0.318779 0.527655)
(1.38669 0.725217 -0.850526)
(1.66788 -0.819545 -1.97674)
(0.0903758 -1.40419 -0.330502)
(1.42232 0.733718 -0.00953841)
(1.63374 0.876914 -0.00387831)
(1.49202 0.884226 -0.0024465)
(1.8505 0.777985 0.131349)
(1.67752 0.998264 0.0151078)
(1.59529 0.669391 -0.0166611)
(1.96511 0.792801 0.162769)
(2.04254 0.538168 0.132441)
(1.91529 0.428351 0.14732)
(1.57145 0.761601 0.0563036)
(2.23325 0.47134 0.260614)
(2.18913 0.376626 0.278101)
(2.18843 0.0224246 0.31588)
(1.89682 0.631026 0.472824)
(1.76402 0.17383 0.129942)
(2.46986 0.555501 0.465146)
(2.43381 0.0467379 0.438857)
(2.43255 -0.0625865 0.284142)
(2.38606 0.0615195 0.152515)
(2.257 0.0833856 -0.0502103)
(2.19804 -0.375522 -0.0772199)
(2.80763 0.589908 0.49739)
(2.73286 0.299221 0.385501)
(2.69529 -0.215861 0.223667)
(2.61945 -0.289154 0.0733139)
(2.57352 -0.456971 0.00999296)
(2.54001 -0.127202 -0.145324)
(2.47232 -0.0330294 -0.284821)
(3.02113 -0.447401 0.737456)
(2.89263 -0.271012 0.650349)
(2.87755 -0.59857 0.53751)
(2.89156 -0.508597 0.194197)
(2.8039 -0.585516 0.0679672)
(2.81135 -0.616108 -0.00851475)
(2.754 -0.605579 -0.0546978)
(2.50794 -0.391788 -0.0348403)
(3.31504 -0.303658 1.17602)
(3.11598 -0.60462 1.02925)
(3.27589 -0.545397 0.709333)
(3.10421 -0.781851 0.512001)
(3.03862 -1.03948 0.250401)
(2.86921 -1.24766 0.325361)
(2.89261 -0.935373 -0.13492)
(2.85202 -0.768367 -0.135093)
(2.56852 -0.472666 -0.0202525)
(3.39348 -0.740719 1.73859)
(3.40392 -0.860062 1.56356)
(3.59745 -0.247531 1.14812)
(3.22086 -1.39347 0.815905)
(3.29404 -1.36317 0.58033)
(3.36165 -1.36506 0.445148)
(3.11303 -1.59223 0.333987)
(2.90255 -1.69991 0.336985)
(3.03895 -1.09713 0.00756192)
(2.96421 -0.361194 -0.011354)
(3.55345 -0.861735 2.20099)
(3.6317 -0.900731 1.93554)
(3.49277 -1.45674 1.72357)
(3.44196 -1.98556 1.19059)
(3.48771 -1.97394 1.06647)