/*--------------------------------*- C++ -*----------------------------------*\
  =========                 |
  \\      /  F ield         | OpenFOAM: The Open Source CFD Toolbox
   \\    /   O peration     | Website:  https://openfoam.org
    \\  /    A nd           | Version:  7
     \\/     M anipulation  |
\*---------------------------------------------------------------------------*/
FoamFile
{
    version     2.0;
    format      ascii;
    class       volScalarField;
    location    "6.5";
    object      nut;
}
// * * * * * * * * * * * * * * * * * * * * * * * * * * * * * * * * * * * * * //

dimensions      [0 2 -1 0 0 0 0];

internalField   nonuniform List<scalar> 
18750
(
0.00143192
0.00154367
0.00134742
0.00118213
0.00168464
0.00134571
0.00112958
0.000970707
0.00115809
0.000626626
0.00227206
0.00116963
0.00400175
0.00120193
0.000874906
0.000642219
0.000536176
0.000920596
0.00041914
0.000536564
0.00215383
0.00215753
0.0012378
0.0010556
0.00068402
0.0015681
0.00117713
0.000741927
0.000548053
0.000889137
0.000734448
0.00050877
0.000258021
0.000618782
0.000462282
0.00219174
0.00201824
0.00123666
0.00179927
0.00140588
0.000867345
0.00090432
0.0008786
0.00156748
0.00115773
0.00124888
0.00109473
0.000545834
0.000841968
0.000712047
0.000696885
0.000341195
0.000188951
0.000615247
0.000425233
0.000456465
0.00180751
0.00224161
0.00106037
0.00209
0.00158273
0.000455204
0.00207067
0.00151426
0.00133168
0.000537009
0.000962071
0.0015786
0.00181031
0.001661
0.00112729
0.00125576
0.00110143
0.000530524
0.000794526
0.000793355
0.000592401
0.000549273
0.000320136
0.000285389
0.000545295
0.000466126
0.000451227
0.000220413
0.0028014
0.00184023
0.00119883
0.00209762
0.00139985
0.00104982
0.00249863
0.00105921
0.000956197
0.000520785
0.00168384
0.00154889
0.00169748
0.000504049
0.00064322
0.0011039
0.000722757
0.00147356
0.00150225
0.000889825
0.00103696
0.0010586
0.000849322
0.000493547
0.000727777
0.000779228
0.000856766
0.000680337
0.000491913
0.000322745
0.000272442
0.000404319
0.000516371
0.000425209
0.000285209
8.92397e-05
0.00275847
0.00233189
0.000903885
0.00201486
0.00104267
0.000966647
0.00228592
0.00134818
0.000622945
0.000112322
0.00240891
0.00223816
0.0013203
0.000567701
0.000332836
0.00145935
0.00131612
0.000615285
0.000460819
0.000605622
0.00102285
0.000999088
0.00070994
0.00102719
0.00100611
0.00126437
0.00121098
0.000570364
0.000740059
0.000705615
0.000479201
0.000743659
0.000693427
0.00073495
0.000712699
0.00019897
0.000462728
0.000260546
0.000370776
0.000248516
0.000531181
0.000341027
0.0003377
3.82619e-05
6.93567e-05
0.00272944
0.0027034
0.00117532
0.00259259
0.000628323
0.000611599
0.00235458
0.00171686
0.00118308
0.000548914
0.00260277
0.00135365
0.001106
0.000267455
0.00104757
0.00234455
0.00173735
0.00117252
0.000355798
0.000757357
0.000249206
0.00159556
0.000833983
0.000754299
0.000658973
0.000707434
0.000946188
0.000715496
0.000946022
0.00101132
0.00096786
0.000922856
0.00125911
0.00188828
0.000685422
0.000419623
0.000702187
0.000911609
0.000367365
0.000779874
0.000719558
0.000669149
0.000399897
0.000178394
0.000240305
0.000435444
0.000222515
0.000468777
6.82158e-05
0.000557256
0.000320192
0.000402465
0.00010859
2.18953e-05
8.79601e-05
0.00286309
0.00299404
0.00118679
0.00282425
0.000853777
0.00073942
0.00305197
0.00131595
0.00121036
0.000978213
0.00264443
0.0023656
0.00118904
0.000499128
0.000752423
0.00281041
0.00168909
0.00114569
0.000741299
0.000596351
0.00127736
0.00221876
0.00106035
0.00085703
0.000828257
0.000601111
0.000307295
0.000418299
0.00145408
0.000706626
0.00107583
0.000866649
0.000950003
0.0015139
0.000631017
0.000379989
0.00122805
0.00146248
0.000845043
0.00101871
0.00123359
0.00116134
0.000523548
0.000405614
0.000338578
0.000781551
0.000985033
0.000284499
0.000721479
0.000605589
0.00060467
0.000266372
0.000148114
0.000187743
0.000198029
0.00040067
0.00020259
0.000233839
0.000304728
0.000603123
0.000311668
0.000467202
0.000166365
4.25183e-05
0.000101995
0.000127833
0.00246826
0.00271263
0.00101088
0.0029374
0.00106643
0.000840544
0.00261597
0.000822306
0.00101891
0.00102316
0.00303987
0.00100389
0.000817862
0.00109046
0.000998999
0.00313697
0.00213709
0.00183117
0.000881137
0.000521306
0.00118402
0.00283976
0.00132457
0.0019291
0.000630231
0.000854091
0.0009576
0.000760328
0.00205292
0.000736199
0.00117776
0.000840645
0.000605564
0.000364452
0.000264801
0.000663587
0.00127258
0.000664945
0.000606717
0.000790157
0.00100578
0.00101201
0.000868481
0.000448633
0.000644624
0.00124082
0.00123636
0.000795861
0.00102456
0.00112553
0.00131092
0.000485252
0.000379976
0.000244579
0.000283808
0.00121185
0.000781649
0.000493127
0.000531053
0.000646687
0.000539273
0.000361835
0.000134069
0.000162295
0.000243863
0.000308341
0.000379008
0.000257279
0.000373268
0.000327118
0.000577769
0.000328009
0.000514854
0.000231636
1.41544e-05
0.000128584
0.000142792
0.000224716
0.00256054
0.00265816
0.000929274
0.00251491
0.00279353
0.00118932
0.000619908
0.00275622
0.000879382
0.000836837
0.000649117
0.00265852
0.000730575
0.000915617
0.000922971
0.00105569
0.00270963
0.000707957
0.00141348
0.000270899
0.00124318
0.00130528
0.0037377
0.00234917
0.00126063
0.000781031
0.000610537
0.000632098
0.000754519
0.00367772
0.00108636
0.00211349
0.000976643
0.000768082
0.000994513
0.000732765
0.000671296
0.00252266
0.00118313
0.00185831
0.001413
0.000581088
0.000414372
0.000409691
0.000501641
0.000820794
0.00135756
0.00106603
0.000669334
0.000891418
0.00126508
0.000950535
0.000552857
0.00059332
0.000797433
0.000602914
0.00112677
0.000754493
0.000766928
0.00116475
0.00105987
0.000955348
0.000402281
0.000356511
0.000241997
0.000215929
0.00026907
0.00130675
0.000966351
0.000663315
0.000392702
0.000560941
0.000426118
9.13442e-05
0.00022313
0.000152439
0.000300154
0.00028966
0.000293996
0.000427186
0.000348426
0.000381924
0.000299461
0.000556694
0.000379368
0.00051421
0.000232401
7.31547e-05
0.000108734
0.000149108
0.000240596
0.000476198
0.00229042
0.0025675
0.000825216
0.00268267
0.00251914
0.00118953
0.000802184
0.000569303
0.00294966
0.00107123
0.000582927
0.000394711
0.00275215
0.00100538
0.000894182
0.000499937
0.00087893
0.00287632
0.00106408
0.00171605
0.000789776
0.000975112
0.000866617
0.00306844
0.00105158
0.00109147
0.000792645
0.00128173
0.000926974
0.000613612
0.00396507
0.00193767
0.00177051
0.00122725
0.000897162
0.000463073
0.00118007
0.000722189
0.00329012
0.00103879
0.00135074
0.000980175
0.000495361
0.000852924
0.000849704
0.000764331
0.000709477
0.00228521
0.000631566
0.0016566
0.0015844
0.000579264
0.000409251
0.000376856
0.000671005
0.000825267
0.000822768
0.00151014
0.00115574
0.00118349
0.000897645
0.00121685
0.00094157
0.000448102
0.000714514
0.00058742
0.000613806
0.000785607
0.00123627
0.000928475
0.000923259
0.00114809
0.00114403
0.000775463
0.000367329
0.000298009
0.000284585
0.000223562
0.000266496
0.000308273
0.000916875
0.000400456
0.000706107
0.000585677
0.000317317
0.000302687
0.000164476
0.000335858
0.000122784
0.000273199
0.000270363
0.000395683
0.000423341
0.000364518
0.000280639
0.00033096
0.000397974
0.000513257
0.00041525
0.000544775
0.000121249
7.33666e-05
7.88951e-05
0.000176585
0.000265281
0.00060378
0.000271139
0.0024852
0.00237085
0.000604292
0.00227239
0.00257174
0.000432251
0.000688375
0.000915564
0.00262708
0.000431344
0.000863136
0.000466547
0.000681935
0.00294732
0.000854616
0.00099588
0.000378209
0.000507159
0.00289263
0.000667839
0.00111078
0.000932903
0.000555017
0.00106155
0.00266785
0.000723266
0.000707123
0.00109624
0.000815779
0.000507841
0.00106602
0.00336415
0.0014695
0.00142726
0.000691436
0.000383257
0.00075653
0.000728735
0.000585701
0.00431812
0.00172542
0.00133905
0.000895044
0.000630876
0.000790625
0.000733432
0.000299726
0.000632063
0.00329215
0.000666884
0.00101618
0.00107943
0.00094538
0.000834837
0.000824704
0.000416207
0.00073987
0.00111821
0.00222197
0.000411488
0.0015047
0.00140291
0.000443711
0.00052363
0.00050402
0.000645947
0.000568533
0.000920627
0.000883528
0.00151434
0.00107203
0.000813081
0.00103197
0.000958988
0.000792284
0.000392285
0.000752508
0.000532883
0.000499124
0.000675381
0.000510906
0.00117079
0.000999974
0.000918593
0.0011999
0.00099826
0.000564908
0.000372511
0.000256469
0.000251202
0.000248595
0.000207421
0.000587183
0.000597285
0.000708358
0.000413622
0.000782757
0.000810092
0.000273142
0.000228899
0.000143228
0.000314711
0.000105698
0.000234117
0.000249127
0.000228658
0.000213421
0.000217321
0.000346962
0.000234994
0.000290616
0.000373247
0.000459719
0.000455909
0.000460564
0.000190325
3.52002e-05
9.23577e-05
0.000164786
0.000251068
0.00065633
0.000187848
0.000310959
0.00221562
0.00232188
0.0005584
0.00261413
0.00235494
0.000710705
0.000434513
0.000669369
0.00257385
0.000634578
0.000746858
0.00052053
0.000846987
0.00269792
0.000629671
0.00113487
0.000634061
0.000172693
0.000335152
0.00285329
0.00115053
0.00109031
0.000331262
0.000773271
0.000566148
0.00283415
0.000509362
0.000554851
0.000624109
0.00070569
0.00101382
0.00130289
0.00257868
0.000520373
0.00116369
0.00130527
0.000618883
0.000732997
0.000817965
0.000689721
0.00359838
0.0015622
0.00099766
0.000433943
0.000364288
0.000631828
0.00055436
0.000835858
0.000503836
0.00366777
0.0020576
0.00144806
0.00126883
0.000998175
0.000794696
0.000725812
0.000642287
0.000663239
0.000645792
0.00340384
0.000570794
0.00145612
0.00173937
0.00158941
0.00102636
0.000630678
0.00049759
0.000729846
0.000957329
0.00121189
0.00236183
0.000807866
0.000958378
0.0012323
0.000263757
0.000883791
0.000629486
0.000841657
0.000447282
0.000574543
0.00105119
0.00120741
0.00156152
0.0013972
0.000398782
0.00160784
0.00126474
0.00104194
0.000502072
0.000629077
0.000470491
0.000487602
0.000446119
0.00136924
0.0003024
0.00130493
0.00103061
0.000865546
0.00109443
0.00102341
0.000510987
0.000426018
0.00020468
0.00021356
0.000246308
0.000186794
0.000733031
0.000857535
0.000802386
0.000751603
0.000393168
0.00062674
0.000796787
0.000233403
0.000133376
0.0001492
0.000216322
0.00010894
0.000254875
0.000533296
0.000495176
0.000344121
0.000457998
0.000300261
0.000493791
0.000290408
0.000368319
0.000333442
0.000409215
0.000453826
0.000322881
0.000271664
5.75165e-05
0.000142054
0.000161959
0.000320414
0.00066107
0.000144278
0.000299176
9.60681e-05
0.00215466
0.00229139
0.000728831
0.00234851
0.00237314
0.00030188
0.000658234
0.000676589
0.00250503
0.0024234
0.000547496
0.000714336
0.000364097
0.00072377
0.00259884
0.00063426
0.000730765
0.000542186
0.000452935
0.000563673
0.00272502
0.000744675
0.000290043
0.000763692
0.000402871
0.000714565
0.000470829
0.00292443
0.000589453
0.000687472
0.000986566
0.000603558
0.000390331
0.000220763
0.00283131
0.000817205
0.000417876
0.000958499
0.00104491
0.00134807
0.000982781
0.000747019
0.00274509
0.000949203
0.00156319
0.00117049
0.000888246
0.000912101
0.00162325
0.00143295
0.000663371
0.00334433
0.00176969
0.00214653
0.000250964
0.00062102
0.000544221
0.000812669
0.000474163
0.000718138
0.00122115
0.00320153
0.00214033
0.00163424
0.000769926
0.0015729
0.00104402
0.000830481
0.00110747
0.000645974
0.000852726
0.000737057
0.00365516
0.00147338
0.00121655
0.00126948
0.00149842
0.000926291
0.000608383
0.00116583
0.000625849
0.00102621
0.000736844
0.000867691
0.00244037
0.0013165
0.000623536
0.000757326
0.000799173
0.000587979
0.000869317
0.000745343
0.000465528
0.000533389
0.000601716
0.000725303
0.000909616
0.0017651
0.0016117
0.000751336
0.00100154
0.00117212
0.000973079
0.000561446
0.000456465
0.000445994
0.000401096
0.000565274
0.00146492
0.00078813
0.000294211
0.00113349
0.000949933
0.000889626
0.00089841
0.000874809
0.000307155
0.000362455
0.000214439
0.000297527
0.000263067
0.000215002
0.000552789
0.00121199
0.00122376
0.00105031
0.000612792
0.000163335
0.000411381
0.000741898
0.000420201
0.000110671
0.000194989
0.000124556
0.000113455
0.000253616
0.000735178
0.000383345
0.000411137
0.000496977
0.000450303
0.000376129
0.000439071
0.000616445
0.000470868
0.000370558
0.000353381
0.000436133
0.000320544
0.0003408
8.94917e-05
0.000116418
0.000188978
0.00035657
0.000671009
0.000155827
0.000261613
0.00012061
0.000114861
0.00221845
0.00209991
0.000626316
0.00227034
0.00230137
0.00053862
0.000206743
0.000680998
0.00232674
0.00234031
0.000278655
0.000706855
0.000307048
0.000463689
0.000760271
0.00243786
0.000474232
0.000452682
0.000400315
0.000308678
0.000289847
0.00260882
0.000542855
0.000687742
0.000691997
0.000352033
0.000293667
0.00035975
0.00273742
0.000647639
0.000678319
0.000773074
0.000701891
0.000328241
0.000710483
0.000486486
0.0027924
0.000489342
0.000911428
0.000634722
0.000951947
0.000664613
0.00144956
0.00119657
0.00283136
0.000681694
0.000606737
0.000510906
0.000970108
0.0016544
0.0017865
0.00173503
0.00121681
0.00319715
0.00106142
0.00158852
0.00121797
0.000974402
0.00124098
0.00120898
0.00122714
0.000857336
0.0011384
0.00323206
0.00252676
0.00208464
0.00141772
0.000477721
0.000660654
0.000346393
0.000329559
0.000524591
0.000351511
0.00110237
0.00386987
0.00317782
0.000485486
0.000801337
0.00112285
0.000553857
0.000988829
0.0006891
0.000644832
0.0002515
0.000847773
0.000962804
0.0035627
0.00221378
0.000437857
0.000919106
0.000953272
0.000603901
0.000898996
0.0008007
0.000652058
0.000667982
0.000888275
0.000483513
0.000295144
0.00212878
0.00137041
0.00116953
0.000614089
0.000884558
0.000994218
0.000880252
0.000718954
0.000466396
0.000674548
0.000746767
0.000852734
0.000700343
0.000903523
0.00187167
0.00186712
0.00117091
0.0011681
0.000933651
0.000663426
0.000472859
0.000383886
0.000421144
0.000359067
0.000368802
0.000920075
0.000868424
0.0009915
0.00026185
0.00155585
0.00108635
0.000965892
0.000809414
0.000776855
0.000639633
0.00034097
0.000199052
0.000272271
0.000278618
0.000286094
0.000608992
0.000769533
0.00128587
0.000540753
0.00116615
0.000531165
0.000270361
0.000307621
0.000739595
0.000669096
0.000173677
0.000210872
9.44678e-05
0.00011977
0.000233496
0.000425365
0.000695228
0.000386402
0.000679496
0.000595865
0.000423635
0.000399281
0.000396386
0.000725608
0.000256451
0.000410281
0.000332068
0.000406689
0.000350835
0.00036397
8.7918e-05
6.82429e-05
0.000161508
0.000354299
0.000608295
0.000209362
0.000199846
0.000104119
0.000121254
0.000186393
0.00213223
0.0022116
0.000518894
0.00235057
0.00210034
0.000538174
0.000543839
0.000493865
0.00238503
0.00226397
0.00041055
0.000391262
0.000217923
0.000407071
0.000491972
0.00234048
0.000354197
0.0005102
0.000612103
0.000181668
0.000328015
0.000590209
0.00248493
0.00054574
0.000495865
0.000608548
0.000309742
0.000432327
0.000495208
0.00253558
0.000558071
0.000813069
0.000565835
0.000609176
0.000532536
0.000267609
0.000821299
0.00271841
0.000616667
0.000906443
0.000684364
0.000654314
0.000436392
0.000816229
0.00117633
0.000678693
0.00263437
0.000690537
0.000544739
0.000662543
0.000590958
0.000863144
0.000742962
0.00111
0.000745297
0.00283649
0.000503859
0.000402939
0.00154761
0.00118416
0.00137713
0.001269
0.000951229
0.000619021
0.000545957
0.00273893
0.000846849
0.0011014
0.00223088
0.00145179
0.00141474
0.00149635
0.00107702
0.000786091
0.000528373
0.000574876
0.00277683
0.00237426
0.00207753
0.00168614
0.00104788
0.000578888
0.000411305
0.000691576
0.000760208
0.000901897
0.000669663
0.00110274
0.00417846
0.00180136
0.0014449
0.000726953
0.000882295
0.000985024
0.000372032
0.000778046
0.000892733
0.000793642
0.000906982
0.00117924
0.000607537
0.00323109
0.00128352
0.000783244
0.000434987
0.000513948
0.000867832
0.00109973
0.000695294
0.000419332
0.000795778
0.000861328
0.00120521
0.000493256
0.000484331
0.00195346
0.0016338
0.00169445
0.00080891
0.000699419
0.000885502
0.000689179
0.000592325
0.000570375
0.000677144
0.000839721
0.000882058
0.000563897
0.000605671
0.000738871
0.00237804
0.0017177
0.00120659
0.000943784
0.000923427
0.000727182
0.000452832
0.000347398
0.000375986
0.000377323
0.000610475
0.000536795
0.000773711
0.000884866
0.000842359
0.000400499
0.00156467
0.0011548
0.000955972
0.000941879
0.000437959
0.000271658
0.000340742
0.000178391
0.000270914
0.000303042
0.000388519
0.000486299
0.000460721
0.000519513
0.000310699
0.00062619
0.000507662
0.000551229
0.000360362
0.000434749
0.00073631
0.000701748
0.000159827
0.000183297
0.000110252
0.000109241
0.000195124
0.000346424
0.000492661
0.000365971
0.000601258
0.000520898
0.00039436
0.000415061
0.00029737
0.000488383
0.000216097
0.000329171
0.000383746
0.000297005
0.000368952
0.000405261
0.000354538
0.000109699
6.93659e-05
0.000206301
0.000454966
0.000432621
0.000206844
0.000227799
0.000107685
0.000130971
0.000193319
0.000313913
0.00228216
0.00216847
0.00066037
0.00220007
0.00219904
0.000686994
0.000188377
0.000473464
0.00226375
0.00210682
0.000342442
0.00055892
0.000201642
0.000523006
0.000305319
0.00233106
0.000376084
0.000408884
0.000476709
0.000261094
0.000480451
0.000328201
0.00233925
0.000367635
0.000558662
0.000772222
0.000409134
0.000279485
0.000199949
0.000244124
0.00245045
0.000532885
0.000582787
0.000755409
0.000486483
0.000222317
0.000286694
0.000395346
0.00264075
0.000540507
0.000683325
0.000944878
0.000427506
0.000413177
0.000519076
0.000448391
0.000521374
0.00269471
0.000623898
0.000332883
0.000684958
0.00060164
0.00062077
0.000606649
0.000567312
0.000837348
0.000979148
0.00273851
0.000541156
0.000489446
0.000460043
0.00089807
0.000841465
0.000637717
0.000723306
0.00101392
0.000838477
0.00298278
0.00059695
0.000706831
0.00055405
0.0014105
0.00113823
0.00155243
0.00136984
0.000746249
0.00101295
0.000771798
0.00311058
0.00144935
0.00127075
0.00191797
0.00218749
0.00168093
0.00164816
0.00178604
0.000787392
0.000940815
0.000815675
0.000558203
0.00328162
0.00151385
0.00211703
0.00246638
0.00200439
0.00100279
0.00112262
0.000682242
0.000599265
0.00111859
0.000736274
0.0010147
0.000986758
0.00383587
0.00152304
0.00120301
0.000612501
0.000456804
0.000587874
0.000658349
0.000757358
0.000953113
0.000724588
0.000607434
0.00108034
0.00105111
0.000551311
0.00247975
0.000970971
0.000509841
0.000646745
0.00143854
0.00126365
0.000632573
0.0014132
0.000347591
0.000412483
0.000907774
0.000584514
0.000587005
0.000923225
0.000435046
0.00172542
0.00172623
0.00149237
0.00121136
0.00136815
0.00126285
0.000323642
0.000562894
0.00050796
0.000378647
0.000605021
0.00045089
0.000624095
0.000904187
0.000785537
0.000726645
0.00160082
0.00183742
0.00137849
0.000908518
0.00107813
0.000667157
0.000692003
0.000383442
0.000382803
0.000366385
0.000553048
0.000831909
0.000708933
0.000622482
0.000869804
0.000936661
0.000533554
0.00199391
0.00100465
0.00103335
0.00100791
0.000548124
0.000394733
0.000306777
0.000215586
0.000298149
0.00029222
0.000394022
0.000391799
0.000579618
0.000349446
0.000453328
0.000355568
0.000226397
0.000785621
0.000629814
0.000589907
0.000535111
0.000658737
0.000745511
9.26426e-05
0.000171684
0.00010627
9.63648e-05
0.000208216
0.000259861
0.000502445
0.000454146
0.000402164
0.000387128
0.00036615
0.000304826
0.000282467
0.000477737
0.000609597
0.00016928
0.000608662
0.000424474
0.000271988
0.000336771
0.000422969
0.00020102
0.000161436
4.76967e-05
0.000289538
0.000511246
0.000135528
0.000120906
0.000179978
0.000215883
0.000128133
0.000198118
0.000315039
0.00029762
0.0021061
0.0022556
0.000440669
0.00236346
0.00218945
0.000620836
0.000210301
0.000564454
0.00216455
0.00220772
0.000768618
0.000325766
0.000398944
0.000374285
0.000668806
0.00223365
0.00035386
0.000513951
0.000502634
0.000148536
0.000443805
0.000889365
0.00234926
0.000463186
0.000381669
0.000264033
0.000295052
0.000425803
0.000256406
0.000343707
0.00237143
0.000379106
0.000552291
0.000474698
0.000451199
0.000339374
0.000505421
0.000316349
0.000281647
0.0024479
0.000686091
0.000407707
0.000803886
0.000350114
0.000262343
0.000585954
0.000689166
0.000301257
0.00269176
0.000445004
0.000400071
0.000899331
0.00067611
0.000567891
0.000559185
0.000603901
0.000745433
0.000566481
0.00283112
0.000943017
0.000384792
0.000769725
0.00093185
0.000767822
0.000633711
0.000479288
0.000874145
0.000718131
0.000669856
0.00291003
0.000794972
0.000894021
0.000637656
0.000666985
0.000691581
0.000846372
0.000674226
0.000672435
0.000645624
0.000845879
0.00266657
0.000951803
0.00102348
0.000729754
0.000825147
0.00101342
0.000888988
0.000729973
0.000995525
0.000617525
0.00104958
0.000761698
0.00302768
0.00155789
0.00128698
0.000930915
0.00149021
0.00147509
0.00122315
0.00107344
0.00113562
0.000846199
0.000971326
0.000919337
0.000738876
0.00313396
0.00144432
0.00243222
0.00169081
0.00143794
0.000311037
0.000850628
0.00147305
0.000667565
0.000977688
0.00109339
0.00108247
0.00069766
0.00128245
0.00312063
0.00308412
0.0011556
0.000750793
0.000342304
0.000769933
0.000431565
0.000678596
0.000662242
0.000408291
0.000868547
0.000514168
0.000659799
0.000540082
0.000386044
0.00167652
0.000931461
0.000553975
0.000907625
0.000977988
0.00125342
0.000885886
0.000569291
0.000955382
0.000412481
0.000880192
0.000539742
0.000600492
0.000908276
0.000515056
0.000568832
0.00241432
0.0012426
0.00173963
0.00157553
0.000947244
0.000855061
0.000780613
0.000785139
0.000584982
0.000367213
0.000788834
0.00101308
0.000909999
0.000550292
0.000895677
0.00116073
0.00103995
0.00243103
0.00127487
0.00195113
0.00102179
0.000849248
0.000421298
0.000755258
0.000467729
0.000441459
0.000434494
0.000535915
0.000714727
0.000440114
0.00063137
0.00030852
0.00109069
0.00104213
0.000870414
0.00129786
0.00138782
0.0010136
0.000975427
0.000983067
0.000620339
0.00032023
0.000246981
0.00033241
0.000264856
0.000422108
0.000367903
0.000430928
0.000338112
0.000381921
0.000512088
0.000280995
0.000663014
0.000408806
0.000543499
0.000687742
0.000613346
0.000614221
0.000735858
0.00028229
0.000208961
0.000138735
8.9425e-05
0.00018938
0.000226348
0.000456583
0.000488748
0.000325788
0.000344877
0.000364149
0.000309354
0.000250034
0.000446889
0.00051883
0.000502752
0.000313754
0.000271327
0.000417471
0.000255467
0.000332266
0.00041106
0.000146259
0.000119872
6.11718e-05
0.000246593
0.000507632
0.0002913
9.48829e-05
0.000197333
0.000244844
0.000146956
0.000201331
0.000313337
0.000227195
0.000295897
0.00217939
0.00214837
0.000594189
0.00220609
0.00219329
0.000400382
0.000707624
0.000333622
0.00230254
0.00221881
0.000404446
0.000212117
0.000231109
0.000216252
0.000577839
0.0022493
0.000673344
0.000396659
0.000336838
0.000401241
0.000515832
0.000490539
0.0022714
0.000521488
0.000510937
0.000440548
0.0001393
0.000259796
8.55846e-05
0.000540822
0.00240382
0.000316634
0.000534359
0.000363704
0.000255611
0.0004808
0.00031032
0.000511305
0.000292778
0.00238714
0.000261366
0.000530084
0.000390035
0.000403523
0.000637302
0.000261096
0.000482065
0.000290344
0.000362353
0.00245239
0.000514787
0.000943015
0.000534814
0.000608626
0.000481876
0.000340345
0.000431601
0.000647594
0.000606182
0.00272183
0.000724547
0.001203
0.000638641
0.000726129
0.00057741
0.000497232
0.00045966
0.000521906
0.00066574
0.000702696
0.00257735
0.000796859
0.000690648
0.000591543
0.000666317
0.000530454
0.000693688
0.000709646
0.000618684
0.000715677
0.000844107
0.00069493
0.00301187
0.000734645
0.000650771
0.00074119
0.00077818
0.000596946
0.000824095
0.00071902
0.000676746
0.00067107
0.000507537
0.000513896
0.00255873
0.000845417
0.000568428
0.000945275
0.00101746
0.00128027
0.00101445
0.000717754
0.00102436
0.000973676
0.000758934
0.000760731
0.000729464
0.00269736
0.00117779
0.00128286
0.000854153
0.0011696
0.0017796
0.0011813
0.00044753
0.000835732
0.000599552
0.000705507
0.000909787
0.000636443
0.00094285
0.00302485
0.00146657
0.0028233
0.000824942
0.00135336
0.000934002
0.000986854
0.00069063
0.00100767
0.000739943
0.000907878
0.000690501
0.00064279
0.000592716
0.00105007
0.00277806
0.00226648
0.00077028
0.00059388
0.000927216
0.000486834
0.000838763
0.00127601
0.000658324
0.000543188
0.000596684
0.000765751
0.000443332
0.000268083
0.0005212
0.000276445
0.00166484
0.00133274
0.000650892
0.000840504
0.00117458
0.00108499
0.000659285
0.0010613
0.000520993
0.00114794
0.000677636
0.000758554
0.000567903
0.000446301
0.00092543
0.000638092
0.000641212
0.00129382
0.00135221
0.00182404
0.00165974
0.0010497
0.000593803
0.000798291
0.000794828
0.000665939
0.000884651
0.000954236
0.000742282
0.000618888
0.000515155
0.000954966
0.000713957
0.000848182
0.00117877
0.00280017
0.00225638
0.00150976
0.00125402
0.00107802
0.000577445
0.000612486
0.000534949
0.00041365
0.000425114
0.00046915
0.000527183
0.000477673
0.000455645
0.000307956
0.000289764
0.00079261
0.000561766
0.000627315
0.000925624
0.000329225
0.000698504
0.000967764
0.0011554
0.000984869
0.000204514
0.000282982
0.000314596
0.00030341
0.000393835
0.000377956
0.000414634
0.000226477
0.000428733
0.000451427
0.000393721
0.000582321
0.000528422
0.000411231
0.000556489
0.000693565
0.000655187
0.00055847
0.000682367
0.000495125
0.000223688
8.91242e-05
8.93563e-05
0.000159295
0.000311756
0.000360074
0.000478195
0.000266835
0.000355926
0.000221817
0.000283462
0.000242753
0.000249686
0.000454209
0.000441736
0.000291961
0.000471592
0.00017525
0.000309354
0.000298123
0.000307052
0.000394871
0.00029377
6.1089e-05
0.000113328
0.000211259
0.000473704
0.000253557
0.000107698
0.000251005
0.000227081
0.000173016
0.000200412
0.000330216
0.000228441
0.000187852
0.00045258
0.00198205
0.00212851
0.000314953
0.0023606
0.00217385
0.000466031
0.000263459
0.000378907
0.0021987
0.00223803
0.000460014
0.000685306
0.000146371
0.000615967
0.00027065
0.00217997
0.000591748
0.000213649
0.000283605
9.71669e-05
0.000151379
0.000112555
0.00228295
0.000479242
0.000683389
0.000246993
0.000257347
0.000578183
0.000464521
0.000593997
0.00223177
0.000508343
0.000459976
0.000332537
0.000251251
0.000388089
0.000407408
0.000383083
0.000381233
0.00234713
0.000303211
0.000559501
0.000393378
0.000144866
0.000228445
0.000387267
0.000550528
0.000463028
0.000332105
0.00230052
0.000546552
0.000484995
0.000544871
0.000375127
0.000475962
0.000387947
0.000518331
0.000339121
0.000458553
0.000300207
0.0024611
0.000497082
0.000818912
0.000644192
0.0006151
0.000419313
0.000434962
0.00017666
0.00054955
0.000792763
0.000719889
0.00264012
0.000735451
0.00100521
0.000786645
0.000591536
0.000453405
0.000524351
0.000661029
0.000571202
0.000977051
0.00137259
0.00087801
0.0025911
0.00059555
0.000835035
0.000400508
0.000874406
0.000745984
0.000445429
0.000680206
0.000750428
0.00101136
0.00101083
0.000972005
0.000643992
0.00303848
0.000781107
0.000797832
0.000424883
0.00113872
0.000915273
0.000750176
0.000664198
0.000831757
0.00120772
0.000889119
0.000744196
0.00073259
0.00279769
0.00060085
0.000696524
0.00110944
0.0011747
0.0007694
0.00103379
0.00101591
0.000811684
0.00100225
0.000964731
0.000946739
0.000703383
0.00057694
0.00278761
0.00088223
0.000913593
0.001331
0.00120471
0.000751881
0.00161407
0.00166866
0.000409416
0.000436574
0.000678969
0.000874224
0.000548467
0.000577615
0.000793666
0.00311064
0.00148164
0.00188008
0.00172135
0.000926277
0.000925549
0.00164075
0.00211707
0.000679419
0.00050254
0.000700423
0.000511485
0.000992063
0.000468336
0.000366658
0.000585745
0.00246582
0.00141578
0.000776543
0.00101542
0.000967718
0.00132799
0.000680009
0.0010041
0.00079703
0.000318321
0.000642122
0.000646514
0.000427772
0.000365013
0.000508968
0.000464264
0.000385689
0.00235764
0.00159974
0.000860133
0.000963662
0.000989034
0.00134124
0.00107786
0.00159984
0.000885237
0.000920041
0.000731929
0.000822127
0.000655083
0.000672201
0.000816308
0.000763789
0.000804964
0.000490391
0.00167022
0.0009754
0.00125283
0.00191905
0.00112215
0.0013475
0.000575974
0.00111611
0.000970437
0.000289623
0.000706797
0.00088323
0.00056426
0.00042203
0.000739935
0.000711194
0.000599248
0.000908339
0.00103573
0.0021945
0.00281485
0.00196202
0.00098326
0.00100489
0.000345358
0.000531841
0.000679722
0.000422796
0.000341906
0.000590492
0.000458922
0.000531877
0.000504322
0.000454582
0.000267042
0.000542125
0.000973123
0.00099032
0.00170239
0.00205017
0.00059801
0.000411461
0.000792941
0.00104665
0.00138535
0.000161155
0.000208099
0.000296639
0.000290323
0.000428185
0.00043472
0.000809117
0.000263214
0.000437828
0.000468148
0.000381699
0.000448121
0.000686854
0.000612924
0.000547208
0.000803395
0.000498747
0.000338081
0.000495633
0.000634652
0.000658973
0.00020006
8.32761e-05
0.000114021
0.000146418
0.000371125
0.000299801
0.000402354
0.000332785
0.000347025
0.000237749
0.00029379
0.000233064
0.000382792
0.0004309
0.000252427
0.00013282
0.000341353
0.000441963
0.000223891
0.000293885
0.000392754
0.000293892
0.000355734
0.000342207
0.000116359
0.000172488
0.000306715
0.000395489
0.000108333
0.000110785
0.000263793
0.000228722
0.000176426
0.000197136
0.000321533
0.000189764
9.88782e-05
0.000406342
0.000376965
0.00194249
0.00200089
0.000434157
0.00214869
0.00213513
0.000352516
0.000442844
0.000525253
0.00235481
0.00217828
0.000363465
0.000209781
0.000613809
0.000616888
0.000382102
0.00219577
0.000390924
0.000424899
0.000272848
0.000306499
0.000370206
0.000466741
0.00212505
0.000553737
0.000169685
0.000300059
0.000351797
0.000353245
0.000355572
0.000302144
0.00231676
0.000438829
0.000690035
0.00035709
0.000344102
0.000557425
0.000368985
0.000393257
0.000297709
0.00224844
0.00050244
0.000181932
0.000465893
0.000289927
0.000453837
0.000567059
0.000507217
0.000530796
0.000493015
0.00246948
0.000356856
0.000442566
0.000592046
0.00035483
0.000349116
0.000568909
0.00062647
0.000530537
0.000685309
0.00036541
0.00233899
0.000463687
0.000186765
0.000505111
0.000621123
0.000374089
0.000458685
0.000580492
0.000376216
0.000870624
0.000699559
0.000627371
0.00246399
0.000471637
0.000329463
0.000629856
0.000653665
0.000449721
0.00032073
0.000354146
0.00056854
0.00102346
0.000758936
0.000735299
0.00266151
0.00072864
0.000645335
0.000526315
0.000708765
0.000665527
0.000531751
0.000701116
0.000665856
0.000759626
0.000633909
0.000839949
0.000813842
0.00267723
0.000689756
0.000527796
0.00038283
0.000591406
0.000798876
0.000690126
0.000542119
0.000640732
0.000821956
0.00107161
0.00114301
0.00117733
0.000858062
0.00285758
0.000989939
0.000606667
0.000669947
0.000698429
0.000989986
0.000949245
0.000644674
0.000776468
0.000692701
0.00118928
0.00100165
0.000960103
0.000723045
0.00275794
0.000969336