/*--------------------------------*- C++ -*----------------------------------*\
  =========                 |
  \\      /  F ield         | OpenFOAM: The Open Source CFD Toolbox
   \\    /   O peration     | Website:  https://openfoam.org
    \\  /    A nd           | Version:  7
     \\/     M anipulation  |
\*---------------------------------------------------------------------------*/
FoamFile
{
    version     2.0;
    format      ascii;
    class       surfaceScalarField;
    location    "6.5";
    object      phi_0;
}
// * * * * * * * * * * * * * * * * * * * * * * * * * * * * * * * * * * * * * //

dimensions      [0 3 -1 0 0 0 0];

internalField   nonuniform List<scalar> 
54095
(
0.000329046
6.06956e-05
-4.26514e-05
0.000410353
0.00084783
-0.000155867
0.000326842
-0.000236573
-2.95729e-05
0.00033308
-0.000248853
-7.66074e-05
0.000285627
0.0031729
2.83706e-05
0.000453749
0.000872429
-0.000151506
0.000384245
0.000773215
-0.000229308
0.000314657
-0.000530259
-2.09716e-05
0.000322737
-0.000532061
-6.91016e-05
0.000150123
-0.000864176
-8.87059e-05
7.32963e-06
0.00567636
0.000574218
0.000459534
0.00312152
4.55878e-05
0.000406743
0.00267732
0.000306904
0.000470076
0.000867833
-0.000150823
0.000434121
0.000733563
-0.000223237
0.000117532
6.91477e-06
-0.000279316
0.000297368
-0.000808053
-1.95737e-05
0.000302471
-0.000789234
-6.62691e-05
0.000141948
-0.000992257
-8.29696e-05
0.000101322
-0.000713838
-0.000101816
-0.000476023
0.00634268
0.000333154
0.000372859
0.00532586
0.000437176
0.000261518
0.00392665
0.000954607
0.000494659
0.00303973
5.72059e-05
0.000463216
0.00248598
0.000207828
9.0316e-05
-0.00024023
0.00042277
0.000462359
0.000856145
-0.000153304
0.000465266
0.000642068
-0.000222123
0.000111254
8.88425e-05
-0.00027447
8.5842e-05
-0.000380867
-0.00029109
0.000282
-0.00106612
-2.3929e-05
0.000273508
-0.00101534
-6.69805e-05
0.000138474
-0.00111837
-7.86275e-05
0.000103373
-0.000804078
-9.61023e-05
5.52231e-05
-0.000391556
-8.67497e-05
-0.000307113
0.00572003
7.02039e-05
-0.000120948
0.00647872
0.000357766
-4.38694e-05
0.00543526
0.000776549
0.000500119
0.00494384
0.000376558
0.000462899
0.00340305
0.000961089
0.000116812
0.00374345
0.0010477
0.000554252
0.00289697
5.08693e-05
0.000571223
0.00231149
0.000125738
9.15279e-05
-0.000296396
0.00028372
-5.09305e-05
0.000996114
0.000411974
0.000439809
0.000857859
-0.000159523
0.000456954
0.000526266
-0.000220947
0.000127567
0.000142641
-0.000265015
9.80192e-05
-0.000356505
-0.000293478
-3.20505e-05
0.000420082
-0.000223211
0.000266495
-0.00130194
-3.0683e-05
0.000250636
-0.00122201
-6.78928e-05
0.000139232
-0.00124971
-7.48756e-05
0.000103294
-0.000895864
-9.01359e-05
6.03774e-05
-0.000460624
-8.7411e-05
1.47216e-05
0.000172881
-6.06386e-05
-0.000264379
0.00376761
0.000218108
-3.90075e-05
0.00558743
5.06598e-05
-0.000415801
0.0065703
0.000607544
0.000135567
0.00648752
0.000355755
6.63935e-05
0.00537615
0.000813386
6.48803e-05
0.00556094
0.000911756
0.000706002
0.00442425
0.000367846
0.000630774
0.0028269
0.000893158
0.000169153
0.00357323
0.00105369
-1.8688e-06
0.00413676
0.000888687
0.000614602
0.00269019
3.19944e-05
0.00063921
0.00216062
1.94876e-05
0.000193045
-0.000334706
9.85699e-05
-3.992e-05
0.00113533
0.000282439
-6.1584e-05
0.00219957
0.000147806
0.000418912
0.000863177
-0.000157734
0.000420802
0.000411139
-0.000214561
0.000160038
0.000153049
-0.000252161
9.52132e-05
-0.000326697
-0.000286741
-3.87107e-05
0.000451549
-0.000225857
-7.75811e-05
0.000821893
-0.000160872
0.000248334
-0.00151686
-3.34098e-05
0.000233841
-0.0014175
-6.90354e-05
0.000140376
-0.00138685
-7.1127e-05
9.98757e-05
-0.000986362
-8.42524e-05
6.26448e-05
-0.000525834
-8.75712e-05
2.56456e-05
0.000124849
-6.50253e-05
-1.66774e-06
0.000585315
-4.3892e-05
-0.00123048
0.00463437
0.000557732
-0.000180319
0.00367688
0.000232045
-0.000918978
0.00516761
0.00076732
0.000170064
0.00552979
2.31427e-05
-0.00042649
0.00644848
0.000665365
2.90512e-05
0.00614671
0.00102215
0.000461391
0.00632941
0.000402716
0.00055706
0.00493679
0.000868831
0.000194863
0.00535443
0.00099419
0.000121758
0.00542967
0.000832592
0.000858155
0.0038831
0.000297595
0.000689225
0.00237013
0.000774604
0.000411557
0.00320847
0.00103941
3.64836e-05
0.00423707
0.00087697
-4.39956e-06
0.00433015
0.000731643
0.00065253
0.00246666
-1.00963e-05
0.00067886
0.00197032
-3.57619e-05
0.000267936
-0.000376148
-4.69684e-05
-6.81588e-05
0.00126923
0.000128046
-9.73872e-05
0.00242293
0.000117756
-5.4164e-05
0.00228499
-0.000125686
0.000388621
0.000865148
-0.000142258
0.000374409
0.000310255
-0.000197419
0.000176648
0.000134277
-0.000232061
9.54423e-05
-0.00029864
-0.000275785
-3.18231e-05
0.000482666
-0.000223391
-8.88054e-05
0.000873467
-0.000162981
2.57977e-05
0.00119656
-0.000123772
0.000232915
-0.00171434
-3.54385e-05
0.000219149
-0.00160125
-6.88093e-05
0.000139557
-0.00152702
-6.84272e-05
9.33906e-05
-0.00107218
-7.87042e-05
6.33342e-05
-0.000586465
-8.69551e-05
3.84377e-05
6.82696e-05
-6.94293e-05
8.8813e-06
0.000557277
-4.5868e-05
-6.86992e-06
0.00101812
-3.50674e-05
-0.00184297
0.00432023
0.000389464
-0.000947653
0.0047982
0.000603499
-0.000937692
0.00519497
0.000776199
-0.000154056
0.00377185
0.000229148
-0.000835703
0.00501875
0.000790115
-0.00026447
0.00612675
0.00113801
0.000225902
0.00561169
0.000153586
0.000349332
0.00607467
0.000604678
0.000134776
0.00581522
0.00105694
0.000269909
0.00629565
0.000991207
0.000767367
0.0060251
0.000395095
0.000695273
0.00443905
0.000894403
0.000474574
0.00506867
0.00109157
0.0001578
0.00539524
0.000907306
0.000106462
0.00518826
0.00077518
0.000892493
0.00338707
0.000256069
0.000880988
0.00184862
0.000616976
0.000541921
0.00274472
0.000964363
5.11526e-05
0.00427908
0.000878091
9.15685e-05
0.00432265
0.000695519
0.000200511
0.00399437
0.000460589
0.000652996
0.00228199
-7.97042e-05
0.000701918
0.0017273
-9.45866e-05
0.000225754
-0.000304287
-0.000156729
-6.07475e-05
0.0013855
-7.04868e-06
-7.81367e-05
0.00260795
-1.06628e-05
-7.09217e-05
0.00247353
-8.86712e-05
6.77779e-05
0.00157698
-0.00020256
0.000354589
0.00086564
-0.000122167
0.000334875
0.000222756
-0.000170485
0.000181476
0.000100043
-0.000205105
8.56042e-05
-0.000263041
-0.000259874
-1.0009e-05
0.000496701
-0.000216477
-1.53677e-05
0.000864526
-0.000160644
7.05891e-05
0.00110002
-0.000128143
1.84372e-05
0.00139248
-9.86082e-05
0.000224806
-0.00190239
-3.67538e-05
0.000213373
-0.00177948
-7.05811e-05
0.000137696
-0.00166712
-6.63979e-05
8.50143e-05
-0.00115154
-7.40815e-05
6.26282e-05
-0.000642936
-8.4862e-05
4.95697e-05
5.10124e-06
-7.33564e-05
1.84938e-05
0.000516917
-4.75635e-05
-3.30475e-08
0.00100739
-3.51005e-05
5.14939e-07
0.00102806
-3.47837e-05
-0.00200372
0.00362504
2.68323e-06
-0.001538
0.0045187
0.000391872
-0.000721991
0.00571558
0.000392556
-0.000929568
0.0049306
0.000643122
-0.000979461
0.00510118
0.000841044
-0.000215899
0.00560681
0.000857419
-0.000302081
0.00400257
0.000297266
-0.000420451
0.00513298
0.000884709
-0.000299897
0.00618599
0.00116555
7.18791e-05
0.00637129
0.00119445
0.000310182
0.00581776
0.000251112
0.000179493
0.00605778
0.000686258
0.000184642
0.00565987
0.00104996
0.000369264
0.00606993
0.00107119
0.000601745
0.00606108
0.000972184
0.00103237
0.00549215
0.000393076
0.00103903
0.00388011
0.000796001
0.000683341
0.00477477
0.00104688
0.00022228
0.00534281
0.000972881
0.00025022
0.00512315
0.000813765
0.000340861
0.00416583
0.000790757
0.000910384
0.00291123
0.000218451
0.000937339
0.00132922
0.00054005
0.000521709
0.00221968
0.000846064
0.000124718
0.00417944
0.000878534
0.000204942
0.00426377
0.000653892
0.000267535
0.00389728
0.000454155
0.000134436
0.00308241
0.000227232
0.000624979
0.00215711
-0.000145505
0.000652228
0.00148716
-0.000156916
0.000192715
-0.000150439
-0.000259674
-3.90452e-05
0.00145081
-9.73936e-05
-5.313e-05
0.00277233
-0.000128305
3.08069e-05
0.00259775
-0.000181049
0.000113834
0.00164065
-0.000195593
-7.95736e-05
0.00162191
-0.000161345
0.000339677
0.000841264
-9.04954e-05
0.000331864
0.000131817
-0.000149719
0.000183808
6.13558e-05
-0.000177909
7.84019e-05
-0.000223788
-0.000237744
6.72946e-06
0.000494111
-0.000201384
2.31775e-05
0.000827178
-0.000152737
0.000111058
0.000976648
-0.000129837
2.52744e-05
0.00133703
-9.7999e-05
4.45341e-05
0.000794526
-7.66207e-05
0.000221244
-0.00208623
-3.74012e-05
0.000219182
-0.00196443
-7.09793e-05
0.000136164
-0.00180732
-6.6548e-05
7.56507e-05
-0.00122318
-7.04078e-05
6.2229e-05
-0.000697926
-8.13202e-05
5.88196e-05
-6.24505e-05
-7.61298e-05
2.17025e-05
0.000470827
-4.89684e-05
2.34023e-06
0.000992478
-3.49924e-05
3.98819e-06
0.00102398
-3.50167e-05
6.28189e-06
0.00102582
-4.63728e-05
-0.00155113
0.00319929
-1.11637e-05
-0.00203306
0.00399894
0.000121158
-0.000969402
0.00520303
0.000238537
-0.00129653
0.00466962
0.000216047
-0.000970502
0.00560754
0.00049095
-0.000290912
0.00589249
0.000347007
-0.000964918
0.00506331
0.000530119
-0.00110879
0.00528505
0.00114758
-0.000410177
0.00568145
0.000876683
-1.44057e-05
0.00652494
0.000895574
-0.000515551
0.00454483
0.000283468
-0.000963097
0.00577835
0.000794477
-0.000507405
0.00659972
0.00116303
0.000142603
0.00642983
0.00133367
0.000882252
0.00635247
0.00111628
0.00058744
0.00593435
0.00032834
0.000329915
0.00593123
0.00108678
0.000591286
0.00541551
0.00102267
0.000514249
0.00568509
0.00114283
0.000576613
0.00567681
0.00112907
0.000850006
0.00503551
0.00112082
0.00124187
0.00475377
0.000406904
0.00103706
0.00351576
0.0006577
0.000589321
0.00446376
0.00103941
0.00040235
0.00515114
0.000960914
0.000418922
0.00500788
0.000874171
0.000429849
0.00397659
0.000840691
6.81901e-05
0.00329826
0.000724472
0.000888109
0.00242772
0.000220381
0.000892649
0.000864603
0.000442646
0.000437052
0.0017104
0.000804995
0.000242023
0.00390353
0.000840906
0.000246736
0.00425395
0.00058848
0.000305739
0.00385663
0.000419609
0.000178593
0.00323431
0.0002375
-0.000134971
0.0024898
0.000200215
0.000587566
0.00213828
-0.000229058
0.000599629
0.00128578
-0.000211888
0.000204282
1.13892e-05
-0.000339218
-4.05724e-05
0.0015275
-0.000217389
-5.01277e-05
0.00291721
-0.000185415
0.000137665
0.00255711
-0.000202158
7.74301e-05
0.00168148
-0.000188251
-7.21629e-05
0.00167761
-0.000153859
3.02993e-06
0.00164309
-0.000103374
0.000337299
0.000796197
-7.09887e-05
0.000330915
5.89731e-05
-0.000129386
0.000185183
2.87888e-05
-0.000166171
7.71275e-05
-0.000190468
-0.000212707
4.43026e-05
0.000453339
-0.000179046
7.37957e-05
0.000749281
-0.000138463
0.000117132
0.000855683
-0.000127201
2.34796e-05
0.00128505
-9.8994e-05
4.83174e-05
0.00072645
-7.42525e-05
6.10411e-05
0.00139429
-4.0333e-05
0.000219036
-0.00226783
-3.74414e-05
0.000224295
-0.00215612
-7.00104e-05
0.000139574
-0.00194912
-6.87576e-05
6.58494e-05
-0.00128789
-6.76799e-05
5.89029e-05
-0.000750705
-7.65319e-05
6.35821e-05
-0.000129802
-7.75509e-05
2.12241e-05
0.000423507
-5.00342e-05
3.00624e-06
0.000974978
-3.44747e-05
7.0809e-06
0.00101699
-3.50772e-05
8.08059e-06
0.00102907
-4.6347e-05
1.47771e-05
0.00101694
-5.2562e-05
-0.00149966
0.00364217
-5.67109e-05
-0.00363693
-0.0019296
0.00314259
-4.67607e-05
-0.00103348
0.00462025
0.000126753
-0.00184689
0.00427955
0.000269751
-0.00121864
0.00529669
0.000275636
-0.00041637
0.00570364
0.000269091
-0.00125869
0.00472083
0.000242563
-0.00121458
0.00565036
0.000279019
-0.000532441
0.00596396
0.000541744
-5.92758e-05
0.00620121
0.000579923
-0.00100578
0.00496304
0.000590503
-0.00147186
0.00544101
0.000882917
-0.000725441
0.00596713
0.00107995
-0.000344661
0.00681059
0.0010783
0.000647456
0.00669604
0.000984152
-0.000715526
0.00546578
0.000382021
-0.000891279
0.00616488
0.00111814
0.0004331
0.00658442
0.000967965
0.000312678
0.00652972
0.0012647
0.00077962
0.00603349
0.00144964
0.00108787
0.00485594
0.00159934
0.000943037
0.0058422
0.000390978
0.000400681
0.00610728
0.000788661
-0.00029786
0.00597578
0.00141369
0.000712054
0.00528752
0.00111054
0.000892379
0.00512154
0.00122465
0.000961271
0.00440708
0.00122607
0.000307544
0.00322585
0.00119655
0.000849644
0.00429792
0.000494314
0.000983426
0.00322792
0.000603976
0.000876766
0.00385058
0.000831166
0.000595159
0.00477146
0.00106595
0.000603995
0.00472073
0.000890811
0.000300606
0.00394625
0.000909639
0.000230073
0.00333558
0.000751894
0.000119111
0.00277747
0.000642043
0.000642849
0.00215896
0.000213474
0.000696308
0.00061574
0.000372564
0.000242449
0.00144371
0.000671168
0.000222975
0.00365706
0.000787919
0.000230555
0.00422044
0.000593739
0.000405582
0.00381731
0.000359882
0.000148053
0.00335209
0.000231205
-8.85326e-05
0.00260998
0.000133689
-0.000122548
0.00217695
0.000142692
0.000525544
0.00216299
-0.000212954
0.000463327
0.00121593
-0.000291624
0.000181836
0.000195843
-0.000392994
4.55166e-06
0.0015419
-0.000281038
5.46224e-05
0.0029537
-0.000264201
0.00016088
0.00251187
-0.000227258
4.98301e-05
0.00172144
-0.00017481
-7.6001e-05
0.00174301
-0.000154166
3.59016e-05
0.00160588
-0.000104237
1.96796e-05
0.00173735
-6.18677e-05
0.000338239
0.000719311
-4.23171e-05
0.000353858
-3.12066e-05
-0.000110371
0.000202092
-8.73813e-06
-0.000154376
7.89174e-05
-0.000178833
-0.000190874
4.32325e-05
0.000411526
-0.000155223
0.000103137
0.000657172
-0.000126492
9.89545e-05
0.000758956
-0.000119466
2.81969e-05
0.00123083
-9.81712e-05
5.09819e-05
0.000658356
-7.48001e-05
6.60675e-05
0.00130229
-4.02365e-05
0.000112186
0.00244589
-4.43809e-05
0.000223648
-0.00245524
-3.62339e-05
0.000224561
-0.00235071
-6.74111e-05
0.000139036
-0.00208999
-6.8178e-05
6.34341e-05
-0.00135384
-6.62461e-05
5.62416e-05
-0.000803364
-7.12619e-05
6.36255e-05
-0.000192116
-7.78437e-05
2.47488e-05
0.000372882
-5.16745e-05
7.3448e-06
0.00095108
-3.34817e-05
1.05156e-05
0.00100654
-3.45416e-05
8.1698e-06
0.00103243
-4.66028e-05
2.1774e-05
0.00100208
-5.32588e-05
1.93764e-05
0.000843026
-5.24236e-05
-0.0014826
0.00307651
-7.19709e-05
-0.00302159
-0.00175154
0.00357772
-0.000113605
-0.00115844
0.00424045
0.000115481
-0.00428768
-0.00182181
-4.92553e-06
-0.00188832
0.00328076
-9.67385e-05
-0.00141405
0.0047012
6.77066e-05
-0.000450799
0.0052249
0.000142088
-0.00168828
0.00438948
0.000319662
-0.00114468
0.00513359
0.000362953
-0.000529886
0.00569126
0.000285461
-0.000193964
0.00537254
0.000426979
-0.00116894
0.00473728
0.000146707
-0.00132932
0.00543073
0.000319658
-0.000827632
0.00564346
0.00070171
-0.00036021
0.0059547
0.000803809
0.000219478
0.0061191
0.00109126
-0.00127727
0.00489689
0.0006279
-0.00147306
0.00568248
0.000930807
-7.77173e-05
0.00640528
0.000955583
0.000430809
0.00663686
0.00113554
0.000612601
0.00670837
0.00123299
0.000587512
0.00640646
0.00132492
-0.000542956
0.00653242
0.000419358
-0.000622887
0.00647756
0.0010929
-0.000952157
0.0068379
0.00151895
0.000435432
0.00642232
0.00135199
0.000728423
0.00599381
0.00146834
0.000896542
0.0046507
0.00171961
0.000577595
0.00439032
0.00179168
0.000317618
0.00590209
0.000472144
0.000450203
0.00635098
0.000680501
0.000653227
0.00602778
0.000960195
0.000618906
0.00543644
0.00124102
0.000845446
0.00475661
0.00123402
0.000744546
0.00404203
0.00114576
0.000505112
0.00305079
0.00112609
0.000322752
0.00317885
0.00117106
0.000242409
0.00410266
0.000595695
0.000843355
0.00301116
0.000564024
0.000744973
0.00308992
0.000862107
0.000735226
0.00416147
0.000928908
0.00057635
0.00444671
0.000994174
0.000419703
0.00390734
0.000915607
0.000132555
0.00347108
0.000789637
8.98242e-05
0.00274704
0.00060397
4.69856e-05
0.00295566
0.00056931
0.000383339
0.00211011
0.000191054
0.000387906
0.000604353
0.000300282
8.28064e-05
0.00138288
0.000532422
0.000177491
0.00351201
0.000643277
0.000351497
0.00422494
0.000486544
0.000346829
0.00387967
0.000345423
0.000126129
0.00340088
0.00023479
-5.60078e-05
0.00271616
0.000105029
1.07118e-05
0.00230636
2.94741e-05
-7.44906e-05
0.00188758
8.76413e-05
0.000427039
0.00228648
-0.000212294
0.000356236
0.00131014
-0.000309539
0.000149159
0.000387692
-0.00043054
0.000101051
0.00147904
-0.000352264
7.86435e-05
0.00292174
-0.000284487
0.000228011
0.00236057
-0.000237775
3.2879e-05
0.00172555
-0.000165292
-5.62488e-05
0.00179615
-0.000143512
4.74068e-05
0.00155915
-0.000103863
5.18961e-05
0.00170898
-6.17037e-05
8.87999e-05
0.00257948
5.83736e-07
0.000367951
0.000563737
1.12706e-05
0.000369265
-0.000134043
-8.41851e-05
0.000231083
-6.9248e-05
-0.000141909
8.9919e-05
-0.000186031
-0.000173663
7.72627e-05
0.000335804
-0.000136173
0.000125568
0.000556022
-0.000116015
8.72808e-05
0.000683453
-0.000113521
3.3736e-05
0.00117918
-9.42118e-05
4.72166e-05
0.000603454
-7.99707e-05
6.73882e-05
0.00120936
-4.10902e-05
0.000141507
0.00233553
-4.96092e-05
0.000124759
0.00260877
-9.7405e-05
0.000223657
-0.00264368
-3.52191e-05
0.000221901
-0.00254431
-6.45332e-05
0.000137416
-0.00223127
-6.35416e-05
6.30488e-05
-0.00142177
-6.32926e-05
5.16757e-05
-0.000855341
-6.59453e-05
6.09187e-05
-0.00024717
-7.71262e-05
3.48768e-05
0.000313747
-5.35861e-05
1.72604e-05
0.000915097
-3.29512e-05
1.62557e-05
0.000991277
-3.4475e-05
7.94388e-06
0.00103682
-4.68801e-05
2.71256e-05
0.000982498
-5.41435e-05
2.67942e-05
0.000814577
-5.16041e-05
3.91019e-05
0.000387623
-4.22344e-05
-0.00140012
0.00304908
-9.46396e-05
-0.00303692
-0.00169956
0.00306341
-3.88955e-05
-0.00152253
0.00379834
4.96229e-05
-0.00355584
-0.00169789
-0.000129512
-0.00176551
0.00358174
-0.000126829
-0.00148854
0.00414699
5.43458e-05
-0.000762219
0.00467519
0.000270851
-0.00451914
-0.0014732
0.00014761
-0.00180995
0.00335348
4.8957e-05
-0.00133766
0.00482836
-3.09234e-05
-0.000588852
0.00530286
4.8704e-05
-0.00031555
0.00511821
0.0001998
-0.00158939
0.00447059
0.000339344
-0.00114109
0.00497903
0.000285995
-0.000462654
0.00532602
0.000363212
-9.00666e-05
0.0050225
0.000365364
-0.000248606
0.00513391
0.000740581
-0.00109107
0.00446625
8.48294e-05
-0.00141931
0.00517916
0.00034453
-0.000934769
0.00589611
0.000924053
0.000441281
0.00559884
0.00104709
0.000477982
0.0057871
0.00127042
0.000185984
0.0056567
0.00139315
-0.00143366
0.00535879
0.0004288
-0.00133173
0.00590157
0.00111766
-0.000773127
0.00595842
0.00119864
0.000251084
0.00664252
0.00113427
0.000402
0.00694014
0.00123019
0.000559196
0.00652418
0.00145262
0.000702378
0.00587619
0.00149044
-0.000674166
0.00708944
0.000434758
-0.000420715
0.00665953
0.00110831
0.000154221
0.00713003
0.00129978
0.000262273
0.00681167
0.00148623
0.000633497
0.00597093
0.00158682
0.000895289
0.0042517
0.0017166
0.000654196
0.00410461
0.00185624
0.000499149
0.00489095
0.00158426
-0.000436757
0.00600452
0.000576737
0.000594926
0.00647077
0.000600784
0.000954472
0.00567715
0.000821631
0.000837544
0.00520859
0.00108573
0.000754997
0.00460584
0.00121315
0.000870319
0.00364786
0.00117757
0.000467793
0.00291126
0.000950052
0.00045302
0.0028555
0.00108625
0.000305996
0.0037154
0.00106265
-0.000331043
0.00419776
0.000619283
0.000693681
0.00278369
0.000517393
0.000718931
0.00240691
0.000610909
0.00073085
0.00344077
0.00102945
0.000535663
0.00423494
0.000956508
0.00041431
0.00388624
0.000947784
0.000340958
0.00342637
0.000745483
4.53969e-05
0.00282686
0.000608412
0.000130848
0.00289454
0.000544958
0.000225666
0.00324087
0.000470793
0.000170258
0.00218232
0.000184575
0.00020092
0.000753598
0.000197125
4.71661e-05
0.00135458
0.00043058
0.000240109
0.00340598
0.0004994
0.000302565
0.00425098
0.000393313
0.000410978
0.0039119
0.000271351
0.000132658
0.00344986
0.000196669
4.2528e-05
0.00276334
8.88353e-05
7.5435e-05
0.00237208
1.12795e-05
1.90021e-05
0.00193744
1.2509e-05
1.63402e-05
0.00246399
-5.24872e-05
0.000312441
0.00256238
-0.000220392
0.000273092
0.00151858
-0.000324557
9.49368e-05
0.000653732
-0.000439433
0.000145574
0.00139077
-0.000397927
0.00014907
0.00280013
-0.000302461
0.000258768
0.00218815
-0.000245264
3.66921e-05
0.00169808
-0.000159724
-3.17199e-05
0.0018282
-0.00013188
4.60579e-05
0.00151476
-9.79537e-05
6.6704e-05
0.0016717
-6.58954e-05
0.000138223
0.00251818
2.88443e-06
0.00025674
0.00289507
3.3112e-05
0.000390814
0.000384226
1.23538e-05
0.00037366
-0.000235614
-3.89168e-05
0.000255276
-0.000149733
-0.00012156
0.000131475
-0.000232333
-0.000164033
0.000107891
0.000229683
-0.000123758
0.000130778
0.000457689
-0.0001077
9.11946e-05
0.000616813
-0.000105693
4.59115e-05
0.00112506
-8.80544e-05
3.97963e-05
0.000568235
-8.25335e-05
7.13821e-05
0.00111312
-4.71696e-05
0.000165124
0.00221739
-6.09484e-05
0.000148318
0.00254492
-0.000107285
0.000145886
0.0022714
-0.000122819
0.00021984
-0.00282974
-3.37752e-05
0.000206898
-0.00272412
-6.23126e-05
0.000134193
-0.00236961
-6.03873e-05
6.92592e-05
-0.00149589
-5.86856e-05
4.59838e-05
-0.000903981
-6.06362e-05
5.68435e-05
-0.000294637
-7.53219e-05
4.47632e-05
0.000247227
-5.5369e-05
2.37026e-05
0.00087088
-3.30724e-05
2.202e-05
0.000970619
-3.43128e-05
1.09202e-05
0.00103886
-4.74342e-05
3.17329e-05
0.000959049
-5.51643e-05
3.09043e-05
0.000779674
-5.01453e-05
4.79622e-05
0.000329858
-4.18014e-05
6.61243e-05
0.000122286
-2.91464e-05
-0.00173179
0.00285261
0.000228561
-0.00274951
-0.00151153
0.00299144
-0.000130387
-0.00178596
0.00329389
0.000140176
-0.00326528
-0.00159768
-0.000103797
-0.00172245
0.00309487
-7.45092e-05
-0.00155572
0.00382809
-1.45968e-06
-0.000964327
0.00412027
0.000248093
-0.00411663
-0.00164974
3.41463e-06
-0.0016887
0.0035422
-8.17268e-05
-0.00147582
0.00418799
-2.96721e-05
-0.000788385
0.00467086
0.000258213
-0.000507528
0.00481688
0.000401204
-0.00475526
-0.000839392
0.000308431
-0.00185563
0.00340531
0.000214404
-0.00111289
0.00472813
0.000120986
-0.000467767
0.00525928
1.77708e-05
-0.000252602
0.00514491
0.000184542
-0.000584517
0.00505294
0.000439724
-0.00148524
0.00449112
0.000373642
-0.00137092
0.0048884
0.000381587
-0.00100707
0.00533281
0.000351506
-1.27864e-05
0.00533762
0.000502155
0.000220548
0.00503662
0.000720094
-0.00026492
0.00516168
0.00106784
-0.00126335
0.00413457
0.000161365
-0.00154043
0.00511929
0.000353399
-0.00104012
0.00561925
0.000888389
0.000311373
0.00524573
0.00121687
0.00061253
0.00529794
0.00132573
0.000400399
0.00546351
0.00162241
0.000258526
0.00552229
0.00180347
-0.00150068
0.00573779
0.000447509
-0.00126775
0.00602217
0.00115523
-0.000183773
0.00601228
0.00140179
0.000274282
0.00651393
0.00131522
0.000811702
0.00656885
0.00132736
0.000794318
0.00628414
0.00157121
0.000691639
0.00567647
0.00161489
0.0007897
0.00572171
0.00157316
-0.000908924
0.00711391
0.000447696
-0.000242718
0.00693889
0.000993037
0.000744327
0.00713278
0.00131571
0.000579803
0.00689497
0.00147423
0.000708584
0.00594738
0.00155619
0.000924306
0.00424598
0.00153855
0.000835177
0.00385914
0.00159468
0.000711153
0.00476018
0.00172888
0.000530648
0.00531186
0.0013591
-0.00120213
0.00624496
0.000630644
0.000852177
0.00636305
0.000525955
0.0012587
0.00519569
0.000542477
0.00115772
0.00466537
0.000937978
0.000766872
0.00426952
0.00119084
0.000826108
0.00343791
0.0010113
0.000671552
0.00275529
0.00100295
6.26173e-06
0.002904
0.000940685
0.000368655
0.00361379
0.000950062
0.000592291
0.0043684
0.000838071
-0.000740117
0.00445953
0.000648609
0.0001654
0.00292608
0.000512408
0.000674218
0.0019721
0.000325152
0.0005472
0.0029383
0.000806286
0.000451989
0.00410792
0.00100704
0.000447799
0.00390105
0.000904879
0.000284511
0.00349592
0.000726381
0.000165246
0.00288998
0.00055964
0.00026125
0.00282594
0.000491197
0.000334344
0.00303119
0.000439294
0.000328149
0.00341076
0.000326628
-0.000107414
0.00243177
0.000170406
-3.09831e-06
0.00102172
0.000192647
-4.50496e-05
0.00135793
0.000333762
0.000265177
0.00327744
0.000439516
0.000434567
0.0041277
0.000337186
0.000407319
0.0039262
0.000230468
0.000135535
0.00344692
0.000175443
7.32444e-05
0.00280666
4.83847e-05
6.12864e-05
0.00244265
3.03294e-06
6.9944e-05
0.00196658
-2.10979e-05
0.00012193
0.00253199
-3.92007e-05
0.000445307
0.0033925
-0.000224333
0.000298236
0.00284584
-0.000190879
0.000214111
0.00179529
-0.000337558
0.00010085
0.000916402
-0.000432801
9.37642e-05
0.00141048
-0.000421439
0.000176194
0.00262433
-0.000290428
0.000238759
0.0020117
-0.000233991
4.77369e-05
0.00165773
-0.000161447
-2.76818e-07
0.00184603
-0.000131368
2.87581e-05
0.00148804
-9.41279e-05
8.71133e-05
0.00162446
-6.64472e-05
0.000203118
0.00244142
-2.71318e-05
0.000275304
0.00274782
2.31514e-05
0.000368897
0.00249195
9.81963e-06
0.000419422
0.000163996
2.06478e-05
0.00035729
-0.000338009
-3.56429e-05
0.000272619
-0.000230947
-9.61284e-05
0.000177564
-0.000311337
-0.000150862
0.000121657
0.000107488
-0.000117511
0.00012837
0.000363808
-0.000101403
9.79621e-05
0.000554342
-9.84274e-05
5.89226e-05
0.00106396
-7.98097e-05
4.14138e-05
0.000546909
-8.61218e-05
8.16204e-05
0.00101421
-5.43248e-05
0.000182468
0.00206932
-4.98309e-05
0.000188658
0.00243845
-0.000112225
0.000172811
0.00216148
-0.000122215
0.000155139
0.00183459
-0.000104726
0.000209587
-0.00300679
-3.25396e-05
0.000198176
-0.00289448
-6.15873e-05
0.000128667
-0.002503
-5.75932e-05
7.54886e-05
-0.00157692
-5.48475e-05
3.94158e-05
-0.000946529
-5.55535e-05
5.25704e-05
-0.000335477
-7.23665e-05
5.42545e-05
0.000174611
-5.69606e-05
2.91932e-05
0.000820362
-3.40441e-05
2.73708e-05
0.000944032
-3.38561e-05
1.4937e-05
0.00103699
-4.73784e-05
3.67959e-05
0.000931107
-5.62884e-05
3.79731e-05
0.00073525
-4.87133e-05
5.81746e-05
0.000262082
-4.0544e-05
6.6753e-05
4.39414e-05
-3.021e-05
7.16797e-05
-0.00010745
-1.917e-05
-0.00174553
0.00207382
-6.35676e-05
-0.00199651
-0.001706
0.00284348
0.000203601
-0.00184175
0.00263244
0.00028218
-0.00263027
-0.00193629
0.000296908
-0.0027078
-0.00148428
0.00293548
-0.000182203
-0.00179244
0.00340862
-8.3874e-06
-0.00111974
0.00367935
0.00025721
-0.00364098
-0.00182995
0.000106987
-0.00168887
0.0032075
-0.000112449
-0.00143909
0.00384172
-0.000124883
-0.00107523
0.00419543
0.000210221
-0.000774302
0.00426732
0.000422485
-0.00417493
-0.00120916
0.000283928
-0.00171756
0.0034584
-5.42524e-05
-0.00135136
0.00436293
-1.82081e-05
-0.000910602
0.004894
0.000190018
-0.000440209
0.00487032
0.000392386
-0.000583421
0.00474762
0.000450384
-0.0047979
-0.0007415
0.000372395
-0.00184441
0.00349987
0.000264607
-0.00129974
0.00466086
0.0002105
-0.000961185
0.00523884
9.55495e-05
-0.000247594
0.00519638
0.00020111
-0.000248611
0.00525247
0.000454178
-0.000507788
0.0052327
0.000502611
-0.00152172
0.00441699
0.000332502
-0.00147846
0.00485746
0.000342611
-0.00103586
0.00529761
0.000412525
0.000213581
0.00518691
0.00060001
0.000343228
0.00501481
0.000793269
-0.000151764
0.00503529
0.00139865
-0.00041386
0.00524231
0.00172377
-0.00140649
0.00389424
0.000146136
-0.00153172
0.00515178
0.000392847
-0.000816472
0.00565572
0.000949629
-0.000130644
0.00528853
0.00125052
0.000863538
0.00503213
0.00143084
0.000601318
0.00535306
0.00162918
0.000528375
0.00527322
0.00203475
0.000675862
0.00486663
0.00220755
-0.00159647
0.00589401
0.00053133
-0.00104394
0.00618451
0.00108639
0.000297774
0.00615924
0.00145482
0.000518104
0.00656219
0.00141524
0.00093724
0.00620184
0.00145357
0.00102502
0.0059149
0.00159587
0.000706807
0.0055636
0.00181245
0.000676429
0.0056861
0.00168521
0.000855519
0.00576299
0.00160668
-0.00121978
0.00663342
0.000498143
-0.00015904
0.00751657
0.000881239
0.000804833
0.00736694
0.00121274
0.000988693
0.00708063
0.00129907
0.00100727
0.00574028
0.00144093
0.000970319
0.0042347
0.00142326
0.000689943
0.0040603
0.00131899
0.000312218
0.0046857
0.0013632
0.000614195
0.00536925
0.00142596
0.000577277
0.00575792
0.00119929
-0.00161491
0.00626371
0.00085604
0.00035674
0.0061094
0.000692957
0.000984984
0.0050501
0.00036078
0.00102761
0.00415841
0.000569031
0.00089304
0.0038719
0.000894553
0.000644394
0.00327462
0.00115753
0.000453313
0.00280548
0.000792306
0.00014915
0.00305125
0.000871797
0.000210936
0.00369462
0.000910164
0.00071576
0.00427864
0.000658409
0.000689695
0.00494164
0.000617333
-0.00101601
0.00463495
0.000733177
7.54243e-05
0.00284104
0.000655126
0.000211425
0.0018905
0.000337536
0.000359729
0.00255105
0.000617848
0.000477069
0.00397553
0.000896175
0.000317373
0.00412431
0.000873736
0.000470677
0.00341508
0.000650576
4.54741e-05
0.00310788
0.000536257
0.000145837
0.00284085
0.000460182
0.000234286
0.00298212
0.000375925
0.000505786
0.00318932
0.000276881
0.000708748
0.00364569
0.000235841
-0.000207885
0.00275711
0.00018078
-0.000263229
0.00149474
0.00017472
-6.52733e-05
0.00140225
0.000314447
7.62803e-05
0.00318369
0.000444993
0.000354446
0.00415012
0.000238836
0.000414309
0.00389621
0.000191626
0.000165427
0.00340597
0.000153736
5.36215e-05
0.00288854
3.96617e-05
4.93266e-05
0.00247415
-3.67546e-06
9.48874e-05
0.00198831
-2.64746e-05
0.000207202
0.00244256
6.42539e-05
0.000401896
0.00334927
-0.000122562
0.000532511
0.00354328
-0.000248536
0.000347998
0.00317254
-0.000255277
0.000217872
0.0020492
-0.000305368
0.000106915
0.00114507
-0.000400527
9.39949e-05
0.00146553
-0.000404278
0.000148023
0.00245802
-0.000281495
0.000185736
0.00188991
-0.000226005
6.94087e-05
0.00161881
-0.000166519
2.47634e-05
0.00185253
-0.000133789
2.89902e-05
0.00147
-0.000100904
0.000111255
0.00157236
-7.16542e-05
0.000236968
0.00235097
-3.04936e-05
0.000261749
0.00268835
-4.07594e-05
0.000418416
0.00231231
-4.28163e-05
0.000411817
0.00240299
-7.3674e-05
0.000429333
-6.10835e-05
5.33371e-06
0.000367441
-0.000474787
-1.18386e-05
0.000284175
-0.000357543
-6.45556e-05
0.000209613
-0.000402968
-0.000138621
0.000131769
-2.02319e-05
-0.000115495
0.000132907
0.000262357
-9.63966e-05
0.000106804
0.000493326
-9.29366e-05
6.59967e-05
0.00100058
-7.1845e-05
5.03012e-05
0.000531636
-8.7467e-05
9.11426e-05
0.000936688
-8.48072e-05
0.000196488
0.00189709
-4.17864e-05
0.000221381
0.00230371
-9.85068e-05
0.000203606
0.00201227
-0.000108446
0.000181779
0.00169675
-9.94025e-05
0.000166224
0.00136998
-8.08428e-05
0.000194799
-0.00316938
-3.22054e-05
0.000183789
-0.00305255
-5.82594e-05
0.000118316
-0.00262761
-5.52881e-05
7.96232e-05
-0.00166254
-5.15989e-05
3.35004e-05
-0.000983995
-5.08815e-05
4.7434e-05
-0.000369998
-6.84671e-05
5.9199e-05
0.000101147
-5.81018e-05
3.36989e-05
0.000765587
-3.58843e-05
3.11822e-05
0.000912307
-3.35009e-05
1.97075e-05
0.0010307
-4.72771e-05
3.79354e-05
0.000902803
-5.70098e-05
4.47388e-05
0.000680826
-4.66026e-05
6.59034e-05
0.000186831
-3.93657e-05
5.77997e-05
-2.35272e-05