/*--------------------------------*- C++ -*----------------------------------*\
  =========                 |
  \\      /  F ield         | OpenFOAM: The Open Source CFD Toolbox
   \\    /   O peration     | Website:  https://openfoam.org
    \\  /    A nd           | Version:  7
     \\/     M anipulation  |
\*---------------------------------------------------------------------------*/
FoamFile
{
    version     2.0;
    format      ascii;
    class       volVectorField;
    location    "6.5";
    object      U;
}
// * * * * * * * * * * * * * * * * * * * * * * * * * * * * * * * * * * * * * //

dimensions      [0 1 -1 0 0 0 0];

internalField   nonuniform List<vector> 
18750
(
(4.05354 0.296147 -0.326548)
(3.39162 0.678843 -0.484949)
(3.84334 0.320029 0.0267617)
(4.00541 0.0926275 -1.69625)
(1.21158 2.16734 -0.0578206)
(3.57201 0.919082 -0.43715)
(3.41426 0.666745 -1.88936)
(3.56888 0.326409 0.302248)
(3.70892 0.12325 -1.44812)
(2.08199 -0.44794 -1.87087)
(0.393294 4.14823 1.25918)
(1.31579 2.29208 0.0555784)
(1.06145 1.70951 0.433935)
(3.57105 1.20041 -0.42243)
(3.60206 0.858922 -1.85081)
(1.12218 0.0147454 -1.78261)
(3.33318 0.315466 0.377827)
(3.37589 0.121882 -1.333)
(1.97568 -0.420519 -1.75736)
(1.13021 -0.406591 -2.22388)
(-0.940743 4.25216 0.0983365)
(1.51999 3.75839 0.212588)
(1.50355 2.72764 2.53841)
(1.25749 2.32024 0.212079)
(1.14883 1.60048 0.429812)
(0.0334463 -0.18255 1.97666)
(3.37213 1.32611 -0.444888)
(3.5318 0.989326 -1.84661)
(1.08 0.134447 -1.70593)
(1.17696 -0.231908 -2.45646)
(3.27278 0.297427 0.226835)
(3.13617 0.113117 -1.34509)
(1.89425 -0.395307 -1.71252)
(1.09395 -0.406282 -2.05904)
(0.910104 -0.223703 -2.40994)
(-1.66305 3.92418 -0.236723)
(-0.471184 4.29575 0.0423203)
(-0.263283 3.7441 1.58131)
(1.57564 3.77571 0.192893)
(1.76985 2.67338 2.59203)
(0.702762 2.59185 3.38762)
(1.15929 2.36673 0.204735)
(1.27726 2.152 0.366844)
(-0.0112061 -0.181016 1.2107)
(-0.435544 0.604757 2.1168)
(2.94683 1.4721 -0.517573)
(3.02378 1.08407 -1.861)
(1.11895 0.263801 -1.66319)
(1.35052 -0.137556 -2.43445)
(0.0936651 0.267675 -1.90527)
(3.2419 0.340778 0.0161841)
(3.07186 0.132824 -1.40535)
(1.83921 -0.371742 -1.68992)
(1.03659 -0.412031 -1.89141)
(0.907292 -0.208252 -2.29885)
(0.296517 0.136539 -1.57724)
(0.381345 2.62786 -0.401439)
(-0.956233 3.71305 -0.351512)
(-0.238657 4.40599 0.570744)
(-0.241371 4.43028 -0.0998344)
(0.217498 3.62427 1.72048)
(-0.286652 3.75697 2.17755)
(1.76078 3.70002 0.579142)
(2.22232 2.45664 2.17053)
(0.609972 2.61238 3.45823)
(0.0231681 2.75008 3.29899)
(1.15491 2.33904 0.100071)
(1.65893 1.91237 0.333839)
(0.11616 -0.198607 0.591367)
(-0.543808 0.649265 1.52363)
(-0.60621 1.148 1.74562)
(2.45339 1.47872 -0.583808)
(2.44789 1.03522 -1.87837)
(1.24943 0.380116 -1.60365)
(1.49314 -0.00787175 -2.31245)
(0.260412 0.309514 -1.94005)
(-0.132518 0.531224 -1.4514)
(3.19953 0.358482 -0.100605)
(3.04103 0.175469 -1.46705)
(1.83821 -0.37284 -1.64124)
(0.973587 -0.428679 -1.73147)
(0.860486 -0.202906 -2.17975)
(0.341678 0.130208 -1.70384)
(-0.18458 0.389496 -1.17801)
(-1.50439 2.87278 0.305943)
(0.162999 2.51597 -0.318994)
(-1.57494 3.42926 1.17071)
(-0.482152 3.7093 -0.351696)
(-0.799175 4.45674 0.560067)
(0.288975 4.18926 1.86496)
(0.285747 4.53058 0.0396474)
(0.33702 3.69082 1.8049)
(-0.302513 3.74555 2.24692)
(-0.282692 3.63992 2.28062)
(1.93059 3.47489 0.776315)
(2.11604 2.31505 1.71082)
(1.17014 2.40663 3.42577)
(0.0219755 2.75974 3.26415)
(0.127784 2.8531 2.59895)
(1.29998 2.36053 -0.14757)
(1.74222 1.87114 0.249239)
(0.333988 -0.193567 -0.230228)
(-0.811186 0.70581 0.379769)
(-1.03487 1.52461 1.15432)
(-0.85176 1.39733 -0.252469)
(1.89433 1.48101 -0.605927)
(1.96219 0.956799 -1.79081)
(1.33734 0.482127 -1.48356)
(1.54254 0.110329 -2.16805)
(0.40689 0.368094 -1.93549)
(0.0676387 0.571632 -1.45161)
(0.194554 0.832977 -1.0175)
(3.13522 0.38235 -0.161809)
(2.96676 0.189014 -1.49491)
(1.87578 -0.370077 -1.60152)
(0.916794 -0.447596 -1.60382)
(0.803585 -0.20574 -2.05781)
(0.399899 0.125709 -1.81656)
(-0.210921 0.362938 -1.24146)
(-0.176199 0.653573 -0.847354)
(-2.27065 2.67076 0.444066)
(-1.30126 3.07487 0.228209)
(-1.66357 3.50976 1.241)
(0.209022 2.52885 -0.325802)
(-1.57184 3.30147 1.13723)
(-0.473095 4.06284 1.4293)
(-0.144216 3.77875 -0.302176)
(0.694509 4.29164 0.433819)
(0.366966 4.07656 2.10342)
(0.556096 4.25021 2.17577)
(0.666038 4.54081 0.343633)
(0.603659 3.49095 1.87623)
(0.191439 3.56925 2.45802)
(-0.402859 3.6169 2.61147)
(-0.421086 3.46081 1.91791)
(1.78208 3.28439 0.747026)
(2.19043 2.08615 1.08341)
(1.46274 2.28892 3.08617)
(-0.131877 2.90415 3.23073)
(0.0416013 2.91409 2.51224)
(0.350368 2.59804 2.21181)
(1.42494 2.33877 -0.513397)
(1.61048 1.88387 0.134695)
(0.412743 -0.136011 -0.656425)
(-0.942276 0.71169 -0.111902)
(-1.25393 1.55286 0.886386)
(-1.35992 1.47471 0.102934)
(-0.0469986 1.04214 -0.952922)
(1.48953 1.4298 -0.65127)
(1.65441 0.899577 -1.53868)
(1.33646 0.551268 -1.2977)
(1.48757 0.219183 -1.9768)
(0.525023 0.447341 -1.90353)
(0.301404 0.637816 -1.42303)
(0.462095 0.822045 -1.04958)
(0.0250233 0.955396 -0.860703)
(3.06097 0.397481 -0.206136)
(2.88657 0.260697 -1.53652)
(1.90323 -0.333365 -1.55396)
(0.886042 -0.475611 -1.53283)
(0.752685 -0.222849 -1.92169)
(0.478049 0.124096 -1.89837)
(-0.221084 0.327788 -1.31828)
(-0.150815 0.649507 -0.853415)
(-0.0752108 0.683324 -0.71266)
(-2.57989 2.20822 -0.307553)
(-2.0161 2.80299 0.39758)
(-1.07858 3.77462 0.505214)
(-1.59835 3.05326 -0.00500093)
(-1.88197 3.25264 1.45214)
(-0.668268 3.77556 1.10566)
(-0.371579 2.58313 -0.196943)
(-0.665853 3.33338 1.14391)
(-0.630784 4.06616 1.50127)
(0.127772 4.23585 2.34859)
(0.310211 4.01373 -0.269512)
(0.628607 4.34916 0.79522)
(0.645292 3.99631 2.07282)
(0.376192 4.26511 2.13709)
(0.69846 4.16781 1.83369)
(0.720662 4.46468 0.635447)
(1.52386 3.18554 1.53807)
(0.477564 3.51879 2.48974)
(-0.56481 3.51637 2.87338)
(-0.182742 3.47684 1.96879)
(0.609909 2.84562 1.91468)
(1.51214 2.99266 0.618549)
(2.41265 1.98146 0.819686)
(0.912069 2.10182 2.66987)
(-0.171913 2.89386 3.20856)
(0.134466 2.91597 2.5748)
(0.534288 2.70068 2.02508)
(0.525625 2.00446 0.697319)
(1.2907 2.34029 -0.820635)
(1.39975 1.83761 -0.117628)
(0.432216 -0.0146992 -1.08524)
(-1.08472 0.70505 -0.629269)
(-1.2494 1.54454 0.141017)
(-0.933633 1.57347 -0.907643)
(0.0345066 1.06997 -0.936992)
(0.0743478 1.04763 -0.852556)
(1.31343 1.47564 -0.456918)
(1.65127 0.964553 -1.18749)
(1.25138 0.597426 -1.13076)
(1.34343 0.295957 -1.75717)
(0.602557 0.509465 -1.85008)
(0.452503 0.683692 -1.35723)
(0.700639 0.81016 -1.03516)
(0.0642713 0.920864 -0.888921)
(0.0716809 0.562472 -0.655851)
(2.97867 0.416388 -0.22515)
(2.88388 0.250697 -1.54428)
(2.01707 -0.270776 -1.54619)
(0.866488 -0.496055 -1.50675)
(0.70284 -0.22291 -1.77721)
(0.556929 0.145748 -1.92773)
(-0.187529 0.294508 -1.40454)
(-0.164538 0.645292 -0.846886)
(-0.0579411 0.68647 -0.718204)
(-0.027138 0.670012 -0.938008)
(-2.01653 2.18874 -0.0651624)
(-2.42291 2.31627 -0.0546113)
(-0.920924 3.41464 0.305645)
(-1.97863 2.82169 0.429493)
(-1.45258 3.65984 0.570117)
(-0.139046 3.82208 0.513519)
(-1.80154 3.02558 0.160438)
(-1.83227 3.22086 1.81065)
(-1.04205 3.65161 1.0685)
(-0.160552 4.31186 1.34016)
(-1.00359 2.6451 -0.00395012)
(-1.54392 3.15212 1.24199)
(-1.25442 3.99117 1.75299)
(0.166483 4.24587 2.37571)
(1.25867 4.35809 1.76541)
(0.832234 4.48076 -0.105202)
(0.909959 4.34652 1.14088)
(0.872705 4.02264 1.9659)
(0.344005 4.04962 2.15719)
(0.538328 3.99253 2.19335)
(0.685174 3.64323 1.93299)
(0.914924 4.16752 0.861935)
(1.42218 3.21358 1.19657)
(0.804454 3.41253 2.4076)
(-0.510734 3.58899 2.71127)
(0.0352796 3.41074 2.03588)
(0.452418 2.78025 2.05468)
(0.0342827 2.09403 1.98425)
(1.32147 2.66633 0.716244)
(2.18791 1.73489 0.671236)
(0.562428 1.5855 2.4469)
(-0.0769064 2.84802 2.88762)
(6.20986e-05 2.91957 2.57727)
(0.573862 2.77385 1.70538)
(0.631933 2.1283 0.83996)
(-0.759636 1.58102 0.770297)
(1.07375 2.32561 -0.884455)
(1.31949 1.68273 -0.437716)
(0.492463 0.151229 -1.38839)
(-1.07819 0.693706 -1.09716)
(-1.30276 1.60943 -0.108986)
(-0.836575 1.61389 -1.16205)
(0.120018 1.13595 -0.843234)
(-0.0122002 1.11092 -0.793528)
(0.411829 1.11267 -0.580935)
(1.3059 1.5316 -0.35681)
(1.85617 1.12836 -0.900611)
(1.08248 0.570036 -1.13138)
(1.15234 0.306679 -1.52792)
(0.684471 0.558217 -1.73038)
(0.54934 0.706384 -1.19413)
(0.687792 0.785182 -0.981298)
(0.0495729 0.90193 -0.915735)
(0.0452506 0.516355 -0.611835)
(0.186423 0.974466 -0.487729)
(2.88569 0.407349 -0.245128)
(2.86351 0.280943 -1.54011)
(2.06251 -0.276079 -1.54132)
(0.889286 -0.476742 -1.53348)
(0.668336 -0.247758 -1.62172)
(0.629165 0.143404 -1.89827)
(-0.109193 0.276176 -1.4918)
(-0.184572 0.62123 -0.818298)
(-0.0639917 0.684653 -0.724022)
(-0.0582351 0.6785 -0.925307)
(-0.104008 0.675295 -1.17577)
(-1.29091 2.47987 -0.224265)
(-2.52565 1.81735 -0.111188)
(-1.44234 3.10629 0.0313196)
(-2.18359 2.44589 0.119006)
(-1.58363 3.31406 0.299427)
(-0.791355 3.71663 0.234755)
(-2.24667 2.6771 0.408892)
(-2.28585 3.43268 0.124338)
(-0.738361 3.87279 0.675082)
(-0.113 4.24291 0.316465)
(-2.22714 2.9843 0.579572)
(-3.03838 2.96117 1.32559)
(-1.62425 3.47119 1.47622)
(-0.535125 4.36331 1.40111)
(1.29502 4.42564 1.2819)
(-1.15567 3.00525 -0.0772831)
(-1.84343 3.71674 0.91906)
(-0.429528 4.70609 1.34153)
(0.170193 4.39685 2.18169)
(0.77813 4.21649 2.21023)
(2.19795 3.53974 1.93642)
(1.20698 4.79624 0.0754792)
(0.628981 4.43905 1.29173)
(-0.308232 3.60666 3.35277)
(0.609095 3.87222 2.10094)
(0.598919 3.78422 2.38563)
(0.924886 3.18475 2.32828)
(0.14671 2.35174 2.60842)
(0.96978 3.83183 0.994822)
(1.42083 2.97885 0.976347)
(0.566055 3.2885 2.0881)
(-0.19841 3.32696 2.79774)
(0.0448851 3.40332 2.08909)
(0.287844 2.66086 2.24852)
(-0.077301 2.22735 2.08196)
(-0.123973 1.83731 1.63904)
(1.16477 2.45516 0.682426)
(1.92334 1.47477 0.558902)
(0.523439 1.28568 1.99953)
(-0.235159 2.50065 2.83797)
(-0.222113 2.86345 2.60649)
(1.07711 2.70016 1.21474)
(0.0316602 2.27051 0.93602)
(-0.778806 1.61898 0.706181)
(-0.533461 1.33633 0.544942)
(0.82302 2.29071 -0.60696)
(0.897386 1.56646 -1.16466)
(0.63842 0.375804 -1.54719)
(-0.939013 0.740359 -1.49034)
(-1.14832 1.69201 -0.693823)
(-0.48921 1.63684 -1.42779)
(0.111623 1.19838 -0.748366)
(-0.13835 1.11749 -0.807254)
(0.381798 1.12426 -0.590574)
(0.420226 1.15899 -0.393543)
(1.31135 1.72103 -0.170842)
(1.96928 1.31275 -0.709476)
(1.09396 0.641329 -1.08157)
(0.886573 0.317166 -1.34812)
(0.657143 0.626364 -1.56892)
(0.556727 0.700316 -0.986888)
(0.496139 0.707378 -0.91823)
(-0.0111935 0.865526 -0.924838)
(0.0542626 0.481148 -0.592472)
(0.174322 0.928257 -0.487909)
(0.521769 1.67515 -0.139474)
(2.81317 0.399036 -0.23678)
(2.84213 0.331777 -1.50104)
(1.98646 -0.283955 -1.44658)
(0.977886 -0.461668 -1.60692)
(0.632067 -0.269386 -1.46592)
(0.650835 0.159559 -1.82643)
(-0.000834756 0.277354 -1.57494)
(-0.179118 0.616653 -0.770781)
(-0.0727901 0.685744 -0.725686)
(-0.0895649 0.673967 -0.914496)
(-0.112829 0.665017 -1.18491)
(-0.144669 0.56173 -1.24013)
(-1.58638 1.96436 -0.042449)
(-1.79301 2.16654 -0.159649)
(-0.773588 2.94943 0.134955)
(-1.46779 2.30249 -0.0820073)
(-2.63068 1.75041 -0.127577)
(-1.66736 2.90705 0.0297855)
(-0.333165 3.44201 0.22344)
(-2.09158 2.50952 0.170879)
(-1.73494 3.33714 0.460791)
(-1.15063 3.7187 0.304982)
(-0.265399 3.53861 0.345811)
(-2.32764 2.67411 0.207651)
(-2.50513 3.32955 0.170516)
(-1.61659 3.69887 0.564765)
(-1.23506 3.94543 0.648843)
(0.280758 4.07043 1.21049)
(-3.12806 2.36015 0.305389)
(-3.13696 2.96007 1.04792)
(-0.173366 4.36493 1.29172)
(-0.584554 4.39682 1.61215)
(1.01751 4.49801 1.73913)
(1.08852 4.14898 1.67157)
(-0.925229 3.86687 -0.251672)
(-1.87553 3.92835 1.3224)
(-2.93217 3.3445 2.7168)
(0.156823 4.47588 1.89009)
(1.49351 4.17273 2.1724)
(2.02435 3.19412 2.652)
(0.803005 3.01872 3.33617)
(-0.440718 4.20044 0.308445)
(-0.00315666 4.52868 1.35976)
(0.650856 4.54715 1.91045)
(0.754966 3.8304 2.41274)
(1.11277 3.58755 2.32459)
(0.235741 2.97851 2.56628)
(0.719472 1.96787 2.64278)
(0.534351 2.22946 2.23102)
(-0.204638 3.16361 1.12775)
(0.537582 2.65862 1.21817)
(-0.407261 2.37024 2.04058)
(-0.319147 3.29162 2.14203)
(-0.0792997 3.10933 2.4529)
(0.0790686 2.7304 2.25805)
(0.10951 2.27891 2.19832)
(-0.0351456 1.80614 1.69593)
(-0.258609 1.8278 1.58094)
(0.866212 2.28353 0.464701)
(1.36068 1.24084 0.572257)
(0.0577942 1.10999 1.68986)
(-0.341408 2.44954 2.41163)
(0.0751484 2.89874 2.37878)
(0.541023 2.83815 1.15463)
(-0.425469 2.21664 1.02735)
(-0.861587 1.67393 0.584939)
(-0.392367 1.47823 0.166434)
(-0.397765 1.15933 0.366529)
(0.447629 2.26511 -0.517503)
(0.862532 1.52356 -1.27994)
(0.685585 0.617039 -1.55282)
(-0.684901 0.851447 -1.80192)
(-1.27092 1.65661 -0.9169)
(-0.269311 1.64633 -1.56641)
(0.0232455 1.20754 -0.709203)
(-0.150966 1.17437 -0.762353)
(0.309637 1.11329 -0.592821)
(0.360914 1.18476 -0.379989)
(0.626994 1.73576 -0.153461)
(1.56256 1.87355 0.171308)
(1.99531 1.4482 -0.470653)
(1.19578 0.767781 -0.962924)
(0.761417 0.302554 -1.20573)
(0.693566 0.597281 -1.41964)
(0.511643 0.661733 -0.799599)
(0.359816 0.642187 -0.925724)
(-0.0399897 0.83982 -0.863603)
(0.0718124 0.452388 -0.569562)
(0.119701 0.883504 -0.499149)
(0.579088 1.64881 -0.140345)
(0.721182 1.76261 -0.528349)
(2.76995 0.35962 -0.217631)
(2.87317 0.328627 -1.45789)
(1.96543 -0.324377 -1.33816)
(1.00964 -0.451948 -1.58923)
(0.600639 -0.29579 -1.31272)
(0.646834 0.153805 -1.73349)
(0.126853 0.29738 -1.64742)
(-0.0872515 0.62715 -0.744189)
(-0.0509168 0.690549 -0.721951)
(-0.127338 0.672321 -0.896391)
(-0.117113 0.652012 -1.20054)
(-0.123793 0.545709 -1.25096)
(0.352082 0.29518 -1.17853)
(-1.14313 2.02369 -0.0579136)
(-1.80147 1.85995 -0.0200416)
(-1.56838 2.30109 -0.0717854)
(-1.45059 2.00045 -0.0966508)
(-1.87785 2.10329 -0.151747)
(-1.73041 2.50325 -0.0353483)
(-0.763843 3.0102 0.0961351)
(-1.03772 2.74673 0.0742612)
(-2.6462 1.68581 -0.000561187)
(-1.74373 2.85967 -0.0666469)
(-0.682445 3.38176 0.101157)
(-0.391959 3.33912 0.051165)
(-2.10094 2.46355 0.156392)
(-2.14047 2.92261 0.526814)
(-1.48297 3.47243 0.330429)
(-0.342121 3.43329 0.311637)
(-0.0089546 3.25841 0.674444)
(-2.39836 2.50787 0.265424)
(-2.78045 2.8796 0.143439)
(-1.8996 3.47913 0.680294)
(0.487044 3.80331 1.13438)
(0.0864476 4.01089 1.45967)
(0.366377 3.64647 1.62051)
(-3.45355 2.16577 -0.166916)
(-2.85109 3.07197 1.40267)
(-1.97681 3.69946 1.5955)
(-0.661025 4.4528 1.50073)
(-0.422104 4.57248 1.80796)
(0.221187 4.34949 1.89942)
(0.905966 4.02964 2.10432)
(-1.95456 4.25548 -0.0119537)
(-1.60472 4.01332 1.63984)
(-1.30389 4.64663 2.19092)
(-0.758088 4.18766 2.30429)
(0.300151 4.11536 2.73115)
(1.53285 3.34778 2.67261)
(0.605126 2.96562 3.20088)
(0.510925 3.34513 2.81724)
(-2.14492 3.43416 0.479339)
(-0.153807 4.65723 1.37401)
(0.880544 4.71258 1.45043)
(1.01266 4.22126 2.02989)
(0.873782 3.41681 2.55388)
(0.642366 2.60784 2.5898)
(-0.202928 2.2615 2.06569)
(0.111507 1.98021 1.9625)
(0.322682 2.53589 2.54211)
(-1.52406 2.34598 1.16434)
(-0.621393 1.88782 1.55301)
(-0.850963 1.66142 1.607)
(-0.518236 2.39358 2.33543)
(-0.0469838 3.096 2.36276)
(-0.037338 2.66925 2.41138)
(0.146001 2.38073 2.18406)
(0.000391699 1.84208 1.80247)
(0.120719 1.95749 1.30721)
(-0.115578 2.2889 1.23705)
(0.32862 2.05728 0.463982)
(0.644049 0.965232 0.653747)
(-0.366789 0.891613 1.25493)
(-0.182253 2.49508 1.77502)
(0.0630455 3.16291 1.8744)
(0.531454 2.93637 0.737324)
(-0.693343 2.17569 1.0182)
(-0.906743 1.67031 0.520118)
(-0.382483 1.49412 0.0957902)
(-0.23807 1.25066 0.0358623)
(-0.148178 1.52096 0.225311)
(0.191123 2.31171 -0.50733)
(0.669057 1.6737 -1.359)
(0.711565 0.883806 -1.56144)
(-0.40388 0.817761 -2.12678)
(-1.04841 1.58553 -1.22107)
(-0.0655055 1.63131 -1.59388)
(-0.0642223 1.19916 -0.657488)
(-0.189576 1.20927 -0.71292)
(0.159875 1.08333 -0.55528)
(0.310348 1.18729 -0.368146)
(0.689995 1.75951 -0.167203)
(0.557852 1.97435 0.157214)
(1.64139 2.07791 0.446514)
(2.01165 1.4772 -0.0260035)
(1.29425 0.890587 -0.799552)
(0.759651 0.344 -1.12554)
(0.650982 0.598346 -1.30331)
(0.449608 0.609284 -0.660094)
(0.384022 0.638637 -0.933816)
(-0.0135446 0.815879 -0.765308)
(0.0969935 0.433163 -0.570639)
(0.0649477 0.805062 -0.607124)
(0.59109 1.6261 -0.137819)
(0.742251 1.77806 -0.591838)
(0.499009 1.54401 -0.91324)
(2.75909 0.332501 -0.192332)
(2.88439 0.336209 -1.42031)
(1.93852 -0.34984 -1.26086)
(1.05087 -0.422501 -1.48975)
(0.577924 -0.325255 -1.1712)
(0.613668 0.147197 -1.63521)
(0.259432 0.339846 -1.69611)
(-0.0611757 0.627592 -0.746563)
(-0.0242511 0.697379 -0.717571)
(-0.151576 0.674329 -0.887768)
(-0.119404 0.642682 -1.21676)
(-0.0903332 0.528638 -1.26291)
(0.467376 0.293121 -1.12234)
(0.794251 0.151396 -0.759904)
(-1.15675 1.77254 0.0882002)
(-1.48432 1.80409 -0.103018)
(-1.22437 2.11539 -0.0861272)
(-1.14436 1.98715 -0.0386803)
(-1.96757 1.72948 -0.0750122)
(-1.57028 2.37953 -0.0567327)
(-0.863046 2.63984 0.149427)
(-1.31895 2.35474 -0.102472)
(-1.94205 2.02357 -0.170229)
(-1.85524 2.45414 -0.0899666)
(-1.04901 2.96251 0.136268)
(-0.473684 3.13631 0.388343)
(-0.610581 2.93005 0.191389)
(-2.69494 1.56298 0.231695)
(-1.71802 2.93837 0.0757664)
(-0.549057 3.50469 -0.00487423)
(-0.470231 3.30696 0.01993)
(-0.785257 3.22579 0.38217)
(-2.11172 2.44334 0.214074)
(-2.36338 2.73598 0.592785)
(-1.90197 3.15949 0.144917)
(-0.480645 3.27265 0.51534)
(0.325915 3.38658 0.560289)
(-0.185648 3.2822 1.03615)
(-2.70958 1.93484 0.37419)
(-3.07597 2.47997 -0.0719107)
(-2.12397 3.3953 0.714475)
(-0.437268 3.66365 1.53476)
(0.303521 3.74514 1.59495)
(0.608203 3.77093 1.78283)
(0.845711 3.67365 1.84882)
(-3.59503 2.30248 -0.00983866)
(-3.02433 3.09396 1.32865)
(-1.2643 3.67781 1.85305)
(-0.68848 4.19313 1.80564)
(-0.0972984 4.55278 1.81579)
(0.241005 4.36623 1.77924)
(0.93804 3.9271 2.2438)
(1.00729 3.988 2.25832)
(-3.41779 3.78387 0.275593)
(-1.62513 4.16329 1.41235)
(-1.02721 4.82995 2.03518)
(-0.974816 4.61553 2.2388)
(-0.170329 4.16684 2.72676)
(1.28703 3.05275 2.66254)
(1.1152 2.57935 3.17372)
(1.03637 3.04638 3.08799)
(0.652715 3.61634 2.59026)
(-3.42513 2.77089 0.490549)
(0.0973125 5.05513 1.59198)
(1.14925 4.53184 1.11778)
(1.20265 4.04636 1.94093)
(0.259208 3.34768 2.36528)
(0.407619 2.67725 2.28058)
(0.573923 1.76103 2.2473)
(-0.391044 1.83667 1.84745)
(-0.0296417 2.29204 2.43633)
(0.901925 2.90506 1.92209)
(-2.24649 1.98983 1.22094)
(-1.0239 1.62698 1.64199)
(-0.560661 1.33672 1.03748)
(-0.553627 2.1907 1.56722)
(-0.65085 2.70394 2.59093)
(-0.0424425 2.71314 2.33029)
(0.197842 2.41659 2.17976)
(0.392337 2.01143 1.59006)
(0.303228 1.95077 1.23478)
(0.00936078 1.95669 1.37172)
(0.111755 2.31802 1.13235)
(-0.521631 1.65955 0.370214)
(0.0236623 0.773955 0.684793)
(-0.897075 0.453007 0.532627)
(-0.267646 2.44869 1.45784)
(0.0471062 3.19272 1.54349)
(0.281767 2.96281 0.576593)
(-0.80717 2.16449 0.973184)
(-0.890415 1.66955 0.2887)
(-0.38946 1.53924 0.0525886)
(-0.209532 1.27136 -0.019963)
(-0.0505595 1.64293 0.0847141)
(1.12278 2.27092 -0.565386)
(-0.158665 2.44146 -0.568609)
(0.360906 1.84106 -1.45979)
(0.638171 1.1423 -1.58121)
(-0.0606517 1.08494 -2.21132)
(-0.790813 1.70732 -1.32437)
(0.00967753 1.58091 -1.43249)
(-0.140663 1.15761 -0.676868)
(-0.203478 1.21601 -0.709922)
(-0.0366231 1.03177 -0.491712)
(0.305285 1.18602 -0.345174)
(0.751072 1.77288 -0.216608)
(0.571662 1.92403 0.206378)
(1.07915 1.74105 0.155421)
(1.68391 2.1757 0.468152)
(1.60846 1.42574 -0.29779)
(1.33441 0.994008 -0.561954)
(0.910215 0.462139 -0.965674)
(0.599349 0.540494 -1.23508)
(0.397385 0.554241 -0.578753)
(0.385074 0.633359 -0.930673)
(0.0425979 0.816619 -0.643427)
(0.120046 0.439728 -0.570051)
(0.072315 0.772084 -0.647483)
(0.578279 1.59353 -0.11974)
(0.641027 1.77743 -0.785784)
(0.430298 1.51855 -1.0069)
(0.533193 1.27583 -0.973074)
(2.72916 0.332408 -0.175737)
(2.87082 0.364423 -1.36109)
(1.94518 -0.382739 -1.18536)
(1.10365 -0.410449 -1.42651)
(0.561296 -0.353067 -1.04511)
(0.579143 0.126527 -1.52894)
(0.406613 0.389712 -1.70591)
(-0.0320422 0.622039 -0.770934)
(-0.00120014 0.709363 -0.712691)
(-0.172568 0.683051 -0.869888)
(-0.11073 0.627106 -1.23937)
(-0.0581405 0.511308 -1.28057)
(0.608427 0.301973 -1.03731)
(0.816322 0.140337 -0.790961)
(0.869156 -0.00755767 -0.580204)
(-1.57424 1.28174 -0.138119)
(-1.23672 1.75208 0.0594823)
(-1.70556 1.61272 0.235929)
(-0.995978 1.83785 0.121288)
(-1.58017 1.73485 -0.140242)
(-1.44746 2.03496 -0.100782)
(-0.929383 2.39598 0.321072)
(-1.12678 2.12212 -0.0996469)
(-1.99268 1.68198 -0.078414)
(-1.63565 2.32446 -0.0629055)
(-0.970134 2.64321 0.0619455)
(-0.660537 2.7014 0.29169)
(-0.648094 2.67565 0.109588)
(-2.16644 1.78042 -0.108871)
(-1.75476 2.52424 0.0238785)
(-1.30897 2.95246 0.0522973)
(-0.639132 3.09418 0.344569)
(-0.61681 3.10392 0.38215)
(-0.450721 3.07373 0.309545)
(-2.71831 1.46545 0.314943)
(-2.20609 2.56848 0.189151)
(-1.71898 3.09614 0.14116)
(-0.573951 3.33064 0.0329634)
(-0.46152 3.31309 0.368775)
(-0.595379 3.31662 0.541225)
(-2.33637 2.22185 0.344367)
(-2.60524 2.50215 0.601253)
(-2.2901 2.99794 0.265059)
(-0.256611 3.52103 0.596287)
(0.0506015 3.37316 0.616821)
(-0.329844 3.30376 1.12004)
(-0.511032 3.34223 1.39804)
(-3.03045 1.54346 0.169946)
(-3.20309 2.38406 -0.00702602)
(-1.87082 3.26275 0.948264)
(-0.671975 3.38803 1.55142)
(0.619852 3.53892 1.71462)
(0.702367 3.7074 1.7688)
(0.280314 3.60762 2.31807)
(0.974977 3.33908 2.64643)
(-3.45842 2.58428 0.368232)
(-2.95803 3.08181 1.22045)
(-0.357065 4.13752 2.00256)
(-0.313777 4.43759 2.08174)
(0.0963555 4.38008 2.0107)
(0.23804 4.10847 2.03003)
(0.724415 3.65567 2.70591)
(0.688192 3.72217 2.45659)
(0.897648 3.96358 2.31797)
(-4.81427 2.38499 0.258306)
(-1.76017 4.51686 1.13338)
(-0.469798 4.87734 1.96112)
(-0.264919 4.80746 2.29712)
(0.0777298 4.04254 2.81747)
(1.01297 3.13155 2.46047)
(0.823909 2.92448 2.48722)
(-0.329857 3.36576 2.35719)
(0.806843 3.40085 2.88962)
(0.994641 3.69619 2.09647)
(-4.54031 1.94319 0.61454)
(-1.61442 3.96187 1.75202)
(0.628644 4.3858 0.601434)
(0.318019 3.56261 1.1647)
(0.360496 3.04915 1.92415)
(0.312644 2.3482 2.37927)
(-0.120893 2.06658 1.80478)
(-0.499032 1.82743 1.78465)
(0.103311 2.49471 1.90439)
(1.01693 2.90087 1.52113)
(1.04079 3.35313 1.54635)
(-3.08484 1.51678 1.26729)
(-1.64329 1.36213 1.7051)
(-0.437948 1.28144 0.89467)
(-0.344325 1.93179 0.690126)
(-0.278178 2.85017 2.3335)
(-0.173489 2.74866 2.33496)
(0.0367075 2.47608 2.06361)
(0.281479 2.11039 1.47927)
(0.0261461 1.91008 1.19511)
(0.0710934 1.99214 1.16477)
(0.311491 2.19353 0.822383)
(1.21865 2.39463 0.613946)
(-0.716949 1.64851 0.537857)
(-0.435619 0.691931 0.724552)
(-0.987196 0.370311 0.446803)
(-1.13505 1.87845 1.53962)
(-0.253052 2.99643 1.42736)
(-0.113461 2.85656 0.531411)
(-0.844254 2.13988 0.853912)
(-0.848328 1.69822 0.180049)
(-0.480333 1.56483 0.0269928)
(-0.199271 1.2831 -0.0311909)
(0.186036 1.68596 -0.0922229)
(1.02397 2.30832 -0.374978)
(1.37823 2.40632 -0.885939)
(-0.372644 2.61091 -0.760067)
(0.20183 2.09332 -1.09059)
(0.498462 1.36293 -1.57908)
(0.148558 1.30815 -2.14163)
(-0.590438 1.65817 -1.43395)
(-0.0226671 1.49699 -1.24343)
(-0.158261 1.14455 -0.712546)
(-0.250029 1.22868 -0.706668)
(-0.140355 0.991633 -0.479139)
(0.311907 1.18421 -0.367143)
(0.765903 1.78526 -0.242115)
(0.924125 1.88017 0.0129365)
(1.25107 1.69184 0.0329443)
(1.15483 1.67773 -0.0392237)
(1.6258 2.09427 0.218036)
(1.58605 1.32184 -0.162258)
(1.31537 1.02963 -0.259442)
(1.05869 0.592723 -0.819967)
(0.547251 0.443719 -1.19961)
(0.370135 0.490082 -0.541174)
(0.363795 0.617562 -0.908116)
(0.054763 0.808703 -0.539461)
(0.137937 0.453377 -0.557128)
(0.114273 0.73359 -0.699764)
(0.575622 1.55373 -0.159347)
(0.643202 1.75578 -0.666392)
(0.376011 1.47754 -0.906207)
(0.43541 1.21659 -0.893173)
(0.555594 0.958456 -0.637691)
(2.71081 0.287945 -0.173197)
(2.8365 0.333472 -1.31405)
(1.93271 -0.412593 -1.14545)
(1.14897 -0.400514 -1.36978)
(0.551488 -0.377263 -0.934667)
(0.530355 0.10001 -1.41999)
(0.485788 0.432176 -1.67332)
(0.00654716 0.622871 -0.823586)
(0.00478368 0.710217 -0.720681)
(-0.183319 0.674545 -0.846455)
(-0.109986 0.623149 -1.25385)
(-0.0276704 0.499638 -1.29839)
(0.73848 0.322347 -0.941412)
(0.809247 0.141208 -0.815516)
(0.757986 -0.0119541 -0.59241)
(0.934868 -0.218787 -0.296247)
(-0.921423 1.59933 0.022827)
(-1.5943 1.23005 -0.121837)
(-1.15707 1.7733 0.0556884)
(-1.57519 1.29951 -0.158283)
(-1.28643 1.69576 0.0609276)
(-1.75866 1.57674 0.23559)
(-0.95848 2.10214 0.193981)
(-1.38852 1.85396 0.261213)
(-0.885586 1.84228 0.06471)
(-1.67794 1.59196 -0.110415)
(-1.49646 2.06227 -0.130724)
(-1.30092 2.25931 0.0997266)
(-0.856059 2.46803 0.0745088)
(-1.08565 2.28829 0.265353)
(-2.02777 1.64978 -0.0913872)
(-1.80623 2.1709 -0.105529)
(-1.27058 2.56879 -0.126922)
(-0.713655 2.72106 0.289645)
(-0.632386 2.66972 0.415841)
(-0.613577 2.71261 0.318487)
(-2.304 1.61629 -0.103705)
(-1.89369 2.45795 0.0145131)
(-1.54324 2.91863 -0.0683619)
(-0.894279 3.09751 0.283312)
(-0.651663 3.03034 0.408333)
(-0.64785 3.14887 0.442825)
(-0.697959 3.04561 0.351813)
(-2.76852 1.40858 0.2405)
(-2.51987 2.35711 0.193053)
(-1.78765 3.06931 0.204624)
(-0.6796 3.399 0.06799)
(-0.300324 3.42475 0.398041)
(-0.611354 3.34866 0.549675)
(-0.647146 3.36221 0.4979)
(-2.5419 2.03826 0.38078)
(-2.75444 2.37496 0.380943)
(-2.40677 2.89848 0.205693)
(-1.56938 3.21095 0.617393)
(0.0120413 3.33269 0.81739)
(-0.333085 3.33221 1.24317)
(0.307356 3.37722 1.99504)
(0.456145 3.36606 2.41678)
(-3.58337 0.862199 -0.106603)
(-3.11024 2.34599 0.152621)
(-1.9633 3.21077 1.01202)
(-0.941844 3.34745 1.44225)
(0.363354 3.52878 1.65206)
(0.970842 3.67079 1.87161)
(0.239606 3.53798 2.39258)
(0.490745 3.26878 2.88814)
(1.17778 3.34968 3.10079)
(-3.03197 2.74511 0.909079)
(-3.15508 2.96499 1.16224)
(-1.26157 4.24096 1.84297)
(-0.273281 4.61455 2.17815)
(0.35565 4.37148 2.07463)
(0.265623 4.018 2.20726)
(0.0449474 3.84634 2.50971)
(0.382494 3.75126 2.59797)
(0.584537 3.79247 2.47656)
(0.713317 3.87224 2.43672)
(-5.1331 1.60658 -0.105242)
(-2.19994 4.84719 1.24074)
(-1.46456 4.97147 1.81214)
(-0.329624 5.06577 1.98991)
(0.0753911 4.13848 2.25108)
(0.206846 3.27471 2.00248)
(0.458504 2.85762 2.37677)
(-0.0224339 2.91915 2.10125)
(-0.346931 3.66396 2.37074)
(0.913317 3.86389 1.9869)
(1.23276 3.73928 1.98569)
(-5.02707 1.29505 0.919362)
(-1.62041 4.01886 2.31116)
(-1.30936 3.07269 1.10482)
(-0.554733 2.65201 0.856227)
(-0.234382 2.6754 1.227)
(-0.56109 2.33833 1.6951)
(0.622717 1.92524 2.20477)
(-1.24459 1.90908 1.43363)
(-0.305469 2.31127 1.70639)
(0.238318 2.7974 1.82698)
(1.3188 3.25178 1.06831)
(1.49584 3.55065 1.11906)
(-3.63795 0.958461 1.51615)
(-2.48224 0.413016 2.07744)
(-0.456375 1.15111 1.42468)
(-0.390403 1.54864 0.82665)
(-0.583384 2.72855 2.21267)
(-0.113197 3.02882 2.01827)
(-0.00608222 2.4517 1.93895)
(-0.139727 2.11771 1.21288)
(-0.181283 1.91114 1.18758)
(-0.00443673 2.02108 1.05414)
(0.369335 2.05219 0.688327)
(0.800574 2.50334 0.610064)
(1.46877 2.53867 0.640399)
(-0.897197 2.04169 0.424237)
(-0.831094 0.857714 0.624977)
(-1.09078 0.408707 0.301558)
(-1.58173 1.46085 1.52344)
(-0.970938 2.70095 1.3367)
(-0.683834 2.59286 0.0270567)
(-0.850052 2.10305 0.687399)
(-0.812805 1.7627 0.166038)
(-0.527002 1.55115 0.0460328)
(-0.175156 1.30955 -0.0438854)
(0.240536 1.67519 -0.124736)
(0.281804 2.2179 0.46484)
(1.29096 2.36095 -0.532424)
(1.5903 2.40457 -0.735486)
(-0.63955 2.83443 -0.798289)
(0.195109 2.13632 -1.51492)
(0.375822 1.53875 -1.59612)
(0.136961 1.44309 -1.86981)
(-0.434262 1.6555 -1.36236)
(0.0309939 1.46696 -1.07638)
(-0.123044 1.14737 -0.793994)
(-0.307707 1.22817 -0.719484)
(-0.148698 0.992911 -0.496394)
(0.275501 1.18271 -0.430534)
(0.746902 1.79209 -0.259848)
(1.0521 2.05117 -0.00914591)
(1.46063 1.70549 -0.33056)
(1.38469 1.62581 -0.382037)
(1.26685 1.42433 -0.597055)
(1.4671 1.94379 -0.0193691)
(1.42719 1.24419 -0.132427)
(1.24862 0.984692 -0.0421822)
(1.16494 0.719395 -0.654904)
(0.511808 0.378612 -1.17346)
(0.337586 0.452495 -0.534235)
(0.327926 0.595597 -0.86905)
(0.0335182 0.780196 -0.47604)
(0.14697 0.4684 -0.528535)
(0.166551 0.732317 -0.735068)
(0.492103 1.45305 -0.536522)
(0.661709 1.73226 -0.443274)
(0.307693 1.37673 -0.835045)
(0.122747 1.13566 -0.786661)
(0.602962 0.925036 -0.635701)
(1.22307 0.210654 -0.598838)
(2.73558 0.249341 -0.174841)
(2.84784 0.363177 -1.24298)
(1.97133 -0.449194 -1.0681)
(1.18544 -0.393853 -1.31279)
(0.551237 -0.397531 -0.839897)
(0.476086 0.0662161 -1.3157)
(0.519376 0.448242 -1.59968)
(0.0561799 0.635584 -0.899521)
(0.000417277 0.705081 -0.739434)
(-0.20259 0.667546 -0.808981)
(-0.0915366 0.609439 -1.27252)
(0.0409993 0.483392 -1.30906)
(0.867335 0.355033 -0.823879)
(0.769858 0.140132 -0.848136)
(0.657267 -0.0308198 -0.595746)
(0.906072 -0.210402 -0.321024)
(0.457776 -0.128805 -0.867915)
(-1.22518 1.23846 0.111847)
(-1.05668 1.4991 0.0309617)
(-1.16647 1.63694 -0.152538)
(-0.734448 1.70947 0.0395163)
(-1.60777 1.19153 -0.0484434)
(-1.37753 1.61154 0.04279)
(-0.99022 2.04495 -0.126592)
(-0.701262 2.07941 0.0742934)
(-1.39773 1.43428 -0.0826151)
(-1.41496 1.54367 0.0554096)
(-1.75201 1.54003 0.155886)
(-1.11708 2.074 0.0993724)
(-0.578291 2.20821 0.232881)
(-0.72632 2.168 0.326335)
(-0.989597 2.08902 0.289997)
(-1.75417 1.49816 -0.080187)
(-1.49389 2.06735 -0.128826)
(-1.40449 2.23131 0.0134871)
(-0.957291 2.42456 0.11638)
(-0.844839 2.5243 0.239692)
(-0.83564 2.47606 0.0609432)
(-2.10989 1.55469 -0.0678866)
(-1.91635 2.13384 -0.129175)
(-1.43408 2.5003 -0.16231)
(-0.917169 2.68171 0.245094)
(-0.626253 2.73148 0.486145)
(-0.493306 2.80549 0.449293)
(-0.390348 2.6712 0.395946)
(-2.45308 1.39223 -0.104732)
(-2.19197 2.22632 -0.0276339)
(-1.42533 2.93943 -0.04191)
(-1.17074 3.04198 0.177322)
(-0.731942 3.0781 0.440207)
(-0.681392 3.14957 0.470071)
(-0.570996 3.14915 0.369161)
(0.0630243 3.18368 0.0170568)
(-2.91746 1.19684 0.224355)
(-2.54608 2.36926 0.179471)
(-2.10057 2.73006 0.237887)
(-1.14326 3.35602 0.0652434)
(-0.684556 3.4693 0.510122)
(-0.684716 3.42793 0.600679)
(-0.563113 3.43854 0.588378)
(0.103352 3.61037 0.960957)
(-2.72679 1.68098 0.438905)
(-3.14053 1.9877 0.258591)
(-2.26767 3.09188 0.0277597)
(-1.53798 3.13125 0.645314)
(-0.588231 3.41056 0.731426)