/*--------------------------------*- C++ -*----------------------------------*\
  =========                 |
  \\      /  F ield         | OpenFOAM: The Open Source CFD Toolbox
   \\    /   O peration     | Website:  https://openfoam.org
    \\  /    A nd           | Version:  7
     \\/     M anipulation  |
\*---------------------------------------------------------------------------*/
FoamFile
{
    version     2.0;
    format      ascii;
    class       volVectorField;
    location    "6.5";
    object      U_0;
}
// * * * * * * * * * * * * * * * * * * * * * * * * * * * * * * * * * * * * * //

dimensions      [0 1 -1 0 0 0 0];

internalField   nonuniform List<vector> 
18750
(
(4.0207 0.285166 -0.299097)
(3.38787 0.67663 -0.472575)
(3.81066 0.308748 0.0541542)
(3.99323 0.070469 -1.66851)
(1.24667 2.17147 -0.0613419)
(3.57357 0.914424 -0.426611)
(3.41658 0.672325 -1.88097)
(3.53784 0.316368 0.331967)
(3.69132 0.105517 -1.41904)
(2.07254 -0.454748 -1.85889)
(0.530406 4.141 1.06928)
(1.30982 2.2732 0.0722789)
(1.06166 1.72206 0.428012)
(3.57157 1.19348 -0.417634)
(3.60406 0.864871 -1.84586)
(1.10882 0.0112577 -1.77157)
(3.30715 0.309321 0.408835)
(3.35473 0.104321 -1.30586)
(1.97028 -0.425814 -1.74541)
(1.12676 -0.409096 -2.23368)
(-0.859854 4.25364 0.0883234)
(1.61686 3.7465 0.106339)
(1.58656 2.73936 2.57304)
(1.24305 2.29946 0.20856)
(1.15075 1.60843 0.424188)
(0.0327388 -0.17674 1.97956)
(3.36394 1.31798 -0.444487)
(3.53266 0.99332 -1.84482)
(1.06523 0.130345 -1.69457)
(1.16665 -0.235057 -2.44857)
(3.25311 0.28217 0.26789)
(3.11313 0.0916342 -1.32405)
(1.89897 -0.40022 -1.70618)
(1.09321 -0.408383 -2.06916)
(0.905983 -0.22364 -2.41622)
(-1.62399 3.91016 -0.239484)
(-0.435342 4.30446 0.0288099)
(-0.230758 3.7355 1.59327)
(1.60875 3.76636 0.195849)
(1.81195 2.66077 2.61116)
(0.702769 2.60881 3.4035)
(1.15181 2.34863 0.190384)
(1.2858 2.1583 0.366402)
(-0.00875974 -0.177671 1.20754)
(-0.441778 0.608044 2.12271)
(2.92577 1.45961 -0.534167)
(3.02037 1.08546 -1.85919)
(1.10393 0.258783 -1.65474)
(1.34292 -0.139134 -2.42891)
(0.0969952 0.272957 -1.90759)
(3.22671 0.336122 0.0365077)
(3.04187 0.119631 -1.38596)
(1.8467 -0.376485 -1.69278)
(1.0378 -0.413339 -1.90078)
(0.903668 -0.208222 -2.30504)
(0.300663 0.134205 -1.58784)
(0.409187 2.61794 -0.40069)
(-0.847992 3.71148 -0.358288)
(-0.205277 4.38705 0.556591)
(-0.167762 4.44534 -0.109858)
(0.278484 3.61866 1.73249)
(-0.262014 3.74766 2.1961)
(1.79314 3.67377 0.602316)
(2.26866 2.44161 2.14536)
(0.629868 2.62353 3.44755)
(0.0435699 2.76794 3.30977)
(1.17063 2.32225 0.0846513)
(1.67575 1.91488 0.333802)
(0.122524 -0.197451 0.593951)
(-0.555379 0.658026 1.51157)
(-0.621811 1.17111 1.73156)
(2.42534 1.46124 -0.594697)
(2.44809 1.03419 -1.85979)
(1.2351 0.374439 -1.5969)
(1.48576 -0.00875209 -2.31021)
(0.264515 0.31575 -1.9408)
(-0.119941 0.536571 -1.45097)
(3.19044 0.348379 -0.0768808)
(3.0402 0.158011 -1.46059)
(1.83335 -0.383261 -1.64786)
(0.975843 -0.429652 -1.73866)
(0.8573 -0.203134 -2.1857)
(0.346355 0.127782 -1.71389)
(-0.186202 0.387536 -1.18877)
(-1.46365 2.88623 0.305124)
(0.178493 2.51212 -0.314742)
(-1.57994 3.41365 1.17171)
(-0.456462 3.71312 -0.354401)
(-0.768228 4.45138 0.569433)
(0.328616 4.15676 1.8967)
(0.363461 4.53118 0.0664741)
(0.392992 3.67887 1.81811)
(-0.26063 3.73674 2.25672)
(-0.247476 3.6399 2.31099)
(1.95901 3.44292 0.781654)
(2.13006 2.28933 1.6793)
(1.22935 2.4105 3.41656)
(0.0409748 2.78272 3.25705)
(0.148303 2.87355 2.56824)
(1.33911 2.35054 -0.187068)
(1.76016 1.87424 0.245116)
(0.344025 -0.19126 -0.2321)
(-0.82336 0.711523 0.358065)
(-1.04589 1.5365 1.13407)
(-0.838326 1.40587 -0.278757)
(1.87321 1.45883 -0.61827)
(1.96158 0.95283 -1.76794)
(1.32374 0.475689 -1.47815)
(1.53714 0.111156 -2.16551)
(0.412017 0.37547 -1.93484)
(0.0815634 0.577123 -1.45049)
(0.214988 0.830225 -1.02408)
(3.12683 0.373917 -0.145711)
(2.99392 0.16221 -1.47727)
(1.83636 -0.376374 -1.60218)
(0.919085 -0.44971 -1.60607)
(0.800312 -0.206067 -2.06364)
(0.405475 0.123343 -1.82534)
(-0.213109 0.36033 -1.254)
(-0.17286 0.654215 -0.849428)
(-2.25336 2.67707 0.442475)
(-1.27859 3.0916 0.215716)
(-1.69582 3.48414 1.24647)
(0.222919 2.53506 -0.322376)
(-1.5137 3.30318 1.1343)
(-0.463987 4.05501 1.43665)
(-0.070856 3.79331 -0.300706)
(0.871989 4.26961 0.432381)
(0.420899 4.05624 2.12307)
(0.572704 4.2443 2.18835)
(0.708395 4.53269 0.363467)
(0.694321 3.45742 1.87027)
(0.264445 3.55745 2.47874)
(-0.394526 3.61052 2.64382)
(-0.394959 3.45531 1.93318)
(1.77679 3.25173 0.736966)
(2.22584 2.06175 1.05183)
(1.45949 2.28597 3.06758)
(-0.113564 2.92243 3.22249)
(0.0693133 2.9266 2.50156)
(0.377211 2.59377 2.20344)
(1.43985 2.3275 -0.554586)
(1.6229 1.88367 0.121117)
(0.420412 -0.132093 -0.658616)
(-0.951909 0.717043 -0.136437)
(-1.25996 1.56904 0.865269)
(-1.35435 1.48205 0.0334055)
(-0.0343545 1.04214 -0.951226)
(1.47831 1.4143 -0.65481)
(1.65274 0.89563 -1.509)
(1.32406 0.54372 -1.29376)
(1.48369 0.22078 -1.97322)
(0.528893 0.452948 -1.90277)
(0.314704 0.642439 -1.42026)
(0.485721 0.819077 -1.05164)
(0.0366845 0.949502 -0.867523)
(3.06351 0.386736 -0.190273)
(2.87606 0.255254 -1.51729)
(1.86557 -0.35143 -1.53783)
(0.882283 -0.472099 -1.52548)
(0.748872 -0.223495 -1.92821)
(0.484565 0.121945 -1.90459)
(-0.221315 0.324792 -1.33221)
(-0.15064 0.650644 -0.858843)
(-0.0677498 0.682717 -0.718335)
(-2.57323 2.2158 -0.296993)
(-1.98895 2.81759 0.396575)
(-1.0986 3.75566 0.520252)
(-1.5987 3.0583 -0.00511583)
(-1.87755 3.2413 1.46388)
(-0.675237 3.77133 1.1058)
(-0.388981 2.59156 -0.183654)
(-0.629556 3.34478 1.14632)
(-0.637167 4.06386 1.51991)
(0.153221 4.24084 2.33913)
(0.391486 4.03802 -0.267763)
(0.665839 4.34878 0.856152)
(0.685275 3.98837 2.06601)
(0.385349 4.25656 2.12804)
(0.697263 4.12176 1.88917)
(0.758399 4.43543 0.65881)
(1.59449 3.15901 1.50957)
(0.537065 3.51299 2.48979)
(-0.53959 3.52235 2.87158)
(-0.12823 3.47812 1.96472)
(0.612792 2.82841 1.9429)
(1.50482 2.95107 0.619048)
(2.43601 1.9529 0.809132)
(0.882006 2.08472 2.67203)
(-0.151184 2.90743 3.19292)
(0.15605 2.92641 2.5649)
(0.563672 2.70704 1.9916)
(0.531774 2.00647 0.707116)
(1.30466 2.33036 -0.814859)
(1.41465 1.8261 -0.143136)
(0.439217 -0.00845767 -1.08911)
(-1.08778 0.713341 -0.655417)
(-1.24437 1.55841 0.1075)
(-0.916658 1.57408 -0.925355)
(0.049518 1.06818 -0.932259)
(0.0835487 1.05124 -0.853135)
(1.31353 1.46335 -0.45699)
(1.64912 0.957655 -1.17168)
(1.24063 0.588642 -1.12849)
(1.33919 0.297952 -1.75146)
(0.605028 0.51438 -1.84558)
(0.466887 0.687943 -1.34883)
(0.713449 0.805165 -1.03494)
(0.071337 0.919109 -0.89307)
(0.0740252 0.558615 -0.654185)
(2.98058 0.418609 -0.210934)
(2.85914 0.244669 -1.52519)
(1.95794 -0.291119 -1.53103)
(0.870313 -0.501539 -1.49966)
(0.698966 -0.224574 -1.78457)
(0.563261 0.143322 -1.93028)
(-0.184014 0.292011 -1.41913)
(-0.167971 0.642837 -0.847729)
(-0.0538893 0.68542 -0.723649)
(-0.0275868 0.670446 -0.936943)
(-2.04747 2.16707 -0.0623848)
(-2.39749 2.33407 -0.0377254)
(-0.936957 3.41622 0.300681)
(-1.97156 2.82774 0.430621)
(-1.48657 3.64303 0.571132)
(-0.137257 3.82288 0.514706)
(-1.80913 3.03313 0.177403)
(-1.84622 3.21726 1.83165)
(-1.05085 3.64752 1.0736)
(-0.182918 4.31886 1.34949)
(-1.01392 2.66804 -0.00222436)
(-1.58131 3.17671 1.23412)
(-1.22267 4.02547 1.75131)
(0.195971 4.25332 2.36288)
(1.26271 4.33472 1.79976)
(0.919544 4.50853 -0.0830573)
(0.916844 4.34063 1.18266)
(0.876909 4.00668 1.9976)
(0.38261 4.02696 2.1482)
(0.572079 3.97197 2.19898)
(0.705697 3.58497 1.99706)
(0.961121 4.11916 0.871594)
(1.43765 3.18411 1.17097)
(0.814415 3.38904 2.40778)
(-0.459725 3.59394 2.69312)
(0.0891008 3.4082 2.03645)
(0.459002 2.76757 2.06748)
(0.0324353 2.08741 2.00075)
(1.32173 2.62925 0.724512)
(2.19283 1.70313 0.668068)
(0.564841 1.57514 2.44121)
(-0.0608732 2.84922 2.87182)
(0.0259398 2.93167 2.56053)
(0.616503 2.77607 1.65101)
(0.604221 2.13319 0.851432)
(-0.748354 1.57756 0.761791)
(1.07735 2.3191 -0.856053)
(1.32377 1.6683 -0.478716)
(0.501438 0.159423 -1.39103)
(-1.07118 0.704154 -1.12367)
(-1.29923 1.62497 -0.137775)
(-0.799683 1.61716 -1.18646)
(0.130715 1.13824 -0.832046)
(-0.00816624 1.11343 -0.794031)
(0.421414 1.11259 -0.579986)
(1.31005 1.52248 -0.354006)
(1.8565 1.12182 -0.898434)
(1.07876 0.56146 -1.12763)
(1.15076 0.306983 -1.51912)
(0.685631 0.561619 -1.72304)
(0.556633 0.706622 -1.1826)
(0.683055 0.778479 -0.976271)
(0.0531252 0.896953 -0.920934)
(0.0515292 0.512459 -0.612653)
(0.193948 0.9659 -0.492216)
(2.89062 0.405432 -0.236915)
(2.86905 0.255548 -1.52821)
(2.05079 -0.274936 -1.53621)
(0.875746 -0.49009 -1.51418)
(0.663338 -0.248153 -1.63065)
(0.632762 0.14065 -1.89794)
(-0.102688 0.274636 -1.50643)
(-0.1868 0.619272 -0.815107)
(-0.0636445 0.68362 -0.727243)
(-0.0593109 0.679152 -0.923558)
(-0.101594 0.675885 -1.17432)
(-1.29993 2.47548 -0.22585)
(-2.53865 1.81002 -0.110647)
(-1.44219 3.11022 0.0372973)
(-2.16006 2.46278 0.12906)
(-1.59636 3.31698 0.306868)
(-0.811768 3.7183 0.23379)
(-2.25181 2.67935 0.395978)
(-2.32686 3.41651 0.098957)
(-0.816266 3.85597 0.671187)
(-0.11688 4.23004 0.330581)
(-2.27342 2.97163 0.589822)
(-3.05156 2.9698 1.30509)
(-1.57898 3.50199 1.48063)
(-0.517659 4.37111 1.41452)
(1.30554 4.42312 1.29203)
(-1.12629 3.06344 -0.0943228)
(-1.84309 3.75946 0.929826)
(-0.482961 4.69108 1.36702)
(0.222445 4.40246 2.15563)
(0.818786 4.19311 2.23054)
(2.23093 3.47268 2.02936)
(1.21353 4.78319 0.0705915)
(0.607176 4.44397 1.29686)
(-0.252162 3.66835 3.30254)
(0.66273 3.85835 2.10186)
(0.661601 3.75037 2.39668)
(0.939426 3.13584 2.3614)
(0.151011 2.31934 2.61719)
(0.920351 3.7802 0.993218)
(1.38237 2.93309 0.985967)
(0.538299 3.24971 2.0746)
(-0.146707 3.31476 2.76615)
(0.0761279 3.39197 2.10278)
(0.283162 2.64827 2.26421)
(-0.0640753 2.22605 2.09138)
(-0.113255 1.83273 1.63419)
(1.15308 2.43143 0.672482)
(1.91623 1.45311 0.563815)
(0.518294 1.28785 1.99687)
(-0.230582 2.50127 2.82615)
(-0.20272 2.87014 2.59834)
(1.0785 2.70343 1.18006)
(-0.0168285 2.26256 0.943257)
(-0.771558 1.61721 0.69522)
(-0.517451 1.34358 0.526986)
(0.814995 2.28003 -0.591587)
(0.90909 1.56312 -1.17015)
(0.64814 0.382528 -1.54875)
(-0.922705 0.755308 -1.51193)
(-1.14337 1.69672 -0.719639)
(-0.447789 1.6392 -1.44308)
(0.113737 1.19845 -0.745093)
(-0.133956 1.12026 -0.807429)
(0.388002 1.12308 -0.591593)
(0.427619 1.15775 -0.395382)
(1.32041 1.71415 -0.165655)
(1.97045 1.3068 -0.713596)
(1.09315 0.631952 -1.07592)
(0.880709 0.315133 -1.33781)
(0.654256 0.628234 -1.56076)
(0.559072 0.697684 -0.974051)
(0.484649 0.697914 -0.915587)
(-0.00824678 0.861106 -0.925927)
(0.061525 0.478066 -0.594144)
(0.177957 0.918731 -0.491495)
(0.542955 1.66733 -0.141255)
(2.83007 0.39395 -0.233513)
(2.84872 0.296324 -1.51102)
(2.00621 -0.280229 -1.48553)
(0.948834 -0.468176 -1.5896)
(0.628731 -0.270538 -1.476)
(0.652496 0.155236 -1.82429)
(0.00779458 0.276766 -1.5891)
(-0.167962 0.618924 -0.767812)
(-0.0730503 0.685126 -0.727988)
(-0.0923175 0.67437 -0.91181)
(-0.108601 0.665924 -1.18438)
(-0.141266 0.563319 -1.23834)
(-1.58856 1.96501 -0.0416108)
(-1.79612 2.16273 -0.160411)
(-0.795054 2.94157 0.129471)
(-1.46082 2.30921 -0.0838443)
(-2.6279 1.75484 -0.123674)
(-1.6656 2.90723 0.029998)
(-0.323464 3.44394 0.224814)
(-2.08066 2.51923 0.173148)
(-1.73598 3.3354 0.462676)
(-1.15186 3.71188 0.305624)
(-0.25471 3.5287 0.349846)
(-2.3245 2.6779 0.203865)
(-2.5093 3.31983 0.171597)
(-1.59656 3.69451 0.573538)
(-1.21913 3.92589 0.689663)
(0.285445 4.06436 1.23919)
(-3.16498 2.35189 0.282572)
(-3.11092 2.97797 1.04771)
(-0.0760971 4.41221 1.27291)
(-0.565257 4.40655 1.60541)
(0.898186 4.50519 1.7672)
(1.0463 4.16428 1.68233)
(-0.935503 3.94489 -0.247864)
(-1.84427 3.95675 1.3608)
(-2.94246 3.34909 2.77265)
(0.176695 4.47439 1.87508)
(1.45901 4.16139 2.21531)
(2.01001 3.17644 2.67858)
(0.790768 3.00664 3.35231)
(-0.706353 4.06693 0.345435)
(-0.0214177 4.53407 1.3689)
(0.675193 4.54753 1.90287)
(0.824521 3.84085 2.39523)
(1.14005 3.56876 2.33432)
(0.232774 2.94296 2.57357)
(0.723249 1.94977 2.62503)
(0.536086 2.21996 2.21709)
(-0.368502 3.05629 1.13372)
(0.449011 2.58736 1.24967)
(-0.447401 2.29667 2.02628)
(-0.317761 3.26352 2.11137)
(-0.0630604 3.08425 2.47468)
(0.0764332 2.72447 2.27058)
(0.13072 2.27669 2.19875)
(-0.0146174 1.80297 1.69149)
(-0.238024 1.83089 1.56913)
(0.840691 2.26678 0.468702)
(1.33778 1.22137 0.578505)
(0.0430985 1.12024 1.68618)
(-0.31214 2.47723 2.36041)
(0.139164 2.93285 2.31442)
(0.537808 2.84016 1.12661)
(-0.447603 2.20666 1.02932)
(-0.85381 1.67116 0.575916)
(-0.37899 1.47663 0.16125)
(-0.391418 1.15967 0.367107)
(0.450353 2.25845 -0.514607)
(0.869059 1.52449 -1.28377)
(0.695364 0.624621 -1.55303)
(-0.660948 0.863013 -1.81585)
(-1.28681 1.65726 -0.903654)
(-0.242868 1.64605 -1.56596)
(0.0244092 1.2075 -0.706852)
(-0.142067 1.1787 -0.758712)
(0.311622 1.11063 -0.592694)
(0.365476 1.18347 -0.378793)
(0.642668 1.73176 -0.153724)
(1.57313 1.86906 0.177627)
(1.99748 1.44094 -0.478233)
(1.1989 0.759414 -0.954916)
(0.755888 0.297439 -1.1955)
(0.688323 0.596022 -1.41167)
(0.511507 0.656851 -0.788719)
(0.358357 0.637216 -0.924383)
(-0.0327448 0.836186 -0.859278)
(0.0797216 0.448965 -0.571683)
(0.120115 0.870965 -0.511598)
(0.595422 1.64141 -0.139462)
(0.73442 1.76017 -0.527774)
(2.77292 0.357455 -0.220187)
(2.82647 0.325156 -1.45024)
(1.95927 -0.310434 -1.36351)
(0.992019 -0.461191 -1.59366)
(0.597023 -0.295942 -1.32383)
(0.645856 0.14944 -1.73006)
(0.136772 0.298082 -1.65995)
(-0.0746947 0.628728 -0.74858)
(-0.0444855 0.690969 -0.72406)
(-0.130087 0.672411 -0.893485)
(-0.11263 0.653314 -1.20027)
(-0.117887 0.546115 -1.25004)
(0.355723 0.292125 -1.17406)
(-1.14649 2.02327 -0.0594639)
(-1.80577 1.85789 -0.0222203)
(-1.56603 2.30508 -0.0704773)
(-1.45008 2.00246 -0.0961347)
(-1.87663 2.1019 -0.152634)
(-1.72864 2.50388 -0.0363076)
(-0.766923 3.01337 0.0943176)
(-1.02844 2.75454 0.0751418)
(-2.64246 1.68953 0.00976681)
(-1.73648 2.86303 -0.0664921)
(-0.687208 3.38275 0.0905448)
(-0.382825 3.33885 0.0500128)
(-2.09059 2.47279 0.155305)
(-2.14924 2.90998 0.525849)
(-1.49726 3.4515 0.324091)
(-0.332341 3.42365 0.315668)
(0.0124404 3.25627 0.678513)
(-2.40953 2.4885 0.267029)
(-2.80267 2.84539 0.131031)
(-1.8915 3.4794 0.693105)
(0.532848 3.77879 1.18178)
(0.109606 3.99441 1.47157)
(0.387657 3.64702 1.63446)
(-3.46974 2.18318 -0.190058)
(-2.82011 3.09223 1.41994)
(-2.10041 3.64208 1.64266)
(-0.651055 4.4494 1.50574)
(-0.418274 4.57541 1.80465)
(0.200926 4.35051 1.91546)
(0.914342 4.02424 2.12889)
(-2.05586 4.25501 0.0195629)
(-1.57471 4.03483 1.62816)
(-1.19524 4.71527 2.15398)
(-0.792739 4.19639 2.32598)
(0.299431 4.10289 2.74562)
(1.51579 3.32628 2.67301)
(0.617709 2.95882 3.18791)
(0.44145 3.36162 2.82758)
(-2.15991 3.41466 0.477312)
(-0.0969801 4.68414 1.37684)
(0.951876 4.71788 1.39236)
(1.05056 4.21683 2.01371)
(0.854571 3.3966 2.55309)
(0.665406 2.57155 2.57832)
(-0.19598 2.24297 2.04305)
(0.0846779 1.96799 1.94558)
(0.308166 2.53008 2.53968)
(-1.55794 2.31705 1.16275)
(-0.666782 1.82181 1.57153)
(-0.824944 1.62674 1.58097)
(-0.499294 2.35071 2.33023)
(-0.050085 3.07648 2.37346)
(-0.0277249 2.66394 2.41751)
(0.169828 2.37771 2.17711)
(0.0408283 1.84985 1.78039)
(0.150249 1.95917 1.29757)
(-0.118283 2.28084 1.21989)
(0.28539 2.03578 0.466274)
(0.607457 0.948758 0.657761)
(-0.384001 0.899082 1.23749)
(-0.15282 2.52047 1.73427)
(0.0839444 3.17735 1.84222)
(0.531838 2.93834 0.708557)
(-0.708526 2.16584 1.01362)
(-0.896108 1.66598 0.505946)
(-0.36873 1.4939 0.0901885)
(-0.217765 1.25442 0.0158774)
(-0.137729 1.53114 0.220518)
(0.184065 2.3086 -0.509021)
(0.672048 1.67343 -1.36244)
(0.720481 0.891023 -1.56327)
(-0.380546 0.833066 -2.1264)
(-1.00375 1.59018 -1.24496)
(-0.0330213 1.62788 -1.57957)
(-0.0628834 1.1974 -0.657074)
(-0.181739 1.21108 -0.710991)
(0.157344 1.07969 -0.551959)
(0.316267 1.18416 -0.366733)
(0.706936 1.75455 -0.170762)
(0.570718 1.96049 0.162285)
(1.65274 2.07392 0.45466)
(2.01868 1.46825 -0.030235)
(1.30156 0.882394 -0.791612)
(0.756038 0.336636 -1.11781)
(0.646275 0.59506 -1.29826)
(0.448851 0.603377 -0.652481)
(0.38494 0.634351 -0.932024)
(-0.00410195 0.81301 -0.758775)
(0.103254 0.431023 -0.572994)
(0.0732636 0.795344 -0.613807)
(0.602021 1.61756 -0.135306)
(0.745614 1.77403 -0.608225)
(0.498168 1.53393 -0.932631)
(2.73072 0.324746 -0.191071)
(2.88469 0.308068 -1.41301)
(1.94454 -0.34995 -1.27879)
(1.03464 -0.434852 -1.50405)
(0.574144 -0.325496 -1.18211)
(0.613211 0.142243 -1.63133)
(0.270524 0.340842 -1.70622)
(-0.0568592 0.626962 -0.754406)
(-0.0167689 0.697794 -0.720127)
(-0.149484 0.674993 -0.885821)
(-0.113666 0.64352 -1.21766)
(-0.0839137 0.528367 -1.26349)
(0.472768 0.29023 -1.11621)
(0.793265 0.144206 -0.761441)
(-1.15454 1.77555 0.0881588)
(-1.48928 1.80154 -0.104899)
(-1.2247 2.11715 -0.0868303)
(-1.14469 1.9879 -0.0400212)
(-1.96652 1.73115 -0.0763212)
(-1.56769 2.38199 -0.0564121)
(-0.862898 2.64118 0.146096)
(-1.31999 2.35761 -0.102221)
(-1.94679 2.01732 -0.169284)
(-1.8532 2.45408 -0.089012)
(-1.04791 2.96734 0.134001)
(-0.464403 3.1391 0.387973)
(-0.612214 2.93392 0.188016)
(-2.68834 1.57047 0.239188)
(-1.71071 2.94257 0.0810102)
(-0.591168 3.49145 -0.00336382)
(-0.46299 3.30711 0.0186654)
(-0.778841 3.2296 0.382275)
(-2.10902 2.44726 0.218424)
(-2.36897 2.72833 0.592387)
(-1.90441 3.15592 0.140342)
(-0.464173 3.27122 0.52216)
(0.350869 3.38415 0.55837)
(-0.188376 3.28124 1.03975)
(-2.72631 1.91406 0.367276)
(-3.07205 2.47998 -0.077141)
(-2.10516 3.39558 0.726031)
(-0.41582 3.65741 1.53752)
(0.348954 3.71523 1.6091)
(0.644342 3.76218 1.79388)
(0.853717 3.66785 1.8777)
(-3.56991 2.35241 0.0191149)
(-2.98132 3.12401 1.32911)
(-1.14647 3.71024 1.86738)
(-0.637569 4.1926 1.8306)
(-0.0271802 4.54545 1.82316)
(0.286386 4.3524 1.7879)
(0.954602 3.90203 2.28928)
(0.995075 3.97838 2.2871)
(-3.54228 3.69515 0.286672)
(-1.59134 4.18741 1.38589)
(-0.958394 4.85839 2.02006)
(-0.896665 4.65604 2.24075)
(-0.151351 4.16072 2.73244)
(1.2942 3.03546 2.63645)
(1.12142 2.58512 3.1411)
(1.06433 3.04408 3.07118)
(0.622052 3.62942 2.59193)
(-3.50619 2.72281 0.494305)
(0.129459 5.05386 1.60122)
(1.18934 4.51755 1.0829)
(1.20553 4.00199 1.91999)
(0.23906 3.30814 2.34385)
(0.405169 2.65142 2.26041)
(0.570008 1.75155 2.22718)
(-0.38963 1.83718 1.83852)
(-0.00560764 2.30644 2.40471)
(0.952265 2.91313 1.85655)
(-2.30882 1.95965 1.22284)
(-1.03191 1.59025 1.64686)
(-0.520854 1.32486 1.01988)
(-0.520875 2.19038 1.51376)
(-0.647387 2.69779 2.59417)
(-0.0335201 2.71536 2.32393)
(0.214044 2.41361 2.16756)
(0.399195 2.01019 1.57613)
(0.30965 1.9495 1.23031)
(0.0325413 1.94901 1.36431)
(0.120714 2.31204 1.11024)
(-0.546099 1.65531 0.365829)
(0.00486623 0.771717 0.686342)
(-0.906261 0.460691 0.519422)
(-0.290515 2.44892 1.46458)
(0.0520526 3.19167 1.53862)
(0.263504 2.95457 0.577185)
(-0.800261 2.1569 0.969112)
(-0.872914 1.66897 0.267683)
(-0.379405 1.53823 0.0492193)
(-0.196374 1.2711 -0.0236786)
(-0.0257136 1.64942 0.0691724)
(1.13552 2.27643 -0.569724)
(-0.16394 2.44041 -0.588185)
(0.358681 1.85279 -1.44156)
(0.644973 1.14826 -1.58362)
(-0.0349752 1.10686 -2.20359)
(-0.759003 1.71991 -1.33255)
(0.011681 1.57522 -1.40691)
(-0.135558 1.15784 -0.676459)
(-0.196326 1.21768 -0.707719)
(-0.0388859 1.02738 -0.489762)
(0.313058 1.18299 -0.345901)
(0.764856 1.76765 -0.222071)
(0.595066 1.91664 0.198806)
(1.10317 1.72745 0.147838)
(1.69677 2.16676 0.469867)
(1.62173 1.42285 -0.288517)
(1.34169 0.983338 -0.560036)
(0.905338 0.453301 -0.962765)
(0.59632 0.536664 -1.23263)
(0.39669 0.548029 -0.573376)
(0.385141 0.628744 -0.928057)
(0.0508041 0.814131 -0.636552)
(0.127194 0.438309 -0.571598)
(0.0812086 0.763605 -0.651819)
(0.587181 1.58292 -0.122163)
(0.649475 1.77206 -0.783284)
(0.439748 1.50987 -0.998154)
(0.52479 1.26499 -0.968027)
(2.73909 0.313568 -0.170137)
(2.87865 0.362359 -1.38225)
(1.95167 -0.377655 -1.20352)
(1.08835 -0.419569 -1.43709)
(0.557231 -0.353904 -1.05565)
(0.577931 0.121243 -1.52449)
(0.416069 0.390947 -1.71168)
(-0.0255088 0.62144 -0.781661)
(0.00403705 0.707915 -0.717363)
(-0.17099 0.684787 -0.865179)
(-0.104563 0.628231 -1.24042)
(-0.0534318 0.511436 -1.28166)
(0.618869 0.29918 -1.02758)
(0.814997 0.13238 -0.791721)
(0.86519 -0.0095216 -0.579111)
(-1.57458 1.28232 -0.137392)
(-1.23414 1.75505 0.0594438)
(-1.70705 1.61277 0.233817)
(-0.995011 1.83942 0.121597)
(-1.58199 1.73382 -0.140982)
(-1.4455 2.03904 -0.102859)
(-0.929604 2.39777 0.317071)
(-1.12981 2.1216 -0.100042)
(-1.99068 1.68485 -0.0795299)
(-1.63722 2.32379 -0.0632164)
(-0.970562 2.64521 0.0579768)
(-0.65409 2.70406 0.291621)
(-0.646474 2.67803 0.108142)
(-2.16988 1.77627 -0.105206)
(-1.7454 2.53201 0.0297393)
(-1.31145 2.95334 0.0482178)
(-0.641912 3.09605 0.33946)
(-0.609658 3.10536 0.382382)
(-0.442332 3.07927 0.31165)
(-2.71166 1.47449 0.318938)
(-2.22817 2.55353 0.195652)
(-1.71449 3.095 0.14481)
(-0.567379 3.33557 0.03426)
(-0.443658 3.31889 0.370149)
(-0.595979 3.32109 0.53949)
(-2.33787 2.21878 0.346874)
(-2.6139 2.49053 0.585184)
(-2.29703 2.99497 0.267881)
(-0.297441 3.5111 0.598945)
(0.0506932 3.3716 0.624826)
(-0.32361 3.30196 1.13276)
(-0.491712 3.34258 1.41558)
(-3.0612 1.51655 0.14676)
(-3.19676 2.38492 -0.00312743)
(-1.82728 3.25927 0.965302)
(-0.652668 3.38543 1.55664)
(0.645386 3.52958 1.71504)
(0.732304 3.69571 1.77666)
(0.285459 3.59785 2.3359)
(0.965985 3.32711 2.6774)
(-3.42083 2.61704 0.390941)
(-2.93415 3.10591 1.20705)
(-0.318015 4.17536 1.99196)
(-0.246734 4.46377 2.09653)
(0.147925 4.36902 2.01617)
(0.26254 4.08563 2.05807)
(0.719877 3.65354 2.70425)
(0.693719 3.70967 2.47011)
(0.900137 3.95234 2.33393)
(-4.86211 2.33984 0.250207)
(-1.74677 4.56631 1.11391)
(-0.413694 4.91368 1.93997)
(-0.24011 4.824 2.278)
(0.131986 4.02805 2.79928)
(1.01486 3.12477 2.42808)
(0.803234 2.93924 2.44984)
(-0.376081 3.3731 2.3024)
(0.803826 3.40472 2.88633)
(0.976781 3.71074 2.08652)
(-4.60031 1.88515 0.645442)
(-1.71463 3.87097 1.744)
(0.548909 4.32989 0.60062)
(0.24649 3.49134 1.12108)
(0.348141 3.00922 1.87803)
(0.30592 2.32037 2.35848)
(-0.138104 2.06042 1.78654)
(-0.503583 1.83496 1.77195)
(0.11478 2.504 1.88234)
(1.00417 2.90482 1.52407)
(1.10398 3.36046 1.47227)
(-3.12647 1.48959 1.27842)
(-1.6886 1.32819 1.71847)
(-0.426456 1.27291 0.911738)
(-0.328263 1.92103 0.678316)
(-0.250986 2.86202 2.32126)
(-0.151445 2.76568 2.31147)
(0.0408169 2.47717 2.04185)
(0.278141 2.10781 1.46083)
(0.0246779 1.90763 1.19187)
(0.0828843 1.99266 1.15289)
(0.342024 2.18448 0.800505)
(1.24786 2.39322 0.563036)
(-0.715033 1.67655 0.548639)
(-0.456467 0.701758 0.721189)
(-0.998179 0.382896 0.442035)
(-1.198 1.84282 1.55309)
(-0.308951 2.97192 1.43434)
(-0.155814 2.83304 0.513192)
(-0.832943 2.13251 0.842369)
(-0.833458 1.69878 0.175247)
(-0.470296 1.56199 0.025721)
(-0.187491 1.28291 -0.0323344)
(0.203516 1.68433 -0.0995956)
(0.997777 2.30518 -0.324571)
(1.37577 2.39864 -0.870928)
(-0.367734 2.61721 -0.786563)
(0.217325 2.09241 -1.10226)
(0.507035 1.36844 -1.58387)
(0.155683 1.31636 -2.1303)
(-0.566146 1.66312 -1.43812)
(-0.0171648 1.4915 -1.22519)
(-0.151911 1.14637 -0.713644)
(-0.245592 1.22938 -0.704777)
(-0.133108 0.990907 -0.47962)
(0.318017 1.18111 -0.370295)
(0.775356 1.77955 -0.246683)
(0.966892 1.875 -0.00218588)
(1.28013 1.68156 0.00947477)
(1.1808 1.6657 -0.0597187)
(1.63516 2.0838 0.21502)
(1.59831 1.3173 -0.154252)
(1.32324 1.02003 -0.254601)
(1.05778 0.584183 -0.813305)
(0.550123 0.439804 -1.19619)
(0.369377 0.484015 -0.537228)
(0.362878 0.612491 -0.904715)
(0.059268 0.80473 -0.535239)
(0.143753 0.451654 -0.558308)
(0.124402 0.725979 -0.704815)
(0.579792 1.54137 -0.187442)
(0.660097 1.75022 -0.627012)
(0.383222 1.46502 -0.888285)
(0.420884 1.20252 -0.882826)
(0.560576 0.947092 -0.636586)
(2.74229 0.283097 -0.167202)
(2.83674 0.344609 -1.32051)
(1.92514 -0.413947 -1.16127)
(1.1319 -0.407774 -1.38036)
(0.54678 -0.379113 -0.944617)
(0.528532 0.0943563 -1.4154)
(0.492476 0.432312 -1.67508)
(0.0142095 0.622962 -0.838257)
(0.00706246 0.706866 -0.727439)
(-0.181771 0.675709 -0.838951)
(-0.104249 0.625104 -1.25461)
(-0.021328 0.49869 -1.29964)
(0.74222 0.31852 -0.936016)
(0.807161 0.13568 -0.814404)
(0.754928 -0.0145478 -0.591193)
(0.933703 -0.223244 -0.295689)
(-0.923021 1.5986 0.022033)
(-1.59425 1.23105 -0.121512)
(-1.16276 1.76925 0.057089)
(-1.57513 1.30061 -0.157297)
(-1.2847 1.69732 0.0605334)
(-1.75666 1.57939 0.233666)
(-0.958604 2.10311 0.192167)
(-1.39825 1.84773 0.259009)
(-0.8823 1.84535 0.066044)
(-1.68106 1.58923 -0.110106)
(-1.49143 2.06798 -0.132156)
(-1.30191 2.26067 0.0954398)
(-0.85347 2.4695 0.0743847)
(-1.08067 2.29207 0.264077)
(-2.0287 1.65013 -0.0912152)
(-1.80676 2.17266 -0.105885)
(-1.27712 2.56756 -0.130382)
(-0.713619 2.72308 0.288776)
(-0.631506 2.67229 0.417839)
(-0.609119 2.71416 0.316925)
(-2.30795 1.6107 -0.100747)
(-1.89965 2.45517 0.014395)
(-1.53959 2.91865 -0.0685923)
(-0.900059 3.09917 0.27676)
(-0.646467 3.03234 0.409257)
(-0.651403 3.15027 0.449198)
(-0.685483 3.05095 0.350996)
(-2.76453 1.41689 0.240747)
(-2.52312 2.35624 0.195321)
(-1.78755 3.0646 0.204925)
(-0.681565 3.40143 0.0689062)
(-0.293908 3.4323 0.403323)
(-0.603293 3.35394 0.55243)
(-0.63962 3.36512 0.499002)
(-2.54465 2.03447 0.380286)
(-2.75795 2.37062 0.369009)
(-2.39273 2.90708 0.201213)
(-1.54941 3.21551 0.61913)
(0.00973031 3.33681 0.828447)
(-0.326795 3.33882 1.25446)
(0.336915 3.38361 2.01248)
(0.404654 3.38095 2.39757)
(-3.61144 0.850848 -0.121291)
(-3.07488 2.37742 0.179434)
(-1.95561 3.21964 1.01724)
(-0.902867 3.3611 1.45546)
(0.383992 3.52992 1.65878)
(0.983976 3.6665 1.88485)
(0.223947 3.53206 2.40332)
(0.50628 3.27035 2.89652)
(1.20026 3.34859 3.11219)
(-3.00765 2.74247 0.936535)
(-3.18206 2.96189 1.14168)
(-1.30046 4.25359 1.83866)
(-0.249435 4.63002 2.17327)
(0.397194 4.3639 2.07258)
(0.265244 4.01398 2.20725)
(0.0365313 3.84908 2.49676)
(0.388677 3.7485 2.60492)
(0.592226 3.783 2.48914)
(0.705167 3.87419 2.44939)
(-5.14736 1.52348 -0.170395)
(-2.24391 4.86207 1.28714)
(-1.51657 4.98166 1.81391)
(-0.306985 5.08714 1.95581)
(0.108952 4.12821 2.18553)
(0.163947 3.25207 1.97491)
(0.409879 2.84907 2.36301)
(-0.00200879 2.90769 2.09349)
(-0.327505 3.67831 2.34291)
(0.941632 3.88988 1.97003)
(1.26823 3.74439 1.98705)
(-5.01815 1.29585 0.922425)
(-1.76952 3.88259 2.38128)
(-1.38524 2.98927 1.14291)
(-0.628142 2.56212 0.868619)
(-0.245731 2.62573 1.20415)
(-0.538005 2.33018 1.66256)
(0.616315 1.93608 2.19474)
(-1.22418 1.91642 1.42782)
(-0.320296 2.30505 1.68751)
(0.220885 2.79176 1.83344)
(1.33706 3.25287 1.04764)
(1.53718 3.55022 1.07661)
(-3.66299 0.928118 1.52037)
(-2.52658 0.369746 2.09528)
(-0.465483 1.14227 1.45411)
(-0.38098 1.55276 0.844942)
(-0.582634 2.72465 2.20084)
(-0.0925436 3.03642 1.99291)
(-0.0093262 2.4472 1.91114)
(-0.155154 2.11229 1.18973)
(-0.18391 1.91185 1.18149)
(0.00132107 2.02152 1.04117)
(0.344824 2.042 0.687401)
(0.8233 2.49185 0.61996)
(1.48944 2.5343 0.6106)
(-0.877529 2.0976 0.404038)
(-0.844384 0.881907 0.607361)
(-1.10256 0.432066 0.291033)
(-1.57622 1.47888 1.51065)
(-0.985182 2.69868 1.34763)
(-0.701477 2.5779 0.000480296)
(-0.845408 2.0956 0.671677)
(-0.798708 1.76441 0.165253)
(-0.520436 1.5448 0.0569746)
(-0.165304 1.30852 -0.0455316)
(0.245655 1.66929 -0.127308)
(0.244845 2.20951 0.517919)
(1.29161 2.35063 -0.469426)
(1.59492 2.38645 -0.727717)
(-0.633791 2.84534 -0.816885)
(0.191528 2.1623 -1.48635)
(0.390138 1.5472 -1.60041)
(0.146414 1.45353 -1.85858)
(-0.414671 1.66385 -1.3454)
(0.0232177 1.45918 -1.06177)
(-0.116698 1.14989 -0.796379)
(-0.302196 1.22826 -0.716773)
(-0.141145 0.99315 -0.498451)
(0.276133 1.1783 -0.437116)
(0.753933 1.78552 -0.264782)
(1.07276 2.05799 -0.00824356)
(1.49298 1.69562 -0.363206)
(1.41705 1.61382 -0.420691)
(1.29624 1.40651 -0.628311)
(1.47715 1.93173 -0.0205372)
(1.44061 1.2366 -0.123634)
(1.25894 0.974732 -0.0397524)
(1.16446 0.710096 -0.650373)
(0.51162 0.374168 -1.16919)
(0.334798 0.446997 -0.530425)
(0.326078 0.590232 -0.864849)
(0.0359632 0.774971 -0.476198)
(0.152163 0.466805 -0.528318)
(0.177366 0.727358 -0.737997)
(0.48782 1.43511 -0.584651)
(0.664462 1.72151 -0.445461)
(0.314622 1.36123 -0.832428)
(0.105233 1.12278 -0.774862)
(0.609685 0.915521 -0.637464)
(1.22717 0.2005 -0.597892)
(2.72105 0.252472 -0.166858)
(2.86659 0.348456 -1.2756)
(1.95262 -0.462741 -1.07057)
(1.17527 -0.400189 -1.32137)
(0.545704 -0.400644 -0.848729)
(0.474434 0.0605241 -1.31161)
(0.522114 0.445914 -1.59988)
(0.0653434 0.636834 -0.916182)
(0.00192816 0.701561 -0.747299)
(-0.201604 0.668152 -0.801945)
(-0.0843881 0.611391 -1.27328)
(0.0448382 0.482234 -1.31)
(0.874641 0.352195 -0.815004)
(0.769457 0.135539 -0.844822)
(0.65546 -0.0334762 -0.594341)
(0.906383 -0.217097 -0.321355)
(0.463514 -0.133826 -0.867571)
(-1.22468 1.23914 0.112513)
(-1.05718 1.49859 0.0301755)
(-1.16965 1.63384 -0.151683)
(-0.736044 1.70878 0.0384166)
(-1.60751 1.19247 -0.0478391)
(-1.38194 1.60881 0.0440248)
(-0.989674 2.0451 -0.124972)
(-0.703798 2.07766 0.0757729)
(-1.39901 1.43418 -0.0826635)
(-1.41342 1.54525 0.0549049)
(-1.74869 1.54395 0.153801)
(-1.11706 2.07518 0.0989587)
(-0.571741 2.21177 0.232297)
(-0.725438 2.16846 0.324808)
(-0.991828 2.08966 0.289384)
(-1.75523 1.49906 -0.080596)
(-1.49027 2.07125 -0.130886)
(-1.40306 2.23323 0.0111893)
(-0.958356 2.42409 0.115957)
(-0.842658 2.5262 0.242088)
(-0.831738 2.47934 0.0600385)
(-2.10797 1.55726 -0.0687773)
(-1.91956 2.13399 -0.127829)
(-1.42936 2.503 -0.162807)
(-0.911867 2.68447 0.24514)
(-0.624462 2.73505 0.483096)
(-0.493315 2.80789 0.450899)
(-0.386465 2.67178 0.397146)
(-2.45659 1.38703 -0.103014)
(-2.19173 2.22615 -0.0263361)
(-1.42249 2.93873 -0.0409839)
(-1.17376 3.0408 0.175505)
(-0.733379 3.08361 0.440768)
(-0.676152 3.15338 0.471235)
(-0.574774 3.14996 0.368702)
(0.0645893 3.18769 0.0220625)
(-2.91204 1.20646 0.227409)
(-2.54023 2.37099 0.181088)
(-2.10309 2.72483 0.237326)
(-1.14561 3.35314 0.0683478)
(-0.697549 3.47286 0.509657)
(-0.682778 3.43444 0.605672)
(-0.56259 3.45107 0.58521)
(0.111851 3.62207 0.953429)
(-2.74245 1.64372 0.437767)
(-3.15115 1.97894 0.235809)
(-2.25758 3.10546 0.0332137)
(-1.52582 3.14046 0.648543)
(-0.602742 3.42286 0.736902)
(-0.269995 3.47037 1.4002)
(-1.06923 3.50424 1.48231)