/*--------------------------------*- C++ -*----------------------------------*\
  =========                 |
  \\      /  F ield         | OpenFOAM: The Open Source CFD Toolbox
   \\    /   O peration     | Website:  https://openfoam.org
    \\  /    A nd           | Version:  7
     \\/     M anipulation  |
\*---------------------------------------------------------------------------*/
FoamFile
{
    version     2.0;
    format      ascii;
    class       volScalarField;
    location    "3";
    object      p;
}
// * * * * * * * * * * * * * * * * * * * * * * * * * * * * * * * * * * * * * //

dimensions      [0 2 -2 0 0 0 0];

internalField   nonuniform List<scalar> 
18750
(
-70.3629
-69.5429
-70.5696
-72.2144
-65.7295
-69.7046
-69.7752
-70.9534
-72.3951
-73.7873
-65.5565
-66.3614
-64.1603
-69.8466
-70.0911
-72.2004
-71.3977
-72.5491
-73.8014
-74.4409
-67.165
-65.8479
-69.24
-67.1665
-67.8764
-70.6797
-70.1405
-70.4858
-72.3605
-73.8228
-71.8523
-72.7142
-73.8209
-74.4346
-75.1421
-66.6495
-67.256
-68.7057
-66.8483
-70.1442
-70.8212
-68.0691
-70.1369
-71.1439
-72.6762
-70.511
-70.8229
-72.5251
-73.8683
-74.59
-72.2675
-72.9048
-73.8458
-74.431
-75.1378
-75.9037
-64.1017
-66.4043
-66.4748
-67.9616
-69.3079
-69.5176
-68.0968
-70.5773
-71.7338
-71.7034
-69.1167
-71.1174
-71.8034
-72.7278
-73.5131
-70.8886
-71.0534
-72.7144
-73.9303
-74.664
-75.2984
-72.5723
-73.1136
-73.8598
-74.4385
-75.1379
-75.9041
-76.3074
-62.8971
-64.0525
-64.517
-66.0966
-66.8074
-67.4069
-68.7297
-69.456
-69.8278
-70.0858
-69.7211
-71.1124
-72.2733
-72.2844
-73.0357
-70.2158
-71.8247
-72.2802
-72.8771
-73.6965
-74.5871
-71.2189
-71.4401
-72.9453
-74.011
-74.7046
-75.3594
-76.1543
-72.7595
-73.2985
-73.8675
-74.4577
-75.1497
-75.9019
-76.2776
-75.43
-62.328
-62.7825
-63.7118
-64.0472
-64.8425
-64.4144
-66.3697
-67.15
-67.5714
-68.0312
-69.6935
-69.6412
-70.4755
-70.6628
-70.9977
-71.6952
-71.9697
-72.6889
-72.8867
-73.3429
-74.3727
-71.2022
-72.3539
-72.6687
-73.2129
-73.9249
-74.5959
-75.0888
-71.5074
-71.9565
-73.1328
-74.1093
-74.7338
-75.4248
-76.0851
-75.4891
-72.8333
-73.4238
-73.8736
-74.4477
-75.1644
-75.8976
-76.2492
-75.4214
-75.1994
-61.486
-62.2644
-62.782
-62.5286
-63.7905
-63.8716
-63.7897
-65.2529
-64.321
-65.8549
-66.9996
-67.2781
-68.0012
-68.198
-69.3341
-70.8827
-70.329
-71.3043
-71.484
-71.4372
-72.5172
-73.3995
-72.9394
-73.1792
-73.5817
-73.8816
-74.577
-74.8926
-71.9358
-72.9994
-73.1867
-73.6084
-74.1371
-74.5846
-75.1167
-75.081
-71.7662
-72.4039
-73.2934
-74.2177
-74.754
-75.4856
-76.0289
-75.4638
-75.4096
-72.8284
-73.5053
-73.8834
-74.3913
-75.1855
-75.8942
-76.2209
-75.413
-75.2086
-75.328
-60.8774
-61.503
-61.737
-62.2348
-62.8455
-62.8226
-62.1601
-63.7302
-63.878
-64.3553
-63.8293
-65.564
-64.529
-66.3298
-66.6861
-67.5727
-67.8234
-68.3868
-68.7136
-69.43
-69.9978
-72.2569
-71.7219
-72.3194
-71.924
-71.8916
-72.6241
-74.3224
-74.6379
-73.887
-73.8772
-74.1768
-74.3525
-74.5642
-74.8636
-75.6911
-72.5338
-73.5413
-73.6406
-73.8916
-74.3094
-74.7517
-75.1235
-75.1153
-75.1927
-71.9873
-72.7501
-73.4434
-74.3403
-74.7829
-75.554
-75.9527
-75.4385
-75.4209
-75.6962
-72.8317
-73.57
-73.9071
-74.3443
-75.2273
-75.8921
-76.196
-75.4057
-75.2173
-75.3438
-75.5175
-60.3244
-60.9485
-60.926
-61.5382
-61.7482
-61.691
-62.2554
-62.9101
-62.9509
-63.0321
-61.7272
-63.7217
-63.9372
-64.8155
-64.4467
-63.9199
-65.8712
-65.0374
-65.7568
-67.0259
-66.9594
-68.6917
-69.0476
-68.8103
-69.4617
-69.9403
-70.2928
-71.2086
-73.6487
-73.375
-73.233
-72.454
-72.4734
-73.128
-74.5926
-75.2385
-75.6655
-74.7103
-74.5959
-74.5516
-74.7294
-74.4798
-74.8256
-75.5512
-75.8415
-73.0571
-73.9324
-74.0115
-74.118
-74.5163
-74.8599
-75.1562
-75.144
-75.2038
-76.1324
-72.1741
-73.0026
-73.5812
-74.4625
-74.8311
-75.613
-75.881
-75.4109
-75.4346
-75.6885
-75.9753
-72.851
-73.6257
-73.9369
-74.3123
-75.2675
-75.8896
-76.1774
-75.4001
-75.2252
-75.3541
-75.508
-76.1162
-59.8087
-60.3035
-60.3867
-60.2641
-60.7994
-60.8049
-60.915
-61.573
-61.6146
-61.6431
-61.927
-62.2318
-63.0156
-63.0039
-63.1156
-63.2726
-61.8343
-63.9406
-64.0899
-64.5189
-64.3878
-64.7067
-64.1725
-66.1413
-65.1907
-66.4718
-67.0279
-66.8739
-67.1265
-70.2796
-69.8284
-70.2809
-69.9778
-70.3021
-70.7508
-71.971
-72.3262
-75.2947
-75.0676
-74.063
-73.31
-72.9213
-73.5273
-74.5788
-75.1004
-74.8485
-76.3559
-75.6057
-75.1941
-74.7107
-75.0139
-74.4017
-74.7442
-75.3642
-75.6535
-76.2347
-73.4197
-74.2289
-74.2846
-74.3798
-74.8072
-74.8382
-75.1956
-75.1635
-75.214
-76.1324
-76.5593
-72.3373
-73.1971
-73.6841
-74.5551
-74.9053
-75.6554
-75.8455
-75.3811
-75.4472
-75.6768
-75.9479
-76.8951
-72.8259
-73.6402
-73.9687
-74.2953
-75.2762
-75.8873
-76.162
-75.3962
-75.2323
-75.3577
-75.4959
-76.0804
-76.181
-59.5498
-59.8164
-59.9261
-59.8664
-60.2762
-60.2349
-60.34
-60.3478
-60.7206
-60.8811
-60.9494
-61.0446
-61.5691
-61.7204
-61.6792
-61.9392
-61.9161
-62.3306
-62.9524
-62.9422
-63.1155
-63.0938
-63.1752
-61.9629
-63.8561
-64.2415
-64.2666
-64.2935
-64.3874
-64.8295
-65.2395
-66.1884
-65.6031
-67.0138
-67.2075
-66.9449
-67.1278
-67.5546
-71.3979
-71.0999
-71.3941
-71.0462
-70.509
-71.2703
-72.6462
-72.6167
-72.2829
-76.5876
-76.8033
-75.1042
-74.0147
-73.7727
-73.7039
-74.629
-75.0563
-74.8121
-75.0352
-76.4669
-76.1794
-75.7556
-74.9615
-75.2101
-74.3556
-74.7388
-75.1312
-75.5737
-76.3008
-76.6699
-73.6745
-74.4481
-74.4516
-74.6718
-75.0942
-74.9519
-75.2187
-75.181
-75.242
-76.1147
-76.5195
-77.4649
-72.4754
-73.3545
-73.7657
-74.6496
-74.9896
-75.6797
-75.813
-75.3548
-75.457
-75.6653
-75.9167
-76.9109
-77.1416
-72.8077
-73.5961
-74.0163
-74.3094
-75.2578
-75.8879
-76.1368
-75.3948
-75.2382
-75.3546
-75.4827
-76.0444
-76.145
-76.4753
-59.1557
-59.4747
-59.5593
-59.5392
-59.759
-59.843
-59.8355
-59.9793
-60.2839
-60.3765
-60.3336
-60.3878
-60.3941
-60.6872
-60.9014
-60.9309
-60.9747
-61.0039
-61.6905
-61.7381
-61.6346
-61.9203
-61.9121
-61.6788
-62.7223
-62.8662
-63.1168
-63.1306
-63.0492
-62.9978
-63.172
-62.4693
-63.9801
-64.3207
-64.4799
-64.4701
-64.6693
-64.4442
-65.0727
-65.9821
-66.3717
-66.2099
-67.2212
-67.4514
-67.3631
-67.3966
-67.6136
-67.6795
-72.2803
-72.7302
-71.7021
-71.7175
-71.3087
-71.5942
-72.9183
-72.7705
-72.4812
-72.3029
-76.9532
-77.9581
-76.1423
-74.8349
-74.2106
-74.0715
-74.7519
-75.0082
-74.733
-74.9369
-74.8419
-76.5024
-76.254
-75.9634
-75.388
-75.456
-74.5417
-74.7056
-74.968
-75.5364
-76.3595
-76.7012
-76.901
-73.8402
-74.5963
-74.5741
-74.9362
-75.3511
-75.1332
-75.2398
-75.1788
-75.264
-76.0813
-76.4994
-77.4899
-77.8578
-72.6016
-73.455
-73.8433
-74.7517
-75.0937
-75.7206
-75.7735
-75.3286
-75.4632
-75.6505
-75.8776
-76.9161
-77.1826
-78.0791
-72.8402
-73.5568
-74.0795
-74.3412
-75.2423
-75.8928
-76.116
-75.398
-75.2431
-75.3463
-75.4689
-76.0017
-76.1271
-76.425
-77.0475
-58.8369
-59.0724
-59.1506
-59.1691
-59.5252
-59.4577
-59.529
-59.5761
-59.7752
-59.8405
-59.7839
-59.9179
-59.8753
-60.2014
-60.2727
-60.2945
-60.3636
-60.3717
-60.4048
-60.7299
-60.8082
-60.9735
-60.9465
-60.9772
-60.8512
-61.8219
-61.8081
-61.6822
-61.8909
-61.8645
-61.8988
-61.7443
-63.0058
-62.9115
-63.1952
-63.1617
-63.1285
-62.9332
-63.0471
-63.2462
-62.8712
-63.5002
-64.4874
-64.0197
-64.5239
-64.3542
-64.5319
-64.8026
-65.2334
-66.801
-66.4672
-66.7803
-67.8934
-67.2326
-67.2694
-67.7978
-67.8692
-67.8037
-67.8813
-73.0951
-74.4035
-72.6568
-72.4331
-72.2801
-72.3932
-72.8343
-72.6958
-72.5795
-72.4745
-71.8809
-76.5492
-78.4106
-76.6618
-75.608
-74.5872
-74.506
-74.6717
-74.9511
-74.8896
-74.9315
-74.9374
-74.838
-76.3395
-76.2735
-75.8661
-75.6784
-75.4901
-74.7658
-74.6701
-74.8723
-75.6304
-76.4062
-76.6964
-76.9719
-76.9535
-73.9014
-74.6833
-74.6693
-75.0908
-75.6741
-75.26
-75.2388
-75.1578
-75.2692
-76.0492
-76.478
-77.5058
-77.8769
-78.4219
-72.701
-73.5571
-73.9163
-74.7967
-75.1835
-75.7409
-75.7406
-75.2993
-75.4655
-75.6337
-75.8308
-76.9012
-77.2163
-78.136
-79.3373
-72.896
-73.5614
-74.1403
-74.3923
-75.2406
-75.9007
-76.1038
-75.4074
-75.2472
-75.3328
-75.4534
-75.9491
-76.1187
-76.362
-76.984
-77.3169
-58.6094
-58.8325
-58.7905
-58.9019
-59.0704
-59.1248
-59.1241
-59.2358
-59.1401
-59.4705
-59.4804
-59.4529
-59.5098
-59.5835
-59.697
-59.8095
-59.7833
-59.8779
-59.8586
-59.9315
-60.1445
-60.2533
-60.2944
-60.3052
-60.3497
-60.2746
-60.4141
-60.6843
-60.8105
-60.8642
-60.9327
-60.9359
-60.9592
-60.9877
-61.7894
-61.8573
-61.7201
-61.7318
-61.855
-61.6336
-62.0082
-61.8823
-62.8328
-62.6893
-63.1999
-63.1629
-62.8868
-62.9241
-62.7678
-63.1921
-63.4773
-63.5154
-63.677
-64.548
-64.5908
-64.4086
-64.5722
-64.5302
-64.9383
-65.1687
-65.175
-67.0289
-67.1002
-67.3499
-67.9488
-67.7528
-66.9933
-68.1187
-68.0265
-68.2429
-68.2879
-68.1473
-72.4124
-75.1952
-73.3387
-73.1444
-72.6856
-72.7653
-73.1381
-72.6942
-72.7573
-72.6013
-71.9601
-71.5292
-75.7403
-78.5647
-76.7877
-75.9874
-74.8955
-74.5328
-74.5726
-74.8915
-75.08
-74.9411
-74.9372
-74.9381
-73.7488
-76.009
-76.1493
-75.6549
-75.8627
-75.5397
-74.8951
-74.7199
-74.7942
-75.6247
-76.421
-76.7799
-77.1415
-77.1835
-75.844
-73.8868
-74.7121
-74.7196
-75.1395
-75.9565
-75.4438
-75.2458
-75.1265
-75.255
-75.9968
-76.4524
-77.4573
-77.8851
-78.4503
-77.3554
-72.7427
-73.6482
-73.9831
-74.8273
-75.2492
-75.7489
-75.7071
-75.267
-75.4637
-75.617
-75.7769
-76.8724
-77.2415
-78.208
-79.2816
-77.218
-73.0268
-73.582
-74.2091
-74.4605
-75.237
-75.914
-76.0882
-75.4142
-75.2509
-75.3137
-75.4345
-75.8928
-76.0889
-76.3084
-76.9206
-77.2773
-76.7028
-58.4481
-58.6165
-58.6208
-58.637
-58.815
-58.8541
-58.8942
-58.8174
-58.887
-59.0577
-59.1642
-59.1611
-59.1154
-59.196
-59.1566
-59.3579
-59.4027
-59.3964
-59.4786
-59.4919
-59.5363
-59.6719
-59.7139
-59.7681
-59.8322
-59.8281
-60.268
-59.9281
-60.1779
-60.1591
-60.1851
-60.3172
-60.3154
-60.2523
-60.383
-60.3498
-60.6993
-60.769
-60.8102
-60.8925
-60.8918
-60.9017
-61.0803
-60.9687
-61.6919
-61.8477
-61.7299
-61.7292
-61.773
-61.8947
-61.9478
-62.1372
-62.1557
-62.7358
-63.0341
-63.1897
-63.2154
-62.8739
-62.5466
-62.7984
-62.9383
-63.5991
-63.5314
-63.7043
-63.8397
-64.8301
-64.6521
-64.5214
-64.5975
-64.8209
-65.1114
-65.1189
-65.3839
-65.4001
-66.7164
-67.5805
-67.8775
-68.1099
-67.8942
-67.4818
-68.2851
-68.2501
-68.2776
-68.2024
-68.2481
-67.79
-72.0924
-75.5487
-74.0727
-73.6782
-73.0048
-72.9393
-73.1683
-72.9588
-72.6448
-72.6836
-71.9975
-71.444
-71.0052
-74.8322
-78.1067
-76.9192
-76.1
-74.9512
-74.2544
-74.517
-74.7551
-75.0227
-75.0397
-74.9985
-75.2958
-73.6724
-73.2588
-75.4733
-75.8844
-75.4317
-75.9511
-75.7673
-75.0603
-74.663
-74.7502
-75.6312
-76.4051
-76.8715
-77.4275
-77.3651
-75.7336
-74.7437
-73.7947
-74.7143
-74.7204
-75.1353
-76.1163
-75.6414
-75.2705
-75.099
-75.2149
-75.9365
-76.4355
-77.3991
-77.8963
-78.4219
-77.2392
-75.6388
-72.7871
-73.7101
-74.0471
-74.8712
-75.3024
-75.7418
-75.6732
-75.2411
-75.4593
-75.6013
-75.7184
-76.8357
-77.2576
-78.3249
-79.1512
-77.1757
-76.8319
-73.2851
-73.5866
-74.2715
-74.5285
-75.2308
-75.9228
-76.0751
-75.4058
-75.2538
-75.2903
-75.4101
-75.8305
-76.0433
-76.2495
-76.8613
-77.2349
-76.6806
-76.3346
-58.3108
-58.4316
-58.4729
-58.4617
-58.5908
-58.6099
-58.6583
-58.6397
-58.6623
-58.8023
-58.7978
-58.8498
-58.906
-58.9725
-58.8655
-59.0488
-59.107
-59.2038
-59.1377
-59.0902
-59.0967
-59.1721
-59.3124
-59.3582
-59.3042
-59.4311
-59.4647
-59.5076
-59.5377
-59.6908
-59.6692
-59.6816
-59.7799
-59.8225
-59.6191
-59.9736
-59.9386
-60.1398
-60.1631
-60.2019
-60.2383
-60.2896
-60.2809
-60.3829
-60.3878
-60.4168
-60.8117
-60.8811
-60.7919
-60.7795
-60.8562
-60.8174
-60.9926
-61.1554
-61.1152
-61.6888
-62.0142
-61.8192
-61.7216
-61.6557
-61.8585
-61.8719
-62.0249
-62.2223
-62.2168
-62.5094
-63.1478
-63.3287
-63.219
-62.8823
-62.8531
-62.8477
-63.063
-63.1281
-63.3958
-63.5253
-64.1481
-64.196
-64.9546
-65.007
-64.7827
-64.4995
-64.8367
-65.0863
-65.2928
-65.4595
-65.4903
-65.5524
-67.5611
-68.7475
-67.9699
-67.9564
-68.0727
-67.9136
-68.6486
-68.452
-68.4556
-68.4164
-68.2296
-67.9104
-67.5419
-71.6009
-75.8678
-74.8133
-74.0497
-73.1064
-72.9674
-73.0271
-73.0082
-72.6366
-72.7921
-71.9456
-71.4506
-70.916
-70.3145
-73.6147
-77.0572
-76.6005
-76.2066
-74.8476
-74.3168
-74.4886
-74.5742
-75.0041
-75.089
-75.0322
-75.1155
-74.0065
-73.0739
-72.6679
-74.8478
-75.4073
-75.1416
-75.7922
-75.9843
-75.1894
-74.659
-74.7173
-75.7256
-76.4048
-76.9376
-77.4893
-77.3055
-75.7269
-74.7297
-73.9339
-73.6563
-74.623
-74.7139
-75.1157
-76.1792
-75.8133
-75.287
-75.0732
-75.1705
-75.873
-76.4363
-77.3466
-77.9303
-78.4001
-77.1928
-75.3882
-74.7723
-72.8649
-73.756
-74.1034
-74.9033
-75.3136
-75.7511
-75.6403
-75.2251
-75.4518
-75.587
-75.6598
-76.7907
-77.2158
-78.5077
-79.0121
-77.1865
-76.8041
-76.1218
-73.5277
-73.5849
-74.2964
-74.6093
-75.2186
-75.927
-76.065
-75.4043
-75.2558
-75.2686
-75.3843
-75.7553
-76.0026
-76.1861
-76.826
-77.1927
-76.6629
-76.3323
-76.1392
-58.1491
-58.2784
-58.3117
-58.3089
-58.3916
-58.4182
-58.4526
-58.4884
-58.4992
-58.5811
-58.5531
-58.6735
-58.6985
-58.7062
-58.6024
-58.7795
-58.7461
-58.7993
-58.8849
-58.8658
-58.8701
-58.9273
-59.0059
-59.1162
-59.0959
-59.1282
-59.1468
-58.9348
-59.1594
-59.1695
-59.3178
-59.3708
-59.3778
-59.3517
-59.4162
-59.4604
-59.5472
-59.612
-59.6964
-59.8127
-59.6949
-59.6831
-59.7832
-59.6965
-59.9006
-60.0038
-60.0201
-60.1475
-60.1288
-60.1952
-60.2278
-60.228
-60.2664
-60.3882
-60.4011
-60.4903
-60.4235
-60.7795
-60.8336
-60.8495
-60.901
-60.9225
-60.8535
-60.9234
-61.0834
-61.0982
-61.3152
-61.7985
-62.017
-61.8455
-61.939
-61.6397
-61.5849
-61.7557
-61.8773
-62.0856
-62.3264
-62.415
-62.5508
-63.3501
-63.2383
-63.1209
-62.8642
-62.8629
-62.8638
-63.1232
-63.3217
-63.5985
-63.6364
-63.7151
-64.2103
-64.5974
-65.1642
-65.1256
-64.9764
-64.5777
-64.8143
-65.1336
-65.2337
-65.4638
-65.4339
-65.3728
-65.3609
-67.6732
-68.9553
-68.3536
-68.1291
-67.9913
-68.3668
-68.79
-68.5481
-68.7003
-68.5105
-68.3473
-68.0031
-67.6574
-67.3459
-70.8856
-75.4444
-74.9253
-74.2712
-72.9686
-72.6517
-72.9748
-72.9157
-72.6142
-72.7368
-72.1117
-71.2683
-70.822
-70.2217
-69.7535
-72.6329
-75.7335
-75.8423
-75.961
-75.0034
-74.2691
-74.1613
-74.5521
-74.965
-75.0319
-75.1684
-74.9207
-74.0169
-72.9282
-72.4691
-71.992
-74.231
-74.8713
-75.0483
-75.4821
-76.0207
-75.4013
-74.6983
-74.6415
-75.67
-76.3429
-76.904
-77.5453
-77.4335
-75.8594
-74.5241
-73.8613
-72.9644
-73.5479
-74.4371
-74.7005
-75.0957
-76.1456
-75.9257
-75.3081
-75.0374
-75.1207
-75.81
-76.4417
-77.2556
-77.9602
-78.3256
-77.1861
-75.3138
-74.6944
-74.1521
-72.935
-73.7939
-74.1596
-74.9123
-75.3508
-75.7924
-75.607
-75.2024
-75.4426
-75.5626
-75.6046
-76.7423
-77.1191
-78.7427
-78.8583
-77.2191
-76.7821
-76.1597
-75.2689
-73.6238
-73.6022
-74.3136
-74.6856
-75.1955
-75.9334
-76.0557
-75.4082
-75.2568
-75.2507
-75.3725
-75.6759
-75.9811
-76.1431
-76.808
-77.1544
-76.6502
-76.3331
-76.1142
-76.1237
-58.0338
-58.1219
-58.1756
-58.1573
-58.2413
-58.3034
-58.3255
-58.3369
-58.3409
-58.3913
-58.3763
-58.4529
-58.5181
-58.4941
-58.5058
-58.5962
-58.5452
-58.6327
-58.6387
-58.6946
-58.7305
-58.6928
-58.7744
-58.7756
-58.8078
-58.8292
-58.8765
-58.9559
-58.8863
-58.856
-59.0265
-59.071
-59.0843
-59.0377
-59.1316
-59.2109
-59.2165
-59.2535
-59.1582
-59.2866
-59.3155
-59.3422
-59.2979
-59.397
-59.446
-59.4828
-59.5836
-59.6295
-59.6599
-59.6314
-59.6629
-59.7064
-59.7543
-59.7215
-59.9016
-59.9659
-60.0211
-60.0777
-60.1404
-60.0817
-60.0888
-60.3788
-60.2185
-60.1485
-60.3152
-60.3914
-60.4905
-60.6558
-60.5202
-60.9005
-60.8487
-60.529
-60.854
-60.8325
-60.7977
-60.8938
-61.0261
-61.2608
-61.2912
-61.4824
-61.8502
-61.9062
-61.687
-61.7295
-61.5715
-61.6744
-61.6709
-61.8581
-62.0631
-62.2762
-62.3072
-62.4196
-62.5705
-63.4166
-63.1536
-62.9927
-62.834
-62.7335
-62.8823
-63.0528
-63.3877
-63.5825
-63.7285
-63.846
-63.8344
-64.2278
-64.8177
-65.1358
-65.1589
-65.0404
-64.5174
-65.0355
-65.2722
-65.3003
-65.3154
-65.5095
-65.2753
-65.4083
-65.3973
-67.7908
-69.1843
-68.8089
-68.2751
-68.2354
-68.4886
-68.5222
-68.5003
-68.6617
-68.7247
-68.4182
-68.0199
-67.6559
-67.3889
-67.1543
-70.1827
-74.552
-74.6014
-74.0599
-73.0512
-72.457
-72.7432
-72.6824
-72.5164
-72.5923
-72.0979
-71.3304
-70.8574
-70.3048
-69.5664
-69.3501
-71.7902
-74.4493
-74.9104
-75.3249
-74.9852
-74.0839
-74.1327
-74.3773
-74.9306
-74.9825
-75.2998
-74.8172
-73.7366
-73.0138
-72.1471
-71.9278
-71.3091
-73.7233
-74.2433
-74.7264
-75.1444
-75.9216
-75.5781
-74.6944
-74.6524
-75.5928
-76.2802
-76.7975
-77.4958
-77.5651
-76.083
-74.2356
-73.828
-72.9105
-72.4796
-73.5097
-74.2772
-74.7153
-75.093
-76.1118
-75.9806
-75.2978
-74.9839
-75.0419
-75.7365
-76.4129
-77.1348
-77.9099
-78.0963
-77.2392
-75.3026
-74.6162
-74.1385
-73.8282
-72.9984
-73.8329
-74.2191
-74.9363
-75.4449
-75.831
-75.5704
-75.1804
-75.4293
-75.5353
-75.5447
-76.717
-77.0134
-78.8437
-78.6472
-77.2484
-76.8007
-76.2258
-75.2815
-74.9098
-73.6291
-73.6339
-74.3465
-74.7551
-75.176
-75.9382
-76.0543
-75.4053
-75.2536
-75.2356
-75.3665
-75.6332
-75.96
-76.0911
-76.8156
-77.1234
-76.6415
-76.3362
-76.0914
-76.0644
-76.4039
-57.9023
-57.9949
-58.0419
-58.0545
-58.1252
-58.2312
-58.1661
-58.1788
-58.1668
-58.2399
-58.2497
-58.319
-58.3779
-58.3484
-58.3437
-58.3785
-58.3853
-58.4082
-58.4727
-58.5166
-58.545
-58.5421
-58.5887
-58.5965
-58.5717
-58.6021
-58.6549
-58.699
-58.7369
-58.6524
-58.772
-58.7754
-58.7548
-58.7421
-58.8377
-58.9246
-58.9607
-58.9435
-59.0152
-58.9766
-59.0311
-59.0172
-59.0487
-59.097
-59.154
-59.2149
-59.2666
-59.2655
-59.181
-59.244
-59.2678
-59.2592
-59.3216
-59.349
-59.3346
-59.4281
-59.5822
-59.6578
-59.63
-59.6516
-59.6757
-59.5164
-59.6503
-59.7333
-59.6617
-59.8063
-59.933
-60.0192
-60.1828
-60.1184
-60.0801
-60.1506
-59.9185
-59.9489
-60.1742
-60.2004
-60.2277
-60.3565
-60.5819
-60.6245
-60.7877
-60.6279
-60.8643
-60.8844
-60.6154
-60.7466
-60.668
-60.8073
-60.9686
-60.9732
-61.2281
-61.3778
-61.3509
-61.5873
-61.7494
-61.937
-61.7247
-61.5309
-61.576
-61.6908
-61.8153
-61.9412
-62.0718
-62.2719
-62.3044
-62.5649
-62.7048
-62.7772
-63.4459
-63.0711
-63.0109
-62.8874
-62.6868
-62.7566
-63.1842
-63.4439
-63.7025
-63.6633
-63.8154
-63.7783
-63.8417
-64.5355
-65.0262
-65.2925
-65.306
-64.827
-64.9156
-65.135
-65.2087
-65.57
-65.4348
-65.6019
-65.26
-65.3268
-65.4481
-65.4408
-67.907
-69.2745
-68.4362
-68.4068
-68.4724
-68.4477
-68.6271
-68.637
-68.7869
-68.7503
-68.5374
-68.1354
-67.6895
-67.3463
-67.1436
-67.1975
-69.5153
-73.0173
-74.0467
-73.8045
-73.0969
-72.3743
-72.4535
-72.5712
-72.7079
-72.5529
-72.1129
-71.3447
-70.7545
-70.2536
-69.6015
-69.3837
-69.1511
-71.1632
-73.3473
-74.0124
-74.8482
-74.645
-74.0215
-74.2435
-74.3982
-74.8514
-74.8713
-75.2631
-74.9231
-73.5929
-72.8815
-72.117
-71.8133
-71.266
-70.9586
-73.3951
-73.8215
-74.088
-74.9198
-75.7122
-75.7279
-74.6459
-74.6418
-75.5103
-76.2296
-76.6475
-77.3174
-77.5069
-76.1472
-74.1237
-73.7445
-72.9322
-72.4986
-72.5036
-73.5883
-74.0261
-74.7482
-75.102
-76.0664
-75.9805
-75.2947
-74.9057
-74.9672
-75.6373
-76.3247
-76.9343
-77.7503
-77.5396
-77.2848
-75.2851
-74.6059
-74.1112
-73.8673
-73.8747
-73.0526
-73.8699
-74.2971
-74.9731
-75.5261
-75.8685
-75.5448
-75.1767
-75.4111
-75.51
-75.4758
-76.644
-76.8943
-78.8254
-78.4431
-77.2855
-76.7756
-76.2516
-75.3063
-74.9585
-74.9299
-73.5496
-73.673
-74.3874
-74.8077
-75.1773
-75.9407
-76.051
-75.3988
-75.2481
-75.2226
-75.3542
-75.6043
-75.9279
-76.0157
-76.8414
-77.091
-76.6306
-76.3434
-76.0683
-76.0354
-76.3761
-76.4825
-57.8126
-57.8883
-57.9115
-57.9041
-57.979
-57.9184
-58.0238
-58.058
-58.0688
-58.1071
-58.1582
-58.1152
-58.1708
-58.1872
-58.1828
-58.2159
-58.2645
-58.2585
-58.331
-58.4215
-58.3697
-58.3899
-58.3403
-58.3791
-58.3914
-58.4369
-58.4871
-58.5711
-58.5842
-58.5382
-58.5501
-58.5739
-58.6154
-58.6014
-58.6214
-58.655
-58.7184
-58.7591
-58.7714
-58.7645
-58.7651
-58.7912
-58.8021
-58.8098
-58.8695
-58.9353
-59.06
-59.0211
-59.0146
-58.9545
-59.0138
-58.9833
-59.0289
-59.0637
-59.1095
-59.1844
-59.2871
-59.2953
-59.2974
-59.2656
-59.2661
-59.2419
-59.231
-59.2635
-59.2889
-59.369
-59.4206
-59.5172
-59.656
-59.7593
-59.6994
-59.6518
-59.6816
-59.6418
-59.5899
-59.784
-59.698
-59.8124
-59.9055
-60.0123
-60.205
-60.2043
-60.1667
-60.0285
-60.1618
-59.9895
-59.8871
-60.1384
-60.1366
-60.3099
-60.37
-60.4745
-60.6243
-60.83
-60.9006
-60.8445
-60.8765
-60.948
-60.6937
-60.6598
-60.695
-60.8155
-60.9163
-61.1002
-61.2185
-61.4014
-61.4602
-61.5955
-61.6837
-61.7732
-61.8451
-61.7197
-61.617
-61.3379
-61.6058
-61.7089
-61.8525
-62.1591
-62.2205
-62.2694
-62.3176
-62.5902
-62.7558
-62.9151
-63.3699
-63.0836
-62.9133
-62.7703
-62.5173
-63.0022
-63.2768
-63.4692
-63.6336
-63.8489
-63.8139
-63.7974
-63.9027
-64.0376
-64.5439
-64.8435
-65.293
-65.2366
-64.8864
-65.2917
-65.1685
-65.5663
-65.6587
-65.675
-65.5498
-65.432
-65.3975
-65.4143
-65.467
-65.4448
-67.4081
-69.1154
-68.5034
-68.771
-68.6888
-68.5657
-68.7401
-68.8391
-68.7834
-68.822
-68.5445
-68.2491
-67.8573
-67.549
-67.3926
-67.0514
-67.2153
-69.011
-72.1246
-73.3783
-73.5832
-72.8291
-72.2278
-72.4088
-72.3829
-72.7111
-72.4266
-72.1063
-71.4178
-70.7069
-70.1332
-69.5821
-69.1813
-69.2074
-69.1666
-70.7394
-72.3414
-73.1813
-73.9492
-74.2597
-74.0131
-74.142
-74.4566
-74.7087
-74.7694
-75.0703
-74.8272
-73.4982
-72.926
-72.0822
-71.6678
-71.2104
-70.9086
-70.9164
-73.3381
-73.5387
-73.7295
-74.7363
-75.5252
-75.7366
-74.6556
-74.5814
-75.4007
-76.11
-76.4387
-77.0837
-77.3229
-76.1578
-74.0825
-73.5743
-72.8818
-72.5925
-72.6363
-72.9738
-73.6845
-73.8372
-74.752
-75.1112
-76.0301
-75.9669
-75.3044
-74.809
-74.8884
-75.5213
-76.1904
-76.6667
-77.4855
-76.9438
-77.2914
-75.3225
-74.6533
-74.1053
-73.9393
-73.9808
-73.9862
-73.0981
-73.8971
-74.3783
-75.0198
-75.5927
-75.9003
-75.5151
-75.1823
-75.3895
-75.4793
-75.4125
-76.5535
-76.7568
-78.7592
-78.253
-77.3161
-76.7049
-76.2885
-75.3229
-75.0089
-74.9423
-75.0352
-73.4684
-73.7121
-74.4298
-74.8542
-75.1898
-75.9435
-76.0198
-75.3928
-75.2394
-75.2087
-75.3412
-75.5466
-75.8973
-75.979
-76.8578
-77.0582
-76.6202
-76.3497
-76.0468
-76.0026
-76.3482
-76.4638
-76.1152
-57.7443
-57.78
-57.8167
-57.8139
-57.8519
-57.9086
-57.9053
-57.9089
-57.9399
-57.9618
-57.9787
-58.0119
-58.0664
-58.0656
-58.0439
-58.0954
-58.1449
-58.099
-58.0426
-58.1485
-58.1539
-58.2084
-58.2031
-58.2358
-58.2541
-58.2886
-58.3009
-58.4438
-58.4724
-58.3889
-58.3315
-58.3313
-58.4075
-58.4108
-58.4278
-58.4655
-58.5604
-58.5728
-58.5733
-58.583
-58.5628
-58.5883
-58.5452
-58.6594
-58.6934
-58.7233
-58.8204
-58.8232
-58.7925
-58.7436
-58.7665
-58.7696
-58.8196
-58.7638
-58.8541
-58.915
-59.0113
-59.078
-59.0876
-59.0765
-58.979
-58.9348
-58.9375
-59.0177
-59.0526
-59.1307
-59.1835
-59.2296
-59.3398
-59.4266
-59.4016
-59.2913
-59.2892
-59.3077
-59.2452
-59.2153
-59.3027
-59.383
-59.4926
-59.5389
-59.6286
-59.7483
-59.8193
-59.7825
-59.6296
-59.7219
-59.5563
-59.5283
-59.7126
-59.7067
-59.7989
-59.9245
-59.9993
-60.1753
-60.3846
-60.3866
-60.3587
-60.0417
-60.1904
-60.0617
-59.9177
-59.9432
-60.1583
-60.2381
-60.3556
-60.5514
-60.5916
-60.8383
-60.9209
-61.0951
-60.9577
-60.9763
-60.9717
-60.7805
-60.5944
-60.615
-60.703
-60.8328
-61.0043
-61.2034
-61.372
-61.5743
-61.7041
-61.7173
-61.9943
-61.8144
-61.8268
-61.7995
-61.6345
-61.3869
-61.5908
-61.7679
-62.0352
-62.0695
-62.3199
-62.3057
-62.5581
-62.6571
-62.7333
-62.8608
-62.9736
-63.2514
-63.0429
-63.1075
-62.6658
-63.0239
-63.1421
-63.4055
-63.4894
-63.6192
-63.7227
-63.7594
-63.9545
-63.9664
-64.0356
-64.1101
-64.3131
-64.7089
-65.1529
-64.9765
-65.0164
-65.1115
-65.3609
-65.7149
-65.5968
-65.7822
-65.6528
-65.442
-65.3752
-65.4844
-65.4559
-65.351
-65.4473
-66.7973
-68.9427
-68.9606
-68.8385
-68.9697
-68.6561
-68.7481
-68.7642
-68.7732
-68.7293
-68.5287
-68.2557
-67.8329
-67.5502
-67.4002
-67.0573
-67.1929
-67.1873
-68.8559
-71.4955
-72.5121
-73.2877
-72.5176
-72.5023
-72.3225
-72.6395
-72.6074
-72.1736
-71.9036
-71.3251
-70.8167
-70.0635
-69.5733
-69.0776
-69.1267
-69.1582
-69.2085
-70.3353
-71.7167
-72.5159
-73.1888
-73.8105
-73.9253
-74.1469
-74.5774
-74.7017
-74.7163
-74.7885
-74.2891
-73.3796
-73.1222
-71.9437
-71.5238
-71.1927
-70.9361
-71.0189
-71.4221
-73.3881
-73.2674
-73.7438
-74.5677
-75.3518
-75.5868
-74.8025
-74.5952
-75.2506
-75.8493
-76.1428
-76.8556
-77.0809
-76.0726
-74.1183
-73.527
-72.8851
-72.6904
-72.7572
-73.1426
-73.3312
-73.7419
-73.8477
-74.7816
-75.1079
-76.0565
-75.919
-75.2888
-74.7388
-74.8049
-75.4055
-75.9955
-76.3602
-77.165
-76.3651
-77.2974
-75.3576
-74.7034
-74.112
-74.0587
-74.132
-74.0816
-74.1725
-73.1444
-73.9373
-74.447
-75.0586
-75.6397
-75.9283
-75.4836
-75.1999
-75.3642
-75.4434
-75.3592
-76.4957
-76.6008
-78.3558
-78.0507
-77.3003
-76.6832
-76.3176
-75.3523
-75.0652
-74.9601
-75.06
-75.0572
-73.491
-73.7464
-74.4691
-74.8997
-75.206
-75.9468
-75.9865
-75.3881
-75.2275
-75.1926
-75.3271
-75.4957
-75.8622
-75.9495
-76.8659
-77.0357
-76.6138
-76.3574
-76.0292
-75.9983
-76.3221
-76.4522
-76.154
-75.6095
-57.5958
-57.7209
-57.7374
-57.7544
-57.7546
-57.7387
-57.82
-57.8159
-57.841
-57.8478
-57.8689
-57.9083
-57.9508
-57.9185
-57.9332
-57.9462
-57.9795
-58.0451
-58.0876
-58.0866
-58.0463
-58.1155
-58.073
-58.1055
-58.1281
-58.1779
-58.1084
-58.1601
-58.1154
-58.2055
-58.1939
-58.1787
-58.2428
-58.249
-58.2994
-58.3064
-58.449
-58.38
-58.4285
-58.3575
-58.3127
-58.3237
-58.3833
-58.4551
-58.5385
-58.5711
-58.6089
-58.526
-58.5859
-58.5308
-58.542
-58.5863
-58.5395
-58.6347
-58.691
-58.7059
-58.7895
-58.9192
-58.812
-58.8643
-58.7771
-58.6865
-58.8124
-58.7588
-58.7626
-58.8256
-58.9035
-58.9569
-59.0996
-59.1396
-59.1061
-59.1497
-58.9998
-58.9995
-58.8808
-58.9581
-59.038
-59.1338
-59.1611
-59.2656
-59.347
-59.4034
-59.4823
-59.4664
-59.3625
-59.2904
-59.3471
-59.2252
-59.1914
-59.2656
-59.3879
-59.4185
-59.5465
-59.6495
-59.727
-59.8339
-59.9811
-59.8723
-59.6201
-59.6888
-59.6091
-59.5303
-59.6395
-59.7146
-59.7412
-59.8677
-60.038
-60.1205
-60.3598
-60.491
-60.5321
-60.4006
-60.0683
-60.1925
-60.1423
-59.9503
-59.9799
-60.1092
-60.2709
-60.3107
-60.5087
-60.6812
-60.6696
-61.064
-61.0877
-61.2382
-61.0912
-61.0677
-60.9996
-60.876
-60.616
-60.5938
-60.7255
-60.8951
-61.0316
-61.1531
-61.3794
-61.5262
-61.6575
-61.8088
-61.7738
-62.0673
-61.8297
-61.9173
-61.7803
-61.7273
-61.5021
-61.6837
-61.7918
-61.9888
-62.104
-62.2824
-62.4264
-62.5823
-62.6203
-62.7437
-62.8243
-62.8803
-62.9667
-63.3876
-63.069
-63.0255
-62.6168
-62.7183
-63.247
-63.4531
-63.5524
-63.6584
-63.7358
-63.8844
-64.0221
-63.998
-64.0716
-64.1307
-64.2968
-64.1825
-64.7038
-65.1495
-65.1067
-65.235
-65.2826
-65.4236
-65.6249
-65.6844
-65.7027
-65.6508
-65.5061
-65.4447
-65.5432
-65.5286
-65.4663
-65.3845
-65.6401
-66.7593
-68.6683
-69.2078
-69.1279
-68.8968
-68.6336
-68.8588
-68.6999
-68.685
-68.5891
-68.4455
-68.1092
-67.8537
-67.4956
-67.3865
-67.2821
-67.2204
-67.2384
-67.4771
-68.7174
-70.9911
-71.9128
-72.8678
-72.3278
-72.2455
-72.0399
-72.7887
-72.3947
-72.1204
-71.7548
-71.0645
-70.717
-70.1008
-69.5437
-69.2578
-69.1141
-69.0568
-69.328
-69.5963
-69.9324
-71.2914
-72.15
-72.5258
-73.3493
-73.9366
-74.262
-74.5383
-74.4724
-74.5378
-74.5035
-73.973
-73.1845
-72.8181
-71.8768
-71.4802
-71.1368
-70.9706
-71.2099
-71.5898
-72.0807
-73.3786
-73.4131
-73.6161
-74.5232
-75.2307
-75.5672
-74.8859
-74.6168
-75.0658
-75.5774
-75.8064
-76.6762
-76.791
-75.9713
-73.9844
-73.4439
-72.9621
-72.7604
-72.8316
-73.2359
-73.3747
-73.3331
-73.8529
-73.8611
-74.8576
-75.1258
-75.9868
-75.81
-75.2477
-74.6819
-74.7376
-75.2853
-75.7648
-76.0288
-76.7642
-76.0196
-76.9966
-75.3489
-74.7874
-74.2145
-74.2273
-74.3177
-74.1912
-74.2664
-74.2473
-73.1829
-74.0038
-74.5079
-75.0802
-75.6893
-75.9425
-75.4491
-75.2152
-75.3369
-75.3965
-75.2985
-76.4395
-76.4217
-77.7402
-77.8291
-77.2591
-76.6963
-76.3383
-75.3809
-75.1155
-74.9816
-75.079
-75.1049
-74.9234
-73.7822
-74.5025
-74.9442
-75.2252
-75.9497
-75.9748
-75.3837
-75.2127
-75.1738
-75.3131
-75.4478
-75.8248
-75.9032
-76.8708
-77.0028
-76.6117
-76.3656
-76.0139
-75.9981
-76.2972
-76.4502
-76.1906
-75.6392
-75.0708
-57.5975
-57.5719
-57.6302
-57.7187
-57.7252
-57.7493
-57.758
-57.7358
-57.7636
-57.7219
-57.8074
-57.8057
-57.8479
-57.8765
-57.8457
-57.8451
-57.8938
-57.933
-57.9651
-57.9412
-57.9261
-57.935
-57.932
-58.033
-58.0817
-58.0987
-58.0196
-58.0341
-58.144
-58.0594
-58.0893
-58.1051
-58.1508
-58.191
-58.1988
-58.2257
-58.2328
-58.2675
-58.1871
-58.1669
-58.2021
-58.2697
-58.3169
-58.3628
-58.3962
-58.4654
-58.3837
-58.4027
-58.3449
-58.2988
-58.2889
-58.3663
-58.4382
-58.4982
-58.5398
-58.5545
-58.6931
-58.5949
-58.6268
-58.5606
-58.5081
-58.5708
-58.4939
-58.6179
-58.6659
-58.7581
-58.8011
-58.8918
-58.9376
-58.8531
-58.9342
-58.7879
-58.7458
-58.7558
-58.7485
-58.7446
-58.8666
-58.8476
-58.9939
-59.0748
-59.1426
-59.2189
-59.2211
-59.1411
-58.988
-59.0312
-58.952
-58.9632
-59.0067
-59.1136
-59.1663
-59.2319
-59.3217
-59.3978
-59.4761
-59.6283
-59.5062
-59.436
-59.3051
-59.3547
-59.2861
-59.1932
-59.2091
-59.3354
-59.3964
-59.4853
-59.6245
-59.703
-59.8036
-59.9661
-60.1947
-60.0476
-59.7037
-59.6831
-59.7077
-59.5445
-59.5406
-59.7129
-59.8163
-59.8806
-60.0315
-60.0757
-60.2512
-60.4973
-60.591
-60.6349
-60.4833
-60.2224
-60.2219
-60.1812
-60.0742
-60.0151
-60.1337
-60.2241
-60.3461
-60.472
-60.6264
-60.734
-60.9583
-61.0724
-61.2416
-61.3809
-61.2568
-61.143
-61.0795
-60.9418
-60.66
-60.6496
-60.6203
-60.9559
-61.0531
-61.2136
-61.3342
-61.4656
-61.6894
-61.7899
-61.893
-62.0257
-62.344
-61.7038
-61.9797
-61.8918
-61.6396
-61.5705
-61.662
-61.8422
-61.9589
-62.1371
-62.1583
-62.3906
-62.5304
-62.556
-62.6215
-62.8177
-63.0007
-63.0623
-62.7967
-63.4061
-63.2041
-63.0001
-62.8268
-62.8758
-63.2568
-63.3999
-63.549
-63.6784
-63.7261
-63.7849
-63.9214
-64.1859
-64.0828
-64.1751
-64.3213
-64.4242
-64.3834
-64.3109
-64.7296
-65.1734
-65.3518
-65.3333
-65.4125
-65.6093
-65.6762
-65.7608
-65.654
-65.5341
-65.3894
-65.2603
-65.3276
-65.5408
-65.5811
-65.6529
-65.8645
-66.6263
-67.7018
-68.9519
-69.0774
-68.8192
-68.6229
-68.4721
-68.4444
-68.3868
-68.3841
-68.4378
-68.2066
-67.8586
-67.4638
-67.3668
-67.317
-67.2224
-67.3879
-67.5427
-67.835
-68.2364
-70.3812