/*--------------------------------*- C++ -*----------------------------------*\
  =========                 |
  \\      /  F ield         | OpenFOAM: The Open Source CFD Toolbox
   \\    /   O peration     | Website:  https://openfoam.org
    \\  /    A nd           | Version:  7
     \\/     M anipulation  |
\*---------------------------------------------------------------------------*/
FoamFile
{
    version     2.0;
    format      ascii;
    class       volVectorField;
    location    "3";
    object      U;
}
// * * * * * * * * * * * * * * * * * * * * * * * * * * * * * * * * * * * * * //

dimensions      [0 1 -1 0 0 0 0];

internalField   nonuniform List<vector> 
18750
(
(3.29799 0.178091 -1.27099)
(2.00375 1.08426 -0.220307)
(2.96101 0.237873 -1.22501)
(1.17657 0.177911 -2.17362)
(0.549788 1.99462 -0.655785)
(1.92101 1.25911 -0.338266)
(1.12072 1.71792 -0.00612718)
(2.56271 0.271027 -1.12485)
(0.881079 0.146543 -2.17288)
(0.198793 0.499945 -1.54678)
(-0.236059 3.65416 0.419077)
(0.978316 2.12481 -0.810618)
(0.211918 1.87869 0.255823)
(1.94259 1.35663 -0.355846)
(1.54702 1.77454 -0.0963083)
(0.872876 1.01412 0.36349)
(2.15237 0.260639 -0.995331)
(0.622455 0.0962201 -2.11833)
(0.0930435 0.477137 -1.45739)
(0.527967 1.19507 -0.741667)
(0.518986 4.16524 -0.605436)
(0.884947 3.23499 0.974615)
(3.10481 1.20388 1.7885)
(1.41283 2.27194 -0.844048)
(0.330018 1.54129 0.323397)
(0.576958 1.79602 1.90451)
(1.95346 1.36154 -0.492525)
(2.00054 1.83954 -0.0302173)
(0.944523 0.967011 0.285156)
(-0.697613 1.11342 0.836526)
(1.76994 0.203622 -0.879909)
(0.496548 0.0465951 -1.99931)
(0.115039 0.42431 -1.3909)
(0.513773 1.19674 -0.765801)
(0.48457 1.16978 -0.591171)
(-0.233857 3.60164 -0.122312)
(0.943339 4.03955 -0.726167)
(2.50346 3.67544 1.80652)
(1.59023 3.19724 0.973723)
(2.41148 1.11763 1.00144)
(2.04979 2.5972 2.40129)
(1.92356 2.31363 -0.600815)
(0.998284 2.0264 0.426765)
(0.954345 1.58092 0.818081)
(0.183731 1.90808 1.46123)
(1.90864 1.35223 -0.554619)
(2.42874 1.80616 -0.077848)
(0.752055 0.904094 0.112244)
(-0.740786 1.07506 0.567326)
(0.370465 1.52761 1.07027)
(1.4245 0.125832 -0.798072)
(0.534633 0.0124968 -1.8648)
(0.16263 0.40971 -1.39347)
(0.499356 1.21538 -0.806602)
(0.462792 1.17373 -0.599157)
(0.310064 0.971318 -0.691784)
(-0.311973 2.40323 0.12508)
(0.0191372 3.47897 -0.176019)
(-0.790621 4.57235 1.21705)
(1.10692 4.12918 -0.689569)
(1.77182 3.62043 2.10201)
(1.6158 4.02182 2.82745)
(2.32311 3.27783 0.853142)
(2.20637 0.962806 0.111748)
(1.7532 2.62106 2.21099)
(1.18234 2.80989 2.07546)
(2.29508 2.24922 -0.166014)
(1.94063 1.74305 0.369146)
(1.18027 1.53031 0.239139)
(0.443204 1.74422 1.11669)
(0.374762 1.19183 2.01168)
(1.74417 1.31384 -0.611443)
(2.5007 1.76198 -0.435687)
(0.520354 0.764232 -0.304924)
(-0.609808 1.02973 0.237016)
(0.286504 1.51697 1.03364)
(0.220932 1.87529 0.733774)
(1.17068 0.0525739 -0.719667)
(0.647637 0.0074507 -1.70635)
(0.216476 0.407595 -1.4261)
(0.491367 1.21793 -0.880658)
(0.437966 1.17546 -0.631206)
(0.278639 0.968027 -0.746647)
(-0.81171 0.212974 -0.548796)
(-2.33359 1.95 0.600082)
(0.573984 2.68107 -0.144096)
(-0.962093 3.50163 1.06076)
(0.364716 3.49995 -0.170365)
(-1.04802 4.85203 0.824161)
(1.27274 4.64974 1.63067)
(1.67934 4.21539 -0.422692)
(0.897856 3.66077 1.79408)
(1.39565 3.87808 3.08708)
(2.20778 3.29121 2.49005)
(2.83064 3.28537 0.873596)
(2.58156 1.05372 -0.315156)
(1.86634 2.59237 1.55055)
(1.33168 2.80001 1.28095)
(1.19967 2.47046 0.774096)
(2.25704 2.0829 0.153566)
(2.5283 2.08259 0.471373)
(1.71834 1.46235 -0.283718)
(1.00128 1.45513 0.603695)
(0.601407 1.17747 1.65218)
(0.582841 1.21853 1.37862)
(1.55639 1.24617 -0.615884)
(2.11282 1.49399 -0.649978)
(0.545783 0.6868 -0.656814)
(-0.183982 0.994349 -0.237738)
(0.169052 1.47431 1.0432)
(0.290859 1.87195 0.727052)
(-0.667686 1.2086 0.801213)
(1.02931 -0.00231021 -0.665699)
(0.701302 0.00955989 -1.57632)
(0.279009 0.394282 -1.49119)
(0.461775 1.21351 -0.836449)
(0.41111 1.1762 -0.660483)
(0.282561 0.960647 -0.753883)
(-0.783389 0.206949 -0.565917)
(-0.545922 0.091193 -0.489457)
(-1.92468 2.35216 -0.237598)
(-2.14412 2.16982 0.380922)
(-1.32432 3.29097 0.867093)
(-0.136033 2.84369 0.0850077)
(-0.980412 3.38279 1.2068)
(-0.307634 3.53732 1.59078)
(0.869231 3.89695 -0.306775)
(-1.22023 4.92795 0.38873)
(1.0851 4.77754 1.48307)
(1.31058 4.46073 2.18893)
(1.97228 4.28186 -0.0371356)
(0.752928 3.15856 2.2331)
(1.12949 3.84594 2.97971)
(1.73406 3.51407 2.63703)
(1.48259 3.141 2.05475)
(2.81213 3.25188 0.968749)
(3.09527 1.36656 -0.512115)
(1.97629 2.58037 0.964173)
(1.5104 2.80766 0.775296)
(0.588532 2.5965 0.695588)
(-0.0860485 2.50757 -0.127854)
(1.89453 1.79351 0.575001)
(2.885 2.01066 -0.149791)
(1.82048 1.32299 -0.374944)
(0.998706 1.23736 0.507284)
(0.907852 1.16554 1.2109)
(0.460156 1.32893 0.975485)
(0.474125 1.40425 0.970001)
(1.41836 1.18997 -0.534039)
(1.54198 1.18134 -0.813298)
(0.738352 0.656485 -1.04458)
(0.138389 0.986591 -0.433114)
(0.0830428 1.38908 1.063)
(0.28643 1.87352 0.7289)
(-0.662459 1.19965 0.785201)
(-0.638638 0.434731 0.18811)
(0.989616 -0.00468557 -0.64361)
(0.702521 0.012312 -1.48453)
(0.324111 0.406629 -1.55683)
(0.400089 1.17951 -0.710139)
(0.379662 1.17649 -0.710837)
(0.233583 0.944782 -0.752076)
(-0.769893 0.207378 -0.589228)
(-0.550713 0.0949025 -0.499351)
(-0.345234 -0.072615 -0.872593)
(-1.76109 2.22417 -0.108071)
(-2.10325 2.13717 -0.0537827)
(-1.18788 2.99198 0.227547)
(-1.90022 2.31364 0.408928)
(-1.49336 3.30527 1.00482)
(-0.0176317 3.43127 0.827054)
(-0.0119776 2.99169 0.209527)
(-1.21228 3.32109 1.25623)
(-0.281762 3.78032 1.27635)
(0.152836 4.21207 1.49715)
(1.29502 4.21513 -0.433939)
(-1.10882 4.77254 0.790124)
(0.712875 4.91735 1.82859)
(1.75161 4.70374 1.91514)
(1.23478 4.23796 2.88414)
(1.79472 4.26853 0.15737)
(1.27429 3.29275 1.31519)
(0.848591 3.72731 2.95663)
(1.37228 3.54804 2.61142)
(1.04026 3.38468 2.15896)
(1.36787 3.29839 0.505248)
(2.26603 3.05862 1.0901)
(3.00882 1.53425 -0.413012)
(1.96776 2.42948 0.79639)
(1.52134 2.87454 0.600173)
(0.394515 2.64528 0.691248)
(-0.732384 2.44933 -0.38934)
(-0.372567 2.11303 -0.155839)
(1.53618 1.46148 0.824106)
(2.65521 1.85551 -0.13186)
(1.5618 1.09355 0.111434)
(0.596123 0.889086 0.64245)
(1.07101 1.146 1.03182)
(0.560279 1.49803 0.704049)
(0.312026 1.43787 0.903288)
(-0.127574 0.580865 0.321041)
(1.27759 1.12109 -0.414511)
(1.0412 0.866133 -0.805122)
(0.959513 0.660659 -1.31445)
(0.534444 1.03036 -0.514777)
(-0.0101223 1.27162 1.04928)
(0.277896 1.86864 0.729201)
(-0.678342 1.14906 0.806916)
(-0.6375 0.440766 0.178395)
(-0.0183791 0.458229 0.114828)
(1.00215 0.0181696 -0.61608)
(0.689297 0.00296227 -1.4212)
(0.402122 0.386877 -1.59021)
(0.383397 1.14641 -0.687384)
(0.351151 1.17832 -0.788645)
(0.207539 0.937886 -0.763261)
(-0.757214 0.196282 -0.600541)
(-0.555531 0.0984881 -0.51215)
(-0.36454 -0.0877771 -0.889555)
(-0.513686 -0.637483 -0.187203)
(-1.95452 1.79166 -0.141341)
(-1.76934 2.16828 -0.196489)
(-1.61802 2.56782 0.238871)
(-2.13315 2.11086 -0.00932863)
(-1.35804 2.88933 0.267176)
(-0.434994 3.19953 0.461499)
(-2.14256 2.22748 0.735776)
(-1.70259 3.17784 1.07387)
(-1.06744 3.24252 1.07249)
(-0.24826 3.65127 0.917931)
(0.536913 3.57156 0.284588)
(-1.8153 3.22591 1.31931)
(-0.400046 4.05941 1.08888)
(-1.11597 4.62579 0.890768)
(0.912031 4.34138 2.3696)
(1.25687 4.30734 -0.371331)
(-1.32479 4.78747 1.07533)
(0.417295 4.80716 1.99698)
(1.10394 4.7505 2.35598)
(1.34703 4.31387 2.77683)
(1.63388 3.91879 2.49245)
(1.49018 4.17939 0.248143)
(1.3501 3.49453 0.688064)
(0.811413 3.86543 2.53226)
(0.93306 3.53792 2.68168)
(0.785908 3.52752 2.02207)
(1.45094 3.35296 0.165692)
(1.97975 3.25821 -0.666146)
(1.67284 2.54256 1.05079)
(2.46243 1.54215 -0.101746)
(1.70254 2.25077 0.478692)
(1.1345 2.83284 0.742065)
(-0.170762 2.6449 0.757576)
(-0.914528 2.21949 -0.26575)
(-0.499054 1.66607 0.730232)
(-0.314008 0.87576 1.13037)
(1.67241 1.2744 0.605824)
(2.21747 1.65117 0.220356)
(1.37296 0.804183 0.413518)
(0.393713 0.608152 0.640158)
(1.07265 1.12837 1.06201)
(0.280867 1.4999 1.09151)
(0.177003 1.48005 0.919142)
(-0.177049 0.63062 0.28534)
(0.00626197 0.131172 -0.113021)
(1.13842 1.00004 -0.371869)
(0.707106 0.634277 -0.650989)
(1.11862 0.649776 -1.41486)
(0.858985 1.07022 -0.571441)
(-0.129275 1.12962 0.994494)
(0.211783 1.85356 0.730764)
(-0.631329 1.17614 0.794744)
(-0.639572 0.451721 0.198342)
(-0.0171444 0.470981 0.0658351)
(0.183911 -0.120979 -0.462089)
(1.01383 0.0363888 -0.596496)
(0.667094 0.00116002 -1.37718)
(0.430704 0.384852 -1.59474)
(0.396366 1.12143 -0.707048)
(0.329394 1.18123 -0.798776)
(0.209414 0.92731 -0.772877)
(-0.748627 0.186818 -0.581883)
(-0.561663 0.100762 -0.531572)
(-0.383001 -0.105584 -0.906778)
(-0.535698 -0.670005 -0.181087)
(-0.531337 -0.558311 -0.046723)
(-1.19806 2.03881 0.0963751)
(-2.06608 1.61993 -0.168093)
(-1.2301 2.36476 0.135078)
(-1.77649 2.16068 -0.251164)
(-1.51814 2.53427 0.262203)
(-0.601503 2.98624 0.0535568)
(-2.33825 1.92649 0.0433632)
(-1.53953 2.83537 0.234024)
(-0.562665 3.20082 0.456511)
(-0.491583 3.17719 0.453733)
(-2.60704 2.34141 0.594929)
(-1.89598 3.05838 1.09826)
(-1.12878 3.30244 1.11347)
(-0.429635 3.55128 0.983513)
(0.192397 3.85512 1.09116)
(-0.912496 3.70035 0.026281)
(-2.07427 3.36249 1.48608)
(-0.999249 4.07135 1.15024)
(1.93968 4.36881 2.46357)
(0.831634 4.25813 2.75575)
(1.12154 4.06327 2.58961)
(0.412585 4.34326 -0.204129)
(-0.74002 5.03269 1.47304)
(0.236253 4.68707 2.2196)
(0.70914 4.62068 2.58337)
(1.08749 4.25008 2.80552)
(1.29469 4.06319 2.16345)
(1.49156 4.0421 2.1583)
(1.25684 4.15539 0.183757)
(1.20048 3.58636 0.300829)
(1.07193 3.96884 1.85253)
(0.592973 3.83586 2.47932)
(1.07513 3.70311 1.21294)
(1.53222 3.29888 -0.000561195)
(1.42386 2.96659 -0.0522814)
(0.533112 3.22274 0.375721)
(1.1333 2.00746 0.812523)
(1.72511 1.37847 0.282783)
(1.48638 1.93962 0.0429728)
(0.436865 2.50574 1.07954)
(-0.454501 2.55433 0.765454)
(-1.04503 2.01855 -0.169982)
(-0.467492 1.54542 0.789037)
(-0.232755 0.756367 1.08115)
(-0.149237 0.774652 1.14727)
(1.83607 1.26367 0.349115)
(1.80673 1.42226 0.621035)
(1.24956 0.658879 0.530732)
(0.513571 0.53988 0.540011)
(0.771294 1.06121 1.20564)
(0.347752 1.72694 0.667827)
(0.0392448 1.47263 1.00912)
(-0.219696 0.669807 0.23683)
(-0.0424621 0.140834 -0.17495)
(-0.0343332 0.220275 0.227698)
(1.03403 0.878192 -0.39652)
(0.551745 0.502745 -0.523054)
(1.1678 0.636465 -1.43507)
(1.07362 1.08689 -0.677264)
(-0.222425 1.01509 0.904473)
(0.0846197 1.82051 0.664999)
(-0.587132 1.11941 0.890675)
(-0.641918 0.46302 0.243186)
(-0.0158416 0.493901 0.00275418)
(0.0143698 -0.130682 -0.470308)
(-0.279086 -0.20424 0.0521763)
(1.00402 0.0666167 -0.575171)
(0.648751 0.00657607 -1.35059)
(0.454173 0.359107 -1.58638)
(0.382052 1.09735 -0.658877)
(0.309121 1.19185 -0.733703)
(0.207981 0.92141 -0.790564)
(-0.734283 0.174996 -0.576332)
(-0.570451 0.102538 -0.556927)
(-0.400947 -0.126336 -0.923487)
(-0.553026 -0.70386 -0.174782)
(-0.556515 -0.56468 -0.0522844)
(-0.439506 -1.13645 -0.24397)
(-1.54696 1.4827 0.0381352)
(-1.40433 1.78663 0.0853734)
(-1.6904 1.869 -0.200289)
(-1.21805 1.96662 0.117319)
(-1.93361 1.68111 -0.238577)
(-1.2443 2.4627 0.125845)
(-0.515011 2.63418 0.120994)
(-1.95511 2.03164 -0.256035)
(-1.44764 2.50315 0.352611)
(-0.988254 2.91518 -0.000386131)
(-0.48706 3.1175 0.263779)
(-2.36668 1.97267 0.0790705)
(-1.66229 2.71394 0.187734)
(-0.919923 3.14908 0.40557)
(-0.108914 3.16581 0.574949)
(0.140831 3.01372 0.845359)
(-3.01336 2.22154 0.495273)
(-2.17498 2.85495 1.34077)
(-1.44099 3.43799 1.12982)
(-0.719874 3.55125 1.16666)
(0.119154 3.76311 1.18943)
(0.712729 3.65415 1.71473)
(-1.70637 3.87253 -0.0303068)
(-1.36805 3.81588 1.81471)
(-1.80449 4.06034 1.03354)
(-1.7539 4.83389 1.65544)
(0.496113 4.28526 2.68018)
(1.08176 4.0696 2.62033)
(0.772848 4.06653 2.6399)
(-0.660718 4.19692 -0.0338653)
(-0.490228 5.02651 1.67323)
(0.213256 4.89694 2.7564)
(0.458153 4.74461 2.60598)
(0.77651 4.3699 2.44726)
(1.14201 4.14538 2.08489)
(0.985885 4.34835 2.18342)
(1.22783 4.28006 2.3504)
(0.827401 4.10756 0.183788)
(1.14856 3.52454 0.438893)
(1.09858 3.8727 1.54914)
(0.760643 3.99393 1.90324)
(0.979096 3.73559 1.01921)
(0.742158 2.89946 0.741531)
(-0.212766 2.34012 1.10458)
(-0.197421 2.72576 0.882885)
(-0.99985 2.95371 1.0478)
(0.579495 1.49164 0.546424)
(1.21444 1.11419 0.692367)
(1.34944 1.66719 -0.170686)
(0.171057 2.19465 0.684327)
(-0.543472 2.4976 0.522154)
(-0.46176 2.02357 0.394897)
(-0.292964 1.42183 0.916641)
(-0.213151 0.737028 0.926112)
(-0.169378 0.781314 1.12709)
(0.169534 1.35196 1.43812)
(1.88035 1.21707 0.201996)
(1.49301 1.19872 0.858664)
(1.11877 0.501621 0.671585)
(0.661216 0.490932 0.50495)
(0.104719 0.769407 1.41924)
(0.470511 1.66674 0.77727)
(-0.0168221 1.52912 1.01452)
(-0.244716 0.707953 0.218388)
(-0.0564296 0.137716 -0.177579)
(-0.293572 0.144196 0.275546)
(-0.631335 0.124095 0.703403)
(0.989995 0.786385 -0.428226)
(0.507127 0.438033 -0.476564)
(1.16694 0.627906 -1.39777)
(1.22562 1.09949 -0.850767)
(-0.197205 1.00013 0.675411)
(0.00796491 1.75213 0.551411)
(-0.587688 1.10307 0.890219)
(-0.650984 0.474314 0.298291)
(-0.0242301 0.514227 -0.0623135)
(-0.118734 -0.161741 -0.558623)
(-0.38347 -0.212021 0.0532868)
(-0.534017 -0.292519 -0.396589)
(0.997284 0.0783025 -0.57767)
(0.635079 0.0127459 -1.34567)
(0.488589 0.353723 -1.60306)
(0.394377 1.05964 -0.561413)
(0.224129 1.16316 -0.736619)
(0.213931 0.922165 -0.815641)
(-0.728158 0.164208 -0.588943)
(-0.580271 0.104723 -0.589235)
(-0.417842 -0.150098 -0.939229)
(-0.572307 -0.735752 -0.160566)
(-0.57387 -0.570335 -0.0782398)
(-0.431616 -1.14123 -0.249245)
(-0.548036 -1.52434 0.0840607)
(-1.4191 1.4364 -0.00743244)
(-1.63372 1.37279 0.0267207)
(-1.24948 1.81858 0.272427)
(-1.45863 1.55173 0.0539247)
(-1.37783 1.82588 0.0831491)
(-1.47887 2.0056 -0.101967)
(-0.599928 2.38176 0.233405)
(-1.5325 2.01886 -0.244248)
(-2.10802 1.40748 -0.11735)
(-1.97201 2.00922 0.00357949)
(-0.750638 2.5918 0.196068)
(-0.545772 2.79371 0.105167)
(-2.03663 2.0539 -0.294599)
(-1.47287 2.54902 0.310651)
(-1.21285 2.90775 -0.0336275)
(-0.585425 3.08034 0.330229)
(-0.182601 3.05643 0.339123)
(-2.65617 1.56717 0.241121)
(-1.71278 2.58688 0.300263)
(-1.16214 3.06632 0.357248)
(-0.557225 3.12959 0.381212)
(0.0298095 3.00822 0.689078)
(0.455469 3.04276 1.09518)
(-3.30972 2.02375 0.178888)
(-2.38083 2.78003 1.03181)
(-1.66899 3.40517 1.05679)
(-0.88759 3.81217 0.989408)
(-0.00897367 3.77491 1.38074)
(0.487875 3.65255 1.69779)
(0.726197 3.73262 1.93657)
(-2.61769 3.96485 -0.25178)
(-1.09315 4.35591 1.71192)
(-1.67128 4.2979 1.20577)
(1.01367 4.74322 2.09126)
(0.858708 4.33076 2.65058)
(0.701054 4.20301 2.48823)
(0.412476 4.14223 2.58896)
(0.363262 4.06977 2.63442)
(-1.45177 4.12874 -0.092419)
(-0.592757 4.94237 1.66784)
(-0.410369 5.32096 1.96323)
(0.8817 4.94547 2.33145)
(1.72926 4.56345 2.13043)
(0.553661 4.38576 2.09686)
(0.658562 4.46815 2.28755)
(1.13839 4.30224 2.16831)
(1.24085 4.16574 2.53818)
(-0.753469 3.3316 0.269258)
(1.05566 3.50247 0.37537)
(0.831905 3.65856 1.41478)
(1.09825 3.8428 1.35537)
(0.926478 3.52001 1.363)
(-0.0241131 2.38814 0.935884)
(-0.523249 1.99092 1.23872)
(-0.704593 2.26575 1.25996)
(-0.805624 2.43248 1.27198)
(0.105368 2.44108 1.94682)
(0.00333749 1.1251 0.518411)
(0.647747 0.885536 0.686666)
(0.775216 1.45118 0.0615294)
(0.690214 1.98046 -0.09625)
(-0.221735 2.53826 0.165368)
(-0.27353 2.16823 0.601007)
(-0.170793 1.4937 1.03686)
(-0.179463 0.790463 0.719021)
(-0.0643374 0.816025 0.956723)
(0.0929038 1.26918 1.51644)
(-0.531366 1.35126 2.08525)
(1.82151 1.16718 0.065751)
(1.24604 1.00903 0.907236)
(0.861355 0.43928 0.743719)
(0.795533 0.411221 0.522796)
(-0.328981 0.453656 1.55231)
(0.429228 1.67496 1.00314)
(0.0284504 1.50067 1.15317)
(-0.259717 0.752236 0.236093)
(-0.0187681 0.0972851 -0.135122)
(-0.637295 0.0412555 0.363212)
(-0.781772 0.0397582 0.446213)
(-0.420547 0.556658 0.972578)
(0.969349 0.746439 -0.472724)
(0.47708 0.401324 -0.4657)
(1.10378 0.597517 -1.37115)
(1.34988 1.09205 -1.03292)
(-0.0577829 1.06757 0.23992)
(-0.078575 1.6978 0.453122)
(-0.586922 1.0696 0.908963)
(-0.655223 0.49131 0.339511)
(-0.0383936 0.535198 -0.120473)
(-0.276381 -0.173971 -0.561746)
(-0.484469 -0.216138 0.0808057)
(-0.611106 -0.347373 -0.399068)
(-0.487445 -0.516284 0.466909)
(0.991612 0.100681 -0.573069)
(0.617558 0.0120412 -1.35073)
(0.525727 0.36102 -1.69421)
(0.438416 1.06215 -0.588965)
(0.194178 1.14271 -0.756056)
(0.235891 0.931875 -0.85196)
(-0.724945 0.16653 -0.553084)
(-0.593963 0.106357 -0.628763)
(-0.433526 -0.176495 -0.953946)
(-0.587658 -0.767283 -0.143209)
(-0.591116 -0.5809 -0.0907434)
(-0.44477 -1.15006 -0.232101)
(-0.573831 -1.53947 0.118701)
(-0.282185 -1.57862 -0.050924)
(-1.19847 1.53017 -0.0047174)
(-1.49496 1.36516 0.00748615)
(-1.22547 1.91387 0.0323754)
(-1.27182 1.62208 -0.0316989)
(-1.3638 1.58408 0.0600175)
(-1.49225 1.67193 0.047018)
(-0.729682 2.25203 0.029534)
(-1.10529 1.92701 0.147439)
(-1.7222 1.41772 0.13224)
(-1.66543 1.83409 -0.0876799)
(-0.636616 2.4121 0.154563)
(-0.482799 2.53098 0.157509)
(-0.291299 2.48835 0.338909)
(-1.98415 1.63863 -0.279781)
(-1.67792 2.26878 -0.112808)
(-0.844654 2.53762 0.233763)
(-0.565568 2.77167 0.151469)
(-0.414726 2.88901 0.158136)
(-2.21493 1.91541 -0.214468)
(-1.68817 2.50309 0.0591456)
(-1.355 2.85667 -0.0497225)
(-0.77634 3.08722 0.332102)
(-0.416983 3.15263 0.371757)
(-0.133425 3.09257 0.557324)
(-2.83947 1.24138 0.285907)
(-2.13013 2.24273 0.182236)
(-1.20678 3.05494 0.405965)
(-0.66858 3.14322 0.406121)
(-0.274558 3.13897 0.581972)
(-0.479064 3.12786 0.761621)
(0.348635 3.1833 1.38701)
(-3.0266 2.44189 0.211318)
(-2.46221 2.87078 0.958898)
(-1.67134 3.32401 1.02354)
(-1.01323 3.70853 1.28469)
(-0.0941478 3.83101 1.58354)
(0.346483 3.81428 1.83066)
(0.388201 3.66888 2.0285)
(0.417196 3.71342 2.29023)
(-3.5406 3.81603 -0.14965)
(-1.91542 4.14419 1.47009)
(-1.27157 4.62472 1.44557)
(-0.623117 4.87091 2.22007)
(0.546252 4.67871 2.4255)
(0.506171 4.26936 2.40578)
(0.022713 4.17693 2.54113)
(0.143309 4.20858 2.61805)
(0.102389 4.21047 2.72969)
(-2.65728 3.88034 -0.417441)
(-1.01287 4.97803 1.722)
(-0.257204 5.33962 1.56674)
(0.470989 5.09465 2.13848)
(0.137883 4.74019 2.49861)
(1.23353 4.32752 1.50697)
(0.560968 4.28297 2.32141)
(0.646633 4.13692 2.46734)
(0.989262 3.92216 2.47447)
(0.729186 3.92135 2.41445)
(-1.81172 2.64692 0.353556)
(-0.45431 2.5058 0.859256)
(0.18941 3.1244 1.52157)
(1.02187 3.60104 1.28213)
(0.443051 3.21028 1.66689)
(-0.983768 1.75521 1.37031)
(-0.526189 1.74373 0.773595)
(-1.04432 2.10011 1.22253)
(-0.728462 2.26507 1.38145)
(-0.873321 2.34551 1.70227)
(-0.686163 2.98473 1.80347)
(-0.381074 0.969457 0.559515)
(0.0718042 0.674857 0.652657)
(-0.146491 0.888782 0.0633254)
(0.723226 1.93073 0.137493)
(-0.0974292 2.51151 0.168405)
(-0.123967 2.27627 0.684922)
(-0.103028 1.66113 0.997005)
(-0.102109 0.879502 0.387477)
(0.223527 0.752172 0.691932)
(0.143782 1.26258 1.4611)
(-0.565975 1.29886 1.93294)
(-0.256203 1.5173 2.13581)
(1.70452 1.09741 -0.0333431)
(1.00807 0.873612 0.859406)
(0.548084 0.332608 0.751498)
(0.805389 0.322951 0.596924)
(-0.61864 0.122115 1.58087)
(-0.0653996 1.51541 1.34502)
(-0.0818066 1.45508 1.35278)
(-0.266724 0.779008 0.325447)
(0.035927 0.0866878 -0.0422519)
(-0.870484 -0.086339 0.306585)
(-0.86789 -0.0808892 0.237936)
(-0.515687 0.533249 1.21054)
(-0.3435 0.753603 0.810708)
(0.976908 0.70499 -0.542635)
(0.409772 0.364069 -0.570339)
(1.01198 0.57606 -1.33869)
(1.43584 1.1299 -1.11473)
(0.0447506 1.12592 0.0179615)
(-0.178248 1.64056 0.40035)
(-0.600176 1.01374 0.921439)
(-0.677881 0.497919 0.359915)
(-0.0740913 0.543095 -0.18886)
(-0.416479 -0.19144 -0.539408)
(-0.523525 -0.236458 0.00813117)
(-0.705992 -0.349968 -0.242578)
(-0.540041 -0.567992 0.464011)
(-0.770685 -1.6872 0.0671968)
(0.964293 0.147554 -0.564075)
(0.58858 0.0115726 -1.36252)
(0.556575 0.367108 -1.80921)
(0.532312 1.10137 -0.731794)
(0.170429 1.1333 -0.771081)
(0.297825 0.96827 -0.871519)
(-0.724958 0.139987 -0.532129)
(-0.603966 0.105973 -0.683454)
(-0.447706 -0.20533 -0.968196)
(-0.600462 -0.795597 -0.121759)
(-0.611076 -0.588398 -0.102088)
(-0.451782 -1.15657 -0.224786)
(-0.571081 -1.55591 0.105113)
(-0.263837 -1.5635 -0.0434887)
(-1.1279 -1.30052 0.529313)
(-1.12427 1.42459 -0.0955856)
(-1.31398 1.42135 0.027726)
(-0.995985 1.92395 -0.0647794)
(-1.0823 1.63455 0.023384)
(-1.67075 1.18133 -0.0369956)
(-1.38974 1.72226 0.0470868)
(-0.593347 2.19053 0.00747383)
(-1.17112 1.97102 0.109732)
(-1.64126 1.31633 0.0608021)
(-1.48616 1.7276 0.103473)
(-0.863247 2.21282 0.0433402)
(-0.54822 2.37736 0.258811)
(-0.642329 2.28609 0.0288948)
(-1.79379 1.42954 0.152914)
(-1.71534 1.77115 -0.117669)
(-1.07265 2.27908 0.183896)
(-0.534361 2.55216 0.144451)
(-0.581416 2.58437 0.267511)
(-0.449219 2.49831 0.204546)
(-2.19959 1.39752 -0.102585)
(-1.90808 2.10352 0.10046)
(-1.06663 2.43242 0.197707)
(-0.776478 2.69217 0.128105)
(-0.442953 2.89615 0.204223)
(-0.426954 2.83432 0.433791)
(-2.39654 1.80884 -0.203106)
(-1.90354 2.44369 -0.00288069)
(-1.54924 2.73435 -0.0812674)
(-0.786797 3.09054 0.33296)
(-0.630385 3.1739 0.336749)
(-0.508327 3.13485 0.582527)
(0.00143765 3.15223 0.821413)
(-2.89244 1.09627 0.276842)
(-1.98521 2.40345 0.239657)
(-1.54997 2.91676 0.389999)
(-0.686483 3.14979 0.492828)
(-0.69643 3.15853 0.475879)
(0.527214 3.3594 0.747883)
(-0.408666 3.30914 1.10268)
(0.327285 3.29484 1.51206)
(-2.97286 2.44903 0.254826)
(-2.55574 3.10997 0.72531)
(-1.67725 3.44146 1.0481)
(-0.974089 3.77865 1.329)
(-0.308362 3.9547 1.6408)
(-0.0013628 3.73459 1.83474)
(0.142711 3.71442 2.14829)
(0.105858 3.67922 2.29674)
(0.258695 3.77221 2.31007)
(-3.99847 3.5635 0.231632)
(-2.51839 3.90372 1.42009)
(-1.48374 4.72489 1.59582)
(-1.2161 4.8603 2.1997)
(-0.216449 4.72147 2.32844)
(-0.0389526 4.28105 2.23459)
(0.372729 4.26269 2.52896)
(-0.212382 4.28221 2.69073)
(-0.0634239 4.31133 2.7555)
(0.383791 4.2765 2.82208)
(-4.0733 2.96765 -0.511112)
(-2.0191 4.91338 1.77084)
(-0.720709 5.26534 1.3362)
(-0.041077 5.07541 2.36167)
(-0.165903 4.709 2.47826)
(1.33041 4.29618 1.63217)
(0.539504 3.95843 2.36841)
(-0.406224 3.76172 2.72051)
(-0.692377 3.464 2.63551)
(-0.0736182 3.8625 2.47455)
(-0.0820257 4.09053 2.21334)
(-2.49742 2.17381 0.621518)
(-1.2193 1.9494 1.11994)
(-0.240645 2.65803 1.1037)
(-0.106809 3.00361 1.57997)
(-0.595156 2.51975 2.01735)
(-0.792074 1.67664 1.30151)
(-0.585478 1.63364 0.625512)
(-0.764194 2.09817 0.799176)
(-0.333332 2.32895 1.43277)
(-0.899427 2.29696 1.69508)
(-1.18571 2.9264 1.83622)
(-0.875369 3.1926 1.92517)
(-0.89015 0.83051 0.366632)
(-0.359721 0.497338 0.840118)
(-0.46221 0.56993 0.328549)
(0.497483 1.74957 0.442309)
(0.198761 2.4944 0.18936)
(-0.118714 2.28206 0.645026)
(-0.125577 1.67748 0.913439)
(-0.0963592 0.937112 0.264834)
(0.0997705 0.676406 0.711404)
(0.161087 1.18602 1.4489)
(-0.489722 1.22925 1.80468)
(-0.385191 1.54437 2.2126)
(-0.0873349 2.19816 2.37677)
(1.52752 1.02488 -0.0943072)
(0.902358 0.809451 0.756838)
(0.25654 0.2567 0.734111)
(0.677504 0.232689 0.694853)
(-0.465197 0.00373233 1.39317)
(-0.00367233 1.44409 1.34167)
(-0.247239 1.42464 1.41191)
(-0.278565 0.819591 0.398375)
(0.0580859 0.0845451 -0.0166519)
(-0.970088 -0.206219 0.159157)
(-0.860563 -0.198598 -0.027154)
(-0.662592 0.481558 1.46966)
(-0.529777 0.616141 0.68502)
(-0.544924 2.09189 1.99842)
(0.963346 0.69892 -0.586263)
(0.420622 0.3352 -0.67778)
(0.908991 0.543979 -1.31157)
(1.45084 1.17187 -1.16315)
(0.220612 1.24245 -0.305223)
(-0.245197 1.5567 0.37864)
(-0.617965 0.949022 0.927587)
(-0.66509 0.526144 0.438347)
(-0.110762 0.552361 -0.241506)
(-0.540733 -0.214541 -0.510228)
(-0.564626 -0.250107 -0.0426456)
(-0.746318 -0.383914 -0.203099)
(-0.606105 -0.60885 0.468708)
(-0.846362 -1.75114 0.0711115)
(-1.66124 0.538028 1.83291)
(0.95454 0.15031 -0.555805)
(0.564898 0.0210707 -1.36526)
(0.557522 0.368648 -1.91332)
(0.624218 1.1434 -0.952496)
(0.156637 1.12673 -0.793956)
(0.335637 0.995546 -0.853689)
(-0.716516 0.149153 -0.552753)
(-0.629055 0.102761 -0.734369)
(-0.460188 -0.237038 -0.982393)
(-0.609946 -0.82137 -0.0960364)
(-0.628808 -0.597201 -0.121725)
(-0.458265 -1.16048 -0.213287)
(-0.585513 -1.58224 0.104245)
(-0.258313 -1.54549 -0.0468976)
(-1.15834 -1.32979 0.514883)
(-1.11987 0.0968366 0.438251)
(-0.983302 1.34144 0.021212)
(-1.24873 1.3254 -0.0798955)
(-0.865591 1.83536 0.0386831)
(-1.06824 1.47106 -0.116405)
(-1.4007 1.34783 0.0291518)
(-1.24506 1.76368 -0.172673)
(-0.417704 2.13833 -0.0552979)
(-0.771661 2.05167 -0.0804635)
(-0.984391 1.69101 0.0274066)
(-1.64734 1.18829 -0.0472393)
(-1.45008 1.60905 0.316093)
(-0.782233 2.039 0.033048)
(-0.661452 2.21781 0.00262287)
(-0.487933 2.26129 -0.0179379)
(-1.52639 1.49885 0.068623)
(-1.56067 1.65584 0.107952)
(-1.00847 2.18645 -0.00712211)
(-0.812111 2.29939 0.195077)
(-0.665723 2.31899 0.315704)
(-0.550262 2.37132 0.302774)
(-2.03806 1.13394 0.136423)
(-1.86128 1.66606 -0.145268)
(-1.25684 2.2076 0.124764)
(-0.575036 2.55423 0.193264)
(-0.634187 2.58946 0.293422)
(-0.690041 2.60783 0.462804)
(-0.502611 2.66901 0.230515)
(-2.18072 1.51375 -0.132843)
(-1.98731 2.0681 0.153986)
(-1.3342 2.29884 0.165349)
(-0.679743 2.71806 0.226836)
(-0.50903 2.84387 0.231586)
(-0.745127 2.88962 0.49875)
(-0.471139 2.99774 0.498508)
(-2.51056 1.67377 -0.150126)
(-2.23334 2.21121 -0.196923)
(-1.63942 2.73628 -0.0288115)
(-1.01987 2.90471 0.313869)
(-0.872548 3.05316 0.306787)
(-0.485253 3.11939 0.57279)
(-0.408747 3.22747 0.738773)
(0.0302717 3.23368 0.976109)
(-3.01583 0.926991 0.30647)
(-2.14929 2.43591 -0.0203542)
(-1.73847 2.86104 0.229317)
(-0.979762 3.03863 0.540079)
(-0.464056 3.17224 0.732328)
(-0.600206 3.29183 1.08387)
(-0.557986 3.18995 1.32649)
(-0.406496 3.40535 1.27123)
(0.178068 3.43926 1.51176)
(-2.95154 2.44391 0.37792)
(-3.38767 2.30866 0.346225)
(-2.06581 3.5588 1.01951)
(-1.15832 3.94903 1.32221)
(-0.709411 3.97447 1.5739)
(0.0733277 3.76829 1.8966)
(-0.525407 3.71403 2.17384)
(-0.147029 3.7228 2.31577)
(0.020962 3.76243 2.40332)
(0.233001 3.73343 2.33959)
(-4.01056 3.29913 -0.108808)
(-3.40352 3.63995 1.06518)
(-1.9264 4.84911 1.57361)
(-1.09536 4.81695 2.55496)
(-0.995955 4.6201 2.25236)
(-0.522065 4.32101 2.09718)
(-0.56949 4.31571 2.39225)
(-0.469531 4.3328 2.65317)
(-0.0503497 4.40062 2.70023)
(-0.118247 4.37356 2.76809)
(0.0851063 4.27433 2.69955)
(-5.01332 1.96206 -0.00476238)
(-2.40897 4.39118 1.91518)
(-1.82964 4.65368 1.83753)
(-0.291555 5.21955 2.05051)
(-0.335984 4.76349 2.45414)
(0.876953 4.06961 1.86821)
(-0.304449 3.49225 2.64225)
(-0.478909 3.39938 2.98969)
(-0.912516 3.37873 2.70898)
(-0.566309 3.78394 2.44992)
(-0.814679 4.01871 2.3949)
(-0.382837 4.28008 1.86505)
(-3.26958 1.61163 0.774826)
(-1.6417 1.52167 1.93278)
(-1.08054 1.73789 0.661289)
(-0.630089 2.4715 1.5233)
(-1.25345 2.14531 1.7612)
(-0.566023 1.72864 0.950524)
(-0.442703 1.77095 0.75845)
(-0.896069 1.87366 0.774932)
(-0.810566 2.29488 1.3212)
(-1.03185 2.1691 1.64165)
(-1.15403 2.81442 1.96564)
(-0.886655 3.20606 2.13068)
(-1.20738 3.29024 2.03332)
(-1.31944 0.593805 0.465643)
(-0.892472 0.345745 1.15544)
(-0.784491 0.501713 0.243769)
(0.0274553 1.37487 0.543239)
(0.480501 2.57793 0.462561)
(-0.00247703 2.36084 0.793828)
(-0.206076 1.7219 0.623469)
(-0.0653578 0.971941 0.198509)
(-0.0139385 0.543987 0.741888)
(0.191388 1.12185 1.42528)
(-0.693717 1.04238 1.71797)
(-0.806415 1.48896 2.33751)
(-0.608149 2.5429 1.94636)
(-1.29833 2.61986 2.46752)
(1.29912 0.939625 -0.109586)
(0.707972 0.739223 0.679731)
(0.0103323 0.187267 0.770046)
(0.566258 0.187165 0.740763)
(-0.212629 0.032321 1.16892)
(-0.065755 1.33859 1.35262)
(-0.288137 1.41459 1.40491)
(-0.268935 0.880732 0.421945)
(0.106607 0.115932 0.0210738)
(-1.01951 -0.292888 0.0665983)
(-0.898185 -0.31261 -0.0970967)
(-1.06287 0.341469 1.42613)
(-0.565112 0.571034 0.719942)
(-0.573761 2.05909 1.95507)
(-1.13691 2.68367 1.6763)
(0.927153 0.781847 -0.527457)
(0.373394 0.316258 -0.918401)
(0.795864 0.514823 -1.28342)
(1.41958 1.17764 -1.19017)
(0.422274 1.35636 -0.638293)
(-0.281099 1.4733 0.398253)
(-0.635055 0.882349 0.91237)
(-0.710231 0.523995 0.458086)
(-0.135928 0.551256 -0.301226)
(-0.659334 -0.243913 -0.456957)
(-0.627017 -0.275455 -0.0857932)
(-0.790933 -0.383573 -0.21984)
(-0.660273 -0.655899 0.500189)
(-0.89563 -1.8352 0.10024)
(-1.69861 0.52355 1.78659)
(-0.935269 2.16685 1.14399)
(0.949812 0.161153 -0.54897)
(0.549474 0.0197677 -1.36049)
(0.571391 0.358868 -1.97803)
(0.68539 1.16694 -1.21362)
(0.13504 1.0854 -0.871801)
(0.314498 0.986506 -0.796903)
(-0.723849 0.132893 -0.560802)
(-0.61819 0.089143 -0.798161)
(-0.470495 -0.272693 -0.996387)
(-0.617019 -0.843977 -0.0657189)
(-0.652313 -0.604825 -0.124548)
(-0.460418 -1.17573 -0.205543)
(-0.600083 -1.58326 0.142458)
(-0.271157 -1.5654 -0.0535014)
(-1.18416 -1.33157 0.488102)
(-1.11638 0.0922399 0.428302)
(-0.456301 0.352425 0.273875)
(-1.06341 1.15374 0.0411406)
(-1.06656 1.29782 0.000355799)
(-0.879782 1.59615 0.0478569)
(-0.892792 1.40649 0.0198201)
(-1.35737 1.24468 -0.0640359)
(-0.942129 1.80182 0.0442798)
(-0.71442 1.96362 -0.162305)
(-0.831069 1.82478 0.0508281)
(-1.01961 1.51053 -0.122866)
(-1.48184 1.26801 0.0424115)
(-1.43765 1.59525 -0.269728)
(-0.529543 2.14176 0.00273033)
(-0.59314 2.13493 0.000682259)
(-0.317943 2.19125 -0.0746646)
(-0.705599 2.08804 -0.0504375)
(-1.71655 1.05088 0.0292409)
(-1.52242 1.60558 0.208852)
(-0.939442 1.92912 0.0565089)
(-0.708106 2.19503 0.00212441)
(-0.740648 2.18635 0.0561174)
(-0.559663 2.23145 0.0360763)
(-1.79016 1.21714 0.0734959)
(-1.55204 1.67878 0.0267775)
(-1.21259 2.04575 -0.00314354)
(-0.549899 2.39928 0.253578)
(-0.644374 2.34231 0.292608)
(-0.523308 2.46413 0.462264)
(-0.307636 2.45937 0.168376)
(-2.16408 1.00129 0.160352)
(-1.86226 1.76393 -0.150234)
(-1.39222 2.14656 0.0438971)
(-0.739862 2.45339 0.18079)
(-0.854328 2.55477 0.274685)
(-0.829655 2.50552 0.472351)
(-0.58972 2.6882 0.422656)
(-0.667365 2.60734 0.414365)
(-2.33001 1.43263 -0.0643523)
(-1.99172 2.09791 -0.181375)
(-1.54873 2.20134 0.129066)
(-1.0647 2.50898 0.183761)
(-0.665216 2.7951 0.340503)
(-0.756774 2.89009 0.470163)
(-0.544855 3.04202 0.509981)
(-0.36369 2.95677 0.900738)