/*--------------------------------*- C++ -*----------------------------------*\
  =========                 |
  \\      /  F ield         | OpenFOAM: The Open Source CFD Toolbox
   \\    /   O peration     | Website:  https://openfoam.org
    \\  /    A nd           | Version:  7
     \\/     M anipulation  |
\*---------------------------------------------------------------------------*/
FoamFile
{
    version     2.0;
    format      ascii;
    class       volVectorField;
    location    "3";
    object      U_0;
}
// * * * * * * * * * * * * * * * * * * * * * * * * * * * * * * * * * * * * * //

dimensions      [0 1 -1 0 0 0 0];

internalField   nonuniform List<vector> 
18750
(
(3.29418 0.179101 -1.27919)
(1.9827 1.10265 -0.226803)
(2.95512 0.238852 -1.23135)
(1.14401 0.172523 -2.17452)
(0.623209 1.99627 -0.706258)
(1.92982 1.26226 -0.334185)
(1.14436 1.71392 -0.0141742)
(2.55592 0.2722 -1.13064)
(0.853337 0.138675 -2.1717)
(0.178964 0.496442 -1.53689)
(-0.0237658 3.57953 0.515407)
(1.05426 2.12251 -0.86684)
(0.241039 1.87371 0.249979)
(1.95008 1.36484 -0.363969)
(1.57877 1.76619 -0.0966958)
(0.8884 1.00438 0.370896)
(2.14599 0.26005 -1.00189)
(0.602597 0.0883451 -2.11458)
(0.0822761 0.475852 -1.43697)
(0.521896 1.19766 -0.749383)
(0.621118 4.12484 -0.608109)
(0.977346 3.19804 0.973985)
(3.13916 1.15511 1.77829)
(1.49756 2.26717 -0.867712)
(0.365902 1.53908 0.318337)
(0.593822 1.78772 1.8841)
(1.96451 1.36443 -0.500958)
(2.0337 1.84127 -0.0116354)
(0.942566 0.955193 0.280511)
(-0.70337 1.1063 0.8054)
(1.76541 0.204553 -0.883989)
(0.492421 0.0414235 -1.99357)
(0.11131 0.422965 -1.3779)
(0.504358 1.19783 -0.781401)
(0.480022 1.17093 -0.600359)
(-0.165582 3.60985 -0.116544)
(0.955529 4.02726 -0.729434)
(2.42661 3.6862 1.8181)
(1.73755 3.16333 0.929317)
(2.42454 1.09162 0.9455)
(2.0315 2.59173 2.40965)
(2.0144 2.29408 -0.574306)
(1.05187 2.01769 0.415783)
(0.984888 1.57787 0.798585)
(0.201989 1.87517 1.44805)
(1.91907 1.3505 -0.556824)
(2.48498 1.78832 -0.105031)
(0.73942 0.890471 0.0922252)
(-0.729487 1.06706 0.530172)
(0.370564 1.52375 1.06378)
(1.4232 0.126592 -0.800955)
(0.539132 0.00826794 -1.86072)
(0.164881 0.412294 -1.38974)
(0.493437 1.21844 -0.83585)
(0.45982 1.17374 -0.613136)
(0.309317 0.976937 -0.702335)
(-0.240061 2.42182 0.115432)
(0.0680413 3.48373 -0.177927)
(-0.856871 4.60411 1.21431)
(1.17958 4.12355 -0.69658)
(1.66368 3.63497 2.1168)
(1.61393 4.00576 2.84493)
(2.43106 3.25045 0.814435)
(2.22787 0.954843 0.0713281)
(1.75615 2.62107 2.1948)
(1.20644 2.79051 1.98652)
(2.3556 2.2234 -0.137409)
(1.99097 1.74746 0.357833)
(1.22505 1.53149 0.225478)
(0.508204 1.71036 1.06662)
(0.411805 1.17886 1.96756)
(1.75195 1.30731 -0.606197)
(2.53172 1.74063 -0.410461)
(0.51405 0.752041 -0.325639)
(-0.566978 1.01972 0.183994)
(0.28259 1.50857 1.03383)
(0.25333 1.86905 0.726406)
(1.17281 0.0544705 -0.721943)
(0.654226 0.00415485 -1.70294)
(0.221183 0.408535 -1.43255)
(0.483091 1.21586 -0.881263)
(0.431399 1.17589 -0.636104)
(0.281951 0.974244 -0.75219)
(-0.80864 0.217909 -0.551985)
(-2.32081 1.9612 0.605409)
(0.60721 2.70934 -0.146309)
(-0.932247 3.48037 1.09448)
(0.44486 3.52296 -0.176537)
(-1.05608 4.87765 0.73105)
(1.26705 4.65317 1.59719)
(1.76967 4.2025 -0.385076)
(0.829787 3.65532 1.83493)
(1.38282 3.87593 3.09856)
(2.21747 3.28539 2.4751)
(2.87528 3.25545 0.843704)
(2.61347 1.05371 -0.350145)
(1.89629 2.60015 1.49826)
(1.37987 2.78814 1.14406)
(1.17475 2.47219 0.747722)
(2.27651 2.04706 0.18687)
(2.58 2.07927 0.42198)
(1.77621 1.45007 -0.295064)
(1.05149 1.42393 0.571783)
(0.630701 1.16669 1.60623)
(0.582579 1.22625 1.30094)
(1.56273 1.24071 -0.601937)
(2.10249 1.47461 -0.653171)
(0.561443 0.677617 -0.677724)
(-0.14234 0.984242 -0.266631)
(0.168151 1.46317 1.04871)
(0.297267 1.86592 0.71875)
(-0.662149 1.20451 0.797917)
(1.03472 0.00395664 -0.667377)
(0.708484 0.00681211 -1.57358)
(0.286263 0.397233 -1.49949)
(0.434159 1.21495 -0.79093)
(0.402303 1.17626 -0.668572)
(0.28499 0.965626 -0.749743)
(-0.781962 0.211771 -0.569971)
(-0.547919 0.0914183 -0.488222)
(-1.92839 2.34348 -0.233303)
(-2.10935 2.20282 0.368916)
(-1.324 3.29423 0.885186)
(-0.126436 2.86272 0.0922086)
(-0.959429 3.37524 1.2178)
(-0.333776 3.55615 1.55137)
(0.947327 3.93109 -0.322997)
(-1.17734 4.92789 0.408572)
(1.08294 4.7803 1.49352)
(1.34746 4.46837 2.17213)
(2.01229 4.25661 -0.0180362)
(0.768385 3.16827 2.25085)
(1.11075 3.84991 2.97809)
(1.70482 3.52011 2.63621)
(1.44315 3.17603 2.06301)
(2.79453 3.21565 0.95661)
(3.11322 1.36121 -0.527884)
(1.98158 2.58636 0.965305)
(1.52396 2.79951 0.776258)
(0.551964 2.59513 0.683743)
(-0.204326 2.50756 -0.16866)
(1.88528 1.74917 0.60492)
(2.90577 2.00536 -0.176497)
(1.83883 1.31124 -0.355259)
(1.00716 1.20656 0.50803)
(0.935004 1.15446 1.17273)
(0.45741 1.33199 0.954574)
(0.439933 1.40699 0.943416)
(1.42671 1.18516 -0.514939)
(1.52788 1.15521 -0.813819)
(0.760804 0.649848 -1.06065)
(0.19148 0.978444 -0.45018)
(0.0820644 1.37472 1.06751)
(0.292472 1.86718 0.726665)
(-0.662374 1.1944 0.780413)
(-0.638406 0.436374 0.19054)
(1.00126 0.00108296 -0.643299)
(0.709246 0.0106839 -1.48317)
(0.331889 0.41028 -1.56436)
(0.38224 1.17295 -0.691535)
(0.371167 1.17487 -0.731801)
(0.226907 0.948823 -0.757071)
(-0.767881 0.212245 -0.5936)
(-0.5527 0.0950784 -0.498238)
(-0.348198 -0.0748857 -0.874023)
(-1.75312 2.22741 -0.110703)
(-2.10545 2.13224 -0.0424094)
(-1.18082 2.98829 0.234827)
(-1.88535 2.33382 0.413529)
(-1.48771 3.3131 1.01169)
(-0.0402594 3.43718 0.832175)
(0.02865 3.02763 0.214476)
(-1.22418 3.31736 1.26322)
(-0.268995 3.81425 1.2372)
(0.0875074 4.23746 1.46059)
(1.31978 4.23097 -0.43496)
(-1.05884 4.77153 0.847407)
(0.719064 4.90992 1.85853)
(1.8378 4.71092 1.87713)
(1.2716 4.23166 2.8761)
(1.80346 4.23244 0.17847)
(1.31688 3.30707 1.29096)
(0.846804 3.74101 2.93939)
(1.31277 3.54636 2.60753)
(1.03089 3.39979 2.15859)
(1.40208 3.30241 0.48622)
(2.22255 3.00552 1.08307)
(3.00714 1.52327 -0.420138)
(1.95503 2.42592 0.805455)
(1.51303 2.87095 0.613082)
(0.329815 2.64072 0.693441)
(-0.807694 2.43548 -0.420095)
(-0.444649 2.0724 -0.111746)
(1.53022 1.41676 0.830294)
(2.65527 1.84298 -0.132071)
(1.56147 1.07441 0.145842)
(0.585558 0.857353 0.653318)
(1.07568 1.13761 1.027)
(0.560229 1.5117 0.684534)
(0.310069 1.4378 0.898145)
(-0.133769 0.57862 0.315736)
(1.28747 1.117 -0.401762)
(1.02981 0.842455 -0.793602)
(0.977207 0.652656 -1.32101)
(0.581066 1.02048 -0.517984)
(-0.0158964 1.25505 1.04829)
(0.277415 1.86198 0.727756)
(-0.674494 1.14569 0.802074)
(-0.637618 0.442778 0.182233)
(-0.0168854 0.458326 0.110544)
(1.01213 0.0185371 -0.619789)
(0.695516 0.000860815 -1.41963)
(0.410152 0.388977 -1.59595)
(0.38368 1.15107 -0.702115)
(0.346042 1.17969 -0.787667)
(0.213798 0.94474 -0.767041)
(-0.755045 0.20124 -0.603338)
(-0.557684 0.0985431 -0.511054)
(-0.367538 -0.0900922 -0.890904)
(-0.51476 -0.638038 -0.190047)
(-1.9599 1.78828 -0.144708)
(-1.76167 2.17168 -0.199397)
(-1.61079 2.5682 0.238256)
(-2.13212 2.11163 -0.000134518)
(-1.35305 2.88941 0.268908)
(-0.435124 3.20056 0.462939)
(-2.1555 2.24989 0.748989)
(-1.71448 3.17099 1.08141)
(-1.08419 3.24267 1.0775)
(-0.250753 3.65708 0.921538)
(0.466391 3.6112 0.279876)
(-1.83915 3.23341 1.32534)
(-0.40625 4.07162 1.08636)
(-1.02025 4.64931 0.938246)
(0.920443 4.33445 2.39573)
(1.23382 4.30089 -0.37442)
(-1.26028 4.79963 1.15226)
(0.431895 4.79622 2.01295)
(1.03394 4.72004 2.44804)
(1.36589 4.30204 2.77688)
(1.62599 3.93407 2.45828)
(1.48634 4.15159 0.232663)
(1.37069 3.51924 0.615899)
(0.841853 3.88429 2.48417)
(0.934509 3.55402 2.66639)
(0.797069 3.55595 1.94858)
(1.49904 3.3523 0.117634)
(1.95517 3.23989 -0.639631)
(1.64088 2.48761 1.03133)
(2.44616 1.52129 -0.102534)
(1.67994 2.23628 0.46942)
(1.07441 2.81313 0.784417)
(-0.213891 2.63142 0.757893)
(-0.92208 2.19571 -0.24925)
(-0.491894 1.6361 0.770969)
(-0.309561 0.860879 1.12673)
(1.66578 1.24009 0.608437)
(2.21241 1.63262 0.231534)
(1.37198 0.783744 0.431526)
(0.393444 0.589952 0.641339)
(1.07096 1.12094 1.06642)
(0.266442 1.51257 1.06978)
(0.161361 1.47895 0.923412)
(-0.182569 0.627219 0.280519)
(0.00218921 0.130026 -0.11977)
(1.14853 0.996025 -0.367291)
(0.701578 0.615517 -0.634643)
(1.12647 0.638343 -1.41204)
(0.891641 1.05544 -0.575862)
(-0.139153 1.11141 0.986636)
(0.199201 1.84502 0.723849)
(-0.625051 1.16958 0.798613)
(-0.640125 0.453493 0.203102)
(-0.0164615 0.471706 0.0619374)
(0.181991 -0.121063 -0.464459)
(1.01344 0.0455357 -0.60128)
(0.672043 -0.00112123 -1.37438)
(0.435503 0.385242 -1.59944)
(0.390803 1.12359 -0.703336)
(0.319467 1.18367 -0.7822)
(0.215526 0.934774 -0.771554)
(-0.746183 0.191777 -0.582093)
(-0.564004 0.100633 -0.530622)
(-0.38604 -0.107953 -0.908091)
(-0.536862 -0.670561 -0.183924)
(-0.532412 -0.557486 -0.0495572)
(-1.19559 2.04109 0.0946595)
(-2.06632 1.61988 -0.172213)
(-1.22628 2.36647 0.137915)
(-1.77361 2.16276 -0.252309)
(-1.50259 2.53739 0.26591)
(-0.608497 2.9878 0.0522284)
(-2.34363 1.92427 0.0504155)
(-1.53655 2.83466 0.231569)
(-0.5662 3.19859 0.455553)
(-0.476377 3.17616 0.453363)
(-2.63007 2.36309 0.586941)
(-1.89599 3.05477 1.10672)
(-1.12541 3.31377 1.11743)
(-0.425894 3.55212 0.992307)
(0.213746 3.85 1.09178)
(-0.992663 3.71618 0.0219425)
(-2.02077 3.40275 1.50458)
(-1.04699 4.07683 1.13724)
(2.05928 4.35933 2.54041)
(0.855836 4.2481 2.76889)
(1.1291 4.06574 2.59159)
(0.282373 4.31961 -0.181041)
(-0.64232 5.04342 1.52513)
(0.261835 4.68505 2.2739)
(0.69225 4.62406 2.59467)
(1.076 4.2491 2.77967)
(1.30104 4.06848 2.1463)
(1.44936 4.07099 2.18228)
(1.26998 4.13638 0.158028)
(1.2015 3.58692 0.292522)
(1.11003 3.9799 1.81679)
(0.599189 3.871 2.44118)
(1.1302 3.71203 1.12118)
(1.53492 3.26836 0.0200285)
(1.3139 2.92573 0.0558896)
(0.444948 3.17003 0.445843)
(1.10074 1.96322 0.793189)
(1.70426 1.34934 0.286538)
(1.48012 1.92803 0.0343178)
(0.384936 2.48451 1.08472)
(-0.477975 2.53892 0.751683)
(-1.01312 2.01722 -0.136121)
(-0.454528 1.53698 0.792701)
(-0.230127 0.758269 1.07434)
(-0.149254 0.783942 1.14684)
(1.82987 1.23236 0.346171)
(1.79829 1.40329 0.632124)
(1.24473 0.641622 0.542375)
(0.512989 0.526245 0.544334)
(0.750234 1.05151 1.21146)
(0.351226 1.72912 0.660139)
(0.0336677 1.47067 1.01123)
(-0.222733 0.666802 0.232271)
(-0.0446142 0.139696 -0.181697)
(-0.0406887 0.21925 0.222829)
(1.04387 0.875235 -0.395842)
(0.55063 0.488295 -0.510622)
(1.17048 0.626084 -1.42629)
(1.09363 1.07076 -0.68696)
(-0.225411 1.00255 0.889103)
(0.0715022 1.81049 0.645362)
(-0.586986 1.11521 0.889349)
(-0.643013 0.464883 0.248801)
(-0.0150571 0.494852 -0.0014782)
(0.0107109 -0.130446 -0.472907)
(-0.282597 -0.200929 0.0469382)
(1.00848 0.0716457 -0.576608)
(0.649709 0.00658077 -1.34499)
(0.457494 0.358207 -1.58939)
(0.376284 1.09336 -0.638446)
(0.292931 1.18719 -0.721374)
(0.21372 0.929438 -0.792823)
(-0.731608 0.178544 -0.574642)
(-0.572853 0.102371 -0.555956)
(-0.40404 -0.128761 -0.924754)
(-0.554245 -0.704468 -0.177585)
(-0.557944 -0.563921 -0.0539363)
(-0.459661 -1.14006 -0.237095)
(-1.54364 1.48607 0.0382584)
(-1.4053 1.78433 0.0844718)
(-1.68738 1.87174 -0.199459)
(-1.21504 1.97099 0.115943)
(-1.93259 1.6826 -0.241279)
(-1.25465 2.45951 0.125309)
(-0.520937 2.6349 0.124656)
(-1.95525 2.03539 -0.25629)
(-1.43376 2.50929 0.353711)
(-0.994267 2.91689 -0.00301747)
(-0.477455 3.11744 0.264892)
(-2.38125 1.95873 0.0901738)
(-1.65917 2.70933 0.18902)
(-0.917041 3.14976 0.406326)
(-0.0879927 3.16363 0.573012)
(0.161083 3.00881 0.851437)
(-3.01654 2.24025 0.47046)
(-2.16994 2.8593 1.3435)
(-1.45814 3.44373 1.11957)
(-0.743637 3.56793 1.15957)
(0.137005 3.75998 1.20356)
(0.726933 3.65008 1.71967)
(-1.76402 3.90216 -0.0469852)
(-1.28682 3.87347 1.81777)
(-1.80949 4.08916 1.03393)
(-1.93544 4.86866 1.59975)
(0.469392 4.29374 2.66246)
(1.09028 4.07347 2.6092)
(0.785786 4.07591 2.63306)
(-0.724734 4.17676 -0.0231466)
(-0.418665 5.02338 1.71049)
(0.170646 4.94578 2.69252)
(0.517669 4.76584 2.57897)
(0.829409 4.38563 2.41073)
(1.12044 4.16528 2.08205)
(0.949095 4.37544 2.20103)
(1.29465 4.27524 2.30879)
(0.727159 4.05875 0.164515)
(1.16709 3.5132 0.454747)
(1.09486 3.87319 1.55833)
(0.834426 4.00113 1.82392)
(1.01826 3.71137 1.02273)
(0.65242 2.83436 0.808147)
(-0.313646 2.28354 1.17278)
(-0.256677 2.67701 0.941771)
(-1.04622 2.89696 1.07173)
(0.518509 1.45533 0.540331)
(1.19727 1.08707 0.692458)
(1.34005 1.6628 -0.161621)
(0.20282 2.18415 0.609824)
(-0.515563 2.49551 0.476723)
(-0.415413 2.03205 0.441293)
(-0.280098 1.4174 0.922993)
(-0.211919 0.744478 0.914669)
(-0.163987 0.790971 1.12309)
(0.165224 1.34624 1.44892)
(1.86975 1.19134 0.205046)
(1.47971 1.18009 0.867768)
(1.11068 0.481522 0.685504)
(0.662197 0.47517 0.510819)
(0.0859464 0.752778 1.42879)
(0.483337 1.66533 0.79211)
(-0.0139917 1.52743 1.02133)
(-0.245334 0.705928 0.214935)
(-0.0574238 0.135787 -0.182998)
(-0.301995 0.143164 0.269213)
(-0.63658 0.123072 0.689575)
(0.998937 0.784435 -0.428569)
(0.506939 0.425807 -0.467959)
(1.1644 0.6144 -1.39196)
(1.2416 1.08035 -0.866867)
(-0.185292 0.995547 0.635695)
(0.000244116 1.74249 0.530031)
(-0.587269 1.09713 0.891468)
(-0.652656 0.476167 0.302883)
(-0.0236824 0.515372 -0.0666391)
(-0.120819 -0.160895 -0.561668)
(-0.387596 -0.208565 0.0467832)
(-0.53868 -0.293857 -0.401107)
(1.00196 0.0792192 -0.578354)
(0.637949 0.012189 -1.33855)
(0.49005 0.351961 -1.60128)
(0.389679 1.05762 -0.538395)
(0.204946 1.1577 -0.747562)
(0.222292 0.932249 -0.819637)
(-0.726164 0.167492 -0.586076)
(-0.582563 0.104422 -0.588167)
(-0.420981 -0.152586 -0.940465)
(-0.573646 -0.736327 -0.163311)
(-0.575337 -0.569289 -0.0800998)
(-0.443032 -1.14204 -0.250816)
(-0.553784 -1.51935 0.0698272)
(-1.41987 1.43438 -0.00676033)
(-1.62859 1.37603 0.027057)
(-1.25393 1.81469 0.273851)
(-1.45695 1.55245 0.053633)
(-1.37734 1.826 0.0814917)
(-1.47144 2.01174 -0.10025)
(-0.600847 2.38119 0.231)
(-1.53132 2.02154 -0.248613)
(-2.10674 1.41319 -0.122373)
(-1.964 2.01939 0.00100892)
(-0.747121 2.5927 0.196223)
(-0.539567 2.79367 0.107157)
(-2.04058 2.05426 -0.290969)
(-1.46734 2.55255 0.302776)
(-1.21726 2.9091 -0.0367321)
(-0.581367 3.08111 0.332573)
(-0.179464 3.05994 0.340071)
(-2.66558 1.55268 0.245874)
(-1.72268 2.5743 0.300027)
(-1.16642 3.06311 0.358605)
(-0.558071 3.12937 0.377133)
(0.0309786 3.01318 0.681184)
(0.412657 3.0504 1.07536)
(-3.30164 2.04483 0.158508)
(-2.37723 2.79777 0.997279)
(-1.65289 3.4102 1.05389)
(-0.869145 3.82176 0.991457)
(0.00707549 3.77725 1.3954)
(0.485945 3.65616 1.69933)
(0.722875 3.72659 1.94573)
(-2.69398 3.96458 -0.275006)
(-1.04512 4.40733 1.69448)
(-1.60784 4.34027 1.22265)
(1.28804 4.74867 2.11948)
(0.957675 4.33821 2.64962)
(0.673073 4.21464 2.46876)
(0.392575 4.1492 2.58142)
(0.371127 4.07502 2.6299)
(-1.53196 4.11561 -0.112694)
(-0.574403 4.94283 1.6783)
(-0.378126 5.33635 1.9259)
(0.929276 4.96259 2.28755)
(1.819 4.57728 2.11153)
(0.566005 4.4025 2.07391)
(0.677485 4.46366 2.29226)
(1.136 4.2834 2.18931)
(1.2666 4.14315 2.51922)
(-0.970131 3.18559 0.278301)
(1.0137 3.46675 0.403281)
(0.798428 3.63519 1.44748)
(1.1435 3.82842 1.33379)
(0.911218 3.47442 1.4137)
(-0.118368 2.30637 0.971638)
(-0.517915 1.97647 1.22149)
(-0.738454 2.24072 1.26911)
(-0.763986 2.39073 1.30071)
(0.147691 2.41518 1.95975)
(-0.0573463 1.09984 0.523151)
(0.612077 0.858134 0.687557)
(0.735773 1.44083 0.0756384)
(0.712919 1.98468 -0.0930242)
(-0.186882 2.53663 0.152681)
(-0.246268 2.18604 0.628194)
(-0.159123 1.50089 1.04008)
(-0.174007 0.799826 0.701824)
(-0.0508187 0.821796 0.945389)
(0.0966122 1.26666 1.51871)
(-0.520206 1.33982 2.07943)
(1.81035 1.14745 0.0690027)
(1.23057 0.991116 0.914624)
(0.846434 0.424318 0.750866)
(0.792325 0.393603 0.532025)
(-0.356671 0.4251 1.56535)
(0.391803 1.6597 1.04356)
(0.0261464 1.49447 1.17024)
(-0.258841 0.750588 0.235741)
(-0.018799 0.0952911 -0.139004)
(-0.645496 0.0396052 0.353522)
(-0.786231 0.0377618 0.434029)
(-0.423101 0.550252 0.962386)
(0.977083 0.744807 -0.472488)
(0.475893 0.390535 -0.458655)
(1.09785 0.584186 -1.36458)
(1.3639 1.07785 -1.04045)
(-0.0469623 1.06259 0.215144)
(-0.0902557 1.68874 0.443192)
(-0.587953 1.06217 0.912104)
(-0.656311 0.493642 0.34154)
(-0.0384129 0.536495 -0.125255)
(-0.279081 -0.17281 -0.564454)
(-0.490689 -0.21229 0.0751962)
(-0.616664 -0.349865 -0.408401)
(-0.494154 -0.52204 0.459738)
(0.992145 0.101946 -0.576109)
(0.624968 0.00964395 -1.34293)
(0.525864 0.360222 -1.6856)
(0.44338 1.06619 -0.584911)
(0.186616 1.14384 -0.767115)
(0.249454 0.945646 -0.855886)
(-0.723981 0.171681 -0.546408)
(-0.596076 0.106106 -0.626727)
(-0.436698 -0.179023 -0.955194)
(-0.589064 -0.767801 -0.145876)
(-0.592475 -0.5798 -0.0932311)
(-0.449542 -1.14659 -0.238597)
(-0.572248 -1.5322 0.102502)
(-0.287446 -1.57529 -0.0572357)
(-1.20007 1.528 -0.00401413)
(-1.49634 1.36262 0.00756471)
(-1.22535 1.91146 0.0318718)
(-1.27416 1.61792 -0.0310045)
(-1.35449 1.59181 0.0608202)
(-1.49235 1.67301 0.0437338)
(-0.729516 2.25262 0.0304886)
(-1.10534 1.92495 0.145246)
(-1.72873 1.41152 0.132744)
(-1.66728 1.8327 -0.0889703)
(-0.640041 2.41227 0.152375)
(-0.478056 2.53359 0.156012)
(-0.287548 2.48847 0.3376)
(-1.98228 1.64468 -0.284924)
(-1.67419 2.27363 -0.106331)
(-0.843594 2.53677 0.23381)
(-0.561057 2.77279 0.151947)
(-0.409986 2.89215 0.160719)
(-2.21835 1.91271 -0.209729)
(-1.68736 2.50419 0.0512012)
(-1.34662 2.86107 -0.0500324)
(-0.770593 3.09075 0.331565)
(-0.424513 3.15845 0.371482)
(-0.143077 3.0991 0.560525)
(-2.84274 1.23716 0.285913)
(-2.12625 2.24432 0.183446)
(-1.20473 3.05266 0.407414)
(-0.657514 3.14476 0.410046)
(-0.291379 3.14587 0.572683)
(-0.450334 3.13844 0.759532)
(0.300952 3.19635 1.37084)
(-2.98658 2.49433 0.206002)
(-2.45515 2.90363 0.935772)
(-1.65146 3.33398 1.02754)
(-1.00996 3.71247 1.30209)
(-0.0883455 3.8347 1.59227)
(0.353109 3.81759 1.83616)
(0.377189 3.66976 2.03717)
(0.414297 3.71051 2.29643)
(-3.61046 3.79054 -0.106113)
(-2.00914 4.13423 1.44561)
(-1.22757 4.6518 1.46535)
(-0.814878 4.88659 2.22918)
(0.509215 4.70118 2.42378)
(0.500517 4.27232 2.38687)
(0.0444963 4.17944 2.53487)
(0.138717 4.22574 2.62022)
(0.112569 4.22825 2.72677)
(-2.784 3.81476 -0.458668)
(-1.06643 4.97835 1.73932)
(-0.234825 5.36254 1.51771)
(0.452304 5.1059 2.15942)
(0.00711587 4.74583 2.53493)
(1.31477 4.3184 1.46842)
(0.581093 4.2517 2.33295)
(0.569719 4.09807 2.51597)
(0.869739 3.87407 2.49324)
(0.649588 3.91247 2.41135)
(-1.81702 2.6445 0.360018)
(-0.587723 2.39331 0.918285)
(0.141224 3.08048 1.53217)
(0.972487 3.56213 1.33364)
(0.363901 3.15005 1.71902)
(-0.965949 1.7337 1.35914)
(-0.516645 1.73426 0.739213)
(-1.02352 2.10352 1.20419)
(-0.711599 2.26148 1.38311)
(-0.887503 2.33855 1.69739)
(-0.685646 2.97247 1.81982)
(-0.422691 0.957756 0.56301)
(0.0372904 0.657865 0.654029)
(-0.192623 0.862592 0.0758579)
(0.715749 1.92836 0.160714)
(-0.085672 2.51388 0.177736)
(-0.113511 2.27307 0.69635)
(-0.0987332 1.66727 0.994482)
(-0.100803 0.886481 0.37273)
(0.231225 0.752045 0.683824)
(0.149073 1.25935 1.45915)
(-0.557301 1.2876 1.92094)
(-0.239822 1.51696 2.13788)
(1.69442 1.08312 -0.0315211)
(0.99087 0.857681 0.866791)
(0.533343 0.318799 0.760775)
(0.798933 0.30621 0.607525)
(-0.622725 0.107583 1.58457)
(-0.057288 1.51489 1.34444)
(-0.101861 1.44587 1.3693)
(-0.266581 0.777659 0.326057)
(0.0350999 0.0855462 -0.046044)
(-0.876371 -0.0878036 0.29368)
(-0.872345 -0.0839263 0.228204)
(-0.520031 0.527209 1.20686)
(-0.354419 0.745689 0.788689)
(0.983354 0.703533 -0.542412)
(0.407133 0.354573 -0.564804)
(1.00481 0.563309 -1.33146)
(1.44644 1.11692 -1.11908)
(0.0629057 1.12499 -0.0118831)
(-0.187965 1.62911 0.400482)
(-0.603285 1.00535 0.924998)
(-0.679261 0.500199 0.362125)
(-0.0747674 0.544349 -0.193939)
(-0.419889 -0.190191 -0.541603)
(-0.530287 -0.232292 0.00215087)
(-0.712038 -0.351717 -0.256314)
(-0.545884 -0.573697 0.456288)
(-0.774471 -1.68762 0.0557577)
(0.968849 0.145206 -0.5685)
(0.593111 0.0102293 -1.35342)
(0.556731 0.36648 -1.79954)
(0.541377 1.10886 -0.738162)
(0.164901 1.13764 -0.77446)
(0.317782 0.985511 -0.869894)
(-0.723448 0.145133 -0.526746)
(-0.605492 0.105658 -0.680491)
(-0.450901 -0.207876 -0.969505)
(-0.601911 -0.796055 -0.124352)
(-0.6128 -0.58712 -0.103626)
(-0.453816 -1.14901 -0.232775)
(-0.573205 -1.54912 0.102646)
(-0.284774 -1.56461 -0.0490246)
(-1.13028 -1.29019 0.52439)
(-1.12461 1.42485 -0.0952165)
(-1.31399 1.42111 0.0284231)
(-1.00317 1.91943 -0.0666199)
(-1.08132 1.6348 0.02359)
(-1.66872 1.18229 -0.0365274)
(-1.39067 1.71802 0.0528616)
(-0.594574 2.18848 0.00892087)
(-1.17221 1.96844 0.111126)
(-1.6432 1.31477 0.0617337)
(-1.48253 1.73122 0.101526)
(-0.863062 2.21411 0.0431672)
(-0.545381 2.37809 0.258903)
(-0.642234 2.28708 0.0295565)
(-1.79797 1.42845 0.151051)
(-1.71376 1.77464 -0.120351)
(-1.07721 2.27795 0.184288)
(-0.530709 2.55487 0.146333)
(-0.576954 2.58473 0.269602)
(-0.446146 2.50106 0.203463)
(-2.19686 1.4064 -0.104824)
(-1.9063 2.10862 0.106818)
(-1.06513 2.43386 0.196281)
(-0.774144 2.69239 0.127753)
(-0.435703 2.8976 0.205061)
(-0.433866 2.83845 0.437381)
(-2.39897 1.8016 -0.195397)
(-1.90843 2.43965 -0.0118695)
(-1.54757 2.73499 -0.080396)
(-0.78006 3.09114 0.331768)
(-0.626549 3.17487 0.337695)
(-0.504566 3.13815 0.582546)
(-0.014709 3.15952 0.819043)
(-2.89628 1.09623 0.280486)
(-1.97064 2.42306 0.241718)
(-1.55272 2.91636 0.384667)
(-0.667717 3.15406 0.497547)
(-0.678874 3.1627 0.488681)
(0.500791 3.36012 0.774004)
(-0.406843 3.31026 1.11469)
(0.291623 3.30418 1.49633)
(-2.95268 2.47162 0.257719)
(-2.61304 3.07288 0.679452)
(-1.67124 3.46365 1.04792)
(-0.952755 3.80239 1.33167)
(-0.331075 3.9673 1.63411)
(-0.0149188 3.73216 1.83477)
(0.108872 3.71487 2.15629)
(0.0965146 3.68138 2.29481)
(0.271649 3.76986 2.3109)
(-3.97618 3.5723 0.228353)
(-2.55991 3.90589 1.40809)
(-1.49127 4.73856 1.61077)
(-1.226 4.85786 2.21472)
(-0.314217 4.72068 2.30997)
(-0.0477309 4.29277 2.21748)
(0.338054 4.27654 2.51737)
(-0.216333 4.29329 2.6884)
(-0.0430396 4.32853 2.75056)
(0.363604 4.28594 2.81375)
(-4.19611 2.85641 -0.477959)
(-2.04575 4.89651 1.78509)
(-0.793243 5.2392 1.35814)
(-0.0522148 5.08575 2.38744)
(-0.157293 4.71425 2.47597)
(1.34428 4.27475 1.66557)
(0.496256 3.91584 2.40344)
(-0.472434 3.70777 2.76595)
(-0.770174 3.43027 2.64838)
(-0.111226 3.85094 2.47722)
(-0.119893 4.0799 2.2412)
(-2.56479 2.14785 0.648779)
(-1.22385 1.92567 1.15255)
(-0.282932 2.61989 1.09264)
(-0.201093 2.94099 1.62051)
(-0.691414 2.44612 2.03359)
(-0.764352 1.66573 1.27977)
(-0.575855 1.64511 0.623536)
(-0.744286 2.09608 0.776353)
(-0.285864 2.33062 1.44301)
(-0.888952 2.2939 1.69501)
(-1.20119 2.92045 1.8434)
(-0.878166 3.17749 1.95268)
(-0.945215 0.817241 0.368146)
(-0.405408 0.476788 0.85389)
(-0.482193 0.568254 0.330737)
(0.470481 1.74091 0.468227)
(0.239946 2.50803 0.213417)
(-0.108083 2.27851 0.656215)
(-0.129019 1.68023 0.894309)
(-0.0957593 0.941992 0.253883)
(0.100965 0.674206 0.710529)
(0.158744 1.17948 1.44813)
(-0.490275 1.21277 1.79387)
(-0.391766 1.54549 2.2178)
(-0.0836668 2.21123 2.35791)
(1.52072 1.01676 -0.0941479)
(0.881564 0.795595 0.765463)
(0.243556 0.244703 0.742062)
(0.668233 0.217308 0.704821)
(-0.45647 -0.00645957 1.39287)
(0.0072922 1.44099 1.34395)
(-0.246774 1.42431 1.41205)
(-0.277071 0.820755 0.395622)
(0.0569613 0.0843938 -0.0205909)
(-0.974376 -0.206397 0.145491)
(-0.86448 -0.201086 -0.0378248)
(-0.673403 0.475559 1.46361)
(-0.531763 0.610517 0.675771)
(-0.539516 2.09329 1.98434)
(0.969769 0.69617 -0.586541)
(0.418425 0.326586 -0.670891)
(0.902027 0.53188 -1.30422)
(1.45715 1.15988 -1.16631)
(0.241391 1.24142 -0.336159)
(-0.253275 1.54399 0.385745)
(-0.621186 0.940468 0.930404)
(-0.666849 0.528537 0.44088)
(-0.111025 0.553896 -0.2466)
(-0.544278 -0.213291 -0.512478)
(-0.571632 -0.245412 -0.0487603)
(-0.752674 -0.385402 -0.215792)
(-0.611614 -0.614068 0.459459)
(-0.845385 -1.75295 0.0554134)
(-1.6591 0.542099 1.82705)
(0.958218 0.153231 -0.560368)
(0.565536 0.0195539 -1.35707)
(0.557432 0.365945 -1.90417)
(0.633418 1.15296 -0.963018)
(0.151894 1.12934 -0.804431)
(0.341365 1.00397 -0.844026)
(-0.712952 0.156799 -0.552314)
(-0.63187 0.103753 -0.729065)
(-0.4634 -0.23965 -0.983721)
(-0.611495 -0.821772 -0.0984101)
(-0.630559 -0.595423 -0.123701)
(-0.460256 -1.15367 -0.222553)
(-0.589583 -1.57232 0.0947794)
(-0.279476 -1.55107 -0.0504028)
(-1.15625 -1.30946 0.506469)
(-1.12134 0.091567 0.431491)
(-0.982212 1.34294 0.0204005)
(-1.25025 1.32482 -0.0797474)
(-0.8654 1.83633 0.0378262)
(-1.06793 1.47176 -0.115993)
(-1.40138 1.34625 0.0292851)
(-1.24561 1.76265 -0.172689)
(-0.416262 2.13859 -0.0538607)
(-0.773763 2.0502 -0.0807559)
(-0.985183 1.69069 0.02805)
(-1.64514 1.18968 -0.0461834)
(-1.44773 1.60984 0.317065)
(-0.786298 2.03575 0.0338964)
(-0.65881 2.21869 0.00316545)
(-0.48719 2.2611 -0.0169474)
(-1.52394 1.50333 0.0695238)
(-1.55913 1.65683 0.105144)
(-1.00803 2.18746 -0.00735177)
(-0.809908 2.30073 0.194767)
(-0.667009 2.31858 0.317835)
(-0.54764 2.37261 0.302067)
(-2.04124 1.13178 0.135538)
(-1.86203 1.67018 -0.145712)
(-1.2561 2.20896 0.122322)
(-0.571477 2.55474 0.193073)
(-0.635164 2.59087 0.294813)
(-0.689126 2.60877 0.462862)
(-0.498237 2.66961 0.2315)
(-2.17783 1.52472 -0.136409)
(-1.98162 2.07663 0.147613)
(-1.34197 2.29721 0.16272)
(-0.671576 2.71946 0.232255)
(-0.509399 2.84278 0.237819)
(-0.743453 2.89293 0.500767)
(-0.472946 3.00289 0.500071)
(-2.512 1.66268 -0.139809)
(-2.24053 2.20523 -0.199839)
(-1.62978 2.74252 -0.023826)
(-1.01482 2.90488 0.313548)
(-0.871236 3.05195 0.3074)
(-0.483297 3.12329 0.571597)
(-0.407972 3.22672 0.738559)
(0.0167994 3.23799 0.973073)
(-3.02155 0.934618 0.308951)
(-2.1614 2.43711 -0.0259157)
(-1.74834 2.85546 0.23214)
(-0.996886 3.03298 0.545527)
(-0.453129 3.17486 0.736127)
(-0.588435 3.29754 1.0911)
(-0.538222 3.19818 1.33045)
(-0.398101 3.41245 1.26935)
(0.170985 3.44461 1.50718)
(-2.93688 2.47198 0.388737)
(-3.37262 2.33111 0.339973)
(-2.05293 3.583 1.02959)
(-1.13209 3.96026 1.3274)
(-0.689153 3.97457 1.56671)
(0.0441401 3.7672 1.89609)
(-0.541595 3.71442 2.17332)
(-0.185753 3.72654 2.30624)
(0.00740842 3.76684 2.39878)
(0.241615 3.73735 2.34718)
(-4.01093 3.25504 -0.239265)
(-3.45513 3.64047 0.998237)
(-1.93262 4.86255 1.57464)
(-1.17964 4.81002 2.53387)
(-1.02441 4.61354 2.24417)
(-0.560127 4.34255 2.07329)
(-0.605818 4.31756 2.38946)
(-0.475611 4.33308 2.64516)
(-0.0427057 4.39785 2.69141)
(-0.091889 4.3723 2.75977)
(0.0558573 4.28831 2.6858)
(-5.08235 1.84498 0.0623111)
(-2.37006 4.37643 1.94021)
(-1.78802 4.64933 1.85181)
(-0.344177 5.22213 2.04387)
(-0.315627 4.77918 2.45094)
(0.805689 4.0269 1.89114)
(-0.380841 3.44425 2.66351)
(-0.495577 3.38175 2.99896)
(-0.921959 3.36958 2.7237)
(-0.589761 3.76139 2.46423)
(-0.853001 4.00448 2.42163)
(-0.443312 4.26225 1.90437)
(-3.3323 1.58082 0.77962)
(-1.70612 1.44784 1.96145)
(-1.11507 1.68089 0.655713)
(-0.664465 2.45056 1.52792)
(-1.29809 2.11921 1.73883)
(-0.551675 1.73852 0.933305)
(-0.436258 1.79276 0.766914)
(-0.887092 1.88036 0.76166)
(-0.853578 2.28095 1.30876)
(-1.02463 2.16622 1.63896)
(-1.10872 2.8091 1.97791)
(-0.839185 3.20865 2.15576)
(-1.19903 3.2932 2.03802)
(-1.3689 0.588044 0.470561)
(-0.932568 0.337366 1.16916)
(-0.8192 0.498671 0.244982)
(-0.00821558 1.35801 0.545927)
(0.489549 2.5877 0.500064)
(0.0165059 2.36423 0.814074)
(-0.208026 1.72522 0.605531)
(-0.0628009 0.973374 0.192736)
(-0.0151609 0.541757 0.737977)
(0.177301 1.1119 1.42803)
(-0.702724 1.02097 1.70737)
(-0.836262 1.47776 2.33913)
(-0.609175 2.54385 1.9348)
(-1.26883 2.63789 2.47339)
(1.28861 0.935705 -0.109669)
(0.692607 0.731075 0.68622)
(-0.00118882 0.178541 0.777793)
(0.554973 0.174717 0.750399)
(-0.208406 0.0264194 1.17093)
(-0.0640837 1.33362 1.35683)
(-0.289977 1.41358 1.40486)
(-0.266015 0.883043 0.417599)
(0.104961 0.117041 0.0173266)
(-1.02398 -0.291491 0.0531072)
(-0.902816 -0.31388 -0.104992)
(-1.0746 0.33228 1.40637)
(-0.571255 0.562434 0.711236)
(-0.578817 2.05694 1.94603)
(-1.15908 2.68724 1.66585)
(0.933973 0.778667 -0.52774)
(0.371816 0.309155 -0.909987)
(0.78905 0.503755 -1.277)
(1.42405 1.16389 -1.19018)
(0.443545 1.35468 -0.666161)
(-0.288012 1.46225 0.411524)
(-0.637879 0.874066 0.914067)
(-0.712858 0.525603 0.457701)
(-0.134371 0.553745 -0.306171)
(-0.662774 -0.242601 -0.459127)
(-0.634512 -0.27045 -0.0917382)
(-0.797453 -0.38414 -0.232753)
(-0.666345 -0.660734 0.489815)
(-0.892785 -1.83842 0.0846979)
(-1.69158 0.525091 1.78561)
(-0.93007 2.17198 1.16277)
(0.954194 0.155294 -0.55341)
(0.553669 0.0185505 -1.35275)
(0.571001 0.361169 -1.9669)
(0.691457 1.17617 -1.22543)
(0.131015 1.08761 -0.887611)
(0.309133 0.987731 -0.784718)
(-0.724394 0.137861 -0.558418)
(-0.61907 0.0891281 -0.805586)
(-0.473752 -0.275431 -0.997654)
(-0.618714 -0.844378 -0.0677281)
(-0.654287 -0.602477 -0.126154)
(-0.464601 -1.16929 -0.210766)
(-0.603635 -1.56713 0.125437)
(-0.287759 -1.56794 -0.0581929)
(-1.17524 -1.31128 0.486663)
(-1.11814 0.086924 0.420895)
(-0.46131 0.350451 0.276601)
(-1.06262 1.15455 0.0411828)
(-1.06695 1.29839 -0.000326389)
(-0.879159 1.59706 0.0480977)
(-0.892706 1.40686 0.0195329)
(-1.35737 1.24543 -0.0637324)
(-0.942247 1.80225 0.0433574)
(-0.713586 1.96428 -0.163266)
(-0.830171 1.82647 0.0498347)
(-1.0191 1.51129 -0.122786)
(-1.48103 1.26776 0.0424303)
(-1.44223 1.59048 -0.267158)
(-0.5294 2.14102 0.00477746)
(-0.589065 2.13644 -0.000689151)
(-0.312964 2.19136 -0.0753088)
(-0.704859 2.08836 -0.0514654)
(-1.71549 1.05248 0.0302355)
(-1.52244 1.60593 0.205521)
(-0.93961 1.93045 0.0565617)
(-0.706211 2.19546 0.00326827)
(-0.740968 2.18698 0.0552642)
(-0.556448 2.23237 0.0365874)
(-1.79285 1.21458 0.0740199)
(-1.55081 1.68163 0.023878)
(-1.21905 2.04123 -0.0013479)
(-0.538594 2.40391 0.254971)
(-0.637959 2.34509 0.291605)
(-0.523656 2.46269 0.462935)
(-0.305296 2.45889 0.16983)
(-2.16517 1.00335 0.159418)
(-1.86768 1.76124 -0.145314)
(-1.3882 2.14919 0.0438163)
(-0.740038 2.45286 0.180725)
(-0.852241 2.55567 0.275294)
(-0.827397 2.50601 0.473516)
(-0.589152 2.68793 0.424142)
(-0.66924 2.6096 0.418416)
(-2.32891 1.43788 -0.0670365)
(-1.98835 2.10331 -0.176253)
(-1.5483 2.20487 0.125759)
(-1.07138 2.507 0.182886)
(-0.660076 2.79718 0.343065)
(-0.749011 2.8946 0.470815)
(-0.539028 3.04315 0.511688)
(-0.36742 2.96111 0.900577)