/*--------------------------------*- C++ -*----------------------------------*\
  =========                 |
  \\      /  F ield         | OpenFOAM: The Open Source CFD Toolbox
   \\    /   O peration     | Website:  https://openfoam.org
    \\  /    A nd           | Version:  7
     \\/     M anipulation  |
\*---------------------------------------------------------------------------*/
FoamFile
{
    version     2.0;
    format      ascii;
    class       volScalarField;
    location    "5";
    object      nut;
}
// * * * * * * * * * * * * * * * * * * * * * * * * * * * * * * * * * * * * * //

dimensions      [0 2 -1 0 0 0 0];

internalField   nonuniform List<scalar> 
150000
(
0.0011734
0.00236445
0.00118305
0.00160697
0.00115267
0.00151267
0.00229161
0.00175904
0.0021796
0.00112127
0.00151389
9.59312e-05
0.00179925
0.000957838
0.00261871
0.00156603
0.00503719
0.00237965
0.00159704
0.00158472
0.000627021
0.0032351
0.00207465
0.00100622
0.00155384
6.94021e-05
0.000446429
0.000159268
0.00191466
0.00108799
0.00278799
0.0026911
0.00171058
0.00282252
0.00155399
0.00222514
0.0016454
0.000262167
0.00191327
0.000993724
0.00134629
0.000519778
0.000625967
0.00089349
0.00233916
0.00142295
0.000862543
0.00167726
0.000106934
0.000435093
0.000472318
0.000478917
0.000151992
0.00187509
0.00142298
0.00314666
0.0042865
0.00265186
0.00235519
0.00221316
0.00345948
0.00144245
0.00140113
0.00274541
0.00179601
0.000817425
0.00075804
0.000668478
0.00160159
0.00165141
0.00327792
0.00108716
0.0014712
0.000397498
0.000870381
0.000597639
0.000555685
0.000958959
0.000848035
0.00103512
0.000688989
0.00167025
0.000259508
0.000418935
0.000459814
0.000181359
0.000489093
0.00047254
0.000180365
0.00175991
0.00164551
0.00288135
0.00272029
0.00317668
0.00320595
0.00466166
0.00350339
0.00138144
0.00274771
0.00291187
0.00287587
0.00429216
0.00197963
0.00148446
0.00133625
0.00137482
0.00358413
0.0020316
0.00148147
0.000316755
0.000435611
0.000279967
0.00118396
0.00112444
0.00175054
0.00348132
0.00125839
0.00153034
0.000427736
0.00106248
0.000636254
0.000390588
0.000628674
0.000559197
0.000921856
0.000744276
0.00128846
0.000509969
0.00153971
0.000412623
0.000440216
0.000435051
0.000218976
0.000384982
0.000194972
0.000460152
0.000480606
0.000201236
0.00162321
0.00175895
0.00204358
0.00278074
0.0015359
0.00276339
0.00310092
0.00231187
0.00190154
0.00324444
0.00298315
0.00386349
0.00480614
0.00128444
0.00122546
0.000990937
0.00257303
0.00295347
0.00255833
0.00173749
0.00192274
0.00146615
0.000852008
0.000925795
0.00192156
0.00290133
0.00332242
0.00205625
0.00101302
0.000826055
0.00111419
0.000420382
0.000408059
0.000263997
0.00108548
0.00171415
0.00399433
0.00175293
0.00131089
0.000854565
0.000478019
0.000915937
0.000640545
0.000387492
0.000361381
0.000414698
0.000595742
0.000543472
0.00107806
0.000780646
0.000979433
0.000388317
0.00129371
0.000531336
0.000346939
0.000401448
0.000268892
0.000345187
0.000377344
0.000427926
0.000193674
0.000430351
0.000486273
0.000296024
0.00142867
0.00177944
0.00226512
0.00209095
0.000915684
0.00224974
0.00291248
0.00124482
0.00129651
0.00176728
0.00271439
0.00277028
0.00108004
0.00150452
0.0015512
0.0024418
0.00272092
0.00225979
0.0021081
0.00244049
0.0012197
0.001331
0.000785739
0.00208196
0.00206278
0.00221907
0.00295781
0.00242141
0.00255643
0.00117567
0.00135394
0.00142843
0.000547273
0.000382536
0.00193248
0.00198476
0.0028428
0.00223433
0.0014758
0.00133758
0.000840673
0.00108907
0.000491874
0.000486884
0.00063456
0.000507635
0.000365985
0.000731465
0.00115184
0.00214413
0.00211507
0.00134126
0.000725973
0.00068478
0.00102841
0.000608293
0.000330244
0.000340293
0.000336191
0.000369438
0.000475014
0.000588843
0.000549995
0.00116057
0.000824967
0.000504584
0.000347684
0.00103244
0.000631479
0.000378364
0.000363126
0.000291923
0.00030646
0.000242427
0.00039154
0.000560016
0.000444331
0.000206356
0.000390379
0.000489222
0.000314922
0.00121454
0.00174412
0.00218316
0.00238019
0.000700714
0.00244497
0.00206901
0.000958293
0.000928615
0.000830467
0.0021468
0.00284922
0.00150549
0.0015386
0.00136081
0.00149942
0.00212657
0.00234054
0.00274229
0.00104674
0.00182976
0.00120809
0.000470642
0.00210976
0.00234041
0.00205981
0.00237375
0.00270015
0.00136082
0.00178915
0.000738956
0.00162175
0.000628812
0.00113627
0.000698063
0.000197281
0.00230662
0.00282791
0.00216574
0.00145385
0.000540509
0.00136876
0.000787291
0.000959197
0.000693957
0.000618469
0.00046214
0.00345057
0.00139203
0.00272474
0.00208629
0.00120763
0.00113905
0.000421609
0.000941336
0.000679435
0.000403021
0.000705726
0.000817532
0.000683233
0.000566986
0.000429708
0.000992118
0.000790455
0.00210374
0.00137143
0.00134765
0.0010604
0.00101825
0.00111169
0.000567384
0.000283605
0.000346215
0.000371274
0.000536492
0.000405209
0.000333891
0.000443361
0.000593725
0.00061791
0.00106309
0.000763175
0.00057694
0.000321792
0.00069693
0.000614827
0.000420434
0.000321804
0.000293305
0.000280241
0.000134326
0.00019814
0.000455595
0.000599397
0.000694097
0.000459172
0.000192525
0.000344086
0.000499087
0.000322258
0.000991425
0.00163407
0.00218297
0.00212394
0.0005762
0.00220179
0.00232266
0.000642223
0.000866036
0.000863779
0.00243946
0.00219034
0.00100452
0.000854242
0.000531298
0.000588028
0.000759221
0.00230979
0.00305264
0.00145363
0.00155268
0.00125708
0.00143045
0.00157655
0.00174166
0.00218322
0.00238856
0.00262892
0.00105045
0.00203736
0.00153841
0.00162106
0.000756087
0.000599629
0.001283
0.00194583
0.00190514
0.00245051
0.00279074
0.000806038
0.00193735
0.000901105
0.00144466
0.000790416
0.000716387
0.000623752
0.000884387
0.00217572
0.00285238
0.00194739
0.00261759
0.00270711
0.000601719
0.000725412
0.00094101
0.000918923
0.00175189
0.00111981
0.000793056
0.000642705
0.000449014
0.000916053
0.00234209
0.000861946
0.00224845
0.00201361
0.00114177
0.000961247
0.000469867
0.000702004
0.000589435
0.000617508
0.000506626
0.000566576
0.000448391
0.000840303
0.000758239
0.000654256
0.000500862
0.00100299
0.00139088
0.00219153
0.00187555
0.00117501
0.00111173
0.000993886
0.00117203
0.000554535
0.000292675
0.000374688
0.000396627
0.000418064
0.000240783
0.000545103
0.000480788
0.00038588
0.000426532
0.000597051
0.000622344
0.00094469
0.000546179
0.000755218
0.000302539
0.000521172
0.00063383
0.000329142
0.000198979
0.000254032
0.000261724
7.68507e-05
0.000123704
0.000379835
0.000340208
0.000540908
0.000734235
0.00079461
0.00045007
0.00018349
0.00029522
0.000447894
0.000348265
0.000778295
0.00153231
0.00210895
0.00218194
0.00090141
0.0023416
0.00219896
0.000788658
0.00076953
0.000795595
0.00226346
0.00249419
0.000997511
0.000980802
0.000805219
0.000732266
0.000526
0.00243811
0.002337
0.000988156
0.000828441
0.000863662
0.000814558
0.000827673
0.000768566
0.000704979
0.00210833
0.00299439
0.00117642
0.00128566
0.00088878
0.000770002
0.00132242
0.000778994
0.00191652
0.00266792
0.000967516
0.00242507
0.00278251
0.000513364
0.000939748
0.000833586
0.000893059
0.000802076
0.000525431
0.000582292
0.00111187
0.00169427
0.00188455
0.000969584
0.00272481
0.0022865
0.00109242
0.000751435
0.00048387
0.000706229
0.00126799
0.000689267
0.000567378
0.00104223
0.000981792
0.000809452
0.00107685
0.000855955
0.00112138
0.0021901
0.00203474
0.000945047
0.000940881
0.000727239
0.000623648
0.00149191
0.00180481
0.00165598
0.0010178
0.000773839
0.00053115
0.000522914
0.00104496
0.000873056
0.00147587
0.001186
0.00240348
0.0013846
0.000934759
0.000598647
0.000598438
0.000579717
0.000712491
0.000473512
0.000472497
0.000580244
0.000747543
0.000612329
0.000766645
0.00103499
0.000968488
0.000703581
0.00129661
0.000764496
0.00189525
0.00181297
0.00098752
0.000929905
0.00127758
0.00124275
0.000556747
0.000315949
0.000416783
0.000388285
0.000322605
0.000279645
0.000270037
0.000277416
0.000501855
0.000424708
0.000294562
0.000424729
0.000618613
0.000713047
0.000837318
0.000245568
0.000852474
0.000303144
0.000546574
0.000612797
0.000320526
0.000224945
0.000117058
0.000253626
8.55903e-05
0.000179817
0.000298869
0.000320621
0.000644688
0.00039619
0.00057434
0.000831289
0.000850498
0.000390901
0.000208084
0.000247492
0.000360863
0.000361209
0.000547677
0.00131911
0.0020178
0.00208712
0.000496906
0.00219895
0.00227488
0.000789027
0.000579217
0.000973622
0.0022986
0.00241186
0.000977777
0.00054106
0.000352716
0.000686788
0.000687712
0.00239664
0.00244898
0.00087786
0.000401085
0.000742806
0.000719453
0.000832074
0.000646072
0.000593018
0.00231992
0.00243374
0.000992366
0.000923162
0.000901545
0.00046983
0.000666341
0.000822725
0.00110997
0.0012668
0.000617362
0.00225119
0.00309908
0.00122792
0.00139852
0.001113
0.000768244
0.00123814
0.000684142
0.000677905
0.00137467
0.000960448
0.00120003
0.00128341
0.00233594
0.00284727
0.000884129
0.000480589
0.000528952
0.00058953
0.00105936
0.000839089
0.00063583
0.000895382
0.00059525
0.00061457
0.00130445
0.000704594
0.000656
0.00270943
0.00188991
0.000751889
0.000601944
0.000862999
0.000507078
0.0010418
0.000788775
0.00067754
0.00080115
0.000855202
0.000801687
0.00102777
0.000391794
0.00102811
0.00099793
0.00133931
0.00206814
0.00294774
0.00104142
0.0013994
0.000780928
0.000387848
0.00108935
0.000699354
0.00122441
0.000520678
0.000605651
0.000559798
0.00138651
0.000465553
0.000621289
0.000785693
0.00114977
0.00137227
0.00104141
0.00235765
0.00172144
0.00154374
0.000634011
0.000837056
0.000518262
0.000770691
0.000488796
0.000540533
0.000415913
0.000686752
0.000593795
0.000843349
0.000637597
0.000784984
0.00109948
0.00103529
0.000871685
0.00148911
0.00052723
0.00171753
0.00217508
0.000913216
0.000665225
0.00143269
0.00123815
0.000536069
0.000338528
0.000466941
0.00035853
0.000372358
0.00041917
0.00038935
0.000603993
0.000309127
0.000296039
0.000293283
0.00035551
0.00027768
0.000386902
0.000614237
0.000896238
0.000822606
0.000193334
0.000979959
0.00032202
0.000475551
0.000474783
0.000352967
0.000310369
0.000112468
0.000247721
0.00011453
0.000233965
0.00028241
0.000315152
0.000611291
0.000549468
0.000700616
0.000427568
0.000543373
0.00085948
0.000843653
0.000293182
0.000230869
0.000204783
0.000232834
0.000374695
0.000626215
0.00111617
0.00203152
0.00206121
0.000489276
0.0021608
0.00209
0.000675639
0.000519205
0.00046477
0.00227251
0.0022404
0.000731848
0.000605881
0.0004687
0.000574179
0.000702564
0.00224257
0.00244811
0.00101952
0.000262603
0.000507954
0.000408835
0.000637793
0.000430088
0.000493151
0.00240146
0.00235661
0.000491817
0.00058723
0.000682134
0.000281988
0.00073186
0.000829272
0.000862507
0.000535466
0.00073224
0.0025022
0.00233495
0.000826292
0.00110322
0.000819097
0.000589564
0.000737001
0.000791311
0.000817527
0.000555918
0.000652801
0.000698054
0.000418974
0.00215188
0.00286497
0.00136255
0.00106178
0.00118044
0.000847741
0.000829147
0.00131714
0.000806241
0.000730148
0.000874518
0.00152479
0.00134989
0.00187384
0.000715979
0.00264649
0.00274028
0.0010311
0.000612522
0.00108248
0.000566571
0.000963706
0.0010654
0.000887248
0.000871084
0.000996468
0.000950495
0.000666877
0.00075198
0.000968857
0.00213059
0.000841243
0.00256194
0.00256953
0.000848382
0.000521107
0.000608204
0.00100666
0.000298244
0.000456653
0.00100188
0.000305997
0.00123922
0.000576376
0.000709654
0.000911164
0.000589792
0.00102269
0.000982841
0.00143756
0.00105138
0.00192775
0.00140538
0.00113427
0.000822239
0.000834849
0.000312318
0.000498648
0.000401552
0.000320545
0.000594619
0.000837088
0.000800444
0.000571527
0.000677437
0.00164268
0.00098407
0.000577033
0.00065882
0.000858517
0.00123677
0.00110277
0.00203606
0.00142069
0.00217713
0.000753165
0.000976135
0.000553463
0.000672719
0.000546763
0.000399308
0.000555811
0.00100667
0.000652998
0.00102111
0.00061866
0.000822829
0.000732894
0.000606498
0.000894235
0.00100795
0.00081762
0.00105106
0.000343532
0.000985443
0.00211617
0.000724597
0.000668121
0.0015129
0.0014111
0.000549676
0.000500323
0.000434638
0.000373744
0.000489768
0.000597775
0.000522725
0.000602758
0.000619458
0.000635221
0.000333425
0.000390288
0.000218318
0.000364709
0.000295134
0.000372409
0.000601692
0.000952166
0.000812007
0.000174181
0.000931157
0.000335495
0.000449707
0.000480268
0.000524086
0.000307851
0.000184283
0.000227861
0.000107374
0.000313246
0.000303463
0.000319357
0.000577045
0.000472298
0.000321806
0.000608073
0.00069132
0.000513677
0.000506939
0.000814559
0.000748754
0.000366975
0.000242487
0.000173912
0.000169017
0.000416333
0.000690853
0.00101536
0.00202204
0.00201421
0.000498421
0.0021566
0.00214887
0.000413839
0.000381858
0.00049987
0.00212184
0.00206906
0.000640275
0.000478128
0.000413038
0.000461862
0.00053416
0.00225101
0.00220694
0.000687542
0.000754069
0.000574519
0.000502376
0.000573939
0.0004875
0.00059083
0.00227961
0.00237426
0.000812178
0.000733335
0.00060588
0.000281802
0.000659512
0.000669757
0.000722846
0.000668197
0.000532429
0.00231239
0.00225399
0.000611452
0.000771279
0.0005264
0.000394369
0.000659992
0.000284626
0.000689383
0.000759015
0.000728465
0.000786463
0.000650797
0.00247883
0.0025977
0.000518684
0.000618687
0.000614722
0.000477874
0.000667542
0.000452127
0.000740524
0.000458576
0.000532213
0.000629333
0.000642522
0.00111478
0.000687301
0.00231881
0.00309263
0.00085674
0.000528901
0.000844134
0.000594208
0.000675147
0.000546397
0.00114524
0.000398268
0.000985878
0.00103393
0.00116638
0.0011193
0.00105962
0.00123727
0.000718736
0.00261987
0.00286711
0.000379471
0.000737507
0.00113681
0.000607624
0.000773434
0.000327772
0.00131546
0.000580889
0.000909029
0.00125843
0.000776809
0.000986039
0.000906364
0.000856601
0.00191143
0.00146349
0.00111861
0.00267154
0.00246382
0.00122013
0.000914874
0.000514029
0.000823136
0.000902543
0.00064078
0.000483664
0.00122877
0.000765135
0.000719604
0.000450516
0.000812215
0.000804542
0.000745623
0.000476203
0.00091113
0.00157471
0.00134929
0.000966396
0.00188295
0.00191646
0.00199242
0.000671064
0.00122001
0.000315801
0.000541165
0.000526559
0.000325277
0.000587093
0.000373082
0.000882003
0.00163523
0.000905265
0.0006276
0.000707209
0.000800582
0.000886928
0.000782339
0.000538487
0.00159043
0.00124927
0.000697703
0.0019818
0.00116174
0.00240079
0.000824078
0.000900376
0.000624833
0.000649437
0.000415506
0.000369582
0.000503796
0.000734869
0.000735202
0.000826981
0.000917012
0.000368411
0.000475113
0.000704107
0.000808515
0.00051852
0.000563259
0.000899264
0.000816088
0.000845709
0.000496579
0.000990473
0.00178004
0.00072064
0.000719321
0.00141404
0.00111061
0.000571433
0.00058672
0.000346796
0.000395488
0.000499324
0.000814382
0.000568945
0.000570046
0.000896773
0.000544224
0.000466831
0.000609509
0.000450451
0.000370888
0.000343679
0.000322325
0.000367737
0.000379757
0.000615646
0.000950439
0.00078666
0.000352604
0.000943378
0.000321283
0.000418495
0.000449615
0.000576521
0.000251729
0.000234223
0.000125983
0.000104074
0.0004037
0.000301407
0.000331749
0.000554847
0.000331632
0.000229185
0.000370579
0.000405
0.000570693
0.000661102
0.00052983
0.00045566
0.000700451
0.000523849
0.000462026
0.000245393
0.000153987
0.000315123
0.00046781
0.000701152
0.000843437
0.00214708
0.00202143
0.000348039
0.00216444
0.00194987
0.000305415
0.000324339
0.000608263
0.00223645
0.00204879
0.000488011
0.00033825
0.000491557
0.000551433
0.000701628
0.00217408
0.00215541
0.000628854
0.000441337
0.000399134
0.000492392
0.000591369
0.000564994
0.000641733
0.00220079
0.00230511
0.000733306
0.000638454
0.000449928
0.000617523
0.000343151
0.000694877
0.000484535
0.000445153
0.000457998
0.00229305
0.00243333
0.000703107
0.00087784
0.000595075
0.000597681
0.000419463
0.000636143
0.00103085
0.000557267
0.000641048
0.000574612
0.000782616
0.00223834
0.00259686
0.000703565
0.000616144
0.000514299
0.000591295
0.000458976
0.000455405
0.000415231
0.000308371
0.000378616
0.000549062
0.000803081
0.000663909
0.000710822
0.00246869
0.00253489
0.00157919
0.00040697
0.00058165
0.000671203
0.000398547
0.000311318
0.000359268
0.000538407
0.000373965
0.000587845
0.000806515
0.00084159
0.00083488
0.000597669
0.000432069
0.00230186
0.00307527
0.00154075
0.00101643
0.000696542
0.0011
0.000626986
0.000897025
0.000653028
0.000723154
0.000696033
0.000757905
0.000986856
0.000451081
0.001335
0.000937519
0.00112819
0.000692729
0.00110728
0.00258552
0.00250927
0.000637315
0.000852421
0.000674431
0.000645986
0.000482982
0.000735241
0.000622213
0.0008744
0.000543531
0.000803071
0.000924294
0.000811321
0.000779035
0.0011648
0.000670058
0.00119976
0.00165403
0.000940624
0.000669651
0.00266363
0.00277235
0.00137959
0.000776222
0.000501457
0.000643042
0.000857852
0.000478908
0.000732129
0.00100071
0.000761244
0.000649844
0.00036134
0.000602887
0.000380659
0.000790743
0.000746466
0.000777269
0.000377963
0.0014242
0.000392005
0.00118906
0.00112181
0.00191471
0.0021896
0.0022519
0.00073379
0.00132137
0.000520329
0.000543171
0.000606997
0.000479255
0.000236533
0.000665051
0.000670213
0.00126773
0.000853327
0.000999292
0.000669501
0.00068314
0.000790217
0.000812532
0.000636046
0.000507713
0.00110397
0.000943669
0.0008408
0.000651881
0.00204133
0.00112507
0.00155233
0.00141826
0.00100116
0.000637385
0.000495449
0.000380669
0.000442955
0.000287329
0.000952059
0.000527073
0.000553305
0.000583406
0.00111183
0.000454033
0.000706133
0.000684643
0.000333879
0.000635057
0.00052822
0.000834603
0.000838162
0.000820852
0.000899572
0.000635059
0.00114513
0.00191749
0.00102032
0.000697131
0.000993396
0.000505315
0.000666733
0.000468188
0.00031559
0.000414944
0.000493215
0.00115821
0.000561115
0.000582308
0.00115648
0.00080425
0.000722836
0.000394952
0.000370531
0.000541855
0.000583495
0.000338502
0.000368829
0.000316634
0.000419981
0.000394766
0.000613099
0.000943855
0.000793337
0.000564917
0.00100023
0.000318138
0.000388999
0.000332075
0.000407694
0.000133877
0.000241654
7.21963e-05
0.000104223
0.000463847
0.000342531
0.000317928
0.000514411
0.000356381
0.000224781
0.000381865
0.000556647
0.000241856
0.000481871
0.000491571
0.000591596
0.00047749
0.000359705
0.000490376
0.000465207
0.000469732
0.000239453
0.000142647
0.000311939
0.000503001
0.000760429
0.000696118
0.00219591
0.00206031
0.000368186
0.00230865
0.00203543
0.000404999
0.000164507
0.000535277
0.00217305
0.00199496
0.000371713
0.000355908
0.000420932
0.000447725
0.000556835
0.00226457
0.00209712
0.000471953
0.000510064
0.000296335
0.000319851
0.000409682
0.000443705
0.000564984
0.00221807
0.0021611
0.000523317
0.00045422
0.00057125
0.000453733
0.000361591
0.000382882
0.000487238
0.000697733
0.000880583
0.00212277
0.00218994
0.000697294
0.000706265
0.000596487
0.000578967
0.000515118
0.000398641
0.000476016
0.000315788
0.000534024
0.000712818
0.000544128
0.00230046
0.00241192
0.000781926
0.000786936
0.000548414
0.000595218
0.000561951
0.000674799
0.000993653
0.000459358
0.000673546
0.000792842
0.000510311
0.000312671
0.000513105
0.00221165
0.0022618
0.00120883
0.000720519
0.000573931
0.00074455
0.000389133
0.000939995
0.00061649
0.000310643
0.000199583
0.000583238
0.000576496
0.000768776
0.000705192
0.000676972
0.000699125
0.00255843
0.00256488
0.00138252
0.000991545
0.000689952
0.00100335
0.000725156
0.00104562
0.000586426
0.000575178
0.000453529
0.000421591
0.000776829
0.00073522
0.000548538
0.000724167
0.000479572
0.000603151
0.000952439
0.00221962
0.00278258
0.000890804
0.00100517
0.000554571
0.000883301
0.00103968
0.00109798
0.000714188
0.00106966
0.000612631
0.000879679
0.000797635
0.000944516
0.000640537
0.00134449
0.00097882
0.00105298
0.000945371
0.00082998
0.00104424
0.00264166
0.00266101
0.000905429
0.00114492
0.000848739
0.000950672
0.000920067
0.000919869
0.00079868
0.000812192
0.000773036
0.000472566
0.000480074
0.000519019
0.00109811
0.00114847
0.000931914
0.000511501
0.00111152
0.00116002
0.000495947
0.00072523
0.00132975
0.00256775
0.00310739
0.0013861
0.000982693
0.000542221
0.00203827
0.000996838
0.000912104
0.000554948
0.000769391
0.000810727
0.000180365
0.000415033
0.000853846
0.00129875
0.000566802
0.000788208
0.000829578
0.000605844
0.000449378
0.000607277
0.000469274
0.000780943
0.001169
0.000909476
0.00206129
0.00172275
0.00173616
0.000941839
0.000995419
0.00111179
0.000658159
0.000318518
0.000452884
0.000253202
0.000306713
0.000721831
0.000754589
0.00123902
0.000639986
0.00149987
0.00207932
0.00054571
0.00109644
0.000690786
0.00102572
0.000715455
0.000705924
0.000958975
0.000593577
0.00101496
0.000846661
0.00216187
0.000914696
0.000556093
0.00242198
0.00115795
0.00069557
0.00044549
0.000294823
0.000528353
0.000688237
0.000669822
0.000548921
0.000571205
0.000378006
0.00075242
0.000677134
0.000966133
0.000815082
0.000485435
0.000568799
0.000725865
0.000615622
0.000462917
0.000711063
0.000797158
0.000799318
0.000914089
0.000820188
0.000568722
0.00228492
0.00119634
0.000773056
0.000543335
0.000723692
0.000793003
0.000476854
0.000385579
0.00039246
0.000503739
0.000969886
0.000297089
0.000614733
0.00118085
0.00089799
0.00100503
0.000525928
0.000475623
0.00023827
0.000251842
0.000339937
0.000520025
0.000349579
0.000437255
0.000369721
0.000534724
0.000385773
0.000616911
0.000885262
0.000844231
0.000499967
0.00171404
0.000337291
0.000354175
0.000247493
0.000353835
2.68137e-05
0.000237104
9.34326e-05
0.000160754
0.000469295
0.000347615
0.000314984
0.000448395
0.000462771
0.000311413
0.00037057
0.000592667
0.000347101
0.000446304
0.000336979
0.00048606
0.000372038
0.000477753
0.00048922
0.000297951
0.000488748
0.000681137
0.000502781
0.000220563
0.000137217
0.000310153
0.000533576
0.000806501
0.000599586
0.00215711
0.00211906
0.000553361
0.00229631
0.00203617
0.00034391
0.000312529
0.000486072
0.00226047
0.00202643
0.00044742
0.000325376
0.000140716
0.000361036
0.000436869
0.00217408
0.00203424
0.000434992
0.000352195
0.000191873
0.000516291
0.000505613
0.00043522
0.000502385
0.00221703
0.00206265
0.00056804
0.000484849
0.000321249
0.000349355
0.000309248
0.000294016
0.000434088
0.000271943
0.000430053
0.00224934
0.00218617
0.000679937
0.000578501
0.000303662
0.000244656
0.000347732
0.00051794
0.000364003
0.000530899
0.000371584
0.000543288
0.00065478
0.00226371
0.00221815
0.000721889
0.000536855
0.000214498
0.00051189
0.00048215
0.000651414
0.00082248
0.000591247
0.000699951
0.000396752
0.000617663
0.000737493
0.000656327
0.00227008
0.00248606
0.000715866
0.000524142
0.000395228
0.000580973
0.000504311
0.000564599
0.00070415
0.000793522
0.000230778
0.000517468
0.000594313
0.000733383
0.000550626
0.000423844
0.000449222
0.00260373
0.00265393
0.000495284
0.000713681
0.000501157
0.000437747
0.000586461
0.000387019
0.000487574
0.00054707
0.000451391
0.000295679
0.000458066
0.000593242
0.000689601
0.000638504
0.000619846
0.000438976
0.000351597
0.00233312
0.00278041
0.000432248
0.000808531
0.00111307
0.000661307
0.00075367
0.000773585
0.000719143
0.000542569
0.000447715
0.000283664
0.000479792
0.000603574
0.000785789
0.00023664
0.000784164
0.000601809
0.000532241
0.000689046
0.000841936
0.00240112
0.00288741
0.00117403
0.000625187
0.000649802
0.000258177
0.000758402
0.000932624
0.00115135
0.000655468
0.000386987
0.000222153
0.000760911
0.000827904
0.000928669
0.000909345
0.00067863
0.00131659
0.000919617
0.000350187
0.00107346
0.000661782
0.000797344
0.00260742
0.00284157
0.00112698
0.00054753
0.00106548
0.00102208
0.000906602
0.000686165
0.00106789
0.000794437
0.000401152
0.000475995
0.000625503
0.000279521
0.000527554
0.00120225
0.000832316
0.00124536
0.000765391
0.000844771
0.000458197
0.0011074
0.00173274
0.00102072
0.00129478
0.0027393
0.00233881
0.00155149
0.00105498
0.000349901
0.00089256
0.000646815
0.00126215
0.000768387
0.000543979
0.000532163
0.000381554
0.000372759
0.000432999
0.000456397
0.000499916
0.000375233
0.000908637
0.000759123
0.000825628
0.000418093
0.00029325
0.000646519
0.00122178
0.00121023
0.000870772
0.00133716
0.00182388
0.00181666
0.00165151
0.00124512
0.00108429
0.000460467
0.00057476
0.000615057
0.000391141
0.000404216
0.000344322
0.000488182
0.000759559
0.00127487
0.000971949
0.0012278
0.000886819
0.00137828
0.00112045
0.000537259
0.00071728
0.00133715
0.00102691
0.00072245
0.000493082
0.000827663
0.0006977
0.000897588
0.00060742
0.0023795
0.00100789
0.00104671
0.00189353
0.00109048
0.000909715
0.000573188
0.000231877
0.000566312
0.000441905
0.000522713
0.000899186
0.000977898
0.000573732
0.000639375
0.000927331
0.00140647
0.000749551
0.00061577
0.000932055
0.000641342
0.000447692
0.000406312
0.000702251
0.000665055
0.000596612
0.000699518
0.000770968
0.000918085
0.000983906
0.00113829
0.00217367
0.00122829
0.000771774
0.000617412
0.000747542
0.000823467
0.000441084
0.000390501
0.000425388
0.000510475
0.000412079
0.00025762
0.00059062
0.000614032
0.000946811
0.000941672
0.000504045
0.000541114
0.000455796
0.000359551
0.000281784
0.000211269
0.000228913
0.000559815
0.000334616
0.000491433
0.000502217
0.00059037
0.000404423
0.000606149
0.000858821
0.000851969
0.000309764
0.00147513
0.000342387
0.000317694
0.000370925
0.000289852
0.000142011
0.000223971
0.000125761
0.000210273
0.000463155
0.000366453
0.000385837
0.000300718
0.000529684
0.00033976
0.000333244
0.000572387
0.000354528
0.000420429
0.000345635
0.000358456
0.000478113
0.000448158
0.000234368
0.000353061
0.000504072
0.000330107
0.000636651
0.000759377
0.000516282
0.000192617
0.000134755
0.000583025
0.000535305
0.000793963
0.00047856
0.00200334
0.00221959
0.000461234
0.00222953
0.00209828
0.000541073
0.000316467
0.000457637
0.00219511
0.00207508
0.000429588
0.000288479
0.000292102
0.000283853
0.000527789
0.00213839
0.00206131
0.000347044
0.000352964
0.00020333
0.000216155
0.00023278
0.000229675
0.000317917
0.00211683
0.0019911
0.000427619
0.000317312
0.000300456
0.000374156
0.000301344
0.000322556
0.000556037
0.000356874
0.000604177
0.00221645
0.00210817
0.00060639
0.000494501
0.00035246
0.000483848
0.000256671
0.000323632
0.000237104
0.000342162
0.000391642
0.000439185
0.000414909
0.00218225
0.00227776
0.00069883
0.000585265
0.000267759
0.000462964
0.000373153
0.000600882
0.000415268
0.000371207
0.000470347
0.000441521
0.000416693
0.000456386
0.000540733
0.00225093
0.0022692
0.000590032
0.000440859
0.000623828
0.000408935
0.000466798
0.000647556
0.000356688
0.000979031
0.000588026
0.000371065
0.000508718
0.000637958
0.000501553
0.000714466
0.000556207
0.00230022
0.00230371
0.000738535
0.000577574
0.000516976
0.000437753
0.000563673
0.000630798
0.000383485
0.000961614
0.000766766
0.000279832
0.000374097
0.000784971
0.000729538
0.000560726
0.000593168
0.000482424
0.000694387
0.00232082
0.00231878
0.00110022
0.00049661
0.000515067
0.000324464
0.000640307
0.000588267
0.00044643
0.000455639
0.000513272
0.000556005
0.00041683
0.000430643
0.000733374
0.000425373
0.000610585
0.000891569
0.000556804
0.000669556
0.000715415
0.0024197
0.00259599
0.00146076
0.000830027
0.000683334
0.000536061
0.000776035
0.000734562
0.000569459
0.000365072
0.000424304
0.000839096
0.000666407
0.000532318
0.000525923
0.000444152
0.000343483
0.000882848
0.000460817
0.000448187
0.000864367
0.000581341
0.000573263
0.00222893
0.00283707
0.00128046
0.00130783
0.000821516
0.0011602
0.00051112
0.000909235
0.000425048
0.000882217
0.000774264
0.00038166
0.000388314
0.000326158
0.000548237
0.000504366
0.000664674
0.000846046
0.000983131
0.00046474
0.000848244
0.00134891
0.000279491
0.000632457
0.000413341
0.00257885
0.00295046
0.00138392
0.000380145
0.000671419
0.00109952
0.000959856
0.000634036
0.000533881
0.000880671
0.000828226
0.000820765
0.000301215
0.000830918
0.000462175
0.000544635
0.000802282
0.000969621
0.00111224
0.00070844
0.000800826
0.000963233
0.00117629
0.00113132
0.00126253
0.00100322
0.0010477
0.00284402
0.00295914
0.00105047
0.000762345
0.000584721
0.00183468
0.000675986
0.000947472
0.00103259
0.000490733
0.000561709
0.000394848
0.000448924
0.00054565
0.000217151
0.000377515
0.000363301
0.000452353
0.000551547
0.00068898
0.000718503
0.000869615
0.000564486
0.000219039
0.000659446
0.000626215
0.00062342
0.00087054
0.000997968
0.00193375
0.00184295
0.00210345
0.00176904
0.000426846
0.000950492
0.000997476
0.00119185
0.000651024
0.0004276
0.000629559
0.000720239
0.000986321
0.000996935
0.00109935
0.000787484
0.000711104
0.000967504
0.000666718
0.00070825
0.000972383
0.000813142
0.000501525
0.00105073
0.00115674
0.000725466
0.00062523
0.000892172
0.000488986
0.000567981
0.000857522
0.00268691
0.00103127
0.00165889
0.000827464
0.00113679
0.00174251
0.000759358
0.000446866
0.000530214
0.000720641
0.000728553
0.000617723
0.000773044
0.00123191
0.00047418
0.00107179
0.00130974
0.00082483
0.00126448
0.000746086
0.000518544
0.0005107
0.000246961
0.000490435
0.000490976
0.000752128
0.000825186
0.000511657
0.000676759
0.00103773
0.000984459
0.000653955
0.000475311
0.00220669
0.00116801
0.000709748
0.000318887
0.000527725
0.000755251
0.000459399
0.000385454
0.000477113
0.000465945
0.000470578
0.000254438
0.000549333
0.000722839
0.000697413
0.000466205
0.000575264
0.000534286
0.000395393
0.000623261
0.000494248
0.000248929
0.00040776
0.000170241
0.00017614
0.000681112
0.00035191
0.0005349
0.000548
0.000558171
0.00043078
0.000602555
0.000848799
0.000795652
0.000425922
0.000855407
0.000341552
0.000282901
0.000461974
0.000336663
0.000123075
0.000209217
0.000195101
0.000220991
0.000460532
0.000365348
0.000462112
0.000365343
0.000528722
0.00032416
0.000290568
0.000515742
0.000352941
0.000365351
8.92458e-05
0.000375933
0.000330003
0.000395127
0.000447213
0.000352675
0.000162845
0.000255174
0.000518552
0.00043713
0.000703388
0.000788041
0.000512549
0.000172104
0.000123409
0.000732653
0.000511804
0.000802088
0.000536945
0.00181713
0.00191779
0.000481134
0.00213579
0.00218688
0.000477401
0.00039401
0.000376543
0.00218051
0.00216263
0.00040614
0.000394247
0.000270152
0.000141171
0.000420937
0.00216671
0.0021015
0.000361031
0.000272229
0.000305498
0.00040036
0.000333573
0.000318295
0.000425595
0.0020927
0.00208479
0.000452116
0.000324596
0.00036015
0.000202199
0.000213732
0.000441175
0.000343659
0.000153017
0.000393151
0.00211776
0.00198874
0.000396338
0.000323821
0.000343277
0.000411974
0.000410763
0.000468803
0.00037565
0.000373881
0.000630273
0.000489826
0.00043622
0.00226824
0.00212914
0.000637522
0.000489756
0.000680155
0.000274016
0.000438728
0.000374825