/*--------------------------------*- C++ -*----------------------------------*\
  =========                 |
  \\      /  F ield         | OpenFOAM: The Open Source CFD Toolbox
   \\    /   O peration     | Website:  https://openfoam.org
    \\  /    A nd           | Version:  7
     \\/     M anipulation  |
\*---------------------------------------------------------------------------*/
FoamFile
{
    version     2.0;
    format      ascii;
    class       volScalarField;
    location    "5";
    object      p;
}
// * * * * * * * * * * * * * * * * * * * * * * * * * * * * * * * * * * * * * //

dimensions      [0 2 -2 0 0 0 0];

internalField   nonuniform List<scalar> 
150000
(
-73.4769
-71.8195
-73.7164
-73.6154
-73.352
-67.7544
-72.2037
-72.5264
-71.4577
-74.0306
-73.8113
-76.5061
-73.5419
-73.3141
-70.022
-69.064
-67.9279
-66.7991
-72.6678
-72.9853
-74.5934
-72.0361
-71.3469
-74.3541
-74.1017
-76.4726
-76.371
-76.5406
-73.6269
-73.3747
-65.821
-70.7998
-74.9199
-68.9553
-70.6581
-68.5628
-73.1194
-68.0239
-66.0669
-73.1221
-73.3599
-74.6678
-75.1613
-74.5384
-71.8165
-71.385
-74.6382
-74.5399
-76.4396
-76.3991
-76.3501
-76.3478
-76.5826
-73.9236
-73.5892
-65.6492
-65.6553
-73.8377
-66.3696
-71.0303
-76.8638
-73.4817
-73.1794
-68.6544
-71.7673
-70.0191
-73.5414
-74.6555
-72.916
-53.9974
-64.8896
-73.4506
-73.7775
-74.7601
-75.2445
-75.6844
-75.0892
-74.5097
-71.952
-71.3074
-74.8658
-75.0713
-76.4254
-76.4335
-76.3864
-76.9549
-76.3207
-76.3332
-76.627
-74.347
-73.9518
-60.4589
-66.3546
-65.4771
-65.0437
-65.1191
-75.6426
-71.4591
-71.5349
-66.6691
-71.3503
-77.245
-74.2923
-73.3965
-72.3125
-71.2654
-68.6538
-72.728
-71.3916
-74.0515
-74.9676
-76.3276
-74.4397
-72.8984
-60.5943
-65.0293
-73.6779
-74.1673
-74.8382
-75.3491
-75.7966
-76.7911
-75.5709
-75.0172
-74.5028
-72.2034
-71.4787
-75.0315
-75.6012
-76.4343
-76.4689
-76.4312
-76.9848
-77.0982
-76.925
-76.2987
-76.3287
-76.6849
-74.8101
-74.4636
-60.3258
-60.4527
-60.1581
-60.5037
-66.1175
-66.8388
-66.1689
-65.4453
-64.3283
-65.4421
-75.3842
-72.3798
-71.6331
-70.5657
-70.4729
-66.9562
-71.708
-76.5308
-74.5236
-73.3315
-74.794
-73.3299
-71.2909
-69.6009
-68.6673
-73.3339
-72.4123
-74.526
-75.1354
-76.5653
-77.0205
-76.0644
-74.24
-73.0294
-62.4627
-66.6044
-73.7482
-74.5301
-74.9116
-75.4378
-75.9053
-76.8464
-77.2239
-76.6993
-75.4574
-74.9472
-74.5347
-72.6336
-71.9672
-75.1417
-76.0499
-76.4755
-76.5153
-76.4834
-77.0159
-77.1244
-76.9159
-77.0655
-76.8832
-76.2854
-76.3342
-76.7436
-75.2862
-75.0865
-58.845
-60.3975
-60.3045
-60.2684
-60.5615
-60.333
-60.8964
-60.7665
-60.8313
-66.3077
-67.6436
-67.3676
-66.3696
-65.3584
-65.7292
-63.6561
-66.8728
-73.3663
-73.1235
-72.2451
-70.8858
-71.2546
-70.5455
-69.0202
-66.7265
-71.9106
-75.5278
-74.558
-73.2727
-74.5397
-74.8871
-74.8517
-73.2934
-70.9004
-69.0626
-67.9995
-73.8012
-73.0446
-74.7716
-75.4528
-76.7154
-77.219
-77.2845
-76.7872
-75.8037
-74.1616
-73.1302
-64.0221
-67.9269
-73.8337
-74.8966
-75.0164
-75.4765
-76.0222
-76.9517
-77.2601
-76.926
-77.1808
-76.5727
-75.3495
-74.8907
-74.6476
-73.0981
-72.5735
-75.212
-76.3877
-76.5526
-76.5766
-76.5425
-77.0481
-77.1461
-76.9375
-76.7769
-76.8848
-77.028
-76.8407
-76.2793
-76.3474
-76.7884
-75.7391
-75.7603
-57.7695
-58.8181
-58.8754
-58.8273
-60.3767
-60.3235
-60.3253
-60.214
-60.3159
-60.5825
-60.7909
-61.012
-61.7705
-61.6216
-60.91
-60.9807
-65.8709
-67.7208
-67.7318
-66.9622
-67.0129
-67.3572
-67.1129
-65.1179
-63.1574
-67.2234
-71.8414
-73.5366
-72.1986
-70.7611
-70.598
-70.7368
-71.616
-70.1309
-67.8631
-66.2488
-72.1042
-74.3076
-74.6117
-73.3307
-74.5098
-75.1196
-75.1582
-74.6428
-75.0904
-73.2851
-70.6161
-68.8473
-67.4907
-74.06
-73.4893
-75.1068
-75.7603
-76.7887
-77.3645
-77.3741
-76.6305
-77.2276
-76.5554
-75.597
-73.802
-72.9805
-65.9662
-69.3792
-73.8561
-75.2259
-75.1849
-75.578
-76.1286
-77.046
-77.2958
-76.9461
-76.7273
-76.9007
-77.1324
-76.4912
-75.242
-74.859
-74.7972
-73.6242
-73.2596
-75.2595
-76.6418
-76.6505
-76.6198
-76.6028
-77.0789
-77.1634
-76.9516
-76.8047
-76.8693
-76.7363
-76.843
-76.9887
-76.8102
-76.2781
-76.3706
-76.8128
-76.1483
-76.4384
-56.9913
-57.8284
-57.7736
-57.8612
-58.8232
-58.9019
-58.8334
-58.8567
-58.829
-60.2416
-60.3983
-60.2866
-60.4704
-60.3427
-60.2085
-60.314
-60.5985
-60.9438
-60.983
-61.3088
-61.757
-61.8992
-61.965
-61.7078
-61.0432
-65.6
-67.1745
-67.9869
-67.5772
-67.1411
-66.0204
-66.3285
-66.7777
-66.1512
-65.0288
-63.0399
-67.1699
-71.118
-72.9841
-72.323
-70.815
-70.5584
-70.5421
-70.7242
-71.6686
-70.8005
-68.6835
-67.6958
-66.4862
-71.8783
-73.8844
-74.3492
-73.3237
-74.4395
-75.1641
-75.5249
-75.0267
-74.8982
-74.6637
-74.9508
-72.8262
-70.3211
-69.0352
-67.8467
-73.7231
-73.8432
-75.4402
-75.6521
-76.8907
-77.3157
-77.4811
-76.7336
-76.1337
-76.4949
-77.1188
-76.3358
-75.3605
-73.4103
-73.1082
-68.0468
-70.5528
-73.8777
-75.4753
-75.4195
-75.7085
-76.237
-77.1091
-77.3197
-76.9592
-76.7349
-76.7241
-76.6877
-76.8651
-77.0695
-76.4007
-75.1376
-74.8707
-75.0351
-74.3
-74.0425
-75.2971
-76.7799
-76.7086
-76.6165
-76.6648
-77.1031
-77.1759
-76.9617
-76.8224
-76.9101
-76.501
-76.8195
-76.6873
-76.7851
-76.9488
-76.7805
-76.2804
-76.4145
-76.8567
-76.4856
-77.0431
-56.4387
-57.0429
-56.9955
-56.9542
-57.8507
-57.8435
-57.6677
-57.7984
-57.8911
-58.7868
-58.8503
-58.7073
-58.8323
-58.7796
-59.0338
-58.8123
-60.2216
-60.3641
-60.3846
-60.5184
-60.5945
-59.9647
-59.933
-60.3559
-60.4752
-60.7953
-61.1418
-60.9526
-61.6283
-62.1902
-62.2942
-61.8285
-61.2603
-61.2631
-62.451
-61.1311
-65.3539
-67.0379
-68.0852
-67.4657
-66.6551
-66.361
-65.7029
-66.014
-66.1863
-65.4735
-65.6755
-65.0606
-62.9451
-67.0643
-70.5912
-72.1845
-72.5291
-71.3146
-70.6236
-70.9509
-70.8381
-70.291
-70.8472
-71.5417
-70.2431
-69.1529
-67.5783
-66.6766
-71.3937
-73.3492
-73.9898
-73.232
-74.378
-75.0527
-75.6408
-75.3505
-74.6063
-74.4764
-74.7704
-74.5334
-74.8508
-72.0225
-69.9511
-68.9853
-68.4877
-73.3839
-74.0134
-75.711
-75.7322
-76.8975
-77.2645
-77.4022
-76.7674
-76.1071
-75.47
-76.0391
-76.362
-76.9828
-76.0874
-75.1052
-73.3484
-73.611
-69.5394
-71.42
-73.9116
-75.6567
-75.6338
-75.8552
-76.3396
-77.1732
-77.3544
-76.9595
-76.7324
-76.8677
-76.3587
-76.6088
-76.6325
-76.8175
-76.9987
-76.2972
-75.0493
-74.8976
-75.2478
-75.0764
-74.8696
-75.3342
-76.8354
-76.7664
-76.6082
-76.7334
-77.122
-77.1836
-76.9693
-76.8379
-76.9472
-76.5401
-76.4488
-76.4629
-76.7709
-76.6329
-76.7218
-76.9044
-76.7484
-76.2844
-76.4764
-76.9567
-76.7255
-77.596
-55.9834
-56.3875
-56.4896
-56.4355
-56.9235
-57.0039
-56.9573
-57.0009
-57.0033
-57.7113
-57.7
-57.7645
-57.8231
-57.8106
-57.9314
-57.8984
-58.7361
-58.672
-58.8456
-58.91
-59.0088
-58.7669
-58.8349
-59.202
-58.8876
-59.9693
-60.413
-60.683
-60.7393
-60.7541
-60.6455
-60.5641
-59.8422
-60.0586
-60.6825
-60.439
-61.0339
-61.4581
-61.212
-61.659
-62.4352
-62.2872
-62.4331
-62.2782
-61.9395
-61.5165
-62.2431
-62.6046
-61.1753
-65.1226
-67.0763
-67.8478
-67.7048
-66.8222
-66.6438
-66.0884
-65.6576
-65.6345
-65.7232
-65.5609
-65.4803
-66.0257
-64.6179
-63.0694
-67.1899
-70.0911
-71.371
-72.593
-71.8046
-71.056
-71.0927
-71.2709
-70.7288
-70.3608
-70.0497
-70.8338
-71.1234
-70.3344
-68.821
-67.1551
-66.7586
-70.8496
-72.5095
-73.4671
-73.142
-74.3517
-74.8146
-75.5492
-75.3034
-74.6346
-74.1926
-74.557
-73.9767
-74.5511
-74.3473
-74.5098
-71.5002
-69.6153
-68.6244
-68.7238
-73.3509
-74.1549
-76.0711
-75.9092
-76.8962
-77.2706
-77.4085
-76.7253
-76.1079
-75.4794
-75.3691
-75.6289
-75.9155
-76.2522
-76.8503
-75.7839
-74.7867
-73.4123
-74.266
-70.7304
-72.2232
-73.9649
-75.763
-75.8289
-76.026
-76.442
-77.2366
-77.3973
-76.9669
-76.7287
-77.0005
-76.4372
-76.233
-76.2691
-76.4968
-76.5707
-76.7589
-76.917
-76.1988
-74.9847
-74.9349
-75.5094
-75.8111
-75.8358
-75.3826
-76.8777
-76.8657
-76.6399
-76.8062
-77.1418
-77.1864
-76.9748
-76.8532
-76.9737
-76.5793
-76.4841
-76.4005
-76.4116
-76.4262
-76.7355
-76.5532
-76.6518
-76.849
-76.7171
-76.2906
-76.5601
-77.0877
-76.9085
-78.0978
-55.6578
-55.9777
-56.0026
-56.0018
-56.3388
-56.445
-56.444
-56.5033
-56.4296
-56.9159
-56.8552
-57.0569
-57.0302
-57.0108
-56.9981
-57.0817
-57.6698
-57.7265
-57.8644
-57.869
-57.9106
-57.7929
-57.9324
-58.0162
-57.9256
-58.6542
-58.7902
-58.9
-58.7767
-59.0658
-59.0468
-58.9327
-58.7485
-58.821
-59.2003
-58.986
-59.9594
-60.3776
-60.7217
-60.9366
-60.8901
-60.791
-60.819
-60.5611
-60.3734
-60.1502
-60.3312
-60.6007
-60.5066
-61.3507
-61.5898
-61.5919
-61.7585
-62.3561
-62.5057
-62.4045
-62.6387
-62.4051
-62.1438
-62.185
-62.1493
-62.4284
-62.8547
-61.2126
-65.3301
-66.7143
-67.4821
-67.6758
-67.2436
-66.6577
-66.3811
-65.977
-65.87
-65.6171
-65.4932
-65.3784
-65.3922
-65.4547
-65.6784
-64.0427
-63.3009
-67.8031
-70.0358
-70.6692
-72.1647
-71.9785
-71.464
-71.4527
-71.1512
-70.982
-70.8061
-70.6585
-69.9328
-69.783
-70.8501
-70.5589
-69.8064
-68.7554
-66.9936
-66.9594
-70.2373
-72.0478
-73.3764
-73.0868
-74.2301
-74.771
-75.3758
-75.0186
-74.5803
-74.0577
-73.4231
-74.0263
-74.2678
-73.6762
-74.4379
-74.3036
-74.0082
-71.1578
-69.2645
-68.6301
-68.8182
-73.2248
-74.338
-76.138
-75.9567
-77.0237
-77.2937
-77.402
-76.7683
-76.1098
-75.5764
-75.4885
-75.1506
-75.2193
-75.5115
-75.7318
-76.219
-76.7054
-75.6308
-74.5042
-73.325
-74.5268
-71.7207
-73.0502
-74.0107
-75.8068
-76.0473
-76.2096
-76.5366
-77.2763
-77.4046
-76.9671
-76.7266
-77.1308
-76.5168
-76.3099
-76.2248
-76.1624
-76.1746
-76.3848
-76.4823
-76.6844
-76.7936
-76.1249
-74.932
-74.9714
-75.8322
-76.5648
-76.9036
-75.4582
-76.9156
-76.9513
-76.6906
-76.8546
-77.1633
-77.1855
-76.98
-76.8663
-77.0002
-76.6172
-76.5184
-76.4349
-76.4038
-76.3576
-76.3716
-76.3913
-76.6888
-76.4771
-76.5836
-76.798
-76.6889
-76.2975
-76.6487
-77.1974
-77.1099
-78.5055
-55.3427
-55.6534
-55.664
-55.6255
-55.9332
-55.9595
-55.9946
-56.0717
-56.0218
-56.3722
-56.4222
-56.4083
-56.458
-56.4506
-56.5122
-56.4772
-56.9415
-56.9307
-57.0284
-56.9629
-57.1399
-57.0225
-57.0668
-57.0513
-57.0531
-57.6661
-57.7655
-57.863
-57.8217
-57.9658
-57.9793
-57.8688
-57.804
-57.9005
-58.0137
-58.0249
-58.7902
-58.7281
-58.9252
-58.954
-59.0738
-59.1385
-59.3797
-59.0168
-58.9425
-58.8775
-58.9979
-59.2605
-59.0289
-59.8549
-60.3806
-60.8024
-61.0604
-60.9634
-60.8929
-60.809
-60.8965
-60.887
-60.6926
-60.4275
-60.3147
-60.4703
-60.6792
-60.4096
-61.4942
-61.9322
-62.0296
-61.8599
-62.4868
-62.5552
-63.106
-62.6363
-62.8747
-62.5481
-62.0518
-62.1865
-62.3781
-62.313
-62.882
-62.5031
-61.2007
-65.0963
-66.6891
-67.2126
-67.5947
-67.42
-66.8012
-66.2717
-66.2066
-66.0956
-65.9791
-65.6903
-65.4564
-65.203
-65.3236
-65.2824
-65.0838
-65.834
-63.504
-63.6843
-67.6309
-69.9061
-70.2144
-71.8534
-71.9543
-71.7526
-71.3083
-71.2834
-71.1319
-70.7384
-70.572
-70.7413
-70.3091
-69.4954
-69.941
-70.8403
-69.9588
-69.2521
-68.8102
-66.833
-66.7669
-70.4847
-72.4554
-73.2637
-73.0497
-74.1867
-74.7036
-75.2652
-74.8943
-74.3448
-73.9609
-73.305
-73.178
-73.505
-74.0357
-73.8335
-73.6406
-74.3213
-74.1828
-73.3324
-71.0617
-69.2405
-69.2359
-68.7153
-73.2974
-74.6087
-76.1217
-76.1489
-77.1734
-77.3999
-77.3274
-76.7809
-76.1286
-75.7949
-75.5113
-75.2228
-74.8731
-75.2901
-75.219
-75.3405
-75.5864
-76.147
-76.4254
-75.4569
-74.319
-73.2324
-74.5188
-72.4847
-73.6359
-74.0785
-75.8438
-76.3085
-76.431
-76.6342
-77.3489
-77.405
-76.9637
-76.7177
-77.2307
-76.5955
-76.391
-76.3573
-76.3459
-76.1054
-76.0921
-76.0891
-76.2803
-76.3905
-76.5928
-76.6808
-76.0777
-74.8789
-75.0262
-76.1644
-77.3992
-78.0346
-75.5729
-76.9531
-77.0205
-76.7323
-76.9155
-77.1848
-77.1831
-76.9876
-76.8783
-77.0268
-76.6538
-76.5523
-76.4592
-76.4309
-76.3943
-76.3739
-76.3125
-76.3293
-76.3726
-76.639
-76.4105
-76.5207
-76.7549
-76.6642
-76.3047
-76.7213
-77.2983
-77.335
-78.799
-55.0215
-55.3167
-55.3633
-55.3588
-55.6164
-55.6636
-55.6738
-55.6263
-55.6481
-55.9366
-55.9524
-55.9677
-55.9836
-55.9831
-56.1287
-56.0674
-56.3598
-56.4174
-56.3874
-56.4149
-56.4224
-56.4985
-56.5282
-56.4901
-56.5119
-56.9146
-56.9175
-56.9965
-56.9871
-57.0446
-57.1509
-57.0902
-56.9733
-57.1229
-57.1061
-57.0806
-57.6168
-57.7059
-57.8175
-57.8789
-57.9758
-58.063
-58.2233
-57.9875
-57.9439
-57.8128
-57.9677
-58.0373
-58.12
-58.7272
-58.7543
-58.9605
-58.9544
-59.1099
-59.1265
-59.2706
-59.5165
-59.3278
-59.1231
-58.9426
-58.9953
-59.043
-59.1629
-58.9583
-59.9234
-60.2094
-61.0353
-61.2542
-61.126
-61.0365
-60.9449
-60.9165
-61.1251
-60.9583
-60.8243
-60.5485
-60.253
-60.2317
-60.6927
-60.8122
-60.2826
-61.6031
-61.659
-62.3472
-62.2814
-62.48
-62.8295
-62.9132
-63.1678
-62.9969
-63.142
-62.7753
-62.3885
-62.1496
-62.2729
-62.3673
-62.4501
-63.0357
-62.4217
-61.092
-64.5301
-66.9368
-66.9551
-67.3031
-67.5939
-66.9385
-66.4216
-66.2603
-66.1149
-66.0947
-66.2611
-65.9944
-65.4695
-65.4524
-65.0843
-65.4548
-65.0903
-64.743
-65.4233
-63.1897
-63.6939
-66.9284
-70.0866
-70.037
-71.582
-71.8463
-71.8865
-71.3595
-71.1173
-70.9635
-70.7479
-70.2589
-70.3183
-70.4741
-70.6104
-70.0333
-69.2757
-69.7612
-70.4654
-69.2745
-69.0599
-68.5523
-66.6517
-66.4457
-70.1145
-73.3126
-72.7966
-73.0749
-74.1238
-74.6186
-75.1501
-74.7649
-74.2786
-73.7368
-73.4221
-72.3743
-72.6469
-73.1959
-73.5181
-73.8579
-73.4898
-73.4937
-74.2151
-73.8984
-72.8223
-71.1972
-69.9003
-69.5887
-68.4394
-73.5147
-74.9753
-76.3255
-76.4204
-77.2734
-77.5066
-77.2135
-76.7583
-76.2044
-75.9044
-75.6466
-75.4131
-75.1948
-74.9726
-74.6354
-75.1056
-75.1695
-75.2217
-75.4054
-75.9783
-76.2089
-75.2643
-74.1763
-73.1372
-74.4707
-73.4666
-73.9785
-74.1652
-75.9379
-76.6043
-76.6218
-76.7451
-77.4659
-77.4032
-76.9557
-76.7198
-77.3339
-76.6458
-76.4687
-76.4782
-76.4902
-76.5194
-76.2126
-76.0096
-75.998
-76.0096
-76.1803
-76.3086
-76.4885
-76.5954
-76.0435
-74.8464
-75.1252
-76.5743
-78.3386
-79.0956
-75.6772
-76.9929
-77.0888
-76.7854
-76.9652
-77.2074
-77.179
-76.9938
-76.8891
-77.0428
-76.6889
-76.5852
-76.4772
-76.4608
-76.4238
-76.4377
-76.3632
-76.3394
-76.2691
-76.2861
-76.3631
-76.598
-76.3533
-76.4665
-76.714
-76.6429
-76.3121
-76.8013
-77.4195
-77.5271
-78.9845
-54.9866
-55.0008
-55.0592
-55.0136
-55.2506
-55.3505
-55.3634
-55.3278
-55.4296
-55.5989
-55.6116
-55.6377
-55.6118
-55.6597
-55.686
-55.6625
-55.885
-55.9638
-55.9425
-55.9941
-55.9736
-55.9989
-56.0479
-56.1509
-56.087
-56.3493
-56.4082
-56.3822
-56.4702
-56.4225
-56.5353
-56.4947
-56.55
-56.5048
-56.464
-56.5529
-56.9059
-56.9513
-56.9488
-57.0189
-57.0384
-57.1652
-57.2367
-57.1857
-57.1248
-57.0598
-57.044
-57.1197
-57.1075
-57.5892
-57.6943
-57.8157
-57.8742
-57.9725
-58.0161
-58.1131
-58.2783
-58.1218
-57.9585
-57.8476
-57.8683
-58.0867
-58.1022
-58.079
-58.9868
-58.4463
-59.118
-59.0856
-59.1009
-59.1692
-59.2469
-59.0897
-59.7307
-59.5791
-59.2563
-59.1184
-58.904
-59.0061
-59.1383
-59.2331
-58.9252
-60.078
-60.1912
-61.0185
-61.1567
-61.1704
-60.9759
-61.1158
-61.0571
-61.0828
-61.3429
-61.1599
-60.9208
-60.9361
-60.5266
-60.2827
-60.5746
-60.8383
-60.3865
-60.1516
-62.0437
-62.4102
-62.5428
-62.71
-62.6702
-62.7098
-62.732
-62.9545
-63.0971
-63.2774
-63.412
-63.0103
-62.7252
-62.4848
-62.3398
-62.3947
-62.2946
-62.3687
-63.0195
-62.4615
-61.2803
-64.8566
-67.3797
-66.6119
-67.0652
-67.6108
-67.1898
-66.6961
-66.4041
-66.2659
-65.9881
-66.1651
-66.1883
-66.3143
-65.9216
-65.3889
-65.3495
-65.5778
-65.135
-65.2109
-65.1657
-65.3975
-62.9666
-63.4645
-66.8076
-70.2529
-70.103
-71.3315
-71.5823
-72.0474
-71.5453
-71.0491
-70.8454
-70.7061
-70.2516
-70.5317
-69.6754
-69.8834
-70.6427
-70.3251
-69.4958
-69.0436
-69.7159
-70.1189
-69.7224
-68.4067
-68.2964
-66.499
-66.253
-70.5725
-74.1921
-73.0097
-73.4065
-74.1911
-74.502
-75.0025
-74.5929
-74.2333
-73.6693
-73.3399
-72.4158
-72.854
-72.522
-72.1832
-72.6693
-73.5585
-73.5651
-73.023
-73.4875
-74.2181
-73.6331
-72.5175
-71.0617
-70.3724
-69.8137
-68.2359
-73.8233
-75.1363
-76.3558
-76.6117
-77.475
-77.6411
-77.1932
-76.7711
-76.2699
-75.7423
-75.7814
-75.5019
-75.464
-75.3446
-75.4313
-74.6845
-74.3562
-74.9951
-75.1963
-75.1137
-75.2462
-75.7804
-76.0458
-75.1099
-74.0574
-73.1073
-74.6116
-74.5362
-74.1602
-74.2633
-76.0176
-76.7656
-76.7121
-76.8648
-77.5384
-77.3884
-76.9343
-76.7617
-77.4195
-76.688
-76.5463
-76.5703
-76.6262
-76.6414
-76.604
-76.3802
-76.0849
-75.9164
-75.9157
-75.9303
-76.0854
-76.2184
-76.3833
-76.5242
-76.0275
-74.8173
-75.2716
-77.1096
-79.3076
-79.9379
-75.7267
-77.0371
-77.1676
-76.8623
-77.0047
-77.2287
-77.1754
-76.9903
-76.9017
-77.0585
-76.7297
-76.6154
-76.4935
-76.4877
-76.4496
-76.4769
-76.5714
-76.3908
-76.3138
-76.3045
-76.2273
-76.2434
-76.3486
-76.563
-76.3053
-76.4144
-76.6802
-76.6258
-76.3217
-76.8628
-77.5619
-77.7034
-79.118
-54.6401
-54.9804
-54.9727
-54.9459
-54.9712
-54.9977
-55.091
-55.0959
-55.0111
-55.2321
-55.2592
-55.3411
-55.3635
-55.357
-55.4354
-55.4592
-55.5462
-55.5767
-55.6145
-55.6809
-55.6229
-55.6603
-55.6463
-55.6525
-55.6959
-55.8854
-55.8732
-55.9477
-56.0093
-56.0478
-56.097
-56.0419
-56.1267
-56.1453
-56.1114
-56.0511
-56.3145
-56.3913
-56.3742
-56.4662
-56.4533
-56.5365
-56.5977
-56.5843
-56.5255
-56.5001
-56.5126
-56.5298
-56.5341
-56.9648
-56.9708
-56.9717
-57.2289
-57.0377
-57.1057
-57.2031
-57.0536
-57.2793
-57.1176
-57.0625
-57.0952
-57.0918
-57.1481
-57.1626
-57.6695
-57.6957
-57.8854
-57.8963
-58.0073
-57.9993
-58.0687
-58.1721
-58.3984
-58.2942
-58.1012
-57.9098
-57.8473
-57.9619
-58.1681
-58.0866
-57.9147
-58.9054
-59.0478
-59.0507
-59.0835
-59.1139
-59.0975
-59.2964
-59.1925
-59.34
-59.7487
-59.7155
-59.4588
-59.4034
-58.9677
-59.0081
-59.1301
-59.2627
-59.2445
-58.9267
-59.9474
-60.5051
-60.8109
-61.0902
-61.209
-60.882
-60.9853
-61.1094
-61.0496
-61.4006
-61.5883
-61.2528
-61.1175
-60.9129
-61.223
-60.1869
-60.467
-60.6395
-60.7753
-60.2686
-60.0282
-62.3516
-62.5798
-63.0871
-63.0552
-63.1278
-62.9155
-62.9329
-62.9986
-63.234
-63.3968
-63.5875
-63.6719
-63.4205
-62.9098
-62.6323
-62.4802
-62.4523
-62.2554
-62.5357
-62.8339
-62.9944
-62.2468
-61.4467
-64.9923
-67.5173
-66.875
-66.7075
-67.6342
-67.2947
-66.842
-66.656
-66.46
-66.1304
-66.1914
-66.2372
-66.4818
-66.2174
-66.4712
-66.1045
-65.7107
-65.421
-65.3876
-65.1567
-65.1342
-65.0257
-65.1008
-62.8439
-63.2105
-66.8909
-70.3905
-70.1858
-71.2196
-71.3969
-72.1616
-71.6408
-71.1569
-70.7669
-70.6382
-70.368
-70.2211
-70.0332
-70.0884
-69.8343
-70.1962
-70.7281
-70.0412
-69.2337
-68.9119
-69.7474
-70.2609
-69.1532
-68.2184
-68.2306
-66.3081
-66.206
-71.1498
-74.6613
-73.5386
-73.8426
-74.7175
-74.6678
-74.8986
-74.4522
-74.0945
-73.5928
-73.312
-72.7691
-72.6287
-72.5991
-72.7772
-72.3034
-72.2098
-72.8433
-73.5582
-73.4325
-72.7745
-73.1824
-74.101
-73.3096
-72.1446
-70.9612
-70.821
-70.0036
-68.1501
-74.0413
-75.0614
-76.4234
-76.8305
-77.6287
-77.8254
-77.1652
-76.7602
-76.3661
-75.9141
-75.9013
-75.6113
-75.6237
-75.6696
-75.6107
-76.1015
-75.2126
-74.4834
-74.198
-74.9175
-75.1131
-75.0087
-75.1396
-75.5539
-75.9345
-74.9608
-73.94
-73.1881
-75.0028
-75.6075
-74.0721
-74.3667
-76.0723
-76.8058
-76.8622
-76.9957
-77.591
-77.364
-76.905
-76.782
-77.4657
-76.7363
-76.6163
-76.6451
-76.7604
-76.7294
-76.6311
-76.431
-76.5654
-76.2501
-75.9582
-75.8205
-75.8323
-75.8294
-76.0284
-76.1247
-76.2822
-76.4717
-76.0145
-74.782
-75.4728
-77.7727
-80.1998
-80.6966
-75.7759
-77.0862
-77.2658
-76.9416
-77.0376
-77.2475
-77.174
-76.981
-76.9187
-77.0689
-76.7751
-76.6415
-76.5132
-76.5101
-76.4694
-76.5097
-76.5965
-76.6312
-76.5422
-76.3447
-76.2629
-76.267
-76.1917
-76.2029
-76.3352
-76.5377
-76.2658
-76.3651
-76.6528
-76.6129
-76.333
-76.923
-77.7212
-77.9134
-79.2332
-54.4358
-54.6046
-54.7051
-54.6622
-54.9547
-54.9612
-54.9059
-54.9406
-54.9116
-54.9633
-55.0036
-55.0582
-55.0922
-55.1103
-55.0532
-55.0542
-55.2041
-55.2402
-55.3173
-55.35
-55.3859
-55.3465
-55.3967
-55.4348
-55.441
-55.5044
-55.522
-55.5714
-55.6277
-55.6171
-55.6602
-55.6697
-55.6637
-55.6963
-55.6754
-55.6607
-55.8483
-55.8582
-55.9051
-55.9093
-55.9977
-56.0546
-56.1478
-56.0941
-56.0966
-56.1318
-56.1118
-56.0798
-56.0845
-56.3147
-56.3449
-56.3383
-56.3977
-56.4501
-56.5534
-56.5117
-56.635
-56.627
-56.604
-56.5871
-56.4912
-56.5467
-56.5822
-56.5303
-56.9794
-57.0031
-57.1348
-57.1246
-57.0727
-57.0644
-57.1828
-57.4925
-57.0366
-57.2531
-57.3373
-57.1449
-57.069
-57.1553
-57.1356
-57.1833
-57.1171
-57.7002
-57.7873
-57.8629
-57.8897
-57.968
-58.032
-58.0519
-58.1384
-58.4748
-58.5183
-58.4349
-58.2862
-58.0474
-57.9146
-57.9605
-58.0521
-58.2604
-58.0472
-57.9547
-58.951
-58.8623
-59.1809
-59.1902
-59.1258
-59.2122
-59.397
-59.4778
-59.5579
-59.7033
-59.7968
-59.7133
-59.6156
-59.4037
-59.3309
-59.0635
-59.0234
-59.2315
-59.2601
-58.9108
-58.8207
-59.9231
-60.2763
-60.8749
-61.0257
-61.2068
-60.956
-60.7336
-61.0899
-61.2501
-61.4343
-61.6179
-61.6277
-61.4849
-61.2903
-61.2017
-61.0277
-60.3498
-60.4219
-60.5808
-60.5656
-60.7079
-60.2974
-60.0196
-62.4052
-62.5425
-63.0082
-63.6042
-63.1115
-63.2518
-63.1924
-63.1752
-63.3879
-63.4538
-63.6317
-63.8154
-63.8182
-63.6009
-63.0419
-62.9049
-62.7706
-62.4914
-62.3951
-62.3667
-61.9479
-62.9138
-62.8717
-61.9085
-61.294
-64.5595
-67.715
-66.9443
-66.8349
-67.4691
-67.3918
-67.0026
-66.9963
-66.3941
-66.2557
-66.1391
-66.2882
-66.4776
-66.7491
-66.4417
-66.2672
-66.3481
-65.8144
-65.6868
-65.4794
-65.3652
-64.6709
-64.6127
-65.0419
-64.7248
-62.8513
-62.9621
-66.7341
-70.5389
-70.4223
-70.9646
-71.2109
-71.8871
-71.5972
-71.2021
-71.0182
-70.4669
-70.3552
-70.2202
-69.9967
-70.3252
-70.4414
-70.0144
-69.8589
-70.436
-70.4949
-69.7482
-69.1534
-69.0321
-69.5952
-69.8843
-68.8789
-68.056
-67.9842
-66.4394
-66.1029
-71.4549
-74.3554
-73.9655
-74.0411
-74.8293
-74.9082
-74.89
-74.338
-74.015
-73.4682
-73.3999
-73.0039
-72.9234
-72.8795
-73.2009
-75.007
-72.5354
-72.1618
-72.2777
-72.9117
-73.4514
-73.1874
-72.5585
-72.9295
-73.7643
-72.9084
-71.8187
-70.9783
-70.8346
-70.3575
-68.0191
-74.1803
-74.7996
-76.5948
-77.1526
-77.7461
-77.9887
-77.1191
-76.7135
-76.4246
-76.0948
-76.0454
-75.7781
-75.9887
-75.9959
-75.7909
-76.0864
-76.986
-75.9206
-74.9802
-74.3346
-74.1048
-74.8192
-74.9413
-74.8542
-75.0195
-75.4417
-75.8259
-74.8079
-73.8706
-73.3172
-75.5664
-76.6737
-73.9251
-74.4825
-76.1274
-76.8588
-77.0329
-77.1618
-77.642
-77.3438
-76.8836
-76.8271
-77.4776
-76.7821
-76.6741
-76.7233
-76.8505
-76.7994
-76.6548
-76.479
-76.4941
-76.3951
-76.5265
-76.1236
-75.8511
-75.7471
-75.7474
-75.7243
-75.9793
-76.0546
-76.1917
-76.4319
-76.0101
-74.7549
-75.7395
-78.4902
-80.8842
-81.2295
-75.8581
-77.1345
-77.3704
-77.0205
-77.0757
-77.2637
-77.1746
-76.9759
-76.9377
-77.0784
-76.8197
-76.6669
-76.5347
-76.5313
-76.4848
-76.535
-76.6188
-76.6652
-76.7784
-76.5996
-76.5127
-76.3042
-76.2245
-76.2326
-76.1607
-76.1706
-76.3201
-76.5176
-76.2295
-76.3246
-76.6324
-76.6016
-76.3482
-77.0445
-77.8363
-78.1312
-79.2989
-54.336
-54.3794
-54.4938
-54.4849
-54.5923
-54.6936
-54.6946
-54.6165
-54.658
-54.9015
-54.945
-54.8846
-54.8934
-54.9029
-54.9029
-54.9268
-54.9689
-54.9975
-55.0018
-55.0139
-55.0396
-55.0352
-55.0748
-55.1783
-55.1314
-55.1845
-55.2142
-55.2412
-55.2733
-55.3402
-55.3888
-55.3522
-55.3466
-55.4007
-55.4086
-55.421
-55.5251
-55.5226
-55.547
-55.5157
-55.6106
-55.6373
-55.698
-55.7031
-55.6968
-55.6227
-55.7167
-55.6674
-55.6391
-55.8787
-55.825
-55.8243
-55.8616
-55.951
-56.0109
-56.1327
-56.1843
-56.118
-56.1285
-56.1076
-56.1968
-56.1127
-56.0622
-56.0684
-56.3079
-56.3313
-56.3286
-56.3343
-56.4378
-56.4944
-56.579
-56.7002
-56.6934
-56.6979
-56.6831
-56.6228
-56.5159
-56.5167
-56.4708
-56.5772
-56.5544
-56.9213
-57.0165
-57.1084
-57.0439
-57.0833
-57.1525
-57.2342
-57.2422
-57.615
-57.2696
-57.4076
-57.3461
-57.2419
-57.1715
-57.173
-57.21
-57.1918
-57.1427
-57.1213
-57.4645
-57.7766
-57.8848
-57.9583
-57.9964
-58.0082
-58.1219
-58.1346
-58.3866
-58.4909
-58.6337
-58.5319
-58.4385
-58.1837
-58.0948
-58.0309
-57.9141
-58.1088
-58.2777
-58.0558
-57.9044
-58.8522
-58.7238
-59.1041
-59.1698
-59.1657
-59.2617
-59.3117
-59.414
-59.7437
-59.7722
-59.8257
-60.0638
-59.8056
-59.6841
-59.5655
-59.5136
-59.2305
-59.1023
-59.0758
-59.2044
-59.1617
-58.9741
-58.7191
-59.8013
-60.0182
-60.572
-61.0875
-61.2428
-61.0415
-60.9274
-60.8958
-61.2541
-61.4005
-61.6863
-61.8155
-62.1936
-61.6642
-61.3803
-61.089
-61.061
-60.8314
-60.6488
-60.5304
-60.5115
-60.5123
-60.7219
-60.1281
-59.64
-62.1499
-62.4298
-63.2549
-63.3439
-63.0382
-63.3096
-63.39
-63.443
-63.3805
-63.3414
-63.6406
-63.9664
-63.8598
-64.086
-63.7841
-63.4291
-63.1625
-62.8969
-62.6443
-62.5781
-62.2906
-62.2714
-62.3835
-62.7227
-62.594
-61.5348
-61.3292
-65.0516
-67.0436
-67.1563
-67.2934
-67.1428
-67.2978
-67.226
-66.6364
-66.7415
-66.3664
-66.2122
-66.1529
-66.522
-66.8846
-67.2759
-66.7215
-66.2916
-66.2275
-66.1875
-65.7799
-65.4964
-65.439
-65.0803
-64.4674
-64.6019
-65.0179
-64.5075
-62.9949
-62.4128
-66.8973
-70.7096
-70.7944
-71.1551
-71.1689
-71.7949
-71.5345
-71.1522
-71.0761
-70.5159
-70.4694
-70.2252
-70.0517
-70.5026
-70.7371
-71.2326
-70.1627
-69.8041
-69.9221
-70.55
-70.29
-69.4759
-69.049
-69.1718
-69.2421
-69.3908
-68.535
-67.8646
-68.0901
-66.6315
-66.3132
-71.6138
-74.0909
-74.3956
-74.2721
-74.7947
-75.129
-74.8539
-74.3019
-74.039
-73.5485
-73.5345
-73.2737
-73.3391
-73.0174
-73.6764
-75.296
-76.5487
-74.6216
-72.2606
-71.8934
-71.9995
-72.7838
-73.4457
-72.9686
-72.3458
-73.1706
-73.4645
-72.6408
-71.7087
-71.1407
-70.7948
-70.9569
-67.907
-74.4455
-75.1574
-76.7413
-77.3238
-77.9828
-78.0744
-77.1018
-76.6601
-76.308
-76.2048
-76.2349
-75.8885
-76.1883
-76.3864
-76.0207
-76.0858
-76.9766
-76.6449
-76.9185
-75.7677
-74.8107
-74.1727
-74.0202
-74.618
-74.8233
-74.7305
-74.9962
-75.5446
-75.7565
-74.6599
-73.838
-73.5403
-76.4434
-77.8278
-74.0225
-74.6024
-76.1917
-76.9778
-77.2582
-77.3809
-77.7011
-77.3288
-76.8813
-76.8904
-77.4845
-76.8222
-76.7106
-76.7787
-76.9039
-76.8545
-76.6871
-76.5348
-76.5512
-76.6116
-76.4018
-76.3873
-76.4921
-75.9895
-75.7411
-75.6858
-75.6349
-75.6216
-75.9186
-75.9831
-76.1151
-76.3959
-76.0201
-74.7486
-76.0564
-79.2448
-81.6432
-81.5613
-75.9514
-77.1785
-77.4718
-77.1017
-77.1172
-77.2778
-77.1786
-76.9755
-76.9582
-77.09
-76.8605
-76.6944
-76.5564
-76.5519
-76.4984
-76.5533
-76.6383
-76.7026
-76.8033
-76.7417
-76.76
-76.5694
-76.4849
-76.2691
-76.187
-76.2031
-76.1372
-76.1421
-76.3015
-76.4926
-76.1965
-76.2926
-76.6191
-76.5958
-76.36
-77.2057
-78.0317
-78.3712
-79.3321
-54.1871
-54.2826
-54.37
-54.3565
-54.3725
-54.3778
-54.4488
-54.4865
-54.5079
-54.5688
-54.5983
-54.6136
-54.7028
-54.6607
-54.5996
-54.6718
-54.8869
-54.8731
-54.8502
-54.9151
-54.8176
-54.8825
-54.9115
-55.015
-54.9031
-54.9496
-54.9227
-54.9982
-54.9796
-55.0246
-55.0078
-55.0707
-55.107
-55.1473
-55.1345
-55.1314
-55.172
-55.1926
-55.2142
-55.2602
-55.3036
-55.314
-55.4181
-55.3627
-55.4124
-55.3357
-55.4472
-55.3975
-55.4179
-55.4951
-55.4284
-55.5099
-55.4932
-55.5626
-55.6057
-55.6867
-55.8266
-55.7891
-55.7218
-55.7152
-55.6812
-55.6888
-55.6427
-55.6762
-55.8505
-55.7926
-55.8286
-55.8273
-55.9214
-55.9966
-56.0666
-56.1424
-56.2665
-56.112
-56.1771
-56.1764
-56.14
-56.1686
-56.1077
-56.0976
-56.0681
-56.2633
-56.347
-56.3002
-56.3013
-56.4045
-56.4212
-56.5614
-56.6243
-56.7513
-56.8142
-56.8208
-56.7665
-56.6674
-56.5064
-56.5109
-56.5392
-56.5205
-56.5827
-56.5532
-56.8241
-57.0122
-57.1092
-57.0911
-57.0913
-57.1224
-57.163
-57.3084
-57.4415
-57.4722
-57.6264
-57.5556
-57.4895
-57.3982
-57.2701
-57.2327
-57.1673
-57.2428
-57.238
-57.1683
-57.1278
-57.4692
-57.7246
-57.7994
-57.8972
-57.9409
-57.9134
-58.0756
-58.1499
-58.2971
-58.4683
-58.6423
-58.9206
-58.6866
-58.5261
-58.357
-58.1885
-58.127
-57.9716
-57.9892
-58.0971
-58.1947
-57.8931
-57.781
-58.8821
-58.7828
-59.1497
-58.949
-59.2106
-59.1884
-59.3322
-59.5281
-59.4419
-59.7859
-60.0018
-60.02
-60.2762
-59.9719
-59.7637
-59.6111
-59.5631
-59.4577
-59.328
-59.1336
-59.1073
-59.2035
-59.1481
-58.9107
-58.5505
-59.8799
-59.8434
-60.4324
-60.9364
-60.9388
-61.146
-61.0312
-60.9128
-61.2596
-61.4351
-61.6555
-62.0288
-61.9824
-62.369
-61.929
-61.7009
-61.417
-61.2372
-61.057
-60.9146
-60.8372
-60.5462
-60.4427
-60.5707
-60.6413
-59.8306
-59.4954
-62.2377
-62.7195
-63.2949
-64.128
-64.02
-63.3549
-63.4162
-63.5646
-63.6179
-63.472
-63.7016
-63.7031
-63.9663
-64.1732
-64.5725
-64.0047
-63.7639
-63.4483
-63.2525
-62.9231
-62.7031
-62.5357
-62.3091
-62.3298
-62.08
-62.9586
-62.3987
-61.6512
-61.166
-65.4272
-67.3667
-67.3891
-67.2112
-66.9318
-67.3183
-67.2985
-66.8462
-66.6711
-66.7063
-66.4361
-66.3449
-66.6804
-66.9531
-67.3622
-68.0821
-67.1878
-66.6086
-66.3135
-66.3142
-66.0944
-65.802
-65.4452
-65.4018
-65.0063
-64.5379
-64.7295
-64.8363
-64.4746
-63.0323
-62.0928
-66.9866
-70.0167
-71.3705
-71.4089
-71.2568
-71.798
-71.6024
-71.2198
-71.0746
-70.6139
-70.5589
-70.3444
-70.2273
-70.5742
-70.964
-71.6783
-72.3333
-70.9275
-70.0269
-69.6848
-69.998
-70.6399
-70.277
-69.2811
-68.5512
-69.0944
-69.3689
-69.2095
-68.4348
-68.1731
-68.1532
-66.5826
-66.3043
-71.8715
-74.1108
-74.8679
-74.6875
-74.987
-75.3152
-74.8805
-74.2851
-73.8862
-73.6466
-73.6828
-73.6594
-73.7614
-73.2149
-74.0331
-75.4513
-76.5747
-77.2647
-76.3549
-74.0948
-72.0094
-71.6458
-72.1384
-73.0312
-73.2683
-72.7285
-72.1063
-72.8918
-73.5927
-72.3909
-71.7641
-71.466
-71.1633
-71.556
-67.8202
-74.7918
-75.5597
-76.9205
-77.4728
-78.2847
-78.161
-77.1402
-76.6554
-76.3679
-76.3518
-76.5363
-76.0629
-76.3216
-76.5331
-76.1234
-76.1743
-76.9425
-76.6217
-76.4521
-76.6212
-76.8167
-75.6933
-74.612
-74.0312
-74.0012
-74.5429
-74.6797
-74.61
-74.9457
-75.3706
-75.6234
-74.5684
-73.8635
-73.8579
-77.0644
-79.0507
-74.3895
-74.8176
-76.2888
-77.1615
-77.5135
-77.6393
-77.7739
-77.3333
-76.8854
-76.9727
-77.5094
-76.8752
-76.7509
-76.8221
-76.9375
-76.8478
-76.7339
-76.5973
-76.5919
-76.6373
-76.4518
-76.57
-76.3563
-76.3731
-76.43
-75.8547
-75.6558
-75.6396
-75.5287
-75.4986
-75.8483
-75.9119
-76.0535
-76.3707
-76.0427
-74.7658
-76.4118
-79.9993
-82.4313
-81.7731
-76.0496
-77.2175
-77.5661
-77.1778
-77.1522
-77.2894
-77.1852
-76.9801
-76.9805
-77.1036
-76.8958
-76.7299
-76.5786
-76.5714
-76.5036
-76.5652
-76.6562
-76.7364
-76.8337
-76.777
-76.7295
-76.7064
-76.7423
-76.5426
-76.4557
-76.2367