/*--------------------------------*- C++ -*----------------------------------*\
  =========                 |
  \\      /  F ield         | OpenFOAM: The Open Source CFD Toolbox
   \\    /   O peration     | Website:  https://openfoam.org
    \\  /    A nd           | Version:  7
     \\/     M anipulation  |
\*---------------------------------------------------------------------------*/
FoamFile
{
    version     2.0;
    format      ascii;
    class       volScalarField;
    location    "6";
    object      nut;
}
// * * * * * * * * * * * * * * * * * * * * * * * * * * * * * * * * * * * * * //

dimensions      [0 2 -1 0 0 0 0];

internalField   nonuniform List<scalar> 
18750
(
0.000572457
0.000847588
0.000427796
0.000568515
0.00127354
0.000756378
0.00073428
0.000204047
0.000496544
0.000565488
0.00252654
0.000886755
0.00129121
0.00045846
0.000792846
0.000693956
9.08348e-05
0.000175575
0.000435115
0.000544758
0.00288184
0.00108763
0.00274472
0.000710551
0.00106319
0.00129711
0.000271093
0.000407344
0.000816045
0.00072721
8.90629e-05
0.000155825
0.000197468
0.00042482
0.000510207
0.00310803
0.000951574
0.00277395
0.00137476
0.00106751
0.00249686
0.000800851
0.000745235
0.00102616
0.00114533
0.000177182
0.00027503
0.000394179
0.000681439
0.000814223
0.000166669
3.12456e-05
0.000123412
0.000204517
0.000308995
0.000495289
0.0028644
0.00113318
0.00299363
0.000617352
0.000951007
0.00219692
0.00197737
0.0013685
0.00113088
0.00256053
0.000804772
0.000764857
0.000756294
0.00106249
0.00102463
0.000326495
0.000167597
0.000315987
0.000402634
0.000568227
0.000852055
0.000157688
0.000165073
0.000225919
8.88518e-05
0.000193929
0.000275448
0.000507282
0.00235248
0.00096479
0.00284443
0.000849388
0.0014258
0.0025091
0.000551459
0.000526095
0.0010002
0.0032314
0.00125817
0.0018409
0.00141203
0.000842371
0.00249818
0.000807625
0.000843513
0.000905564
0.000805398
0.00106507
0.000875963
0.000557731
0.000325123
0.000183492
0.000301513
0.000413517
0.000471347
0.000744559
0.000138321
0.000182528
0.000173662
4.1189e-05
0.000117016
0.000190941
0.000255897
0.000495726
0.00229327
0.000561457
0.00239768
0.00102801
0.000815589
0.00243494
0.000862121
0.000569858
0.000853796
0.00270724
0.000940341
0.00122936
0.00152092
0.00127683
0.00372349
0.00193796
0.00162898
0.00192045
0.0014758
0.000919241
0.00229948
0.000298768
0.000829932
0.000877663
0.00100305
0.000867724
0.00115862
0.000790342
0.000388226
0.000484638
0.000348527
0.000180744
0.000230742
0.00042577
0.000402345
0.000628729
0.000310468
6.32096e-05
0.000202759
0.000174221
9.63582e-05
0.000109125
0.000190667
0.00022877
0.000352133
0.00217449
0.00107965
0.0022328
0.000620945
0.00110446
0.00234053
0.000645139
0.000976881
0.000482811
0.00281926
0.000732997
0.000885871
0.000422274
0.00120248
0.00292191
0.00019193
0.000488814
0.00104227
0.00247244
0.00125555
0.00261639
0.000916286
0.00188647
0.00146827
0.00191672
0.00139626
0.000775593
0.00216214
0.000997387
0.000511348
0.000676213
0.000807702
0.000869282
0.000878087
0.00114789
0.000716085
0.00049636
0.00043331
0.000338817
0.000403969
0.000149709
0.000194018
0.000438858
0.000324429
0.000604802
0.000298203
0.000228562
5.07614e-05
0.000193354
0.000191918
0.000325552
9.90101e-05
0.000175928
0.000181691
0.000298265
0.00208651
0.000787515
0.00211144
0.000152606
0.000649809
0.00212167
0.000716492
0.000657125
0.000587433
0.00243531
0.000843098
0.000474519
0.000758781
0.0007516
0.00270682
0.000952714
0.000568495
0.000614828
0.000938953
0.00106467
0.00259899
0.00206896
0.00198272
0.000606563
0.000863268
0.00129617
0.0015137
0.00310038
0.000807851
0.00109648
0.00192615
0.00149277
0.00199794
0.0011276
0.000841271
0.00207601
0.000646447
0.000745474
0.000552289
0.000546227
0.000652597
0.000904669
0.000857257
0.00118453
0.000646179
0.000380659
0.000517807
0.000278592
0.000173007
0.000324842
0.00019343
0.00019744
0.000423127
0.000277883
0.000621801
0.00044488
0.000305704
0.000201665
0.000106486
0.000193166
0.000129152
7.60336e-05
0.000109889
0.000181956
0.00026277
0.000340025
0.00221424
0.000795385
0.00202891
0.000411839
0.000632926
0.00219809
0.000668321
0.000691411
0.000881867
0.00224303
0.000931659
0.000793752
0.000242703
0.00050497
0.00247684
0.000848042
0.000830914
0.000572894
0.000605597
0.000657008
0.00253215
0.000799428
0.000647946
0.000510047
0.000698486
0.00112077
0.00127723
0.00268002
0.0014809
0.00122457
0.00152797
0.000863132
0.00133485
0.000766475
0.0015549
0.00296546
0.00107874
0.00124211
0.000999208
0.00140294
0.00153665
0.00183979
0.000773234
0.00104239
0.00199779
0.000969014
0.00078146
0.000401534
0.000553189
0.000470538
0.000614845
0.000934708
0.000857053
0.00124646
0.00110517
0.000391098
0.000361556
0.000421119
0.000353299
0.000167909
0.000262532
0.000236624
0.000229992
0.000406092
0.000257527
0.000781962
0.000332033
0.000414471
0.000291705
0.000207591
4.17499e-05
0.000182843
0.000176268
0.000128931
0.000123565
0.000181682
0.000294719
0.000380029
0.00222411
0.000547269
0.00214391
0.000480103
0.000595886
0.00208511
0.000511714
0.000337706
0.000567474
0.00218214
0.00067898
0.000296855
0.000610582
0.000360203
0.00229933
0.000693776
0.000727862
0.000606314
0.000441169
0.000612131
0.00247841
0.000676543
0.000434115
0.000580578
0.000802749
0.000691276
0.000592634
0.00256576
0.000397533
0.000870041
0.000528509
0.0006932
0.000923204
0.00142551
0.0012434
0.00256907
0.000901654
0.000344394
0.000957817
0.000523641
0.000713863
0.000939928
0.000581227
0.00188117
0.00289582
0.00110272
0.000917268
0.00137005
0.00134696
0.000869861
0.00165275
0.00190696
0.000607601
0.00152477
0.00223105
0.000531152
0.000290139
0.00102436
0.000459699
0.000578192
0.000439944
0.000586906
0.000940089
0.00087948
0.00134933
0.00214062
0.00058409
0.000341971
0.000307358
0.000363544
0.000261781
0.000224541
0.000244137
0.000210017
0.000236318
0.00039714
0.0002514
0.0010616
0.000343086
0.00035593
0.00039176
0.000286442
0.000202642
5.48009e-05
0.000168536
0.000268494
0.000241554
0.000117912
0.000150948
0.000170751
0.000269327
0.00241462
0.000408342
0.00231576
0.000531896
0.000520993
0.00215061
0.000411053
0.000304932
0.000561267
0.00213992
0.000527645
0.000590046
0.0004753
0.000456637
0.0022145
0.000884563
0.000427345
0.000374546
0.000444627
0.000540282
0.00242708
0.00138434
0.000778941
0.000660171
0.00058526
0.000497817
0.000376888
0.0023714
0.00120655
0.000602639
0.000574317
0.000706971
0.00136969
0.000864144
0.00118617
0.00256574
0.000420764
0.000503849
0.000864928
0.00084147
0.000560761
0.00150636
0.0014368
0.00133569
0.00237829
0.000853498
0.000718234
0.000652376
0.00155114
0.000786662
0.000802812
0.000433665
0.00106336
0.00214194
0.00350343
0.00107337
0.00107506
0.000987351
0.00177298
0.00121392
0.00110665
0.00147344
0.00180666
0.000936143
0.000919327
0.00270106
0.000584919
0.000225149
0.000544265
0.00090915
0.000534774
0.000585348
0.000363239
0.000618649
0.000926862
0.000874497
0.00129514
0.00184211
0.000749616
0.000531316
0.000439428
0.000360075
0.000346845
0.000315061
0.000226454
0.000241687
0.000205603
0.000195867
0.000404928
0.000311435
0.00115124
0.000250025
0.000357835
0.000421272
0.000379156
0.000247373
0.000179932
6.62473e-05
0.000156461
0.000260359
0.000146691
0.000121317
0.000180378
0.000271439
0.000229323
0.00240962
0.000451757
0.00241959
0.000254578
0.000430141
0.00231209
0.000293739
0.000341907
0.000441877
0.00220664
0.000380246
0.000424649
0.000501641
0.000469048
0.00218989
0.000424485
0.000479752
0.000594171
0.000561641
0.000651715
0.00239707
0.000631538
0.000578485
0.00051814
0.000489199
0.000509759
0.000625818
0.0024709
0.00137371
0.00115863
0.00074548
0.000675016
0.000425996
0.000624636
0.000684673
0.00263012
0.00137645
0.00085285
0.000605627
0.000903186
0.000784864
0.00081698
0.00107212
0.000921351
0.00238172
0.000717764
0.00106431
0.00198093
0.000477327
0.000592978
0.000643533
0.00146216
0.00204434
0.00128665
0.00288762
0.000656119
0.00032246
0.000922329
0.00168368
0.000711033
0.000600544
0.000642102
0.000390291
0.000751977
0.00247384
0.003251
0.000710748
0.00083523
0.000967752
0.00107086
0.00143066
0.00147832
0.00141128
0.00156108
0.00148451
0.00040622
0.000977176
0.00314668
0.000940347
0.000725195
0.000393151
0.000408559
0.000791055
0.000971695
0.000668201
0.00030156
0.000697165
0.000920532
0.00102665
0.00114353
0.00109701
0.000862984
0.000641695
0.000503746
0.0003726
0.000395969
0.000385637
0.000320699
0.000248633
0.000207543
0.000205389
0.000203254
0.000399507
0.000363356
0.00109526
0.000201624
0.000222775
0.000348748
0.000531916
0.000336768
0.000206899
0.000184552
0.000106834
0.000141383
0.000218997
0.000136504
0.000146126
0.000178911
0.000295879
0.000240959
0.00234458
0.000433189
0.00231958
0.000198035
0.000254778
0.00242422
0.000184229
0.00023443
0.000306947
0.00228778
0.000390313
0.000568394
0.000468847
0.00049385
0.00226039
0.000535342
0.000462423
0.000473922
0.000378509
0.000618314
0.00225249
0.000416919
0.000462594
0.000351701
0.000350912
0.000577079
0.000639233
0.00245876
0.000682645
0.00066622
0.000466142
0.000656679
0.000590932
0.000720418
0.000527645
0.0024463
0.000904891
0.000366206
0.000585931
0.000963963
0.000474639
0.000804474
0.000716642
0.000857991
0.00261521
0.00128223
0.00145517
0.000908769
0.00122494
0.000342892
0.000676245
0.00119651
0.00099634
0.00062544
0.00243332
0.000209577
0.00034223
0.000513645
0.000428701
0.000778561
0.000734092
0.0011876
0.00251292
0.002414
0.00120177
0.00297183
0.000998425
0.000345454
0.000418809
0.000729461
0.000710074
0.000931818
0.000427858
0.000769204
0.000713069
0.00102736
0.00249012
0.00341475
0.000490838
0.000660472
0.000638102
0.000560275
0.000870512
0.00125481
0.00135321
0.000896147
0.00163352
0.00127951
0.00148353
0.000699413
0.00223153
0.000863995
0.000956041
0.000752719
0.000316287
0.000498747
0.00077594
0.00140165
0.000852157
0.000382771
0.000737584
0.000915753
0.00114866
0.00114647
0.000859725
0.000477448
0.000755697
0.000587067
0.000455022
0.000346106
0.000415134
0.000515887
0.000393226
0.000285224
0.000162562
0.000233
0.000273682
0.000401673
0.000417405
0.000893124
8.69071e-05
0.000212305
0.000204793
0.00032726
0.000505285
0.000293408
0.000206548
0.00019673
0.000185519
0.000118746
0.000232065
0.0002385
0.00014744
0.000157451
0.00027227
0.000185561
0.00226429
0.000412613
0.00231118
0.000283767
0.000510043
0.00233484
0.0003886
0.000245385
0.000436138
0.00247437
0.000240437
0.000138989
0.000175448
0.000274523
0.00227697
0.000437077
0.000395012
0.000505456
0.000419564
0.000350016
0.00227062
0.000291737
0.000469349
0.00053032
0.00059602
0.000396353
0.000573928
0.00245824
0.000587613
0.000846956
0.000502498
0.000393882
0.000426228
0.000530878
0.000609148
0.00244728
0.000792845
0.00144549
0.000826116
0.00056178
0.000658517
0.000378848
0.000751103
0.000726
0.00250606
0.00135893
0.00126336
0.00131536
0.00043093
0.000623138
0.000528618
0.00107044
0.000822615
0.000406181
0.00243055
0.000754661
0.000514182
0.00059957
0.000657871
0.000488165
0.000497827
0.000736854
0.00176164
0.00144618
0.00107152
0.00255511
0.000619643
0.000284829
0.000792733
0.000936903
0.000347627
0.000662628
0.00101172
0.00096428
0.00162824
0.00142085
0.00146732
0.00311077
0.000488942
0.000985445
0.000298792
0.000718331
0.00063182
0.0008038
0.000497525
0.000296432
0.000733804
0.000616148
0.00120596
0.00233582
0.00313423
0.00114684
0.000434092
0.000478036
0.000482126
0.000319325
0.000729243
0.000981062
0.00106777
0.000841014
0.00159914
0.000961049
0.00175459
0.000546036
0.00233277
0.000561427
0.0006696
0.000563488
0.000764692
0.000393042
0.000644594
0.000527668
0.00100045
0.000849026
0.000490933
0.000794295
0.000889624
0.0012282
0.00110979
0.000796531
0.000581827
0.000360044
0.000725363
0.000535501
0.000462407
0.000432845
0.000494136
0.000401677
0.00057516
0.00038994
0.000177278
0.000228737
0.000318984
0.000383582
0.000485649
0.000737663
0.000225586
7.841e-05
0.000198027
0.000197355
0.000329048
0.000398058
0.000276742
0.000217003
0.000188144
0.000165208
0.000103929
0.000229196
0.000183145
0.000146059
0.000167336
0.000247344
0.00015858
0.00218986
0.000486526
0.00224159
0.00048881
0.000531648
0.00227626
0.000364017
0.000327525
0.000514494
0.0023118
9.84299e-05
0.000315772
0.000279479
0.000291251
0.00242666
0.000500934
0.000397984
0.000365691
0.000262272
0.000546099
0.00243946
0.000613226
0.000498482
0.000344628
0.000262925
0.000398607
0.000626632
0.0023365
0.000386028
0.000431546
0.000579025
0.000515654
0.000646836
0.00049677
0.000321717
0.00238341
0.000673071
0.000689789
0.000408682
0.000528405
0.000582766
0.000534715
0.000543276
0.000610584
0.00239552
0.000434239
0.00102075
0.000549038
0.000465922
0.000402185
0.000404602
0.000344131
0.000611348
0.000815161
0.00255612
0.000885526
0.0015992
0.00154824
0.00124146
0.0013334
0.000568205
0.000677817
0.00057802
0.000797961
0.000872134
0.00254051
0.000591585
0.000929843
0.00118977
0.00109574
0.000673665
0.000231905
0.000510669
0.00105452
0.00229738
0.00137486
0.00103502
0.00230232
0.000284632
0.000218337
0.000867796
0.000172193
0.000859644
0.000956732
0.000619356
0.00114627
0.00103584
0.00145211
0.00137629
0.00235831
0.00321179
0.000491792
0.000586687
0.000298971
0.00065109
0.000438885
0.000536094
0.000620924
0.000432269
0.000147956
0.000528926
0.000821978
0.00107309
0.00228866
0.00282365
0.000776323
0.000678574
0.000608346
0.00051197
0.000349809
0.000485377
0.00067894
0.000919773
0.000942893
0.000916448
0.00126425
0.000853176
0.00136451
0.000539744
0.00209204
0.000548911
0.000602114
0.000600102
0.000901448
0.000437213
0.000459753
0.000522713
0.000411348
0.000846087
0.000770332
0.000615342
0.000773168
0.000807239
0.00129004
0.000900188
0.000983333
0.000220628
0.000194169
0.000351459
0.000699984
0.000462079
0.000630679
0.000570948
0.000507556
0.000338156
0.000476194
0.000423819
0.000281435
0.00018361
0.000294778
0.000377032
0.000473642
0.00110222
0.000118566
0.000121282
0.000207582
0.000181464
0.000206578
0.00039341
0.000373166
0.00026895
0.000239069
0.000191071
8.96624e-05
7.28693e-05
0.000212217
0.000122014
0.00017747
0.000160929
0.000428303
0.000203533
0.00225905
0.000189054
0.00222362
0.000576942
0.000496532
0.00222682
0.00048987
0.000400579
0.00058836
0.002311
0.000248107
0.000264837
0.000264806
0.000540087
0.00235445
0.00039189
0.000270262
0.000267785
0.000259567
0.000318813
0.0023528
0.000296827
0.000550349
0.000335858
0.000363247
0.000280401
0.000597198
0.00253365
0.000556916
0.000475328
0.000321039
0.000427571
0.000565761
0.000672557
0.000637342
0.00248478
0.000588505
0.000584568
0.000630286
0.000291326
0.000380721
0.000507916
0.000648495
0.000978015
0.00242523
0.000545479
0.00042915
0.000368634
0.000443577
0.000650702
0.000545079
0.000507831
0.000650158
0.000595821
0.0025342
0.000938874
0.00108117
0.000213715
0.000745555
0.000773715
0.000571217
0.000673868
0.00088834
0.000689018
0.000798761
0.0024211
0.00036661
0.00134215
0.00048899
0.00123662
0.000641374
0.000217698
0.000662205
0.000718172
0.00118532
0.000947641
0.000955866
0.00237991
0.000381234
0.000886381
0.00023928
0.000761928
0.000643622
0.000368943
0.000697604
0.000581153
0.00129852
0.00102222
0.00115941
0.000833081
0.00229281
0.000441179
0.000357384
0.000443007
0.000420258
0.000406884
0.000307839
0.000662722
0.00101471
0.000882878
0.000991664
0.000965317
0.00155622
0.00238229
0.00286651
0.00104553
0.000671534
0.000548599
0.000472306
0.000198853
0.000268268
0.000415935
0.000489827
0.000467885
0.000274129
0.000708472
0.000894012
0.0017023
0.00205622
0.00268569
0.00096607
0.00138416
0.000530495
0.000487415
0.000528731
0.000248801
0.000636007
0.000812625
0.000730646
0.000827145
0.000839706
0.00114258
0.000755051
0.000840119
0.000652332
0.0019786
0.000561105
0.000531762
0.000757428
0.000848444
0.000701488
0.000492484
0.000473621
0.000452456
0.000538957
0.00090181
0.000691268
0.000734244
0.000771322
0.000706415
0.00139571
0.000785813
0.00108707
0.000234551
0.000105276
0.00016378
0.000351306
0.000659759
0.000413685
0.000564104
0.000473522
0.000395751
0.000360891
0.000478634
0.000381296
0.000298272
0.000224672
0.0002251
0.000393121
0.000415759
0.000945399
0.000147661
0.000411972
6.6655e-05
0.000239445
0.000186961
0.00022819
0.000417867
0.000246631
0.000202045
0.000216433
0.000197079
0.000113656
4.4605e-05
0.000171344
0.00017625
0.000184497
0.000184516
0.000485016
0.000413006
0.00222327
0.000536801
0.00219634
0.000472403
0.000472116
0.00220882
0.000500731
0.000434269
0.000570331
0.00228336
0.000349604
0.000319707
0.000335574
0.00042269
0.00234527
0.000243342
0.000147241
0.000301618
0.000216598
0.000451018
0.0023134
0.000316832
0.000562412
0.000314352
0.00022594
0.000278981
0.00047828
0.00248961
0.000321654
0.000429809
0.000371374
0.000330127
0.000342918
0.000294691
0.000671232
0.00254555
0.000218338
0.000428171
0.00048444
0.000488174
0.000327397
0.000566987
0.000538853
0.000537564
0.00242111
0.000361131
0.000332728
0.000604289
0.000365751
0.000338384
0.000421534
0.000500219
0.000604943
0.0007616
0.00251638
0.000832568
0.000570055
0.000550588
0.000420142
0.000723639
0.000366044
0.000694699
0.000568914
0.000570178
0.000851652
0.00260503
0.000386811
0.00055793
0.00074755
0.000727902
0.000560778
0.000585666
0.000666552
0.000599185
0.000631848
0.000818938
0.00103787
0.00233754
0.00117703
0.00212232
0.000705722
0.000459028
0.000440086
0.000362405
0.000618153
0.000691245
0.00109417
0.000749613
0.000715223
0.000672893
0.00252938
0.000530928
0.000713526
0.000179512
0.000982659
0.000467883
0.000505536
0.00055356
0.000464485
0.000961604
0.000756996
0.001329
0.00135857
0.000547953
0.00199749
0.000370463
0.000326654
0.000139109
0.000267568
0.000471928
0.000265866
0.000381189
0.00069069
0.00117581
0.00107198
0.000805683
0.00100717
0.00101129
0.00102851
0.00233567
0.000783095
0.000649119
0.000443658
0.000245391
0.00041312
0.000585989
0.000522276
0.00036809
0.000533301
0.000384478
0.000370579
0.000869117
0.000896796
0.000935894
0.00180037
0.00279247
0.000967966
0.000891756
0.000638253
0.000510631
0.000535337
0.000476915
0.000504203
0.000320029
0.000745661
0.000724432
0.000901626
0.000822704
0.00106189
0.00067766
0.000972096
0.000675291
0.00237226
0.000335101
0.000604759
0.000471072
0.000778528
0.00103533
0.000427399
0.000530117
0.000388867
0.000472664
0.000592205
0.000916895
0.000858967
0.000760347
0.000741749
0.000678543
0.00144225
0.000646284
0.00102234
0.000146705
0.000343225
0.000209604
0.000197752
0.000374881
0.000631243
0.00041925
0.000329094
0.00046867
0.000455179
0.000336954
0.0004073
0.000346363
0.000298692
0.000273028
0.000233686
0.00040276
0.000665156
0.000880572
8.19206e-05
0.000206695
0.000187598
7.11076e-05
9.90628e-05
0.000190385
0.000214227
0.000419966
9.9975e-05
0.000175709
0.000236822
0.00020393
0.000124168
7.27079e-05
0.000199871
0.000236351
0.000203534
0.000188171
0.00038673
0.000843144
0.00224035
0.000383507
0.00231054
0.000483683
0.00040005
0.00229019
0.000219294
0.000467476
0.000345276
0.00226376
0.00022823
0.000367232
0.000387235
0.000479208
0.00224867
0.000372568
0.000313648
0.000285206
0.000355674
0.000508839
0.00235149
0.000394266
0.00060094
0.000338387
0.000369607
0.0003426
0.000490297
0.00232434
0.000314404
0.000202545
0.000161072
0.000232288
0.000383913
0.00041788
0.000307988
0.00248865
0.00042361
0.000394744
0.000526006
0.000251118
0.000252515
0.000499876
0.00036657
0.000582607
0.00251151
0.000507768
0.00043333
0.000557991
0.000364769
0.000534606
0.000550797
0.000155217
0.000544688
0.000990567
0.00253027
0.000451814
0.000467554
0.000135379
0.000280851
0.000522775
0.000543379
0.000542529
0.000599995
0.000673536
0.000633085
0.00255796
0.0012161
0.000602973
0.000539955
0.000658089
0.000581298
0.000489237
0.000447452
0.000546339
0.000747059
0.000567291
0.000582296
0.00234956
0.00169032
0.000762857
0.00113931
0.0010464
0.000724728
0.000588796
0.000740331
0.0005361
0.000481942
0.000404839
0.00101453
0.000945865
0.00235566
0.00112687
0.000207324
0.000529316
0.000529196
0.000301719
0.000331486
0.000388769
0.000683626
0.000817442
0.000728214
0.000910911
0.000813552
0.000952566
0.00252507
0.000265353
0.000358316
0.000787328
0.000558505
0.000596478
0.000801221
0.00111826
0.000650045
0.00082052
0.000859738
0.00129877
0.000519243
0.00096257
0.000594143
0.00215948
0.00049077
0.000255346
0.000282159
0.000616555
0.000286402
0.000303713
9.95706e-05
0.000859342
0.00108798
0.00110519
0.000930064
0.000381674
0.00104895
0.00234422
0.00163112
0.00233124
0.00125469
0.000711147
0.000903123
0.000542661
0.000982664
0.000485182
0.000378995
0.000301024
0.000469323
0.000483469
0.00107711
0.000798676
0.000736099
0.000965297
0.00149024
0.00187246
0.00267864
0.000848071
0.00108492
0.00106105
0.00100042
0.000767306
0.000474664
0.000450893
0.000424165
0.000254152
0.000655179
0.0008897
0.00120384
0.000906551
0.000887445
0.000725708
0.00078142
0.000721844
0.00221251
0.00013809
0.000503674
0.000674504
0.000516958
0.000642642
0.000644924
0.0005011
0.000577571
0.000429759
0.000483917
0.000494678
0.00100634
0.000836075
0.000625712
0.00069223
0.000748213
0.00130642
0.000553464
0.000994007
0.000157517
0.000129758
0.000307442
0.000210122
0.000196659
0.00038978
0.000603648
0.000423146
0.000276827
0.000464497
0.000422191
0.000300441
0.000396655
0.000326538
0.000325395
0.000279998
0.000240567
0.000386713
0.000828892
0.000921318
8.88759e-05
6.65471e-05
7.72194e-05
7.20824e-05
7.70116e-05
0.000103883
0.000189512
0.000195557
0.000487098
0.000110116
0.000179587
0.000222681
0.000210608
0.000133704
6.00707e-05
0.00024302
0.000227349
0.00024083
0.000187059
0.000348895
0.000558907
0.00203455
0.000465811
0.00227228
0.000204939
0.000327741
0.00224906
0.000203447
0.000655929
0.000487265
0.00227756
0.000702897
0.000289442
0.000305556
0.000337778
0.00225638
0.000485337
0.000117827
0.000365232
0.000290229
0.000378195
0.00226277
0.000399427
0.00023317
0.000406382
0.000396432
0.000421762
0.000509918
0.00227728
0.000435698
0.000367925
0.000377356
0.000236301
0.00038512
0.000434743
0.000387995
0.00228811
0.000513427
0.000288974
0.000288187
0.000249847
0.000373879
0.000415508
0.000471628
0.000562235
0.00250057
0.000307343
0.000317486
0.000360354
0.000331502
0.000438219
0.000288102
0.000489135
0.000518508
0.000415296
0.00239688
0.000315551
0.000657075
0.000328647
0.000407273
0.000653641
0.000383008
0.000438451
0.000381273
0.000717908
0.000693937
0.00262749
0.00059667
0.000334772
0.000350572
0.000399972
0.000402358
0.000447576
0.000554775
0.000653896
0.000321697
0.000501772
0.00076525
0.0025237
0.00109276
0.000376825
0.00032249
0.000712024
0.000605525
0.00054671
0.000527975
0.000511762
0.000518463
0.000544965
0.000599341
0.000692614
0.00248421
0.000608907
0.000306685
0.00106008
0.000724638
0.000317944
0.000764967
0.000639551
0.000500349
0.000720113
0.000717235
0.000723363
0.000597946
0.00084629
0.00240104
0.00096235
0.000388303
0.00166
0.000795631
0.000649181
0.00067284
0.000726072
0.00100008
0.000772628
0.000700181
0.000607217
0.000536901
0.000787581
0.000834183
0.00252318
0.000382236
0.0004762
0.000621171
4.34415e-05
0.000579431
0.00108626
0.00031033
0.000830405
0.00103457
0.000939418
0.00119953
0.000933857
0.000679276
0.000812463
0.000647663
0.00225716
0.000433504
0.000137409
0.000451217
0.000350622
0.000522219
0.000218014
0.000199799
0.000626924
0.000676869
0.000686647
0.00102115
0.00096508
0.000760261
0.00158658
0.00129086
0.00144987
0.00205125
0.00126994
0.000802456
0.000940077
0.000827353
0.000239962
0.000460507
0.000214861
0.000268819
0.000426742
0.000558736
0.00123839
0.000681567
0.000553666
0.000494112
0.000959563
0.00202187
0.00236751
0.00266463
0.00038798
0.000881984
0.000802309
0.00092778
0.000638467
0.00062561
0.000372862
0.000341314
0.000259127
0.000390424
0.000831312
0.00071962
0.00103295
0.000823869
0.00068798
0.000722475
0.000811361
0.0010081
0.00238414
0.000575474
0.000254637
0.000488828
0.000669532
0.000467074
0.000467106
0.000528899
0.000491258
0.000506279
0.000473364
0.000501081
0.000461815
0.000713592
0.000437213
0.000610114
0.000744466
0.000823106
0.00130359
0.000560929
0.0010705
0.000340161
0.000145296
0.000145997
0.000269845
0.000520525
0.000583178
0.000383839
0.000618104
0.00063473
0.000375268
0.000444028
0.000423262
0.000307275
0.000363452
0.000303879
0.000329815
0.000337948
0.000246691
0.000324795
0.000625179
0.000605983
0.000153244
0.000172683
4.90195e-05
0.000115271
4.02537e-05
9.20175e-05
0.000208866
0.000190457
0.000194423
0.000368516
0.000156975
0.000151105
0.000225495
0.000218077
0.000147592
6.68175e-05
0.000258165
0.000143594
0.000242559
0.000186233
0.000339454
0.000243905
0.00204605
0.000343638
0.00205449
0.000413472
0.000548103
0.00218363
0.000127658
0.000375937
0.000258665
0.002228
0.000300142
0.000204445
0.000344215
0.000358322
0.00226278
0.000286624
0.000448199
0.000325518
0.000263209
0.000396509
0.00220893
0.000378545
0.000473742
0.000329001
0.000291028
0.000375013
0.000383577
0.00223066
0.000464594
0.000383155
0.000626723
0.000353884
0.000437376
0.000441676
0.000431435
0.00233447
0.000366122
0.000307355
0.000455127
0.000177831
0.000296605
0.000382992
0.000417007
0.000426869
0.00232793
0.000280037
0.00044911
0.000326302
0.00023894
0.000428355
0.000292049
0.000294993
0.000506547
0.000656049
0.00250352
0.00033345
0.00064795
0.000250635
0.000422842
0.000630925
0.000321193
0.000523584
0.000319489
0.000617637
0.000508086
0.00245478
0.000181084
0.000391704
0.000219622
0.000310429
0.000255417
0.000377865
0.000443632
0.000459395
0.000580529
0.000727047
0.000609385
0.0025321
0.000683772
0.000381298
0.000275563
0.000599714
0.000661782
0.000527563
0.000491477
0.000482861
0.000496417
0.000290024
0.000858335
0.000642473
0.00249215
0.000519219
0.00166
0.000695403
0.000686525
0.000532584
0.000518508
0.000456483
0.000579985
0.000552427
0.000549904
0.000648768
0.000518345
0.000988811
0.00239066
0.00111632
0.00111734
0.000302918
0.000226784
0.000431072
0.000680504
0.000671125
0.00047446
0.000547398
0.000595935
0.000697675
0.000599043
0.000782288
0.000823789
0.00249333
0.000423153
0.00043728
0.000827662
0.000294445
0.000938179
0.000753875
0.000855762
0.000966247
0.000953972
0.000671381
0.000956218
0.000755365
0.000598681
0.000556948
0.00113065
0.00257068
0.000671527
0.00055751
0.000357341
0.000246444
0.000761587
0.000516751
0.000267728
0.000862264
0.000458116
0.000795383
0.000866233
0.00118563
0.000796092
0.000952063
0.00110145
0.000769666
0.00236284
0.000803237
0.000762069
0.000411626
0.000362198
0.000537986
0.000138974
0.000382878
0.000422579
0.000560311
0.000839193
0.000692954
0.000624883
0.000739033
0.00078828
0.00186999
0.00132096
0.00101504
0.00226258
0.00141788
0.00111148
0.000723002
0.000963465
0.000475382
0.000295312
0.000480347
0.000327101
0.000563053
0.000367046
0.00049593
0.000554989
0.00061301
0.000287004
0.000578044
0.000837347
0.00141411
0.00317229
0.00206293
0.000950693
0.000694864
0.000926951
0.000877013
0.000656468
0.00112868
0.000440094
0.000529141
0.000273363
0.000270804
0.00038996
0.00059742
0.00113223
0.00109755
0.000750925
0.000648313
0.000661705
0.000917266
0.000491087
0.00225224
0.000275311
0.000476023
0.000223297
0.00061294
0.000889418
0.000346571
0.000425916
0.000450171
0.00040879
0.000495473
0.000485594
0.000360837
0.000593901
0.000556692
0.000458756
0.000589242
0.000857583
0.000861626
0.00125943
0.000778937
0.00111663
0.000377364
0.000217669
0.000224618
0.00013197
0.000473926
0.000574446
0.000564016
0.000361464
0.000673265
0.0008647
0.000377285
0.000417276
0.000431297
0.000323786
0.000364999
0.00026961
0.000318824
0.000437371
0.000286009
0.000270815
0.000632224
0.00046892
0.000236777
0.00028002
0.000192043
9.86578e-05
0.000117564
0.000116356
8.67962e-05
0.000133379
0.000210888
0.000177943
0.000195824
0.000137313
0.000178023
0.000300056
0.00021638
0.000221839
0.000163688
6.62952e-05
0.000196234
0.000189391
0.00023701
0.000174841
0.000229184
0.000248261
0.0019555
0.000289694
0.00205304
0.000270408
0.000272978
0.00208174
0.000777767
0.000370238
0.000342591
0.00209271
0.00037353
0.000162974
0.000448987
0.000282771
0.00223224
0.000422675
0.000230243
0.000433861
0.000263934
0.000371092
0.0022803
0.000371868
0.000459308
0.000777403
0.000290183
0.00028547
0.000425932
0.00220558
0.000378256
0.00036426
0.000305804
0.000373704
0.000473527
0.000332153
0.000440163
0.00226766
0.000417912
0.00046364
0.000524575
0.000369059
0.000307198
0.000302553
0.000457659
0.000391789
0.0023887
0.000216859
0.000396161
0.000437152
0.000330306
0.000289893
0.000409029
0.000366934
0.000498401
0.000492337
0.00225873
0.000298616
0.000239157
0.000426138
0.000355592
0.00048362
0.000444553
0.00025807
0.000305198
0.000608628
0.000602222
0.0024224
0.000202024
0.000281647
0.000534889
0.000234229
0.000281527
0.000421931
0.000286236
0.000313863
0.000450742
0.000437472
0.000451117
0.00243453
0.000712608
0.000374585
0.000270289
0.000332741
0.000340834
0.000449368
0.000375105
0.000373462
0.000524302
0.000482943
0.000594155
0.000681535
0.00246214
0.00104202
0.000649047
0.000514883
0.000463875
0.000659749
0.000685778
0.000412504
0.000457339
0.00058869
0.000528539
0.000779856
0.000804157
0.00079648
0.00266082
0.000376896
0.000410745
0.000445515
0.000405057
0.00045789
0.000429518
0.000526768
0.00055909
0.000529547
0.000499564
0.000522097
0.000498913
0.00066971
0.000761991
0.00247707
0.000727935
0.000584308
0.00086959
0.00125741
0.000982687
0.000673481
0.00056053
0.000655923
0.000845138
0.000608697
0.00064593
0.000762341
0.000606532
0.000720956
0.000564131
0.002361
0.000602687
0.000597082
0.000755005
0.0008977
0.000770995
0.000625992
0.000933979
0.00113365
0.0005088
0.000574155
0.000888905
0.00106763
0.000827782
0.000793243
0.000754843
0.000958896
0.00249899
0.000743329
0.000371939
0.000552119
0.000358141
0.000284772
0.000463002
0.000239195
0.000576633
0.00112089
0.000642012
0.000572661
0.00112208
0.000713368
0.000949918
0.000909853
0.00104971
0.000865069
0.00238345
0.0011749
0.000527184
0.000398641
0.00064178
0.000195803
0.0003152
0.000367366
0.000337808
0.000671349
0.000700576
0.000539496
0.00128854
0.000711551
0.000635082
0.000526224
0.00133459
0.00163533
0.00115322
0.00224493
0.000746561
0.00152095
0.000841161
0.000669499
0.00055577
0.00030393
0.000543248
0.000376195
0.000457277
0.000365322
0.000472327
0.000701693
0.00176962
0.000341471
0.000166034
0.000534219
0.000823297
0.00141308