/*--------------------------------*- C++ -*----------------------------------*\
  =========                 |
  \\      /  F ield         | OpenFOAM: The Open Source CFD Toolbox
   \\    /   O peration     | Website:  https://openfoam.org
    \\  /    A nd           | Version:  7
     \\/     M anipulation  |
\*---------------------------------------------------------------------------*/
FoamFile
{
    version     2.0;
    format      ascii;
    class       volScalarField;
    location    "5";
    object      p;
}
// * * * * * * * * * * * * * * * * * * * * * * * * * * * * * * * * * * * * * //

dimensions      [0 2 -2 0 0 0 0];

internalField   nonuniform List<scalar> 
18870
(
-70.9104
-69.9116
-70.7898
-69.963
-68.2971
-69.8668
-68.4781
-70.6926
-69.9138
-68.6484
-66.4279
-68.2452
-67.2063
-69.8082
-68.389
-67.8983
-70.6382
-69.8369
-68.6123
-67.6437
-65.3829
-66.3046
-65.4378
-68.1173
-67.1267
-66.7186
-69.7355
-68.2946
-67.8121
-66.9854
-70.6008
-69.7886
-68.5623
-67.6563
-67.1241
-63.8488
-65.2742
-64.4748
-66.1986
-65.3879
-64.3955
-68.0233
-67.0803
-66.7354
-66.415
-69.667
-68.3
-67.7292
-66.8787
-66.5124
-70.5787
-69.7809
-68.5149
-67.6856
-67.093
-66.7045
-62.904
-63.8259
-63.2907
-65.1245
-64.4609
-63.8491
-66.1006
-65.3548
-64.3949
-64.6485
-67.9288
-66.9846
-66.7717
-66.4946
-65.6157
-69.5962
-68.2482
-67.6742
-66.7853
-66.4523
-65.5123
-70.5459
-69.7586
-68.5
-67.7051
-67.0844
-66.6893
-65.9272
-61.8796
-62.757
-62.444
-63.5704
-63.2479
-63.0768
-64.9004
-64.3657
-63.8527
-63.4013
-65.9752
-65.3151
-64.4385
-64.7036
-64.289
-67.8195
-66.91
-66.7764
-66.5257
-65.5634
-64.8808
-69.5339
-68.193
-67.5855
-66.7107
-66.4123
-65.5214
-65.3333
-70.5087
-69.7209
-68.5082
-67.7227
-67.0774
-66.6941
-65.9195
-65.5421
-61.1468
-61.8346
-61.6697
-62.6746
-62.3741
-62.1579
-63.4339
-63.1762
-63.0854
-62.6297
-64.7725
-64.3129
-63.8249
-63.4241
-63.3225
-65.8832
-65.3173
-64.5409
-64.6515
-64.342
-63.9042
-67.7263
-66.8813
-66.7939
-66.3634
-65.5951
-64.8118
-64.6682
-69.4637
-68.1476
-67.4893
-66.6234
-66.3926
-65.5321
-65.3375
-65.1866
-70.478
-69.6452
-68.5163
-67.7533
-67.0686
-66.6906
-65.92
-65.5892
-65.5465
-60.5908
-61.0148
-60.9979
-61.8474
-61.6752
-61.4363
-62.8203
-62.3093
-62.1261
-61.9223
-63.5324
-63.1641
-63.1064
-62.6394
-62.5394
-64.6837
-64.3767
-63.7299
-63.4636
-63.3388
-63.1979
-65.758
-65.3034
-64.6219
-64.6826
-64.3215
-63.8116
-63.8284
-67.6499
-66.847
-66.7372
-66.2858
-65.5426
-64.7551
-64.6537
-64.6993
-69.408
-68.1261
-67.4082
-66.5789
-66.384
-65.594
-65.344
-65.2054
-65.2467
-70.4513
-69.5759
-68.5195
-67.7838
-67.0708
-66.6835
-65.93
-65.6211
-65.5905
-65.5756
-60.0249
-60.5133
-60.4383
-61.0037
-60.8982
-60.8028
-61.8475
-61.6531
-61.4821
-61.3919
-62.7566
-62.4013
-62.0904
-61.9542
-61.8435
-63.4621
-63.2408
-63.0886
-62.6446
-62.598
-62.5956
-64.5784
-64.4114
-63.6923
-63.5592
-63.3829
-63.1035
-63.2613
-65.6045
-65.2947
-64.6778
-64.7374
-64.2023
-63.7956
-63.9116
-64.0421
-67.571
-66.8042
-66.62
-66.3182
-65.4902
-64.7146
-64.656
-64.7634
-64.6554
-69.3447
-68.1146
-67.302
-66.5332
-66.375
-65.6609
-65.3496
-65.2281
-65.3005
-65.3372
-70.4114
-69.5354
-68.5205
-67.8147
-67.0648
-66.6382
-65.9368
-65.6767
-65.6202
-65.6164
-65.8086
-59.6206
-60.1065
-59.9754
-60.4662
-60.3529
-60.3433
-61.0329
-60.9182
-60.8032
-60.8922
-61.7809
-61.5788
-61.4344
-61.224
-61.2917
-62.689
-62.3799
-62.2416
-61.9552
-61.9548
-62.1285
-63.3432
-63.2627
-63.0702
-62.6735
-62.6573
-62.6578
-62.6932
-64.618
-64.4893
-63.7189
-63.5695
-63.36
-63.0273
-63.3038
-63.5448
-65.4945
-65.2857
-64.7483
-64.6661
-64.1629
-63.8242
-63.9853
-64.1521
-64.3657
-67.4564
-66.7306
-66.5082
-66.2876
-65.4713
-64.6762
-64.6799
-64.8045
-64.7253
-64.8382
-69.2599
-68.1012
-67.2109
-66.4839
-66.3736
-65.6619
-65.3599
-65.2596
-65.3621
-65.4122
-65.6237
-70.3706
-69.5055
-68.5326
-67.8546
-67.057
-66.6099
-65.9485
-65.7146
-65.6519
-65.6603
-65.8378
-66.0311
-59.3665
-59.5373
-59.6304
-60.0169
-59.9044
-59.8833
-60.4059
-60.4503
-60.3097
-60.3047
-60.9715
-60.8957
-60.8376
-60.9556
-60.8031
-61.7895
-61.499
-61.4075
-61.4305
-61.2823
-61.4046
-62.7736
-62.4295
-62.3039
-62.0544
-62.0106
-62.1234
-62.0849
-63.2757
-63.1871
-63.0611
-62.7581
-62.765
-62.7097
-62.7109
-62.952
-64.7054
-64.6332
-63.807
-63.5869
-63.419
-62.9698
-63.365
-63.6891
-64.2083
-65.4353
-65.3396
-64.8185
-64.5951
-64.1287
-63.7607
-64.0784
-64.2976
-64.5155
-64.9227
-67.3646
-66.6702
-66.3932
-66.2497
-65.4472
-64.6602
-64.719
-64.8453
-64.7936
-64.9495
-65.5455
-69.2011
-68.081
-67.1359
-66.4409
-66.3715
-65.7141
-65.3713
-65.3012
-65.4286
-65.4755
-65.7108
-66.1486
-70.3515
-69.4925
-68.5555
-67.8812
-67.0589
-66.5773
-65.9489
-65.7502
-65.6842
-65.6935
-65.8659
-66.081
-66.9306
-59.1319
-59.2624
-59.3833
-59.4898
-59.6677
-59.5944
-59.9775
-59.8379
-59.8479
-59.7597
-60.3766
-60.3237
-60.3062
-60.3194
-60.2757
-60.9629
-60.902
-60.824
-60.9368
-60.7227
-60.7969
-61.7948
-61.414
-61.4487
-61.5685
-61.3895
-61.5053
-61.3381
-62.7969
-62.5702
-62.3667
-62.0484
-62.1444
-62.1986
-62.1217
-62.2579
-63.2005
-63.2506
-63.0422
-62.8199
-62.8061
-62.7641
-62.941
-63.194
-63.7425
-64.7699
-64.7529
-63.9264
-63.6498
-63.2777
-63.1878
-63.5121
-63.9355
-64.4954
-65.3784
-65.4289
-65.4805
-64.9465
-64.5458
-64.1266
-63.8351
-64.1525
-64.408
-64.6605
-65.0947
-65.7706
-67.2541
-66.6725
-66.3381
-66.2292
-65.4597
-64.665
-64.773
-64.9039
-64.88
-65.0757
-65.6756
-66.5438
-69.1461
-68.0338
-67.0848
-66.4222
-66.3775
-65.7626
-65.3764
-65.3494
-65.4883
-65.5495
-65.8026
-66.2441
-67.7188
-70.3355
-69.4906
-68.565
-67.8653
-67.0609
-66.5492
-65.9553
-65.8002
-65.7191
-65.7169
-65.8962
-66.1175
-66.9664
-67.7496
-58.8801
-59.0692
-59.114
-59.2365
-59.2797
-59.2957
-59.5158
-59.438
-59.5331
-59.4805
-59.8934
-59.8407
-59.7671
-59.8145
-59.7605
-60.3576
-60.2179
-60.2181
-60.2027
-60.2638
-60.3176
-60.9338
-60.9486
-60.8839
-60.908
-60.7848
-60.8089
-60.7684
-61.7446
-61.6087
-61.5136
-61.5086
-61.4602
-61.4859
-61.4291
-61.589
-62.8346
-62.4559
-62.4118
-62.0883
-62.302
-62.1404
-62.2131
-62.4613
-63.0242
-63.1987
-63.433
-63.0218
-62.905
-62.7963
-62.9103
-63.1447
-63.3507
-64.1542
-65.202
-64.8946
-64.6618
-64.0993
-63.6992
-63.359
-63.346
-63.6989
-64.2301
-64.7767
-65.6119
-65.6293
-65.535
-65.574
-64.9914
-64.4885
-64.1362
-63.9073
-64.2192
-64.5204
-64.7992
-65.2459
-65.978
-67.2017
-67.1946
-66.637
-66.2923
-66.2213
-65.4778
-64.6802
-64.8556
-64.9655
-64.9902
-65.2139
-65.8127
-66.7198
-68.9032
-69.1042
-67.991
-67.0291
-66.4253
-66.3837
-65.7707
-65.3868
-65.4098
-65.5435
-65.6281
-65.8921
-66.3369
-67.8188
-69.2913
-70.3316
-69.4917
-68.584
-67.9143
-67.0705
-66.5514
-65.961
-65.8679
-65.766
-65.7489
-65.9284
-66.1469
-66.9995
-67.7425
-67.6463
-58.7325
-58.8436
-58.8521
-58.9751
-59.0417
-59.054
-59.1903
-59.2404
-59.2532
-59.1876
-59.4446
-59.4072
-59.4404
-59.3816
-59.396
-59.9155
-59.8622
-59.7656
-59.833
-59.7743
-59.7379
-60.3122
-60.2173
-60.2094
-60.2391
-60.1911
-60.3117
-60.342
-60.9581
-60.8579
-60.8726
-60.7323
-60.8901
-60.823
-60.814
-61.0141
-61.6992
-61.6724
-61.5187
-61.6172
-61.5071
-61.5344
-61.5912
-61.7294
-61.9543
-62.957
-62.4827
-62.467
-62.1316
-62.1658
-62.1704
-62.3349
-62.7561
-63.3649
-64.4209
-63.3501
-63.4399
-63.0358
-62.9729
-62.8492
-62.8959
-63.1279
-63.6339
-64.6302
-65.5775
-65.4406
-64.9797
-64.8782
-64.2771
-63.8035
-63.5371
-63.3851
-63.9644
-64.5374
-64.9997
-65.7568
-65.6987
-66.5812
-65.7461
-65.7748
-65.0769
-64.4565
-64.184
-64.0371
-64.28
-64.6042
-64.9168
-65.3877
-66.186
-67.5204
-69.5065
-67.1761
-66.6908
-66.3086
-66.2176
-65.4942
-64.7299
-64.9308
-65.0402
-65.112
-65.3532
-65.9712
-66.9568
-68.8722
-70.8233
-69.0717
-67.9544
-66.9689
-66.4238
-66.3911
-65.7932
-65.414
-65.4853
-65.5961
-65.7222
-65.9636
-66.4344
-67.9269
-69.2762
-69.3931
-70.3298
-69.4952
-68.6185
-67.967
-67.0882
-66.561
-65.9993
-65.923
-65.8184
-65.7973
-65.9634
-66.1731
-67.0277
-67.7328
-67.6312
-66.961
-58.5902
-58.7246
-58.7033
-58.8466
-58.845
-58.9203
-58.9231
-59.0315
-59.0018
-58.9129
-59.1892
-59.1638
-59.2179
-59.1271
-59.1117
-59.4532
-59.4611
-59.4102
-59.4129
-59.3579
-59.3456
-59.864
-59.8445
-59.7523
-59.7747
-59.7198
-59.8024
-59.6492
-60.2696
-60.2975
-60.2585
-60.2174
-60.2458
-60.2806
-60.2953
-60.3315
-60.9482
-61.0128
-60.9298
-60.7644
-60.6945
-60.9313
-60.9063
-60.998
-61.2466
-61.8612
-61.4323
-61.5521
-61.6388
-61.6808
-61.5734
-61.6952
-61.9682
-62.2378
-62.765
-62.8139
-62.9508
-62.5097
-62.2457
-62.2176
-62.3622
-62.5291
-63.1127
-63.7516
-64.8419
-64.7266
-63.6122
-63.3491
-63.1363
-62.9979
-62.9091
-62.9855
-63.3146
-64.0535
-64.9566
-65.7964
-65.499
-65.9684
-65.073
-65.0204
-64.4664
-63.874
-63.4837
-63.5412
-64.107
-64.8209
-65.1698
-65.8688
-65.8008
-66.7842
-67.974
-65.9577
-65.9051
-65.1908
-64.5689
-64.3074
-64.1804
-64.3618
-64.6976
-65.0472
-65.5508
-66.4057
-67.8712
-69.9436
-70.125
-67.1768
-66.7614
-66.3624
-66.207
-65.5002
-64.7976
-65.0126
-65.1163
-65.2438
-65.4875
-66.1437
-67.2505
-69.0797
-70.7095
-69.6087
-69.0199
-67.9003
-66.9105
-66.432
-66.4034
-65.8279
-65.4383
-65.5552
-65.6539
-65.8048
-66.0065
-66.5214
-68.0406
-69.2585
-69.2396
-67.7408
-70.3214
-69.5122
-68.6453
-68.0004
-67.109
-66.5361
-66.0415
-65.972
-65.8717
-65.8567
-65.9995
-66.1941
-67.0488
-67.7237
-67.6105
-66.9279
-66.0907
-58.5658
-58.5677
-58.6135
-58.6891
-58.7032
-58.7596
-58.8232
-58.8012
-58.8846
-58.7662
-58.9602
-58.9239
-58.9809
-58.9399
-58.8694
-59.0595
-59.0806
-59.1826
-59.1084
-59.0231
-59.0247
-59.4917
-59.3727
-59.2834
-59.3987
-59.3734
-59.3304
-59.4227
-59.8175
-60.0058
-59.7652
-59.7432
-59.6718
-59.7633
-59.638
-59.7084
-60.3384
-60.1922
-60.26
-60.1512
-60.2298
-60.2578
-60.3775
-60.4229
-60.4279
-60.9656
-60.9792
-60.9416
-60.9159
-60.9942
-61.0048
-60.9989
-61.1151
-61.2373
-61.4122
-61.8345
-61.7112
-61.5852
-61.5869
-61.5961
-61.7672
-61.6972
-62.1375
-62.454
-63.0015
-63.1053
-62.8266
-63.0355
-62.5022
-62.2815
-62.2587
-62.3154
-62.7439
-63.4151
-64.2718
-65.0927
-64.8909
-64.934
-63.8075
-63.4348
-63.2008
-62.992
-62.9425
-63.1018
-63.6247
-64.4471
-65.2922
-65.9352
-65.5889
-66.0961
-66.7508
-65.0892
-65.1049
-64.5711
-63.9606
-63.5852
-63.729
-64.2368
-64.9383
-65.3049
-65.9266
-65.9029
-67.1144
-68.3157
-68.9635
-66.0943
-66.0175
-65.2819
-64.65
-64.4243
-64.2974
-64.4624
-64.8302
-65.1694
-65.6956
-66.5693
-68.1108
-70.1751
-70.0634
-68.9294
-67.3232
-66.8717
-66.4298
-66.2062
-65.5378
-64.9132
-65.1023
-65.2102
-65.3752
-65.6331
-66.3263
-67.5003
-69.3945
-70.6164
-69.5022
-67.7422
-68.987
-67.85
-66.8762
-66.4475
-66.4211
-65.8559
-65.4759
-65.6283
-65.72
-65.8607
-66.1
-66.598
-68.1042
-69.2157
-69.0654
-67.639
-66.5483
-70.3009
-69.5331
-68.6549
-68.0476
-67.1261
-66.4995
-66.0882
-66.0307
-65.9332
-65.9169
-66.0325
-66.2078
-67.0646
-67.7123
-67.5901
-66.8966
-66.0665
-65.3418
-58.5173
-58.479
-58.5381
-58.533
-58.5628
-58.5263
-58.6366
-58.6626
-58.6099
-58.641
-58.6614
-58.7529
-58.8261
-58.6927
-58.7025
-58.9202
-58.8417
-58.8382
-58.8593
-58.8074
-58.772
-59.0949
-59.1492
-59.1455
-58.9165
-58.9849
-58.9406
-59.0179
-59.3895
-59.448
-59.249
-59.4476
-59.3708
-59.3445
-59.421
-59.236
-59.8527
-59.8313
-59.8439
-59.793
-59.7818
-59.8257
-59.6172
-59.7295
-59.6384
-60.3288
-60.2067
-60.196
-60.2111
-60.248
-60.2205
-60.3675
-60.6095
-60.52
-60.3605
-60.9992
-60.9619
-60.9995
-60.9172
-61.0154
-61.0109
-61.0471
-61.3359
-61.3419
-61.4977
-61.7057
-61.6788
-61.9614
-61.6353
-61.5557
-61.6762
-61.8161
-61.8978
-62.29
-62.823
-63.1844
-63.329
-63.2409
-62.8346
-63.0258
-62.561
-62.3181
-62.3111
-62.4579
-62.9017
-63.7969
-64.586
-65.1942
-64.938
-64.9687
-65.5739
-63.9881
-63.6676
-63.1998
-63.0494
-62.9971
-63.2201
-63.8618
-64.7675
-65.4771
-65.9086
-65.6722
-66.2691
-66.8768
-67.2426
-65.4251
-65.2163
-64.7104
-64.0196
-63.7993
-63.8697
-64.4186
-65.0535
-65.405
-66.0006
-66.0469
-67.5461
-68.5873
-68.9626
-68.2002
-66.4939
-66.1277
-65.375
-64.8034
-64.5507
-64.3719
-64.5584
-64.9494
-65.2853
-65.8048
-66.6602
-68.2645
-70.0754
-70.0089
-68.835
-67.814
-67.2931
-67.0084
-66.5113
-66.2183
-65.6124
-65.0738
-65.1602
-65.3056
-65.4998
-65.8038
-66.417
-67.7228
-69.5798
-70.4876
-69.3874
-67.6161
-66.8407
-68.9661
-67.8249
-66.8734
-66.4591
-66.4429
-65.9004
-65.5275
-65.706
-65.7921
-65.9289
-66.1634
-66.6461
-68.1267
-69.1249
-68.8809
-67.5478
-66.4878
-65.7734
-70.2904
-69.5581
-68.6323
-68.0925
-67.1507
-66.5212
-66.1461
-66.102
-66.0016
-65.9714
-66.0562
-66.2184
-67.0784
-67.6996
-67.5575
-66.8646
-66.0419
-65.339
-64.9957
-58.5587
-58.4621
-58.4798
-58.4223
-58.4797
-58.3546
-58.461
-58.5387
-58.4889
-58.5416
-58.5657
-58.6348
-58.5614
-58.524
-58.5107
-58.6276
-58.7087
-58.7168
-58.6499
-58.6417
-58.5026
-58.8378
-58.8355
-58.9185
-58.8341
-58.7774
-58.6889
-58.6568
-59.0914
-58.9983
-59.0352
-59.0385
-58.9565
-59.0029
-58.8032
-58.865
-59.3933
-59.5084
-59.4068
-59.2832
-59.3379
-59.3295
-59.2759
-59.2312
-59.2624
-59.8653
-59.7562
-59.8334
-59.7681
-59.8142
-59.8199
-59.776
-60.0291
-59.677
-59.6626
-60.2922
-60.2284
-60.2926
-60.3591
-60.3614
-60.2929
-60.3718
-60.2911
-60.582
-60.4218
-60.5782
-60.9272
-61.0416
-60.9395
-60.9289
-61.0589
-61.2062
-61.0013
-61.3741
-61.5569
-61.679
-61.8186
-61.8242
-61.7537
-61.9353
-61.7361
-61.6621
-61.7563
-61.8307
-62.1405
-62.5308
-63.0575
-63.3223
-63.3565
-63.3575
-63.6544
-62.8926
-63.1217
-62.6661
-62.2436
-62.3513
-62.684
-63.113
-64.0419
-64.8087
-65.2218
-65.0226
-65.0701
-65.5858
-65.8042
-64.1578
-63.7009
-63.277
-63.1687
-63.0847
-63.3317
-64.0726
-64.9281
-65.5306
-65.8751
-65.7934
-66.4454
-67.0926
-67.1411
-67.0799
-65.5194
-65.3728
-64.8473
-64.0773
-63.9349
-63.9995
-64.5242
-65.0861
-65.4692
-66.1179
-66.2706
-67.9483
-68.7732
-68.9532
-68.2074
-67.3369
-66.6829
-66.2486
-65.4808
-64.95
-64.672
-64.4436
-64.6843
-65.0649
-65.3731
-65.935
-66.9447
-68.4619
-70.0636
-69.9639
-68.7135
-67.6916
-66.6806
-67.3955
-67.1493
-66.5924
-66.2423
-65.6637
-65.1703
-65.2522
-65.4054
-65.622
-65.9963
-66.5519
-67.9051
-69.7329
-70.3784
-69.2955
-67.4897
-66.7671
-66.003
-68.9732
-67.8249
-66.8621
-66.4804
-66.4708
-65.9635
-65.58
-65.7874
-65.8698
-65.9774
-66.1762
-66.653
-68.1729
-69.0205
-68.7698
-67.4667
-66.4113
-65.7383
-65.1539
-70.2924
-69.6036
-68.6041
-68.1185
-67.2107
-66.5902
-66.194
-66.1767
-66.0772
-66.0243
-66.0708
-66.2309
-67.0878
-67.6847
-67.5101
-66.8338
-66.0149
-65.3357
-64.9929
-64.6237
-58.4297
-58.4977
-58.4875
-58.3724
-58.3778
-58.3751
-58.3875
-58.4259
-58.4485
-58.3379
-58.4739
-58.4677
-58.4209
-58.4747
-58.3288
-58.5559
-58.5457
-58.564
-58.5218
-58.4796
-58.3359
-58.6108
-58.6654
-58.6716
-58.6115
-58.574
-58.5232
-58.4147
-58.8522
-58.8345
-58.8687
-58.7648
-58.6834
-58.6917
-58.5557
-58.5697
-59.1017
-59.1593
-58.956
-59.1097
-58.9947
-58.9682
-58.8174
-58.8638
-58.7981
-59.3425
-59.4322
-59.4764
-59.2977
-59.3239
-59.3562
-59.2469
-59.084
-59.1868
-59.2135
-59.8637
-59.7241
-59.799
-59.7795
-59.8276
-59.8013
-59.7887
-59.9627
-60.1087
-59.6302
-59.9202
-60.2309
-60.3972
-60.3197
-60.4158
-60.49
-60.2458
-60.4312
-60.3207
-60.3379
-60.537
-60.605
-60.4545
-61.0525
-60.8116
-61.0078
-60.9552
-61.1476
-61.1819
-61.7402
-61.5591
-61.7214
-61.7463
-61.9231
-61.9072
-62.2274
-61.9117
-61.8852
-61.7184
-61.7722
-61.8417
-61.979
-62.2382
-62.7496
-63.2377
-63.559
-63.4607
-63.4866
-63.8804
-64.3298
-62.9077
-63.079
-62.6669
-62.3864
-62.4183
-62.9034
-63.427
-64.3282
-64.8761
-65.1049
-65.0192
-65.1874
-65.6552
-65.8652
-66.0508
-64.1656
-63.8534
-63.3751
-63.2405
-63.2024
-63.4589
-64.2182
-65.0225
-65.4861
-65.8628
-65.8798
-66.6415
-67.2807
-67.1006
-67.0428
-66.7017
-65.8139
-65.4898
-64.8833
-64.1876
-64.0081
-64.0265
-64.5665
-65.1887
-65.5344
-66.2837
-66.4362
-68.2563
-68.9086
-68.9695
-68.2132
-67.1972
-66.4452
-66.5969
-66.4391
-65.5887
-65.0893
-64.7963
-64.5391
-64.772
-65.1871
-65.4563
-66.1712
-67.2495
-68.6598
-70.0673
-69.8636
-68.6019
-67.5983
-66.5697
-65.9236
-67.5909
-67.2752
-66.6749
-66.2812
-65.7431
-65.3026
-65.3502
-65.5137
-65.7457
-66.1718
-66.7393
-68.0467
-69.7932
-70.2541
-69.1976
-67.3697
-66.6778
-65.9196
-65.3199
-68.9642
-67.8207
-66.9243
-66.5269
-66.5214
-66.0098
-65.6553
-65.8618
-65.932
-66.0101
-66.2338
-66.6622
-68.2376
-68.9579
-68.7479
-67.3905
-66.3428
-65.7033
-65.099
-64.4872
-70.2901
-69.6517
-68.5867
-68.1374
-67.2307
-66.6471
-66.2465
-66.257
-66.1608
-66.0793
-66.0817
-66.2461
-67.09
-67.6672
-67.4611
-66.8046
-65.987
-65.3318
-64.9886
-64.6101
-64.6394
-58.5237
-58.4165
-58.3836
-58.4547
-58.4019
-58.337
-58.2712
-58.318
-58.3392
-58.2515
-58.3673
-58.3773
-58.1663
-58.4131
-58.2837
-58.4362
-58.5156
-58.4016
-58.4187
-58.2926
-58.1175
-58.5142
-58.528
-58.5272
-58.4783
-58.3837
-58.386
-58.2172
-58.5975
-58.6176
-58.6209
-58.6204
-58.5044
-58.3396
-58.3931
-58.2808
-58.7999
-58.841
-58.7892
-58.7664
-58.775
-58.5243
-58.5777
-58.5103
-58.3198
-59.0958
-59.1336
-59.1266
-58.9551
-58.9315
-58.9684
-58.9013
-58.7583
-58.7037
-58.7632
-59.4009
-59.4417
-59.3025
-59.4225
-59.3681
-59.4324
-59.3002
-59.4611
-59.2246
-59.0997
-59.3333
-59.8151
-59.7253
-59.8374
-59.9122
-59.895
-59.8437
-60.0791
-59.725
-59.9235
-59.7375
-59.8864
-59.4563
-60.2907
-60.3981
-60.3751
-60.3951
-60.4297
-60.5944
-60.661
-60.5306
-60.4618
-60.505
-60.6657
-60.5928
-61.3471
-60.9396
-60.8524
-60.9791
-60.9887
-61.2171
-61.2302
-61.4717
-61.5051
-61.9367
-61.8863
-62.154
-61.9973
-62.474
-63.3405
-61.8164
-61.8446
-61.8522
-61.89
-61.8551
-62.0443
-62.4085
-62.9912
-63.4154
-63.5586
-63.4887
-63.6437
-64.1247
-64.455
-64.9532
-62.9933
-62.8108
-62.6038
-62.4154
-62.5639
-63.046
-63.6961
-64.5078
-64.8545
-65.0736
-64.983
-65.3488
-65.7438
-65.9268
-66.1886
-66.1809
-64.3231
-64.0542
-63.5272
-63.3713
-63.2909
-63.6208
-64.3199
-65.0861
-65.3967
-65.9143
-66.047
-66.9738
-67.3541
-67.1769
-67.0542
-66.7207
-66.0507
-65.9782
-65.5904
-65.0282
-64.3953
-64.081
-64.0654
-64.646
-65.2537
-65.5925
-66.4187
-66.692
-68.5918
-69.0621
-69.022
-68.134
-67.1365
-66.1456
-65.6676
-66.7091
-66.5868
-65.6838
-65.2369
-64.8849
-64.6207
-64.822
-65.3854
-65.5528
-66.4027
-67.349
-68.8078
-70.039
-69.7478
-68.4957
-67.5145
-66.4202
-65.8474
-65.0832
-67.7711
-67.4209
-66.7676
-66.3381
-65.8366
-65.4346
-65.4352
-65.638
-65.8881
-66.3332
-66.8422
-68.123
-69.7991
-70.1239
-69.0319
-67.2549
-66.5851
-65.838
-65.23
-64.5555
-68.977
-67.8233
-67.0257
-66.5883
-66.5874
-66.0632
-65.7392
-65.9144
-65.9979
-66.0508
-66.3006
-66.7099
-68.2087
-68.8329
-68.6537
-67.3138
-66.2835
-65.6544
-65.0616
-64.4583
-64.5754
-70.2851
-69.6779
-68.5967
-68.1476
-67.2126
-66.6883
-66.3265
-66.3414
-66.2384
-66.1091
-66.0935
-66.2666
-67.0885
-67.6491
-67.4171
-66.7727
-65.9616
-65.3281
-64.9796
-64.5992
-64.636
-64.6236
-58.4576
-58.437
-58.4017
-58.3704
-58.3705
-58.2361
-58.3838
-58.3262
-58.2554
-58.2031
-58.2646
-58.2622
-58.2558
-58.2425
-58.1215
-58.331
-58.4065
-58.2704
-58.3145
-58.1451
-58.0467
-58.4153
-58.4415
-58.4143
-58.3316
-58.206
-58.057
-58.0256
-58.4392
-58.4854
-58.4968
-58.3847
-58.3276
-58.2783
-58.199
-58.0546
-58.6108
-58.57
-58.5277
-58.571
-58.4744
-58.3531
-58.3486
-58.2101
-58.0356
-58.7782
-58.8619
-58.7843
-58.7128
-58.7722
-58.629
-58.5476
-58.4302
-58.3244
-58.3014
-59.1106
-59.1007
-59.0924
-59.1108
-58.8939
-58.7693
-59.0181
-58.7776
-58.6489
-58.6418
-58.7357
-59.315
-59.3989
-59.3703
-59.362
-59.4722
-59.4059
-59.3023
-59.3773
-59.4803
-59.0334
-59.2124
-59.0832
-59.7839
-59.9147
-59.9232
-59.8431
-59.8879
-59.9335
-59.6868
-59.6536
-59.66
-59.8246
-59.9109
-59.3978
-60.4907
-60.3329
-60.3168
-60.4015
-60.343
-60.4369
-60.7696
-60.7078
-60.8995
-60.7148
-60.5691
-60.6955
-60.7363
-61.3286
-63.1151
-60.8827
-61.0163
-60.9933
-61.0741
-61.3198
-61.3762
-61.5078
-61.6327
-62.1011
-62.1492
-62.3217
-62.2075
-62.5683
-63.6345
-64.5261
-61.8165
-61.9688
-61.7649
-62.0191
-61.9555
-62.1607
-62.6265
-63.2075
-63.5036
-63.6321
-63.6315
-63.9725
-64.2634
-64.6605
-65.1143
-65.4524
-63.1422
-62.8671
-62.5288
-62.4441
-62.7229
-63.2572
-63.8555
-64.5623
-64.854
-65.0242
-65.084
-65.564
-65.8441
-66.0679
-66.3816
-66.2026
-65.6148
-64.3703
-64.2237
-63.671
-63.5531
-63.4674
-63.7746
-64.4336
-65.0651
-65.4664
-66.0506
-66.2897
-67.3503
-67.4862
-67.2889
-67.0597
-66.7069
-65.975
-65.3402
-66.1718
-65.7869
-65.2136
-64.5988
-64.1934
-64.1295
-64.7078
-65.2928
-65.6814
-66.6988
-67.1593
-68.8565
-69.1672
-69.0386
-68.1539
-67.0606
-66.0813
-65.5178
-64.7457
-66.9448
-66.6605
-65.7827
-65.3651
-64.9543
-64.73
-64.9582
-65.5535
-65.6689
-66.3496
-67.5627
-68.9175
-69.9559
-69.5843
-68.3907
-67.4344
-66.3428
-65.6894
-64.9671
-64.5123
-67.9048
-67.5447
-66.8202
-66.3919
-65.9477
-65.5557
-65.5443
-65.7473
-66.0343
-66.4305
-66.9357
-68.1688
-69.7776
-69.9905
-68.8874
-67.1558
-66.505
-65.7618
-65.1394
-64.4784
-64.6661
-69.014
-67.8736
-67.1181
-66.6659
-66.6619
-66.1286
-65.8227
-66.0219
-66.0736
-66.0864
-66.3577
-66.7532
-68.1378
-68.6897
-68.5351
-67.2392
-66.2225
-65.6006
-65.0167
-64.4372
-64.5821
-64.6296
-70.2975
-69.6863
-68.6326
-68.1562
-67.2331
-66.7193
-66.3912
-66.4328
-66.3055
-66.1519
-66.1192
-66.2882
-67.0765
-67.6294
-67.3789
-66.7559
-65.9386
-65.3239
-64.9743
-64.5925
-64.635
-64.6062
-64.8856
-58.3897
-58.3985
-58.3015
-58.3573
-58.3151
-58.224
-58.3602
-58.2513
-58.168
-58.0342
-58.2764
-58.287
-58.3405
-58.0642
-57.9274
-58.2693
-58.2347
-58.2037
-58.1231
-58.0332
-57.9329
-58.2792
-58.3468
-58.271
-58.1992
-58.1765
-57.9646
-57.8721
-58.3541
-58.3628
-58.3868
-58.2548
-58.172
-58.1216
-57.9526
-57.8283
-58.4455
-58.4614
-58.4179
-58.3754
-58.3016
-58.183
-58.145
-57.9675
-57.7376
-58.589
-58.5985
-58.5923
-58.4996
-58.441
-58.2825
-58.2942
-58.137
-58.0255
-57.8958
-58.7726
-58.8115
-58.8104
-58.7753
-58.5622
-58.7533
-58.5612
-58.3943
-58.2419
-58.2168
-58.0918
-59.0611
-59.0708
-59.081
-59.045
-59.0906
-58.8221
-58.8438
-58.906
-58.7082
-58.5757
-58.4915
-58.5194
-59.3604
-59.4446
-59.3843
-59.3617
-59.4308
-59.4534
-59.3095
-59.2134
-59.256
-59.1054
-59.0392
-58.9444
-59.6999
-59.7983
-59.8999
-59.959
-59.9664
-59.9336
-60.0758
-60.0406
-60.217
-59.7775
-59.7994
-59.8617
-59.5983
-60.5411
-62.6078
-60.3721
-60.4245
-60.4406
-60.3965
-60.574
-60.6046
-60.9312
-60.7389
-60.9137
-60.7871
-60.7681
-60.8756
-61.481
-63.6866
-64.0512
-61.0801
-60.9612
-60.9241
-61.202
-61.3708
-61.491
-61.7529
-61.9223
-62.1095
-62.2357
-62.5196
-62.3714
-62.7485
-63.8861
-65.0614
-65.3475
-61.9357
-62.0135
-61.7882
-62.0214
-62.1326
-62.3418
-62.8794
-63.3504
-63.5573
-63.8953
-63.7148
-64.1349
-64.3804
-64.956
-65.3838
-65.5475
-65.3916
-63.1879
-62.9768
-62.693
-62.6624
-62.9262
-63.3973
-63.9606
-64.6348
-64.948
-65.0927
-65.1004
-65.8119
-65.9696
-66.1584
-66.5774
-66.2139
-65.6719
-65.0344
-64.752
-64.4014
-63.9165
-63.7379
-63.6069
-63.859
-64.4692
-65.1238
-65.6383
-66.1924
-66.5729
-67.6508
-67.6918
-67.3342
-67.08
-66.6693
-66.0103
-65.2519
-64.5713
-66.1114
-65.8739
-65.2208
-64.7292
-64.2864
-64.1584
-64.7532
-65.4065
-65.7946
-67.1231
-67.5879
-69.0777
-69.2292
-68.998
-68.1367
-66.9536
-66.1275
-65.377
-64.6751
-64.3261
-67.1698
-66.772
-65.8447
-65.4315
-65.011
-64.8556
-65.0926
-65.6301
-65.8124
-66.7207
-67.6997
-68.9487
-69.8219
-69.3797
-68.2686
-67.3577
-66.2447
-65.5745
-64.8842
-64.4428
-64.2864
-68.0357
-67.6274
-66.8485
-66.4555
-66.0522
-65.6961
-65.6672
-65.8378
-66.199
-66.5708
-67.011
-68.2037
-69.738
-69.8227
-68.7622
-67.0511
-66.424
-65.6818
-65.0352
-64.4155
-64.6459
-64.406
-69.0349
-67.9528
-67.2311
-66.7763
-66.7385
-66.2212
-65.932
-66.1348
-66.1455
-66.1242
-66.4066
-66.7912
-68.0468
-68.5679
-68.437
-67.1685
-66.1688
-65.5457
-64.9537
-64.4327
-64.597
-64.6541
-64.9495
-70.3053
-69.6928
-68.7
-68.1587
-67.2935
-66.733
-66.4392
-66.5255
-66.3668
-66.1968
-66.1519
-66.2976
-67.0542
-67.6079
-67.3403
-66.7256
-65.9183
-65.3185
-64.9693
-64.5905
-64.6338
-64.5735
-64.8895
-64.6579
-58.2099
-58.3195
-58.3403
-58.2978
-58.222
-58.1031
-58.3021
-58.2563
-58.0549
-57.9532
-58.2629
-58.2361
-58.1147
-57.9289
-57.8825
-58.2456
-58.1341
-58.2187
-58.0187
-57.9229
-57.7778
-58.2129
-58.258
-58.1433
-58.0011
-57.9948
-57.8425
-57.7674
-58.2404
-58.2453
-58.2134
-58.1589
-58.0004
-57.9464
-57.7803
-57.6544
-58.3316
-58.3388
-58.3383
-58.1955
-58.1143
-58.0125
-57.925
-57.7419
-57.6946
-58.4119
-58.4637
-58.4022
-58.3236
-58.2772
-58.1429
-57.9922
-57.9345
-57.7
-57.6264
-58.5599
-58.6044
-58.5881
-58.5137
-58.445
-58.4477
-58.2274
-58.1317
-57.9297
-57.7917
-57.5629
-58.8989
-58.8154
-58.8145
-58.7788
-58.6558
-58.4466
-58.5227
-58.4769
-58.2757
-58.0956
-57.8879
-58.0658
-59.0118
-59.1008
-59.0887
-59.0907
-59.1544
-59.0128
-58.8821
-58.8557
-58.6956
-58.5431
-58.1765
-58.4665
-58.8862
-59.2995
-59.4602
-59.4727
-59.469
-59.4616
-59.4583
-59.4643
-59.3724
-59.1238
-59.0931
-59.0271
-58.9369
-59.8758
-61.2601
-59.8808
-59.9015
-59.9116
-60.0891
-59.9175
-60.111
-60.1206
-60.185
-59.9815
-59.8225
-59.8715
-59.6361
-60.686
-62.8385
-64.6398
-60.3941
-60.4013
-60.5172
-60.5266
-60.7099
-60.7
-60.9588
-60.9158
-61.0343
-61.0047
-60.9312
-60.9272
-61.7231
-63.7549
-64.4844
-64.8104
-61.0508
-61.0018
-61.0889
-61.2964
-61.3753
-61.6312
-61.9304
-62.1415
-62.2663
-62.2707
-62.2689
-62.5454
-62.867
-64.2182
-65.1836
-65.5372
-65.3224
-61.982
-61.9526
-61.9774
-61.8787
-62.294
-62.5183
-63.0422
-63.5406
-63.7658
-63.8877
-63.8881
-64.2438
-64.6687
-65.2461
-65.6477
-65.6676
-65.5399
-65.1164
-63.0752
-63.0516
-62.7958
-62.7956
-63.1613
-63.4632
-64.005
-64.7355
-65.0296
-65.2283
-65.3955
-66.0064
-66.1367
-66.2137
-66.6926
-66.1787
-65.587
-64.9791
-64.3256
-65.0467
-64.5026
-64.0738
-64.02
-63.7419
-63.8945
-64.6279
-65.3117
-65.834
-66.395
-66.9528
-68.0172
-67.8596
-67.4373
-67.0838
-66.6029
-65.9493
-65.2037
-64.414
-64.0714
-66.2824
-65.9453
-65.3568
-64.8573
-64.3027
-64.2538
-64.8586
-65.4992
-65.8852
-67.3328
-67.9825
-69.2552
-69.2657
-68.803
-68.0914
-66.8328
-66.0154
-65.3409
-64.5251
-64.3265
-64.0885
-67.3983
-66.8822
-65.8956
-65.512
-65.182
-64.9983
-65.2427
-65.6918
-66.0056
-67.073
-67.7936
-68.9298
-69.7203
-69.17
-68.1414
-67.2655
-66.1771
-65.4811
-64.7904
-64.4561
-64.2789
-64.2298
-68.1392
-67.7181
-66.9129
-66.5185
-66.1489
-65.8622
-65.7871
-65.9435
-66.2985
-66.6848
-67.0268
-68.1871
-69.6462
-69.7043
-68.5669
-66.9584
-66.3403
-65.6056
-64.9447
-64.3612
-64.6353
-64.4058
-64.64
-69.063
-68.0664
-67.3705
-66.9125
-66.8098
-66.3243
-66.0503
-66.2456
-66.2124
-66.1736
-66.4512
-66.8266
-67.8895
-68.429
-68.3336
-67.0985
-66.1365
-65.4882
-64.9104
-64.4371
-64.6101
-64.6861
-64.9941
-64.3331
-70.3188
-69.7012
-68.7736
-68.1821
-67.3583
-66.7562
-66.4909
-66.6052
-66.4264
-66.2416
-66.1815
-66.2954
-67.0139
-67.5851
-67.297
-66.6952
-65.8992
-65.3082
-64.9569
-64.5931
-64.6341
-64.5414
-64.8959
-64.6603
-64.3222
-58.1621
-58.0732
-58.2981
-58.1493
-57.9308
-58.1508
-58.1101
-57.9684
-57.9196
-58.2557
-58.1648
-58.0638
-57.8791
-57.765
-58.2491
-58.2005
-58.0143
-57.9022
-57.7668
-57.6902
-58.1806
-58.253
-58.1629
-57.9368
-57.8399
-57.7016
-57.6219
-58.232
-58.1411
-58.0672
-57.9781
-57.8393
-57.7957
-57.6633
-57.5959
-58.2093
-58.2169
-58.1632
-58.0904
-57.9445
-57.8767
-57.754
-57.5466
-57.4192
-58.3536
-58.2882
-58.2446
-58.1943
-58.0826
-57.9762
-57.8735
-57.6827
-57.5491
-57.2987
-58.3591
-58.4764
-58.4139
-58.3448
-58.2089
-58.1243
-57.9649
-57.9664
-57.6588
-57.5678
-57.2301
-58.5748
-58.6113
-58.5867
-58.5593
-58.417
-58.4128
-58.2677
-58.1159
-57.9523
-57.7165
-57.4379
-57.401
-58.8248
-58.8291
-58.8403
-58.7947
-58.8076
-58.5793
-58.5627
-58.4289
-58.2113
-58.0344
-57.677
-57.9548
-58.4593
-59.0091
-59.077
-59.0836
-59.0937
-59.0475
-59.1517
-58.894
-58.8305
-58.6939
-58.4991
-58.3249
-58.3561
-58.7704
-60.3919
-59.471
-59.4437
-59.5312
-59.6067
-59.465
-59.5745
-59.49
-59.4656
-59.2884
-59.1142
-58.9842
-58.8942
-59.865
-61.6842
-63.1805
-59.8922
-59.891
-59.9969
-60.1374
-60.122
-60.1658
-60.2008
-60.1239
-60.1434
-59.9015
-59.7706
-59.7726
-60.7708
-62.9302
-65.015
-65.7906
-60.4609
-60.4318
-60.4946
-60.5916
-60.5964
-60.8708
-61.0614
-61.1501
-61.1135
-61.1195
-61.1352
-60.9386
-61.8217
-63.9516
-65.0463
-64.7946
-65.0515
-61.1153
-61.0262
-61.1963
-61.204
-61.524
-61.831
-62.1206
-62.349
-62.4368
-62.5265
-62.4294
-62.7671
-63.1183
-64.5053
-65.3651
-65.6153
-65.3388
-65.2146
-62.1768
-61.9792
-62.0863
-62.2662
-62.275
-62.6502
-63.2795
-63.7778
-63.9526
-64.0697
-64.1365
-64.3373
-65.1884
-65.4225
-65.8819
-65.8361
-65.5528
-65.2483
-64.9017
-63.2978
-63.0899
-62.9602
-63.0053
-63.0865
-63.5091
-64.1242
-64.789
-65.1483
-65.4252
-65.7008
-66.2324
-66.2955
-66.055
-66.6822
-66.1522
-65.5048
-64.907
-64.2664
-63.8077
-64.887
-64.6772
-64.196
-64.1511
-63.8845
-63.9868
-64.7921
-65.4906
-66.1092
-66.6363
-67.3127
-68.3002
-68.0494
-67.4266
-67.0785
-66.4537
-65.7847
-65.0546
-64.2249
-63.9891
-64.0521
-66.4571
-66.0152
-65.4986
-64.9766
-64.4175
-64.41
-64.996
-65.5936
-66.0503
-67.3516
-68.3271
-69.2895
-69.2091
-68.7614
-67.982
-66.6993
-65.9129
-65.2122
-64.4165
-64.2973
-64.1991
-64.1317
-67.6065
-66.9024
-65.9083
-65.6209
-65.3116
-65.1957
-65.4295
-65.7959
-66.2098
-67.1806
-67.809
-68.9128
-69.5269
-68.9319
-67.9897
-67.1923
-66.1123
-65.358
-64.719
-64.4303
-64.265
-64.2562
-64.3689
-68.2635
-67.8108
-67.0017
-66.5577
-66.2537
-65.997
-65.9328
-66.0289
-66.3842
-66.7686
-66.9982
-68.138
-69.4919
-69.5625
-68.4404
-66.8488
-66.2289
-65.5405
-64.8649
-64.332
-64.6154
-64.4242
-64.7011
-64.1869
-69.1118
-68.2029
-67.5305
-67.0496
-66.8904
-66.4335
-66.1702
-66.3353
-66.295
-66.2321
-66.4875
-66.8389
-67.804
-68.2991
-68.2219
-67.0257
-66.0741
-65.4345
-64.8852
-64.4521
-64.6144
-64.7047
-65.0393
-64.3264
-64.4131
-70.3181
-69.7139
-68.8445
-68.2345
-67.4063
-66.8254
-66.5476
-66.672
-66.469
-66.2819
-66.213
-66.294
-66.9806
-67.5605
-67.2492
-66.6672
-65.8782
-65.2795
-64.9462
-64.5939
-64.6355
-64.5097
-64.9067
-64.6614
-64.3269
-65.2367
-58.0488
-58.0576
-57.8447
-58.1164
-58.0411
-57.883
-57.8158
-58.0641
-58.0497
-57.9065
-57.7514
-57.6939
-58.254
-58.2303
-57.9668
-57.7668
-57.6534
-57.6832
-58.1097
-58.1468
-58.0208
-57.89
-57.7005
-57.5817