/*--------------------------------*- C++ -*----------------------------------*\
  =========                 |
  \\      /  F ield         | OpenFOAM: The Open Source CFD Toolbox
   \\    /   O peration     | Website:  https://openfoam.org
    \\  /    A nd           | Version:  7
     \\/     M anipulation  |
\*---------------------------------------------------------------------------*/
FoamFile
{
    version     2.0;
    format      ascii;
    class       surfaceScalarField;
    location    "5";
    object      phi;
}
// * * * * * * * * * * * * * * * * * * * * * * * * * * * * * * * * * * * * * //

dimensions      [0 3 -1 0 0 0 0];

internalField   nonuniform List<scalar> 
54451
(
-0.000124246
0.0024366
-3.19663e-05
-0.000187214
0.00386911
6.08341e-05
-0.000118621
0.00252729
-3.14204e-05
-8.92318e-05
0.00420881
-1.67645e-05
-0.000348408
0.00496188
-3.12531e-05
-0.000161392
0.00387881
6.30425e-05
-0.000120987
0.00433306
0.000108208
-0.000110577
0.002612
-3.24088e-05
-7.67678e-05
0.00427008
-1.59208e-05
-8.56146e-05
0.00399534
-2.56311e-05
-0.000402887
0.00524761
0.000259053
-0.000317911
0.00497716
-3.20305e-05
-0.000123497
0.00485536
-5.46485e-05
-0.000151569
0.00388933
8.06102e-05
-9.02901e-05
0.00429666
0.000112972
1.69673e-05
0.00377941
0.000105155
-0.00010766
0.00269406
-3.29064e-05
-6.25367e-05
0.00431578
-1.55746e-05
-8.4476e-05
0.00408842
-2.45271e-05
-5.91571e-05
0.00351895
-3.535e-05
-0.000369043
0.00623998
0.000578829
-0.00041047
0.00538925
0.000265287
-0.000117003
0.00546032
0.00022639
-0.000306683
0.00502107
-1.1802e-05
-8.46296e-05
0.00486068
-4.30076e-05
0.000130288
0.0053508
-7.87213e-05
-0.000149692
0.00390963
9.2083e-05
-9.23929e-05
0.0042821
0.000125028
1.05672e-05
0.00368406
0.000113273
6.70747e-05
0.00315702
9.97209e-05
-0.000111317
0.0027828
-3.57731e-05
-5.94003e-05
0.00435821
-1.59312e-05
-8.59601e-05
0.0041813
-2.24896e-05
-5.37032e-05
0.00357992
-3.17966e-05
-6.02703e-05
0.00360042
-1.48971e-05
-0.000260013
0.00686507
0.000933073
-0.000339198
0.0061816
0.000539644
-0.000146316
0.00635207
0.000584732
-0.000397946
0.00550165
0.000284313
-7.56064e-05
0.00547927
0.000237311
6.63547e-05
0.0055078
0.000188767
-0.000296816
0.00506323
-9.3815e-07
-7.48123e-05
0.0048396
-8.30429e-06
0.000155789
0.00523337
-7.07961e-05
0.000288456
0.00497952
9.76644e-05
-0.000163431
0.00394184
9.81014e-05
-7.3639e-05
0.00426917
0.000119246
-2.02409e-05
0.00362015
0.000123219
5.59669e-05
0.00305487
0.000105754
-4.90667e-05
0.00319628
0.000131569
-0.000111008
0.00287223
-3.63517e-05
-4.24645e-05
0.00438051
-1.56058e-05
-7.53238e-05
0.00426341
-2.27184e-05
-5.12591e-05
0.00363806
-2.93683e-05
-5.43407e-05
0.00363491
-1.19409e-05
-6.16031e-05
0.00395232
4.6453e-06
-0.000153746
0.00674679
0.00123697
-0.000183071
0.00682796
0.000922808
-0.000112108
0.00611362
0.000906361
-0.000273988
0.00602325
0.000539947
-8.05887e-05
0.00633206
0.000564634
0.000140441
0.00571261
0.000577995
-0.000369686
0.00560308
0.000307469
-4.69059e-05
0.00549798
0.000237699
8.32154e-05
0.00565645
0.000161238
0.000305632
0.00588673
0.00025034
-0.000312826
0.0051082
2.53758e-05
-5.9459e-05
0.00479937
2.5111e-05
0.000162864
0.00504339
-1.43509e-06
0.000307234
0.00453623
0.000121224
2.84103e-05
0.00397691
0.000217436
-0.000170032
0.00398026
0.000103487
-7.11055e-05
0.00426613
0.000129779
-2.53008e-05
0.00357297
0.000116404
4.53978e-06
0.00300802
0.000114264
-8.67062e-05
0.00320543
0.000128979
-9.61199e-05
0.0037828
8.45021e-05
-0.000105981
0.00295664
-3.55885e-05
-3.50944e-05
0.00439582
-1.65716e-05
-6.87972e-05
0.00433674
-2.01406e-05
-4.15239e-05
0.00368628
-2.94108e-05
-5.12122e-05
0.00366555
-8.79618e-06
-5.0648e-05
0.00398709
3.94411e-06
-1.68012e-05
0.00315946
-2.05623e-06
-0.000179276
0.00653146
0.00165596
4.50924e-05
0.00666353
0.00124216
4.70828e-05
0.00602891
0.00111675
4.60858e-06
0.00667482
0.000895349
3.15232e-05
0.00609928
0.000825033
0.000345784
0.00592385
0.000714695
-0.00034001
0.00597348
0.0006146
-3.21872e-05
0.00626758
0.000589712
0.00024579
0.00552312
0.000591549
0.0002662
0.00550059
0.000592071
-0.000357944
0.00564935
0.000326763
-1.55464e-05
0.00550231
0.000259222
0.000106402
0.00571252
0.00023809
0.000368601
0.00575724
0.000229354
0.000229621
0.00497276
0.000292806
-0.000312709
0.00516948
4.15803e-05
-8.2873e-05
0.00479657
3.99406e-05
0.000159014
0.00482755
5.66397e-05
0.000191177
0.00418942
0.000158738
-6.2681e-05
0.00384004
0.000234066
-6.49677e-05
0.00314363
0.000110214
-0.000163488
0.00400779
0.00011852
-5.73248e-05
0.00426334
0.000128511
-2.06311e-05
0.00352502
0.000129569
-1.24822e-05
0.00297935
0.000116037
-7.21996e-05
0.00320346
0.000137218
-8.00828e-05
0.00386631
7.4911e-05
1.27905e-05
0.00334874
2.67481e-05
-9.90791e-05
0.0030348
-3.42482e-05
-2.35911e-05
0.00439944
-1.5613e-05
-5.69016e-05
0.00439789
-2.0816e-05
-4.04352e-05
0.00373423
-2.76609e-05
-4.2929e-05
0.00369085
-1.17801e-05
-3.50944e-05
0.00400797
5.41712e-06
-2.04169e-06
0.00316836
-2.9217e-06
6.57947e-05
0.00305475
-4.66459e-06
-0.000235119
0.0060655
0.00194577
4.40212e-05
0.00658384
0.00167623
0.000113562
0.00609088
0.00153234
6.62405e-05
0.00669847
0.00127664
0.000166788
0.00603114
0.00110466
0.000571562
0.00569553
0.00104418
-0.000115313
0.0065744
0.000938461
5.84926e-05
0.00611625
0.000787697
0.000551281
0.00578508
0.00065831
0.000289421
0.00552835
0.000690998
-0.000202265
0.00580853
0.000631323
6.09186e-05
0.0061875
0.000618215
0.000158882
0.00545229
0.000608057
0.000272379
0.00558877
0.000599588
0.000502801
0.00524935
0.00046976
-0.000347599
0.00562838
0.000356935
-7.18638e-05
0.00552407
0.000293999
0.000122306
0.00568962
0.000318831
0.000339532
0.00551602
0.000330955
0.000220332
0.00457758
0.000341525
0.000163308
0.00345448
-1.96897e-05
-0.000293509
0.00521934
6.13216e-05
-8.52018e-05
0.00480294
6.30875e-05
0.00014843
0.00459223
0.000106202
9.78268e-05
0.00393688
0.000198876
-3.71557e-05
0.00373501
0.000228733
-3.41276e-05
0.00323463
9.71189e-05
0.000216571
0.00294139
1.62256e-05
-0.000187374
0.0040642
0.000131106
-5.28262e-05
0.00427927
0.000131826
-4.26583e-05
0.00351357
0.000125711
-4.63881e-05
0.00299376
0.000121108
-8.73784e-05
0.00322756
0.000136385
-6.1405e-05
0.00395446
7.5371e-05
2.879e-05
0.00336985
2.29645e-05
0.000159578
0.00330281
-1.10361e-05
-0.00010133
0.0031162
-3.21007e-05
-7.53153e-06
0.00438671
-1.39859e-05
-4.22363e-05
0.00444355
-1.9044e-05
-2.90623e-05
0.00377035
-2.78725e-05
-3.49981e-05
0.00370989
-1.17043e-05
-2.68278e-05
0.00402087
2.14783e-06
8.78812e-06
0.0031677
-2.70938e-06
7.80991e-05
0.00297871
-4.97999e-06
0.000126081
0.00274273
-1.34008e-05
-4.2154e-05
0.00564799
0.00191088
-0.000302812
0.00634868
0.00191663
-7.64853e-05
0.00616414
0.00192729
-6.32529e-05
0.0067612
0.00161384
0.000146083
0.00619538
0.00159243
0.000437486
0.00578123
0.00155704
8.07805e-05
0.00658377
0.00130562
8.40391e-05
0.00608612
0.00119612
0.000536271
0.00582209
0.000993109
0.000349669
0.00549537
0.00100164
-2.68328e-05
0.00653376
0.000949854
0.000171569
0.00620674
0.000737325
0.000423882
0.005677
0.000630774
0.000322899
0.00547655
0.000659586
0.000629243
0.0051222
0.000718386
-0.000103242
0.00559745
0.000566637
2.84571e-05
0.00610568
0.000612824
8.6454e-05
0.00549261
0.000613747
0.000404854
0.00553893
0.000592575
0.000611941
0.00498282
0.000474509
0.000445806
0.00330836
0.000333233
-0.000262571
0.00552711
0.000364642
-5.26122e-05
0.00551314
0.000335274
0.000158943
0.00562015
0.000352959
0.000311387
0.00521592
0.000405379
0.000227722
0.00437263
0.000271023
0.000199725
0.00360155
-3.94039e-05
0.000412217
0.00285135
-1.94868e-05
-0.000289704
0.00524119
9.37024e-05
-6.60513e-05
0.00474443
0.000133063
9.69643e-05
0.00437293
0.000142761
5.02177e-05
0.00368881
0.00025766
-7.17452e-05
0.0036745
0.000243752
2.39899e-05
0.00325414
0.00012382
0.000251251
0.00281269
3.35555e-06
0.000304603
0.00273796
9.03356e-06
-0.000188855
0.0041192
0.000141853
-3.50495e-05
0.00430217
0.000135724
-9.42666e-05
0.00357342
0.000124011
-3.96967e-05
0.00301088
0.000119226
-7.56679e-05
0.00325857
0.000130763
-4.21136e-05
0.00403969
6.64417e-05
6.12684e-05
0.00337544
1.72997e-05
0.000188192
0.00322843
-1.27509e-05
0.000284511
0.00295431
-1.59045e-05
-8.97498e-05
0.00318683
-3.08085e-05
1.85192e-06
0.00436762
-1.48638e-05
-3.02489e-05
0.00447656
-1.67421e-05
-2.35446e-05
0.00380197
-2.71215e-05
-2.67415e-05
0.00372197
-1.32152e-05
-6.09436e-06
0.0040134
1.85401e-06
2.46386e-05
0.00314875
-3.53488e-06
9.2533e-05
0.00288939
-5.91885e-06
0.000136473
0.00261526
-1.39812e-05
0.000150368
0.00197802
-2.17107e-05
8.3417e-05
0.00575008
0.00225899
-0.00027533
0.00561465
0.00194488
-3.14446e-05
0.00545297
0.00185597
-0.000307999
0.00645675
0.00191503
9.10751e-05
0.00623114
0.00190463
0.000144324
0.00604129
0.00196103
6.71873e-05
0.00680814
0.00156433
0.000118462
0.00617662
0.00159819
0.000326938
0.00601582
0.00156718
0.000370206
0.0057111
0.00152708
9.42195e-05
0.0066122
0.0012539
0.000190684
0.00612522
0.0012474
0.00041941
0.00597477
0.00104791
0.000454703
0.00538063
0.00097604
0.000732866
0.00509539
0.000985992
0.000127034
0.00645011
0.000945089
0.000412529
0.00604453
0.000727989
0.000201381
0.00568397
0.000615434
0.0004897
0.00536168
0.000660799
0.000823659
0.00488758
0.000682488
0.000599671
0.00422336
0.000603827
-9.28425e-06
0.00542217
0.00049679
8.52321e-05
0.00594762
0.000586852
0.000152857
0.00549432
0.0006172
0.00048801
0.00538863
0.000587426
0.000639867
0.00469671
0.000466547
0.000464807
0.0032752
0.000242578
0.000515297
0.00368211
0.000132721
-0.000158925
0.00528795
0.000371684
7.58029e-05
0.00540284
0.00033309
0.000223108
0.00545519
0.000374083
0.000335341
0.0048753
0.000408456
0.000206725
0.0042628
0.000236736
0.000282595
0.00363346
-1.94938e-05
0.000497233
0.00270519
-0.000139225
0.000464701
0.00245971
8.36668e-05
-0.000245514
0.00521215
0.000104325
6.43797e-06
0.00462766
0.00016898
3.95107e-05
0.00416192
0.000210293
2.11763e-05
0.00350155
0.000269148
-5.75753e-05
0.00367725
0.000236812
6.24842e-05
0.00326887
0.000124431
0.000281766
0.0027102
5.81217e-06
0.000373382
0.00258001
-2.38884e-05
0.000498981
0.00253981
-6.77733e-05
-0.000183769
0.00418411
0.000142054
-3.0765e-05
0.004332
0.000144639
-6.17594e-05
0.00362026
0.00012039
-3.27411e-05
0.00302685
0.00011724
-6.51383e-05
0.00329569
0.000120504
-1.16977e-05
0.00411953
5.65287e-05
9.01935e-05
0.00336595
1.03845e-05
0.000219703
0.00313018
-1.16148e-05
0.000292754
0.00281711
-3.183e-05
0.0002727
0.00226121
-3.82538e-05
-8.1296e-05
0.00324961
-2.88232e-05
5.42989e-06
0.004344
-1.2622e-05
-9.06482e-06
0.00449009
-1.93328e-05
-1.76415e-05
0.00382955
-2.66741e-05
-1.70605e-05
0.00372589
-1.39848e-05
-5.47114e-06
0.00400562
3.92776e-08
3.79112e-05
0.00311582
-3.13126e-06
0.000107984
0.00278408
-6.20917e-06
0.000146381
0.00247782
-1.48601e-05
0.000156762
0.00182931
-2.2032e-05
0.000162662
0.00134952
-3.58115e-05
9.74548e-06
0.00543119
0.00248937
-9.97794e-05
0.00571958
0.00224046
0.00017294
0.00521012
0.00222471
-0.000156585
0.00550723
0.00193294
8.73497e-05
0.00553607
0.00186551
0.000117603
0.00548242
0.00179326
-6.70893e-05
0.00648839
0.00186175
0.000141406
0.00615177
0.00197145
0.000246718
0.00612917
0.00189697
0.000280473
0.00599208
0.00186582
0.000212799
0.00665701
0.00162966
0.000289188
0.00599711
0.00164534
0.000307183
0.00604766
0.00167857
0.000410854
0.00581555
0.00150658
0.00073316
0.00556645
0.00155278
0.000246895
0.00665733
0.00123805
0.000345599
0.00626967
0.00117638
0.00026063
0.00606122
0.0011017
0.000413714
0.00551281
0.00099172
0.000878647
0.00502474
0.000991701
0.00063605
0.00486191
0.000913259
0.000217267
0.00642946
0.000934531
0.000481579
0.00591457
0.000678701
0.000230998
0.00569926
0.000634553
0.000541699
0.00523394
0.000689481
0.000739813
0.00476782
0.000680609
0.000555217
0.00425775
0.000557688
0.000673591
0.00386554
0.000392123
8.54509e-05
0.0052927
0.000385789
0.000266715
0.00575567
0.000497821
0.000172825
0.00553247
0.000598986
0.000548538
0.0051706
0.000622036
0.000551619
0.0045355
0.000403738
0.000519329
0.00344251
6.25101e-05
0.000598506
0.0037775
4.59144e-05
0.000766959
0.00366534
-4.16195e-05
-5.64309e-05
0.00501803
0.000345394
0.0002428
0.00518467
0.000353491
0.000331037
0.0051463
0.000350454
0.000319092
0.00460182
0.000349642
0.000201566
0.00421551
0.000196609
0.00037342
0.00348503
7.4233e-05
0.000519748
0.00252578
-7.80644e-05
0.000575809
0.00216018
-4.21221e-05
0.000819228
0.00233075
-9.06808e-05
-0.000170671
0.00509644
0.000111156
2.76604e-05
0.00447592
0.000197645
6.83223e-05
0.00397371
0.000227109
6.71397e-06
0.0034016
0.000270788
-1.51359e-05
0.00370835
0.00018805
0.000113871
0.00330103
7.90797e-05
0.000246969
0.00269651
-1.86474e-05
0.00042012
0.00245738
-7.19702e-05
0.000520933
0.0024171
-0.000129361
0.000562226
0.00181811
-0.000178679
-0.000182349
0.00426498
0.000133939
-4.69323e-05
0.00438127
0.000145151
-2.30163e-05
0.00366571
0.000113147
-2.78677e-05
0.00304916
0.000108308
-4.87275e-05
0.00333016
0.000114442
2.40008e-05
0.0041608
4.97669e-05
0.000121811
0.00333504
3.53648e-06
0.000247862
0.00300072
-3.86409e-08
0.000302001
0.00268317
-3.32953e-05
0.000298223
0.00215879
-7.08767e-05
0.000380356
0.00180671
-0.000126519
-7.33016e-05
0.00330515
-2.61396e-05
1.05394e-05
0.00431702
-1.23835e-05
1.20884e-06
0.0044908
-1.45408e-05
8.98992e-06
0.00383035
-2.91203e-05
-4.6029e-06
0.00371845
-1.46241e-05
1.89149e-05
0.00397252
2.02745e-07
4.80356e-05
0.00307255
-4.72581e-06
0.00012119
0.00266647
-6.71005e-06
0.00015465
0.00233163
-1.46714e-05
0.000167121
0.00166889
-2.15619e-05
0.000163231
0.00120126
-3.70023e-05
0.000184542
0.00061963
-4.78068e-05
5.2926e-05
0.00519818
0.00276717
-8.0195e-05
0.00541755
0.00248302
0.000208679
0.00504746
0.00251097
8.86345e-05
0.00564393
0.00214163
0.000208599
0.00519612
0.00213321
0.000165472
0.00513124
0.0021174
-0.000172573
0.00567676
0.00190891
0.000308309
0.00550295
0.00179916
0.000226916
0.0055821
0.00178563
0.000169145
0.00548807
0.00182211
0.000213326
0.00628634
0.0018539
0.000220667
0.00620575
0.00187628
0.000298707
0.00620499
0.00190411
0.00032786
0.00617072
0.00180132
0.00068274
0.00560363
0.00185348
0.000271598
0.00661537
0.00160776
0.000267147
0.00597309
0.00173213
0.000407854
0.00595148
0.00159429
0.000355236
0.00592254
0.00163006
0.000751909
0.00568758
0.0015122
0.000574682
0.00558155
0.00151959
0.000268659
0.00669327
0.00130153
0.000596488
0.00623082
0.00116199
0.000246112
0.00609765
0.00112484
0.000649822
0.00547571
0.00103068
0.000709405
0.00505963
0.000987239
0.000578878
0.00492009
0.000909857
0.000715512
0.00458214
0.00078971
0.000252086
0.00646965
0.000942338
0.000541735
0.00592309
0.000650988
0.000212622
0.00573176
0.000606409
0.000596094
0.00515024
0.0006707
0.000633633
0.00466481
0.000710477
0.000601538
0.00423931
0.000616835
0.000767333
0.00387502
0.000379383
0.000947203
0.0041136
0.000218859
0.000113226
0.00523919
0.00030357
0.000292201
0.00573338
0.000358682
0.000221716
0.0056032
0.000536414
0.000584553
0.00500002
0.000504105
0.000564692
0.00414831
0.000646096
0.000610754
0.00377202
-0.000163113
0.000769679
0.00369139
-0.000101312
0.000815679
0.00352147
-5.00882e-05
0.00109496
0.00248618
2.0212e-05
0.000125265
0.00466892
0.000245226
0.000271223
0.00492691
0.000359595
0.000421995
0.00483613
0.000309987
0.00030225
0.00436459
0.000292148
0.000189141
0.00425089
0.000109987
0.000272715
0.00344454
7.82552e-05
0.000482124
0.00237425
-9.39076e-06
0.000657197
0.00198467
-0.000139635
0.000856539
0.00215691
-0.000203887
0.000842156
0.00178804
-0.000192576
-5.67869e-05
0.00491679
9.17169e-05
6.727e-05
0.00428712
0.00018575
9.44637e-05
0.00381944
0.000234436
-3.16399e-05
0.00338528
0.0002472
-2.00228e-06
0.00377889
0.000153523
0.00019745
0.00330996
5.66881e-06
0.000281995
0.0026916
-7.61945e-05
0.000465854
0.00234831
-0.000127578
0.00054206
0.00227452
-0.000169451
0.000602728
0.00162458
-0.000240334
0.0007122
0.00122362
-0.000253496
-0.000162473
0.004336
0.00013626
-3.71708e-05
0.00442248
0.000140439
1.90968e-06
0.00370049
0.000109671
-1.93718e-05
0.00309743
9.32361e-05
-2.51245e-05
0.00335917
9.98202e-05
6.19251e-05
0.00418368
4.85472e-05
0.000145058
0.00328279
4.99267e-06
0.000271492
0.00283629
1.76673e-05
0.000301766
0.00255521
-1.91979e-05
0.000331276
0.00205596
-9.46221e-05
0.000376802
0.00166338
-0.000141117
0.000447988
0.000872851
-0.000158932
-7.00806e-05
0.00335791
-2.48852e-05
2.37364e-05
0.00427912
-1.19756e-05
1.44639e-05
0.00447862
-1.46633e-05
1.03626e-05
0.00383077
-2.53249e-05
9.10435e-06
0.00369452
-1.42976e-05
3.439e-05
0.0039238
-2.99224e-07
5.27767e-05
0.00302511
-5.13825e-06
0.000136156
0.0025343
-8.71098e-06
0.000160668
0.00218208
-1.78268e-05
0.000181959
0.00149325
-2.09905e-05
0.000161234
0.00105672
-3.82591e-05
0.00019388
0.000440141
-5.13936e-05
0.000208422
-0.000611438
-6.51943e-05
1.06045e-07
0.00496663
0.00314514
-4.2933e-05
0.00510816
0.00279624
0.00021974
0.00477956
0.00282147
2.98851e-05
0.00548037
0.00244431
0.000301849
0.00497811
0.00245912
0.000285456
0.00477884
0.00244011
-8.02463e-05
0.00561907
0.00213008
0.000348297
0.00518819
0.00210957
0.000211946
0.00516833
0.00211109
0.0001923
0.00491605
0.00212653
6.07827e-05
0.0058523
0.00192345
0.00024289
0.00559186
0.00179778
0.000266322
0.00568475
0.00172889
0.000377274
0.00544381
0.00178048
0.000476758
0.0053724
0.00188751
0.000239668
0.00624121
0.00180201
0.000401647
0.00608076
0.00184439
0.00042181
0.0062773
0.00179002
0.000451418
0.0061595
0.00181915
0.000603317
0.00574191
0.00181162
0.000461117
0.00569207
0.00180897
0.000190888
0.00649412
0.00173146
0.000279496
0.00619552
0.00170232
0.00019095
0.00613241
0.00160637
0.000512254
0.00623985
0.00141456
0.000662544
0.00582517
0.00153933
0.000583877
0.00560795
0.0014808
0.000690979
0.00521361
0.00148178
0.000236388
0.00672127
0.00138146
0.000599252
0.00624046
0.00123437
0.00039971
0.00593037
0.00114219
0.000742947
0.00544682
0.00100688
0.00072813
0.00501276
0.000983047
0.000648753
0.00494097
0.000919146
0.000894448
0.00459508
0.000769801
0.000832611
0.00473875
0.000711979
0.00017413
0.00658792
0.000993121
0.000485787
0.00601725
0.000654595
0.000310983
0.00568031
0.000613167
0.000562717
0.00513283
0.000645656
0.000662887
0.0045701
0.000667216
0.000618366
0.00433899
0.000603185
0.000896415
0.00390472
0.000460394
0.00101829
0.00409579
0.000194578
0.00124208
0.00374226
0.000163577
0.00030919
0.0051333
0.00024282
0.000455616
0.00558592
0.000266635
0.000397943
0.00554882
0.00043711
0.000575798
0.00480883
0.000454055
0.000527212
0.00402915
0.000285194
0.000464018
0.00418793
3.889e-05
0.00079441
0.00346824
-0.000252247
0.000895008
0.00320581
-2.34645e-05
0.00117145
0.00211997
1.21033e-06
0.000973423
0.00183152
0.000134022
0.000310547
0.00438713
4.47827e-05
0.000366235
0.0046859
0.000187269
0.000461476
0.00463374
0.000194977
0.000254871
0.00420484
0.000183229
0.000261741
0.00425961
1.96812e-05
0.000521423
0.00321861
1.19497e-05
0.000540254
0.00222857
-3.43271e-05
0.000734355
0.00193733
-0.000230552
0.000835613
0.00201555
-0.000291825
0.00079831
0.00165891
-0.000270341
0.000703584
0.00166397
-0.000171399
3.35923e-06
0.00475442
3.16195e-05
0.000109589
0.00412589
0.00010619
8.82301e-05
0.00372715
0.000191718
-4.02437e-05
0.00342691
0.000213684
6.65062e-05
0.00382311
0.000111345
0.000286115
0.00326053
-2.12339e-05
0.000339468
0.00263526
-0.000132404
0.000494886
0.00222305
-0.000174325
0.000532814
0.00215028
-0.000234385
0.000632557
0.00141857
-0.000264727
0.000705672
0.000929371
-0.00027496
0.0008122
-0.00019896
-0.000135693
-0.000166672
0.00441649
0.000136407
6.05727e-06
0.00443846
0.000137951
3.32936e-05
0.00371722
0.000104874
1.68863e-06
0.00313392
8.18562e-05
6.90657e-06
0.00336341
9.11911e-05
9.12882e-05
0.00419096
3.56391e-05
0.00017301
0.00320856
2.54767e-06
0.000283485
0.00267679
1.71638e-05
0.000311351
0.00243473
-1.25397e-05
0.000349472
0.00197681
-0.000107554
0.000366758
0.00152356
-0.00016033
0.000488474
0.000593266
-0.000156126
0.000484632
-0.00134022
-0.000133087
-5.94137e-05
0.00340066
-2.49389e-05
3.4552e-05
0.00423146
-1.17726e-05
2.8803e-05
0.00445241
-1.45736e-05
1.98027e-05
0.00381926
-2.29552e-05
2.38784e-05
0.00365864
-1.33203e-05
5.19243e-05
0.00385823
-6.48899e-07
6.93937e-05
0.00296152
-6.1006e-06
0.000148304
0.00239112
-1.02661e-05
0.00016747
0.0020259
-2.00042e-05
0.000190419
0.00130802
-2.30113e-05
0.000160926
0.000912601
-3.77977e-05
0.000198946
0.000257528
-5.45923e-05
0.000200303
-0.000795238
-6.78959e-05
9.93181e-05
-0.00134659
-6.35408e-05
-9.48469e-05
0.00473
0.00335265
-6.66721e-05
0.00490692
0.00317409
0.000291856
0.00471885
0.0031633
8.10601e-06
0.00507911
0.00280143
0.000136732
0.00494115
0.00279976
0.000387906
0.00487507
0.00274607
0.00010251
0.00531911
0.00241505
0.0002412
0.00510484
0.00242468
0.000297336
0.00474785
0.00240472
0.000290192
0.00464911
0.00238231
0.00012789
0.00560906
0.00213049
0.000227709
0.00520368
0.00212977
0.000343378
0.00506801
0.00213284
0.000337566
0.00490807
0.00215878
0.000429836
0.00493007
0.00214287
0.000262575
0.00587993
0.00196778
0.000349006
0.00572186
0.0018461
0.000311981
0.00588764
0.00170472
0.000329429
0.00552915
0.00176554
0.000494268
0.00544289
0.00181904
0.000573641
0.00538123
0.00185104
0.000260271
0.00625193
0.00158886
0.000171572
0.00629364
0.00169706
0.000307074
0.00629163
0.00171393
0.000755123
0.00594023
0.00176642
0.000668669
0.00575906
0.00179588
0.000587114
0.00569903
0.00180143
0.000638416
0.00564473
0.00180585
0.000214673
0.00645342
0.00164412
0.000359877
0.00641817
0.00174818
0.000375
0.0062756
0.00158384
0.000858314
0.00618583
0.00154502
0.000706982
0.00576483
0.00149605
0.000698341
0.00556836
0.00152933
0.000865737
0.00532042
0.00140269
0.000881536
0.00513623
0.00145222
0.000262972
0.00656099
0.00148631
0.000488488
0.00628517
0.00133405
0.00049015
0.00579999
0.00118558
0.000784314
0.00538791
0.000979494
0.000808567
0.00495202
0.000921945
0.000573693
0.00503197
0.00093672
0.000831242
0.00477671
0.000802688
0.00113422
0.00468438
0.000708243
0.00111321
0.00506273
0.000596969
0.000483958
0.00658264
0.000912908
0.000619357
0.00607978
0.000766854
0.000313981
0.00576657
0.000652296
0.000572004
0.00507759
0.000672204
0.000724268
0.0043843
0.000634403
0.000726672
0.00417555
0.000568002
0.000873155
0.00405941
0.000369755
0.00118854
0.00397782
0.000284838
0.00134721
0.00353103
0.000230043
0.00118402
0.00344815
0.000286589
0.000634344
0.0049416
0.000167723
0.000226688
0.00575887
0.000209416
0.000567022
0.00534034
0.000369568
0.000553177
0.00456025
0.000387378
0.000590897
0.00394587
0.000208181
0.000752074
0.00424027
2.19953e-06
0.000848875
0.00345859
-0.000260079
0.000967149
0.00268359
3.71824e-05
0.00106661
0.00185531
1.01983e-05
0.000795981
0.00170198
0.00013308
0.000570528
0.0020665
0.000233416
0.000328672
0.00423152
-0.000108509
0.000409397
0.00445044
-1.95688e-05
0.000415477
0.00448958
4.17824e-06
0.000226378
0.00409538
3.78135e-05
0.000301737
0.00425164
-4.40359e-05
0.000660769
0.0029651
-0.000101467
0.000553853
0.00214953
-0.000123394
0.000759048
0.0019229
-0.000284051
0.000786997
0.00187954
-0.000348725
0.0007491
0.0015511
-0.000300563
0.0006854
0.00159921
-0.000185313
0.000838968
0.0016495
4.77358e-06
1.65197e-05
0.00461945
1.91535e-05
0.000116313
0.00405445
-7.19296e-06
0.000107711
0.00365662
0.000102306
1.71169e-05
0.00342735
0.000175849
0.000139257
0.00382629
7.81606e-05
0.000340179
0.00317674
-5.37616e-05
0.000394651
0.00254462
-0.000152232
0.000482769
0.00211671
-0.000225344
0.000542908
0.00201421
-0.000269807
0.00061036
0.00121902
-0.000295722
0.000678271
0.000634028
-0.000280898
0.000787163
-0.000647939
-0.00012467
0.000728485
-0.00104597
8.14254e-05
-0.000122516
0.00446997
0.0001312
3.20802e-05
0.00444361
0.00013373
7.42038e-05
0.0037157
9.40693e-05
4.03351e-05
0.00315724
6.1027e-05
3.45342e-05
0.00335781
7.68014e-05
0.000123215
0.00417821
3.26544e-05
0.000214729
0.0030983
5.58661e-07
0.000297057
0.00252031
1.02782e-05
0.000319137
0.00231296
-1.27262e-05
0.000362834
0.00191422
-0.000122363
0.000369223
0.00138273
-0.000175015
0.000531736
0.000257949
-0.000157802
0.00043113
-0.00159314
-0.000134034
0.000108686
-0.0021105
-0.000101321
-4.63701e-05
0.00343141
-2.45602e-05
4.78319e-05
0.00417092
-1.22349e-05
4.35678e-05
0.0044111
-1.40276e-05
3.20477e-05
0.0037932
-2.05693e-05
3.8009e-05
0.0036091
-1.14254e-05
6.73501e-05
0.00377793
-3.71184e-07
8.47313e-05
0.00288287
-6.72978e-06
0.00015947
0.00223701
-1.14554e-05
0.000174843
0.00186176
-2.09615e-05
0.000202552
0.00111145
-2.59933e-05
0.000166242
0.000759347
-3.59993e-05
0.000206095
6.84262e-05
-5.47908e-05
0.000194528
-0.000974659
-6.96992e-05
8.53799e-05
-0.00143519
-6.46797e-05
-6.89901e-05
-0.00133547
-5.08438e-05
-0.000137549
0.00451022
0.00347169
-0.000121915
0.004759
0.00339534
0.000194363
0.00477081
0.00335918
6.47897e-05
0.00477384
0.00318281
0.000139692
0.0046885
0.00320148
0.000479599
0.00466382
0.003075
8.45441e-05
0.00507346
0.00278855
0.000301578
0.00489922
0.00278297
0.000410262
0.00481504
0.00274687
0.000500475
0.00449132
0.00269844
0.000142812
0.00530408
0.00243582
0.000224599
0.00510938
0.00241362
0.000333501
0.00479336
0.00238904
0.000305232
0.00472583
0.00236033
0.000470497
0.00453183
0.0022981
0.000354513
0.00557875
0.00206063
0.00027866
0.00528195
0.00212257
0.000316483
0.00510613
0.00208715
0.000285512
0.00496134
0.00212348
0.000584839
0.00491415
0.00208412
0.000718254
0.00485776
0.00199981
0.000340452
0.00586033
0.00197242
0.000188783
0.0058246
0.00184783
0.000367028
0.00593264
0.00174114
0.000875477
0.00537773
0.00173578
0.000613859
0.00548248
0.00178077
0.000596707
0.00536014
0.00183054
0.00065382
0.00508342
0.00182232
0.000358127
0.006199
0.00152891
0.000221669
0.0065206
0.00150011
0.00047235
0.0062558
0.00163554
0.000927641
0.00579995
0.00178488
0.000831115
0.00560118
0.00180016
0.000642541
0.0057533
0.00179741
0.000768229
0.00575051
0.00179315
0.000880894
0.0055704
0.0017934
0.00019946
0.00646126
0.0016088
0.000193639
0.00670989
0.00164724
0.000279375
0.00664864
0.00158592
0.000709012
0.0063326
0.00151238
0.00089495
0.00556999
0.00165347
0.000624314
0.00546294
0.00155085
0.000780774
0.00540934
0.00149088
0.00102821
0.00525216
0.00139279
0.00120454
0.00541191
0.00137467
0.000552077
0.00638102
0.00150208
0.000431797
0.00649916
0.00145988
0.000450552
0.00576618
0.00123128
0.000802309
0.00532817
0.00101503
0.000695154
0.0050914
0.000869229
0.00059362
0.00519396
0.000893011
0.000930452
0.00486666
0.000789473
0.00118886
0.00478513
0.000701626
0.00132415
0.00520071
0.000593338
0.00113207
0.00535858
0.000670925
0.00101002
0.00637084
0.000618732
0.000246303
0.00621992
0.000753148
0.00044605
0.00597078
0.00068362
0.000547616
0.0050887
0.00064674
0.00066499
0.00437516
0.000607256
0.000787045
0.0041936
0.000581385
0.00100442
0.00411536
0.000356501
0.00127569
0.0037575
0.000281529
0.00126301
0.0032678
0.000351666
0.000974777
0.00306498
0.000434417
0.000532975
0.00321359
0.00048801
0.000519661
0.00490754
0.000126225
0.000363344
0.00576669
0.000205958
0.000515302
0.00526592
0.000184016
0.000521636
0.00432635
0.000308209
0.000501177
0.00402186
0.000111954
0.000823045
0.00414692
0.000139252
0.000820495
0.00322794
-3.37909e-05
0.000989742
0.00214416
4.86547e-05
0.000933452
0.00169857
4.74694e-05
0.000656167
0.00165693
0.000148181
0.00050264
0.00213533
0.00024701
0.000564206
0.00253849
0.000362677
0.000348048
0.00409743
-0.000150936
0.000297873
0.00432621
-0.00016584
0.00026559
0.00445784
-0.000145705
0.000201247
0.00397596
-6.05295e-05
0.000347648
0.00409526
-1.41926e-05
0.000720301
0.00270265
-0.000161706
0.000549116
0.00209011
-0.000196514
0.000737722
0.00188257
-0.000338023
0.000757515
0.00174529
-0.000364409
0.000716966
0.00139016
-0.000294388
0.000635317
0.00148578
-0.00014417
0.000825852
0.00140884
1.66577e-05
0.000743881
0.00191402
0.000227698
0.000123379
0.00442375
-3.65431e-05
0.000173063
0.00399081
-5.81926e-05
0.000172457
0.00354854
2.63783e-06
6.39702e-05
0.00342365
8.23703e-05
0.000225542
0.00377706
3.40664e-05
0.000355992
0.00310205
-7.99195e-05
0.000442111
0.00244567
-0.000182195
0.000478366
0.00203353
-0.000250365
0.000526554
0.00188262
-0.000301173
0.000591312
0.0010231
-0.000302359
0.000627043
0.000359452
-0.000278966
0.000776431
-0.00101126
-0.000162272
0.000603626
-0.00142549
8.23481e-05
-4.10181e-05
-0.000165353
0.000172172
-4.43216e-05
0.00446202
0.00012641
7.45193e-05
0.00441789
0.000130237
0.000108935
0.00369754
8.6528e-05
7.40297e-05
0.00319596
1.33582e-05
6.54907e-05
0.00334028
5.10702e-05
0.000140603
0.00415519
2.6566e-05
0.000240379
0.00297879
-3.47991e-06
0.000316828
0.00236709
-3.57681e-06
0.000331957
0.00221187
-4.57476e-05
0.000386731
0.00182737
-0.000110056
0.000400374
0.00120293
-0.000176701
0.000540829
-8.98089e-05
-0.000161991
0.000386102
-0.00180726
-0.000135257
8.67666e-05
-0.00214181
-0.000104108
-0.000182781
-0.000436472
-8.25715e-05
-3.595e-05
0.00345213
-2.35543e-05
5.73263e-05
0.00410127
-1.22412e-05
5.49239e-05
0.00435805
-1.41084e-05
4.29994e-05
0.00375337
-1.71892e-05
5.16836e-05
0.00354635
-9.50641e-06
8.21406e-05
0.00368551
-1.14195e-06
9.69997e-05
0.00279263
-7.1265e-06
0.000168657
0.0020741
-1.24786e-05
0.000180144
0.00169202
-2.18641e-05
0.000198973
0.000918959
-2.74399e-05
0.000174476
0.000593507
-3.46287e-05
0.000214709
-0.000129387
-5.28952e-05
0.00019057
-0.001149
-7.10215e-05
7.68854e-05
-0.00151671
-6.50565e-05
-7.50085e-05
-0.00127366
-5.14857e-05
-0.000103046
-0.000630079
-5.84451e-05
-0.000118431
0.0041901
0.00362859
-0.000223303
0.00457603
0.00349781
8.1172e-05
0.00460975
0.00350251
2.88281e-05
0.00473616
0.00343291
0.000235062
0.00463692
0.00343385
0.000575302
0.00478394
0.00323162
4.3711e-05
0.00476555
0.00317026
0.000257237
0.00478101
0.00313464
0.000570648
0.00463205
0.00307287
0.000474767
0.00449965
0.00302213
6.42291e-05
0.00505327
0.00282504
0.000336144
0.00479723
0.002779
0.000364912
0.00480124
0.00276536
0.000452693
0.0044521
0.00263863
0.000532392
0.00431644
0.00258073
0.000284006
0.00536982
0.00240355
0.000351271
0.00507608
0.00239652
0.000239043
0.00486097
0.00242345
0.000374019
0.00467898
0.00234738
0.000513019
0.0046347
0.00232928
0.000688499
0.00456029
0.00225556
0.000326018
0.0054821
0.00225524
0.000164482