/*--------------------------------*- C++ -*----------------------------------*\
  =========                 |
  \\      /  F ield         | OpenFOAM: The Open Source CFD Toolbox
   \\    /   O peration     | Website:  https://openfoam.org
    \\  /    A nd           | Version:  7
     \\/     M anipulation  |
\*---------------------------------------------------------------------------*/
FoamFile
{
    version     2.0;
    format      ascii;
    class       volVectorField;
    location    "5";
    object      U;
}
// * * * * * * * * * * * * * * * * * * * * * * * * * * * * * * * * * * * * * //

dimensions      [0 1 -1 0 0 0 0];

internalField   nonuniform List<vector> 
18870
(
(-1.37808 1.00219 -1.28406)
(-1.02894 1.81699 0.533012)
(-1.4166 0.966587 -1.2604)
(-1.10898 1.95433 -0.178647)
(-1.18599 2.32693 -0.446483)
(-1.05218 1.77457 0.580166)
(-0.915872 2.08579 0.412339)
(-1.44065 0.934476 -1.28224)
(-1.15846 1.91467 -0.171037)
(-1.16795 1.81935 -0.573255)
(-1.44559 2.41662 0.922565)
(-1.19146 2.32271 -0.495054)
(-0.783277 2.33581 0.171418)
(-1.04706 1.73904 0.730349)
(-0.873644 2.05592 0.404929)
(-0.683904 1.82994 1.19097)
(-1.46753 0.894199 -1.32606)
(-1.05918 1.94245 -0.189698)
(-1.19824 1.80746 -0.540863)
(-0.835233 1.62217 -0.599457)
(-1.11599 2.96438 1.31789)
(-1.5732 2.37586 0.973376)
(-0.618604 2.65857 0.70488)
(-1.35928 2.22549 -0.399877)
(-0.850994 2.30892 0.214608)
(0.222468 2.75538 -0.67937)
(-1.14489 1.68356 0.873122)
(-1.03177 1.92773 0.511778)
(-0.900066 1.73873 1.25998)
(-0.54508 1.56534 0.431127)
(-1.49953 0.859844 -1.41236)
(-1.20138 1.86844 -0.16091)
(-1.21546 1.81021 -0.499315)
(-0.843331 1.64317 -0.578212)
(-0.763086 1.68922 -1.01089)
(-1.02996 3.28853 1.85135)
(-1.34553 2.88495 1.31915)
(-0.772396 3.02194 1.50337)
(-1.63946 2.38554 1.02773)
(-0.642196 2.66618 0.689541)
(-0.26905 2.69162 0.80473)
(-1.48752 2.17009 -0.336155)
(-0.944602 2.27467 0.29642)
(0.147899 2.73741 -0.613556)
(0.543748 2.68297 -0.042596)
(-1.381 1.56777 0.923738)
(-1.05175 1.91962 0.534156)
(-1.17266 1.54271 1.33996)
(-0.66303 1.4283 0.475091)
(-0.716469 1.49699 1.03754)
(-1.51439 0.848694 -1.42359)
(-1.14933 1.89381 -0.196161)
(-1.20012 1.83209 -0.538598)
(-0.88719 1.64347 -0.526721)
(-0.809429 1.66777 -0.86439)
(-0.82575 1.85373 0.323852)
(-0.722601 3.35721 2.16367)
(-1.07805 3.29189 1.92062)
(-0.592409 2.97285 1.94539)
(-1.56537 2.76433 1.32979)
(-0.938922 3.04644 1.30471)
(-0.329729 2.83598 1.41692)
(-1.76496 2.3484 1.063)
(-0.797482 2.62482 0.750467)
(-0.387387 2.75088 0.881501)
(0.275811 3.02598 0.339128)
(-1.57545 2.121 -0.253018)
(-1.02986 2.21334 0.336465)
(-0.0747672 2.67611 -0.373272)
(0.377314 2.51101 -0.034891)
(-0.168627 2.02882 0.966461)
(-1.56721 1.45034 0.964292)
(-1.10213 1.86992 0.575122)
(-1.272 1.5092 1.24382)
(-0.780197 1.34292 0.530779)
(-0.77268 1.46626 1.0789)
(-0.69094 1.78207 1.00423)
(-1.5273 0.804358 -1.39135)
(-1.18219 1.86301 -0.20157)
(-1.26327 1.81492 -0.484589)
(-0.908327 1.64345 -0.495857)
(-0.853404 1.65913 -0.796237)
(-0.845093 1.84211 0.314392)
(-0.376524 1.52828 -0.10576)
(-0.612352 3.13134 2.49295)
(-0.828019 3.19918 2.10546)
(-0.62759 2.97096 2.02345)
(-0.972895 3.26745 1.86653)
(-0.593628 2.99672 1.80187)
(-0.0690448 2.95727 1.63154)
(-1.60403 2.60131 1.51405)
(-0.997114 3.0015 1.28219)
(-0.48889 2.76883 1.52063)
(0.0997216 2.76045 1.44292)
(-2.04987 2.20863 1.03173)
(-0.925639 2.59961 0.85255)
(-0.469753 2.84053 0.807465)
(0.259393 3.00845 0.076391)
(-0.362826 2.49499 1.30763)
(-1.64915 2.06314 -0.108773)
(-1.19803 2.08765 0.496675)
(-0.245307 2.52654 -0.144085)
(-0.0955147 2.23154 0.343572)
(-0.635658 1.81112 1.17305)
(-0.633892 1.45906 1.04055)
(-1.63886 1.3922 1.05075)
(-1.2205 1.79124 0.612717)
(-1.25672 1.28969 1.36841)
(-0.803389 1.32881 0.521969)
(-0.895921 1.40617 1.14873)
(-0.731367 1.80891 0.903667)
(-0.365333 1.61246 0.254202)
(-1.5016 0.815074 -1.33143)
(-1.2365 1.84941 -0.192692)
(-1.2633 1.82395 -0.522664)
(-0.971188 1.62153 -0.430327)
(-0.861227 1.64886 -0.820389)
(-0.786454 1.81387 0.381319)
(-0.341868 1.53573 -0.127995)
(0.335161 1.61331 0.0111556)
(-0.675063 2.90027 2.44541)
(-0.424016 3.17449 2.46653)
(-0.156284 2.98008 2.31843)
(-0.807165 3.18702 2.10058)
(-0.588002 2.91957 2.07107)
(0.186067 2.90302 1.7427)
(-1.42794 2.92392 2.09387)
(-0.73779 2.91056 1.69963)
(0.0923336 2.99876 1.45308)
(-0.0677722 2.75977 1.30833)
(-1.54476 2.54882 1.58859)
(-1.05617 2.90268 1.43219)
(-0.64758 2.62407 1.65747)
(0.0093177 2.79831 1.3862)
(0.557078 2.72038 1.46951)
(-2.25033 2.06269 1.04819)
(-1.14932 2.50654 0.998868)
(-0.613694 2.79409 0.828993)
(-0.161397 2.87342 0.635914)
(-0.55828 2.32058 1.43415)
(-0.144847 1.67804 0.605753)
(-1.77332 2.01434 -0.0395187)
(-1.21144 2.10033 0.492458)
(-0.367032 2.3956 -0.178414)
(-0.443512 2.02958 0.620474)
(-0.574602 1.8326 1.13836)
(-0.661053 1.47639 0.969053)
(0.0379101 1.50635 -0.0646892)
(-1.75694 1.28562 1.11369)
(-1.24315 1.75641 0.74266)
(-1.32231 1.30652 1.2816)
(-0.905792 1.21446 0.599904)
(-0.967231 1.36454 1.17089)
(-0.748918 1.77628 0.961115)
(-0.367242 1.62877 0.209396)
(0.251812 1.70408 0.150635)
(-1.54222 0.74669 -1.23579)
(-1.24484 1.83938 -0.18761)
(-1.27368 1.84007 -0.491647)
(-0.95706 1.65203 -0.432026)
(-0.894007 1.63346 -0.801836)
(-0.863454 1.79321 0.268436)
(-0.352035 1.55505 -0.121573)
(0.331871 1.63837 -0.00720027)
(0.697349 1.52159 -0.228661)
(-0.629614 2.72605 2.18267)
(-0.782963 2.90852 2.39267)
(-0.498113 2.92444 2.49239)
(-0.82346 3.22465 2.3133)
(-0.285813 3.00851 2.40658)
(0.303721 2.87437 2.20674)
(-1.01808 3.14834 2.19255)
(-0.711853 2.87503 2.18447)
(0.237288 2.93 1.63873)
(0.0504144 2.72558 1.83284)
(-1.42156 2.95247 2.11673)
(-0.731129 2.9806 1.61242)
(-0.333124 2.83485 1.41411)
(-0.296089 2.71565 1.24992)
(0.301456 2.65572 1.45764)
(-1.55043 2.44489 1.27518)
(-1.38786 2.7554 1.41923)
(-0.758784 2.60459 1.64119)
(-0.0153571 2.87799 1.30279)
(0.440769 2.70043 1.54486)
(0.324962 1.71992 0.89373)
(-2.28486 1.94922 1.07439)
(-1.46056 2.35875 1.16846)
(-0.830059 2.71683 0.894368)
(-0.543074 2.65303 1.13646)
(-0.702113 2.08484 1.52786)
(-0.168808 1.71396 0.784614)
(0.744165 1.5667 -0.744064)
(-2.04508 1.80914 0.0743075)
(-1.39155 1.97417 0.592818)
(-0.732779 2.17075 0.0320187)
(-0.734034 1.70308 1.09232)
(-0.796124 1.65184 1.21608)
(-0.684718 1.48785 0.949724)
(-0.0120241 1.45573 -0.115945)
(0.628245 1.4944 0.203966)
(-1.91215 1.14784 1.11698)
(-1.24749 1.76809 0.853931)
(-1.34742 1.32179 1.20114)
(-0.962988 1.19475 0.617354)
(-1.00675 1.32969 1.15203)
(-0.785814 1.83656 0.910284)
(-0.369198 1.63484 0.157591)
(0.277004 1.72157 0.136597)
(0.994233 1.66426 -0.322825)
(-1.51977 0.775906 -1.17598)
(-1.27462 1.79685 -0.180214)
(-1.33836 1.81353 -0.420595)
(-1.03627 1.62566 -0.373365)
(-0.922262 1.62766 -0.794789)
(-0.813043 1.83508 0.264505)
(-0.287465 1.57202 -0.157503)
(0.331796 1.62109 -0.005206)
(0.707303 1.53412 -0.22362)
(1.1508 1.22107 -0.37541)
(-0.277236 2.82965 2.31463)
(-0.984974 2.59728 2.19164)
(-0.481883 2.6028 2.17276)
(-1.0455 3.01997 2.2653)
(-0.687886 3.01076 2.45539)
(-0.247439 2.81582 2.50193)
(-0.972238 3.25311 2.18467)
(-0.734962 3.00874 2.37673)
(-0.230286 2.933 2.26606)
(-0.0768095 2.86936 2.29135)
(-1.15024 3.05801 2.25665)
(-0.834887 2.91258 2.17684)
(-0.0350092 2.9885 1.80455)
(0.0337753 2.73492 1.73926)
(0.632584 2.66127 1.54043)
(-1.41635 2.91882 2.11363)
(-0.857535 2.9748 1.61764)
(-0.796491 2.70956 1.31204)
(-0.177896 2.72273 1.17037)
(0.491791 2.59083 1.3744)
(0.551834 2.17962 1.43537)
(-1.36983 2.30681 1.20366)
(-1.25512 2.70791 1.39987)
(-0.718248 2.63593 1.62616)
(-0.00823026 2.86111 1.33084)
(0.39561 2.58695 1.59498)
(0.31379 1.71126 0.843013)
(0.433015 1.84015 0.743411)
(-2.14949 1.84195 1.10521)
(-1.44449 2.35754 1.17561)
(-0.976675 2.62776 0.973019)
(-0.636728 2.46069 1.29092)
(-0.826511 1.96048 1.48485)
(-0.0677066 1.8787 0.220651)
(0.810337 1.55524 -1.05427)
(0.637074 1.38286 0.623356)
(-2.09534 1.74106 0.0539097)
(-1.48259 1.8601 0.75934)
(-1.29129 1.70949 0.555919)
(-0.785156 1.61352 1.19111)
(-0.848314 1.61353 1.24024)
(-0.718328 1.46264 0.999829)
(0.0918956 1.41901 0.136624)
(0.652779 1.49088 0.141318)
(0.932709 1.43929 -0.120278)
(-1.96522 1.08695 1.07864)
(-1.32565 1.71024 0.996984)
(-1.30862 1.28291 1.15602)
(-1.00584 1.17328 0.652445)
(-1.0595 1.30272 1.1045)
(-0.812069 1.87549 0.829496)
(-0.394286 1.63577 0.0791435)
(0.325832 1.72994 0.101306)
(0.957245 1.66132 -0.335431)
(0.89287 1.2787 0.0882247)
(-1.52382 0.763769 -1.08488)
(-1.29667 1.78548 -0.177968)
(-1.29186 1.85052 -0.464331)
(-1.11295 1.56479 -0.331662)
(-0.946533 1.61387 -0.824001)
(-0.966299 1.74093 0.187407)
(-0.298074 1.56486 -0.175285)
(0.352115 1.61508 -0.00747994)
(0.727193 1.52195 -0.267021)
(1.13983 1.22819 -0.406768)
(1.26594 0.917713 -0.627949)
(-0.412384 2.58082 2.21502)
(-0.621805 2.71425 2.35895)
(-0.349466 2.56728 2.34125)
(-1.07948 2.52736 2.22637)
(-0.346479 2.62375 2.201)
(-0.320006 2.58813 2.05561)
(-1.04866 3.01683 2.27966)
(-0.65261 2.95234 2.5878)
(-0.362684 3.01947 2.43769)
(-0.0431832 2.914 2.45908)
(-1.15463 3.10128 2.25361)
(-0.700425 2.96038 2.35371)
(-0.603495 2.92611 2.29351)
(-0.124452 2.85819 2.27244)
(0.287049 2.77702 2.19294)
(-1.15228 3.07965 2.22485)
(-0.470289 3.12261 1.91432)
(-0.563207 2.96441 1.97724)
(0.0577969 2.75265 1.76519)
(0.674466 2.6609 1.54501)
(0.402614 2.43965 1.79276)
(-1.55496 2.79194 2.10156)
(-1.08429 2.78145 1.58864)
(-0.960137 2.63325 1.2816)
(-0.228271 2.69078 1.19309)
(0.337163 2.52264 1.44319)
(0.368908 2.19935 1.37433)
(0.693171 2.00408 1.02655)
(-1.35149 2.33027 0.941935)
(-1.1101 2.72768 1.10767)
(-0.655187 2.71705 1.51442)
(-0.0674081 2.81217 1.35635)
(0.211602 2.4871 1.54675)
(0.30003 1.77349 0.752281)
(0.493106 1.9804 0.336545)
(0.751075 1.95422 -0.0780361)
(-2.04689 1.69175 0.949612)
(-1.19438 2.38604 1.17078)
(-0.801851 2.5873 0.941635)
(-0.905545 2.17576 1.35017)
(-0.914731 1.89238 1.32717)
(-0.0233441 1.86557 0.0336704)
(0.68643 1.54604 -0.348061)
(0.850517 1.31823 0.170683)
(1.3751 1.39512 -0.0861901)
(-2.17038 1.56886 0.0342933)
(-1.54215 1.70917 0.864803)
(-1.21276 1.64501 0.712563)
(-0.832223 1.50022 1.2521)
(-0.914301 1.59961 1.23125)
(-0.682467 1.46828 0.900507)
(0.162638 1.46717 0.0872659)
(0.686804 1.46705 -0.08795)
(0.861223 1.43076 -0.342425)
(1.0709 1.10365 -0.479118)
(-2.02912 1.00541 1.00899)
(-1.53051 1.57751 1.02698)
(-1.30899 1.28617 1.14187)
(-1.00892 1.15146 0.627128)
(-1.08982 1.28152 1.03354)
(-0.855704 1.88084 0.71319)
(-0.360258 1.64568 0.00911147)
(0.377549 1.73772 0.0754071)
(0.911407 1.66335 -0.282247)
(0.854551 1.30905 -0.136815)
(1.09357 1.09695 -0.657489)
(-1.56448 0.73292 -0.972954)
(-1.31703 1.77135 -0.177793)
(-1.35434 1.82861 -0.369899)
(-0.979176 1.68943 -0.426567)
(-0.953095 1.61083 -0.845164)
(-0.839231 1.79271 0.190723)
(-0.279321 1.57189 -0.181377)
(0.349719 1.64205 0.0305427)
(0.730402 1.53336 -0.276527)
(1.162 1.24587 -0.4008)
(1.22207 0.921222 -0.602403)
(1.31799 0.562215 -0.994655)
(-0.352594 2.56485 2.21321)
(-0.649062 2.57355 2.22661)
(-0.154588 2.47499 2.37797)
(-0.650508 2.72554 2.22819)
(-0.581483 2.43009 2.25082)
(-0.233352 2.44299 2.19628)
(-0.99233 2.52451 2.20418)
(-0.661251 2.6782 2.14367)
(-0.392817 2.66274 2.05374)
(-0.270562 2.63082 2.02141)
(-0.917055 3.04761 2.23295)
(-0.733052 2.97108 2.4167)
(-0.399245 3.0083 2.45436)
(-0.308127 2.99896 2.36906)
(0.378879 2.79076 2.36077)
(-1.18802 3.05268 2.3087)
(-1.05741 2.67193 2.46198)
(-0.78405 2.85097 2.40346)
(-0.622236 2.72266 2.51127)
(0.243306 2.87502 2.10779)
(0.334449 2.75825 2.30953)
(-1.17177 3.14121 2.22067)
(-0.42747 3.23218 1.85839)
(-0.68675 2.9807 1.99812)
(-0.125942 2.84158 1.76047)
(0.317483 2.66067 1.55337)
(0.185015 2.49051 1.79544)
(0.510232 2.30128 1.35477)
(-1.60013 2.75981 2.14452)
(-0.952058 2.78695 1.54072)
(-1.30178 2.51469 1.11085)
(-0.272519 2.635 1.26397)
(-0.0570671 2.45412 1.52484)
(0.287759 2.2372 1.304)
(0.635322 2.11763 0.895343)
(1.19421 2.20783 0.567639)
(-1.23563 2.36763 0.795107)
(-1.03276 2.72827 0.844547)
(-0.747714 2.76935 1.36552)
(-0.0488192 2.74936 1.36749)
(0.0691437 2.32354 1.68227)
(0.354411 1.98468 0.487923)
(0.498466 2.08366 -0.45138)
(0.809425 1.96022 -0.107798)
(1.49447 1.54627 -0.132874)
(-1.72154 1.71834 0.684167)
(-1.17058 2.26491 1.15482)
(-0.877366 2.38325 1.06123)
(-1.06757 1.94346 1.24216)
(-0.861488 1.89794 0.88109)
(0.0264911 1.85574 -0.0647805)
(0.257618 1.3675 0.416703)
(0.940174 1.30643 -0.146262)
(1.41609 1.43226 -0.440524)
(1.67285 1.15134 -0.4853)
(-2.22397 1.37504 0.168576)
(-1.59258 1.53428 0.935452)
(-1.06698 1.6167 0.85286)
(-0.945516 1.38921 1.23615)
(-0.961153 1.58952 1.17298)
(-0.577938 1.54367 0.467953)
(0.173577 1.51677 -0.213825)
(0.675934 1.48217 -0.268598)
(0.815736 1.42385 -0.534094)
(1.20073 1.11967 -0.808386)
(1.78581 0.941826 -1.15528)
(-2.06124 0.961896 1.04732)
(-1.69931 1.45718 0.966092)
(-1.36576 1.27439 1.11052)
(-1.0277 1.15028 0.52304)
(-1.11017 1.27143 0.921578)
(-0.865957 1.88736 0.690995)
(-0.434531 1.62563 0.0260206)
(0.422905 1.74775 0.043691)
(0.858265 1.66716 -0.0816424)
(0.863943 1.31493 -0.209606)
(1.03609 1.09441 -0.918542)
(1.59646 0.7196 -1.23285)
(-1.59236 0.694478 -0.917586)
(-1.32586 1.76998 -0.171199)
(-1.34959 1.84283 -0.356043)
(-1.13357 1.62768 -0.298891)
(-0.947861 1.62103 -0.836272)
(-0.836193 1.81171 0.191859)
(-0.334587 1.60575 -0.178813)
(0.370889 1.651 -0.0339164)
(0.718689 1.54746 -0.335611)
(1.18074 1.27992 -0.375452)
(1.16454 0.916477 -0.582897)
(1.21704 0.54101 -1.06802)
(1.54989 -0.00995557 -1.19611)
(-0.330879 2.39641 2.40997)
(-0.532717 2.40416 2.29715)
(-0.276329 2.29618 2.46275)
(-0.671788 2.55443 2.23502)
(-0.158192 2.4538 2.3579)
(-0.252545 2.34263 2.32369)
(-1.06321 2.53096 2.09644)
(-0.245003 2.54268 2.13256)
(-0.320513 2.50194 2.07435)
(-0.197069 2.39136 2.1641)
(-1.02733 2.62741 2.18604)
(-0.75292 2.59063 2.12193)
(-0.630236 2.70884 1.94639)
(-0.267768 2.6625 1.98864)
(0.0711397 2.5785 2.15288)
(-1.07108 2.84438 2.3748)
(-0.700112 2.94646 2.41884)
(-0.394016 3.07039 2.33674)
(-0.231619 3.01403 2.35253)
(0.0976252 2.84741 2.2626)
(0.0129895 2.78581 2.36758)
(-1.5177 2.88457 2.32585)
(-0.985426 2.87814 2.32697)
(-1.04815 2.72221 2.52523)
(-0.354251 3.07239 2.15269)
(-0.14799 2.81695 2.23162)
(0.0625881 2.82783 2.28009)
(0.446462 2.59418 2.17231)
(-1.42979 3.04937 2.33964)
(-0.76856 3.09807 2.0518)
(-0.730515 2.95424 2.00983)
(-0.222714 2.81701 1.79806)
(0.132974 2.62801 1.67071)
(0.103451 2.51739 1.76949)
(0.526441 2.37406 1.30796)
(0.650562 2.57877 1.31875)
(-1.98207 2.61103 2.1626)
(-1.3156 2.68593 1.50951)
(-1.4043 2.46584 1.04541)
(-0.468572 2.58465 1.29496)
(-0.0810805 2.44171 1.39603)
(0.197613 2.27279 1.34139)
(0.911172 2.06968 1.16805)
(1.01197 2.30226 0.63912)
(1.58924 2.06656 0.31047)
(-1.15367 2.41093 0.48722)
(-1.18283 2.64291 0.616456)
(-0.598281 2.93501 0.934846)
(-0.160653 2.71942 1.2186)
(-0.277437 2.17961 1.11215)
(-0.397234 1.91907 1.53987)
(0.648174 2.05714 -1.3192)
(0.864072 1.96653 -0.0530699)
(1.46294 1.43277 -0.147728)
(1.33763 1.15431 0.216668)
(-1.22449 1.90811 0.136817)
(-1.06318 2.22584 0.798625)
(-1.04583 2.16666 1.0949)
(-1.25915 1.73067 0.880109)
(-1.00005 1.85786 0.612255)
(0.121809 1.89947 -0.178471)
(0.283101 1.33085 0.537044)
(1.06178 1.3644 -0.473833)
(1.43009 1.44352 -0.738965)
(1.60839 1.21591 -0.845789)
(1.72576 1.08701 -0.719372)
(-2.17458 1.24883 0.298494)
(-1.50213 1.47969 0.627162)
(-1.01087 1.60588 0.677679)
(-1.05033 1.33854 1.15719)
(-0.985312 1.61764 0.972839)
(-0.49554 1.60425 0.213444)
(0.229252 1.56682 -0.421171)
(0.639305 1.48972 -0.484503)
(0.705092 1.39504 -0.840833)
(1.3389 1.14604 -0.964207)
(1.70824 0.90743 -1.36166)
(1.98215 0.306735 -1.06146)
(-2.15679 0.844302 1.05649)
(-1.73562 1.41072 0.956461)
(-1.40158 1.23794 1.09444)
(-1.03999 1.15987 0.49397)
(-1.11751 1.26329 0.807982)
(-0.916431 1.90068 0.581062)
(-0.490676 1.59334 0.0337889)
(0.470944 1.74866 0.0441227)
(0.785577 1.66492 0.212005)
(0.956594 1.37084 -0.198278)
(0.960252 1.07818 -1.1986)
(1.88985 0.79298 -1.18215)
(1.98836 -0.266711 -1.21688)
(-1.56715 0.691836 -0.91425)
(-1.35474 1.75973 -0.17233)
(-1.38761 1.83092 -0.342634)
(-1.15626 1.56141 -0.29836)
(-0.940361 1.6357 -0.792854)
(-0.795649 1.8386 0.197875)
(-0.331813 1.6064 -0.202844)
(0.382189 1.63577 -0.0591604)
(0.726509 1.55093 -0.356664)
(1.17536 1.27567 -0.455099)
(1.09339 0.903443 -0.580598)
(1.12465 0.504124 -1.13774)
(1.49179 -0.0189073 -1.27914)
(0.93156 -0.503313 -1.7935)
(-0.370079 2.23651 2.40173)
(-0.536323 2.31692 2.41332)
(-0.137138 2.27713 2.50478)
(-0.661588 2.36502 2.30404)
(-0.427422 2.30823 2.42017)
(-0.0663716 2.35374 2.35554)
(-0.794919 2.51925 2.2005)
(-0.586597 2.3672 2.27388)
(-0.380861 2.26577 2.23375)
(-0.227171 2.22909 2.20789)
(-1.01966 2.53899 2.08219)
(-0.591296 2.47862 2.19222)
(-0.361792 2.47279 2.15018)
(-0.181381 2.33854 2.24439)
(-0.0463929 2.39225 2.17225)
(-1.15391 2.66937 2.22368)
(-0.79983 2.62115 2.16298)
(-0.774426 2.68954 1.91387)
(-0.466042 2.63923 1.95798)
(-0.165592 2.65557 2.05442)
(0.00685279 2.66193 2.11923)
(-1.27528 2.82296 2.19409)
(-1.19351 2.77725 2.15485)
(-0.913263 2.97619 2.20252)
(-0.621669 3.01043 2.2052)
(-0.03366 2.87698 2.28432)
(-0.0512288 2.80961 2.33952)
(0.149666 2.76241 2.28769)
(-1.65675 2.71548 2.40806)
(-0.995988 2.89588 2.60385)
(-1.06259 2.86246 2.54356)
(-0.430642 3.12567 2.05605)
(-0.296249 3.04167 1.96381)
(-0.0200864 2.82417 2.24796)
(0.522662 2.68912 2.0569)
(0.578764 2.56666 2.152)
(-1.61046 2.92777 2.43029)
(-0.935524 3.09159 2.18487)
(-0.694794 2.90955 2.06172)
(-0.429324 2.75084 1.82113)
(-0.0859616 2.63693 1.52949)
(-0.0643642 2.56352 1.64917)
(0.379467 2.48434 1.35926)
(0.819276 2.46499 1.30404)
(1.00576 2.78878 1.04506)
(-1.80772 2.74348 1.88888)
(-1.0447 2.92633 1.68537)
(-1.37925 2.46235 1.09681)
(-0.689984 2.5148 1.36406)
(-0.094323 2.38234 1.26766)
(0.197406 2.3735 1.26508)
(0.511732 2.37071 1.06196)
(1.00009 2.30488 0.696144)
(1.62181 2.1573 0.117868)
(1.34903 1.99061 0.295066)
(-1.2231 2.30744 0.340585)
(-1.18994 2.63568 0.641589)
(-0.502348 2.9873 0.698587)
(-0.319999 2.58367 1.1802)
(-0.0208066 2.08781 0.995906)
(0.107658 2.48782 0.30371)
(0.659611 2.08227 -1.36922)
(0.887805 1.84005 0.0650902)
(1.21581 1.35654 -0.0656259)
(1.09071 1.11387 0.148057)
(0.832063 1.13769 0.500281)
(-1.13615 1.92096 -0.173994)
(-1.11164 2.11976 0.137635)
(-1.27959 1.88224 0.376605)
(-1.33971 1.55685 0.128106)
(-0.866852 1.96396 0.270493)
(0.297032 1.90471 -0.487265)
(0.388995 1.3769 0.252232)
(1.08706 1.4794 -0.749216)
(1.34371 1.47976 -0.978448)
(1.48956 1.23196 -1.0941)
(1.65424 1.17391 -0.847466)
(2.11144 1.18845 -0.387458)
(-2.19135 1.04599 0.401253)
(-1.34871 1.53928 -0.0277413)
(-0.959679 1.63767 0.292722)
(-1.06937 1.33819 0.959975)
(-0.951083 1.66763 0.743619)
(-0.439646 1.61903 0.0346072)
(0.290471 1.65707 -0.423447)
(0.517555 1.44365 -0.767681)
(0.700665 1.40065 -1.03229)
(1.25083 1.1141 -1.22567)
(1.61349 0.855318 -1.40602)
(1.92332 0.245308 -1.05237)
(1.93824 -0.158776 -0.228393)
(-2.21087 0.768316 1.03494)
(-1.78459 1.34932 0.943966)
(-1.39237 1.2437 1.06717)
(-1.0581 1.16977 0.43029)
(-1.11251 1.25336 0.673809)
(-0.951047 1.89157 0.555752)
(-0.404796 1.5936 -0.0474762)
(0.487001 1.75267 0.00216332)
(0.709379 1.65636 0.206763)
(0.952569 1.4535 -0.392255)
(0.952057 1.09867 -1.39501)
(2.11216 0.799651 -1.17748)
(1.96255 -0.340325 -1.21758)
(0.795045 -0.883371 -0.863608)
(-1.57706 0.691776 -0.872946)
(-1.37148 1.75247 -0.174358)
(-1.40906 1.81641 -0.331967)
(-1.16695 1.56025 -0.304989)
(-0.936967 1.64939 -0.698296)
(-0.80323 1.83307 0.19948)
(-0.300175 1.57447 -0.222216)
(0.377871 1.63931 -0.0787439)
(0.736243 1.55238 -0.398749)
(1.15985 1.2586 -0.533189)
(1.00954 0.884456 -0.586789)
(1.14809 0.486042 -1.11417)
(1.45908 -0.0286149 -1.34845)
(0.866012 -0.515571 -1.82733)
(-0.366841 -0.754625 -1.09795)
(-0.400456 2.12972 2.29949)
(-0.509888 2.21584 2.42807)
(-0.196799 2.24849 2.46593)
(-0.615135 2.26989 2.41975)
(-0.373166 2.21759 2.51255)
(-0.125395 2.2274 2.45415)
(-0.742624 2.3488 2.32599)
(-0.400082 2.36576 2.40311)
(-0.1975 2.33548 2.32522)
(-0.0445241 2.17596 2.31087)
(-0.831555 2.43759 2.18737)
(-0.71625 2.36848 2.24102)
(-0.413356 2.24042 2.20483)
(-0.280044 2.21289 2.1981)
(-0.00346857 2.19552 2.20183)
(-0.946021 2.57177 2.08867)
(-0.723306 2.45881 2.20293)
(-0.477827 2.44847 2.14611)
(-0.405376 2.39056 2.18528)
(-0.0889486 2.40485 2.16672)
(0.188816 2.31624 2.21891)
(-1.25784 2.58828 2.21263)
(-1.08595 2.63278 2.19257)
(-0.847497 2.75625 1.93423)
(0.0703577 2.79247 1.90114)
(-0.253146 2.67603 2.01713)
(-0.0236362 2.63492 2.08362)
(0.205185 2.50473 2.09933)
(-1.40573 2.7545 2.04219)
(-1.44264 2.80188 1.80014)
(-0.946473 2.94247 2.07895)
(-0.158841 2.95405 2.16975)
(-0.250155 2.8632 2.25526)
(-0.0994127 2.8448 2.29141)
(0.0910609 2.81298 2.26916)
(0.380599 2.8003 2.31487)
(-1.787 2.70091 2.27659)
(-1.62595 2.92601 2.24504)
(-1.29714 2.9379 2.43537)
(-0.490655 3.14697 2.00137)
(-0.143557 2.74682 2.40199)
(-0.354656 2.69744 2.36923)
(0.126777 2.76111 2.18415)
(0.751052 2.69268 2.02775)
(0.857898 2.76944 2.0409)
(-1.43801 2.97275 2.32625)
(-1.3406 2.93254 2.42801)
(-1.03107 2.7213 2.24672)
(-0.488276 2.72333 1.88901)
(-0.148198 2.63233 1.43228)
(-0.116811 2.61595 1.57716)
(0.318656 2.54667 1.49739)
(0.969749 2.55566 1.31104)
(1.08338 2.72727 1.06108)
(1.14016 2.75826 0.917531)
(-1.15882 3.2958 0.966666)
(-2.0596 2.34916 1.66524)
(-1.32341 2.56085 1.36225)
(-0.837621 2.44358 1.44606)
(-0.312516 2.26684 1.30212)
(0.171161 2.34279 1.27029)
(0.478801 2.34328 1.02371)
(1.0175 2.35726 0.413539)
(1.34209 2.09806 0.396389)
(0.863573 1.82619 0.744572)
(0.547786 1.68688 0.926902)
(-1.42776 2.0874 0.343868)
(-1.33795 2.71476 0.428359)
(-0.610297 2.90959 0.383969)
(-0.460506 2.37042 1.08996)
(-0.392771 2.14449 0.687091)
(0.289602 2.50219 0.0371191)
(0.367075 2.04667 -0.30961)
(0.835348 1.59864 0.0787782)
(0.981055 1.23595 0.12428)
(0.897215 1.09391 0.102677)
(0.685833 1.17582 0.564657)
(0.958789 1.37441 0.617014)
(-1.18803 1.88126 -0.306262)
(-1.34447 1.75141 -0.52926)
(-1.42863 1.71168 -0.233938)
(-1.24051 1.57626 -0.337788)
(-0.787765 2.01123 0.109806)
(0.339043 1.89013 -0.549935)
(0.418283 1.449 -0.163631)
(0.988214 1.53728 -1.0295)
(1.26041 1.4849 -1.02771)
(1.35485 1.22738 -1.20576)
(1.5028 1.18393 -0.790223)
(1.9836 1.17046 -0.344882)
(1.78776 1.36077 0.408307)
(-1.99507 1.11689 0.157414)
(-1.34569 1.55741 -0.23842)
(-0.901123 1.68287 -0.0298302)
(-1.01187 1.40192 0.569024)
(-0.960036 1.6838 0.594862)
(-0.377347 1.64734 -0.0323898)
(0.362762 1.68917 -0.538071)
(0.440726 1.42911 -0.926133)
(0.693603 1.39173 -1.19981)
(1.21366 1.09667 -1.33609)
(1.56398 0.767701 -1.40749)
(2.01164 0.0962678 -1.05662)
(1.58938 -0.121585 -0.123027)
(0.108533 -0.0816423 0.910105)
(-2.2195 0.734588 1.00789)
(-1.82644 1.29933 0.881776)
(-1.39758 1.24734 1.01634)
(-1.07916 1.17725 0.288585)
(-1.12486 1.24964 0.431303)
(-0.952021 1.91177 0.471063)
(-0.371233 1.60306 -0.0691478)
(0.503926 1.78211 0.0547141)
(0.656118 1.65858 0.149698)
(1.08793 1.51491 -0.38906)
(1.09423 1.14653 -1.41706)
(2.20322 0.803611 -1.18709)
(1.94394 -0.294992 -1.24392)
(0.704354 -0.914459 -0.86294)
(-0.785817 -0.360038 -0.686948)
(-1.60029 0.690936 -0.818617)
(-1.40861 1.70985 -0.194312)
(-1.41332 1.82946 -0.343513)
(-1.21185 1.55164 -0.28847)
(-0.936274 1.65801 -0.577786)
(-0.806034 1.81944 0.190603)
(-0.32811 1.60774 -0.212671)
(0.373893 1.64978 -0.0833386)
(0.736498 1.57051 -0.428885)
(1.16593 1.2654 -0.532099)
(0.925948 0.835378 -0.633894)
(1.2423 0.503081 -1.0217)
(1.46044 -0.0307865 -1.37083)
(0.880559 -0.515375 -1.82935)
(-0.37566 -0.743124 -1.10311)
(-0.745562 -0.46258 -1.19502)
(-0.355785 1.96487 2.26997)
(-0.552085 2.0842 2.3218)
(-0.267207 2.17303 2.38006)
(-0.563282 2.22687 2.41191)
(-0.414251 2.24854 2.46548)
(-0.0156056 2.3489 2.36338)
(-0.692951 2.14753 2.48098)
(-0.480677 2.22018 2.4957)
(-0.240814 2.20571 2.46985)
(0.0380523 2.125 2.35926)
(-0.923794 2.27955 2.2786)
(-0.585842 2.3075 2.36382)
(-0.397404 2.30221 2.31448)
(-0.227825 2.13581 2.32743)
(0.00832808 2.071 2.26329)
(-0.907973 2.41068 2.18968)
(-0.813915 2.33112 2.25425)
(-0.649804 2.26901 2.21778)
(-0.446925 2.25248 2.1795)
(-0.025982 2.22357 2.1836)
(0.189141 2.21902 2.0999)
(-1.02403 2.52381 2.09926)
(-1.06845 2.42089 2.05713)
(-0.656448 2.39786 2.09557)
(-0.381439 2.43561 2.0754)
(-0.132225 2.42198 2.14323)
(-0.0915145 2.44651 2.04901)
(0.156071 2.42132 1.88444)
(-1.28882 2.56865 2.21496)
(-1.14911 2.60371 2.17597)
(-0.912959 2.80591 1.91924)
(-0.428672 2.71105 1.99207)
(-0.079728 2.73916 2.00874)
(-0.214522 2.63177 2.02543)
(0.152553 2.53893 2.06366)
(0.441159 2.53386 2.0647)
(-1.66208 2.56832 1.90113)
(-1.63612 2.74051 1.7502)
(-1.33334 2.76909 1.95996)
(-0.789854 2.78396 2.06847)
(-0.20485 2.84211 2.29664)
(-0.238233 2.843 2.31262)
(-0.0470975 2.86549 2.26752)
(0.214647 2.82025 2.30783)
(0.761453 2.75664 2.27406)
(-1.6173 2.65583 2.53354)
(-1.71307 2.88284 2.26715)
(-1.41772 2.98311 2.43815)
(-0.754172 3.11961 2.04383)
(-0.756388 2.73613 2.30961)
(-0.59566 2.65251 2.40208)
(0.107606 2.84116 2.10853)
(0.406929 2.78374 2.12508)
(0.852568 2.88074 1.96705)
(0.724283 2.8266 1.95347)
(-1.34003 3.06429 2.26424)
(-1.54725 2.88337 2.54531)
(-1.17179 2.70208 2.40726)
(-0.751975 2.65695 1.83504)
(-0.396007 2.64974 1.46315)
(-0.301127 2.69428 1.44294)
(0.292138 2.7589 1.40805)
(0.787888 2.83842 1.11345)
(0.848991 2.86905 1.02262)
(0.791523 2.86297 0.859147)
(0.248335 2.38185 1.41262)
(-1.5482 3.0156 1.04402)
(-1.90164 2.39746 1.45444)
(-1.7884 2.51006 1.30036)
(-0.994806 2.39918 1.30205)
(-0.575408 2.25052 1.11394)
(-0.0641959 2.33366 1.12596)
(0.410858 2.41708 1.03328)
(1.02208 2.27758 0.349459)
(1.03209 1.94873 0.659448)
(0.49291 1.58081 0.976923)
(0.308878 1.63344 1.08851)
(0.341772 1.812 1.00324)
(-1.50635 1.99134 0.225122)
(-1.61953 2.54327 0.230682)
(-1.19109 2.50856 0.582437)
(-0.821282 2.05501 0.519715)
(-0.578388 2.12536 0.40851)
(0.237728 2.55203 -0.13189)
(0.164455 1.85298 0.608792)
(0.736679 1.42802 0.142554)
(0.818027 1.21617 0.174323)
(0.790678 1.12749 0.0857969)
(0.498185 1.23152 0.685923)
(0.895866 1.45189 0.611202)
(0.852931 1.68643 1.1403)
(-1.10206 1.91875 -0.292827)
(-1.33169 1.75829 -0.640852)
(-1.41543 1.7164 -0.447051)
(-1.24225 1.49947 -0.638719)
(-0.569423 2.09343 -0.050646)
(0.195364 1.7578 -0.19996)
(0.439991 1.47482 -0.457473)
(0.884852 1.54907 -1.07501)
(1.05708 1.43654 -1.07726)
(1.20243 1.18361 -1.25265)
(1.19378 1.1679 -0.631897)
(1.8145 1.14449 -0.14359)
(1.40021 1.07618 0.423939)
(-0.476879 1.11052 1.04437)
(-1.68608 1.38441 -0.295122)
(-1.2634 1.66521 -0.489898)
(-0.873748 1.70387 -0.24854)
(-0.965588 1.44771 0.0510702)
(-0.910574 1.68916 0.159361)
(-0.483007 1.60063 -0.284432)
(0.322719 1.71318 -0.706312)
(0.398769 1.43486 -1.06408)
(0.681792 1.41442 -1.26457)
(1.14584 1.08695 -1.42515)
(1.58545 0.797675 -1.33738)
(1.95235 0.0867708 -1.04781)
(1.38741 -0.576951 -0.464631)
(0.10671 -0.0327859 0.805939)
(-0.664759 0.502089 0.720132)
(-2.19945 0.618669 1.07591)
(-1.85557 1.21847 0.835183)
(-1.43995 1.17213 1.01363)
(-1.0984 1.19619 0.220645)
(-1.12292 1.22855 -0.105482)
(-0.972449 1.92716 0.330044)
(-0.329689 1.62829 -0.0734379)
(0.492518 1.78158 0.00868306)
(0.565013 1.65071 -0.103562)
(0.835076 1.53106 -0.818719)
(1.30826 1.24307 -1.23866)
(2.21727 0.789218 -1.17481)
(1.95143 -0.327837 -1.2963)
(0.633198 -0.932003 -0.839501)
(-0.799127 -0.364621 -0.716391)
(-0.958757 0.0548718 -0.494976)
(-1.61317 0.676303 -0.778941)
(-1.43077 1.69628 -0.202606)
(-1.46215 1.82742 -0.320938)
(-1.22062 1.53761 -0.284804)
(-0.94223 1.66258 -0.440137)
(-0.819886 1.80215 0.15953)
(-0.316063 1.63305 -0.23465)
(0.393751 1.66112 -0.11231)
(0.747112 1.58333 -0.466815)
(1.13662 1.25011 -0.53947)
(0.907067 0.812287 -0.69333)
(1.35335 0.53929 -0.907652)
(1.45942 -0.0353876 -1.36829)
(0.837996 -0.528819 -1.85562)
(-0.364456 -0.753785 -1.10684)
(-0.732477 -0.459915 -1.21187)
(-0.606425 -0.510612 -1.45828)
(-0.328424 1.77237 2.25967)
(-0.532636 1.93357 2.28922)
(-0.277783 1.98643 2.30254)
(-0.61675 2.1344 2.26543)
(-0.273852 2.19515 2.35575)
(-0.0626096 2.28886 2.31584)
(-0.735527 2.12473 2.40569)
(-0.417468 2.15424 2.53154)
(-0.0522537 2.24727 2.45976)
(-0.140447 2.17514 2.36171)
(-0.838075 2.1624 2.42423)
(-0.545727 2.27306 2.40388)
(-0.384622 2.22548 2.39734)
(-0.135946 2.19952 2.32947)
(0.0463737 1.98852 2.36496)
(-0.940161 2.2525 2.29265)
(-0.554914 2.21722 2.44031)
(-0.572875 2.21899 2.2911)
(-0.23056 2.1025 2.33067)
(-0.190737 2.12374 2.15023)
(0.106141 2.09539 2.13905)
(-1.21143 2.36025 2.15678)
(-0.963491 2.30871 2.2034)
(-0.738335 2.27314 2.18297)
(-0.100575 2.35229 2.19787)
(-0.262391 2.25958 2.17618)
(0.0281115 2.22486 2.12354)
(0.557159 2.20624 2.048)
(-1.28127 2.37595 2.14031)
(-0.855656 2.34534 2.36788)
(-0.669371 2.5325 1.98325)
(-0.562484 2.49136 2.06427)
(-0.26062 2.51786 2.03196)
(-0.231467 2.44479 1.95972)
(0.167724 2.31444 1.94711)
(0.336403 2.1107 2.15954)
(-1.59166 2.5205 2.126)
(-1.17127 2.57079 2.12712)
(-1.04121 2.66535 1.94347)
(-0.81185 2.59301 2.09358)
(-0.604302 2.62779 2.07077)
(-0.327512 2.60378 2.05171)
(0.0741564 2.52595 2.06759)
(0.171486 2.62681 2.00936)
(0.818639 2.45307 2.05296)
(-1.69597 2.55005 1.93548)
(-1.61249 2.70004 1.83564)
(-1.09553 2.78546 2.03253)
(-0.38697 3.01053 1.8873)
(-0.682833 2.75073 2.2444)
(-0.348038 2.82322 2.33686)
(-0.0149458 2.87155 2.29308)
(0.134074 2.88713 2.33601)
(0.525378 2.77802 2.26503)
(0.369076 2.74504 2.27041)
(-1.88339 2.76911 2.23041)
(-1.76011 2.79065 2.4739)
(-1.45085 2.98136 2.48243)
(-0.976898 3.00955 2.0893)
(-0.64711 2.78499 2.31257)
(-0.188401 2.78262 2.37606)
(-0.0672513 2.84414 2.15273)
(0.0724914 2.93167 2.02407)
(0.413306 2.90588 2.06666)
(0.277561 2.88333 2.07055)
(0.283567 2.69055 2.2038)
(-1.80607 2.90038 2.19509)
(-1.63347 2.62135 2.59276)
(-1.45692 2.53152 2.52514)
(-0.844983 2.60352 1.87777)
(-0.83791 2.50723 1.64205)
(-0.305634 2.65613 1.4262)
(-0.129057 2.70467 1.70385)
(0.669258 2.91765 0.966587)
(0.614616 2.89321 1.19603)
(0.615916 2.75843 1.08489)
(-0.117361 2.27041 1.57597)
(0.0269503 2.32417 1.7269)
(-1.50667 3.0316 1.06005)
(-1.59123 2.71064 1.25404)