/*--------------------------------*- C++ -*----------------------------------*\
  =========                 |
  \\      /  F ield         | OpenFOAM: The Open Source CFD Toolbox
   \\    /   O peration     | Website:  https://openfoam.org
    \\  /    A nd           | Version:  7
     \\/     M anipulation  |
\*---------------------------------------------------------------------------*/
FoamFile
{
    version     2.0;
    format      ascii;
    class       volVectorField;
    location    "5";
    object      U_0;
}
// * * * * * * * * * * * * * * * * * * * * * * * * * * * * * * * * * * * * * //

dimensions      [0 1 -1 0 0 0 0];

internalField   nonuniform List<vector> 
18870
(
(-1.39128 0.997528 -1.29448)
(-1.02594 1.81448 0.541706)
(-1.42768 0.955144 -1.2722)
(-1.11476 1.95641 -0.171781)
(-1.17561 2.33081 -0.448312)
(-1.04335 1.77262 0.604456)
(-0.902486 2.08748 0.416595)
(-1.44763 0.925576 -1.28561)
(-1.14402 1.91945 -0.167269)
(-1.17332 1.82891 -0.551936)
(-1.44346 2.41854 0.9273)
(-1.18796 2.32223 -0.488576)
(-0.782809 2.33734 0.18429)
(-1.04345 1.73431 0.763533)
(-0.886639 2.04157 0.427953)
(-0.710992 1.8201 1.21003)
(-1.47473 0.884871 -1.34133)
(-1.1132 1.93373 -0.175803)
(-1.20064 1.8049 -0.514825)
(-0.830309 1.61994 -0.580846)
(-1.1259 2.95775 1.31484)
(-1.57031 2.37993 0.978589)
(-0.60799 2.66173 0.710789)
(-1.36105 2.22451 -0.385679)
(-0.854352 2.30901 0.230863)
(0.225706 2.75255 -0.679052)
(-1.16701 1.67247 0.893402)
(-1.02769 1.92895 0.522341)
(-0.942218 1.72101 1.27013)
(-0.549599 1.56144 0.435267)
(-1.50814 0.853502 -1.42732)
(-1.19845 1.8809 -0.161876)
(-1.2178 1.81272 -0.476548)
(-0.856338 1.63879 -0.553414)
(-0.763808 1.68567 -0.970156)
(-1.02349 3.28988 1.85676)
(-1.36406 2.87406 1.32321)
(-0.773937 3.02127 1.49714)
(-1.63503 2.39134 1.03374)
(-0.635914 2.66877 0.695453)
(-0.269399 2.69856 0.821568)
(-1.48424 2.17214 -0.323778)
(-0.946009 2.27495 0.310245)
(0.142203 2.73285 -0.58602)
(0.529993 2.65653 -0.0422392)
(-1.41204 1.5513 0.92895)
(-1.04833 1.91718 0.548442)
(-1.19547 1.5331 1.34439)
(-0.683743 1.41474 0.487856)
(-0.728535 1.49166 1.04841)
(-1.51622 0.845648 -1.42179)
(-1.13288 1.90066 -0.200739)
(-1.22653 1.83205 -0.52747)
(-0.88986 1.63888 -0.514152)
(-0.836875 1.65909 -0.811854)
(-0.829108 1.8514 0.325192)
(-0.704805 3.36516 2.14423)
(-1.05991 3.29419 1.91982)
(-0.579243 2.97396 1.9403)
(-1.5708 2.75456 1.34296)
(-0.937809 3.04629 1.30068)
(-0.326399 2.83253 1.42654)
(-1.7729 2.34905 1.06336)
(-0.800657 2.62517 0.763824)
(-0.387072 2.76256 0.885742)
(0.279143 3.02275 0.313118)
(-1.57561 2.11864 -0.225058)
(-1.04899 2.20039 0.364759)
(-0.0915035 2.66256 -0.331953)
(0.347792 2.48235 -0.00684627)
(-0.216239 2.00613 0.996616)
(-1.57927 1.44146 0.976186)
(-1.1063 1.86687 0.589727)
(-1.28243 1.50651 1.23665)
(-0.780001 1.34771 0.533063)
(-0.781743 1.46591 1.09577)
(-0.690599 1.78426 0.999786)
(-1.52565 0.796851 -1.37824)
(-1.18714 1.85777 -0.191609)
(-1.26549 1.82364 -0.50165)
(-0.917797 1.63797 -0.467261)
(-0.854851 1.66035 -0.795725)
(-0.834661 1.84092 0.319315)
(-0.357208 1.53354 -0.114802)
(-0.607063 3.13311 2.48106)
(-0.818953 3.19701 2.10287)
(-0.610865 2.97016 2.02204)
(-0.989236 3.24615 1.88154)
(-0.583227 2.99556 1.79021)
(-0.0477127 2.96016 1.61081)
(-1.59587 2.59695 1.52995)
(-0.996065 2.99369 1.30058)
(-0.489689 2.76108 1.53481)
(0.0973759 2.76406 1.43939)
(-2.06682 2.20068 1.0321)
(-0.932016 2.59819 0.871153)
(-0.460338 2.84622 0.809405)
(0.248878 3.00393 0.101525)
(-0.374849 2.47995 1.32494)
(-1.64407 2.06643 -0.090309)
(-1.1874 2.09482 0.499992)
(-0.254549 2.50866 -0.124452)
(-0.159368 2.19457 0.40863)
(-0.629397 1.80902 1.17845)
(-0.630734 1.46372 1.03593)
(-1.64351 1.38699 1.06827)
(-1.22961 1.78416 0.638962)
(-1.25923 1.27519 1.37941)
(-0.813639 1.32354 0.532129)
(-0.910479 1.40085 1.16158)
(-0.729971 1.81294 0.894308)
(-0.358811 1.61419 0.243205)
(-1.50033 0.811728 -1.30755)
(-1.24767 1.84397 -0.182246)
(-1.26105 1.83334 -0.520173)
(-0.975295 1.61726 -0.409814)
(-0.867301 1.64322 -0.81902)
(-0.809051 1.81088 0.341618)
(-0.32994 1.54034 -0.129753)
(0.350408 1.60662 -0.000762626)
(-0.676985 2.90188 2.44138)
(-0.40324 3.17725 2.46311)
(-0.15015 2.97985 2.31747)
(-0.800403 3.18539 2.10421)
(-0.576628 2.91816 2.07524)
(0.195837 2.90196 1.73368)
(-1.41375 2.92506 2.09364)
(-0.731254 2.90745 1.69345)
(0.093739 2.99419 1.44787)
(-0.0696835 2.75838 1.29963)
(-1.53646 2.54549 1.58326)
(-1.05512 2.90202 1.4358)
(-0.645215 2.62045 1.66795)
(0.0107883 2.80465 1.38225)
(0.556162 2.71005 1.48466)
(-2.25082 2.0615 1.05092)
(-1.16364 2.49902 1.01948)
(-0.615292 2.7897 0.837764)
(-0.215006 2.84219 0.730994)
(-0.565139 2.29736 1.45102)
(-0.134734 1.68133 0.600748)
(-1.78828 2.00529 -0.0208283)
(-1.21369 2.09866 0.502287)
(-0.385334 2.38052 -0.16219)
(-0.472466 2.0031 0.677234)
(-0.575967 1.82503 1.14722)
(-0.655232 1.48184 0.966815)
(0.0477997 1.50588 -0.0781138)
(-1.77102 1.27285 1.127)
(-1.2347 1.76113 0.775282)
(-1.32111 1.31504 1.27522)
(-0.906598 1.21884 0.603074)
(-0.964489 1.36825 1.17082)
(-0.744253 1.7753 0.967955)
(-0.360262 1.63053 0.204027)
(0.263863 1.70445 0.153496)
(-1.544 0.737601 -1.21229)
(-1.24871 1.83722 -0.178626)
(-1.27213 1.8444 -0.475883)
(-0.961859 1.64908 -0.412358)
(-0.904418 1.63068 -0.799282)
(-0.85228 1.80733 0.259627)
(-0.33098 1.56119 -0.129399)
(0.334338 1.6347 -0.00634875)
(0.704364 1.5205 -0.224907)
(-0.651015 2.71685 2.18326)
(-0.787053 2.91368 2.38931)
(-0.498413 2.93009 2.49102)
(-0.835162 3.227 2.30349)
(-0.301203 3.0076 2.40831)
(0.299553 2.87945 2.21127)
(-1.01733 3.14481 2.19765)
(-0.711637 2.87527 2.18917)
(0.240187 2.93288 1.64276)
(0.0538745 2.72518 1.8298)
(-1.40737 2.95231 2.11575)
(-0.723672 2.98547 1.60171)
(-0.36387 2.82214 1.40687)
(-0.28805 2.71342 1.24728)
(0.298418 2.64974 1.46177)
(-1.53521 2.4393 1.2561)
(-1.38836 2.74937 1.42003)
(-0.753564 2.61072 1.64074)
(-0.00551264 2.88033 1.30188)
(0.449082 2.6928 1.54902)
(0.330402 1.71739 0.883065)
(-2.27362 1.94635 1.07774)
(-1.46456 2.35613 1.18223)
(-0.846328 2.70613 0.911876)
(-0.537511 2.64255 1.15359)
(-0.705802 2.07032 1.53384)
(-0.160888 1.71691 0.793226)
(0.762416 1.5651 -0.76995)
(-2.05065 1.80508 0.0876396)
(-1.39921 1.96441 0.614506)
(-0.799411 2.12275 0.0999019)
(-0.732797 1.69625 1.1095)
(-0.800275 1.64702 1.22904)
(-0.680636 1.49174 0.951743)
(-0.000257635 1.4539 -0.109601)
(0.638847 1.48979 0.192663)
(-1.91319 1.147 1.12645)
(-1.24491 1.77109 0.8876)
(-1.34353 1.329 1.19715)
(-0.967168 1.1962 0.622466)
(-1.00812 1.33 1.1515)
(-0.784228 1.84567 0.891159)
(-0.363234 1.63703 0.142369)
(0.288547 1.72221 0.132943)
(0.995666 1.65918 -0.332335)
(-1.50789 0.782284 -1.1544)
(-1.27538 1.79768 -0.17131)
(-1.34933 1.81368 -0.387714)
(-1.04546 1.61948 -0.354065)
(-0.933407 1.62465 -0.802527)
(-0.827348 1.82629 0.247233)
(-0.281071 1.57148 -0.164198)
(0.338994 1.62029 -0.000630177)
(0.719016 1.52605 -0.235233)
(1.15335 1.21557 -0.382856)
(-0.276642 2.82936 2.3152)
(-0.981079 2.59653 2.19253)
(-0.47865 2.60181 2.17233)
(-1.04558 3.02419 2.26456)
(-0.683919 3.01254 2.46067)
(-0.24787 2.8212 2.5035)
(-0.971674 3.25222 2.18243)
(-0.735434 3.00746 2.37735)
(-0.248636 2.93417 2.27126)
(-0.0776185 2.87051 2.29351)
(-1.1464 3.05629 2.25921)
(-0.822528 2.91639 2.17319)
(-0.0519827 2.99037 1.81784)
(0.0431272 2.73555 1.7398)
(0.637634 2.6621 1.54129)
(-1.40804 2.91442 2.11016)
(-0.855353 2.96886 1.61405)
(-0.805875 2.70405 1.30736)
(-0.165777 2.72042 1.17279)
(0.500044 2.58447 1.37272)
(0.550911 2.17787 1.43542)
(-1.34931 2.30836 1.18774)
(-1.22719 2.70965 1.39039)
(-0.700335 2.64093 1.62673)
(0.000985337 2.85707 1.33632)
(0.398522 2.57659 1.5968)
(0.318198 1.71198 0.840517)
(0.443643 1.84731 0.733197)
(-2.12431 1.84134 1.10243)
(-1.4157 2.36651 1.17838)
(-0.964097 2.62203 0.982898)
(-0.64171 2.43936 1.30704)
(-0.824838 1.95627 1.4782)
(-0.0483607 1.88992 0.172649)
(0.816869 1.5574 -1.04886)
(0.651974 1.37802 0.605753)
(-2.09288 1.73611 0.0555116)
(-1.48133 1.85482 0.780794)
(-1.29704 1.699 0.588633)
(-0.780582 1.60846 1.20237)
(-0.847884 1.61393 1.24848)
(-0.709671 1.46689 0.998581)
(0.10572 1.41982 0.141208)
(0.662397 1.48648 0.134746)
(0.931368 1.4347 -0.139965)
(-1.97024 1.07999 1.07439)
(-1.34602 1.69663 1.02194)
(-1.30352 1.29289 1.1543)
(-1.0046 1.17678 0.654693)
(-1.05938 1.30463 1.09958)
(-0.805746 1.87838 0.821599)
(-0.389355 1.63761 0.068029)
(0.339 1.7297 0.096579)
(0.958248 1.65692 -0.333813)
(0.896084 1.27513 0.0713559)
(-1.5308 0.750815 -1.03885)
(-1.29701 1.78802 -0.168938)
(-1.27399 1.86523 -0.4577)
(-1.10946 1.56585 -0.323547)
(-0.949731 1.61336 -0.836652)
(-0.961313 1.74346 0.166737)
(-0.294254 1.56541 -0.173485)
(0.365543 1.61124 -0.00143445)
(0.734884 1.51458 -0.273924)
(1.14253 1.22479 -0.408512)
(1.2612 0.916572 -0.623626)
(-0.417137 2.58363 2.21275)
(-0.630153 2.70943 2.35764)
(-0.357263 2.56084 2.33923)
(-1.07342 2.5277 2.22646)
(-0.338968 2.62592 2.20016)
(-0.318233 2.58934 2.05334)
(-1.03797 3.01857 2.28271)
(-0.643565 2.95276 2.58955)
(-0.357244 3.02499 2.43529)
(-0.0444823 2.92183 2.45061)
(-1.15172 3.0954 2.25899)
(-0.703233 2.9504 2.35983)
(-0.614561 2.92265 2.30296)
(-0.129785 2.85776 2.27759)
(0.290242 2.77941 2.19404)
(-1.13809 3.08689 2.22157)
(-0.442093 3.13624 1.90178)
(-0.57328 2.96333 1.98389)
(0.0619428 2.75439 1.76884)
(0.672734 2.66017 1.54851)
(0.392741 2.44156 1.79719)
(-1.54734 2.79119 2.09712)
(-1.07831 2.77576 1.58051)
(-0.967053 2.62856 1.27474)
(-0.223447 2.68701 1.1994)
(0.326277 2.51614 1.44629)
(0.364255 2.20208 1.37008)
(0.698617 2.00779 1.02355)
(-1.33382 2.33651 0.930002)
(-1.08351 2.733 1.08257)
(-0.640798 2.72564 1.50238)
(-0.058799 2.80923 1.35926)
(0.207912 2.47581 1.55059)
(0.303908 1.78211 0.743799)
(0.501602 1.98836 0.306375)
(0.762366 1.95534 -0.0910815)
(-2.01265 1.69826 0.930102)
(-1.16429 2.39074 1.17057)
(-0.780223 2.57752 0.949543)
(-0.91466 2.15797 1.35044)
(-0.90797 1.89141 1.30516)
(-0.0107707 1.86793 0.0231321)
(0.678777 1.54194 -0.304102)
(0.862183 1.31435 0.154232)
(1.38741 1.3933 -0.105285)
(-2.17018 1.55511 0.0475743)
(-1.54021 1.69728 0.88264)
(-1.18981 1.64907 0.735468)
(-0.833137 1.49442 1.25932)
(-0.910984 1.60385 1.23309)
(-0.667708 1.47602 0.879201)
(0.175863 1.47101 0.0753255)
(0.696945 1.46268 -0.104825)
(0.864996 1.42615 -0.35004)
(1.08111 1.09765 -0.504002)
(-2.02581 1.0099 1.01649)
(-1.56996 1.55071 1.02357)
(-1.30873 1.29374 1.14358)
(-1.00718 1.156 0.617286)
(-1.08721 1.28452 1.02258)
(-0.849135 1.8834 0.700654)
(-0.352144 1.64678 -0.000458616)
(0.391278 1.7367 0.0700379)
(0.912179 1.65916 -0.269291)
(0.858396 1.304 -0.14711)
(1.09261 1.09185 -0.681959)
(-1.57684 0.722964 -0.948318)
(-1.32077 1.77138 -0.170401)
(-1.36895 1.82577 -0.317558)
(-0.985334 1.68451 -0.395429)
(-0.948709 1.61685 -0.838895)
(-0.813083 1.80906 0.194801)
(-0.269447 1.57448 -0.18072)
(0.363149 1.63764 0.0260235)
(0.735354 1.52787 -0.285154)
(1.17041 1.24312 -0.395772)
(1.21509 0.919694 -0.600506)
(1.31228 0.561793 -1.00184)
(-0.354008 2.56332 2.21373)
(-0.647246 2.57471 2.22698)
(-0.150697 2.47247 2.38095)
(-0.651482 2.72474 2.22126)
(-0.569789 2.43158 2.24335)
(-0.235042 2.44407 2.19146)
(-0.983393 2.52876 2.20347)
(-0.660528 2.67995 2.14054)
(-0.392581 2.66564 2.0509)
(-0.267078 2.6315 2.02048)
(-0.905846 3.04482 2.24052)
(-0.723981 2.97365 2.41249)
(-0.391447 3.0112 2.45012)
(-0.301553 2.99811 2.36788)
(0.37603 2.79176 2.35777)
(-1.18387 3.04869 2.31526)
(-1.06059 2.66785 2.46662)
(-0.785684 2.84994 2.40819)
(-0.617886 2.7363 2.49969)
(0.236416 2.87756 2.10995)
(0.323977 2.76118 2.31257)
(-1.16767 3.14333 2.22387)
(-0.429761 3.23164 1.86696)
(-0.679926 2.982 2.00111)
(-0.123814 2.84459 1.76244)
(0.308923 2.65956 1.55644)
(0.180703 2.49355 1.79717)
(0.517584 2.30584 1.35049)
(-1.6034 2.75754 2.14506)
(-0.945195 2.78959 1.53685)
(-1.30996 2.50965 1.10257)
(-0.277903 2.62983 1.27022)
(-0.0635832 2.44948 1.52413)
(0.293672 2.23801 1.30564)
(0.645471 2.12138 0.897269)
(1.19628 2.21394 0.569885)
(-1.21825 2.37623 0.777703)
(-1.0248 2.72888 0.825705)
(-0.737533 2.77771 1.34856)
(-0.0396409 2.74717 1.36244)
(0.0619793 2.31365 1.67631)
(0.346644 1.99076 0.5038)
(0.508673 2.08873 -0.496413)
(0.819366 1.96142 -0.108239)
(1.50135 1.54104 -0.138667)
(-1.66987 1.73867 0.643446)
(-1.15571 2.25984 1.13873)
(-0.876538 2.36598 1.06984)
(-1.07286 1.93024 1.22351)
(-0.858938 1.89968 0.838334)
(0.0417402 1.86074 -0.0766607)
(0.252831 1.36337 0.430236)
(0.949486 1.30527 -0.163243)
(1.42279 1.42812 -0.45776)
(1.67591 1.14422 -0.497185)
(-2.21574 1.36774 0.192933)
(-1.58215 1.52908 0.93063)
(-1.04985 1.62352 0.856146)
(-0.94976 1.3881 1.2344)
(-0.956485 1.59643 1.16412)
(-0.555433 1.55649 0.419428)
(0.183556 1.51963 -0.233647)
(0.68212 1.4796 -0.285535)
(0.816116 1.41884 -0.551986)
(1.21211 1.11603 -0.826483)
(1.78786 0.932215 -1.17878)
(-2.06458 0.959095 1.0616)
(-1.6949 1.46461 0.972599)
(-1.3677 1.2803 1.11157)
(-1.02541 1.15599 0.516273)
(-1.10605 1.2757 0.906071)
(-0.863848 1.89082 0.672938)
(-0.439014 1.62287 0.0281958)
(0.435955 1.74556 0.0394376)
(0.855738 1.66299 -0.0488512)
(0.873573 1.31233 -0.216568)
(1.03295 1.08789 -0.944218)
(1.60763 0.714834 -1.24019)
(-1.58875 0.697617 -0.918305)
(-1.32869 1.77176 -0.162431)
(-1.34436 1.85141 -0.343517)
(-1.137 1.61755 -0.286387)
(-0.938482 1.63134 -0.812031)
(-0.808272 1.82562 0.196621)
(-0.3402 1.60474 -0.183152)
(0.380427 1.64967 -0.0424861)
(0.72328 1.54257 -0.34416)
(1.18492 1.27823 -0.380219)
(1.15657 0.914746 -0.584121)
(1.21238 0.540853 -1.07523)
(1.55492 -0.0142908 -1.19333)
(-0.332793 2.39592 2.41003)
(-0.533076 2.40286 2.29778)
(-0.278208 2.29471 2.46377)
(-0.667678 2.55518 2.23487)
(-0.158161 2.45148 2.35682)
(-0.255442 2.34131 2.32053)
(-1.06228 2.52977 2.09243)
(-0.241452 2.54138 2.13317)
(-0.316183 2.50147 2.07607)
(-0.192798 2.39122 2.16342)
(-1.02596 2.63299 2.18699)
(-0.751061 2.59342 2.12005)
(-0.635297 2.71116 1.94172)
(-0.262715 2.66391 1.98728)
(0.0683878 2.58208 2.14912)
(-1.07418 2.83984 2.37493)
(-0.702494 2.94371 2.41401)
(-0.398239 3.07181 2.32767)
(-0.227738 3.01478 2.34753)
(0.0946258 2.84965 2.25941)
(0.012555 2.78825 2.365)
(-1.52909 2.8752 2.33107)
(-0.976149 2.8883 2.32957)
(-1.0482 2.72543 2.52913)
(-0.347944 3.0772 2.14795)
(-0.152774 2.82147 2.22907)
(0.0619424 2.82867 2.28137)
(0.449482 2.59683 2.17134)
(-1.43814 3.04213 2.35098)
(-0.772797 3.09453 2.06445)
(-0.724954 2.95084 2.01633)
(-0.225843 2.81512 1.80151)
(0.124662 2.6248 1.67477)
(0.100408 2.52329 1.76634)
(0.53188 2.3815 1.30852)
(0.664117 2.59553 1.29663)
(-1.98512 2.61392 2.15353)
(-1.32027 2.68765 1.5108)
(-1.39866 2.4672 1.04681)
(-0.468083 2.58245 1.29833)
(-0.076746 2.44177 1.38588)
(0.200314 2.27687 1.34156)
(0.914365 2.07358 1.18048)
(1.01987 2.30246 0.642702)
(1.60088 2.0691 0.303603)
(-1.14296 2.41534 0.473115)
(-1.17881 2.64669 0.610878)
(-0.574517 2.94844 0.904298)
(-0.157525 2.71486 1.21115)
(-0.27408 2.17345 1.08276)
(-0.390471 1.94615 1.50826)
(0.658827 2.06172 -1.3406)
(0.872223 1.96388 -0.049068)
(1.46314 1.42517 -0.147085)
(1.32524 1.1477 0.220593)
(-1.18394 1.92631 0.0865473)
(-1.04686 2.22352 0.748318)
(-1.0505 2.15156 1.07122)
(-1.26227 1.72131 0.833371)
(-0.985193 1.867 0.593476)
(0.141202 1.90478 -0.193908)
(0.292291 1.33108 0.533683)
(1.07017 1.36638 -0.485701)
(1.43292 1.43971 -0.750582)
(1.60269 1.21104 -0.858841)
(1.71814 1.08666 -0.725878)
(-2.16365 1.24038 0.321658)
(-1.47688 1.48894 0.56458)
(-0.997906 1.61469 0.64738)
(-1.04782 1.34435 1.14797)
(-0.975253 1.62886 0.949113)
(-0.482734 1.6088 0.201214)
(0.243335 1.56979 -0.431259)
(0.641654 1.48498 -0.505225)
(0.704524 1.38931 -0.86236)
(1.34583 1.14115 -0.980488)
(1.7105 0.89962 -1.37084)
(1.97858 0.297462 -1.06992)
(-2.16765 0.830651 1.0584)
(-1.73852 1.41039 0.96288)
(-1.39991 1.24409 1.0955)
(-1.03757 1.16585 0.488704)
(-1.11163 1.26767 0.792809)
(-0.91064 1.9039 0.575765)
(-0.482143 1.59375 0.027021)
(0.481215 1.74574 0.0386572)
(0.783065 1.65968 0.219993)
(0.96826 1.37189 -0.207287)
(0.955284 1.07093 -1.2237)
(1.90238 0.789639 -1.1867)
(1.98924 -0.274522 -1.22225)
(-1.5594 0.697381 -0.906982)
(-1.36173 1.75703 -0.167746)
(-1.38641 1.83987 -0.327511)
(-1.15696 1.56118 -0.289263)
(-0.932308 1.64508 -0.747998)
(-0.789499 1.8391 0.200018)
(-0.325116 1.60807 -0.204284)
(0.390821 1.63257 -0.0659067)
(0.733107 1.54698 -0.359162)
(1.17663 1.2685 -0.47352)
(1.08543 0.901681 -0.584735)
(1.12258 0.503246 -1.14478)
(1.49972 -0.0228031 -1.26967)
(0.930183 -0.505376 -1.79324)
(-0.370768 2.23812 2.40234)
(-0.537649 2.31558 2.41435)
(-0.136341 2.27469 2.50642)
(-0.663018 2.36457 2.30477)
(-0.425038 2.30867 2.42076)
(-0.0625919 2.35286 2.35473)
(-0.792695 2.51906 2.19949)
(-0.590452 2.36517 2.27315)
(-0.382605 2.26343 2.23152)
(-0.225422 2.22819 2.20731)
(-1.01263 2.54104 2.08148)
(-0.595424 2.4765 2.19482)
(-0.359347 2.47248 2.1523)
(-0.180487 2.33834 2.24479)
(-0.0452026 2.3925 2.17145)
(-1.15084 2.67292 2.22446)
(-0.802329 2.62609 2.16225)
(-0.769733 2.69297 1.91278)
(-0.458879 2.64134 1.95675)
(-0.161409 2.65597 2.05479)
(0.0104074 2.66158 2.11465)
(-1.27706 2.82234 2.18498)
(-1.21462 2.77506 2.13194)
(-0.921862 2.9733 2.19268)
(-0.618075 3.00965 2.19801)
(-0.0340896 2.87569 2.2844)
(-0.0515454 2.81124 2.33763)
(0.156238 2.76549 2.28461)
(-1.65964 2.71408 2.40694)
(-1.02082 2.89837 2.59633)
(-1.06409 2.87206 2.54045)
(-0.423295 3.13321 2.04851)
(-0.293685 3.03785 1.97424)
(-0.0319943 2.82006 2.25404)
(0.526372 2.6944 2.05723)
(0.584414 2.56978 2.1527)
(-1.59857 2.92834 2.43263)
(-0.947504 3.08823 2.19976)
(-0.691678 2.90592 2.07067)
(-0.428279 2.75032 1.82308)
(-0.089247 2.6394 1.52306)
(-0.0649525 2.56911 1.64687)
(0.3788 2.49193 1.36424)
(0.83586 2.46585 1.30621)
(0.979676 2.80649 1.04408)
(-1.7639 2.77832 1.83605)
(-1.07646 2.90844 1.69448)
(-1.37215 2.4666 1.11209)
(-0.699253 2.50851 1.37263)
(-0.092292 2.37881 1.26545)
(0.203939 2.37708 1.26112)
(0.509197 2.37665 1.05871)
(1.00834 2.30564 0.699007)
(1.62194 2.15872 0.121762)
(1.33764 1.98823 0.307629)
(-1.22332 2.30257 0.337379)
(-1.18668 2.64403 0.638935)
(-0.494808 2.98583 0.686076)
(-0.324436 2.5714 1.17979)
(-0.024823 2.08672 0.982835)
(0.121948 2.49311 0.295905)
(0.661801 2.08571 -1.34249)
(0.893557 1.82965 0.0678984)
(1.20817 1.34877 -0.057815)
(1.07735 1.10787 0.153905)
(0.817509 1.13753 0.508424)
(-1.12437 1.92378 -0.178168)
(-1.11581 2.10018 0.0732509)
(-1.29571 1.85785 0.285453)
(-1.32824 1.55757 0.0597039)
(-0.853668 1.97161 0.26091)
(0.316766 1.90833 -0.503549)
(0.396564 1.37971 0.239151)
(1.09007 1.48044 -0.761504)
(1.34523 1.47461 -0.981411)
(1.48395 1.22547 -1.0986)
(1.64729 1.1697 -0.842649)
(2.10364 1.1875 -0.393092)
(-2.17561 1.05186 0.400877)
(-1.33305 1.54866 -0.058818)
(-0.944822 1.65008 0.24264)
(-1.06105 1.34777 0.934649)
(-0.940249 1.67724 0.723035)
(-0.426356 1.62305 0.0231399)
(0.304392 1.65957 -0.428979)
(0.51759 1.43879 -0.784852)
(0.705524 1.39671 -1.04704)
(1.25159 1.10853 -1.24024)
(1.6142 0.845888 -1.41045)
(1.91737 0.234972 -1.06192)
(1.93622 -0.161401 -0.234157)
(-2.20461 0.77824 1.03977)
(-1.78569 1.35141 0.945315)
(-1.38705 1.25533 1.06441)
(-1.05637 1.17589 0.41494)
(-1.10711 1.25794 0.649565)
(-0.944615 1.89573 0.548217)
(-0.391072 1.59644 -0.0556405)
(0.49545 1.75054 0.000426976)
(0.706205 1.65227 0.196538)
(0.960412 1.45432 -0.407969)
(0.95512 1.09447 -1.40945)
(2.1202 0.793735 -1.18421)
(1.96195 -0.346787 -1.22016)
(0.792289 -0.884589 -0.862106)
(-1.57472 0.692901 -0.854874)
(-1.37344 1.75277 -0.170053)
(-1.4109 1.81939 -0.3185)
(-1.16694 1.56201 -0.296126)
(-0.931272 1.65762 -0.631776)
(-0.801129 1.832 0.200309)
(-0.289483 1.57729 -0.224326)
(0.386411 1.63445 -0.081795)
(0.742778 1.54868 -0.404002)
(1.16441 1.25304 -0.536905)
(1.00229 0.882945 -0.591624)
(1.14934 0.486711 -1.12)
(1.4612 -0.0328845 -1.34548)
(0.866465 -0.517498 -1.82684)
(-0.367365 -0.752325 -1.10025)
(-0.403078 2.13011 2.30064)
(-0.509326 2.21695 2.42847)
(-0.19878 2.24893 2.46704)
(-0.612715 2.26812 2.4213)
(-0.374553 2.21664 2.513)
(-0.126122 2.22567 2.45387)
(-0.739517 2.34955 2.3264)
(-0.396147 2.36681 2.40333)
(-0.197538 2.33462 2.32468)
(-0.0458345 2.17226 2.31289)
(-0.82696 2.43732 2.18728)
(-0.716733 2.36704 2.24065)
(-0.412581 2.24086 2.20413)
(-0.276263 2.21404 2.19819)
(-0.00126884 2.19694 2.20076)
(-0.93958 2.57363 2.08839)
(-0.723005 2.45848 2.20224)
(-0.479917 2.44781 2.14475)
(-0.40256 2.39208 2.18353)
(-0.0860701 2.40654 2.16545)
(0.192263 2.31663 2.21443)
(-1.2564 2.5883 2.21165)
(-1.08584 2.63476 2.19161)
(-0.844015 2.75936 1.93366)
(0.074551 2.79274 1.90254)
(-0.24765 2.67746 2.01561)
(-0.0218517 2.63348 2.08082)
(0.209904 2.50452 2.09681)
(-1.4093 2.75057 2.03281)
(-1.44302 2.80417 1.79037)
(-0.9478 2.94037 2.07106)
(-0.150143 2.95122 2.16706)
(-0.25037 2.86293 2.25456)
(-0.0983177 2.8461 2.28963)
(0.0917334 2.81647 2.26757)
(0.382407 2.80372 2.31445)
(-1.77879 2.70512 2.27973)
(-1.6256 2.93202 2.24375)
(-1.29986 2.9452 2.43057)
(-0.487495 3.14846 1.99947)
(-0.164854 2.73714 2.41396)
(-0.351016 2.69925 2.36961)
(0.119366 2.76663 2.1866)
(0.755564 2.70012 2.02848)
(0.861774 2.77555 2.0418)
(-1.42089 2.97863 2.32327)
(-1.35258 2.92476 2.444)
(-1.04222 2.71338 2.26114)
(-0.488301 2.72228 1.89134)
(-0.149307 2.63641 1.43151)
(-0.11899 2.62299 1.57337)
(0.324649 2.55528 1.49977)
(0.977555 2.56587 1.30895)
(1.08744 2.73013 1.06418)
(1.13292 2.7572 0.926901)
(-1.13948 3.30882 0.943341)
(-2.06988 2.3431 1.65817)
(-1.33259 2.56412 1.37402)
(-0.839811 2.44232 1.44639)
(-0.31819 2.26528 1.29745)
(0.16692 2.34403 1.26928)
(0.482443 2.34709 1.01965)
(1.02687 2.358 0.398387)
(1.33168 2.09474 0.411381)
(0.841419 1.81811 0.764757)
(0.530626 1.6842 0.941454)
(-1.43138 2.08192 0.341407)
(-1.34193 2.72073 0.418822)
(-0.629527 2.89172 0.382602)
(-0.470063 2.35382 1.07524)
(-0.397798 2.14438 0.674867)
(0.296762 2.50684 0.0328829)
(0.354655 2.03815 -0.230487)
(0.836311 1.5866 0.0828465)
(0.973125 1.22819 0.134557)
(0.886003 1.08946 0.108933)
(0.679912 1.17492 0.571922)
(0.949492 1.3753 0.6199)
(-1.1748 1.88031 -0.315313)
(-1.34479 1.73857 -0.552741)
(-1.42145 1.71511 -0.235433)
(-1.23152 1.57987 -0.34292)
(-0.764899 2.02128 0.0921673)
(0.347347 1.89201 -0.54588)
(0.421989 1.45115 -0.177755)
(0.989825 1.53527 -1.03336)
(1.25741 1.47884 -1.02697)
(1.34703 1.22172 -1.20869)
(1.49143 1.17952 -0.783923)
(1.97632 1.17018 -0.339885)
(1.7678 1.35888 0.408737)
(-1.94543 1.15943 0.103024)
(-1.33333 1.56808 -0.272974)
(-0.892776 1.68872 -0.0386128)
(-0.999882 1.41531 0.518246)
(-0.949172 1.69327 0.574106)
(-0.370474 1.6478 -0.0493148)
(0.373362 1.68934 -0.550531)
(0.441905 1.42594 -0.940154)
(0.698172 1.38678 -1.2131)
(1.21247 1.0895 -1.34866)
(1.56406 0.758732 -1.40873)
(2.00452 0.089601 -1.05867)
(1.58013 -0.122381 -0.124088)
(0.101552 -0.0752523 0.912617)
(-2.21181 0.73612 1.01773)
(-1.82788 1.29922 0.877796)
(-1.39828 1.25134 1.01449)
(-1.07723 1.18378 0.273561)
(-1.12055 1.2532 0.37179)
(-0.942919 1.91907 0.45115)
(-0.356696 1.6072 -0.0748441)
(0.512105 1.78154 0.0583156)
(0.654574 1.6555 0.132863)
(1.08528 1.51124 -0.42194)
(1.10747 1.1443 -1.41789)
(2.20494 0.796645 -1.19437)
(1.94079 -0.301992 -1.24749)
(0.705472 -0.914112 -0.863953)
(-0.791759 -0.35739 -0.691592)
(-1.59814 0.689659 -0.798549)
(-1.41487 1.7069 -0.192475)
(-1.41801 1.82926 -0.338049)
(-1.20546 1.55476 -0.276727)
(-0.932611 1.66274 -0.505867)
(-0.808256 1.81553 0.181678)
(-0.319288 1.61464 -0.211048)
(0.385614 1.64624 -0.0853853)
(0.743792 1.5668 -0.432909)
(1.16857 1.261 -0.533941)
(0.921294 0.834217 -0.637396)
(1.2457 0.504794 -1.02583)
(1.4645 -0.0355827 -1.36966)
(0.880183 -0.516992 -1.82949)
(-0.378447 -0.742988 -1.10371)
(-0.751882 -0.462249 -1.19225)
(-0.355739 1.96531 2.27016)
(-0.550487 2.08626 2.3211)
(-0.262512 2.17617 2.37965)
(-0.562284 2.22646 2.41221)
(-0.412154 2.24891 2.46579)
(-0.016582 2.35074 2.36132)
(-0.688211 2.14734 2.48159)
(-0.479066 2.22135 2.49435)
(-0.241143 2.20615 2.46862)
(0.0396952 2.1247 2.35885)
(-0.918899 2.27938 2.2804)
(-0.585597 2.30467 2.36505)
(-0.398809 2.29941 2.31393)
(-0.226227 2.13419 2.32713)
(0.00786138 2.07213 2.26118)
(-0.911008 2.40983 2.18954)
(-0.81446 2.32989 2.25467)
(-0.646742 2.27125 2.21658)
(-0.441387 2.25433 2.17976)
(-0.0252315 2.22535 2.18277)
(0.190764 2.21978 2.09923)
(-1.02543 2.52281 2.09952)
(-1.06949 2.41958 2.05723)
(-0.656343 2.39867 2.09367)
(-0.37874 2.43822 2.07383)
(-0.131277 2.42531 2.14027)
(-0.0917514 2.44759 2.04412)
(0.159525 2.4173 1.88684)
(-1.28829 2.57062 2.21241)
(-1.14673 2.60334 2.17324)
(-0.908062 2.80517 1.91851)
(-0.429442 2.70923 1.99367)
(-0.0931313 2.73494 2.01094)
(-0.215521 2.62976 2.02427)
(0.157248 2.53918 2.06086)
(0.450165 2.53387 2.06138)
(-1.66324 2.56645 1.89679)
(-1.63547 2.73831 1.74995)
(-1.32396 2.76784 1.96032)
(-0.798689 2.77844 2.06645)
(-0.208006 2.83954 2.29848)
(-0.237256 2.84126 2.31387)
(-0.0414659 2.86662 2.26741)
(0.212342 2.82381 2.30726)
(0.765451 2.7572 2.27072)
(-1.61454 2.66229 2.53248)
(-1.7102 2.88565 2.27433)
(-1.41312 2.98826 2.44)
(-0.756016 3.11982 2.0445)
(-0.755894 2.73612 2.31343)
(-0.588399 2.65594 2.40259)
(0.111812 2.84532 2.10962)
(0.395622 2.79045 2.12729)
(0.856015 2.88076 1.97141)
(0.705318 2.82722 1.96435)
(-1.3426 3.06436 2.26805)
(-1.54579 2.87513 2.55504)
(-1.18017 2.6968 2.41797)
(-0.760373 2.65206 1.83367)
(-0.411999 2.64996 1.46916)
(-0.30406 2.69895 1.44253)
(0.28814 2.76628 1.41347)
(0.788109 2.84512 1.11138)
(0.832074 2.87803 1.03117)
(0.779075 2.86386 0.866376)
(0.226298 2.3711 1.43129)
(-1.54753 3.01169 1.05384)
(-1.8919 2.40219 1.44919)
(-1.81415 2.50657 1.29177)
(-1.00258 2.3973 1.29232)
(-0.589348 2.24627 1.10907)
(-0.0698692 2.33618 1.11514)
(0.409358 2.42272 1.04176)
(1.02528 2.27483 0.351858)
(1.02355 1.94379 0.671555)
(0.481297 1.57588 0.986668)
(0.305704 1.63569 1.09351)
(0.339122 1.81278 1.00824)
(-1.50344 1.99752 0.226311)
(-1.63088 2.52972 0.219381)
(-1.21043 2.48939 0.582819)
(-0.837705 2.03458 0.498531)
(-0.582356 2.12815 0.398551)
(0.240652 2.557 -0.148046)
(0.167102 1.85132 0.616294)
(0.73496 1.42135 0.150391)
(0.811728 1.20988 0.183023)
(0.781986 1.12495 0.09294)
(0.488343 1.23338 0.696172)
(0.889749 1.45495 0.613521)
(0.85326 1.68639 1.14252)
(-1.10128 1.90995 -0.302871)
(-1.32725 1.75833 -0.653494)
(-1.41017 1.71508 -0.472836)
(-1.22807 1.50453 -0.654517)
(-0.5462 2.10062 -0.0660696)
(0.194932 1.75023 -0.187931)
(0.443469 1.47517 -0.465514)
(0.881853 1.54556 -1.07387)
(1.0506 1.4293 -1.07527)
(1.19706 1.17883 -1.25187)
(1.17908 1.16393 -0.620579)
(1.80339 1.14145 -0.139941)
(1.37187 1.07413 0.430196)
(-0.484955 1.11153 1.04622)
(-1.66469 1.40228 -0.308776)
(-1.24812 1.67876 -0.520593)
(-0.866192 1.70706 -0.279723)
(-0.957624 1.45709 0.0326208)
(-0.893801 1.69532 0.0868476)
(-0.474742 1.60234 -0.288843)
(0.323361 1.70928 -0.72697)
(0.399295 1.43183 -1.07876)
(0.682228 1.40904 -1.27685)
(1.14273 1.08019 -1.43668)
(1.58289 0.789347 -1.33829)
(1.94415 0.0771959 -1.05088)
(1.38178 -0.571861 -0.455557)
(0.10168 -0.0267298 0.807629)
(-0.669776 0.508819 0.720233)
(-2.18772 0.627738 1.08249)
(-1.85609 1.21471 0.839493)
(-1.44004 1.17719 1.01614)
(-1.09654 1.20495 0.204506)
(-1.11781 1.23204 -0.146265)
(-0.963382 1.93227 0.313396)
(-0.317032 1.63261 -0.0784705)
(0.493732 1.77502 -0.0136582)
(0.562316 1.64842 -0.123827)
(0.8318 1.52661 -0.832512)
(1.32047 1.23689 -1.23643)
(2.21721 0.781957 -1.18209)
(1.95032 -0.33189 -1.29831)
(0.631698 -0.933107 -0.840076)
(-0.804639 -0.361661 -0.722757)
(-0.963516 0.0579905 -0.49534)
(-1.61338 0.667914 -0.754828)
(-1.43753 1.69419 -0.199558)
(-1.47824 1.80432 -0.337351)
(-1.21436 1.54575 -0.273192)
(-0.941875 1.66346 -0.362556)
(-0.823614 1.79 0.152797)
(-0.306905 1.63983 -0.234996)
(0.407372 1.66057 -0.120408)
(0.754251 1.58063 -0.470306)
(1.13628 1.2433 -0.540679)
(0.905362 0.812308 -0.696055)
(1.35776 0.541381 -0.910724)
(1.4654 -0.0392797 -1.36738)
(0.839881 -0.529907 -1.8546)
(-0.369673 -0.75393 -1.10742)
(-0.738529 -0.459456 -1.20888)
(-0.611941 -0.511833 -1.45821)
(-0.329813 1.77412 2.25828)
(-0.53516 1.9348 2.289)
(-0.274608 1.98896 2.30277)
(-0.614956 2.13638 2.26606)
(-0.271227 2.19681 2.35565)
(-0.0639063 2.28804 2.31734)
(-0.735421 2.12491 2.40574)
(-0.415072 2.15454 2.53107)
(-0.0497244 2.2476 2.4582)
(-0.140949 2.17285 2.36197)
(-0.837647 2.16337 2.42412)
(-0.547536 2.27305 2.40287)
(-0.384746 2.22509 2.39583)
(-0.136457 2.19929 2.32829)
(0.047659 1.98841 2.3644)
(-0.938669 2.25213 2.29467)
(-0.559238 2.21756 2.43792)
(-0.579266 2.21749 2.28809)
(-0.232162 2.10278 2.32857)
(-0.18964 2.12413 2.14889)
(0.10852 2.09567 2.13832)
(-1.21253 2.36101 2.15714)
(-0.962365 2.30905 2.20402)
(-0.737601 2.27502 2.18149)
(-0.107554 2.35374 2.19645)
(-0.261168 2.26212 2.17446)
(0.027661 2.22557 2.12316)
(0.572652 2.20379 2.04869)
(-1.28449 2.37455 2.14128)
(-0.857359 2.34344 2.37043)
(-0.665926 2.53586 1.98327)
(-0.564432 2.49673 2.06325)
(-0.260305 2.52119 2.02937)
(-0.229951 2.44398 1.95824)
(0.170821 2.31239 1.94812)
(0.339638 2.1085 2.15847)
(-1.59104 2.52242 2.12427)
(-1.16567 2.57287 2.12586)
(-1.03788 2.66055 1.94689)
(-0.81663 2.59005 2.09707)
(-0.604767 2.6267 2.07065)
(-0.321788 2.6043 2.04882)
(0.0789251 2.52649 2.0638)
(0.168119 2.62532 2.00858)
(0.813085 2.45099 2.05294)
(-1.6905 2.55425 1.93825)
(-1.6035 2.69993 1.84238)
(-1.08492 2.78505 2.03383)
(-0.374184 3.01258 1.88335)
(-0.691913 2.74482 2.24247)
(-0.346543 2.82222 2.33419)
(-0.0107428 2.87157 2.29122)
(0.133435 2.8905 2.33667)
(0.523203 2.77996 2.2636)
(0.357203 2.74206 2.27513)
(-1.88534 2.7757 2.22437)
(-1.76018 2.80281 2.46431)
(-1.44369 2.98397 2.47977)
(-0.978852 3.00369 2.09137)
(-0.646351 2.785 2.31779)
(-0.193161 2.78567 2.37476)
(-0.0679256 2.84814 2.15736)
(0.0680287 2.93676 2.02839)
(0.396524 2.90631 2.07552)
(0.261442 2.87972 2.08108)
(0.271566 2.67904 2.2147)
(-1.82667 2.88531 2.20309)
(-1.64043 2.60142 2.59449)
(-1.4566 2.52695 2.52477)
(-0.848687 2.6007 1.87562)
(-0.844211 2.50447 1.65349)
(-0.303504 2.65877 1.42905)
(-0.134291 2.70777 1.71237)
(0.655853 2.92074 0.970512)
(0.608892 2.89093 1.20665)
(0.601678 2.74986 1.11123)
(-0.119316 2.26671 1.58594)
(0.0196012 2.32155 1.74659)
(-1.52006 3.01523 1.09009)
(-1.56634 2.73567 1.24822)