/*--------------------------------*- C++ -*----------------------------------*\
  =========                 |
  \\      /  F ield         | OpenFOAM: The Open Source CFD Toolbox
   \\    /   O peration     | Website:  https://openfoam.org
    \\  /    A nd           | Version:  7
     \\/     M anipulation  |
\*---------------------------------------------------------------------------*/
FoamFile
{
    version     2.0;
    format      ascii;
    class       volScalarField;
    location    "2";
    object      nut;
}
// * * * * * * * * * * * * * * * * * * * * * * * * * * * * * * * * * * * * * //

dimensions      [0 2 -1 0 0 0 0];

internalField   nonuniform List<scalar> 
18750
(
0.00100009
0.000678388
0.000889129
0.00105585
0.00147877
0.000976163
0.00166223
0.000765678
0.000911422
0.000672361
0.00132917
0.00144327
0.00378045
0.00105058
0.0014427
0.000420018
0.000862556
0.0010547
0.000855486
0.000184469
0.00210327
0.00150454
0.00262913
0.0012452
0.000703442
0.000940665
0.000869997
0.00104087
0.000514051
0.000570061
0.00104598
0.00125472
0.000936115
0.000194218
0.000122869
0.00295533
0.00146259
0.0014203
0.00117425
0.00268951
0.00125749
0.0012315
0.0011688
0.000820198
0.00113131
0.000780648
0.000796928
0.000562933
0.000478703
0.000768214
0.00115168
0.00131797
0.000909538
0.000201345
6.63582e-05
0.000137653
0.00231713
0.00229869
0.00139639
0.00155019
0.00115553
0.00079362
0.00108563
0.000993048
0.00140365
0.000808798
0.0011683
0.00168477
0.000732402
0.000781494
0.00068118
0.000720288
0.00102654
0.000688617
0.000390796
0.000872988
0.000901178
0.00116699
0.00124399
0.000772826
0.00023248
0.000275636
0.000251492
0.000137053
0.0030906
0.00219192
0.00136493
0.00214584
0.000402668
0.00127456
0.00201382
0.00168382
0.000592589
0.000406368
0.00170705
0.000835694
0.00101013
0.000718727
0.000670186
0.000847015
0.00105921
0.000671202
0.00111155
0.000942802
0.000570597
0.000644637
0.00117599
0.000780809
0.000409146
0.000579312
0.000557546
0.000289955
0.00109804
0.001073
0.000499929
0.000283051
0.000342944
7.59076e-05
0.000173693
0.000144179
0.00202652
0.00228395
0.00134224
0.00249792
0.00115335
0.000818913
0.00212625
0.000751447
0.000966298
0.000713189
0.00204858
0.00105147
0.00129045
0.000231784
0.000518965
0.00133747
0.000749762
0.000852447
0.000847855
0.000741941
0.000942653
0.00101732
0.0010571
0.000499789
0.000805787
0.000967269
0.00051853
0.000511261
0.000535407
0.00121281
0.000602278
0.000571847
0.000489621
0.000371762
0.000268781
0.000299331
0.000918578
0.000809977
0.000237327
0.000344202
0.000146496
5.02394e-05
0.000150934
0.000191758
8.7638e-05
0.00247548
0.00206613
0.000554379
0.00233656
0.000934134
0.000923058
0.0024935
0.00123965
0.000663528
0.00076929
0.00204522
0.000960931
0.000759479
0.000808522
0.000745154
0.00204325
0.00120917
0.00102432
0.000480664
0.000664831
0.000666293
0.00154734
0.00100138
0.000699574
0.000737631
0.000670792
0.000805661
0.00154878
0.00100493
0.000773507
0.000403097
0.000521925
0.000699633
0.000535564
0.000581936
0.000620287
0.000511207
0.00119289
0.000636389
0.000369909
0.00120594
0.000493916
0.00026022
0.000296285
0.000140459
0.000593751
0.000504862
0.000576198
0.000478015
8.14884e-05
9.13921e-05
0.00016302
0.000250958
0.000117799
0.000191216
0.00250273
0.00242214
0.00109938
0.00232558
0.000645667
0.000550532
0.00257945
0.000691599
0.000818794
0.000609881
0.00231034
0.00130452
0.000521441
0.000520917
0.000532803
0.0021725
0.0014398
0.000871744
0.000497845
0.000305886
0.000358863
0.00226884
0.00109728
0.000213569
0.000471569
0.000453855
0.000581012
0.000368951
0.00136072
0.000986901
0.000667022
0.00107732
0.00106026
0.000918032
0.000347569
0.000752386
0.00103
0.000663383
0.000393077
0.000549183
0.000787884
0.000610988
0.000556543
0.000535377
0.000544756
0.000485777
0.0010872
0.00087751
0.000378378
0.000701777
0.000325117
0.000231069
0.00029799
0.000538264
0.000269857
0.000408592
0.000363408
0.000709324
0.00059268
0.00024949
0.000141947
0.000167345
0.000281343
9.1696e-05
0.000109315
0.000138931
0.00247311
0.00244775
0.00039105
0.00239855
0.000804524
0.000605796
0.00235053
0.0008773
0.000726224
0.000778352
0.00226992
0.000878603
0.000959511
0.000697963
0.000785759
0.00224513
0.000789117
0.000534488
0.00040299
0.000454484
0.000582269
0.00228926
0.0012406
0.000504073
0.000602599
0.000376262
6.26728e-05
0.00065351
0.00228706
0.00126451
0.000549873
0.000244148
0.000403782
0.000688807
0.000361551
0.000600276
0.00120614
0.00140665
0.000219249
0.00105721
0.000712283
0.000467795
0.000963192
0.000633633
0.000699864
0.000910686
0.00049716
0.00108184
0.000693119
0.000805614
0.00075075
0.000427028
0.00050669
0.00049002
0.0003381
0.000206005
0.000988862
0.000477594
0.000676668
0.0004609
0.000293301
0.00022785
0.000287624
0.000310008
0.000305976
0.000134361
0.000551027
0.000368626
0.000770767
0.000567809
0.000105249
0.0001402
0.000126268
0.000284908
0.000111103
0.000145515
0.000171964
0.000245296
0.00228339
0.00251521
0.000426762
0.00267835
0.00243168
0.000878979
0.000276523
0.00231315
0.000872631
0.000513978
0.000611102
0.00226652
0.00111258
0.000695353
0.000666943
0.000586256
0.00246065
0.000748859
0.000865492
0.000527783
0.000603068
0.000693685
0.00229252
0.00112811
0.00112987
0.000567237
0.000691888
0.000580615
0.000880069
0.00235831
0.00140351
0.00150407
0.00083305
0.000874046
0.000250107
0.00027958
0.000491256
0.00193724
0.00114129
0.000959942
0.000357127
0.000725371
0.000527818
0.000366097
0.000238985
0.000363798
0.00139838
0.0013473
0.000317964
0.000456741
0.000731067
0.000593847
0.000954354
0.000576792
0.000687824
0.00084125
0.000908279
0.000645408
0.000934432
0.000691974
0.000624765
0.00077411
0.000514832
0.000688165
0.000574639
0.000380582
0.000585925
0.000258946
0.000952593
0.000461624
0.000473182
0.000444649
0.000299743
0.000317169
0.000310695
0.00021156
0.000426354
0.000190618
0.00047416
0.000502089
0.000381613
0.000754002
0.000497344
0.000198482
0.000180155
0.000142674
0.00026809
0.000190753
0.00014556
0.000143194
0.000247274
0.000241058
0.00201822
0.00226274
0.000343686
0.00250544
0.00252094
0.000628414
0.000633865
0.000543687
0.00244467
0.000727049
0.000590491
0.000585997
0.00222177
0.000699396
0.000662131
0.000562354
0.000414448
0.0024767
0.00101709
0.000948185
0.000525224
0.000500397
0.000601982
0.00245083
0.000907134
0.0007239
0.000713763
0.000597547
0.000646352
0.00105104
0.00243163
0.00144151
0.000711616
0.000535557
0.000312779
0.000677183
0.00117528
0.000704207
0.00240957
0.00120915
0.000635959
0.000436912
0.000358683
0.0005426
0.000376991
0.000651045
0.000565757
0.00199958
0.0013
0.000627537
0.00057383
0.000415642
0.000946241
0.000855079
0.000280838
0.000518056
0.000521903
0.00124273
0.000896799
0.0007359
0.000496771
0.000616136
0.00039605
0.000802714
0.000567267
0.00067407
0.00103889
0.000943417
0.000947497
0.000656038
0.000495004
0.000427314
0.000661929
0.000749854
0.000792321
0.000929919
0.000523987
0.000414173
0.000480253
0.000356936
0.000400778
0.000846564
0.000416245
0.000376813
0.0006294
0.000268502
0.000283225
0.000316225
0.000255967
0.000229154
0.000224043
0.000516773
0.000513498
0.00056184
0.000387381
0.000720031
0.00028098
0.000212559
0.000116611
0.000160225
0.000237008
0.000244055
0.00010666
0.000145758
0.000233944
0.000232538
0.000138718
0.00206212
0.00202918
0.000656915
0.00217618
0.00235182
0.000667032
0.000730301
0.000410635
0.00257419
0.000666138
0.000589789
0.000452524
0.000406468
0.00246506
0.000676649
0.000457889
0.000425468
0.000585097
0.00223834
0.000787009
0.000755838
0.000641721
0.00072352
0.000761771
0.00248885
0.000978385
0.000675895
0.000937341
0.000442499
0.000810541
0.000602535
0.00250454
0.000876733
0.000736509
0.0012405
0.000604062
0.000674825
0.000465985
0.000610683
0.00239197
0.00100308
0.000653364
0.00091657
0.000280792
0.000565735
0.000465602
0.000704685
0.000491762
0.00237231
0.00124005
0.00079132
0.000304725
0.000477813
0.000171955
0.000835516
0.000292198
0.000542782
0.000702632
0.00193856
0.00120078
0.00105697
0.000304735
0.00056549
0.000560183
0.000807835
0.000820949
0.000506157
0.000522788
0.000595539
0.00101605
0.00084882
0.000394652
0.000640029
0.000745929
0.00065521
0.00141187
0.000877042
0.000868779
0.000964351
0.000890046
0.000695939
0.000769592
0.000733653
0.00130068
0.00202121
0.00134838
0.000773906
0.000493464
0.000637368
0.000506208
0.000340997
0.000359835
0.000234203
0.000413257
0.000454396
0.000530372
0.000530412
0.000789939
0.000269185
0.000392978
0.000194887
0.000265631
0.000308607
0.000149672
0.000227075
0.000191817
0.000519509
0.000496569
0.000612567
0.000369425
0.000609018
0.000265576
0.000216723
0.00017897
0.000156346
0.000184754
9.53674e-05
0.000154457
0.000171067
0.000198751
0.000190285
0.000149672
0.000144604
0.0021536
0.00201968
0.000287909
0.00216547
0.00208295
0.000578169
0.000341556
0.00067766
0.00239729
0.000618472
0.000472605
0.000673821
0.000610036
0.00244801
0.000772995
0.00026697
0.000411858
0.000484432
0.000651675
0.00252428
0.000851198
0.000392549
0.000413258
0.000268717
0.000449539
0.00223215
0.00067136
0.000687445
0.000676807
0.000547673
0.000381412
0.000575385
0.00226657
0.000542121
0.00079136
0.00100852
0.000475903
0.000651909
0.000671908
0.000299184
0.00272598
0.000875024
0.000960289
0.000749729
0.000648339
0.000573729
0.000609261
0.000544165
0.00066793
0.00244639
0.000967732
0.000759283
0.000593391
0.000571833
0.000150503
0.000358541
0.00044875
0.000557329
0.000579878
0.00276445
0.00124364
0.000604497
0.000994446
0.000487833
0.000554483
0.000270009
0.00092657
0.000365167
0.000802928
0.000430592
0.00219543
0.000975811
0.000734035
0.00140718
0.000113452
0.000807464
0.00044065
0.00054017
0.000495829
0.000353718
0.000897891
0.000741702
0.00172407
0.00124399
0.000618532
0.000495978
0.000713822
0.000490958
0.000987108
0.000743819
0.00107729
0.00109562
0.000566636
0.00047274
0.000553991
0.00113581
0.000923206
0.000727189
0.000520104
0.000600379
0.000661082
0.000719442
0.00040938
0.000395982
0.000320272
0.00034959
0.000182402
0.000460644
0.000505446
0.000550127
0.000464868
0.000529114
0.000603976
0.000458354
0.000217484
0.000307489
0.000329024
0.000105997
0.000169849
0.00013135
0.000186163
0.000506372
0.000519828
0.000496633
0.000516794
0.000354146
0.0004517
0.000462362
0.000291667
0.000295748
0.000147895
0.000134485
0.00011247
0.000135666
0.000187842
0.000178444
0.000184106
0.000158928
0.000116101
0.000201482
0.00215026
0.00213118
0.000247333
0.00229405
0.00200753
0.000320056
0.000331809
0.000278992
0.00223546
0.00217702
0.000600273
0.000342707
0.000568865
0.000491882
0.00242029
0.000695221
0.000260275
0.000524145
0.000174835
0.000550123
0.00246188
0.000704641
0.000604766
0.000230824
0.000180207
0.00034778
0.000546901
0.00241779
0.000591158
0.000706756
0.000572648
0.000383741
0.000197261
0.000400379
0.00224169
0.000754852
0.000524619
0.000520313
0.000539272
0.000505721
0.000288255
0.000174148
0.00235904
0.000582765
0.0006754
0.000616715
0.00080468
0.000439117
0.000494866
0.000316905
0.000530256
0.00271294
0.00121232
0.000625252
0.00034253
0.000766913
0.000371299
0.000783246
0.00080666
0.000852463
0.000527995
0.0022765
0.000945705
0.000675921
0.000853886
0.000535171
0.00037976
0.000503883
0.000963245
0.00053346
0.000298282
0.000106487
0.00282942
0.00161334
0.00110675
0.000402885
0.000545983
0.000487252
0.000505913
0.000338198
0.000441844
0.000504124
0.000454842
0.000526636
0.00265524
0.00138423
0.000471695
0.00145569
0.000838599
0.00012756
0.000815211
0.000368526
0.000479367
0.000547952
0.000862817
0.000525072
0.000630381
0.00147611
0.000860182
0.000640244
0.00017819
0.000708909
0.000298246
0.00146502
0.00105985
0.000895467
0.00101898
0.000607805
0.000525587
0.0005368
0.000503277
0.000760143
0.000872817
0.000541779
0.00148545
0.00127646
0.000691106
0.000713842
0.000324912
0.000360062
0.00036131
0.000314568
0.00023604
0.000375141
0.00054417
0.000534481
0.000560987
0.000506302
0.000364902
0.000515187
0.000753171
0.000221982
0.000203417
0.000410502
8.90527e-05
0.000245899
0.000198818
0.000202127
0.000461543
0.000523425
0.000456085
0.000510175
0.000509964
0.000347107
0.000303475
0.000513276
0.000411237
0.000354371
0.000161954
0.000147518
7.35043e-05
0.000123696
0.0002324
0.000175896
0.000211619
0.000165506
0.000101582
0.000180539
0.000186785
0.00200445
0.00215047
0.000423395
0.0022761
0.00213062
0.000222225
0.000366894
0.00041704
0.00224354
0.00204053
0.00043937
0.00028223
0.000292395
0.000296618
0.000369656
0.00227617
0.000679935
0.000412467
0.000410033
0.000422336
0.000407402
0.00235895
0.000684679
0.000494516
0.000428637
0.000374415
0.00038571
0.000574732
0.00220775
0.000603942
0.000566544
0.000561825
0.000545215
0.000372822
0.000393997
0.000614219
0.0022807
0.00029709
0.000553539
0.00063216
0.000873255
0.00045311
0.000305109
0.000475161
0.00220454
0.000608774
0.000503092
0.000671107
0.000560917
0.000601356
0.000514773
0.000455803
0.000415789
0.00243259
0.000660464
0.000498048
0.000603906
0.000690609
0.000275808
0.000540335
0.000527881
0.00040513
0.000289233
0.00269862
0.00102419
0.000920159
0.00096052
0.000772669
0.00076016
0.000722877
0.000430999
0.000365693
0.000469239
0.000194099
0.00218964
0.000444642
0.000917784
0.000572061
0.000769547
0.000467935
0.000539186
0.000444697
0.000669221
0.000472869
0.000344669
0.000460988
0.00285141
0.00102137
0.000654634
0.00176601
0.000394026
0.000320531
0.000217654
0.000772911
0.000514173
0.000816731
0.000808495
0.000587248
0.00038488
0.002645
0.000890639
0.000740318
0.000458316
0.00114467
0.000431597
0.000349748
0.000535089
0.00045063
0.000602986
0.00088898
0.000698497
0.000679017
0.000675626
0.00195973
0.00108546
0.000663913
0.000590511
0.00020046
0.000485949
0.00106712
0.00109781
0.000975512
0.000787686
0.000565946
0.000528512
0.000643712
0.000525896
0.000487482
0.00106159
0.000668774
0.000591655
0.000580109
0.000988642
0.000892333
0.000660024
0.000286664
0.000323275
0.000445685
0.000307197
0.000195181
0.000326821
0.000530162
0.000461875
0.000565669
0.000409259
0.000653614
0.000327004
0.000615204
0.000406927
0.000120257
0.00020814
0.00065352
0.000163377
0.000130065
0.000258649
0.000191983
0.000424688
0.00053925
0.000417383
0.000553609
0.000431611
0.000494
0.000320064
0.000185977
0.000476402
0.000624763
0.00037285
0.000225136
0.000188541
0.000159625
0.000103386
0.000297064
0.000169064
0.000174738
0.000201809
8.17495e-05
0.000190527
0.000172089
0.000205389
0.00194103
0.00197496
0.000476832
0.0021525
0.00218194
0.000323206
0.000318657
0.000498817
0.00231558
0.0020769
0.000276329
0.000212257
0.000269239
0.000461555
0.000511745
0.00209983
0.000429334
0.000341936
0.000425523
0.000364788
0.00025743
0.00027097
0.00221527
0.000651588
0.000358033
0.000548981
0.000369387
0.000401468
0.000358243
0.00239393
0.00062815
0.000289724
0.0007045
0.000579584
0.000279608
0.000363982
0.00062199
0.00250664
0.000774796
0.000408424
0.000521312
0.000343275
0.00043415
0.000328747
0.000382549
0.000424815
0.0024866
0.000618787
0.000531021
0.000391673
0.000432354
0.000517531
0.000429476
0.000707792
0.000284101
0.00223172
0.000593365
0.000650423
0.000890062
0.000483242
0.00050817
0.000609742
0.000748948
0.000353379
0.000281922
0.00252464
0.000630318
0.000594151
0.000545585
0.000408056
0.000740148
0.000268741
0.000340981
0.000287474
0.000849522
0.000542246
0.00261438
0.000743088
0.000931844
0.000627639
0.000552716
0.00104077
0.000544643
0.000453492
0.000640694
0.00082892
0.000836607
0.000702186
0.00225835
0.000535305
0.0011461
0.000767113
0.000476029
0.000523349
0.00029539
0.000689514
0.000671071
0.000725212
0.000728942
0.000507796
0.000637063
0.0030913
0.00110423
0.000824098
0.000591256
0.00042685
0.000407197
0.000560883
0.000611917
0.000609433
0.000663117
0.000517283
0.000437598
0.000452494
0.000400043
0.00290084
0.000797701
0.000856583
0.00052403
0.000875062
0.000782733
0.000664484
0.000884786
0.000800072
0.000879258
0.000866903
0.000424514
0.000748945
0.000713167
0.000462875
0.0020774
0.000907366
0.000768042
0.000561914
0.000737993
0.000902833
0.00112264
0.00128305
0.00144621
0.000713974
0.000444721
0.000485557
0.000520245
0.000479481
0.000695999
0.000634361
0.00126412
0.00086154
0.000871145
0.00055352
0.000611771
0.000682119
0.000568006
0.000323439
0.000385981
0.000284952
0.000273226
0.000318685
0.000366218
0.000569447
0.000594154
0.000454236
0.000909627
0.0006348
0.000763633
0.000389451
0.000399192
0.0002167
0.000133721
0.000315266
0.0007826
0.000494498
9.50888e-05
0.000623058
0.000219867
0.000386407
0.000551786
0.000390572
0.000545801
0.000450876
0.000402735
0.000485851
0.000288164
0.000151291
0.000464852
0.00063906
0.000361927
0.000171407
0.000209865
0.000146722
0.000113479
0.000301995
0.000143271
0.000162456
0.000184655
6.35146e-05
0.000178942
0.000145233
0.000222862
7.91016e-05
0.00205495
0.00196639
0.000270126
0.00210598
0.00198623
0.000406434
0.000272314
0.000455927
0.00210993
0.0022197
0.000319403
0.000313849
0.00029781
0.000357658
0.000481906
0.00215729
0.000396686
0.000365772
0.000100557
0.000565573
0.000239198
0.000302892
0.00209656
0.000446045
0.00033664
0.000374123
0.000394421
0.000389699
0.000286596
0.000438103
0.00217171
0.000589254
0.000498056
0.000516054
0.000497332
0.000332472
0.000413494
0.000431306
0.00235889
0.000896313
0.000434385
0.000390134
0.000499484
0.00027136
0.000353821
0.00049747
0.000428827
0.00246639
0.000784224
0.000628702
0.00032395
0.000346731
0.000427958
0.000445723
0.000319796
0.000504695
0.000392175
0.00237977
0.000764106
0.000324039
0.000353417
0.000564017
0.000504503
0.00038496
0.000221318
0.000362386
0.000520278
0.00213186
0.000519329
0.000646528
0.000497819
0.000596054
0.000661908
0.000425811
0.00044342
0.000472734
0.000595661
0.000349968
0.0022429
0.000596117
0.000720282
0.000471841
0.000478504
0.000755046
0.000687186
0.000704423
0.000682536
0.000756431
0.0005548
0.000435725
0.00243814
0.00100123
0.000617352
0.000634483
0.000707694
0.000851474
0.000496887
0.000805467
0.000777978
0.000695167
0.000615857
0.000502296
0.000516797
0.00252721
0.0006866
0.000990497
0.00132335
0.00101035
0.000834069
0.000601143
0.000255928
0.000587137
0.000490778
0.000210946
0.000275641
0.00080985
0.000593356
0.00267644
0.0011964
0.000736359
0.0012591
0.000948645
0.00047494
0.00085584
0.000367329
0.000916276
0.00039729
0.000128489
0.000368198
0.000732637
0.00034513
0.000525002
0.00264565
0.00109244
0.000645014
0.000538129
0.000987906
0.000430404
0.00060208
0.000752913
0.000977774
0.00174915
0.000905805
0.0006068
0.000541551
0.000576338
0.000510603
0.00041267
0.0017426
0.00141515
0.000990582
0.000693153
0.000673926
0.00150316
0.00103846
0.00144896
0.0013883
0.000355831
0.00043277
0.000630777
0.000651476
0.00047343
0.000389502
0.000488188
0.000866828
0.00131318
0.00106613
0.000719481
0.00046689
0.000528963
0.00128045
0.000704352
0.000361992
0.000316173
0.000355396
0.00041221
0.000390172
0.000461915
0.000487797
0.000460338
0.0005273
0.000562176
0.000593327
0.000856553
0.000743147
0.000447901
0.000269234
0.000481292
0.000266817
0.000302415
0.000369395
0.000610173
0.000262411
0.000357717
0.000234374
0.000346975
0.000548037
0.000364097
0.000471171
0.000456915
0.0004803
0.000507096
0.000479947
0.000254471
0.000185579
0.000435576
0.000449838
0.000473982
0.000191076
0.000190213
0.000104376
0.000101437
0.000268018
0.000137757
0.000129878
0.000181799
7.97882e-05
8.98594e-05
0.00013845
0.000219722
0.000165913
0.000372038
0.0020209
0.00201569
0.000386463
0.00217032
0.00192684
0.000381437
0.000290071
0.000311689
0.00212684
0.0020554
0.00037944
0.000407864
0.000574838
0.000248041
0.000438051
0.00223293
0.000288009
0.000342223
0.000386745
0.000185429
0.00018041
0.000386263
0.00212044
0.000227904
0.000301343
0.000491298
0.000410379
0.000287636
0.000552719
0.000463335
0.00212148
0.000393517
0.000374162
0.000621296
0.000589272
0.000284642
0.000361808
0.000443949
0.000269138
0.00222462
0.000703321
0.000606012
0.000535452
0.00051806
0.000477262
0.000355023
0.000398035
0.000376187
0.00222747
0.000851085
0.000637688
0.000292535
0.000592417
0.000470014
0.000437065
0.000373491
0.000458488
0.000490485
0.00226951
0.000551398
0.00048318
0.000430399
0.000662711
0.000352318
0.000460551
0.000371392
0.000285353
0.000453664
0.000366874
0.00223615
0.000331893
0.000615347
0.000421752
0.000416088
0.000515787
0.000510303
0.000393481
0.000313551
0.000285429
0.000333502
0.0022677
0.000447654
0.000711242
0.000690876
0.00046076
0.000418864
0.000480445
0.000646242
0.000511491
0.000672054
0.000510112
0.000408949
0.00266672
0.000264388
0.000702167
0.000823911
0.00069581
0.000409644
0.000739437
0.000812705
0.000522186
0.000920911
0.000904114
0.000839951
0.000447468
0.00238939
0.000797891
0.000495324
0.000708706
0.000828315
0.000571643
0.0011066
0.00069496
0.000223578
0.000896767
0.000491715
0.000750678
0.000667111
0.00058492
0.00264498
0.000873308
0.000691437
0.000944691
0.000691722
0.00042858
0.000451663
0.000267796
0.000716939
0.000698612
0.000461512
0.00045709
0.000324495
0.000383955
0.000515147
0.00262649
0.00127102
0.000564849
0.000756064
0.000356732
0.000424777
0.000347529
0.000942055
0.00036967
0.000390217
0.000276514
0.000523652
0.000290454
0.000228715
0.000720885
0.000502912
0.00258298
0.00171801
0.000666646
0.000353452
0.000374104
0.00130825
0.000586721
0.000812028
0.00105758
0.00184315
0.000963725
0.000630294
0.000542372
0.000332522
0.000511278
0.000250763
0.000451866
0.00223949
0.00137646
0.000935302
0.00105789
0.00087938
0.00100519
0.000788867
0.00128954
0.000905572
0.00061784
0.000335726
0.000473754
0.000443586
0.000392037
0.000706098
0.000599553
0.000635601
0.000616528
0.00138446
0.00093145
0.000702475
0.000447858
0.000379862
0.0005475
0.000421776
0.000430519
0.000385121
0.000510337
0.000555805
0.000364144
0.000434037
0.00034154
0.000480778
0.000565098
0.000505346
0.000738245
0.000502657
0.000945307
0.000774392
0.000320794
0.000581606
0.00068618
0.000564221
0.000322742
0.000246811
0.000465961
0.000373554
0.000174102
0.000287767
0.000313694
0.00053556
0.000328387
0.000509488
0.000411713
0.000668472
0.000811912
0.000845567
0.000410352
0.000217124
0.000227918
0.000437857
0.000360781
0.000507573
0.000250792
0.000174324
0.000129544
0.000117966
0.000274955
0.000160048
0.000215934
0.000197096
9.79572e-05
5.87365e-05
0.000118417
0.000204026
8.53445e-05
0.000350636
0.00020611
0.00197168
0.00207287
0.000238957
0.00216968
0.00201635
0.000350483
0.000334149
0.000355277
0.0022268
0.00191697
0.000385592
0.000251929
9.65754e-05
0.000331553
0.000316125
0.00215789
0.000373901
0.000455649
0.000396362
0.000612305
0.000576944
0.000391248
0.00217647
0.000339558
0.000260849
0.000603593
0.000263001
0.000131775
0.000532768
0.000493762
0.00212412
0.000349607
0.000270521
0.000604023
0.000408826
0.000186052
0.000223519
0.000332206
0.000348004
0.00219535
0.000504959
0.000362211
0.000319514
0.000419703
0.000338185
0.000245776
0.00050427
0.000438613
0.00041896
0.00226166
0.000595489
0.000456352
0.000392929
0.000484207
0.000337782
0.000453759
0.000392851
0.000328619
0.000479884
0.00232917
0.000376113
0.000550273
0.000503432
0.000175094
0.000301993
0.000418807
0.000366404
0.000471703
0.000464949
0.00038813
0.00230718
0.000392264
0.000518809
0.00053456
0.00027829
0.000365793
0.000395345
0.000433986
0.000470072
0.000479775
0.000347156
0.000481278
0.00227888
0.000486793
0.000771681
0.000646472
0.000310392
0.000511536
0.000311659
0.000473423
0.000411715
0.000368834
0.000327672
0.000630969
0.00236952
0.000481447
0.000547583
0.000884263
0.000630705
0.000427105
0.000222042
0.000391988
0.000338826
0.000593618
0.000548958
0.000846094
0.000498029
0.00258827
0.000568675
0.000549623
0.000511189
0.000668161
0.000520683
0.000673201
0.000666369
0.00138241
0.00143355
0.00089157
0.000816287
0.000903593
0.000622343
0.0021435
0.000508076
0.000446549
0.000500713
0.000625565
0.000503264
0.000773625
0.0006143
0.00114743
0.00153644
0.0010485
0.000462519
0.000454997
0.00053795
0.000707377
0.00258439
0.00113474
0.000751701
0.000781267
0.000932521
0.000270897
0.000596028
0.000393752
0.0006048
0.000472374
0.000548679
0.000491874
0.000320288
0.000409928
0.00018462
0.000225308
0.00224639
0.00191222
0.000531211
0.000551896
0.000945965
0.00029985
0.000644509
0.000864624
0.000874523
0.000966645
0.000569351
9.12105e-05
0.000590825
0.000393263
0.000465935
0.000626541
0.000372224
0.00243248
0.000792392
0.000639736
0.000564809
0.000431
0.00113904
0.000999168
0.00094595
0.00161567
0.00121556
0.000677068
0.000721925
0.000667872
0.000535501
0.000358236
0.000494773
0.000312824
0.000292374
0.00227087
0.0014349
0.00135053
0.000773468
0.00085142
0.000914826
0.000840724
0.00111142
0.000702082
0.000247883
0.00035156
0.000546848
0.000606659
0.000398913
0.000459201
0.000603288
0.000352037
0.000356786
0.000456832
0.00145224
0.000444313
0.000835764
0.000681476
0.000419414
0.000372914
0.00050868
0.000340387
0.000234584
0.000314403
0.000422893
0.000388676
0.00031089
0.000322331
0.000526789
0.0005752
0.000640227
0.000712848
0.000642065
0.0015865
0.000990085
0.000858627
0.000131702
0.000557662
0.000612057
0.000752105
0.000402511
0.000294206
0.000275669
0.000424575
0.00018544
0.000249232
0.000287022
0.000516803
0.000308521
0.00058409
0.000372176
0.000850534
0.000427935
0.000677626
0.00102423
0.00041101
0.000250622
0.00017216
0.000424393
0.000235027
0.000488611
0.000310404
0.000183255
0.000149088
0.000170064
0.000223979
0.000188266
0.000136781
0.000210882
0.000103212
0.000159518
0.00010422
0.000101958
0.000158713
6.13568e-05
0.000181165
0.000329851
0.00193246
0.00196384
0.000290038
0.00202591
0.00202557
0.000243148
0.000475687
0.000331228
0.00212871
0.00196544
0.000550836
0.000145416
0.000571489
0.000246531
0.000271297
0.00194436
0.000432378
0.000261096
9.23727e-05
0.00029075
0.000191129
0.000241106
0.00220924
0.000308329
0.000400274
0.000269103
0.000521553
0.000243259
0.000439545
0.000409265
0.00222015
0.000386737
0.000349854
0.000127735
0.000302654
0.000245651
0.000306411
0.000387421
0.000433779
0.00216089
0.00048355
0.000314861
0.000225077
0.00044404
0.000300516
0.000343987
0.000384693
0.000220904
0.000294572
0.002143
0.000609861
0.000398597
0.000393126
0.000409656
0.000356177
0.000413455
0.00048641
0.000415452
0.000427204
0.000376086
0.00222578
0.000637457
0.000356732
0.000393804
0.000461552
0.000337203
0.000459016
0.000403278
0.000266097
0.000318454
0.00031129
0.00234472
0.000299092
0.000374332
0.000468718
0.000318017
0.000350058
0.000294477
0.000369863
0.000436335
0.000330162
0.000438392
0.000526289
0.0022603
0.000528288
0.000379601
0.00038
0.000424932
0.000348381
0.000389451
0.000276624
0.000499027
0.000509282
0.000513114
0.000576147
0.000352909
0.00215559
0.000552004
0.000292662
0.000445712
0.000635448
0.000377451
0.00046552
0.000379273
0.000405004
0.000431883
0.000483151
0.000529192
0.000474056
0.00212797
0.000632954
0.000604467
0.000505805
0.000693596
0.000627021
0.000724023
0.000488247
0.000627262
0.000168397
0.000341703
0.000279971
0.000445784
0.000384347
0.00241465
0.000619912
0.000590137
0.00043727
0.00048196
0.000673263
0.000497213
0.000874302
0.000532878
0.000649993
0.000705981
0.000383575
0.000359628
0.000408921
0.000577999
0.00225816
0.000671928
0.000816088
0.000679871
0.000721766
0.000741466
0.000657649
0.000639162
0.00112836
0.000650841
0.000831816
0.00077092
0.000421216
0.000587406
0.000589479
0.000680399
0.00265865
0.00109571
0.000819103
0.000845259
0.000772604
0.00100947
0.000548665
0.00031403
0.000396879
0.000573859
0.00017836
0.000588236
0.000479765
0.000793984
0.000574965
0.000966046
0.000333562
0.00302224
0.00283912
0.000683053
0.0009789
0.000566365
0.000750052
0.000734537
0.000828182
0.00108745
0.00118375
0.000604642
0.000302231
0.000476922
0.00069558
0.000243472
0.000586857
0.000452214
0.000619517
0.00211105
0.00112124
0.00095626
0.000795746
0.00081015
0.000890348
0.00154632
0.00133719
0.00143239
0.000838097
0.000811569
0.00057248
0.000411106
0.000464891
0.000791232
0.000658485
0.000385828
0.000385736
0.000692011
0.0021426
0.00149613
0.00151209
0.00114411
0.000896553
0.000733982
0.00104583
0.000742105
0.00118631
0.00102343
0.000237562
0.000617155
0.000568567
0.000467525
0.000704069
0.000624266
0.000565243
0.000359533
0.00048649
0.000266933
0.00137339
0.0007114
0.000727881
0.000408336
0.000414489
0.000384155
0.000383422
0.000367238
0.000331997
0.000204506
0.000530754
0.000597655
0.000371596
0.000356884
0.000509913
0.000621252
0.000673885
0.000740642
0.000744858
0.00168648
0.000857414
0.000971597
0.000836089
0.000268948
0.000589047
0.000364945
0.000586449
0.000501371
0.000281167
0.000251372
0.000398972
0.000251134
0.000139975
0.000240579
0.00049602
0.000294397
0.000576447
0.000372603
0.000757168
0.000580636
0.000417889
0.00106125
0.000451014
0.000520885
0.000188794
0.000144525
0.000366269
0.000261669
0.000360132
0.000333537
0.000212592
0.000141965
0.000172861
0.000218099
0.000202216
0.000213759
0.000208517
0.000174148
0.000143512
0.000159591
0.000169391
0.000216351
7.18675e-05
0.000165803
0.000338849
0.000341837
0.00191047
0.00197753
0.000407779
0.00207432
0.00195483
0.000295972
0.000531016
0.000287201
0.00198913
0.00205152
0.000373513
0.000302115
0.000287881
0.000522119
0.000337171
0.00189117
0.000603982
0.000234418
0.000539256
0.000225617
0.00035646
0.000462578
0.00199488
0.000447674
0.000472009
0.000299833
0.000241087
0.000235979
0.000398
0.000451023
0.00215777
0.000292083
0.000555165
0.00044239
0.000486925
0.000263425
0.00033102
0.00025548
0.000607244
0.0022129
0.000302273
0.00052093
0.000268741
0.000390999
0.00028721
0.00028889
0.000400827
0.000348077
0.000328156
0.0021875
0.000383112
0.000470725
0.000282953
0.000442796
0.000298643
0.000432334
0.000367259
0.000605706
0.000473587
0.000342443
0.00213851
0.000516253
0.000498312
0.000503864
0.000304708
0.000290989
0.000331789
0.000480216
0.000463909
0.000331289
0.000423841
0.000348094
0.00217976
0.000425999
0.000589777
0.000591983
0.000462974
0.000491322
0.000271493
0.000353511
0.00038023
0.0003382
0.000557732
0.000551447
0.00230051
0.00032823
0.00034803
0.000384675
0.000525265
0.000334243
0.000223559
0.000261292
0.000223434
0.000367116
0.000395056
0.000525671
0.000468396
0.00230234
0.000441167
0.000370615
0.00047644
0.000443587
0.000389423
0.000528556
0.000150272
0.000395725
0.000334674
0.000483026
0.000450372
0.000325509