/*--------------------------------*- C++ -*----------------------------------*\
  =========                 |
  \\      /  F ield         | OpenFOAM: The Open Source CFD Toolbox
   \\    /   O peration     | Website:  https://openfoam.org
    \\  /    A nd           | Version:  7
     \\/     M anipulation  |
\*---------------------------------------------------------------------------*/
FoamFile
{
    version     2.0;
    format      ascii;
    class       surfaceScalarField;
    location    "2";
    object      phi;
}
// * * * * * * * * * * * * * * * * * * * * * * * * * * * * * * * * * * * * * //

dimensions      [0 3 -1 0 0 0 0];

internalField   nonuniform List<scalar> 
54095
(
5.14247e-05
8.19831e-05
-3.11681e-05
-0.000178836
0.000500923
2.68684e-05
7.27791e-05
4.77191e-05
-3.85152e-05
0.000296377
0.000468315
-4.77657e-05
-0.000435668
5.87047e-05
-0.000159291
-0.000146477
0.00071129
8.88903e-06
0.000277544
0.000893288
5.55363e-05
9.51161e-05
-5.91909e-06
-4.14779e-05
0.000314607
0.000174656
-5.94633e-05
0.000116259
0.000972505
-4.99958e-05
-0.00092625
0.00502808
0.000415672
-0.000377569
0.000385177
-9.53797e-05
-0.000100801
0.00208163
0.000317228
-0.000100691
0.000912254
-5.15757e-06
0.000339391
0.000853405
2.39884e-05
9.02365e-05
0.00195392
7.53587e-05
0.000106699
-7.49711e-05
-3.76471e-05
0.000312817
-0.000110355
-6.92841e-05
0.000126535
0.000841285
-5.4778e-05
4.2354e-05
0.00138125
-4.37432e-05
-0.00110594
0.00600996
0.000450572
-0.00077311
0.00514348
0.000280133
-0.000473284
0.00275338
0.000667073
-0.00027973
0.000602081
-3.78649e-05
0.000130436
0.00192824
0.000266967
-0.000240509
0.00165914
0.000300388
-6.40445e-05
0.00109403
-1.10292e-05
0.0004013
0.000763754
-3.98965e-06
0.000101899
0.00195342
4.91235e-05
-6.90627e-05
0.00212269
6.81912e-05
0.000108373
-0.000153535
-2.98092e-05
0.000292626
-0.000365249
-7.53793e-05
0.000139146
0.000693752
-6.08972e-05
4.74384e-05
0.00132218
-4.31477e-05
5.91552e-05
0.00248733
-3.79543e-05
-0.00140224
0.00425927
0.000376827
-0.00101543
0.00587664
0.000375638
-0.000619518
0.00516981
0.000893273
-0.000564504
0.00525571
0.000172551
-0.000116694
0.00273781
0.000542832
-0.000452502
0.00285718
0.000706661
-0.000243631
0.000776774
4.89302e-06
0.000221345
0.00184864
0.000221692
-0.000157232
0.00184196
0.000343284
-0.00026676
0.00239219
0.000138299
-2.7486e-05
0.0012421
-1.22092e-05
0.000439936
0.000632314
-2.68985e-05
0.000128023
0.00191511
4.54453e-05
-4.66326e-05
0.00223283
3.30575e-05
4.751e-05
0.00198598
-7.58141e-06
0.000104686
-0.000237278
-2.09428e-05
0.000259671
-0.000575555
-7.91738e-05
0.000150246
0.000535782
-6.76557e-05
5.62931e-05
0.00124958
-4.45873e-05
6.93679e-05
0.00241026
-3.5446e-05
4.86633e-05
0.00147731
-4.50529e-05
-0.00142182
0.00406088
0.000199645
-0.00143489
0.0043359
0.000342836
-0.000685268
0.005441
0.000589039
-0.000916979
0.00595806
0.000271047
-0.000592888
0.00521763
0.000804017
-0.000345771
0.0049384
0.000967124
-0.000470441
0.0053176
0.000164919
9.94158e-05
0.00256729
0.000465008
-0.000391258
0.00294752
0.00068652
-0.000417052
0.00296581
0.000716856
-0.000179768
0.000901403
2.76538e-05
0.000281107
0.00181733
0.000195026
-7.41303e-05
0.00201887
0.000246932
-0.000206361
0.00267158
0.000223618
-0.000116315
0.00203263
0.000106921
4.91303e-06
0.00134865
-6.78307e-06
0.000430269
0.000503201
-5.36948e-05
0.000145699
0.00186975
2.30091e-05
-2.44542e-05
0.00233663
2.2387e-05
5.1902e-05
0.0020687
-3.2191e-05
3.73465e-05
0.00190016
-9.91509e-05
9.56299e-05
-0.000321305
-1.1603e-05
0.000222868
-0.000738724
-8.06419e-05
0.000158069
0.000372888
-7.43485e-05
6.44581e-05
0.00116381
-4.63469e-05
7.55217e-05
0.00232525
-3.51003e-05
5.15654e-05
0.00143412
-4.38224e-05
1.64801e-05
0.000672653
-5.14422e-05
-0.00138017
0.00423697
0.000253063
-0.00154703
0.00393467
0.000238349
-0.000762223
0.00610793
0.000490114
-0.00140856
0.00445957
0.000367905
-0.000658976
0.00536318
0.000486739
-0.00014587
0.00593391
0.000677739
-0.00084258
0.00608589
0.000244319
-0.000485327
0.00531581
0.000757609
-0.000544066
0.0050258
0.000869423
-0.000347499
0.00513014
0.000842836
-0.000408099
0.00537306
0.000172872
0.000194022
0.00238779
0.000431498
-0.000176822
0.00287319
0.000642035
-0.000374304
0.00307668
0.000743587
-0.000285268
0.00322626
0.00068254
-2.52668e-05
0.000903751
2.78319e-05
0.000266875
0.00185586
0.000152522
-2.94478e-05
0.00221444
0.000174598
-0.000150669
0.00292365
0.000121081
-0.000111146
0.00232455
9.47436e-05
-8.18091e-05
0.00223848
7.17087e-05
3.64196e-05
0.00140773
1.35307e-07
0.000420679
0.000369773
-7.11658e-05
0.000164327
0.00181767
-7.87716e-06
-8.07432e-06
0.00238374
4.84312e-05
8.00146e-05
0.00213833
-5.17354e-05
4.12687e-05
0.00198262
-0.000104357
-4.17839e-05
0.00180845
-0.000104345
8.50066e-05
-0.000402867
-3.44456e-06
0.000186766
-0.000858339
-7.87542e-05
0.000168634
0.000203298
-7.96852e-05
7.26153e-05
0.00106585
-4.89987e-05
9.09169e-05
0.00222463
-3.66472e-05
5.69647e-05
0.00138514
-4.30868e-05
1.89548e-05
0.00066277
-5.28946e-05
1.40753e-05
0.000514771
-6.07047e-05
-0.00151155
0.00380274
2.1182e-05
-0.0015687
0.00400852
0.000250123
-0.000864673
0.00454357
0.000335393
-0.00147569
0.00389454
0.000107267
-0.000800496
0.00597913
0.000508665
-0.000243463
0.00607934
0.000573901
-0.00142862
0.00464332
0.00040229
-0.000831617
0.00553577
0.00054161
-0.000386298
0.00569626
0.000566629
-0.000270503
0.00605089
0.000679513
-0.000819339
0.00624914
0.000247986
-0.000222125
0.00526788
0.000708397
-0.000371245
0.00508771
0.000890119
-0.000337729
0.00514057
0.000822424
-0.0001858
0.00532582
0.0007218
-6.97485e-05
0.00523961
0.000177931
4.94662e-05
0.00234144
0.000436635
-5.69934e-06
0.00268488
0.000596057
-0.000300828
0.00311821
0.000750666
-0.000238124
0.00338049
0.000716329
-0.000197834
0.00340855
0.000565938
-9.50278e-05
0.000974392
6.08062e-05
0.000312736
0.00188311
0.000108524
2.66222e-05
0.00235296
0.000151716
-9.18227e-05
0.00309693
8.50687e-05
-6.07858e-05
0.00252728
5.91488e-05
-1.59926e-05
0.00236479
2.57025e-05
-6.87856e-05
0.00264831
7.45932e-05
7.44507e-05
0.00142411
-5.82916e-06
0.00039648
0.000231825
-7.16307e-05
0.000182039
0.00177589
-4.27926e-05
1.51656e-05
0.00243174
1.57215e-06
0.000125256
0.00216851
-1.6093e-05
5.59146e-05
0.00204371
-0.000111768
-3.8397e-05
0.00187145
-0.000110005
-3.50002e-05
0.00183628
-0.00010984
7.15673e-05
-0.000476384
1.94946e-06
0.000153767
-0.000942736
-7.28142e-05
0.000178526
2.98653e-05
-8.38476e-05
8.20019e-05
0.000954576
-5.04144e-05
9.91093e-05
0.00211465
-3.81248e-05
5.88461e-05
0.00133273
-4.30754e-05
1.98356e-05
0.000654773
-5.49252e-05
1.43969e-05
0.000509063
-6.15833e-05
2.05871e-05
0.000629899
-7.46824e-05
-0.00151836
0.00338171
0.00013561
-0.00158385
0.0038888
-7.09072e-05
-0.00102428
0.00444276
0.00021939
-0.00144307
0.00376399
0.000211905
-0.000962966
0.00461623
0.000339931
-0.000471712
0.00545401
0.00052985
-0.0015676
0.0038898
0.000143723
-0.000957545
0.00572445
0.000487879
-0.000383772
0.00600301
0.000582469
-0.000244937
0.00615443
0.000539962
-0.00140668
0.00484546
0.0003852
-0.000760461
0.00580748
0.000668916
-0.000348
0.00568217
0.000532454
-0.000262074
0.00600696
0.000534899
-0.00017308
0.00627547
0.000597074
-0.000576147
0.00652665
0.000228888
-0.000352367
0.00523454
0.000683158
-0.000275476
0.00519484
0.000871039
-0.000430674
0.00531523
0.000845305
-0.000252987
0.00548662
0.000676489
-0.000241105
0.00543731
0.000579848
-0.000198958
0.00511772
0.000225816
-5.74121e-05
0.00244358
0.000445935
6.25793e-05
0.00251934
0.000566212
-0.000175798
0.00307839
0.000719849
-0.000168211
0.00345168
0.000786905
-7.07817e-05
0.00362151
0.000558159
-0.000113815
0.00327721
0.000549655
-5.50689e-05
0.00105116
5.27552e-05
0.000353278
0.00183015
0.000156962
5.97766e-05
0.00245638
0.000127362
-5.21611e-05
0.00323812
7.78471e-05
3.68311e-06
0.00270896
2.49705e-05
-5.3842e-06
0.00247541
9.82498e-06
-6.56671e-06
0.00259689
4.52957e-05
-9.54411e-05
0.00303241
4.79363e-05
0.000100094
0.00140816
-1.25749e-05
0.000353962
0.000143324
-0.000117523
0.00020983
0.00169523
-2.22716e-05
3.39426e-05
0.00247161
-3.45981e-05
0.000137753
0.00219014
-5.87043e-05
3.98649e-05
0.00216147
-0.000114876
-3.7963e-05
0.00193083
-0.000113348
-5.25769e-05
0.00189795
-0.000104701
9.93549e-06
0.00235284
-0.000123892
6.1632e-05
-0.000541846
3.8307e-06
0.000126713
-0.00100041
-6.70909e-05
0.000171897
-0.000130023
-8.48227e-05
9.06738e-05
0.000834111
-5.40564e-05
0.00010149
0.00200095
-3.821e-05
6.61249e-05
0.00127027
-4.17908e-05
2.16919e-05
0.000646462
-5.64559e-05
1.4117e-05
0.00050321
-6.31891e-05
8.65468e-06
0.000634488
-7.48266e-05
-2.08136e-05
0.000750708
-7.79353e-05
-0.00138908
0.0032958
7.73952e-06
-0.00163764
0.00324765
0.000187849
-0.000855767
0.00405492
0.000165129
-0.00145878
0.00399394
-8.94292e-05
-0.00116541
0.0043739
0.000200393
-0.000519209
0.00487311
0.000322578
-0.00159357
0.00365212
0.000137842
-0.00104925
0.00461689
0.000302957
-0.000563968
0.00544898
0.000525156
-0.000254239
0.0057322
0.000549506
-0.00156851
0.00395577
9.58533e-05
-0.000981042
0.00564225
0.000446499
-0.000410561
0.00590724
0.000646207
-0.000306735
0.00618242
0.000599143
-0.000400457
0.00619841
0.000557225
-0.00120897
0.00517449
0.000303797
-0.000859064
0.00589058
0.000808793
-0.000477123
0.00596009
0.000592638
-0.000373574
0.00601104
0.000471282
-0.000305122
0.00636431
0.000498187
-0.000191104
0.00643627
0.000526039
-0.000469331
0.00660206
0.000194961
-0.000625013
0.0053712
0.000659825
7.46685e-05
0.00499907
0.000866846
-0.000326954
0.00543587
0.000901557
-2.73351e-05
0.00550767
0.000683379
-0.000213531
0.00570187
0.000554685
-0.000199364
0.0053697
0.000575093
-0.000255781
0.00504274
0.000275697
4.11674e-05
0.00256261
0.000418902
3.00502e-05
0.0025365
0.000458504
-0.000169963
0.00305332
0.000709089
-0.000180029
0.00351802
0.000837225
-7.27583e-05
0.00382916
0.000646631
-1.39266e-05
0.00331591
0.000526828
-0.000149187
0.00359281
0.000617
-4.81144e-05
0.00110346
9.59097e-05
0.000342814
0.00182701
6.7052e-05
0.00010825
0.00259927
0.00011565
6.34643e-05
0.00328823
4.77286e-05
6.55307e-05
0.00281089
4.81315e-05
1.03101e-05
0.00256694
-3.70037e-05
-4.19204e-05
0.00258633
2.43395e-05
-6.18666e-05
0.00304007
4.69283e-05
-2.40716e-05
0.00253614
-3.82477e-05
0.000142557
0.00134643
-1.91916e-05
0.00029726
0.000105335
-0.000145134
0.000202584
0.0016271
-8.00774e-05
4.81432e-05
0.00251067
-1.88054e-05
0.000145972
0.0021924
-8.1341e-05
9.52919e-05
0.0021991
-0.000125503
-3.53403e-05
0.00199025
-0.000117273
-5.8522e-05
0.00196156
-0.000104323
-1.66428e-05
0.00240689
-0.000133454
-0.000102759
0.0024681
-0.0001425
5.61655e-05
-0.000599693
1.68117e-06
0.000105585
-0.00104007
-6.20981e-05
0.000166013
-0.000277595
-8.55317e-05
9.85088e-05
0.000709222
-5.84415e-05
0.000112269
0.00187329
-3.86662e-05
6.47924e-05
0.00120877
-4.15035e-05
2.5105e-05
0.000637191
-5.76253e-05
1.44545e-05
0.000497313
-6.50134e-05
7.27544e-06
0.000639129
-7.51053e-05
-2.6528e-06
0.000756421
-7.78861e-05
-1.67715e-05
0.00068459
-7.71264e-05
-0.0012548
0.00367953
-7.80235e-05
-0.00373579
-0.00149402
0.00316833
-1.615e-05
-0.000838332
0.00437929
-2.38666e-06
-0.00167916
0.00326564
0.00020239
-0.00101549
0.00393606
0.000156797
-0.000651416
0.00461411
0.000324364
-0.00147184
0.00393498
-6.27704e-05
-0.00118207
0.00424093
0.000176357
-0.000667557
0.00486602
0.000311073
-0.000424879
0.00527233
0.000482549
-0.00162445
0.00356079
0.000147272
-0.00111729
0.00469959
0.000191383
-0.000632189
0.00547985
0.00049371
-0.000335304
0.00572287
0.00056306
-0.00039782
0.00569362
0.000543773
-0.00149175
0.00408946
0.000149089
-0.00109136
0.00557002
0.000400378
-0.00054753
0.00577199
0.000652154
-0.000271149
0.00614919
0.000577008
-0.000399412
0.00629744
0.000594406
-0.000367204
0.00642883
0.000556136
-0.00102269
0.00549109
0.000236759
-0.000959441
0.00575427
0.000774536
-6.5454e-05
0.00612319
0.000785822
-0.00030515
0.00602157
0.000560306
-0.000112793
0.00637309
0.000547958
-0.000183477
0.00640909
0.000495311
0.000168436
0.0063462
0.000327915
-0.000517128
0.00664559
0.000217816
-0.000580041
0.00555974
0.000627635
-0.000216189
0.00507137
0.000833765
-0.000280353
0.00550111
0.000911994
-0.00025474
0.00568286
0.00080108
-0.000116269
0.00584104
0.000587719
-0.000259529
0.0055482
0.000621785
-6.03025e-05
0.00549803
0.000563803
-0.000186928
0.0049369
0.000244646
1.73516e-05
0.0027247
0.000439066
0.000114325
0.0024975
0.00045183
-1.31767e-05
0.00298648
0.000601984
1.80883e-05
0.00343514
0.00083941
2.33843e-05
0.00396502
0.000688285
-0.000121926
0.00348945
0.000553096
-3.15058e-05
0.00349439
0.000594895
6.39269e-05
0.00364384
0.000480423
1.63418e-05
0.00116974
5.99329e-05
0.0004033
0.00179336
2.35179e-05
8.8739e-05
0.00271144
6.87256e-05
7.91768e-05
0.0033871
-1.42472e-05
9.54874e-05
0.00291087
-1.7667e-06
3.18944e-05
0.0026827
-4.22902e-06
-0.000117005
0.00262561
5.381e-06
-4.12113e-05
0.00300896
3.81384e-05
4.42363e-06
0.00258574
-2.37306e-05
-0.000109654
0.00238279
-0.000110936
0.000154159
0.00128136
-3.29272e-05
0.000263001
9.53501e-05
-0.000166623
0.000206761
0.00154775
-0.00010653
8.59896e-05
0.0024848
-4.1689e-05
0.00016732
0.00221094
-9.23939e-05
6.98536e-05
0.00224084
-0.00012814
-2.49099e-05
0.00203662
-0.000121857
-5.25984e-05
0.00201514
-0.000103797
-2.81082e-05
0.00245374
-0.000115787
-5.26022e-05
0.00254037
-0.000155774
-8.57608e-05
0.00183043
-0.000139995
5.52723e-05
-0.000652971
-1.99447e-06
8.81966e-05
-0.00106849
-5.80935e-05
0.000158581
-0.000413049
-8.52253e-05
0.000101682
0.000583654
-6.16466e-05
0.000121584
0.00173138
-3.81064e-05
7.24325e-05
0.00113916
-4.14896e-05
3.09505e-05
0.000624187
-5.94498e-05
1.69788e-05
0.000489496
-6.67871e-05
6.98831e-06
0.000642481
-7.53543e-05
-5.46326e-06
0.000764664
-7.78857e-05
-1.75887e-05
0.000700128
-7.58352e-05
-3.8738e-05
0.000340876
-7.70711e-05
-0.00136884
0.00305216
3.35054e-05
-0.00297163
-0.00128212
0.00355167
-8.40464e-05
-0.000975978
0.00415007
-5.31854e-05
-0.00403727
-0.00142285
-0.000220641
-0.0015428
0.00300964
2.23346e-05
-0.000760013
0.0041503
-4.26365e-05
-0.000755344
0.00446947
6.97371e-05
-0.00174644
0.003284
0.000256252
-0.00123713
0.00399069
0.00020282
-0.000763291
0.00455826
0.000308378
-0.000459782
0.00460143
0.000328751
-0.00149752
0.0038961
-8.80548e-05
-0.00131139
0.00415685
0.00021541
-0.000625253
0.00471061
0.000324832
-0.000458148
0.00517507
0.000531172
-0.000365276
0.0052015
0.000533952
-0.00157032
0.0035424
9.6965e-05
-0.001234
0.00478524
0.000204265
-0.000809956
0.00552647
0.000407186
-0.000351293
0.00573389
0.00056283
-0.000395679
0.00570899
0.000543957
-0.000312947
0.00569213
0.000578041
-0.00147784
0.00438665
0.000157961
-0.000913922
0.00533868
0.000334912
-0.000528543
0.00595984
0.000675623
-0.000230875
0.00611394
0.000613126
-0.000384813
0.0065247
0.000621763
-0.000347674
0.00654402
0.000643417
3.0586e-05
0.0065089
0.000650046
-0.000821377
0.00560871
0.00018663
-0.00113828
0.00584313
0.000706139
-0.000383965
0.00619537
0.000870123
-0.000246925
0.0060894
0.000684564
-0.000247504
0.00632708
0.000599083
-0.000111187
0.00641271
0.000539253
-0.000310115
0.00642608
0.000466014
0.000152971
0.00641275
0.000268076
-0.000420092
0.00660648
0.00027228
-0.000614392
0.0058258
0.000583496
-0.000291905
0.00529681
0.000808418
-0.00018494
0.00559783
0.000908804
-0.000104104
0.00597908
0.000737968
-8.71662e-05
0.00604649
0.000706174
-0.000172073
0.00555953
0.000626542
-5.5569e-05
0.00555192
0.000591959
7.52471e-05
0.00586701
0.0006454
-0.000165821
0.00483738
0.00028169
0.000144913
0.00286161
0.000366126
0.000122838
0.00246033
0.000442135
1.94424e-05
0.00288742
0.000610624
6.37423e-06
0.00332457
0.000801666
-0.00013216
0.00416757
0.000800913
-0.000169705
0.0036898
0.000540629
-6.53812e-06
0.00347756
0.000535252
0.00012941
0.00371861
0.00039514
4.2304e-05
0.00320103
0.000281354
-3.58621e-05
0.00134727
1.24859e-05
0.000420306
0.0016021
9.38867e-05
6.82704e-05
0.00293092
-5.74664e-05
8.75883e-05
0.00346777
-1.35452e-05
0.000161155
0.00293878
-3.5989e-05
-2.62858e-05
0.00282333
-4.62655e-05
-5.70353e-05
0.00268686
-3.33516e-05
-1.42768e-05
0.00295718
1.88441e-05
1.456e-05
0.0026256
-4.43921e-05
-9.75285e-05
0.00250716
-0.00010318
-0.000106254
0.00244671
-0.000169312
0.000152121
0.00123875
-5.4239e-05
0.000226122
0.000100645
-0.000176147
0.000200196
0.00146123
-0.000121722
7.34216e-05
0.00247523
-6.87014e-05
0.000192426
0.00220042
-0.000102013
8.25751e-05
0.00226771
-0.000129409
-8.61902e-07
0.00206663
-0.000126339
-2.3715e-05
0.00203921
-0.000105234
-3.10517e-05
0.00250096
-0.000112974
-6.06406e-05
0.00262025
-0.000140495
-7.69394e-05
0.00185275
-0.000118747
-6.63353e-05
0.000874495
-0.000141078
5.77274e-05
-0.000704958
-5.74076e-06
7.21694e-05
-0.00108855
-5.41048e-05
0.000150995
-0.000538302
-8.38352e-05
0.000101499
0.000461414
-6.44843e-05
0.000127585
0.00157841
-3.62659e-05
7.92769e-05
0.00106306
-4.1281e-05
3.66634e-05
0.000607756
-6.17217e-05
2.17744e-05
0.000476551
-6.82792e-05
7.88286e-06
0.000642883
-7.50722e-05
-2.34759e-06
0.000769565
-7.79076e-05
-1.5679e-05
0.000712475
-7.45541e-05
-3.94152e-05
0.000379343
-7.48871e-05
-5.63345e-05
0.000142549
-8.88647e-05
-0.00152718
0.00252592
0.000112845
-0.00248041
-0.00131569
0.00306364
2.20873e-05
-0.00110048
0.00363624
0.00016042
-0.00363866
-0.00155171
0.000108984
-0.0013907
0.00340977
-1.0199e-05
-0.000842292
0.00419755
-4.92475e-05
-0.000963974
0.00412748
3.11223e-05
-0.00400316
-0.00125465
-0.000100792
-0.00168237
0.00289069
5.48719e-05
-0.00110514
0.00400789
3.27589e-05
-0.000770871
0.00436935
6.50654e-05
-0.00055556
0.00434243
0.000301005
-0.00174495
0.00328237
0.000249057
-0.0011774
0.00389747
0.000215487
-0.000762255
0.00452249
0.000375592
-0.000520576
0.00461941
0.000352827
-0.000393021
0.00485287
0.000381883
-0.0014542
0.00385804
-7.80682e-05
-0.00148155
0.00408338
0.00023296
-0.00084731
0.00469294
0.00027043
-0.000501052
0.0051407
0.000508964
-0.000334785
0.00509616
0.000575625
-0.000279923
0.00515426
0.000555986
-0.00160399
0.0035473
0.000121249
-0.00125637
0.00507335
0.000151298
-0.000804928
0.00563176
0.000375359
-0.000309964
0.00565569
0.000564475
-0.00040642
0.00573887
0.000554562
-0.000421329
0.00568759
0.000622153
-0.00035225
0.00599149
0.000723739
-0.00132549
0.00468755
0.000203209
-0.00104818
0.00507167
0.000334868
-0.000632514
0.00600476
0.000538544
-0.000351478
0.0062527
0.000641414
-0.000339816
0.00658938
0.000640759
-0.000332801
0.00666817
0.000719221
-0.000468766
0.0065007
0.000810261
-0.000107925
0.00656088
0.000841267
-0.000711751
0.00569363
0.000206732
-0.00122658
0.00593979
0.000702165
-0.000542761
0.00629551
0.000856859
-0.000115049
0.00615342
0.000736209
-0.000206507
0.00646199
0.000652057
-0.000152845
0.00647404
0.000603432
1.56347e-05
0.00625726
0.000520363
5.81002e-06
0.00634366
0.000473727
2.88624e-05
0.00637955
0.000456125
-0.00039692
0.00657937
0.000258202
-0.000570641
0.00624204
0.000571595
-0.000173856
0.00538552
0.000791484
-0.000218249
0.005692
0.00095194
-1.68786e-05
0.00608092
0.00083021
-0.000192606
0.00614919
0.000695719
-0.000127836
0.00550772
0.000716117
-5.25836e-05
0.00554935
0.000675151
0.000142807
0.00568328
0.000762295
3.78384e-05
0.00444443
0.000789094
-0.000234357
0.00472254
0.000313329
0.000199726
0.00305383
0.000310046
6.91564e-05
0.00243812
0.000387454
1.64574e-05
0.0028717
0.000528982
0.000122305
0.00320848
0.000765559
5.82828e-05
0.00422741
0.000657265
-4.15767e-05
0.00386953
0.000605727
6.74568e-05
0.00344022
0.000496233
0.000129629
0.00378411
0.000354681
1.63965e-05
0.00339698
8.52664e-05
-0.000109096
0.00323299
0.000101961
-5.09856e-05
0.00154306
7.31591e-06
0.000344538
0.00158132
-8.51554e-05
0.000115159
0.00298289
0.00012695
1.25935e-05
0.00354696
-7.58314e-05
0.000140531
0.00298875
-1.16168e-05
4.30521e-05
0.00290145
-7.45831e-05
-0.00015197
0.00287856
-8.68582e-05
-1.66298e-05
0.00294465
-2.79104e-05
2.57776e-05
0.00265359
-6.59721e-05
-5.44046e-05
0.0025633
-0.000106767
-5.3302e-05
0.00249697
-0.000177084
-2.98202e-05
0.00237515
-0.000161394
0.000155604
0.00121039
-6.95198e-05
0.000170924
0.000133008
-0.000185356
0.000249621
0.0013254
-0.000138944
0.00013424
0.002399
-7.82271e-05
0.000170953
0.00220548
-0.000117131
0.000123055
0.00226096
-0.000139042
2.25555e-05
0.0020818
-0.000130464
6.40046e-06
0.00203202
-0.000103776
-1.94175e-05
0.00253519
-0.000112167
-4.76501e-05
0.0026883
-0.000135723
-6.4372e-05
0.0018676
-0.000106649
-7.50995e-05
0.000907128
-0.000115696
1.66367e-05
0.000341983
-0.000262214
5.47473e-05
-0.000751465
-8.23964e-06
5.67447e-05
-0.00109996
-5.10695e-05
0.000141221
-0.000654126
-7.95021e-05
0.000102032
0.000343124
-6.75772e-05
0.000130302
0.00141888
-3.52532e-05
8.96492e-05
0.000978825
-4.16839e-05
4.07222e-05
0.00058971
-6.3957e-05
2.56625e-05
0.000458929
-6.97621e-05
-1.12133e-06
0.000649914
-7.41885e-05
1.15948e-06
0.000770933
-7.75993e-05
-1.69743e-05
0.000725028
-7.3486e-05
-3.96662e-05
0.000417282
-7.28265e-05
-5.85751e-05
0.000213379
-8.71424e-05
-3.75654e-05
-0.00054489
-0.000111452
-0.00159635
0.00224616
4.83836e-05
-0.00222538
-0.00146243
0.00258396
8.86996e-05
-0.00142815
0.00286214
0.000512329
-0.00293394
-0.0016228
0.00010752
-0.00139656
0.00305228
1.72282e-05
-0.00104217
0.00372214
0.000136058
-0.00112462
0.00365253
0.000313869
-0.00364533
-0.00141943
-4.62677e-05
-0.00145088
0.00314233
3.59531e-05
-0.00100035
0.00402247
6.01008e-05
-0.00103785
0.00423998
0.000105235
-0.000681333
0.00426649
0.000168566
-0.00427816
-0.00115816
8.24939e-05
-0.00187048
0.00296262
5.35998e-05
-0.00110193
0.00393093
5.63532e-05
-0.000869109
0.00438742
0.000121543
-0.00074333
0.00431894
0.000311313
-0.000520455
0.00446657
0.000379257
-0.00166176
0.00328447
0.000205458
-0.00134712
0.00384916
0.000162933
-0.000846609
0.00438092
0.000356359
-0.000503523
0.00461143
0.000386045
-0.000387262
0.00483088
0.0004273
-0.000544059
0.00489233
0.00052256
-0.00147187
0.003763
-3.7078e-05
-0.00165514
0.00408439
0.000319703
-0.000968552
0.00475862
0.000330905
-0.000522569
0.00513393
0.000489805
-0.000488926
0.00514679
0.000540841
-0.000403706
0.0050779
0.000634361
-0.000356854
0.00504493
0.000607115
-0.0016205
0.00367104
0.000171267
-0.00122757
0.00518841
0.000185584
-0.000729542
0.00552129
0.000358797
-0.000560555
0.00566332
0.000576804
-0.000307639
0.00572282
0.000548345
-0.00045447
0.00571909
0.000644731
-0.000417817
0.00586317
0.000699531
-0.000325287
0.00587946
0.000857876
-0.00106485
0.00480855
0.000232098
-0.00112972
0.00485869
0.000319329
-0.000689536
0.00599876
0.000487643
-0.000447415
0.00649696
0.000626656
-0.000253004
0.00661966
0.000657636
-0.000337557
0.00682304
0.000670605
-0.000205513
0.00675877
0.000682297
-0.00020139
0.00668008
0.000898265
-3.14982e-05
0.00658371
0.000881311
-0.000616201
0.00569526
0.000217651
-0.0012792
0.00625885
0.00059623
-0.000521575
0.00646104
0.00088435
-0.000305514
0.00626616
0.000831386
1.65885e-06
0.00651466
0.000665005
-0.00017924
0.00644982
0.000662913
-8.74236e-05
0.00621362
0.000606666
0.00010396
0.0061741
0.000533386
0.000116773
0.00636641
0.000512903
1.28414e-05
0.00652547
0.000608943
-0.000358644
0.00649746
0.000206199
-0.000454026
0.00650723
0.000646765
-0.000256249
0.00554526
0.000737263
-2.67745e-06
0.00553672
0.000965905
-4.01051e-05
0.00626639
0.000928879
0.000200604
0.00597969
0.00085739
-0.000132758
0.00552018
0.000774438
2.21918e-05
0.00556588
0.000744857
0.000116273
0.0054685
0.000903283
0.000132557
0.00420263
0.00088794
4.58298e-05
0.00359644
0.000653058
-0.000291027
0.004678
0.000284586
0.000191005
0.00318463
0.000336063
0.000288879
0.00224321
0.00033123
-4.75019e-05
0.00288549
0.000433761
3.10412e-05
0.00319446
0.000652496
1.40924e-05
0.00423095
0.000790979
-0.000153898
0.00405085
0.000477868
0.000101481
0.00355745
0.00037039
0.000168428
0.00390199
0.000235697
7.35788e-05
0.00352063
0.000103047
-5.49416e-05
0.00337762
-5.77304e-05
-6.04491e-05
0.00317783
2.67563e-07
-4.03474e-05
0.00171282
2.61945e-05
0.000295595
0.00158451
-0.000120537
0.000169303
0.00286842
0.000109628
0.000146414
0.00365569
6.0474e-06
5.32544e-05
0.00302519
5.42087e-06
6.42879e-05
0.00298247
-3.38705e-05
0.000119272
0.00281412
-0.000106863
7.94037e-05
0.00287401
-8.92221e-05
1.8294e-05
0.00267757
-8.96013e-05
-3.80514e-05
0.00261627
-0.000128537
-1.5896e-05
0.002512
-0.000170267
-3.02487e-05
0.00234185
-0.000188637
6.43053e-05
0.00222923
-0.00011439
0.000127301
0.00121184
-7.40051e-05
0.000106023
0.000212411
-0.000198202
0.000232317
0.00120056
-0.000151613
0.000173119
0.00227917
-9.02047e-05
0.00027377
0.00211393
-0.000130145
0.000138168
0.00224306
-0.000147747
3.84246e-05
0.00207385
-0.000128793
3.07118e-05
0.00200338
-0.000106874
-3.01714e-05
0.00256841
-0.000107943
-3.86881e-05
0.00274755
-0.000131564
-7.52135e-05
0.00189529
-0.000105169
-6.9939e-05
0.000927187
-9.64353e-05
-6.10108e-06
0.000426581
-0.000252767
3.71211e-05
-5.87087e-05
-0.000353209
5.55901e-05
-0.000795642
-1.14137e-05
4.86056e-05
-0.00110835
-4.84577e-05
0.000129295
-0.000760616
-7.38745e-05
0.000103537
0.000227879
-6.77936e-05
0.000142971
0.00124523
-3.69029e-05
9.95437e-05
0.000886172
-4.2144e-05
4.00966e-05
0.000573427
-6.54977e-05
2.83882e-05
0.00043806
-7.14765e-05
-3.35467e-06
0.000656892
-7.33856e-05
2.68315e-06
0.000770778
-7.67164e-05
-1.71864e-05
0.000737107
-7.2492e-05
-3.65765e-05
0.000451433
-7.10608e-05
-6.04233e-05
0.000286213
-8.52372e-05
-3.94983e-05
-0.000481857
-0.000110677
-2.41917e-05
-0.00101641
-0.000117957
-0.00161597
0.00237992
-1.93357e-05
-0.00234097
-0.00152053
0.00224133
6.29385e-05
-0.00156489
0.00267109
0.000109707
-0.00259568
-0.00168336
8.67805e-05
-0.0022516
-0.00148542
0.00263158
4.12442e-05
-0.00126769
0.00300733
0.000169037
-0.00122929
0.00329472
0.000541019
-0.00321873
-0.00160771
0.00024952
-0.00143366
0.00304931
-1.42605e-05
-0.00104108
0.00369104
8.90599e-05
-0.00123405
0.00374238
0.000242405
-0.000851013
0.00403412
0.000366848
-0.00391742
-0.00133177
2.36217e-05
-0.00168693
0.00291665
4.21353e-05
-0.00110528
0.00402619
3.55797e-05
-0.000923599
0.00422573
0.000128839
-0.000859699
0.00427982
0.000208277
-0.000602471
0.0042415
0.000317314
-0.00430823
-0.000759253
0.00021078
-0.00177524
0.00293179
0.000144316
-0.00130683
0.00385774
8.65095e-05
-0.000725725
0.00425264
7.02497e-05
-0.000654541
0.00428534
0.000306157
-0.000497478
0.00447354
0.000414559
-0.000642243
0.00436291
0.00044593
-0.00172047
0.00332807
0.000205002
-0.00149874
0.00374454
0.000153673
-0.00105139
0.00434312
0.000283568
-0.000601334
0.00467085
0.000375701
-0.000414507
0.0046964
0.000446099
-0.000458925
0.00489144
0.000483413
-0.00051527
0.00488033
0.000603545
-0.0014397
0.00363726
-5.50634e-05
-0.00160486
0.00427083
0.00015377
-0.000976035
0.00486469
0.000460132
-0.000687876
0.00505783
0.000534329
-0.000383219
0.00518257
0.000529605
-0.00044901
0.00498232
0.000630957
-0.000383154
0.00488502
0.00075961
-0.000391716
0.00480434
0.000750361
-0.0015447
0.00388215
0.00026874
-0.0011487
0.00516173
0.00021693
-0.000877736
0.00552991
0.000365162
-0.000783448
0.00583754
0.000520617
-0.000363107
0.00574051
0.000669219
-0.000485503
0.00576723
0.000648145
-0.000357664
0.00586751
0.000792542
-0.000202404
0.00571951
0.000860494
-0.000181156
0.00562156
0.00106209
-0.000942774
0.00485517
0.000279957
-0.00129504
0.00475932
0.000347308
-0.000755719
0.00606686
0.00048537
-0.000423927
0.00643364
0.000669374
-0.000178085
0.00668353
0.00074253
-0.000181726
0.00679908
0.00068408
-0.000165026
0.0067434
0.000763579
-1.17218e-05
0.00666309
0.000814967
1.93743e-05
0.00667816
0.000901212
3.4785e-05
0.00634716
0.00097632
-0.000532811
0.00563045
0.000238977
-0.00119269
0.0065969
0.000618261
-0.000557096
0.00653269
0.000825434
-8.59094e-05
0.00639414
0.000839603
-9.95128e-05
0.00659628
0.000809175
6.2802e-05
0.00648757
0.000765053
-0.000154727
0.00626351
0.000634987
0.000115058
0.00603698
0.000650919
0.000129962
0.00636819
0.000517912
0.000274975
0.00632819
0.000567763
0.000127282
0.00587836
0.000817102
-0.000421226
0.00625293
0.000374728
-0.00024142
0.00654574
0.000600114
1.67184e-05
0.00572176
0.00074242
-0.000362648
0.00558308
0.00100605
6.52245e-05
0.00620971
0.000988405
-5.06762e-05
0.00608134
0.000891991
7.84613e-05
0.00532882
0.000816391
-3.1556e-05
0.00567809
0.000795264
0.000141831
0.00533197
0.000907982
0.000178492
0.0040834
0.000917597
0.000128689
0.0036906
0.000610146
2.02036e-05
0.00406323
0.000516807
-0.000389623
0.00474623
0.000281046
1.5483e-05
0.0034258
0.000323528
9.71729e-05
0.00231598
0.000335428
0.000230843
0.00277665
0.000355647
-5.12767e-05
0.00316039
0.000572363
4.3695e-06
0.00431094
0.000632421
0.000234519
0.00415709
0.000569492
0.000192133
0.00361248
0.000310107
0.000201621
0.00397062
0.000118437
0.000104313
0.00362301
-9.04707e-06
1.02532e-05
0.00350376
-4.92378e-05
-4.65638e-05
0.00317495
-3.85341e-05
-4.95853e-05
0.00294079
3.47792e-05
-0.000203443
0.00203928
4.28691e-06
0.000231586
0.00161382
-0.000128678
0.000151137
0.00288954
-6.0475e-05
0.000207558
0.00359452
0.000136362
0.000231986
0.0030648
8.22368e-06
4.40588e-05
0.00309245
-1.04454e-05
-7.12682e-05
0.00299042
-0.000100476
3.33437e-05
0.00287859
-0.000114072
2.12376e-05
0.00266213
-0.000125192
-3.16132e-05
0.00265869
-0.000139104
-2.34105e-05
0.00251772
-0.000186061
8.86762e-07
0.00229199
-0.000191228
3.5075e-05
0.00213822
-0.000138804
9.13546e-05
0.0020389
-9.02649e-05
0.000127206
0.00120897
-6.87427e-05
4.29917e-05
0.000342937
-0.000198917
0.000212139
0.00109146
-0.000171947
0.000222151
0.00214167
-0.000132731
0.000222279
0.00207305
-0.000128625
0.000150997
0.00221958
-0.000158119
4.33229e-05
0.00205035
-0.000127471
4.36314e-05
0.00196345
-0.000104107
-1.56757e-05
0.00258048
-0.000106624
-3.29279e-05
0.00280809
-0.000132877
-7.40853e-05
0.0019209
-0.00010028
-7.37116e-05
0.000949888
-9.07347e-05
-1.00384e-05
0.000519792
-0.000240032
4.4785e-05
-4.08956e-05
-0.000354864
4.5707e-05
0.000286734
-0.00030436
5.30632e-05
-0.000835511
-1.31944e-05
4.24783e-05
-0.00111501
-4.72328e-05
0.000119148
-0.000859762
-6.84599e-05
0.000104431
0.000116101
-6.65273e-05
0.000135936
0.00108025
-3.8751e-05
0.000100319
0.000791764
-4.28135e-05
3.93399e-05
0.000557553
-6.561e-05
3.16777e-05
0.000413428
-7.25438e-05