/*--------------------------------*- C++ -*----------------------------------*\
  =========                 |
  \\      /  F ield         | OpenFOAM: The Open Source CFD Toolbox
   \\    /   O peration     | Website:  https://openfoam.org
    \\  /    A nd           | Version:  7
     \\/     M anipulation  |
\*---------------------------------------------------------------------------*/
FoamFile
{
    version     2.0;
    format      ascii;
    class       surfaceScalarField;
    location    "2";
    object      phi_0;
}
// * * * * * * * * * * * * * * * * * * * * * * * * * * * * * * * * * * * * * //

dimensions      [0 3 -1 0 0 0 0];

internalField   nonuniform List<scalar> 
54095
(
5.00502e-05
8.8715e-05
-3.14211e-05
-0.000178258
0.000517074
2.62659e-05
7.15488e-05
5.60706e-05
-3.89044e-05
0.000297155
0.000455509
-4.80223e-05
-0.000430518
8.42831e-05
-0.000159948
-0.000145248
0.000725614
8.25597e-06
0.000276512
0.000906369
5.4772e-05
9.48525e-05
3.05012e-06
-4.18321e-05
0.000314694
0.000161786
-5.98752e-05
0.000116282
0.000967918
-5.01344e-05
-0.000912851
0.00501436
0.000414589
-0.000362629
0.000396511
-9.48469e-05
-8.9109e-05
0.002108
0.000314542
-9.74695e-05
0.000923155
-5.21884e-06
0.000338099
0.000867862
2.33581e-05
9.04802e-05
0.00195787
7.53609e-05
0.000106224
-6.52623e-05
-3.79114e-05
0.000312374
-0.000122774
-6.96458e-05
0.000126655
0.000836344
-5.49561e-05
4.2964e-05
0.0013751
-4.357e-05
-0.00109232
0.00597251
0.000440582
-0.000745057
0.0051296
0.000267188
-0.000464294
0.00277612
0.000664162
-0.00026787
0.000603246
-3.63344e-05
0.000151679
0.00193577
0.000263805
-0.000231516
0.00168466
0.000295892
-6.24921e-05
0.00110295
-1.10816e-05
0.000399634
0.000779521
-4.13857e-06
0.000102157
0.00195809
4.76418e-05
-6.80517e-05
0.00213714
6.52654e-05
0.000108587
-0.000143882
-2.99675e-05
0.00029198
-0.000377036
-7.56295e-05
0.000139462
0.000688413
-6.11767e-05
4.83363e-05
0.00131557
-4.37596e-05
6.15142e-05
0.00247408
-3.73324e-05
-0.00139645
0.00426929
0.000369487
-0.00100126
0.00586661
0.000362102
-0.000647085
0.0051452
0.000882852
-0.00054346
0.00523946
0.000165731
-8.03627e-05
0.00274036
0.000534993
-0.000448073
0.00287689
0.000705864
-0.000238036
0.000773205
5.58538e-06
0.000228471
0.00185282
0.000217778
-0.000150598
0.00186247
0.000338755
-0.000261055
0.00241807
0.00013475
-2.52741e-05
0.00124914
-1.23308e-05
0.000438371
0.000649708
-2.76599e-05
0.000128682
0.00191862
4.61093e-05
-4.39794e-05
0.00224604
3.10577e-05
5.0199e-05
0.00199261
-1.13536e-05
0.000105422
-0.000228306
-2.09975e-05
0.000259118
-0.000586787
-7.93353e-05
0.000150625
0.00053014
-6.79816e-05
5.74882e-05
0.00124193
-4.50247e-05
7.02774e-05
0.00239537
-3.53321e-05
4.91846e-05
0.00147913
-4.46687e-05
-0.00142737
0.00404795
0.000201264
-0.00143253
0.0043622
0.00033836
-0.000707175
0.00542056
0.000552551
-0.000907505
0.00596764
0.000263011
-0.000592307
0.00521566
0.000803586
-0.000372792
0.00492447
0.000957795
-0.000465391
0.00530099
0.000165817
0.000130663
0.00254394
0.000459958
-0.000377712
0.00295468
0.000684318
-0.000409595
0.00297587
0.000718894
-0.000165412
0.00088579
2.75535e-05
0.000278854
0.00182587
0.000192053
-6.97622e-05
0.00203908
0.000239615
-0.00019974
0.00269335
0.000219236
-0.000115808
0.0020495
0.00010295
7.24961e-06
0.0013543
-6.98329e-06
0.000430406
0.000520694
-5.46043e-05
0.000146462
0.00187245
2.26747e-05
-2.19643e-05
0.00234798
2.36209e-05
5.43629e-05
0.00207334
-3.37594e-05
3.72494e-05
0.0019099
-0.000100273
9.67505e-05
-0.000313513
-1.1544e-05
0.000222439
-0.000749509
-8.07141e-05
0.000158485
0.000366991
-7.46709e-05
6.55408e-05
0.00115546
-4.70508e-05
7.67687e-05
0.00230905
-3.54736e-05
5.26377e-05
0.00143432
-4.31555e-05
1.67322e-05
0.00067374
-5.14637e-05
-0.00138795
0.00421742
0.000261157
-0.00155008
0.00392685
0.000238643
-0.000775879
0.00609316
0.000491175
-0.00140729
0.00449172
0.000370264
-0.000674359
0.00535769
0.000483285
-0.000166865
0.00589923
0.000645021
-0.000840252
0.00609797
0.00024453
-0.000450664
0.00530821
0.000751794
-0.000544284
0.00502804
0.000866591
-0.000352228
0.00513135
0.000842369
-0.000382579
0.00534546
0.000172701
0.000190916
0.00236624
0.000431451
-0.000157027
0.00286322
0.000638682
-0.000369282
0.00308513
0.000744597
-0.000280256
0.0032392
0.000683608
-2.23225e-05
0.000886726
2.8636e-05
0.000267874
0.00186411
0.000151849
-2.60835e-05
0.00223513
0.000168542
-0.000144839
0.00294139
0.000114458
-0.000107614
0.00234035
9.03692e-05
-7.6772e-05
0.00225122
6.57249e-05
3.94402e-05
0.00141159
1.58932e-08
0.000421723
0.000385758
-7.13322e-05
0.000165231
0.00182076
-9.66013e-06
-5.65006e-06
0.00239382
4.8031e-05
8.42153e-05
0.00214142
-5.19112e-05
4.20367e-05
0.00199222
-0.000105477
-4.1831e-05
0.00181301
-0.000105053
8.63702e-05
-0.000396588
-3.29518e-06
0.000186388
-0.000868881
-7.85601e-05
0.000169432
0.000196848
-8.00028e-05
7.36341e-05
0.00105678
-4.96293e-05
9.2056e-05
0.00220707
-3.7118e-05
5.72917e-05
0.00138454
-4.29841e-05
1.93061e-05
0.000664203
-5.29239e-05
1.42707e-05
0.000512865
-6.05366e-05
-0.00151187
0.00380873
1.54692e-05
-0.00157231
0.00398534
0.000254315
-0.000869459
0.00455148
0.00033859
-0.00147702
0.00389484
0.000101742
-0.00080964
0.00595815
0.000508935
-0.000244744
0.00607865
0.000573628
-0.00142345
0.00467626
0.000398661
-0.000835602
0.00556166
0.000551236
-0.000397303
0.00568088
0.000554656
-0.00027765
0.00603829
0.000664072
-0.000802863
0.00627259
0.000245667
-0.000218108
0.00525483
0.000706926
-0.000351124
0.00508442
0.000889514
-0.00035174
0.00515822
0.000822189
-0.000179853
0.0053326
0.000719268
-5.85873e-05
0.00519975
0.000181975
4.40554e-05
0.00232575
0.000437012
2.75048e-06
0.00267261
0.000593221
-0.000289742
0.0031195
0.000749224
-0.000231009
0.0033883
0.000718894
-0.00018713
0.00342236
0.000562783
-0.000100799
0.000965735
6.12301e-05
0.000315393
0.00188917
0.000109907
3.01585e-05
0.00236952
0.000152536
-8.76018e-05
0.00311087
8.10107e-05
-5.55929e-05
0.00253981
5.48041e-05
-9.03731e-06
0.00237154
2.11214e-05
-5.8041e-05
0.00264427
7.00428e-05
7.7746e-05
0.00142641
-6.19484e-06
0.000398633
0.000247122
-7.3593e-05
0.000183416
0.0017778
-4.23605e-05
1.78991e-05
0.0024432
-3.30927e-06
0.000129624
0.00216923
-1.73408e-05
5.60271e-05
0.00205448
-0.000112905
-3.8267e-05
0.00187581
-0.000110699
-3.68025e-05
0.00183932
-0.000110007
7.30584e-05
-0.000471899
2.25298e-06
0.000153441
-0.000953054
-7.25637e-05
0.000178483
2.381e-05
-8.40055e-05
8.2919e-05
0.000944702
-5.08427e-05
9.92216e-05
0.00209673
-3.85122e-05
5.9084e-05
0.00133104
-4.27087e-05
2.01656e-05
0.000655924
-5.48714e-05
1.45227e-05
0.000506945
-6.1526e-05
2.05381e-05
0.000623313
-7.44958e-05
-0.00152129
0.00337696
0.000137817
-0.00158472
0.00389617
-7.50309e-05
-0.00103434
0.00444174
0.000217886
-0.0014441
0.00374082
0.000211604
-0.000968481
0.00462551
0.000339129
-0.000471313
0.00545995
0.000530291
-0.00156892
0.00389337
0.000146941
-0.000971446
0.00571176
0.000483977
-0.000390159
0.00599655
0.000583883
-0.000245774
0.00615832
0.000542597
-0.00139164
0.0048867
0.000378334
-0.000753828
0.00581508
0.000680961
-0.000347936
0.00569364
0.000535287
-0.000282374
0.00600645
0.000517129
-0.000174436
0.00628561
0.000588234
-0.000550548
0.0065415
0.000223047
-0.000366138
0.00523033
0.000680366
-0.00026139
0.00518313
0.000872357
-0.000421437
0.00533028
0.000849147
-0.000250616
0.00550251
0.000671896
-0.000243392
0.00545908
0.000576473
-0.0002247
0.00508823
0.000235419
-5.88496e-05
0.00243636
0.000445615
6.25815e-05
0.00251581
0.000561392
-0.00017129
0.00307895
0.00071746
-0.000166853
0.00345721
0.000791565
-5.98508e-05
0.00363244
0.000559636
-9.86916e-05
0.00328023
0.000548768
-5.31168e-05
0.00104438
5.22211e-05
0.00035585
0.00183931
0.000153875
6.31318e-05
0.00247033
0.000129376
-4.50151e-05
0.00325
7.63205e-05
1.23704e-05
0.00271555
2.25217e-05
-3.05116e-06
0.00247863
6.79063e-06
-3.06158e-06
0.00258845
4.17368e-05
-9.36264e-05
0.00303506
4.64694e-05
0.000103601
0.00140902
-1.31529e-05
0.00035676
0.000155626
-0.000118017
0.00020885
0.0016974
-2.35547e-05
3.62198e-05
0.00248245
-3.49103e-05
0.000137906
0.00219028
-6.30518e-05
4.12211e-05
0.00217084
-0.000115839
-3.75787e-05
0.00193471
-0.000114065
-5.41522e-05
0.001902
-0.000104703
9.7341e-06
0.0023559
-0.000123899
6.3233e-05
-0.000539368
4.23617e-06
0.000126554
-0.00101059
-6.67664e-05
0.000171872
-0.000135577
-8.5048e-05
9.15721e-05
0.000823535
-5.44103e-05
0.000102776
0.00198162
-3.85072e-05
6.69373e-05
0.00126703
-4.14342e-05
2.21098e-05
0.000647477
-5.63712e-05
1.42983e-05
0.00050096
-6.31847e-05
8.46881e-06
0.000628041
-7.47231e-05
-2.02661e-05
0.000746328
-7.78121e-05
-0.00139177
0.00328476
9.68542e-06
-0.00164335
0.00324691
0.000188681
-0.000864002
0.0040461
0.000167694
-0.00145141
0.0039954
-9.19182e-05
-0.0011675
0.00436645
0.000199282
-0.000518692
0.00487323
0.000324169
-0.00160003
0.00363271
0.000139223
-0.00105217
0.00461895
0.00029889
-0.000568701
0.00545307
0.000524553
-0.00025174
0.00573584
0.000547408
-0.00156655
0.00397154
9.67363e-05
-0.000978919
0.00563574
0.000448046
-0.000415159
0.00589819
0.000649568
-0.000313264
0.00617406
0.000599032
-0.00040152
0.00621705
0.000559228
-0.00118599
0.00522418
0.000297966
-0.000870416
0.00588476
0.000812933
-0.000465244
0.00597192
0.00060653
-0.000367787
0.0060135
0.000474585
-0.000312853
0.00637355
0.000491424
-0.000195876
0.00643651
0.00052266
-0.000485967
0.00660312
0.000199652
-0.000633407
0.00537178
0.000656157
6.57245e-05
0.00499323
0.000867123
-0.000320954
0.00544681
0.00090549
-1.43245e-05
0.00550898
0.000690144
-0.000207404
0.00572458
0.000553947
-0.000209469
0.00538229
0.000580763
-0.000250317
0.00500877
0.000276657
5.21422e-05
0.00255619
0.000419291
3.33676e-05
0.0025375
0.000453689
-0.000163977
0.00305433
0.000704972
-0.000170079
0.00351792
0.000839206
-6.81184e-05
0.00383777
0.000651301
-1.11722e-05
0.00332138
0.000526603
-0.000141614
0.00359484
0.000615922
-4.65257e-05
0.0010965
9.80042e-05
0.000347167
0.00183774
6.33819e-05
0.000107618
0.0026169
0.000108541
7.09232e-05
0.00329767
4.70033e-05
6.95089e-05
0.0028139
4.63724e-05
8.39676e-06
0.00257373
-3.97532e-05
-4.66459e-05
0.00258233
2.19779e-05
-6.00027e-05
0.00303683
4.58184e-05
-2.17864e-05
0.00254674
-3.81755e-05
0.000146093
0.00134642
-2.02521e-05
0.000299957
0.000115149
-0.000146079
0.000202851
0.00163028
-8.18844e-05
5.02255e-05
0.00251879
-1.85445e-05
0.000147789
0.00219228
-8.19191e-05
9.72554e-05
0.00220423
-0.000126757
-3.44905e-05
0.00199351
-0.000118037
-5.8031e-05
0.00196456
-0.0001043
-1.71762e-05
0.00241085
-0.00013401
-0.000101762
0.00247811
-0.000142414
5.71819e-05
-0.000598737
2.18718e-06
0.00010556
-0.00105013
-6.17849e-05
0.000165767
-0.000282475
-8.56356e-05
9.9036e-05
0.000697994
-5.85432e-05
0.000113651
0.00185219
-3.86349e-05
6.45471e-05
0.00120528
-4.13075e-05
2.5764e-05
0.000637818
-5.75392e-05
1.48784e-05
0.000494719
-6.50092e-05
7.32347e-06
0.000632591
-7.5058e-05
-9.96621e-07
0.00075042
-7.78183e-05
-1.61299e-05
0.000686303
-7.6972e-05
-0.00125368
0.00367498
-7.70304e-05
-0.00373604
-0.0015012
0.00315698
-1.43674e-05
-0.000834738
0.00437154
-2.79659e-06
-0.00168036
0.00327199
0.000203876
-0.00102349
0.00393351
0.000157258
-0.00064909
0.00461139
0.000326265
-0.00147087
0.00393104
-6.48046e-05
-0.00118615
0.00423278
0.000175728
-0.00067325
0.00486604
0.000311027
-0.00042382
0.00527107
0.000485362
-0.00162722
0.00354303
0.000150351
-0.00111878
0.0047097
0.000188328
-0.000638378
0.00548573
0.000489444
-0.00033856
0.00572228
0.000563402
-0.000402453
0.00569419
0.000541962
-0.00148822
0.00411872
0.000155053
-0.00109207
0.00555347
0.000400656
-0.000547994
0.0057757
0.000653283
-0.000272612
0.00615194
0.000576517
-0.000401966
0.00630931
0.000595884
-0.000364459
0.00643969
0.000559684
-0.0010048
0.00551201
0.000231006
-0.000965421
0.00574574
0.000768996
-7.2975e-05
0.00612257
0.000800982
-0.000297898
0.0060226
0.000574374
-9.08034e-05
0.0063704
0.000554212
-0.000181236
0.00640558
0.000496186
0.000135765
0.0063558
0.000328509
-0.00050971
0.00664417
0.000218345
-0.000573352
0.00557242
0.000624505
-0.000225905
0.00507698
0.000831674
-0.000276255
0.00551503
0.000911183
-0.000272612
0.005715
0.000801998
-0.000111496
0.00586106
0.000597037
-0.000256635
0.00555469
0.000627011
-4.78918e-05
0.00550065
0.000569393
-0.000180407
0.00489652
0.000246133
2.67905e-05
0.00271519
0.000438035
0.000120259
0.00249392
0.000450235
-2.06207e-06
0.00298298
0.00059802
2.89832e-05
0.00342555
0.000837865
1.90746e-05
0.00397402
0.000692272
-0.000131217
0.00350397
0.000553283
-2.45966e-05
0.00349674
0.000589302
6.93132e-05
0.00365924
0.000472909
1.35305e-05
0.00117166
5.73976e-05
0.000409183
0.00180113
2.53886e-05
8.98075e-05
0.00272672
6.66029e-05
8.02213e-05
0.00339673
-2.05193e-05
9.75529e-05
0.00291792
-6.78475e-06
2.71175e-05
0.00269475
-4.50637e-06
-0.000118046
0.00262649
-3.60008e-07
-3.81604e-05
0.00300249
3.64542e-05
6.31843e-06
0.00259322
-2.41541e-05
-0.000108634
0.00239504
-0.00011065
0.00015599
0.00128204
-3.44362e-05
0.000264905
0.000102541
-0.000166989
0.0002068
0.00155139
-0.000108222
8.8095e-05
0.00249201
-4.41687e-05
0.000169751
0.00221108
-9.34466e-05
6.65921e-05
0.00224873
-0.000128463
-2.27425e-05
0.00203782
-0.000122566
-5.03956e-05
0.00201573
-0.000103928
-2.87113e-05
0.00245616
-0.000113567
-4.83209e-05
0.00254801
-0.000156583
-8.42201e-05
0.00183816
-0.00013865
5.5929e-05
-0.00065316
-1.50679e-06
8.81369e-05
-0.0010783
-5.77773e-05
0.000158279
-0.000417255
-8.52841e-05
0.000101932
0.000571973
-6.15467e-05
0.00012211
0.00170929
-3.77545e-05
7.3142e-05
0.00113464
-4.11393e-05
3.19722e-05
0.000623889
-5.93505e-05
1.77244e-05
0.000486245
-6.67899e-05
6.8111e-06
0.000636015
-7.52438e-05
-5.80279e-06
0.000759025
-7.78605e-05
-1.68346e-05
0.000701023
-7.57041e-05
-3.8046e-05
0.000348626
-7.68039e-05
-0.00136562
0.00305941
3.02439e-05
-0.00297772
-0.0012874
0.0035449
-8.37266e-05
-0.00096913
0.00415411
-5.31727e-05
-0.00404358
-0.00142324
-0.000219318
-0.00155016
0.003002
2.47851e-05
-0.000765799
0.00413851
-3.90185e-05
-0.000750401
0.0044669
6.96749e-05
-0.00174351
0.00328748
0.000257149
-0.00124081
0.00398576
0.000206285
-0.000771224
0.00455703
0.000309594
-0.000465397
0.0046056
0.00033064
-0.0014966
0.0038912
-9.07849e-05
-0.00131979
0.00415343
0.000215554
-0.000627199
0.00470487
0.00032572
-0.000462204
0.00517421
0.000531534
-0.000368463
0.00519482
0.000535142
-0.00157421
0.00353172
9.7303e-05
-0.00123609
0.00480054
0.000203532
-0.00081425
0.00553576
0.00040456
-0.000355783
0.00573342
0.000561478
-0.000395561
0.00570721
0.00054398
-0.00031326
0.00568632
0.000581527
-0.00146701
0.00441962
0.000161307
-0.000905488
0.00531424
0.000334347
-0.000529879
0.00596047
0.000672792
-0.000231197
0.00612034
0.000618179
-0.000380307
0.00655032
0.00062501
-0.000350078
0.00655769
0.000646729
-8.66445e-06
0.00651391
0.0006615
-0.000806545
0.00562232
0.000186521
-0.00115046
0.00585067
0.000703188
-0.000399897
0.00619348
0.00087208
-0.000241074
0.00609553
0.000692868
-0.00026877
0.00633341
0.000607523
-0.000107757
0.00641039
0.000545666
-0.000294859
0.00641518
0.000475025
0.000169155
0.00640203
0.000276448
-0.000412651
0.00660119
0.000275217
-0.000605771
0.00584426
0.000579065
-0.000289972
0.00530524
0.000806484
-0.000181383
0.00561339
0.000912635
-9.10281e-05
0.00600842
0.000737782
-9.36469e-05
0.00606342
0.000712363
-0.000168412
0.00555562
0.000633297
-5.52045e-05
0.00555577
0.000602495
8.05311e-05
0.00585531
0.00065746
-0.000172429
0.00479776
0.000284718
0.00015586
0.00285246
0.000362186
0.000127618
0.00245657
0.000437575
2.16333e-05
0.00288448
0.000607324
7.03645e-06
0.00331521
0.000798873
-0.000132671
0.00418106
0.000790617
-0.000164448
0.00370226
0.000540381
-1.65791e-06
0.00348457
0.000528948
0.000130488
0.00373884
0.000385534
3.9984e-05
0.00321335
0.000276036
-4.09435e-05
0.00135897
9.62525e-06
0.000417815
0.00161607
8.95437e-05
7.00589e-05
0.00295072
-6.18672e-05
8.67261e-05
0.00347875
-1.40487e-05
0.000162531
0.00294168
-3.70609e-05
-2.76375e-05
0.00283468
-5.24862e-05
-6.50734e-05
0.00270555
-4.1234e-05
-1.17722e-05
0.00294933
1.41714e-05
1.61786e-05
0.00263135
-4.65693e-05
-9.53405e-05
0.0025205
-0.000102594
-0.000103196
0.00245638
-0.000169986
0.000153801
0.00124044
-5.62639e-05
0.00022623
0.000106121
-0.00017611
0.000204248
0.00146103
-0.000122592
7.2088e-05
0.00248425
-7.06116e-05
0.000191262
0.00220151
-0.000103752
8.51256e-05
0.00227328
-0.000129981
1.55083e-06
0.00206672
-0.000126933
-1.91074e-05
0.0020352
-0.000105208
-3.12014e-05
0.00250283
-0.000112587
-6.20168e-05
0.00262903
-0.000138379
-7.45125e-05
0.00185635
-0.000117094
-6.56841e-05
0.00087479
-0.000138439
5.79666e-05
-0.000705707
-5.41894e-06
7.19213e-05
-0.001098
-5.37272e-05
0.000150443
-0.000541722
-8.37537e-05
0.000101489
0.0004499
-6.47e-05
0.000127628
0.00155602
-3.59033e-05
8.00667e-05
0.00105776
-4.09374e-05
3.76015e-05
0.000606833
-6.16849e-05
2.26779e-05
0.000472508
-6.82911e-05
6.85318e-06
0.000637235
-7.48632e-05
-1.97703e-06
0.000763617
-7.78586e-05
-1.52486e-05
0.000712855
-7.44436e-05
-3.88253e-05
0.000386382
-7.46349e-05
-5.61924e-05
0.000153473
-8.85221e-05
-0.00152549
0.00252991
0.000112763
-0.0024828
-0.00131562
0.00306729
2.03521e-05
-0.00109289
0.00364221
0.000157441
-0.00364564
-0.00155183
0.000106509
-0.00139536
0.00339833
-8.23131e-06
-0.000839946
0.00419226
-4.77256e-05
-0.000963633
0.00413381
3.14355e-05
-0.00400518
-0.00125096
-0.000100762
-0.00168798
0.00288834
5.81302e-05
-0.00111576
0.00400354
3.47053e-05
-0.000777283
0.00436512
6.88193e-05
-0.000564474
0.00433952
0.000301428
-0.00174151
0.00328499
0.000247398
-0.00118282
0.00389107
0.000214869
-0.000759215
0.00451716
0.000378171
-0.000519713
0.00461817
0.000354534
-0.000391255
0.00484951
0.000382002
-0.00145293
0.00384882
-7.89005e-05
-0.00148922
0.00407962
0.000236162
-0.000856622
0.00469469
0.0002681
-0.000505239
0.00514041
0.000508978
-0.000340468
0.00509575
0.000575511
-0.000280174
0.00514753
0.000558477
-0.00160785
0.00354726
0.000125302
-0.00124863
0.00508975
0.000151235
-0.000799771
0.00563424
0.000374943
-0.000313322
0.00565489
0.000565216
-0.000404773
0.00573865
0.000554503
-0.000433167
0.00569077
0.000622627
-0.000359095
0.00597804
0.000723555
-0.00130893
0.00471704
0.000204964
-0.00105876
0.00504522
0.000338625
-0.00064505
0.00601223
0.000527738
-0.000358829
0.00627118
0.000639708
-0.000338754
0.00659626
0.000642225
-0.000330871
0.00668589
0.000719923
-0.000454312
0.0065173
0.000802797
-0.00010057
0.00657511
0.000847045
-0.000704097
0.00570392
0.000209844
-0.00123198
0.0059707
0.000692688
-0.000547713
0.00629818
0.00085623
-0.000119665
0.00616392
0.000741977
-0.000197754
0.00647789
0.000655113
-0.000161577
0.00647617
0.000609664
2.70861e-05
0.00623777
0.000527576
1.61057e-06
0.00633329
0.000486956
3.65434e-05
0.00637595
0.0004613
-0.00039531
0.00657163
0.000252444
-0.000556775
0.00625837
0.000573737
-0.00017726
0.00539969
0.000789485
-0.00020864
0.00569469
0.000955451
-1.61729e-05
0.00610054
0.000843724
-0.000179777
0.00613994
0.000708372
-0.000124305
0.00550367
0.000724179
-5.11157e-05
0.00555527
0.000683257
0.00014267
0.00566442
0.000781197
4.39415e-05
0.00441661
0.000799695
-0.000246011
0.00469297
0.00030986
0.000203558
0.00304178
0.000309658
7.73058e-05
0.00243113
0.000380373
1.32086e-05
0.00287443
0.000521146
0.000121987
0.00320232
0.00076076
5.46832e-05
0.00423997
0.000657639
-4.71907e-05
0.00388293
0.000592061
7.34405e-05
0.00345253
0.000487208
0.000133841
0.00380994
0.000340186
1.57224e-05
0.00341936
6.84649e-05
-0.000106923
0.00324571
9.90317e-05
-4.98161e-05
0.00155613
6.45715e-06
0.000345187
0.00159424
-8.74974e-05
0.000122263
0.00298211
0.000140138
1.02619e-05
0.00355897
-8.02579e-05
0.000132998
0.00299414
-8.23617e-06
4.80949e-05
0.0029083
-7.36563e-05
-0.000139803
0.00288427
-8.98524e-05
-1.21905e-05
0.00293789
-3.67051e-05
2.60247e-05
0.00265634
-6.80442e-05
-5.22154e-05
0.00257212
-0.000107996
-4.75486e-05
0.00250357
-0.000176742
-2.78238e-05
0.00237596
-0.000162882
0.000156416
0.00121331
-7.13216e-05
0.000169619
0.000138475
-0.000186316
0.000249935
0.00132527
-0.000139843
0.000143497
0.00239872
-7.90687e-05
0.000172333
0.00220449
-0.000118289
0.000126515
0.00226316
-0.000140077
2.56203e-05
0.00207933
-0.00013061
9.67043e-06
0.0020254
-0.000104126
-2.06928e-05
0.00253675
-0.000111585
-4.63843e-05
0.002696
-0.000135149
-6.36879e-05
0.00187245
-0.00010604
-7.48461e-05
0.000906337
-0.000112621
1.56887e-05
0.000349108
-0.000260179
5.47866e-05
-0.000752569
-7.92527e-06
5.65997e-05
-0.00110913
-5.0892e-05
0.000140335
-0.000656519
-7.92648e-05
0.00010208
0.000331842
-6.77763e-05
0.000130384
0.00139645
-3.55133e-05
9.07235e-05
0.000972599
-4.14668e-05
4.12987e-05
0.000588481
-6.38837e-05
2.63622e-05
0.000454325
-6.98634e-05
-1.63325e-06
0.000644528
-7.39505e-05
1.39037e-06
0.000764818
-7.74552e-05
-1.66733e-05
0.00072506
-7.33899e-05
-3.87027e-05
0.000423245
-7.2604e-05
-5.84781e-05
0.000224105
-8.67883e-05
-3.7906e-05
-0.000530815
-0.000111366
-0.0015955
0.00224615
4.87028e-05
-0.00222484
-0.00146139
0.00258803
8.76541e-05
-0.00142223
0.00286851
0.000509789
-0.0029362
-0.00162394
0.000107347
-0.00139804
0.00305391
1.60609e-05
-0.00103966
0.00372825
0.000134022
-0.00112644
0.00365724
0.000312347
-0.00364934
-0.00141634
-4.63672e-05
-0.00145712
0.00313135
3.61223e-05
-0.00101127
0.00401849
6.10435e-05
-0.00103587
0.00423904
0.000105627
-0.00068438
0.00426394
0.000168293
-0.00428089
-0.00115562
8.18816e-05
-0.00187268
0.00296225
5.72655e-05
-0.00110452
0.00392459
5.87825e-05
-0.000865483
0.00438409
0.000121997
-0.000741838
0.00431773
0.00031273
-0.000520698
0.00446856
0.000380412
-0.00165872
0.00328794
0.000202843
-0.00135345
0.00384162
0.000161076
-0.000853789
0.00437504
0.000354149
-0.000508744
0.00461306
0.000386778
-0.000394184
0.00482839
0.000429364
-0.000543398
0.00489573
0.0005209
-0.00147471
0.0037539
-3.82169e-05
-0.00165973
0.00409473
0.000317088
-0.000972345
0.00476643
0.000337002
-0.000526167
0.0051321
0.000489253
-0.000487425
0.00514844
0.000538947
-0.000415371
0.00507043
0.000634809
-0.000357585
0.0050346
0.00061045
-0.00162085
0.00368467
0.000174511
-0.00122339
0.00519024
0.000189437
-0.00073354
0.00551635
0.000357615
-0.000574883
0.00566942
0.000576461
-0.000310928
0.00572193
0.000554114
-0.000451762
0.00572081
0.000645352
-0.000413991
0.00585917
0.000701178
-0.000315643
0.00587709
0.000860281
-0.0010428
0.00482042
0.000235317
-0.00114235
0.0048389
0.000321664
-0.000686622
0.00600152
0.000488244
-0.000455416
0.00650727
0.000627399
-0.000244947
0.00662398
0.000659181
-0.000333833
0.00683401
0.000666359
-0.000191832
0.00677257
0.000683572
-0.000200017
0.00668869
0.000890839
-2.31636e-05
0.00658889
0.000882468
-0.000609984
0.00570001
0.000218587
-0.00127601
0.00630145
0.000598332
-0.000532981
0.00647095
0.000875638
-0.000299271
0.00627531
0.000835467
6.38225e-06
0.00652484
0.000672475
-0.000173521
0.00645296
0.000672067
-9.61533e-05
0.00620544
0.000613844
0.000106188
0.00615847
0.000545089
0.000121879
0.00636978
0.000513916
3.62873e-05
0.00650652
0.000610021
-0.00036816
0.00647059
0.000223193
-0.000430466
0.0064949
0.000649941
-0.000242802
0.00556019
0.000733349
-7.54063e-06
0.00553343
0.000971494
-3.77927e-05
0.00628043
0.000935339
0.00019672
0.00597031
0.000871317
-0.000126197
0.00550914
0.000781906
1.3457e-05
0.00558656
0.000752874
0.000116153
0.00545683
0.000908536
0.000140308
0.0041809
0.000892321
5.23661e-05
0.0036036
0.000646406
-0.000305063
0.00466465
0.00028357
0.000172693
0.00318859
0.000335541
0.000291849
0.00224286
0.000328346
-3.64289e-05
0.00287804
0.000423451
1.54838e-05
0.00319677
0.00064421
2.00721e-05
0.00424091
0.000787843
-0.000133838
0.00405827
0.000476337
0.000107058
0.00357199
0.000353353
0.000171346
0.0039251
0.000226726
7.71492e-05
0.00353649
9.36934e-05
-4.87213e-05
0.0033863
-7.09534e-05
-5.65936e-05
0.00318444
-4.65014e-06
-4.53543e-05
0.00173353
2.43692e-05
0.000295776
0.00159587
-0.000121334
0.000172065
0.00287195
0.000100538
0.000162418
0.00365378
2.64042e-05
5.3572e-05
0.00302583
6.81013e-06
6.46795e-05
0.0029905
-2.86008e-05
0.00011976
0.00282325
-0.000106775
8.00209e-05
0.00286955
-9.18709e-05
1.72073e-05
0.00267444
-9.27037e-05
-3.58818e-05
0.00262341
-0.000129837
-1.38397e-05
0.00251586
-0.000170137
-2.76364e-05
0.00234295
-0.000190939
6.32029e-05
0.00222466
-0.000116374
0.000128764
0.00121503
-7.57002e-05
0.0001041
0.000219108
-0.000199455
0.000231678
0.00120031
-0.0001527
0.000179668
0.00227489
-9.36036e-05
0.000272468
0.00211417
-0.00013084
0.00013874
0.00224567
-0.000148824
3.96388e-05
0.00206934
-0.00012843
3.33951e-05
0.00199471
-0.000106954
-2.91267e-05
0.00256777
-0.000107651
-3.7877e-05
0.00275485
-0.000131169
-7.49593e-05
0.00189983
-0.000104247
-6.86446e-05
0.000924857
-9.46182e-05
-7.98218e-06
0.000436533
-0.000250541
3.80119e-05
-5.45694e-05
-0.000353936
5.55216e-05
-0.000797016
-1.10738e-05
4.85475e-05
-0.00111724
-4.83575e-05
0.000128324
-0.000762113
-7.36217e-05
0.000103713
0.000216655
-6.779e-05
0.000142055
0.00122394
-3.73192e-05
9.93601e-05
0.000879799
-4.20729e-05
4.03114e-05
0.000572022
-6.53191e-05
2.9204e-05
0.000432806
-7.15689e-05
-3.15547e-06
0.000651068
-7.3248e-05
2.32043e-06
0.000765013
-7.64655e-05
-1.6615e-05
0.000736605
-7.23854e-05
-3.5764e-05
0.000456479
-7.08594e-05
-6.02876e-05
0.000296664
-8.4876e-05
-3.98307e-05
-0.000467192
-0.000110581
-2.45284e-05
-0.00100488
-0.000118196
-0.00161607
0.00237998
-1.86848e-05
-0.00234073
-0.00151928
0.00224084
6.31977e-05
-0.00156123
0.00267157
0.000112039
-0.00259591
-0.00168382
8.62973e-05
-0.00225126
-0.00148547
0.0026352
4.02491e-05
-0.00126512
0.00301405
0.000167577
-0.00122784
0.00329657
0.000537197
-0.00322257
-0.00160677
0.000250242
-0.00143613
0.00304777
-1.4851e-05
-0.00104462
0.00369163
8.60314e-05
-0.00123046
0.00374713
0.000238724
-0.000850645
0.00403655
0.000365353
-0.00392328
-0.0013295
2.52915e-05
-0.00169244
0.00290936
4.17385e-05
-0.00110693
0.00402386
3.31678e-05
-0.00091897
0.00422579
0.000127775
-0.000859923
0.00427878
0.000208874
-0.000602455
0.00423776
0.000317387
-0.0043051
-0.000755886
0.000210048
-0.00177382
0.00293047
0.000146882
-0.00131264
0.00385019
9.08541e-05
-0.000726509
0.00424391
7.16818e-05
-0.000652201
0.00427873
0.000304458
-0.000495883
0.00446852
0.000414463
-0.000640733
0.0043622
0.00044586
-0.00171751
0.00332983
0.000200909
-0.00150439
0.00373427
0.000154848
-0.00106412
0.00434455
0.00028335
-0.000606484
0.00467382
0.000373708
-0.000412983
0.00469639
0.000444336
-0.000455989
0.00488509
0.000480625
-0.000515305
0.00488006
0.000600621
-0.00143979
0.00363008
-5.7251e-05
-0.00160119
0.00428591
0.000148415
-0.000976161
0.0048701
0.000456037
-0.000692401
0.00505813
0.00052849
-0.000385043
0.00518113
0.000530669
-0.000447222
0.00497539
0.000629447
-0.000381782
0.00487395
0.000763242
-0.000381422
0.00479566
0.000753158
-0.00153611
0.00389554
0.00028244
-0.00114124
0.0051433
0.000220344
-0.000875345
0.00552865
0.000365854
-0.000789008
0.00584454
0.000516089
-0.000366352
0.00574562
0.000674173
-0.000478462
0.00576556
0.000653988
-0.000350995
0.0058632
0.000800484
-0.000194072
0.00570873
0.000863589
-0.000172018
0.00561487
0.00106311
-0.000933317
0.00486359
0.000280169
-0.00131926
0.00476571
0.000351754
-0.000761036
0.00606339
0.000487848
-0.000415559
0.00643648
0.000675316
-0.000173951
0.00667953
0.000752177
-0.000166372
0.00678547
0.000700569
-0.000161666
0.00672675
0.000777694
-1.88442e-06
0.00665704
0.000823303
2.38024e-05
0.00667417
0.000903636
6.13695e-05
0.00632396
0.000982784
-0.000542948
0.00562836
0.000246438
-0.00117948
0.00664972
0.00061933
-0.00054529
0.00654394
0.000827825
-9.2024e-05
0.00639081
0.000844624
-9.61383e-05
0.00659913
0.000819525
7.18716e-05
0.00646813
0.000782159
-0.000147853
0.00625717
0.00064199
9.42118e-05
0.00603227
0.000659292
0.000128462
0.00636984
0.00053272
0.000296995
0.00629866
0.000565093
0.000143259
0.00583851
0.000816027
-0.000436654
0.00623076
0.000371418
-0.000254385
0.00652333
0.000621845
3.23885e-05
0.00572835
0.000741245
-0.000364358
0.00559318
0.00100153
5.3947e-05
0.0062172
0.000996263
-5.16443e-05
0.00608268
0.000894678
8.27867e-05
0.00534486
0.000818966
-2.22251e-05
0.00569858
0.000799165
0.000147086
0.00532278
0.000911181
0.000180557
0.00407574
0.000910285
0.000137408
0.00370653
0.000603261
2.76999e-05
0.00406838
0.000506233
-0.000410334
0.00474714
0.000282485
1.97754e-05
0.00342505
0.000323106
9.4044e-05
0.00232363
0.00033279
0.000250048
0.00276661
0.000352144
-4.58488e-05
0.00315511
0.000564531
1.40263e-06
0.00432294
0.000625464
0.00023139
0.00416901
0.000565474
0.000190178
0.00363321
0.000304958
0.000202204
0.00399352
9.99429e-05
0.000107587
0.00363383
-1.40853e-05
1.28176e-05
0.00350307
-4.9738e-05
-4.2835e-05
0.00316998
-4.129e-05
-4.76449e-05
0.00294374
3.11816e-05
-0.000200423
0.00206208
6.4303e-07
0.000227312
0.00162687
-0.000129837
0.00015117
0.00289506
-6.39448e-05
0.000216364
0.00359729
0.000120331
0.000222175
0.00309178
1.07474e-05
3.47324e-05
0.00310944
-8.11513e-06
-7.26495e-05
0.0030065
-9.95618e-05
3.39545e-05
0.00287803
-0.000115811
2.41894e-05
0.00265786
-0.000128615
-3.16605e-05
0.00266513
-0.000140635
-2.3089e-05
0.00252116
-0.000187002
3.24121e-06
0.00229284
-0.000191916
3.32452e-05
0.00213511
-0.000142616
9.32881e-05
0.00203428
-9.35478e-05
0.000128416
0.00121129
-6.91501e-05
4.0457e-05
0.00035142
-0.000199922
0.000211793
0.00109105
-0.000173663
0.000224348
0.00213688
-0.000135331
0.000224526
0.00206869
-0.000130597
0.000151032
0.00222192
-0.00015876
4.39773e-05
0.00204384
-0.000126996
4.54738e-05
0.00195331
-0.000103299
-1.47254e-05
0.00257896
-0.000106572
-3.23376e-05
0.00281419
-0.000132334
-7.27477e-05
0.00192418
-9.93815e-05
-7.34669e-05
0.000947381
-8.90678e-05
-9.95804e-06
0.000529243
-0.000237658
4.5722e-05
-3.53648e-05
-0.000355298
4.52464e-05
0.000272541
-0.000306798
5.35335e-05
-0.000837631
-1.29188e-05
4.24545e-05
-0.00112365
-4.71192e-05
0.000118471
-0.000860708
-6.82344e-05
0.000104573
0.000104951
-6.64907e-05
0.000134765
0.00106062
-3.92438e-05
0.000100818
0.000784404
-4.2743e-05
3.98333e-05
0.000555374
-6.52584e-05
3.22158e-05
0.000407776
-7.25053e-05