/*--------------------------------*- C++ -*----------------------------------*\
  =========                 |
  \\      /  F ield         | OpenFOAM: The Open Source CFD Toolbox
   \\    /   O peration     | Website:  https://openfoam.org
    \\  /    A nd           | Version:  7
     \\/     M anipulation  |
\*---------------------------------------------------------------------------*/
FoamFile
{
    version     2.0;
    format      ascii;
    class       surfaceScalarField;
    location    "2";
    object      phi;
}
// * * * * * * * * * * * * * * * * * * * * * * * * * * * * * * * * * * * * * //

dimensions      [0 3 -1 0 0 0 0];

internalField   nonuniform List<scalar> 
54451
(
0.000203935
0.00113793
-5.77842e-05
0.000381579
0.00116517
-0.00024574
0.000201975
0.000930574
-6.2369e-05
0.000198904
0.000721303
-6.74588e-05
0.000630987
0.00116225
-0.000461267
0.000372399
0.00104577
-0.000260172
0.000419899
0.000760186
-0.000263577
0.000194589
0.000730374
-6.57294e-05
0.000194514
0.000533936
-6.95151e-05
0.000236894
-0.000466806
-7.86392e-05
0.000750677
0.00108063
-0.000465784
0.000592889
0.00101856
-0.000485204
0.000628947
-0.00026945
-0.000386654
0.000349727
0.000927004
-0.000275996
0.000410451
0.000552223
-0.000268146
0.0004549
-0.000485281
-0.000271479
0.000184874
0.000540283
-6.92153e-05
0.000198577
0.000340773
-7.11436e-05
0.000234451
-0.000691389
-7.93827e-05
0.00021678
-0.00172447
-6.6934e-05
0.00057377
0.00228962
-0.000219588
0.00069196
0.000930916
-0.000424513
0.000469764
0.00107865
-0.000330397
0.000589641
0.000842913
-0.000496691
0.000530165
-0.000478084
-0.000396284
0.000452733
-0.000989262
-0.000304885
0.000337459
0.000801693
-0.000287451
0.000402352
0.000346604
-0.000274153
0.000428846
-0.000671955
-0.000275867
0.000359073
-0.00168647
-0.000249966
0.000179122
0.000356371
-7.1226e-05
0.000200561
0.000144748
-7.37519e-05
0.000228951
-0.000912368
-7.91162e-05
0.000207887
-0.0019439
-6.78426e-05
0.000145165
-0.00246612
-5.96897e-05
0.000218996
0.00329999
-0.000140384
0.000496188
0.00237439
-0.000170154
0.000299835
0.00264282
-0.000162917
0.000681599
0.000745891
-0.000363429
0.000294537
0.00119464
-0.000304877
0.000201442
0.00120543
-0.000163933
0.000566065
0.00067815
-0.00049732
0.000447833
-0.000616688
-0.000403567
0.000383008
-0.00103279
-0.00030692
0.000341419
-0.00144001
-0.00022628
0.000340877
0.00066957
-0.000297666
0.000366391
0.000176035
-0.00028271
0.000399811
-0.000836396
-0.000280572
0.000333016
-0.00183143
-0.000256034
0.000189959
-0.00226046
-0.000246904
0.000178641
0.000173836
-7.32138e-05
0.000201187
-5.15136e-05
-7.61513e-05
0.000218622
-0.00112584
-7.89067e-05
0.000199701
-0.00215451
-6.82003e-05
0.00013212
-0.00260544
-6.06348e-05
8.07622e-05
-0.00318649
-6.38157e-05
-0.000154345
0.00430896
-0.000311676
0.000168859
0.00342199
-7.50172e-05
0.000166846
0.00339344
-0.000220651
0.000470055
0.00249374
-0.000154213
0.000196121
0.00270575
-0.000134667
-1.7549e-05
0.00331275
-0.000235944
0.00059177
0.000611754
-0.000348093
0.000219259
0.00132731
-0.000267527
0.000112052
0.00132822
-0.000156709
0.000210752
0.00203853
-8.59548e-05
0.000530104
0.00054949
-0.000481745
0.000357977
-0.000694773
-0.000410821
0.000348177
-0.00107101
-0.000313715
0.000264655
-0.00143683
-0.000241739
0.000181937
-9.22755e-05
-0.00014039
0.000330601
0.000543294
-0.000305942
0.000330455
3.92637e-05
-0.000290163
0.00036917
-0.000985849
-0.000283804
0.000301492
-0.00194987
-0.000263921
0.000158523
-0.00228896
-0.000253931
8.33506e-05
-0.00266659
-0.000238218
0.000184361
-1.32429e-05
-7.54744e-05
0.000198033
-0.000244681
-7.80797e-05
0.000206893
-0.00133004
-7.88365e-05
0.000191986
-0.00235681
-6.85948e-05
0.000121747
-0.00273482
-6.05698e-05
6.7658e-05
-0.00325006
-6.4719e-05
6.08856e-05
-0.00361738
-5.86179e-05
-0.00030696
0.00366333
0.000510026
-0.000198003
0.00454861
-0.000221099
0.000138181
0.00466499
-0.000289955
0.000214674
0.00347481
-6.19808e-05
0.00018087
0.00353869
-0.000205016
0.000116298
0.00427182
-0.000480776
0.00041156
0.0026178
-0.000183738
9.26793e-05
0.00282225
-0.000144132
0.000101036
0.00341749
-0.000228386
1.96948e-05
0.00408587
-0.000266212
0.000480926
0.000549063
-0.000370038
0.000159484
0.00143588
-0.000258165
4.18475e-05
0.00151694
-0.000149916
0.00014061
0.00208272
-7.68548e-05
0.000268406
0.00228228
-0.000128108
0.000484769
0.000434729
-0.000476656
0.000265054
-0.000694333
-0.000416784
0.000309187
-0.00109823
-0.000323617
0.000178087
-0.00136436
-0.000262773
0.000169268
-0.00017771
-0.00016705
0.000161044
0.000147558
-0.000171829
0.000321284
0.000427613
-0.000306342
0.000302543
-7.36353e-05
-0.000297553
0.000337747
-0.00111993
-0.000286932
0.000271349
-0.00204573
-0.000267309
0.000135472
-0.00230485
-0.000261761
3.04507e-05
-0.00264129
-0.000242026
0.000134729
-0.00334443
-0.000205271
0.000184481
-0.000199158
-7.77678e-05
0.000190409
-0.000430378
-8.0186e-05
0.00019453
-0.0015235
-7.91546e-05
0.000182263
-0.0025487
-6.92082e-05
0.000112774
-0.00285456
-6.16346e-05
4.34295e-05
-0.00328968
-6.43798e-05
4.7824e-05
-0.00367119
-5.87363e-05
1.78208e-05
-0.00448485
-4.22432e-05
-0.000586416
0.00356586
0.00196411
-0.000374698
0.0036562
0.000764532
4.54184e-05
0.00447071
0.000409948
-7.95342e-05
0.00479449
-0.000190081
2.86059e-05
0.00481809
-0.000221939
0.000304367
0.00468181
-0.00040714
0.000278722
0.0034306
-2.68516e-05
0.000125649
0.00360907
-0.000165339
3.70711e-05
0.00461668
-0.000485916
1.98383e-05
0.00513832
-0.000700549
0.000431057
0.00255038
-8.36806e-05
2.92994e-05
0.00296765
-0.000198957
-0.00011716
0.00367112
-0.000238761
2.17547e-05
0.00426127
-0.000284928
0.000307149
0.00470828
-0.000469848
0.000311304
0.000622817
-0.000369297
-2.84837e-05
0.00160357
-0.000244194
2.16011e-05
0.00169976
-0.000153396
6.93668e-06
0.00214815
-4.41953e-05
0.000187735
0.0022955
-0.000108542
0.000325295
0.00300947
-0.000278495
0.000394209
0.000392755
-0.000480558
0.000233961
-0.000684215
-0.000418193
0.000238905
-0.00108596
-0.00033021
0.000142229
-0.00127406
-0.000284802
0.00011715
-0.000220177
-0.000201983
0.000113311
0.000103267
-0.00020562
0.000293069
-5.037e-05
-0.000247051
0.000305187
0.000328768
-0.000306454
0.000277134
-0.000164538
-0.000302164
0.000305304
-0.00123423
-0.000294035
0.000247336
-0.0021233
-0.000274429
0.000128086
-0.00232059
-0.000266881
-2.24503e-05
-0.00259302
-0.000244152
0.000106028
-0.00343527
-0.000209392
0.000168869
-0.00316191
-0.00017439
0.000183223
-0.00038224
-7.96289e-05
0.000182117
-0.000608954
-8.13084e-05
0.000182427
-0.00170686
-7.92526e-05
0.000166528
-0.00272421
-7.0169e-05
9.90539e-05
-0.00296071
-6.21095e-05
3.12596e-05
-0.00331767
-6.49034e-05
3.32423e-05
-0.00370939
-5.94165e-05
-1.38634e-05
-0.00448802
-4.17032e-05
-5.03948e-06
-0.00512146
-3.52607e-05
-0.000639983
0.0053134
0.00266645
-0.000559288
0.00372983
0.00205435
-0.000210329
0.00468632
0.00207853
-0.000381426
0.00386237
0.000889191
8.41358e-05
0.00448072
0.000698984
-4.06976e-05
0.00449941
0.0002565
7.04041e-05
0.00489232
-9.31607e-05
3.97412e-05
0.00513231
-0.000418386
-1.51086e-05
0.00493969
-0.000427639
0.000235539
0.00459981
-0.000639379
5.31714e-05
0.00364678
-1.33292e-05
4.76581e-05
0.00374693
-0.000183067
0.000304154
0.00450492
-0.000474892
0.000112649
0.00521774
-0.000656227
0.000411218
0.00487087
-0.000870522
0.000289582
0.00258451
-0.000239206
-0.00012576
0.00311697
-0.000135718
-0.000190572
0.00397337
-0.00028903
-7.54949e-05
0.00440343
-0.000298486
0.000184215
0.00490719
-0.000480323
0.000743581
0.00418257
-0.000788453
0.000253612
0.000658474
-0.000368733
2.39628e-05
0.0016929
-0.00024863
-6.09898e-05
0.00190942
-0.000153967
-4.0684e-05
0.00222411
-4.64429e-05
0.000124967
0.00228821
-4.47163e-05
0.00032932
0.00297955
-0.000294638
0.000593904
0.00312798
-0.000466976
0.000336661
0.000388813
-0.000491225
0.000168221
-0.000634197
-0.000421663
0.00018885
-0.00105064
-0.000337054
0.000104425
-0.00116074
-0.000300618
0.000108859
-0.000243349
-0.000242405
7.09657e-05
5.39296e-05
-0.000246062
0.000227898
-0.000103064
-0.000274797
0.00049233
0.00160744
-0.000361661
0.000294898
0.000240675
-0.000310655
0.000254546
-0.00023693
-0.00030649
0.000267161
-0.00132698
-0.000294145
0.000213806
-0.00217977
-0.000284849
9.89846e-05
-0.00231765
-0.0002773
-6.3015e-05
-0.0025172
-0.000248425
6.73214e-05
-0.00350298
-0.000210524
0.000146141
-0.00335015
-0.000181157
0.000174093
-0.0016328
-0.000147154
0.000184762
-0.00056549
-8.04666e-05
0.000173051
-0.000779755
-8.18792e-05
0.000171683
-0.00188032
-7.95279e-05
0.000157607
-0.00289053
-7.05477e-05
8.84255e-05
-0.00305628
-6.30264e-05
1.90805e-05
-0.00333371
-6.51492e-05
1.0686e-05
-0.003725
-5.99834e-05
-2.20843e-05
-0.00448144
-4.39116e-05
-3.8325e-05
-0.00508995
-3.48871e-05
6.9972e-05
-0.00386746
-4.73892e-05
-0.000438716
0.0055754
0.00317895
-0.000519121
0.0054607
0.00270234
-0.000298641
0.00517354
0.00276122
-0.000515981
0.00382578
0.00209214
2.87164e-05
0.00482721
0.00196888
-4.01249e-05
0.00468581
0.00185549
-0.000250472
0.0041042
0.000866754
1.58676e-05
0.00466612
0.00072767
0.000317879
0.00445014
0.000415267
0.000421871
0.00475627
-9.54751e-06
-0.000272909
0.00510032
0.000110679
2.26646e-05
0.00526497
-0.000200827
0.000370578
0.00505287
-0.000597988
0.000353934
0.00473251
-0.00080162
0.000714568
0.0041652
-0.00104222
0.000596486
0.00327249
-3.54423e-05
4.39764e-05
0.00379117
-0.0002273
-0.000108807
0.00473302
-0.000492934
7.72886e-05
0.00524387
-0.00065381
0.000354392
0.0049038
-0.000859328
0.0010885
0.00314124
-0.00117513
0.000254157
0.00253717
-6.3458e-05
-0.000100916
0.00325224
-0.000249604
-0.000188824
0.00427228
-0.00030679
-0.000125841
0.00454222
-0.000342664
0.000226148
0.00492189
-0.000414361
0.00076597
0.00405036
-0.000784765
0.000953589
0.00295305
-0.00106591
0.000115859
0.000786897
-0.000341857
-0.000225627
0.00195104
-0.000233021
-9.75064e-05
0.00211232
-0.000165175
-5.15525e-05
0.00229316
-6.70365e-05
0.000119151
0.00227751
-4.60395e-05
0.000334586
0.00290319
-0.000231976
0.000540172
0.0030622
-0.000541134
0.000771041
0.00380766
-0.00064504
0.000296881
0.000404725
-0.000500868
0.00012929
-0.00057188
-0.000428285
0.000125779
-0.000974819
-0.000356106
7.15641e-05
-0.00104188
-0.000313675
5.60854e-05
-0.000216776
-0.000284292
2.83823e-05
1.14206e-05
-0.000291293
0.000219957
-0.000186078
-0.000315683
0.000448707
0.0014146
-0.000384516
0.000510619
0.00303725
-0.000463958
0.000286975
0.000162657
-0.000312187
0.000229634
-0.00029426
-0.000309908
0.00023867
-0.001405
-0.000295461
0.000176493
-0.0022064
-0.000286402
7.47252e-05
-0.00230338
-0.000285416
-8.43694e-05
-0.00243816
-0.000252885
8.69572e-06
-0.00353729
-0.000212126
0.00010697
-0.00350344
-0.000186292
0.000128123
-0.00183852
-0.000141883
0.000314242
-0.001351
-0.000174222
0.000185644
-0.000748811
-8.10252e-05
0.000165013
-0.000943012
-8.22227e-05
0.000161342
-0.00204434
-7.92034e-05
0.000145366
-0.00304453
-7.08858e-05
7.25674e-05
-0.00313551
-6.388e-05
9.03894e-06
-0.00333969
-6.60885e-05
-2.02874e-05
-0.00370968
-6.01773e-05
-3.66712e-05
-0.00446072
-4.40365e-05
-4.94156e-05
-0.00504942
-3.50346e-05
4.73167e-05
-0.00390249
-4.7175e-05
0.00015454
-0.00271695
-5.55746e-05
-0.000297451
0.00557435
0.00341063
-0.000429538
0.0056361
0.00320028
-0.000144464
0.0055957
0.00305859
-0.000301245
0.00547487
0.00270786
-0.00021029
0.00531073
0.00280415
0.000233407
0.00523947
0.00263761
-0.000605451
0.00418116
0.00216042
0.000109794
0.00482312
0.0020023
0.000172125
0.00508505
0.0017154
0.000575147
0.00450547
0.00143048
-0.000276568
0.00406836
0.000958208
-4.34155e-05
0.00479456
0.000804392
0.00019371
0.00490861
0.00044607
0.000492705
0.00499847
3.42968e-05
0.00068818
0.00473613
-0.000139489
0.000331889
0.00521545
-0.000229327
-5.26853e-05
0.00560891
-0.000136601
-3.92298e-05
0.00521677
-0.000434311
0.00024533
0.00482064
-0.000854163
0.000689617
0.00409532
-0.00106697
0.0012948
0.00317937
-0.00125509
2.06949e-05
0.0034957
-9.05217e-05
-8.90641e-05
0.00399364
-0.000249764
-8.87031e-05
0.00494077
-0.000535168
6.54253e-05
0.00523781
-0.000678131
0.000519969
0.00478317
-0.000827001
0.00111779
0.0031109
-0.00118081
0.00117384
0.00293547
-0.00150696
8.84455e-05
0.00258612
-0.000192265
-0.000307036
0.00345542
-0.000185226
-0.0002192
0.0044967
-0.000352335
-0.000153855
0.00468377
-0.000346035
0.000252605
0.00488018
-0.000434405
0.000795796
0.00390612
-0.000731325
0.000969848
0.0028305
-0.00109189
0.00051566
0.0030846
-0.0012023
5.06124e-05
0.000952276
-0.00036323
-0.000229368
0.00222579
-0.000257948
-0.000190582
0.00236595
-0.000170281
-7.70347e-05
0.00236653
-8.99501e-05
6.95274e-05
0.00224236
-4.53257e-05
0.000250649
0.00284666
-0.00021177
0.000488344
0.00308608
-0.000524245
0.000653618
0.00376019
-0.000698575
0.000439747
0.00346585
-0.000743496
0.000296073
0.000411417
-0.000512073
0.000120112
-0.000515955
-0.000447272
8.7425e-05
-0.000881453
-0.000370406
8.79899e-07
-0.000888654
-0.000333714
2.3346e-06
-0.000136439
-0.000321621
1.31105e-05
-3.1704e-05
-0.000338647
0.000183781
-0.000295705
-0.000356751
0.000412261
0.00122026
-0.000426641
0.000450038
0.00281098
-0.000480163
0.000450544
0.00231181
-0.000525353
0.000286152
8.71063e-05
-0.000311374
0.000211773
-0.000342911
-0.000310296
0.000193845
-0.00144766
-0.000299742
0.000142945
-0.00220831
-0.000291126
3.66592e-05
-0.00225874
-0.000295139
-8.73987e-05
-0.00236912
-0.000258027
-6.97046e-05
-0.0035284
-0.000212361
5.06704e-05
-0.00361156
-0.000191349
6.00715e-05
-0.00199567
-0.000138622
0.000258192
-0.00153492
-0.000168837
0.000484891
-0.00105548
-0.0002031
0.000187857
-0.000933863
-8.15954e-05
0.000159197
-0.00110083
-8.24064e-05
0.000152492
-0.00219919
-7.98618e-05
0.000134531
-0.00318744
-7.08339e-05
5.97434e-05
-0.00320213
-6.40075e-05
5.1325e-07
-0.00333755
-6.65319e-05
-1.95486e-05
-0.00369576
-6.04661e-05
-5.83784e-05
-0.00441816
-4.43557e-05
-7.83011e-05
-0.00498092
-3.42283e-05
2.34384e-05
-0.00391443
-4.65373e-05
0.000148664
-0.00285784
-5.49524e-05
0.000108116
-0.00275798
-5.32998e-05
-0.000195808
0.00552911
0.00361264
-0.00031538
0.00559782
0.00340479
-8.05678e-05
0.00573113
0.00332381
-0.000268853
0.00575194
0.00318568
-5.62125e-05
0.0055475
0.0030944
0.000179613
0.00574907
0.00297738
-0.000503244
0.00556697
0.00277866
-5.85986e-05
0.00540169
0.00278529
6.03578e-05
0.00541253
0.00274285
0.000433362
0.00519963
0.00267557
-0.000521762
0.00443017
0.00220932
-5.69743e-05
0.00492349
0.00207361
0.000298369
0.00513669
0.001846
0.000508258
0.00476023
0.00144508
0.000738932
0.00489637
0.00124985
-0.000336356
0.00463389
0.000980826
-5.26467e-05
0.00492741
0.000825321
0.000186907
0.00487745
0.000609412
0.000419541
0.00520772
6.26027e-05
0.000797405
0.00476986
-0.000107224
0.00115086
0.00393682
-0.00015055
-0.000248196
0.00544815
-1.80932e-05
2.50172e-06
0.00539837
-0.000110353
1.22877e-05
0.00535998
-0.000380794
0.000235792
0.00494205
-0.000726088
0.000796408
0.00406701
-0.00110229
0.001245
0.00325702
-0.00127184
0.0011481
0.00246496
-0.00130528
-1.47891e-05
0.00360888
-7.14987e-05
-4.48659e-05
0.00398571
-0.000344765
-0.000121561
0.0051125
-0.00051914
-4.71717e-08
0.00525601
-0.000707178
0.000455846
0.00479358
-0.000891783
0.00113719
0.00312988
-0.00118737
0.00119892
0.00302378
-0.0014982
0.000159161
0.00135376
-0.00139158
5.8918e-05
0.00268439
-0.000225837
-0.000259123
0.00356148
-0.000268573
-0.000255156
0.00471855
-0.000342502
-0.00018084
0.00480559
-0.000370354
0.000278616
0.00476646
-0.000441411
0.000629868
0.0038119
-0.00071941
0.000836354
0.00285616
-0.001105
0.000658494
0.00322245
-0.00123462
-1.31495e-05
0.0017595
-0.00128172
4.70761e-05
0.00113396
-0.000366
-0.000115995
0.00237812
-0.000279454
-0.000205524
0.00257944
-0.000178496
-3.77409e-05
0.00233455
-9.96822e-05
3.63278e-05
0.00211302
5.40131e-06
0.000238713
0.00278173
-0.000205999
0.000497969
0.00306699
-0.000506865
0.000611097
0.00374837
-0.000711259
0.000448025
0.00351596
-0.000746671
0.000325801
0.00247866
-0.000816752
0.000235849
0.000484146
-0.0005241
6.00592e-05
-0.000419598
-0.000456716
2.23015e-05
-0.000761856
-0.000395326
-2.27654e-05
-0.000750516
-0.000342833
-2.18513e-05
-5.4531e-05
-0.000357112
6.35639e-06
-6.07965e-05
-0.000386284
0.000107833
-0.000412811
-0.000399079
0.000377932
0.000982546
-0.000446296
0.000406837
0.00252677
-0.000489197
0.000429449
0.00220476
-0.000544376
0.000594496
0.00059729
-0.000437992
0.000292099
8.83252e-06
-0.000310255
0.000197319
-0.00037955
-0.000312857
0.000177706
-0.00148372
-0.000299459
0.000119593
-0.0021989
-0.000294215
-1.61883e-06
-0.0021835
-0.000304998
-9.21194e-05
-0.00230423
-0.000267393
-6.46297e-05
-0.0035233
-0.000218045
-1.78547e-05
-0.00366799
-0.000196456
3.68115e-05
-0.00216582
-0.000136314
0.000228011
-0.00171612
-0.000161988
0.000480153
-0.00135323
-0.000202571
0.000387023
-0.00134219
-0.000196918
0.000190261
-0.00112147
-8.23978e-05
0.000154218
-0.0012541
-8.25441e-05
0.000141948
-0.00234376
-7.97839e-05
0.000114996
-0.00331071
-7.15875e-05
4.92649e-05
-0.0032586
-6.36275e-05
-8.05461e-06
-0.00332679
-6.67103e-05
-4.7188e-05
-0.00365495
-6.0151e-05
-8.04538e-05
-0.00435423
-4.39447e-05
-9.57935e-05
-0.00489605
-3.34342e-05
-1.93477e-06
-0.00390113
-4.55936e-05
0.000140054
-0.00298965
-5.47774e-05
0.000108919
-0.00286868
-5.31711e-05
5.38543e-05
-0.00267817
-6.074e-05
-0.000107101
0.00543419
0.00397638
-0.000142327
0.00552425
0.0035801
-0.000148753
0.00552007
0.00363773
-0.000172793
0.00554653
0.00342909
6.26907e-05
0.0057263
0.00329072
0.000242195
0.00574711
0.0033547
-0.000334926
0.00580073
0.00310751
-0.000161819
0.00571401
0.00312238
0.000115423
0.00578237
0.00300604
0.000132802
0.00628154
0.00316185
-0.000333521
0.00558694
0.00283278
-0.000370332
0.00566879
0.00282492
0.000143425
0.00556691
0.00278586
0.00041649
0.00535914
0.00267511
0.000730705
0.00497953
0.00256227
-0.000455064
0.0045881
0.00226804
-6.17354e-05
0.00500598
0.00213593
0.000233461
0.00524836
0.00191538
0.000527994
0.00507025
0.00142753
0.000907487
0.00501629
0.00121507
0.00125406
0.00492075
0.00115442
-0.000384242
0.00462266
0.00112587
7.81604e-05
0.00495457
0.000878001
0.00021916
0.00486695
0.000628958
0.000427501
0.00536939
0.000256038
0.000869311
0.00486173
-0.000102172
0.00109828
0.00419006
-0.000213747
0.000940394
0.00347024
-0.000143177
-0.000148962
0.00558721
5.56333e-05
6.10956e-06
0.00546621
-0.000136905
7.01388e-05
0.00540208
-0.000344157
0.000246625
0.00502564
-0.000711052
0.000611864
0.00419172
-0.00100681
0.00120033
0.00336811
-0.00127652
0.00126059
0.00249676
-0.00136532
0.000399523
0.00146666
-0.00126625
4.40204e-05
0.00369805
-0.000128964
2.17255e-05
0.00396999
-0.000336626
5.70967e-05
0.00506521
-0.000609724
1.97744e-05
0.00524957
-0.000713316
0.000725253
0.00458856
-0.000948797
0.00104947
0.00308714
-0.00126864
0.00118645
0.0029673
-0.00148099
0.0004317
0.00156375
-0.00148139
-0.000262117
0.00160927
-0.0013728
2.13309e-05
0.00282757
-0.00023354
-0.000138677
0.00374371
-0.00038539
-0.000235166
0.00488581
-0.000406187
5.19199e-05
0.00480985
-0.00043642
0.000265032
0.00460279
-0.000435388
0.000610029
0.00374597
-0.000746796
0.000800887
0.0029342
-0.00110037
0.000684272
0.00328022
-0.00123594
0.000191433
0.00207993
-0.00129845
-1.94774e-05
0.001501
-0.00106689
-8.10649e-05
0.00137152
-0.000342124
-0.000219707
0.00258808
-0.000296198
-0.000234202
0.00276101
-0.000204521
-0.000125426
0.00235467
-9.59477e-05
4.03846e-05
0.00194708
4.01969e-06
0.000254693
0.00267665
-0.000137854
0.000424074
0.00309548
-0.000550733
0.000639905
0.00370479
-0.000725261
0.000440839
0.00351972
-0.000749017
0.000344935
0.00260547
-0.000788967
0.000251841
0.00337682
-0.000828145
0.000231655
0.000572571
-0.000535651
1.27906e-06
-0.000274766
-0.000472892
-5.60173e-06
-0.000619204
-0.00041606
-4.77917e-05
-0.000613882
-0.000364575
-6.57761e-05
5.68623e-05
-0.000390069
1.11378e-06
-8.11519e-05
-0.00042999
4.71416e-05
-0.000472869
-0.000437997
0.000225887
0.000807017
-0.000467292
0.000379125
0.00220296
-0.000464797
0.000374548
0.0021014
-0.000532369
0.000576669
0.000424286
-0.000467888
0.000507422
0.000944102
-0.000382828
0.000296471
-7.58562e-05
-0.000309484
0.000188251
-0.000413013
-0.000310826
0.000157075
-0.00150035
-0.000311353
8.10475e-05
-0.00216977
-0.000294642
-2.81822e-05
-0.00209294
-0.000307327
-0.000104118
-0.00224222
-0.000270943
-0.000145122
-0.00346293
-0.000229821
-9.03795e-05
-0.00367505
-0.000201052
-5.02361e-06
-0.00232244
-0.000130607
0.000232319
-0.00192778
-0.000158912
0.000452694
-0.00162649
-0.000201369
0.000403894
-0.00164559
-0.00019415
0.000264621
-0.00176921
-0.000234967
0.000190011
-0.00130882
-8.32646e-05
0.000149627
-0.00140317
-8.29497e-05
0.00013559
-0.00248198
-7.99219e-05
9.23236e-05
-0.00341126
-7.1554e-05
3.71279e-05
-0.00330292
-6.44019e-05
-1.71954e-05
-0.00330643
-6.67889e-05
-5.87026e-05
-0.0036022
-6.07612e-05
-9.88235e-05
-0.00427231
-4.32528e-05
-0.000122835
-0.00478511
-3.20478e-05
-3.83182e-05
-0.00385181
-4.44307e-05
0.000126864
-0.00310777
-5.43374e-05
0.000100758
-0.0029711
-5.31163e-05
4.31457e-05
-0.00271444
-6.00513e-05
1.16033e-05
-0.00268374
-6.85292e-05
-4.73342e-05
0.00503365
0.00437394
-5.84205e-05
0.00537507
0.00393068
-5.24812e-05
0.00543569
0.0040132
-5.23122e-05
0.00559005
0.00357705
-0.00014944
0.00565485
0.00365745
0.00021339
0.00551871
0.00370278
-0.000211228
0.00551764
0.00337199
-0.000138327
0.00580275
0.00332915
0.000205853
0.00563607
0.00331132
-4.27466e-05
0.00583844
0.00345794
-0.000207454
0.00585785
0.00310236
-0.000477631
0.00587724
0.00305159
9.53401e-05
0.00594026
0.00301257
0.0003878
0.0061479
0.00316837
0.000824779
0.00541952
0.00326576
-0.000357556
0.00563543
0.00285901
-0.0001887
0.00580802
0.00282052
0.000105786
0.0057199
0.0027996
0.000455814
0.00549753
0.00271964
0.000735303
0.00518151
0.00264531
0.00122526
0.00566134
0.00251974
-0.0005216
0.004763
0.0023322
-8.70731e-05
0.00529404
0.00214521
0.000258619
0.00532726
0.00201756
0.000527562
0.00501413
0.00187143
0.00103989
0.00512365
0.0011496
0.000995518
0.0050407
0.00119789
0.00110563
0.00405622
0.000867942
-0.000272619
0.00464832
0.00111315
5.36976e-07
0.0050616
0.00102442
0.000268339
0.00492593
0.000620812
0.000311295
0.00564001
0.000293668
0.000798567
0.00499778
-6.67144e-05
0.00109692
0.00430278
-0.00011147
0.00106372
0.00367407
-0.0002207
0.000637105
0.00336586
-0.00033558
8.30761e-06
0.00553286
0.000145465
-4.74838e-05
0.00560565
-1.45978e-05
0.000217409
0.00548936
-0.000384494
0.000349065
0.00506633
-0.000714137
0.000950562
0.00429371
-0.00103836
0.00125067
0.00341901
-0.00125891
0.00114723
0.00261452
-0.00135506
0.000398003
0.0015231
-0.00138806
-0.000419827
0.00136449
-0.00108456
5.80698e-05
0.00370326
-3.20141e-05
0.000103964
0.00397641
-0.000378031
4.92189e-05
0.00498561
-0.000541406
0.000200687
0.00524043
-0.000749351
0.000627471
0.00446596
-0.000953152
0.00099003
0.00305001
-0.00129166
0.00111485
0.00288228
-0.00149758
0.000558818
0.0016893
-0.00148108
-4.09542e-05
0.00167035
-0.00131009
-0.000404216
0.00160927
-0.00124017
-7.92062e-05
0.00292958
-0.00018005
-0.00018654
0.00389344
-0.000416436
-0.000230095
0.00491299
-0.000416678
-0.000106741
0.00483717
-0.000452199
0.000277437
0.00447697
-0.000547647
0.000606864
0.00372996
-0.000771546
0.000750377
0.00301826
-0.00115716
0.000778958
0.00327753
-0.00123673
0.000220441
0.0023237
-0.00125932
-0.000392608
0.00203246
-0.00109237
-0.000303968
0.0028074
-0.00097423
-3.10494e-05
0.00154238
-0.000351168
-0.000334257
0.00287567
-0.000294172
-0.000232304
0.00290998
-0.000218459
-8.05763e-05
0.00232241
-0.000139485
4.51455e-05
0.00180809
-6.78782e-05
0.000243251
0.00258328
-0.000144751
0.000470398
0.00309302
-0.000558655
0.000417386
0.00374078
-0.000778225
0.000316127
0.00362346
-0.000766
6.55936e-05
0.00293064
-0.000765239
0.00039022
0.00351642
-0.000742109
0.000225573
0.00304301
-0.000721459
0.000250776
0.00065736
-0.000547418
-1.76781e-05
-0.000115671
-0.000488816
-1.65949e-05
-0.000471753
-0.000446673
-5.32239e-05
-0.000499279
-0.000396392
-0.000111654
0.000199628
-0.000423869
-2.60521e-05
-7.6149e-05
-0.000473138
2.05604e-05
-0.000595042
-0.000473499
0.000131382
0.000635369
-0.000488112
0.000331538
0.00186615
-0.000467046
0.000373534
0.00200346
-0.000508074
0.000544513
0.000284591
-0.000484493
0.000582074
0.000687367
-0.000389334
0.000525632
-0.000416962
-0.000424908
0.000297163
-0.00016461
-0.000311366
0.000187529
-0.000452593
-0.000307805
0.000148833
-0.00152498
-0.000299435
3.32905e-05
-0.00211432
-0.000307773
-6.25553e-05
-0.00197799
-0.000309909
-0.00011891
-0.00216642
-0.000281417
-0.00018288
-0.00337407
-0.000235629
-0.000153555
-0.00364366
-0.000206485
-4.80139e-05
-0.00246364
-0.000134674
0.000135206
-0.00208194
-0.000149974
0.000418168
-0.00187428
-0.000202425
0.000386843
-0.00193999
-0.000193056
0.000244234
-0.0019393
-0.000225142
0.000202506
-0.00223022
-0.000258533
0.000185604
-0.00149133
-8.41528e-05
0.000142499
-0.00154573
-8.32021e-05
0.000131347
-0.00261582
-8.04486e-05
9.11017e-05
-0.00351047
-7.18175e-05
2.73128e-05
-0.003337
-6.47801e-05
-2.78002e-05
-0.00327557
-6.74636e-05
-7.58099e-05
-0.00353265
-6.05295e-05
-0.000117369
-0.00417319
-4.25111e-05
-0.000143391
-0.00465316
-3.1813e-05
-5.96262e-05
-0.00378054
-4.36905e-05
0.000108645
-0.00320751
-5.3335e-05
8.6387e-05
-0.00305847
-5.3347e-05
3.4276e-05
-0.00274191
-5.99174e-05
1.49084e-06
-0.00267747
-6.78101e-05
-2.67219e-05
-0.00152617
-6.23387e-05
-0.000138485
0.00483434
0.00469598
-0.000107251
0.00506334
0.00436926
2.30104e-05
0.00506453
0.00438588
-0.000168803
0.00544822
0.00391088
-0.000171664
0.00541665
0.00397193
0.000196318
0.00543851
0.00407548
8.53337e-05
0.00544282
0.00361443
-0.000218904
0.00564539
0.00366708
0.000320745
0.00538273
0.00367855
-7.46456e-05
0.0055628
0.00372101
-0.000216994
0.00558889
0.00339562
-0.000191264
0.0056675
0.00322087
0.000139515
0.00559049
0.00333056
0.000268956
0.00586379
0.00340482
0.000865511
0.00576345
0.00358932
-0.000224274
0.00586608
0.00309703
-0.000209652
0.00594729
0.00305326
0.000106115
0.00594795
0.00304356
0.000356824
0.00603843
0.00322103
0.000335994
0.00567744
0.00330976
0.000801098
0.00633007
0.00347673
-0.000416399
0.00565208
0.00287351
-5.40052e-05
0.00583148
0.00280248
0.000222998
0.00578412
0.00279193
0.000502779
0.00554376
0.00277816
0.00112183
0.00522411
0.00259511
0.00083886
0.00575905
0.00270426
0.00108491
0.00525553
0.00259906
-0.000412474
0.00499581
0.0023744
-0.000143127
0.00557298
0.00219693
0.000284876
0.0054195
0.00203644
0.000482919
0.00501305
0.00184702
0.000932177
0.00523823
0.00162324
0.00109838
0.00496211
0.00122672
0.000945182
0.00441598
0.00095666
0.000717159
0.00430743
0.000598169
-9.19046e-05
0.0046531
0.001005
-0.000155085
0.005253
0.00102935
0.000321663
0.00511318
0.000732912
0.000415905
0.00584823
0.00034575
0.000827305
0.00534273
7.19748e-05
0.0010844
0.00455777
-0.000155448
0.000993518
0.00383451
-0.000118202
0.000580052
0.00327831
-0.000315194
-0.000372951
0.00313303
-0.000607838
2.86685e-05
0.00563294
4.89642e-05
7.07656e-05
0.00569773
8.6583e-05
0.00012173
0.00566638
-0.000264129
0.000372535
0.00519321
-0.000683226
0.000824734
0.00444668
-0.00106436
0.00113867
0.00348581
-0.0012538
0.0011508
0.00258847
-0.00126882
0.000451891
0.00162314
-0.00134818
-0.000366835
0.00144345
-0.00114114
-0.000774637
0.00203448
-0.00107943
7.29631e-05
0.00360239
1.19965e-05
-2.89221e-05
0.00409294
-0.000306158
6.80708e-05
0.00484997
-0.000540565
0.000103363
0.00518849
-0.000699568
0.000607005
0.00432038
-0.000933342
0.000922075
0.00304843
-0.00126678
0.00088694
0.00292508
-0.00147103
0.000661922
0.0018023
-0.00149355
-0.000169321
0.00179899
-0.00121996
-0.000855264
0.00182405
-0.00106221
-0.000817483
0.000996034
-0.00105603
-6.74146e-05
0.00304571
-0.000121937
-0.000265917
0.00405194
-0.000406886
-0.000196875
0.00491081
-0.000449686
-2.28898e-05
0.00485326
-0.000490453
0.000357209
0.00424433
-0.000531626
0.000554846
0.00376226
-0.000891545
0.000796153
0.0030937
-0.00117274
0.000530278
0.00328803
-0.00128055
0.000255806
0.00239101
-0.00124372
-0.000792106
0.00264713
-0.00101629
-0.000103684
0.00325581
-0.00104687
-0.000300238
0.00314455
-0.000814957
2.72395e-05
0.0016668
-0.000387604
-0.000380145
0.00317255
-0.000285581
-0.000209176
0.00305723
-0.000248842
-7.40154e-05
0.00228478
-0.000160034
-1.86139e-05
0.00170443
-0.000128869
0.00028101
0.00244553
-0.000237191
0.00028896
0.00326576
-0.000585885
0.000419824
0.0036931
-0.000799418
0.000136768
0.00385377
-0.000813774
-2.09414e-05
0.00331169
-0.000752571
0.000330117
0.00369453
-0.000728957
0.000274764
0.00325499
-0.000646773
0.000475862
0.00208166
-0.000608577
0.000284538
0.000708212
-0.000557731
-9.40426e-06
3.81171e-05
-0.000504274
-2.47644e-05
-0.00031737
-0.000469602
-4.50439e-05
-0.000418973
-0.000448644
-0.000152478
0.000353949
-0.00046079
-4.10132e-05
-6.21117e-05
-0.000515803
-7.44666e-05
-0.000667209
-0.000509385
4.58291e-05
0.000462001
-0.000499514
0.000239614
0.0015729
-0.000482493
0.000356893
0.00181431
-0.000499581
0.000480466
0.000207554
-0.000493336
0.000576165
0.000406413
-0.000392861
0.000530345
-0.000682213
-0.000410195
0.000468736
-0.001335
-0.000407526
0.000290432
-0.000255615
-0.000314718
0.000181873
-0.000494578
-0.000308755
0.000149612
-0.00154978
-0.00030127
4.37764e-05
-0.00207098
-0.000295444
-0.000101041
-0.00184212
-0.000315295
-0.000144843
-0.00207753
-0.000281748
-0.000236169
-0.00325026
-0.00024487
-0.000212208
-0.00357554
-0.000208904
-0.000121927
-0.00255821
-0.000133381
7.51277e-05
-0.00220333
-0.000148037
0.000378618
-0.00209167
-0.000202554
0.000347182
-0.00221085
-0.00019236
0.000233219
-0.00211652
-0.000214779
0.000200555
-0.00240126
-0.000253169
5.90177e-05
-0.00167193
-0.000222653
0.000176895
-0.00166483
-8.51782e-05
0.000136273
-0.00168264
-8.35154e-05
0.000114872
-0.0027337
-8.01924e-05
7.22365e-05
-0.00359062
-7.25281e-05
1.85302e-05
-0.00336207
-6.52816e-05
-3.95538e-05
-0.00323332
-6.74768e-05
-8.73216e-05
-0.00345169
-6.11005e-05
-0.000140577
-0.00404982
-4.33178e-05
-0.000166826
-0.00449789
-3.09597e-05
-8.35763e-05
-0.00368533
-4.34453e-05
8.79083e-05
-0.00328593
-5.31845e-05
6.95138e-05
-0.0031278
-5.35188e-05
2.40228e-05
-0.00275954
-5.97411e-05
-1.06758e-05
-0.00265965