/*--------------------------------*- C++ -*----------------------------------*\
  =========                 |
  \\      /  F ield         | OpenFOAM: The Open Source CFD Toolbox
   \\    /   O peration     | Website:  https://openfoam.org
    \\  /    A nd           | Version:  7
     \\/     M anipulation  |
\*---------------------------------------------------------------------------*/
FoamFile
{
    version     2.0;
    format      ascii;
    class       surfaceScalarField;
    location    "9.5";
    object      phi;
}
// * * * * * * * * * * * * * * * * * * * * * * * * * * * * * * * * * * * * * //

dimensions      [0 3 -1 0 0 0 0];

internalField   nonuniform List<scalar> 
54095
(
2.66577e-05
0.00125063
-1.68786e-05
9.9817e-05
-0.000236391
1.90362e-05
3.03212e-05
0.00123927
-1.8957e-05
0.000118617
0.00120754
-4.93002e-05
-7.03655e-05
-0.000570149
-4.12799e-05
0.00010935
-0.000319343
3.92274e-06
0.000193693
0.00130723
0.000123106
4.01426e-05
0.00121846
-1.93401e-05
0.000137857
0.00110328
-5.25557e-05
5.91054e-05
0.001355
-5.10555e-05
-0.00046819
0.00429833
0.000264302
-9.36386e-05
-0.000370259
3.09831e-06
0.000283829
0.00119447
0.000271677
0.00012251
-0.000384582
-1.71287e-05
0.000245566
0.00109544
0.000108001
0.000178494
0.00274779
4.85175e-05
5.29578e-05
0.00118577
-2.02632e-05
0.000156121
0.000984354
-5.65382e-05
7.6775e-05
0.0012801
-5.44339e-05
4.92687e-05
0.00125791
-4.72166e-05
-0.000957013
0.00663088
0.000475904
-0.000463207
0.00435426
0.000313642
0.000634543
0.000670665
0.000307366
-0.000102134
-0.000140305
-5.31011e-06
0.000240616
0.000956545
0.000245974
0.000141122
0.00103368
0.000299715
0.000136053
-0.000417761
-4.99153e-05
0.000314364
0.00087019
4.98818e-05
0.000226471
0.00263047
7.56192e-05
0.000152867
0.00226316
-9.37751e-05
6.49156e-05
0.00114194
-2.10897e-05
0.000171461
0.000853457
-6.08271e-05
9.80147e-05
0.00118389
-5.834e-05
6.29376e-05
0.00118921
-4.86695e-05
6.37197e-05
0.00153616
-4.92476e-05
-0.00101829
0.00478912
0.000234736
-0.000932939
0.00661598
0.000484636
0.000388527
0.00523859
0.00100975
-0.00051778
0.00443718
0.000332724
0.000195821
0.000677447
0.000351655
0.000347729
0.000853958
0.000346088
-3.87481e-05
5.35158e-05
-1.90193e-05
0.00027528
0.000819249
0.000171071
0.000170252
0.00103522
0.000300656
0.000201935
0.00142581
0.000175112
0.000144139
-0.000412601
-8.43831e-05
0.000358464
0.000642796
-9.52452e-06
0.000308043
0.00244096
2.93677e-05
0.000178468
0.00228841
-6.51591e-05
5.70044e-05
0.00215355
-7.98074e-05
7.27703e-05
0.0010913
-2.21225e-05
0.000184764
0.000712986
-6.53833e-05
0.000111771
0.00107389
-6.25953e-05
6.90782e-05
0.00111234
-5.05517e-05
6.9257e-05
0.00147003
-5.17994e-05
7.81275e-05
0.000732183
-5.14764e-05
-0.00104706
0.0058172
9.61322e-05
-0.00112344
0.00457536
0.000404258
-0.000636569
0.00759145
0.000937016
-0.00107831
0.00657489
0.000601618
-9.91106e-05
0.00515318
0.000864976
0.000315658
0.00518929
0.000957065
-0.000375271
0.00450146
0.000272248
3.35187e-05
0.000885277
0.000366656
0.000138643
0.000815532
0.000421691
0.000321119
0.000674873
0.000288081
-3.70504e-05
0.000261837
-2.7132e-05
0.000293707
0.000753471
0.000111515
0.000220474
0.00105338
0.000240484
0.000187984
0.00153009
0.000186865
-9.37455e-06
0.00186858
0.000174745
0.000149642
-0.000374684
-0.000114789
0.000384175
0.000418013
-5.90107e-05
0.00035123
0.0022078
-1.58238e-05
0.000192803
0.00227274
-7.86855e-05
7.07634e-05
0.00215534
-6.84559e-05
9.35415e-06
0.00175993
-5.20184e-05
8.01804e-05
0.00103467
-2.35503e-05
0.000196278
0.00056501
-7.04248e-05
0.0001201
0.000955822
-6.74167e-05
7.52852e-05
0.00102656
-5.20929e-05
7.5639e-05
0.00139841
-5.45687e-05
6.8007e-05
0.000664413
-5.20368e-05
1.79293e-05
0.000417144
-4.43883e-05
-0.00137047
0.00437762
0.000133599
-0.00109136
0.00559256
0.000192555
-0.0011319
0.00677092
0.000253561
-0.00139669
0.00443714
0.000456606
-0.000511708
0.00737885
0.00102945
-0.000104288
0.00747777
0.00119185
-0.000963903
0.00656717
0.000596351
-0.000203665
0.00498634
0.00100564
0.000166271
0.00517416
0.000852482
0.000403669
0.00382732
0.000596341
-0.000363545
0.00459862
0.000229333
-6.28291e-05
0.00116427
0.000349791
8.28193e-05
0.000901053
0.000418789
0.000201958
0.000709995
0.000372595
-5.40814e-05
0.00153038
0.000338951
0.000141861
0.000311418
-4.1801e-05
0.000316312
0.000737451
5.6752e-05
0.000257025
0.00106904
0.000190055
0.00022153
0.00156424
0.000177608
-1.40846e-05
0.0019711
0.000169189
-7.93083e-05
0.00219864
0.000204735
0.000155659
-0.000308135
-0.000142028
0.000395456
0.000201841
-9.77947e-05
0.000367241
0.0019436
-4.1951e-05
0.000204577
0.00222371
-9.60854e-05
9.15411e-05
0.00213564
-7.48938e-05
-1.04772e-07
0.00180169
-4.21077e-05
-4.68957e-05
0.0011102
-2.34245e-05
8.72125e-05
0.000973672
-2.62189e-05
0.000206128
0.000411582
-7.62502e-05
0.000124521
0.000833863
-7.29865e-05
8.29876e-05
0.000929018
-5.28663e-05
8.53065e-05
0.00131787
-5.68625e-05
6.02986e-05
0.000601955
-5.2409e-05
1.82342e-05
0.000388327
-4.14545e-05
5.76216e-05
0.000423877
-3.74167e-05
-0.00135081
0.00356169
5.05159e-05
-0.0012504
0.00443089
0.000105772
-0.00116905
0.00469646
0.000163692
-0.00134135
0.0053755
0.000161726
-0.00105099
0.00714632
0.000356442
-0.000370802
0.00615368
0.000760663
-0.00132467
0.00452644
0.000271459
-0.000328764
0.00698367
0.000976886
-1.60729e-05
0.00742159
0.00126798
-2.52497e-05
0.00620962
0.00137904
-0.000918543
0.00653596
0.00058621
-0.000526396
0.00503629
0.00100997
0.000207926
0.00500604
0.00104865
0.000328899
0.00389631
0.000656552
0.000204639
0.00374755
0.000409933
-7.2991e-05
0.00462095
0.000192516
-0.000103394
0.0014929
0.000320406
7.69489e-05
0.00102548
0.000405442
0.000294884
0.000656411
0.000399019
-7.73608e-05
0.00158595
0.000380293
-0.000119321
0.00232146
0.000325078
0.000121384
0.000392161
-4.64676e-05
0.00036085
0.000731944
-1.68873e-06
0.000289026
0.00107602
0.000127989
0.000246307
0.00156961
0.000142954
-2.28088e-06
0.00207226
0.00017027
-5.10597e-05
0.00222208
0.0001967
-9.74245e-05
0.0021066
0.000213153
0.000155827
-0.000216633
-0.000160116
0.00039132
1.25754e-05
-0.000137953
0.000364111
0.00166877
-6.2551e-05
0.000210436
0.00214814
-9.38375e-05
0.000107253
0.00209737
-7.97599e-05
-1.81307e-05
0.0018469
-4.16682e-05
-3.17543e-05
0.00114173
-2.36546e-05
2.16253e-05
0.000768553
2.46977e-06
9.44394e-05
0.000909382
-3.01486e-05
0.000212062
0.000256627
-8.33263e-05
0.000127662
0.000709398
-7.94473e-05
9.03673e-05
0.000819668
-5.40037e-05
9.62443e-05
0.00122684
-5.80812e-05
6.96004e-05
0.000528154
-5.26623e-05
1.76861e-05
0.000356574
-3.83417e-05
5.41209e-05
0.000365044
-3.67425e-05
8.54938e-05
-9.36923e-05
-1.52942e-05
-0.00127683
0.00323498
0.000213347
-0.00141193
0.00366578
5.74399e-05
-0.00114454
0.00452502
0.000173314
-0.00126495
0.00431981
3.46862e-05
-0.00118014
0.00480471
0.000126674
-0.000589406
0.00545534
0.000368272
-0.00141579
0.00531916
0.000147465
-0.000797372
0.00736377
0.000412881
-0.000497591
0.00624063
0.000751014
-0.000364392
0.00627685
0.00106953
-0.0012338
0.00459791
0.000243784
-0.000492191
0.00639988
0.000821044
0.000130827
0.00730683
0.00116874
7.32509e-05
0.00643286
0.00130038
0.000266629
0.00494068
0.00119002
-0.000833821
0.0067448
0.000551984
-0.000681555
0.0052377
0.000962956
3.52813e-05
0.00499532
0.00106236
0.000370996
0.00402207
0.000846779
6.28972e-07
0.00387585
0.000450265
-7.56327e-05
0.00401688
0.000506051
-0.000167839
0.00480462
0.000105558
-9.83196e-05
0.00185376
0.000290832
8.20749e-05
0.00119504
0.000357797
0.000115275
0.000770431
0.000422454
-7.39437e-05
0.00164233
0.000414304
-8.95611e-05
0.00242266
0.000317593
-0.000207027
0.00259848
0.000285478
8.6078e-05
0.000498475
-3.65652e-05
0.000386715
0.000725255
-3.51741e-05
0.000299105
0.00107337
6.59675e-05
0.000270961
0.00153781
9.92595e-05
1.96811e-05
0.00215447
0.000148316
-5.08831e-05
0.00223237
0.000192732
-8.8482e-05
0.00215083
0.000209197
-0.000102118
0.00224467
0.000241199
0.000155441
-0.000103287
-0.000174347
0.000377406
-0.000127385
-0.0001855
0.000341216
0.00140233
-8.50771e-05
0.000211839
0.00206383
-9.97098e-05
0.000118992
0.00204545
-6.46591e-05
1.63062e-05
0.00186693
-4.64957e-05
-1.70384e-05
0.00115613
-2.13408e-05
2.48478e-05
0.000767641
6.53048e-06
7.18236e-05
-0.000431972
3.81879e-05
0.000102773
0.000841107
-3.44985e-05
0.000206942
0.000110732
-9.11946e-05
0.000127843
0.000583942
-8.57132e-05
9.75996e-05
0.000698299
-5.56781e-05
0.000104345
0.00112727
-5.87783e-05
4.92688e-05
0.000473603
-5.27984e-05
7.30378e-06
0.000332097
-3.54891e-05
4.99724e-05
0.000311747
-3.50176e-05
7.47489e-05
-0.000189102
-1.60818e-05
8.04235e-05
-0.00119744
1.3123e-06
-0.0013285
0.00336774
6.37222e-06
-0.00144409
0.00304259
0.000224561
-0.00116113
0.00420157
0.000282153
-0.00139415
0.00375404
4.0938e-05
-0.00113971
0.00440354
0.00013849
-0.000753425
0.00514571
0.000357109
-0.00137187
0.00423767
3.82214e-05
-0.00112636
0.00502441
0.000143974
-0.000671601
0.00541508
0.000340946
-0.00046385
0.00553375
0.000466868
-0.00133319
0.00536354
5.50023e-05
-0.000574323
0.00719153
0.000401841
-0.000447625
0.00651538
0.000716575
-0.000353436
0.00647054
0.000984011
-4.29057e-05
0.0062896
0.00125732
-0.00113339
0.00471401
0.000183475
-0.000855448
0.00622397
0.000593587
-0.000108158
0.00716408
0.00110723
-8.03449e-06
0.00656365
0.00141698
-0.000216362
0.00530048
0.00115758
-1.7713e-06
0.00513671
0.00107093
-0.000895869
0.0070384
0.000434432
-0.000783739
0.00556118
0.000913923
-1.6857e-05
0.00507069
0.000986517
-3.43143e-05
0.00425725
0.000976764
0.00044379
0.00367125
0.000533644
-0.00011079
0.00396755
0.00052082
-0.000344118
0.00449677
0.000651312
-2.79251e-05
0.00486712
5.1499e-05
-0.000131588
0.00222934
0.00024828
4.24629e-05
0.00143091
0.000311603
0.000123434
0.000872766
0.00040299
-9.58635e-05
0.00172395
0.000456379
-8.35681e-05
0.00253221
0.000337433
-0.000182054
0.00266343
0.000346222
-0.000249739
0.00343162
0.000457407
5.55719e-05
0.000613874
-1.55309e-05
0.000397625
0.00073552
-6.7049e-05
0.0003028
0.0010822
-5.58731e-06
0.000291503
0.00146239
6.17288e-05
5.4538e-05
0.00218623
0.00013196
-8.16335e-05
0.002295
0.000183632
-7.87004e-05
0.00220343
0.000201793
-4.61087e-05
0.00228508
0.000239746
-6.83157e-05
0.00165325
0.000273334
0.000157197
1.70371e-05
-0.000174748
0.000330621
-0.000190134
-0.000235278
0.000304148
0.00114483
-0.000104302
0.000211562
0.00197673
-0.000111933
0.000130279
0.00198482
-6.50159e-05
-1.20053e-05
0.00190572
-4.21824e-05
-3.85887e-05
0.00117471
-1.9182e-05
2.19815e-05
0.000763794
1.04968e-05
5.90834e-05
-0.000451027
4.12504e-05
6.41593e-05
-0.00107734
7.50002e-05
0.000112541
0.000766401
-3.78343e-05
0.000192921
-1.7976e-05
-9.87122e-05
0.000123201
0.000461303
-9.17567e-05
0.000104046
0.000566325
-5.77855e-05
0.000114792
0.00101508
-5.82745e-05
4.07427e-05
0.000427495
-5.34131e-05
5.94146e-06
0.000306328
-3.29713e-05
4.54949e-05
0.000264154
-3.33905e-05
6.59075e-05
-0.000274258
-1.57692e-05
7.22289e-05
-0.0012873
1.54662e-06
3.80504e-05
-0.00217952
-9.89326e-07
-0.00154222
0.00293631
9.42723e-05
-0.00281687
-0.00142445
0.00328287
6.52265e-05
-0.00143859
0.00381829
0.000213287
-0.00151667
0.00295369
0.000211415
-0.0010881
0.00422907
0.000145455
-0.0008307
0.00442078
0.00032755
-0.00149055
0.00378302
8.9696e-05
-0.00124933
0.00438659
0.000180855
-0.00095377
0.00523107
0.000335296
-0.000539634
0.00509953
0.000442
-0.00135648
0.00419747
6.34924e-05
-0.00111949
0.00537858
0.000229216
-0.000490456
0.00525366
0.00034822
-0.00047894
0.00554986
0.000450338
-0.000296328
0.00609195
0.000534543
-0.00129984
0.00516893
0.00036106
-0.000726971
0.00685621
0.000261843
-0.000513348
0.00669553
0.00062688
-0.000425758
0.00667858
0.000926259
-0.000390137
0.00638455
0.00106283
-0.000353721
0.00611609
0.00132029
-0.00110812
0.00477689
0.000149369
-0.00110944
0.00619992
0.000533229
-0.000200246
0.00701816
0.0009229
-0.000203071
0.00663254
0.00120709
0.000325502
0.00558881
0.00124694
-0.000329298
0.00553819
0.000974604
-0.000330537
0.00558176
0.00101721
-0.000624025
0.00718016
0.000454338
-0.000860992
0.00586316
0.000861863
-0.000127435
0.00519747
0.000957047
-2.29349e-05
0.00437555
0.00101459
2.86786e-05
0.00381061
0.000712855
-5.76962e-05
0.00396398
0.000511343
-0.000345172
0.00453482
0.000645884
-0.000391706
0.00507475
0.000784765
-6.00361e-05
0.00496598
1.67494e-05
1.62176e-05
0.00243647
0.000225778
0.000138768
0.00158042
0.000262803
0.000156525
0.000952768
0.000366578
-0.000123637
0.00182237
0.000482743
-0.000102527
0.00263572
0.000373769
-0.000144719
0.00271513
0.000351744
-0.000160874
0.00335753
0.000535076
-0.000324191
0.00369404
0.000654025
5.97862e-05
0.000716881
-5.59584e-06
0.000406367
0.000718827
-7.45845e-05
0.000293122
0.00110566
-7.94836e-05
0.000304759
0.00134205
2.15539e-05
8.57176e-05
0.00218089
0.000111628
-8.64383e-05
0.00232317
0.00017822
-8.70142e-05
0.0022393
0.000196188
-5.75684e-05
0.00233284
0.000233574
-6.60302e-05
0.00174035
0.000277759
-6.27015e-05
0.00157054
0.000346005
0.000160633
0.000130785
-0.00016184
0.000307753
-0.000211581
-0.000268132
0.000261078
0.000887877
-0.0001162
0.00021574
0.00185961
-9.88786e-05
0.000134417
0.00192372
-7.04597e-05
-3.60758e-06
0.00192985
-4.47917e-05
-3.12255e-05
0.0011884
-1.87041e-05
4.02407e-05
0.000735131
1.47353e-05
5.19469e-05
-0.000471292
4.47221e-05
4.22644e-05
-0.00108392
7.78031e-05
-2.37551e-05
-0.0014761
9.28906e-05
0.000123127
0.000682436
-3.91618e-05
0.000174872
-0.000126157
-0.000104525
0.000114021
0.000342808
-9.42384e-05
0.000104831
0.000428277
-5.85395e-05
0.000123267
0.000890916
-5.68899e-05
3.566e-05
0.000387881
-5.43203e-05
9.69758e-06
0.000274768
-3.15502e-05
4.12645e-05
0.000222044
-3.21256e-05
5.90723e-05
-0.000351582
-1.51384e-05
6.4744e-05
-0.00136872
9.11594e-07
2.57077e-05
-0.00220072
-2.95898e-06
1.297e-05
-0.00237221
-1.5331e-06
-0.00164824
0.00271368
7.45909e-05
-0.00268225
-0.00154048
0.00299665
5.56922e-05
-0.0013109
0.00331019
-7.84186e-05
-0.0032652
-0.00180032
5.96261e-05
-0.00144132
0.00319337
1.4148e-05
-0.00133185
0.00386056
0.000266716
-0.001088
0.00409673
0.000490376
-0.00164522
0.00289741
0.000210946
-0.00123782
0.00425256
0.000176415
-0.00102112
0.00443772
0.000195869
-0.000788781
0.00474317
0.000488704
-0.00147294
0.00383662
6.28557e-05
-0.00121436
0.00438866
0.000182503
-0.000690835
0.00517882
0.000433488
-0.00058731
0.00510776
0.000435437
-0.000477992
0.00515378
0.00059162
-0.00133343
0.00414831
8.27564e-05
-0.00104874
0.00551977
0.000244072
-0.000686415
0.00527238
0.000383565
-0.000453559
0.0054928
0.000433088
-0.000405175
0.00609021
0.000467111
-0.000562055
0.0061214
0.000511994
-0.00129379
0.00502911
0.000325494
-0.000902804
0.00646466
0.000545975
-0.000603404
0.00679359
0.000566947
-0.000468861
0.00671837
0.00085288
-0.000309309
0.00685446
0.00109117
-0.000646562
0.00643166
0.00106452
-0.000556613
0.00642556
0.00123573
-0.00105414
0.00514991
5.70995e-05
-0.00113115
0.00614274
0.000476701
-0.000164391
0.00673307
0.000855275
-0.000123095
0.00652249
0.00113311
-0.000260802
0.00599422
0.00109116
-1.05823e-05
0.0057674
0.000970617
-0.000494253
0.00570791
0.000997534
-0.000466978
0.00585244
0.000934064
-0.000592535
0.00727151
0.000441157
-0.000674012
0.00619536
0.000812365
-0.000231991
0.0054041
0.00102599
-7.0557e-05
0.00460499
0.000954688
-0.000148484
0.00401336
0.000836686
-0.000151501
0.00415727
0.000568536
-0.000261515
0.00451872
0.00064424
-0.000335635
0.00510688
0.000788515
-0.000592458
0.00576463
0.000909892
-3.33418e-05
0.00507694
-1.7831e-05
0.000129384
0.00253313
0.000197072
0.000157387
0.00168565
0.000256285
0.000226869
0.000964054
0.000329407
-0.000142002
0.00192548
0.000491189
-0.000151013
0.00277305
0.000409988
-0.000128799
0.00278089
0.000349802
-0.00017243
0.00330504
0.000519098
-0.000286457
0.00378881
0.000660736
-0.000195416
0.00376118
0.000768852
6.53588e-05
0.000807183
4.97227e-06
0.000491959
0.000584052
-5.50266e-05
0.000291311
0.0011233
-0.00012246
0.000323421
0.00118007
-2.5183e-05
8.40488e-05
0.00214101
0.000111803
-8.51349e-05
0.00235377
0.000162558
-7.93062e-05
0.00227677
0.000188833
-1.84988e-05
0.00235767
0.0002301
-6.8436e-05
0.00181474
0.000279573
-9.16208e-05
0.00163183
0.000350362
-0.000181308
0.00136553
0.000398674
0.000165618
0.000225798
-0.000137504
0.000306514
-0.000224471
-0.000280592
0.000206735
0.000667598
-0.000140567
0.000221879
0.00170772
-8.13606e-05
0.000149728
0.00186518
-6.68025e-05
6.79479e-06
0.00193681
-4.85511e-05
-2.17371e-05
0.00118958
-1.45341e-05
2.35734e-05
0.000713974
2.01441e-05
4.56355e-05
-0.000490956
4.78366e-05
2.46774e-05
-0.00108005
8.09101e-05
-4.48403e-05
-0.00142439
9.6638e-05
-6.09474e-05
-0.00167098
0.000111398
0.000132711
0.000587506
-3.77805e-05
0.000158101
-0.000215319
-0.000108101
0.000100669
0.000231109
-9.34954e-05
0.000101198
0.000290849
-5.80081e-05
0.000125256
0.000759985
-5.28644e-05
2.75747e-05
0.000357671
-5.42548e-05
9.12873e-06
0.000242537
-3.12183e-05
3.61875e-05
0.000185286
-3.09802e-05
5.389e-05
-0.000422892
-1.4706e-05
5.82042e-05
-0.00144335
1.28179e-06
1.59244e-05
-0.00221548
-2.52083e-07
8.38349e-06
-0.00237969
-3.85631e-06
-1.95055e-05
-0.00273872
1.68289e-05
-0.00162083
0.00254829
-7.18968e-06
-0.00256851
-0.00161347
0.00271658
7.01004e-05
-0.0013443
0.00359181
0.000220937
-0.00370476
-0.00177228
2.41087e-05
-0.00149084
0.00299978
4.63927e-05
-0.00123847
0.0033103
-3.78041e-05
-0.0011645
0.00383357
-6.16253e-06
-0.00382933
-0.00139684
-0.000113819
-0.00156691
0.00314099
-2.59275e-05
-0.00141162
0.00388136
0.000167156
-0.001019
0.00394494
0.00041638
-0.00077947
0.00420321
0.000474395
-0.00165722
0.00290464
0.000177052
-0.000992655
0.004131
0.000110803
-0.000999794
0.00467319
0.000249896
-0.000880275
0.00476605
0.000465953
-0.000690564
0.00482359
0.000558383
-0.00142976
0.00392876
4.19172e-06
-0.00115202
0.00441489
0.000139902
-0.000920002
0.00516172
0.000433192
-0.000515055
0.00513196
0.00047078
-0.00054546
0.00512814
0.00060136
-0.000629853
0.00511804
0.000727548
-0.00141359
0.00415268
0.000115426
-0.00104878
0.0054888
0.000259702
-0.000863192
0.00542816
0.000348083
-0.000622283
0.00561513
0.000414656
-0.000413344
0.00619336
0.000433979
-0.00056045
0.00607706
0.000425333
-0.000589478
0.00637828
0.000405906
-0.00127595
0.00506934
0.000181581
-0.000936244
0.00628648
0.00030877
-0.000452641
0.00698704
0.00064077
-0.000526266
0.00684077
0.000847725
-0.000442775
0.00685199
0.00103732
-0.000307017
0.00676533
0.00105393
-0.000645559
0.00649028
0.00115111
-0.000529874
0.00625056
0.00118436
-0.00102847
0.00548393
0.000101909
-0.00115048
0.00617529
0.000501025
-0.000433897
0.00653703
0.000874647
-0.000155945
0.0064578
0.00100535
-0.000304009
0.0061598
0.00112305
-0.000200772
0.0058455
0.00106233
-0.000383559
0.00581957
0.000981003
-0.000379486
0.00589901
0.000994814
-0.000570614
0.0064877
0.00095439
-0.000566171
0.00734459
0.000459744
-0.000509194
0.00646798
0.000807117
-0.000311888
0.00575789
0.00092785
-7.42728e-05
0.00497425
0.000957876
-0.000282646
0.00423454
0.000874152
-0.00010414
0.00431183
0.000635256
-0.000203395
0.00451926
0.000642593
-0.000301062
0.00509859
0.000781166
-0.000492205
0.00590884
0.000850056
-0.000361161
0.00598451
0.000983755
-8.51108e-06
0.00513651
1.42988e-05
0.000311277
0.00251964
0.000176343
0.000223532
0.00165024
0.000300254
0.00027417
0.000989053
0.000280538
-9.31317e-05
0.00194212
0.000489946
-0.000101025
0.00286233
0.000417799
-0.000133549
0.00290281
0.000342308
-0.0001478
0.00332981
0.000454335
-0.000313429
0.00389152
0.000661378
-0.000299761
0.00385872
0.000771338
-0.000357936
0.00412021
0.000786362
9.52492e-05
0.000841507
3.60435e-05
0.000562736
0.000352914
-2.0112e-05
0.00025746
0.00111892
-0.000101371
0.000300745
0.00105136
-7.26196e-05
0.000142602
0.00202008
0.000102871
-7.05622e-05
0.002393
0.000149929
-8.58481e-05
0.0023241
0.000179343
-5.25323e-05
0.00240072
0.000221894
-1.72897e-06
0.00181703
0.00027517
-0.000151884
0.00173345
0.00035451
-0.000221675
0.00148718
0.000405545
-0.000258927
0.00218452
0.000416784
0.000174495
0.000293606
-0.000109592
0.000289729
-0.0002221
-0.000271503
0.000139213
0.000521292
-0.00017283
0.000222397
0.00152824
-8.22826e-05
0.000160189
0.00182284
-7.39459e-05
7.85104e-06
0.00194037
-5.06456e-05
-2.48015e-05
0.00118744
-1.24891e-05
1.85584e-05
0.000690855
2.62139e-05
3.89866e-05
-0.000507112
5.1203e-05
1.06852e-05
-0.00106763
8.29387e-05
-5.72717e-05
-0.00136937
9.90873e-05
-8.68391e-05
-0.00159155
0.000112427
-0.00018188
-0.00179114
0.0001746
0.000139569
0.000480905
-3.29686e-05
0.000141779
-0.000285249
-0.00010963
8.62748e-05
0.000127682
-9.09489e-05
9.4096e-05
0.000160127
-5.68697e-05
0.000125226
0.000626948
-5.01981e-05
2.56565e-05
0.00033222
-5.30706e-05
1.16897e-05
0.000207628
-3.10351e-05
3.11914e-05
0.000152619
-2.97428e-05
5.0342e-05
-0.000489658
-1.45558e-05
5.14219e-05
-0.00151071
1.23514e-06
6.81422e-06
-0.00222104
2.5639e-08
-7.87012e-06
-0.00236999
-2.08235e-06
-3.05146e-05
-0.00272813
1.60694e-05
-0.000111757
-0.00306907
3.89257e-05
-0.00158177
0.00244585
9.17263e-06
-0.00249409
-0.00161435
0.00257503
-2.58601e-05
-0.00156946
0.00297757
0.000150722
-0.00291033
-0.00177267
7.29846e-06
-0.00159472
0.00274231
7.8147e-05
-0.00131154
0.00358429
0.0001507
-0.0011684
0.00350084
0.000305911
-0.00358192
-0.00153686
0.000204466
-0.00159153
0.00299116
3.32396e-05
-0.00121182
0.00315192
4.96655e-06
-0.00114093
0.00387557
4.21199e-05
-0.00101938
0.00391046
0.000256605
-0.00393332
-0.00134182
-1.31818e-05
-0.00161574
0.00308725
1.22618e-05
-0.00126567
0.00395875
0.000169689
-0.00103716
0.00385403
0.000295426
-0.0008091
0.00418026
0.000368163
-0.000655553
0.00420335
0.000494638
-0.00168576
0.00300685
0.000153787
-0.000894865
0.00393273
0.000118168
-0.00109958
0.00475534
0.000208233
-0.000807114
0.00486462
0.000443383
-0.000651079
0.00486923
0.000525933
-0.000730388
0.00481342
0.000619395
-0.00148475
0.00392912
7.08023e-05
-0.0012556
0.00447393
0.000151973
-0.000995272
0.00504597
0.000387726
-0.000668953
0.0051554
0.000456421
-0.000614961
0.00518769
0.000612842
-0.000674002
0.0051431
0.000689847
-0.00060551
0.0051633
0.000704152
-0.00144975
0.00414395
0.000182526
-0.00104856
0.0054532
0.000263336
-0.000716521
0.00555302
0.000398718
-0.00075514
0.00577707
0.000415014
-0.000430213
0.00617425
0.000421199
-0.000473793
0.00621987
0.000457948
-0.000532055
0.00632469
0.000365419
-0.000513227
0.00642247
0.000443907
-0.00127992
0.00520676
0.000114028
-0.00100051
0.00620833
0.000109761
-0.00062932
0.00702181
0.000469421
-0.000445213
0.00688358
0.000887222
-0.000448596
0.0068709
0.0009734
-0.000336291
0.00680709
0.00113108
-0.00056701
0.00668222
0.00104543
-0.000510061
0.00635123
0.00118102
-0.000472699
0.00642695
0.00106555
-0.00100593
0.00568165
0.000242034
-0.000996396
0.00621975
0.000544648
-0.000512522
0.00633628
0.000902402
-0.000140958
0.00638846
0.00101068
-0.000310661
0.00615666
0.00103651
-0.000176686
0.00594885
0.00109225
-0.000273143
0.00589228
0.00105936
-0.000412955
0.00598462
0.00100729
-0.000472685
0.00645379
0.0010092
-0.000546108
0.00677034
0.00106416
-0.000566303
0.00741656
0.000485823
-0.000245666
0.00657572
0.000908942
-0.000190492
0.00607941
0.000899614
-6.40728e-05
0.00530937
0.000930972
-0.000197286
0.00439241
0.000904161
-9.51609e-05
0.00443709
0.000743027
-0.000252973
0.00458316
0.000690779
-0.000284429
0.00508164
0.00079617
-0.000469065
0.00593425
0.000911391
-0.000429274
0.006025
0.000939075
-0.000457526
0.00617401
0.00100612
0.000101454
0.00508519
4.51226e-05
0.000453375
0.00246
0.000183294
0.000277158
0.00146046
0.000346428
0.000237257
0.00106919
0.000283604
8.84642e-06
0.00190304
0.000453373
-6.22051e-05
0.00290253
0.000441389
-0.000119015
0.00301542
0.000338354
-0.000143967
0.00330706
0.000456493
-6.49868e-05
0.00379348
0.000615631
-0.000404226
0.00400191
0.00077053
-0.00037176
0.00425335
0.000788281
-0.000311706
0.00409754
0.00081521
0.000124118
0.000863656
2.82291e-05
0.000529822
0.000137866
1.09978e-05
0.000186198
0.00108454
-3.27119e-05
0.000280851
0.000973884
-8.23456e-05
0.000218652
0.00179943
8.95674e-05
-6.24944e-05
0.00241118
0.000155035
-8.34812e-05
0.00235552
0.000177186
-5.05725e-05
0.00243212
0.000217067
-0.000140417
0.00194333
0.000275002
-0.000141669
0.00181064
0.00035033
-0.000218596
0.00160124
0.000401774
-0.000300407
0.00238724
0.000416402
-0.000483492
0.0016489
0.000458769
0.000182882
0.00033298
-8.26881e-05
0.000286482
-0.000223926
-0.00025247
7.33029e-05
0.000454978
-0.000192216
0.000206423
0.00134632
-0.00010324
0.000171448
0.00176522
-7.08837e-05
9.31573e-06
0.00193598
-5.32086e-05
-2.18489e-05
0.00118225
-1.19132e-05
1.02009e-05
0.00066729
3.20669e-05
2.29296e-05
-0.000508223
5.47376e-05
-9.7663e-07
-0.00105156
8.75346e-05
-6.93968e-05
-0.00131159
0.000101368
-9.97586e-05
-0.00151335
0.000112779
-0.000208139
-0.00167943
0.000178348
-0.000302139
-0.0013818
0.000198418
0.000141879
0.000364612
-2.55854e-05
0.000128664
-0.000338046
-0.000108835
6.66949e-05
3.94201e-05
-8.80635e-05
8.56615e-05
3.90397e-05
-5.5523e-05
0.000118638
0.000500672
-4.92312e-05
2.33267e-05
0.000310003
-5.13072e-05
1.49181e-05
0.000170661
-3.10223e-05
2.48393e-05
0.000124934
-2.81888e-05
4.80122e-05
-0.000552565
-1.48486e-05
4.299e-05
-0.00156747
-7.87951e-07
-4.08042e-06
-0.00221595
2.25556e-07
-1.64974e-05
-0.00235044
-3.03298e-06
-3.92747e-05
-0.0027069
1.59582e-05
-0.000118357
-0.00297274
3.80948e-05
-0.000120396
-0.00136843
3.38644e-05
-0.00149958
0.00234331
-3.67472e-05
-0.00238875
-0.00159815
0.0024098
1.98471e-05
-0.00142065
0.00307742
-0.000128965
-0.00308808
-0.00175434
3.21543e-05
-0.00254457
-0.00159289
0.00262494
-5.17404e-05
-0.00147215
0.00294447
0.000167844
-0.0012725
0.00338127
0.000237747
-0.00336419
-0.0018382
0.000172524
-0.00168252
0.00274812
8.5175e-05
-0.00125677
0.00357733
0.000130064
-0.00118091
0.00345389
0.000237641
-0.00102203
0.00359174
0.000350642
-0.00363382
-0.00134369
0.000261958
-0.00160932
0.0029469
3.78303e-05
-0.00130446
0.00319018
3.37756e-05
-0.00107379
0.0038093
0.000107868
-0.000984596
0.00389191
0.000236168
-0.000700087
0.00396373
0.000358901
-0.00402149
-0.00118257
0.000304653
-0.00167233
0.00305298
2.08484e-05
-0.00114262
0.00400463
0.000214133
-0.00112651
0.00380462
0.000246027
-0.000855362
0.00421669
0.000307238
-0.000734619
0.00420782
0.000447241
-0.000686867
0.00424135
0.000502629
-0.00168504
0.00304712
0.00016002
-0.00103293
0.00372196
0.000141876
-0.000976771
0.0046995
0.000155504
-0.000779818
0.00476243
0.000421284
-0.000649652
0.00484192
0.000505378
-0.00074373
0.00483165
0.000577425
-0.000728212
0.00488889
0.000675926
-0.00154715
0.00396489
6.16238e-05
-0.0012069
0.00447288
0.000230196
-0.000852319
0.00493874
0.000395006
-0.000700906
0.00508743
0.000401464
-0.000520799
0.00517558
0.000559121
-0.000479519
0.00511032
0.000651351
-0.000515688
0.00516541
0.000671368
-0.000624203
0.00522901
0.000726634
-0.00148129
0.00414897
0.000196344
-0.00108132
0.00543937
0.000277169
-0.000824686
0.00564052
0.000371197
-0.00067121
0.005943
0.000458788
-0.000497024
0.00616937
0.000468319
-0.000465981
0.00630638
0.00046438
-0.000523098
0.00631168
0.000427049
-0.000576543
0.00640593
0.000448441
-0.000559255
0.00625971
0.000534411
-0.0011993
0.0052517
0.000148435
-0.00101173
0.00626711
7.05899e-05
-0.000624449
0.00686767
0.000375833
-0.000354489
0.00669932
0.000867209
-0.00033753
0.00686993
0.000915068
-0.000397881
0.00701282
0.000988864
-0.000444555
0.00689697
0.00108774
-0.000591719
0.00654461
0.00103081
-0.000464271
0.00657078
0.00102878
-0.000563223
0.00666457
0.000971846
-0.00106256
0.00587652
0.000301396
-0.000717863
0.00636
0.000573987
-0.000426597
0.00630979
0.000807244
-0.000279692
0.00652977
0.000976708
-0.000313833
0.00623709
0.00104679
-0.000304762
0.00610573
0.00108924
-0.000388011
0.00606362
0.00105595
-0.000401561
0.00609998
0.00106113
-0.000417276
0.00634862
0.00106068
-0.000455061
0.00676665
0.00103868
-0.000416702
0.00681987
0.00105438
-0.000442782
0.00748418
0.000476616
-4.8392e-05
0.00668059
0.000882723
-4.15537e-05
0.00637758
0.000929484
-7.57115e-05
0.00563925
0.000882701
-0.000163914
0.00461559
0.000880556
-9.24639e-05
0.00455633
0.000815181
-0.000217142
0.00467552
0.000748791
-0.000264613
0.00511538
0.000777681
-0.00024934
0.00596825
0.000946529
-0.000445182
0.00596661
0.00101073
-0.000470624
0.0061744
0.00103755
-0.00031726
0.00610554
0.000985408
0.000147936
0.00492861
0.000132758
0.000432759
0.00240131
0.00020088
0.000140433
0.00126983
0.000419692
0.000193515
0.00115663
0.000346322
0.000117824
0.00187537
0.000412101
-0.000122656
0.00295351
0.000462554
-0.000109735
0.00313088
0.000352178
-0.000164629
0.00335996
0.000399508
-0.000266228
0.00371927
0.000656512
-0.000349015
0.00406146
0.000763432
-0.000357653
0.00437117
0.000791768
-0.000454163
0.00422845
0.000811129
-0.000572536
0.0049595
0.000728409
0.000129189
0.000899957
1.73928e-05
0.000473869
-1.17146e-05
-9.57683e-06
0.000129536
0.00101856
2.07462e-05
0.000175573
0.00101781
-4.57841e-05
0.000249282
0.00155123
8.80177e-05
-5.59227e-05
0.00238665
0.000179339
-7.00241e-05
0.00237348
0.000185246
-4.2255e-05
0.00244417
0.000217593
-9.23449e-05
0.00200531
0.000270358
-0.000145237
0.00188191
0.000347994
-0.000218882
0.0017
0.000401058
-0.000305997
0.00257861
0.000416637
-0.00049042
0.00189054
0.000457044
-0.000442311
0.00288757
0.000364467
0.000189016
0.000353271
-6.74275e-05
0.000278896
-0.000229382
-0.000227463
1.67473e-05
0.000439579
-0.000187123
0.000175986
0.00118599
-0.000122211
0.000166883
0.00168463
-7.08997e-05
2.60335e-06
0.00193233
-4.65122e-05
-1.76419e-05
0.00117385
-1.22478e-05
-3.15964e-06
0.000646385
3.69909e-05
1.62324e-05
-0.000504149
5.9773e-05
-1.35578e-05
-0.00103238
9.21057e-05
-8.48957e-05
-0.00124866
0.000105424
-0.000118746
-0.00142285
0.00011312
-0.000222037
-0.00156511
0.000181214
-0.000309696
-0.00121482
0.00020271
-0.000288051
0.000228176
0.000191901
0.00013833
0.000244488
-1.82061e-05
0.000110442
-0.000368337
-0.000105736
3.70889e-05
-2.05016e-05
-8.60026e-05
7.91143e-05
-7.39107e-05
-5.42275e-05
0.000106217
0.000387748
-4.88167e-05
1.96012e-05
0.000290553
-4.93821e-05
1.65369e-05
0.00013385
-3.1033e-05
2.05669e-05
9.98228e-05
-2.64785e-05
4.63367e-05
-0.000613418
-1.3672e-05
3.23869e-05