/*--------------------------------*- C++ -*----------------------------------*\
  =========                 |
  \\      /  F ield         | OpenFOAM: The Open Source CFD Toolbox
   \\    /   O peration     | Website:  https://openfoam.org
    \\  /    A nd           | Version:  7
     \\/     M anipulation  |
\*---------------------------------------------------------------------------*/
FoamFile
{
    version     2.0;
    format      ascii;
    class       surfaceScalarField;
    location    "9.5";
    object      phi_0;
}
// * * * * * * * * * * * * * * * * * * * * * * * * * * * * * * * * * * * * * //

dimensions      [0 3 -1 0 0 0 0];

internalField   nonuniform List<scalar> 
54095
(
2.69932e-05
0.00125577
-1.67434e-05
0.000100465
-0.000234373
1.89973e-05
3.05924e-05
0.00124401
-1.88248e-05
0.000119394
0.00120929
-4.93217e-05
-7.05512e-05
-0.000562674
-4.22972e-05
0.000110065
-0.00031738
3.53418e-06
0.000195353
0.00129196
0.000124095
4.06107e-05
0.00122253
-1.91323e-05
0.000138394
0.00110468
-5.26117e-05
6.04578e-05
0.0013526
-5.13824e-05
-0.000467266
0.00429818
0.000267893
-9.40399e-05
-0.000360782
2.21298e-06
0.000283726
0.00120195
0.000271227
0.000123435
-0.000382525
-1.76791e-05
0.000246056
0.00108474
0.00010309
0.000182489
0.00274208
5.13242e-05
5.49452e-05
0.00118761
-2.0022e-05
0.000156644
0.000985497
-5.6594e-05
7.90605e-05
0.00127571
-5.47786e-05
5.02038e-05
0.00125292
-4.74953e-05
-0.000952872
0.00662411
0.000479254
-0.000470627
0.00435901
0.000315757
0.000617706
0.000663971
0.000309572
-9.82675e-05
-0.000133022
-6.05724e-06
0.000239885
0.00096571
0.000244626
0.000143812
0.00102275
0.000301085
0.000137075
-0.000414123
-5.05315e-05
0.000314904
0.000862063
4.67352e-05
0.000233552
0.00261792
7.27575e-05
0.000154997
0.00226964
-9.23228e-05
6.52885e-05
0.00114332
-2.09988e-05
0.000171978
0.000854369
-6.08723e-05
9.89777e-05
0.0011788
-5.86642e-05
6.36546e-05
0.00118346
-4.89755e-05
6.3732e-05
0.0015339
-4.94442e-05
-0.00102403
0.00476023
0.000244686
-0.00095125
0.00660945
0.000495281
0.000366622
0.00522231
0.00101016
-0.00050888
0.0044393
0.000330325
0.000179096
0.000688504
0.000352014
0.00034156
0.000857241
0.000348779
-3.16088e-05
5.53965e-05
-1.97354e-05
0.000275183
0.000829917
0.000169457
0.000170583
0.00103089
0.000299459
0.000202852
0.00142464
0.000176486
0.000145152
-0.000409021
-8.49656e-05
0.000358913
0.000636318
-1.17207e-05
0.000310884
0.0024272
2.55519e-05
0.000179912
0.00228995
-6.38104e-05
5.7108e-05
0.0021527
-7.97642e-05
7.33173e-05
0.00109199
-2.19904e-05
0.000185298
0.000713488
-6.54163e-05
0.000112463
0.00106837
-6.29042e-05
6.92861e-05
0.00110633
-5.08161e-05
6.93863e-05
0.00146751
-5.1972e-05
7.75557e-05
0.000729054
-5.14655e-05
-0.00104942
0.00581109
8.54246e-05
-0.00114688
0.00454143
0.000414425
-0.000645682
0.00758834
0.000952446
-0.00107378
0.00657132
0.000603032
-0.000117222
0.00514992
0.000863992
0.00031918
0.00519889
0.000956851
-0.000362133
0.00450256
0.000267261
2.293e-05
0.00090579
0.000365293
0.000121932
0.000835242
0.000422665
0.000317339
0.000674079
0.000290725
-2.59115e-05
0.000254284
-2.78236e-05
0.000294412
0.000764284
0.000110399
0.000220594
0.00105113
0.000239501
0.000188017
0.00152965
0.000186345
-9.74889e-06
0.0018689
0.000173784
0.000150531
-0.000371326
-0.000114908
0.000384578
0.000412712
-6.06392e-05
0.0003521
0.00219391
-1.8071e-05
0.000192746
0.00227258
-8.05405e-05
7.1467e-05
0.00215524
-6.84256e-05
9.21102e-06
0.00176033
-5.16378e-05
8.08169e-05
0.00103456
-2.33901e-05
0.000196843
0.000565101
-7.04468e-05
0.000120368
0.000950327
-6.77386e-05
7.56896e-05
0.00101995
-5.22102e-05
7.60054e-05
0.00139537
-5.46838e-05
6.73316e-05
0.000661719
-5.19689e-05
1.75066e-05
0.000415415
-4.40981e-05
-0.00136688
0.00439228
0.000130583
-0.00110532
0.00557759
0.000191944
-0.00114809
0.0067961
0.000248645
-0.00139901
0.00442195
0.000444714
-0.000494891
0.00734633
0.0010341
-8.67414e-05
0.00747621
0.00120095
-0.000956169
0.00656936
0.000595997
-0.000221465
0.00498307
0.00101427
0.000159008
0.00517093
0.000854883
0.000395148
0.00384104
0.000600369
-0.000346502
0.00460039
0.000222763
-6.6721e-05
0.00118589
0.000348294
8.77913e-05
0.000914858
0.000418479
0.00019833
0.000712192
0.000374239
-5.39425e-05
0.00152999
0.000340543
0.000148131
0.000298644
-4.19607e-05
0.000317847
0.000747301
5.589e-05
0.00025659
0.0010679
0.000189144
0.000221418
0.00156415
0.000176323
-1.33419e-05
0.00197121
0.000168839
-7.8257e-05
0.00219488
0.000203388
0.00015627
-0.000304834
-0.000141945
0.00039601
0.000197209
-9.85719e-05
0.000366315
0.0019309
-4.35766e-05
0.000204725
0.00222145
-9.59762e-05
9.27425e-05
0.00213327
-7.5309e-05
-6.36498e-07
0.00180193
-4.2059e-05
-4.71005e-05
0.00110882
-2.33049e-05
8.78571e-05
0.000972732
-2.60272e-05
0.000206744
0.000411211
-7.62442e-05
0.000124726
0.000828543
-7.33882e-05
8.33341e-05
0.000921771
-5.28977e-05
8.60201e-05
0.00131398
-5.68361e-05
5.97277e-05
0.00059961
-5.23023e-05
1.81651e-05
0.0003864
-4.1119e-05
5.69948e-05
0.0004172
-3.74147e-05
-0.00135232
0.00356418
4.93736e-05
-0.00124787
0.00443178
0.00010305
-0.001178
0.00469945
0.000158647
-0.00135133
0.00536271
0.000167194
-0.00103587
0.00716672
0.000362305
-0.000373431
0.00614486
0.000764446
-0.00131814
0.0045271
0.000256824
-0.000316895
0.00692066
0.000965821
4.15808e-06
0.00739305
0.0012721
-2.88296e-05
0.00620829
0.00137677
-0.000916914
0.00655408
0.000585687
-0.000559235
0.00506055
0.00101104
0.00021543
0.00500108
0.00105648
0.000326065
0.00390341
0.000664781
0.000197631
0.00373928
0.000411509
-6.51417e-05
0.00462606
0.000187597
-0.000102815
0.00151142
0.000317894
7.85013e-05
0.00103636
0.000404885
0.000288116
0.000663716
0.000400257
-7.76703e-05
0.00158725
0.000381308
-0.000118475
0.00232298
0.000323824
0.000120379
0.000380405
-4.58705e-05
0.000362902
0.00074062
-2.17151e-06
0.000288687
0.00107457
0.000126844
0.000246151
0.0015697
0.000142171
-1.17061e-06
0.00207271
0.000168736
-4.9948e-05
0.00221726
0.000195766
-9.70923e-05
0.00210339
0.000212318
0.000156176
-0.000213226
-0.000159927
0.000392031
8.7665e-06
-0.000138789
0.000362713
0.00165811
-6.3767e-05
0.000210276
0.00214464
-9.37133e-05
0.00010795
0.00209432
-7.89547e-05
-1.96697e-05
0.00184767
-4.16451e-05
-3.08654e-05
0.00113945
-2.36604e-05
2.14167e-05
0.000764749
2.39e-06
9.51172e-05
0.00090757
-2.99552e-05
0.000212702
0.00025577
-8.32874e-05
0.000127948
0.000704174
-7.98239e-05
9.07237e-05
0.000811773
-5.41139e-05
9.67704e-05
0.00122217
-5.78564e-05
6.87414e-05
0.000526585
-5.25524e-05
1.72122e-05
0.000354896
-3.80096e-05
5.35435e-05
0.000359192
-3.66539e-05
8.48099e-05
-9.97096e-05
-1.54109e-05
-0.00127756
0.00322489
0.00021594
-0.00141063
0.00367277
5.41737e-05
-0.00114879
0.00451519
0.000171652
-0.00126789
0.00431689
3.14442e-05
-0.00117853
0.00481849
0.000126665
-0.000592182
0.00545051
0.000366458
-0.00141701
0.00531889
0.000142694
-0.00077155
0.00736881
0.000419763
-0.000496572
0.0062568
0.000751092
-0.000366506
0.00629275
0.00106682
-0.00122728
0.00459163
0.000245835
-0.000528742
0.00634961
0.000797375
0.000130494
0.00728336
0.00116044
7.23247e-05
0.00643427
0.00129987
0.000245193
0.00495937
0.00118674
-0.000835571
0.00678028
0.000544228
-0.000681595
0.00526647
0.000958547
2.56535e-05
0.00500363
0.00106133
0.00034683
0.00404273
0.00085844
1.56513e-06
0.0038705
0.000454323
-7.50971e-05
0.00400556
0.000506566
-0.000158893
0.00480653
9.88032e-05
-0.000100382
0.00187429
0.000288012
7.85757e-05
0.00120824
0.000356123
0.000111281
0.000780579
0.000422892
-7.55613e-05
0.00164608
0.00041581
-8.76346e-05
0.00242522
0.000316756
-0.000205865
0.0026027
0.000282854
7.53433e-05
0.000496785
-3.55472e-05
0.000389729
0.000731945
-3.48931e-05
0.000298703
0.00107193
6.44852e-05
0.000271372
0.00153678
9.86727e-05
1.92243e-05
0.00215579
0.000147818
-5.29132e-05
0.00222755
0.000191691
-8.77355e-05
0.00214801
0.000208014
-9.93608e-05
0.00224173
0.000239795
0.000155853
-0.000100157
-0.000173805
0.000377938
-0.000129657
-0.000186739
0.000339203
0.00139362
-8.55541e-05
0.000212039
0.00206009
-0.00010053
0.000119489
0.00204197
-6.40872e-05
1.5432e-05
0.00186827
-4.62475e-05
-1.75027e-05
0.0011538
-2.12783e-05
2.49964e-05
0.000763234
6.40195e-06
7.13452e-05
-0.000434991
3.78306e-05
0.000103506
0.000838382
-3.43179e-05
0.000207612
0.00010934
-9.11377e-05
0.000128072
0.000578928
-8.61128e-05
9.81187e-05
0.000689786
-5.59559e-05
0.000104656
0.00112201
-5.86151e-05
4.90617e-05
0.000472279
-5.26119e-05
6.9327e-06
0.000330607
-3.51963e-05
4.94485e-05
0.000306657
-3.49235e-05
7.41595e-05
-0.000194365
-1.61578e-05
8.01736e-05
-0.00120178
9.84982e-07
-0.00132463
0.00336413
8.56513e-06
-0.00144801
0.00303735
0.000224918
-0.00116027
0.00420032
0.000279144
-0.00139484
0.00376047
3.92479e-05
-0.00114289
0.00439684
0.000136891
-0.000754713
0.00514973
0.000357696
-0.00137346
0.00423506
3.8278e-05
-0.00112023
0.00505123
0.000147393
-0.000671693
0.00541111
0.00034119
-0.000468732
0.00553645
0.000465148
-0.00133034
0.00535059
7.13605e-05
-0.000569155
0.00715765
0.000394268
-0.000447919
0.00654074
0.000714231
-0.000356403
0.00648944
0.000983128
-5.56326e-05
0.00630687
0.00125119
-0.00113094
0.00470783
0.00017916
-0.000881092
0.00620672
0.000588227
-0.000135935
0.00714484
0.00109748
-2.8728e-05
0.00656468
0.00140559
-0.000214552
0.00532351
0.00115185
-1.23361e-05
0.00515296
0.00106703
-0.000880071
0.00706779
0.000433673
-0.000788851
0.00559011
0.000909055
-2.27263e-05
0.00508041
0.000983066
-3.61538e-05
0.00426953
0.00098197
0.000439507
0.00367216
0.000541718
-0.000109829
0.00396214
0.000519942
-0.000343723
0.00449173
0.000651051
-3.88152e-05
0.00487342
4.7266e-05
-0.000121202
0.00223911
0.000244911
4.59684e-05
0.00143862
0.000310364
0.000123812
0.00088156
0.000402701
-0.000100726
0.00173122
0.000457706
-8.39617e-05
0.00253414
0.000337937
-0.000179787
0.00266315
0.000348362
-0.000243723
0.00342667
0.000457847
5.56619e-05
0.00061179
-1.48139e-05
0.000400965
0.000740622
-6.72525e-05
0.000302555
0.00108218
-8.4946e-06
0.000291894
0.00146032
6.10838e-05
5.59485e-05
0.00218657
0.000131437
-8.22275e-05
0.00229034
0.000182686
-7.8475e-05
0.00220019
0.00020049
-4.33931e-05
0.00228014
0.000237992
-6.63548e-05
0.00165417
0.000272354
0.000157596
1.98109e-05
-0.000174058
0.000331814
-0.000191297
-0.000236368
0.000302444
0.00113615
-0.000103636
0.000211923
0.00197232
-0.000111586
0.000130302
0.00198096
-6.51609e-05
-1.18548e-05
0.00190744
-4.23417e-05
-3.86685e-05
0.00117228
-1.9127e-05
2.22235e-05
0.000758848
1.03319e-05
5.86966e-05
-0.000453979
4.08526e-05
6.33177e-05
-0.00107966
7.41893e-05
0.000113335
0.000762697
-3.76493e-05
0.000193507
-1.98175e-05
-9.86675e-05
0.000123308
0.000456544
-9.2062e-05
0.000104337
0.000557241
-5.79041e-05
0.000114769
0.00100949
-5.82065e-05
4.0215e-05
0.00042684
-5.33914e-05
5.86997e-06
0.000304853
-3.27283e-05
4.50363e-05
0.000259776
-3.33512e-05
6.54284e-05
-0.000278887
-1.58299e-05
7.19629e-05
-0.00129134
1.44346e-06
3.84796e-05
-0.00218416
-1.29047e-06
-0.00153873
0.00293957
9.42562e-05
-0.00281973
-0.00142669
0.00327743
6.5382e-05
-0.00143723
0.0038218
0.000214572
-0.00152027
0.00295161
0.000211169
-0.0010872
0.00422643
0.000143125
-0.000833264
0.00442511
0.000325159
-0.00148954
0.00378798
8.85691e-05
-0.00125211
0.00438683
0.000181132
-0.000955325
0.0052334
0.000336858
-0.000541031
0.00509683
0.000441127
-0.00135734
0.00419769
6.43741e-05
-0.00111714
0.00540378
0.000233709
-0.000484442
0.00524573
0.000349297
-0.00047596
0.00554959
0.0004476
-0.000296315
0.00609014
0.000530589
-0.00129653
0.00515233
0.000363855
-0.000752078
0.00682166
0.000278334
-0.00052461
0.00670406
0.00061963
-0.000428017
0.00668153
0.000921424
-0.000385891
0.00639939
0.00106194
-0.000366117
0.006138
0.00130305
-0.00110784
0.00479475
0.000140851
-0.00111143
0.00617738
0.000531076
-0.000193904
0.00698974
0.000914513
-0.000197596
0.00662368
0.00119992
0.000320386
0.00560868
0.00123955
-0.000330861
0.00555658
0.000969262
-0.000348381
0.00559047
0.00101594
-0.000616632
0.00719046
0.000455146
-0.000848885
0.00589146
0.00086
-0.000145287
0.0052214
0.000959324
-2.34746e-05
0.00438749
0.00101239
1.32405e-05
0.00381902
0.000721139
-6.28295e-05
0.00396896
0.00051376
-0.000344577
0.00453116
0.000645298
-0.000386148
0.00507315
0.000784074
-5.67901e-05
0.00497041
1.54662e-05
2.33858e-05
0.0024396
0.00022436
0.000141787
0.00158308
0.000261217
0.000156786
0.000960274
0.000366759
-0.000128084
0.00183417
0.000483786
-0.000104455
0.0026394
0.000374675
-0.000143026
0.00271501
0.000350627
-0.000156631
0.0033502
0.000538077
-0.00032098
0.00368996
0.000656905
5.80893e-05
0.000716431
-5.13402e-06
0.00041174
0.000719463
-7.35805e-05
0.000293526
0.00110434
-8.04995e-05
0.000305117
0.00133939
1.92431e-05
8.54718e-05
0.00218161
0.000110867
-8.64639e-05
0.00231954
0.000176846
-8.66653e-05
0.00223578
0.000195088
-5.79164e-05
0.00232894
0.000231828
-6.50693e-05
0.00173938
0.000276546
-6.32465e-05
0.00156928
0.000345025
0.000161004
0.000133066
-0.000160925
0.000309422
-0.000212485
-0.000268784
0.000259438
0.000879578
-0.000115929
0.000216797
0.00185359
-9.73653e-05
0.00013494
0.00191947
-7.02671e-05
-3.53841e-06
0.00193092
-4.48887e-05
-3.09901e-05
0.00118553
-1.873e-05
4.11794e-05
0.000728984
1.45942e-05
5.14967e-05
-0.000474011
4.42959e-05
4.14545e-05
-0.00108548
7.71792e-05
-2.42747e-05
-0.00148016
9.20409e-05
0.00012392
0.000677731
-3.89545e-05
0.000175467
-0.000128419
-0.000104515
0.000114051
0.000338189
-9.43646e-05
0.000104757
0.000419025
-5.86035e-05
0.000122725
0.0008854
-5.65344e-05
3.54573e-05
0.000387433
-5.42571e-05
9.72524e-06
0.000273166
-3.14292e-05
4.08602e-05
0.00021832
-3.21329e-05
5.86571e-05
-0.000355704
-1.51917e-05
6.43594e-05
-0.00137222
6.89217e-07
2.58498e-05
-0.0022056
-2.95967e-06
1.21002e-05
-0.00237669
-1.46871e-06
-0.00164785
0.00271438
7.54612e-05
-0.00268073
-0.00153984
0.00299758
5.51482e-05
-0.00131025
0.00330833
-7.70649e-05
-0.00326398
-0.00179945
5.99679e-05
-0.00144374
0.00318737
1.3533e-05
-0.00132917
0.00386362
0.000265534
-0.00108687
0.00409328
0.000487776
-0.00164746
0.00289752
0.000212021
-0.00123952
0.00424959
0.000175413
-0.00102366
0.00444241
0.000194162
-0.000792315
0.00474659
0.000488691
-0.00147121
0.00384221
5.96273e-05
-0.00121428
0.00439136
0.000181169
-0.000681073
0.00517492
0.00043624
-0.000585282
0.00510622
0.000436785
-0.000479455
0.00515246
0.000593158
-0.00133486
0.00415035
8.56676e-05
-0.0010459
0.00551861
0.000243369
-0.00069888
0.00527014
0.000383562
-0.000457182
0.00549568
0.000432379
-0.000412897
0.0060994
0.000465352
-0.000563517
0.00612469
0.000505471
-0.00129188
0.00502597
0.000310391
-0.000903425
0.00643749
0.000540018
-0.000596217
0.00681464
0.000570062
-0.000471356
0.00672471
0.000850217
-0.000313532
0.00686449
0.00109025
-0.000645767
0.00645245
0.00106239
-0.000575003
0.00643781
0.00122506
-0.00105045
0.00517269
5.5885e-05
-0.0011406
0.00613859
0.000471358
-0.000188998
0.00670981
0.000854714
-0.000121315
0.00650991
0.00112612
-0.000274034
0.00600597
0.00108991
-8.9653e-06
0.00577182
0.000970441
-0.000492036
0.00571169
0.000995504
-0.000460283
0.00585681
0.00093368
-0.000589426
0.00728139
0.000441703
-0.000662929
0.00622378
0.000809148
-0.000226809
0.00542539
0.0010246
-8.02401e-05
0.00463084
0.000952998
-0.000162706
0.00402667
0.000839365
-0.000154024
0.00416793
0.000571739
-0.000258034
0.00451454
0.000645386
-0.000332834
0.00510623
0.00078842
-0.00059135
0.00577099
0.000907279
-3.5154e-05
0.00508164
-1.79885e-05
0.000140258
0.00253047
0.000196079
0.000161092
0.00168211
0.000257764
0.000229208
0.000968149
0.00032925
-0.000141022
0.00193607
0.000491348
-0.00015113
0.00277789
0.00040996
-0.000127614
0.00278284
0.000347794
-0.000175045
0.00330231
0.000515642
-0.000285048
0.00378766
0.000660357
-0.000199501
0.00375334
0.000769642
6.62627e-05
0.000805899
5.27324e-06
0.00049847
0.000578407
-5.31258e-05
0.000291836
0.00112046
-0.000122098
0.000324013
0.00117785
-2.61757e-05
8.3942e-05
0.00214023
0.000111625
-8.49e-05
0.00235084
0.000160931
-7.93137e-05
0.0022737
0.000187249
-1.68344e-05
0.00235333
0.000228712
-6.78103e-05
0.0018125
0.000278018
-9.49755e-05
0.00163297
0.000349282
-0.000185357
0.00136847
0.000397729
0.000165957
0.000227469
-0.000136439
0.000308543
-0.00022571
-0.000280775
0.000205028
0.000661823
-0.000142006
0.000222602
0.00170022
-8.04034e-05
0.000149833
0.00186199
-6.69983e-05
6.72303e-06
0.00193806
-4.86747e-05
-2.14141e-05
0.00118628
-1.44943e-05
2.26998e-05
0.000708414
2.00001e-05
4.53657e-05
-0.000493503
4.73778e-05
2.38488e-05
-0.00108093
8.02624e-05
-4.56519e-05
-0.00142751
9.60334e-05
-6.21932e-05
-0.00167428
0.000111137
0.000133434
0.000581787
-3.74899e-05
0.000158695
-0.000217983
-0.000108086
0.000100553
0.00022666
-9.35382e-05
0.000100877
0.000281882
-5.80988e-05
0.000124676
0.000754603
-5.2482e-05
2.74825e-05
0.000357565
-5.41483e-05
9.12143e-06
0.000240939
-3.11518e-05
3.57801e-05
0.000182122
-3.10113e-05
5.34876e-05
-0.000426555
-1.47698e-05
5.78099e-05
-0.00144638
1.16088e-06
1.5831e-05
-0.00222013
-6.13053e-07
7.59179e-06
-0.0023834
-3.83743e-06
-2.03916e-05
-0.00273763
1.7197e-05
-0.00162143
0.00254796
-7.26537e-06
-0.00256711
-0.00161265
0.00271661
7.05813e-05
-0.00134272
0.00358923
0.000219734
-0.00370104
-0.00177338
2.55659e-05
-0.00149127
0.00299942
4.56865e-05
-0.0012379
0.00330746
-3.52585e-05
-0.00116387
0.00383424
-4.84271e-06
-0.00382946
-0.00140029
-0.000110672
-0.00157023
0.00313524
-2.50936e-05
-0.00141189
0.00388473
0.000164787
-0.00101897
0.00393978
0.00041434
-0.000783478
0.00420265
0.000471876
-0.00165656
0.00290631
0.000176566
-0.000987012
0.00412394
0.000110405
-0.00100037
0.00468661
0.000250508
-0.000877992
0.00476824
0.000465218
-0.000691519
0.00482914
0.000557071
-0.00142754
0.00393055
4.34561e-06
-0.001155
0.00442278
0.000137321
-0.00093329
0.00515851
0.000431987
-0.000517377
0.00513194
0.000470722
-0.000552531
0.00512766
0.000601219
-0.000635282
0.00511535
0.000729784
-0.00141526
0.00415377
0.000119966
-0.00105028
0.00548965
0.000261475
-0.000866276
0.0054353
0.000348276
-0.000631844
0.00562419
0.000415536
-0.00041319
0.00619853
0.000432902
-0.000559433
0.00608013
0.000423583
-0.000589171
0.00637473
0.000400307
-0.0012724
0.00507423
0.000173694
-0.000947287
0.00627061
0.000283954
-0.000454373
0.00698365
0.000636387
-0.000524771
0.00684736
0.000850865
-0.000447326
0.00685525
0.00103274
-0.000295777
0.00677296
0.00105655
-0.000638117
0.00649406
0.00115222
-0.000523851
0.00624888
0.00118112
-0.0010286
0.00550014
0.000111719
-0.00114597
0.00617037
0.000507154
-0.000429687
0.00650758
0.00087647
-0.000164604
0.00645151
0.000997478
-0.000307938
0.00615577
0.00112155
-0.000212731
0.00585257
0.00106787
-0.000378076
0.0058186
0.000983572
-0.000376974
0.00589933
0.000997127
-0.000571972
0.00648311
0.000956765
-0.000566279
0.00735015
0.00046237
-0.000489059
0.00648345
0.000811345
-0.000312428
0.00578582
0.000922238
-6.80611e-05
0.00499571
0.000957006
-0.000281981
0.00424498
0.000875647
-9.79543e-05
0.00431339
0.000640731
-0.000202477
0.00451789
0.000643251
-0.000301768
0.00509602
0.000782327
-0.00048791
0.00591288
0.0008494
-0.000365224
0.00598093
0.000982493
-3.03664e-06
0.00513468
1.62631e-05
0.000324029
0.0025101
0.000176815
0.00023041
0.00163853
0.000301092
0.000272164
0.000997255
0.000280508
-8.9743e-05
0.00194971
0.000489294
-9.74065e-05
0.00286471
0.000417043
-0.000133299
0.00290644
0.000340341
-0.000146516
0.0033277
0.000452087
-0.000309858
0.00388657
0.000658779
-0.000311295
0.00385963
0.000770391
-0.000363029
0.00412287
0.000787329
9.66388e-05
0.000838903
3.63135e-05
0.000566769
0.000343984
-1.85303e-05
0.000255976
0.00111519
-9.88075e-05
0.000300924
0.00105113
-7.36933e-05
0.000145845
0.00201589
0.000102151
-7.00593e-05
0.0023902
0.000149046
-8.53761e-05
0.00232042
0.000178181
-5.4959e-05
0.00239796
0.000220276
-1.11535e-05
0.00182388
0.000273849
-0.000154166
0.00173578
0.000353225
-0.000224801
0.00149285
0.00040405
-0.000262397
0.00219336
0.000415552
0.000174725
0.000294631
-0.000108453
0.000291484
-0.000223699
-0.000271238
0.000137464
0.000518676
-0.000174539
0.000222486
0.00151984
-8.32429e-05
0.000160764
0.0018198
-7.42984e-05
7.70502e-06
0.00194136
-5.05149e-05
-2.49429e-05
0.00118429
-1.26272e-05
1.80776e-05
0.000685516
2.61066e-05
3.86767e-05
-0.000509418
5.07254e-05
1.00271e-05
-0.00106804
8.22678e-05
-5.8079e-05
-0.00137186
9.85199e-05
-8.75502e-05
-0.0015953
0.000112192
-0.000183504
-0.00179525
0.000174042
0.000140154
0.000474245
-3.26114e-05
0.000142438
-0.000288238
-0.000109673
8.60374e-05
0.000123461
-9.09242e-05
9.37306e-05
0.000151517
-5.69037e-05
0.000124621
0.000621888
-5.00052e-05
2.57357e-05
0.000332258
-5.29112e-05
1.17719e-05
0.000206017
-3.09982e-05
3.08121e-05
0.00014996
-2.98018e-05
4.98852e-05
-0.000492868
-1.45826e-05
5.11278e-05
-0.00151375
1.47611e-06
6.82175e-06
-0.00222558
-2.07651e-07
-8.21687e-06
-0.00237377
-2.0257e-06
-3.08892e-05
-0.00272699
1.64195e-05
-0.00011247
-0.00305995
3.92411e-05
-0.00158224
0.00244492
8.81556e-06
-0.00249292
-0.00161415
0.00257544
-2.59866e-05
-0.00156806
0.00297785
0.000152309
-0.00291209
-0.00177347
7.21111e-06
-0.00159506
0.00274191
7.84981e-05
-0.00131089
0.00358347
0.000149333
-0.00116894
0.00349875
0.000305891
-0.00357984
-0.00153784
0.000203674
-0.00159225
0.00298968
3.1757e-05
-0.00121274
0.00314783
6.17455e-06
-0.00113956
0.00387502
4.45657e-05
-0.0010187
0.00390839
0.000256048
-0.00393405
-0.0013408
-1.08874e-05
-0.00161705
0.00308253
1.32019e-05
-0.00126116
0.00396259
0.000171198
-0.00103983
0.00385207
0.000291954
-0.000809539
0.00418146
0.000367079
-0.00065769
0.00420175
0.000493943
-0.00168497
0.00300955
0.000154179
-0.000897033
0.00392373
0.000118804
-0.00109977
0.00475638
0.000207114
-0.000804442
0.00486409
0.000441728
-0.000649009
0.00486576
0.00052507
-0.000735231
0.00481413
0.000617935
-0.00148635
0.00393098
7.06579e-05
-0.00125622
0.00447884
0.00015423
-0.00099665
0.00504018
0.000386023
-0.000675286
0.00515321
0.000454152
-0.000612746
0.00518675
0.000611183
-0.00067306
0.00514299
0.000687205
-0.000606568
0.00516472
0.000703588
-0.00144934
0.00414426
0.000186451
-0.00105074
0.00545046
0.000262603
-0.000716347
0.00555979
0.000398951
-0.000755999
0.00578718
0.00041652
-0.000428251
0.00617232
0.000422676
-0.000471094
0.00622887
0.000459475
-0.000529648
0.0063239
0.000365946
-0.000510951
0.00641923
0.000444491
-0.00127825
0.0052118
0.000112089
-0.00100475
0.00620087
0.000102212
-0.000632559
0.00701039
0.000460085
-0.000440142
0.00686993
0.000889352
-0.000441662
0.00686844
0.000971404
-0.000347885
0.00681486
0.001126
-0.000562445
0.00669253
0.00104245
-0.000512594
0.00635855
0.00117817
-0.000475509
0.00643043
0.00106074
-0.00101002
0.00569364
0.000250244
-0.000976015
0.00622268
0.000546364
-0.000519128
0.00631987
0.000901555
-0.000137678
0.00638668
0.00101091
-0.000314192
0.00615403
0.00103143
-0.000172111
0.00595337
0.0010949
-0.000274764
0.00589553
0.00106323
-0.000414332
0.00598426
0.0010112
-0.000465803
0.00644511
0.00101302
-0.000541712
0.00677302
0.00106458
-0.000559275
0.00741864
0.000487742
-0.000227204
0.00658266
0.000914393
-0.000177373
0.00610349
0.000901459
-6.70112e-05
0.00532934
0.000927779
-0.000192444
0.00440263
0.000902057
-9.87468e-05
0.0044413
0.000749078
-0.000255281
0.00458574
0.000694864
-0.000284164
0.00507967
0.000797248
-0.0004643
0.0059337
0.000915942
-0.00043595
0.00601556
0.000939418
-0.00045767
0.00616605
0.00101129
0.000107585
0.00507477
4.8966e-05
0.000457128
0.00245149
0.000184513
0.000274931
0.00144704
0.000349351
0.000236646
0.00107692
0.000285708
1.42875e-05
0.00190985
0.000451925
-6.52592e-05
0.00290805
0.000441145
-0.000118368
0.00301933
0.000337151
-0.000145032
0.0033047
0.000453416
-7.00989e-05
0.00378222
0.000615382
-0.000407131
0.00400277
0.000768602
-0.000374382
0.00425542
0.000787415
-0.000319674
0.00409632
0.000816256
0.000123343
0.000862303
2.79823e-05
0.000529082
0.000131273
1.14265e-05
0.000183082
0.00108057
-2.95221e-05
0.000279878
0.000976303
-8.13741e-05
0.000220831
0.0017926
8.95267e-05
-6.2519e-05
0.00240702
0.000155555
-8.28462e-05
0.00235085
0.000176514
-4.96596e-05
0.00242807
0.000215809
-0.000138112
0.00194733
0.000273613
-0.000141058
0.00181173
0.000348984
-0.000217547
0.00160549
0.000400061
-0.00030367
0.00239859
0.00041494
-0.000483653
0.00164165
0.000457858
0.000183002
0.000333489
-8.17067e-05
0.000288348
-0.000225825
-0.000252238
7.12567e-05
0.000455367
-0.000193149
0.00020569
0.00133816
-0.000104817
0.000171713
0.00176007
-7.06022e-05
8.51372e-06
0.00193717
-5.28902e-05
-2.17825e-05
0.00117939
-1.20616e-05
9.40784e-06
0.000662404
3.18891e-05
2.24781e-05
-0.000510167
5.42632e-05
-1.2346e-06
-0.0010517
8.67486e-05
-7.03527e-05
-0.00131325
0.000100835
-0.000100924
-0.00151652
0.000112455
-0.000208345
-0.00168331
0.000177706
-0.000302588
-0.00139262
0.000198577
0.000142266
0.000357126
-2.51474e-05
0.000129114
-0.000341083
-0.000108881
6.66321e-05
3.52702e-05
-8.81149e-05
8.53257e-05
3.07781e-05
-5.55106e-05
0.000117639
0.000496416
-4.90706e-05
2.31791e-05
0.000310202
-5.11279e-05
1.49959e-05
0.000169114
-3.10043e-05
2.45075e-05
0.000122743
-2.82885e-05
4.7493e-05
-0.000555234
-1.49288e-05
4.28962e-05
-0.00157021
-1.02805e-06
-5.41942e-06
-0.00221905
3.65883e-07
-1.70228e-05
-0.00235394
-3.01779e-06
-4.01913e-05
-0.00270498
1.61552e-05
-0.000119128
-0.00296276
3.83528e-05
-0.000120821
-0.00135965
3.38364e-05
-0.00149994
0.00234245
-3.64513e-05
-0.0023883
-0.00159909
0.00240961
2.024e-05
-0.00142045
0.003076
-0.000128232
-0.00308657
-0.00175456
3.17703e-05
-0.0025436
-0.00159269
0.00262418
-5.11087e-05
-0.00147284
0.00294563
0.000168184
-0.00127183
0.00338006
0.000238387
-0.00336324
-0.00183737
0.000173464
-0.00168399
0.0027487
8.49471e-05
-0.00125353
0.00357379
0.000128969
-0.00118161
0.00345344
0.000236695
-0.00102391
0.00359177
0.000350969
-0.00363164
-0.00134449
0.000263262
-0.00160929
0.00294456
3.73565e-05
-0.00130885
0.00319221
3.50653e-05
-0.00107457
0.00380629
0.000109642
-0.000983804
0.00389168
0.000235542
-0.000699272
0.00396035
0.000357518
-0.00402024
-0.00118243
0.000304436
-0.00167309
0.00304916
2.14934e-05
-0.00113815
0.004003
0.000213907
-0.00112621
0.00380434
0.000245364
-0.0008543
0.00421761
0.000305661
-0.000735514
0.00420889
0.000446443
-0.000688916
0.00423896
0.000501775
-0.00168517
0.00304855
0.000159822
-0.00103551
0.00371441
0.000142789
-0.000972389
0.00469484
0.000156079
-0.000778972
0.00475741
0.000417479
-0.000649332
0.00483895
0.000505124
-0.000740741
0.00483055
0.000576335
-0.000725767
0.00488816
0.000673307
-0.00154665
0.00396628
6.20183e-05
-0.00120653
0.00447585
0.000229438
-0.000852099
0.00493608
0.000394087
-0.000700557
0.00508472
0.000399078
-0.000521837
0.0051764
0.000558085
-0.000474824
0.00510962
0.000648279
-0.000512594
0.00516533
0.000669536
-0.000625266
0.00523354
0.00072556
-0.00148279
0.00415233
0.000196464
-0.00108088
0.00543372
0.000279317
-0.000827373
0.00564946
0.000367746
-0.000669979
0.00595448
0.000461481
-0.00049551
0.00617233
0.000470351
-0.000465697
0.00630504
0.000464323
-0.000522882
0.00631439
0.000429427
-0.000581568
0.00640375
0.000450397
-0.000556576
0.00625611
0.000534434
-0.00119785
0.00525524
0.000144386
-0.00101107
0.00626908
7.89459e-05
-0.000626171
0.00684519
0.000374451
-0.00035385
0.00668543
0.000860754
-0.000339194
0.00686957
0.000913227
-0.000396222
0.00702698
0.000983398
-0.000445637
0.00690441
0.00108499
-0.000591242
0.00655437
0.00102354
-0.000462677
0.00657791
0.00102757
-0.000559316
0.00667052
0.000971247
-0.00106212
0.00589406
0.000302429
-0.000702256
0.00636751
0.000580466
-0.000424397
0.00631831
0.000794951
-0.00028576
0.00653781
0.00096917
-0.000315749
0.00624104
0.00104722
-0.000317443
0.00611559
0.00108791
-0.000391254
0.00606947
0.00105693
-0.000401606
0.00610109
0.00106384
-0.000414202
0.00633931
0.0010669
-0.000445788
0.00675552
0.00104036
-0.000414567
0.00681336
0.00105476
-0.000435949
0.00748678
0.000475397
-4.83732e-05
0.00669652
0.00087939
-3.7667e-05
0.00639785
0.000932635
-7.61703e-05
0.00566212
0.000881497
-0.000165251
0.00463175
0.0008782
-0.000101537
0.0045629
0.000816734
-0.000216924
0.00467995
0.00075342
-0.000263563
0.00511496
0.000778105
-0.000238183
0.00595116
0.00094788
-0.000449908
0.00596038
0.0010139
-0.000470919
0.00616647
0.00103554
-0.000321489
0.00610106
0.000986269
0.000134701
0.00492423
0.000139175
0.000424408
0.00240067
0.000204467
0.000135333
0.00125598
0.000423322
0.000191593
0.00116243
0.00035212
0.000121997
0.0018819
0.000412492
-0.000122498
0.00295675
0.000463211
-0.00011007
0.00313605
0.000351645
-0.000166085
0.00336111
0.000397165
-0.000270813
0.00371467
0.000653669
-0.000345767
0.00406069
0.000762171
-0.000355703
0.00437103
0.000791153
-0.000464125
0.00423473
0.000809461
-0.000572021
0.00496084
0.000727021
0.000129252
0.000899103
1.69501e-05
0.000471271
-1.39228e-05
-9.7443e-06
0.000128304
0.0010123
2.26452e-05
0.000172046
0.00102363
-4.32069e-05
0.000250369
0.00154413
8.84429e-05
-5.72841e-05
0.00238152
0.000180823
-6.91139e-05
0.00236839
0.000185344
-4.16149e-05
0.00243906
0.000216546
-8.47813e-05
0.00200139
0.000269013
-0.00014298
0.00188028
0.000346806
-0.000219843
0.00170437
0.000399592
-0.000305652
0.0025882
0.000415182
-0.000490786
0.00188237
0.000456657
-0.00044454
0.00288388
0.00036399
0.00018915
0.000353447
-6.68416e-05
0.000280045
-0.000231265
-0.000227196
1.63876e-05
0.000440583
-0.00018721
0.00017462
0.00117875
-0.000123028
0.000165658
0.00167822
-7.09885e-05
2.07182e-06
0.00193337
-4.56937e-05
-1.75441e-05
0.0011714
-1.23588e-05
-3.35062e-06
0.000641461
3.67393e-05
1.5325e-05
-0.000505407
5.92966e-05
-1.41887e-05
-0.00103175
9.13983e-05
-8.52747e-05
-0.00125138
0.000104732
-0.000119693
-0.00142579
0.000112773
-0.000222556
-0.00156923
0.000180734
-0.000310096
-0.00122658
0.00020263
-0.000288171
0.000234447
0.00019231
0.000138617
0.000236524
-1.80153e-05
0.000110471
-0.000370929
-0.000105773
3.67789e-05
-2.42667e-05
-8.61225e-05
7.88879e-05
-8.20363e-05
-5.41885e-05
0.000105048
0.000384504
-4.86469e-05
1.95009e-05
0.000290826
-4.91954e-05
1.65299e-05
0.000132471
-3.10144e-05
2.02171e-05
9.81309e-05
-2.66092e-05
4.57989e-05
-0.00061534
-1.39818e-05