/*--------------------------------*- C++ -*----------------------------------*\
  =========                 |
  \\      /  F ield         | OpenFOAM: The Open Source CFD Toolbox
   \\    /   O peration     | Website:  https://openfoam.org
    \\  /    A nd           | Version:  7
     \\/     M anipulation  |
\*---------------------------------------------------------------------------*/
FoamFile
{
    version     2.0;
    format      ascii;
    class       volVectorField;
    location    "9.5";
    object      U;
}
// * * * * * * * * * * * * * * * * * * * * * * * * * * * * * * * * * * * * * //

dimensions      [0 1 -1 0 0 0 0];

internalField   nonuniform List<vector> 
18750
(
(-0.347888 0.818594 0.184961)
(1.29603 -0.0979524 -0.172125)
(-0.408592 0.774003 0.145113)
(1.04072 0.887386 -0.975666)
(-0.171914 -0.466964 -0.590507)
(1.42 -0.0707831 -0.211086)
(1.69 1.04255 0.487043)
(-0.339844 0.78007 0.204515)
(1.13284 0.90015 -1.03206)
(0.34226 0.964223 -1.27303)
(-0.534844 2.88064 0.884662)
(-0.175076 -0.323589 -0.25891)
(0.579521 0.595566 0.303859)
(1.52585 -0.0177346 -0.246319)
(2.02929 0.987637 0.281391)
(1.0658 1.92431 1.32343)
(-0.196788 0.797015 0.237247)
(1.25614 0.918577 -1.10286)
(0.37377 0.953062 -1.35923)
(0.494767 0.90246 -1.11589)
(-2.23674 4.39042 -0.338168)
(-0.885769 2.90903 1.05875)
(1.39544 0.492324 0.740142)
(-0.129403 -0.186443 -0.140631)
(0.638614 0.785262 0.299152)
(0.943608 0.682032 1.9527)
(1.60283 0.0562563 -0.303504)
(2.2384 1.013 -0.00100087)
(1.33231 1.9857 1.30881)
(0.543292 1.51817 -0.559106)
(-0.0513156 0.80982 0.265721)
(1.40997 0.953229 -1.17163)
(0.407898 0.930141 -1.46315)
(0.522897 0.900657 -1.16872)
(0.937009 1.11349 -1.02639)
(-2.59887 3.22605 -1.2653)
(-2.30529 4.34774 -0.139076)
(2.00447 3.71815 2.4625)
(-1.1623 2.85377 1.20875)
(1.00587 0.524567 0.864793)
(0.0533638 0.625867 1.24156)
(-0.0686151 -0.0630187 -0.0869126)
(1.12551 0.908129 0.101739)
(1.01574 0.778809 1.79445)
(1.25868 0.878977 0.931208)
(1.63055 0.148522 -0.3769)
(2.30886 1.04692 -0.440843)
(1.71444 2.0092 0.725026)
(0.718282 1.65775 -0.124513)
(0.203106 1.45933 -0.88174)
(0.0314573 0.82911 0.286835)
(1.59284 1.01129 -1.23525)
(0.45254 0.904618 -1.58119)
(0.559293 0.894301 -1.22774)
(0.960119 1.14214 -1.03565)
(1.1169 0.577564 -1.26132)
(-1.29857 3.88891 0.809935)
(-2.82611 2.98777 -0.71736)
(-0.460022 4.94929 2.1135)
(-2.78776 4.02762 0.351278)
(-0.398003 3.49291 2.31137)
(1.74754 3.36334 2.81936)
(-0.870919 2.89806 1.06438)
(0.666081 0.686506 0.900783)
(0.153247 0.577457 1.39694)
(0.0828085 0.4479 0.967585)
(-0.0640136 0.125582 -0.00440055)
(1.50182 0.791899 -0.0744551)
(1.36594 0.965917 1.34057)
(1.17938 1.14021 1.05221)
(0.424087 1.23795 0.653148)
(1.61985 0.261715 -0.439056)
(2.29568 1.00729 -0.897896)
(1.87422 2.00539 0.277677)
(0.664809 1.70158 -0.260691)
(0.125018 1.47715 -0.88726)
(0.357258 1.14504 -0.3749)
(0.12425 0.855344 0.314888)
(1.79208 1.09469 -1.30193)
(0.516858 0.883303 -1.71436)
(0.608908 0.893116 -1.28776)
(0.99118 1.16184 -1.05541)
(1.03563 0.589269 -1.35941)
(0.362931 0.31262 -1.08872)
(-2.28679 2.8051 0.258331)
(-1.87489 3.69468 0.533284)
(-2.13561 4.1447 -0.458388)
(-3.31533 2.45168 -0.309719)
(-0.743255 5.0194 2.2044)
(-0.501642 4.94484 1.92376)
(-2.78511 4.0163 0.49795)
(-1.17999 3.27905 2.3859)
(0.165903 3.82091 2.19177)
(1.64637 2.57274 1.98328)
(-1.11361 2.92589 0.91182)
(0.362599 0.786873 0.706855)
(0.067149 0.573794 1.39374)
(-0.0415702 0.468328 1.28656)
(-0.637327 0.986843 0.970128)
(-0.0456001 0.176607 0.0373182)
(1.70349 0.983794 -0.240418)
(1.51921 1.05116 0.999419)
(1.18687 1.25741 0.923433)
(0.509287 1.30233 0.646006)
(-0.374176 1.44145 0.918673)
(1.56383 0.406275 -0.493964)
(2.19614 0.979839 -1.31073)
(1.84597 2.00512 -0.0215141)
(0.604863 1.66878 -0.492057)
(0.0648219 1.48464 -0.958391)
(0.054225 1.2753 -0.194006)
(-0.121725 0.74577 -0.370895)
(0.22028 0.894162 0.348048)
(1.98011 1.20067 -1.39318)
(0.590872 0.871366 -1.86375)
(0.673767 0.898522 -1.358)
(1.03118 1.19464 -1.05723)
(0.920735 0.593424 -1.45807)
(0.255609 0.307742 -1.00598)
(0.775493 0.342564 -0.957583)
(-1.80526 2.2949 0.164184)
(-2.2081 2.81676 0.291344)
(-1.83426 3.08723 0.107245)
(-2.74876 3.28416 0.131239)
(-2.02083 4.62271 0.0803883)
(-0.186063 4.17713 1.27456)
(-3.1897 2.47467 -0.228701)
(-0.865483 4.93036 2.0141)
(-0.11853 5.01191 2.16897)
(-0.0400382 4.25026 2.74357)
(-2.88538 3.79286 0.708008)
(-1.71604 3.1621 2.26781)
(-0.252705 3.23579 2.71846)
(0.879122 2.69988 2.09212)
(0.253687 2.46621 1.01687)
(-0.00782894 3.1715 0.822731)
(0.187013 0.935398 0.600594)
(0.0720658 0.672239 1.42845)
(0.122057 0.489723 1.29749)
(-0.918526 0.964045 1.20188)
(-0.347179 1.514 1.1571)
(-0.0106927 0.254278 0.119062)
(1.82678 1.19718 -0.400969)
(1.5524 1.17408 0.699987)
(1.1771 1.3107 0.78074)
(0.62878 1.47954 0.680706)
(-0.331187 1.45492 0.882224)
(-0.485105 1.38205 0.961807)
(1.48938 0.523493 -0.493858)
(2.07088 0.931892 -1.6732)
(1.72647 1.91166 -0.182376)
(0.547625 1.68945 -0.574209)
(0.0814959 1.48213 -0.982217)
(-0.0983904 1.23447 -0.202421)
(-0.00669818 0.738377 -0.402438)
(0.368447 0.519607 0.00717417)
(0.321675 0.952231 0.379825)
(2.11396 1.30523 -1.54437)
(0.666841 0.869396 -2.02105)
(0.74105 0.907252 -1.44558)
(1.08843 1.23184 -1.01494)
(0.784183 0.57752 -1.55324)
(0.156178 0.287777 -0.912459)
(0.692946 0.340582 -0.898405)
(1.12812 0.00850387 -0.740461)
(-1.72892 2.25867 -0.113131)
(-1.83821 2.25655 0.260272)
(-1.69481 2.98483 -0.0437088)
(-2.42983 2.60513 0.112299)
(-2.05805 2.98827 -0.00814419)
(-1.17942 3.5237 0.404212)
(-2.97595 3.04725 -0.0231308)
(-1.79656 4.68879 0.386349)
(-0.784178 4.00954 1.18429)
(-0.29056 4.12812 1.36558)
(-3.21156 2.25993 0.043454)
(-2.16204 4.05837 1.22923)
(0.0696813 5.04215 2.07928)
(0.0212827 4.22124 2.82194)
(0.443674 3.58244 2.7513)
(-2.90044 3.72914 0.788782)
(-2.04145 3.01348 2.08698)
(-0.564521 3.30377 2.68216)
(1.01822 2.65448 2.55233)
(0.180512 2.46921 1.15564)
(-0.447259 2.65674 1.05457)
(-0.529675 3.37176 0.417809)
(0.146444 1.25473 0.47269)
(0.126701 0.820954 1.32616)
(0.259999 0.525666 1.2156)
(-1.12189 0.93371 1.34143)
(-0.354548 1.54403 1.18885)
(-0.336649 1.62019 0.967905)
(-0.0455995 0.321545 0.20812)
(1.81723 1.30972 -0.516026)
(1.47286 1.27721 0.376813)
(1.09632 1.41187 0.500475)
(0.57925 1.60885 0.513629)
(-0.517204 1.43925 0.869193)
(-0.577952 1.3723 0.911123)
(-0.255636 1.48771 1.01155)
(1.37519 0.653434 -0.454315)
(1.92836 0.893178 -1.94288)
(1.59714 1.79163 -0.40215)
(0.483585 1.69145 -0.71619)
(0.10997 1.49042 -0.86012)
(0.27424 1.2654 -0.263666)
(0.0648832 0.793183 -0.390407)
(0.329114 0.54946 0.031813)
(0.628382 -0.258174 0.0338684)
(0.428734 1.02916 0.401433)
(2.13789 1.37827 -1.74891)
(0.745395 0.878107 -2.17142)
(0.78898 0.906606 -1.56552)
(1.13237 1.2603 -0.97085)
(0.627211 0.544182 -1.63998)
(0.0722615 0.261127 -0.814476)
(0.612187 0.33345 -0.844111)
(0.986604 0.00599897 -0.75953)
(1.07147 -0.716668 0.0132591)
(-1.33258 2.2213 0.244351)
(-2.09905 1.82069 -0.0408655)
(-1.32869 2.77237 0.571778)
(-1.93593 2.22109 0.330335)
(-1.87409 2.84831 -0.125608)
(-0.776374 3.41824 0.47113)
(-2.75927 2.31081 0.00188215)
(-1.96887 2.99592 -0.0242261)
(-1.47878 3.46481 0.392063)
(-1.11087 3.61772 0.632541)
(-2.90612 2.89523 -0.0249558)
(-1.45245 4.7069 0.498082)
(-0.996331 4.1216 1.05031)
(-0.504874 4.30383 1.33027)
(0.384582 4.12324 2.16837)
(-3.22969 2.21596 0.0985924)
(-2.99125 3.54961 0.8479)
(-0.949604 4.65276 2.17677)
(-0.317753 4.28355 2.61138)
(-0.727448 3.4181 2.54621)
(-0.062789 3.35134 2.24471)
(-3.40148 3.52134 0.843439)
(-2.34208 2.97283 1.88689)
(-0.90593 3.3475 2.52438)
(-0.416072 2.89624 2.66461)
(0.183021 2.61474 1.5899)
(-0.527295 2.5847 1.12328)
(-1.01362 2.94931 1.42045)
(-0.986468 3.20514 0.258986)
(0.0810531 1.5366 0.31223)
(0.10827 0.967194 1.24829)
(0.378559 0.680234 1.01579)
(-1.08388 0.888256 1.50869)
(-0.350353 1.626 1.27522)
(-0.364798 1.74763 0.871514)
(-0.627592 2.40631 0.929923)
(-0.0702437 0.400901 0.29331)
(1.72942 1.31893 -0.531792)
(1.20262 1.29533 0.160578)
(0.995123 1.44391 0.252981)
(0.476536 1.63691 0.386624)
(-0.718748 1.39094 0.834052)
(-0.631173 1.36859 0.878904)
(-0.303564 1.4847 1.00956)
(0.0528137 1.06105 1.13947)
(1.25232 0.783508 -0.352768)
(1.66024 0.82173 -2.18551)
(1.39443 1.65048 -0.8253)
(0.471721 1.67077 -0.831262)
(0.0936225 1.48528 -0.79826)
(-0.206106 1.32216 -0.159663)
(-0.170607 0.782844 -0.387144)
(0.272562 0.56532 0.0547086)
(0.554825 -0.241128 0.07425)
(0.580789 -0.68449 0.516527)
(0.533289 1.12362 0.42025)
(2.03357 1.37507 -1.95987)
(0.826604 0.901007 -2.30058)
(0.813542 0.908956 -1.68296)
(1.16152 1.30136 -0.91628)
(0.470632 0.500079 -1.70496)
(0.00574694 0.238858 -0.718809)
(0.535437 0.322464 -0.8091)
(0.878715 -0.013404 -0.724913)
(1.04643 -0.719566 -0.00333547)
(0.637486 -1.43973 0.0462867)
(-1.48008 1.90246 0.0708007)
(-1.54799 2.0696 0.19916)
(-1.46561 2.43264 -0.234826)
(-2.20598 1.70898 -0.0336786)
(-1.45304 2.69077 0.531016)
(-1.21135 2.94394 0.113056)
(-2.12948 2.10161 0.465568)
(-2.1395 2.58235 -0.235044)
(-1.08685 3.32841 0.471772)
(-0.436889 3.35585 0.487364)
(-2.87958 2.14287 -0.0285707)
(-2.11561 3.06395 0.117203)
(-1.60404 3.40435 0.441932)
(-1.31703 3.59673 0.60595)
(-0.755432 3.88922 0.781364)
(-2.87386 2.75584 0.0657445)
(-2.29719 4.27588 0.188391)
(-1.34653 4.26181 0.8963)
(-1.02401 4.25018 1.33299)
(-0.85108 4.28965 1.9008)
(-0.154187 3.91695 2.25337)
(-3.35204 2.02098 0.308057)
(-3.56335 3.16998 0.566915)
(-1.37701 4.6925 1.57883)
(-1.25042 4.26124 2.36123)
(1.05077 3.37471 3.01435)
(-0.506404 3.50338 2.04075)
(-0.663628 3.59653 2.04448)
(-2.79083 4.1254 0.821466)
(-2.92426 2.98767 1.33936)
(-1.38755 3.17388 2.42242)
(-0.736802 2.8368 2.46847)
(-0.182801 2.56234 2.20319)
(-0.762796 2.56691 1.13437)
(-1.11259 2.90175 1.41938)
(-0.971324 3.31621 1.90433)
(-1.42319 2.98283 0.22741)
(-0.0142888 1.81762 0.115962)
(0.227579 1.19141 1.12742)
(0.481057 0.832225 0.792402)
(-0.90579 0.997582 1.54923)
(-0.580692 1.64542 1.41876)
(-0.430718 1.75021 0.915057)
(-0.342089 2.09261 1.43396)
(-0.686783 2.31589 1.91921)
(-0.0869688 0.494236 0.364029)
(1.31685 1.40835 -0.44291)
(0.887291 1.27597 -0.115893)
(0.856054 1.38973 -0.190741)
(0.408913 1.6885 0.281884)
(-0.71009 1.40429 0.812072)
(-0.762465 1.3593 0.826201)
(-0.40073 1.48161 0.963185)
(-0.065725 1.13435 1.12582)
(0.0199188 1.02118 1.31472)
(1.14075 0.919975 -0.185435)
(1.38959 0.73942 -2.28046)
(1.08728 1.41532 -1.31387)
(0.465207 1.68874 -0.68573)
(0.156718 1.48294 -0.861528)
(-0.281054 1.27214 -0.206926)
(-0.161768 0.759889 -0.425871)
(0.20824 0.560699 0.0832294)
(0.492067 -0.234153 0.113582)
(0.497066 -0.676621 0.518984)
(0.134007 -0.977233 0.660645)
(0.627009 1.22563 0.462604)
(1.82819 1.31516 -2.12173)
(0.909376 0.938776 -2.40385)
(0.771424 0.852329 -1.80861)
(1.1486 1.30797 -0.881046)
(0.333332 0.451772 -1.72862)
(-0.000345058 0.213173 -0.670097)
(0.468817 0.308391 -0.788511)
(0.806737 -0.028822 -0.676341)
(1.02739 -0.722371 -0.0247762)
(0.591152 -1.40338 0.0753928)
(0.355122 -1.59952 -0.0830575)
(-1.5484 1.68565 0.0610542)
(-1.6676 1.75593 0.0271425)
(-1.61255 2.07604 0.0947953)
(-1.59502 1.84224 0.00438178)
(-1.8045 1.89488 0.0838026)
(-1.4942 2.43358 -0.0584481)
(-0.903292 2.67811 0.662057)
(-2.42661 1.43289 0.0601415)
(-1.79157 2.49389 0.489655)
(-1.75439 2.7177 -0.172351)
(-1.07474 3.04844 0.603162)
(-2.21644 2.00637 0.438149)
(-2.33754 2.47632 -0.245632)
(-0.862573 3.41725 0.680279)
(-0.690531 3.29414 0.421884)
(-0.34536 3.35299 0.631327)
(-3.05423 1.90504 -0.0633606)
(-2.22321 3.21423 0.218305)
(-1.88537 3.13485 0.537)
(-1.48513 3.46539 0.586722)
(-1.03742 3.95017 0.702531)
(-1.15188 3.89611 0.800536)
(-2.9079 2.53101 0.31269)
(-2.96803 3.66502 1.09751)
(-1.83563 4.14283 0.712698)
(-1.36611 4.24021 1.20656)
(-1.02581 4.23667 1.79219)
(-1.39174 4.00902 1.82264)
(-0.773617 4.13719 2.19801)
(-3.41369 2.07534 0.108024)
(-3.78841 2.9148 0.22495)
(-1.69096 4.31193 1.59374)
(-1.31472 4.2379 2.2156)
(-1.09326 3.95074 2.32574)
(-0.438612 3.73454 2.01542)
(-0.980091 3.63663 1.94019)
(-0.920825 3.77286 2.11728)
(-2.91085 3.97813 0.790612)
(-2.49888 3.30983 1.49775)
(-1.34509 3.15894 2.65693)
(-0.925022 2.78975 2.41791)
(-0.770714 2.39076 2.54582)
(-0.876876 2.54896 1.34276)
(-1.11476 2.86258 1.34363)
(-1.09033 3.26604 1.84172)
(-1.30571 3.70659 1.97135)
(-1.70591 2.97284 0.174239)
(0.15998 2.01253 -0.0957364)
(0.279854 1.37151 1.17797)
(0.614351 0.93456 0.601852)
(-0.795766 1.07627 1.53051)
(-0.847191 1.63981 1.54878)
(-0.552297 1.73376 0.994167)
(-0.573846 2.14826 1.37932)
(-0.763126 2.40789 1.90585)
(-0.582615 2.43766 2.35996)
(-0.116376 0.565558 0.443139)
(1.32462 1.41557 -0.421986)
(0.693154 1.26026 -0.262527)
(0.774605 1.32475 -0.528575)
(0.186584 1.68857 0.370176)
(-0.714088 1.42317 0.740943)
(-0.821901 1.33791 0.797259)
(-0.247978 1.53621 0.94794)
(-0.13095 1.1667 1.11163)
(-0.152265 1.04429 1.35478)
(-0.485435 0.831898 1.82482)
(1.05086 1.05275 0.018536)
(1.18177 0.703355 -2.24394)
(0.694257 1.08487 -1.69598)
(0.474858 1.67055 -0.355161)
(0.213268 1.5367 -0.817283)
(-0.303772 1.26749 -0.224218)
(-0.116532 0.807728 -0.421146)
(0.143713 0.54735 0.129502)
(0.437941 -0.232863 0.151018)
(0.425978 -0.660675 0.528789)
(0.0357163 -0.970618 0.697465)
(-0.143448 -1.12611 0.712135)
(0.696777 1.32102 0.556279)
(1.56616 1.20438 -2.22098)
(0.982758 0.991862 -2.47701)
(0.725764 0.786367 -1.80016)
(1.13557 1.32063 -0.778328)
(0.215563 0.400405 -1.69442)
(0.0217966 0.204164 -0.675057)
(0.409011 0.293351 -0.768127)
(0.765344 -0.0412383 -0.631884)
(1.01432 -0.730322 -0.0452862)
(0.576718 -1.38043 0.0675022)
(0.481385 -1.53849 -0.199029)
(0.00912175 -1.81408 -0.000453493)
(-1.41149 1.64082 0.00548334)
(-1.56812 1.66321 0.0506892)
(-0.933751 2.36489 0.078665)
(-1.32681 1.85641 -0.0315418)
(-1.66413 1.80232 0.0491929)
(-1.61196 2.07393 0.0681418)
(-1.39362 2.44789 -0.227281)
(-1.43935 2.21808 0.0858184)
(-2.03074 1.71056 -0.126715)
(-1.70266 2.28415 -0.052631)
(-1.10348 2.5554 0.590609)
(-0.879447 2.72651 0.38628)
(-2.48469 1.3176 0.0392992)
(-1.82768 2.52699 0.385765)
(-1.74721 2.79156 -0.0565142)
(-1.32621 3.00158 0.587767)
(-0.986589 3.05193 0.557634)
(-2.23632 1.99391 0.355591)
(-2.3908 2.39407 -0.275288)
(-1.49764 3.15708 0.69735)
(-0.855174 3.30815 0.466628)
(-0.828349 3.33648 0.669265)
(-0.705026 3.29282 0.905314)
(-3.25529 1.64286 -0.0858618)
(-2.39898 3.06706 0.285649)
(-2.10695 3.02662 0.494697)
(-1.72723 3.35967 0.56848)
(-1.14697 3.93913 0.648613)
(-1.28024 3.93034 0.698619)
(-1.1656 4.15525 0.663133)
(-3.01134 2.26865 0.445175)
(-3.12192 3.29307 0.747577)
(-1.9007 4.19218 0.749954)
(-1.55348 4.257 1.19599)
(-1.62285 4.2818 1.5977)
(-0.81995 4.30826 1.89491)
(-1.53803 4.151 1.77935)
(-1.05916 4.0615 2.0204)
(-3.6176 2.06053 -0.120766)
(-3.91232 2.70345 0.0858355)
(-2.53736 3.72355 1.69412)
(-1.69227 3.98819 1.92372)
(-1.59869 3.84393 2.22328)
(-1.17118 3.66762 2.14961)
(-1.02874 3.72774 1.9268)
(-0.9917 3.77479 2.12215)
(-1.50122 4.26076 1.68874)
(-3.00772 3.91814 0.748135)
(-2.52687 3.47711 1.42386)
(-1.80531 3.38322 2.22633)
(-1.03208 2.9791 2.49531)
(-1.32773 2.51815 2.29979)
(-1.17347 2.60012 1.55307)
(-1.17304 2.79439 1.41514)
(-1.22789 3.20225 1.88052)
(-1.39191 3.67546 2.03577)
(-0.725483 3.89039 2.55415)
(-1.95027 2.91696 0.279172)
(0.475028 2.29211 -0.264819)
(0.274623 1.44958 1.21652)
(0.724838 1.07495 0.513549)
(-0.764696 1.09111 1.46957)
(-1.06332 1.63617 1.59864)
(-0.646103 1.77073 1.08652)
(-0.685652 2.13012 1.27109)
(-0.934007 2.37916 1.88279)
(-0.819049 2.40464 2.39999)
(-0.89797 2.53894 2.49671)
(-0.161101 0.616089 0.510344)
(1.46498 1.44817 -0.413232)
(0.522759 1.25217 -0.0999898)
(0.717081 1.27884 -0.748188)
(0.128652 1.65216 0.285029)
(-0.744285 1.40813 0.656047)
(-0.916672 1.30151 0.722001)
(-0.500756 1.51309 0.888526)
(-0.201574 1.1825 1.08741)
(-0.291824 1.08079 1.37317)
(-0.624424 0.898283 1.81815)
(-0.636005 1.36149 1.73844)
(0.960163 1.17764 0.254774)
(1.12337 0.751632 -2.07452)
(0.231816 0.67783 -1.90622)
(0.414683 1.59475 -0.313289)
(0.11968 1.5138 -0.889201)
(-0.441499 1.24807 -0.2134)
(-0.2312 0.783132 -0.452412)
(0.0513151 0.52044 0.188879)
(0.388312 -0.236559 0.187897)
(0.379786 -0.642623 0.535801)
(-0.0243369 -0.926272 0.726717)
(-0.26558 -1.09518 0.722818)
(-0.483477 -1.22798 1.03464)
(0.736775 1.38987 0.695202)
(1.30532 1.05244 -2.25176)
(1.06083 1.08062 -2.50793)
(0.684912 0.721003 -1.682)
(1.10006 1.30687 -0.756199)
(0.142196 0.360841 -1.60862)
(0.0540283 0.203068 -0.692117)
(0.352092 0.275677 -0.742871)
(0.751731 -0.0483688 -0.594395)
(1.00795 -0.722467 -0.0658945)
(0.555647 -1.42032 0.105414)
(0.345047 -1.5294 -0.0753856)
(0.0179087 -1.80991 0.00435219)
(-0.975601 -2.07068 0.799195)
(-1.26625 1.57421 0.0574702)
(-1.49028 1.53873 -0.00263594)
(-1.53604 1.90411 -0.0168148)
(-1.34521 1.69557 0.0135968)
(-1.68953 1.56991 0.0253212)
(-1.09108 2.23002 0.0752929)
(-0.96788 2.3173 0.277641)
(-0.704287 2.4435 0.0775936)
(-1.86419 1.61174 0.0538661)
(-1.81034 1.88059 0.0283803)
(-1.34249 2.41276 -0.129357)
(-0.900536 2.53686 0.211949)
(-1.30949 2.53719 -0.259223)
(-2.16607 1.54343 -0.167916)
(-1.43046 2.37078 0.0773703)
(-1.37814 2.37922 0.387335)
(-1.16815 2.6396 0.286741)
(-0.780935 2.75389 0.560031)
(-2.56131 1.18044 0.0595319)
(-1.87858 2.29362 0.362012)
(-1.99188 2.72894 -0.101392)
(-1.38391 3.00141 0.589445)
(-1.0536 3.13189 0.520477)
(-0.989955 3.07606 0.691575)
(-2.4419 1.82514 0.280586)
(-2.47721 2.22772 -0.342115)
(-2.12135 2.89739 0.612466)
(-1.49405 3.13149 0.443942)
(-1.17516 3.23569 0.716542)
(-0.999685 3.27464 0.879325)
(-0.742835 3.30056 0.953647)
(-3.333 1.48088 -0.0685754)
(-2.65328 2.8441 0.402624)
(-2.11642 3.19116 0.495281)
(-2.20572 3.26798 0.495569)
(-1.44726 3.8434 0.609274)
(-1.34786 3.85615 0.664107)
(-1.15788 4.11018 0.521542)
(-0.790804 4.21377 0.551202)
(-3.11994 2.16088 0.393818)
(-3.39855 2.96164 0.137413)
(-2.48213 4.06439 0.279869)
(-1.79592 4.20395 1.38267)
(-1.85546 4.25558 1.58153)
(-1.23705 4.3179 1.99374)
(-1.55373 4.10074 1.7214)
(-1.09453 4.0007 2.12835)
(-0.841285 4.13782 2.04738)
(-3.89842 1.98251 -0.152419)
(-3.66839 2.71342 0.476292)
(-2.93403 3.35956 1.86644)
(-2.07412 3.74352 1.87125)
(-2.03372 3.58813 1.99812)
(-1.08394 3.80367 2.26634)
(-1.10191 3.69301 2.13633)
(-1.13114 3.79242 2.04707)
(-1.41272 4.0746 1.92815)
(-1.04168 4.34822 2.14436)
(-3.18023 3.86426 0.806711)
(-2.36064 3.69651 1.54466)
(-1.83404 3.46909 2.26214)
(-1.33433 3.20045 2.4205)
(-1.33242 2.55469 2.28138)
(-1.00038 2.71194 1.93533)
(-1.39879 2.74242 1.55459)
(-1.31418 3.19334 1.79349)
(-1.75361 3.70784 1.94619)
(-1.43046 3.92282 2.21074)
(-1.23948 3.99537 2.33441)
(-1.97551 2.89472 0.282111)
(0.544546 2.55191 -0.199776)
(0.0642898 1.34685 1.26949)
(0.493389 1.0866 0.763109)
(-0.458324 1.20835 1.23063)
(-1.12766 1.62139 1.63703)
(-0.824755 1.81359 1.08001)
(-0.87767 2.02407 1.11492)
(-0.613005 2.63005 1.56376)
(-1.35088 2.40805 2.39055)
(-1.28562 2.65757 2.4562)
(-1.30462 2.59991 2.69979)
(-0.157037 0.660529 0.519699)
(1.27049 1.32488 -0.236951)
(0.342772 1.20939 0.21907)
(0.698617 1.25617 -0.727687)
(0.214914 1.60879 0.0731664)
(-0.771703 1.41811 0.654415)
(-0.969566 1.29075 0.688306)
(-0.576784 1.49843 0.867965)
(-0.279801 1.21331 1.07836)
(-0.421148 1.10355 1.34879)
(-0.701297 0.908882 1.82927)
(-0.816281 1.39637 1.7924)
(-1.69948 0.938685 2.13078)
(0.867002 1.27476 0.481754)
(1.0911 0.844661 -1.89015)
(-0.248808 0.211641 -1.93165)
(0.299341 1.44574 -0.561422)
(0.056634 1.48631 -0.943765)
(-0.46362 1.2352 -0.233583)
(-0.264089 0.749232 -0.493984)
(-0.0325379 0.483107 0.25159)
(0.348251 -0.235942 0.221197)
(0.332364 -0.633265 0.549144)
(-0.0457298 -0.910522 0.744423)
(-0.287446 -1.08074 0.727037)
(-0.568164 -1.19319 1.03722)
(-1.63798 -0.973503 1.55172)
(0.736374 1.42614 0.861118)
(1.09295 0.915085 -2.17832)
(1.04744 1.09186 -2.52043)
(0.675758 0.670896 -1.52902)
(1.0132 1.25364 -0.816152)
(0.0941243 0.331047 -1.49826)
(0.0884969 0.203296 -0.714558)
(0.297662 0.255374 -0.714229)
(0.759296 -0.0463437 -0.558298)
(0.985004 -0.742449 -0.0939688)
(0.515123 -1.42329 0.122209)
(0.358682 -1.53805 -0.101628)
(0.0388325 -1.8094 -0.0293748)
(-0.968265 -2.1154 0.758303)
(-1.10836 -0.989297 0.987774)
(-1.17524 1.50549 -0.0487726)
(-1.36828 1.45606 0.0830177)
(-1.1037 1.96764 -0.0462117)
(-1.14983 1.68841 0.0728373)
(-1.53991 1.49103 -0.0122925)
(-1.52385 1.80562 -0.0359617)
(-1.13976 2.14429 0.253225)
(-1.62163 1.90176 -0.00148512)
(-1.85098 1.4144 0.017018)
(-1.0889 2.2249 0.102759)
(-1.23943 2.12191 0.170461)
(-1.09291 2.31931 0.267853)
(-0.860203 2.36578 0.215056)
(-2.01263 1.45571 0.0262838)
(-2.04751 1.63086 0.0014531)
(-1.38112 2.35414 -0.0151218)
(-0.951636 2.4793 0.195328)
(-0.663299 2.59043 0.296463)
(-0.840576 2.55428 0.230172)
(-2.30432 1.33636 -0.169145)
(-1.46737 2.28875 0.198468)
(-1.63745 2.19228 0.25899)
(-1.28352 2.58226 0.228127)
(-0.96303 2.63887 0.460257)
(-0.840362 2.75955 0.484425)
(-2.66353 1.08412 0.10886)
(-2.24675 1.8066 0.272474)
(-1.90354 2.77316 -0.0775488)
(-1.4819 2.92904 0.532362)
(-1.25218 3.00513 0.455907)
(-1.19185 3.04362 0.649061)
(-0.912726 3.12543 0.737478)
(-2.63916 1.61529 0.254656)
(-2.52788 2.1789 -0.0875173)
(-2.14967 2.82115 0.696042)
(-1.7815 3.0243 0.408157)
(-1.36112 3.1919 0.687182)
(-1.11954 3.25671 0.843085)
(-1.04787 3.31467 0.896045)
(-0.886216 3.32527 0.889814)
(-3.44855 1.18208 -0.0311636)
(-2.87011 2.63268 0.565935)
(-2.4978 2.98725 0.385641)
(-2.24055 3.37663 0.613446)
(-1.75174 3.74404 0.692516)
(-1.51588 3.85579 0.652822)
(-1.39175 3.91829 0.645272)
(-1.18314 4.07456 0.545953)
(-0.856154 4.03977 0.744803)
(-3.21718 2.15763 0.301003)
(-3.56724 2.76308 -0.0431881)
(-2.75548 3.87404 0.20355)
(-1.83331 4.19933 1.29819)
(-1.88023 4.17752 1.5541)
(-1.80819 4.24172 1.77554)
(-1.57319 4.19158 1.80382)
(-1.56891 4.04177 1.79026)
(-1.0832 4.14262 1.89591)
(-1.18409 4.24996 1.60368)
(-4.13949 1.75805 -0.00840697)
(-3.25033 2.86296 1.05292)
(-2.87348 3.22748 1.63218)
(-2.29034 3.67111 1.7971)
(-2.09763 3.53674 2.05227)
(-1.6287 3.66272 2.13747)
(-1.50156 3.67521 2.15585)
(-1.40499 3.71118 2.11291)
(-1.42427 4.03509 2.01471)
(-1.13921 4.42102 2.10843)
(-0.952032 4.47801 2.18819)
(-3.07582 3.98242 0.883015)
(-2.21904 3.86929 1.58273)
(-1.75802 3.75266 2.57097)
(-1.66285 3.26305 2.21583)
(-1.39448 2.63163 2.24751)
(-1.06656 2.82637 2.05016)
(-1.44859 2.7522 1.74028)
(-1.37396 3.04936 1.84817)
(-1.14679 3.75758 2.0991)
(-1.81922 3.54924 2.56828)
(-1.30175 3.941 2.43801)
(-0.582946 3.99037 2.68458)
(-2.01665 2.8061 0.381449)
(0.40744 2.47034 -0.0398726)
(-0.25838 0.967142 1.29427)
(0.24346 1.06024 1.00201)
(-0.16128 1.3677 0.969003)
(-1.25194 1.56762 1.6383)
(-0.970602 1.79058 1.17725)
(-1.00815 1.9745 1.08076)
(-1.67787 1.93671 1.74449)
(-1.37711 2.45519 2.37469)
(-1.41592 2.65081 2.46222)
(-1.6629 2.57143 2.72393)
(-1.862 3.14828 2.41129)
(-0.161356 0.711415 0.519154)
(1.23577 1.20596 -0.312523)
(0.27636 1.17149 0.330755)
(0.570244 1.2467 -0.471225)
(0.300357 1.5431 -0.0326911)
(-0.904528 1.35092 0.742594)
(-1.02985 1.25933 0.737629)
(-0.694208 1.4681 0.87195)
(-0.482482 1.22248 1.05657)
(-0.521531 1.12163 1.33761)
(-0.833826 0.945613 1.80905)
(-0.973833 1.51351 1.73371)
(-1.8942 1.01937 2.06414)
(-1.76948 1.74434 1.9732)
(0.747876 1.32709 0.619557)
(1.07962 0.936748 -1.71828)
(-0.658433 -0.219993 -1.82892)
(0.137633 1.23691 -0.806651)
(-0.0698458 1.41102 -1.00612)
(-0.541722 1.20401 -0.121802)
(-0.289978 0.742898 -0.510634)
(-0.143049 0.421151 0.303595)
(0.312959 -0.235307 0.246773)
(0.27586 -0.644219 0.563895)
(-0.0949605 -0.912732 0.793398)
(-0.354237 -1.06294 0.734154)
(-0.606576 -1.16098 1.02799)
(-1.63843 -1.01333 1.59512)
(-1.71601 0.0387098 1.54845)
(0.689714 1.39292 0.986103)
(0.947398 0.830948 -2.0199)
(0.927923 1.02938 -2.53726)
(0.691489 0.653148 -1.37551)
(0.876182 1.15805 -0.901624)
(0.0538608 0.302557 -1.38145)
(0.111496 0.20144 -0.737013)
(0.243048 0.230819 -0.687095)
(0.779443 -0.0371429 -0.512139)
(0.960434 -0.75557 -0.143529)
(0.619573 -1.33957 0.0572106)
(0.321557 -1.52502 -0.107633)
(0.0559618 -1.82264 -0.0470508)
(-0.96189 -2.1395 0.777555)
(-1.09925 -0.991437 0.992113)
(-0.719567 -0.658242 0.608051)
(-1.00256 1.41737 -0.0450875)
(-1.25257 1.41012 -0.021745)
(-1.08045 1.80451 0.00249408)
(-1.09282 1.58632 -0.0454077)
(-1.44692 1.36519 0.116028)
(-1.18383 1.89853 -0.0578491)
(-1.029 2.06549 -0.138153)
(-0.93804 2.04142 -0.0344931)
(-1.06042 1.77121 0.0833364)
(-1.66356 1.39216 0.0164194)
(-1.65224 1.6691 -0.0658648)
(-1.16193 2.08666 0.296477)
(-0.815841 2.29246 0.116684)
(-1.04666 2.24119 0.241542)
(-1.89231 1.36939 0.0145923)
(-1.22152 2.11243 0.131422)
(-1.33564 2.09139 0.126612)
(-1.2658 2.21276 0.249913)
(-0.798053 2.46629 0.326304)
(-0.941356 2.41651 0.21599)
(-2.13075 1.31665 -0.0200459)
(-2.00398 1.6781 0.0479391)
(-1.55169 2.17001 0.0693562)
(-1.2024 2.35507 0.197717)
(-0.958448 2.46447 0.266773)
(-0.687171 2.57712 0.360194)
(-0.529045 2.60245 0.323335)
(-2.35879 1.17892 -0.162244)
(-1.55405 2.25908 0.210749)
(-1.75671 2.1045 0.216145)
(-1.43768 2.51858 0.249334)
(-1.08814 2.60891 0.391111)
(-0.994861 2.65086 0.46468)
(-0.905014 2.77552 0.541337)
(-2.76892 0.882601 0.072571)
(-2.34778 1.70008 0.225582)
(-1.84532 2.61053 0.0682831)
(-1.60191 2.77617 0.403303)
(-1.20626 2.98488 0.466075)
(-0.980632 3.06282 0.669111)
(-0.764932 3.13566 0.693603)
(-0.847348 3.08698 0.824866)
(-2.75209 1.51972 0.258225)
(-2.66231 1.99846 -0.0899522)
(-2.33667 2.49065 0.642407)
(-1.93677 2.87446 0.337999)
(-1.63724 3.08144 0.582461)
(-1.35321 3.09729 0.759675)
(-1.2058 3.22177 0.841065)
(-1.11363 3.30543 0.839084)
(-0.90223 3.34576 0.970513)
(-3.4503 1.16435 0.032684)
(-3.04588 2.41412 0.558819)
(-2.63374 2.88913 0.269989)
(-2.42102 3.30102 0.644704)
(-1.87604 3.66634 0.716307)
(-1.67503 3.87427 0.682752)
(-1.52958 3.90672 0.680471)
(-1.45461 3.98067 0.583406)
(-1.07299 3.98707 0.758882)
(-0.813547 3.84075 0.847087)
(-3.4383 1.86188 0.129045)
(-3.54261 2.71683 0.161232)
(-2.86113 3.56994 0.272581)
(-2.51439 3.63754 1.07584)
(-2.27304 3.92956 1.56546)
(-2.2273 4.16221 1.54922)
(-2.13357 4.20241 1.51484)
(-1.718 4.03692 1.84147)
(-1.35645 4.15748 1.71204)
(-1.28576 4.25697 1.61925)
(-0.810189 4.31109 1.69407)
(-4.2912 1.69634 0.147296)
(-3.20263 3.00378 1.13807)
(-2.97031 3.1599 1.17183)
(-2.5605 3.61253 1.62172)
(-2.38661 3.5342 1.98011)
(-2.01518 3.56994 2.11798)
(-1.75272 3.65755 2.20422)
(-1.69156 3.73238 2.05016)
(-1.57048 3.88696 2.15613)
(-1.21716 4.19695 2.26305)
(-1.44023 4.27129 2.1226)
(-0.993353 4.41089 2.11086)
(-3.28331 3.91762 0.955728)
(-2.60511 3.80048 1.38325)
(-2.43356 3.75098 2.43469)
(-1.99276 3.29057 2.06605)
(-1.51405 2.74777 2.17969)
(-1.57078 2.70789 1.98213)
(-1.55041 2.70683 1.95593)
(-1.68623 2.96823 1.8912)
(-1.38379 3.67169 1.96689)
(-1.90839 3.62625 2.51857)
(-1.48466 3.85468 2.45937)
(-1.40074 3.83086 2.69645)
(-1.33401 4.14229 2.27319)
(-2.13082 2.56257 0.550175)
(-0.0279928 2.26178 0.352517)
(-0.571534 0.586012 1.31996)
(-0.447955 0.657614 1.43017)
(-0.144391 1.37317 1.08641)
(-1.26463 1.55396 1.64218)
(-1.05621 1.84951 1.28542)
(-1.05613 1.9817 1.05333)
(-1.41034 2.20038 1.41933)
(-1.50676 2.30423 2.41796)
(-1.51078 2.63553 2.42477)
(-1.81197 2.55221 2.69215)
(-1.9766 3.0654 2.40402)
(-1.4632 3.20484 2.39891)
(-0.166605 0.771908 0.462947)
(1.06311 1.13421 -0.398836)
(0.244894 1.14099 0.232922)
(0.353695 1.22032 -0.116959)
(0.333841 1.44231 0.0427309)
(-1.04236 1.21917 0.829981)
(-1.08604 1.20846 0.864384)
(-0.819738 1.41263 0.87893)
(-0.572182 1.19355 1.04764)
(-0.641586 1.08148 1.31184)
(-0.96732 0.925204 1.7972)
(-1.15499 1.51837 1.73484)
(-1.98421 0.967346 2.11318)
(-1.88249 1.75902 2.00359)
(-1.53421 2.24276 1.41954)
(0.634354 1.33115 0.553659)
(0.842407 0.827384 -1.62873)
(-1.10417 -0.70713 -1.62003)
(-0.0161607 1.03252 -0.824835)
(-0.216485 1.27911 -1.03766)
(-0.654782 1.14054 -0.0445633)
(-0.337358 0.724782 -0.520625)
(-0.18784 0.377976 0.316233)
(0.274813 -0.233806 0.266351)
(0.150382 -0.664125 0.603627)
(-0.15668 -0.894248 0.842147)
(-0.380388 -1.05072 0.733766)
(-0.64277 -1.15059 1.02192)
(-1.66125 -1.0038 1.64848)
(-1.77266 0.0394301 1.54881)
(-1.51933 0.39179 1.41238)
(0.622092 1.29819 0.941965)
(0.862433 0.808321 -1.82013)
(0.788041 0.943693 -2.5405)
(0.713165 0.669501 -1.2569)
(0.7073 1.01931 -0.990491)
(0.0153614 0.271437 -1.26512)
(0.122064 0.194593 -0.759878)
(0.196557 0.204728 -0.661147)
(0.798599 -0.026319 -0.458543)
(0.952125 -0.742741 -0.132224)
(0.487405 -1.37549 0.177455)
(0.347818 -1.4928 -0.115021)
(0.0850441 -1.80603 -0.0845156)
(-0.904597 -2.1296 0.853474)
(-1.08859 -0.960081 0.994752)
(-0.722816 -0.619056 0.627769)
(-0.311572 -0.315079 0.168498)
(-0.994568 1.24085 -0.00649133)
(-1.07009 1.37185 0.00941775)
(-0.986715 1.60922 -0.0456659)
(-0.953936 1.44162 -0.03819)
(-1.40936 1.22913 0.0337542)
(-1.06623 1.80935 -0.047511)
(-0.967632 1.91565 -0.233533)
(-1.14878 1.8125 -0.0401723)
(-1.00719 1.65901 -0.0723683)
(-1.53632 1.27162 0.146922)
(-1.35362 1.70998 -0.0261816)
(-1.09715 1.99094 -0.0174703)
(-0.834133 2.15891 0.0461042)
(-0.930795 2.16716 -0.0339983)
(-0.616023 2.19258 -0.0208694)
(-1.81098 1.21506 -0.00446945)
(-1.64115 1.73236 0.00796282)
(-1.28527 1.99514 0.301098)
(-1.13582 2.10758 0.0837413)
(-0.823245 2.25796 0.239989)
(-0.774028 2.33939 0.195936)
(-1.9365 1.26294 0.0149908)
(-1.61888 1.76183 0.0880768)
(-1.60807 1.93627 0.110224)
(-1.32909 2.20853 0.236773)
(-0.912584 2.37963 0.356276)
(-0.788057 2.45855 0.511021)
(-0.85476 2.48171 0.331912)
(-2.2168 1.09859 -0.0203836)
(-2.15439 1.59067 0.00735381)
(-1.4668 2.15624 0.219267)
(-1.21416 2.35057 0.186327)
(-1.17182 2.40882 0.247777)
(-0.967926 2.46628 0.324225)
(-0.919289 2.52852 0.456076)
(-0.572637 2.59508 0.408074)
(-2.31352 1.19803 -0.262775)
(-1.87141 1.99814 0.157203)
(-1.80152 2.04966 0.18759)
(-1.62033 2.36718 0.267313)
(-1.37724 2.54205 0.324684)
(-1.0921 2.57437 0.448146)
(-0.987269 2.72141 0.573239)
(-0.979257 2.79467 0.714356)
(-2.81389 0.726386 0.102542)
(-2.43177 1.50237 0.178318)
(-2.10463 2.30239 0.0943983)
(-1.71222 2.62408 0.437716)
(-1.58087 2.81905 0.353188)
(-1.18188 2.89869 0.663246)
(-0.970505 2.97862 0.701476)