/*--------------------------------*- C++ -*----------------------------------*\
  =========                 |
  \\      /  F ield         | OpenFOAM: The Open Source CFD Toolbox
   \\    /   O peration     | Website:  https://openfoam.org
    \\  /    A nd           | Version:  7
     \\/     M anipulation  |
\*---------------------------------------------------------------------------*/
FoamFile
{
    version     2.0;
    format      ascii;
    class       volScalarField;
    location    "5";
    object      nut;
}
// * * * * * * * * * * * * * * * * * * * * * * * * * * * * * * * * * * * * * //

dimensions      [0 2 -1 0 0 0 0];

internalField   nonuniform List<scalar> 
18750
(
0.0011734
0.00236445
0.00118305
0.00160697
0.00151267
0.00229161
0.00175904
0.00112127
0.00151389
9.59312e-05
0.00261871
0.00156603
0.00503719
0.00159704
0.00158472
0.000627021
0.00100622
0.00155384
6.94021e-05
0.000446429
0.00278799
0.0026911
0.00171058
0.00155399
0.00222514
0.0016454
0.000993724
0.00134629
0.000519778
0.000625967
0.000862543
0.00167726
0.000106934
0.000435093
0.000472318
0.00314666
0.0042865
0.00265186
0.00221316
0.00345948
0.00144245
0.00179601
0.000817425
0.00075804
0.000668478
0.00108716
0.0014712
0.000397498
0.000870381
0.000597639
0.000688989
0.00167025
0.000259508
0.000418935
0.000459814
0.000181359
0.00288135
0.00272029
0.00317668
0.00466166
0.00350339
0.00138144
0.00287587
0.00429216
0.00197963
0.00148446
0.0020316
0.00148147
0.000316755
0.000435611
0.000279967
0.00125839
0.00153034
0.000427736
0.00106248
0.000636254
0.000390588
0.000509969
0.00153971
0.000412623
0.000440216
0.000435051
0.000218976
0.000384982
0.00204358
0.00278074
0.0015359
0.00310092
0.00231187
0.00190154
0.00386349
0.00480614
0.00128444
0.00122546
0.00255833
0.00173749
0.00192274
0.00146615
0.000852008
0.00205625
0.00101302
0.000826055
0.00111419
0.000420382
0.000408059
0.00131089
0.000854565
0.000478019
0.000915937
0.000640545
0.000387492
0.000361381
0.000388317
0.00129371
0.000531336
0.000346939
0.000401448
0.000268892
0.000345187
0.000377344
0.00226512
0.00209095
0.000915684
0.00291248
0.00124482
0.00129651
0.00277028
0.00108004
0.00150452
0.0015512
0.0021081
0.00244049
0.0012197
0.001331
0.000785739
0.00242141
0.00255643
0.00117567
0.00135394
0.00142843
0.000547273
0.0014758
0.00133758
0.000840673
0.00108907
0.000491874
0.000486884
0.00063456
0.00134126
0.000725973
0.00068478
0.00102841
0.000608293
0.000330244
0.000340293
0.000336191
0.000347684
0.00103244
0.000631479
0.000378364
0.000363126
0.000291923
0.00030646
0.000242427
0.00039154
0.00218316
0.00238019
0.000700714
0.00206901
0.000958293
0.000928615
0.00284922
0.00150549
0.0015386
0.00136081
0.00274229
0.00104674
0.00182976
0.00120809
0.000470642
0.00270015
0.00136082
0.00178915
0.000738956
0.00162175
0.000628812
0.00216574
0.00145385
0.000540509
0.00136876
0.000787291
0.000959197
0.000693957
0.00120763
0.00113905
0.000421609
0.000941336
0.000679435
0.000403021
0.000705726
0.000817532
0.00134765
0.0010604
0.00101825
0.00111169
0.000567384
0.000283605
0.000346215
0.000371274
0.000536492
0.000321792
0.00069693
0.000614827
0.000420434
0.000321804
0.000293305
0.000280241
0.000134326
0.00019814
0.000455595
0.00218297
0.00212394
0.0005762
0.00232266
0.000642223
0.000866036
0.00219034
0.00100452
0.000854242
0.000531298
0.00305264
0.00145363
0.00155268
0.00125708
0.00143045
0.00262892
0.00105045
0.00203736
0.00153841
0.00162106
0.000756087
0.00279074
0.000806038
0.00193735
0.000901105
0.00144466
0.000790416
0.000716387
0.00270711
0.000601719
0.000725412
0.00094101
0.000918923
0.00175189
0.00111981
0.000793056
0.00114177
0.000961247
0.000469867
0.000702004
0.000589435
0.000617508
0.000506626
0.000566576
0.000448391
0.00117501
0.00111173
0.000993886
0.00117203
0.000554535
0.000292675
0.000374688
0.000396627
0.000418064
0.000240783
0.000302539
0.000521172
0.00063383
0.000329142
0.000198979
0.000254032
0.000261724
7.68507e-05
0.000123704
0.000379835
0.000340208
0.00210895
0.00218194
0.00090141
0.00219896
0.000788658
0.00076953
0.00249419
0.000997511
0.000980802
0.000805219
0.002337
0.000988156
0.000828441
0.000863662
0.000814558
0.00299439
0.00117642
0.00128566
0.00088878
0.000770002
0.00132242
0.00278251
0.000513364
0.000939748
0.000833586
0.000893059
0.000802076
0.000525431
0.0022865
0.00109242
0.000751435
0.00048387
0.000706229
0.00126799
0.000689267
0.000567378
0.00203474
0.000945047
0.000940881
0.000727239
0.000623648
0.00149191
0.00180481
0.00165598
0.0010178
0.0013846
0.000934759
0.000598647
0.000598438
0.000579717
0.000712491
0.000473512
0.000472497
0.000580244
0.000747543
0.00098752
0.000929905
0.00127758
0.00124275
0.000556747
0.000315949
0.000416783
0.000388285
0.000322605
0.000279645
0.000270037
0.000303144
0.000546574
0.000612797
0.000320526
0.000224945
0.000117058
0.000253626
8.55903e-05
0.000179817
0.000298869
0.000320621
0.000644688
0.0020178
0.00208712
0.000496906
0.00219895
0.00227488
0.000789027
0.000579217
0.00241186
0.000977777
0.00054106
0.000352716
0.00244898
0.00087786
0.000401085
0.000742806
0.000719453
0.00243374
0.000992366
0.000923162
0.000901545
0.00046983
0.000666341
0.00309908
0.00122792
0.00139852
0.001113
0.000768244
0.00123814
0.000684142
0.00284727
0.000884129
0.000480589
0.000528952
0.00058953
0.00105936
0.000839089
0.00063583
0.00188991
0.000751889
0.000601944
0.000862999
0.000507078
0.0010418
0.000788775
0.00067754
0.00080115
0.00294774
0.00104142
0.0013994
0.000780928
0.000387848
0.00108935
0.000699354
0.00122441
0.000520678
0.000605651
0.00172144
0.00154374
0.000634011
0.000837056
0.000518262
0.000770691
0.000488796
0.000540533
0.000415913
0.000686752
0.000593795
0.000913216
0.000665225
0.00143269
0.00123815
0.000536069
0.000338528
0.000466941
0.00035853
0.000372358
0.00041917
0.00038935
0.000603993
0.00032202
0.000475551
0.000474783
0.000352967
0.000310369
0.000112468
0.000247721
0.00011453
0.000233965
0.00028241
0.000315152
0.000611291
0.000549468
0.00203152
0.00206121
0.000489276
0.0021608
0.00209
0.000675639
0.000519205
0.00046477
0.0022404
0.000731848
0.000605881
0.0004687
0.00244811
0.00101952
0.000262603
0.000507954
0.000408835
0.00235661
0.000491817
0.00058723
0.000682134
0.000281988
0.00073186
0.00233495
0.000826292
0.00110322
0.000819097
0.000589564
0.000737001
0.000791311
0.00286497
0.00136255
0.00106178
0.00118044
0.000847741
0.000829147
0.00131714
0.000806241
0.00274028
0.0010311
0.000612522
0.00108248
0.000566571
0.000963706
0.0010654
0.000887248
0.000871084
0.00256953
0.000848382
0.000521107
0.000608204
0.00100666
0.000298244
0.000456653
0.00100188
0.000305997
0.00123922
0.00140538
0.00113427
0.000822239
0.000834849
0.000312318
0.000498648
0.000401552
0.000320545
0.000594619
0.000837088
0.000800444
0.00142069
0.00217713
0.000753165
0.000976135
0.000553463
0.000672719
0.000546763
0.000399308
0.000555811
0.00100667
0.000652998
0.00102111
0.000724597
0.000668121
0.0015129
0.0014111
0.000549676
0.000500323
0.000434638
0.000373744
0.000489768
0.000597775
0.000522725
0.000602758
0.000619458
0.000335495
0.000449707
0.000480268
0.000524086
0.000307851
0.000184283
0.000227861
0.000107374
0.000313246
0.000303463
0.000319357
0.000577045
0.000472298
0.000321806
0.00202204
0.00201421
0.000498421
0.0021566
0.00214887
0.000413839
0.000381858
0.00049987
0.00206906
0.000640275
0.000478128
0.000413038
0.000461862
0.00220694
0.000687542
0.000754069
0.000574519
0.000502376
0.00237426
0.000812178
0.000733335
0.00060588
0.000281802
0.000659512
0.00225399
0.000611452
0.000771279
0.0005264
0.000394369
0.000659992
0.000284626
0.0025977
0.000518684
0.000618687
0.000614722
0.000477874
0.000667542
0.000452127
0.000740524
0.00309263
0.00085674
0.000528901
0.000844134
0.000594208
0.000675147
0.000546397
0.00114524
0.000398268
0.00286711
0.000379471
0.000737507
0.00113681
0.000607624
0.000773434
0.000327772
0.00131546
0.000580889
0.000909029
0.00246382
0.00122013
0.000914874
0.000514029
0.000823136
0.000902543
0.00064078
0.000483664
0.00122877
0.000765135
0.000719604
0.00191646
0.00199242
0.000671064
0.00122001
0.000315801
0.000541165
0.000526559
0.000325277
0.000587093
0.000373082
0.000882003
0.00163523
0.00116174
0.00240079
0.000824078
0.000900376
0.000624833
0.000649437
0.000415506
0.000369582
0.000503796
0.000734869
0.000735202
0.000826981
0.000917012
0.00072064
0.000719321
0.00141404
0.00111061
0.000571433
0.00058672
0.000346796
0.000395488
0.000499324
0.000814382
0.000568945
0.000570046
0.000896773
0.000544224
0.000321283
0.000418495
0.000449615
0.000576521
0.000251729
0.000234223
0.000125983
0.000104074
0.0004037
0.000301407
0.000331749
0.000554847
0.000331632
0.000229185
0.000370579
0.00214708
0.00202143
0.000348039
0.00216444
0.00194987
0.000305415
0.000324339
0.000608263
0.00204879
0.000488011
0.00033825
0.000491557
0.000551433
0.00215541
0.000628854
0.000441337
0.000399134
0.000492392
0.000591369
0.00230511
0.000733306
0.000638454
0.000449928
0.000617523
0.000343151
0.00243333
0.000703107
0.00087784
0.000595075
0.000597681
0.000419463
0.000636143
0.00259686
0.000703565
0.000616144
0.000514299
0.000591295
0.000458976
0.000455405
0.000415231
0.00253489
0.00157919
0.00040697
0.00058165
0.000671203
0.000398547
0.000311318
0.000359268
0.000538407
0.00307527
0.00154075
0.00101643
0.000696542
0.0011
0.000626986
0.000897025
0.000653028
0.000723154
0.000696033
0.00250927
0.000637315
0.000852421
0.000674431
0.000645986
0.000482982
0.000735241
0.000622213
0.0008744
0.000543531
0.000803071
0.00277235
0.00137959
0.000776222
0.000501457
0.000643042
0.000857852
0.000478908
0.000732129
0.00100071
0.000761244
0.000649844
0.00036134
0.0021896
0.0022519
0.00073379
0.00132137
0.000520329
0.000543171
0.000606997
0.000479255
0.000236533
0.000665051
0.000670213
0.00126773
0.000853327
0.00112507
0.00155233
0.00141826
0.00100116
0.000637385
0.000495449
0.000380669
0.000442955
0.000287329
0.000952059
0.000527073
0.000553305
0.000583406
0.00111183
0.00102032
0.000697131
0.000993396
0.000505315
0.000666733
0.000468188
0.00031559
0.000414944
0.000493215
0.00115821
0.000561115
0.000582308
0.00115648
0.00080425
0.000722836
0.000318138
0.000388999
0.000332075
0.000407694
0.000133877
0.000241654
7.21963e-05
0.000104223
0.000463847
0.000342531
0.000317928
0.000514411
0.000356381
0.000224781
0.000381865
0.000556647
0.00219591
0.00206031
0.000368186
0.00230865
0.00203543
0.000404999
0.000164507
0.000535277
0.00217305
0.00199496
0.000371713
0.000355908
0.000420932
0.000447725
0.00209712
0.000471953
0.000510064
0.000296335
0.000319851
0.000409682
0.0021611
0.000523317
0.00045422
0.00057125
0.000453733
0.000361591
0.000382882
0.00218994
0.000697294
0.000706265
0.000596487
0.000578967
0.000515118
0.000398641
0.00241192
0.000781926
0.000786936
0.000548414
0.000595218
0.000561951
0.000674799
0.000993653
0.0022618
0.00120883
0.000720519
0.000573931
0.00074455
0.000389133
0.000939995
0.00061649
0.000310643
0.00256488
0.00138252
0.000991545
0.000689952
0.00100335
0.000725156
0.00104562
0.000586426
0.000575178
0.000453529
0.00278258
0.000890804
0.00100517
0.000554571
0.000883301
0.00103968
0.00109798
0.000714188
0.00106966
0.000612631
0.000879679
0.00266101
0.000905429
0.00114492
0.000848739
0.000950672
0.000920067
0.000919869
0.00079868
0.000812192
0.000773036
0.000472566
0.000480074
0.00310739
0.0013861
0.000982693
0.000542221
0.00203827
0.000996838
0.000912104
0.000554948
0.000769391
0.000810727
0.000180365
0.000415033
0.000853846
0.00172275
0.00173616
0.000941839
0.000995419
0.00111179
0.000658159
0.000318518
0.000452884
0.000253202
0.000306713
0.000721831
0.000754589
0.00123902
0.000639986
0.000914696
0.000556093
0.00242198
0.00115795
0.00069557
0.00044549
0.000294823
0.000528353
0.000688237
0.000669822
0.000548921
0.000571205
0.000378006
0.00075242
0.000677134
0.00119634
0.000773056
0.000543335
0.000723692
0.000793003
0.000476854
0.000385579
0.00039246
0.000503739
0.000969886
0.000297089
0.000614733
0.00118085
0.00089799
0.00100503
0.000525928
0.000337291
0.000354175
0.000247493
0.000353835
2.68137e-05
0.000237104
9.34326e-05
0.000160754
0.000469295
0.000347615
0.000314984
0.000448395
0.000462771
0.000311413
0.00037057
0.000592667
0.000347101
0.00215711
0.00211906
0.000553361
0.00229631
0.00203617
0.00034391
0.000312529
0.000486072
0.00226047
0.00202643
0.00044742
0.000325376
0.000140716
0.000361036
0.000436869
0.00203424
0.000434992
0.000352195
0.000191873
0.000516291
0.000505613
0.00206265
0.00056804
0.000484849
0.000321249
0.000349355
0.000309248
0.000294016
0.00218617
0.000679937
0.000578501
0.000303662
0.000244656
0.000347732
0.00051794
0.000364003
0.00221815
0.000721889
0.000536855
0.000214498
0.00051189
0.00048215
0.000651414
0.00082248
0.00248606
0.000715866
0.000524142
0.000395228
0.000580973
0.000504311
0.000564599
0.00070415
0.000793522
0.00265393
0.000495284
0.000713681
0.000501157
0.000437747
0.000586461
0.000387019
0.000487574
0.00054707
0.000451391
0.00278041
0.000432248
0.000808531
0.00111307
0.000661307
0.00075367
0.000773585
0.000719143
0.000542569
0.000447715
0.000283664
0.00288741
0.00117403
0.000625187
0.000649802
0.000258177
0.000758402
0.000932624
0.00115135
0.000655468
0.000386987
0.000222153
0.000760911
0.00284157
0.00112698
0.00054753
0.00106548
0.00102208
0.000906602
0.000686165
0.00106789
0.000794437
0.000401152
0.000475995
0.000625503
0.000279521
0.00233881
0.00155149
0.00105498
0.000349901
0.00089256
0.000646815
0.00126215
0.000768387
0.000543979
0.000532163
0.000381554
0.000372759
0.000432999
0.000456397
0.00181666
0.00165151
0.00124512
0.00108429
0.000460467
0.00057476
0.000615057
0.000391141
0.000404216
0.000344322
0.000488182
0.000759559
0.00127487
0.000971949
0.0012278
0.00100789
0.00104671
0.00189353
0.00109048
0.000909715
0.000573188
0.000231877
0.000566312
0.000441905
0.000522713
0.000899186
0.000977898
0.000573732
0.000639375
0.000927331
0.00140647
0.00122829
0.000771774
0.000617412
0.000747542
0.000823467
0.000441084
0.000390501
0.000425388
0.000510475
0.000412079
0.00025762
0.00059062
0.000614032
0.000946811
0.000941672
0.000504045
0.000541114
0.000342387
0.000317694
0.000370925
0.000289852
0.000142011
0.000223971
0.000125761
0.000210273
0.000463155
0.000366453
0.000385837
0.000300718
0.000529684
0.00033976
0.000333244
0.000572387
0.000354528
0.000420429
0.00200334
0.00221959
0.000461234
0.00222953
0.00209828
0.000541073
0.000316467
0.000457637
0.00219511
0.00207508
0.000429588
0.000288479
0.000292102
0.000283853
0.000527789
0.00206131
0.000347044
0.000352964
0.00020333
0.000216155
0.00023278
0.000229675
0.0019911
0.000427619
0.000317312
0.000300456
0.000374156
0.000301344
0.000322556
0.00210817
0.00060639
0.000494501
0.00035246
0.000483848
0.000256671
0.000323632
0.000237104
0.00227776
0.00069883
0.000585265
0.000267759
0.000462964
0.000373153
0.000600882
0.000415268
0.000371207
0.0022692
0.000590032
0.000440859
0.000623828
0.000408935
0.000466798
0.000647556
0.000356688
0.000979031
0.00230371
0.000738535
0.000577574
0.000516976
0.000437753
0.000563673
0.000630798
0.000383485
0.000961614
0.000766766
0.00231878
0.00110022
0.00049661
0.000515067
0.000324464
0.000640307
0.000588267
0.00044643
0.000455639
0.000513272
0.000556005
0.00259599
0.00146076
0.000830027
0.000683334
0.000536061
0.000776035
0.000734562
0.000569459
0.000365072
0.000424304
0.000839096
0.000666407
0.00283707
0.00128046
0.00130783
0.000821516
0.0011602
0.00051112
0.000909235
0.000425048
0.000882217
0.000774264
0.00038166
0.000388314
0.000326158
0.00295046
0.00138392
0.000380145
0.000671419
0.00109952
0.000959856
0.000634036
0.000533881
0.000880671
0.000828226
0.000820765
0.000301215
0.000830918
0.000462175
0.00295914
0.00105047
0.000762345
0.000584721
0.00183468
0.000675986
0.000947472
0.00103259
0.000490733
0.000561709
0.000394848
0.000448924
0.00054565
0.000217151
0.000377515
0.00184295
0.00210345
0.00176904
0.000426846
0.000950492
0.000997476
0.00119185
0.000651024
0.0004276
0.000629559
0.000720239
0.000986321
0.000996935
0.00109935
0.000787484
0.000711104
0.00103127
0.00165889
0.000827464
0.00113679
0.00174251
0.000759358
0.000446866
0.000530214
0.000720641
0.000728553
0.000617723
0.000773044
0.00123191
0.00047418
0.00107179
0.00130974
0.00082483
0.00116801
0.000709748
0.000318887
0.000527725
0.000755251
0.000459399
0.000385454
0.000477113
0.000465945
0.000470578
0.000254438
0.000549333
0.000722839
0.000697413
0.000466205
0.000575264
0.000534286
0.000395393
0.000341552
0.000282901
0.000461974
0.000336663
0.000123075
0.000209217
0.000195101
0.000220991
0.000460532
0.000365348
0.000462112
0.000365343
0.000528722
0.00032416
0.000290568
0.000515742
0.000352941
0.000365351
8.92458e-05
0.00181713
0.00191779
0.000481134
0.00213579
0.00218688
0.000477401
0.00039401
0.000376543
0.00218051
0.00216263
0.00040614
0.000394247
0.000270152
0.000141171
0.000420937
0.0021015
0.000361031
0.000272229
0.000305498
0.00040036
0.000333573
0.000318295
0.00208479
0.000452116
0.000324596
0.00036015
0.000202199
0.000213732
0.000441175
0.000343659
0.00198874
0.000396338
0.000323821
0.000343277
0.000411974
0.000410763
0.000468803
0.00037565
0.00212914
0.000637522
0.000489756
0.000680155
0.000274016
0.000438728
0.000374825
0.000420837
0.000361975
0.0022389
0.000764779
0.000525907
0.000694392
0.000357728
0.000447219
0.000293997
0.000450789
0.00064947
0.000447254
0.00226338
0.000667072
0.000583136
0.000497054
0.000520374
0.000495256
0.000417921
0.000780786
0.000310972
0.00066969
0.00254183
0.000831601
0.000610722
0.000451896
0.000559239
0.000578053
0.000652643
0.00081839
0.000374421
0.000564624
0.00044487
0.00268141
0.000874446
0.000681258
0.00055578
0.00106867
0.000561249
0.000631441
0.000761464
0.00044003
0.000525583
0.000448104
0.000701906
0.00298338
0.00139701
0.00137221
0.000929414
0.00130396
0.000813707
0.000513523
0.000664729
0.000812134
0.000639895
0.000575711
0.000284821
0.000288102
0.00320476
0.00149629
0.00130489
0.00111441
0.000849605
0.0010807
0.000917684
0.000493781
0.000578362
0.000831558
0.000915902
0.000262858
0.000361902
0.000464471
0.002719
0.00179164
0.000703965
0.000476993
0.000782946
0.000935177
0.000875067
0.00104691
0.000234462
0.000758366
0.000411363
0.000767863
0.000635343
0.000234821
0.000375624
0.00291051
0.00182909
0.000589553
0.000568803
0.000583528
0.000594885
0.000263111
0.000615758
0.000698206
0.000262946
0.00031703
0.000528909
0.000843821
0.000532313
0.000448575
0.00063781
0.00220278
0.00246654
0.00173554
0.000556374
0.00107089
0.00129234
0.00136331
0.00145282
0.000531891
0.000430132
0.000739802
0.000844235
0.000616695
0.00106626
0.000896149
0.000844735
0.000964842
0.00105485
0.000782592
0.000629576
0.00161465
0.00196267
0.000872939
0.000605925
0.000711437
0.000751116
0.000673758
0.00061269
0.00111836
0.00110808
0.00151683
0.001547
0.00116803
0.000806038
0.000465133
0.00113337
0.000603662
0.000333921
0.000860883
0.000708396
0.00047678
0.000419591
0.000442411
0.000496257
0.000574002
0.000315013
0.00045515
0.000777207
0.000325795
0.000214462
0.000588142
0.000497583
0.000446216
0.000311756
0.000351152
0.000257534
0.000511415
0.000352364
6.81218e-05
0.000199696
0.000260643
0.000233268
0.000450046
0.000344018
0.000500946
0.000542385
0.000513129
0.000315838
0.000251788
0.000433947
0.00033785
0.000283083
0.000146141
0.000227637
0.0019457
0.00184333
0.000353926
0.002025
0.00206845
0.000670956
0.000530665
0.000571707
0.00210363
0.00223201
0.000561099
0.000403505
0.00031736
0.00041021
0.000541939
0.00216548
0.000392916
0.000361444
0.000191828
0.00040509
0.000300259
0.000189742
0.00213631
0.00042484
0.000413544
0.000267079
0.000428548
0.000550595
0.000367013
0.000280357
0.0021489
0.000408858
0.000323621
0.000380888
0.000332442
0.000345727
0.000440873
0.000218741
0.000244432
0.00211235
0.000477809
0.000365705
0.000406801
0.000451851
0.000436868
0.000421339
0.000250155
0.000272373
0.00219416
0.000693122
0.000322873
0.000601753
0.00057952
0.000417424
0.000472939
0.000481731
0.000437955
0.00046354
0.00223057
0.000791573
0.000567215
0.000615807
0.000785444
0.000423348
0.000472596
0.000528628
0.000392019
0.000846965
0.000531491
0.0024466
0.000692819
0.000573427
0.000330579
0.000501379
0.000603951
0.000457077
0.000606064
0.000601188
0.000614448
0.000622879
0.00267447
0.000580837
0.000698482
0.000500484
0.000493315
0.000554705
0.00047851
0.000715509
0.000715452
0.000636042
0.000660328
0.000459684
0.00267466
0.00075277
0.000600882
0.000960464
0.000644735
0.000716014
0.00050811
0.000600353
0.000661701
0.000621169
0.000500701
0.000450647
0.000400088
0.00286431
0.00124721
0.000833473
0.00121638
0.000810091
0.000911032
0.000848748
0.00110621
0.000544351
0.000582073
0.00057274
0.000505319
0.0004447
0.000321082
0.00290638
0.00195897
0.00152495
0.000675079
0.000563444
0.000773305
0.00077217
0.00146715
0.000330666
0.000532849
0.000650172
0.000926545
0.000454105
0.000489206
0.000802575
0.003026
0.00089773
0.00114476
0.000578822
0.00100347
0.000673173
0.00101569
0.000897076
0.000969395
0.000636032
0.000454466
0.000824692
0.000688259
0.000890614
0.000720645
0.00032214
0.00303609
0.00198462
0.000920587
0.000294295
0.000610101
0.000968004
0.00106038
0.000172599
0.000671815
0.000180402
0.000430301
0.000588047
0.000882979
0.000984502
0.000594292
0.000354889
0.000735129
0.00194923
0.00312294
0.00135309
0.00125756
0.000802118
0.000610197
0.00103215
0.00134938
0.00100539
0.000717723
0.000580761
0.000822204
0.000751112
0.00131589
0.00106877
0.00180273
0.000689854
0.000700098
0.00099519
0.000649325
0.000604873
0.00176209
0.00116762
0.000792059
0.000794899
0.000922355
0.000947701
0.000701844
0.000420191
0.00128056
0.000609329
0.00174469
0.00212765
0.00117808
0.000912038
0.00045067
0.000468203
0.000957182
0.000563618
0.000337433
0.000908758
0.000635628
0.000503825
0.00041691
0.000412604
0.000537114
0.000733725
0.000420718
0.000350387
0.000607952
0.000312251
0.000423949
0.0005003
0.000397292
0.000431687
0.000380099
0.000336287
0.000373649
0.000239967
0.000490816
0.00031455
0.000122095
0.000202988
0.000334207
0.000236816
0.000422708
0.000308731
0.00051691
0.000650958
0.000517619
0.000305799
0.000230252
0.000332826
0.000298782
0.000357983
0.000229092
0.000237963
0.000152949
0.00193419
0.00188502
0.000312306
0.00210143
0.00187708
0.000445452
0.000267734
0.00034686
0.0020577
0.00203957
0.000646027
0.000365798
4.167e-05
0.0005092
0.000212098
0.00221891
0.00037578
0.000346139
0.000290493
0.000428777
0.000354548
0.000309624
0.00221842
0.000375018
0.000291384
0.00035693
0.000402381
0.000458583
0.000572019
0.00027744
0.00212955
0.000351849
0.000236286
0.00038168
0.000562756
0.000526684
0.000352386
0.00047556
0.00026405
0.00212021
0.000536678
0.000239247
0.000561018
0.000293517
0.00034675
0.000400111
0.000371845
0.000380097
0.00042149
0.00212442
0.000537317
0.000352604
0.000517826
0.000403928
0.000236571
0.000486827
0.000379412
0.000381487
0.000446917
0.00222084
0.000588703
0.000586574
0.000580826
0.000858286
0.000540121
0.000473479
0.00046139
0.000649807
0.00044007
0.000622811
0.00231726
0.0006101
0.000624082
0.000673398
0.000568664
0.000618934
0.00058383
0.000401071
0.000677547
0.000563035
0.000546949
0.000660543
0.00228423
0.000866403
0.000593267
0.000560723
0.000453976
0.000556761
0.000573429
0.000490708
0.000745401
0.000658919
0.000610171
0.000522509
0.00242048
0.00106306
0.000640161
0.000423365
0.000541845
0.00060879
0.000627576
0.000524436
0.000653767
0.000653218
0.000811226
0.000617132
0.000957546
0.00232702
0.000929942
0.0006679
0.000598108
0.000725086
0.00081363
0.000672439
0.000525286
0.00043357
0.000437464
0.000467509
0.000936268
0.000999386
0.000492363
0.00296829
0.00117288
0.000938555
0.00151395
0.00156601
0.000772005
0.000724479
0.000718611
0.000702259
0.000489634
0.000436574
0.000974893
0.000842799
0.000394725
0.000637327
0.00274253
0.000786608
0.000896981
0.00158492
0.00146664
0.00059086
0.000457284
0.000745182
0.00128529
0.000611913
0.000375173
0.000582443
0.000815255
0.000564582
0.000612005
0.000802982
0.00310083
0.00159457
0.000786246
0.000886451
0.000640786
0.000953613
0.00112094
0.000252457
0.00104648
0.000771369
0.000889338
0.000536137
0.000804163
0.000698089
0.00047799
0.000390025
0.00053024
0.00285314
0.00173557
0.00177116
0.000614283
0.000418878
0.00156523
0.000857041
0.000711221
0.000592806
0.000399933
0.000476933
0.00049206
0.000791281
0.000762846
0.000497277
0.000653252
0.000694312
0.000795684
0.00200021
0.00167044
0.00117361
0.00175143
0.000563921
0.00048895
0.000384183
0.000498963
0.000764842
0.000744636
0.000855424
0.000839277
0.000804703
0.00166365
0.0022187
0.00143511
0.000931395
0.000876218
0.000400797
0.000818197
0.00100514
0.000829118
0.00103094
0.000555439
0.000759272
0.00104431
0.000921197
0.0010358
0.000831428
0.000567148
0.000626188
0.0012239
0.0012243
0.00164894
0.00144797
0.00100079
0.000433517
0.000423961
0.000487955
0.000854998
0.000566199
0.000457771
0.000665262
0.000467966
0.000514917
0.000498196
0.000376396
0.000503463
0.000762845
0.000445577
0.000381996
0.000558925
0.000260149
0.00047468
0.000401463
0.000297777
0.000409293
0.000345948
0.000319487
0.000220776
0.000367988
0.000231086
0.000440435
0.000285459
0.000140889
0.000214833
0.000405542
0.000238517
0.000381425
0.00025912
0.000517045
0.000691147
0.000514654
0.000294471
0.000219059
0.000273453
0.000271554
0.000384557
0.000300689
0.000262342
0.000135307
0.000453923
0.00204339
0.00191988
0.00033294
0.00211365
0.00192408
0.000260028
0.00032342
0.000330232
0.00212153
0.00186812
0.000228489
0.000466038
0.000375704
0.000427431
0.000284309
0.00210794
0.000456119
0.000460624
0.000441037
0.000485245
0.000317143
0.000346574
0.00218196
0.000372769
0.000169736
0.000480415
0.000324018
0.000533676
0.000393007
0.000504083
0.00224059
0.000261984
0.000392971
0.000355706
0.000483689
0.000393621
0.00028774
0.000590075
0.000571356
0.00214384
0.000408564
0.000247018
0.000382829
0.00051208
0.000508332
0.000305634
0.000340188
0.000541134
0.000226343
0.00213541
0.000484041
0.000433933
0.000463911
0.00042663
0.000359023
0.000479515
0.000371083
0.000366563
0.000211189
0.000375806
0.00211531
0.000416849
0.000488257
0.000495488
0.000411388
0.000299825
0.00039236
0.000301743
0.000528882
0.00055674
0.000382019
0.00231158
0.000684294
0.000591193
0.000504092
0.000549296
0.00045451
0.000375533
0.000453923
0.000573922
0.000411416
0.000209994
0.000677944
0.00232332
0.000746433
0.000585606
0.000614346
0.000717118
0.000523703
0.000794728
0.000490309
0.000539189
0.00040115
0.000449909
0.000502072
0.000733274
0.0024536
0.00065776
0.000428643
0.000647723
0.000721697
0.000424827
0.000741397
0.00063583
0.00041718
0.000412753
0.000625141
0.000603813
0.000470002
0.00267912
0.000770642
0.000546302
0.000637548
0.000723892
0.000716351
0.000598228
0.000667375
0.000592152
0.000583654
0.000474369
0.000582205
0.000448107
0.000593777
0.00261366
0.00101741
0.000777843
0.000644762
0.000766191
0.000849667
0.000639479
0.000701735
0.000583768
0.000520995
0.000462259
0.000416113
0.000655845
0.000558245
0.000332388
0.00294367
0.00185893
0.000983255
0.000956644
0.000857825
0.0013208
0.00101541
0.000647643
0.000822302
0.000420707
0.000525118
0.00043061
0.000543257
0.000518092
0.000520602
0.000485448
0.00303465
0.000752052
0.0013373
0.00142651
0.00119095
0.00106113
0.00112173
0.000336214
0.00109699
0.00048964
0.000819453
0.000178416
0.000532975
0.000294067
0.000668932
0.000666391
0.000483717
0.00305838
0.00160843
0.00159712
0.000568942
0.000471836
0.000568881
0.000694007
0.000842732
0.000462887
0.00030752
0.000821439
0.000623411
0.000831282
0.000650535
0.000898527
0.000604188
0.000684512
0.000501711
0.00280917
0.00151588
0.00198524
0.000594619
0.000293312
0.00103805
0.000742611
0.00119606
0.000213904
0.000788003
0.000644896
0.00042286
0.000929294
0.000694594
0.0010097
0.00203942
0.000833654
0.000268426
0.000506062
0.00228642
0.00191038
0.00113839
0.000548636
0.000990973
0.00152619
0.00154198
0.000836166
0.000908114
0.000765593
0.000863169
0.000927556
0.000810979
0.00163872
0.00319759
0.00172627
0.00182048
0.000352273
0.000416536
0.000593516
0.000958656
0.00101728
0.000851944
0.000781512
0.000724982
0.000584941
0.000556594
0.000855708
0.00110791
0.00100997
0.000681175
0.00171875
0.00137581
0.00143699
0.00138512
0.00137843
0.000938008
0.000467793
0.000444022
0.00060495
0.000801157
0.00080631
0.000604948
0.000565807
0.000304205
0.000331427
0.000471115
0.000572845
0.000495548
0.000466538
0.000690192
0.000368932
0.000527242
0.000480403
0.000333458
0.000359117
0.000404007
0.000280277
0.000340831
0.000347032
0.000270488
0.000187385
0.000310527
0.000359161
0.000231982
0.000398038
0.000224922
0.000122023
0.000217409
0.000470214
0.000243787
0.000326515
0.000192031
0.000510295
0.000689037
0.000520506
0.000296553
0.00021308
0.000253712
0.000220055
0.000363329
0.000331401
0.000282842
0.00013046
0.00043325
0.000156369
0.00190462
0.00200489
0.000376693
0.00214633
0.00193289
0.000343242
0.000367161
0.00028202
0.00213133
0.00192125
0.00035549
0.000477346
0.000481449
0.000188248
0.00034149
0.001924
0.000366997
0.000519164
0.000619181
0.000455136
0.000241924
0.000493859
0.00208096
0.000490739
0.000247168
0.000593364
0.0004384
0.000125746
0.000599104
0.000323741
0.00224362
0.000509986
0.000449131
0.00069157
0.000499469
0.000435764
0.000319806
0.000331854
0.000500265
0.00224934
0.000296485
0.000360883
0.000331689
0.000411006
0.000565506
0.000420818
0.000302013
0.000387595
0.00050254
0.00222825
0.000424264
0.000141601
0.00036545
0.000617256
0.000436895
0.000216233
0.000344837
0.000441299
0.000550114
0.000492757
0.00216149
0.000462725
0.000328129
0.000355242
0.000759614
0.000435459
0.000272021
0.00034316
0.000553076
0.000419697
0.000397065
0.000330462
0.00212697
0.000544866
0.000352329
0.000378762
0.000560957
0.000398658
0.000574716
0.000384957
0.00037064
0.000406146
0.000300105
0.000441124
0.00231719
0.000717741
0.000405861
0.000476338
0.000402214
0.000386619
0.000586118
0.00052001
0.000494428
0.000551788
0.000458604
0.00037789
0.000570123
0.00221501
0.000604218
0.000590274
0.000388012
0.000523593
0.000515785
0.000456855
0.000690236
0.000809636
0.000529067
0.000737232
0.000464263
0.000440578
0.000543607
0.00231549
0.000455372
0.000558007
0.000479833
0.000528404
0.000494627
0.000457664
0.000683206
0.000677493
0.000487601