/*--------------------------------*- C++ -*----------------------------------*\
  =========                 |
  \\      /  F ield         | OpenFOAM: The Open Source CFD Toolbox
   \\    /   O peration     | Website:  https://openfoam.org
    \\  /    A nd           | Version:  7
     \\/     M anipulation  |
\*---------------------------------------------------------------------------*/
FoamFile
{
    version     2.0;
    format      ascii;
    class       volScalarField;
    location    "5";
    object      p;
}
// * * * * * * * * * * * * * * * * * * * * * * * * * * * * * * * * * * * * * //

dimensions      [0 2 -2 0 0 0 0];

internalField   nonuniform List<scalar> 
18750
(
-73.4769
-71.8195
-73.7164
-73.6154
-67.7544
-72.2037
-72.5264
-74.0306
-73.8113
-76.5061
-70.022
-69.064
-67.9279
-72.6678
-72.9853
-74.5934
-74.3541
-74.1017
-76.4726
-76.371
-65.821
-70.7998
-74.9199
-70.6581
-68.5628
-73.1194
-73.1221
-73.3599
-74.6678
-75.1613
-74.6382
-74.5399
-76.4396
-76.3991
-76.3501
-65.6492
-65.6553
-73.8377
-71.0303
-76.8638
-73.4817
-71.7673
-70.0191
-73.5414
-74.6555
-73.4506
-73.7775
-74.7601
-75.2445
-75.6844
-74.8658
-75.0713
-76.4254
-76.4335
-76.3864
-76.9549
-60.4589
-66.3546
-65.4771
-65.1191
-75.6426
-71.4591
-71.3503
-77.245
-74.2923
-73.3965
-72.728
-71.3916
-74.0515
-74.9676
-76.3276
-73.6779
-74.1673
-74.8382
-75.3491
-75.7966
-76.7911
-75.0315
-75.6012
-76.4343
-76.4689
-76.4312
-76.9848
-77.0982
-60.3258
-60.4527
-60.1581
-66.1175
-66.8388
-66.1689
-65.4421
-75.3842
-72.3798
-71.6331
-71.708
-76.5308
-74.5236
-73.3315
-74.794
-73.3339
-72.4123
-74.526
-75.1354
-76.5653
-77.0205
-73.7482
-74.5301
-74.9116
-75.4378
-75.9053
-76.8464
-77.2239
-75.1417
-76.0499
-76.4755
-76.5153
-76.4834
-77.0159
-77.1244
-76.9159
-58.845
-60.3975
-60.3045
-60.5615
-60.333
-60.8964
-66.3077
-67.6436
-67.3676
-66.3696
-66.8728
-73.3663
-73.1235
-72.2451
-70.8858
-71.9106
-75.5278
-74.558
-73.2727
-74.5397
-74.8871
-73.8012
-73.0446
-74.7716
-75.4528
-76.7154
-77.219
-77.2845
-73.8337
-74.8966
-75.0164
-75.4765
-76.0222
-76.9517
-77.2601
-76.926
-75.212
-76.3877
-76.5526
-76.5766
-76.5425
-77.0481
-77.1461
-76.9375
-76.7769
-57.7695
-58.8181
-58.8754
-60.3767
-60.3235
-60.3253
-60.5825
-60.7909
-61.012
-61.7705
-65.8709
-67.7208
-67.7318
-66.9622
-67.0129
-67.2234
-71.8414
-73.5366
-72.1986
-70.7611
-70.598
-72.1042
-74.3076
-74.6117
-73.3307
-74.5098
-75.1196
-75.1582
-74.06
-73.4893
-75.1068
-75.7603
-76.7887
-77.3645
-77.3741
-76.6305
-73.8561
-75.2259
-75.1849
-75.578
-76.1286
-77.046
-77.2958
-76.9461
-76.7273
-75.2595
-76.6418
-76.6505
-76.6198
-76.6028
-77.0789
-77.1634
-76.9516
-76.8047
-76.8693
-56.9913
-57.8284
-57.7736
-58.8232
-58.9019
-58.8334
-60.2416
-60.3983
-60.2866
-60.4704
-60.5985
-60.9438
-60.983
-61.3088
-61.757
-65.6
-67.1745
-67.9869
-67.5772
-67.1411
-66.0204
-67.1699
-71.118
-72.9841
-72.323
-70.815
-70.5584
-70.5421
-71.8783
-73.8844
-74.3492
-73.3237
-74.4395
-75.1641
-75.5249
-75.0267
-73.7231
-73.8432
-75.4402
-75.6521
-76.8907
-77.3157
-77.4811
-76.7336
-76.1337
-73.8777
-75.4753
-75.4195
-75.7085
-76.237
-77.1091
-77.3197
-76.9592
-76.7349
-76.7241
-75.2971
-76.7799
-76.7086
-76.6165
-76.6648
-77.1031
-77.1759
-76.9617
-76.8224
-76.9101
-76.501
-56.4387
-57.0429
-56.9955
-57.8507
-57.8435
-57.6677
-58.7868
-58.8503
-58.7073
-58.8323
-60.2216
-60.3641
-60.3846
-60.5184
-60.5945
-60.7953
-61.1418
-60.9526
-61.6283
-62.1902
-62.2942
-65.3539
-67.0379
-68.0852
-67.4657
-66.6551
-66.361
-65.7029
-67.0643
-70.5912
-72.1845
-72.5291
-71.3146
-70.6236
-70.9509
-70.8381
-71.3937
-73.3492
-73.9898
-73.232
-74.378
-75.0527
-75.6408
-75.3505
-74.6063
-73.3839
-74.0134
-75.711
-75.7322
-76.8975
-77.2645
-77.4022
-76.7674
-76.1071
-75.47
-73.9116
-75.6567
-75.6338
-75.8552
-76.3396
-77.1732
-77.3544
-76.9595
-76.7324
-76.8677
-76.3587
-75.3342
-76.8354
-76.7664
-76.6082
-76.7334
-77.122
-77.1836
-76.9693
-76.8379
-76.9472
-76.5401
-76.4488
-55.9834
-56.3875
-56.4896
-56.4355
-56.9235
-57.0039
-56.9573
-57.7113
-57.7
-57.7645
-57.8231
-58.7361
-58.672
-58.8456
-58.91
-59.0088
-59.9693
-60.413
-60.683
-60.7393
-60.7541
-60.6455
-61.0339
-61.4581
-61.212
-61.659
-62.4352
-62.2872
-62.4331
-65.1226
-67.0763
-67.8478
-67.7048
-66.8222
-66.6438
-66.0884
-65.6576
-67.1899
-70.0911
-71.371
-72.593
-71.8046
-71.056
-71.0927
-71.2709
-70.7288
-70.8496
-72.5095
-73.4671
-73.142
-74.3517
-74.8146
-75.5492
-75.3034
-74.6346
-74.1926
-73.3509
-74.1549
-76.0711
-75.9092
-76.8962
-77.2706
-77.4085
-76.7253
-76.1079
-75.4794
-75.3691
-73.9649
-75.763
-75.8289
-76.026
-76.442
-77.2366
-77.3973
-76.9669
-76.7287
-77.0005
-76.4372
-76.233
-75.3826
-76.8777
-76.8657
-76.6399
-76.8062
-77.1418
-77.1864
-76.9748
-76.8532
-76.9737
-76.5793
-76.4841
-76.4005
-55.6578
-55.9777
-56.0026
-56.0018
-56.3388
-56.445
-56.444
-56.5033
-56.9159
-56.8552
-57.0569
-57.0302
-57.6698
-57.7265
-57.8644
-57.869
-57.9106
-58.6542
-58.7902
-58.9
-58.7767
-59.0658
-59.0468
-59.9594
-60.3776
-60.7217
-60.9366
-60.8901
-60.791
-60.819
-61.3507
-61.5898
-61.5919
-61.7585
-62.3561
-62.5057
-62.4045
-62.6387
-65.3301
-66.7143
-67.4821
-67.6758
-67.2436
-66.6577
-66.3811
-65.977
-65.87
-67.8031
-70.0358
-70.6692
-72.1647
-71.9785
-71.464
-71.4527
-71.1512
-70.982
-70.8061
-70.2373
-72.0478
-73.3764
-73.0868
-74.2301
-74.771
-75.3758
-75.0186
-74.5803
-74.0577
-73.4231
-73.2248
-74.338
-76.138
-75.9567
-77.0237
-77.2937
-77.402
-76.7683
-76.1098
-75.5764
-75.4885
-75.1506
-74.0107
-75.8068
-76.0473
-76.2096
-76.5366
-77.2763
-77.4046
-76.9671
-76.7266
-77.1308
-76.5168
-76.3099
-76.2248
-75.4582
-76.9156
-76.9513
-76.6906
-76.8546
-77.1633
-77.1855
-76.98
-76.8663
-77.0002
-76.6172
-76.5184
-76.4349
-76.4038
-55.3427
-55.6534
-55.664
-55.6255
-55.9332
-55.9595
-55.9946
-56.0717
-56.3722
-56.4222
-56.4083
-56.458
-56.4506
-56.9415
-56.9307
-57.0284
-56.9629
-57.1399
-57.6661
-57.7655
-57.863
-57.8217
-57.9658
-57.9793
-58.7902
-58.7281
-58.9252
-58.954
-59.0738
-59.1385
-59.3797
-59.8549
-60.3806
-60.8024
-61.0604
-60.9634
-60.8929
-60.809
-60.8965
-61.4942
-61.9322
-62.0296
-61.8599
-62.4868
-62.5552
-63.106
-62.6363
-62.8747
-65.0963
-66.6891
-67.2126
-67.5947
-67.42
-66.8012
-66.2717
-66.2066
-66.0956
-65.9791
-67.6309
-69.9061
-70.2144
-71.8534
-71.9543
-71.7526
-71.3083
-71.2834
-71.1319
-70.7384
-70.572
-70.4847
-72.4554
-73.2637
-73.0497
-74.1867
-74.7036
-75.2652
-74.8943
-74.3448
-73.9609
-73.305
-73.178
-73.2974
-74.6087
-76.1217
-76.1489
-77.1734
-77.3999
-77.3274
-76.7809
-76.1286
-75.7949
-75.5113
-75.2228
-74.8731
-74.0785
-75.8438
-76.3085
-76.431
-76.6342
-77.3489
-77.405
-76.9637
-76.7177
-77.2307
-76.5955
-76.391
-76.3573
-76.3459
-75.5729
-76.9531
-77.0205
-76.7323
-76.9155
-77.1848
-77.1831
-76.9876
-76.8783
-77.0268
-76.6538
-76.5523
-76.4592
-76.4309
-76.3943
-55.0215
-55.3167
-55.3633
-55.3588
-55.6164
-55.6636
-55.6738
-55.6263
-55.9366
-55.9524
-55.9677
-55.9836
-55.9831
-56.3598
-56.4174
-56.3874
-56.4149
-56.4224
-56.4985
-56.9146
-56.9175
-56.9965
-56.9871
-57.0446
-57.1509
-57.6168
-57.7059
-57.8175
-57.8789
-57.9758
-58.063
-58.2233
-58.7272
-58.7543
-58.9605
-58.9544
-59.1099
-59.1265
-59.2706
-59.5165
-59.9234
-60.2094
-61.0353
-61.2542
-61.126
-61.0365
-60.9449
-60.9165
-61.1251
-61.6031
-61.659
-62.3472
-62.2814
-62.48
-62.8295
-62.9132
-63.1678
-62.9969
-63.142
-64.5301
-66.9368
-66.9551
-67.3031
-67.5939
-66.9385
-66.4216
-66.2603
-66.1149
-66.0947
-66.2611
-66.9284
-70.0866
-70.037
-71.582
-71.8463
-71.8865
-71.3595
-71.1173
-70.9635
-70.7479
-70.2589
-70.3183
-70.1145
-73.3126
-72.7966
-73.0749
-74.1238
-74.6186
-75.1501
-74.7649
-74.2786
-73.7368
-73.4221
-72.3743
-72.6469
-73.5147
-74.9753
-76.3255
-76.4204
-77.2734
-77.5066
-77.2135
-76.7583
-76.2044
-75.9044
-75.6466
-75.4131
-75.1948
-74.9726
-74.1652
-75.9379
-76.6043
-76.6218
-76.7451
-77.4659
-77.4032
-76.9557
-76.7198
-77.3339
-76.6458
-76.4687
-76.4782
-76.4902
-76.5194
-75.6772
-76.9929
-77.0888
-76.7854
-76.9652
-77.2074
-77.179
-76.9938
-76.8891
-77.0428
-76.6889
-76.5852
-76.4772
-76.4608
-76.4238
-76.4377
-54.9866
-55.0008
-55.0592
-55.0136
-55.2506
-55.3505
-55.3634
-55.3278
-55.4296
-55.5989
-55.6116
-55.6377
-55.6118
-55.6597
-55.885
-55.9638
-55.9425
-55.9941
-55.9736
-55.9989
-56.3493
-56.4082
-56.3822
-56.4702
-56.4225
-56.5353
-56.4947
-56.9059
-56.9513
-56.9488
-57.0189
-57.0384
-57.1652
-57.2367
-57.5892
-57.6943
-57.8157
-57.8742
-57.9725
-58.0161
-58.1131
-58.2783
-58.9868
-58.4463
-59.118
-59.0856
-59.1009
-59.1692
-59.2469
-59.0897
-59.7307
-60.078
-60.1912
-61.0185
-61.1567
-61.1704
-60.9759
-61.1158
-61.0571
-61.0828
-61.3429
-62.0437
-62.4102
-62.5428
-62.71
-62.6702
-62.7098
-62.732
-62.9545
-63.0971
-63.2774
-63.412
-64.8566
-67.3797
-66.6119
-67.0652
-67.6108
-67.1898
-66.6961
-66.4041
-66.2659
-65.9881
-66.1651
-66.1883
-66.8076
-70.2529
-70.103
-71.3315
-71.5823
-72.0474
-71.5453
-71.0491
-70.8454
-70.7061
-70.2516
-70.5317
-69.6754
-70.5725
-74.1921
-73.0097
-73.4065
-74.1911
-74.502
-75.0025
-74.5929
-74.2333
-73.6693
-73.3399
-72.4158
-72.854
-72.522
-73.8233
-75.1363
-76.3558
-76.6117
-77.475
-77.6411
-77.1932
-76.7711
-76.2699
-75.7423
-75.7814
-75.5019
-75.464
-75.3446
-75.4313
-74.2633
-76.0176
-76.7656
-76.7121
-76.8648
-77.5384
-77.3884
-76.9343
-76.7617
-77.4195
-76.688
-76.5463
-76.5703
-76.6262
-76.6414
-76.604
-75.7267
-77.0371
-77.1676
-76.8623
-77.0047
-77.2287
-77.1754
-76.9903
-76.9017
-77.0585
-76.7297
-76.6154
-76.4935
-76.4877
-76.4496
-76.4769
-76.5714
-54.6401
-54.9804
-54.9727
-54.9459
-54.9712
-54.9977
-55.091
-55.0959
-55.0111
-55.2321
-55.2592
-55.3411
-55.3635
-55.357
-55.4354
-55.5462
-55.5767
-55.6145
-55.6809
-55.6229
-55.6603
-55.8854
-55.8732
-55.9477
-56.0093
-56.0478
-56.097
-56.0419
-56.3145
-56.3913
-56.3742
-56.4662
-56.4533
-56.5365
-56.5977
-56.5843
-56.9648
-56.9708
-56.9717
-57.2289
-57.0377
-57.1057
-57.2031
-57.0536
-57.6695
-57.6957
-57.8854
-57.8963
-58.0073
-57.9993
-58.0687
-58.1721
-58.3984
-58.9054
-59.0478
-59.0507
-59.0835
-59.1139
-59.0975
-59.2964
-59.1925
-59.34
-59.7487
-59.9474
-60.5051
-60.8109
-61.0902
-61.209
-60.882
-60.9853
-61.1094
-61.0496
-61.4006
-61.5883
-62.3516
-62.5798
-63.0871
-63.0552
-63.1278
-62.9155
-62.9329
-62.9986
-63.234
-63.3968
-63.5875
-63.6719
-64.9923
-67.5173
-66.875
-66.7075
-67.6342
-67.2947
-66.842
-66.656
-66.46
-66.1304
-66.1914
-66.2372
-66.4818
-66.8909
-70.3905
-70.1858
-71.2196
-71.3969
-72.1616
-71.6408
-71.1569
-70.7669
-70.6382
-70.368
-70.2211
-70.0332
-70.0884
-71.1498
-74.6613
-73.5386
-73.8426
-74.7175
-74.6678
-74.8986
-74.4522
-74.0945
-73.5928
-73.312
-72.7691
-72.6287
-72.5991
-72.7772
-74.0413
-75.0614
-76.4234
-76.8305
-77.6287
-77.8254
-77.1652
-76.7602
-76.3661
-75.9141
-75.9013
-75.6113
-75.6237
-75.6696
-75.6107
-76.1015
-74.3667
-76.0723
-76.8058
-76.8622
-76.9957
-77.591
-77.364
-76.905
-76.782
-77.4657
-76.7363
-76.6163
-76.6451
-76.7604
-76.7294
-76.6311
-76.431
-75.7759
-77.0862
-77.2658
-76.9416
-77.0376
-77.2475
-77.174
-76.981
-76.9187
-77.0689
-76.7751
-76.6415
-76.5132
-76.5101
-76.4694
-76.5097
-76.5965
-76.6312
-54.4358
-54.6046
-54.7051
-54.6622
-54.9547
-54.9612
-54.9059
-54.9406
-54.9116
-54.9633
-55.0036
-55.0582
-55.0922
-55.1103
-55.0532
-55.2041
-55.2402
-55.3173
-55.35
-55.3859
-55.3465
-55.3967
-55.5044
-55.522
-55.5714
-55.6277
-55.6171
-55.6602
-55.6697
-55.8483
-55.8582
-55.9051
-55.9093
-55.9977
-56.0546
-56.1478
-56.0941
-56.3147
-56.3449
-56.3383
-56.3977
-56.4501
-56.5534
-56.5117
-56.635
-56.627
-56.9794
-57.0031
-57.1348
-57.1246
-57.0727
-57.0644
-57.1828
-57.4925
-57.0366
-57.7002
-57.7873
-57.8629
-57.8897
-57.968
-58.032
-58.0519
-58.1384
-58.4748
-58.5183
-58.951
-58.8623
-59.1809
-59.1902
-59.1258
-59.2122
-59.397
-59.4778
-59.5579
-59.7033
-59.7968
-59.9231
-60.2763
-60.8749
-61.0257
-61.2068
-60.956
-60.7336
-61.0899
-61.2501
-61.4343
-61.6179
-61.6277
-62.4052
-62.5425
-63.0082
-63.6042
-63.1115
-63.2518
-63.1924
-63.1752
-63.3879
-63.4538
-63.6317
-63.8154
-63.8182
-64.5595
-67.715
-66.9443
-66.8349
-67.4691
-67.3918
-67.0026
-66.9963
-66.3941
-66.2557
-66.1391
-66.2882
-66.4776
-66.7491
-66.7341
-70.5389
-70.4223
-70.9646
-71.2109
-71.8871
-71.5972
-71.2021
-71.0182
-70.4669
-70.3552
-70.2202
-69.9967
-70.3252
-70.4414
-71.4549
-74.3554
-73.9655
-74.0411
-74.8293
-74.9082
-74.89
-74.338
-74.015
-73.4682
-73.3999
-73.0039
-72.9234
-72.8795
-73.2009
-75.007
-74.1803
-74.7996
-76.5948
-77.1526
-77.7461
-77.9887
-77.1191
-76.7135
-76.4246
-76.0948
-76.0454
-75.7781
-75.9887
-75.9959
-75.7909
-76.0864
-76.986
-74.4825
-76.1274
-76.8588
-77.0329
-77.1618
-77.642
-77.3438
-76.8836
-76.8271
-77.4776
-76.7821
-76.6741
-76.7233
-76.8505
-76.7994
-76.6548
-76.479
-76.4941
-75.8581
-77.1345
-77.3704
-77.0205
-77.0757
-77.2637
-77.1746
-76.9759
-76.9377
-77.0784
-76.8197
-76.6669
-76.5347
-76.5313
-76.4848
-76.535
-76.6188
-76.6652
-76.7784
-54.336
-54.3794
-54.4938
-54.4849
-54.5923
-54.6936
-54.6946
-54.6165
-54.658
-54.9015
-54.945
-54.8846
-54.8934
-54.9029
-54.9029
-54.9689
-54.9975
-55.0018
-55.0139
-55.0396
-55.0352
-55.0748
-55.1845
-55.2142
-55.2412
-55.2733
-55.3402
-55.3888
-55.3522
-55.3466
-55.5251
-55.5226
-55.547
-55.5157
-55.6106
-55.6373
-55.698
-55.7031
-55.8787
-55.825
-55.8243
-55.8616
-55.951
-56.0109
-56.1327
-56.1843
-56.118
-56.3079
-56.3313
-56.3286
-56.3343
-56.4378
-56.4944
-56.579
-56.7002
-56.6934
-56.6979
-56.9213
-57.0165
-57.1084
-57.0439
-57.0833
-57.1525
-57.2342
-57.2422
-57.615
-57.2696
-57.4645
-57.7766
-57.8848
-57.9583
-57.9964
-58.0082
-58.1219
-58.1346
-58.3866
-58.4909
-58.6337
-58.8522
-58.7238
-59.1041
-59.1698
-59.1657
-59.2617
-59.3117
-59.414
-59.7437
-59.7722
-59.8257
-60.0638
-59.8013
-60.0182
-60.572
-61.0875
-61.2428
-61.0415
-60.9274
-60.8958
-61.2541
-61.4005
-61.6863
-61.8155
-62.1936
-62.1499
-62.4298
-63.2549
-63.3439
-63.0382
-63.3096
-63.39
-63.443
-63.3805
-63.3414
-63.6406
-63.9664
-63.8598
-64.086
-65.0516
-67.0436
-67.1563
-67.2934
-67.1428
-67.2978
-67.226
-66.6364
-66.7415
-66.3664
-66.2122
-66.1529
-66.522
-66.8846
-67.2759
-66.8973
-70.7096
-70.7944
-71.1551
-71.1689
-71.7949
-71.5345
-71.1522
-71.0761
-70.5159
-70.4694
-70.2252
-70.0517
-70.5026
-70.7371
-71.2326
-71.6138
-74.0909
-74.3956
-74.2721
-74.7947
-75.129
-74.8539
-74.3019
-74.039
-73.5485
-73.5345
-73.2737
-73.3391
-73.0174
-73.6764
-75.296
-76.5487
-74.4455
-75.1574
-76.7413
-77.3238
-77.9828
-78.0744
-77.1018
-76.6601
-76.308
-76.2048
-76.2349
-75.8885
-76.1883
-76.3864
-76.0207
-76.0858
-76.9766
-76.6449
-74.6024
-76.1917
-76.9778
-77.2582
-77.3809
-77.7011
-77.3288
-76.8813
-76.8904
-77.4845
-76.8222
-76.7106
-76.7787
-76.9039
-76.8545
-76.6871
-76.5348
-76.5512
-76.6116
-75.9514
-77.1785
-77.4718
-77.1017
-77.1172
-77.2778
-77.1786
-76.9755
-76.9582
-77.09
-76.8605
-76.6944
-76.5564
-76.5519
-76.4984
-76.5533
-76.6383
-76.7026
-76.8033
-76.7417
-54.1871
-54.2826
-54.37
-54.3565
-54.3725
-54.3778
-54.4488
-54.4865
-54.5079
-54.5688
-54.5983
-54.6136
-54.7028
-54.6607
-54.5996
-54.8869
-54.8731
-54.8502
-54.9151
-54.8176
-54.8825
-54.9115
-54.9496
-54.9227
-54.9982
-54.9796
-55.0246
-55.0078
-55.0707
-55.107
-55.172
-55.1926
-55.2142
-55.2602
-55.3036
-55.314
-55.4181
-55.3627
-55.4124
-55.4951
-55.4284
-55.5099
-55.4932
-55.5626
-55.6057
-55.6867
-55.8266
-55.7891
-55.8505
-55.7926
-55.8286
-55.8273
-55.9214
-55.9966
-56.0666
-56.1424
-56.2665
-56.112
-56.2633
-56.347
-56.3002
-56.3013
-56.4045
-56.4212
-56.5614
-56.6243
-56.7513
-56.8142
-56.8208
-56.8241
-57.0122
-57.1092
-57.0911
-57.0913
-57.1224
-57.163
-57.3084
-57.4415
-57.4722
-57.6264
-57.4692
-57.7246
-57.7994
-57.8972
-57.9409
-57.9134
-58.0756
-58.1499
-58.2971
-58.4683
-58.6423
-58.9206
-58.8821
-58.7828
-59.1497
-58.949
-59.2106
-59.1884
-59.3322
-59.5281
-59.4419
-59.7859
-60.0018
-60.02
-60.2762
-59.8799
-59.8434
-60.4324
-60.9364
-60.9388
-61.146
-61.0312
-60.9128
-61.2596
-61.4351
-61.6555
-62.0288
-61.9824
-62.369
-62.2377
-62.7195
-63.2949
-64.128
-64.02
-63.3549
-63.4162
-63.5646
-63.6179
-63.472
-63.7016
-63.7031
-63.9663
-64.1732
-64.5725
-65.4272
-67.3667
-67.3891
-67.2112
-66.9318
-67.3183
-67.2985
-66.8462
-66.6711
-66.7063
-66.4361
-66.3449
-66.6804
-66.9531
-67.3622
-68.0821
-66.9866
-70.0167
-71.3705
-71.4089
-71.2568
-71.798
-71.6024
-71.2198
-71.0746
-70.6139
-70.5589
-70.3444
-70.2273
-70.5742
-70.964
-71.6783
-72.3333
-71.8715
-74.1108
-74.8679
-74.6875
-74.987
-75.3152
-74.8805
-74.2851
-73.8862
-73.6466
-73.6828
-73.6594
-73.7614
-73.2149
-74.0331
-75.4513
-76.5747
-77.2647
-74.7918
-75.5597
-76.9205
-77.4728
-78.2847
-78.161
-77.1402
-76.6554
-76.3679
-76.3518
-76.5363
-76.0629
-76.3216
-76.5331
-76.1234
-76.1743
-76.9425
-76.6217
-76.4521
-74.8176
-76.2888
-77.1615
-77.5135
-77.6393
-77.7739
-77.3333
-76.8854
-76.9727
-77.5094
-76.8752
-76.7509
-76.8221
-76.9375
-76.8478
-76.7339
-76.5973
-76.5919
-76.6373
-76.4518
-76.0496
-77.2175
-77.5661
-77.1778
-77.1522
-77.2894
-77.1852
-76.9801
-76.9805
-77.1036
-76.8958
-76.7299
-76.5786
-76.5714
-76.5036
-76.5652
-76.6562
-76.7364
-76.8337
-76.777
-76.7295
-54.0827
-54.1664
-54.1746
-54.2209
-54.2748
-54.29
-54.3491
-54.3971
-54.3696
-54.3667
-54.3303
-54.4098
-54.5562
-54.4692
-54.4955
-54.5317
-54.5382
-54.6289
-54.7384
-54.7089
-54.7028
-54.7029
-54.8276
-54.846
-54.8013
-54.8351
-54.8191
-54.8765
-54.8294
-54.8879
-54.9289
-54.9387
-54.9329
-55.002
-54.9705
-55.0185
-55.1088
-55.0118
-55.1382
-55.1635
-55.1392
-55.2105
-55.2364
-55.2498
-55.3145
-55.351
-55.475
-55.4465
-55.401
-55.4365
-55.4394
-55.5044
-55.4072
-55.5831
-55.5873
-55.6442
-55.7434
-55.9207
-55.8098
-55.8115
-55.7706
-55.7978
-55.7816
-55.819
-55.9453
-56.056
-56.1639
-56.2223
-56.4066
-56.2315
-56.2464
-56.2879
-56.2811
-56.2932
-56.2955
-56.3473
-56.505
-56.5979
-56.7172
-56.8273
-57.0588
-56.9147
-56.9911
-56.9319
-57.0584
-57.0653
-57.0553
-57.0399
-57.1985
-57.3851
-57.2763
-57.5475
-57.68
-57.857
-57.6584
-57.6752
-57.8011
-57.8487
-57.8613
-57.8933
-57.9378
-58.1381
-58.4434
-58.4667
-58.5808
-58.8539
-58.9533
-59.2362
-58.8222
-59.2089
-59.2337
-59.1951
-59.1633
-59.2956
-59.4859
-59.7177
-59.8058
-60.0685
-59.8746
-60.3846
-60.5089
-60.2079
-60.7625
-60.4572
-60.9476
-60.7662
-60.9247
-60.9809
-61.2963
-61.2819
-61.5212
-61.6347
-62.1669
-62.0087
-62.3616
-62.7094
-62.2951
-63.1195
-64.2936
-64.4425
-64.7484
-64.1572
-63.774
-63.5805
-63.5272
-63.6781
-63.7423
-63.6771
-63.9709
-64.2269
-64.6704
-65.0115
-64.6876
-67.1978
-67.6575
-67.5167
-67.1361
-67.1774
-66.9432
-67.0756
-66.8337
-66.7722
-66.5328
-66.5748
-66.6859
-67.0591
-67.6408
-68.2362
-68.6315
-66.7925
-69.0533
-71.7019
-71.5985
-71.3318
-71.7778
-71.782
-71.3074
-71.1487
-70.7938
-70.6857
-70.5905
-70.5154
-70.996
-71.3944
-71.8141
-72.8122
-74.0562
-72.2652
-74.6912
-75.1663
-75.2309
-75.3233
-75.6291
-74.9721
-74.4301
-73.9529
-73.7385
-73.9396
-74.0742
-74.2607
-73.5473
-74.4773
-75.7872
-76.6014
-77.3444
-77.3382
-75.0875
-75.5052
-77.1783
-77.7778
-78.7166
-78.3865
-77.254
-76.6302
-76.5977
-76.5873
-76.8142
-76.3917
-76.5593
-76.5998
-76.2351
-76.2504
-76.931
-76.5767
-76.3971
-75.8139
-75.0919
-76.3926
-77.3428
-77.6997
-77.9026
-77.8581
-77.3571
-76.8958
-77.0824
-77.5656
-76.9421
-76.7832
-76.8487
-76.96
-76.8613
-76.7858
-76.6576
-76.6345
-76.649
-76.4923
-76.4692
-76.1512
-77.2536
-77.639
-77.2476
-77.1852
-77.2956
-77.1938
-76.9879
-77.0031
-77.1172
-76.932
-76.7702
-76.6001
-76.5879
-76.5162
-76.5726
-76.6697
-76.7645
-76.8654
-76.8128
-76.7471
-76.3753
-53.9671
-54.0528
-54.0873
-54.1016
-54.1157
-54.1786
-54.2163
-54.225
-54.2265
-54.2527
-54.3087
-54.308
-54.3935
-54.3508
-54.431
-54.3223
-54.3287
-54.3764
-54.5211
-54.5136
-54.5229
-54.5153
-54.492
-54.5697
-54.6118
-54.6836
-54.6782
-54.6972
-54.6663
-54.6602
-54.8129
-54.8277
-54.7736
-54.8155
-54.7344
-54.8643
-54.8969
-54.8782
-54.893
-54.9143
-54.918
-54.9681
-54.928
-54.9427
-54.9986
-55.0472
-55.1722
-55.0917
-55.1892
-55.1371
-55.1692
-55.2062
-55.1369
-55.2161
-55.2873
-55.344
-55.451
-55.5335
-55.534
-55.4653
-55.4473
-55.4524
-55.4901
-55.3878
-55.3757
-55.5605
-55.624
-55.7383
-55.7758
-55.9772
-55.8905
-55.8016
-55.7193
-55.7518
-55.7922
-55.7412
-55.8472
-56.0302
-56.0882
-56.2751
-56.3809
-56.5945
-56.3196
-56.2652
-56.2462
-56.305
-56.313
-56.3338
-56.3018
-56.4284
-56.5684
-56.7587
-56.8392
-56.997
-57.1657
-57.0146
-57.0496
-56.9262
-57.0677
-57.0341
-57.0516
-57.0498
-57.1579
-57.3196
-57.5174
-57.51
-57.6062
-57.8832
-58.1042
-57.7399
-57.6445
-57.8369
-57.9121
-57.8732
-57.7713
-57.9412
-58.062
-58.2277
-58.4849
-58.6426
-58.8366
-59.1616
-59.3753
-59.2166
-58.8291
-59.2497
-59.1519
-59.1587
-59.3518
-59.2859
-59.4958
-59.7321
-59.8951
-60.0975
-60.4093
-60.2995
-60.605
-60.8181
-60.1236
-60.5436
-60.4742
-61.1842
-61.5428
-60.8634
-61.0088
-61.2106
-61.4061
-61.4578
-61.6562
-61.9306
-62.2921
-62.4218
-62.6618
-62.9335
-62.0404
-63.132
-64.3798
-63.9313
-63.8956
-64.3027
-64.1436
-63.899
-63.6241
-63.8094
-63.7738
-64.0397
-64.1008
-64.4607
-64.8458
-65.1696
-65.5273
-64.4034
-66.8169
-67.8721
-67.9787
-67.6279
-67.3877
-66.9794
-67.312
-67.1173
-66.9837
-67.02
-66.7628
-66.7742
-67.2853
-67.4862
-68.3254
-68.7223
-68.8035
-66.8893
-68.9727
-71.9372
-72.0103
-71.692
-71.8512
-71.7803
-71.4316
-71.1912
-71.0251
-70.3484
-70.682
-70.9615
-71.5067
-71.9452
-72.0552
-73.2776
-74.4026
-74.0811
-72.4042
-74.6488
-75.567
-75.7373
-75.9175
-76.1103
-75.1241
-74.5538
-73.9969
-73.9582
-74.2952
-74.4766
-74.7736
-74.1695
-75.0006
-76.3301
-76.7732
-77.467
-77.1202
-75.0066
-75.3038
-75.4985
-77.4132
-78.2371
-79.2294
-78.5982
-77.4131
-76.7059
-76.7987
-76.9354
-77.1227
-76.594
-76.7629
-76.6874
-76.4046
-76.3381
-76.9772
-76.5177
-76.3121
-75.7371
-75.4602
-75.3718
-76.4772
-77.5156
-77.8759
-78.112
-77.9426
-77.391
-76.9196
-77.2241
-77.6521
-77.0146
-76.794
-76.878
-76.9642
-76.8808
-76.8359
-76.6978
-76.6506
-76.6584
-76.5393
-76.4853
-76.0499
-76.25
-77.2909
-77.7079
-77.2824
-77.2219
-77.2996
-77.2037
-76.9956
-77.0248
-77.1248
-76.9699
-76.8113
-76.6306
-76.6041
-76.5295
-76.5802
-76.6802
-76.7889
-76.8984
-76.8485
-76.7634
-76.4048
-75.9438
-53.8907
-53.9738
-53.964
-53.9907
-54.0269
-54.04
-54.0693
-54.1128
-54.101
-54.0928
-54.1408
-54.1652
-54.1755
-54.2491
-54.2714
-54.2224
-54.2463
-54.2641
-54.3412
-54.4294
-54.4452
-54.36
-54.3058
-54.3567
-54.4113
-54.4435
-54.4885
-54.6492
-54.5152
-54.4889
-54.4657
-54.4771
-54.5593
-54.5533
-54.6334
-54.6589
-54.6782
-54.7262
-54.6566
-54.7352
-54.8029
-54.7555
-54.7455
-54.7532
-54.8033
-54.8402
-54.9848
-54.9139
-54.909
-54.864
-54.906
-54.988
-54.928
-54.9188
-55.0073
-55.0705
-55.16
-55.2196
-55.1818
-55.177
-55.1275
-55.214
-55.1574
-55.135
-55.1942
-55.2484
-55.3433
-55.4277
-55.4822
-55.6072
-55.5759
-55.4785
-55.4359
-55.4576
-55.4923
-55.4077
-55.4016
-55.5362
-55.5532
-55.6868
-55.7602
-55.9295
-56.2116
-55.9644
-55.7482
-55.6634
-55.7909
-55.8077
-55.8052
-55.8377
-55.87
-56.0853
-56.2199
-56.3605
-56.4899
-56.6753
-56.4663
-56.2603
-56.2807
-56.3563
-56.2934
-56.3085
-56.3405
-56.4173
-56.4638
-56.6072
-56.8545
-57.0204
-57.2092
-57.4071
-57.2018
-57.0423
-57.0286
-57.0556
-57.02
-57.0475
-57.0662
-57.128
-57.1871
-57.5448
-57.5853
-57.656
-57.9023
-58.1379
-58.3332
-57.687
-57.654
-57.7571
-57.9033
-57.9883
-58.0726
-57.953
-58.2357
-58.2357
-58.3893
-58.6274
-58.9294
-59.2119
-59.45
-59.6096
-59.0654
-58.5694
-59.1985
-59.056
-59.245
-59.2368
-59.376
-59.507
-59.6714
-59.9077
-60.1078
-60.403
-60.4714
-60.6854
-60.8298
-61.1819
-60.277
-60.4864
-60.4079
-61.2114
-61.6184
-61.5381
-61.4073
-61.1533
-61.2453
-61.5185
-61.7664
-61.9633
-62.3419
-62.5548
-62.4899
-62.9951
-63.3422
-62.281
-63.3823
-63.9452
-64.229
-64.2398
-64.0578
-64.1486
-64.1288
-63.8905
-63.9379
-63.3136
-64.1478
-64.3535
-64.5829
-65.0739
-65.3623
-65.5814
-66.0339
-64.6065
-66.1929
-67.85
-68.2545
-67.6888
-67.796
-67.3186
-67.32
-67.316
-67.1504
-67.2026
-66.968
-66.8439
-67.4846
-67.6509
-68.2227
-68.7716
-68.8528
-69.0833
-67.0391
-69.4625
-71.7348
-72.3129
-72.2063
-72.0802
-71.6974
-71.6683
-71.1792
-71.2005
-70.5419
-70.6825
-71.1973
-71.9391
-72.953
-73.7499
-73.9857
-74.6024
-74.0726
-73.2351
-72.5213
-74.1655
-75.8546
-76.5334
-76.3924
-76.2047
-75.4675
-74.5592
-74.071
-74.1871
-74.7326
-74.892
-75.2095
-75.2038
-75.7197
-76.6716
-77.0389
-77.3564
-76.9364
-74.9307
-74.4658
-75.6223
-75.6257
-77.7277
-78.7327
-79.5055
-78.765
-77.7551
-76.8087
-77.0593
-77.3829
-77.463
-76.822
-76.8872
-76.811
-76.4969
-76.4511
-76.9686
-76.3849
-76.2028
-75.6565
-75.3817
-74.9288
-75.6779
-76.5622
-77.6806
-78.0222
-78.2478
-77.9862
-77.3872
-76.9169
-77.3763
-77.7679
-77.0726
-76.8211
-76.906
-76.9808
-76.9043
-76.8807
-76.7025
-76.6531
-76.6843
-76.5868
-76.4994
-76.0712
-76.0661
-76.3459
-77.3306
-77.7723
-77.3378
-77.2574
-77.296
-77.2129
-77.005
-77.0441
-77.1367
-77.0088
-76.8498
-76.6655
-76.6198
-76.5423
-76.5872
-76.6842
-76.8086
-76.9307
-76.8831
-76.7773
-76.4314
-75.9439
-75.8665
-53.7757
-53.8738
-53.8913
-53.905
-53.9703
-53.9858
-53.9567
-53.9772
-53.99
-54.0029
-54.0056
-54.0239
-54.1449
-54.1027
-54.0827
-54.0775
-54.105
-54.1264
-54.202
-54.3024
-54.2304
-54.2737
-54.2059
-54.2325
-54.2686
-54.276
-54.4465
-54.4021
-54.4119
-54.3912
-54.2793
-54.3237
-54.3621
-54.3836
-54.4882
-54.5773
-54.6252
-54.5995
-54.5297
-54.4443
-54.4235
-54.5757
-54.5829
-54.5377
-54.6404
-54.6649
-54.83
-54.7219
-54.6296
-54.6431
-54.7323
-54.7328
-54.7386
-54.7389
-54.7499
-54.7914
-54.9438
-55.0646
-54.9405
-54.9132
-54.864
-54.8728
-54.8819
-54.9279
-54.988
-55.0049
-55.0033
-55.1197
-55.2105
-55.3797
-55.3197
-55.2379
-55.0834
-55.1707
-55.0397
-55.1294
-55.2401
-55.1919
-55.2798
-55.3937
-55.4717
-55.6308
-55.8191
-55.6285
-55.5915
-55.391
-55.3768
-55.4887
-55.3767
-55.4652
-55.5297
-55.5629
-55.7443
-55.7171
-55.8785
-56.0924
-56.3095
-56.2166
-55.7132
-55.7127
-55.7849
-55.8095
-55.8365
-55.8377
-55.9084
-56.0097
-56.0987
-56.3646
-56.4177
-56.6219
-56.8323
-56.6728
-56.2008
-56.2726
-56.3038
-56.3274
-56.3309
-56.3238
-56.4389
-56.5388
-56.734
-56.7669
-56.9811
-57.2016
-57.437
-57.6114
-57.4975
-56.969
-56.8175
-56.9804
-56.9834
-57.1048
-57.0484
-57.1525
-57.2282
-57.3509
-57.504
-57.7492
-57.9075
-58.2217
-58.4316
-58.6015
-57.7076
-57.5949
-57.7184
-57.9128
-58.031
-58.0082
-58.0683
-58.2404
-58.3111
-58.4478
-58.6893
-58.9029
-59.1882
-59.5098
-59.528
-59.9089
-59.0677
-58.9425
-59.1546
-59.315
-59.5467
-59.3463
-59.4324
-59.5204
-59.7923
-59.9738
-60.1377
-60.3085
-60.532
-60.7391
-60.8728
-61.1304
-61.5812
-60.4166
-60.6429
-60.7134
-60.915
-61.147
-61.4086
-61.4435
-61.2026
-61.2183
-61.5586
-61.706
-61.9465
-62.3064
-62.6538
-62.8587
-62.8236
-63.3571
-63.5987
-62.7764
-63.307
-64.0109
-64.3327
-64.6058
-64.2502
-64.0908
-63.8904
-63.9898
-64.1567
-64.2896
-64.159
-64.5499
-64.7231
-64.8233
-65.4112
-65.6867
-66.037
-66.3375
-64.4832
-66.131
-67.5578
-68.4535
-67.8642
-67.885
-67.5809
-67.5393
-67.3853
-66.9797
-67.0838
-67.1915
-67.2361
-67.5842
-67.9841
-68.2583
-68.8933
-68.8936
-69.0173
-68.7791
-67.1776
-69.378
-71.5329
-72.818
-72.8039
-72.3946
-71.9124
-71.679
-71.2646
-71.3109
-71.1943
-70.9395
-71.6502
-72.3365
-73.9253
-75.1362
-74.7668
-74.8091
-74.0153
-73.2903
-72.4082
-72.9241
-74.3751
-76.1983
-77.1132
-76.7174
-76.1982
-75.5349
-74.7415
-74.2218
-74.3616
-74.982
-75.2433
-75.5767
-76.1292
-76.7412
-77.3571
-77.3462
-77.2513
-76.6586
-74.978
-74.4502
-73.6727
-76.1272
-75.8659
-78.0623
-79.0141
-79.687
-78.9646
-77.9485
-76.8632
-77.3811
-77.8218
-77.6263
-77.0596
-76.9125
-76.9701
-76.5915
-76.3218
-76.8314
-76.3323
-76.1175
-75.5812
-75.3656
-74.9276
-74.9136
-75.9163
-76.6418
-77.8299
-78.1487
-78.3931
-77.9985
-77.4116
-76.9796
-77.5285
-77.8824
-77.0853
-76.8613
-76.9428
-77.0011
-76.9358
-76.9134
-76.7189
-76.6653
-76.731
-76.634
-76.5091
-76.1023
-76.1005
-76.0389
-77.3745
-77.8316
-77.39
-77.2915
-77.285
-77.2199
-77.0181
-77.0625
-77.1503
-77.0359
-76.887
-76.7004
-76.6327
-76.5533
-76.5911
-76.6848
-76.8228
-76.9601
-76.9156
-76.7898
-76.4544
-75.9459
-75.8586
-75.4895
-53.768
-53.7711
-53.7873
-53.8394
-53.8842
-53.858
-53.8994
-53.9206
-53.938
-53.9479
-53.9419
-53.8999
-54.0038
-53.9839
-53.957
-54.0085
-54.0351
-54.1088
-54.016
-54.1491
-54.106
-54.0542
-54.0974
-54.1378
-54.1945
-54.2645
-54.2422
-54.3186
-54.3117
-54.1589
-54.2137
-54.2571
-54.3711
-54.3597
-54.37
-54.4622
-54.4483
-54.3966
-54.2253
-54.3197
-54.4099
-54.4656
-54.4255
-54.5232
-54.6227
-54.6508
-54.6418
-54.5706
-54.4417
-54.4443
-54.521
-54.5879
-54.5791
-54.5828
-54.6735
-54.7711
-54.8623
-54.8313
-54.7793
-54.6316
-54.696
-54.6125
-54.7283
-54.7212
-54.7468
-54.7865
-54.9018
-55.0295
-55.1551
-55.1101
-54.9911
-54.8157
-54.8385
-54.9039
-54.9217
-55.0203
-54.9463
-55.0322
-55.0836
-55.1857
-55.3024
-55.4434
-55.3087
-55.2882
-55.0508
-55.0431
-55.1964
-55.1211
-55.1864
-55.2247
-55.3448
-55.409
-55.4762
-55.5917
-55.7305
-55.8945
-55.9032
-55.6874
-55.3894
-55.4383
-55.4207
-55.3972
-55.4429
-55.5259
-55.6127
-55.6928
-55.7391
-55.8724
-56.0668
-56.2578
-56.417
-56.3315
-55.6674
-55.7191
-55.6593
-55.7874
-55.8139
-55.8444
-55.9328
-56.0736
-56.0948
-56.2559
-56.3745
-56.6499
-56.8132
-57.0941
-56.9471
-56.1779
-56.2081
-56.242
-56.3072
-56.341
-56.3337
-56.438
-56.4775
-56.7006
-56.8085
-56.9454
-57.1835
-57.4228
-57.6334
-57.9647
-57.5921
-56.944
-56.8754
-56.8983
-57.0048
-56.9931
-57.0785
-57.1386
-57.2421
-57.4646
-57.4622
-57.6606
-57.8255
-58.1382
-58.4382
-58.5693
-58.8809
-57.6847
-57.7097
-57.6697
-57.9029
-58.0072
-57.8948
-58.0895
-58.1548
-58.3566
-58.4197
-58.6965
-58.8729
-59.1344
-59.4478
-59.7287
-59.8686
-60.2173
-59.1676
-58.9516
-59.1314
-59.18
-59.4244
-59.3646
-59.38
-59.5442
-59.7307
-59.933
-60.1069
-60.1422
-60.5506
-60.7823
-60.8292
-61.1741
-61.4938
-61.8435
-60.6879
-60.7537
-60.8467
-60.7314
-61.4197
-61.2367
-61.3724
-61.328
-61.2783
-61.3885
-61.7208
-61.9348
-62.4084
-62.6877
-62.9871
-63.062
-63.3685
-63.7081
-63.9779
-62.2308
-63.3102
-64.0621
-64.5924
-64.4539
-64.5339
-64.1987
-64.1049
-64.0125
-64.1473
-64.3837
-64.3111
-64.5806
-64.9254
-65.0091
-65.2247
-65.7942
-66.1107
-66.3055
-66.3797
-64.2187
-65.8219
-67.2488
-68.5501
-68.4169