/*--------------------------------*- C++ -*----------------------------------*\
  =========                 |
  \\      /  F ield         | OpenFOAM: The Open Source CFD Toolbox
   \\    /   O peration     | Website:  https://openfoam.org
    \\  /    A nd           | Version:  7
     \\/     M anipulation  |
\*---------------------------------------------------------------------------*/
FoamFile
{
    version     2.0;
    format      ascii;
    class       surfaceScalarField;
    location    "5";
    object      phi;
}
// * * * * * * * * * * * * * * * * * * * * * * * * * * * * * * * * * * * * * //

dimensions      [0 3 -1 0 0 0 0];

internalField   nonuniform List<scalar> 
54095
(
0.000142873
-0.00108324
-6.93821e-05
0.000437143
0.00131202
3.12001e-05
0.000149065
-0.00115367
-7.86333e-05
0.000226874
0.000304199
-6.81016e-05
0.000647238
0.00251089
0.000221509
0.000525573
0.00096483
-2.93156e-05
0.000210663
0.00272639
0.000152435
0.00015189
-0.00122005
-8.55139e-05
0.000246703
5.79228e-05
-7.906e-05
1.96563e-05
0.00083268
-8.38622e-05
-0.000321297
0.00655928
0.000278456
0.000559181
0.00232389
0.000153394
0.000933473
0.00387562
0.000470655
0.000558793
0.000612419
-5.44924e-05
0.000299841
0.00253452
0.000109415
0.000148026
0.00211629
0.000134268
0.000140405
-0.00127173
-8.87226e-05
0.000250769
-0.000190574
-8.77859e-05
2.22792e-05
0.000817409
-8.60687e-05
1.49431e-05
0.00119742
-8.20304e-05
-0.00065156
0.00771961
0.000495708
-0.000493709
0.00719039
0.000421784
0.00162816
0.0039143
0.000296417
0.000603004
0.00218128
9.8392e-05
0.000834015
0.00302944
0.000465398
0.000524111
0.00244541
0.00050483
0.000535402
0.00030635
-8.89277e-05
0.000360301
0.00228108
8.94139e-05
0.000116245
0.0020154
0.000116338
7.04193e-05
0.00131944
6.4513e-05
0.000116789
-0.00130001
-8.85033e-05
0.000236846
-0.00042098
-9.51631e-05
2.50149e-05
0.000792515
-8.79066e-05
1.96944e-05
0.00117836
-8.67045e-05
3.64396e-05
0.000643252
-6.69408e-05
-0.00090182
0.0064374
0.000497534
-0.000703455
0.00732197
0.00060739
0.00109839
0.00693328
0.00139485
6.12621e-05
0.00715716
0.000574968
0.00112425
0.00356422
0.000481624
0.00100769
0.00359542
0.000111736
0.000431517
0.00220984
7.53301e-05
0.000444599
0.00259069
0.000452846
0.000329852
0.00216921
0.000527992
0.000111672
0.00305753
0.000374628
0.000459632
8.83799e-05
-0.000124872
0.000377678
0.00200361
4.77108e-05
0.000121642
0.00192178
8.64031e-05
0.000108364
0.00129982
4.72877e-05
0.000118478
0.00137309
-7.5716e-05
9.15185e-05
-0.00130563
-8.59028e-05
0.000212143
-0.00062094
-0.000100686
2.63602e-05
0.000761871
-9.08789e-05
2.60997e-05
0.00115545
-9.10973e-05
4.31545e-05
0.000582592
-6.91989e-05
2.75666e-05
0.000432266
-6.38369e-05
-0.00123063
0.00517403
0.00012512
-0.000919373
0.00626506
0.000388255
-7.73376e-05
0.00840134
0.00108773
-0.000245568
0.00681935
0.000809455
0.000523369
0.00660092
0.00154063
0.000998538
0.00620139
0.00122285
-0.000359042
0.00721437
0.000733353
0.000168454
0.00374456
0.000670777
0.000697474
0.00342282
0.000286599
0.000587986
0.00367959
-0.000176938
0.000272653
0.00231646
8.03621e-05
0.000126694
0.00250598
0.000411023
0.00016966
0.00205811
0.000515928
0.000157459
0.003115
0.000421425
0.000238803
0.00212802
0.000307833
0.00035005
-1.19787e-05
-0.000158173
0.000367022
0.00171445
9.4095e-06
9.73697e-05
0.00182925
6.923e-05
9.07851e-05
0.00130841
1.31236e-05
0.000124723
0.00142087
-8.20625e-05
3.09312e-05
0.00129128
-0.000164356
6.71698e-05
-0.00129051
-8.2292e-05
0.00018051
-0.000782641
-0.000104712
2.34434e-05
0.000732844
-9.51023e-05
3.02747e-05
0.00112923
-9.49368e-05
4.93161e-05
0.000513044
-7.08649e-05
2.59533e-05
0.000400923
-6.38096e-05
1.92942e-05
0.000302373
-5.63962e-05
-0.00151798
0.00398905
0.000176648
-0.00111099
0.00523079
0.000134852
-0.000635713
0.0066342
0.00046109
-0.000892942
0.00665921
0.000253219
-0.000366513
0.00893835
0.000741127
0.000473764
0.00797323
0.00104914
-0.000595671
0.00662094
0.000435033
-3.85037e-05
0.0063267
0.00129063
0.000786046
0.00626641
0.00138704
0.000823842
0.00513943
0.000702918
-0.00042039
0.00728532
0.000622088
-0.000657868
0.0044377
0.000824774
0.000360513
0.00346596
0.000436781
0.000388721
0.00374684
-1.19192e-05
0.000308677
0.00468473
-0.000192957
0.000163655
0.0023865
0.000116357
0.000346519
0.00222135
0.000385497
1.20531e-05
0.00198319
0.00057126
7.12657e-05
0.00322142
0.000429031
0.000127623
0.00222424
0.000322305
0.000228001
0.00261454
0.000305388
0.000241114
-3.20647e-05
-0.000153858
0.000326964
0.00144446
-3.46437e-05
3.89943e-05
0.00176042
6.26936e-05
0.000110272
0.0013146
-1.69598e-05
0.000125956
0.00144724
-8.98847e-05
1.69975e-05
0.00137993
-0.000161757
-8.8625e-06
0.000988261
-0.000161049
4.71306e-05
-0.00125946
-7.81743e-05
0.000148567
-0.000905579
-0.000107921
2.31053e-05
0.000703317
-9.82904e-05
3.35015e-05
0.00109878
-9.81512e-05
5.46685e-05
0.00043536
-7.19221e-05
2.27132e-05
0.000370654
-6.33084e-05
1.2377e-05
0.000282026
-5.58397e-05
1.14078e-05
-0.000197949
-4.42487e-05
-0.00151052
0.00378312
3.16905e-05
-0.00144619
0.00409185
0.000232394
-0.00072765
0.00505766
0.000252041
-0.00115874
0.00533121
0.000165385
-0.000584557
0.0065595
0.000427598
7.68727e-05
0.0069442
0.000691502
-0.000841151
0.00686687
3.78287e-05
-0.000350462
0.00898303
0.0005205
0.000367062
0.00822501
0.000908332
0.000287592
0.00782967
0.00109913
-0.000687491
0.00639092
0.000497123
-0.00048784
0.00574182
0.000849893
0.000572973
0.0060243
0.00132029
0.000568444
0.00549959
0.000847149
0.000558872
0.00607596
0.000387734
-0.000388689
0.00720653
0.000631136
-0.000172798
0.00482109
0.000758016
7.34059e-05
0.00365687
0.000572513
0.000318884
0.00380947
0.000126538
0.000206394
0.004743
-0.000148965
0.000282036
0.00567445
-0.00013052
0.000121981
0.00233007
0.000175563
0.000270224
0.00201347
0.000380975
-5.97232e-05
0.00194805
0.000519357
5.9537e-05
0.00329319
0.000550224
8.63721e-05
0.0023648
0.000328053
0.000218906
0.00243506
0.000299871
0.000234065
0.00293576
0.000215334
0.000150418
3.95245e-06
-0.000139304
0.00026583
0.00124443
-7.10863e-05
1.45792e-05
0.00168801
4.62922e-05
4.62127e-05
0.00140307
-3.84849e-05
0.000126884
0.00145717
-9.91021e-05
1.2285e-05
0.00145696
-0.000156485
-1.17471e-05
0.00101184
-0.000161216
7.11123e-06
0.00102808
-0.000116331
2.71317e-05
-0.00121253
-7.40632e-05
0.000115646
-0.000988815
-0.000110585
2.83704e-05
0.000667129
-0.000100103
3.71723e-05
0.0010619
-9.85852e-05
6.18228e-05
0.00034775
-7.23637e-05
2.03443e-05
0.00034064
-6.22531e-05
6.57527e-06
0.000267684
-5.55418e-05
1.69953e-06
-0.000212646
-4.28427e-05
3.20787e-05
-0.000121193
-5.59579e-05
-0.00154277
0.00329957
-6.87044e-05
-0.00155614
0.00389991
-6.83776e-06
-0.000918641
0.00459639
5.72364e-05
-0.00141614
0.00412618
0.000223058
-0.000541347
0.00495341
0.000293436
-9.17639e-05
0.00552608
0.000430271
-0.00109899
0.00540461
0.000184435
-0.00063219
0.00662797
0.000378646
1.64934e-06
0.00710738
0.00062983
0.0001193
0.00681863
0.000796867
-0.000878061
0.00690958
0.000147854
-0.000238073
0.00853118
0.00023991
0.000251371
0.00829707
0.000770033
0.000283846
0.00801702
0.00100558
0.000542146
0.00753757
0.00103872
-0.000863638
0.00638529
0.00048058
-0.000509738
0.00574906
0.000826819
0.000194304
0.00551751
0.00123578
0.000443355
0.00570837
0.000987035
0.000367313
0.00630336
0.000458831
0.000272908
0.00703701
0.000436194
-0.000220161
0.00690549
0.000643184
-0.000105346
0.00501292
0.000814877
-0.000113284
0.0037946
0.000673854
0.000185279
0.00398427
0.000271971
0.00021542
0.00469328
4.7213e-05
0.000338372
0.00555224
-0.000146222
0.000439083
0.00566289
-1.35466e-05
-4.83471e-05
0.00229188
0.000236952
0.000258921
0.00180365
0.00039229
-0.000120871
0.00194731
0.000517166
-0.000122841
0.00347508
0.000506527
7.19546e-05
0.0025995
0.00037046
0.000170342
0.00232401
0.000281049
0.000278377
0.00272076
0.000224739
0.000281254
0.00266939
9.69778e-05
4.85406e-05
9.85808e-05
-0.000116037
0.000198908
0.00110673
-8.48713e-05
3.12117e-05
0.00161876
-4.68206e-06
6.45654e-05
0.00148571
-6.37394e-05
0.000118335
0.00146718
-0.000105008
2.08114e-05
0.00150637
-0.000148982
-9.27133e-06
0.00103199
-0.000160784
6.15765e-06
0.000977475
-0.000115067
7.6464e-05
0.00127919
-0.000128412
9.58952e-06
-0.0011515
-7.06262e-05
8.76088e-05
-0.00103733
-0.000113153
3.21071e-05
0.000627168
-0.000102731
3.81515e-05
0.00101981
-9.6155e-05
6.67099e-05
0.000254465
-7.20103e-05
1.46082e-05
0.000314342
-6.06735e-05
1.22585e-06
0.000259334
-5.51294e-05
-4.79527e-06
-0.000220363
-4.30292e-05
1.97644e-05
-0.000130734
-5.3066e-05
6.44406e-05
0.000132052
-9.11726e-05
-0.00146288
0.00305468
-6.43053e-05
-0.00153337
0.00332882
-5.20168e-05
-0.00105136
0.00405464
1.77259e-06
-0.00147777
0.00399353
-3.19832e-05
-0.000677968
0.00467258
5.35975e-05
-0.000339952
0.00515164
0.000223459
-0.00133707
0.00414018
0.000224083
-0.000719032
0.00494995
0.000313355
-0.000220039
0.00556072
0.000480491
2.65745e-05
0.00575361
0.000595147
-0.00115626
0.00548672
0.000196091
-0.000598707
0.00679647
0.000376565
-0.000123253
0.00728798
0.000572666
0.000113789
0.00684746
0.000771056
0.000108246
0.00666273
0.00090259
-0.00108775
0.00698522
0.000148465
-0.000349567
0.0083087
0.000210162
-9.59975e-05
0.00820913
0.000618158
0.000133004
0.00822607
0.000871327
0.000179889
0.00780205
0.000928522
0.000459791
0.00743228
0.000854799
-0.000812847
0.00644
0.00053797
-0.000392039
0.00573412
0.000782215
-0.000223966
0.00543804
0.00101697
0.000241057
0.00581092
0.00107746
0.000392911
0.00643742
0.000675485
0.000401284
0.00696523
0.000467702
0.000332753
0.00756455
0.000493246
-0.00034474
0.00647915
0.00072273
7.64217e-05
0.00507268
0.000765925
-0.000288792
0.00407591
0.000701481
-1.6874e-05
0.00415831
0.000393841
0.00012321
0.00474925
0.000164746
0.000336941
0.00529349
0.000139367
0.000514896
0.00522634
5.38016e-05
0.000566393
0.00518011
0.000105821
-0.000303836
0.00235161
0.000292644
0.000107888
0.00171128
0.00042035
-0.00011555
0.00198225
0.000504108
-0.000113521
0.00365668
0.000513648
4.61572e-05
0.00277123
0.000406972
3.50638e-05
0.00238819
0.000292025
0.000135749
0.00262899
0.000227806
0.00017682
0.00259728
0.00012619
0.000218301
0.00270382
-1.1408e-05
6.383e-06
0.000196979
-9.51921e-05
0.000133433
0.00104862
-0.000103749
5.77719e-05
0.00155966
-5.14332e-05
8.03195e-05
0.00153267
-9.38116e-05
9.57602e-05
0.00148359
-0.000109205
2.37951e-05
0.00153236
-0.00014019
-8.81195e-06
0.0010535
-0.000160452
-5.25998e-06
0.000934958
-0.000117803
4.75593e-05
0.00125775
-0.000121425
0.00013141
0.00178934
-0.00017718
-7.19905e-06
-0.00107666
-6.76352e-05
6.87373e-05
-0.00106148
-0.000115213
3.61399e-05
0.000584833
-0.000106959
4.20397e-05
0.000968395
-9.336e-05
6.90012e-05
0.000160758
-7.1449e-05
1.03571e-05
0.000290667
-5.86923e-05
-2.37375e-06
0.000255498
-5.44632e-05
-9.07748e-06
-0.000222708
-4.3707e-05
1.49879e-05
-0.000136566
-5.21849e-05
6.77981e-05
0.00010179
-9.06016e-05
3.16976e-05
0.000581636
-9.79402e-05
-0.0014701
0.00270823
1.36226e-05
-0.00271464
-0.00145293
0.00302664
-5.2398e-05
-0.00115122
0.00355166
0.000157291
-0.00148936
0.00342897
-8.8559e-05
-0.00107362
0.00430792
9.03632e-05
-0.000510639
0.00465494
0.000114525
-0.00139125
0.00409164
-4.39284e-05
-0.000740398
0.00454768
0.000114279
-0.000570743
0.00535541
0.000200532
-0.000324255
0.00527553
0.000438983
-0.00136724
0.00418314
0.00016801
-0.000837582
0.00504547
0.000367447
-0.00024181
0.0055584
0.000434228
4.10986e-05
0.00569249
0.000614306
-5.12963e-05
0.00553733
0.000723179
-0.00118704
0.00539418
0.000191832
-0.000675631
0.0069131
0.000405529
-0.000186692
0.00720229
0.000552954
-1.9999e-05
0.00683863
0.000734502
4.59368e-05
0.00670361
0.000864128
0.000310275
0.00633883
0.000934349
-0.00113138
0.00710906
0.000194703
-0.000214703
0.00801381
0.000266023
-0.000338319
0.00809654
0.000437104
7.97103e-05
0.00822134
0.000784241
0.000206782
0.00800294
0.000856573
0.000422027
0.00750969
0.000830373
0.000356895
0.00753927
0.000717393
-0.000885937
0.00649894
0.000482263
-0.000256176
0.00587397
0.000730714
-0.000378402
0.00546484
0.000845027
0.000147221
0.00566297
0.00100082
0.000321487
0.00641494
0.000901661
0.000394891
0.00698094
0.000601822
0.000476689
0.00762277
0.000447691
0.000536402
0.00771833
0.00061664
-0.000611393
0.00597759
0.000809114
5.92924e-05
0.00497723
0.00086677
-0.000272777
0.00431475
0.000684321
-1.67176e-05
0.00434306
0.000419927
0.000126414
0.00474587
0.00031696
0.000194655
0.00503523
0.000263411
0.000290017
0.00502187
0.000189572
0.000370433
0.00483185
0.000208448
0.000388528
0.00490097
0.000211902
-5.58156e-05
0.0021235
0.00029031
3.17325e-05
0.00163605
0.000469572
-5.73392e-05
0.00204276
0.000474952
-0.000103834
0.00382621
0.000518734
1.24346e-05
0.0029204
0.000447804
1.02308e-05
0.00247765
0.000331079
5.30029e-05
0.00263117
0.000228025
3.65724e-05
0.00263742
0.000145835
5.57123e-05
0.0028123
9.56152e-06
0.000128623
0.00276371
-0.000120898
2.38465e-05
0.000246184
-8.02504e-05
0.000115273
0.00103271
-0.000125816
6.9351e-05
0.00153517
-0.000112469
0.00010111
0.00155114
-0.000128968
7.90591e-05
0.00149189
-0.000112167
3.39594e-05
0.00152572
-0.000126163
-3.74229e-06
0.00107021
-0.000155535
-2.32131e-06
0.000892902
-0.000125152
3.97665e-05
0.0012282
-0.000113029
0.000130586
0.00177212
-0.000166989
8.39235e-05
0.000824026
-0.000138222
-2.22098e-05
-0.000989167
-6.5285e-05
5.89464e-05
-0.00107125
-0.000116819
4.21099e-05
0.000537641
-0.000110131
4.63471e-05
0.000907154
-9.20645e-05
6.56333e-05
7.30687e-05
-7.13041e-05
6.85515e-06
0.000269204
-5.6841e-05
-5.61531e-06
0.000256043
-5.36218e-05
-1.0721e-05
-0.000221909
-4.4541e-05
1.39837e-05
-0.000141518
-5.27385e-05
6.95908e-05
7.05577e-05
-9.05437e-05
3.70014e-05
0.000557277
-0.000103244
2.87872e-05
0.000608028
-8.16171e-05
-0.00152281
0.00254591
4.35444e-05
-0.00253674
-0.00143085
0.00265168
3.44715e-05
-0.0012387
0.00340603
0.000126274
-0.0034312
-0.00164526
3.8844e-05
-0.00141069
0.00300232
-5.43546e-05
-0.00129018
0.00358007
0.000135757
-0.000684319
0.00409595
0.000280767
-0.00144301
0.00359361
-0.00011288
-0.00096897
0.0044087
3.92296e-05
-0.000648
0.00468151
0.000141048
-0.000541608
0.0048495
0.000253177
-0.00130384
0.00407006
-4.18241e-05
-0.00111373
0.00467599
0.000103908
-0.000379476
0.00537718
0.000230166
-0.000249917
0.00534813
0.000418941
-0.000270896
0.00537422
0.000567732
-0.00136604
0.00410365
0.000258491
-0.000965003
0.00512492
0.000377931
-0.000172603
0.00545037
0.000461387
-0.000104972
0.00561374
0.000597949
-1.61111e-05
0.00550717
0.000706512
0.000109928
0.0054395
0.000860085
-0.00139331
0.00546266
0.000193445
-0.000584859
0.00705954
0.000415543
-0.000263534
0.007012
0.000521036
2.80963e-05
0.00667487
0.000768326
0.000244457
0.00661603
0.000784407
0.000157264
0.00651207
0.000955655
0.000303602
0.00623095
0.000946015
-0.00113503
0.0071548
0.000203344
-0.000175178
0.00774684
0.000380673
-0.000353617
0.0078908
0.000446977
0.000106892
0.00805262
0.000646147
0.000238852
0.0080408
0.000829012
0.000351732
0.0076477
0.000761726
0.000565443
0.00756295
0.000717944
0.000467659
0.00728272
0.00075834
-0.000886543
0.00632862
0.00044547
-0.00026463
0.00600712
0.000673037
-0.000342355
0.00557603
0.000689097
0.00011839
0.00548278
0.000890108
0.000327693
0.00621727
0.000997211
0.000414051
0.00684155
0.000821656
0.000324844
0.00749591
0.000693853
0.000560221
0.0073782
0.000598029
0.000362045
0.0069583
0.000854052
-0.000235128
0.00542785
0.000729057
5.1306e-05
0.00471813
0.00104864
-0.00021002
0.00459092
0.000743275
-5.90034e-05
0.00453553
0.00044702
0.00012242
0.00466666
0.00038915
0.000103815
0.00487984
0.000378767
0.000155184
0.00493449
0.000248613
0.000205024
0.00464122
0.000211754
0.000193429
0.00471944
0.000252263
0.000199241
0.00444704
0.00015586
0.000125258
0.00181554
0.000206548
3.96036e-05
0.00154029
0.000461734
7.80004e-06
0.00211797
0.000455912
-0.000108644
0.00400026
0.00051065
2.52965e-06
0.00302799
0.000487674
3.34772e-05
0.00256076
0.000365173
2.49366e-05
0.00269666
0.000236912
1.98192e-05
0.00269136
0.000151946
8.64251e-05
0.00288247
2.90072e-05
8.58582e-05
0.00291928
-0.000101282
0.000106259
0.00288314
-0.000266199
3.65003e-05
0.00026353
-7.6056e-05
0.000150844
0.00101617
-0.000155606
6.19626e-05
0.00156827
-0.000178767
0.000124578
0.00152889
-0.000168451
8.72786e-05
0.00145689
-0.000115615
5.07765e-05
0.00148117
-0.000111541
-1.23929e-05
0.00109336
-0.000142532
5.98663e-06
0.000854401
-0.000133742
3.82241e-05
0.00118181
-0.000103009
0.000118086
0.00175865
-0.000148054
7.68232e-05
0.000742791
-0.000125576
0.000113931
0.000943494
-8.05403e-05
-3.18592e-05
-0.000894019
-6.32895e-05
5.11751e-05
-0.0010696
-0.000118108
4.65901e-05
0.000486473
-0.000112241
5.11001e-05
0.000836126
-9.02034e-05
5.82626e-05
-5.66924e-06
-7.15892e-05
6.42347e-06
0.00024731
-5.58335e-05
-8.652e-06
0.000260611
-5.27577e-05
-1.1854e-05
-0.000218127
-4.55505e-05
1.17164e-05
-0.000143562
-5.42134e-05
7.16884e-05
3.73659e-05
-9.12351e-05
4.31731e-05
0.000531566
-0.000108006
2.39635e-05
0.000569199
-8.83785e-05
6.46238e-05
0.000509415
-7.72137e-05
-0.00164402
0.00230885
8.67719e-05
-0.00227441
-0.00143231
0.0025038
4.35623e-05
-0.00137478
0.00298203
5.47838e-05
-0.00285718
-0.00165247
1.78181e-05
-0.00146306
0.00268153
2.25169e-05
-0.00118577
0.00327938
5.67098e-05
-0.00093877
0.00371624
0.000336016
-0.00367153
-0.00148471
0.000168227
-0.00146377
0.00302747
-4.39379e-06
-0.00131358
0.00372316
0.000147164
-0.000711458
0.00410387
0.000191297
-0.00059858
0.00421112
0.000303691
-0.00133895
0.00368508
-5.63594e-05
-0.00113975
0.00433015
-8.30453e-06
-0.000463211
0.00469343
0.000111042
-0.000416579
0.00489868
0.000258526
-0.000401477
0.00484474
0.000379635
-0.00131506
0.00406283
-4.37493e-05
-0.00112826
0.00473358
6.38459e-05
-0.00024726
0.00534985
0.000205903
-0.000315947
0.00536475
0.000424527
-0.000115665
0.00535539
0.000537319
-0.00010714
0.00526692
0.00075379
-0.00150589
0.00406249
0.000153736
-0.000866025
0.00529102
0.000373557
-0.000282917
0.00535852
0.000489162
-0.000111613
0.00559356
0.000621277
0.00017955
0.00541841
0.000751616
4.58741e-05
0.00540023
0.000857173
0.000193783
0.00529925
0.000972379
-0.00130179
0.0054476
0.00018183
-0.000615822
0.00725853
0.000435103
-0.000437685
0.00698724
0.000524365
-0.000113208
0.00674124
0.00067477
0.000160108
0.00664368
0.000819422
0.000159308
0.00655831
0.000930588
0.000234313
0.00655047
0.000967269
0.000324649
0.00612373
0.00106471
-0.00110489
0.00713532
0.000237835
-0.000341476
0.00772658
0.000300447
-0.000236193
0.00771285
0.000452463
0.000160485
0.0078775
0.000580007
0.000373517
0.00796335
0.000677774
0.000345705
0.00777795
0.000767106
0.000305179
0.00764446
0.000699883
0.000532264
0.0072876
0.000741021
0.000232048
0.0071106
0.000900311
-0.000746269
0.00637839
0.000461369
-0.000311396
0.00607532
0.000739972
-0.000362738
0.00576722
0.000634562
-9.27661e-05
0.00552705
0.000678595
0.000394492
0.00595396
0.000881352
0.000359656
0.00671357
0.000869346
0.000387867
0.00728965
0.00079523
0.000535101
0.00700723
0.000734747
0.000444128
0.00652029
0.000785345
0.000240654
0.0061153
0.000829956
-0.000136978
0.00513437
0.000555712
7.58693e-05
0.0043392
0.00107172
-6.66841e-05
0.00485387
0.000860173
-2.48089e-05
0.00470561
0.00048936
-1.26209e-05
0.00470275
0.000426081
0.000173176
0.00470546
0.00042383
0.000134463
0.00493118
0.000272544
5.23766e-05
0.0046641
0.000193173
0.000273158
0.00451451
0.000229943
-9.97817e-05
0.00455608
0.000328872
2.02843e-06
0.00435407
0.000113399
2.02583e-05
0.00173211
9.96731e-05
0.000214475
0.00130591
0.000377299
-0.000111311
0.00233517
0.00041781
-6.52307e-06
0.00411015
0.000477125
3.55846e-05
0.00307289
0.000517441
8.05062e-05
0.00263887
0.00037984
-8.35865e-06
0.00280642
0.000251379
3.87168e-05
0.00273316
0.000162383
5.97559e-05
0.00295161
6.12742e-05
4.53379e-05
0.00310778
-8.67495e-05
0.00012796
0.00294562
-0.000214903
0.000193162
0.00297218
-0.000319003
4.47357e-05
0.00025463
-6.76948e-05
0.000198301
0.000990981
-0.000197993
6.76203e-05
0.00164837
-0.000256741
0.000132702
0.00147579
-0.000207276
9.16508e-05
0.00138607
-0.000131017
6.56119e-05
0.00140884
-0.000102466
-4.63534e-05
0.0011455
-0.00012598
-5.87293e-06
0.000844833
-0.000138945
4.38847e-05
0.00110258
-8.66728e-05
0.00017795
0.00166968
-0.000120308
7.85763e-05
0.000666489
-0.000107154
0.000115434
0.000786175
-5.97281e-05
0.000267439
0.0015123
-7.08364e-05
-3.18649e-05
-0.000800195
-6.1959e-05
4.28798e-05
-0.00105741
-0.000118355
5.4365e-05
0.00042792
-0.000113921
5.61506e-05
0.000755168
-8.74343e-05
5.09277e-05
-7.44308e-05
-7.23696e-05
1.14989e-05
0.000219742
-5.55207e-05
-1.02802e-05
0.000267011
-5.19529e-05
-1.26485e-05
-0.000211441
-4.67949e-05
1.00177e-05
-0.000143382
-5.57484e-05
7.41424e-05
1.60426e-06
-9.25942e-05
4.89615e-05
0.000503468
-0.000112098
2.39369e-05
0.000531645
-9.43889e-05
5.75997e-05
0.000444974
-8.15378e-05
6.68658e-05
0.000449644
-7.60527e-05
-0.00160869
0.00206719
-7.21901e-06
-0.0020953
-0.00160074
0.00237326
0.000104021
-0.00135717
0.00287839
0.000116489
-0.00292573
-0.00176238
0.000107631
-0.00145871
0.00245887
4.0586e-05
-0.00129931
0.00306087
7.82599e-05
-0.00106854
0.00336723
0.000147562
-0.00333023
-0.00143778
6.70895e-06
-0.00147815
0.00269195
3.96626e-06
-0.00123583
0.00320067
2.34672e-05
-0.000919773
0.00374155
0.000239714
-0.000763672
0.0038213
0.000416203
-0.00373639
-0.00106732
0.000382562
-0.0013929
0.00305318
2.8242e-05
-0.00124586
0.00372922
9.5659e-05
-0.000695116
0.00425542
0.000227524
-0.000629176
0.00434555
0.000269462
-0.000469533
0.00433683
0.000407718
-0.00133884
0.00373799
-2.91334e-05
-0.00117967
0.00427375
5.14501e-05
-0.000453374
0.00477501
0.000116234
-0.000469448
0.00490173
0.000261495
-0.000290286
0.00486589
0.000411998
-0.000419036
0.00499412
0.000629977
-0.00132725
0.00396957
-8.53729e-05
-0.00105695
0.00476862
0.000112132
-0.000279725
0.005197
0.000213501
-0.000272249
0.00534661
0.000384674
0.000107396
0.00530968
0.000542397
-0.000179941
0.00534212
0.000687936
0.000153629
0.00536907
0.000807066
-0.00144414
0.00411243
9.2404e-05
-0.000836054
0.00536585
0.000299131
-0.000444154
0.00537437
0.000364182
-0.000151234
0.00557334
0.000547402
7.94275e-05
0.00538617
0.000734199
2.47854e-05
0.00537974
0.000906628
0.000109848
0.00532155
0.000959346
0.000289365
0.00526795
0.00107229
-0.00150468
0.00565762
0.000189762
-0.000386744
0.00711606
0.000369567
-0.000234569
0.00690481
0.000515912
5.0093e-05
0.00668585
0.000690141
0.00045771
0.0065039
0.000730355
0.00024801
0.00659424
0.000881188
0.000476457
0.00631814
0.00099164
0.000146879
0.00636734
0.00110905
0.000231197
0.00580557
0.00120323
-0.000905209
0.00694367
0.000350592
-0.000395947
0.00778592
0.000263045
-0.000189239
0.00751332
0.000326475
-9.02458e-05
0.00781201
0.000515436
0.000438119
0.00799765
0.000502085
0.000453505
0.00768527
0.000676604
0.00047601
0.00754046
0.000782959
0.000448759
0.00732705
0.000746775
0.000417473
0.00701203
0.000866256
0.000102674
0.00708345
0.000892267
-0.00101764
0.00678707
0.000471982
-0.000210812
0.00592033
0.000903036
-0.000321154
0.00606859
0.000693072
-6.57064e-06
0.00557012
0.000573252
0.000184381
0.00573837
0.000697176
0.000586813
0.00637477
0.000806523
0.00049876
0.00705994
0.00073476
0.000286873
0.00683663
0.000731332
0.000528619
0.00630572
0.000693855
-7.84967e-05
0.00618446
0.0006949
1.49182e-05
0.00604108
0.000670689
-0.000257296
0.00496444
0.000447486
0.000312103
0.00376698
0.00103031
-0.000150724
0.00507297
0.000892035
7.11674e-05
0.00490898
0.000579117
0.00020019
0.00462678
0.000400726
0.000252944
0.00456826
0.000390845
0.000167711
0.00489607
0.000282877
0.000139433
0.00464349
0.00019244
2.05831e-05
0.00450938
0.00023748
0.000145855
0.00442692
0.000258583
4.2598e-05
0.00448645
0.000281846
3.02951e-05
0.00450552
0.000106506
4.10325e-05
0.00177037
-3.45563e-05
0.000399889
0.000963486
0.00024051
-8.10423e-05
0.00246326
0.000397871
7.77323e-05
0.00414981
0.000433126
6.37665e-05
0.0030698
0.000508103
0.000100335
0.00273982
0.000381761
-2.91555e-05
0.00291897
0.000250089
2.26707e-05
0.00277628
0.000179712
8.84688e-05
0.00296546
0.00010395
0.000158114
0.00323289
-4.39988e-05
0.000110299
0.00301178
-0.000184632
0.000211298
0.0029742
-0.000312782
0.000477727
0.00314426
-0.00025592
7.8522e-05
0.000213828
-6.95855e-05
0.000230844
0.000970569
-0.000235247
9.36789e-05
0.00172317
-0.0003121
0.000135116
0.00139397
-0.00025388
0.000102469
0.00126776
-0.00014051
9.42587e-05
0.00130469
-0.000109631
-4.07166e-05
0.00118781
-0.000114342
-1.43948e-05
0.000857357
-0.000136757
3.1497e-05
0.00101488
-7.27293e-05
0.000126921
0.00160975
-7.95188e-05
0.000100415
0.000581467
-8.67393e-05
0.000101452
0.000636719
-3.52127e-05
0.000281384
0.00127019
-4.14023e-05
0.000288574
0.00131338
-9.01018e-05
-2.43659e-05
-0.00071493
-6.08986e-05
3.64383e-05
-0.00103813
-0.000117677
5.85292e-05
0.000366621
-0.000115585
6.12306e-05
0.000665005
-8.49884e-05
4.55083e-05
-0.000134134
-7.32394e-05
1.59447e-05
0.000188109
-5.6681e-05
-1.07116e-05
0.00027332
-5.11182e-05
-1.34018e-05
-0.000201818
-4.81741e-05
1.25081e-05
-0.00014535
-5.73354e-05
7.05694e-05
-3.11036e-05
-9.361e-05
5.36694e-05
0.00047264
-0.000115436
3.00236e-05
0.000488456
-9.8932e-05
4.64371e-05
0.000388101
-8.3952e-05
6.24093e-05
0.00038254
-7.68431e-05
6.51156e-05
0.000247058
-7.32661e-05
-0.00157572
0.00226072
2.86828e-05
-0.00232237
-0.00158843
0.00211866
-6.37735e-05
-0.00141142
0.00277496
5.59994e-05
-0.00278392
-0.00172834
3.90931e-05
-0.00216843
-0.00153128
0.00238093
6.48956e-05
-0.00133396
0.00288198
0.000135078
-0.00109884
0.00320778
0.000150271
-0.00321127
-0.00132903
5.71959e-05
-0.00147716
0.0024315
2.63768e-05
-0.00119674
0.00297647
8.59021e-05
-0.000973302
0.00333767
0.000161345
-0.000943218
0.00349809
0.000287684
-0.00345866
-0.00116965
0.00014639
-0.00147856
0.00268861
8.89992e-05
-0.00128539
0.00323776
6.41083e-06
-0.000886516
0.00379871
0.000157711
-0.000781381
0.0038982
0.000315015
-0.000527938
0.00397652
0.000435467
-0.00393738
-0.00078057
0.000436209
-0.00147952
0.00310707
8.67901e-05
-0.00123677
0.0037115
0.000103054
-0.000670865
0.00434743
0.000221133
-0.000573919
0.00441239
0.000265159
-0.000577669
0.00443588
0.000457797
-0.000520471
0.00447322
0.000490935
-0.00134701
0.00376769
-9.93256e-06
-0.00114348
0.00424664
8.4509e-05
-0.000485584
0.00481065
0.000221668
-0.000423344
0.0049108
0.000258253
-0.00016983
0.0049767
0.000427907
-0.000337703
0.00496737
0.000596509
-2.94919e-05
0.00492182
0.00082379
-0.00143753
0.00402006
-5.7094e-05
-0.00103375
0.00474313
0.00013782
-0.000485228
0.00509661
0.000253593
-0.000325038
0.00536932
0.000364596
-3.08121e-05
0.00527265
0.000531939
-9.15582e-05
0.00532749
0.000673372
0.000172422
0.00521573
0.000778704
0.000280453
0.00532242
0.000933101
-0.00161623
0.00405629
0.000167692
-0.000607304
0.00538012
0.000298697
-0.000239762
0.00532424
0.000354446
-0.000114453
0.00550883
0.000593245
0.00020492
0.0054564
0.000729963
6.79242e-05
0.00537418
0.000919848
0.00039517
0.00528466
0.0010248
3.22326e-05
0.00528797
0.00105398
0.000240784
0.00527124
0.00108079
-0.00139857
0.00590099
0.00024999
-0.000771545
0.00721335
0.000468069
-0.000175673
0.00670359
0.000557222
-4.58766e-05
0.00653616
0.000621237
0.000289136
0.00656332
0.00077971
0.000453737
0.00648392
0.00084044
0.000385366
0.00629309
0.000996873
0.000430545
0.00624899
0.0011282
0.000281388
0.00580348
0.00124722
0.000167248
0.00580983
0.00121818
-0.00113814
0.00672076
0.000343414
-0.000319325
0.00771955
0.000525477
-0.000111824
0.00722747
0.000339567
0.000139245
0.0075391
0.000453569
0.000455601
0.00773527
0.000506588
0.000652417
0.00759597
0.000525779
0.000549985
0.00757522
0.000590623
0.000303314
0.00726023
0.000833335
0.000442327
0.00700205
0.000843043
0.000163841
0.00681081
0.000896557
-1.24454e-05
0.00678323
0.000834651
-0.000705993
0.00685478
0.000380982
7.06859e-05
0.00575573
0.000878003
-0.000139422
0.00612945
0.000830881
-1.78356e-05
0.00576168
0.000590518
0.000360642
0.00563821
0.000512966
0.000595842
0.00604254
0.0006865
0.000548224
0.00674501
0.00074094
0.000541124
0.00652886
0.000640837
0.000153969
0.00625656
0.000647106
0.000220298
0.00617432
0.000629553
-7.31522e-05
0.00625684
0.000594882
7.76739e-06
0.00618157
0.000599534
-0.000566077
0.00532152
0.000250035
0.000432128
0.00326475
0.000917475
-7.9879e-06
0.0051131
0.000917122
8.59398e-05
0.00520723
0.000585577
7.05276e-05
0.0047961
0.000403037
0.000214811
0.00449521
0.000359296
0.000195736
0.00480968
0.000252337
9.16342e-05
0.00467608
0.000181319
8.89017e-05
0.0044693
0.000232087
1.90064e-05
0.00455878
0.000244729
3.61793e-05
0.00460782
0.000211335
3.55665e-05
0.00477166
0.000191429
0.000304195
0.00474511
0.00018778
0.000104929
0.00183266
-8.87029e-05
0.000544704
0.000589744
2.53256e-05
-3.91108e-05
0.00247441
0.000362148
0.00016779
0.00408969
0.00042531
0.000119448
0.00299576
0.000490185
0.000161533
0.00280184
0.000378814
-3.29421e-05
0.00303468
0.000258284
1.02968e-05
0.00282522
0.000176458
9.01299e-05
0.00297015
0.000116389
8.31302e-05
0.00344447
-6.38344e-05
0.000154371
0.00309037
-0.000176538
0.000206535
0.00296899
-0.000284509
0.000385081
0.00304837
-0.000320593
0.000355862
0.00365155
-0.000119471
0.000125864
0.00015481
-9.12116e-05
0.000249521
0.000951983
-0.000264082
0.000124092
0.00176914
-0.000346785
0.000127337
0.00129763
-0.000281873
0.000114838
0.0010939
-0.000149352
9.90256e-05
0.00119481
-0.00011371
-4.17415e-05
0.0012151
-0.000105892
-2.67263e-05
0.000888469
-0.00013213
2.40564e-05
0.000922086
-5.55093e-05
0.000111192
0.00153967
-4.32673e-05
5.48882e-05
0.000567868
-6.71387e-05
8.82703e-05
0.000504679
-1.29459e-05
0.000255692
0.00103256
-6.83578e-06
0.000308333
0.00107928
-5.32319e-05
0.000266631
0.000938869
-6.95388e-05
-1.42087e-05
-0.000640728
-5.99937e-05
3.15599e-05
-0.00101475
-0.000115845
6.24071e-05
0.00030303
-0.000116493
6.72912e-05
0.000566268
-8.41381e-05
4.12239e-05
-0.000186257
-7.40897e-05
1.8702e-05
0.000154716
-5.8548e-05
-9.78164e-06
0.000277489
-5.10685e-05
-1.6632e-05
-0.000186553
-4.9751e-05
1.83365e-05
-0.000152721
-5.91396e-05
5.03553e-05
-4.46752e-05
-9.41192e-05
5.60613e-05
0.000440715
-0.000117746
4.14086e-05
0.000433632
-0.000102021
3.3529e-05
0.000339967
-8.43272e-05
5.71479e-05