/*--------------------------------*- C++ -*----------------------------------*\
  =========                 |
  \\      /  F ield         | OpenFOAM: The Open Source CFD Toolbox
   \\    /   O peration     | Website:  https://openfoam.org
    \\  /    A nd           | Version:  7
     \\/     M anipulation  |
\*---------------------------------------------------------------------------*/
FoamFile
{
    version     2.0;
    format      ascii;
    class       volVectorField;
    location    "5";
    object      U_0;
}
// * * * * * * * * * * * * * * * * * * * * * * * * * * * * * * * * * * * * * //

dimensions      [0 1 -1 0 0 0 0];

internalField   nonuniform List<vector> 
18750
(
(1.8513 -0.628593 -1.63594)
(1.45419 1.03817 -0.774437)
(1.48582 -0.596123 -1.5702)
(3.31066 0.409315 -1.5524)
(4.09251 1.84279 1.02758)
(2.27337 0.952951 -1.18146)
(1.34367 1.93679 1.18463)
(1.13245 -0.609545 -1.48038)
(3.28903 0.444551 -2.0342)
(-0.0286941 0.554293 -1.65027)
(-0.0158095 4.32145 0.559815)
(3.86985 1.95691 0.507551)
(1.23039 3.02405 1.03373)
(2.96174 0.96773 -1.33438)
(1.81476 1.98331 0.668024)
(0.679385 1.48493 1.00565)
(0.828143 -0.65376 -1.37041)
(3.00645 0.437108 -2.42777)
(-0.0361656 0.561675 -1.64933)
(-0.0152273 0.828113 -2.12363)
(-2.15759 5.36077 -1.88128)
(-0.804833 4.64376 0.772117)
(5.41032 2.78465 1.02384)
(3.18669 2.02826 -0.00165664)
(1.58763 2.25457 0.954114)
(0.969256 1.76277 2.89831)
(3.11918 0.959902 -1.29758)
(2.29343 1.95298 0.502369)
(0.62207 1.46439 0.878826)
(0.466825 0.901894 1.09115)
(0.584396 -0.712406 -1.25115)
(2.53132 0.367039 -2.67156)
(-0.0411109 0.552939 -1.63263)
(-0.0265584 0.818893 -2.22003)
(0.34165 0.47007 -1.6502)
(-1.29105 4.33623 -0.0700171)
(-2.51361 4.64643 -1.64918)
(3.55303 4.82391 4.13449)
(-0.275025 4.9878 1.00997)
(3.64765 2.92539 1.74462)
(2.7105 2.55211 1.30279)
(2.39666 2.03125 -0.121394)
(1.4495 2.00074 0.961058)
(0.427398 1.49295 2.90329)
(0.14878 2.05399 1.83166)
(2.86194 0.92056 -1.19649)
(2.53582 2.08583 -0.132182)
(0.589133 1.43346 0.778263)
(0.496879 0.929245 0.928814)
(0.55318 0.928865 -0.097427)
(0.399961 -0.769618 -1.13464)
(2.01086 0.232821 -2.77114)
(-0.0163071 0.547076 -1.69535)
(-0.0444986 0.810051 -2.31105)
(0.402436 0.460946 -1.74957)
(0.533964 0.329027 -1.47584)
(-2.04746 3.32399 -0.0383809)
(-1.62142 4.12341 0.140264)
(0.926664 5.44498 2.03013)
(-0.992075 4.82844 0.452988)
(1.57231 4.75475 4.37429)
(2.58624 4.16316 3.41993)
(-1.05791 4.85156 1.39116)
(0.623981 2.69426 2.41636)
(1.41514 2.5069 1.87821)
(0.537121 2.51586 -0.474178)
(1.4821 2.06652 0.0492784)
(1.0086 1.99324 0.900505)
(0.257939 1.44302 2.84396)
(0.402193 2.02202 2.09175)
(0.61756 1.45234 1.4483)
(2.483 0.879925 -1.07891)
(2.61412 2.0387 -0.778125)
(0.436265 1.40564 0.782634)
(0.582963 0.987402 0.532462)
(0.545158 1.00202 -0.210532)
(-0.090241 0.861984 -1.11686)
(0.277074 -0.813299 -1.03019)
(1.52759 0.0649792 -2.76512)
(-0.0131211 0.542023 -1.81389)
(-0.0896883 0.788017 -2.40093)
(0.469256 0.456051 -1.83663)
(0.469654 0.337117 -1.46499)
(0.465448 0.23837 -1.45138)
(-2.40415 2.4443 0.256543)
(-2.19076 3.34883 -0.0608293)
(-1.68206 4.36679 0.495947)
(-1.80911 4.13052 0.142166)
(-0.469693 5.92822 1.24952)
(1.5343 5.19495 2.17792)
(-2.75417 3.83437 0.547997)
(-1.33892 4.49871 2.96923)
(1.55999 4.41547 3.74191)
(2.50702 3.25287 2.70257)
(-1.59582 4.6676 1.60153)
(-1.41925 2.47915 2.92817)
(0.319716 2.43106 2.26316)
(0.439058 2.51618 0.0560092)
(1.05712 3.22962 -0.643314)
(0.361855 1.85755 0.42437)
(0.500341 1.7999 0.791052)
(-0.107298 1.43395 2.57568)
(-0.198939 2.37247 2.03159)
(0.509006 1.49869 1.63732)
(0.336428 1.81731 1.39687)
(2.03128 0.837804 -0.921126)
(2.48626 1.97019 -1.36313)
(0.209409 1.33714 0.874347)
(0.628197 1.03045 0.295946)
(0.506902 1.06372 -0.371986)
(-0.128098 0.889829 -1.09103)
(-0.260406 0.644004 -1.36167)
(0.219831 -0.832955 -0.945642)
(1.11791 -0.11519 -2.70284)
(-0.0328467 0.526524 -1.97235)
(-0.137972 0.754281 -2.46045)
(0.538999 0.454736 -1.9073)
(0.389526 0.333748 -1.43937)
(0.357245 0.240708 -1.44957)
(0.298446 -0.109849 -1.12479)
(-1.91498 2.50849 -0.0497826)
(-2.23605 2.62971 0.369383)
(-0.756549 3.34023 0.260133)
(-2.37518 3.2379 0.0313977)
(-1.85207 4.27614 0.525129)
(-0.0168662 4.56098 1.0602)
(-2.06917 4.23608 0.265705)
(-0.686768 6.14439 0.723098)
(1.06 5.649 1.53697)
(0.934106 5.20128 2.0018)
(-3.13578 3.66798 0.348206)
(-3.56705 3.33107 1.22605)
(0.508321 4.3483 3.486)
(0.997295 3.80025 3.08231)
(0.493048 4.04373 0.947437)
(-1.51032 4.68596 1.79042)
(0.400439 3.64848 2.11964)
(-0.758834 2.2865 2.69124)
(-0.0316006 2.58853 0.664026)
(-0.0315829 3.17197 -0.0820765)
(1.27015 3.86205 -0.609296)
(-0.439942 1.55644 0.766212)
(-0.040023 1.56657 0.775415)
(-0.631244 1.20915 2.50727)
(-0.239258 1.88303 2.76218)
(0.376365 1.64656 1.75402)
(0.0574742 1.70019 1.32302)
(0.0685369 2.01645 1.35206)
(1.60017 0.769385 -0.80817)
(2.24146 1.92597 -1.43833)
(0.1205 1.28732 0.851085)
(0.661607 1.14531 0.0815375)
(0.442318 1.10623 -0.553419)
(-0.191549 0.93764 -1.05042)
(-0.344919 0.640964 -1.33833)
(-0.197929 0.696884 -1.05082)
(0.212667 -0.826773 -0.888252)
(0.816395 -0.273018 -2.59959)
(-0.071292 0.498554 -2.15196)
(-0.184736 0.722602 -2.41696)
(0.604818 0.456234 -1.95976)
(0.302517 0.320175 -1.40317)
(0.259917 0.236364 -1.44001)
(0.201287 -0.112754 -1.09166)
(0.403548 -0.0590007 -0.893584)
(-1.97934 2.10037 -0.158559)
(-2.19435 2.33206 -0.145632)
(-1.40721 2.89368 0.128028)
(-2.49156 2.3431 0.247614)
(-0.868515 3.31319 0.308794)
(-0.045259 3.65503 0.509103)
(-2.45737 3.18922 0.0276135)
(-2.04123 4.10242 0.516821)
(-0.518536 4.63418 0.924867)
(-0.097142 4.60916 1.23764)
(-2.55905 4.21759 0.322114)
(-0.65039 5.8995 -0.200776)
(0.473039 5.6816 1.29805)
(0.717987 5.30218 2.09622)
(1.79494 4.75488 2.39353)
(-3.41668 3.34861 0.0320853)
(-3.22027 3.03021 1.89323)
(-0.248398 3.93048 3.11878)
(0.719659 3.96508 2.97998)
(0.563796 4.28664 1.31351)
(0.15482 4.69139 1.0198)
(-1.22502 4.71969 1.93948)
(0.249276 3.5415 2.13304)
(-0.886972 2.41743 2.94484)
(-0.409515 2.65198 1.1468)
(-0.493276 3.14128 0.191778)
(1.14144 3.89491 -0.789187)
(1.59925 3.92002 -0.28277)
(-1.13109 1.28379 1.07777)
(-0.573195 1.12505 0.904416)
(-0.921888 1.07969 2.51939)
(-1.28753 2.19408 2.27468)
(0.259617 1.71269 2.03149)
(-0.0674924 1.58534 1.26082)
(-0.000923237 1.87073 1.33286)
(0.235234 1.81889 0.676489)
(1.0518 0.667287 -0.636057)
(1.82991 1.79964 -1.3365)
(0.225967 1.30104 0.418984)
(0.669776 1.27866 -0.181823)
(0.439777 1.14946 -0.66954)
(-0.221086 0.982779 -1.00648)
(-0.414241 0.634532 -1.28189)
(-0.342142 0.636886 -1.06168)
(0.203927 0.87733 -0.700816)
(0.211801 -0.809228 -0.849629)
(0.630532 -0.412539 -2.47866)
(-0.10947 0.444181 -2.3473)
(-0.254207 0.675188 -2.30094)
(0.678933 0.461871 -1.98272)
(0.216231 0.297114 -1.35915)
(0.171738 0.227189 -1.41546)
(0.140712 -0.119598 -1.07516)
(0.311726 -0.0510565 -0.859672)
(0.633186 0.117985 -1.66321)
(-1.63629 1.97095 -0.0561797)
(-2.09052 2.00689 -0.166876)
(-1.0195 2.61371 -0.00666157)
(-2.19769 2.35361 -0.195839)
(-1.17468 3.09509 0.126066)
(-0.423755 3.42003 0.0274698)
(-2.55751 2.35296 0.145749)
(-1.2646 3.08037 0.391186)
(-0.288759 3.64702 0.576722)
(0.183118 3.8581 0.743558)
(-2.64057 3.08503 0.0219404)
(-2.30801 4.1117 0.571864)
(-1.18597 4.7256 0.760349)
(-0.562753 4.46955 1.1973)
(0.0284553 4.25526 1.49574)
(-3.39159 3.7499 -0.00172502)
(-1.42582 5.3293 0.247757)
(-1.03163 5.46322 1.02506)
(-0.0974909 5.51072 1.76606)
(0.258498 5.3329 1.87227)
(0.897718 4.91098 1.89262)
(-3.38443 3.28478 0.348051)
(-3.15036 2.99659 2.17072)
(-1.61134 3.33699 2.20867)
(-0.12124 3.93356 2.91309)
(0.575873 4.3405 2.07675)
(0.0427461 4.68355 1.09885)
(0.723662 4.94653 1.13397)
(-2.14371 4.01785 1.87675)
(0.496963 3.90175 2.02378)
(-1.2335 2.38439 3.10635)
(-0.874356 2.57988 1.50142)
(-0.74911 3.08691 0.574247)
(0.452209 3.64433 0.341562)
(1.60144 3.78569 -0.0507205)
(1.66097 3.58387 0.262247)
(-1.66976 0.940412 1.25065)
(-0.994264 0.877818 1.1147)
(-0.993471 1.02793 2.48712)
(-1.3222 2.12913 2.21612)
(-0.102912 1.91101 2.12291)
(-0.110273 1.586 1.3793)
(-0.03258 1.77271 1.23314)
(0.238473 1.76155 0.755147)
(0.537744 1.84406 0.217602)
(0.5759 0.529797 -0.516351)
(1.40889 1.6501 -1.16009)
(0.304142 1.33664 0.126978)
(0.660434 1.39481 -0.527876)
(0.352687 1.18504 -0.784495)
(-0.340608 0.976134 -0.970355)
(-0.476602 0.60682 -1.20112)
(-0.454778 0.573926 -1.0989)
(-0.0504823 0.84334 -0.657837)
(0.772178 1.20875 -1.28895)
(0.200519 -0.78888 -0.818461)
(0.533221 -0.458148 -2.36348)
(-0.180371 0.423239 -2.55064)
(-0.245652 0.648185 -2.22624)
(0.729067 0.46613 -1.97242)
(0.132565 0.274239 -1.31001)
(0.0961309 0.214446 -1.375)
(0.106526 -0.12331 -1.06799)
(0.269086 -0.0440428 -0.879714)
(0.640892 0.137961 -1.56575)
(0.420156 0.412087 -2.48509)
(-1.49055 1.76769 0.0138152)
(-1.71588 1.86829 -0.0296919)
(-1.48193 2.34496 -0.0703985)
(-2.14933 1.9447 -0.166881)
(-0.978094 2.6758 0.0541993)
(-0.628326 3.05539 0.020528)
(-2.25039 2.27744 -0.150045)
(-1.62753 2.81478 0.116743)
(-0.946725 3.3837 0.0351413)
(-0.323148 3.43023 0.545206)
(-2.85336 2.02926 0.127256)
(-1.3873 3.13185 0.481829)
(-0.624046 3.66308 0.531465)
(0.112388 3.78681 0.82648)
(0.00919875 3.61793 0.997509)
(-2.91505 2.88167 0.0437703)
(-2.44004 4.0899 0.597052)
(-1.53834 4.65646 0.703312)
(-0.840146 4.46292 1.15778)
(-0.373268 4.41831 1.34057)
(0.590118 4.1405 1.57065)
(-3.62689 3.68292 -0.0212587)
(-1.44062 5.32954 0.519262)
(-1.94636 5.14827 0.60661)
(-0.851936 5.4889 1.40382)
(-0.273061 5.31324 1.77845)
(0.986581 4.9203 1.93013)
(0.588182 4.93759 1.52075)
(-3.70558 3.02524 0.109263)
(-2.95604 3.00224 2.09766)
(-2.41063 3.04408 1.77667)
(-1.0929 3.7593 2.58676)
(-0.172013 4.40349 2.48127)
(0.11731 4.72149 1.46746)
(0.453516 5.13179 1.25113)
(1.16561 5.1349 1.31328)
(-3.18497 3.10213 1.68378)
(-0.437761 3.7811 2.58348)
(-1.35775 2.56004 2.94363)
(-1.11351 2.69276 1.42574)
(-0.916901 3.04579 0.916983)
(-0.740307 3.42477 0.649595)
(0.0693662 3.40745 0.751197)
(0.431734 3.45325 0.527889)
(0.815422 3.21675 0.589738)
(-1.56748 0.832632 1.17052)
(-1.29539 0.599263 1.35573)
(-0.953081 1.04834 2.5029)
(-1.39575 2.09901 2.10601)
(-0.480918 1.88671 2.24322)
(-0.122469 1.66162 1.61892)
(-0.0981726 1.77083 1.23192)
(0.0775909 1.77305 0.888209)
(0.323273 1.86736 0.414802)
(0.638598 1.84349 -0.266016)
(0.173504 0.345409 -0.395754)
(1.03585 1.56283 -0.970373)
(0.389202 1.44091 -0.312425)
(0.619934 1.4802 -0.94396)
(0.226292 1.19505 -0.887094)
(-0.408558 0.956939 -0.912408)
(-0.517554 0.589867 -1.0881)
(-0.534959 0.499255 -1.16369)
(-0.140903 0.816854 -0.656505)
(0.745484 1.25087 -1.21793)
(0.18235 0.576708 -1.33818)
(0.180039 -0.759379 -0.799051)
(0.540092 -0.487729 -2.25301)
(-0.157189 0.356421 -2.72905)
(-0.215829 0.618647 -2.20267)
(0.707386 0.440947 -1.93716)
(0.0740098 0.243345 -1.27881)
(0.0354267 0.199894 -1.32149)
(0.0934146 -0.123677 -1.06593)
(0.268649 -0.0353981 -0.910481)
(0.657341 0.156634 -1.50557)
(0.486457 0.429748 -2.53172)
(0.449571 0.433969 -2.05701)
(-1.3755 1.6172 0.00244437)
(-1.58449 1.61579 0.0646085)
(-1.05666 2.24827 0.0071565)
(-1.45717 1.81791 0.043079)
(-1.7788 1.76289 -0.0478035)
(-1.86358 2.16146 -0.069966)
(-0.724364 2.66664 0.385248)
(-2.12476 1.93969 -0.146824)
(-1.06981 2.81967 -0.0197532)
(-1.06647 2.959 0.148951)
(-0.703218 3.13383 0.235373)
(-2.28939 2.20177 -0.0893516)
(-2.1795 2.62567 0.055328)
(-1.08414 3.43812 0.173656)
(-0.663575 3.51086 0.484)
(-0.356893 3.50728 0.586951)
(-3.01051 1.98381 0.111413)
(-1.96258 2.97737 0.339612)
(-0.938958 3.55386 0.595332)
(-0.512485 3.68814 0.714961)
(-0.239516 3.65182 0.951339)
(0.0544992 3.57744 1.1591)
(-3.23526 2.54815 0.0586612)
(-2.52012 4.0604 0.56952)
(-1.86567 4.34534 0.760702)
(-0.913471 4.407 1.17871)
(-0.350747 4.47546 1.27305)
(-0.195831 4.20007 1.63971)
(0.483135 4.10797 1.61378)
(-4.00648 3.37663 0.0490872)
(-1.58542 5.07928 0.720484)
(-2.06838 4.95913 0.61223)
(-0.695878 5.45377 1.13421)
(-0.339896 5.29516 1.7098)
(0.200622 5.22301 1.6108)
(0.808524 5.0373 1.42752)
(1.04479 4.80824 1.3457)
(-3.95998 2.71388 -0.301609)
(-2.64812 3.13749 2.03135)
(-2.58451 2.94485 1.56886)
(-1.16576 3.56114 2.18828)
(-0.435865 4.31423 2.39211)
(0.0884519 4.67366 2.08997)
(0.136961 5.15327 1.55059)
(0.772505 5.16885 1.08953)
(1.1122 4.54756 1.86306)
(-1.31264 3.55126 0.746025)
(-0.616007 3.41619 3.24909)
(-1.22952 2.72961 3.08946)
(-1.3131 2.71134 1.47108)
(-1.0878 2.99759 1.1083)
(-1.11141 3.06305 1.23819)
(-0.591998 3.26217 1.02851)
(-0.680395 3.03168 0.634391)
(-0.487113 3.13785 0.873424)
(0.0503493 2.96115 0.891236)
(-0.867449 0.979533 0.875396)
(-1.13872 0.565095 1.34884)
(-1.14517 0.964839 2.63243)
(-1.44311 2.25706 1.82979)
(-0.724643 1.86638 2.35886)
(-0.125295 1.76142 1.8435)
(-0.148476 1.79619 1.35922)
(0.0889294 1.8291 0.881212)
(0.183303 1.9404 0.461729)
(0.430722 1.87928 -0.277078)
(0.68621 1.89656 -0.813625)
(-0.132448 0.150677 -0.212749)
(0.786984 1.49419 -0.881754)
(0.425825 1.53271 -0.81232)
(0.531945 1.5186 -1.4135)
(0.0856077 1.16763 -0.990468)
(-0.468726 0.906933 -0.850535)
(-0.574178 0.572767 -0.922161)
(-0.568334 0.442981 -1.18516)
(-0.21385 0.777321 -0.699264)
(0.655547 1.29571 -1.08902)
(0.1519 0.528673 -1.22773)
(0.0152187 0.665658 -0.781602)
(0.151456 -0.720551 -0.796712)
(0.541174 -0.484581 -2.15386)
(-0.138882 0.357834 -2.88707)
(-0.155969 0.617106 -2.13822)
(0.63945 0.389902 -1.90076)
(0.0708482 0.234923 -1.28623)
(-0.0130532 0.185496 -1.26117)
(0.0952242 -0.118206 -1.06919)
(0.28236 -0.0185042 -0.942709)
(0.683726 0.182663 -1.49246)
(0.548314 0.454726 -2.5672)
(0.442912 0.435929 -2.2286)
(0.481061 0.379762 -1.73228)
(-1.35413 1.45097 0.0198976)
(-1.39159 1.57764 -0.0382344)
(-1.3422 1.85916 0.0739221)
(-1.23546 1.70477 0.0172059)
(-1.646 1.5344 0.0708965)
(-1.21688 2.1018 -0.00729937)
(-0.825733 2.39681 0.235643)
(-1.12948 2.26147 0.0159331)
(-1.93648 1.58677 0.0399118)
(-1.88537 2.14629 -0.0521123)
(-0.876834 2.6299 0.332373)
(-0.681945 2.70762 0.20424)
(-2.14224 1.91834 -0.0270508)
(-1.75091 2.57893 -0.102156)
(-0.832322 3.03464 0.0908263)
(-0.585381 3.18002 0.178915)
(-0.526481 3.12322 0.344114)
(-2.45256 2.01069 -0.0786983)
(-2.31102 2.64496 -0.0150669)
(-1.01372 3.45949 0.192319)
(-0.857254 3.43097 0.440075)
(-0.432398 3.4786 0.580431)
(0.0333788 3.43048 0.893753)
(-3.3448 1.43878 0.0240828)
(-2.03566 2.97004 0.589008)
(-1.32684 3.357 0.75199)
(-0.753724 3.64606 0.736797)
(-0.163721 3.65008 1.04587)
(-0.0791737 3.58743 1.15811)
(0.20167 3.49985 1.36823)
(-3.33106 2.51032 0.124124)
(-2.8785 4.03336 0.557783)
(-2.24554 4.09338 0.790284)
(-1.49263 4.16103 1.02671)
(-0.697408 4.26408 1.36923)
(-0.263926 4.34901 1.43868)
(0.365638 4.15074 1.58256)
(0.355595 4.01981 1.63292)
(-3.99295 3.30226 0.163289)
(-2.39954 4.51997 0.679616)
(-2.21976 4.72402 0.853293)
(-1.25886 5.18948 1.16679)
(-0.647646 5.377 1.37589)
(-0.318818 5.19648 1.60965)
(-0.121397 5.12157 1.46799)
(0.921707 4.85335 1.42265)
(0.247814 4.69581 1.73538)
(-3.98799 2.51757 -0.447974)
(-2.8508 3.0856 2.36676)
(-2.77576 2.85472 1.38132)
(-1.62142 3.29567 1.63593)
(-0.668484 4.01147 2.19883)
(-0.388651 4.5741 2.45807)
(-0.211145 4.91666 2.07106)
(0.640751 4.74128 2.02432)
(0.930611 4.50628 1.95045)
(0.804004 3.98888 2.45708)
(-1.12421 3.54823 -0.046777)
(-0.824075 3.22783 3.4566)
(-1.03975 3.06216 3.46555)
(-1.7145 2.65796 1.72153)
(-1.19142 2.87942 1.26429)
(-1.21047 2.94685 1.44597)
(-1.10651 3.12365 1.15304)
(-0.979918 2.9069 0.619448)
(-0.336504 3.08763 0.728417)
(-0.369952 2.97979 0.805597)
(-0.0894935 2.94951 0.170186)
(-0.457645 1.17836 0.684395)
(-0.527457 0.797992 0.831324)
(-1.5063 0.869859 2.56092)
(-1.41265 2.39651 1.53856)
(-0.690613 1.92841 2.52719)
(-0.0533164 1.84936 2.04308)
(-0.441383 1.81995 1.44534)
(0.0549599 1.89187 0.833006)
(0.0603039 2.02083 0.521458)
(0.185165 2.05284 -0.151628)
(0.49638 2.01811 -0.65584)
(1.25128 1.98482 -1.51191)
(-0.28885 -0.013319 0.0732051)
(0.583771 1.44174 -0.993375)
(0.347834 1.63648 -1.3369)
(0.430066 1.51405 -1.8855)
(-0.0474925 1.09547 -1.0924)
(-0.520403 0.843163 -0.809926)
(-0.640734 0.547793 -0.754855)
(-0.613017 0.380606 -1.13522)
(-0.335378 0.702473 -0.795666)
(0.576898 1.29059 -0.886048)
(0.152114 0.49093 -1.05003)
(-0.179599 0.549486 -0.685399)
(0.997131 1.08653 -0.435391)
(0.13205 -0.686643 -0.813974)
(0.536254 -0.476142 -2.05363)
(-0.0722366 0.3704 -3.0189)
(-0.0780752 0.648343 -2.04724)
(0.548265 0.329351 -1.86372)
(0.0822183 0.23641 -1.31826)
(-0.0538089 0.17199 -1.19885)
(0.100812 -0.108352 -1.07995)
(0.315157 0.00878337 -0.976585)
(0.714155 0.206638 -1.51465)
(0.606212 0.48745 -2.59359)
(0.468649 0.44506 -2.38414)
(0.398571 0.358931 -1.85202)
(0.408429 0.342815 -1.83423)
(-1.3576 1.29711 -0.0228544)
(-1.37266 1.41827 0.0494695)
(-1.15468 1.83822 0.119365)
(-1.25887 1.51632 0.0519298)
(-1.55747 1.38489 -0.0260707)
(-1.32204 1.87823 0.114245)
(-1.05144 2.14638 0.0215796)
(-1.23432 1.89865 0.00557337)
(-1.74744 1.41517 0.0746286)
(-1.46028 1.90339 -0.0367559)
(-1.03908 2.35241 0.117985)
(-0.703448 2.42806 0.385281)
(-0.726561 2.41035 0.279391)
(-1.94582 1.57547 0.0489384)
(-1.87171 2.139 -0.0488441)
(-1.04235 2.59715 0.332498)
(-0.887341 2.73778 0.072631)
(-0.560715 2.80945 0.409971)
(-2.24456 1.84255 0.0477256)
(-1.96132 2.40629 -0.107591)
(-0.975453 2.95842 0.0790455)
(-0.960631 3.09832 0.175753)
(-0.443198 3.13852 0.39785)
(-0.536613 3.21874 0.543721)
(-2.58542 1.8422 -0.195321)
(-2.34334 2.52083 -0.0289058)
(-1.28139 3.23535 0.178197)
(-1.0195 3.37014 0.350508)
(-0.36091 3.48543 0.611863)
(-0.416135 3.46183 0.815382)
(0.14554 3.52464 0.998756)
(-3.31394 1.61363 0.0745546)
(-2.23632 2.8845 0.388464)
(-1.82603 3.08019 0.452889)
(-1.10586 3.49738 0.646292)
(-0.509377 3.4874 1.09597)
(-0.458092 3.45405 1.16294)
(-0.40357 3.44976 1.35498)
(0.390094 3.48047 1.52283)
(-3.60786 2.20911 0.103003)
(-3.05153 3.92755 0.452638)
(-2.25508 4.12516 0.842899)
(-1.30175 4.2711 1.00764)
(-0.461293 4.39515 1.15826)
(-0.385459 4.34509 1.40258)
(-0.19722 4.29936 1.64559)
(0.124093 4.02086 1.73039)
(0.300087 3.865 1.99794)
(-3.81822 3.32021 0.189899)
(-2.98221 4.33124 0.734895)
(-2.55115 4.43719 0.523898)
(-2.15319 4.7815 0.893951)
(-0.645715 5.36382 1.07963)
(-0.452293 5.11882 1.29222)
(-0.0631587 5.11189 1.44009)
(0.355132 4.94918 1.34261)
(0.36794 4.63173 1.61882)
(-0.047114 4.55602 1.8689)
(-4.28009 2.14865 -0.213771)
(-2.80202 3.01769 2.51957)
(-2.89659 2.98109 1.46885)
(-1.36243 3.48148 1.57354)
(-1.5403 3.59443 1.66299)
(-0.309 4.55027 1.935)
(-0.260298 4.8698 1.81732)
(-0.272886 4.66367 1.88739)
(0.722378 4.3861 1.70744)
(-0.901479 4.05981 1.92047)
(-0.124633 3.99696 1.67924)
(-2.48791 2.4091 0.00828913)
(-0.247681 3.10271 3.27896)
(-1.85096 3.00502 3.30693)
(-1.52709 2.86896 2.03243)
(-1.27514 2.88147 1.26749)
(-1.19875 2.8656 1.45924)
(-1.34254 2.9706 1.22371)
(-1.15498 2.88406 0.648897)
(-0.675695 2.85726 0.633171)
(-0.652376 2.88682 0.796381)
(0.0354261 2.72774 1.31511)
(0.0162255 3.16983 0.584543)
(-0.232681 1.36567 0.404676)
(0.0854065 1.08665 0.132517)
(-1.60052 0.841497 2.27905)
(-1.45358 2.39924 1.22976)
(-0.692569 1.99953 2.50215)
(-0.047118 2.01191 2.05318)
(-0.893917 1.72517 1.37995)
(-0.169409 1.88569 0.840989)
(0.0994883 2.0523 0.662641)
(0.710719 2.26054 0.0741599)
(0.372719 2.02374 -0.614056)
(1.30866 2.04516 -1.18779)
(1.90485 2.19037 -1.40129)
(-0.233491 -0.0112121 0.211373)
(0.406476 1.31447 -1.1296)
(0.27466 1.73895 -1.85029)
(0.325965 1.42327 -2.49624)
(-0.108811 1.00644 -1.17919)
(-0.428368 0.774541 -0.915253)
(-0.679055 0.536641 -0.674674)
(-0.653591 0.340409 -1.04573)
(-0.456069 0.580711 -0.914252)
(0.502566 1.26674 -0.538733)
(0.150861 0.446756 -0.813865)
(-0.270881 0.423363 -0.572107)
(0.823751 0.979638 -0.209945)
(1.15794 0.962619 -0.627705)
(0.112867 -0.65792 -0.840145)
(0.51995 -0.471879 -1.9596)
(0.00687266 0.40774 -3.10166)
(0.0807899 0.717817 -1.97639)
(0.464455 0.268903 -1.82248)
(0.0997339 0.23532 -1.3725)
(-0.0905371 0.15858 -1.14397)
(0.0834012 -0.110373 -1.09408)
(0.370762 0.0499088 -1.01288)
(0.741924 0.24171 -1.53607)
(0.658982 0.523127 -2.61456)
(0.533804 0.465533 -2.51637)
(0.352144 0.336042 -1.94874)
(0.390047 0.315128 -1.89299)
(0.517399 0.204227 -1.66397)
(-1.08394 1.45693 0.000167555)
(-1.41426 1.2273 -0.0316784)
(-1.13513 1.75233 0.0105765)
(-1.223 1.42138 -0.0101549)
(-1.4143 1.3691 -0.011648)
(-1.2606 1.75345 0.110481)
(-0.922563 2.0595 0.0607124)
(-0.885773 1.96806 0.103588)
(-1.63895 1.28232 0.0274851)
(-1.39672 1.80866 0.0902855)
(-1.07192 2.10289 0.0193309)
(-0.849167 2.22351 0.235202)
(-0.924164 2.1927 0.00955421)
(-1.8042 1.37672 0.128519)
(-1.56526 1.81237 -0.0687763)
(-1.13501 2.32018 0.0851185)
(-0.880946 2.44725 0.314105)
(-0.557734 2.58505 0.4046)
(-0.598563 2.42689 0.367664)
(-2.05587 1.43944 0.125644)
(-1.99533 1.97259 0.00965479)
(-1.26418 2.6224 0.244276)
(-0.982123 2.75772 0.144526)
(-0.724759 2.7757 0.474356)
(-0.584554 2.88431 0.437671)
(-2.35458 1.76033 0.0778104)
(-2.05357 2.26658 -0.111795)
(-1.18628 2.95961 0.229299)
(-1.08235 3.07945 0.200273)
(-0.393937 3.19496 0.402073)
(-0.645857 3.21618 0.552045)
(0.0500074 3.20933 0.876956)
(-2.79559 1.59442 -0.173302)
(-2.38973 2.42254 -0.00358432)
(-1.52333 3.04212 0.307292)
(-1.19206 3.34689 0.357355)
(-0.733307 3.4224 0.625947)
(-0.507631 3.45125 0.791088)
(0.0881399 3.49906 0.930642)
(0.20604 3.51775 1.13136)
(-3.57003 0.91253 -0.0349874)
(-1.9461 3.23242 0.180778)
(-1.61157 3.22884 0.437168)
(-1.21443 3.47519 0.58067)
(-0.306369 3.59125 0.936564)
(-0.550656 3.52527 1.03002)
(0.530212 3.4821 1.46936)
(-0.39538 3.37946 1.4692)
(0.19027 3.41542 1.60028)
(-3.80684 2.19531 0.227151)
(-3.11364 3.66685 0.520439)
(-2.21976 3.99665 0.764815)
(-1.83836 4.05516 0.919831)
(-0.892763 4.28341 1.30045)
(-0.324599 4.40045 1.29645)
(-0.0689966 4.25675 1.58034)
(-0.147775 4.21181 1.76619)
(0.362612 3.77637 2.06832)
(0.14921 3.80036 2.10939)
(-4.50869 2.14052 -0.348007)
(-2.9726 4.28424 1.03714)
(-2.68685 4.13005 0.451787)
(-2.52111 4.48137 0.715705)
(-1.09976 5.20267 1.08173)
(-0.0826566 5.17996 0.9434)
(-0.0678251 5.10578 1.27964)
(-0.411219 4.80393 1.69061)
(0.321009 4.60036 1.68181)
(-0.178241 4.55129 1.81238)
(-0.0692976 4.37444 1.76421)
(-4.1355 3.00492 -0.276911)
(-2.22082 3.2155 2.3088)
(-3.04115 2.92412 2.01316)
(-1.65599 3.44601 1.7673)
(-0.828823 3.7901 1.27152)
(-0.260253 4.28884 1.55137)
(-0.241127 4.69925 1.97232)
(0.00516524 4.4974 1.74997)
(-0.736692 4.07447 1.72147)
(0.422353 4.04996 1.67894)
(-0.40611 4.00062 1.48123)
(-0.0879443 4.01367 1.5544)
(-2.69222 2.15789 0.261329)
(0.209792 3.10334 2.49988)
(-1.74661 2.97612 3.22446)
(-1.24505 3.17449 2.27026)
(-1.37051 2.78951 1.48248)
(-1.35449 2.66019 1.26479)
(-1.24578 3.00005 0.944489)
(-1.32234 2.84998 0.614911)
(-0.809853 2.8349 0.595796)
(-0.674455 2.83551 0.910165)
(-0.340446 3.07259 0.807634)
(-0.220362 3.03551 0.644876)
(1.46365 3.03974 0.184204)
(-0.168969 1.63892 0.138893)
(0.653979 1.24777 -0.819748)
(-1.55157 0.954308 1.83171)
(-1.52082 2.35421 1.31329)
(-0.631877 2.00942 2.44174)
(-0.0198437 2.12054 1.96479)
(-0.960859 1.74578 1.36461)
(-0.395398 1.85586 0.866828)
(-0.0720954 2.0732 0.780308)
(-0.0895638 2.43116 0.290036)
(0.439294 2.13254 -0.428755)
(1.07205 2.17204 -0.984681)
(2.03709 2.15237 -1.6317)
(1.95927 2.46735 -0.983272)
(-0.0369441 0.152732 0.155684)
(0.264366 1.2441 -1.30165)
(0.0953877 1.71064 -2.27823)
(0.105612 1.3301 -2.72033)
(-0.0991611 0.926633 -1.2468)
(-0.381933 0.754862 -0.955157)
(-0.69062 0.529334 -0.671651)
(-0.653185 0.327636 -0.960551)
(-0.491781 0.495903 -0.960108)
(0.243865 1.20007 -0.213152)
(0.12393 0.42925 -0.53883)
(-0.244393 0.320912 -0.492751)
(0.499101 0.83373 0.0504964)
(0.985276 0.872663 -0.394883)
(0.929024 0.709875 -0.730914)
(0.09625 -0.620905 -0.8758)
(0.495944 -0.478122 -1.87078)
(0.0892231 0.45682 -3.14112)
(0.1642 0.754674 -1.95406)
(0.412906 0.220652 -1.7807)
(0.111947 0.232777 -1.43701)
(-0.0991944 0.156784 -1.1349)
(0.0602843 -0.115486 -1.1055)
(0.451265 0.111718 -1.05086)
(0.752265 0.283132 -1.55772)
(0.709668 0.572933 -2.62237)
(0.626125 0.497109 -2.61846)
(0.395733 0.332587 -1.9979)
(0.406427 0.299072 -1.88715)
(0.420482 0.183699 -1.62301)
(0.766122 0.310812 -1.69826)
(-1.25619 1.35622 0.0242972)
(-1.14428 1.33801 0.0188901)
(-1.03054 1.72642 0.038206)
(-0.97752 1.56737 -0.0230679)
(-1.40996 1.22134 -0.0431883)
(-1.18955 1.71564 -0.0674989)
(-0.951927 1.96207 0.071892)
(-0.932279 1.82478 0.0662554)
(-1.04621 1.5641 -0.00941035)
(-1.50114 1.26948 -0.0419367)
(-1.21488 1.75525 0.116201)
(-0.976666 2.00869 0.111207)
(-0.898829 2.15297 0.185092)
(-0.764981 2.08532 -0.021824)
(-1.73537 1.20847 -0.00284411)
(-1.57494 1.61971 0.0157992)
(-1.16252 2.02201 0.0620221)
(-0.969896 2.18741 0.252733)
(-0.59371 2.38521 0.256858)
(-0.57396 2.28831 0.210992)
(-1.99296 1.14587 0.150384)
(-1.64932 1.76512 0.0289708)
(-1.16234 2.29683 0.0840479)
(-0.984422 2.45809 0.194661)
(-0.922223 2.4987 0.282912)
(-0.626013 2.5835 0.385333)
(-0.484455 2.54303 0.392057)
(-2.21213 1.31702 0.115695)
(-2.07615 1.88756 0.0453702)
(-1.5164 2.61095 0.211104)
(-1.13768 2.73966 0.19715)
(-0.904237 2.82934 0.403618)
(-0.640317 2.86161 0.473696)
(-0.289287 2.88091 0.571699)
(-2.54261 1.49843 0.0371212)
(-2.25053 2.11419 -0.101193)
(-1.76812 2.73924 0.29177)
(-1.39021 2.95078 0.289156)
(-0.790858 3.18764 0.371416)
(-0.73102 3.15932 0.591961)
(-0.30264 3.20272 0.808434)
(0.240059 3.15867 1.04191)
(-2.91544 1.32669 -0.117344)
(-2.69582 2.27849 0.0523887)
(-1.60535 2.99212 0.32944)
(-1.39526 3.28596 0.35123)
(-0.992432 3.33156 0.586802)
(-0.700687 3.3889 0.749612)
(-0.439468 3.39553 0.953115)
(-0.116992 3.4411 1.10562)
(0.247374 3.536 1.22959)
(-3.53858 1.13556 -0.0189141)
(-3.06438 2.15339 0.479085)
(-1.89194 3.03154 0.662808)
(-1.42422 3.33476 0.601651)
(-0.957618 3.50581 1.13593)
(-0.495395 3.56578 1.23257)
(-0.451814 3.54574 1.6128)
(0.30716 3.48841 1.58526)
(-0.182757 3.4503 1.60205)
(0.153527 3.5362 1.62551)
(-3.87403 2.09895 0.285451)
(-3.37768 3.51607 0.574002)
(-2.12067 3.76029 1.02459)
(-0.944148 4.0716 1.0882)
(-0.900434 4.25172 1.12709)
(-0.610094 4.3143 1.3352)
(-0.355865 4.11438 1.56502)
(-0.371364 4.08758 1.77517)
(-0.0876347 3.83618 2.09313)
(-0.00168791 3.73721 2.14862)
(-0.278724 3.66551 2.07542)
(-4.61242 2.14225 -0.433795)
(-2.83998 4.21491 1.55346)
(-2.11855 4.13304 1.26591)
(-2.74493 4.17386 0.916114)
(-1.65542 4.92733 1.04795)
(-0.733215 5.13289 0.952741)
(-0.504853 5.0661 1.10996)
(0.0072 4.89181 0.99941)
(-0.4636 4.64038 1.61502)
(-0.663409 4.43893 1.73511)
(-0.614692 4.31444 1.78563)
(-0.112819 4.25115 1.63879)
(-4.92345 1.39081 0.245181)
(-2.31142 3.05109 1.93309)
(-2.7539 3.08798 2.08255)
(-2.40209 3.17591 1.90369)
(-1.78733 3.36471 1.20861)
(-0.712152 4.02957 1.06564)
(-0.709501 4.4961 1.72001)
(-0.52168 4.27693 1.64134)
(-0.526552 4.07436 1.3854)
(-0.698448 4.06287 1.40842)
(-0.526891 4.05735 1.37579)
(-0.256244 4.13117 1.40113)
(-0.159071 4.02278 1.4818)
(-2.95108 2.23234 0.499312)
(0.351629 3.33512 1.08713)
(-1.86928 2.89638 3.28564)
(-1.20505 3.64724 2.43673)
(-1.48942 3.04115 1.28866)
(-1.31767 2.78036 1.02855)
(-1.49119 2.77359 0.958404)
(-1.45829 2.68923 0.707556)
(-0.944307 2.80523 0.554799)
(-0.777875 2.92527 0.892118)
(-0.427282 3.08189 0.603647)
(-0.354478 3.0685 0.586437)
(0.273796 3.3723 0.518213)
(0.491386 3.20298 1.12732)
(-0.179337 1.81764 0.0131205)
(0.855483 1.47797 -0.992475)
(-1.19973 1.13004 0.894979)
(-1.51422 2.26603 1.41527)
(-0.645368 2.00687 2.3457)
(-0.23417 2.13538 1.83805)
(-1.174 1.71036 1.43487)
(-0.705298 1.76581 0.945574)
(-0.221636 2.07361 0.730886)
(-0.207098 2.38857 0.279963)
(-0.262378 2.14167 -0.888461)
(0.773184 2.17829 -1.10424)
(1.92164 2.3196 -1.61421)
(2.13798 2.47621 -1.32058)
(1.95533 2.52405 -0.139413)
(0.167544 0.383179 -0.0497211)
(0.150889 1.23861 -1.56261)
(-0.17251 1.7604 -2.50235)
(0.0276043 1.23653 -2.73804)
(-0.0759405 0.816732 -1.4081)
(-0.347929 0.695129 -1.0209)
(-0.718415 0.529232 -0.683191)
(-0.721611 0.288879 -0.835423)
(-0.475552 0.39338 -0.982044)
(-0.395557 0.920302 0.0963839)
(0.0284074 0.40099 -0.333796)
(-0.113502 0.259243 -0.469845)
(0.00755362 0.632276 0.30987)
(0.749743 0.73883 -0.129741)
(0.778299 0.612027 -0.38627)
(0.769335 0.539964 -0.305898)
(0.105249 -0.589242 -0.897297)
(0.473255 -0.487909 -1.79017)
(0.113655 0.459681 -3.12972)
(0.245661 0.819478 -1.9268)
(0.399201 0.203089 -1.75663)
(0.119381 0.227284 -1.50514)
(-0.0950698 0.161861 -1.14266)
(0.0535069 -0.103595 -1.11041)
(0.531233 0.180094 -1.10048)
(0.743826 0.32585 -1.58847)
(0.719329 0.605826 -2.60869)
(0.721025 0.535206 -2.68555)
(0.488926 0.356546 -2.01057)
(0.446886 0.292553 -1.83641)
(0.333065 0.158877 -1.57071)
(0.603003 0.296121 -1.67244)
(0.412468 0.318862 -1.66449)
(-0.786805 1.5062 -0.067895)
(-1.33111 1.25374 0.0226776)
(-1.16791 1.71614 -0.0250977)
(-1.11677 1.43902 0.00223598)
(-1.20732 1.26125 0.0126609)
(-1.00205 1.68664 0.0228717)
(-0.808394 1.91974 0.0952811)
(-0.851898 1.8314 0.0552235)
(-0.777878 1.6465 -0.0552732)
(-1.46329 1.18375 -0.0143979)
(-1.31496 1.55395 -0.114667)
(-0.967032 1.95027 0.0198198)
(-0.995929 2.09753 -0.0053898)
(-0.874841 1.96366 0.132889)
(-0.673036 1.9582 0.0615577)
(-1.52709 1.25609 -0.0327875)
(-1.41734 1.5631 0.0486549)
(-1.12514 1.87754 0.0917694)
(-1.01085 2.09806 0.194588)
(-0.606258 2.25109 0.233356)
(-0.604644 2.20992 0.136019)
(-1.90868 1.02114 -0.136237)
(-1.60418 1.59688 -0.121057)
(-1.29747 1.95239 0.0904338)
(-0.954368 2.20123 0.223651)
(-0.720596 2.30477 0.211726)
(-0.565497 2.3593 0.379876)
(-0.491426 2.38254 0.252063)
(-1.95667 1.20996 0.108035)
(-1.75249 1.72663 0.0259254)
(-1.28647 2.21563 0.0249536)
(-1.33379 2.26585 0.214282)
(-0.882915 2.51151 0.276818)
(-0.707108 2.55985 0.351689)
(-0.386293 2.61951 0.454307)
(-0.48534 2.58644 0.498909)
(-2.34121 1.18413 0.00981475)
(-2.2276 1.77078 0.040921)
(-1.6011 2.55602 0.207863)
(-1.19453 2.83229 0.164887)
(-1.0296 2.91127 0.339003)
(-0.905296 2.79828 0.447524)
(-0.313988 2.95533 0.629257)
(-0.289638 2.89079 0.800182)
(-2.67844 1.35817 0.00210843)
(-2.46766 1.96269 -0.0021855)
(-1.92391 2.65311 0.295184)
(-1.4646 2.89477 0.279681)
(-1.00535 3.13915 0.373044)
(-0.849698 3.18279 0.625749)