/*--------------------------------*- C++ -*----------------------------------*\
  =========                 |
  \\      /  F ield         | OpenFOAM: The Open Source CFD Toolbox
   \\    /   O peration     | Website:  https://openfoam.org
    \\  /    A nd           | Version:  7
     \\/     M anipulation  |
\*---------------------------------------------------------------------------*/
FoamFile
{
    version     2.0;
    format      ascii;
    class       volScalarField;
    location    "7.5";
    object      nut;
}
// * * * * * * * * * * * * * * * * * * * * * * * * * * * * * * * * * * * * * //

dimensions      [0 2 -1 0 0 0 0];

internalField   nonuniform List<scalar> 
18750
(
0.00128828
0.00148135
0.00115399
0.00124295
0.00129689
0.00180154
0.00129007
0.000931521
0.000998109
0.00108439
0.00149274
0.00104854
0.00119244
0.000279486
0.00168378
0.00124514
0.00112546
0.000835968
0.000831866
0.000827098
0.00257985
0.000348056
0.00154212
0.00149492
0.00240342
0.00136639
0.000453502
0.000387982
0.000944774
0.00103229
0.000460166
0.00115082
0.000769507
0.00067422
0.00056103
0.00286694
0.00206381
0.00316915
0.00103115
0.00138266
0.00141088
0.000854025
0.00018297
0.000511229
0.000600279
0.00032872
0.000493782
0.000297307
0.00078592
0.000942805
0.00024242
0.000293856
0.00117223
0.000763199
0.000524173
0.000391509
0.00297237
0.00205266
0.00265176
0.00214996
0.00247107
0.00290588
0.00111444
0.00059826
0.00191638
0.00127817
0.000810539
0.00120006
0.00143847
0.00403864
0.000826215
0.000243172
0.000357635
0.000513267
0.0003753
0.000575702
0.000774832
0.000209575
0.000309471
0.000205143
0.00113538
0.000689023
0.000424522
0.000272593
0.00280653
0.00143862
0.00294719
0.00116173
0.00142656
0.00292912
0.00193004
0.00143806
0.00127253
0.00311608
0.000782348
0.000898746
0.000770558
0.00157808
0.00201676
0.000746452
0.000891962
0.00109754
0.000838225
0.000869574
0.000809831
0.000229401
0.000304594
0.000403061
0.00052955
0.000349164
0.000626049
0.000601496
0.000172622
0.000195212
0.000353177
0.000157322
0.00105027
0.000980921
0.000408496
0.000347893
0.00262583
0.00214662
0.00317849
0.00112116
0.000342078
0.00293943
0.000616092
0.00159865
0.00138841
0.00254698
0.00105625
0.00147785
0.00124184
0.000722296
0.00289001
0.00118358
0.000775813
0.000502545
0.00107892
0.00117369
0.00165606
0.000440195
0.000765296
0.000793898
0.000984447
0.000821991
0.0013948
0.00091069
0.000337116
0.000233508
0.000276161
0.000450495
0.00053671
0.000689199
0.00063356
0.000479094
0.00013037
0.000177735
0.000188809
0.000364757
7.46512e-05
0.000891816
0.000846377
0.000316935
0.000343402
0.00265263
0.000817363
0.00258573
0.00101917
0.00117961
0.00311825
0.000813191
0.00148028
0.000703133
0.00303474
0.000865354
0.000599368
0.00107059
0.000873967
0.00259378
0.000989923
0.00102098
0.00125602
0.00107516
0.000718429
0.00295143
0.000870354
0.000788034
0.000479827
0.00104371
0.00101187
0.000912773
0.0013115
0.000516984
0.000462439
0.00073013
0.000761467
0.000817254
0.000723473
0.00175344
0.000833693
0.000329645
0.000340373
0.000198331
0.000317925
0.000498905
0.000573755
0.00102398
0.000684917
0.000474419
0.000255534
0.000162751
0.000206706
0.000270295
0.000344077
0.000159123
0.000685402
0.000404049
0.000369751
0.000348026
0.0027457
0.000697173
0.00272019
0.000985332
0.00110711
0.00260036
0.000899454
0.00120629
0.00114188
0.00298629
0.000895673
0.00121592
0.000707321
0.00128691
0.00303228
0.000680365
0.000707469
0.00134357
0.000879922
0.000729093
0.00274606
0.000220308
0.000978238
0.00124113
0.000951067
0.000796708
0.00116251
0.00278953
0.000979868
0.000948397
0.000762859
0.000493285
0.000506014
0.000846963
0.000972086
0.00134674
0.000410238
0.00054392
0.000578573
0.000641788
0.000632554
0.000790594
0.000612327
0.001138
0.00050017
0.000287789
0.000314409
0.000354024
0.000165154
0.000311235
0.000584021
0.000689799
0.0009512
0.00070349
0.000517761
0.000439137
0.000225829
0.000244883
0.000222444
0.000351385
0.00028077
0.000134841
0.000697561
0.000347541
0.000484004
0.000496327
0.000750547
0.00292898
0.00132754
0.000580774
0.00268995
0.000739866
0.000891281
0.00103674
0.00269686
0.000952832
0.000948134
0.00127017
0.00150324
0.00269371
0.000942806
0.00102164
0.000820028
0.000942464
0.00129877
0.00309792
0.000839661
0.000632302
0.000817006
0.00101891
0.000869445
0.000732675
0.00282692
0.000887734
0.000882644
0.00100207
0.00103996
0.00140894
0.000664283
0.000731642
0.00267726
0.00106426
0.000670613
0.00074979
0.000776552
0.000592807
0.00102543
0.000880683
0.000639194
0.00140599
0.000211242
0.000367504
0.000471556
0.000598394
0.00055605
0.000395941
0.000817663
0.000774426
0.00103723
0.00103803
0.000285781
0.000239504
0.000266531
0.000317301
0.000191146
0.000240154
0.000683243
0.000834927
0.00079681
0.000658822
0.000542806
0.000319181
0.000344762
0.000228581
0.000159766
0.000244562
0.000385658
0.000181499
0.000148267
0.00053917
0.000284225
0.00029478
0.000572833
0.00284225
0.000130391
0.000550317
0.00300533
0.00085159
0.000694884
0.0005781
0.0027626
0.000810112
0.00112467
0.000781
0.000808585
0.00283083
0.000406149
0.00105534
0.000985098
0.000996457
0.00148276
0.00263171
0.000878732
0.000855133
0.000734099
0.00131825
0.00124839
0.000808051
0.0029698
0.000219475
0.000503938
0.000601896
0.00198306
0.000539551
0.000421107
0.000753309
0.0030943
0.000609765
0.000789779
0.000686707
0.00092604
0.000728829
0.00131434
0.000929404
0.00102006
0.00278462
0.00118501
0.000826982
0.000769372
0.000472581
0.000491622
0.000619301
0.00112833
0.0017456
0.00062358
0.00221452
0.000345438
0.000334956
0.0005727
0.000517645
0.000627434
0.000544845
0.000505128
0.000735309
0.000890043
0.000777391
0.00112975
0.000321597
0.000356977
0.000301821
0.000259318
0.000226664
0.000203165
0.00024462
0.000793053
0.000969096
0.000806434
0.000570676
0.000593426
0.000734588
0.000294215
0.000279461
0.000210582
0.00015211
0.000261354
0.000381949
0.000240398
0.00017263
0.000219281
0.000313427
0.000439201
0.000329932
0.00252721
0.000519639
0.00281312
0.000312468
0.00130018
0.000786341
0.00286913
0.000553171
0.000780376
0.000480144
0.000615716
0.00271488
0.000713512
0.000859724
0.00091343
0.000759902
0.0010696
0.00262785
0.000484286
0.00100602
0.00119766
0.000922371
0.00142268
0.00127118
0.00277639
0.000861148
0.00113031
0.000591336
0.00045219
0.00127159
0.000586036
0.00100379
0.00283087
0.000196235
0.000930084
0.000331002
0.000785784
0.000590709
0.000892733
0.000684928
0.000896159
0.00300346
0.000610929
0.000281298
0.000947096
0.000922644
0.000724669
0.000962066
0.000686306
0.00138753
0.000941259
0.00306975
0.000636348
0.000750535
0.000782158
0.000637045
0.000432473
0.000640918
0.000912588
0.00101068
0.00106054
0.000778267
0.00234252
0.000258543
0.000621568
0.000488447
0.000543277
0.000433044
0.000850595
0.000532311
0.000419994
0.000609783
0.000816377
0.000552238
0.00106006
0.000754893
0.000322283
0.000216955
0.000281947
0.000231233
0.000198114
0.000217318
0.000253796
0.000847386
0.00108612
0.00098499
0.000406532
0.000678385
0.00044334
0.000397999
0.000361304
0.000201254
0.000172698
0.000167906
0.000264784
0.000318237
0.000343284
0.000142012
0.000197902
0.00038271
0.000565903
0.000244241
0.00214567
0.000589517
0.00262012
0.000315653
0.000547911
0.00268901
0.000344124
0.00082679
0.000576013
0.000589996
0.00280808
0.000240216
0.000981585
0.000410942
0.000732595
0.000659088
0.00264816
0.000801965
0.000841097
0.000690895
0.000430103
0.00080337
0.000866167
0.00270299
0.00115172
0.00028106
0.00102439
0.00110977
0.00123323
0.00111066
0.00100367
0.00270725
0.000627454
0.00130664
0.000825103
0.00129518
0.0015846
0.000802112
0.000913158
0.00134905
0.00265014
0.000691499
0.00031173
0.000560261
0.000499353
0.000791284
0.00136893
0.000444903
0.000713488
0.000882565
0.00287934
0.000354471
0.000428232
0.00036379
0.0005356
0.000715673
0.000870074
0.00263789
0.00151419
0.00101395
0.00101995
0.00279342
0.000866527
0.00056407
0.00056694
0.000595008
0.000683715
0.000598887
0.000529689
0.000695877
0.00132206
0.00104592
0.000962079
0.00219006
0.000282248
0.000367108
0.00036463
0.000408635
0.00062617
0.000657709
0.00086818
0.000595431
0.000391232
0.000520005
0.000966481
0.000723383
0.0010392
0.000423869
0.000432083
0.000316006
0.000210858
0.00024315
0.000258137
0.000172753
0.000228305
0.000284476
0.00083326
0.00119292
0.000995005
0.000213075
0.00069273
0.000205214
0.000363328
0.000388164
0.000399355
0.000190806
0.000179473
0.000166942
0.000253706
0.000255904
0.000382025
0.00013948
0.000430727
0.000220036
0.000277796
0.000683659
0.000435376
0.00217672
0.000851259
0.000847952
0.00256447
0.000472524
0.000885619
0.00106632
0.00247289
0.000447359
0.000780608
0.000563588
0.000200287
0.0010448
0.00282895
0.000316437
0.000728936
0.000753145
0.000589759
0.000498182
0.000389496
0.00270983
0.00065239
0.00092687
0.000837169
0.000546031
0.000733062
0.000809202
0.00104525
0.00260521
0.000902389
0.000648761
0.000943203
0.000934794
0.00072647
0.000906228
0.000531491
0.00104507
0.00277301
0.000998979
0.00100383
0.000950742
0.000777414
0.00110003
0.000939708
0.000949063
0.00117007
0.00125188
0.00259687
0.000360498
0.000268117
0.000302156
0.00084554
0.000664985
0.000504551
0.00130369
0.000728417
0.00060929
0.00108586
0.00270738
0.000651491
0.00029951
0.000433971
0.000350873
0.000399673
0.00117334
0.00119435
0.000919225
0.00104378
0.000757167
0.00122978
0.00284422
0.000529425
0.000612622
0.000837266
0.000704336
0.000440232
0.000959233
0.000572753
0.000592086
0.00117384
0.00119409
0.00132919
0.00136876
0.00212459
0.000306876
0.00044573
0.000188668
0.000317008
0.000339982
0.000632958
0.000646307
0.000477753
0.000556746
0.000482388
0.000506545
0.00101044
0.000849111
0.0010104
0.000324831
0.000483165
0.000392675
0.00024133
0.000194004
0.000270063
0.000245826
0.000250725
0.00021702
0.000322747
0.000710075
0.00117799
0.000797351
0.000367718
0.00066574
0.000183025
0.000263306
0.000479545
0.00048281
0.000419983
0.000167857
0.000169657
0.000175325
0.000161507
0.000317698
0.000405194
0.000160387
3.71e-05
0.000171725
0.000304597
0.000709232
0.00239519
0.000683188
0.000455556
0.00220692
0.000750805
0.000856326
0.000933838
0.00232725
0.000657095
0.000582886
0.00084306
0.00059002
0.00259669
0.000319359
0.000285539
0.000706436
0.000205201
0.000473093
0.000924415
0.00280909
0.000598012
0.000651807
0.00077273
0.000356576
0.000718363
0.000583023
0.000572997
0.00274651
0.000756318
0.00099054
0.000684148
0.00078127
0.000779851
0.000942592
0.000588277
0.000922454
0.00245528
0.000609467
0.000704005
0.000590137
0.000938925
0.00122127
0.000979669
0.000857555
0.00119093
0.000969662
0.00278948
0.000991221
0.000580155
0.00124815
0.000710305
0.00132284
0.0004889
0.000796861
0.00113759
0.00145582
0.00112298
0.00288698
0.000505948
0.000597842
0.000239832
0.00080107
0.00106479
0.000830651
0.00131222
0.00144332
0.000589681
0.000566764
0.00110963
0.0030415
0.000551079
0.000518808
0.000431822
0.000383825
0.000366809
0.000862777
0.000619819
0.000287519
0.00227252
0.00135328
0.000398465
0.00127655
0.0029439
0.000386237
0.000509928
0.000650185
0.000851983
0.000592648
0.000352347
0.00104679
0.000644069
0.000973222
0.000562962
0.00129644
0.00109335
0.00107122
0.0019024
0.00063031
0.000424542
0.000395727
0.000269299
0.000365854
0.000356061
0.000480246
0.000682295
0.000483719
0.000587689
0.000522138
0.000499966
0.00105731
0.000571831
0.00106429
0.000272419
0.000348218
0.000496616
0.000339301
0.000292924
0.000219082
0.000251988
0.000230996
0.000202749
0.00019939
0.000358308
0.000492082
0.00117277
0.00125279
0.000460648
0.000714709
0.000220236
5.90885e-05
0.000282828
0.000617278
0.00057527
0.00059616
0.000194377
0.000146998
0.000178096
0.000179697
0.00038517
0.000405154
0.000153546
0.000130167
0.000390526
0.000525584
0.000186965
0.00238413
0.00062003
0.00247041
0.00044643
0.000642278
0.0006202
0.00220304
0.000609416
0.000416526
0.000611685
0.00115614
0.00235282
0.000522599
0.000853278
0.000431578
0.000422397
0.00123577
0.00252135
0.000524917
0.000516362
0.000627916
0.000265746
0.000588214
0.000551348
0.00025314
0.00279844
0.000615044
0.000636403
0.00072573
0.000371234
0.000643862
0.000616605
0.000167289
0.000517015
0.00267491
0.000555701
0.000780009
0.000887202
0.00102094
0.000857624
0.000671799
0.000758092
0.000747093
0.000744418
0.0025776
0.000462246
0.000851637
0.000677254
0.000818949
0.00080439
0.000894861
0.00111462
0.00115691
0.00116128
0.00105428
0.00287878
0.000454781
0.000836606
0.00097879
0.000904112
0.000888971
0.000303586
0.000787934
0.00114563
0.00119192
0.00125528
0.00116506
0.00282201
0.000674773
0.000500845
0.00047384
0.000855402
0.000598387
0.000505209
0.00124465
0.00097261
0.000404653
0.000698063
0.000868398
0.00144997
0.00327068
0.000860643
0.000500666
0.000341884
0.000607477
0.000166354
0.000464238
0.00033921
0.000688498
0.0010356
0.00144258
0.00156892
0.00038529
0.000849894
0.00316119
0.000344611
0.000398758
0.000389012
0.000670771
0.000614243
0.000516318
0.000472707
0.000771902
0.00104147
0.000898443
0.00109244
0.00149343
0.00106637
0.00096872
0.00161303
0.000257237
0.000349521
0.000398058
0.000332821
0.000384493
0.000350227
0.00049317
0.000499355
0.000605526
0.000576171
0.00070844
0.00050689
0.000538677
0.000905116
0.00071813
0.000984447
0.000182506
0.000362567
0.000365425
0.000454136
0.00040926
0.000302864
0.000195458
0.00028826
0.000223636
0.000144112
0.000181708
0.000476446
0.000685048
0.00109654
0.00118028
0.000734361
0.000649201
4.74694e-05
3.46662e-05
5.99188e-05
0.000307257
0.00051405
0.000795626
0.000485799
0.000208273
0.000113417
0.000171545
0.000266954
0.000412739
0.000383479
0.00017961
0.000611103
0.000493217
0.000393724
0.000173537
0.00228608
0.000499364
0.00234599
0.000558389
0.000535398
0.00239697
0.000525764
0.000544005
0.00067308
0.000670276
0.00210555
0.000456105
0.00051009
0.000321477
0.000640301
0.000732385
0.0024048
0.000429373
0.000499811
0.000312654
0.000453053
0.000631075
0.000825896
0.00246306
0.000315264
0.000469047
0.000644924
0.000495574
0.000486651
0.000652874
0.000427393
0.00104683
0.00271912
0.0005423
0.000781158
0.000796496
0.000310484
0.000530369
0.000765139
0.000490304
0.000393478
0.000587162
0.00265976
0.000649847
0.000588524
0.000744433
0.000867971
0.000964878
0.00079469
0.000602726
0.0010613
0.000759448
0.000886445
0.00272389
0.000569942
0.000694146
0.000741071
0.000767169
0.000609705
0.00121745
0.0013729
0.000922237
0.000871311
0.0011373
0.000979915
0.00283994
0.000228454
0.00082655
0.000519297
0.00103615
0.000962727
0.00073484
0.000989683
0.000853076
0.000844547
0.00133916
0.00111688
0.00140218
0.00284589
0.000799624
0.000674053
0.000536558
0.000406827
0.000833439
0.00126492
0.000816223
0.000640034
0.000644757
0.000845645
0.00106957
0.000959147
0.00214066
0.0032253
0.000999767
0.000772479
0.00146886
0.00066188
0.000267908
0.000230155
0.000325094
0.000875025
0.000941892
0.00100015
0.00149408
0.000971308
0.000787271
0.00209506
0.00336225
0.000353929
0.000499991
0.000430267
0.000369949
0.000570175
0.000592103
0.00098294
0.000237695
0.00106863
0.00145275
0.00079776
0.00125418
0.00128657
0.000868855
0.00122884
0.00160241
0.000426435
0.000269151
0.000247112
0.000238024
0.000438094
0.000360873
0.000369896
0.000543678
0.000609176
0.000439335
0.000543835
0.000603791
0.000622117
0.000659058
0.000812716
0.00106184
0.00101882
8.82318e-05
0.000179082
0.000344623
0.000375997
0.000466503
0.00072851
0.00034106
0.000248471
0.000304397
0.000214687
0.000124153
0.000260517
0.0006311
0.000813619
0.000878861
0.000506588
0.000886802
0.000771984
0.00026495
9.30492e-05
4.66693e-05
0.000195775
0.000346012
0.000411822
0.000765783
0.00044938
0.00021674
0.000135122
0.00019508
0.000270378
0.000380893
0.000341852
0.000253343
0.00067036
0.00037467
0.000189951
0.00054761
0.00225417
0.00030271
0.00239745
0.000290887
0.000463404
0.00231252
0.00028502
0.000288682
0.000577467
0.0023194
0.000451735
0.000427038
0.000241669
0.000562466
0.000630578
0.00219077
0.000430445
0.000384547
0.00046924
0.000495819
0.000373569
0.000848065
0.00235204
0.000388591
0.000459297
0.000451021
0.000423942
0.000700594
0.00056474
0.000754429
0.00234832
0.000508709
0.000682412
0.000534651
0.000513021
0.000542069
0.00056891
0.000542581
0.000401001
0.000688417
0.00267677
0.000426176
0.000713656
0.000507029
0.000493123
0.000473798
0.000743479
0.000500617
0.000678655
0.000588948
0.000416143
0.00267515
0.000697569
0.000482723
0.000645619
0.000641511
0.00100809
0.000728375
0.000630743
0.000749535
0.000894157
0.00065824
0.000964453
0.0025547
0.000481546
0.000468998
0.000708017
0.000652486
0.000553526
0.000928889
0.000917852
0.0012489
0.00125861
0.000727588
0.000781277
0.0011667
0.00280474
0.000183503
0.000261351
0.00069231
0.000694455
0.00113656
0.00074067
0.000715805
0.000984289
0.000811137
0.000834298
0.00115987
0.00155124
0.00197964
0.00277664
0.00121673
0.000786496
0.000300832
0.000915599
0.00030068
0.000551442
0.000595696
0.00147515
0.000823858
0.000866627
0.000545189
0.00101097
0.00119188
0.00138753
0.00309032
0.000305791
0.000778545
0.0006523
0.000769123
0.000486632
0.000152589
0.000368485
0.00057659
0.000611757
0.000944762
0.00159515
0.00102031
0.00022398
0.00095645
0.00165174
0.00312128
0.000849622
0.000375245
0.000425849
0.000405026
0.000457521
0.000495305
0.000520118
0.000700582
0.000490636
0.00108345
0.00139289
0.000612876
0.00112995
0.00157458
0.000880637
0.000822374
0.0016428
0.000282737
0.000508132
0.00029078
0.000294851
0.000467757
0.000326595
0.000334082
0.000387415
0.000298746
0.000640484
0.00064798
0.00056149
0.000545019
0.000801739
0.000720951
0.000844359
0.0012423
0.00108568
0.000237326
5.62995e-05
0.000163256
0.000231454
0.000366528
0.00038109
0.000559335
0.000238188
0.000265761
0.000256448
0.000219494
0.000113144
0.00032034
0.000551257
0.000674225
0.000705056
0.000941983
0.000936109
0.000993612
0.000131978
0.00021017
0.00012709
9.14995e-05
0.000160273
0.000401821
0.000363288
0.000465568
0.0004365
0.000190722
0.000179295
0.000227885
0.000227371
0.000321224
0.000300895
0.000359134
0.000264897
0.000297114
0.000297729
0.000421134
0.00225316
0.000510216
0.00231081
0.000470483
0.000418599
0.0024625
0.000233815
0.000287463
0.000460473
0.00241329
0.000366235
0.000171606
0.000493527
0.000478737
0.0023051
0.000412266
0.000375585
0.000465967
0.000352792
0.000415628
0.000432598
0.00214162
0.000331643
0.000476242
0.000480032
0.000424954
0.000587655
0.000699739
0.000833059
0.00223203
0.000373882
0.000390444
0.000476275
0.000361767
0.000636642
0.000681197
0.000586943
0.000971165
0.00236636
0.000389239
0.000624181
0.000587265
0.00069786
0.000518885
0.000660884
0.000562328
0.000690896
0.00057226
0.000592095
0.00262581
0.000495265
0.000542865
0.000594544
0.000690516
0.000585157
0.000781724
0.000748619
0.00055796
0.000634837
0.000284219
0.000668072
0.00244818
0.000565488
0.000531042
0.000627093
0.000580164
0.000781236
0.000783356
0.000862819
0.000647867
0.000737261
0.000749255
0.000792291
0.000547834
0.00269097
0.000331965
0.000386778
0.000622999
0.0006545
0.000859499
0.000799
0.00098321
0.00106864
0.000860145
0.00129252
0.00114702
0.000792951
0.00106641
0.00272648
0.000468885
0.000285484
0.00061309
0.000508436
0.00119842
0.000840331
0.000910602
0.000647032
0.00077713
0.000957079
0.000941863
0.00088499
0.00145614
0.00228262
0.00286552
0.000566007
0.000566902
0.000221829
0.000931538
0.000522453
0.00102218
0.000561865
0.000848791
0.00115408
0.000440449
0.000728337
0.00138761
0.00156508
0.00094366
0.00174435
0.00282476
0.000317856
0.000576253
0.000451287
0.000293507
0.00047356
0.000611656
0.00059231
0.000370943
0.000846116
0.00109703
0.00128879
0.00143123
0.00154308
0.000562669
0.000243618
0.00146311
0.00298775
0.000392679
0.000643317
0.000457007
0.000441193
0.000310034
0.000376033
0.000410793
0.000489511
0.000705427
0.000624566
0.0005449
0.000948249
0.00108889
0.00120832
0.00109591
0.000835686
0.000902097
0.00150567
0.000368987
0.000415212
0.000392325
0.000195322
0.000311276
0.000388379
0.000223813
0.000448983
0.000258175
0.000277388
0.000664902
0.000496562
0.000532065
0.000422551
0.00078312
0.000730399
0.000858129
0.00117829
0.00117182
0.000564518
0.000309185
0.000173786
0.000209773
0.000246319
0.000296928
0.000324316
0.000317695
0.000192713
0.000213662
0.000278167
0.000240699
0.000149581
0.000339913
0.000383021
0.000446362
0.000662988
0.00105917
0.00127716
0.000956048
0.000327527
9.23078e-05
0.000153748
0.00023759
0.000139131
0.000101339
0.000469453
0.000325489
0.000299829
0.000424298
4.71442e-05
0.00023199
0.000234972
8.43346e-05
0.000222577
0.000267544
0.000352869
0.000199066
0.000323335
0.00020729
0.000422504
0.00228909
0.000365239
0.00222665
0.000385154
0.00044318
0.00236871
0.000334489
0.000456992
0.000309286
0.00227235
0.000311931
0.000192666
0.000353598
0.000431819
0.00237601
0.000516074
0.000336606
0.000281458
0.000267779
0.000483912
0.00225351
0.000262705
0.000460476
0.000342994
0.000443844
0.000324671
0.000453165
0.00041923
0.00219642
0.000585763
0.000470967
0.000443332
0.000387558
0.000455536
0.000593166
0.000528661
0.000814938
0.00222484
0.000458347
0.000307354
0.000505461
0.000502163
0.000507591
0.000646402
0.00098266
0.000749068
0.000666926
0.00232412
0.000534649
0.000485783
0.000625706
0.000592526
0.00059902
0.000494479
0.0005872
0.00057063
0.000444067
0.000551154
0.0007137
0.00266473
0.000570227
0.00068972
0.000494015
0.000534064
0.000464562
0.000762163
0.000714102
0.000651339
0.000763301
0.000571545
0.000594428
0.000688723
0.0024635
0.000436865
0.000502128
0.000426145
0.000721586
0.00067337
0.000759486
0.00071838
0.000955773
0.000697482
0.000825997
0.000891661
0.000500061
0.000615295
0.00256988
0.000544487
0.000299594
0.000534851
0.0006863
0.000409702
0.000596273
0.000865475
0.000869132
0.00114112
0.00103948
0.000866615
0.00140546
0.000933211
0.000872625
0.00267295
0.000632515
0.000345359
0.000594635
0.000820122
0.00101083
0.00120735
0.000869839
0.000902996
0.00135698
0.000718719
0.000794257
0.00118935
0.00103838
0.00170511
0.00186679
0.0024607
0.00078781
0.00112212
0.000605946
0.000677979
0.000708483
0.000346479
0.000386428
0.000789366
0.000935199
0.000838062
0.00063692
0.000600938
0.00156502
0.00103373
0.00102487
0.00163486
0.00313741
0.000756004
0.000678861
0.000975039
0.000630935
0.000546153
0.000710051
0.000640369
0.000404549
0.000683655
0.00132977
0.00109254
0.00131312
0.00111754
0.000558041
0.00117258
0.000703672
0.00147963
0.00333383
0.000544022
0.000457687
0.000715362
0.000338513
0.000455439
0.000248355
0.000481898
0.000809544
0.00055198
0.000217819
0.000603295
0.000807786
0.000696816
0.00158381
0.00120532
0.000432709
0.00101285
0.0004395
0.00142476
0.000676324
0.000239418
0.000303176
0.000280872
0.000459009
0.000226061
0.000266881
0.000355228
0.000335299
0.000281339
0.000451825
0.000584137
0.000364132
0.000466832
0.00048634
0.000702645
0.000732968
0.000947812
0.000927803
0.00114668
0.000345916
0.000158063
0.000333361
0.000165028
0.000203421
0.000282031
0.000341206
0.000338669
0.000519536
0.000190599
0.000234415
0.000360358
0.00029983
7.39713e-05
0.000357169
0.000234123
0.000611236
0.00129201
0.000971946
0.00173422
0.000959667
0.000203289
0.000304724
8.45699e-05
0.00012392
8.74556e-05
5.44762e-05
0.000141977
0.000466933
0.00031332
0.000239481
0.000354324
0.000194424
0.000298206
0.000235966
0.000217135
0.000152078
0.000244953
0.000298682
0.000527847
0.00044707
9.31755e-05
0.000144149
0.00228249
0.000347182
0.0022828
0.000339319
0.000420663
0.00227754
0.000406671
0.000381432
0.000462975
0.00244361
0.000303554
0.000186919
0.000386123
0.000271194
0.00230086
0.000409608
0.000364743
0.000208802
0.000308043
0.00033448
0.00227955
0.000539866
0.000395974
0.000227687
0.000308824
0.000270272
0.000491364
0.00226704
0.000422297
0.000395766
0.00036306
0.000424003
0.000329882
0.000536826
0.000570807
0.000527091
0.0021506
0.000686029
0.000425966
0.000671539
0.000545299
0.000495254
0.000726088
0.00060842
0.000467883
0.000678111
0.00233866
0.000302398
0.000495754
0.000375227
0.00056163
0.000522865
0.000672062
0.000569451
0.000515684
0.000556417
0.000559524
0.00231019
0.00036063
0.000404728
0.000543573
0.000420543
0.000590678
0.000739244
0.000643413
0.000512744
0.00069744
0.000730102
0.000513188
0.000771621
0.00264029
0.000466365
0.000517876
0.000396132
0.000477927
0.000440758
0.00056898
0.000524246
0.000480308
0.000584749
0.000456442
0.000403493
0.000507885
0.000406192
0.00254948
0.000408368
0.000605001
0.000501282
0.000602806
0.000534934
0.00088833
0.000754648
0.0010709
0.000656723
0.000814375
0.000943097
0.00118718
0.000663095
0.000658324
0.00254282
0.000404557
0.00043254
0.000326452
0.000776086
0.000531124
0.00125121
0.000470617
0.000748157
0.000966144
0.000959048
0.00114497
0.000950323
0.000858108
0.00155701
0.00105285
0.00264021
0.000603426
0.000811204
0.000587259
0.000501205
0.000793823
0.00108282
0.000649076
0.000922588
0.00151497
0.000459733
0.000529422
0.000604933
0.000834856
0.00118904
0.00128505
0.00127793
0.00264612
0.000716463
0.000628689
0.000728878
0.000609267
0.000867847
0.000465796
0.00100941
0.00114739
0.000719573
0.0018709
0.0010151
0.000476742
0.000583579
0.00134575
0.00146592
0.000987517
0.00162052
0.00375809
0.000588131
0.000557711
0.000537385
0.000806737
0.000681344
0.000498801
0.000459594
0.000322223
0.000301127
0.000701064
0.000776844
0.000822581
0.00101329
0.00119642
0.000627
0.000571704
0.00111711
0.00147047
0.00302882
0.000988864
0.000548955
0.00038278
0.00033197
0.00111336
0.000515907
0.000327866
0.000461189
0.000570177
0.000466746
0.000481351
0.00038968
0.000832178
0.000670711
0.000544595
0.00107405
0.000819988
0.00104313
0.00103081
0.00156026
0.000807393
0.000658627
0.000145651
0.000323748
0.000366187
0.00049739
0.000328457
0.000535709
0.000438489
0.000218938
0.000358195
0.000582175
0.000675114
0.00079373
0.000382806
0.000406768
0.000563252
0.000748632
0.00086632
0.0012346
0.0011151
0.000788777
0.000292901
0.000123005
0.000181854
0.0001403
0.000127268
0.000288554
0.000325475
0.000314224
0.000448983
0.000199436
0.000209856
0.000419062
0.000406224
0.000222789
0.000331893
0.000386078
0.000987171
0.00121981
0.000819948
0.00144505
0.000998502
0.0001529
0.000226996
0.00025904
0.000127046
0.000216632
9.0545e-05
9.76056e-05
0.000139283
0.000484265
0.000298189
0.000206614
0.000297945
0.000248233
0.000372328
0.000257592
0.000302353
0.000104186
0.000218147
0.000289369
0.000318899
0.000542114
0.000217059
0.000111055
0.00217659
0.000355179
0.00223315
0.000308227
0.000458106
0.00222898
0.000431284
0.000176452
0.000360047
0.00225433
0.000505057
0.000470594
0.000665473
0.000627206
0.00248119
0.000354637
0.000146434
0.000277717
0.00032993
0.000417437
0.002386
0.000466766
0.000417646
0.00035022
0.000279895
0.000191431
0.000322913
0.00229144
0.00050711
0.000374481
0.000268976
0.000260254
0.000332791
0.000419977
0.000490287
0.00227941
0.00054235
0.000730653
0.000534772
0.000539013
0.000438145
0.000218053
0.000370341
0.000357205
0.000389463
0.00223421
0.000427439
0.000561226
0.000311257
0.000600769
0.000499577
0.000607779
0.000427604
0.000966426
0.000562535
0.000601558
0.00236376
0.000338528
0.000295253
0.000488406
0.000462151
0.000396188
0.000562759
0.000558419
0.000791363
0.000351443
0.000581912
0.000691254
0.00228512
0.000472628
0.00052185
0.000614145
0.000645382
0.000495318
0.000419144
0.000658157
0.000723118
0.000520401
0.000489711
0.000547593
0.00063446
0.000768523
0.00256327
0.000744156
0.000477089
0.000573855
0.000639764
0.000580143
0.00075925
0.000725829
0.000667685
0.000576692
0.000400968
0.000924273
0.000688004
0.000395608
0.000211608
0.00263834
0.00059716
0.000565899
0.000470827
0.000537144
0.00056675
0.000471933
0.000556046
0.000723229
0.000926383
0.000686214
0.000788164
0.000659668
0.000851977
0.000525026
0.00068889
0.00245701
0.000603047
0.000477825
0.000248429
0.000577775
0.00058967
0.000739766
0.000802437
0.00108175
0.000818003
0.00103925
0.000923557
0.00115899
0.00122536
0.000784544
0.00136133
0.00120966
0.00246667
0.00057337
0.00045738
0.000610996
0.000583404
0.000489112
0.000732511
0.000620586
0.000828314
0.0013826
0.000588738
0.000574808
0.000790262
0.000679182
0.00113058
0.00138541
0.00139471
0.000981766
0.00300815
0.000880676
0.000778565
0.00101597
0.000502937
0.000605766
0.000456748
0.00100006
0.000825502
0.000401625
0.00080707
0.000892052
0.000455871
0.000520005
0.00131286
0.00100897
0.000905218
0.00153089
0.00111035
0.00368782
0.000901954
0.000654802
0.000815233
0.000448103
0.000630968
0.000453019
0.000438244
0.000477266
0.000429445
0.000300534
0.000581167
0.00140641
0.000699626
0.00106679
0.000947191
0.000466302
0.00111535
0.000919231
0.00185052
0.00283757
0.000920941
0.000493642
0.00041268
0.000297466
0.000622685
0.00100457
0.000777889
0.000174751
0.000554968
0.000404818
0.000405206
0.000563938
0.000396962
0.000827507
0.000918002
0.0010544
0.0010129
0.000791133
0.000697675
0.000655099
0.00170904
0.00128283
0.00057653
0.000553313
0.000312538
0.000319942
0.00042721
0.000420328
0.000317963
0.000227109
0.000462817
0.000247748
0.000527481
0.0006619
0.00065288
0.000459497
0.000339591
0.000259932
0.000574558
0.000791532
0.00105657
0.00158526
0.00115844
0.00120484
0.00066936
0.000402814
0.000220791
0.000461762
0.000187305
0.000209607
0.000276415
0.00030742
0.00037244
0.000285262
0.000216121
0.000317211
0.000452105
0.000463862
0.00031113
0.000263749
0.000621926
0.00115862
0.000990745
0.00073651
0.00101837
0.00101506
0.00014697
8.83899e-05
0.000362645
0.000122579
0.000146886
0.000143339
0.000334378
7.26241e-05
0.000148706
0.000465352
0.000310222
0.00021636
0.000294348
0.00025969
0.000435374
0.000282342
0.000321836
0.000101151
0.000196269
0.000296651
0.000609135
0.000338961
0.000208083
0.000475021
0.00206408
0.000360641
0.00213005
0.000264338
0.000353187
0.00219612
0.000145089
0.000333447
0.000395006
0.00227206
0.000294795
0.000363498
0.00052229
0.000483099
0.00220857
0.000288454
0.000446616
0.00043409
0.000353875
0.0005773
0.00236226
0.000329548
0.000251169
0.000312563
0.000375176
0.000294575
0.000410422
0.00242973
0.000390068
0.000433198
0.000427936
0.000167798
0.000268168
0.000260928
0.000389839
0.0023303
0.00049014
0.000719964
0.000387769
0.000333451
0.000408836
0.000505035
0.000412661
0.000314872
0.00232533
0.000224852
0.000412601
0.00056426
0.000302422
0.000488025
0.000470765