/*--------------------------------*- C++ -*----------------------------------*\
  =========                 |
  \\      /  F ield         | OpenFOAM: The Open Source CFD Toolbox
   \\    /   O peration     | Website:  https://openfoam.org
    \\  /    A nd           | Version:  7
     \\/     M anipulation  |
\*---------------------------------------------------------------------------*/
FoamFile
{
    version     2.0;
    format      ascii;
    class       volScalarField;
    location    "7.5";
    object      p;
}
// * * * * * * * * * * * * * * * * * * * * * * * * * * * * * * * * * * * * * //

dimensions      [0 2 -2 0 0 0 0];

internalField   nonuniform List<scalar> 
18750
(
-62.0527
-64.0607
-63.4446
-62.2695
-61.9923
-64.5503
-64.2061
-66.0048
-63.539
-62.518
-61.2219
-59.4846
-61.9719
-65.2723
-64.3707
-64.3946
-65.6062
-65.9781
-63.619
-62.7647
-54.5981
-63.6397
-61.5613
-66.5466
-52.4744
-62.2393
-65.3639
-65.1157
-64.4056
-64.6461
-64.0203
-65.4872
-65.9825
-63.693
-62.9889
-54.5662
-60.2472
-54.839
-67.2772
-63.4459
-62.1583
-66.7043
-66.3126
-59.3225
-62.4502
-64.5564
-65.2201
-64.9182
-64.4002
-64.8304
-64.6765
-63.9849
-65.3936
-66.0131
-63.7772
-63.1858
-52.5131
-56.1941
-54.0971
-60.8812
-59.674
-54.906
-67.4062
-66.863
-63.5569
-62.6732
-66.5938
-66.3558
-65.8199
-58.9536
-62.5954
-64.7756
-64.4949
-65.0542
-64.7431
-64.3671
-64.9446
-64.7108
-64.6595
-63.9558
-65.3281
-66.0818
-63.8749
-63.3607
-49.4577
-53.1204
-53.0206
-55.518
-56.9613
-54.2759
-61.354
-60.5649
-59.2702
-54.6315
-67.4594
-67.4973
-66.2333
-63.5603
-63.5705
-64.7319
-66.5343
-66.1169
-65.4355
-61.4977
-62.912
-64.9365
-64.7644
-64.4087
-64.8553
-64.5385
-64.3279
-64.9978
-65.0839
-64.7028
-64.6385
-63.933
-65.2858
-66.1768
-63.9576
-63.4678
-47.5344
-48.7163
-49.1703
-52.6278
-52.7777
-53.5025
-56.7032
-55.7927
-57.3461
-54.5384
-62.0189
-61.4306
-60.0993
-58.9042
-55.0551
-65.7474
-67.66
-67.2445
-65.4918
-63.6943
-64.3945
-64.7504
-64.8025
-66.5487
-65.9183
-65.1443
-62.7421
-63.2712
-65.446
-64.9312
-64.7444
-64.3075
-64.6294
-64.2463
-64.2958
-64.9852
-65.4219
-65.0868
-64.6924
-64.6156
-63.9159
-65.2632
-66.2431
-64.0574
-63.5855
-46.4364
-47.4281
-47.4646
-49.188
-49.1038
-49.2974
-52.9157
-52.6074
-52.6169
-53.1364
-57.4153
-57.0735
-56.5334
-57.642
-54.419
-62.2733
-62.3437
-61.7654
-59.9422
-58.7053
-55.7466
-65.3248
-65.9797
-67.8416
-66.9898
-64.9573
-63.7195
-65.0287
-65.1344
-64.7888
-64.8465
-66.5397
-65.7398
-64.8326
-63.1804
-63.4731
-66.1212
-65.417
-64.923
-64.7135
-64.1981
-64.3937
-63.9522
-64.3027
-64.9255
-65.6628
-65.4303
-65.0865
-64.6797
-64.5909
-63.9028
-65.2547
-66.2861
-64.234
-63.778
-46.1021
-46.5792
-46.4703
-47.5017
-47.6634
-47.503
-49.6222
-49.096
-49.3239
-49.2528
-53.691
-53.0639
-52.5675
-52.4442
-52.7687
-57.6595
-57.5761
-57.2393
-56.6661
-57.3878
-54.5605
-62.7746
-62.5534
-62.6386
-61.894
-60.2222
-58.8072
-56.069
-64.2831
-65.3597
-66.196
-67.8938
-66.6679
-64.6948
-63.8523
-65.1746
-65.62
-65.0757
-64.8247
-64.8583
-66.5859
-65.3858
-64.492
-63.6467
-63.2147
-66.5301
-66.1229
-65.3804
-64.9055
-64.6765
-64.0825
-64.1565
-63.7152
-64.3436
-64.8196
-65.7823
-65.6851
-65.4439
-65.085
-64.6646
-64.5653
-63.8904
-65.2664
-66.3334
-64.5426
-63.9308
-45.8237
-46.011
-46.5274
-46.7477
-46.6195
-47.8405
-47.7153
-47.7242
-47.5412
-49.9813
-49.5099
-49.2586
-49.0097
-49.2233
-53.8417
-53.4956
-52.9856
-52.4357
-52.3914
-52.5746
-57.6896
-57.6414
-58
-57.3345
-56.6272
-57.2224
-54.3995
-62.7486
-62.6671
-62.7047
-63.1673
-61.6649
-60.2997
-58.9337
-55.9929
-63.8507
-64.4861
-65.5213
-66.4923
-67.8261
-66.037
-64.2514
-64.2463
-64.5687
-65.9738
-65.5666
-65.018
-64.85
-64.8471
-66.5047
-65.0599
-64.2084
-63.8328
-62.6754
-66.9112
-66.5873
-66.1186
-65.3535
-64.876
-64.6321
-64.0031
-63.9123
-63.5069
-64.4094
-64.6955
-65.9251
-65.8292
-65.7087
-65.4598
-65.0825
-64.6481
-64.5362
-63.8775
-65.3137
-66.3704
-65.0117
-64.0958
-45.2374
-46.1291
-45.801
-46.1079
-46.8999
-46.7002
-46.9942
-46.6621
-48.2088
-47.8217
-47.6575
-47.7019
-47.6097
-50.5397
-50.0973
-49.7546
-49.1352
-49.0872
-49.1157
-54.2087
-53.8545
-53.4251
-52.6605
-52.2936
-52.39
-52.1922
-57.865
-57.8614
-57.9183
-57.9842
-57.299
-56.9209
-57.2165
-54.3811
-62.1138
-62.9252
-62.8323
-62.9914
-62.8636
-61.6836
-60.3874
-59.4821
-56.476
-63.6463
-64.0088
-64.5219
-65.6456
-66.5808
-67.5147
-65.5671
-64.0008
-64.6431
-63.8539
-66.1111
-66.0639
-65.5016
-64.9868
-64.8613
-64.8228
-66.3449
-64.9045
-64.1076
-63.8254
-62.4218
-66.7885
-66.9598
-66.6219
-66.0889
-65.3333
-64.839
-64.5802
-63.8822
-63.7347
-63.3371
-64.4669
-64.5664
-66.0034
-65.9692
-65.8714
-65.7289
-65.4719
-65.0791
-64.6296
-64.5085
-63.8651
-65.3396
-66.383
-65.4106
-64.2281
-44.3954
-45.1223
-45.2156
-46.0603
-45.6719
-45.8719
-46.0012
-46.9559
-46.9544
-46.994
-46.8792
-46.8403
-48.6964
-48.1537
-47.9614
-47.7117
-47.6348
-47.87
-50.9937
-50.3537
-50.1462
-49.7585
-49.2285
-49.2657
-49.0226
-54.3224
-54.1669
-54.1943
-53.1262
-53.0662
-52.4646
-51.9998
-52.0511
-57.8051
-57.938
-58.1226
-57.9801
-58.1398
-57.7113
-56.9628
-57.0686
-54.3653
-61.086
-62.483
-63.2397
-63.1209
-63.2471
-62.6685
-61.6713
-60.6497
-60.2188
-56.5394
-63.5402
-63.8903
-64.1049
-64.6711
-65.6276
-66.5222
-67.2602
-65.2144
-64.1443
-65.0562
-63.3372
-66.0191
-66.2985
-66.1391
-65.47
-64.9361
-64.8315
-64.7838
-66.2122
-64.7046
-64.1137
-63.7477
-62.3172
-65.9392
-66.9641
-67.0361
-66.6289
-66.048
-65.3064
-64.7883
-64.5239
-63.7632
-63.6126
-63.1309
-64.546
-64.4111
-66.0219
-66.0901
-66.0064
-65.9091
-65.7476
-65.4809
-65.0746
-64.6079
-64.4853
-63.8532
-65.3299
-66.4243
-65.6875
-64.1742
-44.172
-44.5627
-44.3864
-45.0512
-45.1063
-45.2831
-46.1308
-45.8975
-45.8842
-45.9008
-45.8864
-47.322
-46.8719
-46.8631
-46.8536
-46.7007
-46.9331
-48.6244
-48.5887
-48.2748
-48.0131
-47.7619
-47.8875
-47.9973
-51.2793
-50.9131
-50.3397
-50.0627
-49.7396
-49.3453
-49.3062
-49.1096
-54.3484
-54.3625
-54.5703
-54.1079
-53.7762
-52.874
-52.4364
-51.8872
-51.9072
-57.4286
-57.9243
-58.1641
-58.2348
-58.2798
-58.4548
-57.7474
-56.9492
-57.0618
-54.2677
-60.6872
-61.6412
-62.835
-63.7006
-63.3356
-63.314
-63.5526
-61.6149
-61.0533
-60.6418
-56.7919
-62.7597
-63.7105
-64.1216
-64.3492
-64.6389
-65.5501
-66.4373
-67.2604
-65.1705
-64.2318
-65.3221
-63.2701
-65.3602
-66.2427
-66.4045
-66.1698
-65.4436
-64.8813
-64.7627
-64.7218
-65.9447
-64.4298
-64.1288
-63.6691
-62.2971
-65.1365
-66.1604
-67.1525
-67.0793
-66.6165
-66.012
-65.288
-64.7261
-64.4667
-63.6478
-63.4923
-62.9794
-64.376
-64.2496
-65.7711
-66.0644
-66.1644
-66.0595
-65.9392
-65.7643
-65.4878
-65.0695
-64.5865
-64.4653
-63.8386
-65.3677
-66.4821
-65.9878
-64.1987
-44.1945
-44.2104
-44.4861
-44.498
-44.4846
-45.1185
-45.03
-45.0976
-45.1173
-46.2741
-45.9269
-45.9965
-45.9887
-45.621
-45.7882
-47.4462
-47.1662
-46.9932
-46.8983
-46.7961
-47.0687
-46.9081
-48.7048
-48.8109
-48.5481
-48.4244
-47.9688
-47.9046
-47.9104
-48.2116
-51.313
-51.1547
-50.608
-50.394
-49.9999
-49.9082
-49.4386
-49.3675
-49.1589
-54.1729
-54.3299
-54.6005
-54.7074
-53.9795
-53.8759
-52.9143
-52.3815
-51.8925
-51.5755
-57.0471
-57.8881
-58.2331
-58.1407
-58.2003
-58.4015
-58.3768
-57.5764
-56.9735
-57.0181
-54.0146
-59.8635
-60.9561
-62.337
-63.3515
-63.7965
-63.469
-63.5479
-63.4211
-61.717
-61.6756
-61.0244
-57.5407
-61.9533
-63.145
-64.01
-64.3675
-64.6692
-64.7005
-65.3711
-66.0304
-66.5473
-65.0285
-64.4845
-65.4142
-63.4066
-64.1755
-65.6869
-66.4683
-66.5252
-66.1835
-65.4583
-64.8759
-64.695
-64.6532
-65.515
-64.1627
-64.1885
-63.584
-62.3017
-64.1522
-65.3209
-66.3885
-67.3103
-67.1113
-66.6011
-65.9808
-65.2692
-64.6637
-64.4079
-63.5463
-63.4057
-63.0172
-64.2009
-64.0751
-64.5471
-65.8045
-66.0806
-66.22
-66.1134
-65.9657
-65.7763
-65.4925
-65.0636
-64.5688
-64.4497
-63.8167
-65.4949
-66.4802
-66.3056
-64.4778
-43.8387
-44.1819
-44.1169
-44.2034
-44.6649
-44.4459
-44.3661
-44.5819
-45.187
-45.2512
-45.1623
-45.0954
-44.9246
-46.3431
-46.2039
-46.0952
-46.031
-45.8456
-45.6427
-45.809
-47.6222
-47.3603
-47.0982
-47.0509
-46.8546
-46.9075
-47.1473
-46.9419
-48.7468
-48.7638
-48.7704
-48.5357
-48.2334
-47.9742
-47.9249
-47.9402
-48.3825
-51.207
-51.325
-51.1457
-50.6825
-50.3575
-50.0659
-49.8983
-49.4497
-49.514
-49.0814
-53.8454
-54.277
-54.4081
-54.3547
-54.5866
-54.3736
-53.3859
-53.1411
-52.4643
-51.7688
-51.3962
-56.4223
-57.1777
-58.1388
-58.3659
-58.4141
-58.3934
-58.2083
-57.7388
-57.7955
-57.211
-57.0553
-53.6343
-59.5225
-60.2732
-61.4643
-62.8528
-63.8479
-63.7347
-63.9118
-63.5624
-62.8215
-61.9372
-62.4808
-61.6849
-58.4778
-61.1949
-62.3037
-63.6686
-64.4134
-64.6628
-64.8818
-64.7882
-64.9894
-65.557
-65.9065
-64.7435
-64.6536
-65.6162
-63.5896
-62.9308
-64.4432
-66.0269
-66.6922
-66.6275
-66.1826
-65.4543
-64.8874
-64.6111
-64.5834
-65.072
-63.9713
-64.3048
-63.575
-62.2709
-63.5273
-64.3342
-65.5375
-66.6272
-67.4315
-67.1235
-66.5773
-65.9429
-65.254
-64.6098
-64.3479
-63.4709
-63.3078
-63.1463
-64.0181
-63.9223
-64.1688
-64.638
-65.8306
-66.0905
-66.2767
-66.1664
-65.99
-65.7862
-65.4966
-65.056
-64.5556
-64.438
-63.7906
-65.5798
-66.4836
-66.5079
-64.9101
-43.5876
-43.867
-43.8057
-44.2559
-43.9997
-44.0369
-44.1932
-44.7356
-44.5808
-44.4514
-44.4364
-44.491
-45.411
-45.1225
-45.2444
-45.2217
-44.6001
-44.9614
-46.4513
-46.2866
-46.1174
-46.1762
-45.778
-45.8684
-46.0504
-45.7441
-47.6462
-47.5326
-47.3297
-47.1779
-46.9723
-46.9039
-46.9477
-46.9773
-47.0729
-48.9974
-48.9816
-48.8953
-48.6951
-48.4758
-48.3599
-47.9738
-48
-48.2864
-48.2752
-51.3933
-51.3299
-51.2562
-51.0685
-50.859
-50.4647
-50.2585
-49.9294
-49.5339
-49.5942
-49.0149
-53.6875
-54.0378
-54.3603
-54.1703
-54.4302
-54.9328
-54.2369
-53.4648
-53.2589
-52.6186
-51.6784
-51.2142
-55.503
-56.4576
-57.4325
-58.3594
-58.432
-58.7082
-58.4286
-58.3581
-58.0904
-57.9909
-57.6806
-56.5363
-53.5333
-58.4734
-59.7281
-60.7135
-61.9788
-63.504
-64.3275
-64.1513
-63.3942
-63.2979
-62.9406
-62.5122
-63.2124
-62.9365
-58.9097
-60.3852
-61.6104
-62.7864
-64.0478
-64.7257
-64.8805
-65.1441
-64.9475
-64.5716
-65.1337
-65.315
-64.721
-64.7831
-65.6299
-63.6917
-62.0516
-63.2967
-64.9195
-66.4747
-66.9234
-66.7191
-66.175
-65.4217
-64.8984
-64.5426
-64.5362
-64.6597
-63.8292
-64.0889
-63.3316
-62.1148
-63.1535
-63.6837
-64.5373
-65.7839
-66.8569
-67.5573
-67.1293
-66.5345
-65.8961
-65.2337
-64.5603
-64.2898
-63.4256
-63.2256
-63.3078
-63.8067
-63.7472
-63.9611
-64.2826
-64.6969
-65.8584
-66.1125
-66.3334
-66.2356
-66.011
-65.7943
-65.4978
-65.0471
-64.5465
-64.4313
-63.7637
-65.6437
-66.5421
-66.6422
-65.2452
-43.2958
-43.683
-43.6339
-43.7744
-43.7946
-43.766
-44.2821
-44.0668
-44.063
-44.0679
-44.1457
-44.8023
-44.5621
-44.708
-44.5999
-44.5021
-44.4222
-45.5296
-45.3494
-45.3062
-45.1689
-45.1094
-44.8345
-45.0045
-46.6399
-46.3915
-46.1786
-46.1414
-46.0719
-45.8572
-45.8922
-45.775
-45.7451
-47.7654
-47.6002
-47.4452
-47.4252
-47.0673
-46.9425
-46.9146
-46.7496
-47.1026
-47.0863
-49.1559
-49.0869
-48.994
-48.8737
-48.6885
-48.527
-48.2543
-47.9466
-48.0519
-48.1827
-48.2411
-51.2849
-51.3305
-51.2853
-51.2153
-51.1177
-50.8023
-50.641
-50.3422
-49.9746
-49.4644
-49.7878
-48.9445
-53.2614
-53.6522
-53.9005
-54.4415
-54.311
-54.5575
-54.3665
-54.2879
-53.686
-53.2144
-52.6887
-51.4499
-51.2164
-54.939
-55.6136
-56.6259
-57.8204
-58.4972
-58.9206
-58.6432
-58.5572
-58.185
-58.2391
-58.5295
-58.2043
-56.5362
-53.737
-57.7723
-58.7898
-59.7445
-61.3871
-62.6977
-63.8909
-64.223
-64.3588
-62.9986
-63.2469
-63.1487
-62.9333
-63.7327
-63.0355
-58.981
-59.8684
-60.7066
-62.0531
-63.2349
-64.4348
-65.0474
-65.1135
-65.2409
-64.6995
-64.3261
-64.7266
-64.8887
-64.8649
-64.7389
-65.2728
-63.6772
-61.4289
-62.2617
-63.5824
-65.2565
-66.9316
-67.1974
-66.7867
-66.1286
-65.3546
-64.9654
-64.4754
-64.5002
-64.2533
-63.6601
-63.6351
-63.1152
-61.8351
-62.9101
-63.2832
-63.8383
-64.7449
-65.9857
-67.0699
-67.6458
-67.1181
-66.4823
-65.8451
-65.2091
-64.5087
-64.2294
-63.39
-63.1526
-63.4361
-63.6497
-63.5458
-63.9382
-64.0586
-64.3586
-64.7322
-65.8829
-66.1368
-66.3917
-66.2946
-66.0288
-65.7997
-65.4965
-65.0383
-64.5401
-64.4284
-63.7422
-65.6949
-66.6532
-66.7045
-65.4415
-43.0358
-43.2902
-43.3366
-43.6442
-43.6984
-43.6694
-43.8491
-43.7724
-43.7627
-43.7324
-44.3469
-44.1776
-44.2039
-44.1533
-44.0933
-44.1166
-44.8644
-44.7584
-44.6408
-44.6467
-44.5095
-44.286
-44.4654
-45.6545
-45.4691
-45.3702
-45.2677
-45.0594
-45.1357
-44.8753
-45.0063
-46.6976
-46.398
-46.3163
-46.2118
-46.1323
-45.9316
-45.8214
-45.8489
-45.7998
-45.7553
-47.8996
-47.7222
-47.6818
-47.4668
-47.2694
-46.9749
-46.9745
-46.7482
-46.8667
-47.1717
-47.0339
-49.1662
-49.2007
-49.0953
-49.0391
-48.8186
-48.6156
-48.3133
-48.2743
-48.053
-48.2209
-48.2779
-48.1927
-51.2707
-51.3957
-51.2792
-51.2839
-51.2573
-50.9705
-50.7372
-50.6732
-50.2378
-49.8534
-49.3982
-49.5552
-48.8694
-52.8632
-53.3041
-53.7056
-54.1291
-54.2173
-54.19
-54.619
-54.4239
-54.3598
-53.893
-53.1459
-52.7391
-51.2142
-51.0585
-54.8556
-55.1623
-55.8844
-56.8287
-57.9475
-58.5461
-58.9351
-58.5107
-58.605
-57.9118
-58.3687
-58.541
-57.5175
-56.5863
-53.7106
-57.4301
-58.1748
-59.2121
-60.3
-61.7786
-63.2985
-64.4356
-64.2484
-64.4297
-62.7105
-63.0937
-63.1475
-63.7459
-64.0159
-62.8548
-59.3626
-59.3226
-60.0504
-61.0172
-62.5595
-63.8793
-64.9956
-65.3452
-65.2731
-65.2065
-64.4159
-63.9656
-64.5896
-64.5933
-64.8544
-64.4612
-64.5911
-63.4369
-60.8717
-61.6164
-62.4915
-63.8743
-65.6281
-67.286
-67.4389
-66.8487
-66.0763
-65.2992
-64.9895
-64.4274
-64.4245
-63.8879
-63.4725
-62.9633
-62.8402
-61.3648
-62.8616
-63.0261
-63.4258
-63.9809
-64.9374
-66.176
-67.2489
-67.7139
-67.0931
-66.4291
-65.7946
-65.1729
-64.464
-64.1673
-63.3389
-63.103
-63.5613
-63.5518
-63.4328
-63.859
-63.9947
-64.1321
-64.4096
-64.777
-65.9037
-66.1566
-66.4379
-66.3426
-66.0441
-65.8006
-65.4953
-65.0311
-64.5352
-64.4271
-63.7368
-65.6962
-66.5988
-66.7726
-65.5557
-42.8927
-43.0952
-43.012
-43.3048
-43.3183
-43.3691
-43.5881
-43.5922
-43.6222
-43.6283
-43.8772
-43.8679
-43.8227
-43.7798
-43.739
-44.4164
-44.3105
-44.2121
-44.1697
-44.1741
-44.0819
-44.1265
-44.9538
-44.8218
-44.7232
-44.6695
-44.5009
-44.4858
-44.3697
-44.4886
-45.8437
-45.5954
-45.4685
-45.3796
-45.1169
-44.9568
-45.0875
-44.9797
-45.0271
-46.7721
-46.5878
-46.4373
-46.354
-46.2153
-45.9615
-45.9031
-45.8326
-45.8475
-45.8996
-45.7687
-47.9359
-47.8458
-47.7675
-47.6426
-47.3671
-47.2097
-47.1336
-46.9
-46.7655
-46.8973
-46.9466
-47.0544
-49.1965
-49.3159
-49.2421
-49.1343
-49.0205
-48.8932
-48.562
-48.318
-48.2724
-48.1828
-48.2495
-48.4602
-47.9921
-51.1072
-51.2866
-51.2857
-51.3692
-51.2743
-51.1655
-51.045
-50.7415
-50.6544
-50.284
-49.6613
-49.3812
-49.1882
-48.9696
-52.6083
-52.9687
-53.4019
-53.8338
-54.159
-54.4179
-54.8093
-54.5812
-54.5715
-54.4013
-53.7758
-53.3832
-52.5521
-51.8304
-50.7078
-54.3969
-55.0783
-55.6592
-56.0476
-57.3789
-58.2355
-58.7957
-58.4923
-58.3294
-58.2233
-58.1198
-58.5315
-58.861
-57.3486
-55.7576
-53.4739
-57.1741
-57.7092
-58.4728
-59.5934
-60.7404
-62.3075
-63.9042
-64.9546
-64.4362
-64.0664
-62.433
-63.3388
-63.3876
-63.9056
-63.7285
-61.9866
-59.3268
-58.883
-59.6429
-60.3667
-61.3964
-63.0666
-64.4995
-65.3854
-65.6005
-65.3788
-65.0777
-64.3494
-63.7838
-64.5616
-64.2313
-65.0261
-63.9371
-63.89
-62.8705
-60.8398
-61.0227
-61.7565
-62.7372
-64.2221
-66.2371
-67.6364
-67.6021
-66.891
-66.0221
-65.2628
-64.9985
-64.3972
-64.3359
-63.5847
-63.2828
-62.2269
-62.4704
-60.7581
-62.7379
-62.98
-63.1478
-63.5611
-64.1231
-65.1038
-66.3726
-67.413
-67.753
-67.052
-66.3699
-65.7446
-65.1386
-64.4231
-64.0996
-63.2755
-63.021
-63.7518
-63.5036
-63.371
-64.297
-63.9395
-64.0536
-64.23
-64.462
-64.83
-65.9275
-66.1659
-66.4727
-66.3825
-66.0602
-65.7985
-65.4938
-65.0239
-64.5321
-64.4264
-63.742
-65.7058
-66.5029
-66.8744
-65.7214
-42.7424
-42.9066
-42.9127
-43.0678
-43.1031
-42.9876
-43.3098
-43.3176
-43.3387
-43.37
-43.6435
-43.5875
-43.5736
-43.5703
-43.5611
-43.8924
-43.8787
-43.8411
-43.8266
-43.771
-43.7415
-44.5483
-44.3259
-44.2689
-44.2144
-44.1406
-44.0863
-44.0713
-44.1312
-45.2012
-44.9004
-44.8079
-44.723
-44.576
-44.4084
-44.4951
-44.3806
-44.5087
-45.8823
-45.7176
-45.5973
-45.446
-45.2959
-45.061
-44.9745
-45.1048
-45.1911
-45.0915
-46.8531
-46.6987
-46.4885
-46.4213
-46.325
-46.0967
-46.0198
-45.873
-45.8069
-45.9122
-45.9008
-45.7579
-47.9283
-47.9448
-47.8345
-47.7838
-47.5938
-47.3602
-47.2269
-47.0357
-46.9383
-46.9182
-46.9782
-46.9791
-46.9675
-49.26
-49.2428
-49.3029
-49.2083
-49.1187
-49.0167
-48.8503
-48.6787
-48.4704
-48.0628
-48.1386
-48.2725
-48.1068
-47.9118
-50.998
-51.1386
-51.2503
-51.3155
-51.3665
-51.388
-51.1657
-50.9435
-50.7358
-50.5174
-50.0415
-49.7841
-49.62
-49.2932
-48.9219
-52.5416
-52.7348
-53.1759
-53.6672
-54.0742
-54.3169
-54.4748
-54.6525
-54.3366
-54.4878
-54.5376
-53.8099
-52.7141
-52.5013
-51.9191
-50.3653
-54.5394
-54.6345
-55.1881
-55.6706
-56.373
-57.5277
-58.3567
-58.9161
-58.6115
-58.1801
-58.2688
-58.3962
-59.1922
-59.3632
-56.9529
-55.0166
-53.1005
-56.4309
-57.1358
-57.8259
-58.6865
-60.0184
-61.3801
-63.2636
-64.3063
-65.2136
-64.3093
-63.6598
-62.5019
-63.7396
-63.8779
-64.1616
-63.1949
-61.4563
-58.7685
-58.6557
-59.0418
-59.8843
-60.6987
-61.8027
-63.5265
-65.057
-65.7705
-65.7561
-65.3537
-64.8171
-64.2022
-63.7593
-64.4599
-63.9897
-64.8261
-63.4327
-63.231
-62.1162
-60.6866
-61.006
-61.1846
-61.9156
-62.9585
-64.5607
-66.5774
-67.8913
-67.739
-66.8684
-65.9782
-65.2261
-65.0186
-64.3825
-64.1329
-63.3313
-63.0344
-61.585
-61.8091
-60.1185
-62.9297
-62.8367
-63.0996
-63.2785
-63.708
-64.2739
-65.2522
-66.5107
-67.5238
-67.7715
-67.0017
-66.3031
-65.6994
-65.1194
-64.3803
-64.0294
-63.2042
-63.0447
-63.9545
-63.5633
-63.3505
-64.672
-64.3542
-64.0241
-64.0723
-64.3395
-64.5131
-64.8817
-65.9523
-66.1698
-66.4998
-66.4129
-66.0723
-65.7937
-65.4922
-65.0159
-64.528
-64.4258
-63.7534
-65.7366
-66.5402
-66.8966
-65.9902
-42.6173
-42.7765
-42.7277
-42.9122
-42.9188
-42.8754
-43.0901
-43.0624
-43.073
-43.0137
-43.356
-43.3618
-43.239
-43.319
-43.3306
-43.6377
-43.5907
-43.5389
-43.6024
-43.5741
-43.5639
-43.9367
-43.9154
-43.895
-43.8137
-43.7907
-43.7265
-43.7422
-44.6015
-44.4616
-44.3281
-44.2646
-44.223
-44.1023
-44.0938
-44.0515
-44.1434
-45.2214
-45.1377
-44.9055
-44.7579
-44.7015
-44.4831
-44.374
-44.4853
-44.5183
-44.5247
-46.0368
-45.7745
-45.6793
-45.626
-45.4291
-45.1039
-45.1877
-45.0703
-45.0798
-45.1998
-45.088
-46.8772
-46.84
-46.6301
-46.5494
-46.465
-46.2217
-46.1485
-46.1016
-45.8127
-45.874
-45.922
-45.8625
-45.7751
-48.0573
-47.9757
-47.9533
-47.8019
-47.6839
-47.5069
-47.3858
-47.1866
-47.0947
-47.0642
-46.8638
-46.9848
-47.0084
-46.8685
-49.2959
-49.3229
-49.2655
-49.2003
-49.2571
-49.1102
-49.0739
-48.8818
-48.6257
-48.5604
-48.1161
-47.975
-48.2902
-48.1692
-47.7954
-51.006
-51.0624
-51.0703
-51.2449
-51.3245
-51.1953
-51.1415
-51.1239
-50.9847
-50.9173
-50.4368
-50.0489
-49.946
-49.4511
-49.2517
-48.8736
-52.5048
-52.5635
-52.8554
-53.4206
-53.8914
-54.2479
-54.448
-54.5402
-54.5137
-54.6233
-54.5642
-54.3116
-53.5752
-52.733
-52.2036
-51.7887
-49.6077
-54.0985
-54.3963
-54.8699
-55.3741
-55.8311
-56.5168
-57.4788
-58.3513
-58.6126
-58.5759
-58.2004
-58.3017
-58.6354
-59.0224
-58.8845
-56.721
-55.0024
-52.4657
-56.1794
-56.4592
-57.3051
-57.9907
-58.9661
-60.2752
-61.9737
-63.949
-65.0076
-65.0461
-63.5464
-63.2178
-62.534
-63.7068
-64.1554
-63.9554
-62.7803
-60.1683
-58.5158
-58.5715
-58.7972
-59.3234
-60.1076
-60.8151
-62.2024
-63.9871
-65.4804
-66.1246
-65.7148
-65.2839
-64.5812
-64.1814
-63.8646
-64.3158
-63.8514
-64.0469
-63.0451
-62.487
-61.5391
-60.4054
-60.8343
-61.1591
-61.3377
-62.0747
-63.23
-64.866
-66.835
-68.0667
-67.8221
-66.8397
-65.9059
-65.206
-65.0265
-64.3742
-63.9524
-63.1234
-62.7481
-61.1019
-61.0341
-59.6015
-63.5309
-63.0627
-62.9355
-63.2242
-63.4077
-63.8427
-64.4156
-65.3992
-66.6725
-67.6114
-67.7676
-66.9472
-66.2276
-65.6614
-65.0843
-64.3375
-63.9612
-63.1283
-63.2086
-64.1275
-63.6746
-63.3799
-64.9196
-64.7566
-64.4115
-64.0945
-64.0949
-64.3681
-64.5604
-64.933
-65.976
-66.1713
-66.5229
-66.438
-66.0792
-65.786
-65.4909
-65.0067
-64.5254
-64.4271
-63.7688
-65.6918
-66.5748
-66.841
-66.2428
-42.4898
-42.6153
-42.6088
-42.7621
-42.7696
-42.7226
-42.9482
-42.9453
-42.9001
-42.8852
-43.1413
-43.0906
-42.963
-43.0462
-43.0122
-43.4029
-43.3667
-43.3303
-43.2979
-43.2984
-43.2972
-43.7138
-43.6182
-43.5725
-43.5656
-43.5581
-43.539
-43.5293
-44.1011
-43.9754
-43.9114
-43.8407
-43.7967
-43.7353
-43.7587
-43.7522
-44.7165
-44.5588
-44.3838
-44.2999
-44.2503
-44.2133
-44.0661
-44.1477
-44.109
-44.1337
-45.36
-45.2038
-45.0689
-44.8809
-44.7988
-44.5718
-44.478
-44.3782
-44.5037
-44.5525
-44.573
-46.0925
-46.0078
-45.7933
-45.6362
-45.5614
-45.2557
-45.1975
-45.0608
-45.0479
-44.9625
-45.1594
-45.0618
-46.9434
-46.8774
-46.8389
-46.6158
-46.5502
-46.4032
-46.245
-46.0977
-45.9469
-45.9733
-45.8618
-45.9453
-45.9425
-45.862
-48.1282
-47.9862
-47.9545
-47.7939
-47.7806
-47.6476
-47.5029
-47.3784
-47.2257
-47.1854
-46.93
-46.8589
-46.9671
-47.0301
-46.8264
-49.4211
-49.3083
-49.3389
-49.1986
-49.2369
-49.1816
-49.2195
-49.0246
-48.9397
-48.7123
-48.4153
-48.3636
-48.1486
-48.0711
-48.0735
-47.6853
-51.0499
-51.0044
-51.0309
-51.2286
-51.2273
-51.2496
-51.291
-51.0145
-51.4801
-51.0744
-50.8857
-50.4256
-50.1035
-49.8953
-49.5284
-49.3639
-48.652
-52.4136
-52.5062
-52.5962
-52.9148
-53.4261
-54.0989
-54.3258
-54.6011
-54.6795
-54.1387
-54.7308
-54.5305
-54.2079
-53.3793
-53.1331
-52.3355
-51.6057
-49.0139
-54.087
-54.1789
-54.6117
-55.0198
-55.4198
-56.1271
-56.7102
-57.7467
-58.4525
-58.6001
-58.225
-58.2472
-58.3899
-58.6373
-59.5604
-58.5781
-56.6756
-54.1604
-52.2085
-56.1692
-56.2046
-56.6784
-57.4208
-58.2179
-59.3816
-60.7121
-62.5349
-64.4624
-65.0239
-64.5877
-63.0933
-62.8812
-62.7381
-63.8935
-64.1666
-63.1292
-62.4306
-58.666
-57.9351
-58.7218
-58.6346
-59.032
-59.5536
-60.2606
-61.0925
-62.5268
-64.4221
-65.7333
-66.2693
-65.7449
-65.185
-64.5401
-64.1122
-63.9803
-64.1633
-63.6628
-63.4392
-62.3493
-61.4144
-60.668
-60.8707
-60.4636
-61.0259
-61.3734
-61.4893
-62.2755
-63.4665
-65.2417
-67.1753
-68.1889
-67.8653
-66.8225
-65.8086
-65.1696
-64.9977
-64.354
-63.8354
-62.9654
-62.3284
-60.6322
-60.402
-58.9808
-63.5467
-63.7631
-63.1887
-63.0319
-63.3864
-63.5346
-63.9617
-64.56
-65.5592
-66.811
-67.6821
-67.7515
-66.8739
-66.1494
-65.6256
-65.0473
-64.2986
-63.8965
-63.0517
-63.4006
-64.3012
-63.7376
-63.4445
-64.7989
-64.9929
-64.8738
-64.4653
-64.143
-64.1718
-64.41
-64.6144
-64.9816
-66.0006
-66.1745
-66.5408
-66.4585
-66.085
-65.7783
-65.4885
-65.0008
-64.5202
-64.4316
-63.7882
-65.6708
-66.5279
-66.8251
-66.414
-42.3986
-42.4889
-42.4877
-42.6209
-42.6379
-42.6083
-42.8266
-42.787
-42.7463
-42.6498
-42.9777
-42.9514
-42.8553
-42.8587
-42.8909
-43.1738
-43.1379
-43.1058
-43.1417
-43.0309
-43.0251
-43.4497
-43.3529
-43.3295
-43.2823
-43.304
-43.2642
-43.2195
-43.7612
-43.634
-43.6187
-43.5929
-43.5564
-43.4939
-43.5268
-43.552
-44.1862
-44.0043
-43.9384
-43.882
-43.8323
-43.7645
-43.8353
-43.7737
-43.744
-44.8812
-44.6513
-44.5357
-44.3815
-44.2839
-44.1624
-44.0188
-44.0543
-44.0506
-44.1254
-44.1406
-45.4239
-45.3744
-45.1381
-44.9452
-44.8939
-44.6725
-44.5073
-44.5311
-44.5535
-44.4863
-44.5697
-44.6039
-46.2046
-46.079
-45.8444
-45.7157
-45.6344
-45.3915
-45.2601
-45.1498
-44.9881
-45.0384
-45.0355
-45.1201
-45.0352
-47.0412
-46.8851
-46.8799
-46.6936
-46.6879
-46.4923
-46.2166
-46.2355
-46.0681
-45.9901
-45.9929
-45.8427
-45.9775
-45.9788
-45.8903
-48.2344
-48.1211
-48.0202
-47.7959
-47.814
-47.7052
-47.6954
-47.5987
-47.3354
-47.2598
-47.0852
-47.0192
-46.7595
-46.9953
-47.0121
-46.7616
-49.3863
-49.3468
-49.3129
-49.1826
-49.2631
-49.2668
-49.1109
-49.1382
-49.1517
-48.9313
-48.6812
-48.521
-48.3431
-48.2636
-48.4029
-47.9961
-47.5921
-51.0515
-51.1385
-51.0609
-50.9958
-51.2299
-51.2055
-51.277
-51.3376
-51.3146
-51.163
-51.2545
-50.9832
-50.6245
-50.2792
-50.0675
-49.6845
-49.2464
-48.2807
-52.2693
-52.3715
-52.4662
-52.7429
-53.2263
-53.769
-54.3313
-54.317
-54.142
-54.6875
-54.9547
-54.7765
-54.6937
-54.4046
-53.4272
-53.2889
-52.4696
-51.74
-48.6264
-53.7855
-53.9219
-54.0991
-54.7053
-55.1488
-55.6557
-56.1556
-57.2328
-58.0285
-58.7456
-58.5092
-58.3183
-58.3095
-58.5063
-58.9963
-60.0168
-57.4775
-56.8019
-53.2031
-51.5996
-56.6183
-56.2211
-56.2704
-56.9286
-57.64
-58.2895
-59.7212
-61.2546
-62.967
-64.7575
-64.9384
-64.0151
-62.8877
-62.7403
-62.9748
-63.9645
-63.9636
-62.6213
-61.8758
-57.9318
-57.1212
-59.2504
-58.7601
-58.6701
-59.0204
-59.7322
-60.5207
-61.4022
-62.8372
-64.879
-65.9432
-66.2927
-65.7448
-64.9853
-64.537
-64.0104
-64.0827
-64.0981
-63.4217
-62.9458
-61.3551
-60.1751
-59.7112
-61.5381
-60.9665
-60.5638
-61.1866
-61.6212
-61.6709
-62.4515
-63.7085
-65.614
-67.4261
-68.2978
-67.8824
-66.743
-65.7291
-65.1404
-64.9284
-64.3465
-63.7358
-62.8415
-61.8486
-60.3161
-59.9969
-58.4423
-64.4531
-63.8135
-63.9589
-63.3483
-63.1454
-63.5689
-63.6601
-64.0884
-64.694
-65.7326
-66.9169
-67.7293
-67.7155
-66.7734
-66.07
-65.5955
-65.0171
-64.2628
-63.8431
-62.983
-63.6643
-64.4398
-63.8231
-63.6313
-64.4562
-64.8998
-65.0645
-65.0208
-64.5399
-64.199
-64.2537
-64.4866
-64.6625
-65.0302
-66.0222
-66.1891
-66.5537
-66.4709
-66.087
-65.7703
-65.4861
-64.9994
-64.5136
-64.4381
-63.821
-65.7072
-66.5694
-66.7538
-66.6566
-42.3293
-42.4068
-42.3616
-42.5301
-42.4798
-42.4598
-42.6493
-42.6309
-42.6365
-42.5859
-42.839
-42.8268
-42.7755
-42.6877
-42.6832
-43.0165
-43.0008
-42.9173
-42.838
-42.8675
-42.8418
-43.1584
-43.1479
-43.1239
-43.0682
-43.0786
-43.0396
-43.0126
-43.5429
-43.4235
-43.381
-43.3578
-43.2529
-43.2748
-43.254
-43.2249
-43.8719
-43.7297
-43.6283
-43.5774
-43.5197
-43.4849
-43.5489
-43.5306
-43.5847
-44.2043
-44.1432
-44.0068
-43.9005
-43.813
-43.8158
-43.8991
-43.7749
-43.7531
-43.7311
-44.911
-44.8269
-44.623
-44.4495
-44.3515
-44.2475
-44.1312
-44.0335
-44.0529
-44.0711
-44.123
-44.138
-45.6042
-45.3903
-45.3646
-45.0515
-44.9548
-44.7719
-44.6345
-44.5796
-44.5185
-44.4601
-44.5444
-44.5311
-44.5288
-46.268
-46.1693
-45.9886
-45.783
-45.6818
-45.5425
-45.4323
-45.2008
-45.1747
-45.1053
-45.1506
-45.0522
-45.0971
-45.0978
-47.1933
-47.0622
-47.0343
-46.8585
-46.6803
-46.6407
-46.4132
-46.3121
-46.1705
-46.0422
-45.9183
-45.823
-45.8647
-46.0995
-45.9114
-45.8932
-48.2539
-48.1362
-48.0536
-47.8957
-47.8221
-47.7841
-47.667
-47.7812
-47.3693
-47.3792
-47.2083
-47.0973
-47.0519
-47.1056
-47.0949
-47.0397
-46.6342
-49.6694
-49.4137
-49.3686
-49.3075
-49.1422
-49.2966
-49.3926
-49.1555
-49.0817
-49.2153
-48.9808
-48.6977
-48.5721
-48.3928
-48.2748
-48.3047
-48.008
-47.4565
-51.0717
-51.0877
-50.8726
-51.1242
-51.081
-51.1853
-51.2776
-51.4125
-51.191
-51.4991
-51.4548
-51.4102
-51.0998
-50.6821
-50.3396
-49.7364
-49.9397
-49.1615
-48.0332
-52.3613
-52.3848
-52.3168
-52.4752
-52.7765
-53.3878
-54.0794
-54.4019
-54.4702
-54.7178
-54.8976
-55.1571
-54.7341
-54.6592
-54.0924
-53.2496
-53.0712
-52.1372
-51.1655
-48.5611
-54.8933
-53.6501
-53.9472
-54.0976
-54.8085
-55.3915
-55.7349
-56.5464
-57.6031
-58.3229
-58.8048
-58.3661
-58.1077
-58.4779
-58.736
-59.4732
-60.0829
-57.0521
-56.2371
-53.7528
-51.1679
-57.1929
-56.538
-56.2534
-56.3786
-57.1497
-57.8541
-58.4868
-60.1997
-61.6621
-63.2789
-64.8193
-64.7652
-63.7767
-62.788
-62.6521
-63.2975
-63.946
-63.8846
-62.0376
-60.582
-58.9372
-56.0144
-59.1999
-59.0953
-58.7088
-58.7924
-59.2343
-60.0487
-60.8382
-61.8633
-63.2516
-65.2666
-66.0974
-66.2368
-65.6348
-64.7387
-64.5746
-63.9296
-64.1883
-64.0354
-63.2476
-62.3775
-60.4594
-59.1999
-58.8817
-62.1458
-61.6312
-61.0126
-60.6559
-61.3109
-61.8575
-61.8789
-62.6757
-63.9338
-65.9151
-67.6411
-68.3863
-67.8773
-66.6472
-65.5598
-65.2057
-64.845
-64.334
-63.6204
-62.7012
-61.3439
-59.981
-59.471
-58.1768
-64.2695
-64.7011
-64.0663
-64.2194
-63.5152
-63.2543
-63.7186
-63.7889
-64.2148
-64.8205
-65.9052
-66.9874
-67.7726
-67.6705
-66.671
-65.9839
-65.5708
-64.9979
-64.2325
-63.8085
-62.9431
-63.8857
-64.4966
-63.9822
-63.915
-64.4813
-63.9085
-64.9917
-65.164
-65.1236
-64.6586
-64.2629
-64.3487
-64.542
-64.7145
-65.0791
-66.0345
-66.2069
-66.5563
-66.4747
-66.0835
-65.7619
-65.4836
-64.9998
-64.5095
-64.4472
-63.8701
-65.739
-66.7268
-66.6547
-66.9878
-42.2148
-42.3439
-42.2932
-42.4362
-42.3638
-42.3606
-42.515
-42.505
-42.4685
-42.4286
-42.7145
-42.6203
-42.6025
-42.6262
-42.6483
-42.8403
-42.8355
-42.8271
-42.5947
-42.6826
-42.6448
-42.9959
-42.9637
-42.964
-42.9052
-42.9131
-42.8483
-42.835
-43.2342
-43.2596
-43.1451
-43.1266
-42.9506
-43.0308
-42.9891
-42.9818
-43.5543
-43.5163
-43.4286
-43.3545
-43.2984
-43.2846
-43.2353
-43.2473
-43.1953
-44.0482
-43.8468
-43.7306
-43.6239
-43.5492
-43.5472
-43.4726
-43.5315
-43.5486
-43.5742
-44.4931
-44.2479
-44.0606
-43.962
-43.8763
-43.8402
-43.7571
-43.6943
-43.742
-43.7236
-43.7209
-45.0623
-44.8582
-44.7642
-44.5131
-44.4263
-44.3171
-44.1943
-44.073
-44.065
-44.1135
-44.0789
-44.1377
-44.1386
-45.6364
-45.5705
-45.372
-45.1873
-45.04
-44.8953
-44.7272
-44.625
-44.5879
-44.5321
-44.5042
-44.6106
-44.533
-44.5166
-46.3811
-46.2345
-46.1364
-45.8185
-45.9335
-45.6088
-45.5055
-45.4196
-45.1911
-45.1241
-45.0393
-45.0909
-45.0321
-45.1584
-45.1032
-47.2131
-47.1327
-47.1035
-47.002
-46.7507
-46.7873
-46.4226
-46.4327
-46.2716
-46.2343
-46.1249
-46.0449
-45.9213
-45.9563
-46.16
-46.0096
-45.9182
-48.4172
-48.1739
-48.2069
-48.0696
-47.9342
-47.9354
-47.872
-47.6494
-47.3272
-47.3305
-47.3537
-47.1749
-47.186
-47.0128
-47.1528
-47.1107
-46.9237
-46.5811
-49.8885
-49.6485
-49.462
-49.2326
-49.2064
-49.3976
-49.2728
-49.2976
-49.336
-49.3349
-49.0136
-49.0218
-48.7473
-48.6507
-48.4652
-48.387
-48.2392
-47.7987
-47.1972
-51.4278
-51.2777
-51.0269
-50.952
-51.1248
-51.0955
-51.2928
-51.3398
-51.5572
-51.5568
-51.6597
-51.5682
-51.4685
-51.2395
-50.7502
-50.409
-49.8857
-49.9584
-49.1045
-48.0639
-53.6656
-52.3356
-52.4091
-52.3865
-52.5496
-52.8444
-53.5464
-54.0408
-54.5138
-54.7711
-54.9162
-55.083
-55.0884
-54.9168
-54.6414
-54.0507
-53.2043
-52.8278
-50.9465
-50.4514
-48.2133
-56.0569
-54.6799
-53.6812