/*--------------------------------*- C++ -*----------------------------------*\
  =========                 |
  \\      /  F ield         | OpenFOAM: The Open Source CFD Toolbox
   \\    /   O peration     | Website:  https://openfoam.org
    \\  /    A nd           | Version:  7
     \\/     M anipulation  |
\*---------------------------------------------------------------------------*/
FoamFile
{
    version     2.0;
    format      ascii;
    class       surfaceScalarField;
    location    "7.5";
    object      phi;
}
// * * * * * * * * * * * * * * * * * * * * * * * * * * * * * * * * * * * * * //

dimensions      [0 3 -1 0 0 0 0];

internalField   nonuniform List<scalar> 
54095
(
0.000316041
-5.49682e-05
-0.000880924
0.000210467
-4.31722e-06
0.00118259
0.000265561
-7.15028e-05
-0.00159387
0.000288434
-4.65381e-05
-0.00112282
-0.000173235
-6.1535e-05
-0.00154925
0.000444409
-5.08193e-05
-0.00060349
0.00021838
1.64974e-05
0.00123615
0.000134178
-9.06399e-05
-0.00150059
0.000219281
-5.90499e-05
-0.00180064
0.000262145
-3.84522e-05
-0.00134651
-0.000628144
3.67893e-05
-0.00500697
0.000496613
0.000379413
-0.0026689
-0.000138029
-0.000155235
-0.00103761
0.00022572
-3.27418e-05
-0.00168157
0.00026569
-3.27088e-05
-0.000600694
0.000218704
2.60581e-05
0.00125353
5.91551e-05
-5.42337e-05
-0.00125807
0.000122315
-7.68354e-05
-0.00160512
0.000180827
-4.6976e-05
-0.00197295
0.000237152
-3.10644e-05
-0.0015526
-0.00149965
0.000511396
-0.00594689
0.000827912
8.03514e-06
-0.00516897
-0.000461531
0.000107544
-0.00479101
0.000119161
0.000427259
-0.000275868
0.00037611
0.000478255
0.00285771
-0.000123586
1.30581e-05
-0.000708375
-7.95699e-06
1.01215e-05
-0.000695823
0.000228093
-3.61947e-05
-0.00178387
0.000237922
-1.59361e-05
-0.000615794
0.000235996
2.65533e-05
0.00122813
1.63476e-05
-1.09818e-05
-0.000700585
6.71352e-05
-4.4824e-05
-0.00135722
0.000110074
-6.28065e-05
-0.00169936
0.000144972
-3.64039e-05
-0.00211258
0.000216193
-2.4389e-05
-0.00174441
-0.00175566
0.000598898
-0.00448464
0.000272103
0.00101976
-0.00645119
-0.00132847
0.000740032
-0.00581998
9.68307e-05
9.57667e-05
-0.00506298
0.000373374
-2.95252e-05
-0.00502916
-0.000367953
0.000206472
-0.00475312
4.37016e-06
0.000144608
-0.000940843
0.000260304
0.000530555
-0.000360379
0.000328763
0.000393935
0.00238599
-1.59454e-05
7.66834e-06
-0.000464102
-1.54833e-05
3.61262e-05
0.00035524
2.17775e-05
7.82132e-06
-0.000694482
0.000221555
-3.00018e-05
-0.00188128
0.000155617
-2.07905e-05
-0.000579095
0.000244489
1.94282e-05
0.00118041
4.02522e-05
-2.51074e-05
-0.000209394
2.08451e-05
-1.11664e-05
-0.000755088
7.0187e-05
-3.52904e-05
-0.00145492
0.000104509
-4.94004e-05
-0.00179088
0.000128215
-2.72393e-05
-0.00223794
0.000199313
-1.92548e-05
-0.00192446
-0.0014324
-0.000178601
-0.00545199
-0.000386704
0.00129468
-0.00651423
-0.00150869
0.000524191
-0.00482862
-0.000256671
0.00129097
-0.00648588
-0.000180229
0.00103618
-0.00619374
-0.000977211
0.000766366
-0.00597709
-0.000454469
9.26678e-05
-0.00464218
0.000349143
-3.92011e-05
-0.00514214
0.000399974
6.17369e-05
-0.00495564
-8.72475e-05
0.00029643
-0.00497824
-0.000132174
-1.61015e-05
-0.000557992
7.34901e-05
0.00015424
-0.00061624
0.000295875
0.000425071
-0.000465836
0.000236333
0.000372884
0.00194006
-5.12797e-05
5.35743e-05
-0.000221908
8.62728e-05
4.45019e-05
-0.000629358
1.05579e-05
3.56222e-05
0.000337726
4.7484e-05
6.17239e-06
-0.000707953
0.00021134
-3.78983e-05
-0.001971
0.000138797
-2.14352e-05
-0.000548814
0.000271893
1.25926e-05
0.00109523
2.55843e-05
-2.80641e-05
0.000199227
4.05447e-05
-2.59504e-05
-0.000235155
2.38932e-05
-1.23473e-05
-0.000801924
6.96706e-05
-2.63728e-05
-0.00154762
0.000101063
-3.66921e-05
-0.00188249
0.000117915
-1.97757e-05
-0.00235534
0.00018441
-1.53688e-05
-0.0020935
-0.0016155
0.000145094
-0.0057354
-0.000153686
1.48441e-05
-0.00823119
-0.00121121
7.93443e-05
-0.00582881
-0.000685716
0.00125123
-0.00662027
-0.000408012
0.00118234
-0.0069446
-0.00131824
0.000548997
-0.00503658
-0.000769587
0.00114011
-0.00641759
-2.79063e-05
0.00113089
-0.00620354
7.2909e-05
0.00101704
-0.00611735
-0.000648404
0.000811914
-0.00622785
-0.000573804
0.000162776
-0.00526363
-0.000293487
1.32059e-05
-0.00432761
0.000183715
-0.000112697
-0.00485555
0.000229138
0.000148916
-0.00480093
-8.70079e-05
0.000267674
-0.00521019
-7.59331e-05
0.000137056
1.55619e-05
-0.000123108
-3.11264e-05
-0.00023896
0.000130925
9.2521e-05
-0.000367132
0.000287382
0.000380638
-0.000549633
0.0001469
0.000327027
0.0016585
-9.35923e-06
4.86254e-05
1.07196e-05
5.70719e-06
5.51548e-05
7.85276e-06
9.2174e-05
4.18631e-05
-0.000687228
4.77383e-05
3.41066e-05
0.000285947
7.23552e-05
5.83762e-06
-0.000754373
0.000193769
-3.6167e-05
-0.00204898
0.000117432
-2.84737e-05
-0.000507265
0.000306642
8.20261e-06
0.000964798
1.91124e-05
-2.87841e-05
0.000397891
2.82139e-05
-2.60815e-05
0.000171145
4.26945e-05
-2.72022e-05
-0.000262994
2.61986e-05
-1.4091e-05
-0.000840405
6.75969e-05
-1.82364e-05
-0.00163367
9.87119e-05
-2.61511e-05
-0.00197482
0.000106894
-8.08879e-06
-0.00246951
0.000170223
-1.17637e-05
-0.00225196
-0.00191522
0.000222928
-0.00374146
-0.000756251
0.000476516
-0.00597526
-0.00152526
8.89155e-05
-0.00551026
-0.000636363
0.000366142
-0.00736481
-0.000516474
0.000125403
-0.00816879
-0.00136705
0.000157602
-0.00593761
-0.00067662
0.00111117
-0.00656761
-0.00039372
0.00128909
-0.0063612
-0.000495565
0.00105377
-0.00688089
-0.00121484
0.000621461
-0.00509161
-0.000733745
0.000935729
-0.0066724
-0.000609283
0.00110753
-0.00607843
-0.000114298
0.00105247
-0.00594095
3.05013e-05
0.0010418
-0.0061486
-0.0004116
0.000778964
-0.00668222
-0.000396879
0.000422946
-0.00315888
-0.000614779
0.000139264
-0.00489802
-5.89723e-05
-7.98764e-05
-0.00417053
0.000124616
-0.000114882
-0.00442898
0.000186875
9.06291e-05
-0.00466386
-0.000116804
0.000247736
-0.00535048
-0.000107472
0.00025995
-0.000503331
-7.93764e-05
0.000128134
2.78524e-05
-8.36161e-05
-4.24629e-05
2.7378e-05
0.000160389
6.71767e-05
-0.000141705
0.000239597
0.000327091
-0.000595524
0.000109725
0.000298529
0.00141631
0.000114945
3.32458e-05
0.000169171
1.43238e-05
6.37188e-05
-0.000130987
1.67539e-05
4.66563e-05
1.45194e-05
9.49372e-05
3.72939e-05
-0.000742658
7.87457e-05
3.07162e-05
0.000208522
9.67049e-05
7.84967e-06
-0.000827498
0.00017938
-3.79837e-05
-0.00212014
9.14397e-05
-4.87377e-05
-0.00043487
0.000352792
3.73081e-06
0.000778499
-9.03633e-07
-3.03472e-05
0.000524452
2.41784e-05
-2.77656e-05
0.000375396
3.37704e-05
-2.40215e-05
0.000134193
4.55338e-05
-2.97884e-05
-0.000292831
2.78455e-05
-1.56873e-05
-0.000870799
6.46165e-05
-1.27217e-05
-0.00171172
0.000108662
-1.23234e-05
-0.00207925
9.68186e-05
-4.36621e-06
-0.00257373
0.000151189
-8.65472e-06
-0.0023945
-0.00195832
6.97286e-05
-0.00322658
-0.00103511
0.000421555
-0.00453762
-0.00191408
0.000270836
-0.00362348
-0.00079821
0.000525346
-0.00653431
-0.000996472
0.000334718
-0.00574106
-0.00148466
2.40254e-06
-0.00539505
-0.000738791
0.000500324
-0.00726532
-0.000366334
0.000371508
-0.0076383
-0.000856426
0.000257735
-0.00790806
-0.0014333
0.00027273
-0.00599188
-0.00077197
0.00105945
-0.0073668
-0.000563609
0.00121372
-0.00653792
-0.000213266
0.00137165
-0.00658012
-0.000334348
0.00105663
-0.00695121
-0.0010711
0.000642427
-0.00507454
-0.000413655
0.000790711
-0.00656283
-0.000731099
0.000984751
-0.0064333
-0.000332114
0.00104506
-0.00579788
-0.00013145
0.00084922
-0.0054923
0.000139504
0.000935369
-0.00625763
-0.000372419
0.000663379
-0.00708998
-0.000193329
0.000535648
-0.00200792
-0.000346532
0.00039271
-0.00314517
-0.000465456
8.61884e-05
-0.00468225
-0.000155637
-6.63316e-05
-0.00390306
0.000127062
-0.000181953
-0.00404386
0.000129989
0.000113755
-0.00455014
-0.000240967
0.000271743
-0.00526631
-0.000102552
0.000316868
-0.00149811
-0.00011244
0.000243649
-0.000489652
-5.74536e-05
0.000128969
8.81173e-06
-5.00824e-05
-3.5866e-05
0.000259249
0.000316776
3.12954e-05
-6.59804e-05
0.000232104
0.000302548
-0.000652267
6.82888e-05
0.000291327
0.00118138
0.000318661
1.69273e-05
0.000186375
-1.44864e-05
7.85093e-05
-0.000521196
3.7945e-05
5.46298e-05
-0.000152727
3.858e-05
3.49267e-05
1.2077e-05
9.76632e-05
2.97342e-05
-0.000793805
0.000108204
2.64319e-05
0.000109581
0.000110542
1.37782e-05
-0.000925185
0.000171884
-5.21172e-05
-0.00217998
6.53906e-05
-7.34869e-05
-0.000326225
0.000379889
1.42259e-07
0.000549656
-1.17908e-05
-3.35382e-05
0.000310941
-6.76365e-07
-2.90219e-05
0.000526385
2.73102e-05
-2.56139e-05
0.000349679
3.92447e-05
-2.29968e-05
8.81572e-05
4.8663e-05
-3.29737e-05
-0.000324207
3.03308e-05
-1.88471e-05
-0.000895005
6.29698e-05
-8.48316e-06
-0.00177853
0.00011348
-7.28413e-06
-0.00218981
8.54793e-05
-1.80098e-06
-0.00266606
0.000134279
-5.98279e-06
-0.00252279
-4.94646e-05
-0.00340571
-0.000947533
0.000194043
-0.0046825
-0.00186997
0.00010995
-0.00338064
-0.0010831
0.000567992
-0.00503865
-0.0010541
0.000441894
-0.00465104
-0.00191328
0.000189311
-0.00338417
-0.00084605
0.000554867
-0.00632129
-0.000650935
0.000508486
-0.00642348
-0.0010059
0.000290825
-0.00588001
-0.00156272
1.11113e-05
-0.00527674
-0.000873157
0.000743751
-0.00743708
-0.000602627
0.000485011
-0.0073398
-0.000296992
0.000423078
-0.00771992
-0.000708955
0.000497601
-0.00775832
-0.00136834
0.000320749
-0.00601538
-0.000665317
0.00123372
-0.00735248
-0.000670125
0.00117295
-0.007387
-0.000483825
0.00138455
-0.0063991
-0.000169318
0.00124248
-0.0067281
-0.000185471
0.00100821
-0.00699202
-0.00099623
0.000655418
-0.00510615
-0.000373903
0.000821124
-0.0063456
-0.00027517
0.000839684
-0.00648913
-0.000531697
0.000823338
-0.00614534
-0.000313765
0.000818886
-0.00560942
2.10983e-05
0.000884674
-0.00533564
-2.82931e-05
0.000770395
-0.00620637
-0.000562849
0.000576712
-0.00734481
-0.000416146
0.00039693
-0.00200726
-0.000226927
0.00047216
-0.00197289
-0.000469695
0.00033168
-0.00297842
-0.000406146
6.84896e-05
-0.004461
0.000307593
-0.000158178
-0.00391765
0.000209441
-0.000155218
-0.00375223
-9.84381e-06
0.00016731
-0.00436758
-8.63308e-06
0.000301012
-0.00524003
-9.61124e-05
0.000378029
-0.00264865
-7.50856e-05
0.000316431
-0.00145786
-0.000106059
0.000230776
-0.000446822
-3.73891e-05
0.000133916
-2.59177e-05
7.15283e-06
-3.62829e-05
0.000427878
0.000327719
1.62314e-05
3.15958e-06
0.000230045
0.000292014
-0.000711114
3.87832e-05
0.000270016
0.000954896
0.000516493
2.08489e-05
2.89227e-05
-7.04346e-05
0.000100869
-0.000393578
-2.32216e-05
8.04354e-05
-0.000524457
4.42482e-05
4.4236e-05
-0.000178974
6.78889e-05
2.35373e-05
-1.03703e-05
0.000109024
1.77899e-05
-0.000845524
0.000141376
2.78077e-05
-1.54938e-05
0.000126929
2.47075e-05
-0.00106597
0.000168304
-6.6021e-05
-0.00224227
4.24151e-05
-8.37032e-05
-0.000199315
0.000360935
-1.98664e-06
0.000324987
-3.65109e-05
-5.21299e-05
0.000182395
-3.3893e-06
-2.97182e-05
0.000315027
8.51077e-06
-2.67953e-05
0.000519055
3.11727e-05
-2.38852e-05
0.000319394
4.57496e-05
-2.25153e-05
3.19492e-05
5.01069e-05
-3.61723e-05
-0.000356989
3.27389e-05
-2.16197e-05
-0.000914607
6.33803e-05
-5.34242e-06
-0.00184385
0.000118346
-8.11846e-07
-0.00230915
7.45051e-05
-2.01767e-07
-0.00274635
0.000110941
-3.53596e-06
-0.0026302
0.000111403
-0.00484679
-0.00136477
-0.000165302
-0.0037456
-0.00101352
0.000342348
-0.0046151
-0.00105617
6.63986e-05
-0.00463688
-0.00172159
9.39231e-05
-0.00366626
-0.00104476
0.000755517
-0.00523918
-0.000562447
0.000534656
-0.0052199
-0.00098565
0.000320089
-0.00480207
-0.00185302
0.000341709
-0.00343559
-0.000838135
0.000439068
-0.00645495
-0.000824951
0.000585296
-0.00617578
-0.000640162
0.000575949
-0.00636543
-0.000992539
0.000326302
-0.00591162
-0.00148714
2.40144e-05
-0.00518195
-0.000740719
0.000974931
-0.00738469
-0.000739812
0.000641282
-0.00752366
-0.00059381
0.000538364
-0.0073451
-0.000345641
0.000610155
-0.00765615
-0.000495125
0.000589351
-0.00771727
-0.00137249
0.000313503
-0.00595262
-0.00059006
0.00127442
-0.00737139
-0.000519236
0.00129225
-0.00722772
-0.000662508
0.00124627
-0.00711792
-0.000389542
0.00129913
-0.00637997
6.81891e-05
0.00117448
-0.00694146
-0.000209851
0.000893165
-0.00704821
-0.000870208
0.000599853
-0.00539864
-0.000699295
0.000709305
-0.00609452
-0.000349584
0.000618726
-0.00600199
-0.000532009
0.000675489
-0.00627896
-0.000490705
0.000899802
-0.00614169
3.78221e-05
0.00086298
-0.00531795
0.000108947
0.000754153
-0.00521891
-0.000108166
0.000747805
-0.00627914
-0.000432224
0.00060468
-0.0075259
-0.000261757
0.000428482
-0.00312556
-0.000153755
0.000387834
-0.00184426
-0.000292859
0.000390436
-0.00184484
-0.000424007
0.00023399
-0.0027573
-0.000255662
6.84755e-07
-0.00435705
0.000256749
-0.00014579
-0.00385611
0.000272361
1.75673e-05
-0.0036448
0.000107844
0.000188639
-0.00432426
0.000135691
0.000368116
-0.00522735
-0.000114007
0.000394372
-0.00285433
-0.0001537
0.00038359
-0.00258533
-6.24931e-05
0.00031002
-0.00143036
-5.18479e-05
0.000222691
-0.000415861
-6.65838e-06
0.000133659
-8.01774e-05
0.000159821
-4.27553e-05
0.00046842
0.000288652
2.12173e-06
0.000131329
8.77677e-05
0.000282759
-0.000643321
1.02214e-05
0.000241199
0.00076674
0.000484952
5.02068e-05
-0.000145301
-5.68062e-05
0.00011911
-0.000381962
-4.64152e-05
9.48818e-05
-0.000364999
2.85198e-06
7.57087e-05
-0.000550271
3.21087e-05
3.45587e-05
-0.000190931
8.55604e-05
1.18653e-05
-4.42565e-05
0.000116622
6.78555e-06
-0.000891017
0.000169731
3.49995e-05
-0.000162778
0.000144582
4.37616e-05
-0.00125695
0.000180451
-6.46981e-05
-0.00232338
4.64249e-05
-8.18773e-05
-9.1344e-05
0.000332768
-4.64094e-06
0.000107801
-8.66977e-05
-7.95532e-05
8.25809e-05
-3.22389e-05
-4.73336e-05
0.000232249
1.98728e-06
-2.65421e-05
0.000312786
1.5258e-05
-2.50126e-05
0.000504925
3.27112e-05
-2.19627e-05
0.00028613
5.24895e-05
-2.21809e-05
-3.45318e-05
5.08275e-05
-3.87239e-05
-0.000390712
3.52829e-05
-2.24624e-05
-0.00093277
6.66547e-05
-1.35616e-06
-0.00190996
0.000119306
4.45689e-07
-0.0024291
6.47879e-05
1.94945e-06
-0.00281662
9.06418e-05
-7.575e-07
-0.00272008
-0.00116566
-0.00010405
-0.00436386
0.000169784
-0.00484781
-0.00123778
9.91318e-06
-0.00484039
-0.00125014
-0.000109066
-0.00410799
-0.000967592
0.000430033
-0.00476499
-0.000560811
4.32302e-05
-0.00459357
-0.00113759
0.000378348
-0.00476937
-0.00152712
7.5328e-06
-0.00399969
-0.000864687
0.000759999
-0.00545707
-0.00086031
0.000725096
-0.00539426
-0.000912593
0.000566661
-0.00519404
-0.00101537
0.000421417
-0.00485895
-0.0016075
0.000236269
-0.0035515
-0.00083364
0.000330192
-0.00693623
-0.000796904
0.000495342
-0.0063079
-0.000633078
0.000645389
-0.00620595
-0.000675699
0.000570412
-0.00627949
-0.000828515
0.000252399
-0.00580661
-0.00151404
0.00010919
-0.00514959
-0.000475098
0.00102215
-0.00721169
-0.000744674
0.000934277
-0.00745225
-0.000714318
0.000521676
-0.00745517
-0.000659484
0.000673342
-0.00713835
-0.000266453
0.000733867
-0.00746602
-0.000406893
0.000608346
-0.00781507
-0.00114307
0.00024134
-0.0059211
-0.00075006
0.00135871
-0.00769524
-0.000527121
0.00135076
-0.00725237
-0.000755972
0.00133347
-0.00709095
-0.000790737
0.00129114
-0.00680989
-0.000266352
0.00148178
-0.0063831
3.01313e-05
0.00110206
-0.00707153
-0.000217402
0.000904989
-0.00724411
-0.000754677
0.000607825
-0.00568401
-0.000427701
0.000688092
-0.00604404
-0.000204516
0.000483607
-0.00590864
-0.000409497
0.000604019
-0.00581388
-0.000484061
0.000753913
-0.00607302
0.000118099
0.000703231
-0.00635571
7.29369e-05
0.000814669
-0.00519465
0.000191661
0.000759992
-0.00515039
4.92445e-05
0.000799782
-0.00641564
-0.000506591
0.000672002
-0.00755562
-0.000338477
0.000583466
-0.00379366
-0.000306566
0.00045653
-0.00304138
-0.000200929
0.000346538
-0.00166193
-0.00023627
0.000306736
-0.00173317
-0.000244983
0.00012744
-0.00264573
-0.000203571
-5.11146e-05
-0.00408833
4.38212e-05
-6.82538e-05
-0.00352546
2.08184e-05
-2.76684e-05
-0.00336155
8.85941e-05
0.000177716
-0.00421224
2.42054e-05
0.000425068
-0.00519167
-8.9048e-05
0.000413778
-0.00256707
-0.000156262
0.00036389
-0.00272479
-0.00015823
0.000378346
-0.00249257
-9.86988e-05
0.000315498
-0.00139236
8.74457e-06
0.000197359
-0.000402745
1.98448e-05
0.000111133
-0.000137288
0.000142339
-4.90059e-05
0.00054694
0.000300773
5.88158e-06
0.000252016
5.12173e-06
0.000241851
-0.000468644
0.000103126
0.000231242
0.000529005
0.000396483
8.19811e-05
-0.000290998
-0.000218242
0.000142037
-0.000365878
-0.000118998
0.000105136
-0.000305458
-2.16127e-05
8.47147e-05
-0.000350405
1.55013e-05
6.66706e-05
-0.000582626
5.95406e-05
2.56445e-05
-0.00023154
0.000113475
2.26039e-06
-0.000100716
0.000126648
-2.02477e-06
-0.000929813
0.000198889
4.7884e-05
-0.000330506
0.000167983
6.75839e-05
-0.00149056
0.000195064
-5.39562e-05
-0.00242706
6.26932e-05
-5.6684e-05
-3.72061e-05
0.000310086
-1.14815e-05
-0.000100162
-0.00010779
-9.51321e-05
-0.000407408
-8.20446e-05
-7.8325e-05
0.000195617
-2.6284e-05
-4.52343e-05
0.000277226
7.96254e-06
-2.38446e-05
0.000303656
2.07243e-05
-2.40754e-05
0.000486313
3.36204e-05
-1.98253e-05
0.000250154
5.8338e-05
-2.16908e-05
-0.000109903
4.92532e-05
-3.9695e-05
-0.000422733
3.70749e-05
-2.31194e-05
-0.000948082
6.97028e-05
-7.58422e-07
-0.00197846
0.000118806
-2.16281e-06
-0.0025438
5.3949e-05
4.86989e-06
-0.0028762
6.26361e-05
2.88935e-06
-0.00278561
-0.0014891
0.000182231
-0.00294121
-0.00133464
-2.07986e-05
-0.00416923
-0.00116829
-0.00020993
-0.00423577
0.000273048
-0.00484184
-0.000822958
0.000221975
-0.00479772
-0.00132448
3.18421e-05
-0.0047944
-0.00124668
-7.0658e-05
-0.00431777
-0.000993597
0.000560385
-0.00491644
-0.000842365
0.00031356
-0.00505327
-0.000521802
0.000320159
-0.00492617
-0.00109303
0.000157578
-0.00484175
-0.00139574
4.22056e-06
-0.00421567
-0.000737386
0.000643532
-0.00549776
-0.000869973
0.000786388
-0.0054453
-0.000707177
0.000766057
-0.00551955
-0.000778518
0.000532118
-0.00520192
-0.000974611
0.000386004
-0.00486259
-0.00161685
0.00021011
-0.0036588
-0.000620265
0.000401422
-0.00733007
-0.000902267
0.00047269
-0.00675599
-0.000676398
0.000540068
-0.0062405
-0.000667029
0.000668482
-0.00629647
-0.000651437
0.000489675
-0.00613178
-0.000729915
0.000371003
-0.0057454
-0.00143763
0.000176747
-0.00503177
-0.000572434
0.000890924
-0.00705115
-0.000665437
0.00111407
-0.00725317
-0.000924085
0.000733703
-0.00749617
-0.000767679
0.000615949
-0.00742083
-0.000402218
0.000743336
-0.00701195
-8.85561e-05
0.000832359
-0.00757135
-0.000591246
0.000549045
-0.00774893
-0.00113786
0.000251183
-0.0057891
-0.00057008
0.00138628
-0.0078575
-0.000591861
0.00145841
-0.00741554
-0.000558722
0.00139188
-0.00716156
-0.000658499
0.00143402
-0.00705938
-0.000103327
0.00160567
-0.00671235
-0.000137952
0.00120608
-0.00627623
1.40721e-05
0.00115256
-0.00714151
-0.000144662
0.00103162
-0.007474
-0.000816612
0.00053904
-0.00591303
-0.000449407
0.000796671
-0.00600185
-0.00039674
0.000583861
-0.00605412
-0.000362489
0.000492949
-0.00563601
-0.000341829
0.000588936
-0.00554334
-0.000176971
0.000587522
-0.00602532
-0.000543753
0.00072369
-0.00592455
-0.000156931
0.000818045
-0.00505196
5.2748e-05
0.00077249
-0.00515503
6.28774e-06
0.000929926
-0.00659126
-0.000678481
0.000684173
-0.0075371
-0.000370221
0.000567749
-0.00438366
-0.000409637
0.000568594
-0.00365235
-0.000343866
0.000451046
-0.00296026
-0.000218371
0.000315541
-0.00155106
-0.000168527
0.000241862
-0.00167032
-0.000322392
6.44322e-05
-0.00241904
-0.000133493
-0.000153269
-0.00372749
0.000278894
-0.000219451
-0.00331179
-0.000100578
-8.86692e-05
-0.00298946
0.000302899
0.000146994
-0.00413394
-0.00015598
0.000445598
-0.0050848
-0.000332212
0.000381968
-0.00327543
-0.000231452
0.000372894
-0.00246362
-0.000139643
0.000359603
-0.00258801
-0.000147287
0.000356635
-0.00237092
-4.59975e-05
0.00029559
-0.00138506
0.000113173
0.000183301
-0.000474611
7.20154e-05
6.91234e-05
-0.000200785
0.000252856
-5.83823e-05
0.000557236
0.000312898
3.64357e-06
0.000345308
6.70972e-05
0.000198173
-0.000307609
0.000124336
0.000204232
0.00034511
0.000337259
0.000102268
-0.000420438
-0.000305039
0.000155215
-0.000562096
-0.000219195
0.000143427
-0.000267019
-7.44132e-05
9.69679e-05
-0.000269582
2.7801e-06
7.22979e-05
-0.00035085
1.75436e-05
6.1248e-05
-0.000615049
3.12701e-05
2.29904e-05
-0.00024992
0.000142955
-4.32191e-06
-0.000183036
0.000140668
-8.82041e-06
-0.000964524
0.000221464
6.67804e-05
-0.000514091
0.000195709
9.01858e-05
-0.00176071
0.000223779
-2.77337e-05
-0.00256098
0.000101706
-2.49303e-05
-7.15146e-05
0.000298744
-2.48475e-05
-0.000311422
-0.0001019
-5.75149e-05
-0.00113937
-0.000105066
-9.67469e-05
-0.00028392
-7.95638e-05
-7.75594e-05
0.000307506
-2.09475e-05
-4.01108e-05
0.000314439
1.46098e-05
-2.33584e-05
0.000288329
2.62109e-05
-2.282e-05
0.000463097
3.35342e-05
-1.76133e-05
0.000212543
6.24601e-05
-2.08212e-05
-0.000191237
4.35747e-05
-3.90541e-05
-0.000450373
3.66903e-05
-2.34732e-05
-0.000962057
7.8682e-05
-4.9897e-06
-0.00205432
0.00010866
-1.51265e-06
-0.00264607
3.99178e-05
9.92156e-06
-0.00292315
4.35696e-05
1.7101e-06
-0.00283089
2.69235e-05
-0.00272864
-0.00143934
0.000186978
-0.00358837
-0.00153375
0.000245203
-0.00282096
-0.000981599
0.000104045
-0.00454921
-0.00146501
-6.52846e-05
-0.00417335
-0.00132911
-0.000208712
-0.00394463
0.000427072
-0.00471585
-0.000886851
0.000307201
-0.00488258
-0.000378808
0.000174494
-0.00508337
-0.00134366
0.000247095
-0.00486153
-0.00141865
-1.66221e-05
-0.00427823
-0.000591915
0.000540109
-0.00516947
-0.000971208
0.000498025
-0.00499967
-0.00071327
0.00029129
-0.00501831
-0.000693483
0.000172728
-0.00502635
-0.00110982
0.000143999
-0.00484632
-0.00145185
-3.63559e-05
-0.00434432
-0.000836083
0.000632393
-0.00563929
-0.000859708
0.000684617
-0.00543854
-0.000599936
0.000807457
-0.00556316
-0.000792231
0.00068474
-0.00554697
-0.000707385
0.000518355
-0.00527833
-0.000827049
0.000382188
-0.00493753
-0.00162011
0.000161792
-0.00363812
-0.000565232
0.000634491
-0.0073624
-0.000858641
0.000489859
-0.00715403
-0.000801563
0.000404401
-0.00674284
-0.000607304
0.0005274
-0.00625979
-0.000666768
0.000712489
-0.00625474
-0.000391274
0.000578003
-0.00603606
-0.000712218
0.000339347
-0.00578703
-0.00152669
0.000216869
-0.00485981
-0.000391832
0.00078733
-0.00741906
-0.000485186
0.00101227
-0.00705602
-0.000741029
0.00111412
-0.00745127
-0.000912927
0.000889777
-0.00751557
-0.000656651
0.000809718
-0.00693389
-0.000330773
0.000910713
-0.00689748
-0.000376406
0.000788021
-0.00741984
-0.000517526
0.000580657
-0.00770554
-0.0012165
0.000273559
-0.00566277
-0.000313951
0.00130858
-0.00773205
-0.000619076
0.00152857
-0.00770533
-0.000540559
0.00146222
-0.0073078
-0.000495743
0.00148188
-0.00705551
-0.000343731
0.00153593
-0.00682288
-0.000719364
0.00119353
-0.00652419
-0.000234936
0.00134071
-0.00638638
3.85018e-05
0.00116987
-0.00726551
-7.86773e-05
0.00104571
-0.00789571
-0.000951205
0.000457572
-0.00609788
-0.000487678
0.000797929
-0.00642346
-0.000486642
0.000712966
-0.00605395
-0.000438717
0.000599565
-0.00606588
-0.000226208
0.000501342
-0.00554058
-0.000277538
0.00056318
-0.00540999
-0.000473659
0.000625209
-0.00577557
-0.000229311
0.000564143
-0.00557483
0.00010543
0.000671916
-0.00477792
7.43017e-05
0.000871439
-0.00527142
0.000131154
0.000987461
-0.0067228
-0.000750668
0.000674801
-0.00761722
-0.000495824
0.000517899
-0.00493542
-0.000422264
0.000552099
-0.00417636
-0.000441226
0.000570214
-0.00346993
-0.000364452
0.000435247
-0.0028628
-0.000153488
0.00030606
-0.00150777
-0.000133229
0.00020861
-0.00156809
-0.000176211
-2.69109e-05
-0.00229718
0.000366752
-0.000255264
-0.00380557
0.000202915
-0.000320082
-0.0029704
2.63336e-05
-0.000212915
-0.00258879
0.000227045
0.000199717
-0.00399076
-0.000284734
0.000485943
-0.00494875
-0.000411278
0.000350382
-0.003793
-0.000389284
0.000368503
-0.00310095
-0.000192615
0.000378078
-0.00236389
-8.11316e-05
0.000332857
-0.00248032
-0.000161971
0.000335752
-0.00223157
-0.000122371
0.000311297
-0.00135941
0.000218271
0.000149115
-0.000629919
0.000102829
3.01894e-05
-0.000251517
0.000380284
-6.32468e-05
0.000465306
0.000343522
2.98382e-06
0.000392684
0.000109248
0.000150927
-0.000139772
0.000202083
0.000172212
0.00017479
0.000316465
0.000144386
-0.000582544
-0.000333382
0.000157038
-0.00158335
-0.000315174
0.00016246
-0.000371021
-0.000225574
0.000142871
-0.000166912
-6.31897e-05
8.63835e-05
-0.000241425
1.06563e-05
6.48142e-05
-0.000350463
9.58837e-07
5.61383e-05
-0.000622945
2.31869e-05
2.44742e-05
-0.000268368
0.000162657
-3.76153e-06
-0.000288292
0.000154289
-8.12185e-06
-0.00100034
0.000233142
8.65849e-05
-0.000706942
0.000235613
0.000104808
-0.00205018
0.000223666
2.13377e-06
-0.00270305
0.000151866
-4.52152e-06
-0.000203789
0.000278805
-2.40383e-05
-0.00052262
-0.000157074
-1.29208e-05
-0.00196459
-0.000103536
-5.90225e-05
-0.00107356
-0.000103008
-9.44464e-05
-0.000164025
-7.53287e-05
-7.18294e-05
0.000414553
-1.27118e-05
-3.9117e-05
0.00034291
2.15184e-05
-2.31389e-05
0.00026713
3.42988e-05
-2.17015e-05
0.000432886
3.29839e-05
-1.5406e-05
0.000174144
6.4798e-05
-1.90085e-05
-0.00027608
3.74585e-05
-3.60853e-05
-0.000475219
3.32209e-05
-2.25797e-05
-0.000977688
7.98485e-05
-4.01404e-06
-0.00213166
9.1574e-05
-3.67969e-07
-0.00272736
3.069e-05
9.17834e-06
-0.0029613
2.0655e-05
3.20802e-06
-0.00285475
0.000107805
-0.00299948
-0.00163922
2.14165e-05
-0.00264459
-0.00113094
0.000339186
-0.00406073
-0.00157584
0.000224548
-0.00345688
-0.00160907
0.000102398
-0.00264339
-0.00101341
0.000241793
-0.00452845
-0.000743183
0.000189528
-0.00443965
-0.00148624
-2.38675e-05
-0.00421561
-0.00159812
-3.56703e-05
-0.00372949
0.000490405
-0.00466201
-0.00098227
0.000462596
-0.00486019
-0.000677743
0.000258987
-0.0050026
-0.000667334
0.000244992
-0.00510741
-0.00108439
0.000124475
-0.00502805
-0.00147853
-0.000120414
-0.00413113
-0.000783153
0.000512232
-0.00516197
-0.000888887
0.000532154
-0.00517442
-0.000522581
0.000426185
-0.00521192
-0.000885864
0.000284906
-0.00503685
-0.000679109
0.000159962
-0.00507059
-0.00071557
6.95303e-05
-0.00506369
-0.00145578
-2.90883e-05
-0.00447956
-0.00064501
0.000622296
-0.00593603
-0.00089354
0.000649888
-0.00556966
-0.000624431
0.000731777
-0.00554
-0.000713609
0.000799059
-0.00557118
-0.000827614
0.000648799
-0.00551657
-0.00055048
0.000513236
-0.00525017
-0.000887171
0.000377813
-0.0049786
-0.00153795
9.80866e-05
-0.00372495
-0.000411537
0.000731213
-0.00697024
-0.000548246
0.00060212
-0.0074116
-0.000894589
0.000477727
-0.0070738
-0.000842655
0.000416403
-0.00670211
-0.000597942
0.00056245
-0.00616846
-0.000455256
0.000675082
-0.00622733
-0.000536289
0.000500353
-0.00603718
-0.000649652
0.00039198
-0.00583001
-0.00155217
0.000226367
-0.0047505
-0.000196321
0.000857334
-0.0075752
-0.000496204
0.000844668
-0.00737433
-0.000449711
0.00122719
-0.00725994
-0.000663682
0.00115772
-0.00755128
-0.000628997
0.000967924
-0.00738851
-0.000673874
0.00087209
-0.00694076
-0.000499582
0.000967928
-0.00681274
-0.000412217
0.000914229
-0.0073027
-0.000440567
0.000560929
-0.00763102
-0.00126438
0.000297527
-0.00564712
-0.00037748
0.00122327
-0.00757633
-0.000494194
0.00148773
-0.00768365
-0.000580833
0.00149182
-0.00759281
-0.000343131
0.00156743
-0.00727644
-0.000359353
0.00142687
-0.00686465
-0.000616614
0.00130691
-0.00679331
-0.000435971
0.00135125
-0.00632806
-0.000250036
0.00136759
-0.00622864
0.000136623
0.00121727
-0.00749939
-0.000189254
0.00100733
-0.00812506
-0.00090905
0.000469335
-0.00640883
-0.000416209
0.000791771
-0.00654869
-0.000581352
0.000704937
-0.00625634
-0.000600351
0.00073525
-0.00603051
-0.000412416
0.000567416
-0.00608399
-0.000102911
0.000519833
-0.00554781
-0.000587212
0.000587248
-0.00491805
-0.000156408
0.000439764
-0.005671
0.000459187
0.000430618
-0.00542596
2.40131e-05
0.000748103
-0.00447568
0.000108676
0.00087533
-0.00524164
7.53844e-05
0.00100456
-0.0069009
-0.000836089
0.000742533
-0.0078084
-0.000519109
0.00047405
-0.00543405
-0.000546388
0.000491636
-0.00471785
-0.000470759
0.000573587
-0.00390159
-0.000448659
0.000548137
-0.00321529
-0.000367559
0.000429107
-0.00278026
-0.000215089
0.000338229
-0.00154467
1.08695e-05
0.000191958
-0.00157956
-3.15899e-05
-7.8361e-05
-0.00233966
7.51214e-05
-0.000300574
-0.00351992
0.000237367
-0.000465566
-0.00261159
9.64373e-06
-0.000172452
-0.00211701
0.000129055
0.000241534
-0.00367333
-0.000363404
0.000415425
-0.00468431
-0.000458731
0.000286474
-0.00378998
-0.00049686
0.000346155
-0.00358897
-0.000414532
0.000377857
-0.00291177
-0.000228501
0.000383696
-0.00224942
-4.1951e-05
0.000317825
-0.00240979
-0.000175404
0.00032829
-0.0020722
-0.0001677
0.000310373
-0.00132978
0.000303417
0.000127332
-0.000867821
0.000123593
1.78916e-05
-0.00030196
0.000442559
-5.29137e-05
0.000311787
0.000373695
6.83038e-06
0.000398699
0.000178777
0.000103355
-2.60269e-05
0.00022557
0.00013394
0.000111531
0.000322677
0.000139245
-0.000765661
-0.000286919
0.000113483
-0.00254502
-0.000352245
0.000154204
-0.00132638
-0.000328272
0.000166651
-0.000169537
-0.000188794
0.000140035
-0.000107099
-3.89941e-05
8.29187e-05
-0.000233247
1.44279e-05
5.39491e-05
-0.000341183
7.98864e-06
5.19165e-05
-0.000624077
6.24847e-06
3.22628e-05
-0.000277657
0.000158128
-2.22366e-08
-0.000389721
0.000162715
-5.7422e-06
-0.00103326
0.000236928
0.000103689
-0.00090953
0.000276166
0.000112294
-0.00235666
0.000204506
3.98001e-05
-0.0028603
0.000183908
1.64881e-05
-0.000397533
0.000249761
-2.63846e-05
-0.000725342
-0.000134084
4.39147e-06
-0.00181208
-0.000162778
-1.4102e-05
-0.00184673
-0.000103285
-5.81167e-05
-0.0010066
-0.00010019
-8.8507e-05
-4.71573e-05
-7.11217e-05
-6.77111e-05
0.000514269
-6.58124e-06
-3.53839e-05
0.000361736
2.86039e-05
-2.35255e-05
0.00024035
3.91531e-05
-2.05462e-05
0.000398874
3.33391e-05
-1.32109e-05
0.000135007
6.47408e-05
-1.68383e-05
-0.000360068
3.15798e-05
-3.26941e-05
-0.000496685
2.80726e-05
-2.08029e-05
-0.000988972
8.22659e-05
-3.98249e-06
-0.00221031
7.09008e-05
-6.82536e-07
-0.0027884
1.80998e-05
1.17086e-05
-0.0029879
6.1392e-06
7.50183e-06
-0.00286839
-0.00195909
0.000246592
-0.00226757
0.000192305
-0.00353615
-0.00171284
8.25642e-05
-0.00292363
-0.00165981
9.89467e-06
-0.00260375
-0.00104695
0.000421798
-0.00414269
-0.000768601
0.000248433