/*--------------------------------*- C++ -*----------------------------------*\
  =========                 |
  \\      /  F ield         | OpenFOAM: The Open Source CFD Toolbox
   \\    /   O peration     | Website:  https://openfoam.org
    \\  /    A nd           | Version:  7
     \\/     M anipulation  |
\*---------------------------------------------------------------------------*/
FoamFile
{
    version     2.0;
    format      ascii;
    class       volVectorField;
    location    "7.5";
    object      U_0;
}
// * * * * * * * * * * * * * * * * * * * * * * * * * * * * * * * * * * * * * //

dimensions      [0 1 -1 0 0 0 0];

internalField   nonuniform List<vector> 
18750
(
(3.3201 0.386409 -0.903816)
(3.14495 -0.891813 0.0349823)
(2.2391 0.921993 -1.43873)
(2.92069 0.372288 -0.812739)
(-1.25121 1.27578 -0.820004)
(3.58171 0.201725 -0.0738498)
(3.07388 -1.19867 0.0957225)
(1.31531 0.958247 -1.69036)
(2.00569 0.956414 -1.20868)
(2.54134 0.402566 -0.739668)
(0.138101 3.54546 0.570986)
(1.2588 2.52541 0.439854)
(-1.11731 0.94997 -1.11161)
(1.69289 1.01249 -0.603772)
(2.7035 0.132665 0.150003)
(3.00346 -1.3531 0.10716)
(1.20246 0.800933 -2.15131)
(1.25817 0.949758 -1.43504)
(1.8562 0.983536 -0.962959)
(2.23264 0.45671 -0.647213)
(-2.92598 4.16302 0.187242)
(2.13475 3.37082 -0.439116)
(0.510875 3.26392 0.723731)
(0.479217 0.222804 2.33895)
(0.30584 -0.0265519 0.146554)
(-1.07566 0.860044 -0.155009)
(-0.316712 0.482583 0.194497)
(1.66762 1.02447 -0.609544)
(2.14578 0.0709317 0.272169)
(2.82403 -1.55202 0.100473)
(0.497865 0.450984 -0.0948229)
(1.32332 0.773051 -1.85654)
(1.23106 0.941022 -1.19655)
(1.7613 1.00289 -0.749717)
(2.01534 0.517411 -0.537344)
(-3.42542 3.1425 -0.651929)
(2.64909 4.26224 1.88801)
(-2.00792 4.27455 0.68484)
(0.275229 3.3769 0.463094)
(2.30772 3.30899 -0.156513)
(0.757696 3.21038 0.733954)
(0.262971 0.726144 1.36854)
(0.66063 0.0985097 3.25834)
(0.0753117 -2.85493 0.328737)
(-0.755725 0.556179 -0.311302)
(-0.359814 -0.2338 -0.00830359)
(-0.147411 0.479061 0.127515)
(1.54622 0.978995 -0.468815)
(1.44425 0.0272573 0.295472)
(2.61926 -1.69382 0.0636123)
(0.562674 0.120161 -0.408399)
(0.51542 0.453307 -0.0155457)
(1.36246 0.750276 -1.51835)
(1.25731 0.922142 -0.974247)
(1.698 1.0123 -0.574222)
(1.87627 0.574731 -0.447726)
(-2.32056 3.48499 -0.141919)
(-1.48813 4.3989 2.78304)
(-3.21848 3.28801 -0.725477)
(0.371435 4.35781 3.19255)
(0.659584 4.14709 2.38881)
(-1.38321 4.23111 0.622639)
(-0.181374 3.26721 0.232189)
(1.29506 3.37217 -0.112368)
(2.07045 3.12899 0.436847)
(1.48136 3.0025 0.800182)
(0.196569 0.44664 -0.171993)
(0.472624 0.459593 1.49719)
(0.839114 0.110618 2.62111)
(0.105034 -1.20097 0.428589)
(-0.499596 0.411185 0.0547531)
(0.150589 0.398301 0.477097)
(-0.219209 -0.222607 0.0237931)
(0.0308422 0.465105 0.0777984)
(1.54479 0.982876 -0.564985)
(1.30598 -0.00165302 0.250407)
(2.43062 -1.7764 0.0303421)
(0.261671 -0.148097 -0.598355)
(0.533567 0.102827 -0.493209)
(0.515695 0.457469 0.039459)
(1.35024 0.737325 -1.1803)
(1.33315 0.898658 -0.770665)
(1.65421 1.02156 -0.433974)
(1.78273 0.636288 -0.404141)
(-1.61463 3.90953 -0.115685)
(0.443004 5.45835 -0.470236)
(-1.43606 4.1151 0.224548)
(-1.32166 4.54473 2.2149)
(-0.701538 4.65511 2.53667)
(-1.7723 3.76635 -0.114779)
(-1.66706 4.47222 2.61629)
(1.43436 4.17028 2.54481)
(1.46349 3.98941 2.64815)
(-0.189754 4.23195 0.641922)
(-1.18135 3.66614 0.28918)
(0.223067 3.05019 -0.0608071)
(1.5842 3.20779 -0.203376)
(1.77721 2.93903 0.985416)
(1.18222 3.20094 0.918565)
(0.864168 -0.0294499 0.0886302)
(0.335411 0.251766 -0.253516)
(0.582016 0.238194 1.12103)
(0.856642 0.164645 2.36876)
(-0.0549957 -1.1496 0.479956)
(-0.0777286 0.132857 -0.0723467)
(0.215389 -0.011126 0.16346)
(0.254637 0.416625 0.440758)
(-0.080703 -0.214158 0.0414659)
(0.189407 0.447633 0.0528285)
(1.53588 0.956412 -0.549489)
(1.27884 -0.112827 0.18815)
(2.26241 -1.82997 0.00355564)
(0.339678 -0.287943 -0.590576)
(0.252368 -0.147186 -0.549741)
(0.555076 0.0853485 -0.59548)
(0.507392 0.459505 0.0713954)
(1.31673 0.73231 -0.854644)
(1.40063 0.854537 -0.607781)
(1.63715 1.02442 -0.298956)
(1.7096 0.693223 -0.371554)
(-2.27134 2.6045 0.121879)
(-0.554735 4.2275 0.52713)
(-1.16823 3.88781 -0.0196799)
(-0.845826 4.71717 0.533238)
(0.342102 5.51272 0.00497302)
(-1.78451 4.29044 0.187887)
(-1.04218 4.46315 2.22484)
(-0.841064 4.4152 2.19525)
(0.1399 4.7 1.96826)
(-1.01494 3.7862 0.0338222)
(-1.20284 4.67115 2.69495)
(-0.967882 4.27467 2.57767)
(0.749003 4.02085 2.12146)
(1.26811 3.93261 2.8587)
(0.716799 4.26369 0.84012)
(-1.54176 2.17381 0.768181)
(-1.04304 3.52966 0.147658)
(0.656171 2.77612 -0.428522)
(1.73448 2.79515 -0.206007)
(1.50496 2.90827 0.75941)
(1.26054 3.47973 0.611751)
(-0.174542 0.346629 0.985549)
(0.837285 -0.0998595 0.0563398)
(0.520043 -0.0343938 -0.4095)
(0.672618 0.00210167 1.00705)
(0.777439 0.142615 2.05897)
(-0.441272 -1.16822 0.531567)
(0.359926 -0.216172 -0.226193)
(-0.104345 0.0905517 0.578967)
(0.288008 -0.0344332 0.16502)
(0.335307 0.43461 0.403591)
(0.0580016 -0.196232 0.0562271)
(0.354306 0.432955 0.0390219)
(1.57067 0.900803 -0.576324)
(1.19263 -0.198839 0.150384)
(2.10203 -1.83389 -0.0168742)
(0.142326 -0.371124 -0.619621)
(0.348665 -0.29824 -0.560183)
(0.285378 -0.148439 -0.507604)
(0.590622 0.0616163 -0.703265)
(0.50086 0.465051 0.101867)
(1.28159 0.734566 -0.560833)
(1.58767 0.765524 -0.235523)
(1.63208 1.02426 -0.192035)
(1.67892 0.777506 -0.327266)
(-1.98659 2.16361 -0.057117)
(-1.30052 3.09389 0.421708)
(-2.17616 2.71031 0.144692)
(-0.63987 4.40387 0.643468)
(-0.82982 3.95255 0.272715)
(-0.6935 3.8477 -0.0841142)
(-0.994853 4.7918 0.580277)
(0.254311 5.02187 0.395108)
(-0.101444 5.49662 0.299808)
(-1.60494 4.44391 0.157055)
(-1.39623 4.96169 1.83647)
(-0.81177 4.50446 2.39553)
(0.107027 4.4086 2.20656)
(0.780299 4.56338 2.10168)
(-0.456901 3.72645 0.159709)
(-0.030649 4.47701 1.5454)
(-1.13313 4.45983 2.51309)
(0.181476 4.02148 2.63589)
(0.556915 3.79456 2.08998)
(1.73671 3.82973 2.56094)
(1.30783 4.60194 0.8978)
(-0.605981 1.31488 1.6567)
(-1.42713 2.24637 0.772735)
(-0.789423 3.395 -0.0742188)
(0.869524 2.59923 -0.479258)
(1.63446 2.45599 -0.27123)
(1.72801 2.70628 0.930344)
(1.71099 3.24909 0.754008)
(0.320054 0.988743 1.13202)
(-0.107212 0.360708 0.952512)
(0.804393 -0.151659 0.126256)
(0.640369 -0.249284 -0.510105)
(0.753527 -0.183264 0.802041)
(0.668769 0.194214 1.84939)
(-0.581243 -0.652702 0.539736)
(0.932168 -0.638102 -0.41523)
(-0.28933 0.349891 0.27297)
(-0.00556138 0.0901919 0.467128)
(0.370826 -0.0724679 0.140126)
(0.406967 0.430194 0.345334)
(0.192235 -0.18035 0.0976547)
(0.498335 0.423718 0.0356939)
(1.76365 0.827589 -0.778959)
(1.09174 -0.296834 0.101531)
(1.91132 -1.75614 -0.0386089)
(0.159078 -0.213632 -0.641475)
(0.11754 -0.368956 -0.614561)
(0.365827 -0.308249 -0.517727)
(0.347815 -0.154775 -0.51647)
(0.631274 0.0336548 -0.805663)
(0.507262 0.460529 0.0558778)
(1.26086 0.730784 -0.322353)
(1.67854 0.726873 -0.158369)
(1.6047 1.02566 -0.0896369)
(1.63165 0.809145 -0.317824)
(-2.0016 2.19516 -0.0974582)
(-0.930051 3.10401 0.200326)
(-1.75456 2.35973 -0.134339)
(-1.19431 3.31668 0.544148)
(-1.10066 3.10941 0.506471)
(-2.17366 2.72491 0.178371)
(-0.770205 4.26757 0.799133)
(-0.373277 4.35418 0.629982)
(-0.800801 4.04991 0.0887419)
(-0.569163 3.84451 -0.172515)
(-0.982192 4.87957 0.981271)
(-0.247988 4.89722 0.708639)
(0.673697 5.16149 0.45311)
(0.403759 5.27493 0.730957)
(-1.10849 4.55548 0.153744)
(-1.26802 4.95687 2.11696)
(-0.919925 5.02026 2.09073)
(-0.307726 4.30715 2.78095)
(0.724616 4.37472 2.07413)
(1.27321 4.53096 2.07233)
(0.00109212 3.65045 0.256817)
(-0.192072 4.30639 1.92222)
(0.512975 4.25642 1.99304)
(-0.187548 4.29359 2.2728)
(-0.17514 4.10935 1.65719)
(0.922837 3.55296 1.97066)
(1.64543 3.88403 2.04408)
(0.803423 4.93963 0.396023)
(-1.00414 1.52006 1.511)
(-0.612327 1.38104 1.49419)
(-1.09846 2.23655 0.671209)
(-0.543997 3.22712 0.056051)
(1.97006 2.14994 -0.885282)
(1.83847 2.19676 -0.332488)
(1.89264 2.5085 0.969383)
(2.29859 2.87583 0.835105)
(0.256588 1.79096 1.51334)
(0.54739 0.950427 1.05406)
(0.0605446 0.319029 0.895785)
(0.787751 -0.18131 0.276196)
(0.739191 -0.457876 -0.598304)
(0.761327 -0.278338 0.763884)
(0.480188 0.271408 1.8343)
(-0.806336 -0.40741 0.557162)
(1.39021 -0.954463 -0.549045)
(-0.646047 0.288375 0.8259)
(-0.271276 0.374379 0.261757)
(0.0330405 0.103125 0.337066)
(0.408834 -0.10096 0.0955847)
(0.483583 0.429942 0.244921)
(0.334227 -0.171559 0.184024)
(0.659617 0.415491 0.0567248)
(1.94282 0.641515 -1.08018)
(0.953495 -0.392837 0.0618561)
(1.71529 -1.62325 -0.0350091)
(-0.306676 -0.0952609 -0.755884)
(0.20436 -0.237082 -0.596919)
(0.220907 -0.403881 -0.561692)
(0.378066 -0.319537 -0.467066)
(0.435377 -0.172048 -0.556375)
(0.667662 0.00364886 -0.894837)
(0.509024 0.45076 -0.0119355)
(1.26374 0.716374 -0.151982)
(1.78037 0.673963 -0.0869451)
(1.61044 1.08972 -0.00134162)
(1.57299 0.952939 -0.299911)
(-0.794503 3.22919 0.0254139)
(-1.75252 2.51667 -0.124222)
(-1.05934 2.89746 0.257404)
(-0.772205 3.15879 0.34666)
(-1.47035 2.59949 -0.180953)
(-1.20089 3.44611 0.784074)
(-0.608761 3.537 0.531748)
(-0.673524 3.3684 0.248245)
(-2.09691 2.75031 0.276963)
(-1.19605 4.35427 0.661087)
(-0.601957 4.18042 0.737076)
(0.082459 4.32653 0.712979)
(-0.363803 4.13077 0.212815)
(-0.379603 3.82861 -0.159764)
(-0.712487 4.80576 1.34712)
(-0.400868 4.99195 0.785968)
(0.0869712 4.97986 0.844839)
(0.861474 5.06542 0.748293)
(1.03998 5.04768 0.908569)
(-0.761081 4.56487 0.0952726)
(-0.964363 4.90969 2.39548)
(-0.666077 4.91521 2.28784)
(-0.556113 5.00619 2.29435)
(0.719682 4.35906 2.48424)
(1.5066 4.29084 1.95604)
(1.39586 4.46682 2.03011)
(0.254168 3.69698 0.148363)
(-1.01374 4.0333 1.78416)
(0.0616377 4.0909 1.76814)
(-0.033828 4.39102 1.49305)
(0.236047 4.09888 2.2062)
(1.39695 3.26499 2.04073)
(1.44036 3.2469 1.66019)
(1.03076 4.06317 2.10887)
(1.5921 4.89326 0.542916)
(-0.757895 2.17352 0.853322)
(-0.944761 1.3393 1.30567)
(-0.65414 1.43304 1.24227)
(-0.807749 2.16737 0.42596)
(-0.0851967 3.11815 -0.0897577)
(2.17951 1.97592 -0.751036)
(2.15095 1.71192 -0.0308053)
(2.08154 2.23719 1.02408)
(3.26431 2.13225 1.19996)
(0.0380198 1.88366 1.56873)
(0.265849 1.73291 1.58628)
(0.657502 0.858982 1.04026)
(0.360049 0.208837 0.791461)
(0.874556 -0.234332 0.361959)
(0.858355 -0.681087 -0.678707)
(0.769941 -0.397494 0.689075)
(0.308727 0.341242 1.73466)
(-0.913267 -0.155072 0.709712)
(1.43444 -0.988524 -0.504236)
(-0.556093 0.264374 0.536958)
(-0.483459 0.307825 0.868161)
(-0.212286 0.395849 0.249793)
(0.10267 0.110453 0.228992)
(0.438176 -0.117536 0.0258702)
(0.52093 0.430004 0.176334)
(0.480766 -0.164791 0.314643)
(0.855517 0.402732 0.1348)
(2.12874 0.48621 -1.19754)
(0.859848 -0.515789 0.0195222)
(1.55639 -1.47173 -0.0595402)
(-0.718313 0.00674209 -1.41904)
(-0.297093 -0.111876 -0.644954)
(0.223983 -0.253947 -0.55398)
(0.262811 -0.415143 -0.54697)
(0.382624 -0.327297 -0.409418)
(0.531072 -0.197679 -0.610784)
(0.683599 -0.0258949 -0.962588)
(0.518321 0.439117 -0.0383814)
(1.31316 0.693562 0.0405733)
(1.86256 0.610071 -0.110399)
(1.59622 1.13145 0.0666745)
(1.56749 0.996686 -0.305271)
(-0.202928 2.91027 -0.0501689)
(-0.918593 3.1581 0.163713)
(-0.752629 3.26432 -0.165117)
(-1.33553 2.86519 -0.174142)
(-0.975021 3.04202 0.449689)
(-0.00627762 3.17282 -0.188437)
(-0.595752 3.2506 0.369989)
(-1.09242 2.82268 -0.189692)
(-0.759455 3.6038 0.963276)
(-0.826528 3.58199 0.748631)
(-0.518952 3.56265 0.512425)
(-0.603617 3.40621 0.505196)
(-1.64345 2.96788 0.163529)
(-1.01207 4.67505 0.491371)
(-0.777987 4.31185 0.79142)
(-0.269096 4.18666 0.805742)
(0.288518 4.26778 0.685908)
(0.180261 4.04647 0.224889)
(-0.323153 3.75473 -0.0312589)
(-0.826243 4.69903 1.68982)
(-0.168098 4.9235 1.22687)
(-0.0827971 5.11728 0.794161)
(0.0496901 4.86198 1.16478)
(1.49386 4.76837 0.951962)
(1.51579 5.03298 0.946328)
(-0.0567073 4.43136 0.112699)
(-1.27975 5.09081 2.33975)
(-0.506981 4.92363 2.43511)
(-0.515549 4.88155 2.3505)
(-0.382849 5.03068 2.25112)
(0.956471 4.15729 2.3449)
(1.84088 4.3763 1.55613)
(2.18231 4.27458 1.9286)
(0.731778 3.85148 -0.111803)
(-0.402083 3.992 1.45398)
(0.619865 3.98281 1.03891)
(0.0974881 3.90634 1.57616)
(0.146412 4.06791 1.98974)
(1.06891 4.17975 1.89023)
(1.43985 3.26259 1.79475)
(1.72711 3.00699 1.4558)
(1.79512 3.89584 2.05282)
(1.97043 4.85074 0.74123)
(-0.58422 2.54144 1.62496)
(-0.930508 2.10626 1.02997)
(-0.83349 1.31563 1.1061)
(-0.513759 1.32812 0.941433)
(-0.546695 2.06486 0.134752)
(0.894018 2.80461 -0.236989)
(1.96316 1.87603 0.0748894)
(1.55551 1.84022 0.145546)
(2.20523 2.06377 1.04387)
(3.22348 2.03904 1.31143)
(0.00742286 1.77492 1.73538)
(0.232536 1.84582 1.54329)
(0.614625 1.62989 1.54804)
(0.511614 0.860363 1.10698)
(0.535639 0.131445 0.703018)
(0.962104 -0.282446 0.39264)
(0.966191 -0.794253 -0.699747)
(0.730852 -0.538325 0.68514)
(0.28748 0.296956 1.44047)
(-0.753928 -0.00383283 0.883584)
(1.39861 -0.905602 -0.267555)
(-1.23222 0.307708 1.07901)
(-0.45635 0.276989 0.423642)
(-0.369307 0.288063 0.82118)
(-0.128572 0.414326 0.228608)
(0.121083 0.100765 0.137501)
(0.465581 -0.129498 -0.0654732)
(0.572368 0.410614 0.14263)
(0.630038 -0.162596 0.503812)
(1.07835 0.384628 0.245563)
(2.27456 0.356545 -1.14089)
(0.801203 -0.615022 -0.00161089)
(1.39069 -1.30633 -0.131194)
(-0.622729 0.313955 -1.88049)
(-0.708553 -0.0211612 -1.33528)
(-0.268292 -0.134175 -0.559284)
(0.273568 -0.282678 -0.504212)
(0.29189 -0.441676 -0.528278)
(0.378446 -0.333113 -0.34482)
(0.629122 -0.228297 -0.661928)
(0.666541 -0.0330097 -0.980261)
(0.530979 0.429567 -0.0819827)
(1.35244 0.645908 0.14452)
(1.94203 0.519136 -0.072784)
(1.48317 1.15417 0.206549)
(1.43866 1.18535 -0.323785)
(-1.26098 2.08187 0.0921399)
(-0.939684 2.86477 -0.118684)
(-0.034207 2.91065 -0.121071)
(-0.837326 3.15468 0.167685)
(-0.578944 3.15174 0.188596)
(-0.646787 3.32885 -0.0175387)
(-0.864998 3.12302 -0.192178)
(-0.970804 3.23183 0.484751)
(-0.529782 3.36684 0.276625)
(-0.552299 3.13674 0.40418)
(-0.264977 3.32159 0.208206)
(-0.5124 3.06603 -0.154729)
(-0.812334 3.63173 0.809341)
(-0.552868 3.61269 0.94129)
(-0.121465 3.70227 0.845912)
(-0.323904 3.60607 0.523648)
(-0.280268 3.46035 0.399158)
(-1.38214 3.09803 0.0977593)
(-0.214761 4.86419 0.371206)
(-0.96934 4.54843 0.547873)
(-0.416436 4.21557 0.919302)
(0.0954452 4.24019 0.821055)
(0.38267 4.17507 0.448912)
(0.569082 3.91508 0.312905)
(0.124212 3.74913 0.0929637)
(-0.93713 4.62757 1.47669)
(-0.363004 4.72507 1.77684)
(-0.497011 5.09929 0.824292)
(-0.202992 5.10416 0.849281)
(0.840598 4.74778 1.28657)
(1.74002 4.73298 0.986656)
(1.28672 5.12257 0.700663)
(0.472955 4.20211 0.170379)
(-0.910264 5.19115 2.65068)
(-0.541522 5.06831 2.59858)
(-0.256991 4.87688 2.56088)
(-0.0821284 4.87635 2.5806)
(2.09518 3.87833 3.31595)
(1.57923 3.86327 2.49337)
(2.31917 4.14229 1.69056)
(2.59618 4.13471 2.23558)
(0.877 4.04998 -0.386656)
(-0.880778 3.89543 1.68659)
(-0.0839013 3.97196 1.26367)
(0.617953 3.689 1.1178)
(0.517045 3.78073 1.43442)
(1.19657 3.96542 1.4802)
(0.607532 4.05057 1.89878)
(0.632964 3.47533 2.04069)
(1.36189 3.17352 1.73057)
(1.99257 3.94919 2.20956)
(1.89608 4.86546 0.631406)
(-0.477947 2.97336 1.75294)
(-0.835112 2.54205 1.62407)
(-1.13185 2.19792 0.99754)
(-0.821623 1.27832 0.934616)
(-0.161032 1.23181 0.628609)
(-0.402866 1.91312 0.0105346)
(0.65763 2.52206 -0.532091)
(2.04176 1.51223 -0.319123)
(1.10619 1.94745 0.102383)
(2.74173 1.59128 1.16221)
(2.93948 2.15302 1.28904)
(-0.937274 2.19633 1.58673)
(-0.60904 1.67261 1.52525)
(0.4953 1.70475 1.54794)
(0.801298 1.47075 1.52035)
(0.847604 0.702407 1.00382)
(0.812012 -0.00601767 0.493437)
(1.04778 -0.349147 0.361765)
(1.04817 -0.992266 -0.673085)
(0.723831 -0.689762 0.611732)
(0.278892 0.111124 1.19627)
(-0.505647 0.0335323 0.902485)
(1.39699 -0.936177 -0.0368369)
(-1.81281 0.483901 0.903265)
(-1.12717 0.310432 0.998093)
(-0.359295 0.243416 0.342227)
(-0.319538 0.317062 0.717203)
(-0.048421 0.427891 0.198785)
(0.149542 0.122578 0.0945845)
(0.477797 -0.12051 -0.164252)
(0.628444 0.388481 0.127867)
(0.772925 -0.155912 0.735633)
(1.34957 0.360589 0.319098)
(2.35653 0.236602 -0.800927)
(0.795811 -0.724346 -0.0428335)
(1.23113 -1.12571 -0.250108)
(-0.416286 0.764972 -2.0933)
(-0.58487 0.281168 -1.92851)
(-0.68296 -0.0694673 -1.33807)
(-0.237042 -0.153061 -0.503188)
(0.298692 -0.299418 -0.486178)
(0.325372 -0.467718 -0.505094)
(0.366461 -0.333678 -0.278108)
(0.723439 -0.264247 -0.694092)
(0.592433 -0.0121132 -0.967845)
(0.52964 0.420063 -0.1403)
(1.40427 0.536353 0.018558)
(2.01 0.514364 -0.0835057)
(1.45548 1.25649 0.405678)
(1.36556 1.22776 -0.338217)
(-0.771177 1.92425 0.0187586)
(-0.810197 2.48806 0.170453)
(-1.11593 2.1035 0.142707)
(-0.382732 3.05532 0.0863351)
(-0.848908 2.91388 -0.234912)
(-0.0925519 2.84097 -0.184634)
(-0.865767 3.07131 0.329503)
(-0.525116 3.19852 0.211897)
(0.612068 3.2873 0.0690064)
(-0.472937 3.37758 0.0712323)
(-0.675825 3.16372 -0.169791)
(-0.642954 3.37617 0.662837)
(-0.762026 3.27787 0.422625)
(-0.39633 3.40877 0.283756)
(0.0841344 3.44468 0.143705)
(-0.0739769 3.33732 0.170407)
(-0.359698 3.17323 -0.135877)
(-1.01288 3.73676 0.718178)
(-0.56921 3.62245 0.892206)
(-0.109397 3.72336 0.9448)
(-0.021684 3.77646 0.721195)
(0.101216 3.5729 0.542603)
(0.080549 3.45191 0.408306)
(-1.19391 3.20208 0.0090289)
(-0.443162 4.71543 0.73984)
(-0.570635 4.78901 0.665791)
(-0.519582 4.6195 0.530905)
(0.174218 4.22527 1.00371)
(0.549729 4.17241 0.832523)
(1.25381 3.87534 0.715205)
(0.807498 3.85081 0.369173)
(0.00420158 3.74131 0.0961216)
(-0.583376 4.86375 1.2237)
(-0.594791 4.7054 1.69577)
(-0.094456 5.00691 1.46671)
(0.0149502 5.06459 1.10877)
(0.25227 4.84269 1.06956)
(1.0632 4.5226 1.61361)
(1.72767 4.73521 1.04476)
(1.67913 4.96697 0.648588)
(0.728303 4.09335 0.289235)
(-0.501762 5.12773 2.50956)
(-0.544133 5.18078 2.76013)
(-0.549052 5.01576 2.65035)
(0.135257 4.78887 2.72154)
(0.64138 4.53567 2.88447)
(0.328993 4.64693 2.06143)
(1.89669 3.80747 2.55153)
(2.7033 3.96795 1.83449)
(3.05324 4.20884 2.2937)
(0.850066 4.30237 -0.605016)
(-1.14439 4.2677 1.90864)
(-0.655718 4.05464 1.43254)
(0.336483 3.987 1.17643)
(0.746053 3.66296 1.18311)
(0.737618 3.62964 1.18324)
(0.885022 3.78001 1.57261)
(1.48125 3.75325 1.62126)
(1.9961 2.81441 1.8065)
(1.47989 3.20388 2.22811)
(2.91581 3.48682 2.34416)
(1.88022 4.96273 0.368133)
(-0.944569 3.30368 1.63852)
(-0.385 2.87877 1.67964)
(-0.770222 2.52491 1.64074)
(-1.03931 2.22012 0.977364)
(-0.722361 1.25757 0.856749)
(0.24382 1.0616 0.392997)
(-0.0926913 1.78912 -0.277756)
(1.30991 2.23564 -1.04696)
(2.0974 1.28591 -0.652735)
(1.30874 1.4136 -0.203933)
(2.80909 1.44801 1.2672)
(2.70506 2.20532 1.2588)
(-1.19258 2.54376 1.62556)
(-0.899858 2.20765 1.5171)
(-0.138534 1.6469 1.50143)
(0.848095 1.53231 1.419)
(0.864016 1.34651 1.45104)
(0.581497 0.758124 1.10491)
(1.1577 -0.125201 0.188119)
(1.16883 -0.443615 0.256685)
(1.11452 -1.09934 -0.617368)
(0.722269 -0.842693 0.492397)
(0.444907 -0.174167 0.940482)
(-0.113109 -0.125969 0.837245)
(1.51963 -1.0733 0.374272)
(-1.86638 1.17012 1.2131)
(-1.78262 0.476987 1.01733)
(-1.13074 0.336408 0.963404)
(-0.27715 0.236703 0.282395)
(-0.204147 0.297126 0.67175)
(0.0237551 0.427607 0.204592)
(0.159623 0.113782 0.0959999)
(0.467088 -0.076974 -0.240726)
(0.672037 0.359439 0.156614)
(0.885588 -0.139114 0.993077)
(1.68236 0.265536 0.295559)
(2.28671 0.286321 -0.300215)
(0.740018 -0.720291 -0.125413)
(1.11534 -0.909927 -0.353979)
(-1.28771 1.31988 -0.345484)
(-0.366514 0.752417 -2.13324)
(-0.563776 0.223969 -1.90963)
(-0.688344 -0.0880943 -1.20192)
(-0.172986 -0.184294 -0.505755)
(0.331231 -0.327949 -0.457698)
(0.356226 -0.493409 -0.480336)
(0.350572 -0.329421 -0.216352)
(0.792272 -0.297344 -0.685359)
(0.518961 0.0205265 -0.930529)
(0.51938 0.425849 -0.163672)
(1.41377 0.623773 0.0341091)
(2.10134 0.446832 -0.027182)
(1.5638 1.27271 0.35931)
(1.28724 1.34669 -0.367716)
(-1.00622 2.10317 0.0159924)
(-0.749837 1.87699 0.0307731)
(-0.68803 2.66532 0.142529)
(-0.766154 2.48 0.220732)
(-1.05014 2.09737 0.0669966)
(-0.518868 3.00625 0.0902892)
(-0.325758 2.96636 0.131817)
(-0.641626 2.94641 -0.159437)
(-0.329117 2.73056 -0.120163)
(-0.316062 3.02457 0.475292)
(-0.649042 3.11039 0.388617)
(0.0709703 3.3203 0.243629)
(0.0723489 3.38616 0.378829)
(-0.250913 3.38624 0.144627)
(-0.463252 3.15351 -0.103906)
(-0.669275 3.37527 0.464598)
(-0.711514 3.36332 0.592539)
(-0.0997293 3.45706 0.339751)
(-0.193208 3.41026 0.233504)
(0.224611 3.32409 0.14568)
(0.356813 3.43875 0.0535801)
(-0.130147 3.23852 -0.167731)
(-0.662511 3.93177 0.740307)
(-0.68634 3.72232 0.727212)
(-0.271473 3.68505 0.956833)
(0.033399 3.74119 0.910498)
(-0.0177036 3.77309 0.68298)
(0.392845 3.60169 0.525269)
(0.377944 3.42926 0.389168)
(-0.939478 3.25911 -0.0204482)
(-0.245569 4.46464 0.998153)
(0.115022 4.86299 0.650123)
(-0.39323 4.75694 0.545292)
(-0.42198 4.60966 0.430409)
(0.413868 4.16994 1.11965)
(1.08913 4.03524 0.808677)
(0.979846 3.91522 0.57693)
(1.09511 3.80103 0.476966)
(-0.0441617 3.79167 0.121039)
(-0.113729 4.87228 1.26223)
(-0.528988 4.90664 1.37905)
(0.238495 4.70927 2.04261)
(0.339167 4.94196 1.64511)
(0.914599 4.86326 1.39528)
(0.674933 4.68946 1.26929)
(1.0072 4.45727 1.46208)
(1.86839 4.52194 1.21472)
(2.1557 4.7045 0.611383)
(0.855418 4.01743 0.421836)
(-0.362502 4.9572 2.35726)
(-0.306369 5.05 2.90635)
(-0.528191 5.15965 2.76433)
(0.309882 4.81932 2.89342)
(0.713285 4.56985 2.79203)
(0.334134 4.72885 2.58601)
(1.03152 4.29196 2.47512)
(1.9302 3.72195 2.49776)
(3.23523 3.79373 1.88839)
(3.17992 4.28999 2.21199)
(1.294 4.39983 -0.478704)
(-1.24027 4.20128 1.80074)
(-1.06705 4.25394 1.79776)
(-0.501636 4.05669 1.57163)
(0.532847 3.97461 1.1396)
(1.2904 3.43055 1.34682)
(0.628687 3.36293 1.30485)
(1.51504 3.50668 1.14547)
(3.4263 2.32662 1.20874)
(1.61852 2.56587 1.79442)
(1.93631 2.94947 2.40459)
(2.94468 3.44359 2.5431)
(2.07657 5.1056 0.766709)
(-1.1326 3.62648 1.47413)
(-1.03362 3.26947 1.61835)
(-0.398583 2.71582 1.68954)
(-0.553812 2.42374 1.58139)
(-1.00283 2.23861 0.984899)
(-0.829537 1.3404 0.888123)
(0.636233 0.839675 0.156588)
(0.0317358 1.65903 -0.332443)
(2.04158 1.61327 -1.34603)
(2.09296 0.870506 -1.1346)
(1.20309 1.12066 0.0267661)
(2.65823 0.845806 1.55652)
(2.49607 2.17518 1.14053)
(-1.3734 2.54848 1.30601)
(-1.14758 2.53558 1.58185)
(-0.860999 2.10704 1.57876)
(0.00202147 1.5531 1.41211)
(0.897556 1.39538 1.32149)
(0.666419 1.2743 1.48398)
(0.526132 0.740255 1.12199)
(1.45303 -0.219259 -0.0240741)
(1.27581 -0.567853 0.153184)
(1.14195 -1.1607 -0.505238)
(0.783109 -1.00559 0.362587)
(0.578249 -0.478879 0.709257)
(0.411373 -0.537143 0.793099)
(1.57878 -1.14364 0.519624)
(-1.68653 1.75762 0.949016)
(-1.85488 1.13158 1.21738)
(-1.77272 0.473568 1.05391)
(-1.03191 0.322035 0.886714)
(-0.175959 0.211024 0.23251)
(-0.0948517 0.283235 0.594839)
(0.167921 0.388809 0.225112)
(0.17565 0.119164 0.175314)
(0.464358 -0.0242502 -0.26155)
(0.713065 0.335776 0.17718)
(0.953072 -0.0889664 1.23398)
(2.03471 0.131881 0.259639)
(2.06603 0.554175 0.0635847)
(0.722365 -0.559074 -0.0119402)
(1.02287 -0.701619 -0.428361)
(-1.2149 1.22876 -0.164624)
(-1.25175 1.33111 -0.389956)
(-0.304025 0.720851 -2.09548)
(-0.578181 0.20057 -1.8374)
(-0.678671 -0.134808 -1.15166)
(-0.136385 -0.20355 -0.529342)
(0.365393 -0.35452 -0.437612)
(0.383155 -0.521324 -0.450564)
(0.341713 -0.327766 -0.156741)
(0.808468 -0.302525 -0.608608)
(0.44403 0.0665314 -0.875753)
(0.51485 0.435087 -0.160484)
(1.43672 0.629044 0.0625307)
(2.09594 0.389407 -0.0261951)
(1.51452 1.25318 0.434278)
(1.39849 1.42885 -0.33722)
(-1.05047 1.66152 0.245504)
(-0.620503 2.3712 0.146266)
(-1.00413 2.10508 0.00245159)
(-0.686592 1.9314 0.0221927)
(-0.622018 2.7177 0.365669)
(-0.00947339 2.73169 0.150755)
(-0.718035 2.42653 0.0958722)
(-1.03883 2.10961 -0.00936755)
(-0.581091 2.99593 0.317612)
(-0.310045 3.0317 0.1646)
(0.148553 3.03012 0.105354)
(0.0293888 3.00936 0.0657428)
(-0.346355 2.61299 -0.0626859)
(-0.639163 2.94799 0.438236)
(-0.481818 3.09439 0.460407)
(0.0954969 3.26777 0.265624)
(-0.0706907 3.38001 0.100844)
(0.368686 3.4487 0.0756242)
(0.682258 3.35386 -0.10715)
(-0.299743 3.14857 -0.0288369)
(-0.573562 3.33989 0.613221)
(-0.66918 3.35875 0.538612)
(0.0242146 3.4971 0.547416)
(-0.012069 3.53134 0.363499)
(0.1388 3.42352 0.199797)
(0.811505 3.35843 0.112228)
(0.36835 3.41537 0.0991106)
(0.256679 3.2582 -0.214352)
(-0.473482 3.94141 0.732163)
(-0.577226 3.82922 0.813012)
(-0.534566 3.79014 0.778766)
(0.0604021 3.73262 0.967239)
(0.305822 3.69954 0.868648)
(0.490174 3.72655 0.704491)
(0.783385 3.49942 0.508111)
(0.722028 3.40716 0.279347)
(-0.531335 3.35703 0.0455076)
(-0.159564 4.33516 0.947485)
(0.0344336 4.59892 0.983387)
(0.0282844 4.86457 0.730886)
(-0.00415026 4.73125 0.674283)
(0.0500742 4.53756 0.408968)
(0.514293 4.09881 1.09758)
(1.13136 3.97154 0.759104)
(1.17861 3.92354 0.628138)
(1.39474 3.73695 0.480251)
(0.106675 3.81106 0.129379)
(-0.518346 4.68851 1.41236)
(-0.265375 4.99305 1.2732)
(0.246268 4.80882 1.77109)
(0.603097 4.72984 2.06388)
(0.856672 4.85124 1.66527)
(1.00282 4.84503 1.41807)
(1.18237 4.51249 1.58991)
(1.41497 4.4004 1.67115)
(2.31474 4.25889 1.19469)
(2.36461 4.55839 0.577788)
(1.20593 3.87278 0.492888)
(-0.0248764 4.75465 2.14465)
(-0.233614 4.94141 2.62712)
(-0.325074 5.10337 2.78332)
(-0.0902926 5.0927 2.91051)
(0.825052 4.66827 2.70609)
(-0.0358671 4.80199 2.29869)
(1.25312 4.40589 2.6322)
(1.84497 3.46425 2.77438)
(2.22994 3.46386 2.64921)
(3.4349 3.74391 1.84962)
(3.64431 4.15999 2.10984)
(1.59342 4.4214 -0.401781)
(-1.23178 4.17932 1.80368)
(-0.958496 4.43948 1.4737)
(-0.901387 4.19517 1.81301)
(-0.409813 4.12577 1.45782)
(0.795332 3.93543 1.08522)
(1.38121 3.27615 1.38626)
(1.13414 3.09759 0.912534)
(2.37312 3.04465 0.904938)
(1.31952 3.16482 1.58895)
(1.74925 2.28221 1.74376)
(2.02318 2.92526 2.32474)
(2.64843 3.82696 2.53251)
(2.43293 5.26001 0.83953)
(-1.30596 3.47981 1.29816)
(-1.40141 3.59352 1.31167)
(-0.949322 3.24874 1.72715)
(-0.549564 2.70573 1.61988)
(-0.160887 2.20134 1.54775)
(-0.727323 2.22925 1.1139)
(-0.925605 1.56087 1.00293)
(0.98913 0.649747 -0.0958512)
(0.160771 1.69438 -0.321906)
(2.45025 1.08774 -1.78595)
(1.96481 0.408277 -1.16849)
(1.20393 0.66823 0.0340943)
(2.37362 1.20883 1.26613)
(2.46032 1.93174 1.02056)
(-1.03472 2.4597 1.13923)
(-1.36006 2.4801 1.34471)
(-1.16916 2.46091 1.58854)
(-0.435869 2.03564 1.73359)
(0.240945 1.43162 1.38783)
(0.910621 1.3454 1.23844)
(0.654414 1.17956 1.46347)
(0.381746 0.787978 1.14235)
(1.51661 -0.176728 -0.0183978)
(1.32637 -0.682339 0.106835)
(1.20196 -1.19249 -0.34068)
(0.861592 -1.1527 0.217908)
(0.779941 -0.818831 0.385974)
(0.742469 -0.929583 0.614634)
(1.57653 -1.11065 0.453662)
(-1.30588 2.00641 0.642217)
(-1.66199 1.7657 0.914938)
(-1.84177 1.1118 1.25586)
(-1.68661 0.446066 1.11347)
(-0.978988 0.350146 0.882263)
(-0.0781453 0.187908 0.164127)
(0.0146129 0.241305 0.516094)
(0.232525 0.342539 0.259737)
(0.197632 0.101323 0.253567)
(0.505628 0.000997341 -0.251584)
(0.760419 0.286888 0.180126)
(0.990398 -0.00157647 1.37025)
(2.32982 -0.00764867 0.411699)
(1.87313 0.830143 0.264941)
(0.724764 -0.442635 0.0282479)
(0.947866 -0.47989 -0.476117)
(-1.04623 1.52259 0.340734)
(-1.21193 1.2333 -0.163887)
(-1.21584 1.341 -0.437695)
(-0.303436 0.709022 -1.94411)
(-0.610143 0.173762 -1.71594)
(-0.688042 -0.145932 -0.9818)
(-0.0987491 -0.228652 -0.570956)
(0.39447 -0.382567 -0.42013)
(0.402523 -0.548132 -0.417982)
(0.369719 -0.351182 -0.145926)
(0.764114 -0.268495 -0.528047)
(0.381124 0.114663 -0.802938)
(0.513669 0.4383 -0.159519)
(1.38985 0.594733 0.0372692)
(2.07555 0.365013 0.000286936)
(1.51915 1.27048 0.585809)
(1.44934 1.43047 -0.36328)
(-1.16362 1.57101 -0.214634)
(-0.850552 1.96262 0.0727473)
(-0.910624 1.74335 0.249686)
(-0.521267 2.50138 0.118947)
(-0.394544 2.40891 0.127373)
(-0.877913 2.15343 -0.00273007)
(-0.673353 1.95631 -0.0488788)
(-0.357999 2.82184 0.293143)
(0.0105691 2.78939 0.217359)
(0.0302466 2.67995 0.223665)
(-0.358994 2.43349 0.0982224)
(-1.02021 2.08954 0.0822279)
(-0.318804 2.921 0.385331)
(-0.00798844 3.06436 0.305802)
(-0.0168197 3.09953 0.185019)
(0.43322 3.12183 0.0850522)
(-0.272266 2.9106 -0.0236733)
(-0.190806 2.57123 -0.00117619)
(-0.675119 2.93193 0.596533)
(-0.630617 3.05759 0.427239)
(-0.258898 3.20351 0.425965)
(-0.0573886 3.39374 0.335032)
(0.137687 3.39098 0.122872)
(0.61022 3.30679 0.0359354)
(0.0191043 3.46531 0.0200942)
(-0.17182 3.10416 -0.122802)
(-0.453572 3.42108 0.693327)
(-0.481299 3.34713 0.679106)
(-0.163771 3.48081 0.592455)
(-0.0414752 3.56595 0.544058)
(0.138951 3.53511 0.350069)
(0.579125 3.44811 0.194234)
(0.911701 3.3699 0.230521)
(0.791472 3.28784 0.0110924)
(0.44545 3.281 -0.211508)
(-0.276042 3.94504 0.676979)
(-0.212059 3.94205 0.769182)
(-0.320546 3.8516 0.876048)
(-0.328732 3.80898 0.818666)
(0.404626 3.70645 0.972961)
(0.698532 3.71257 0.904188)
(0.817041 3.64181 0.658228)
(1.02389 3.43432 0.443387)
(0.91715 3.44583 0.268905)
(-0.298224 3.37977 0.183212)
(-0.268919 4.24883 0.968004)
(0.0263872 4.35129 0.9135)
(0.216143 4.68035 0.959112)
(0.34792 4.75528 0.770681)
(0.145968 4.74579 0.795446)
(0.358467 4.4415 0.682273)
(1.09433 4.09272 0.917586)
(1.88243 3.80436 0.724502)
(1.78782 3.63892 0.752003)
(1.42307 3.67923 0.489438)
(0.209608 3.80649 0.109517)
(-0.477073 4.45645 1.71721)
(-0.0215845 4.84223 1.2801)
(-0.180693 5.05413 1.31228)
(0.530814 4.7722 1.87504)
(0.805609 4.65513 1.98651)
(1.48332 4.85429 1.61901)
(1.39016 4.72692 1.6105)
(1.53125 4.28695 1.7697)
(1.96518 4.29266 1.82192)
(2.92624 4.0434 1.3506)
(2.35076 4.60618 0.2421)
(1.32496 3.80423 0.439376)
(0.227669 4.36011 1.9024)
(-0.0225884 4.71077 2.26354)
(0.224778 4.98711 2.55273)
(-0.125608 5.06481 2.8952)
(0.643885 4.86471 3.01936)
(0.217377 4.94452 2.17493)
(2.06714 3.95924 2.67043)
(2.03518 3.73608 2.52756)
(1.4854 3.54335 2.50901)
(2.37727 3.35079 2.64616)
(3.72656 3.76947 1.69978)
(4.03442 3.91428 2.15136)
(2.32814 4.40656 -0.404532)
(-0.730823 4.07813 1.6221)
(-0.876346 4.31126 1.6549)
(-0.938546 4.41468 1.58553)
(-0.657808 4.28941 1.52238)
(-0.0515205 4.04349 1.38512)
(1.1248 3.91297 0.948673)
(1.53379 3.17892 1.43658)