/*--------------------------------*- C++ -*----------------------------------*\
  =========                 |
  \\      /  F ield         | OpenFOAM: The Open Source CFD Toolbox
   \\    /   O peration     | Website:  https://openfoam.org
    \\  /    A nd           | Version:  7
     \\/     M anipulation  |
\*---------------------------------------------------------------------------*/
FoamFile
{
    version     2.0;
    format      ascii;
    class       volScalarField;
    location    "10";
    object      nut;
}
// * * * * * * * * * * * * * * * * * * * * * * * * * * * * * * * * * * * * * //

dimensions      [0 2 -1 0 0 0 0];

internalField   nonuniform List<scalar> 
18780
(
0.000206446
0.000310562
0.000216016
6.20352e-05
0.000404027
0.000363636
0.000250806
0.000188714
0.000173933
0.000102282
0.000447419
0.000542119
0.000331841
0.000332957
0.000282806
0.000220653
0.000194444
0.000180595
0.000120964
7.64403e-05
0.000680277
0.000601869
0.000268462
0.000615643
0.000325854
0.000284319
0.000193314
0.000236313
0.000313574
0.000216847
0.000181863
0.000160523
0.000189845
0.0001407
8.3856e-05
0.000985872
0.000931725
0.0005283
0.000492686
0.000269271
0.000285515
0.000645121
0.000324527
0.000248363
0.000255786
0.000254351
0.000238222
0.000295018
0.00025321
0.00019578
0.000183903
8.52145e-05
8.26471e-05
0.000137455
5.6052e-05
0.000122924
0.000281068
0.000496562
0.000776665
0.00135841
0.00040257
0.000744739
0.00057043
0.000487891
0.000213168
0.000357732
0.000448446
0.000241495
0.000326249
0.000252398
0.000327083
0.000215608
0.000236623
0.000200202
0.000295881
0.000247995
0.000224665
0.000124844
3.31512e-05
9.03138e-05
0.00013041
0.000405867
0.000203235
7.34805e-05
0.000973426
0.00056354
0.000507473
0.0010107
0.000794825
0.000620465
0.00107073
0.000311872
0.000700514
0.000557962
0.000877254
0.000554613
0.000179211
0.00033967
0.000603991
0.000269312
0.000300293
0.000354317
0.000347745
0.000233571
0.000596228
0.000175122
0.000241925
0.000179427
0.000256425
0.000224926
0.000263257
0.000173818
0.000290871
8.63436e-05
0.000225198
8.53196e-05
0.000167544
0.000216202
0.000259389
0.00028832
0.00129598
0.00157304
0.000280838
0.000810517
0.00035125
0.0003597
0.0010924
0.000619528
0.000785412
0.000319317
0.000965658
0.000574901
0.00060996
0.000576694
0.000882887
0.000986209
0.000393068
0.000296582
0.000341062
0.000465562
0.000901679
0.000324902
0.000286833
0.000297056
0.000388347
0.000215979
0.000600541
0.000203798
0.000416963
0.000213165
0.000183965
0.000298657
0.000316981
0.000309958
0.000133875
0.000268224
0.000330215
8.64953e-05
0.00033422
0.000197565
2.72671e-05
0.000130659
0.00018444
0.000407986
0.000202034
0.00104468
0.00116217
0.00206289
0.00132245
0.000647363
0.00117941
0.000852904
0.000503357
0.000672077
0.000753074
0.00054746
0.00106472
0.000802221
0.000836138
0.000642055
0.000499785
0.00137552
0.000715834
0.000380906
0.000630162
0.000796667
0.000344641
0.000954865
0.000496897
0.000645286
0.000369594
0.00047955
0.000937552
0.000481294
0.000218645
0.000205916
0.000292746
0.00043673
0.000258737
0.000470928
0.000481127
0.000286224
0.000453101
0.000255702
0.000250835
0.000853755
0.000400159
0.000324944
0.000156614
0.000308308
0.000242634
0.000301393
4.57091e-05
0.000294435
0.000162942
0.000113108
0.000108623
0.00024386
0.000623986
0.00023658
0.000260979
0.000955112
0.00104606
0.00141269
0.000845383
0.000967607
0.00100634
0.00158254
0.00124004
0.00195447
0.000515148
0.000618818
0.000706069
0.000447319
0.000729047
0.000273698
0.00057509
0.000428268
0.000941769
0.00112765
0.000666582
0.000611193
0.000538625
0.00161211
0.000491162
0.000644578
0.000421678
0.000609235
0.000574938
0.000490921
0.000809947
0.00146338
0.000548357
0.00066338
0.000424385
0.000450433
0.000887763
0.000410071
0.000498664
0.000331195
0.000189587
0.000298107
0.000464864
0.000319245
0.000435135
0.000714831
0.000448542
0.000474566
0.000167962
0.000457704
0.000224111
0.000185508
0.000222493
0.000339155
0.000228296
0.000285547
0.00026675
0.00020187
0.000195794
0.000152855
4.24371e-05
2.38447e-05
0.000246462
0.00018762
0.00022241
0.000384541
0.000225377
0.000269105
8.92778e-05
0.00128945
0.000707826
0.000869955
0.00107287
0.00152621
0.001106
0.00205339
0.00124093
0.000549766
0.00202183
0.00160958
0.00188069
0.00123188
0.000407461
0.00116521
0.000802379
0.000598063
0.000899525
0.000730365
0.000477312
0.000199854
0.000602986
0.000559456
0.000421939
0.00103497
0.000765655
0.000707281
0.000607918
0.000602663
0.0010453
0.00114422
0.0012887
0.00078688
0.000496539
0.000688232
0.000800945
0.000948602
0.000488945
0.000672539
0.000960238
0.000350423
0.000617144
0.000410645
0.000399248
0.000707229
0.000637908
0.000544932
0.000430207
0.000295118
0.000271761
0.000213986
0.000459353
0.000353768
0.000369089
0.000653961
0.000610341
0.00051899
0.000471744
0.00038784
0.000906245
0.000131899
0.000571563
0.000268529
0.000360264
0.000237332
0.000245001
0.000259135
0.000209343
0.000162559
0.000222165
0.000236222
4.44138e-05
4.00198e-05
0.000114483
0.000250297
0.000262541
0.000268747
0.000213306
0.000271541
8.47209e-05
0.000208289
0.000528931
0.00114924
0.00095875
0.000923756
0.00100719
0.00149659
0.000909565
0.00100421
0.00123092
0.0011241
0.000568124
0.0012649
0.00229882
0.00228002
0.00104908
0.00156433
0.000608419
0.000352318
0.00207159
0.000777076
0.00134657
0.000987714
0.000479659
0.000897784
0.000671623
0.000726271
0.000376154
0.000376235
0.000618572
0.000420357
0.000526172
0.000551778
0.000664888
0.000896228
0.00104439
0.00105225
0.000593235
0.000391345
0.000711971
0.000916243
0.000925627
0.0011475
0.00091962
0.000476928
0.00101831
0.000694558
0.000234457
0.000249354
0.000465956
0.000456455
0.000573455
0.000393797
0.000635865
0.000774843
0.000412632
0.000767289
0.000765527
0.000673508
0.000738962
0.000880924
0.000410151
0.000465927
0.000327306
0.000395008
0.000390569
0.000257879
0.000558931
0.0006264
0.000345168
0.000359663
0.000276651
0.000567162
0.00100631
9.9114e-05
0.000149321
0.000363592
0.000382093
0.000260632
0.000262878
0.000270811
0.000204527
0.00017912
2.09328e-05
0.000146646
0.000271751
0.000428409
0.000174112
7.34214e-05
0.000117502
0.000208184
0.000244484
0.000237418
0.000238166
9.01143e-05
2.07222e-05
0.000184371
0.00046385
0.000528207
0.000346448
0.00117455
0.000576912
0.000923071
0.00104139
0.000372062
0.00100671
0.000957004
0.00106365
0.000863649
0.00101966
0.00125728
0.000972418
0.00138177
0.000922667
0.000685227
0.00139446
0.00217314
0.00202812
0.00175949
0.00154419
0.00247432
0.00112429
0.000730205
0.000475193
0.00132551
0.00164944
0.00120384
0.00109987
0.000502844
0.000996385
0.000651655
0.00072058
0.000517123
0.000355208
0.000819411
0.00048928
0.000493931
0.000145637
0.000702941
0.000834921
0.00149082
0.000731806
0.00104167
0.000752325
0.00083717
0.000237341
0.000313729
0.000624634
0.00103187
0.00151928
0.00124735
0.000338734
0.000865613
0.000739182
0.000768717
0.000403932
0.000457733
0.000552168
0.000536921
0.000529204
0.00103017
0.000463727
0.000706083
0.000493438
0.000742445
0.000689816
0.00063925
0.000857191
0.000555232
0.00031785
0.000506436
0.000693688
0.000303926
0.00051868
0.000425389
0.000272257
0.000489321
0.000560373
0.000396638
0.000397762
0.000305775
0.000446295
0.000592771
0.000630875
0.000257628
0.000118202
0.000397443
0.000378742
0.000282142
0.000201162
0.000254536
0.000142802
0.000223432
0.000192244
0.000244763
0.000130199
0.000447817
0.000222141
0.000114083
7.8811e-05
0.000103437
0.000107367
0.00016133
0.000205011
0.000283511
0.000104292
7.06605e-05
0.000196725
7.84091e-05
0.000499684
0.00053399
0.000433905
0.000646122
0.00055392
0.000337121
0.00119296
0.000939868
0.000491828
0.000968949
0.00129085
0.000617676
0.000518516
0.000558323
0.000935377
0.00135774
0.000633997
0.00124869
0.000776769
0.00201835
0.00207394
0.000830447
0.000885848
0.00168526
0.00280534
0.00186359
0.000759794
0.00149435
0.00130654
0.00109251
0.00199745
0.000389801
0.00189564
0.0012812
0.00133005
0.00101328
0.000870503
0.00215041
0.00106673
0.000349188
0.000736974
0.000280617
0.000672454
0.000919336
0.000862699
0.000636664
0.000847357
0.000833303
0.000494671
0.000512467
0.000503987
0.000868463
0.00159178
0.000599634
0.00141345
0.00120365
0.00130316
0.000799379
0.000858934
0.000323223
0.000446961
0.000642412
0.00100251
0.000801379
0.00162533
0.00119862
0.000388861
0.000764536
0.000739366
0.00096274
0.000263139
0.000495003
0.000484506
0.000734401
0.000914199
0.000816877
0.000556795
0.00048383
0.000558731
0.000466485
0.000649706
0.000799228
0.000722652
0.000667978
0.000954481
0.000524193
0.000758578
0.00035123
0.000920629
0.000698643
0.000401982
0.000618638
0.000311309
0.000402429
0.000466593
0.000343652
0.000216641
0.000360034
0.000493548
0.00022245
0.00057313
0.000318657
0.000376905
6.45889e-05
0.0002279
0.00041998
0.000305882
0.000201912
0.000281308
0.000178184
0.000171242
0.000192298
0.000263775
0.000363498
0.000160734
0.000535439
3.95693e-05
8.43807e-05
0.000105534
0.000141955
0.000181232
9.32349e-05
0.000365205
0.000204943
8.63025e-05
7.78406e-05
0.000117537
0.000133532
0.000116072
0.000459723
0.000551678
0.000433926
0.000547896
0.000505467
0.000470407
0.000680291
0.000531927
0.000432961
0.000457406
0.00094746
0.000928769
0.000484515
0.000580556
0.000551776
0.00097257
0.000795407
0.000574495
0.000784799
0.00143831
0.00119554
0.00137211
0.00111662
0.000726931
0.00100516
0.000967343
0.000511341
0.000962221
0.00157929
0.00171119
0.00108606
0.00104187
0.00144897
0.00231399
0.00275232
0.00132151
0.000989576
0.00135667
0.000940352
0.00169685
0.00171732
0.00080536
0.00137805
0.000625699
0.00124053
0.00101966
0.000949158
0.00163347
0.00105406
0.000929021
0.000418045
0.00080489
0.000479819
0.000840767
0.000642798
0.000706393
0.00131061
0.000392991
0.000440718
0.000819403
0.000640792
0.000502782
0.000437855
0.0015486
0.00102098
0.000937932
0.00131966
0.00115457
0.00088031
0.00105474
0.000893508
0.000198984
0.000527361
0.000940846
0.00108741
0.000780552
0.000656742
0.00135967
0.00115696
0.000423069
0.000627497
0.000547655
0.000940126
0.000344234
0.000209246
0.000233337
0.000467026
0.000704109
0.00023071
0.000949283
0.000456761
0.000273132
0.000908888
0.000432277
0.000756771
0.00081392
0.000612855
0.000282984
0.00105355
0.000289198
0.000704294
0.000641625
0.000402786
0.000971024
0.000814322
0.0002091
0.000668123
0.000327507
0.00033792
0.000301889
0.000308232
0.000247471
0.00027471
0.000209853
0.000307971
0.000565969
0.000476015
0.000410469
0.000518582
5.23194e-05
0.0001709
0.000437291
0.000324599
0.00027695
0.000297707
0.000195439
0.000134895
0.000224652
0.000249739
0.000345031
0.000306627
0.000338355
0.000630461
0.00011557
0.000107245
0.000158879
0.000145776
0.000252635
0.000128217
0.000247298
0.000189642
0.000106799
0.000171231
0.000102745
0.000285994
7.30785e-05
0.000135266
0.000440137
0.000451999
0.00052253
0.000551906
0.000509583
0.000542035
0.000343325
0.000637666
0.000298413
0.000527295
0.0006439
0.000585974
0.000524953
0.00034519
0.000614435
0.00086413
0.000659488
0.000713536
0.000537528
0.00049346
0.000412908
0.000871628
0.000829819
0.00061634
0.000772351
0.000614572
0.000950535
0.00112167
0.00116728
0.000856796
0.00159038
0.000757525
0.000987266
0.000939627
0.00336454
0.00128339
0.00166833
0.000787183
0.00075595
0.00127077
0.000662942
0.000160099
0.00252987
0.0011597
0.00139836
0.00172761
0.00121661
0.000572993
0.000934419
0.00152713
0.00210115
0.00161693
0.00112595
0.00114523
0.000926394
0.00136372
0.000772936
0.00124935
0.000868363
0.000916334
0.000849911
0.000577382
0.000456062
0.000222208
0.000511466
0.000632793
0.000680223
0.000517368
0.000704199
0.00124654
0.000444052
0.00102928
0.000635803
0.000493332
0.000586265
0.00126528
0.000878789
0.00111934
0.000717501
0.00155285
0.00114161
0.000914858
0.00218345
0.000569548
0.000748866
0.00025182
0.000833521
0.00106473
0.000762775
0.000812266
0.000966129
0.00101732
0.00139039
0.000722169
0.00082075
0.000723612
0.000968911
0.000906438
0.000381311
0.000552481
0.000517528
0.000867437
0.000551586
0.000582705
0.000498352
0.000905015
0.000858342
0.00146832
0.000739449
0.00100177
0.000851235
0.000499205
0.000205612
0.000385131
0.000718549
0.000791324
0.000512254
0.000378081
0.000451013
0.000634339
0.000156244
0.000233372
0.000362761
0.000415453
0.000364252
0.00034098
0.000319233
0.000254091
0.000223064
0.000168049
0.000357239
0.000682897
0.000663505
0.000476267
0.000167322
0.000720465
0.000149638
0.000199182
0.000405929
0.000340992
0.000219784
0.000285887
0.000151396
0.000228276
0.000208927
0.000255968
0.000480322
0.000314831
0.000263726
0.000420238
0.000657827
0.000141776
8.4089e-05
0.000163293
0.000153442
0.000212
0.000179267
0.000190641
0.000342561
0.000154907
8.11446e-05
0.000130419
0.000182222
8.67522e-05
9.17722e-05
8.11557e-05
0.00061257
0.000402078
0.000421875
0.000679321
0.000414876
0.000380864
0.000466479
0.000567784
0.000392255
0.000568717
0.000561483
0.00054478
0.000595876
0.000254329
0.000427537
0.000522738
0.000775295
0.000522587
0.000463243
0.000448787
0.000581767
0.000551193
0.000744872
0.000747422
0.000636559
0.000804536
0.000597444
0.000427987
0.00084926
0.000997226
0.000553882
0.000568925
0.000970609
0.00058301
0.000741528
0.00163577
0.00119294
0.001247
0.00115289
0.00102276
0.00100289
0.000727019
0.00117395
0.00124217
0.00136816
0.00160958
0.00186584
0.00124265
0.00136432
0.000913528
0.000515474
0.00182506
0.00161008
0.0014984
0.00116622
0.00127704
0.000991917
0.00114817
0.00081941
0.000743467
0.000856405
0.00165053
0.0012205
0.000947129
0.00141322
0.000650173
0.00121123
0.000731813
0.000637542
0.000939395
0.000725294
0.00198634
0.000819134
0.000526742
0.000749766
0.00067924
0.000551829
0.00127103
0.000942366
0.000404198
0.000485347
0.00093699
0.0012127
0.00134981
0.0005598
0.000729153
0.000525445
0.00053106
0.00115233
0.000940293
0.00112251
0.000826795
0.000634992
0.00171896
0.000848594
0.000974729
0.00116667
0.000715748
0.000660347
0.000227612
0.000934652
0.00103001
0.00113511
0.00080413
0.000812486
0.000560667
0.00144595
0.000839493
0.000872628
0.000764953
0.000797376
0.000846217
0.000792258
0.000660036
0.000801952
0.000842904
0.000690882
0.000488464
0.000604399
0.000467433
0.000539499
0.00104721
0.00103763
0.000686572
0.00135458
0.000752556
0.000833526
0.000432521
0.000246108
0.000269968
0.000353867
0.00089652
0.000471928
0.0002603
0.000586707
0.00037406
0.000571942
0.000251371
0.000277298
0.00026012
0.000563254
0.000432696
0.000515659
0.000371452
0.000270396
0.000179371
0.00050149
0.000287357
0.000623949
0.000688961
0.000584489
0.000390296
0.000483418
0.000324322
0.000152967
0.000175656
0.000318233
0.00035372
0.000233932
0.00029304
0.000135345
0.00017652
0.000174754
0.000304357
0.000485141
0.000268936
0.000258849
0.00024137
0.000269803
0.000617265
9.56722e-05
4.62001e-05
0.000139526
0.000186597
0.000203299
0.000182656
0.000278692
0.000193319
0.000117988
0.0001295
0.000480681
9.77011e-05
0.000104441
7.91011e-05
0.000134704
9.37454e-05
0.000554742
0.000624112
0.000541264
0.000382002
0.000598875
0.000320547
0.000446486
0.000455435
0.00056459
0.000484565
0.000527326
0.000535642
0.000579565
0.000491586
0.000558196
0.000386403
0.000583325
0.000613466
0.000399048
0.000431018
0.000338232
0.000507232
0.000407244
0.00066098
0.000489797
0.000523761
0.000441675
0.000520622
0.00038738
0.000726945
0.00057573
0.000713385
0.000680159
0.000515549
0.00045536
0.000613167
0.000961224
0.000961268
0.000921331
0.000953828
0.000866165
0.000443677
0.000804647
0.000377913
0.000746345
0.00160767
0.000941241
0.000800353
0.00148725
0.000806907
0.00103503
0.000541696
0.00171426
0.000897749
0.00107262
0.00148861
0.00136316
0.0016799
0.0007877
0.00137235
0.000911844
0.000916476
0.000441201
0.00112772
0.00221462
0.00163116
0.00234419
0.00105422
0.00105927
0.00106663
0.00120293
0.00082724
0.00105548
0.00180844
0.00186238
0.000978797
0.000453301
0.00113487
0.00087188
0.00079444
0.00089134
0.000866011
0.000357566
0.000988087
0.000327456
0.000980101
0.000693059
0.000690936
0.000506782
0.000480527
0.000814152
0.000940329
0.000374887
0.000372485
0.000640226
0.00092543
0.00110363
0.00152175
0.0012244
0.000704855
0.00118532
0.00044009
0.000886734
0.00114724
0.000974526
0.000784478
0.000722333
0.00129376
0.00162848
0.0012005
0.00055697
0.000857043
0.00149284
0.000857525
0.000257752
0.000677603
0.000997644
0.000921455
0.000803155
0.000753059
0.000877753
0.00065763
0.00131683
0.000620111
0.00101735
0.000635381
0.000505722
0.000450712
0.000342411
0.000522782
0.000908614
0.000938937
0.000879782
0.000483675
0.000644099
0.00062569
0.000593342
0.000706373
0.000789034
0.000538712
0.000462924
0.000982992
0.000814417
0.000779235
0.000535905
0.000647208
0.000288331
0.000467988
0.000606914
0.000634515
0.000280264
0.000647821
0.000813739
0.00032652
0.000295498
0.000402877
0.000263713
0.000349085
0.000705328
0.000382392
0.000437206
0.000339217
0.000344027
0.000185798
0.000306826
0.000192778
0.000610089
0.000699725
0.000627403
0.000448817
0.000276547
0.000463152
0.000195353
0.000188258
0.000217578
0.000352211
0.000425453
0.000264105
0.000310913
0.000152828
0.000165023
0.000142264
0.000271326
0.000492574
0.000300886
0.000236916
0.000230753
0.000185705
0.000238881
0.000533489
0.000103954
9.39394e-05
0.000211181
0.00014939
0.000137416
0.000177139
0.000271626
0.000172151
0.000114909
0.000110489
0.000132221
0.000160805
0.000409907
0.000111677
7.93427e-05
0.000155547
6.26276e-05
0.000861578
0.000524233
0.000727917
0.000554027
0.000593268
0.000445786
0.00076979
0.000334575
0.000479654
0.000428919
0.000259708
0.000695588
0.000444769
0.000437847
0.000515678
0.000417277
0.000550267
0.000716085
0.00044734
0.000532956
0.000570399
0.000437948
0.000465667
0.000491591
0.000609951
0.000322095
0.000534909
0.000334719
0.000555304
0.000547125
0.000556155
0.000458412
0.000404065
0.000282128
0.000382238
0.000314185
0.000432807
0.000504375
0.000925602
0.000568224
0.000556395
0.000945543
0.000267196
0.000621466
0.000156306
0.000724364
0.00106189
0.00100579
0.000742964
0.000723101
0.000821401
0.000455667
0.000831788
0.000985706
0.000911866
0.000341751
0.00102295
0.00137413
0.000558859
0.00128278
0.00116059
0.000653828
0.000589551
0.000445465
0.00197432
0.00124694
0.0015698
0.0013553
0.00138796
0.000544676
0.00128304
0.0010371
0.000530092
0.00083663
0.00101255
0.00169738
0.00159948
0.00143856
0.0015836
0.00124675
0.00123523
0.000533336
0.00139272
0.0012173
0.000739026
0.000940039
0.0010723
0.000524623
0.000967972
0.00123863
0.00135854
0.000683893
0.000870134
0.000669613
0.00091454
0.000522627
0.000864853
0.00117597
0.0014205
0.00136837
0.000954116
0.000813086
0.000821512
0.000608999
0.000469937
0.000613912
0.00117051
0.00049316
0.000514597
0.000847264
0.000454773
0.00176712
0.00175357
0.0010905
0.00106658
0.00127684
0.000580476
0.000745793
0.000939644
0.000978863
0.000762287
0.000569362
0.00081553
0.000771696
0.00187859
0.00199389
0.000857127
0.00077704
0.00105118
0.000287819
0.000399063
0.000606019
0.000789324
0.000935647
0.000848524
0.000981372
0.000986985
0.000696695
0.000929413
0.00127577
0.000661825
0.00113335
0.000584281
0.000559877
0.00044058
0.000563192
0.000792576
0.000863979
0.000984177
0.000665346
0.000471192
0.00060371
0.000650172
0.000758042
0.000685949
0.000805107
0.000498182
0.000561338
0.000783324
0.000999349
0.000948446
0.00049704
0.000596106
0.000628505
0.000497508
0.000845951
0.000706663
0.0007622
0.00023268
0.000611716
0.000645754
0.000611893
0.00035041
0.000297756
0.000485617
0.000348114
0.000382456
0.000730338
0.000461676
0.000490297
0.00036241
0.000307384
0.000234568
0.000254207
0.000251708
0.000535631
0.000755519
0.000596971
0.000455683
0.000297501
0.000287527
0.00039681
0.000308004
0.000622063
0.000268734
0.00034394
0.000405307
0.000258639
0.000319525
0.000206476
0.000251489
0.00013649
0.000273984
0.000472037
0.000324541
0.000226405
0.000197661
0.000226343
0.000170473
0.000230815
0.000460459
0.00019428
0.000143283
0.000167444
0.000107054
0.00016905
0.00019881
0.000189788
0.00021151
0.000127238
7.8932e-05
0.000103903
0.000173006
0.000288635
0.000139423
0.000121568
8.58813e-05
4.976e-05
2.06074e-05
0.00128934
0.000928891
0.000800309
0.000646256
0.000716727
0.000576426
0.000567508
0.000593034
0.000474664
0.00044231
0.000465874
0.000494262
0.000493804
0.00044354
0.000476304
0.000536103
0.000412193
0.000704701
0.000530719
0.000445775
0.000440799
0.000482268
0.0006277
0.000442202
0.000661138
0.000468799
0.000533928
0.000276071
0.000240703
0.000463526
0.000559602
0.000479529
0.000542621
0.000374945
0.000393024
0.000414433
0.000548578
0.000577223
0.000496365
0.000585615
0.000536785
0.000542538
0.000301498
0.000562076
0.000423588
0.000309597
0.000559072
0.000659966
0.000575159
0.000702609
0.000617273
0.000465796
0.000215408
0.000663093
0.00062683
0.000411399
0.00104588
0.000813161
0.000756644
0.00127075
0.000492802
0.000893618
0.000649698
0.000637145
0.00066983
0.00114188
0.000972198
0.00156051
0.00125275
0.000900233
0.00132555
0.00065564
0.000933659
0.000409341
0.000749243
0.000657181
0.000947345
0.00148213
0.00136736
0.00188467
0.00157798
0.000921964
0.000944996
0.000851337
0.00102198
0.000680893
0.000731367
0.000656888
0.000667152
0.00215791
0.000628816
0.00194706
0.00140778
0.000780114
0.000962432
0.0011393
0.00152651
0.000749899
0.000611135
0.00115294
0.00117368
0.00155001
0.000719644
0.000853245
0.000820035
0.00105777
0.000482376
0.00144468
0.000577565
0.000886246
0.000684827
0.00047953
0.000839007
0.000793087
0.00164953
0.000859853
0.000787414
0.000607071
0.000386365
0.000746753
0.000908736
0.00032976
0.000772575
0.000584949
0.000694849
0.000664434
0.00101742
0.001653
0.0023216
0.000792888
0.00155939
0.00068478
0.000473182
0.000691762
0.00064682
0.0011934
0.00114524
0.000644839
0.000728667
0.000954628
0.000706631
0.00158603
0.00116279
0.000953212
0.000796135
0.000943648
0.000908282
0.000544955
0.00101769
0.000741867
0.00102909
0.000604476
0.00102268
0.000665724
0.000863311
0.00102269
0.000843322
0.0013
0.000559189
0.00106215
0.000591377
0.000766494
0.000493217
0.000675251
0.000673667
0.000443715
0.000606533
0.00077648
0.00045313
0.000449006
0.000601302
0.000582316
0.000734507
0.000359735
0.000889543
0.000443421
0.000691166
0.000426159
0.000612537
0.000893562
0.000699804
0.00072651
0.000527741
0.000374531
0.000413185
0.000469167
0.000654132
0.00070499
0.000299285
0.000654885
0.000632056
0.000847319
0.00036971
0.00037839
0.000666156
0.000184863
0.000570324
0.000590789
0.000623439
0.000516051
0.000354573
0.00027804
0.000302511
0.000220825
0.000335762
0.000451605
0.000750139
0.000546258
0.000442781
0.000350592
0.000316319
0.000441909
0.00053601
0.00051586
0.000736255
0.000315292
0.0002571
0.000268101
0.00029424
0.000338533
0.000208735
0.000275653
0.000122107
0.000254084
0.000477916
0.000320204
0.000212522
0.000189774
0.000223067
0.000197987
0.000188271
0.000182447
0.000545293
0.000481505
7.52436e-05
0.000147925
9.44258e-05
0.000190639
0.000177689
0.000435538
0.000219685
0.000192216
0.000153278
0.000234023
0.000130151
8.86408e-05
0.000234925
8.8363e-05
6.392e-05
3.89083e-05
1.45939e-05
3.83963e-05
0.00128396
0.00122188
0.00114841
0.000822524
0.000912547
0.000847917
0.000808505
0.000640955
0.000585951
0.000564252
0.000557902
0.000605297
0.000639654
0.000479722
0.000393528
0.000454
0.000616129
0.000450866
0.000476733
0.00048806
0.000454811
0.00045954
0.000453934
0.00052779
0.000520647
0.000491085
0.000540645
0.000353252
0.00058584
0.000454354
0.000538752
0.000558956
0.000455499
0.000456451
0.000499252
0.000401701
0.000673182
0.000524646
0.000472963
0.00050825
0.000475114
0.000463849
0.000404839
0.000364925
0.000459611
0.000378819
0.000426593
0.000650543
0.000512961
0.000518876
0.000469
0.000449972
0.000409971
0.000534786
0.000458465
0.00024417
0.000304776
0.000784924
0.000688946
0.000664355
0.000665686
0.000834519
0.000158247
0.000643471
0.000309788
0.000833419
0.000499496
0.000803144
0.000852332
0.000854934
0.00107682
0.000937786
0.000786224
0.000801006
0.000578552
0.000513741
0.000404563
0.00116628
0.0013764
0.00147537
0.00117824
0.00146195
0.000916124
0.00176661
0.000635782
0.000615924
0.000595282
0.000821103
0.000665553
0.000940931
0.00202928
0.000991936
0.00162737
0.00200409
0.00118908
0.000825387
0.00119885
0.0009609
0.000613695
0.000786018
0.000284615
0.000402563
0.000884114
0.00155177
0.000895022
0.00164972
0.00144246
0.00115518
0.00119889
0.000563599
0.00102698
0.000496999
0.001082
0.000590456
0.000969365
0.00105347
0.000723285
0.00105577
0.000703152
0.00121162
0.00107999
0.000301418
0.000817868
0.000830566
0.00065258
0.00117887
0.000700725
0.000622983
0.00142535
0.000655099
0.00116709
0.00191684
0.000850568
0.00175818
0.00070848
0.000613358
0.000711341
0.000759404
0.000747551
0.000560765
0.000745958
0.00112382
0.000790195
0.00058494
0.00138533
0.00196758
0.00146384
0.00140077
0.00118282
0.00108998
0.000534647
0.000961782
0.000885085
0.000834609
0.000776806
0.000561068
0.000927985
0.000760338
0.00123852
0.0015169
0.00170372
0.000825568
0.000911423
0.0011242
0.000595424
0.000625733
0.000775916
0.000622586
0.000786614
0.000934899
0.000808494
0.000874577
0.000693498
0.000819751
0.000500633
0.000415825
0.00134559
0.000671501
0.000782084
0.000969601
0.00105431
0.000599945
0.000601545
0.000458559
0.000465246
0.000657036
0.000564159
0.000883755
0.000490347
0.000594693
0.000482494
0.00063596
0.00027735
0.00066421
0.00069517
0.000397538
0.000764176
0.000665037
0.000622331
0.00096131
0.00111436
0.000725619
0.000262092
0.000410907
0.000297572
0.000442255
0.000592118
0.000781418
0.000398141
0.000630494
0.00058317
0.000823999
0.000740572
0.00052244
0.000247077
0.000532158
0.000210065
0.00032626
0.000322541
0.000775763
0.000369891
0.000358175
0.000204723
0.00042939
9.42191e-05
0.000269747
0.000282544
0.000717313
0.00053406
0.000432404
0.000314291
0.000370989
0.000215564
0.000691409
0.000541571
0.00019964
0.000822912
0.00108345
0.000213644
0.000225324
0.000311524
0.000319591
0.000187626
0.000194318
6.41131e-05
0.000222057
0.00046528
0.000379034
0.000187645
0.000231598
0.000192931
0.000188753
0.000207444
8.42603e-05
0.000125211
0.000506672
0.000659782
0.00024498
0.000306793
0.000102498
0.000233438
0.000267056
0.000282929
0.000176996
0.000108633
0.000265265
0.000218795
0.000156347
9.25105e-05
0.000144731
0.000109307
3.52456e-05
3.09797e-05
8.17454e-05
0.000204309
5.65581e-05
0.0021225
0.00126983
0.00114244
0.00126053
0.00105341
0.00120566
0.00090481
0.000967582
0.000793847
0.000831158
0.000733879
0.000642064
0.00073914
0.000695072
0.000513123
0.000551689
0.000551564
0.000576378
0.000597546
0.000579216
0.000437182
0.000594573
0.000514997
0.000552899
0.000463279
0.000485855
0.000429604
0.000517867
0.000517392
0.000616675
0.000530541
0.000715002
0.000508519
0.000349949
0.000375316
0.000438024
0.000289333
0.000740361
0.000486972
0.000438304
0.000633076
0.000491037
0.000427454
0.000433543
0.00048055
0.000413413
0.000636722
0.000468482
0.000535029
0.000523118
0.000589594
0.000405565
0.000385243
0.000381285
0.000416865
0.00061242
0.000223249
0.000557661
0.000439122
0.000523499
0.00068507
0.000496858
0.000324736
0.000582086
0.000508362
0.000493621
0.000708941
0.000417791
0.0008533
0.000642256
0.000729382
0.000826099
0.000833762
0.00058533
0.000557303
0.000546772
0.000368042
0.000423786
0.000229927
0.000721299
0.00123745
0.000715934
0.000964399
0.00107704
0.000502771
0.000791401
0.000296108
0.000411335
0.000487094
0.000472585
0.00113738
0.000571679
0.0015143
0.000893295
0.00124897
0.000933487
0.00158698
0.000662313
0.000887361
0.000500038
0.000980172
0.000521325
0.000480705
0.000612535
0.000549473
0.00205203
0.00179113
0.00165011
0.00184035
0.0011156
0.00110826
0.000648974
0.00101223
0.000511096
0.000468257
0.000322945
0.000414872
0.000671499
0.000961439
0.00163117
0.000642982
0.00143906
0.00140184
0.000950917
0.000481686
0.000966566
0.000718258
0.000217863
0.000424911
0.000504754
0.000843928
0.000963066
0.000580611
0.000976103
0.000873113
0.000970568
0.000854861
0.000364865
0.00094858
0.00083623
0.00069924
0.000669629
0.000976642
0.000577636
0.000398718
0.00154707
0.00153239
0.00152169
0.00173399
0.00128678
0.00163373
0.00102936
0.00094839
0.000525155
0.000629393
0.000760277
0.000777435
0.000474076
0.00055292
0.000417942
0.000435604
0.000851962
0.00089256
0.00182793
0.00145681
0.0012277
0.00193616
0.000870334
0.000510424
0.000605322
0.000834271
0.00102868
0.00089563
0.000745186
0.00089323
0.000784919
0.00104939
0.000738231
0.00103476
0.00159509
0.00113103
0.000891252
0.00108927
0.000737985
0.000828962
0.000708731
0.000309432
0.000680014
0.00154358
0.000657693
0.000723457
0.0006715
0.000606694
0.00116951
0.000681554
0.000253246
0.00125544
0.000722504
0.000821036
0.00116213
0.00081072
0.000794358
0.000605946
0.000367149
0.000515421
0.000603416
0.000589731
0.00138824
0.000650962
0.000528239
0.000400766
0.000343677
0.000227543
0.000609784
0.000802717
0.000715929
0.000521481
0.000588747
0.000702623
0.000790493
0.000903547
0.000790064
0.000592852
0.000199906
0.000160065
0.000477316
0.0002713
0.000607559
0.000638509
0.000393218
0.000570097
0.000554321
0.00080113
0.000725482
0.000464829
0.000464988
0.000204676
0.000332441
0.000472327
0.000327794
0.000338648
0.000719453
0.000408767
0.000330831
0.000151748
0.000239294
0.000151606
0.000409776
0.000255793
0.000686856
0.00056689
0.000501224
0.00027689
0.00042983
0.000311119
0.000229428
0.000454947
0.000498357
0.00022806
0.000655117
0.000919198
0.000201154
0.000214349
0.0003253
0.000306281
0.000183774
0.000147815
8.9088e-05
0.000244774
0.000450679
0.000324357
0.000185029
0.000288368
0.000185681
0.000190564
0.000227758
0.000143441
0.000594972
7.43081e-05
0.000433041
0.000722693
0.000436744
0.00040735
0.000336626
0.000249255
0.000119727
0.000201245
0.000188731
0.000100889
6.19741e-05
0.000120127
0.000229422
0.000188475
7.02834e-05
0.000199899
4.73164e-05
5.77202e-05
0.000142033
0.000103669
6.78145e-05
6.11003e-05
0.0020593
0.00208919
0.00127543
0.000889065
0.000978118
0.00124673
0.00117813
0.00107189
0.000905755
0.00111638
0.000845863
0.000994058
0.000824839
0.00079844
0.00067382
0.000924269
0.000703074
0.000664586
0.000651613
0.000560855
0.000620094
0.000632452
0.000641377
0.000590918
0.000564095
0.00059256
0.000442053
0.000531884
0.000473938
0.000559513