/*--------------------------------*- C++ -*----------------------------------*\
  =========                 |
  \\      /  F ield         | OpenFOAM: The Open Source CFD Toolbox
   \\    /   O peration     | Website:  https://openfoam.org
    \\  /    A nd           | Version:  7
     \\/     M anipulation  |
\*---------------------------------------------------------------------------*/
FoamFile
{
    version     2.0;
    format      ascii;
    class       surfaceScalarField;
    location    "10";
    object      phi_0;
}
// * * * * * * * * * * * * * * * * * * * * * * * * * * * * * * * * * * * * * //

dimensions      [0 3 -1 0 0 0 0];

internalField   nonuniform List<scalar> 
54184
(
0.000122642
0.000932303
-3.47656e-05
0.000200588
0.000449837
-7.82269e-05
0.000148924
0.000778819
-3.79784e-05
6.96543e-05
0.00169643
-2.68047e-05
0.000278464
-0.000264992
-0.000185063
0.000273306
0.000297369
-8.07168e-05
0.000135349
0.00147688
-6.74703e-05
0.000160318
0.000614478
-3.77166e-05
8.85495e-05
0.00159946
-2.95535e-05
1.85149e-05
0.00269554
-2.21923e-05
0.000501775
-0.00137601
-0.000268287
0.000387778
-0.000376599
-0.000194057
0.000218373
0.00067726
-0.000210207
0.000324511
0.000103927
-7.84445e-05
0.000185018
0.00136916
-6.94672e-05
9.39075e-05
0.00198628
-9.85945e-05
0.00017047
0.000440454
-3.73033e-05
0.000101037
0.00149002
-2.93097e-05
3.20644e-05
0.00265772
-2.37984e-05
3.68302e-05
0.00305426
-2.45029e-05
0.000864361
-0.00193634
-0.000181122
0.000650347
-0.00155873
-0.00027637
0.000395558
-0.000361284
-0.000297673
0.000488891
-0.00053988
-0.000172579
0.000294605
0.000591235
-0.00021762
0.000215382
0.000730198
-0.000267711
0.00036731
-0.000120214
-7.96043e-05
0.000228355
0.00122321
-5.98131e-05
0.000128755
0.00192635
-0.000106228
6.15449e-05
0.00223296
-0.0001216
0.000178121
0.000259029
-3.69206e-05
0.000112213
0.00137012
-2.96172e-05
4.84825e-05
0.00260371
-2.37762e-05
5.31709e-05
0.0030035
-2.62082e-05
1.59281e-05
0.00290705
-2.46542e-05
0.00122104
-0.00341898
8.36379e-05
0.00116552
-0.00243408
-0.000216985
0.000630649
-0.000940719
-0.000109068
0.000755179
-0.00174936
-0.000254883
0.000502141
-0.000524431
-0.000320758
0.000312701
5.04722e-06
-0.000329622
0.0005902
-0.000750963
-0.000148916
0.000354463
0.000493903
-0.000201355
0.000276096
0.000651668
-0.000286431
0.000151985
0.000977709
-0.000315711
0.000397163
-0.000368004
-8.21277e-05
0.000261113
0.00105434
-5.96285e-05
0.000164328
0.00183932
-8.8625e-05
9.84128e-05
0.00221275
-0.000131259
1.55726e-05
0.00210853
-0.000129566
0.000183638
7.21051e-05
-3.63396e-05
0.00012206
0.00124119
-3.00513e-05
6.09948e-05
0.0025374
-2.43098e-05
7.28554e-05
0.00293339
-2.65305e-05
3.50621e-05
0.00287278
-2.7006e-05
8.74133e-06
0.00289754
-1.97369e-05
0.00164247
-0.00541623
0.000242488
0.00162881
-0.00400091
-0.000103397
0.000844542
-0.00159249
0.000302004
0.00128455
-0.00284903
-0.000155004
0.000831461
-0.00128556
-0.000201459
0.00048828
-0.000682434
-7.88372e-05
0.000861998
-0.00201624
-0.000228672
0.000583618
-0.000692483
-0.000315985
0.000425784
-0.000104564
-0.000360836
0.000275759
0.000719715
-0.000343452
0.000675532
-0.00100086
-0.000120465
0.000401914
0.000389822
-0.000185636
0.000313614
0.000571649
-0.000270623
0.000217281
0.000924242
-0.000351832
8.27884e-05
0.00114407
-0.000339738
0.000404864
-0.000622504
-8.57147e-05
0.000292337
0.000860675
-5.87435e-05
0.000193057
0.00173199
-8.43609e-05
0.000144963
0.00217272
-0.00012071
5.99562e-05
0.0020913
-0.000138924
-7.00482e-05
0.00158479
-0.000134953
0.000185524
-0.000116342
-3.51345e-05
0.000129759
0.00110527
-3.018e-05
7.4177e-05
0.00245776
-2.4582e-05
8.98196e-05
0.00284586
-2.65915e-05
5.55818e-05
0.00281761
-2.69419e-05
1.94907e-05
0.00287397
-2.29244e-05
-4.9469e-05
0.0023257
-8.47034e-06
0.00151135
-0.00734956
0.000578928
0.00189837
-0.00551083
0.000106192
0.000789822
-0.0036892
0.000353073
0.00186085
-0.00448171
-0.000174
0.00122874
-0.00222853
0.000135358
0.000721146
-0.00109748
0.000405052
0.00134857
-0.00327592
-3.63087e-05
0.000886268
-0.00146284
-0.000280379
0.000677202
-0.000989616
-0.000145694
0.000378715
-0.000290944
3.8546e-05
0.000917038
-0.00237357
-0.000186301
0.000671575
-0.000893021
-0.000297794
0.000507683
-0.000224234
-0.000390385
0.000394127
0.000579105
-0.000397072
7.9261e-05
0.00130706
-0.000247375
0.000690596
-0.0012505
-0.000101943
0.000441163
0.000288294
-0.000167763
0.000350333
0.000477129
-0.000248391
0.000277617
0.000866014
-0.000345049
0.000159952
0.00109167
-0.000399424
-0.000100605
0.000750379
-0.000302595
0.000400763
-0.000871345
-8.80508e-05
0.000323833
0.000638194
-5.73081e-05
0.000224519
0.00160234
-7.94352e-05
0.000179845
0.00211407
-0.00011573
9.4117e-05
0.00206808
-0.000136018
-3.2336e-05
0.00164598
-0.000148278
-0.000124955
0.00101147
-0.00014473
0.000177375
-0.000295574
-3.59097e-05
0.000136161
0.000963897
-2.99238e-05
8.82538e-05
0.00236376
-2.44328e-05
0.000107608
0.00274048
-2.68157e-05
7.32324e-05
0.00274454
-2.67491e-05
3.34205e-05
0.00283383
-2.02211e-05
-5.02101e-05
0.00236498
-1.19899e-05
-9.51327e-06
0.00234045
-3.6303e-06
0.00128084
-0.00842091
0.00154028
0.00161221
-0.00672356
0.000636996
0.000707619
-0.00625632
0.000686326
0.00211314
-0.00545581
2.31072e-06
0.00154052
-0.00411295
0.000218168
0.000667087
-0.00325762
0.000511849
0.00205764
-0.00518774
-2.56727e-05
0.00123676
-0.00270797
-4.50458e-05
0.000937202
-0.00155181
0.000329681
0.000490586
-0.000553465
0.000419889
0.00131097
-0.00368609
1.63893e-05
0.00102689
-0.00155915
-0.000295311
0.000780028
-0.00131144
-0.000230899
0.000581385
-0.000559063
-6.48328e-05
-0.000155194
0.000789671
0.000279371
0.000944
-0.0028077
-0.000108961
0.000741606
-0.00111344
-0.000266325
0.000592946
-0.000342486
-0.000422155
0.000501803
0.000400137
-0.000435603
0.000232449
0.0011575
-0.00032
-0.000274826
0.00201402
-0.000117982
0.000618853
-0.00150864
-0.000115788
0.000497285
0.00016511
-0.000152211
0.000394622
0.000361282
-0.00022202
0.000333954
0.000794142
-0.000330628
0.000220154
0.00103169
-0.000411109
-7.23516e-06
0.000682483
-0.000356628
-0.000219277
0.00042862
-0.000238649
0.000392872
-0.00111674
-9.08029e-05
0.000350895
0.000395591
-6.01827e-05
0.000257917
0.0014457
-7.03393e-05
0.000216077
0.00203162
-0.000105454
0.000129835
0.00202396
-0.000128212
5.97891e-07
0.0016891
-0.000146316
-0.000117692
0.00109199
-0.000161317
-0.000141952
0.000533972
-0.000146755
0.000164064
-0.000460116
-3.65747e-05
0.000141001
0.000816286
-2.92995e-05
0.000100138
0.00225822
-2.45306e-05
0.000123747
0.00261881
-2.65048e-05
9.35086e-05
0.00265092
-2.67002e-05
5.39755e-05
0.00277343
-2.03288e-05
-3.65557e-05
0.00239465
-1.33394e-05
-1.46327e-06
0.00233475
-4.82957e-06
-8.32823e-06
0.00193002
-2.10177e-05
0.000960141
-0.007686
0.00319828
0.00114744
-0.00793572
0.00277155
0.00129914
-0.00807428
0.00152435
0.000853859
-0.00864722
0.00159713
0.00245497
-0.00685236
0.000534087
0.00154081
-0.00625206
0.000632447
0.00036694
-0.00613432
0.00077314
0.00239673
-0.00559995
5.99163e-05
0.00187231
-0.00478566
3.94659e-05
0.00066701
-0.00328002
0.000510758
0.000250466
-0.00272168
0.000608002
0.00201955
-0.00598176
9.39212e-05
0.00146894
-0.00308626
-8.9429e-05
0.00118665
-0.00211942
0.000115949
0.000709518
-0.000820159
0.000468242
-4.75646e-05
2.7732e-05
0.000307322
0.00130042
-0.00408469
-0.000222395
0.00118697
-0.00170603
-0.000282103
0.000924494
-0.00163099
-0.000307309
0.000695117
-0.000844169
-0.000139107
0.000106327
0.000698407
0.000152554
-0.000426955
0.00206656
0.000293756
0.000888172
-0.00324795
-8.28057e-05
0.000820628
-0.00132575
-0.000219992
0.000666208
-0.000462181
-0.000418215
0.000606417
0.000180839
-0.00047532
0.000345276
0.0009857
-0.000388929
7.71073e-06
0.00184807
-0.000168997
-0.000341198
0.00177454
-7.61878e-05
0.000558727
-0.00175934
-0.000132642
0.000558117
-2.35612e-05
-0.000134338
0.000444231
0.000225005
-0.000202247
0.000371209
0.000730189
-0.0003132
0.000285986
0.000964464
-0.000419554
5.63791e-05
0.000601628
-0.000386036
-0.000206308
0.000429309
-0.000268701
-0.000320585
0.000240685
-0.000209249
0.000371429
-0.00135705
-0.000103504
0.000372484
0.000134251
-6.09456e-05
0.000291269
0.00123867
-4.42817e-05
0.000254135
0.00192563
-9.47347e-05
0.000169652
0.00196314
-0.000120783
3.88772e-05
0.00171733
-0.000141347
-8.37815e-05
0.00115712
-0.000164216
-0.000140492
0.000674901
-0.000163216
-0.000127331
3.57047e-05
-0.000148787
0.000153271
-0.000613027
-3.63761e-05
0.000142341
0.000667435
-3.00651e-05
0.000110092
0.00214268
-2.38434e-05
0.000144282
0.00247639
-2.6393e-05
0.000108543
0.00254262
-2.6757e-05
6.73821e-05
0.00269963
-2.02769e-05
-2.55367e-05
0.00241498
-1.51169e-05
5.47086e-06
0.00232442
-8.47869e-06
-2.50849e-06
0.00195129
-2.35896e-05
-5.51602e-05
0.00103733
-3.65574e-05
0.00113363
-0.00683515
0.00370599
0.00124285
-0.00786675
0.00322453
8.59837e-05
-0.00755907
0.00337554
0.00140838
-0.00816015
0.00284613
0.00079433
-0.00862819
0.00298404
0.00245278
-0.00788782
0.000972085
0.00113889
-0.00819567
0.00147471
-0.000175932
-0.00797269
0.00186004
0.00169823
-0.00637639
0.000657423
0.0023382
-0.00663555
0.000451696
0.000484731
-0.00593616
0.000616567
-4.03301e-05
-0.00619084
0.000963429
0.00239283
-0.00601237
0.0001813
0.00193254
-0.0051902
8.53215e-07
0.00126141
-0.00355111
0.000235794
0.000724943
-0.00283237
0.000606032
-0.00023515
-0.0028009
0.000579549
0.00189745
-0.00671766
2.63543e-05
0.0017341
-0.00357919
3.97188e-05
0.00137855
-0.00264867
-1.42426e-05
0.000874746
-0.00119614
0.000312297
0.000244851
1.5982e-05
0.000341468
-0.000507685
-0.000642917
0.000142148
0.00140839
-0.00466966
-0.000305213
0.00127052
-0.00216018
-0.000218134
0.000993565
-0.00182793
-0.000412524
0.000887168
-0.00116476
-0.000267472
0.000396021
0.000468531
4.00236e-05
-0.000116394
0.00213641
0.0002068
-0.000573798
0.00139402
0.000321024
0.000828564
-0.00360723
-0.000143592
0.000904503
-0.00157375
-0.000181193
0.000737793
-0.0005666
-0.000409135
0.000672455
-1.63114e-05
-0.00052231
0.000493512
0.000734528
-0.000431674
4.60786e-05
0.00167074
-0.000201296
-0.000350869
0.00184295
-9.28439e-05
-0.000562518
0.000942246
2.17843e-05
0.000475508
-0.00193354
-0.000151152
0.00060685
-0.000267048
-0.000123521
0.000488049
7.50856e-05
-0.000181199
0.000382119
0.000692958
-0.000293
0.000326118
0.000920256
-0.000425458
0.000109035
0.000534102
-0.000422186
-0.000150346
0.000407123
-0.000297286
-0.000330902
0.000386028
-0.000223634
-0.000371789
-0.000121002
-0.000192734
0.000351926
-0.00158243
-0.000120006
0.000385006
-0.000145554
-6.6363e-05
0.000319211
0.00103978
-7.1174e-05
0.000303956
0.00178893
-6.72625e-05
0.000201937
0.00188655
-0.000111541
6.84857e-05
0.00173542
-0.000139981
-4.54857e-05
0.00120313
-0.000167412
-0.000106337
0.000787768
-0.000165275
-0.000131868
0.000166112
-0.000164264
-0.000138683
-5.4474e-06
-0.000133015
0.000145182
-0.000758214
-3.52808e-05
0.000138654
0.000522698
-3.02928e-05
0.000116252
0.00202007
-2.3715e-05
0.000149036
0.00232968
-2.61724e-05
0.000122184
0.00241993
-2.58839e-05
8.35169e-05
0.00260854
-1.91816e-05
-1.2627e-05
0.00242368
-1.6354e-05
1.4295e-05
0.00230414
-9.13351e-06
5.02536e-06
0.00196206
-2.42769e-05
-6.00188e-05
0.00111449
-4.07261e-05
-0.000111244
6.95539e-05
-3.33509e-05
0.000615361
-0.00596995
0.00423778
0.00147213
-0.00699995
0.0034963
0.000126647
-0.00706818
0.00395113
0.00135508
-0.00798792
0.00347623
0.000555365
-0.00754696
0.00345139
-0.00023492
-0.00817076
0.00364111
0.00186511
-0.0075787
0.00243466
0.00087515
-0.00857271
0.00305439
-0.000244866
-0.00877928
0.00318101
0.00109813
-0.00707664
0.0013946
0.0016631
-0.00759116
0.00104268
0.000124955
-0.00781381
0.0016756
-0.000427183
-0.00797871
0.00204069
0.00245249
-0.00688758
0.00088003
0.00239219
-0.00690761
0.000469825
0.00138731
-0.00614072
0.000530359
0.000450149
-0.00603222
0.000732742
-0.000658783
-0.00542787
0.00123392
0.00219937
-0.00635058
0.000117453
0.00211688
-0.00540965
1.79737e-05
0.00174136
-0.00403727
0.000124214
0.000812359
-0.00300279
0.000468594
0.000197356
-0.00261572
0.000468355
-0.00093904
-0.00227926
0.000706738
0.00193824
-0.00721854
9.36368e-06
0.00193624
-0.00437236
0.000153808
0.00155232
-0.00315418
-1.35224e-05
0.00116468
-0.00167145
0.000183557
0.000669377
-0.000276745
0.000331668
-0.000410663
-0.000195361
0.000188181
-0.000891156
-0.000829193
8.4388e-05
0.00143564
-0.0052958
-0.000278441
0.00133007
-0.0027477
-0.000143254
0.00102982
-0.00202911
-0.000308979
0.00105886
-0.00151575
-0.000447934
0.000499929
0.000258831
-6.41881e-05
-9.37133e-05
0.00213981
0.000176425
-0.000663272
0.00167198
0.000241247
-0.000758581
0.00151385
0.000246639
0.000734745
-0.00398072
-0.000274836
0.000919977
-0.00189356
-0.000136909
0.000768955
-0.00065868
-0.00037002
0.000697016
-0.000181494
-0.00055885
0.000596107
0.00043046
-0.000488232
0.000122386
0.00147332
-0.000247605
-0.000248361
0.00182575
-8.60824e-05
-0.000583103
0.00106743
3.41775e-05
-0.000610627
0.000632313
8.44872e-05
0.000461201
-0.00210558
-0.00017472
0.000647613
-0.000553596
-0.000127212
0.000527249
-9.05034e-05
-0.000165969
0.000422056
0.000666142
-0.000272483
0.000373114
0.00087258
-0.000416501
0.000166043
0.000458015
-0.000446928
-4.91227e-05
0.000326827
-0.000338253
-0.000269315
0.00047241
-0.00022069
-0.000379045
0.000115312
-0.000212771
-0.000387589
-0.000880448
-0.000127017
0.00033866
-0.00177132
-0.000144299
0.000389795
-0.000444136
-7.25647e-05
0.000334283
0.000831951
-7.65625e-05
0.00030965
0.00164595
-8.88034e-05
0.0002294
0.00182079
-0.000108718
0.000107873
0.00173239
-0.000132868
-9.1409e-06
0.00122766
-0.000167989
-7.69419e-05
0.000878957
-0.000167365
-0.000115975
0.000282914
-0.000161076
-0.000145958
6.30269e-05
-0.0001468
-0.000205586
-0.000647299
-9.56618e-05
0.000141281
-0.000899974
-3.47606e-05
0.000131949
0.000384948
-2.94799e-05
0.000126806
0.00188679
-2.38121e-05
0.000155327
0.00217689
-2.62532e-05
0.000137233
0.00228216
-2.56326e-05
9.69681e-05
0.0025043
-1.8612e-05
-1.21942e-06
0.0024219
-1.61746e-05
2.31297e-05
0.00227616
-1.15029e-05
1.48027e-05
0.00196193
-2.38118e-05
-6.0891e-05
0.00119192
-4.08202e-05
-0.000124188
0.000189427
-3.64103e-05
-0.000154058
-0.000104882
-2.78808e-05
-0.000293491
-0.00531906
0.00452128
-1.4744e-05
-0.00575622
0.00442335
0.00110317
-0.00587684
0.00408519
-8.75641e-05
-0.00617145
0.00448191
0.00139182
-0.00703418
0.00378061
0.00050562
-0.0072924
0.00377026
-0.000306554
-0.00694138
0.00408712
0.00153925
-0.00766181
0.00316913
0.000978657
-0.00791399
0.00373975
-0.000159992
-0.00838949
0.00358525
-0.000861039
-0.00752947
0.00379989
0.00140944
-0.00756568
0.00205192
0.00135351
-0.00815187
0.00232341
-0.000240739
-0.00863332
0.00327412
-0.000715163
-0.00827217
0.00342396
0.00233564
-0.00687836
0.00086467
0.00259279
-0.00755432
0.00115717
0.00178136
-0.00836373
0.00119855
-0.000425972
-0.00734063
0.00191364
-0.000847747
-0.0079151
0.0021672
0.00195429
-0.00665351
0.000793687
0.00208627
-0.00672732
0.000730351
0.00182975
-0.00611152
0.000352232
0.00037032
-0.00580751
0.000747694
-0.000327451
-0.005319
0.00114868
-0.00143358
-0.00549922
0.00133839
0.00229908
-0.00677496
0.000207027
0.00244092
-0.00584852
5.16356e-05
0.00188845
-0.00440213
4.66987e-05
0.00126833
-0.00337699
0.000394764
0.000473603
-0.00245833
0.000506978
-0.000729252
-0.0021482
0.000655889
-0.0012513
-0.00257248
0.000846075
0.00190083
-0.00763311
0.000105865
0.00187377
-0.00507571
0.000169003
0.00160204
-0.00352045
-5.21404e-05
0.0013077
-0.00206876
0.000134939
0.000754659
-0.000683659
0.000335742
-0.000221038
9.44061e-05
0.000169225
-0.000839596
-0.000483951
1.92638e-05
-0.00112111
-0.00321124
0.000168138
0.00126952
-0.00577469
-0.000272996
0.0012665
-0.00330094
-7.17268e-05
0.00100984
-0.00217413
-0.000239115
0.00121639
-0.00187103
-0.00047307
0.000685487
-8.33629e-05
-0.00019512
0.000150301
0.00190549
0.000142208
-0.000503996
0.00186255
0.000241485
-0.000771229
0.00169832
0.000244906
-0.000893815
-0.000146451
0.000202583
0.000688832
-0.00428443
-0.000319929
0.000859982
-0.00227963
-0.000101134
0.000831236
-0.000823747
-0.00027583
0.000727514
-0.000345644
-0.000511328
0.00070323
7.16785e-05
-0.000530184
0.000182295
0.00126263
-0.000293791
-0.000112117
0.00176311
-0.000121971
-0.000490881
0.00122815
-2.5241e-05
-0.000594628
0.000791185
9.08881e-05
-0.000624212
-0.000567069
0.000106083
0.000439397
-0.00230586
-0.000152515
0.000682509
-0.000907413
-0.000113617
0.000562011
-0.000302963
-0.000142481
0.000477717
0.000589111
-0.000257006
0.000434261
0.000793753
-0.000398517
0.000221944
0.000382812
-0.00045537
1.26038e-05
0.000230081
-0.000371926
-0.000200249
0.000501929
-0.000244465
-0.00031638
0.000279985
-0.000184958
-0.000404797
-0.000683316
-0.000151063
-0.000395874
-0.0016986
-7.72714e-05
0.000328119
-0.00191706
-0.000154142
0.000375037
-0.000721754
-0.000109769
0.000357088
0.000602328
-7.32238e-05
0.000328566
0.00147773
-8.15796e-05
0.000255712
0.00171383
-0.000100319
0.000132606
0.00171382
-0.000125778
2.19787e-05
0.00124071
-0.00016912
-4.01164e-05
0.000941799
-0.000167585
-9.78066e-05
0.000389928
-0.000161769
-0.00016062
0.000145022
-0.000143341
-0.000236589
-0.000575502
-0.000106196
-0.000282643
-0.000950405
-8.5338e-05
0.000137599
-0.00103637
-3.76487e-05
0.000126836
0.000252108
-2.87557e-05
0.000133713
0.00174756
-2.39602e-05
0.000163688
0.00201582
-2.6428e-05
0.000152298
0.0021292
-2.55944e-05
0.000110613
0.00238673
-1.86791e-05
1.95553e-05
0.00239971
-1.59839e-05
3.36165e-05
0.00223846
-1.20888e-05
1.98067e-05
0.00195588
-2.52566e-05
-5.84293e-05
0.00126782
-4.12849e-05
-0.000123841
0.000308351
-3.59037e-05
-0.000168205
5.78853e-05
-3.09731e-05
-0.00015498
0.000998919
-2.39582e-05
-0.00021225
-0.00541306
0.00449471
-0.000139506
-0.00537037
0.00455183
-0.000235239
-0.00566199
0.00454103
0.000417856
-0.00553718
0.00441655
-0.000255284
-0.00597292
0.00463298
0.0011132
-0.0058275
0.00439497
0.000227076
-0.00622761
0.00441989
-0.000262515
-0.00615528
0.00445152
0.00160645
-0.00718799
0.00366017
0.00102504
-0.00755047
0.0039923
-0.000278024
-0.00706737
0.00401429
-0.000561153
-0.00663947
0.00393396
0.00124101
-0.00733863
0.00302955
0.00108875
-0.00788298
0.00340288
-0.000157626
-0.00870824
0.00397539
-0.000766771
-0.00771741
0.0038248
-0.000946667
-0.00770052
0.00388502
0.00191698
-0.00749552
0.00254719
0.00230135
-0.0076973
0.00188878
0.00143076
-0.00850751
0.0025482
-0.000567643
-0.00837255
0.00351617
-0.00110144
-0.00818499
0.00357085
0.00154276
-0.00655442
0.00103007
0.00093498
-0.00684348
0.00130512
0.00139767
-0.00787519
0.00110071
0.000390933
-0.0078626
0.0016999
-0.000538551
-0.00784824
0.00205787
-0.00188553
-0.00672041
0.00254426
0.00192078
-0.0062765
0.000504105
0.00237025
-0.00660723
0.000744271
0.00182916
-0.00572292
0.000401035
0.00107559
-0.00595273
0.000690196
-0.000128866
-0.00497389
0.00100506
-0.00125558
-0.00512034
0.00129612
-0.00178833
-0.00534479
0.00155759
0.00214639
-0.00693974
0.000183858
0.00240919
-0.00639542
0.000218511
0.00218072
-0.00505103
0.00012186
0.00155951
-0.00389595
0.000313859
0.000736225
-0.00246118
0.000416045
-0.00033171
-0.0020631
0.000532552
-0.00117035
-0.00248138
0.000895543
-0.00156679
-0.00286344
0.00106519
0.0015338
-0.00781011
0.000131672
0.00185781
-0.00576802
0.000206868
0.00162902
-0.00383387
-0.000136754
0.00151677
-0.00231078
-0.000110497
0.000954036
-0.00104766
0.00023039
0.000168224
0.000112475
0.00029975
-0.000736671
-0.000216209
0.000134157
-0.00131974
-0.00271496
7.14951e-05
-0.00142964
-0.00339647
0.000430037
0.00103363
-0.00590176
-0.000306191
0.00119718
-0.00379346
-0.000117679
0.00107252
-0.00237064
-0.000116506
0.00121426
-0.00218616
-0.000410725
0.000924393
-0.000501664
-0.000275932
0.000197419
0.00161041
8.48426e-05
-0.000216157
0.00189216
0.000216638
-0.00065103
0.00184749
0.000252463
-0.000947133
0.000270563
0.000180398
-0.000854336
-0.00068131
0.000263093
0.000597115
-0.00437466
-0.000433728
0.000730731
-0.00250556
-0.000142222
0.000894247
-0.00102734
-0.000229776
0.000741723
-0.000443403
-0.000442078
0.000826391
-0.000283726
-0.000548053
0.000321293
0.000989386
-0.000356291
3.62186e-05
0.0016037
-0.00015799
-0.000354931
0.001324
-6.31346e-05
-0.000494269
0.000907598
3.62349e-05
-0.000685672
-0.000267096
7.17901e-05
-0.000639883
-0.00185943
0.000194974
0.000407116
-0.00247741
-0.000151832
0.000701975
-0.00130094
-8.59292e-05
0.000602733
-0.000556455
-0.000105769
0.000520409
0.000480672
-0.000225885
0.00046649
0.00070504
-0.000379071
0.000250305
0.00032195
-0.000455355
6.75781e-05
0.000125969
-0.000396857
-0.000131158
0.000494672
-0.000273628
-0.000273099
0.000405205
-0.000194392
-0.000421193
-0.000459188
-0.000148514
-0.000460723
-0.00152483
-0.0001007
-0.000459904
-0.00172935
-8.62118e-05
0.000320839
-0.00203251
-0.000151922
0.000334365
-0.000954314
-0.000129112
0.000358975
0.00035232
-8.50222e-05
0.000345313
0.00130176
-7.88847e-05
0.000295885
0.00157609
-8.74285e-05
0.00015281
0.00168933
-0.00011803
5.84286e-05
0.00123992
-0.00016386
-7.18384e-06
0.000982217
-0.000168738
-7.58849e-05
0.000476843
-0.000158809
-0.000149551
0.000220969
-0.000146594
-0.000234381
-0.000503146
-0.000105158
-0.00030949
-0.000821575
-9.37407e-05
-0.000257196
-0.000936654
-3.45566e-05
0.000135363
-0.00116795
-4.06343e-05
0.000121691
0.000122767
-2.99988e-05
0.000137954
0.00160429
-2.34476e-05
0.000171987
0.00184632
-2.6448e-05
0.000165214
0.0019629
-2.53443e-05
0.000124473
0.00225461
-1.79464e-05
2.89913e-05
0.00236786
-1.58214e-05
4.36492e-05
0.00219016
-1.13374e-05
3.14738e-05
0.0019378
-2.54807e-05
-5.73476e-05
0.00134134
-4.14221e-05
-0.000124494
0.000427308
-3.57478e-05
-0.000168659
0.00022162
-3.09797e-05
-0.000168373
0.00116218
-2.58596e-05
-0.000178298
0.00183491
-2.38056e-05
-0.000249768
-0.00497041
0.00465951
-0.000127872
-0.00542219
0.00445371
-0.00028088
-0.00545384
0.00450231
-8.48624e-06
-0.00518383
0.00456833
-0.0003276
-0.0055819
0.00454407
8.93577e-05
-0.00577829
0.00448776
0.000312721
-0.00520562
0.00489297
-0.000150269
-0.00581412
0.00463509
-0.00012637
-0.00593908
0.00460921
0.00124022
-0.00568607
0.00429407
0.000450745
-0.00603632
0.00477797
-0.000385555
-0.00614635
0.00451849
-0.000396103
-0.00616965
0.00439664
0.00123297
-0.00725509
0.00346909
0.000744827
-0.00749705
0.00395068
-0.000280936
-0.0073009
0.00434914
-0.000667624
-0.00676296
0.00403863
-0.000833019
-0.00656118
0.0038596
0.00168483
-0.00740638
0.00320891
0.00131514
-0.00723493
0.00336771
0.000304743
-0.00807815
0.00389882
-0.000531762
-0.00807896
0.00430105
-0.00106429
-0.00781338
0.00390051
-0.00142766
-0.00687982
0.00376278
0.00113043
-0.00631691
0.00132378
0.000319669
-0.00730189
0.00276709
0.00104857
-0.00851278
0.00224314
0.000112527
-0.00850636
0.00296042
-0.000450766
-0.00838619
0.00362958
-0.00161482
-0.00745005
0.00355886
0.00155808
-0.00630869
0.000859479
0.00306177
-0.00749039
0.000985461
0.00124846
-0.00724356
0.00125419
0.000813274
-0.00765829
0.00115872
-0.000570932
-0.00752948
0.00182321
-0.00165572
-0.00685977
0.00259737
-0.00190342
-0.00651024
0.00257815
0.000882466
-0.00570292
0.000352273
0.00253569
-0.00689889
0.000669264
0.00266457
-0.00604159
0.000579101
0.00128267
-0.00583369
0.000558834
0.000649291
-0.00510559
0.000908831
-0.000792837
-0.00467308
0.00101893
-0.00189478
-0.00498352
0.00165927
-0.00202109
-0.00486656
0.00155767
0.00151139
-0.00709265
0.000371634
0.00211559
-0.00673486
0.000265519
0.002178
-0.00565647
0.000274965
0.001729
-0.00415768
0.000171356
0.0012182
-0.002868
0.000456516
-2.89862e-05
-0.00182552
0.000375672
-0.000875687
-0.00235326
0.000543451
-0.0018
-0.00261841
0.00113078
-0.00177627
-0.00293852
0.00118378
0.000974392
-0.00785063
0.000370212
0.00163447
-0.00636495
0.000291319
0.0016463
-0.00403208
-0.000168707
0.00165599
-0.00250507
-0.000384206
0.0012471
-0.00157052
8.96535e-05
0.00034473
5.6358e-05
0.000139196
-0.00032784
4.37419e-07
0.000194787
-0.0012805
-0.0020961
0.000144768
-0.00159282
-0.00311886
0.000439566
-0.00133468
-0.00400248
0.000629612
0.00080851
-0.0058755
-0.000132842
0.000995669
-0.00418513
-0.000179456
0.0010932
-0.00258603
-0.000101241
0.00115253
-0.00239604
-0.000317434
0.00118015
-0.000974381
-0.000291765
0.000480458
0.00107463
0.000100674
-2.89831e-05
0.00186611
0.000176099
-0.000389282
0.00185605
0.000242427
-0.000854042
0.000714117
0.000168682
-0.000943844
-0.000406213
0.000163473
-0.000979862
-0.00217856
0.000275112
0.000478212
-0.00432815
-0.000427521
0.000644369
-0.00265698
-0.000224702
0.000959747
-0.00126423
-0.000262348
0.00073285
-0.000438414
-0.000447207
0.000859286
-0.000528963
-0.000589638
0.000448361
0.000670415
-0.000427137
0.000116641
0.0014082
-0.000209854
-0.000225138
0.00136687
-0.000106887
-0.000422027
0.00108049
-8.71013e-05
-0.00065204
-7.63638e-05
7.63498e-05
-0.000848885
-0.00151488
0.000115406
-0.000573969
-0.00143378
0.000155043
0.00037383
-0.00256178
-0.000196872
0.000673597
-0.00165214
-0.000139856
0.000622462
-0.000793321
-0.000112549
0.000529217
0.000370782
-0.000179782
0.000471598
0.000650698
-0.000347256
0.000249821
0.000293291
-0.000447424
0.00011629
2.09517e-05
-0.0004082
-6.255e-05
0.000444927
-0.000291746
-0.000233133
0.000479444
-0.000190619
-0.000368168
-0.000269133
-0.000165829
-0.000429396
-0.00134836
-0.000129971
-0.000536165
-0.00150728
-9.60953e-05
-0.00041015
-0.00210422
-4.46946e-05
0.000301239
-0.00212257
-0.000132263
0.000306435
-0.00114956
-0.000141425
0.000343926
0.000101173
-8.39381e-05
0.000358594
0.00111088
-8.07431e-05
0.000342811
0.0013972
-7.75821e-05
0.000182562
0.0016536
-0.000109789
8.53805e-05
0.00122437
-0.000158873
1.98367e-05
0.00100728
-0.000165114
-6.2709e-05
0.000557075
-0.000154786
-0.000154621
0.000306325
-0.000146892
-0.000241477
-0.000422768
-0.000109989
-0.000306194
-0.000692692
-9.65047e-05
-0.000296987
-0.000864635
-3.71443e-05
-0.000279812
0.000461762
1.25421e-06
0.000131288
-0.00129197
-4.34565e-05
0.000124398
-8.99474e-06
-3.32706e-05
0.000138874
0.00145835
-2.29308e-05
0.00018035
0.00166829
-2.57658e-05
0.000176003
0.00178559
-2.51366e-05
0.000137884
0.00210742
-1.60348e-05
3.89402e-05
0.00232625
-1.52779e-05
5.65767e-05
0.00212968
-1.19178e-05
3.87143e-05
0.00191204
-2.42964e-05
-5.63638e-05
0.00141442
-4.22028e-05
-0.000124077
0.000546612
-3.66493e-05
-0.000168303
0.000385674
-3.14986e-05
-0.000165017
0.00132167
-2.54563e-05
-0.000191727
0.0020262
-2.54245e-05
-0.000202995
0.00187493
-3.12303e-05
-0.000349958
-0.00481106
0.00462113
-0.000210078
-0.00487672
0.00472998
-0.000326562
-0.00496827
0.0046052
-1.97632e-05
-0.00538275
0.00445227
-0.00040778
-0.00549146
0.00457152
-7.91766e-07
-0.00560212
0.00451911
-3.84432e-05
-0.00514148
0.00505089
-0.000237685
-0.00550943
0.00458328
-0.000155204
-0.00568129
0.0044759
0.000207422
-0.00580189
0.00439695
0.000656583
-0.00507726
0.00488987
-2.36982e-05
-0.00556667
0.00511997
-0.000341075
-0.00595703
0.00460857
-0.000199413
-0.00593939
0.00448343
0.00109738
-0.00564971
0.00416857
0.000487549
-0.00614394
0.00465897
-0.000398803
-0.00615427
0.00490375
-0.000499727
-0.006196
0.00437694
-0.000438165
-0.0059449
0.00425692
0.000929953
-0.00675348
0.00351922
0.000687037
-0.00727629
0.00387643
-3.16105e-05
-0.00739308
0.00437921
-0.000637451
-0.00674429
0.00443616
-0.000853925
-0.00675188
0.00401898
-0.00105125
-0.00657834
0.00371885
0.00100235
-0.00707792
0.00263813
0.000900234
-0.00808676
0.00348017
0.000513226
-0.00786729
0.00369219
-0.000633836
-0.00772418
0.0042904
-0.000595059
-0.00791178
0.00454375
-0.00104531
-0.00737524
0.00382642
-0.00100712
-0.00661731
0.003645
0.00129543
-0.00591478
0.00174825
0.00305751
-0.00692892
0.000955063
0.000770335
-0.00761184
0.00234427
0.000281551
-0.00822608
0.00249458
-0.000698447
-0.00850132
0.00320307
-0.00152939
-0.00780026
0.00385346
-0.00170431
-0.00708098
0.00334645
0.000449172
-0.005861
0.00105751
0.0019914
-0.00714494
0.00105831
0.00277833
-0.00720249
0.000830629
0.00085939
-0.00725435
0.00127353
0.000649611
-0.00768384
0.00131276
-0.00124105
-0.00677082
0.00218248
-0.00224223
-0.00630839
0.00274296
-0.00186668
-0.006203
0.00244601
0.0013271
-0.00533274
0.000551286
0.00189111
-0.0070035
0.000681362
0.00251851
-0.00627153
0.00055869
0.00178996
-0.00592621
0.000610668
0.00112423
-0.00524879
0.000795996
-0.00023648
-0.00442105
0.000864293
-0.00152283
-0.00474737
0.00142992
-0.00245601
-0.0043354
0.00178412
-0.00182345
-0.00626432
0.00148739
0.000817529
-0.00675481
0.000367139
0.0022832
-0.00726619
0.000254236
0.00213426
-0.00618992
0.000311013
0.00180853
-0.00425247
0.000217222
0.00180324
-0.00361228
0.000359503
0.00023177
-0.00175782
0.000501777
-0.000480992
-0.00210545
0.000281009
-0.00164084
-0.00244777
0.000733152
-0.0017917
-0.00282898
0.00122013
-0.00164715
-0.00368419
0.00128512
0.000392844
-0.00753447
0.000465109
0.00158356
-0.00694504
0.000362408
0.00159693
-0.00437445
0.000129958
0.00172104
-0.00268787
-0.000554415
0.00145758
-0.00211694
-0.000115217
0.000735009
-0.000245874
0.000137334
-3.92524e-05
-5.86445e-05
0.000208547
-0.000989649
-0.0013667
6.57454e-05
-0.00144425
-0.00280734
0.000423457
-0.00162584
-0.00359407
0.00071315
-0.00126029
-0.00300084
0.000651686
0.000642577
-0.00595073
-5.09021e-05
0.000914867
-0.00445441
-0.000134062
0.00112745
-0.00287708
-5.6104e-05
0.00105775
-0.00253997
-0.000282217
0.00128753
-0.00137559
-0.000344473
0.000630715
0.000631291
-3.07764e-05
8.96964e-05
0.00180043
0.000193292
-0.000196728
0.0017917
0.000212043
-0.000626806
0.00092577
0.000235553
-0.000915585
-0.000185051
0.000211065
-0.00122197
-0.00187362
0.000231615
-0.000783033
-0.0031796
0.000386278
0.00035255
-0.00422617
-0.000381184
0.000638385
-0.00279562
-0.000253674
0.000970364
-0.00171863
-0.000118197
0.000800702
-0.000507854
-0.000464393
0.000780682
-0.000676851
-0.000608403
0.000554844
0.00025767
-0.000481917
0.00026097
0.00108742
-0.000251041
-7.52093e-05
0.00126676
-9.70847e-05
-0.000368152
0.00122521
-0.000116591
-0.000553953
5.47148e-05
-3.23957e-05
-0.000647159
-0.00133933
0.000118563
-0.000647535
-0.00129742
9.04135e-05
-0.000517572
-0.00131621
0.000106218
0.000309164
-0.00256603
-0.000249835
0.000593704
-0.00192662
-0.00020966
0.000576098
-0.00100308
-0.000162269
0.000530605
0.000245729
-0.000159508
0.000506562
0.00060934