/*--------------------------------*- C++ -*----------------------------------*\
  =========                 |
  \\      /  F ield         | OpenFOAM: The Open Source CFD Toolbox
   \\    /   O peration     | Website:  https://openfoam.org
    \\  /    A nd           | Version:  7
     \\/     M anipulation  |
\*---------------------------------------------------------------------------*/
FoamFile
{
    version     2.0;
    format      ascii;
    class       volVectorField;
    location    "10";
    object      U_0;
}
// * * * * * * * * * * * * * * * * * * * * * * * * * * * * * * * * * * * * * //

dimensions      [0 1 -1 0 0 0 0];

internalField   nonuniform List<vector> 
18780
(
(-0.452764 -1.09508 -0.862932)
(-0.212892 -0.908302 -0.738981)
(-0.446374 -1.14479 -0.852324)
(-0.844712 -0.586413 -0.720998)
(0.122299 -0.760865 -0.79048)
(-0.25473 -1.05164 -0.694635)
(-0.743875 -0.631487 -0.41251)
(-0.450278 -1.19282 -0.841036)
(-0.828469 -0.603973 -0.71569)
(-1.35072 -0.108858 -0.53101)
(0.667998 -0.81473 -0.874278)
(0.153865 -1.00548 -0.75988)
(-0.322968 -0.498655 -0.861241)
(-0.196963 -1.18105 -0.691279)
(-0.73723 -0.708531 -0.386241)
(-1.00164 -0.311012 -0.651917)
(-0.453539 -1.23862 -0.826644)
(-0.815451 -0.631345 -0.719241)
(-1.35052 -0.111814 -0.534005)
(-1.52856 -0.39303 -0.475734)
(0.896568 -1.32767 -0.488862)
(0.712817 -1.03836 -0.756235)
(0.170357 -0.726791 -0.885486)
(0.0873436 -1.29389 -0.663708)
(-0.341931 -0.622589 -0.811971)
(-0.354371 -0.522624 -1.08729)
(-0.215964 -1.29176 -0.693528)
(-0.72909 -0.800044 -0.366481)
(-0.98785 -0.345137 -0.615241)
(-1.10376 -0.24516 -0.842323)
(-0.462709 -1.2828 -0.804842)
(-0.808441 -0.662616 -0.720984)
(-1.32994 -0.116926 -0.534245)
(-1.54344 -0.354291 -0.450692)
(-1.45429 -0.236657 -0.647961)
(1.64465 -1.3733 -0.118893)
(1.03941 -1.60193 -0.479657)
(0.413497 -0.984444 -0.402495)
(0.710952 -1.32814 -0.69658)
(0.191942 -0.887251 -0.89182)
(-0.0108256 -0.674958 -1.04588)
(0.0783678 -1.55674 -0.517692)
(-0.34195 -0.798799 -0.740828)
(-0.370082 -0.592266 -1.02042)
(-0.498484 -0.324406 -1.3664)
(-0.195276 -1.37983 -0.716882)
(-0.721938 -0.878564 -0.383212)
(-0.992914 -0.4543 -0.501186)
(-1.11236 -0.320179 -0.847388)
(-1.05254 -0.034016 -1.00449)
(-0.474031 -1.31961 -0.781784)
(-0.799417 -0.68221 -0.732785)
(-1.3081 -0.132077 -0.553119)
(-1.5271 -0.374639 -0.448988)
(-1.48813 -0.23746 -0.640047)
(-1.44133 -0.308678 -0.487343)
(2.67905 -1.83474 0.376922)
(1.7926 -1.92455 -0.414176)
(0.737854 -1.01041 0.496684)
(1.15419 -1.86345 -0.107728)
(0.537932 -1.11581 -0.502459)
(0.295104 -0.649526 -0.133109)
(0.680038 -1.65776 -0.747461)
(0.195004 -1.0439 -0.822632)
(0.00950551 -0.785334 -0.991413)
(-0.376707 -0.550351 -1.1123)
(0.0316897 -1.75237 -0.351426)
(-0.373405 -0.917608 -0.705886)
(-0.372599 -0.672838 -0.957227)
(-0.484126 -0.380166 -1.35633)
(-0.560059 -0.167609 -1.54138)
(-0.168573 -1.45021 -0.761979)
(-0.709097 -0.968071 -0.400968)
(-0.983908 -0.493719 -0.482291)
(-1.15494 -0.451727 -0.723355)
(-1.05681 -0.153762 -0.962215)
(-0.778454 0.251717 -0.971413)
(-0.483328 -1.34308 -0.736674)
(-0.800474 -0.69114 -0.739548)
(-1.30927 -0.146813 -0.561807)
(-1.52553 -0.415652 -0.457598)
(-1.46644 -0.315472 -0.661135)
(-1.48075 -0.229222 -0.488244)
(-1.21586 0.40445 -0.433795)
(3.70918 -1.99297 0.71565)
(2.67382 -2.28118 0.114158)
(1.89272 -1.15289 0.505052)
(1.86012 -2.28494 -0.369039)
(0.84214 -1.39872 0.05723)
(0.493172 -0.975901 0.765107)
(1.18445 -2.10154 0.432427)
(0.577694 -1.33037 -0.616435)
(0.390046 -0.860753 -0.395026)
(0.118271 -0.562857 -0.290479)
(0.667768 -1.99509 -0.597907)
(0.199771 -1.19711 -0.620278)
(-0.00790468 -0.880927 -1.04604)
(-0.332319 -0.694398 -1.15594)
(-0.64989 -0.31929 -1.16111)
(0.0456089 -1.8104 -0.291981)
(-0.415512 -1.02622 -0.65289)
(-0.390158 -0.785194 -0.856364)
(-0.495329 -0.500848 -1.29419)
(-0.568203 -0.266325 -1.59271)
(-0.386394 0.249794 -1.48216)
(-0.148763 -1.50193 -0.79062)
(-0.707644 -1.04623 -0.412361)
(-0.981246 -0.556496 -0.458699)
(-1.17776 -0.510096 -0.686743)
(-1.05936 -0.216878 -0.943735)
(-0.81757 0.1454 -0.964829)
(-0.491433 0.428339 -1.10842)
(-0.457893 -1.30453 -0.767995)
(-0.799108 -0.69677 -0.740022)
(-1.28805 -0.16003 -0.563359)
(-1.5313 -0.444038 -0.465597)
(-1.45401 -0.348194 -0.661403)
(-1.47365 -0.244526 -0.468791)
(-1.16428 0.458205 -0.498593)
(-1.17539 -0.130873 0.0593357)
(4.16671 -1.05194 2.00312)
(3.43006 -2.19571 1.05862)
(3.10369 -0.627897 0.983625)
(2.45891 -2.8325 0.0623841)
(1.80878 -1.65319 0.211689)
(1.57593 -0.837627 0.684345)
(1.97241 -2.53654 0.061248)
(1.14204 -1.50531 -0.252409)
(0.576337 -1.2772 0.473972)
(0.248054 -0.749056 0.818235)
(1.26626 -2.15843 0.542698)
(0.500024 -1.57655 -0.613803)
(0.455261 -1.10187 -0.639374)
(0.175231 -0.745595 -0.296455)
(-0.382388 0.00430137 0.487003)
(0.667306 -2.15925 -0.194658)
(0.226033 -1.32047 -0.533262)
(-0.0175702 -0.971703 -1.13561)
(-0.334107 -0.82418 -1.27899)
(-0.631836 -0.504173 -1.23405)
(-0.952463 0.236503 -0.372564)
(0.0734359 -1.80889 -0.473608)
(-0.458803 -1.15613 -0.583227)
(-0.419829 -0.888276 -0.75668)
(-0.508387 -0.609049 -1.21533)
(-0.558507 -0.357498 -1.60801)
(-0.353087 0.106713 -1.64366)
(-0.213956 0.544493 -1.29897)
(-0.117439 -1.49363 -0.823779)
(-0.687643 -1.12099 -0.422368)
(-1.00175 -0.652465 -0.431633)
(-1.19509 -0.613481 -0.644044)
(-1.09085 -0.296607 -0.915027)
(-0.814085 0.122128 -0.948041)
(-0.505226 0.40671 -1.11275)
(-0.238412 0.388944 -1.08485)
(-0.427557 -1.25259 -0.792857)
(-0.779763 -0.713364 -0.749431)
(-1.2601 -0.154293 -0.55801)
(-1.52129 -0.440208 -0.457455)
(-1.46722 -0.358749 -0.66868)
(-1.45669 -0.293873 -0.461309)
(-1.18951 0.414808 -0.414125)
(-1.19664 -0.132621 0.0162135)
(-0.965222 -0.107951 -0.227245)
(3.70762 -0.163629 3.30429)
(3.96659 -1.03122 3.048)
(4.2536 -1.20575 1.90211)
(4.28408 -0.696593 1.82047)
(3.08828 -2.46217 1.06916)
(3.00267 -1.95256 0.601015)
(3.03749 -0.629165 1.04324)
(2.13566 -3.39401 0.0989538)
(2.03719 -1.82621 -0.0581695)
(1.56431 -1.01289 0.507778)
(1.38679 -0.45416 1.06155)
(2.15999 -2.72168 0.142219)
(1.14245 -1.83043 -0.164021)
(0.756464 -1.49233 0.102994)
(0.256031 -1.10727 0.725178)
(0.111211 0.453338 0.88156)
(1.39204 -2.31473 -0.624109)
(0.406688 -1.79953 -0.481741)
(0.553652 -1.38013 -0.715276)
(0.25191 -1.05365 -0.434401)
(-0.381417 -0.299305 -0.00278122)
(-0.687 1.00914 0.853745)
(0.891458 -2.01356 -0.145412)
(0.167744 -1.51082 -0.485654)
(-0.0695762 -1.12148 -1.01743)
(-0.29995 -0.968719 -1.39234)
(-0.593663 -0.665302 -1.351)
(-1.01822 -0.0478608 -0.573838)
(-0.879974 0.618342 -0.401474)
(0.0759869 -1.8569 -0.65066)
(-0.526777 -1.2711 -0.534425)
(-0.445043 -0.974504 -0.689863)
(-0.550831 -0.680741 -1.09513)
(-0.583161 -0.436037 -1.5796)
(-0.323881 -0.026545 -1.7543)
(-0.202782 0.461107 -1.32506)
(-0.107495 0.759775 -0.876168)
(-0.0279006 -1.42361 -0.982984)
(-0.684041 -1.17111 -0.429689)
(-0.998662 -0.752993 -0.465461)
(-1.24647 -0.731574 -0.547788)
(-1.12541 -0.452313 -0.822824)
(-0.869314 -0.0170322 -0.87236)
(-0.540723 0.372542 -1.11256)
(-0.289037 0.341717 -1.10837)
(-0.00133252 0.333844 -1.12278)
(-0.391012 -1.19541 -0.796118)
(-0.778416 -0.714926 -0.763591)
(-1.21298 -0.138993 -0.532112)
(-1.48635 -0.432165 -0.465916)
(-1.47364 -0.36839 -0.670159)
(-1.48555 -0.30981 -0.442805)
(-1.1618 0.412285 -0.423279)
(-1.19483 -0.0896187 -0.128249)
(-0.994225 -0.108665 -0.218275)
(-0.530351 0.480766 -0.73589)
(3.35821 -0.647629 3.35807)
(3.91112 -0.622159 3.22224)
(3.65085 0.398873 3.38234)
(3.97009 -1.20755 2.87259)
(4.22766 -0.706649 3.25099)
(3.47376 -3.03167 0.841741)
(4.08225 -1.28894 1.59321)
(3.87239 0.02541 2.3838)
(2.77451 -2.88028 0.879825)
(2.88999 -2.90515 0.391302)
(2.90152 -0.559074 1.13209)
(3.04906 0.0325726 1.22563)
(2.09431 -3.57632 0.21498)
(2.11189 -2.37964 0.0712105)
(1.57002 -1.58821 0.185801)
(1.2644 -0.58976 1.08409)
(1.40914 -0.246311 0.941949)
(2.4535 -3.00597 -0.384607)
(1.15745 -2.25859 0.178272)
(0.907998 -1.84152 -0.131881)
(0.426285 -1.18337 0.292645)
(-0.124412 0.0103228 0.895846)
(0.642809 0.246901 0.362689)
(1.32381 -2.52694 -1.25204)
(0.387578 -1.98342 -0.426118)
(0.503761 -1.54604 -0.791475)
(0.28814 -1.36236 -0.690492)
(-0.346272 -0.481836 -0.229372)
(-1.2834 0.116941 0.646905)
(-0.622121 0.83955 0.709003)
(1.03182 -1.85714 -0.58158)
(0.127187 -1.75033 -0.376841)
(-0.104073 -1.3155 -0.791016)
(-0.274084 -1.05585 -1.51238)
(-0.586303 -0.867495 -1.48597)
(-0.85775 -0.180071 -0.86227)
(-0.885042 0.581845 -0.432781)
(-0.45381 0.97107 -0.103807)
(0.0665945 -1.90786 -0.724738)
(-0.54757 -1.39835 -0.509251)
(-0.48355 -1.08517 -0.58117)
(-0.594223 -0.755178 -0.996575)
(-0.572717 -0.464533 -1.56912)
(-0.29779 -0.107834 -1.87127)
(-0.183867 0.28854 -1.45367)
(-0.130043 0.71698 -0.90162)
(0.0972387 0.714973 -0.980667)
(0.0158815 -1.42064 -1.07946)
(-0.620357 -1.19616 -0.457076)
(-0.993404 -0.858117 -0.472987)
(-1.31558 -0.938542 -0.144297)
(-1.1532 -0.535577 -0.773528)
(-0.879692 -0.0331796 -0.86686)
(-0.542066 0.317886 -1.12741)
(-0.342468 0.278676 -1.15522)
(-0.0383282 0.296089 -1.11623)
(0.00835024 0.41496 -1.15706)
(-0.36395 -1.14533 -0.795644)
(-0.773441 -0.720356 -0.760722)
(-1.19929 -0.12976 -0.543211)
(-1.49233 -0.45445 -0.468199)
(-1.46967 -0.421316 -0.660793)
(-1.4963 -0.332479 -0.44886)
(-1.14716 0.384975 -0.435649)
(-1.18168 -0.0804224 -0.203307)
(-0.982849 -0.107873 -0.226195)
(-0.539305 0.513302 -0.766139)
(-0.0406906 0.943811 -0.943988)
(2.97508 -0.379773 3.42541)
(3.4116 -1.0658 3.22994)
(3.30752 0.120271 3.62278)
(3.80418 -1.24226 2.98374)
(3.65925 -0.410787 3.57095)
(3.89152 0.469121 3.47719)
(3.54573 -1.94556 2.50712)
(4.25294 -0.955639 3.07595)
(4.26259 0.518077 3.56425)
(3.56059 -1.45036 1.88831)
(3.77524 -2.2885 1.35569)
(3.74092 -0.643168 1.91971)
(3.94588 0.223942 2.51998)
(2.68461 -2.94441 1.0351)
(2.90761 -2.8826 0.847226)
(2.90217 -1.63472 0.793695)
(2.95887 -1.07241 0.518625)
(2.69424 0.909795 1.61954)
(2.13001 -3.56261 0.231118)
(2.06525 -2.96347 0.323848)
(1.52531 -1.93893 -0.0650487)
(1.36558 -1.09855 0.594744)
(1.33502 -0.645103 0.712689)
(0.944216 1.35125 1.11724)
(2.45375 -3.53376 -0.206146)
(1.27286 -2.5662 0.46702)
(0.999964 -2.05592 -0.0107596)
(0.408192 -1.52961 0.0705391)
(0.0382897 -0.770992 0.818309)
(0.0225008 0.202432 0.455106)
(0.527647 1.01055 0.249678)
(1.45138 -2.85661 -1.16439)
(0.460341 -2.22228 -0.186337)
(0.493998 -1.69479 -0.5529)
(0.249406 -1.61282 -1.06506)
(-0.311292 -0.81232 -0.577179)
(-0.938844 0.23629 0.403896)
(-0.688218 0.901734 0.371273)
(-0.705079 1.43082 0.839476)
(1.30155 -1.63167 -1.43405)
(0.0832629 -1.93531 -0.313805)
(-0.213586 -1.42006 -0.675827)
(-0.273235 -1.01643 -1.68919)
(-0.533785 -1.03014 -1.66101)
(-0.850888 -0.323861 -0.989531)
(-0.859711 0.549563 -0.346485)
(-0.469596 0.948003 -0.126462)
(-0.277273 1.28891 0.255173)
(0.0404117 -1.89087 -0.891412)
(-0.575578 -1.54022 -0.599262)
(-0.518015 -1.17474 -0.513373)
(-0.653966 -0.796998 -0.93208)
(-0.624248 -0.516075 -1.51112)
(-0.305259 -0.251973 -1.94224)
(-0.165867 0.102941 -1.64133)
(-0.166861 0.56467 -1.02596)
(0.0176864 0.706167 -0.906494)
(0.477776 0.807703 -0.813231)
(0.0246358 -1.45634 -1.06192)
(-0.522805 -1.12379 -0.610868)
(-0.992785 -0.90581 -0.527706)
(-1.30967 -0.848138 -0.515041)
(-1.19394 -0.554368 -0.78829)
(-0.945895 -0.0957966 -0.791018)
(-0.566754 0.24539 -1.12671)
(-0.375159 0.248149 -1.19441)
(-0.0884608 0.25605 -1.0995)
(-0.00559004 0.403282 -1.18219)
(0.303053 0.876938 -0.86253)
(-0.345548 -1.13395 -0.808752)
(-0.769206 -0.723347 -0.722662)
(-1.23004 -0.126286 -0.553628)
(-1.50533 -0.450787 -0.465008)
(-1.47452 -0.455556 -0.653619)
(-1.49337 -0.3657 -0.436753)
(-1.1426 0.369469 -0.391474)
(-1.19387 -0.0355213 -0.247901)
(-1.01422 -0.123867 -0.179138)
(-0.545784 0.545486 -0.792258)
(-0.0416388 0.955222 -0.932975)
(0.0510064 1.3004 -0.607443)
(2.46737 0.644694 3.27769)
(2.83768 0.150902 3.30625)
(2.86732 -0.759177 3.32117)
(2.98936 0.268825 3.79071)
(3.31792 -0.871841 3.18857)
(3.53598 -0.184418 3.4124)
(3.27238 0.557324 3.74954)
(3.67127 -1.53667 2.83576)
(3.87341 -0.625348 3.57625)
(3.99088 0.111766 3.45474)
(3.50825 1.0793 3.98011)
(3.50558 -1.66402 2.57667)
(3.94367 -1.379 2.44871)
(4.24665 0.179368 3.31431)
(3.94626 0.737626 3.8424)
(2.73334 -3.3129 0.590331)
(3.2192 -2.73607 1.32911)
(3.99993 -1.75053 1.10004)
(3.67316 -0.0595204 2.10128)
(3.91245 0.581732 2.57776)
(2.68912 -2.95365 0.934328)
(2.79236 -3.00479 1.39549)
(2.57217 -2.65073 0.399559)
(2.76569 -1.02181 0.701051)
(2.66422 0.120958 1.39011)
(2.75526 1.07987 1.96347)
(2.10886 -3.63271 0.317914)
(1.71074 -3.50039 0.113587)
(1.54567 -2.45086 -0.26181)
(1.26491 -1.62069 0.481291)
(1.10398 -0.922952 0.779661)
(1.2593 0.913699 0.802525)
(1.23242 1.57598 1.33155)
(2.34325 -3.7306 0.192673)
(1.39936 -2.83781 0.240949)
(1.05522 -2.22457 0.154223)
(0.585519 -1.87581 -0.0531446)
(0.0861874 -0.731295 0.572212)
(0.155224 0.0618243 0.466801)
(0.261905 1.01752 0.260189)
(1.64661 1.09665 0.0584278)
(1.5269 -3.2074 -0.920168)
(0.593536 -2.34242 -0.148272)
(0.467721 -1.75426 -0.466897)
(0.386734 -1.87216 -0.843908)
(-0.290959 -1.03544 -1.06958)
(-1.01124 0.252625 0.268892)
(-0.87425 0.657654 0.433362)
(-0.752272 1.36081 0.722576)
(0.110419 1.36312 0.34686)
(1.35561 -1.80753 -1.39668)
(0.0379525 -2.07675 -0.268873)
(-0.284953 -1.5364 -0.477808)
(-0.296182 -1.18938 -1.54762)
(-0.499644 -1.18331 -1.72723)
(-0.792278 -0.434689 -1.15624)
(-0.841477 0.294477 -0.493229)
(-0.472313 0.855466 -0.174732)
(-0.363238 1.14642 0.344802)
(0.268943 1.2655 0.32411)
(0.00196371 -1.86904 -0.946699)
(-0.667641 -1.76805 -0.628426)
(-0.571907 -1.23643 -0.457468)
(-0.729902 -0.832487 -0.878713)
(-0.678379 -0.601026 -1.41309)
(-0.346218 -0.390936 -1.94048)
(-0.157189 -0.0381172 -1.78185)
(-0.176096 0.417459 -1.19297)
(-0.0399276 0.662287 -0.769095)
(0.398277 0.730247 -0.889265)
(0.831217 0.872775 -0.358991)
(0.00271501 -1.52326 -0.907126)
(-0.359998 -1.04644 -0.988678)
(-1.02213 -0.991483 -0.463583)
(-1.31949 -0.835342 -0.537813)
(-1.24619 -0.625089 -0.727796)
(-0.969712 -0.153803 -0.741717)
(-0.585735 0.172004 -1.11514)
(-0.444244 0.175673 -1.21008)
(-0.135749 0.21611 -1.09305)
(-0.000781722 0.438868 -1.16912)
(0.312648 0.885741 -0.847009)
(0.429473 1.21455 -0.620004)
(-0.328996 -1.1424 -0.871164)
(-0.748931 -0.696225 -0.693238)
(-1.1972 -0.165344 -0.560111)
(-1.48566 -0.463222 -0.46503)
(-1.47818 -0.466563 -0.66585)
(-1.48769 -0.373291 -0.434126)
(-1.15293 0.275727 -0.377256)
(-1.20169 -0.0323695 -0.289228)
(-1.0387 -0.0752805 -0.233057)
(-0.544336 0.573404 -0.822855)
(-0.0410839 0.969289 -0.915945)
(0.0407545 1.28816 -0.614153)
(-0.527543 1.36482 -0.665036)
(2.55225 0.434727 3.00796)
(2.54744 0.3657 3.28269)
(2.68296 0.556401 3.27951)
(2.73179 -0.486911 3.292)
(2.86029 0.372967 3.62587)
(2.79028 -1.02071 3.33375)
(2.98773 -0.299637 3.65296)
(2.95549 0.462753 3.8466)
(3.38943 -1.27745 3.02208)
(3.61997 -0.98057 3.23077)
(3.37245 0.344899 3.66671)
(3.1476 0.767187 3.8285)
(3.56655 -1.652 2.94831)
(3.74647 -1.43808 3.04686)
(4.24853 -0.123626 3.41672)
(3.60707 0.718404 3.93944)
(3.70584 0.851272 3.88143)
(3.47083 -2.11345 2.17656)
(3.44751 -2.92582 1.68525)
(4.08568 -2.1872 2.44326)
(4.1001 0.502622 3.60114)
(3.87759 1.06938 3.93592)
(2.62851 -2.68638 0.790953)
(2.97467 -2.58488 1.52714)
(3.6667 -1.97017 1.40681)
(3.66829 -0.335031 1.8233)
(3.87956 0.240327 2.19439)
(3.22582 1.86667 3.17691)
(2.11066 -3.33063 0.420859)
(2.36443 -3.44539 1.26172)
(2.3903 -2.72302 0.528245)
(2.65189 -1.75131 0.607615)
(2.45957 -0.435137 1.23635)
(2.60029 0.605826 1.68008)
(2.65607 1.59173 2.09749)
(2.0466 -3.73621 0.306122)
(2.01124 -3.54548 0.308306)
(1.60663 -2.7235 0.0435462)
(1.4205 -1.91556 0.421733)
(0.980673 -1.30432 0.684801)
(0.996608 0.480489 0.841014)
(1.25988 1.12144 1.26303)
(1.3902 1.9385 1.65975)
(2.51925 -3.43103 0.332696)
(1.69575 -2.93512 0.182884)
(1.12133 -2.32775 0.431984)
(0.455938 -2.22309 -0.372237)
(0.181057 -1.14388 0.52443)
(-0.302153 -0.576568 0.721862)
(0.386516 0.90891 0.160035)
(1.54226 1.07013 -0.213919)
(1.68314 1.50956 0.683635)
(1.45424 -3.23769 -0.648075)
(0.792288 -2.24535 -0.34697)
(0.34755 -1.92529 -0.21038)
(0.376469 -1.81759 -0.613928)
(-0.286535 -1.36252 -1.39963)
(-0.880714 0.218573 0.163111)
(-0.847124 0.485331 0.414702)
(-0.795388 1.1579 0.742643)
(0.0070904 1.2372 0.317966)
(0.282804 1.40158 0.738568)
(1.37628 -1.89849 -1.54892)
(0.117297 -2.12154 -0.582275)
(-0.337572 -1.64373 -0.312347)
(-0.398232 -1.3924 -1.16239)
(-0.466002 -1.40288 -1.60633)
(-0.752373 -0.547402 -1.34895)
(-0.825233 0.19806 -0.60613)
(-0.521589 0.719306 -0.245782)
(-0.283536 0.888749 0.0393908)
(0.348668 1.21216 0.187584)
(0.938078 1.31304 0.317437)
(0.0571394 -1.88457 -0.911216)
(-0.728648 -1.92334 -0.351554)
(-0.577799 -1.36129 -0.322908)
(-0.79476 -0.94254 -0.74949)
(-0.685342 -0.63725 -1.33893)
(-0.352739 -0.435976 -1.91336)
(-0.129253 -0.169308 -1.87863)
(-0.191979 0.27652 -1.35003)
(-0.0745517 0.608242 -0.806205)
(0.339742 0.796214 -0.788747)
(0.817604 0.876938 -0.375145)
(0.842469 1.14026 -0.330742)
(-0.0647049 -1.55505 -0.726294)
(-0.303078 -1.04374 -1.29536)
(-1.02016 -0.98777 -0.620781)
(-1.31543 -0.831801 -0.555864)
(-1.31599 -0.732664 -0.612649)
(-1.01494 -0.210179 -0.688914)
(-0.619981 0.111609 -1.06976)
(-0.438746 0.105736 -1.23905)
(-0.182672 0.170922 -1.08932)
(-0.0233132 0.421354 -1.20188)
(0.35222 0.860858 -0.8246)
(0.457848 1.16139 -0.639001)
(0.438274 1.10483 -0.672907)
(-0.36594 -1.17126 -0.886253)
(-0.701561 -0.64115 -0.763212)
(-1.16084 -0.18701 -0.562831)
(-1.47951 -0.496163 -0.468191)
(-1.47965 -0.481657 -0.679432)
(-1.49353 -0.377929 -0.421058)
(-1.15421 0.294323 -0.385616)
(-1.19218 -0.0416168 -0.300965)
(-1.08463 -0.0950793 -0.212959)
(-0.556065 0.604942 -0.835486)
(-0.0398036 0.981899 -0.910495)
(0.0547437 1.29384 -0.618856)
(-0.496451 1.35945 -0.673733)
(-0.929463 1.57757 -0.397184)
(2.33278 0.519501 2.91868)
(2.58113 0.245376 2.99896)
(2.54334 0.49158 3.05187)
(2.54761 0.184418 3.28805)
(2.63955 0.429247 3.3249)
(2.73397 0.400111 3.2798)
(2.58365 -0.478847 3.32759)
(2.84094 0.195712 3.63322)
(2.80579 0.374069 3.66813)
(2.73305 -1.32865 3.26968)
(2.93489 -0.49572 3.54371)
(2.9292 0.265141 3.909)
(2.93555 0.57884 3.77696)
(3.43628 -1.23824 2.88574)
(3.53327 -0.79261 3.26108)
(3.48752 0.0839926 3.60118)
(3.18661 0.639701 3.80174)
(3.1223 1.1455 3.59078)
(3.02035 -2.50367 2.82582)
(3.36518 -1.82129 2.90556)
(4.02697 -0.803241 3.38802)
(3.91687 0.073818 4.03155)
(3.62028 1.016 3.97786)
(2.91935 1.3656 4.09047)
(2.8021 -1.77151 2.25551)
(3.61422 -0.501143 3.24231)
(3.89516 -1.73944 2.22779)
(4.13793 -1.13622 2.96695)
(4.12961 0.300284 3.61834)
(3.43472 1.84353 4.25176)
(2.39248 -2.46005 0.953908)
(2.82299 -2.9062 1.58844)
(3.15682 -2.25766 1.48861)
(3.70723 -1.46036 1.29779)
(3.65606 0.0679244 2.04883)
(3.36839 1.41563 2.80465)
(3.18853 2.07364 3.35076)
(1.79045 -3.17916 -0.233366)
(1.90363 -3.77141 1.01373)
(1.87129 -3.38987 0.690437)
(2.42212 -2.38643 0.603268)
(2.31767 -0.77968 1.16765)
(2.40002 -0.0566592 1.48128)
(2.48887 1.38215 1.88866)
(2.3872 1.99292 2.47154)
(2.18073 -3.50264 0.389186)
(1.66386 -3.89901 0.276052)
(1.65884 -3.03594 0.361972)
(1.3839 -2.32216 0.3651)
(0.961164 -1.52165 0.49878)
(1.03798 0.0922414 0.648474)
(1.29229 0.764766 0.854525)
(1.28814 1.91758 1.64198)
(1.41359 2.56366 1.87901)
(2.71856 -3.11343 0.547661)
(1.63292 -3.19683 0.13007)
(0.965893 -2.48654 0.640756)
(0.409883 -2.44728 -0.972599)
(0.229083 -1.50658 -0.0653718)
(-0.0699504 -0.685425 0.356457)
(0.0120058 0.295992 0.423101)
(1.27758 0.930881 0.284505)
(1.66842 1.42929 0.528507)
(1.95597 1.52983 1.02337)
(1.32243 -3.10667 -0.0254841)
(1.07336 -2.07787 -0.790846)
(0.270725 -2.16423 -0.242601)
(0.440767 -1.7441 -0.293377)
(-0.216605 -1.7292 -1.32771)
(-0.725557 -0.178461 0.0924404)
(-0.931485 0.0944822 0.250367)
(-0.753056 0.846799 0.643253)
(-0.0713435 1.17991 0.309568)
(0.335033 1.30152 0.57291)
(1.23594 1.4343 0.500428)
(1.26882 -1.89584 -1.55964)
(0.183996 -2.10075 -1.14226)
(-0.430259 -1.74573 -0.264578)
(-0.431439 -1.42601 -1.08453)
(-0.437469 -1.53259 -1.58153)
(-0.672245 -0.64937 -1.58984)
(-0.752557 0.0449167 -0.791831)
(-0.552735 0.567383 -0.351728)
(-0.377772 0.78795 -0.111622)
(0.0574318 1.21975 0.172015)
(0.813194 1.32384 0.209823)
(0.641072 1.3853 0.983675)
(0.0658786 -1.88608 -0.922316)
(-0.490927 -1.85584 -0.364571)
(-0.544267 -1.39949 -0.407109)
(-0.849163 -0.990232 -0.588425)
(-0.755869 -0.726901 -1.20062)
(-0.344245 -0.439456 -1.8599)
(-0.169484 -0.345739 -1.93066)
(-0.199572 0.144713 -1.47045)
(-0.111617 0.527025 -0.895083)
(0.320447 0.73378 -0.831401)
(0.784217 0.831845 -0.469324)
(0.830985 1.1238 -0.446848)
(0.992142 1.00924 -0.464473)
(-0.0936971 -1.56088 -0.538074)
(-0.280859 -1.12415 -1.45111)
(-0.967233 -1.03022 -0.593341)
(-1.32517 -0.836183 -0.577452)
(-1.36803 -0.827922 -0.559508)
(-1.08689 -0.278439 -0.628966)
(-0.644584 0.061397 -1.0221)
(-0.525548 0.0797295 -1.21446)
(-0.229064 0.133059 -1.07587)
(-0.037137 0.436491 -1.17618)
(0.380572 0.86826 -0.845052)
(0.482457 1.1414 -0.647216)
(0.460243 1.10522 -0.662632)
(-0.208836 1.29322 0.141116)
(-0.406694 -1.19057 -0.865244)
(-0.669322 -0.610026 -0.887837)
(-1.16076 -0.185817 -0.550998)
(-1.50021 -0.50532 -0.446176)
(-1.47547 -0.491133 -0.681954)
(-1.50206 -0.399187 -0.405709)
(-1.15155 0.304065 -0.364582)
(-1.20344 -0.0464037 -0.288883)
(-1.08385 -0.0719061 -0.172615)
(-0.528906 0.628056 -0.872946)
(-0.0309084 0.99214 -0.90867)
(0.0396765 1.30955 -0.625398)
(-0.493357 1.36129 -0.676597)
(-0.935972 1.57605 -0.381086)
(-0.915508 1.67427 -0.7252)
(2.27508 0.431919 2.69913)
(2.31962 0.320938 2.99244)
(2.30747 0.537371 2.93153)
(2.5884 -0.0187219 3.03271)
(2.59356 0.404107 3.0302)
(2.71384 0.317916 3.01502)
(2.46867 0.0093857 3.30746)
(2.68434 0.157088 3.35366)
(2.7081 0.273225 3.28193)
(2.71564 0.337942 3.23267)
(2.40145 -0.641424 3.36695)
(2.73133 -0.198133 3.63973)
(2.85514 0.389412 3.67816)
(2.7793 0.439149 3.57153)
(2.51696 -1.33269 3.26867)
(2.88388 -0.739958 3.49771)
(2.95863 0.0863358 3.83116)
(2.93254 0.470444 3.85594)
(2.67665 0.554204 3.75566)
(3.12854 -1.33003 2.89988)
(3.52727 -1.0897 3.16527)
(3.54827 -0.352368 3.49531)
(3.28399 0.409225 3.77151)
(3.18915 0.819936 3.80736)
(2.96577 1.24436 3.53688)
(3.13775 -1.77804 2.78479)
(3.47384 -1.62396 3.2301)
(3.66483 -1.15516 3.32722)
(3.8471 0.191874 4.00193)
(3.78058 0.0598234 4.10951)
(3.60096 0.913019 4.08179)
(3.02865 1.07078 3.75122)
(2.34625 -2.23331 1.92463)
(2.42979 -4.2273 0.48582)
(3.61329 -1.55136 2.56863)
(3.83974 -1.16827 2.56843)
(4.13371 0.0270139 3.16588)
(3.74283 1.11706 3.96665)
(3.52422 1.60424 4.00371)
(2.91584 -0.882744 1.84394)
(2.70547 -3.1233 1.07585)
(2.64066 -3.47652 0.774298)
(3.25888 -1.53064 1.55896)
(3.68238 -1.48455 1.30309)
(3.40794 0.894604 2.34998)
(3.12337 1.78679 3.25784)
(2.91675 2.16145 3.35991)
(1.63435 -2.46044 1.15087)
(2.64815 -3.2394 1.22362)
(1.81478 -3.58741 0.755818)
(2.09762 -2.60321 0.948351)
(2.25274 -1.85273 0.83302)
(2.13555 -0.543181 1.29443)
(2.54957 0.869302 1.31366)
(2.37758 2.02668 2.5243)
(3.10324 1.7152 2.15535)
(2.26104 -2.82677 0.905882)
(2.05762 -3.66875 0.834759)
(1.75831 -3.25324 0.528041)
(1.14408 -2.66839 0.54943)
(1.01641 -2.15276 0.130544)
(0.766736 -0.313737 0.940818)
(1.21798 0.32912 0.524059)
(1.57177 1.79907 0.932314)
(1.37522 2.41625 1.75506)
(1.80571 2.16372 2.23985)
(2.7363 -2.78813 0.997829)
(1.85287 -3.30206 0.801183)
(0.978011 -2.51672 1.02044)
(0.199901 -2.48139 -1.29632)
(0.176055 -2.02767 -0.528354)
(-0.440979 -1.06279 0.382769)
(0.0724033 0.180325 0.205857)
(1.00434 0.419229 0.24296)
(1.55936 1.10464 0.324504)
(1.95818 1.54843 1.02889)
(1.48944 1.76789 1.5719)
(1.45287 -2.92619 0.115259)
(1.1773 -2.08271 -0.646192)
(0.122718 -2.38922 -0.0933498)
(0.391636 -1.80187 -0.188867)
(-0.184784 -1.84065 -1.22334)
(-0.66018 -0.568968 -0.0654633)
(-0.906828 0.0481593 0.395395)
(-0.728392 0.623264 0.602979)
(-0.329486 1.09363 0.373889)
(0.28034 1.22997 0.531097)
(0.737525 1.77954 0.119678)
(1.53509 1.06078 0.888925)
(1.13835 -1.90988 -1.28933)
(-0.0266097 -2.18808 -1.1212)
(-0.460463 -1.93621 -0.195449)
(-0.695836 -1.32377 -1.31416)
(-0.381991 -1.40983 -1.68303)
(-0.604051 -0.657932 -1.86514)
(-0.695112 -0.0120621 -0.983876)
(-0.564766 0.408676 -0.484615)
(-0.376558 0.748541 -0.261672)
(0.275641 0.970846 -0.378489)
(0.803602 1.13483 0.25865)
(0.723505 1.44429 0.491409)
(0.629972 1.26474 0.0456087)
(0.00647065 -1.76969 -1.09059)
(-0.352432 -1.70718 -0.732826)
(-0.461805 -1.2848 -0.875572)
(-0.893959 -0.998336 -0.555556)
(-0.904018 -0.869567 -0.958319)
(-0.404652 -0.473386 -1.77271)
(-0.184547 -0.460948 -1.91833)
(-0.201932 0.0244003 -1.51614)
(-0.106965 0.510889 -0.934268)
(0.247528 0.775664 -0.717006)
(0.749077 0.828092 -0.580559)
(0.806014 1.06104 -0.600502)
(1.02015 1.00273 -0.353392)
(0.99131 0.863523 0.0855626)
(-0.0999551 -1.53002 -0.404357)
(-0.394569 -1.26427 -1.3617)
(-0.907074 -1.01257 -0.628972)
(-1.33735 -0.883362 -0.601209)
(-1.41894 -0.894137 -0.566142)
(-1.1659 -0.356316 -0.550386)
(-0.664018 0.0179031 -0.971512)
(-0.556626 -0.00772145 -1.20409)
(-0.288307 0.0774383 -1.06013)
(-0.0463247 0.456142 -1.14464)
(0.369886 0.863123 -0.876016)
(0.500077 1.12273 -0.700127)
(0.511139 1.083 -0.707098)
(-0.227228 1.32981 0.143804)
(-0.561274 1.47787 -0.117839)
(-0.42218 -1.207 -0.843413)
(-0.656002 -0.611643 -1.0435)
(-1.16024 -0.195021 -0.573744)
(-1.52294 -0.530892 -0.44029)
(-1.46652 -0.519153 -0.679574)
(-1.50828 -0.424509 -0.398194)
(-1.17352 0.246287 -0.29313)
(-1.2126 -0.0405051 -0.293457)
(-1.04477 -0.0606907 -0.21098)
(-0.569275 0.656259 -0.873056)
(-0.0348361 1.00285 -0.906891)
(0.048386 1.30024 -0.671924)
(-0.48836 1.3618 -0.697522)
(-0.920644 1.57655 -0.369072)
(-0.937521 1.66799 -0.71704)
(-0.56024 1.3497 -0.706954)
(2.14872 0.543931 2.50386)
(2.23432 0.304356 2.75983)
(2.1505 0.454562 2.7617)
(2.27762 0.180835 3.06495)
(2.32077 0.460963 2.94894)
(2.3857 0.459667 2.87459)
(2.57422 -0.1446 3.05168)
(2.6125 0.264046 3.00029)
(2.61102 0.382957 3.12911)
(2.66697 0.234889 3.0655)
(2.42494 -0.53222 3.28668)
(2.58095 0.0462689 3.39114)
(2.70041 0.175839 3.34174)
(2.77699 0.304736 3.20604)
(2.54505 0.364089 3.16641)
(2.30275 -0.785216 3.31176)
(2.60866 -0.34935 3.63925)
(2.8473 0.192317 3.69241)
(2.87409 0.350665 3.59656)
(2.67803 0.480536 3.48475)
(2.50514 -1.16336 3.26934)
(2.89177 -0.874492 3.37088)
(2.9788 -0.230292 3.73441)
(3.01151 0.20419 3.83623)
(2.93827 0.533865 3.64048)
(2.80416 0.754923 3.46829)
(2.89803 -1.48794 2.87094)
(3.29396 -1.35198 3.16619)
(3.47876 -0.734868 3.45344)
(3.31498 0.0369396 3.92521)
(3.14791 0.570415 3.86423)
(3.22799 0.872717 3.70196)
(2.91326 1.02282 3.43297)
(3.00463 -1.84736 2.86633)
(3.08994 -2.46378 2.35836)
(3.60471 -1.29458 3.37933)
(3.68065 -0.541193 3.80417)
(4.03774 0.158567 4.01506)
(3.44079 0.806115 4.34689)
(3.19927 1.33487 3.88157)
(2.90057 1.10916 3.66896)
(2.29317 -2.26784 2.02225)
(2.42503 -2.50399 1.72218)
(3.13057 -3.14175 1.4445)
(3.62855 -1.60301 2.38903)
(3.9613 -0.960774 2.6422)
(3.93379 0.439341 3.51273)
(3.33548 1.73587 4.13871)
(3.3813 1.4704 3.684)
(1.82067 -2.34975 0.765719)
(2.25248 -3.12724 0.648869)
(2.78203 -3.21946 1.33316)
(2.97562 -2.60393 1.22597)
(3.21385 -1.68465 1.38795)
(3.39516 0.0403578 1.88763)
(3.19066 1.27234 2.77272)
(3.06463 2.16176 3.23297)
(3.13419 2.08568 2.94712)
(1.92833 -2.00297 0.709425)
(1.50979 -3.91526 0.314384)
(1.98243 -3.72356 0.579894)
(2.11276 -2.70534 0.795356)
(1.7981 -2.71888 0.64834)
(2.01314 -0.805664 1.28162)
(2.31342 0.23898 1.04664)
(2.08691 1.5921 2.53457)
(2.97703 1.31303 2.33654)
(2.88022 1.83595 2.22086)
(2.61449 -2.13278 0.883506)
(1.74833 -3.91405 0.337259)
(1.72593 -3.45511 -0.062247)
(1.05634 -2.91228 0.496652)
(1.10765 -2.47665 0.100516)
(0.661086 -0.951345 0.99347)
(0.864723 -0.279876 0.645891)
(1.32853 1.56425 0.420633)
(1.65745 2.22244 1.28742)
(1.74563 2.27011 2.09804)
(2.10596 1.77909 2.13248)
(2.47351 -2.73847 0.789806)
(1.82118 -3.51106 0.717645)
(1.04915 -2.60159 0.630995)
(0.270245 -2.35833 -0.523491)
(0.253159 -2.44597 -0.883237)
(-0.131793 -1.26648 0.0929303)
(0.0344472 -0.0865809 0.17441)
(0.45474 0.109754 0.511331)
(1.40622 0.513203 0.0479173)
(1.72645 1.40207 1.17804)
(1.42048 1.73991 1.66588)
(1.89657 1.51776 1.0699)
(1.66167 -2.71729 -0.357946)
(1.17898 -2.1183 -0.378182)
(0.0807279 -2.39291 -0.0076833)
(0.372007 -2.08744 -0.149403)
(-0.14328 -1.81683 -1.17076)
(-0.617785 -1.00402 -0.429682)
(-1.03981 -0.326465 -0.0649184)
(-0.854082 0.349038 0.537903)
(-0.248387 0.937395 0.309858)
(0.189985 1.15558 0.791356)
(1.14514 1.04226 0.431855)
(1.55682 0.917937 0.905578)
(1.40457 0.845144 1.07464)
(1.1743 -1.83413 -1.2143)
(-0.0635073 -2.11322 -1.11416)
(-0.440608 -2.00559 -0.365182)
(-0.582371 -1.45168 -0.512366)
(-0.438663 -1.35397 -1.58252)
(-0.521747 -1.02451 -1.89721)
(-0.57467 -0.255829 -1.0595)
(-0.496802 0.345105 -0.545989)
(-0.429992 0.851459 -0.0771201)
(0.0710894 0.984363 -0.411103)
(0.78889 1.13886 0.171541)
(0.691956 1.22101 0.454377)
(0.656524 1.34428 0.0563476)
(1.1506 0.803799 0.618096)
(-0.0367382 -1.74421 -0.97963)
(-0.177467 -1.61578 -1.03165)
(-0.410989 -1.28626 -1.12076)
(-0.941784 -1.04187 -0.51031)
(-1.02935 -0.956314 -0.809729)
(-0.462431 -0.517875 -1.65545)
(-0.223309 -0.617805 -1.91911)
(-0.184765 7.22747e-05 -1.49065)
(-0.115204 0.512678 -0.931024)
(0.239037 0.669982 -0.80019)
(0.750721 0.84813 -0.585832)
(0.767084 1.10517 -0.502463)
(1.02545 0.925979 -0.444535)
(1.12009 0.871285 0.13144)
(0.159197 1.20419 0.203459)
(-0.117686 -1.49376 -0.29985)
(-0.510179 -1.3203 -1.28284)
(-0.816687 -0.972534 -0.864513)
(-1.39604 -0.913018 -0.571661)
(-1.45821 -0.971231 -0.581522)
(-1.24912 -0.418739 -0.479116)
(-0.699911 -0.0312946 -0.896019)
(-0.577931 -0.0434562 -1.20296)
(-0.329559 0.0549504 -1.0511)
(-0.0373827 0.481682 -1.11331)
(0.401012 0.850899 -0.833919)
(0.489629 1.10812 -0.788564)
(0.532375 1.07189 -0.717782)
(-0.164834 1.33203 0.155876)
(-0.539475 1.45784 -0.0694436)
(-0.42231 1.25556 -0.0803606)
(-0.474144 -1.22785 -0.769401)
(-0.673608 -0.651503 -1.20793)
(-1.15654 -0.216204 -0.584957)
(-1.52016 -0.54554 -0.431119)
(-1.48076 -0.552504 -0.666357)