/*--------------------------------*- C++ -*----------------------------------*\
  =========                 |
  \\      /  F ield         | OpenFOAM: The Open Source CFD Toolbox
   \\    /   O peration     | Website:  https://openfoam.org
    \\  /    A nd           | Version:  7
     \\/     M anipulation  |
\*---------------------------------------------------------------------------*/
FoamFile
{
    version     2.0;
    format      ascii;
    class       volScalarField;
    location    "3.5";
    object      nut;
}
// * * * * * * * * * * * * * * * * * * * * * * * * * * * * * * * * * * * * * //

dimensions      [0 2 -1 0 0 0 0];

internalField   nonuniform List<scalar> 
18720
(
0.000172295
0.000689122
0.000179819
0.000171852
0.000204379
0.000678521
0.000662142
0.0006057
0.000660669
0.000200199
0.000203251
0.000169967
0.000488704
0.000932902
0.000772381
0.000956609
0.000688519
0.000596312
0.000506953
0.000939197
0.000728134
0.000329697
0.000401473
0.00020303
0.000481774
0.000770942
0.00108
0.000697937
0.0010516
0.00111709
0.000367288
0.00121114
0.000829882
0.000307039
0.000651617
0.000461669
0.000691485
0.000471017
0.000747831
0.000723174
0.000344239
0.000258257
0.000392672
0.000590707
0.000258356
0.00122999
0.000730656
0.00136767
0.00100982
0.00113091
0.00083103
0.00107991
0.000574507
0.000270964
0.00136006
0.000679703
0.000493878
0.000327487
0.000483839
0.000398768
0.000594408
0.000525063
0.000695372
0.00027
0.000465573
0.000351227
0.000283522
0.000301401
0.00068081
0.000504271
8.02115e-05
0.00115662
0.00115449
0.00110595
0.000892689
0.000713488
0.00108989
0.00121376
0.000523962
0.000398185
0.00135313
0.000894217
0.000561936
0.00100707
0.000609182
0.000878218
0.000969689
0.000534351
0.000585573
0.000921373
0.000466129
0.000256128
0.00105162
0.000333575
0.000750411
0.000433625
0.000282199
9.80682e-05
0.000363393
0.000277785
0.000174549
0.000826103
0.000526772
8.97565e-05
0.00029038
0.000952991
0.0011403
0.00121333
0.000757422
0.000562343
0.000649489
0.00134191
0.000473038
0.000535898
0.00111182
0.00125842
0.00120981
0.00129413
0.000343829
0.00188375
0.000574138
0.000830439
0.000749312
0.00072446
0.000574149
0.000464195
0.00125379
0.000731348
0.000408678
0.000617314
0.000476434
0.000411415
0.000274584
0.000456131
0.000472847
0.000383272
0.00049866
0.000259073
0.000612028
0.000419583
0.000202061
0.000326259
0.000380394
0.000795984
0.000442254
0.00022168
0.00031193
0.000547508
0.000506986
0.000949261
0.000993061
0.00137
0.000876884
0.00125509
0.00104391
0.000789461
0.000736762
0.000622601
0.00123865
0.000965688
0.000541435
0.00110888
0.000623828
0.0010311
0.000691376
0.00109961
0.000731236
0.000475504
0.000756554
0.000993812
0.000712491
0.000393086
0.000744688
0.000212789
0.00035308
0.000294727
0.00096411
0.000672292
0.000359303
0.000764183
0.000453909
0.000170507
0.000679691
0.000417749
0.000375871
0.000467586
0.000366648
0.000518619
0.000325882
0.00056833
0.00102049
0.000213978
0.000379357
0.000261639
0.000412539
0.000617528
0.000306706
0.00020901
0.000370515
0.000744462
0.000267705
0.000629179
0.000635247
0.00040132
0.00124402
0.00109771
0.00121718
0.00145422
0.000527922
0.00086025
0.00120399
0.000821924
0.00095668
0.000922609
0.000781814
0.000707762
0.000634167
0.000830836
0.000521235
0.000576815
0.000588136
0.000775476
0.000871529
0.000997854
0.0020906
0.000423226
0.000564665
0.000522505
0.000674534
0.00172636
0.000626202
0.000795179
0.00142869
0.000489684
0.000321686
0.000130452
0.000391696
0.000731246
0.000790193
0.000673807
0.000271562
0.000425667
0.000416835
0.000390351
0.000401991
0.000332471
0.00057724
0.000418919
0.000276645
0.000511739
0.000256293
0.000574202
0.00104125
0.000292985
0.000109322
0.000188091
0.000185876
0.000214606
0.000343157
0.000172534
0.000195294
0.000306129
0.000716499
0.000287369
0.000170854
0.000513341
0.000263525
0.000566316
0.000528076
0.00107363
0.000894454
0.000903945
0.00101367
0.000915074
0.00119905
0.000907445
0.000933572
0.000770038
0.00121882
0.00102853
0.000797848
0.000808017
0.000930439
0.000946307
0.000449193
0.000928921
0.000515886
0.000915982
0.00129173
0.000600806
0.000626448
0.000468301
0.000662191
0.000884888
0.00114163
0.000657716
0.000889694
0.000591198
0.000365665
0.000785626
0.000856475
0.00153583
0.00055487
0.000637399
0.00174936
0.000499512
0.000359139
0.000654345
0.00028534
0.000476158
0.00100226
0.000800975
0.000650132
0.000616027
0.000541622
0.000306407
0.000454818
0.000731434
0.000429756
0.000246129
0.000386251
0.00037232
0.00035196
0.000350921
0.000291184
0.000474623
0.000395851
0.000701295
0.000201787
0.000152783
0.000391669
0.000110783
0.000161491
0.000217727
0.00015298
0.00016107
0.000310675
0.000489568
0.000392336
0.000203437
9.32826e-05
0.000757384
0.000303737
0.000692961
0.00048077
0.000735461
0.0011013
0.000377304
0.000916395
0.000859229
0.00120382
0.000628405
0.0012015
0.000753746
0.00116775
0.00123128
0.00116841
0.0010791
0.000851273
0.000936318
0.000862149
0.0011623
0.00115014
0.000723366
0.000839254
0.000735898
0.00162425
0.000425175
0.00118743
0.000924631
0.000962406
0.000562577
0.000923711
0.000898005
0.000592515
0.000412752
0.00065925
0.000621466
0.000963706
0.000556987
0.000760434
0.000987478
0.000888663
0.000667269
0.000691341
0.000893711
0.000706383
0.000316882
0.000469021
0.00111686
0.000909692
0.000200246
0.000445961
0.000586327
0.00057488
0.000665104
0.000950188
0.000894469
0.000703078
0.000524163
0.000448857
0.000296314
0.00100554
0.00063145
0.000481171
0.000301777
0.000399681
0.000306487
0.000471398
0.000406112
0.000378247
0.000334327
0.000475756
0.00083364
0.00041224
0.000194219
0.000201658
0.000172643
0.000224198
0.000409226
0.00022273
0.000258391
0.000227709
0.000336012
0.000569024
0.000230709
0.000420953
0.000205576
0.000113226
0.000288193
0.00076742
0.000658899
0.000738908
0.000380342
0.000415347
0.000755199
0.000542199
0.000573119
0.000673973
0.000734777
0.000496452
0.000518648
0.000918232
0.000647139
0.000967706
0.000826149
0.000992488
0.000869525
0.00101925
0.00171782
0.00123174
0.00116209
0.00116399
0.000540326
0.00115793
0.000903609
0.000775477
0.000598927
0.00169995
0.00095061
0.000896024
0.00129451
0.000731493
0.000839036
0.000531635
0.00119121
0.000802655
0.00113087
0.00068419
0.00125253
0.000605492
0.000771534
0.000441176
0.000631876
0.000949834
0.000779065
0.00069924
0.000617165
0.000398138
0.000319889
0.000633953
0.00149586
0.000769158
0.000595614
0.000706562
0.00039967
0.000388999
0.000359257
0.000569096
0.00127517
0.000308996
0.000177598
0.000597817
0.000305011
0.000398352
0.000966792
0.000644669
0.000891341
0.000710314
0.000658404
0.000705482
0.000238134
0.00112276
0.000184508
0.00048882
0.000358849
0.000196369
0.000537443
0.000362423
0.000406673
0.000259697
0.000420186
0.000238056
0.000475699
0.000594426
0.00103294
0.000186774
0.000166336
0.000189793
0.000214904
0.000135019
0.000474837
0.000236975
0.000159157
0.000310771
0.000284012
0.000225477
0.000526631
0.000418665
0.000197368
0.000159869
7.58919e-05
0.000113588
0.000634678
0.000833118
0.000690343
0.00035751
0.000561061
0.000564605
0.000505137
0.000591452
0.000731091
0.000730804
0.000557942
0.000604179
0.000437189
0.00071927
0.000596599
0.000580712
0.000628196
0.000513064
0.00210335
0.00131681
0.00119496
0.000847731
0.000953681
0.00102686
0.00109844
0.000424301
0.0010673
0.000650216
0.0016169
0.00130536
0.00085406
0.0010688
0.0014729
0.00122486
0.000748066
0.0008594
0.00144255
0.00123664
0.000767864
0.000918231
0.000463544
0.00060296
0.00115658
0.00124701
0.00114147
0.000895493
0.000990617
0.000658868
0.000633285
0.000633628
0.000857057
0.000425582
0.000608626
0.000680469
0.000963245
0.000949805
0.000714179
0.000632985
0.000865209
0.000530552
0.000437746
0.00107453
0.001173
0.000755249
0.000282488
0.000984417
0.000835107
0.000648279
0.000587381
0.000518087
0.00125903
0.000590901
0.000388544
0.000366777
0.000332116
0.00046975
0.000489774
0.00091722
0.000906845
0.000905522
0.000680395
0.000548779
0.000591993
0.000630638
0.000427722
0.000317112
0.000293651
0.00051026
0.000435528
0.000228819
0.00045988
0.000446845
0.000443482
0.000300599
0.000437977
0.000292585
0.000383723
0.000471916
0.0011073
0.000239007
0.000192861
0.000191897
0.00017603
3.77485e-05
0.000157963
0.000135958
0.000308937
0.000187767
0.000213662
0.000236802
0.000218455
0.000487061
0.000420749
0.000295712
0.000149891
4.29185e-05
0.000210432
0.000284608
0.000640811
0.000684546
0.000590142
0.000655881
0.000597471
0.000594087
0.000564178
0.000892503
0.000889276
0.000898853
0.000414728
0.000696273
0.000548618
0.000529661
0.000669832
0.00047336
0.000530119
0.000500161
0.00101443
0.00167355
0.000968684
0.00102949
0.000938211
0.000949505
0.0017221
0.000955129
0.00119124
0.00120217
0.000945305
0.00107329
0.000806668
0.000868804
0.00100968
0.00090815
0.000876515
0.00123765
0.00142951
0.000699794
0.000928716
0.000383091
0.00130236
0.000831899
0.000698051
0.000869768
0.00131251
0.000891237
0.00165893
0.000680647
0.00114522
0.000951153
0.000618349
0.000891787
0.000614998
0.00132436
0.00120476
0.00100591
0.000863905
0.00104687
0.0010384
0.000381591
0.000571072
0.000689146
0.00129847
0.00045054
0.000725816
0.000860433
0.000685095
0.00127383
0.000657174
0.000398313
0.000721964
0.00052906
0.000308204
0.00104266
0.000433083
0.000658666
0.000326318
0.00119858
0.00117614
0.00144468
0.000827066
0.000328197
0.0012254
0.000499507
7.44583e-05
0.000249061
0.000406488
0.000672549
0.000585782
0.000475219
0.0010967
0.000979622
0.000852299
0.000538665
0.000509627
0.000625177
0.00035179
0.000470528
0.000693417
0.000429632
0.000536862
0.000397813
0.000406492
0.000227631
0.000407538
0.000451969
0.000561613
0.000228199
0.000433236
0.000276075
0.000305567
0.000500166
0.000830442
0.000304917
0.000223268
0.000219751
0.00020334
0.000344985
7.72359e-05
0.000249207
0.000177185
0.000321603
0.000163179
7.78548e-05
0.000158586
0.000341333
0.000477432
0.000202197
0.000363521
0.000149718
0.000196369
0.000125746
0.00019621
0.000265077
0.000707403
0.000539232
0.000285195
0.000463674
0.000729385
0.000451752
0.000502778
0.00121079
0.000982833
0.000346157
0.000422183
0.000603482
0.000830379
0.00106427
0.000736243
0.00060276
0.000613774
0.000474616
0.00181563
0.0013102
0.000631485
0.000785997
0.000552503
0.000659908
0.000933908
0.00162761
0.00110141
0.000668796
0.00122497
0.000609276
0.000672141
0.00138921
0.00135766
0.000484695
0.000972361
0.000816999
0.00107925
0.000823406
0.000836283
0.000983777
0.00123082
0.00129793
0.00132755
0.000746369
0.000846394
0.000901046
0.00125268
0.000919854
0.000833055
0.00150844
0.000567343
0.000927199
0.000844787
0.000273418
0.00102235
0.00106884
0.00144437
0.00181968
0.00111748
0.00103596
0.000709165
0.000550848
0.00134329
0.00071308
0.000774349
0.000835882
0.000892348
0.00117171
0.00116683
0.000955921
0.000754221
0.000439285
0.000475802
0.000535491
0.000609446
0.00052426
0.000589481
0.000781493
0.000891155
0.00101667
0.000890684
0.000992358
0.00045821
0.000237923
0.000383607
0.000531647
0.000589267
0.000694739
0.00058671
0.00088239
0.00105109
0.000896121
0.00138619
0.00102757
0.000445088
0.00117343
0.000767712
0.000303815
0.000728496
0.00044736
0.000503244
0.000723055
0.000699569
0.000292439
0.000981359
0.000685057
0.00106423
0.000533501
0.000599543
0.000845008
0.00073461
0.000892575
0.000581239
0.000465288
0.000353556
0.000287113
0.000454357
0.000536093
0.000722152
0.000447419
0.000453531
0.00112292
0.000174239
0.000516183
0.000381716
0.000426701
0.000363169
0.000556986
0.000403918
0.000141693
0.000151933
0.000187231
0.000446468
0.000339003
0.000280045
0.000225657
0.000507432
0.000174348
0.000111086
0.000198694
0.000145137
0.000373927
0.000336893
0.000171749
0.000333818
0.000112605
0.000131431
9.07998e-05
0.000167269
0.000242239
0.000226886
0.00041093
0.000339409
0.000574921
0.000467666
0.000661471
0.000659319
0.000397112
0.0010356
0.000408602
0.000490173
0.00065456
0.00056691
0.000580771
0.000961819
0.000653182
0.000697673
0.000485031
0.000657292
0.000823337
0.00179694
0.00067439
0.000560712
0.00046554
0.000448089
0.00105644
0.00107903
0.00165001
0.000234959
0.000796317
0.000471047
0.000667955
0.000776732
0.00133542
0.00151119
0.000452285
0.000357897
0.00104942
0.00144233
0.000836274
0.00078933
0.00122544
0.00094926
0.000843062
0.0010704
0.000717928
0.00117355
0.000995493
0.000346478
0.00100584
0.00105939
0.00122846
0.000863023
0.00131391
0.00131141
0.000897294
0.000583019
0.00143603
0.00115116
0.00136999
0.0010232
0.0013624
0.000467044
0.000695681
0.000940823
0.00112911
0.000721038
0.000997593
0.0011901
0.00198401
0.000830943
0.00177685
0.000764775
0.000652614
0.000750903
0.00159971
0.000821648
0.000798246
0.000814469
0.000956806
0.00093754
0.0011565
0.000653528
0.00172075
0.000529206
0.000696194
0.000907807
0.000631014
0.00131989
0.000919858
0.000831672
0.000721505
0.00145637
0.000969301
0.000733027
0.00110903
0.00144637
0.000731654
0.00118557
0.00068598
0.000399228
0.000356308
0.00192075
0.000926678
0.000578307
0.00108613
0.000504915
0.000840311
0.00115034
0.000744108
0.000865947
0.000939098
0.00115387
0.00112198
0.000204883
0.00044406
0.000920813
0.000602917
0.000470164
0.000809994
0.000736229
0.000680338
0.000895701
0.000349964
0.000717796
0.000434005
0.00205015
0.000395886
0.000424542
0.000251786
0.000272847
0.000309792
0.000239853
0.000543672
0.000487798
0.000426991
0.000564144
0.000378578
0.00120675
0.000177606
0.000268304
0.000775621
0.000334664
0.000407635
0.000295774
0.000298382
0.00015602
0.000177995
0.000149958
0.000463675
0.000293166
0.00029295
0.000223879
0.000198778
0.000272007
0.000209142
0.000301343
0.00037451
0.000309067
0.000232193
0.000286468
0.000245171
0.000312595
0.000116151
9.66899e-05
0.000159197
0.000201997
0.000168314
0.000239572
0.000114427
0.000214561
0.000572458
0.000843865
0.000430243
0.000480278
0.000531941
0.000262434
0.000881468
0.000259347
0.000378632
0.000631139
0.000717602
0.000731649
0.000829767
0.000441613
0.000529873
0.000543823
0.000395801
0.00122686
0.00136502
0.000561094
0.000586084
0.000677513
0.000795036
0.000452007
0.00121903
0.00073948
0.000657952
0.000984398
0.000512887
0.000725943
0.00107076
0.00180722
0.000494412
0.00108907
0.000996846
0.000448292
0.000471625
0.000597319
0.000501759
0.00114371
0.00120761
0.000815794
0.00100012
0.000777513
0.000767574
0.000755999
0.000959108
0.000873611
0.00146955
0.00106473
0.000950388
0.000718104
0.000629544
0.000608886
0.00066622
0.000883914
0.000739846
0.000919843
0.00131335
0.000876563
0.00115828
0.00176969
0.000604171
0.000588872
0.000762196
0.00096713
0.00110361
0.000881217
0.00102243
0.00130949
0.000693921
0.000719567
0.00104678
0.00121708
0.000414117
0.000478852
0.000649617
0.00126321
0.000909436
0.00120214
0.000936634
0.000929862
0.000486385
0.000579147
0.000928548
0.000912973
0.000949167
0.000659807
0.000298192
0.000846943
0.000912935
0.000737848
0.00096373
0.000945699
0.000950768
0.000410383
0.000361584
0.000731118
0.000538018
0.00128589
0.000638921
0.000614675
0.000572133
0.000838214
0.00116569
0.000685079
0.000723688
0.00101699
0.00103346
0.000353716
0.000971027
0.000325212
0.000441001
0.000556461
0.00121212
0.00052609
0.00035778
0.000463219
0.000874953
0.000828775
0.00073183
0.000697925
0.00102206
0.000667518
0.000585121
0.000664626
0.000337292
0.000474815
0.000475834
0.000789282
0.000504128
0.000629168
0.000619178
0.000480514
0.000689019
0.000820043
0.000399054
0.000454077
0.000807795
0.000660563
0.000599868
0.00042015
0.000237507
0.000441905
0.000384209
0.000246882
0.000133402
0.000462571
0.000541466
0.000522662
0.000297547
0.000560047
0.000582095
0.00066448
0.000119092
0.000605911
0.000359382
0.000407536
0.000332122
0.00019207
0.00030331
0.000215157
0.000270379
0.000266109
0.000465465
0.000264596
0.000301988
0.000220705
0.000120859
0.000256297
0.000194079
0.000268265
0.000354198
0.000187323
0.000453936
0.000261316
0.000286532
0.000246963
0.000379785
0.000188082
0.000116451
9.12264e-05
0.000199345
0.00012755
0.000245651
0.000170009
0.000113627
0.000443268
0.000356941
0.000424118
0.00076856
0.000773102
4.10888e-05
0.000767943
0.000549882
0.000151397
0.000554467
0.000369858
0.000370971
0.000736821
0.00132427
0.000487829
0.000376671
0.000850473
0.000386483
0.000470009
0.00119034
0.000406602
0.000515068
0.000416234
0.00118874
0.00136995
0.000637204
0.00127658
0.000468146
0.00054044
0.000666691
0.000626115
0.000508705
0.00139246
0.00129232
0.000723778
0.000446842
0.000577776
0.000561222
0.000322493
0.000568728
0.00140502
0.00119225
0.00122691
0.00133586
0.000591554
0.000566477
0.0004745
0.00108142
0.00081352
0.00116721
0.00103584
0.00135742
0.00120765
0.000407965
0.000480269
0.000844092
0.000666682
0.00136255
0.000879279
0.00105756
0.00130948
0.000792539
0.00111928
0.00122124
0.00058924
0.000761242
0.000947261
0.000591967
0.00139869
0.00111685
0.00136131
0.00126002
0.00108725
0.00117175
0.000634978
0.00075737
0.000780207
0.00061478
0.00051271
0.000574906
0.00128807
0.00123638
0.000810862
0.000806742
0.00143122
0.000302356
0.00102854
0.000338039
0.000807313
0.000673705
0.000620905
0.00047067
0.000457848
0.000967358
0.00157808
0.00104989
0.00108823
0.00057781
0.000760998
0.00111731
0.000286124
0.000374503
0.000796002
0.000730132
0.00100674
0.000739117
0.000686814
0.00110742
0.00122237
0.000576142
0.0012594
0.000569158
0.000353845
0.000745955
0.000973515
0.000548368
0.000470288
0.000584789
0.000367812
0.000840525
0.000655365
0.000633307
0.00105723
0.000489111
0.000706549
0.000839038
0.000283788
0.000446652
0.000287783
0.000502889
0.000579761
0.000476784
0.000645772
0.000449141
0.000507552
0.000799451
0.000956029
0.000491528
0.000569169
0.0010651
0.000671513
0.000828801
0.000444151
0.000980297
0.000568301
0.000282567
0.000527607
0.000774735
0.000592406
0.000714401
0.000520759
0.000506897
0.000610781
0.000754583
0.000223647
0.000358903
0.0011699
0.000828445
0.0010197
0.000713184
0.000486307
0.000359917
0.000516293
0.000198892
0.000332857
0.000493912
0.000478071
0.000565258
0.000322186
0.00023312
0.000425484
0.000717131
0.000656889
0.000123669
0.000292352
0.000282583
0.000312941
0.000156469
0.000137355
0.000416133
0.000115323
5.87514e-05
0.000225547
0.000381295
0.000260123
0.000288787
0.000239406
0.000268593
0.000106153
0.000257445
0.000276877
0.000195155
0.0001738
0.000124102
0.000156115
0.000198411
0.000216014
0.000364317
0.000344487
0.000222879
9.48253e-05
6.71263e-05
0.000199134
0.000233393
0.000258976
0.000128621
0.000209186
0.000487932
0.000460382
0.000452007
0.000462389
0.000558603
0.000783289
0.000254489
0.000465909
0.00044987
0.000445736
0.000342301
0.000441627
0.000466587
0.00220315
0.00122039
0.000290616
0.000344661
0.000334991
0.00135024
0.000525287
0.000945575
0.000423769
0.000431298
0.000543833
0.000306717
0.00103143
0.00107469
0.000624674
0.000603752
0.000445372
0.000582652
0.000769657
0.00114578
0.000833217
0.000564201
0.00101976
0.000239061
0.000507363
0.000724216
0.000787394
0.000353624
0.00100288
0.000933838
0.00100539
0.00092719
0.000660055
0.000514289
0.000671601
0.000362459
0.000518061
0.00120665
0.000800879
0.00126948
0.00106251
0.00160092
0.000582345
0.000537626
0.000636633
0.000751803
0.000564557
0.00113621
0.00121767
0.00188863
0.00152676
0.000620743
0.000793832
0.000623303
0.000599119
0.000717776
0.0013146
0.000752666
0.00117302
0.00091352
0.00107399
0.000605245
0.00113375
0.000744654
0.000596688
0.000476319
0.000477141
0.000661679
0.00124739
0.000598271
0.000950471
0.00147302
0.00071405
0.00145018
0.00185392
0.000731012
0.00087459
0.000778589
0.000629515
0.00058158
0.000400586
0.000839283
0.00148023
0.000896035
0.00176926
0.00123322
0.00115318
0.00130554
0.000593777
0.000657827
0.000575264
0.000800518
0.000821255
0.000789937
0.00109389
0.000897119
0.00167798
0.000702879
0.00112067
0.000701578
0.000573011
0.000827595
0.000977066
0.000399139
0.000713545
0.000530301
0.000558321
0.000932553
0.000366479
0.00102831
0.000806168
0.000931803
0.00106684
0.000987547
0.00075167
0.000705081
0.000564936
0.000840353
0.000415573
0.000572242
0.000481834
0.000636898
0.000452867
0.000761013
0.00066678
0.000843091
0.000840691
0.000839435
0.00137983
0.00111805
0.00063864
0.0010265
0.000635791
0.000266526
0.000772287
0.000349737
0.00076918
0.000516068
0.000744224
0.000516114
0.000712347
0.000836407
0.000752047
0.000460361
0.000636698
0.000472598
0.000814083
0.000410926
0.000822944
0.000380403
0.000522451
0.000523263
0.000829063
0.000470389
0.000819332
0.000496191
0.000971079
0.000390195
0.000497105
0.000774499
0.000379515
0.000385291
0.000870221
0.000649378
0.00127765
0.00039258
0.000580879
0.00059568
0.000442982
0.000266167
0.000345909
0.000477128
0.000423471
0.000585241
0.000309554
0.000762233
0.000275647
0.000362341
0.000640907
0.00109092
0.000158644
0.000636962
0.000638284
0.000334901
0.000360263
0.000325785
0.000638006
0.000255785
0.000151485
0.000165095
0.000314972
0.000296311
0.000287495
0.00028487
0.000419013
0.000324086
0.000519645
0.000281953
0.000228402
0.000199343
0.000142575
0.000156275
0.000117451
0.000260806
0.000158559
0.0003737
0.000218582
0.000266532
0.000131499
0.000100111
0.000135245
0.000383233
0.000296641
0.000149932
0.000225983
0.000435328
0.000203149
0.000547102
0.000560694
0.000597781
0.000535588
0.000369905
0.000493349
0.000606618
0.000680384
0.000542629
0.000800232
0.000596441
0.000467219
0.00158312
0.000694573
0.000263248
0.000538353
0.000201757
0.000556891
0.0010948
0.00154762
0.000706409
0.000241932
0.000513198
0.000369471
0.00125927
0.000887399
0.000985622
0.000387843
0.000317835
0.000452101
0.000781086
0.000788917
0.00148187
0.00140643
0.000719764
0.000294408
0.000561319
0.000714495
0.000628353
0.000770284
0.000991071
0.000602501
0.00164262
0.00116655
0.000270208
0.000504397
0.000259237
0.000740714
0.000718792
0.000889436
0.0011304
0.00109318
0.00162795
0.00140452
0.000486466
0.000678049
0.000629012
0.000607277
0.000587533
0.00111427
0.00109584
0.00121884
0.00130894
0.00106473
0.000418906
0.000635715
0.00050808
0.000824866
0.0003874
0.000902915
0.000979679
0.00101747
0.00133395
0.00173073
0.000407569
0.00102258
0.000726671
0.00064553
0.000356923
0.000652551
0.000668982
0.0011051
0.000587915
0.00133059
0.00163746
0.000705157
0.00100751
0.000737332
0.000958895
0.000563662
0.000618879
0.000455241
0.000571976
0.000415646
0.00160968
0.00109705
0.000706712
0.000798672
0.00102005
0.00200168
0.000325671
0.00113662
0.000754395
0.000589407
0.000617805
0.00042165
0.00081599
0.000658002
0.00173076
0.000739282
0.000912214
0.00153932
0.00108685
0.000614434
0.00109961
0.000668249
0.000566313
0.000889866
0.000614763
0.000737747
0.000839056
0.000737847
0.000653012
0.00113109
0.000698913
0.00114264
0.000539202
0.000796549
0.000981805
0.00110445
0.000314064
0.000682633
0.000658732
0.000614239
0.000681429
0.000448733
0.00110644
0.000627241
0.000530153
0.000729753
0.000763747
0.000935889
0.00023715
0.000879873
0.000389187
0.000929579
0.000494078
0.000915819
0.00049218
0.000687597
0.0011169
0.000644926
0.000533949
0.00107726
0.000601055
0.000642396
0.00155689
0.000450156
0.00105268
0.000462458
0.000705453
0.000245082
0.000377333
0.000914004
0.00056312
0.000841142
0.0006289
0.000815431
0.00102258
0.000861131
0.000563385
0.000705219
0.000343223
0.00039281
0.000267064
0.000917995
0.00107159
0.000769245
0.000658968
0.000175816
0.000616575
0.000352136
0.000500971
0.000439339
0.000906326
0.000461292
0.0010832
0.000942052
0.000800017
0.000663783
0.000879034
0.000575434
0.000466001
0.000361797
0.00128546
0.000744191
0.000482795
0.000365244
0.000341001
0.00042119
0.000159667
0.000282087
0.000374747
0.000409262
0.000488118
0.000416687
0.00089507
0.000488021
0.000370509
0.000449931
0.000616164
0.00117514
0.000139209
0.000567717
0.00051341
0.000351051
0.000205205
0.000177146
0.00075415
0.00069486
0.000194782
0.00021576
0.000391585
0.000337523
0.000305931
0.000228041
0.000553563
0.000276049
0.000512253
0.000152764
0.000197891
0.000223773
0.000196964
0.000161471
0.000197079
0.000322282
0.000459076
0.000181408
0.000313368
0.000394465
0.00040941
0.000134502
2.61478e-05
9.66821e-05
0.000430634
0.00035647
0.000110026
0.000201937
0.000238345
0.000298274
0.000158503
0.000656236
0.000671587
0.000647836
0.000712713
0.000691678
0.000580218
0.000533477
0.000453608
0.000416233
0.00054286
0.000339877
0.000880895
0.000388254
0.00100143
0.000795396
0.000578267
0.000467121
0.000469364
0.00103456
0.00123478
0.000344283
0.00034925
0.000388126
0.000394154
0.000784634
0.00148033
0.000824425
0.000589212
0.000596631
0.000434029
0.000813858
0.00112535
0.000321421
0.00179224
0.00145395
0.000594122
0.00053794
0.000427744
0.000500602
0.000416846
0.000808841
0.0012668
0.00100145
0.0010809
0.000643041
0.000452584
0.000288969
0.00091919
0.000553432
0.000740542
0.000617051
0.000830709
0.0017354
0.00117254
0.000778355
0.000461941
0.000714373
0.000677549
0.000466189
0.000577865
0.00178987
0.00130006
0.00141016
0.00131949
0.000967947
0.000426684
0.000554041
0.000518317
0.000516836
0.000383684
0.000649227
0.000802268
0.00113896
0.00178907
0.00210675
0.000799588
0.000867726
0.00074325
0.000913759
0.000791984
0.000468186
0.000988415
0.000621097
0.00138896
0.00115855
0.00190717
0.000810397
0.000679963
0.00101399
0.00102223
0.000565418
0.000437259
0.000285445
0.000412695
0.00118435
0.000932914
0.00104382
0.00153701
0.00148157
0.000945033
0.000827535
0.000921795
0.000727596
0.000690875
0.000579036
0.00059426
0.000520519
0.000450347
0.00139826
0.000845982
0.000931365
0.00144216
0.00106181
0.00145182
0.000518623
0.00109353
0.00020762
0.00081702
0.000821817
0.000790605
0.000647177
0.000493341
0.000776192
0.00147678
0.000774421
0.00074563
0.00130075
0.00118368
0.00159918
0.000991309
0.000708899
0.000813689
0.000778334
0.000852916
0.000691093
0.000598759
0.00103336
0.00028454
0.000794239
0.000576106
0.00114811
0.000891612
0.000753532
0.000542954
0.000611619
0.000941259
0.000510882
0.000574741
0.000582561
0.000727431
0.00107134
0.00076678
0.000609738
0.000802466
0.000465153
0.00123749
0.00123343
0.00126423
0.000921769
0.000645585
0.000873832
0.000375883
0.00064134
0.00121779
0.000520877
0.000680237
0.000710985
0.00144891
0.0017007
0.00115478
0.000484938
0.000900604
0.000804289
0.00123816
0.00103311
0.00074508
0.00111558
0.000710223
0.000854691
0.000291022
0.000319811
0.000912684
0.000934772
0.000865588
0.000637222
0.000825028
0.00114041
0.00099868
0.000852987
0.000609705
0.000634813
0.000565701
0.000679275
0.000287586
0.00113694
0.00101886
0.000391577
0.000922308
0.0011088
0.000545643
0.00017862
0.000637686
0.000543684
0.00080786
0.000517261
0.00102226
0.0012218
0.000506058
0.000542307
0.000594636
0.000630365
0.000509302
0.000442665
0.000246984
0.00129429
0.000804746
0.00098099
0.000373913
0.000472819
0.000601718
0.000346787
0.000216024
0.000407676
0.000530976
0.000477945
0.000454518
0.000930172
0.000476898
0.000630175
0.000505227
0.000470234
0.000593927
0.000415584
0.000208742
0.000331111
0.000383016
0.000403907
0.000172284
0.000179526
0.000442348
0.00104175
0.000148376
0.00021306
0.000414255
0.000438421
0.000298818
0.00031333
0.00062485
0.000277325
0.000468651
0.000238201
0.000162775
0.00028017
0.000191442
0.000287569
0.000192444
0.000274146
7.58673e-05
0.000255947
0.000156486
0.00036206
0.000450078
0.000357162
0.00014336
1.69446e-05
0.000212636
0.000403491
0.000418584
0.000206901
0.000254879
0.000164604
0.000369687
0.000170765
0.000200817
0.00104859
0.000517217
0.000709143
0.000547792
0.000472573
0.000770488
0.000531058
0.000548145
0.000396388
0.000433967
0.000503419
0.000627338
0.000653224
0.00102396
0.000294151
0.000699688
0.000294521
0.000227081
0.00130011
0.00122307
0.000426955
0.00053312
0.000578044
0.000902784
0.000457674
0.00061828
0.000964536
0.00061434
0.000765058
0.000468971
0.00014818
0.000515025
0.00106166
0.000824803
0.00127882
0.000726161
0.000309824
0.000380668
0.000319616
0.00078113
0.000367566
0.00184105
0.000936906
0.00203955
0.000492349
0.000391604
0.000838376
0.000739001
0.000602886
0.000902545
0.000746138
0.000668898
0.00158775
0.00158339
0.000468123
0.000429289
0.000462772
0.00047325
0.000552409
0.00102053
0.000813079
0.00189611
0.0021724
0.00075343
0.00113734
0.000361922
0.000444531
0.000499096
0.000643895
0.000616163
0.000540489
0.00150826
0.00157209
0.00193698
0.00157183
0.00091192
0.000563664
0.000611906
0.000609937
0.00072741
0.000490508
0.0004448
0.00052834
0.00086812
0.000841501
0.00135365
0.00158293
0.000883162
0.000800664
0.000961038
0.000626577
0.000692321
0.000640756
0.000376175
0.000790554
0.000645439
0.000546736
0.00111548
0.00168609
0.00223287
0.000957173
0.000978028
0.00106563
0.00112238
0.000616608
0.000508658
0.000288227
0.000420433
0.00107347
0.000632532
0.000672112
0.00119338
0.00202429
0.00104213
0.000782913
0.00069103
0.00103459
0.00110614
0.00118089
0.00064026
0.000397682
0.000307122
0.000608755
0.000929481
0.00134681
0.000851838
0.000883961
0.00146243
0.00118005
0.000648095
0.000704535
0.000469579
0.00071385
0.000542243
0.000754766
0.000562524
0.000572291
0.000533818
0.000546905
0.000782924
0.00156233
0.000582317
0.00126359
0.00162976
0.000524607
0.000679647
0.000780426
0.000681584
0.000538037
0.00111725
0.00148005
0.0011094
0.000437714
0.000719973
0.00050406
0.00088838
0.00114534
0.00113794
0.00055101
0.000652822
0.000424964
0.00124265
0.00104069
0.0005757
0.000638625
0.000604663
0.00058959
0.00106422
0.00124887
0.00158443
0.000558355
0.000620712
0.000692167
0.00114016
0.00098457
0.0014143
0.000967205
0.000769052
0.000509426
0.000358203
0.000881911
0.00157437
0.00037682
0.000953089
0.000614364
0.00120136
0.00154216
0.00110287
0.00113702
0.00064142
0.000912128
0.000881505
0.000845553
0.0003599
0.000944336
0.00230867
0.000423924
0.000779004
0.000625102
0.000550048
0.00124311
0.000797625
0.000907351
0.000598065
0.000877661
0.00138892
0.00109149
0.00114071
0.000578444
0.000615022
0.000665057
0.000690923
0.000824443
0.000461042
0.000859989
0.00133262
0.000817013
0.000551953
0.000535014
0.000338129
0.000537594
0.000534113
0.000554666
0.000663238
0.000514352
0.000917679
0.00125468
0.000890518
0.00102296
0.000547134
0.000585618
0.000857773
0.000770015
0.000319641
0.000288737
0.000837819
0.000747807
0.000639044
0.000359122
0.000478643
0.000590463
0.000652146
0.000488076
0.000642051
0.000462363
0.000426737
0.000502526