/*--------------------------------*- C++ -*----------------------------------*\
  =========                 |
  \\      /  F ield         | OpenFOAM: The Open Source CFD Toolbox
   \\    /   O peration     | Website:  https://openfoam.org
    \\  /    A nd           | Version:  7
     \\/     M anipulation  |
\*---------------------------------------------------------------------------*/
FoamFile
{
    version     2.0;
    format      ascii;
    class       volScalarField;
    location    "3.5";
    object      p;
}
// * * * * * * * * * * * * * * * * * * * * * * * * * * * * * * * * * * * * * //

dimensions      [0 2 -2 0 0 0 0];

internalField   nonuniform List<scalar> 
18720
(
-68.9187
-67.1412
-68.9546
-68.8743
-68.0673
-66.0234
-67.1804
-67.1517
-66.5509
-68.1123
-68.8295
-68.0185
-66.4093
-64.0997
-66.0999
-66.0075
-65.1463
-66.7285
-67.1352
-66.4814
-65.5464
-66.4803
-68.8117
-67.9749
-66.3491
-65.45
-62.1336
-64.0861
-64.1707
-63.6531
-65.1264
-66.0527
-65.1035
-64.4973
-65.7094
-67.128
-66.5232
-65.4611
-65.6581
-65.5366
-68.8039
-67.9433
-66.296
-65.3344
-65.3535
-60.4548
-62.419
-61.9239
-62.0126
-63.747
-64.1653
-63.5383
-63.3896
-64.6016
-65.9674
-65.0037
-64.446
-64.6511
-65.7577
-67.1391
-66.3886
-65.3617
-65.4946
-65.4157
-65.4407
-68.7955
-67.9159
-66.249
-65.2198
-65.2817
-65.0147
-59.7844
-60.6465
-60.3397
-60.8311
-62.2436
-61.9263
-61.7364
-62.345
-63.6598
-64.0955
-63.5203
-63.0749
-63.4892
-64.752
-65.9895
-64.9433
-64.2732
-64.5029
-64.4177
-65.4761
-67.1475
-66.2011
-65.2612
-65.2688
-65.2746
-64.5519
-65.0547
-68.7874
-67.8865
-66.2097
-65.109
-65.1999
-64.9465
-64.1725
-59.2568
-60.0482
-59.6899
-60.0994
-61.0163
-60.2755
-60.6304
-61.3132
-62.5478
-61.9375
-61.6525
-62.0518
-63.3126
-63.9117
-64.0038
-63.5493
-62.8024
-63.1989
-63.601
-64.6419
-65.9152
-64.9362
-64.1353
-64.4419
-64.2262
-64.1559
-64.6723
-67.1294
-66.219
-65.1657
-65.1121
-65.0815
-64.4235
-63.8735
-64.2593
-68.7959
-67.8535
-66.186
-65.0167
-65.117
-64.8703
-64.0971
-63.6202
-58.777
-59.2809
-59.084
-59.3107
-60.3461
-59.673
-59.8172
-60.6132
-61.533
-60.2525
-60.4705
-61.164
-61.7579
-63.1665
-61.6845
-61.5923
-61.9344
-62.4992
-62.9518
-63.9241
-63.9693
-63.6296
-62.6638
-63.0619
-63.2796
-63.5253
-64.3664
-65.8388
-64.9651
-64.0657
-64.2272
-64.0643
-63.9407
-64.0715
-64.0007
-67.1187
-66.1974
-65.066
-64.9657
-64.9336
-64.3315
-63.7477
-63.5387
-63.6698
-68.8057
-67.8312
-66.1541
-64.9412
-65.0441
-64.8159
-64.043
-63.5604
-62.6481
-57.908
-58.7341
-58.4972
-58.8261
-59.5636
-58.9381
-59.0536
-60.3209
-60.7168
-59.6824
-59.6884
-60.4103
-60.9451
-61.8809
-60.4026
-60.3433
-60.9272
-61.4631
-61.9611
-63.2834
-61.683
-61.4565
-61.786
-61.8875
-62.7942
-63.4683
-63.8512
-63.7882
-63.6242
-62.4899
-62.8177
-62.945
-63.2132
-63.8341
-64.2852
-65.746
-64.9765
-63.9345
-64.0554
-63.9158
-63.6906
-63.8282
-63.8292
-63.6842
-67.1143
-66.1253
-64.998
-64.7974
-64.8004
-64.2326
-63.6147
-63.3754
-63.073
-62.6855
-68.817
-67.8216
-66.1084
-64.8751
-64.9868
-64.7365
-63.9888
-63.4897
-62.5995
-62.0462
-57.1677
-58.0607
-57.7688
-58.2921
-58.9727
-58.1961
-58.7262
-59.5114
-60.4769
-58.6544
-59.0199
-60.0799
-60.7734
-61.0047
-59.518
-59.514
-60.1978
-60.7958
-61.1736
-62.3866
-60.4095
-60.235
-60.687
-60.9989
-61.4232
-62.8237
-63.8045
-61.7263
-61.2457
-61.6335
-62.0776
-62.2594
-63.0846
-63.6927
-64.1578
-63.6548
-63.5475
-62.4263
-62.6903
-62.7542
-62.9267
-63.5618
-64.2685
-64.09
-65.6755
-64.9374
-63.8924
-63.9242
-63.8511
-63.51
-63.6118
-63.6468
-63.5878
-63.1805
-67.1153
-66.1015
-64.9377
-64.6629
-64.6601
-64.1134
-63.5122
-63.2297
-62.9794
-62.6202
-62.0751
-68.8308
-67.8176
-66.0748
-64.8167
-64.9427
-64.6579
-63.9329
-63.412
-62.5436
-62.0138
-61.598
-56.5884
-57.4203
-57.1658
-57.5884
-58.4093
-57.6059
-58.147
-58.756
-59.7095
-57.9712
-58.6521
-59.4247
-60.0383
-60.6881
-58.4391
-58.8357
-59.7403
-60.691
-60.5138
-61.5541
-59.3785
-59.2316
-59.9889
-60.6285
-60.979
-61.8213
-63.1503
-60.3712
-60.0731
-60.4834
-60.9976
-61.1047
-62.3764
-63.5618
-64.127
-61.7242
-61.0904
-61.5275
-61.8431
-62.0211
-62.7679
-63.1841
-64.313
-64.5044
-63.5485
-63.4215
-62.3684
-62.5163
-62.5613
-62.6519
-63.2529
-64.009
-64.11
-63.8376
-65.6478
-64.9374
-63.8298
-63.6954
-63.777
-63.321
-63.4237
-63.4981
-63.4074
-63.2866
-62.7081
-67.1131
-66.0619
-64.8943
-64.5371
-64.5216
-64.0196
-63.394
-63.1074
-62.8597
-62.5289
-62.3401
-61.6231
-68.8516
-67.8121
-66.0655
-64.768
-64.9099
-64.6137
-63.8884
-63.3642
-62.4999
-61.9793
-61.5769
-61.2756
-56.1322
-56.6747
-56.5422
-57.0968
-57.7389
-57.2179
-57.5195
-57.9773
-58.8836
-57.4739
-58.0315
-58.6652
-59.0119
-60.0751
-57.8643
-58.4753
-59.1144
-59.9346
-59.896
-60.5984
-58.4355
-58.6322
-59.335
-60.4884
-60.2384
-61.2686
-62.3283
-59.3477
-59.0189
-59.7586
-60.588
-60.8262
-61.5598
-62.6955
-64.0676
-60.3849
-60.0988
-60.3028
-60.7951
-61.3784
-62.0332
-62.9929
-64.2329
-64.591
-61.816
-61.0091
-61.3767
-61.5219
-62.05
-62.4231
-62.7862
-63.9171
-64.5456
-64.2993
-63.4831
-63.1743
-62.3579
-62.433
-62.3838
-62.3949
-62.8461
-63.5878
-63.8604
-63.9466
-63.4246
-65.616
-64.9108
-63.7221
-63.5291
-63.6595
-63.153
-63.2475
-63.2841
-63.1674
-63.1371
-62.9457
-62.3916
-67.0964
-66.0359
-64.8579
-64.4267
-64.3705
-63.9335
-63.2617
-63.0068
-62.7102
-62.427
-62.2791
-61.7908
-61.2873
-68.882
-67.8143
-66.0504
-64.717
-64.8675
-64.5493
-63.8548
-63.3184
-62.4557
-61.9464
-61.5503
-61.2584
-60.7786
-55.846
-56.1279
-56.0632
-56.6
-57.2102
-56.4547
-56.9485
-57.297
-58.0525
-56.9231
-57.4426
-57.8043
-58.4621
-59.3394
-57.05
-57.7517
-58.3338
-59.136
-59.129
-60.0608
-57.5289
-58.4072
-58.9065
-59.8243
-59.7799
-60.6294
-61.4373
-58.3495
-58.4689
-59.1108
-60.2347
-60.1821
-60.9411
-62.2623
-63.2483
-59.238
-59.1222
-59.4383
-60.3932
-60.7127
-61.1906
-62.2523
-63.9079
-64.6985
-60.3108
-60.1488
-60.2433
-60.4938
-61.0947
-61.6172
-62.5526
-63.7507
-64.9804
-65.1587
-61.9062
-61.1561
-61.1795
-61.307
-61.7713
-62.0765
-62.5302
-63.4432
-64.0785
-64.3397
-64.1505
-63.3634
-63.1241
-62.304
-62.3575
-62.3146
-62.1467
-62.5964
-63.2165
-63.5807
-63.7099
-63.8143
-63.0475
-65.512
-64.8088
-63.6016
-63.4751
-63.5536
-63.0397
-63.0935
-63.0548
-62.9333
-62.9766
-62.8388
-62.5684
-61.8183
-67.0845
-66.0174
-64.8246
-64.3148
-64.2344
-63.8532
-63.1401
-62.9345
-62.5667
-62.3142
-62.1962
-61.7516
-61.5408
-60.7802
-68.9096
-67.8032
-66.0262
-64.6863
-64.8134
-64.4949
-63.8161
-63.2515
-62.4024
-61.9191
-61.5196
-61.235
-60.7731
-60.314
-55.7293
-55.9653
-55.7351
-56.269
-56.6999
-56.0388
-56.5026
-56.8001
-57.3429
-56.2941
-56.8556
-57.2331
-57.7855
-58.7541
-56.6157
-57.2119
-57.6206
-58.4187
-58.7761
-59.2113
-56.9164
-57.5563
-58.1838
-59.0741
-59.1319
-60.0501
-60.8723
-57.3976
-58.0096
-58.6701
-59.6451
-59.7397
-60.269
-61.6614
-62.634
-58.3199
-58.386
-58.9406
-60.0578
-60.2264
-60.5089
-61.789
-63.7273
-64.6737
-59.3466
-59.2177
-59.3238
-60.1107
-60.3221
-60.8306
-61.8551
-63.3593
-65.1306
-65.2447
-60.2919
-60.1583
-60.1427
-60.3102
-60.4901
-61.2348
-62.1895
-63.2596
-64.497
-65.0073
-64.7074
-62.0466
-61.2763
-61.0973
-61.1045
-61.5077
-61.8457
-62.3969
-63.0533
-63.6872
-64.0432
-64.6232
-63.9875
-63.3591
-62.9982
-62.209
-62.2165
-62.2792
-61.9393
-62.404
-62.867
-63.2885
-63.464
-63.5651
-63.241
-62.5982
-65.4606
-64.7358
-63.5128
-63.3112
-63.4363
-62.8919
-62.9138
-62.8454
-62.7236
-62.8048
-62.7069
-62.5456
-62.2735
-61.5605
-67.0892
-66.003
-64.796
-64.1949
-64.128
-63.7513
-63.0271
-62.8329
-62.4263
-62.2058
-62.0962
-61.6971
-61.5016
-61.057
-60.3179
-68.94
-67.7771
-66.0257
-64.6759
-64.7564
-64.4551
-63.7765
-63.1731
-62.3636
-61.8888
-61.4773
-61.1841
-60.7697
-60.3076
-60.2198
-55.5331
-55.7306
-55.6402
-56.1339
-56.272
-55.8195
-56.1746
-56.5023
-56.9207
-55.944
-56.4511
-56.7563
-57.2626
-57.9308
-56.1701
-56.7817
-57.1521
-57.8013
-58.0526
-58.9512
-56.6694
-57.0206
-57.5258
-58.1518
-58.6457
-59.4349
-60.4682
-57.3243
-57.4793
-58.0128
-59.0357
-58.9452
-59.4929
-61.3822
-62.1061
-57.8109
-57.7697
-58.3927
-59.4567
-59.712
-60.1267
-61.3345
-63.1204
-64.2601
-58.4068
-58.4057
-58.7626
-59.7865
-60.0896
-60.1944
-61.2638
-63.0928
-65.6484
-65.906
-59.2426
-59.1634
-59.2818
-59.7512
-60.2477
-60.6198
-61.4497
-62.9329
-64.1229
-65.0127
-65.4551
-60.3017
-60.0457
-60.0691
-60.1899
-60.3102
-61.0011
-61.8579
-62.7076
-63.9633
-64.5072
-64.8671
-64.8595
-62.1497
-61.2659
-61.1079
-60.8644
-61.1409
-61.5648
-62.1851
-62.6127
-63.4383
-63.7321
-64.2589
-64.0721
-63.3298
-63.3105
-62.831
-62.2263
-61.991
-62.2444
-61.7775
-62.1287
-62.4859
-62.9879
-63.2417
-63.3634
-63.1758
-62.9167
-62.3072
-65.4964
-64.634
-63.4098
-63.0821
-63.3793
-62.8032
-62.6972
-62.6638
-62.5279
-62.6382
-62.5659
-62.4915
-62.2293
-61.7864
-61.0921
-67.1152
-65.9904
-64.7894
-64.0942
-64.0551
-63.6477
-62.9448
-62.6926
-62.3046
-62.0955
-61.9942
-61.642
-61.449
-61.0121
-60.8325
-60.2262
-68.9726
-67.7525
-66.033
-64.6528
-64.6984
-64.3659
-63.7373
-63.1031
-62.3285
-61.8554
-61.4364
-61.1398
-60.7668
-60.3021
-60.2134
-60.5657
-55.2985
-55.5557
-55.5606
-55.8734
-56.1123
-55.5937
-55.9119
-56.4028
-56.8232
-55.7542
-56.0976
-56.4431
-56.9216
-57.8749
-55.8911
-56.3025
-56.8253
-57.2768
-57.6925
-58.3471
-56.1792
-56.7185
-57.042
-57.6044
-57.9471
-59.1196
-59.8478
-56.7594
-57.0073
-57.3895
-58.0052
-58.5513
-59.188
-60.6028
-61.8842
-57.2426
-57.2604
-57.6655
-58.5907
-59.0636
-59.3755
-60.913
-62.8572
-63.7973
-57.5692
-57.6236
-58.2231
-59.1441
-59.6566
-59.8991
-60.9031
-62.6437
-64.6252
-66.0389
-58.3093
-58.386
-58.571
-59.3584
-59.8247
-60.0822
-60.6512
-62.6559
-64.8874
-65.7327
-65.8247
-59.2555
-59.0977
-59.1468
-59.3968
-60.1175
-60.564
-61.1586
-62.5245
-63.7782
-64.5088
-66.1523
-65.3711
-60.2897
-59.9889
-60.0175
-60.0596
-60.2508
-61.0198
-61.5185
-62.1863
-63.4965
-64.1159
-64.4031
-65.1617
-64.3524
-62.1758
-61.296
-61.0338
-60.731
-61.0196
-61.3526
-61.8527
-62.1512
-63.1091
-63.4279
-63.8926
-63.7267
-63.6503
-62.988
-63.2854
-62.7256
-62.1298
-61.9343
-62.2465
-61.7324
-61.8642
-62.1877
-62.7072
-63.0334
-63.1141
-63.0475
-62.8126
-62.4326
-61.8268
-65.5291
-64.55
-63.3013
-62.9813
-63.4217
-62.7685
-62.5349
-62.4627
-62.3449
-62.5044
-62.4236
-62.3928
-62.1524
-61.7265
-61.5152
-60.8516
-67.1642
-65.9537
-64.8076
-63.9979
-63.9379
-63.6326
-62.888
-62.5609
-62.2202
-61.9807
-61.8904
-61.571
-61.3926
-60.9465
-60.808
-61.3148
-60.5788
-69.0069
-67.7415
-66.0415
-64.632
-64.6562
-64.2287
-63.698
-63.0505
-62.2791
-61.8188
-61.3994
-61.1031
-60.759
-60.2909
-60.2081
-60.5511
-61.3347
-55.1132
-55.3483
-55.379
-55.4301
-55.9456
-55.355
-55.8064
-56.345
-56.4058
-55.5296
-55.7787
-56.181
-56.8751
-57.1478
-55.6801
-55.869
-56.3892
-56.8239
-57.3359
-58.1911
-55.9002
-56.2677
-56.6354
-57.0848
-57.6511
-58.7795
-59.5741
-56.1742
-56.5422
-56.8408
-57.4191
-57.8514
-58.6718
-60.3993
-61.1638
-56.3222
-56.7695
-57.3006
-57.7371
-58.3816
-58.8737
-60.2492
-62.2252
-63.6899
-56.7227
-56.8839
-57.6545
-58.3214
-59.025
-59.0632
-60.378
-62.2401
-64.8446
-65.7447
-57.4665
-57.4614
-57.9269
-58.6124
-59.3843
-59.5422
-60.719
-61.7091
-64.013
-66.6939
-66.6536
-58.2637
-58.3206
-58.4909
-58.8424
-59.5784
-60.0071
-60.8766
-61.9072
-63.7992
-64.9767
-67.165
-66.6801
-59.3212
-59.1353
-59.1754
-59.19
-59.7447
-60.3605
-61.2379
-62.0979
-63.2392
-64.3987
-65.5976
-66.3149
-65.4906
-60.3785
-60.0567
-59.9459
-59.9847
-60.1051
-60.756
-61.2228
-61.9332
-63.0485
-63.7759
-64.0227
-64.744
-64.6006
-63.834
-62.2482
-61.3227
-61.0418
-60.6996
-60.8609
-61.0789
-61.5473
-61.8322
-62.6958
-63.1075
-63.4485
-63.4503
-63.4465
-63.0198
-62.4821
-63.3503
-62.6374
-62.0622
-61.838
-62.1907
-61.6388
-61.5661
-61.9735
-62.4094
-62.7977
-62.8451
-62.8321
-62.6788
-62.3614
-62.109
-61.5359
-65.5929
-64.5436
-63.1919
-62.9122
-63.3367
-62.696
-62.3308
-62.2576
-62.165
-62.4035
-62.2669
-62.282
-62.0577
-61.648
-61.4884
-61.7492
-61.3109
-67.2388
-65.966
-64.802
-63.9064
-63.8683
-63.5494
-62.7956
-62.442
-62.1434
-61.8534
-61.7795
-61.507
-61.3344
-60.8692
-60.7773
-61.3142
-61.735
-61.3195
-69.0364
-67.7272
-66.0499
-64.6015
-64.6127
-64.2032
-63.666
-63.0098
-62.2356
-61.7784
-61.3625
-61.0682
-60.7462
-60.2765
-60.2049
-60.5349
-61.3439
-62.0009
-55.0609
-55.1526
-55.0972
-55.234
-55.4779
-55.194
-55.381
-55.5015
-56.3159
-55.2253
-55.5918
-55.9496
-56.4586
-56.4653
-55.4531
-55.6072
-56.0372
-56.589
-57.2927
-57.8696
-55.6158
-55.8349
-56.3219
-56.7164
-57.0605
-58.2746
-59.0067
-55.8474
-56.0731
-56.4404
-56.8997
-57.311
-58.394
-59.7021
-60.9073
-56.0301
-56.3387
-56.7168
-57.3585
-57.8142
-58.3721
-59.7903
-61.687
-62.6996
-56.2852
-56.6715
-57.12
-57.6369
-58.1589
-58.5431
-59.73
-61.4944
-64.6311
-66.0977
-56.8142
-56.7988
-57.2884
-58.0601
-59.0164
-59.1665
-60.1636
-61.5852
-63.8313
-67.0717
-67.5993
-57.3626
-57.4479
-57.7721
-58.3211
-59.1477
-59.6119
-60.4193
-61.5511
-63.3223
-65.4017
-68.3332
-67.849
-58.3363
-58.3371
-58.3986
-58.6599
-59.3259
-59.8364
-60.6171
-61.1448
-63.3645
-64.2535
-66.3501
-67.4435
-66.6469
-59.4259
-59.1631
-59.1029
-59.1301
-59.3891
-59.6606
-60.7027
-61.6544
-62.607
-63.7433
-64.76
-65.8686
-65.8446
-64.7827
-60.4633
-60.0739
-59.9092
-59.9543
-59.9739
-60.3484
-60.6736
-61.536
-62.4654
-63.3018
-63.5268
-64.1997
-64.3867
-64.0233
-63.0792
-62.3789
-61.4359
-61.0206
-60.6361
-60.8327
-60.841
-61.0769
-61.5067
-62.2184
-62.8027
-63.0609
-63.2302
-63.2114
-62.9445
-63.0083
-62.0992
-63.4151
-62.6284
-62.006
-61.6683
-62.044
-61.553
-61.3137
-61.7033
-62.0619
-62.5516
-62.5821
-62.6092
-62.5407
-62.2535
-62.1074
-62.9278
-61.7166
-65.7172
-64.4888
-63.1026
-62.7889
-63.224
-62.6035
-62.1298
-62.0123
-61.9169
-62.1567
-62.1229
-62.1491
-61.9293
-61.553
-61.4581
-61.7802
-62.9448
-61.7228
-67.3471
-65.9992
-64.8121
-63.7813
-63.8402
-63.42
-62.7118
-62.3455
-62.0579
-61.722
-61.7022
-61.4695
-61.2609
-60.7904
-60.7418
-61.3099
-61.7429
-62.6684
-61.9927
-69.0708
-67.7194
-66.0482
-64.5988
-64.5796
-64.2188
-63.6275
-62.9667
-62.1985
-61.7415
-61.3295
-61.0368
-60.7339
-60.26
-60.2012
-60.517
-61.3392
-62.0075
-62.5086
-55.0247
-55.0547
-55.0652
-55.0752
-55.1963
-55.1082
-55.1828
-55.2268
-55.8645
-55.2315
-55.3577
-55.5707
-55.5548
-56.5344
-55.3283
-55.4509
-55.8052
-56.2646
-56.9154
-57.2718
-55.4334
-55.582
-55.9452
-56.3924
-56.9032
-57.8586
-58.5949
-55.5129
-55.7773
-56.1156
-56.688
-56.9741
-57.8138
-59.31
-60.1004
-55.8043
-55.9843
-56.3241
-56.7166
-57.2398
-58.089
-59.3056
-60.7644
-62.4925
-56.1438
-56.2525
-56.6036
-57.1142
-57.639
-58.2024
-59.3882
-61.0866
-64.0822
-65.5822
-56.5146
-56.8441
-56.9705
-57.5829
-58.1977
-58.4865
-59.3957
-60.8246
-63.6703
-67.9174
-68.3283
-57.0669
-57.2806
-57.2369
-57.8221
-58.7434
-59.2237
-59.9128
-61.0379
-63.5052
-65.9443
-69.4146
-69.1786
-57.6164
-57.7182
-57.7286
-58.0937
-58.8371
-59.5554
-60.1741
-61.4019
-62.4025
-64.2327
-67.4411
-69.106
-67.9767
-58.4692
-58.2171
-58.3211
-58.4788
-58.8577
-59.6157
-59.9448
-61.1055
-62.3992
-63.7047
-65.4567
-66.9337
-67.7215
-66.1225
-59.3916
-59.1792
-58.9744
-59.0035
-59.0223
-59.5241
-60.1719
-61.2288
-62.4377
-62.9339
-63.6715
-65.3417
-65.5504
-65.1592
-64.0668
-60.4363
-60.1007
-59.8704
-59.8015
-59.8125
-60.095
-60.4922
-61.1718
-61.8917
-62.899
-62.9892
-63.9176
-64.1435
-63.9566
-63.3941
-62.8432
-62.5357
-61.4778
-61.0043
-60.6157
-60.676
-60.6699
-60.831
-61.2436
-61.8784
-62.5038
-62.6655
-62.8785
-63.0227
-62.8886
-63.153
-62.7864
-62.7135
-63.5241
-62.6323
-61.9409
-61.5857
-61.8896
-61.4923
-61.2075
-61.4739
-61.8127
-62.3665
-62.3161
-62.3767
-62.3728
-62.1187
-62.0929
-63.1156
-63.2361
-62.8403
-65.8397
-64.4668
-62.9938
-62.6706
-63.0619
-62.5508
-61.9904
-61.7121
-61.7133
-61.9066
-61.986
-61.981
-61.7637
-61.4494
-61.4231
-61.8071
-63.0207
-63.6054
-62.626
-67.4768
-66.0239
-64.7629
-63.6655
-63.781
-63.3395
-62.6619
-62.2505
-61.9677
-61.5897
-61.6555
-61.4179
-61.1813
-60.7075
-60.7022
-61.3
-61.7447
-62.6992
-63.0865
-62.5147
-69.1353
-67.7102
-66.064
-64.6042
-64.5845
-64.2174
-63.5694
-62.9079
-62.151
-61.7048
-61.2972
-61.0098
-60.7248
-60.241
-60.1948
-60.4969
-61.3347
-62.0135
-62.5002
-62.7227
-54.8605
-54.9848
-54.9823
-54.9609
-55.1448
-55.0257
-55.0665
-55.0207
-55.3437
-55.053
-55.2579
-55.2333
-55.213
-56.1677
-55.1717
-55.2917
-55.5628
-55.9018
-56.309
-56.8401
-55.1974
-55.4555
-55.6503
-56.0432
-56.5417
-57.4097
-57.9456
-55.3436
-55.5169
-55.8624
-56.3444
-56.8717
-57.4797
-58.3468
-59.667
-55.5211
-55.6129
-56.0423
-56.4002
-57.0073
-58.0097
-59.1245
-60.253
-61.5077
-55.8495
-55.9349
-56.3654
-56.5863
-57.1729
-58.0368
-58.9964
-60.2797
-62.732
-65.0612
-56.0994
-56.2882
-56.4877
-56.8703
-57.6033
-58.0608
-58.9514
-60.4557
-63.2944
-67.29
-69.2235
-56.6876
-56.7358
-56.9103
-57.3807
-57.9716
-58.5453
-59.2439
-60.4037
-62.4742
-66.6409
-70.4416
-70.4258
-57.1798
-57.1069
-57.1406
-57.5579
-58.2897
-59.1649
-59.6657
-60.5391
-62.4407
-64.7765
-68.1915
-70.8899
-69.9161
-57.5731
-57.5922
-57.6569
-57.8814
-58.3394
-59.2106
-60.1435
-61.1124
-61.9991
-63.0582
-66.2738
-68.2674
-69.444
-68.0202
-58.4845
-58.2205
-58.1143
-58.3143
-58.3755
-59.3519
-60.1886
-60.7204
-61.7756
-62.9442
-64.5225
-66.3342
-67.2273
-66.5012
-65.1819
-59.4483
-59.0658
-58.9664
-58.9815
-58.9131
-59.1431
-59.9877
-60.9482
-61.9656
-62.7024
-62.9433
-64.8685
-65.2279
-65.0277
-64.1865
-63.2752
-60.5857
-60.0522
-59.8955
-59.6767
-59.6259
-59.8167
-60.1147
-60.9713
-61.5012
-62.3831
-62.5922
-63.4207
-63.8311
-63.8411
-63.5454
-62.6449
-62.5133
-62.6554
-61.5518
-60.9537
-60.5613
-60.5931
-60.5788
-60.4352
-61.0011
-61.6091
-62.2066
-62.2686
-62.458
-62.7507
-62.7374
-63.2901
-63.1075
-62.1096
-63.2347
-63.5875
-62.6378
-61.8946
-61.531
-61.7433
-61.4053
-61.0064
-61.2488
-61.625
-62.1474
-62.0795
-62.1699
-62.1746
-61.9792
-62.098
-63.2216
-63.2399
-62.7511
-63.5967
-65.931
-64.4853
-62.8504
-62.5889
-62.8555
-62.5323
-61.8748
-61.5009
-61.5843
-61.7537
-61.8186
-61.8246
-61.6219
-61.3275
-61.3821
-61.8304
-63.0561
-63.6068
-63.2266
-63.0902
-67.6046
-66.0466
-64.7702
-63.5909
-63.7319
-63.2787
-62.6137
-62.1641
-61.8643
-61.4736
-61.612
-61.3542
-61.1033
-60.6277
-60.6605
-61.2836
-61.7417
-62.6989
-63.0792
-63.1876
-62.7193
-69.1822
-67.6957
-66.0773
-64.5807
-64.581
-64.1979
-63.5216
-62.8479
-62.0915
-61.6561
-61.2702
-60.9757
-60.7068
-60.2277
-60.1931
-60.4742
-61.3284
-62.0173
-62.489
-62.7264
-62.8362
-54.727
-54.9113
-54.8124
-54.8318
-54.9756
-54.9569
-54.991
-54.8777
-55.1896
-54.9321
-55.1001
-54.9031
-55.2445
-55.4969
-54.9049
-55.1321
-55.2081
-55.349
-55.767
-56.4514
-54.9904
-55.2578
-55.4325
-55.6812
-56.1138
-56.8067
-57.6367
-55.0892
-55.2965
-55.5461
-55.81
-56.2185
-57.456
-57.6054
-58.732
-55.2584
-55.3397
-55.8377
-56.0578
-56.8461
-57.4844
-58.1993
-59.4602
-60.8713
-55.4191
-55.5694
-55.9709
-56.301
-56.6995
-57.8796
-58.9577
-60.0108
-61.9336
-63.5515
-55.6217
-56.0022
-56.0553
-56.5952
-56.9983
-57.7435
-58.3588
-59.886
-62.1186
-66.5297
-68.355
-56.0141
-56.125
-56.2453
-56.7416
-57.4585
-57.8905
-58.6678
-59.9337
-62.4034
-66.1674
-70.8522
-71.541
-56.5029
-56.3391
-56.7124
-57.1064
-57.6431
-58.4917
-59.3574
-60.2689
-61.4478
-65.3703
-69.2583
-72.4658
-71.6953
-56.9114
-56.8413
-57.1486
-57.4296
-57.9839
-58.8821
-59.7764
-60.2425
-61.2712
-63.6091
-67.021
-70.0208
-71.3501
-69.7588
-57.5097
-57.5298
-57.5926
-57.742
-58.0427
-58.7814
-60.0409
-60.9858
-61.5641
-62.5006
-65.0563
-67.4255
-69.074
-68.512
-66.5662
-58.565
-58.2964
-58.1011
-58.2629
-58.2163
-58.8513
-60.0483
-60.4835
-61.1351
-61.9544
-63.6702
-65.5482
-66.6157
-66.403
-65.2003
-64.1155
-59.6659
-59.2324
-58.9168
-58.8778
-58.8564
-59.0611
-59.7531
-60.6943
-61.2915
-62.0706
-62.3664
-64.2969
-64.8219
-64.9237
-64.2595
-63.1036
-62.5315
-60.7229
-60.0894
-59.7532
-59.5711
-59.4695
-59.6029
-59.8467
-60.6648
-61.2201
-61.8803
-62.2622
-62.7078
-63.5544
-63.7267
-63.7153
-62.7255
-61.483
-62.1035
-62.765
-61.5957
-60.9082
-60.5229
-60.4305
-60.5351
-60.2726
-60.7269
-61.3172
-61.9067
-61.9179
-62.0802
-62.4754
-62.5419
-63.4587
-63.3519
-62.1044
-61.0623
-62.6406
-63.6875
-62.7218
-61.8573
-61.5109
-61.5736
-61.3158
-60.8123
-60.9899
-61.4253
-61.8548
-61.8655
-61.9327
-61.9451
-61.8401
-62.0899
-63.2356
-63.3298
-62.8421
-62.0855
-63.1934
-66.0597
-64.5021
-62.7098
-62.5034
-62.6696
-62.4497
-61.7667
-61.2858
-61.455
-61.4959
-61.642
-61.6631
-61.4665
-61.1796
-61.3359
-61.8465
-63.0224
-63.547
-63.2894
-63.6158
-63.174
-67.7498
-66.0981
-64.8233
-63.5163
-63.6827
-63.2356
-62.5551
-62.0577
-61.7781
-61.3941
-61.5458
-61.3065
-61.0231
-60.5573
-60.6132
-61.2631
-61.7257
-62.6605
-63.0509
-63.1959
-63.2802
-62.8222
-69.2165
-67.6971
-66.0802
-64.5663
-64.5619
-64.1803
-63.4774
-62.8018
-62.0365
-61.6137
-61.2383
-60.93
-60.6779
-60.2187
-60.1914
-60.4493
-61.3189
-62.0134
-62.4826
-62.7305
-62.8494
-62.6426
-54.6397
-54.8613
-54.703
-54.7394
-54.8683
-54.8296
-54.8333
-54.8439
-55.1253
-55.0202
-54.8692
-55.0099
-55.0143
-55.2499
-54.8367
-54.8966
-55.2367
-55.1446
-55.4187
-55.8711
-54.9135
-55.0201
-55.1122
-55.2409
-55.7622
-56.2208
-57.0085
-54.933
-55.1182
-55.2574
-55.6287
-55.907
-56.8173
-57.3406
-58.1101
-55.0046
-55.2098
-55.5245
-55.8231
-56.1409
-57.1864
-57.5213
-58.7294
-59.6738
-55.1869
-55.3715
-55.4439
-55.9435
-56.4391
-57.2279
-58.2158
-59.4267
-61.2288
-62.4943
-55.3975
-55.5597
-55.7346
-56.3946
-56.5654
-57.1508
-58.2077
-59.3525
-61.6168
-65.2251
-67.2719
-55.7092
-55.8138
-56.1681
-56.3952
-56.7772
-57.505
-58.1672
-59.3699
-61.2775
-65.5397
-70.0623
-72.035
-55.9054
-56.0753
-56.4142
-56.7715
-57.095
-57.686
-58.5862
-59.6779
-61.2407
-65.4333
-69.5321
-74.4004
-73.4193
-56.1941
-56.2934
-56.6
-56.828
-57.3363
-58.409
-59.3117
-60.0399
-61.1315
-63.7629
-67.8269
-71.5346
-73.5418
-71.7713
-56.8375
-56.7417
-57.0693
-57.3188
-57.8053
-58.5337
-59.5088
-60.0082
-60.4399
-62.5558
-65.7159
-68.9618
-70.8455
-70.3741
-68.5108
-57.3952
-57.5521
-57.5581
-57.6189
-57.8248
-58.3635
-59.7717
-60.5754
-61.1602
-61.7102
-63.9319
-66.5723
-68.4823
-68.3044
-66.6018
-65.1649
-58.584
-58.3169
-58.0727
-58.131
-58.2096
-58.51
-59.8882
-60.3182
-60.5476
-61.55
-62.733
-64.7832
-66.1732
-66.2125
-65.2043
-63.5742
-62.9689
-59.8647
-59.2351
-58.8695
-58.7782
-58.6273
-58.8188
-59.541
-60.4816
-60.9083
-61.2134
-61.877
-63.6892
-64.4941
-64.884
-64.2766
-63.2143
-61.8031
-61.39
-60.849
-60.1017
-59.7484
-59.5009
-59.3351
-59.5392
-59.6832
-60.4497
-60.9938
-61.4507
-61.7903
-62.2233
-63.2122
-63.5645
-63.9795
-62.8061
-61.6903
-60.5392
-61.0441
-62.9069
-61.644
-60.8981
-60.4755
-60.2545
-60.3821
-60.1558
-60.5745
-61.1272
-61.6031
-61.6519
-61.7712
-62.186
-62.3925
-63.6324
-63.5238
-62.1431
-61.0664
-61.1624
-62.0331
-63.7828
-62.791
-61.8645
-61.4652
-61.474
-61.2309
-60.6211
-60.7531
-61.2492
-61.6929
-61.6545
-61.7224
-61.7251
-61.701
-62.0455
-63.256
-63.4398
-62.788
-62.1
-62.8933
-63.5566
-66.1873
-64.5353
-62.6189
-62.467
-62.5369
-62.3497
-61.685
-61.0887
-61.2863
-61.2725
-61.5176
-61.5065
-61.3169
-61.0265
-61.282
-61.8468
-62.9054
-63.4086
-63.3517
-63.6602
-64.3056
-63.2499
-67.9101
-66.1472
-64.8188
-63.4652
-63.6276
-63.2032
-62.5112
-61.9845
-61.711
-61.299
-61.3599
-61.246
-60.9441
-60.4918
-60.5658
-61.2388
-61.6955
-62.595
-63.015
-63.2163
-63.2846
-63.116
-62.6296
-69.2681
-67.6936
-66.0884
-64.5716
-64.5463
-64.1659
-63.4264
-62.747
-61.9877
-61.5795
-61.2061
-60.8869
-60.6442
-60.206
-60.1832
-60.4235
-61.3061
-62.0055
-62.4831
-62.7344
-62.8616
-62.6546
-62.5655
-54.4905
-54.7037
-54.5536
-54.5832
-54.7927
-54.7797
-54.7282
-54.7122
-54.9105
-54.7883
-54.7021
-54.8778
-54.7385
-55.119
-54.7938
-54.7935
-54.9839
-54.9684
-55.1942
-55.571
-54.8384
-54.9494
-54.8562
-55.1208
-55.282
-55.8344
-56.3479
-54.9668
-55.0306
-55.135
-55.4863
-55.5853
-55.8512
-56.8611
-57.5947
-54.9979
-54.9748
-55.3318
-55.5159
-55.6628
-56.4796
-57.3884
-58.188
-59.2047
-54.972
-55.1419
-55.3893
-55.8106
-56.2546
-56.7464
-57.5871
-58.5455
-59.9818
-61.5466
-55.1188
-55.2767
-55.4541
-55.8812
-56.2423
-56.646
-57.6105
-59.1462
-60.533
-63.6692
-65.4802
-55.3225
-55.5109
-55.7876
-56.0055
-56.5097
-57.0964
-57.8315
-58.8767
-60.4677
-64.0982
-68.4187
-70.8543
-55.5347
-55.7227
-56.0952
-56.2687
-56.8188
-57.2723
-58.1225
-59.0364
-60.9674
-64.5326
-68.9686
-73.9411
-75.0541
-55.8214
-55.9094
-56.4636
-56.5454
-57.0541
-57.4379
-58.3776
-59.2857
-60.2865
-64.3328
-68.051
-73.4594
-74.8928
-73.746
-56.2214
-56.2257
-56.4063
-56.8992
-57.2192
-57.9872
-58.8115
-59.4534
-60.481
-62.516
-66.4003
-70.3813
-73.1424
-71.8912
-70.3364
-56.9611
-56.7727
-56.8655
-57.1972
-57.4695
-58.092
-59.2145
-59.7183
-59.7924
-61.5056
-64.3075
-67.9626
-70.2497
-70.2076
-68.4719
-66.2801
-57.5778
-57.3448
-57.4848
-57.531
-57.7825
-58.4187
-59.4577
-60.3876
-60.5183
-60.8689
-62.5944
-65.5585
-67.8211
-68.0128
-66.6635
-64.3569
-63.4594
-58.5896
-58.2368
-58.0675
-57.888
-58.0354
-58.2756
-59.5428
-60.4483
-60.3624
-60.9746
-62.2007
-64.1488
-65.6359
-65.9727
-65.1264
-63.7399
-62.1301
-61.6776
-59.9228
-59.1917
-58.9252
-58.6448
-58.5509
-58.6659
-59.2654
-60.2388
-60.6609
-60.912
-61.4423
-63.1331
-64.1751
-64.6756
-64.2308
-63.2473
-61.9329
-61.0703
-60.3987
-60.9057
-60.1357
-59.764
-59.4704
-59.2161
-59.4489
-59.4324
-60.2359
-60.7529
-61.1297
-61.3885
-61.9712
-62.8485
-63.4573
-64.3351
-62.8324
-61.7932
-60.6978
-60.3358
-60.9316
-63.0126
-61.7375
-60.8475
-60.3996
-60.1217
-60.3324
-59.9941
-60.3162
-61.006
-61.3422
-61.4116
-61.5232
-61.8986
-62.2108
-63.6725
-63.6466
-62.4116
-61.0977
-61.3378
-61.2954
-62.832
-63.915
-62.8067
-61.852
-61.4239
-61.3453
-61.083
-60.5139
-60.6599
-61.1111
-61.5684
-61.4769
-61.5553
-61.5029
-61.553
-61.9759
-63.2096
-63.4582
-62.6851
-62.258
-62.9237
-63.281
-64.2722
-66.3033
-64.5965
-62.5776
-62.4416
-62.4579
-62.2598
-61.6082
-60.9334
-61.1367
-61.142
-61.4432
-61.3957
-61.196
-60.8647
-61.2177
-61.8308
-62.7242
-63.2661
-63.3636
-63.6949
-64.2563
-63.3903
-63.1492
-68.0241
-66.2068
-64.8493
-63.4199
-63.5573
-63.1533
-62.466
-61.9376
-61.6191
-61.2012
-61.2601
-61.1545
-60.8677
-60.4305
-60.5229
-61.2102
-61.6535
-62.5202
-62.9845
-63.241
-63.2668
-63.074
-62.9612
-62.5464
-69.2998
-67.6764
-66.1146
-64.5906
-64.5438
-64.1494
-63.3911
-62.6899
-61.9446
-61.5493
-61.1859
-60.8459
-60.6152
-60.1923
-60.1731
-60.3991
-61.2943
-61.9953
-62.4857
-62.7363
-62.8723
-62.6656
-62.5818
-62.1926
-54.2466
-54.5616
-54.5071
-54.4355
-54.6268
-54.5493
-54.4786
-54.545
-54.8083
-54.7595
-54.769
-54.5878
-54.7229
-54.9209
-54.7076
-54.7178
-54.5508
-54.8103
-54.8543
-55.4064
-54.8171
-54.7972
-54.7743
-55.061
-55.0253
-55.6411
-55.9734
-54.8659
-54.942
-54.9768
-55.1292
-55.2263
-55.5458
-56.109
-56.8846
-54.8467
-54.8417
-55.1499
-55.2524
-55.3961
-55.9313
-56.8198
-57.3889
-58.4443
-54.8427
-54.8784
-55.2089
-55.6302
-56.0174
-56.1047
-56.9765
-57.5799
-59.2684
-60.4655
-55.0165
-55.0559
-55.3212
-55.64
-55.8888
-56.4051
-56.8733
-58.4423
-59.2183
-61.472
-64.0467
-55.148
-55.2201
-55.3889
-55.7099
-56.2301
-56.3978
-57.237
-58.9873
-60.0367
-63.1041
-66.441
-68.7711
-55.2533
-55.3883
-55.5525
-55.9169
-56.3268
-56.7031
-57.6589
-58.4544
-59.9956
-63.2058
-67.6638
-71.7313
-74.2365
-55.5574
-55.7084
-55.8748
-56.1651
-56.5941
-57.0339
-57.519
-58.6525
-60.0935
-63.3662
-67.8526
-73.6534
-76.0797
-74.8514
-55.9619
-56.0308
-55.9236
-56.3545
-56.822
-57.4011
-58.0621
-58.8162
-59.7598
-62.8931
-66.8262
-71.9375
-75.2973
-73.0383
-71.9419
-56.253
-56.2627
-56.3397
-56.745
-57.2183
-57.5404
-58.3399
-59.0797
-60.1756
-61.4113
-64.839
-68.7493
-72.3698
-71.8715
-69.562
-68.4087
-56.9615
-56.7868
-56.8275
-57.0394
-57.3663
-57.7166
-58.8721
-59.708
-59.2422
-60.1147
-63.0094
-66.8883
-69.3877
-69.9552
-68.3874
-65.7346
-64.4175
-57.7122
-57.3955
-57.2987
-57.3865
-57.6059
-58.0409
-59.1017
-60.4615
-60.0413
-60.3852
-61.5257
-64.5776
-67.2125
-67.5426
-66.4856
-64.4786
-62.5908
-61.855
-58.5368
-58.2728
-57.9888
-57.9012
-57.8977
-58.0402
-59.0085
-60.4205
-60.3034
-60.4647
-61.5076
-63.6565
-64.9301
-65.6492
-64.9199
-63.9018
-62.2954
-60.9615
-60.8205
-60.0732
-59.27
-58.8995
-58.5971
-58.4597
-58.4536
-59.0653
-60.0352
-60.4478
-60.4962
-61.1325
-62.5932
-63.7026
-64.6144
-64.1014
-63.1933
-62.0329
-61.2909
-60.4499
-60.2702
-61.1064
-60.2136
-59.7462
-59.389
-59.1596
-59.291
-59.285
-60.0931
-60.5907
-60.854
-61.1545
-61.6159
-62.5318
-63.3554
-64.6642
-62.6824
-61.7216
-60.8351
-60.5059
-60.4406
-61.2047
-63.1129
-61.7349
-60.766
-60.3579
-59.9904
-60.1048
-59.9441
-60.3496
-60.8541
-61.1455
-61.2192
-61.2229
-61.6141
-62.1043
-63.5769
-63.8326
-62.5223
-61.1809
-61.4765
-61.3719
-61.4472
-63.3127
-64.0332
-62.9281
-61.8946
-61.4288
-61.2466
-61.0026
-60.3945
-60.537
-61.0431
-61.3931
-61.2759
-61.3853
-61.2852
-61.4156
-61.8861
-63.0333
-63.3157
-62.6249
-62.401
-62.963
-63.1561
-62.4083
-63.467
-66.457
-64.6443
-62.5673
-62.4191
-62.3374
-62.1867
-61.5172
-60.8107
-60.9611
-61.0835
-61.2851
-61.288
-61.0527
-60.6843
-61.1439
-61.8041
-62.5687
-63.1207
-63.3358
-63.713
-64.1364
-63.3144
-63.5002
-62.9476
-68.1545
-66.2752
-64.863
-63.4018
-63.482
-63.0992
-62.3919
-61.887
-61.5252
-61.1229
-61.2037
-61.0735
-60.7971
-60.367
-60.478
-61.1738
-61.6058
-62.4557
-62.9432
-63.2372
-63.2372
-63.0165
-62.9827
-62.8833
-62.1455
-69.3782
-67.6599
-66.1542
-64.5965
-64.545
-64.13
-63.375
-62.6453
-61.9071
-61.5322
-61.1615
-60.7921
-60.59
-60.1791
-60.1603
-60.3768
-61.281
-61.9855
-62.488
-62.7363
-62.8817
-62.6767
-62.5967
-62.2282
-62.1693
-54.3297
-54.2343
-54.2806
-54.6081
-54.4986
-54.3368
-54.39
-54.5776
-54.4984
-54.4408
-54.4265
-54.534
-54.6736
-54.6982
-54.601
-54.5247
-54.5869
-54.7719
-55.0215
-54.7238
-54.5831
-54.6641
-54.7502
-54.8737
-55.1911
-55.7409
-54.6465
-54.7943
-54.8185
-54.7653
-55.0874
-55.4017
-55.665
-56.2032
-54.7939
-54.8218
-54.8791
-55.0097
-55.2073
-55.492
-56.1401
-56.7618
-57.593
-54.8035
-54.9395
-55.0023
-55.3003
-55.4434
-55.6349
-56.3901
-57.0072
-58.609
-59.721
-54.8776
-55.0261
-55.0991
-55.3933
-55.7025
-56.1958
-56.457
-57.3494
-58.7496
-59.9662
-62.2318
-55.0112
-54.9823
-55.1728
-55.3778
-55.8734
-55.8645
-56.6433
-57.2233
-59.6239
-61.3616