/*--------------------------------*- C++ -*----------------------------------*\
  =========                 |
  \\      /  F ield         | OpenFOAM: The Open Source CFD Toolbox
   \\    /   O peration     | Website:  https://openfoam.org
    \\  /    A nd           | Version:  7
     \\/     M anipulation  |
\*---------------------------------------------------------------------------*/
FoamFile
{
    version     2.0;
    format      ascii;
    class       surfaceScalarField;
    location    "3.5";
    object      phi_0;
}
// * * * * * * * * * * * * * * * * * * * * * * * * * * * * * * * * * * * * * //

dimensions      [0 3 -1 0 0 0 0];

internalField   nonuniform List<scalar> 
54006
(
5.26174e-05
0.00210656
-0.00214765
-0.000108779
-2.11487e-05
0.00395954
-0.00382974
-0.000244163
5.87078e-05
-0.000108725
5.3942e-05
-0.00218897
-0.000120201
0.000139269
0.00167257
-0.00181618
-0.000104444
-0.000218418
0.00532388
-0.00507983
-0.00013611
1.38438e-05
-0.00024282
-1.11304e-05
-0.00371859
-0.000270613
0.000123076
0.0035337
-0.00352944
-0.000232235
0.000137199
-0.000104998
5.3932e-05
-0.00222948
-0.000120973
0.000139221
-0.00196052
-0.000115078
0.000198948
0.000754482
-0.000975267
-8.26066e-05
-0.000148554
0.00551301
-0.00543121
-0.000108576
-0.000182219
-0.000148032
-0.000180927
-0.00487093
-0.000203576
-4.21241e-05
0.00538881
-0.0052151
-0.00014462
0.000118444
-0.000236456
-1.0863e-06
-0.00362617
-0.000274229
9.65135e-05
-0.00350789
-0.000249454
0.00027571
0.00255093
-0.00264579
-0.000214139
0.000218484
-8.31404e-05
3.92518e-05
-0.00225548
-0.000120838
0.000133512
-0.00209994
-0.00011507
0.000204208
-0.00120446
-9.00989e-05
0.000303543
8.33201e-06
-0.000309496
-8.49857e-05
0.000136308
0.00548716
-0.00571805
-0.000390199
-0.000124271
-0.000188566
-0.000141774
-0.00532232
3.36065e-05
0.000161108
0.00519819
-0.00515798
-0.000352014
5.68092e-06
-0.000139869
-0.000112625
-0.00471985
-0.000252862
-9.20376e-05
-0.00504399
-0.000186133
0.000347681
0.00478849
-0.00483859
-0.000166489
0.000317973
-0.000226068
4.06264e-06
-0.00355888
-0.000276049
0.000102611
-0.00350042
-0.000250795
0.000292756
-0.00277127
-0.000212521
0.000448242
0.0012909
-0.00147694
-0.000172797
0.000283213
-8.35228e-05
4.7084e-05
-0.00228965
-0.000119603
0.00013834
-0.00224508
-0.000114041
0.000190521
-0.00142395
-8.60971e-05
0.000354944
-0.00066418
-9.036e-05
0.000219452
0.000685546
-0.000895434
-9.45497e-05
0.000382568
0.00479616
-0.00451699
-0.000418986
0.00023819
-0.000533818
0.000127641
-0.00599503
-0.000219245
0.000439609
0.00501473
-0.00514824
-0.00053519
0.000230204
-0.000437876
-6.6538e-05
-0.0052759
9.67927e-05
5.21571e-05
-0.00501567
-0.000252897
0.000482173
0.0050827
-0.00521554
-0.000353665
0.000394684
-0.000138577
6.6002e-06
-0.00474186
-0.000270586
-0.000125303
-0.00485006
-0.000218875
0.000321077
-0.0048626
-0.000190448
0.000577955
0.00356284
-0.00376372
-9.53189e-05
0.000446999
-0.000188975
7.10945e-05
-0.00356532
-0.000275259
0.000110882
-0.00349372
-0.000255293
0.000280283
-0.00290986
-0.000201966
0.000525097
-0.00169195
-0.00016767
0.000357167
0.00250697
-0.00265966
-0.000157825
0.000226283
-9.33276e-05
4.93098e-05
-0.00232563
-0.000118221
0.000120883
-0.00237244
-0.000113116
0.000177685
-0.00163572
-7.99551e-05
0.000352039
-0.00101855
-8.37704e-05
0.000238021
-0.00112188
-0.000101935
0.000194963
0.0014049
-0.00159879
-9.56277e-05
0.00082657
0.00520661
-0.00514765
-0.000107414
0.000663352
-0.000578051
0.000424091
-0.00426122
-0.000401265
0.000692911
0.00457757
-0.00448619
-0.000763672
0.000465813
-0.00059707
7.20639e-05
-0.00612415
4.79695e-06
0.000487368
-0.00524377
-0.000558923
0.000514883
0.00442816
-0.00435184
-0.000644218
0.000559461
-0.000408916
6.29142e-05
-0.00535296
0.000129542
-3.1675e-05
-0.00483955
-0.000172954
0.00042503
-0.00522631
-0.000346085
0.000822688
0.0045272
-0.00483357
-0.000292036
0.000654495
-6.89349e-05
0.000169573
-0.00485558
-0.000347566
-0.000182559
-0.00461495
-0.000212258
0.000265697
-0.00488181
-0.000185078
0.000524986
-0.00377184
-0.00018221
0.000589636
0.00396795
-0.00409699
-0.000198751
0.000387758
-0.000173907
7.768e-05
-0.00359325
-0.000273556
7.09279e-05
-0.00347219
-0.000246834
0.000290621
-0.00308266
-0.00019543
0.000522229
-0.00190189
-0.00016221
0.000350413
-0.00276585
-0.000173868
0.000414729
0.00315303
-0.00333889
-0.000191728
0.00019726
-9.3942e-05
2.55122e-05
-0.00233735
-0.000118684
0.000116755
-0.00249422
-0.000113203
0.000167372
-0.00183904
-7.71691e-05
0.000333314
-0.00135626
-7.55525e-05
0.000239433
-0.00134708
-9.80019e-05
0.000207974
-0.00180339
-0.000105307
0.000202311
0.000196903
-0.000405281
-8.95606e-05
0.00141764
0.00567716
-0.00592235
0.000555046
0.00116324
-2.09456e-06
0.000921509
-0.00512767
-1.11999e-05
0.00108673
0.00466524
-0.00479543
-0.000371037
0.000705569
-0.000777633
0.00032957
-0.00418715
-0.000182024
0.000817628
-0.004433
-0.000784712
0.00065367
0.00408405
-0.00419356
-0.000792941
0.000523041
-0.000605767
0.000109734
-0.00628978
4.63947e-05
0.000499443
-0.00538
-0.000390098
0.000542241
-0.00404571
-0.000982269
0.000705888
0.0042279
-0.00409861
-0.000656708
0.000892593
-0.000244459
0.000235407
-0.00550831
3.4624e-05
-0.000109216
-0.00473942
-4.39304e-05
0.000393922
-0.00523431
-0.000293177
0.000489784
-0.00481573
-0.000328714
0.000901763
0.00400235
-0.00411648
-0.000490029
0.000704029
-0.0001908
0.000289956
-0.00507779
-0.000403536
-0.000146082
-0.0044931
-0.000252405
0.000191781
-0.00478252
-0.00021271
0.000565738
-0.00385065
-0.000149781
0.000570715
-0.00419956
-0.000299934
0.000726261
0.00335338
-0.00349823
-0.000365427
0.000434438
-0.000213067
6.37537e-05
-0.00362513
-0.000281789
9.7886e-05
-0.00347587
-0.000251012
0.000243321
-0.00321459
-0.000190859
0.000510876
-0.00211392
-0.000160961
0.000339881
-0.0028532
-0.000175306
0.000414032
-0.00351461
-0.000204212
0.000561267
0.0015266
-0.0018646
-0.000212694
0.000199838
-8.59075e-05
2.27733e-05
-0.00234494
-0.00011891
0.000116484
-0.00261642
-0.00011297
0.00015694
-0.00203331
-7.58789e-05
0.000322443
-0.00168502
-7.08539e-05
0.000235063
-0.00156407
-9.36251e-05
0.000198807
-0.00199616
-0.000104035
0.000223185
-0.000632134
-0.000101641
0.000220045
-0.00105375
0.000819715
-7.55748e-05
0.00169254
0.00643283
-0.00663465
0.00147709
0.00134769
0.000604221
0.00157511
-0.00614714
0.000602728
0.00130526
0.00518215
-0.00488841
4.27786e-05
0.00105404
-0.000355512
0.00101835
-0.00530576
-7.4414e-05
0.00119041
-0.00471529
-0.000464128
0.00115152
0.00397388
-0.00415268
-0.000690083
0.000545964
-0.00081391
0.000298589
-0.00417561
-3.8326e-05
0.000925645
-0.00459613
-0.000445097
0.000773
-0.00420772
-0.00100131
0.000685115
0.00441515
-0.00438706
-0.000800257
0.000883141
-0.000620719
0.000134358
-0.0063039
-2.53449e-06
0.00032592
-0.00547951
-0.000289232
0.00065761
-0.00420271
-0.000496786
0.000438101
-0.00411232
-0.000916871
0.000955859
0.0043283
-0.00434946
-0.000689639
0.00100367
-0.00040729
0.000316076
-0.00572142
-2.5672e-05
-8.63209e-05
-0.00473812
-2.64409e-05
0.000230123
-0.00515052
-0.000166066
0.000730025
-0.00499146
-0.00028174
0.0010049
-0.00433294
-0.000546435
0.00103747
0.00346026
-0.00371034
-0.00055115
0.000764749
-0.000342924
0.000223271
-0.00523297
-0.000414802
-1.3553e-05
-0.00447401
-0.000311187
0.000117924
-0.0047076
-0.00020193
0.000545864
-0.00396487
-0.000133479
0.000466115
-0.00420069
-0.000274886
0.000711072
-0.0037028
-0.000392409
0.00089066
0.00231208
-0.00260008
-0.000406819
0.000567262
-0.000239439
5.0055e-05
-0.00365236
-0.000275754
9.36928e-05
-0.0034775
-0.000257365
0.00025372
-0.0033745
-0.000187879
0.000515297
-0.00233455
-0.000163084
0.0003241
-0.00292064
-0.000182564
0.000348007
-0.00364533
-0.000193782
0.000596146
-0.00223771
-0.000204058
0.000518728
0.000394384
-0.00066435
-0.000241412
0.000216462
-7.28126e-05
2.29128e-05
-0.0023504
-0.000119876
0.000108805
-0.00273104
-0.000113092
0.000153823
-0.00222529
-7.48096e-05
0.00030267
-0.00199499
-6.85797e-05
0.000226369
-0.00177016
-9.11256e-05
0.00018773
-0.00217665
-0.000100869
0.000219147
-0.000850969
-0.000104347
0.000250687
0.000555085
-8.77009e-05
0.000225123
-0.00115913
0.000929232
-7.08021e-05
0.0016876
0.00707477
-0.00709293
0.0018365
0.00140913
0.00136816
0.00191471
-0.00683602
0.001563
0.00153493
0.0057926
-0.00557666
0.00103148
0.00135592
9.80271e-05
0.00194303
-0.0065156
0.000389336
0.0014259
-0.00462729
0.000106119
0.00159423
0.00459258
-0.00498379
-8.719e-06
0.000965211
-0.000705447
0.000888868
-0.00541646
-4.3562e-05
0.00124756
-0.00470431
-0.000407307
0.00128106
-0.00434622
-0.00077865
0.00070208
0.00388965
-0.00365277
-0.000943929
0.000774571
-0.000801422
0.000373799
-0.00424194
-3.12023e-05
0.000741287
-0.00474257
-0.000307249
0.00100669
-0.00437381
-0.000628092
0.000638441
-0.00455215
-0.00103656
0.000959828
0.00455278
-0.00445274
-0.000904264
0.00105299
-0.000717564
7.38121e-05
-0.00611823
-2.12202e-05
0.000250345
-0.00564064
-0.000178063
0.000677387
-0.00428302
-0.000656182
0.000918686
-0.00431975
-0.00047802
0.000973169
-0.00443165
-0.000802948
0.00112224
0.00417116
-0.00411257
-0.000832996
0.00110116
-0.000588071
0.000158694
-0.00579337
-9.22862e-05
0.000131879
-0.00499901
8.9786e-05
0.000224792
-0.00514896
-0.000134867
0.000577902
-0.00509947
-9.00951e-05
0.000877819
-0.00450606
-0.000520331
0.00100736
-0.00389428
-0.000658787
0.0011957
0.0022999
-0.00263678
-0.0005193
0.000918765
-0.000378703
0.00016287
-0.00530063
-0.000435764
0.000141184
-0.00461636
-0.000319944
9.97899e-05
-0.00463401
-0.000230845
0.00046105
-0.00397393
-0.000138623
0.00046236
-0.00423775
-0.000234679
0.000599631
-0.00383719
-0.000392122
0.00092911
-0.00287888
-0.000446575
0.000853395
0.00126242
-0.00156162
-0.00044229
0.000515285
-0.000261706
7.47472e-05
-0.00370084
-0.000280675
8.40509e-05
-0.00348016
-0.000248341
0.0002128
-0.00350817
-0.000182672
0.000516718
-0.00257129
-0.000165188
0.000303521
-0.00297385
-0.000187022
0.000297191
-0.0037447
-0.000192658
0.000554393
-0.00258472
-0.000182021
0.000586946
-0.000966101
-0.000238566
0.00045072
-0.0001654
-7.43223e-05
-0.000227286
0.000219077
-6.93518e-05
3.31449e-05
-0.00236434
-0.000119894
0.000110242
-0.00284696
-0.000114197
0.000151133
-0.00241507
-7.44448e-05
0.000283269
-0.0022853
-6.77639e-05
0.000216426
-0.00196402
-9.11516e-05
0.000176225
-0.00234424
-9.97612e-05
0.000216088
-0.00106255
-0.000105379
0.000248381
0.000294519
-9.21619e-05
0.000246745
0.000675196
-8.04096e-05
0.000166094
-0.000898538
0.000714466
-5.28238e-05
0.00167845
0.00706764
-0.00704983
0.00209004
0.00163876
0.00185339
0.00191775
-0.0070609
0.00196186
0.00179156
0.00605589
-0.00620876
0.00173274
0.00156815
0.00105845
0.00212348
-0.00674386
0.00128166
0.00160672
-0.00553436
0.00133987
0.00180922
0.00539165
-0.00528803
0.000712866
0.00133719
-7.3792e-06
0.00168974
-0.00680841
0.000529844
0.00150275
-0.00470242
0.000209276
0.00166844
-0.005195
-7.00525e-05
0.000881078
0.00386928
-0.00399534
-6.16601e-05
0.000810216
-0.00101546
0.000980167
-0.00566325
0.000122655
0.0011895
-0.00477489
-0.000421183
0.00140627
-0.00468635
-0.000466757
0.000860928
-0.00371851
-0.000935398
0.000863085
0.00427746
-0.00423747
-0.000887175
0.00116727
-0.000730154
0.00043898
-0.00445171
4.75508e-06
0.00057251
-0.00485981
-0.000236127
0.00112789
-0.00442102
-0.000710542
0.000825031
-0.00428732
-0.000799269
0.000904133
-0.00443994
-0.000980329
0.00121189
0.00379816
-0.00395533
-0.000836738
0.00134
-0.00072265
-1.09633e-05
-0.00597977
9.14375e-06
0.000257757
-0.00565075
-0.000136993
0.000612233
-0.00431227
-0.000536258
0.000714179
-0.00446169
-0.000650516
0.00083717
-0.00410395
-0.000765078
0.00103077
-0.00403371
-0.000905215
0.00151254
0.00202991
-0.00228409
-0.000895661
0.00127961
-0.000551279
5.4856e-05
-0.00578855
-0.000127713
0.00036231
-0.00532287
1.04461e-05
9.3544e-05
-0.00505555
2.61982e-06
0.000493586
-0.00530877
4.18999e-05
0.000887412
-0.00466015
-0.000361053
0.000989583
-0.00409748
-0.000707086
0.00124653
-0.00303757
-0.000575412
0.000994657
0.000956299
-0.00100492
-0.000611939
0.00087399
-0.000447649
0.000169663
-0.0053353
-0.00040294
0.000186561
-0.0047885
-0.00036614
5.42132e-05
-0.00458087
-0.000214494
0.000436646
-0.00400243
-0.00012227
0.000343041
-0.00416119
-0.0002547
0.000550809
-0.00393565
-0.000389838
0.000855288
-0.00315064
-0.000421257
0.000933935
-0.00187856
-0.000476618
0.00062134
-0.000149653
-3.76792e-05
-0.000425578
0.000418152
-0.000234038
6.159e-05
-0.00372022
-0.000284683
0.000158287
-0.00355388
-0.000254996
0.000209059
-0.00364262
-0.000171814
0.000514105
-0.00282301
-0.000161786
0.000325468
-0.00306733
-0.000180756
0.00023919
-0.0038029
-0.000191787
0.000506524
-0.00288164
-0.000186167
0.000604639
-0.00126227
-0.000242111
0.000521726
-0.000337547
-0.000250322
0.000331524
-0.00104121
0.000818702
-0.000170207
0.000163878
-5.20451e-05
2.45412e-05
-0.00236985
-0.000119219
9.43613e-05
-0.00294647
-0.000114743
0.000146445
-0.00260063
-7.50862e-05
0.00026797
-0.00255943
-6.82859e-05
0.000206915
-0.00214841
-9.02854e-05
0.000166675
-0.00250271
-9.93533e-05
0.000204682
-0.00126148
-0.000105506
0.000230041
5.61881e-05
-9.70899e-05
0.000228489
0.000437067
-8.25219e-05
0.000186551
0.000507104
-5.96005e-05
0.000129302
-0.00200659
0.00185775
-3.32863e-05
0.00169651
0.00663966
-0.00651127
0.00227669
0.00182147
0.00209822
0.00189454
-0.00696566
0.00210671
0.00194982
0.00589095
-0.00622243
0.00226327
0.0017402
0.00181522
0.00179045
-0.0067374
0.00206796
0.00201551
-0.00650103
0.00184534
0.00177437
0.00556593
-0.00555089
0.00175255
0.00176806
0.000961632
0.0020814
-0.00672569
0.00121664
0.00167972
-0.00568144
0.00125177
0.00204524
-0.00518923
0.000864265
0.00119448
0.00522753
-0.00530662
0.00047855
0.000877294
-0.000176759
0.00140717
-0.00678269
0.000628085
0.00161976
-0.00485494
0.000252105
0.00156966
-0.00498467
-0.000164439
0.00114791
-0.00420596
-0.000146419
0.00094543
0.00437141
-0.00431594
-0.000199469
0.00107504
-0.00109641
0.000946552
-0.0060093
0.000348467
0.00101776
-0.00477434
-0.000323152
0.00152476
-0.004891
-0.000613406
0.000986629
-0.00370649
-0.000640375
0.000809128
-0.00420199
-0.000875877
0.00125664
0.00370794
-0.00395988
-0.000679989
0.00145325
-0.000691847
0.000377815
-0.00485114
0.000245787
0.000300578
-0.00472989
-0.000167984
0.00103827
-0.00450507
-0.000578112
0.000937213
-0.0043244
-0.000896496
0.000826465
-0.00420802
-0.00102048
0.00109512
-0.00401861
-0.000981396
0.00166143
0.00269349
-0.00299388
-0.000685233
0.00162952
-0.000855599
-3.1437e-05
-0.00589072
4.38363e-05
0.000443194
-0.00566792
-5.45661e-05
0.000448175
-0.00435068
-0.000453209
0.000757086
-0.00458052
-0.000680933
0.000822784
-0.0040211
-0.000668732
0.00102967
-0.00401931
-0.000819569
0.00160048
-0.00271963
-0.000823632
0.00119055
0.00135677
-0.00139715
-0.00105117
0.000986108
-0.00064565
6.77289e-05
-0.00573798
-0.000120822
0.000402776
-0.00564181
-2.49891e-05
-6.06258e-06
-0.00496567
-1.91569e-05
0.000453921
-0.0054293
0.000105875
0.000656717
-0.00473611
-0.000195817
0.001002
-0.00421246
-0.000697266
0.0011251
-0.00341101
-0.000603456
0.00120854
-0.00121709
-0.00063785
0.000708863
0.000679897
-0.000722506
-0.000656853
0.000561178
-0.000433688
0.000140773
-0.00530261
-0.000425631
0.000229768
-0.00491758
-0.000345339
5.68947e-05
-0.00455592
-0.000238931
0.000424266
-0.00400584
-0.000121248
0.000318046
-0.00405652
-0.000219526
0.000491879
-0.00404052
-0.000402518
0.000778864
-0.00343252
-0.0003803
0.000917955
-0.00215825
-0.000454888
0.000741852
-0.000272932
-0.000461492
0.000489444
-0.00112235
0.000910549
-0.000371702
0.000329127
-0.000168226
7.08205e-05
-0.00375172
-0.00028782
0.000157336
-0.00364035
-0.000261193
0.000212848
-0.00380177
-0.000162255
0.000499129
-0.00307359
-0.000152395
0.000302871
-0.00314815
-0.000176913
0.000210612
-0.00384791
-0.000179679
0.00045801
-0.00312867
-0.000198092
0.000605269
-0.00158671
-0.00023695
0.000480887
-0.000560603
-0.000271452
0.00035734
0.00058467
-0.000187079
0.000216614
-0.00215897
0.00205221
-0.000150761
0.000121801
-3.3184e-05
1.29674e-05
-0.00236417
-0.000117259
9.05525e-05
-0.00304324
-0.000113002
0.000138783
-0.00277785
-7.6304e-05
0.000256083
-0.00282161
-6.89962e-05
0.000196829
-0.00232428
-8.92475e-05
0.00015729
-0.00265416
-9.61279e-05
0.000196745
-0.00145517
-0.000102413
0.000216446
-0.000166671
-9.90923e-05
0.000226262
0.000199041
-8.53259e-05
0.000187756
0.00029768
-6.0854e-05
0.000153289
0.00168202
-3.71589e-05
8.0423e-05
-0.00286726
0.00278267
-2.91187e-05
0.00183426
0.00590255
-0.00585411
0.00255846
0.00208194
0.00216379
0.00185622
-0.00632064
0.00243238
0.00218555
0.00591795
-0.00621129
0.00233429
0.00194902
0.00211515
0.00161226
-0.0067099
0.00215751
0.00224126
-0.00651659
0.00217511
0.00175319
0.00533354
-0.00545193
0.00240283
0.00191377
0.00183367
0.00205925
-0.00664831
0.0020347
0.00197751
-0.00656063
0.00182977
0.00223371
-0.00570244
0.00180842
0.00156103
0.00534447
-0.00528743
0.00132897
0.00117297
0.000909297
0.00169529
-0.00653983
0.00127741
0.00175451
-0.00572748
0.00112793
0.00198435
-0.00517202
0.000819874
0.00147697
-0.00531538
0.000543968
0.00134319
0.00473486
-0.00461436
-3.9716e-05
0.000966842
-0.00039769
0.00138448
-0.0067625
0.000748507
0.0016597
-0.00503614
0.000167347
0.00167079
-0.00480818
-7.04148e-05
0.00137037
-0.00446485
-0.000289294
0.000912555
-0.00415167
-0.00041412
0.00130092
0.00487311
-0.00473141
-0.00038545
0.00136341
-0.000995142
0.000734541
-0.00643483
0.000654405
0.00099172
-0.00508127
-3.57419e-05
0.00140319
-0.0048636
-0.000715469
0.00128324
-0.00407069
-0.000595226
0.000787211
-0.00396905
-0.000834055
0.00121053
-0.00425972
-0.000691453
0.00174382
0.0036773
-0.00359015
-0.000849535
0.00175116
-0.00068702
0.000674842
-0.00548447
0.000196571
0.000490682
-0.00468065
0.000149057
0.000888511
-0.00463196
-0.000481434
0.00111052
-0.00448839
-0.000767555
0.000717529
-0.00396554
-0.00103372
0.000996752
-0.004028
-0.000978183
0.00164735
-0.00317834
-0.000843807
0.00147143
0.0024266
-0.00260776
-0.000784958
0.00120444
-0.00102407
4.31609e-05
-0.00593546
8.007e-05
0.000365267
-0.00555388
-3.26981e-05
0.000239636
-0.00435547
-0.000295481
0.000709435
-0.00467079
-0.000618453
0.000946971
-0.00419383
-0.000798463
0.0010903
-0.00403992
-0.000736415
0.00141014
-0.00316669
-0.000657552
0.00137971
-0.00141218
-0.000979767
0.0010455
0.00120979
-0.0015703
-0.00102731
0.000749943
-0.00069891
0.000123687
-0.00565891
-9.84382e-05
0.000307306
-0.00573418
-0.00010599
-7.09199e-05
-0.00488374
2.09002e-05
0.000339947
-0.0054431
7.89621e-05
0.00057959
-0.00476974
-0.000122035
0.000871605
-0.00414134
-0.000646657
0.00103272
-0.00370513
-0.000656996
0.00135709
-0.00161813
-0.000641544
0.000815693
-0.000729015
-0.000705183
0.000691843
5.42825e-05
-0.000266362
-0.000647172
0.00047255
-0.000358856
0.000121278
-0.00522175
-0.000411032
0.000242447
-0.00505483
-0.000373489
6.84651e-05
-0.00452175
-0.000235122
0.000405824
-0.00400496
-0.000146506
0.000229776
-0.00390873
-0.000195939
0.000423645
-0.00407712
-0.00039596
0.000696519
-0.00371618
-0.000357369
0.000928193
-0.00244454
-0.000416931
0.000763145
-0.00054714
-0.000462938
0.000519232
0.000706964
-0.000419798
0.000351668
-0.00160078
0.00145911
-0.000365082
0.000214014
-0.000151351
0.000105446
-0.00383444
-0.000286088
0.000183323
-0.00375128
-0.000269653
0.000239023
-0.00400308
-0.000160124
0.000483482
-0.00331947
-0.000143779
0.000276835
-0.00320135
-0.000179204
0.000190802
-0.00388593
-0.000172404
0.000412859
-0.00332998
-0.00019448
0.000580545
-0.0019223
-0.000226609
0.000472785
-0.000785535
-0.000258541
0.000355098
0.000338719
-0.000192843
0.000280368
0.00190181
-0.000163754
0.000177634
-0.0021392
0.00203521
-0.000143976
6.89633e-05
-2.92659e-05
1.51908e-05
-0.00236293
-0.000114256
8.33753e-05
-0.00313312
-0.00011075
0.000126857
-0.00294226
-7.54451e-05
0.000243635
-0.00307236
-6.91874e-05
0.000192518
-0.00249668
-8.91146e-05
0.000143151
-0.00279225
-9.43025e-05
0.000192572
-0.00164567
-9.82007e-05
0.000220172
-0.000391204
-9.80521e-05
0.00023145
-4.41768e-05
-8.73248e-05
0.000191417
8.27081e-05
-6.17704e-05
0.000159113
0.00149967
-3.76226e-05
9.87612e-05
0.0026794
-3.26526e-05
9.13701e-05
-0.00234847
0.00225776
-2.97823e-05
0.00178073
0.00543014
-0.00531055
0.00300117
0.00213659
0.00255524
0.00194796
-0.00585664
0.00283699
0.002181
0.00582719
-0.00584429
0.00258012
0.00205763
0.00246213
0.00177134
-0.00644656
0.00251061
0.00234476
-0.00632248
0.00244008
0.00184214
0.00507545
-0.00536586
0.00253575
0.0017473
0.00223446
0.00186161
-0.00650671
0.00237788
0.00203938
-0.00662083
0.00219989
0.00230106
-0.0057086
0.00236443
0.00173068
0.00535935
-0.00539429
0.00226812
0.00164036
0.00136872
0.00176676
-0.00653451
0.00181824
0.00184581
-0.0066102
0.00199298
0.00226416
-0.00586518
0.0017127
0.00180332
-0.00554878
0.00174343
0.0018091
0.00538731
-0.0048247
0.000300443
0.00125996
0.000255923
0.00179088
-0.0063601
0.00105944
0.0020772
-0.0058134
0.000945833
0.00185415
-0.0051185
0.000891053
0.00166504
-0.00521295
0.000422787
0.00115454
-0.00460822
0.000295833
0.00175839
0.00466659
-0.00489354
-0.000270239
0.00148932
-0.000402829
0.00101711
-0.00683542
0.00111036
0.00205804
-0.00559899
0.000245039
0.00163404
-0.00474249
-0.000129189
0.00155649
-0.00477411
-3.4409e-05
0.000903197
-0.00399985
-0.000557097
0.00130723
-0.00439591
-0.000846315
0.0018125
0.00436013
-0.00401527
-0.000798996
0.00178898
-0.000998519
0.00101349
-0.00671255
0.000582363
0.000769757
-0.00515868
0.000452739
0.00145246
-0.00487208
-0.000591217
0.00160614
-0.00452887
-0.000752918
0.000703818
-0.00384783
-0.00070274
0.000969136
-0.00430473
-0.000761431
0.00176803
-0.00365059
-0.000751682
0.00170878
0.00375555
-0.00352831
-0.00131412
0.00158054
-0.000854047
0.000417158
-0.00572501
0.000247068
0.000460884
-0.0046699
9.02019e-05
0.000553212
-0.0045556
-0.000240883
0.00104849
-0.00453721
-0.000771677
0.00108725
-0.00388221
-0.000991167
0.000956263
-0.00390812
-0.00101956
0.00143021
-0.00327746
-0.000899138
0.00161722
-0.00273561
-0.000953469
0.00152087
0.00241169
-0.0025939
-0.00107812
0.00107301
-0.00105263
0.000242979
-0.00612235
0.000145482
0.000528914
-0.0057803
8.48821e-05
0.00016969
-0.00436699
-0.000261788
0.000595084
-0.00470403
-0.000517382
0.000605603
-0.00411567
-0.000722626
0.000827898
-0.00399572
-0.000798953
0.00119063
-0.00343066
-0.000630362
0.00160267
-0.00162083
-0.000694495
0.00112271
-0.00187247
-0.000984609
0.00101871
0.000519311
-0.00101675
-0.000856733
0.000639886
-0.000666398
0.000107518
-0.00549172
-0.000160512
0.000245309
-0.00567992
-0.000155554
-7.31071e-05
-0.0048641
1.59413e-05
0.000268379
-0.00540531
0.000120556
0.00049016
-0.00485761
-9.35593e-05
0.000827703
-0.00407739
-0.000590045
0.000916876
-0.0038686
-0.000703553
0.00129722
-0.00196707
-0.000677083
0.000905109
-0.000804216
-0.000708306
0.000777607
-0.000549947
-0.000679974
0.000666597
-0.000441146
0.000186032
-0.000706988
0.000355928
-0.000369358
0.000178932
-0.00516257
-0.000370538
0.000322256
-0.00525168
-0.000353122
0.000131832
-0.00455704
-0.000231011
0.000407907
-0.00404214
-0.000122361
0.000173245
-0.0037379
-0.000213743
0.000342446
-0.00403412
-0.000390583
0.000572354
-0.00390201
-0.00036962
0.000914951
-0.00276151
-0.000374806
0.000733708
-0.000758874
-0.00046612
0.000516517
0.000486562
-0.000403955
0.00044784
0.00125924
-0.000387404
0.000142263
-0.000675805
0.000683451
-0.000337358
0.000156248
-0.000150211
0.000108279
-0.00391749
-0.000284499
0.000191868
-0.0038754
-0.000270462
0.00023053
-0.00422168
-0.000154724
0.000480324
-0.0035813
-0.000134979
0.000289347
-0.00326268
-0.000179276
0.000134362
-0.00388129
-0.000175054
0.000335666
-0.00346808
-0.000177394
0.000541427
-0.0022288
-0.000209231
0.000501636
-0.00104578
-0.000236553
0.000371254
9.45211e-05
-0.00019418
0.000324496
0.00170761
-0.000164028
0.000220775
0.00190591
-0.000156471
0.000132794
-0.00185934
0.00180364
-0.000129699
8.01662e-05
-2.96348e-05
6.76468e-06
-0.00235352
-0.00011302
7.85832e-05
-0.00321762
-0.000108344
0.000112798
-0.00309169
-7.41183e-05
0.00023417
-0.003313
-6.8973e-05
0.000191833
-0.00266885
-8.88452e-05
0.000128192
-0.00291722
-9.23384e-05
0.000174383
-0.00181736
-9.69946e-05
0.000227933
-0.000621705
-9.56334e-05
0.000229423
-0.000283313
-8.83387e-05
0.000191778
-0.000133454
-6.29414e-05
0.000166619
0.00130906
-3.7781e-05
0.000110974
0.00256405
-3.32411e-05
0.000110185
0.00214799
-3.30623e-05
6.91044e-05
-0.00157897
0.00150067
-2.05844e-05
0.00167054
0.0053344
-0.00521654
0.00347008
0.00192113
0.00308042
0.00195605
-0.00539587
0.00335687
0.00207172
0.00572514
-0.00565021
0.00303552
0.00199228
0.00293015
0.00170153
-0.00577493
0.00282495
0.00232022
-0.00576929
0.00278654
0.00199229
0.00519736
-0.00559766
0.00283027
0.00136633
0.00266957
0.00158763
-0.00622397
0.00258069
0.00217913
-0.00641938
0.00246775
0.00219641
-0.00565678
0.00283566
0.00204582
0.00517135
-0.00514108
0.00219035
0.00171335
0.00209899
0.00162789
-0.00647406
0.00209834
0.00193275
-0.00657454
0.00224465
0.00231823
-0.00588123
0.00231844
0.00207197
-0.00562309
0.00232458
0.00227725
0.00535265
-0.00516062
0.00160793
0.00195728
0.000339562
0.00183664
-0.00632622
0.00177122
0.00196299
-0.00650783
0.00183007
0.00223028
-0.005926
0.00167767
0.00197037
-0.00568213
0.00154071
0.00183981
-0.00457993
0.000813397
0.0020854
0.00518838
-0.00500412
-0.000210824
0.00189531
-0.00038629
0.00141466
-0.00639541
0.00130407
0.00251986
-0.0057667
0.000550919
0.00179123
-0.00516666
0.000836804
0.0019128
-0.005166
0.000487788
0.00119786
-0.00456478
8.46847e-05
0.00163387
-0.00477418
-0.000150159
0.00199164
0.00522462
-0.00510666
-0.000567335
0.00188761
-0.000726145
0.000826977
-0.00652206
0.00115089
0.00162412
-0.00596779
0.000624792
0.00195345
-0.00500314
4.70028e-06
0.00190934
-0.00515953
-4.69646e-05
0.000906905
-0.00426485
2.74972e-05
0.0011444
-0.00412434
-0.00100393
0.00189021
-0.00381331
-0.00117046
0.00218632
0.00425674
-0.00447034
-0.00106293
0.00171681
-0.00138526
0.000661369
-0.00684898
0.00066543
0.00103066
-0.00565749
0.000511394
0.00123265
-0.0047627
-0.000336072
0.00158556
-0.00495968
-0.00069748
0.000711863
-0.00350772
-0.000717644
0.000997194
-0.00413473
-0.000913673
0.00153036
-0.00382375
-0.000688415
0.0018908
-0.00350492
-0.00104864
0.00183521
0.00361336
-0.00376418
-0.00147764
0.00154301
-0.00114417
0.000529994
-0.0058596
0.000317087
0.000894496
-0.00502466
0.000236245
0.000466626
-0.00465119
-0.000111142
0.0010071
-0.00458851
-0.000601595
0.000681198
-0.00380068
-0.000928801
0.000870847
-0.00393363
-0.00100861
0.00118595
-0.00334739
-0.000944946
0.00167174
-0.00260401
-0.00109981
0.00154643
-0.00271711
-0.00125397
0.00136542
0.00205201
-0.00218819
-0.00128865
0.000942719
-0.000945724
0.00025432
-0.00622616
0.00017707
0.000427778
-0.00607456
0.000257271
0.000227178
-0.00449048
-9.1909e-05
0.000450713
-0.00463677
-0.000511383
0.000778421
-0.00427923
-0.000642083
0.000864235
-0.00391981
-0.000835066
0.0010701
-0.00369208
-0.000690754
0.00160035
-0.00191442
-0.000639898
0.00101108
-0.00182423
-0.00084871
0.00108401
-0.00139195
-0.000915809
0.000746604
0.0016331
-0.00158697
-0.000982875
0.000509211
-0.000696168
0.000162039
-0.00527185
-0.000165469
0.000313307
-0.00568184
-0.000149641
5.43772e-07
-0.00484348
-4.4889e-05
0.000219148
-0.00531131
0.000110699
0.000390916
-0.00495927
4.54704e-06
0.000781022
-0.00408787
-0.000521656
0.00067629
-0.00383585
-0.00072673
0.00121111
-0.00227238
-0.000694404
0.000895944
-0.000931265
-0.000712271
0.00075237
-0.000856305
-0.000637801
0.00075358
-7.02891e-05
-0.000729393
1.12185e-05
0.000562358
-0.000502367
-0.000635934
0.000173153
-0.00034854
0.000187315
-0.00514055
-0.000300642
0.000427901
-0.00553222
-0.000326029
0.000252821
-0.00471267
-0.000219782
0.000465257
-0.00414034
-0.000117749
0.000196273
-0.00362414
-0.000143054
0.00024884
-0.0039801
-0.00038224
0.000457008
-0.00398708
-0.000426861
0.00086037
-0.0030928
-0.000357279
0.00075496
-0.000949469
-0.000437536
0.000520871
0.000263797
-0.000392973
0.000540992
0.0009901
-0.000351309
0.000213406
0.000664654
-0.000361238
0.000100272
-0.000839423
0.000835538
-0.00030095
8.98786e-05
-0.000132363
6.29445e-05
-0.00395899
-0.000281587
0.000199139
-0.00400899
-0.000271464
0.000235705
-0.00445834
-0.000156701
0.000449501
-0.00382776
-0.000123599
0.000287127
-0.00332366
-0.000169297
0.000131113
-0.00389015
-0.000173336
0.000297286
-0.00359421
-0.000171829
0.000503217
-0.00249889
-0.000182584
0.000537701
-0.00134418
-0.000219104
0.000400768
-0.000156743
-0.000194278
0.000341982
0.00150129
-0.00016322
0.000250784
0.00174967
-0.000147604
0.000187117
0.00171209
-0.000141856
0.000115209
-0.00170189
0.00160766
-8.15705e-05
5.63264e-05
-2.01103e-05
5.88538e-06
-0.00234419
-0.000110208
6.20567e-05
-0.00328663
-0.000106062
0.000108158
-0.00323599
-7.21999e-05
0.000223919
-0.00354259
-6.84427e-05
0.000183662
-0.00283325
-8.82353e-05
0.000117345
-0.00303241
-9.1003e-05
0.00016358
-0.0019796
-9.36812e-05
0.000229081
-0.000853767
-9.40137e-05
0.000229209
-0.000521246
-8.691e-05
0.000188541
-0.000346664
-6.36692e-05
0.000172069
0.0011121
-3.80418e-05
0.000124046
0.00243568
-3.34597e-05
0.000124982
0.00202338
-3.36197e-05
9.30373e-05
0.00139789
-2.33253e-05
0.000138158
-0.000848505
0.000688308
1.45505e-06
0.0016284
0.00541989
-0.00534243
0.00380004
0.00179606
0.00351175
0.00219657
-0.0053902
0.00379495
0.00198493
0.00529872
-0.00538788
0.00364604
0.00189306
0.00351207
0.00182539
-0.00549907
0.00329918
0.00230937
-0.005558
0.0032755
0.0015755
0.00533731
-0.00531247
0.00342747
0.00118946
0.00350679
0.00165701
-0.00585813
0.00296339
0.00232379
-0.00580667
0.00271767
0.00216811
-0.00592979
0.00314697
0.00238961
0.00525914
-0.00542893
0.00265628
0.00210788
0.00206942
0.00146397
-0.00610784
0.00254028
0.00196797
-0.00635011
0.0024762
0.00212203
-0.0057076
0.00271476
0.00232747
-0.00543336
0.00287243
0.00301326
0.00530645
-0.00486718
0.00101506
0.00249725
0.00128936
0.00171814
-0.00637468
0.00209845
0.00180504
-0.00656412
0.00224587
0.00253672
-0.00612332
0.0021803
0.00217283
-0.00569177
0.00218466
0.0023437
-0.00502442
0.00168449
0.00287582
0.00557674
-0.00522136
0.000462131
0.00217091
-0.000263743
0.00143687