/*--------------------------------*- C++ -*----------------------------------*\
  =========                 |
  \\      /  F ield         | OpenFOAM: The Open Source CFD Toolbox
   \\    /   O peration     | Website:  https://openfoam.org
    \\  /    A nd           | Version:  7
     \\/     M anipulation  |
\*---------------------------------------------------------------------------*/
FoamFile
{
    version     2.0;
    format      ascii;
    class       volVectorField;
    location    "3.5";
    object      U;
}
// * * * * * * * * * * * * * * * * * * * * * * * * * * * * * * * * * * * * * //

dimensions      [0 1 -1 0 0 0 0];

internalField   nonuniform List<vector> 
18720
(
(0.647238 1.11602 -2.48203)
(0.107566 1.97925 -1.98243)
(0.619997 1.13252 -2.47041)
(0.658782 1.08897 -2.49375)
(1.22562 0.956933 -2.54648)
(-0.473866 2.59826 -0.761992)
(0.0515283 2.00676 -1.94699)
(0.241994 1.92454 -2.04916)
(1.11325 1.69048 -1.79245)
(1.16555 0.948021 -2.53216)
(0.682516 1.06929 -2.49429)
(1.30327 0.926386 -2.56492)
(1.77739 0.508822 -2.24766)
(-0.850872 2.73089 0.0668957)
(-0.443953 2.69328 -0.812492)
(-0.221487 2.47203 -1.02712)
(-0.326427 2.65918 -0.478048)
(0.955473 1.93227 -1.79374)
(0.413523 1.76677 -2.09984)
(0.904676 1.78743 -1.74084)
(1.44038 1.37995 -1.68557)
(1.85755 0.513783 -2.26698)
(0.754574 1.03241 -2.4884)
(1.26093 0.928878 -2.61695)
(1.67738 0.517375 -2.2374)
(2.69165 0.181176 -1.55622)
(0.102139 2.81753 -0.932352)
(-1.07817 2.6986 -0.05823)
(-0.46248 2.72085 0.503085)
(-0.077042 2.58464 -0.694507)
(-0.432772 2.68312 -0.471902)
(-0.0308025 2.42782 -1.18344)
(-0.0678807 2.60836 -0.704898)
(0.740802 2.39657 -0.848093)
(1.62112 1.3443 -1.73382)
(0.273214 1.79877 -2.0536)
(1.10927 1.74144 -1.7721)
(1.4743 1.29786 -1.68938)
(2.26944 0.773757 -1.64188)
(2.48036 0.176853 -1.54874)
(0.862644 1.00826 -2.45133)
(1.30672 0.925012 -2.62771)
(1.61064 0.526517 -2.19671)
(2.85462 0.188729 -1.52641)
(1.85732 0.485994 -2.37111)
(0.228187 2.33089 -0.433046)
(0.0726882 2.70886 -1.24021)
(0.221776 2.93532 -0.350756)
(0.636479 2.56232 -0.909671)
(-0.0121653 2.62797 -1.08238)
(0.0657961 2.6633 0.523743)
(-0.236449 2.5706 -0.225172)
(1.04047 2.62443 -1.53156)
(0.703405 2.43844 -0.807379)
(0.536111 2.3405 -1.5178)
(0.0194495 2.43794 -0.936705)
(0.868436 2.41504 -0.871072)
(1.44414 1.87685 -0.737302)
(2.10501 0.83233 -1.75775)
(0.545311 1.71396 -2.10913)
(1.36426 1.37188 -1.86007)
(1.48876 1.28666 -1.6697)
(2.48156 0.712024 -1.29257)
(1.68364 1.36117 -1.03238)
(1.90334 0.477086 -2.31061)
(0.911205 0.942791 -2.41185)
(1.40534 0.897062 -2.6212)
(1.57004 0.543158 -2.15238)
(2.90959 0.178869 -1.38963)
(1.85701 0.477741 -2.26132)
(1.68176 0.843851 -2.0072)
(0.628437 2.61534 -0.00229694)
(0.295051 2.4157 -0.846466)
(0.366373 2.16188 -0.340605)
(0.706338 2.289 -1.28668)
(0.548326 2.53708 -1.32823)
(0.349155 3.01053 0.285816)
(0.631562 2.55988 -0.497851)
(0.850935 2.26618 -1.70976)
(1.02183 2.62271 -1.68408)
(0.388344 2.63885 0.361196)
(-0.224557 2.47347 0.079449)
(0.913679 2.62426 -1.20465)
(1.71107 2.30019 -0.672144)
(1.43284 1.8461 -0.523617)
(1.00694 2.22403 -1.7904)
(0.00715334 2.4082 -0.764205)
(1.01969 2.38219 -0.889932)
(1.64098 1.82152 -0.767779)
(1.22252 2.05976 -0.16265)
(1.65042 1.36511 -1.1264)
(0.590825 1.7147 -2.09379)
(1.10589 1.59865 -1.78502)
(1.49179 1.28424 -1.66592)
(2.42545 0.590519 -1.17995)
(1.76462 1.31484 -1.082)
(1.51999 1.68071 -1.3389)
(1.64446 0.82168 -2.00347)
(0.715426 0.995317 -2.42305)
(1.44789 0.878675 -2.64943)
(1.54489 0.556273 -2.13985)
(2.82363 0.173872 -1.20547)
(1.86766 0.465132 -2.12148)
(1.70788 0.821343 -2.01263)
(1.42226 0.201362 -2.39205)
(1.16448 2.9186 1.36695)
(1.02587 2.59805 0.397885)
(0.812852 2.45285 0.320569)
(1.05398 2.38494 -0.38364)
(0.565993 2.31762 -1.50269)
(0.401386 2.03161 -0.31822)
(1.01115 2.11741 -1.16103)
(0.740312 2.03458 -1.83475)
(0.915668 2.29647 -1.66277)
(0.861436 3.04591 0.0455218)
(0.62942 2.59852 -0.22491)
(0.881155 1.91213 -1.97924)
(1.31513 2.36221 -1.66969)
(1.78503 2.32429 -0.926772)
(1.17285 2.52685 -0.36208)
(-0.179779 2.46078 0.386664)
(0.84428 2.45082 -1.01443)
(1.22627 2.49528 -0.766327)
(1.88851 2.08299 -1.24872)
(1.30232 2.06763 -0.149219)
(1.26058 2.25402 -1.87658)
(0.295186 2.29959 -1.15528)
(1.2951 2.17044 -1.02561)
(1.81114 1.79605 -0.734895)
(1.0168 2.02711 -0.791768)
(1.81178 1.76839 -1.64368)
(1.4535 1.66746 -1.45893)
(0.702372 1.6888 -2.08353)
(1.23354 1.51276 -1.82686)
(1.54017 1.25839 -1.66249)
(2.3274 0.721649 -1.09288)
(1.93751 1.21633 -1.15542)
(1.51664 1.65158 -1.30957)
(2.10146 0.916968 -1.57841)
(1.40673 0.180425 -2.29736)
(0.775726 0.948915 -2.41498)
(1.53288 0.829306 -2.68204)
(1.59454 0.55709 -2.12298)
(2.64542 0.203536 -1.12034)
(1.87299 0.459489 -1.99603)
(1.73505 0.799602 -1.99686)
(1.50486 0.230657 -2.38749)
(1.7095 -0.402089 -1.7462)
(1.62398 3.26567 1.96245)
(1.27622 2.87222 1.40272)
(1.35589 2.9382 1.33305)
(1.42587 2.46353 0.306955)
(0.949781 2.39622 -0.437933)
(0.838946 2.53194 0.247641)
(1.17755 2.28813 -0.36772)
(1.00257 2.05328 -0.927313)
(0.429874 2.18032 -1.63594)
(0.357292 2.03095 -0.148374)
(1.35143 2.13629 -0.33541)
(0.87974 2.04838 -1.71436)
(0.982695 2.44585 -1.42673)
(1.52267 2.27333 -1.36212)
(1.20026 2.97469 -0.174874)
(0.674067 2.65518 0.145698)
(1.12208 2.04528 -1.56238)
(0.629572 1.41579 -2.58399)
(1.713 2.21904 -1.51174)
(2.19873 2.18931 -0.573736)
(1.78745 2.43538 -0.844947)
(0.0213068 2.41291 0.431586)
(0.470671 2.60241 -0.59984)
(1.51552 2.22489 -0.686037)
(1.98283 1.96367 -1.17057)
(2.18707 1.83935 -1.88644)
(1.84985 1.8071 -1.56285)
(1.33326 2.29383 -1.88509)
(0.605089 2.10606 -1.5329)
(1.15685 2.19964 -1.00719)
(2.02649 1.54353 -0.828302)
(0.979577 2.00781 -0.462359)
(1.67991 1.75807 -1.74066)
(2.43834 1.30114 -1.71399)
(1.99482 0.863155 -1.77547)
(0.82135 1.65069 -2.08219)
(1.23737 1.29496 -1.9572)
(1.52676 1.27458 -1.65468)
(2.54021 0.523298 -1.05375)
(2.00454 1.13315 -1.2259)
(1.4903 1.67216 -1.26372)
(2.06882 0.958254 -1.52839)
(2.04938 0.332237 -1.67169)
(1.76615 -0.399823 -1.65471)
(0.795208 0.913907 -2.41681)
(1.57765 0.801897 -2.72901)
(1.72185 0.534997 -2.10513)
(2.47915 0.250158 -1.08863)
(1.86013 0.455984 -1.91011)
(1.80216 0.798299 -1.95294)
(1.56136 0.234731 -2.36952)
(1.6222 -0.382813 -1.87494)
(1.86803 -0.435118 -1.71319)
(1.40662 3.48816 2.07582)
(0.98968 3.26027 1.98732)
(1.86488 3.31757 1.84803)
(1.13581 2.76463 1.91818)
(1.0893 2.7686 0.382723)
(1.92477 2.96967 0.771011)
(1.59726 2.25367 0.319344)
(1.52665 2.38862 -0.220045)
(0.742433 2.03338 -0.800124)
(1.14427 2.5878 0.350907)
(1.41303 2.19821 -0.481868)
(1.25811 2.01609 -1.12778)
(0.766181 1.92939 -1.41623)
(0.979356 2.18097 -1.64585)
(0.364687 2.09083 -0.107962)
(1.10257 2.16883 0.00190585)
(1.29944 2.03166 -1.30671)
(0.918331 1.95811 -2.01194)
(1.34682 2.2357 -1.77123)
(1.58796 2.19745 -1.72964)
(1.11671 2.88331 -0.103581)
(0.940763 2.6247 0.147809)
(1.15656 1.91675 -1.47604)
(1.77602 2.28738 -0.600315)
(1.83359 2.19979 -1.43404)
(1.84744 2.15027 -2.04117)
(2.1084 1.88004 -1.96939)
(1.71258 2.45571 -0.789227)
(0.765746 2.328 0.640734)
(0.603459 2.46769 -0.550699)
(1.4749 2.3306 -0.39276)
(1.83129 2.10372 -0.865747)
(2.08672 1.81122 -1.98365)
(2.45442 1.304 -1.63827)
(2.48988 1.32096 -1.5669)
(1.4328 2.27278 -1.83197)
(0.774207 2.17449 -1.63736)
(1.44898 1.96562 -1.09673)
(2.03982 1.57705 -0.756238)
(0.979682 1.95419 -0.285585)
(1.47506 1.73061 -1.78987)
(2.43968 1.27444 -1.54985)
(2.21945 0.734917 -1.95901)
(1.89256 0.306708 -1.87531)
(1.05392 1.5549 -2.09917)
(1.25169 1.38873 -1.88123)
(1.51192 1.28943 -1.63029)
(2.6066 0.51091 -1.02684)
(2.03488 1.0357 -1.3053)
(1.41799 1.65118 -1.31159)
(2.03661 1.02499 -1.44237)
(2.34875 0.323515 -1.31509)
(1.87382 0.026411 -1.98616)
(1.88144 -0.428895 -1.65895)
(0.945747 0.802451 -2.3995)
(1.55781 0.796803 -2.78152)
(1.80163 0.494931 -2.10795)
(2.38099 0.29196 -1.07665)
(1.83236 0.457835 -1.86961)
(1.81883 0.780139 -1.97472)
(1.65589 0.238998 -2.29555)
(1.5284 -0.349841 -2.02251)
(1.8381 -0.43578 -1.77968)
(1.32012 -0.33705 -1.5256)
(1.19473 3.45518 2.05681)
(1.05714 3.55209 2.08978)
(1.6688 3.49307 2.01873)
(1.51318 3.00909 2.13055)
(1.23203 3.02487 1.56853)
(2.45309 3.07186 1.43037)
(1.23 2.68392 1.87066)
(1.71363 2.71868 0.671934)
(1.09269 2.34339 -0.171418)
(1.79393 3.09431 0.979902)
(1.73431 2.15489 0.30802)
(1.6012 2.49501 -0.0827364)
(0.709367 1.95295 0.18035)
(0.814996 2.02587 -1.58107)
(1.64753 2.39443 0.657484)
(1.48407 2.14771 -0.464151)
(1.72203 2.09023 -0.832991)
(0.869326 1.68743 -1.26685)
(1.14149 2.14309 -1.77066)
(1.48118 2.4235 -1.54)
(0.558518 2.08029 0.0819492)
(0.963869 2.20471 -0.0160635)
(1.58789 1.92172 -1.16286)
(1.44884 2.19257 -0.979689)
(1.33132 2.12777 -1.68313)
(1.70471 1.9208 -2.01597)
(2.00898 2.21406 -1.84744)
(0.908554 2.88227 0.0268065)
(1.43974 2.52396 0.0112059)
(1.28622 1.93474 -0.979209)
(1.41189 1.85482 -1.50487)
(1.81455 1.78794 -1.61582)
(1.7116 1.90312 -2.2526)
(2.33645 1.05899 -2.07463)
(2.39488 1.24667 -1.78108)
(1.67224 2.42504 -0.644042)
(1.74163 2.12974 0.165185)
(0.408781 2.55445 -0.0342517)
(1.32224 2.32419 -0.257302)
(2.09553 1.91186 -0.0639675)
(1.94555 1.79654 -2.13107)
(2.33374 1.33154 -1.86661)
(2.36943 0.579866 -1.7855)
(2.28062 0.772896 -1.86844)
(1.6224 2.18622 -1.7995)
(1.01922 2.10629 -1.86986)
(1.42391 1.91921 -1.07522)
(2.15348 1.4165 -0.888591)
(1.01068 1.93567 -0.41709)
(1.44842 1.71955 -1.68269)
(2.34771 1.25833 -1.49667)
(2.0569 0.799437 -2.09877)
(1.77841 0.0446465 -2.10919)
(1.75691 0.0298762 -2.0753)
(1.09779 1.52728 -2.10422)
(1.50746 1.1985 -1.96801)
(1.52767 1.27336 -1.62683)
(2.60057 0.467588 -0.970953)
(2.07978 0.952583 -1.35748)
(1.38756 1.59266 -1.29639)
(1.98013 1.06231 -1.38533)
(2.4809 0.31164 -1.11822)
(1.85496 0.0661273 -1.99042)
(1.42799 -0.398959 -1.47621)
(1.32178 -0.348296 -1.4928)
(0.862014 0.820031 -2.38088)
(1.53556 0.778852 -2.80537)
(1.82759 0.485989 -2.11416)
(2.34919 0.316178 -1.07632)
(1.81502 0.447044 -1.87121)
(1.79984 0.738781 -2.01713)
(1.66905 0.216988 -2.26526)
(1.4497 -0.324159 -2.15948)
(1.82104 -0.436687 -1.83594)
(1.32027 -0.325237 -1.56968)
(1.03606 -0.890572 -0.897922)
(1.14554 3.24454 2.11667)
(1.02504 3.55438 2.07395)
(1.45224 3.3704 1.96986)
(1.3356 2.93707 2.27885)
(1.09505 3.05485 2.14177)
(1.83342 3.19865 2.20506)
(1.66669 3.10213 2.09253)
(1.47379 2.79845 1.81617)
(1.31378 2.71908 1.07159)
(2.49414 2.95725 1.58832)
(1.58649 2.59763 1.60561)
(1.75629 2.45814 1.2009)
(0.992412 2.60729 1.10467)
(0.694204 1.9472 0.11241)
(1.90436 2.95197 1.14302)
(1.8524 2.01845 0.501785)
(1.7447 2.38416 0.214407)
(1.0472 1.99948 -0.150423)
(0.7902 2.18454 -0.350735)
(1.30682 2.20037 -1.85675)
(1.95351 2.33874 0.911922)
(1.50009 2.0377 -0.230478)
(1.95245 2.07175 -0.876786)
(1.03857 1.78978 -0.644016)
(0.985482 2.06699 -1.57679)
(1.56353 1.91026 -1.27294)
(2.04598 2.09807 -1.44721)
(0.923657 2.10522 0.310932)
(0.839277 2.30314 -0.0223461)
(1.56235 1.92762 -0.879112)
(1.45623 1.82681 -1.464)
(1.17654 1.96983 -1.93248)
(1.58704 1.88474 -2.02768)
(2.55617 1.46448 -1.39407)
(2.57607 1.23201 -1.78444)
(0.905784 2.81429 0.187042)
(1.6083 2.44818 0.0274903)
(1.26709 1.84223 -0.660656)
(1.58943 2.01774 -1.45218)
(1.87781 1.76697 -1.4673)
(2.07965 1.80514 -1.88807)
(2.41856 1.13661 -1.75703)
(1.7041 0.72501 -2.41131)
(2.34035 0.672612 -1.8109)
(1.84833 2.30283 -0.289111)
(1.99448 2.14498 -0.193738)
(0.509111 2.47902 -0.139595)
(1.37377 2.40867 0.0895747)
(1.76861 2.03225 0.605069)
(1.99514 1.82144 -1.95799)
(2.249 1.40259 -2.02424)
(2.58509 0.442451 -1.59515)
(1.64368 0.392356 -2.11656)
(1.61288 -0.00203578 -2.244)
(1.687 2.09958 -1.84379)
(1.60732 1.97627 -1.66107)
(1.63085 1.77299 -1.19486)
(2.32502 1.23814 -0.798586)
(1.37438 1.73871 -0.133887)
(1.2799 1.76122 -1.70869)
(2.25165 1.28728 -1.5951)
(2.1556 0.840463 -1.95481)
(2.01091 0.00397219 -1.90233)
(1.32175 -0.436359 -1.71041)
(1.42529 -0.42201 -1.47641)
(1.24387 1.42857 -2.06637)
(1.48655 1.23587 -2.04259)
(1.63995 1.2547 -1.62259)
(2.60703 0.466916 -0.82965)
(2.12417 0.867072 -1.35464)
(1.4635 1.55991 -1.16675)
(1.89937 1.09288 -1.37205)
(2.29292 0.33743 -1.26323)
(1.5051 0.0617271 -2.26842)
(1.44789 -0.375359 -1.48217)
(1.0939 -0.982451 -1.12231)
(1.02527 -0.900858 -0.881737)
(0.788059 0.859828 -2.35513)
(1.55997 0.762657 -2.78948)
(1.81636 0.499185 -2.09659)
(2.33767 0.337552 -1.12333)
(1.81957 0.439258 -1.92494)
(1.82578 0.725945 -1.96949)
(1.7604 0.207013 -2.19496)
(1.44674 -0.297241 -2.21944)
(1.75566 -0.431174 -1.92606)
(1.33357 -0.312974 -1.61911)
(1.04464 -0.885094 -0.915896)
(0.654217 -1.3385 -0.633271)
(1.02846 2.85931 2.27375)
(1.11445 3.39079 1.83483)
(1.34357 3.03927 2.17659)
(1.41353 2.97672 2.11862)
(1.27813 2.92628 2.25005)
(1.49165 3.34345 2.03031)
(1.62197 3.12432 1.99504)
(1.28359 2.61643 2.40723)
(1.45915 2.7581 1.95628)
(2.03725 2.97246 2.11622)
(1.82683 3.03474 2.11153)
(1.85629 2.67116 1.7536)
(1.12212 2.61986 2.16622)
(0.682606 2.59014 1.37109)
(2.17888 2.90553 2.04671)
(2.03592 2.50141 1.31156)
(1.75396 2.34608 1.3105)
(1.32799 2.55229 0.770677)
(0.988147 2.2121 0.156742)
(0.878153 2.26234 -0.603477)
(1.8523 2.94818 1.42179)
(1.76085 2.10997 0.574972)
(2.08176 2.00832 0.13205)
(1.43413 1.96666 -0.698939)
(0.933632 2.00815 -0.225916)
(1.20044 2.49416 -0.257274)
(1.5891 1.78963 -1.9725)
(1.98046 2.73405 0.743746)
(1.35335 2.13845 0.251396)
(2.03634 2.06549 -0.791233)
(1.50071 1.63681 -1.111)
(1.22196 1.84394 -1.29954)
(1.30495 2.05371 -1.14769)
(1.96944 1.80971 -1.02098)
(2.57303 1.47717 -1.33622)
(1.31676 2.2955 0.502936)
(1.41433 1.90212 0.603051)
(1.32746 1.94836 -0.57537)
(1.76735 1.85413 -1.25575)
(1.26828 2.06797 -1.87602)
(1.48808 1.93131 -1.91963)
(2.38561 1.42307 -1.55883)
(2.16476 1.31034 -1.39674)
(1.59975 0.797498 -2.4554)
(1.10355 2.71718 0.149542)
(1.76626 2.17915 0.0241579)
(1.12261 1.91453 -0.291862)
(1.69168 1.79323 -1.38178)
(1.52744 1.74127 -1.70771)
(2.34441 1.5999 -1.63754)
(2.29347 1.26522 -1.73583)
(2.04046 0.648369 -2.04944)
(1.17909 0.675292 -2.87756)
(1.49105 0.481701 -2.27826)
(1.87302 2.19961 -0.131208)
(2.04847 2.16814 -0.480436)
(0.590523 2.4627 -0.00380155)
(1.36942 2.37709 -0.00432505)
(1.54162 1.95765 0.549384)
(2.11003 1.6075 -1.65564)
(2.19087 1.38578 -2.12675)
(2.57373 0.425307 -1.60076)
(1.70519 0.301263 -2.08776)
(1.33145 0.122567 -2.09575)
(1.36949 -0.482228 -1.6198)
(1.89994 1.92834 -1.80163)
(1.8293 1.78524 -1.84975)
(1.8007 1.6387 -1.20639)
(2.37654 1.10256 -0.870501)
(1.25159 1.6743 -0.292259)
(1.22684 1.71306 -1.63196)
(2.1982 1.31872 -1.69169)
(2.48973 0.725334 -1.54437)
(2.12696 -0.00576443 -1.8386)
(1.18606 -0.450108 -1.85866)
(0.745931 -0.714519 -1.68214)
(1.08902 -0.974615 -1.07793)
(1.38278 1.35109 -1.99545)
(1.59213 1.12438 -2.14407)
(1.76196 1.23662 -1.64496)
(2.63405 0.426457 -0.723612)
(2.13984 0.79524 -1.37236)
(1.4868 1.51535 -1.14177)
(1.8398 1.12977 -1.33222)
(2.11543 0.403503 -1.45457)
(1.60775 0.079657 -2.05762)
(1.42672 -0.362319 -1.51948)
(1.16646 -1.00442 -1.11198)
(0.733249 -0.994657 -1.14334)
(0.680353 -1.3703 -0.636686)
(0.825932 0.834591 -2.31281)
(1.67143 0.706251 -2.71825)
(1.81306 0.508102 -2.04722)
(2.3471 0.352039 -1.16533)
(1.87972 0.413185 -1.94596)
(1.82944 0.716574 -1.90126)
(1.85152 0.177163 -2.10053)
(1.57342 -0.319023 -2.16766)
(1.68626 -0.424116 -1.97388)
(1.36186 -0.308317 -1.66487)
(1.06227 -0.870289 -0.929608)
(0.628931 -1.32887 -0.637318)
(0.747787 -1.10949 -0.714842)
(1.10181 2.58166 2.39332)
(1.18763 3.00705 2.08547)
(1.19736 2.79968 2.26326)
(1.41582 2.89141 2.05388)
(1.16035 2.92766 2.13744)
(1.43185 2.98136 2.15026)
(1.63054 3.02255 1.96237)
(1.2316 2.57642 2.30463)
(1.22347 2.72125 2.12759)
(2.0723 2.68487 2.28725)
(1.79578 3.07002 2.08957)
(1.70536 2.70364 2.09043)
(1.25111 2.61514 2.53332)
(1.06188 2.6578 2.25062)
(2.16833 2.78358 2.02387)
(1.91522 2.95452 2.10659)
(2.09336 2.63049 1.73771)
(1.34866 2.58243 1.93656)
(1.37031 2.52534 0.971601)
(0.601893 2.4839 1.0272)
(2.51952 2.43512 1.81992)
(2.51257 2.39498 0.956411)
(1.84898 2.26279 1.3075)
(1.68007 2.42422 0.554668)
(0.877682 2.24777 0.55284)
(1.32504 2.32455 -0.264598)
(1.27864 2.4158 -0.599255)
(1.91512 2.90816 1.66709)
(2.17686 2.02181 0.665068)
(2.0733 1.9313 -0.12521)
(1.92822 1.98931 -0.370165)
(0.89433 1.88226 -0.0371196)
(1.38357 2.15966 -0.964924)
(1.95736 2.10765 -0.86678)
(1.94898 1.94895 -1.33736)
(2.69127 2.26974 0.72667)
(1.48387 2.11015 1.37644)
(2.14247 1.8028 -0.300366)
(1.91262 1.73576 -1.52669)
(1.24948 1.82762 -0.730571)
(1.42293 1.97326 -1.31653)
(1.8971 1.6823 -0.992358)
(1.7305 1.76438 -1.89496)
(2.17918 1.39278 -1.44078)
(1.76253 2.26314 0.517594)
(1.28376 1.96762 0.255386)
(1.14241 1.98621 -0.0456925)
(1.72214 1.77824 -1.22741)
(2.23444 1.1363 -1.63182)
(1.58462 1.64378 -1.94591)
(2.14318 1.38282 -1.6551)
(2.1397 1.27101 -1.5826)
(2.24034 1.34473 -1.86529)
(1.37199 0.598876 -2.76166)
(1.62401 2.57678 0.173701)
(1.70785 2.2788 0.264731)
(1.06674 1.86197 -0.199333)
(1.62071 1.95531 -1.02336)
(1.74436 1.57583 -1.46542)
(1.94895 1.556 -1.91244)
(2.21768 1.29593 -1.67034)
(2.70542 0.418308 -1.32996)
(1.37528 0.894428 -2.38481)
(1.56047 0.434731 -2.14395)
(1.21397 0.0859467 -2.17903)
(1.8649 2.08741 -0.202563)
(2.12239 2.05009 -0.541341)
(0.727008 2.34797 -0.195865)
(1.45708 2.32114 0.124946)
(1.42651 2.00416 0.488301)
(2.06271 1.49709 -1.23057)
(2.08171 1.49343 -2.16514)
(2.4268 0.50191 -1.82538)
(1.69403 0.211739 -2.14219)
(1.35484 0.142229 -2.06589)
(1.17645 -0.15875 -2.15363)
(0.846238 -0.74151 -1.64819)
(2.16189 1.59478 -1.63037)
(2.15742 1.66276 -1.7566)
(2.06086 1.33528 -1.26721)
(2.41721 1.01355 -0.83478)
(1.19767 1.53174 -0.412744)
(1.28604 1.745 -1.33342)
(2.15064 1.34995 -1.72765)
(2.64747 0.693597 -1.29256)
(2.02933 -0.00352726 -1.91917)
(1.17115 -0.401284 -1.95938)
(0.862945 -0.682902 -1.62792)
(0.75712 -0.295255 -1.61241)
(0.679035 -0.998499 -1.18781)
(1.58663 1.22241 -1.8704)
(1.64171 1.17731 -2.21116)
(1.82909 1.24299 -1.678)
(2.65274 0.403823 -0.681644)
(2.17595 0.677567 -1.367)
(1.43442 1.48751 -1.17338)
(1.79915 1.14961 -1.27247)
(2.0843 0.45551 -1.44398)
(1.86243 0.0355531 -1.72656)
(1.45519 -0.336331 -1.54826)
(1.13295 -1.00363 -1.15022)
(0.771031 -0.978029 -1.13435)
(0.737631 -0.860974 -1.08711)
(0.753976 -1.10634 -0.715023)
(0.805855 0.816325 -2.28305)
(1.70865 0.661781 -2.6644)
(1.83145 0.501613 -1.9994)
(2.37085 0.348524 -1.16188)
(1.95478 0.362858 -1.93297)
(1.78991 0.714564 -1.88722)
(1.77049 0.169624 -2.12018)
(1.69706 -0.355252 -2.10761)
(1.58391 -0.390039 -2.00535)
(1.3389 -0.290899 -1.72121)
(1.0894 -0.861514 -0.936607)
(0.633796 -1.34569 -0.646875)
(0.754354 -1.09366 -0.731327)
(0.609133 -0.727407 -0.620075)
(0.851437 2.52916 2.55924)
(0.959904 2.77817 2.39992)
(1.25312 2.53057 2.3867)
(1.19842 2.81529 2.28889)
(1.16399 2.89584 2.1912)
(1.3675 2.71958 2.27745)
(1.47611 2.73342 2.12824)
(1.15612 2.64126 2.42567)
(0.97544 2.47546 2.50575)
(1.5232 2.86881 2.19393)
(1.62079 2.95397 2.128)
(1.63308 2.63166 2.23918)
(1.21672 2.52554 2.42903)
(1.09664 2.67887 2.45973)
(1.93184 2.90116 1.79807)
(1.94331 2.89938 2.23223)
(1.88686 2.63138 2.09247)
(1.51092 2.64812 2.30024)
(1.34378 2.58111 2.18761)
(1.27136 2.81689 0.980456)
(2.21041 2.57336 2.10868)
(2.40612 2.7509 1.74875)
(2.14538 2.52686 2.12972)
(1.6802 2.55045 1.75205)
(1.22733 2.0937 1.82119)
(1.68282 2.46288 -0.316187)
(1.33699 2.4534 -0.393273)
(2.25537 2.48503 1.98267)
(3.08858 1.92641 0.675066)
(2.03556 2.10343 1.23285)
(1.82439 2.24712 0.719991)
(1.16567 2.14792 0.485804)
(1.21905 2.35442 0.112694)
(1.66662 2.57711 -0.391576)
(1.87791 2.31508 -0.57198)
(2.01806 2.6566 1.78638)
(1.97549 2.36779 1.42724)
(2.24147 1.80366 0.0389212)
(2.52007 1.86708 -0.264004)
(0.900994 1.88275 0.301697)
(1.07207 1.84703 -1.49985)
(1.92516 1.82662 -1.39021)
(2.16608 2.18595 -1.50619)
(1.74403 1.97883 -2.13523)
(2.10844 2.76121 1.25409)
(1.97019 2.09179 1.14497)
(1.80898 1.81542 0.0820494)
(2.09217 1.83416 -1.60638)
(1.18559 1.41859 -0.802075)
(1.43275 1.84111 -1.46913)
(1.79582 1.65213 -1.05656)
(2.00998 1.64968 -1.37257)
(1.76547 1.72116 -2.67468)
(2.10118 1.31422 -2.02815)
(2.21718 2.02848 0.697356)
(2.13654 1.5786 0.404745)
(1.23392 1.92085 0.0911282)
(1.76508 1.74839 -0.840543)
(1.27303 1.69703 -1.59289)
(1.41395 1.61605 -1.99741)
(1.80549 1.33792 -1.85281)
(2.25906 1.07348 -1.69825)
(1.97218 1.15462 -2.03127)
(1.64335 1.08445 -2.51749)
(1.44601 0.243547 -2.34989)
(1.86311 2.4898 0.369722)
(1.80881 2.4149 0.530339)
(1.23226 1.82971 0.193999)
(1.55217 1.81441 -0.973977)
(1.84713 1.54599 -1.37263)
(2.02453 1.45197 -1.79787)
(2.10792 1.30987 -1.77246)
(2.73943 0.434144 -1.26454)
(1.86368 0.700851 -1.81652)
(1.62846 0.582036 -1.99848)
(1.54608 0.846096 -2.20468)
(1.16033 -0.126553 -2.16541)
(1.98701 1.87473 -0.083615)
(2.5038 1.71445 -0.876479)
(0.954709 2.22002 -0.37705)
(1.65428 2.1316 0.227159)
(1.43942 2.03511 0.593674)
(1.84309 1.41551 -0.984589)
(1.74535 1.48088 -2.31836)
(2.35556 0.541778 -2.05544)
(1.68876 0.139832 -2.17335)
(1.35921 0.218438 -2.0355)
(1.32019 -0.0370828 -1.95661)
(-0.00306355 0.303222 -2.32677)
(0.71647 -0.260623 -1.66582)
(2.10571 1.54809 -1.33159)
(2.49263 1.46894 -1.5497)
(2.24626 1.28709 -1.16898)
(2.54104 0.752613 -0.7176)
(1.36227 1.29162 -0.2502)
(1.08581 1.61407 -1.33211)
(1.78208 1.40231 -2.02846)
(2.55422 0.7383 -1.39342)
(2.05304 -0.0481442 -1.83437)
(1.25346 -0.403413 -1.93503)
(1.17089 -0.678129 -1.40934)
(0.818819 -0.348916 -1.56789)
(0.328423 -0.403661 -1.49717)
(0.65004 -0.840424 -1.13517)
(1.61405 1.18958 -1.76539)
(1.69435 1.13694 -2.33474)
(1.89194 1.29685 -1.64246)
(2.7225 0.388388 -0.578159)
(2.21607 0.529901 -1.28713)
(1.44736 1.41705 -1.17784)
(1.71781 1.12828 -1.29034)
(2.14502 0.458323 -1.27758)
(2.05521 -3.89077e-05 -1.48663)
(1.52311 -0.330414 -1.58317)
(1.11676 -0.965694 -1.16333)
(0.827314 -0.98111 -1.10521)
(0.7641 -0.884215 -1.07431)
(0.485446 -0.778605 -0.858246)
(0.577923 -0.750171 -0.611797)
(0.846622 0.793821 -2.23058)
(1.61474 0.661943 -2.64668)
(1.89074 0.467118 -1.93193)
(2.39384 0.361759 -1.15018)
(1.97083 0.314861 -1.93426)
(1.75569 0.715297 -1.89475)
(1.79338 0.138359 -2.08018)
(1.788 -0.382932 -2.0493)
(1.56001 -0.341906 -1.98141)
(1.27066 -0.249675 -1.74785)
(1.09667 -0.847381 -0.938849)
(0.633532 -1.33268 -0.650481)
(0.769931 -1.08199 -0.747915)
(0.644935 -0.710457 -0.623507)
(1.23106 -0.32933 -0.320695)
(0.821714 2.54101 2.58286)
(0.839786 2.67386 2.51774)
(0.954632 2.52964 2.55133)
(1.07618 2.59497 2.45975)
(0.906029 2.80892 2.41815)
(1.11684 2.55415 2.41036)
(1.38844 2.62215 2.362)
(1.19878 2.58328 2.55241)
(0.50385 2.42513 2.87432)
(1.36588 2.57207 2.40416)
(1.66931 2.65605 2.12102)
(1.31083 2.75328 2.26524)
(1.40721 2.70437 2.40449)
(1.03923 2.59123 2.44196)
(1.69199 2.70326 2.17087)
(1.69476 2.83791 2.19953)
(1.82261 2.65402 2.14346)
(1.49329 2.46747 2.54444)
(1.9641 2.51453 1.75898)
(1.36452 2.74959 1.94229)
(2.23728 2.56644 1.94394)
(2.03391 2.82834 2.15029)
(2.13244 2.57476 2.05429)
(1.82391 2.5686 2.19892)
(1.58844 2.40786 2.102)
(1.63852 2.59526 1.15083)
(1.55019 2.77096 -0.225101)
(2.12947 2.66203 2.1402)
(2.77207 2.41031 1.57169)
(2.22763 2.53923 2.13264)
(2.26031 2.55507 1.31753)
(1.33201 2.11112 1.55948)
(1.62897 2.26828 -0.1117)
(1.69444 2.77698 -0.143221)
(1.58366 2.69187 -0.570379)
(2.09146 2.67346 2.05735)
(2.96291 2.01812 1.11341)
(2.74074 1.77912 0.652379)
(2.19976 2.01585 0.646805)
(1.49236 1.96806 0.484558)
(1.41008 2.1619 -0.318956)
(1.79974 2.37711 -0.483257)
(2.19702 2.63061 -1.07835)
(1.97494 2.22135 -1.57246)
(2.36795 2.46123 1.72113)
(2.46103 2.17464 1.34788)
(2.35188 1.76347 0.284817)
(2.70074 2.01734 -0.0168354)
(1.15967 1.92491 0.134552)
(1.39376 1.88192 -0.199456)
(1.7888 1.64797 -1.20307)
(2.09501 2.06717 -1.7476)
(2.40406 2.66712 -1.74408)
(1.70263 1.9958 -2.67926)
(2.24131 2.57867 1.48876)
(2.50346 1.95364 0.868203)
(1.80021 1.83936 0.512912)
(2.26235 1.80053 -1.1128)
(1.45948 1.49118 -0.552103)
(1.57038 1.63827 -1.47458)
(1.70274 1.63544 -1.4115)
(2.23137 1.49814 -1.14586)
(2.05602 1.77502 -1.90389)
(2.04599 1.57576 -2.18486)
(1.47514 1.13224 -2.5866)
(2.3725 1.96279 1.19256)
(2.2409 1.71333 0.520162)
(1.61393 1.85905 0.492848)
(1.6083 1.76093 -0.485497)
(1.89986 1.28376 -1.34692)
(1.72865 1.48728 -1.92116)
(1.81865 1.26819 -1.82316)
(2.34354 0.865241 -1.64072)
(1.25811 1.23028 -2.45588)
(1.54957 0.954591 -2.56528)
(0.927146 0.761079 -2.63295)
(0.84949 0.901078 -2.43685)
(2.16601 2.2707 0.476341)
(1.9989 2.32794 0.4728)
(1.59207 1.77087 0.639555)
(1.44411 1.82966 -0.510836)
(1.78323 1.49815 -1.36202)
(2.26109 1.21139 -1.56386)
(1.80482 1.42865 -2.06859)
(2.63808 0.457391 -1.43792)
(1.91424 0.657721 -1.69926)
(1.60101 0.555554 -2.00284)
(1.4699 0.643565 -2.21882)
(0.0269267 0.310647 -2.65955)
(0.228119 0.25764 -2.23226)
(2.14135 1.54112 0.101999)
(2.83791 1.29138 -0.988791)
(1.71474 1.87092 -0.0643827)
(1.93036 1.85345 0.0828163)
(1.55225 1.96077 0.387635)
(1.7794 1.42238 -0.555269)
(1.77194 1.28778 -2.161)
(2.37629 0.54054 -2.00285)
(1.8394 0.0924563 -2.05909)
(1.3194 0.284339 -2.02424)
(1.42489 -0.0658649 -1.7287)
(0.206885 0.213385 -2.27614)
(0.249567 -0.158713 -1.82778)
(0.142758 -0.371252 -1.53266)
(2.00103 1.66305 -0.949499)
(2.76667 1.37301 -1.26973)
(2.5385 1.03466 -1.10135)
(2.51664 0.809777 -0.703212)
(1.4113 1.22902 -0.322309)
(1.29431 1.55598 -0.924345)
(1.85944 1.32995 -1.90494)
(2.39142 0.844677 -1.6105)
(2.19247 -0.112755 -1.59874)
(1.41731 -0.401646 -1.80318)
(1.2634 -0.616423 -1.34402)
(0.896167 -0.3922 -1.51419)
(0.53075 -0.405346 -1.45103)
(0.466252 -0.362635 -1.20587)
(0.383669 -0.807902 -0.843478)
(1.69366 1.09971 -1.6445)
(1.76004 1.16649 -2.41315)
(2.07982 1.23091 -1.51227)
(2.77082 0.323892 -0.639364)
(2.22382 0.527448 -1.25431)
(1.53428 1.32067 -1.1373)
(1.69325 1.14769 -1.26476)
(2.14295 0.4631 -1.1978)
(2.18407 -0.0324076 -1.29458)
(1.63252 -0.333681 -1.59141)
(1.1291 -0.943702 -1.15152)
(0.905236 -0.94822 -1.09704)
(0.874961 -0.890283 -0.987234)
(0.63437 -0.761937 -0.854838)
(0.926384 -0.746585 -0.354745)
(1.18519 -0.337186 -0.30412)
(0.791498 0.842857 -2.18696)
(1.65471 0.655216 -2.56975)
(1.91916 0.438732 -1.86983)
(2.41129 0.347133 -1.11989)
(1.96764 0.320872 -1.93874)
(1.74177 0.658432 -1.88838)
(1.84842 0.109103 -2.02331)
(1.85585 -0.410712 -1.9509)
(1.5909 -0.346294 -1.99474)
(1.21526 -0.202718 -1.7241)
(1.09466 -0.828074 -0.948768)
(0.638257 -1.30865 -0.666595)
(0.775836 -1.08338 -0.761851)
(0.674931 -0.710652 -0.631044)
(1.26928 -0.322753 -0.345829)
(0.924342 -0.56043 0.39279)
(0.723622 2.55481 2.49626)
(0.615758 2.71049 2.5635)
(1.41552 2.57373 2.29013)
(0.927397 2.65678 2.53096)
(0.856833 2.59925 2.54966)
(1.31718 2.44845 2.32803)
(1.26579 2.57031 2.51038)
(0.518147 2.47745 2.93184)
(0.51291 2.55 3.02234)
(1.43355 2.45822 2.26296)
(1.54678 2.51622 2.32086)
(1.33247 2.59779 2.34366)
(1.44016 2.5069 2.8237)
(1.29831 2.404 3.03781)
(1.46502 2.61009 2.27945)
(1.6976 2.52883 2.24849)
(1.41141 2.81524 2.16438)
(1.54376 2.57847 2.59376)
(1.87187 2.57565 2.13413)
(1.89779 2.78163 1.50316)
(1.83232 2.48676 2.20295)
(1.80101 2.80091 2.13645)
(2.20239 2.3836 2.10462)
(1.6549 2.60883 2.42645)
(1.80678 2.18929 2.41599)
(2.36887 2.87821 0.160433)
(1.56932 2.9271 0.74907)
(2.2279 2.54011 1.98924)
(2.36043 2.61872 2.03398)
(2.27444 2.6245 2.15038)
(2.26621 2.46152 2.01483)
(1.83794 2.19469 1.97016)
(1.72702 2.39639 1.074)
(2.03203 2.70982 -0.147629)
(1.82565 2.80358 -0.355894)
(2.76468 1.82454 2.24539)
(2.83157 2.05569 1.84333)
(2.52472 2.13354 2.03317)
(2.50671 2.45145 1.14839)
(1.27682 2.17971 1.88594)
(1.59185 2.13555 0.360625)
(1.63415 2.71501 0.124324)
(2.3937 3.03255 -0.771457)
(2.1045 2.5076 -1.73243)
(2.61844 2.49309 1.71948)
(2.75457 2.056 1.61464)
(2.47623 2.0585 1.15379)
(2.62779 1.99921 0.43961)
(1.64942 1.96499 0.919633)
(1.67908 1.91079 0.016502)
(1.93952 2.06998 -0.735349)
(2.32485 2.53073 -0.599895)
(2.61934 2.70996 -1.13103)
(2.13551 2.46652 -1.90592)
(2.83589 2.20811 1.58145)
(2.62519 2.17234 1.38419)
(2.43685 1.66493 0.949916)
(2.68608 1.93545 0.412312)
(1.97028 1.79909 -0.014801)
(1.38583 1.6024 -0.31487)
(1.6979 1.76444 -0.73213)
(2.10677 2.16359 -1.33736)
(1.9521 2.36532 -2.44104)
(2.27826 1.63495 -2.24671)
(2.01326 1.34077 -2.36906)
(2.78212 2.21768 1.34971)
(3.07383 1.64662 0.394367)
(2.09082 1.85289 1.35603)
(2.27451 1.77353 0.14367)
(2.28859 1.45811 -0.939436)
(1.70782 1.67154 -1.2646)
(1.86105 1.59688 -1.48641)
(2.28068 1.39068 -1.19304)
(2.14906 1.72089 -1.64031)
(1.92797 1.64767 -2.21748)
(1.33903 0.602459 -2.43581)
(1.13531 0.828097 -2.28373)
(2.4564 2.11738 1.14637)
(2.25955 1.87569 0.883359)
(2.44601 1.37315 0.340407)
(1.64344 1.68516 0.0316966)
(1.86228 1.42809 -1.15851)
(1.71848 1.58999 -1.97359)
(1.94727 1.29979 -1.81069)
(2.32758 0.898754 -1.54422)
(2.17677 0.96489 -1.63637)
(1.55719 1.07042 -2.41805)
(1.05959 0.989663 -2.54695)
(0.777691 0.149054 -2.12744)
(0.693416 0.275343 -2.22646)
(2.38446 2.02976 0.413952)
(2.28459 2.06226 0.38619)
(1.94319 1.65897 0.461701)
(1.33883 1.7784 -0.119492)
(1.81357 1.68723 -0.664644)
(2.1059 1.2029 -1.56273)
(2.00545 1.34999 -1.8522)
(2.47662 0.436646 -1.58354)
(2.26046 0.509218 -1.39783)
(1.48223 0.655684 -2.07675)
(1.47114 0.634031 -2.12682)
(0.483144 0.526706 -2.58538)
(0.295727 -0.107432 -1.95551)
(-0.032657 -0.184122 -1.86643)
(2.0205 1.44827 0.340714)
(2.81345 1.26642 -1.05686)
(1.97603 1.58637 -0.706585)
(2.10248 1.6239 -0.00967472)
(1.69394 1.86904 0.236764)
(1.64415 1.45716 -0.444348)
(1.90704 1.27042 -1.87072)
(2.00258 0.665774 -2.15794)
(2.2391 0.0230462 -1.72521)
(1.26585 0.337295 -2.03377)
(1.43017 -0.0337939 -1.63121)
(0.662459 0.214558 -2.03735)
(0.585141 -0.0599155 -1.74105)
(0.2847 -0.12944 -1.57171)
(0.244405 -0.39847 -1.22877)
(1.88141 1.65397 -0.763306)
(2.80224 1.3714 -1.14249)
(2.85249 0.870855 -0.787935)
(2.59734 0.651416 -0.646569)
(1.63205 1.02686 -0.382541)
(1.14641 1.60218 -0.85791)
(2.0435 1.30932 -1.65577)
(1.98811 0.894319 -2.05789)
(2.1969 -0.100458 -1.57529)
(1.49707 -0.436522 -1.75475)
(1.35084 -0.596616 -1.27486)
(0.94207 -0.441186 -1.45042)
(0.778254 -0.412115 -1.36119)
(0.732646 -0.349795 -1.12225)
(0.387078 -0.422951 -0.829802)
(0.822153 -0.747012 -0.371127)