/*--------------------------------*- C++ -*----------------------------------*\
  =========                 |
  \\      /  F ield         | OpenFOAM: The Open Source CFD Toolbox
   \\    /   O peration     | Website:  https://openfoam.org
    \\  /    A nd           | Version:  7
     \\/     M anipulation  |
\*---------------------------------------------------------------------------*/
FoamFile
{
    version     2.0;
    format      ascii;
    class       volVectorField;
    location    "3.5";
    object      U_0;
}
// * * * * * * * * * * * * * * * * * * * * * * * * * * * * * * * * * * * * * //

dimensions      [0 1 -1 0 0 0 0];

internalField   nonuniform List<vector> 
18720
(
(0.642124 1.12 -2.46851)
(0.0876537 1.99224 -1.96181)
(0.609695 1.13694 -2.45766)
(0.654296 1.09596 -2.48241)
(1.20356 0.961574 -2.52994)
(-0.483407 2.61484 -0.732157)
(0.0467239 2.01211 -1.93436)
(0.223529 1.9422 -2.0354)
(1.13486 1.69796 -1.78443)
(1.14754 0.948442 -2.51522)
(0.676899 1.07665 -2.48509)
(1.30008 0.928925 -2.54222)
(1.79281 0.509319 -2.23455)
(-0.871204 2.73134 0.0407701)
(-0.418032 2.71042 -0.828521)
(-0.230154 2.48146 -1.00154)
(-0.332602 2.66381 -0.463166)
(0.933247 1.95875 -1.77872)
(0.424935 1.77127 -2.09464)
(0.887405 1.8036 -1.7281)
(1.44494 1.38778 -1.67927)
(1.86718 0.516426 -2.25725)
(0.731764 1.03544 -2.48145)
(1.2626 0.930779 -2.59601)
(1.6843 0.519035 -2.23095)
(2.67921 0.167933 -1.56004)
(0.116011 2.80542 -0.946364)
(-1.06924 2.70279 -0.0897632)
(-0.509727 2.72554 0.472484)
(-0.0526688 2.58331 -0.73645)
(-0.439749 2.69299 -0.459946)
(-0.0776361 2.43934 -1.13695)
(-0.10055 2.62247 -0.651678)
(0.729104 2.40785 -0.837633)
(1.61816 1.35662 -1.73102)
(0.249745 1.8092 -2.03844)
(1.09469 1.75337 -1.75906)
(1.46984 1.30525 -1.68432)
(2.25902 0.776888 -1.64372)
(2.46661 0.163107 -1.54695)
(0.813137 1.02182 -2.45928)
(1.29189 0.929283 -2.61644)
(1.61432 0.526939 -2.19495)
(2.85454 0.171367 -1.53028)
(1.86221 0.483533 -2.36566)
(0.236132 2.33616 -0.447393)
(0.0887044 2.69267 -1.25974)
(0.22206 2.91709 -0.433606)
(0.64766 2.55198 -0.951799)
(0.010114 2.62683 -1.13248)
(0.0246208 2.66316 0.540453)
(-0.213609 2.57537 -0.268064)
(1.05146 2.61243 -1.56987)
(0.697343 2.44933 -0.800241)
(0.469494 2.35289 -1.4662)
(0.0231801 2.45033 -0.931782)
(0.851275 2.42504 -0.860708)
(1.43825 1.88563 -0.715688)
(2.0917 0.838271 -1.76118)
(0.52537 1.72009 -2.09869)
(1.35468 1.39252 -1.84625)
(1.48691 1.29132 -1.66342)
(2.46194 0.718493 -1.31349)
(1.68746 1.35795 -1.01711)
(1.9079 0.473628 -2.29354)
(0.950004 0.933889 -2.40554)
(1.38681 0.900712 -2.60856)
(1.57484 0.543359 -2.148)
(2.91881 0.161628 -1.41008)
(1.86167 0.475044 -2.27002)
(1.68393 0.850071 -1.98976)
(0.639063 2.61955 -0.00203406)
(0.317846 2.42047 -0.860683)
(0.370611 2.16757 -0.341366)
(0.700678 2.29093 -1.29489)
(0.557087 2.52966 -1.34862)
(0.331198 3.00398 0.266379)
(0.647413 2.55125 -0.532929)
(0.853405 2.2678 -1.70287)
(1.02429 2.61121 -1.69982)
(0.39512 2.63339 0.377053)
(-0.213923 2.47769 0.0394499)
(0.934056 2.62002 -1.24153)
(1.74608 2.28156 -0.694686)
(1.44496 1.84729 -0.485027)
(0.970249 2.22466 -1.75858)
(-0.00243107 2.41808 -0.743144)
(0.985261 2.40714 -0.866175)
(1.6217 1.83497 -0.762159)
(1.23336 2.05653 -0.149452)
(1.64579 1.36772 -1.13445)
(0.587107 1.71535 -2.08612)
(1.10195 1.60759 -1.77097)
(1.48899 1.28756 -1.66005)
(2.41963 0.591753 -1.1795)
(1.73893 1.32421 -1.05171)
(1.51592 1.68191 -1.34132)
(1.64488 0.824568 -1.98777)
(0.722157 0.995847 -2.41349)
(1.42492 0.885765 -2.62774)
(1.54135 0.556293 -2.1362)
(2.85321 0.154275 -1.20885)
(1.87301 0.462093 -2.1311)
(1.70981 0.830994 -1.99772)
(1.43398 0.20566 -2.37931)
(1.16868 2.91529 1.37598)
(1.01537 2.60327 0.418411)
(0.819292 2.45444 0.321306)
(1.05738 2.38418 -0.378908)
(0.573391 2.31456 -1.50771)
(0.411882 2.03104 -0.327026)
(1.00436 2.11668 -1.18407)
(0.741325 2.03066 -1.83097)
(0.916005 2.2937 -1.65748)
(0.823385 3.0432 0.0816611)
(0.643059 2.59268 -0.239127)
(0.881879 1.91812 -1.97579)
(1.34759 2.38015 -1.63347)
(1.79752 2.3114 -0.95069)
(1.05844 2.53996 -0.237605)
(-0.180418 2.46501 0.392807)
(0.873797 2.44102 -1.04782)
(1.23604 2.50236 -0.778139)
(1.90358 2.08045 -1.23374)
(1.32543 2.06646 -0.147976)
(1.25687 2.24019 -1.86529)
(0.265822 2.31801 -1.10479)
(1.30828 2.17294 -1.01359)
(1.79205 1.81176 -0.728016)
(1.05701 2.02306 -0.731471)
(1.82268 1.76502 -1.63502)
(1.44893 1.66673 -1.46101)
(0.692138 1.69136 -2.07622)
(1.22796 1.5289 -1.81077)
(1.53826 1.25989 -1.65762)
(2.30779 0.726454 -1.09547)
(1.92018 1.22268 -1.12568)
(1.52163 1.65293 -1.3056)
(2.10503 0.912825 -1.58116)
(1.41775 0.185413 -2.28858)
(0.765275 0.955353 -2.40349)
(1.50848 0.839089 -2.6546)
(1.55867 0.563506 -2.12852)
(2.6788 0.181375 -1.11548)
(1.88162 0.455498 -2.00327)
(1.73388 0.801504 -1.9851)
(1.50965 0.233122 -2.38116)
(1.70925 -0.399703 -1.74817)
(1.6018 3.26084 1.97031)
(1.27858 2.87568 1.40907)
(1.34144 2.93317 1.35816)
(1.42032 2.47428 0.315729)
(0.948898 2.3959 -0.432956)
(0.840458 2.52923 0.251709)
(1.17741 2.28873 -0.356999)
(0.998106 2.05135 -0.914117)
(0.426067 2.17687 -1.63507)
(0.368119 2.02845 -0.149942)
(1.36314 2.1273 -0.376462)
(0.86591 2.04225 -1.73115)
(0.989567 2.45359 -1.40428)
(1.53262 2.27031 -1.35296)
(1.21623 2.97256 -0.169664)
(0.676669 2.64953 0.136172)
(1.11871 2.03884 -1.58276)
(0.616818 1.38502 -2.62956)
(1.70454 2.21652 -1.52106)
(2.19726 2.1841 -0.614714)
(1.78343 2.43005 -0.813832)
(0.0127767 2.41281 0.432284)
(0.490311 2.59832 -0.626213)
(1.5198 2.21432 -0.724012)
(1.9914 1.95705 -1.18979)
(2.18533 1.83911 -1.89112)
(1.85616 1.80238 -1.56105)
(1.33399 2.28329 -1.88791)
(0.580008 2.11463 -1.49273)
(1.12169 2.23237 -0.987422)
(2.01638 1.55991 -0.820856)
(0.990525 2.0102 -0.483889)
(1.70686 1.75059 -1.73067)
(2.4427 1.29628 -1.71857)
(1.99783 0.86119 -1.77668)
(0.778638 1.66545 -2.07233)
(1.23748 1.29615 -1.94687)
(1.53084 1.27205 -1.65276)
(2.51705 0.532354 -1.05246)
(2.00356 1.13529 -1.19723)
(1.50333 1.66955 -1.25399)
(2.0773 0.955831 -1.52597)
(2.04403 0.333044 -1.68157)
(1.76601 -0.39717 -1.65891)
(0.742719 0.940707 -2.40942)
(1.57581 0.802731 -2.69432)
(1.68724 0.547679 -2.10175)
(2.50723 0.227631 -1.07867)
(1.87138 0.451373 -1.9117)
(1.78762 0.798851 -1.94308)
(1.56501 0.238922 -2.36407)
(1.62162 -0.380352 -1.87641)
(1.86518 -0.438407 -1.71915)
(1.39138 3.48718 2.07595)
(0.971034 3.26086 1.98833)
(1.8426 3.31976 1.86789)
(1.14088 2.77183 1.91458)
(1.08762 2.77687 0.391165)
(1.93351 2.95665 0.783027)
(1.59435 2.25988 0.326899)
(1.52639 2.38483 -0.215722)
(0.742271 2.03119 -0.79021)
(1.13209 2.58952 0.343836)
(1.41456 2.198 -0.475556)
(1.25031 2.01377 -1.12574)
(0.76796 1.93318 -1.41159)
(0.978213 2.17032 -1.66451)
(0.374942 2.08748 -0.105996)
(1.12731 2.15959 -0.00605983)
(1.2827 2.03054 -1.32106)
(0.905852 1.94363 -2.03408)
(1.35068 2.23604 -1.76844)
(1.57808 2.19969 -1.73603)
(1.14875 2.88625 -0.106774)
(0.909893 2.62366 0.158515)
(1.16146 1.91146 -1.50103)
(1.76422 2.28163 -0.626829)
(1.83211 2.20276 -1.43276)
(1.86422 2.15263 -2.01892)
(2.10757 1.87766 -1.9716)
(1.73771 2.44158 -0.794906)
(0.663583 2.33866 0.659983)
(0.611819 2.46392 -0.55974)
(1.49161 2.3279 -0.400477)
(1.83215 2.09726 -0.932246)
(2.08875 1.80493 -1.98796)
(2.45817 1.29624 -1.64023)
(2.49482 1.31569 -1.55628)
(1.43013 2.26991 -1.82844)
(0.748282 2.17794 -1.60112)
(1.4528 1.97097 -1.09389)
(2.03045 1.59336 -0.745478)
(0.986376 1.95815 -0.264892)
(1.4899 1.72372 -1.79745)
(2.446 1.26904 -1.56402)
(2.22617 0.731458 -1.95361)
(1.89282 0.30708 -1.87995)
(1.03489 1.56217 -2.08554)
(1.22801 1.41027 -1.86123)
(1.51268 1.29022 -1.62795)
(2.60252 0.506775 -1.028)
(2.03322 1.04093 -1.27801)
(1.43042 1.65406 -1.29841)
(2.04482 1.0223 -1.44113)
(2.3491 0.325271 -1.31866)
(1.87176 0.0228112 -1.99056)
(1.88391 -0.431072 -1.66295)
(0.945352 0.797341 -2.39026)
(1.56829 0.792069 -2.7511)
(1.78444 0.500343 -2.09909)
(2.39737 0.273412 -1.06596)
(1.84525 0.456761 -1.86768)
(1.8252 0.790669 -1.94258)
(1.6603 0.244605 -2.28883)
(1.52705 -0.347456 -2.02384)
(1.83461 -0.438797 -1.78352)
(1.31938 -0.339909 -1.52977)
(1.18683 3.45856 2.05734)
(1.0508 3.54527 2.09316)
(1.66841 3.49677 2.01202)
(1.50698 3.00055 2.12863)
(1.2415 3.03046 1.56393)
(2.4387 3.07752 1.44559)
(1.21828 2.68641 1.88626)
(1.71258 2.72603 0.67532)
(1.08394 2.33998 -0.141739)
(1.81043 3.08647 0.968821)
(1.73901 2.15374 0.315215)
(1.60849 2.49173 -0.0736275)
(0.708744 1.95422 0.19237)
(0.813519 2.02606 -1.58239)
(1.63395 2.39669 0.644259)
(1.49096 2.14657 -0.46855)
(1.71511 2.08775 -0.831104)
(0.864604 1.68307 -1.28126)
(1.14983 2.14014 -1.77739)
(1.4948 2.41486 -1.54139)
(0.553645 2.0748 0.0708503)
(0.981182 2.19411 -0.0142619)
(1.60322 1.91657 -1.16441)
(1.43531 2.19658 -0.982183)
(1.33584 2.12901 -1.67923)
(1.73075 1.91877 -1.98387)
(2.01375 2.20612 -1.84175)
(0.934827 2.88203 0.0181599)
(1.41791 2.52547 0.0157398)
(1.29131 1.92948 -1.01081)
(1.41087 1.84459 -1.50634)
(1.81621 1.7916 -1.60952)
(1.70101 1.90751 -2.25887)
(2.34431 1.05516 -2.07793)
(2.39448 1.23567 -1.79407)
(1.67943 2.42041 -0.667717)
(1.69223 2.1285 0.224091)
(0.430244 2.54774 -0.0740947)
(1.33131 2.30796 -0.296038)
(2.1084 1.90255 -0.136686)
(1.96316 1.78815 -2.1227)
(2.34224 1.32269 -1.85812)
(2.37146 0.573042 -1.78379)
(2.28985 0.769233 -1.85726)
(1.61497 2.19581 -1.78558)
(1.0033 2.1107 -1.86077)
(1.40997 1.93619 -1.05841)
(2.13764 1.43663 -0.887029)
(1.014 1.93628 -0.39819)
(1.46063 1.71158 -1.68551)
(2.35799 1.25076 -1.49855)
(2.06863 0.792043 -2.08991)
(1.7805 0.0428458 -2.10912)
(1.75169 0.0253976 -2.08189)
(1.093 1.52951 -2.09477)
(1.49549 1.20696 -1.94673)
(1.521 1.27567 -1.62208)
(2.60247 0.461809 -0.985774)
(2.07833 0.955738 -1.33797)
(1.38359 1.59624 -1.30261)
(1.99217 1.05762 -1.37964)
(2.49448 0.311454 -1.10805)
(1.8607 0.0627934 -1.98749)
(1.42593 -0.403348 -1.4795)
(1.32023 -0.351421 -1.49763)
(0.883757 0.803565 -2.37482)
(1.53688 0.774925 -2.79099)
(1.82197 0.482242 -2.11047)
(2.35416 0.298392 -1.06389)
(1.82037 0.44385 -1.86036)
(1.8 0.740312 -2.0003)
(1.671 0.220451 -2.25762)
(1.44743 -0.321308 -2.15987)
(1.8177 -0.439145 -1.83824)
(1.31995 -0.328078 -1.57391)
(1.03413 -0.892553 -0.904046)
(1.15017 3.24815 2.10786)
(1.03144 3.54888 2.06711)
(1.4517 3.37179 1.96594)
(1.33242 2.92095 2.28688)
(1.09528 3.04504 2.13689)
(1.82692 3.21141 2.19984)
(1.66808 3.09587 2.08942)
(1.46773 2.79235 1.83332)
(1.30854 2.71741 1.09748)
(2.52153 2.95167 1.56111)
(1.58185 2.59684 1.61878)
(1.76334 2.46454 1.1916)
(0.973343 2.60935 1.14106)
(0.696031 1.95177 0.122229)
(1.91482 2.95005 1.13991)
(1.85613 2.01653 0.500921)
(1.73469 2.3944 0.214632)
(1.03653 1.99772 -0.126568)
(0.792928 2.18611 -0.35199)
(1.3169 2.20746 -1.83723)
(1.95416 2.32247 0.917491)
(1.51279 2.02917 -0.24198)
(1.95294 2.06991 -0.882244)
(1.03046 1.78766 -0.635049)
(0.984161 2.06765 -1.58784)
(1.5729 1.90435 -1.27548)
(2.04776 2.08395 -1.45865)
(0.902493 2.09197 0.295884)
(0.820356 2.31755 -0.0540556)
(1.58249 1.92092 -0.897468)
(1.45023 1.82235 -1.46606)
(1.17464 1.97192 -1.93194)
(1.59682 1.87507 -2.02659)
(2.55591 1.46534 -1.38693)
(2.59098 1.23284 -1.77201)
(0.901806 2.82228 0.191513)
(1.61137 2.45531 0.0297138)
(1.28155 1.83364 -0.683734)
(1.58909 2.01126 -1.46008)
(1.8819 1.76885 -1.4679)
(2.05996 1.80591 -1.90369)
(2.42175 1.12908 -1.76337)
(1.70329 0.723537 -2.41509)
(2.32844 0.667255 -1.82236)
(1.84767 2.30638 -0.315559)
(1.99577 2.12503 -0.136835)
(0.515384 2.47732 -0.13196)
(1.3783 2.40478 0.0851837)
(1.81239 2.01732 0.545652)
(1.99495 1.81609 -1.98189)
(2.25087 1.39598 -2.02551)
(2.58293 0.436228 -1.59846)
(1.6424 0.391557 -2.11835)
(1.61482 -0.00050553 -2.24496)
(1.69879 2.0931 -1.83212)
(1.52748 2.00915 -1.65967)
(1.60886 1.79068 -1.18327)
(2.30538 1.26709 -0.785611)
(1.34303 1.76279 -0.141637)
(1.2997 1.75339 -1.70653)
(2.257 1.27963 -1.59529)
(2.13985 0.842285 -1.97544)
(2.0116 0.00193789 -1.90225)
(1.31873 -0.437015 -1.71799)
(1.42497 -0.425587 -1.47857)
(1.21926 1.44306 -2.06394)
(1.47837 1.23806 -2.01788)
(1.61684 1.26096 -1.61711)
(2.60605 0.459393 -0.846915)
(2.12678 0.863307 -1.3389)
(1.45754 1.56398 -1.17057)
(1.90986 1.09182 -1.36671)
(2.31273 0.33648 -1.24261)
(1.51615 0.0581267 -2.26171)
(1.44453 -0.379671 -1.48673)
(1.09179 -0.985582 -1.12765)
(1.02365 -0.899067 -0.891769)
(0.788546 0.855084 -2.35404)
(1.55179 0.765989 -2.78819)
(1.81561 0.489439 -2.11278)
(2.3435 0.317027 -1.08941)
(1.81569 0.434639 -1.90202)
(1.81782 0.728322 -1.98331)
(1.74615 0.213983 -2.20018)
(1.44566 -0.294067 -2.21476)
(1.75313 -0.433285 -1.92662)
(1.33435 -0.316018 -1.62228)
(1.04322 -0.885002 -0.921583)
(0.639687 -1.33694 -0.634951)
(1.03886 2.86098 2.26571)
(1.11936 3.38529 1.82616)
(1.34301 3.04135 2.17494)
(1.41139 2.96609 2.1199)
(1.27924 2.9164 2.24664)
(1.48528 3.3532 2.02149)
(1.61863 3.11525 1.99662)
(1.27897 2.61097 2.40886)
(1.45343 2.75389 1.97016)
(2.03547 2.97544 2.11742)
(1.83112 3.03266 2.10901)
(1.84238 2.67042 1.76105)
(1.12417 2.62065 2.17758)
(0.685116 2.59219 1.38677)
(2.17664 2.90984 2.05336)
(2.0029 2.5081 1.34305)
(1.76093 2.34709 1.31262)
(1.32315 2.55763 0.789786)
(0.996108 2.21371 0.164964)
(0.884264 2.26673 -0.606324)
(1.86886 2.94408 1.3947)
(1.76474 2.10217 0.572277)
(2.07845 2.01482 0.160118)
(1.42572 1.96619 -0.689537)
(0.936007 2.01122 -0.225773)
(1.20541 2.48934 -0.265059)
(1.60225 1.79226 -1.96916)
(1.95954 2.73474 0.760535)
(1.36575 2.12941 0.19256)
(2.04103 2.06489 -0.806622)
(1.48478 1.63411 -1.08579)
(1.21757 1.84402 -1.31022)
(1.30856 2.04789 -1.14352)
(1.968 1.80951 -1.02987)
(2.56444 1.48117 -1.3345)
(1.29868 2.2817 0.499795)
(1.42582 1.89848 0.622504)
(1.35348 1.93942 -0.602032)
(1.76662 1.8491 -1.25638)
(1.26652 2.06855 -1.87612)
(1.48208 1.93206 -1.92518)
(2.3862 1.42258 -1.55652)
(2.17105 1.30888 -1.3867)
(1.61281 0.800658 -2.44105)
(1.09175 2.72094 0.156499)
(1.77506 2.1817 0.0266749)
(1.1376 1.90427 -0.308818)
(1.69777 1.78338 -1.40079)
(1.53753 1.73785 -1.71161)
(2.35105 1.59737 -1.63546)
(2.29782 1.25735 -1.73812)
(2.02486 0.657124 -2.06161)
(1.18222 0.666767 -2.88339)
(1.49138 0.478649 -2.27999)
(1.88457 2.20098 -0.126611)
(2.055 2.16397 -0.452509)
(0.583268 2.4633 -0.00270639)
(1.37627 2.37365 -0.00457161)
(1.57191 1.94797 0.551824)
(2.11323 1.61078 -1.6873)
(2.19252 1.38135 -2.12752)
(2.5784 0.41517 -1.59781)
(1.70432 0.300591 -2.08735)
(1.33037 0.11991 -2.09799)
(1.36628 -0.483741 -1.6268)
(1.86123 1.96658 -1.8058)
(1.78894 1.80815 -1.83946)
(1.77269 1.66398 -1.19653)
(2.37396 1.11725 -0.86688)
(1.26608 1.6802 -0.26116)
(1.2308 1.706 -1.64763)
(2.20454 1.30913 -1.69137)
(2.4725 0.725215 -1.57247)
(2.13224 -0.00993891 -1.83419)
(1.18315 -0.451846 -1.86609)
(0.742646 -0.717629 -1.68385)
(1.08486 -0.977416 -1.0836)
(1.35486 1.3632 -1.99983)
(1.58542 1.12115 -2.11936)
(1.74509 1.23925 -1.63661)
(2.63408 0.418785 -0.727025)
(2.13892 0.800583 -1.35614)
(1.49323 1.51698 -1.13114)
(1.84751 1.12825 -1.33129)
(2.13056 0.399753 -1.4403)
(1.60144 0.0791258 -2.06553)
(1.42083 -0.367522 -1.52634)
(1.16475 -1.0072 -1.11563)
(0.728798 -0.99451 -1.1424)
(0.660339 -1.37172 -0.634506)
(0.816882 0.841042 -2.31272)
(1.63111 0.728784 -2.74373)
(1.81129 0.505122 -2.06898)
(2.34612 0.341022 -1.14167)
(1.86483 0.423122 -1.93619)
(1.84168 0.720782 -1.90827)
(1.85766 0.183301 -2.09505)
(1.57382 -0.315774 -2.15895)
(1.68507 -0.427722 -1.97165)
(1.36439 -0.311541 -1.66642)
(1.06238 -0.871805 -0.934055)
(0.622012 -1.32973 -0.63836)
(0.743079 -1.11261 -0.716831)
(1.10287 2.58338 2.39239)
(1.19762 3.00708 2.08064)
(1.19679 2.79967 2.26126)
(1.41498 2.89095 2.05344)
(1.1438 2.91056 2.15352)
(1.44026 2.97813 2.14884)
(1.63567 3.01673 1.95668)
(1.21948 2.56865 2.30909)
(1.20542 2.71889 2.12789)
(2.06594 2.69257 2.29233)
(1.79574 3.06765 2.08171)
(1.6978 2.69589 2.09901)
(1.24829 2.6119 2.53804)
(1.06516 2.66424 2.24849)
(2.17189 2.78897 2.01703)
(1.90586 2.95635 2.12069)
(2.09118 2.62834 1.73136)
(1.35105 2.58003 1.9478)
(1.37996 2.53207 0.969816)
(0.607704 2.50018 1.035)
(2.53383 2.4315 1.81636)
(2.49271 2.40628 0.976062)
(1.84264 2.27051 1.3213)
(1.6735 2.43519 0.562631)
(0.882063 2.24722 0.554936)
(1.337 2.32012 -0.282761)
(1.28725 2.41545 -0.601698)
(1.92054 2.90955 1.66022)
(2.19107 2.00151 0.63223)
(2.07551 1.92867 -0.114839)
(1.90801 1.99285 -0.368658)
(0.898906 1.88418 -0.0293276)
(1.38565 2.17159 -0.925047)
(1.95598 2.11213 -0.859916)
(1.94616 1.95356 -1.33967)
(2.70364 2.25734 0.714703)
(1.47757 2.10956 1.35708)
(2.1637 1.8011 -0.319275)
(1.91115 1.7274 -1.50621)
(1.25237 1.83263 -0.725214)
(1.42092 1.97162 -1.30894)
(1.8963 1.68241 -0.991991)
(1.72539 1.76583 -1.91074)
(2.18052 1.39004 -1.44628)
(1.741 2.26377 0.514054)
(1.25918 1.97921 0.251771)
(1.15136 1.98568 -0.0667771)
(1.73338 1.77499 -1.23646)
(2.22554 1.14345 -1.63947)
(1.58075 1.64647 -1.94596)
(2.15228 1.38135 -1.64754)
(2.13982 1.26841 -1.575)
(2.25081 1.34676 -1.85655)
(1.38732 0.595811 -2.75149)
(1.60179 2.58392 0.169785)
(1.72444 2.2589 0.231807)
(1.07439 1.85419 -0.20093)
(1.63547 1.94082 -1.04546)
(1.73856 1.56662 -1.48543)
(1.95573 1.55458 -1.91151)
(2.22375 1.29024 -1.66499)
(2.70054 0.416038 -1.33896)
(1.36852 0.888976 -2.4009)
(1.55452 0.423897 -2.15417)
(1.20989 0.0837562 -2.18417)
(1.86883 2.09786 -0.193114)
(2.11564 2.05735 -0.505807)
(0.702393 2.3593 -0.158624)
(1.44228 2.33216 0.110269)
(1.44298 1.99445 0.478061)
(2.08572 1.49357 -1.2528)
(2.09922 1.48311 -2.15944)
(2.43851 0.490678 -1.80823)
(1.6957 0.211102 -2.13797)
(1.35575 0.14053 -2.06686)
(1.17848 -0.155699 -2.15237)
(0.837823 -0.745634 -1.65063)
(2.14367 1.62344 -1.66224)
(2.11747 1.68039 -1.77233)
(2.03399 1.35375 -1.2631)
(2.41428 1.02525 -0.835197)
(1.19115 1.5478 -0.407134)
(1.30495 1.74004 -1.33768)
(2.1598 1.34153 -1.72488)
(2.6485 0.690603 -1.29882)
(2.03813 -0.00863435 -1.91347)
(1.17102 -0.401073 -1.96612)
(0.866777 -0.685942 -1.62594)
(0.752619 -0.297343 -1.6124)
(0.678169 -0.998843 -1.18196)
(1.56447 1.23166 -1.88079)
(1.641 1.16881 -2.18273)
(1.81838 1.2347 -1.67908)
(2.64941 0.395009 -0.686869)
(2.17414 0.679584 -1.35909)
(1.44084 1.48762 -1.16051)
(1.8079 1.15121 -1.26826)
(2.08923 0.454376 -1.44626)
(1.85405 0.0346102 -1.73305)
(1.45083 -0.341857 -1.55318)
(1.125 -1.00528 -1.15783)
(0.770878 -0.976517 -1.13305)
(0.734225 -0.863497 -1.08625)
(0.752314 -1.10983 -0.707837)
(0.794519 0.824121 -2.28527)
(1.7013 0.660296 -2.68138)
(1.8178 0.507527 -2.02234)
(2.3664 0.339699 -1.1489)
(1.94404 0.368832 -1.92599)
(1.80882 0.711714 -1.87773)
(1.77962 0.173256 -2.11186)
(1.69843 -0.352148 -2.09795)
(1.58362 -0.394056 -2.00025)
(1.3457 -0.295389 -1.72181)
(1.08698 -0.861458 -0.938926)
(0.62881 -1.34404 -0.649321)
(0.749799 -1.09629 -0.734939)
(0.607921 -0.730058 -0.620671)
(0.854933 2.52831 2.55749)
(0.956417 2.78231 2.40131)
(1.26033 2.52782 2.38584)
(1.19855 2.81463 2.28968)
(1.14232 2.88206 2.20873)
(1.36824 2.71978 2.27511)
(1.47768 2.73285 2.12435)
(1.15001 2.63431 2.43662)
(0.973295 2.47259 2.50981)
(1.51981 2.87324 2.19154)
(1.62456 2.95055 2.12254)
(1.62473 2.62485 2.24385)
(1.22135 2.5253 2.42254)
(1.09998 2.68053 2.4461)
(1.92698 2.90598 1.80241)
(1.9441 2.8965 2.22972)
(1.88301 2.62676 2.09387)
(1.51161 2.64189 2.30527)
(1.35853 2.58072 2.178)
(1.28208 2.8316 0.958563)
(2.22122 2.57372 2.103)
(2.38205 2.7649 1.77293)
(2.15377 2.52296 2.1187)
(1.65652 2.54787 1.77941)
(1.24021 2.1077 1.79776)
(1.69084 2.46839 -0.31589)
(1.35134 2.45479 -0.403968)
(2.27614 2.47367 1.97226)
(3.08839 1.92969 0.671606)
(2.02186 2.10876 1.26173)
(1.83127 2.24585 0.725906)
(1.16415 2.15048 0.494402)
(1.22522 2.35461 0.115295)
(1.66207 2.58392 -0.394354)
(1.87356 2.32135 -0.57021)
(2.02166 2.65718 1.78587)
(1.984 2.35589 1.4017)
(2.24086 1.80337 0.0287495)
(2.50858 1.86091 -0.264965)
(0.904066 1.88007 0.291878)
(1.07974 1.85042 -1.50432)
(1.92793 1.84157 -1.36611)
(2.16971 2.17893 -1.50541)
(1.74706 1.98899 -2.12945)
(2.13726 2.74179 1.23658)
(1.94554 2.09368 1.16598)
(1.82816 1.80921 0.0716348)
(2.1012 1.82894 -1.60598)
(1.18062 1.4189 -0.793788)
(1.43049 1.84266 -1.46148)
(1.79933 1.6458 -1.04864)
(2.00028 1.64968 -1.38877)
(1.75087 1.72116 -2.69887)
(2.08564 1.31205 -2.04227)
(2.2022 2.034 0.670753)
(2.11757 1.57691 0.399225)
(1.23272 1.91662 0.0816169)
(1.77849 1.74274 -0.866202)
(1.27234 1.68976 -1.59715)
(1.41824 1.60955 -1.99692)
(1.80475 1.33887 -1.85489)
(2.25155 1.07564 -1.70235)
(1.99398 1.15174 -2.013)
(1.6533 1.08771 -2.51388)
(1.44127 0.237169 -2.35626)
(1.84783 2.50172 0.362351)
(1.80663 2.40666 0.531638)
(1.21234 1.82855 0.146547)
(1.56515 1.80637 -0.995291)
(1.84875 1.53744 -1.37977)
(2.01859 1.45449 -1.80924)
(2.12279 1.29681 -1.75538)
(2.7409 0.430409 -1.26379)
(1.858 0.700108 -1.82414)
(1.62599 0.578432 -2.00389)
(1.53647 0.842939 -2.20897)
(1.15994 -0.123036 -2.16594)
(1.98033 1.9008 -0.0854253)
(2.463 1.75617 -0.831166)
(0.921592 2.23416 -0.39006)
(1.62774 2.15286 0.234499)
(1.446 2.03135 0.599571)
(1.86089 1.40885 -1.00866)
(1.75887 1.48039 -2.31767)
(2.35623 0.536403 -2.05514)
(1.68841 0.13527 -2.17225)
(1.35937 0.214961 -2.03822)
(1.31665 -0.0363624 -1.95903)
(0.000571511 0.299295 -2.32752)
(0.711136 -0.263248 -1.6658)
(2.12646 1.53137 -1.37775)
(2.44045 1.48718 -1.59463)
(2.2157 1.30298 -1.17126)
(2.5291 0.772252 -0.731907)
(1.35559 1.30627 -0.237795)
(1.08418 1.61602 -1.35082)
(1.80676 1.39111 -2.01473)
(2.5674 0.729054 -1.38529)
(2.0515 -0.0497226 -1.84023)
(1.25123 -0.402982 -1.94193)
(1.17538 -0.680559 -1.40679)
(0.813709 -0.35003 -1.56882)
(0.329789 -0.40608 -1.49541)
(0.647641 -0.843042 -1.13419)
(1.60292 1.19442 -1.7731)
(1.69251 1.12625 -2.30474)
(1.87228 1.29691 -1.65806)
(2.7136 0.38451 -0.573863)
(2.21797 0.530263 -1.28115)
(1.43677 1.42707 -1.17308)
(1.72514 1.12944 -1.28527)
(2.14468 0.462493 -1.28401)
(2.0491 -0.000693813 -1.49152)
(1.51979 -0.336443 -1.58598)
(1.11343 -0.966299 -1.16597)
(0.828003 -0.980539 -1.1046)
(0.762578 -0.886238 -1.072)
(0.488569 -0.780486 -0.858368)
(0.57349 -0.754813 -0.611926)
(0.84548 0.787629 -2.23671)
(1.61978 0.647367 -2.66751)
(1.86623 0.480042 -1.96463)
(2.38878 0.344784 -1.13914)
(1.97882 0.309312 -1.92361)
(1.76233 0.712199 -1.88454)
(1.78855 0.14235 -2.07715)
(1.7909 -0.379762 -2.04116)
(1.55879 -0.346036 -1.97588)
(1.27612 -0.254454 -1.75206)
(1.09195 -0.844455 -0.941878)
(0.629103 -1.33092 -0.655814)
(0.767413 -1.08447 -0.751236)
(0.644884 -0.713539 -0.624227)
(1.22856 -0.332153 -0.32447)
(0.813902 2.54242 2.58701)
(0.843789 2.67392 2.51596)
(0.954347 2.53013 2.55248)
(1.07187 2.59316 2.46033)
(0.892611 2.80259 2.42668)
(1.12296 2.55407 2.40963)
(1.38429 2.62507 2.36236)
(1.18766 2.57941 2.5662)
(0.487628 2.41898 2.89443)
(1.37393 2.56918 2.40093)
(1.67332 2.65165 2.11761)
(1.3066 2.74916 2.27236)
(1.41419 2.70173 2.40585)
(1.04145 2.59295 2.43927)
(1.68937 2.70904 2.17041)
(1.69654 2.83507 2.19549)
(1.81734 2.65316 2.14337)
(1.49134 2.46015 2.54749)
(1.98218 2.52248 1.729)
(1.38688 2.7572 1.91072)
(2.24087 2.56882 1.93817)
(2.03133 2.82932 2.15349)
(2.13183 2.56744 2.04718)
(1.81278 2.56681 2.20605)
(1.58925 2.412 2.10295)
(1.64865 2.60614 1.13377)
(1.55596 2.77725 -0.22202)
(2.13787 2.65905 2.13668)
(2.76422 2.42385 1.57795)
(2.22587 2.54769 2.13781)
(2.25066 2.55102 1.33692)
(1.34231 2.10707 1.55357)
(1.64198 2.26949 -0.132903)
(1.70635 2.77033 -0.159744)
(1.58194 2.6966 -0.573776)
(2.09694 2.65793 2.06492)
(2.98031 2.00623 1.09543)
(2.73901 1.77805 0.668122)
(2.17412 2.02653 0.668372)
(1.48335 1.97376 0.48319)
(1.41078 2.16285 -0.311957)
(1.79515 2.38423 -0.478195)
(2.19591 2.62713 -1.10302)
(1.97901 2.21713 -1.57107)
(2.33594 2.47699 1.72938)
(2.45617 2.17223 1.34595)
(2.35713 1.75954 0.271824)
(2.70257 2.00697 -0.0184803)
(1.14021 1.92393 0.152129)
(1.39262 1.8845 -0.213464)
(1.7896 1.63841 -1.22954)
(2.10849 2.06824 -1.72943)
(2.40727 2.66083 -1.74212)
(1.69993 2.00163 -2.67519)
(2.23658 2.58787 1.48175)
(2.47469 1.96434 0.90431)
(1.80363 1.83167 0.464238)
(2.26472 1.79577 -1.17458)
(1.42951 1.48699 -0.546125)
(1.56836 1.63821 -1.46931)
(1.70395 1.6322 -1.40064)
(2.22746 1.49883 -1.14735)
(2.04713 1.77469 -1.92634)
(2.05518 1.56605 -2.19469)
(1.47936 1.13128 -2.58639)
(2.37622 1.94744 1.18075)
(2.24992 1.68768 0.501177)
(1.57698 1.87337 0.487521)
(1.61972 1.75755 -0.511813)
(1.89264 1.2855 -1.3509)
(1.71387 1.49085 -1.92322)
(1.81062 1.26598 -1.82603)
(2.33632 0.865646 -1.65038)
(1.26782 1.22951 -2.45285)
(1.55695 0.953343 -2.5664)
(0.927302 0.751491 -2.63779)
(0.835832 0.891891 -2.44247)
(2.15708 2.28371 0.486178)
(1.97696 2.34954 0.49225)
(1.57503 1.76674 0.63257)
(1.45958 1.81823 -0.54594)
(1.78824 1.48299 -1.39357)
(2.25534 1.21334 -1.58068)
(1.8009 1.42355 -2.07163)
(2.64001 0.453822 -1.42852)
(1.91352 0.656228 -1.69878)
(1.60111 0.550838 -2.00452)
(1.46526 0.639787 -2.22166)
(0.0324669 0.307087 -2.65563)
(0.23469 0.252838 -2.23118)
(2.15069 1.55944 0.089251)
(2.83648 1.2984 -0.962721)
(1.66289 1.90362 -0.03367)
(1.9041 1.88115 0.10207)
(1.54645 1.96916 0.411273)
(1.79952 1.41322 -0.570065)
(1.76425 1.28683 -2.17613)
(2.3785 0.53367 -2.00899)
(1.83682 0.0872786 -2.06259)
(1.31914 0.280688 -2.0283)
(1.42242 -0.0657076 -1.73296)
(0.208257 0.210671 -2.27822)
(0.243606 -0.1597 -1.82987)
(0.136221 -0.372161 -1.53262)
(2.03084 1.6452 -0.98325)
(2.75647 1.36773 -1.28416)
(2.49502 1.0568 -1.12675)
(2.50856 0.821011 -0.71116)
(1.40546 1.24122 -0.310231)
(1.29814 1.55126 -0.938895)
(1.842 1.33351 -1.92495)
(2.3907 0.841478 -1.61404)
(2.19489 -0.115914 -1.60017)
(1.41462 -0.400911 -1.80801)
(1.26163 -0.617909 -1.34666)
(0.890796 -0.392975 -1.51559)
(0.530253 -0.407906 -1.44934)
(0.466772 -0.363904 -1.20588)
(0.385616 -0.809243 -0.84357)
(1.68934 1.09998 -1.65109)
(1.73942 1.17043 -2.39027)
(2.01911 1.25926 -1.56624)
(2.76777 0.312773 -0.618141)
(2.22639 0.520555 -1.24671)
(1.5308 1.32708 -1.12799)
(1.69268 1.14661 -1.26117)
(2.14945 0.463944 -1.19373)
(2.19222 -0.0388876 -1.28531)
(1.62972 -0.340833 -1.59356)
(1.1276 -0.945823 -1.15292)
(0.905255 -0.948249 -1.09643)
(0.870865 -0.892493 -0.987266)
(0.639795 -0.764422 -0.85372)
(0.92222 -0.75076 -0.359114)
(1.18397 -0.34014 -0.307932)
(0.789929 0.8384 -2.19326)
(1.63316 0.665156 -2.60258)
(1.90527 0.444865 -1.89934)
(2.39743 0.327769 -1.12497)
(1.97171 0.313282 -1.93483)
(1.74607 0.667187 -1.87966)
(1.83717 0.120952 -2.03116)
(1.85793 -0.407186 -1.94652)
(1.59348 -0.350669 -1.98248)
(1.2186 -0.206918 -1.73038)
(1.08977 -0.828903 -0.951674)
(0.636585 -1.31142 -0.669498)
(0.774817 -1.08742 -0.762078)
(0.674868 -0.713743 -0.632206)
(1.2652 -0.325621 -0.349736)
(0.916814 -0.566888 0.391489)
(0.723902 2.56026 2.49343)
(0.613691 2.71085 2.56558)
(1.43897 2.57641 2.27556)
(0.919758 2.65568 2.5343)
(0.844269 2.59572 2.55505)
(1.31851 2.45011 2.32861)
(1.26645 2.5701 2.50857)
(0.519849 2.47284 2.93739)
(0.512129 2.54163 3.03446)
(1.43577 2.45651 2.26363)
(1.54854 2.52076 2.31616)
(1.32749 2.59074 2.35318)
(1.45262 2.50372 2.82048)
(1.32174 2.41758 3.02096)
(1.46433 2.60744 2.28267)
(1.69603 2.53155 2.24234)
(1.40846 2.81447 2.16707)
(1.54124 2.57969 2.59814)
(1.88625 2.58046 2.11983)
(1.91458 2.79243 1.47191)
(1.83055 2.48756 2.20811)
(1.8026 2.79655 2.13529)
(2.20023 2.38308 2.10079)
(1.64862 2.60036 2.43433)
(1.82566 2.1901 2.39919)
(2.38741 2.88545 0.127503)
(1.583 2.93301 0.718251)
(2.23781 2.53487 1.98538)
(2.35039 2.62721 2.03994)
(2.27892 2.61782 2.14195)
(2.255 2.45925 2.02294)
(1.84074 2.19306 1.96673)
(1.7344 2.39854 1.07359)
(2.04327 2.71245 -0.180288)
(1.83578 2.79845 -0.363488)
(2.755 1.82329 2.25719)
(2.83061 2.06816 1.83664)
(2.51873 2.14729 2.04482)
(2.49181 2.45836 1.17356)
(1.2757 2.17679 1.89078)
(1.59948 2.13949 0.344557)
(1.64081 2.71687 0.106847)
(2.39931 3.03598 -0.775672)
(2.10548 2.5105 -1.74196)
(2.60819 2.49255 1.72352)
(2.77851 2.03984 1.58288)
(2.47839 2.05629 1.14584)
(2.62202 1.989 0.443355)
(1.64032 1.96135 0.91719)
(1.67794 1.91852 0.00966814)
(1.93797 2.0759 -0.716553)
(2.32844 2.52778 -0.616124)
(2.62508 2.70713 -1.13497)
(2.12805 2.444 -1.92808)
(2.83265 2.20358 1.58586)
(2.6166 2.18082 1.39576)
(2.44185 1.65783 0.902639)
(2.69582 1.93598 0.394439)
(1.92957 1.80994 0.0223652)
(1.38309 1.61024 -0.308396)
(1.69776 1.76767 -0.726482)
(2.10624 2.15975 -1.35231)
(1.98841 2.36552 -2.41056)
(2.28112 1.63097 -2.25095)
(2.02425 1.33174 -2.37308)
(2.75448 2.23461 1.35262)
(3.07597 1.63844 0.381296)
(2.07346 1.848 1.34454)
(2.28736 1.76941 0.0905206)
(2.28109 1.44406 -0.927944)
(1.70191 1.66676 -1.26691)
(1.85614 1.59443 -1.48693)
(2.28673 1.39209 -1.17742)
(2.15916 1.71787 -1.63611)
(1.94904 1.63051 -2.21884)
(1.33639 0.59759 -2.43769)
(1.14335 0.820413 -2.27965)
(2.45577 2.10299 1.15964)
(2.25568 1.86837 0.855227)
(2.42646 1.37437 0.336056)
(1.65011 1.68492 0.0165322)
(1.86535 1.42157 -1.16643)
(1.72294 1.58072 -1.96753)
(1.94005 1.29695 -1.81086)
(2.32508 0.897294 -1.5475)
(2.16719 0.966895 -1.6479)
(1.54085 1.07389 -2.43425)
(1.04345 0.98082 -2.56353)
(0.771126 0.143151 -2.12752)
(0.698036 0.273427 -2.22275)
(2.36839 2.06129 0.426065)
(2.25692 2.09954 0.403361)
(1.92138 1.66155 0.492266)
(1.34195 1.77959 -0.143947)
(1.82651 1.66712 -0.716416)
(2.12129 1.18543 -1.55965)
(1.99697 1.34687 -1.86142)
(2.48637 0.42347 -1.57299)
(2.25026 0.508069 -1.40478)
(1.48772 0.646391 -2.07249)
(1.46474 0.628815 -2.13444)
(0.484946 0.523686 -2.58544)
(0.289777 -0.112093 -1.95685)
(-0.0383721 -0.184904 -1.86789)
(2.06317 1.41879 0.348692)
(2.83296 1.25571 -1.05647)
(1.93665 1.61213 -0.703228)
(2.0898 1.64201 0.00807754)
(1.6886 1.87919 0.252496)
(1.6629 1.44953 -0.439423)
(1.90022 1.26899 -1.88471)
(2.02466 0.644642 -2.15494)
(2.2257 0.0170301 -1.74247)
(1.2622 0.335759 -2.04052)
(1.42555 -0.0350086 -1.63669)
(0.660868 0.210682 -2.03987)
(0.579206 -0.0613928 -1.74384)
(0.283205 -0.130117 -1.57367)
(0.247165 -0.39913 -1.22865)
(1.89991 1.64989 -0.793471)
(2.80498 1.35409 -1.17647)
(2.81988 0.887502 -0.801098)
(2.59602 0.658114 -0.649623)
(1.61761 1.04586 -0.371032)
(1.16632 1.59201 -0.860224)
(2.00332 1.32763 -1.7122)
(2.00313 0.888276 -2.04718)
(2.19959 -0.10645 -1.57449)
(1.49633 -0.435535 -1.75716)
(1.35089 -0.59822 -1.27633)
(0.939238 -0.442502 -1.45021)
(0.774955 -0.413996 -1.36143)
(0.730271 -0.352 -1.12215)
(0.383385 -0.424885 -0.833443)