/*--------------------------------*- C++ -*----------------------------------*\
  =========                 |
  \\      /  F ield         | OpenFOAM: The Open Source CFD Toolbox
   \\    /   O peration     | Website:  https://openfoam.org
    \\  /    A nd           | Version:  7
     \\/     M anipulation  |
\*---------------------------------------------------------------------------*/
FoamFile
{
    version     2.0;
    format      ascii;
    class       volScalarField;
    location    "1";
    object      nut;
}
// * * * * * * * * * * * * * * * * * * * * * * * * * * * * * * * * * * * * * //

dimensions      [0 2 -1 0 0 0 0];

internalField   nonuniform List<scalar> 
18630
(
9.31803e-06
1.31931e-05
9.22328e-06
1.13074e-05
2.17974e-05
1.39086e-05
1.36527e-05
9.23723e-06
1.08192e-05
1.1957e-05
0.00010158
3.36276e-05
2.17564e-05
1.63874e-05
1.4487e-05
1.7356e-05
9.16475e-06
1.12862e-05
1.09334e-05
1.15752e-05
7.17009e-05
8.91984e-05
7.62507e-05
4.20396e-05
3.0941e-05
2.43302e-05
2.05847e-05
1.71054e-05
1.80635e-05
2.12882e-05
9.27117e-06
1.0657e-05
1.04524e-05
1.14389e-05
1.27522e-05
0.000141249
6.92981e-05
4.95662e-05
2.68925e-05
5.98813e-05
6.74048e-05
3.42172e-05
3.74113e-05
2.89629e-05
2.42219e-05
2.30123e-05
1.9734e-05
1.92321e-05
2.05148e-05
2.3293e-05
9.53307e-06
1.04691e-05
1.11368e-05
1.11337e-05
1.35153e-05
1.40073e-05
0.000171413
0.000126256
0.000113834
3.83562e-05
5.37292e-05
4.10758e-05
4.8263e-05
2.83834e-05
4.75982e-05
5.47777e-05
2.1496e-05
3.11166e-05
3.30773e-05
2.54429e-05
2.49395e-05
2.55746e-05
2.11924e-05
2.01238e-05
2.01086e-05
2.17262e-05
2.41837e-05
9.70808e-06
1.02691e-05
1.10132e-05
1.13725e-05
1.22027e-05
1.42219e-05
1.58304e-05
0.000234981
0.000196831
0.000170148
8.2437e-05
9.85398e-05
9.65569e-05
3.17609e-05
3.13716e-05
4.33791e-05
3.87022e-05
4.02726e-05
4.32746e-05
3.32862e-05
4.03359e-05
4.88112e-05
1.51585e-05
2.06961e-05
2.80274e-05
2.74932e-05
2.53907e-05
2.68491e-05
2.13565e-05
2.39287e-05
2.10793e-05
1.99721e-05
2.12741e-05
2.31661e-05
2.27128e-05
9.64143e-06
9.95443e-06
1.10213e-05
1.13913e-05
1.17035e-05
1.34349e-05
1.4032e-05
1.25177e-05
0.000486246
0.000260341
0.000206644
0.000152183
0.000170179
0.000147983
0.000104223
6.34882e-05
8.51146e-05
7.25522e-05
3.1674e-05
2.99767e-05
3.10044e-05
4.10522e-05
3.95619e-05
1.41445e-05
3.84538e-05
4.44161e-05
3.02615e-05
3.82421e-05
4.29762e-05
1.51577e-05
1.45657e-05
2.02644e-05
2.44516e-05
2.62761e-05
2.76571e-05
2.66495e-05
1.63807e-05
2.06662e-05
2.28538e-05
2.06784e-05
2.07725e-05
2.22779e-05
2.28174e-05
2.26569e-05
9.64518e-06
9.97532e-06
1.07604e-05
1.11535e-05
1.17505e-05
1.29458e-05
1.32601e-05
1.25596e-05
1.16818e-05
0.000538058
0.00034264
0.000378915
0.000227045
0.000207813
0.000161404
0.000195453
0.000149785
0.000130152
0.000118152
0.000152024
9.01044e-05
4.91789e-05
7.1617e-05
6.72705e-05
5.46258e-05
2.61331e-05
3.45394e-05
3.71165e-05
4.37026e-05
4.10233e-05
4.08105e-05
2.40671e-05
3.89178e-05
3.86779e-05
3.20095e-05
3.59889e-05
3.65178e-05
2.03266e-05
1.37059e-05
1.67411e-05
2.09029e-05
2.44676e-05
2.78303e-05
2.71702e-05
2.57047e-05
1.58152e-05
1.84512e-05
2.22163e-05
2.18357e-05
2.17141e-05
2.22601e-05
2.22416e-05
2.27946e-05
2.17348e-05
1.16973e-05
1.04496e-05
1.06519e-05
1.11093e-05
1.1801e-05
1.28213e-05
1.29632e-05
1.24565e-05
1.17412e-05
1.16082e-05
0.000816598
0.0004721
0.000516746
0.000295289
0.000303986
0.00026929
0.000188994
0.000187706
0.000157721
0.000129802
0.000218319
0.000150377
0.000109877
9.67808e-05
9.44495e-05
0.000122119
0.000111159
7.02127e-05
4.81241e-05
7.19447e-05
5.54518e-05
0.000108334
4.98222e-05
3.03352e-05
3.27945e-05
4.24482e-05
4.45027e-05
3.99244e-05
8.03883e-05
4.22412e-05
3.05667e-05
3.29403e-05
3.71185e-05
3.34676e-05
3.37241e-05
3.57938e-05
1.55586e-05
1.6318e-05
1.64928e-05
1.91437e-05
2.40042e-05
2.65078e-05
2.74757e-05
2.59317e-05
2.34682e-05
2.19108e-05
2.01176e-05
2.11908e-05
2.25535e-05
2.25711e-05
2.31002e-05
2.25829e-05
2.26947e-05
2.13206e-05
1.95741e-05
1.18464e-05
1.17443e-05
1.08307e-05
1.12075e-05
1.18384e-05
1.27477e-05
1.29027e-05
1.24572e-05
1.1718e-05
1.14249e-05
1.22641e-05
0.000470666
0.000593617
0.000551505
0.00036397
0.000373591
0.000366928
0.000208775
0.00024325
0.000194462
0.000179725
0.000104324
0.000154602
0.000135352
0.000118131
0.000120453
0.000154302
0.00017469
0.000105724
6.82209e-05
8.16978e-05
8.35091e-05
9.3922e-05
8.37971e-05
7.58972e-05
6.75338e-05
5.35673e-05
6.27002e-05
4.86575e-05
6.89912e-05
9.29885e-05
4.86822e-05
3.5407e-05
3.63006e-05
4.51489e-05
4.10646e-05
3.89042e-05
8.36614e-05
7.21822e-05
3.98198e-05
3.01318e-05
3.40268e-05
3.68663e-05
3.33854e-05
3.46192e-05
3.03221e-05
1.45557e-05
1.56705e-05
1.76382e-05
1.89569e-05
2.28493e-05
2.70326e-05
2.66369e-05
2.6262e-05
2.35881e-05
2.22065e-05
2.61253e-05
2.38414e-05
2.06514e-05
2.24017e-05
2.32611e-05
2.33384e-05
2.25269e-05
2.27913e-05
2.11108e-05
1.91492e-05
1.99161e-05
1.10644e-05
1.15402e-05
1.14681e-05
1.12946e-05
1.2033e-05
1.27415e-05
1.28304e-05
1.2577e-05
1.1714e-05
1.13688e-05
1.2136e-05
1.15739e-05
0.000973217
0.000949045
0.000576592
0.00059003
0.000525851
0.00058005
0.000611957
0.000223175
0.000304448
0.000325312
0.000247068
0.000190767
0.000176815
0.000142638
0.000133289
0.000143623
0.000158263
7.70262e-05
0.00010424
0.000100648
9.15527e-05
9.46871e-05
0.000110654
0.000118618
0.000143378
7.47179e-05
5.37631e-05
7.04702e-05
7.13772e-05
5.01977e-05
7.12253e-05
5.60796e-05
6.5368e-05
6.89498e-05
4.97195e-05
5.59856e-05
4.84926e-05
8.35094e-05
4.20063e-05
7.2742e-05
4.12363e-05
3.88957e-05
3.91987e-05
4.04231e-05
3.8691e-05
3.52596e-05
6.52308e-05
7.34326e-05
6.0043e-05
3.49982e-05
3.27416e-05
3.47938e-05
3.64575e-05
3.34374e-05
3.02642e-05
2.70272e-05
2.53594e-05
1.38325e-05
1.82959e-05
1.93342e-05
2.31994e-05
2.507e-05
2.68806e-05
2.59846e-05
2.38889e-05
2.21706e-05
2.16201e-05
1.89865e-05
2.39064e-05
2.3475e-05
2.10889e-05
2.31465e-05
2.35925e-05
2.29342e-05
2.25598e-05
2.11726e-05
1.92461e-05
1.98049e-05
1.95634e-05
1.05623e-05
1.08812e-05
1.16158e-05
1.19077e-05
1.21642e-05
1.27864e-05
1.28099e-05
1.25169e-05
1.16959e-05
1.11942e-05
1.19935e-05
1.14589e-05
1.04921e-05
0.000549327
0.00082843
0.000667829
0.000382854
0.000602893
0.00102973
0.000918554
0.000923801
0.00071415
0.000694707
0.000506766
0.000522677
0.000184663
0.000281823
0.000343685
0.000285921
0.00022545
9.63245e-05
0.000143881
0.000166552
8.8113e-05
0.000118535
0.000125068
0.000144462
0.000196108
5.43736e-05
0.000106484
8.23287e-05
8.34374e-05
8.57619e-05
0.000130882
5.53687e-05
0.000102144
0.000116493
7.76855e-05
5.12605e-05
5.8972e-05
5.71431e-05
0.000109373
3.41521e-05
5.90203e-05
6.21206e-05
7.15239e-05
6.22842e-05
5.00587e-05
5.31282e-05
3.92669e-05
0.000118736
6.38287e-05
3.59326e-05
4.50885e-05
3.79098e-05
3.89858e-05
3.7916e-05
4.0047e-05
3.58959e-05
3.28615e-05
6.45816e-05
5.75838e-05
6.47149e-05
4.78412e-05
3.59617e-05
3.52899e-05
3.44734e-05
3.52275e-05
2.94704e-05
2.72278e-05
2.72082e-05
2.79743e-05
1.86611e-05
1.8271e-05
2.13201e-05
2.29741e-05
2.52718e-05
2.5327e-05
2.60903e-05
2.39863e-05
2.20962e-05
2.16403e-05
2.04388e-05
2.21848e-05
2.10729e-05
2.40107e-05
2.1563e-05
2.19588e-05
2.40815e-05
2.34495e-05
2.28912e-05
2.08729e-05
1.93101e-05
2.0077e-05
1.9463e-05
1.83506e-05
1.10515e-05
1.12412e-05
1.12826e-05
1.24039e-05
1.22253e-05
1.28315e-05
1.27608e-05
1.2456e-05
1.17203e-05
1.11817e-05
1.17905e-05
1.14339e-05
1.04268e-05
9.48784e-06
0.000393367
0.000605684
0.000573762
0.00078687
0.000636083
0.000598729
0.000678976
0.00083617
0.0013309
0.000888478
0.000908453
0.000939237
0.00104813
0.000933895
0.00078004
0.000497435
0.000410389
0.000418978
0.000346233
0.000175277
0.000221647
0.000285196
0.000287546
0.00024698
0.000164166
0.0001121
6.99198e-05
0.000128506
8.0949e-05
8.38028e-05
8.49187e-05
0.000123721
0.000107584
0.000172701
0.000143851
5.9511e-05
0.000116341
8.19095e-05
8.49792e-05
7.3583e-05
5.925e-05
0.000120935
4.46383e-05
7.73106e-05
0.000120594
8.55017e-05
5.00508e-05
5.47961e-05
5.05821e-05
6.7992e-05
8.01825e-05
2.78981e-05
5.3787e-05
6.73697e-05
7.25528e-05
6.05106e-05
4.67184e-05
4.15909e-05
3.9174e-05
4.84937e-05
8.62806e-05
5.13849e-05
3.35582e-05
3.66046e-05
3.79123e-05
3.87215e-05
3.85972e-05
3.69875e-05
3.4129e-05
3.34214e-05
3.22602e-05
4.55729e-05
5.59916e-05
5.64377e-05
4.42398e-05
3.76302e-05
3.49241e-05
3.40806e-05
2.96806e-05
2.74918e-05
2.71881e-05
2.4922e-05
2.52707e-05
1.9479e-05
2.1889e-05
2.4492e-05
2.51416e-05
2.60306e-05
2.53343e-05
2.57939e-05
2.37375e-05
2.22121e-05
2.1551e-05
2.07935e-05
1.82374e-05
2.3692e-05
2.41144e-05
2.30738e-05
2.18334e-05
2.11448e-05
2.36721e-05
2.33687e-05
2.33713e-05
2.11791e-05
1.93107e-05
1.99075e-05
1.95561e-05
1.82713e-05
1.73045e-05
1.12255e-05
1.06077e-05
1.18896e-05
1.22487e-05
1.24804e-05
1.30243e-05
1.27499e-05
1.24022e-05
1.17587e-05
1.1279e-05
1.16408e-05
1.13765e-05
1.04323e-05
9.57401e-06
9.19361e-06
0.000369309
0.000523072
0.000310243
0.000731864
0.000793864
0.000451643
0.000698136
0.000536442
0.000507519
0.000376238
0.000398199
0.000278438
0.000710379
0.000814798
0.0011807
0.00134463
0.000947053
0.00136391
0.000959761
0.000954875
0.00104507
0.000855598
0.000497117
0.000244981
0.000338871
0.000270566
0.000187599
0.000260363
0.000114067
0.000166027
0.000232082
0.000154911
0.000191535
0.000173599
0.000198639
9.09411e-05
5.31542e-05
8.1551e-05
6.91346e-05
6.25302e-05
0.00010026
0.000111705
9.5605e-05
0.000147873
0.000128831
9.04615e-05
6.30253e-05
0.000108278
8.70463e-05
6.97407e-05
5.26297e-05
8.81573e-05
8.05884e-05
0.000114185
4.86707e-05
7.2681e-05
0.000106689
7.37781e-05
5.11873e-05
4.91166e-05
4.45273e-05
5.55721e-05
5.71177e-05
6.58398e-05
3.97413e-05
5.53357e-05
5.87706e-05
6.97208e-05
5.20067e-05
3.79797e-05
4.048e-05
3.72914e-05
3.39676e-05
4.603e-05
6.48474e-05
4.21853e-05
3.78758e-05
3.80522e-05
3.88064e-05
3.79901e-05
3.4043e-05
3.38052e-05
3.43911e-05
3.21825e-05
2.64679e-05
2.99353e-05
3.8695e-05
5.10598e-05
5.23005e-05
4.35255e-05
3.59747e-05
3.4209e-05
2.95028e-05
2.75322e-05
2.70116e-05
2.53012e-05
2.27551e-05
2.43968e-05
1.80899e-05
2.25402e-05
2.77517e-05
2.92319e-05
2.81383e-05
2.55602e-05
2.56149e-05
2.42542e-05
2.16337e-05
2.13646e-05
2.03788e-05
1.86969e-05
1.65486e-05
2.50979e-05
2.38854e-05
2.51808e-05
2.24006e-05
2.18674e-05
2.30789e-05
2.3319e-05
2.32019e-05
2.15374e-05
1.95938e-05
1.99239e-05
1.95452e-05
1.83679e-05
1.73228e-05
1.67637e-05
1.11264e-05
1.20539e-05
1.1764e-05
1.28041e-05
1.29409e-05
1.30848e-05
1.28488e-05
1.2389e-05
1.17868e-05
1.12441e-05
1.15562e-05
1.13203e-05
1.03968e-05
9.61664e-06
9.10035e-06
9.13725e-06
0.000522521
0.000452444
0.000525873
0.000508084
0.000547394
0.000366231
0.000576712
0.00054732
0.000649051
0.000648106
0.000289657
0.000502954
0.000470913
0.000800803
0.00111121
0.000691265
0.00028731
0.000710068
0.000551748
0.000518203
0.000420323
0.000966522
0.000752813
0.00116683
0.000894219
0.00117226
0.000902243
0.000939257
0.000838182
0.000918489
0.000572613
0.000328355
0.000362992
0.000289445
0.000174999
0.00015311
0.000359996
0.000194687
6.92126e-05
0.000155153
0.000100231
0.000136995
0.000133937
0.000131879
0.000132365
0.000220521
9.31526e-05
6.39571e-05
7.17569e-05
6.79662e-05
8.77896e-05
8.91935e-05
9.17347e-05
7.29912e-05
7.57894e-05
0.000113841
9.89703e-05
7.92348e-05
6.39751e-05
9.77318e-05
7.97567e-05
5.35356e-05
6.03768e-05
9.06944e-05
8.55903e-05
8.11133e-05
9.39677e-05
6.26224e-05
6.91152e-05
7.74496e-05
7.28795e-05
4.84594e-05
4.4202e-05
4.3975e-05
3.41865e-05
5.49511e-05
4.80832e-05
3.76917e-05
5.58633e-05
5.37671e-05
5.19235e-05
5.26887e-05
3.95629e-05
3.86307e-05
3.76618e-05
3.55287e-05
3.58332e-05
2.52581e-05
3.94057e-05
4.90744e-05
4.0937e-05
3.9926e-05
4.08391e-05
3.93056e-05
3.41698e-05
3.17374e-05
3.40205e-05
3.22752e-05
2.7851e-05
2.82056e-05
2.54437e-05
2.86241e-05
3.22602e-05
5.13569e-05
4.78052e-05
3.99901e-05
3.40418e-05
2.94771e-05
2.72266e-05
2.70143e-05
2.46328e-05
2.30291e-05
2.07176e-05
2.22147e-05
1.88285e-05
2.06381e-05
2.80139e-05
3.22932e-05
3.18508e-05
2.69436e-05
2.58806e-05
2.41428e-05
2.20447e-05
2.10965e-05
2.03264e-05
1.81874e-05
1.68116e-05
1.66026e-05
2.37528e-05
2.63037e-05
2.54407e-05
2.33772e-05
2.21354e-05
2.33192e-05
2.31935e-05
2.33767e-05
2.14176e-05
1.99042e-05
2.01864e-05
1.95666e-05
1.84908e-05
1.7397e-05
1.6695e-05
1.64309e-05
1.19287e-05
1.12524e-05
1.25782e-05
1.29586e-05
1.33944e-05
1.31403e-05
1.28657e-05
1.24045e-05
1.17686e-05
1.12125e-05
1.13994e-05
1.12496e-05
1.04172e-05
9.58123e-06
9.21038e-06
8.92758e-06
9.18708e-06
0.000359743
0.000403684
0.00035304
0.000428187
0.000387068
0.000446498
0.000439458
0.000283444
0.000487786
0.00043822
0.000622096
0.000542612
0.000689978
0.000567719
0.00063172
0.000532171
0.000492467
0.000522131
0.000509523
0.000520482
0.000293036
0.000560779
0.000697306
0.00055296
0.000871059
0.000593066
0.000888856
0.000841594
0.00073335
0.000855896
0.000794711
0.0010428
0.000979026
0.000933042
0.000952724
0.000735546
0.000518271
0.000563437
0.00094319
0.000609716
0.000523575
0.000393977
0.000314719
0.00013822
0.000210916
0.000164423
0.0003646
0.000281395
0.000156149
0.000123677
0.00012242
6.93692e-05
0.000119996
0.000127331
8.55115e-05
9.52465e-05
0.000162837
0.000211211
5.48036e-05
7.79601e-05
6.91809e-05
8.80265e-05
9.62128e-05
8.25417e-05
5.98843e-05
5.48696e-05
6.80291e-05
5.38911e-05
9.58415e-05
8.81871e-05
7.25362e-05
7.99801e-05
7.13628e-05
6.26522e-05
5.29633e-05
5.06643e-05
5.10065e-05
0.000112011
6.84644e-05
7.48767e-05
7.18362e-05
6.32775e-05
6.88472e-05
7.84517e-05
5.78474e-05
4.59849e-05
4.50876e-05
4.29886e-05
4.08793e-05
4.38012e-05
4.2678e-05
4.42237e-05
4.73944e-05
6.03926e-05
4.95035e-05
4.84786e-05
3.83439e-05
3.87428e-05
3.74203e-05
3.53757e-05
3.38166e-05
4.18311e-05
3.12478e-05
2.73049e-05
3.6067e-05
4.31058e-05
4.20887e-05
3.72535e-05
4.02648e-05
3.48811e-05
3.19188e-05
3.30097e-05
3.26088e-05
2.83507e-05
2.4817e-05
2.76068e-05
2.44259e-05
2.63722e-05
2.84765e-05
3.31348e-05
4.97248e-05
3.99941e-05
3.59707e-05
2.86151e-05
2.71978e-05
2.70209e-05
2.50561e-05
2.25726e-05
2.11226e-05
1.99535e-05
2.59173e-05
1.93741e-05
2.03783e-05
2.48348e-05
3.17626e-05
3.46144e-05
2.95197e-05
2.60384e-05
2.44105e-05
2.24314e-05
2.11656e-05
2.02199e-05
1.8473e-05
1.67101e-05
1.65379e-05
1.65756e-05
2.50045e-05
2.38092e-05
2.78639e-05
2.36936e-05
2.25173e-05
2.29368e-05
2.33646e-05
2.36702e-05
2.18529e-05
2.0011e-05
2.04913e-05
1.97971e-05
1.84224e-05
1.73904e-05
1.66264e-05
1.6362e-05
1.6614e-05
1.32871e-05
1.33146e-05
1.18504e-05
1.41483e-05
1.34455e-05
1.37689e-05
1.28298e-05
1.22755e-05
1.18154e-05
1.11078e-05
1.13213e-05
1.11149e-05
1.03926e-05
9.59324e-06
9.18713e-06
9.13513e-06
9.01747e-06
9.40283e-06
0.000577344
0.00040696
0.000308646
0.000389197
0.000448731
0.000534775
0.000368627
0.000443356
0.000488196
0.000481743
0.000465518
0.000501727
0.000346315
0.000491488
0.00053385
0.000622489
0.000823638
0.000604574
0.000730847
0.000722625
0.00059301
0.000696562
0.000754194
0.000622321
0.000541436
0.000400203
0.000239607
0.000439838
0.000308192
0.000495168
0.000628816
0.000733703
0.000842503
0.000595419
0.000788811
0.00103567
0.00105603
0.00123095
0.00126273
0.00114643
0.00106348
0.00104036
0.00101736
0.00089099
0.000742382
0.000615243
0.000597268
0.000405462
0.000973361
0.000749218
0.000557446
0.000413353
0.000232638
0.000123495
0.000202439
0.000166669
0.00013476
0.000408893
0.000202547
0.000199775
8.33813e-05
0.000157601
9.85633e-05
0.000103959
6.14929e-05
9.79761e-05
6.78829e-05
7.35927e-05
7.57891e-05
0.000146627
0.000142788
6.75131e-05
8.73103e-05
9.0415e-05
8.30317e-05
6.58185e-05
6.48964e-05
5.32352e-05
8.97458e-05
0.000100658
4.98463e-05
5.79257e-05
8.09211e-05
8.47603e-05
7.81474e-05
7.279e-05
6.05339e-05
5.95413e-05
4.6865e-05
4.87101e-05
5.87082e-05
6.98863e-05
9.39461e-05
5.70052e-05
6.45573e-05
6.09648e-05
5.82951e-05
5.96656e-05
5.94977e-05
4.91648e-05
4.66879e-05
4.21236e-05
3.58854e-05
4.92084e-05
3.38167e-05
4.19127e-05
2.42542e-05
5.78847e-05
4.76248e-05
6.05342e-05
4.47089e-05
4.24272e-05
3.60337e-05
3.6522e-05
3.6769e-05
3.36917e-05
2.96944e-05
2.73449e-05
3.24957e-05
3.31644e-05
3.41249e-05
4.31464e-05
3.91918e-05
3.85742e-05
3.85263e-05
3.64359e-05
3.19924e-05
3.31344e-05
3.38948e-05
2.79017e-05
2.53821e-05
2.25951e-05
2.63481e-05
2.10125e-05
2.7398e-05
2.90642e-05
3.4588e-05
3.63035e-05
4.15293e-05
3.48954e-05
3.01103e-05
2.68436e-05
2.73456e-05
2.54118e-05
2.23011e-05
2.0634e-05
2.046e-05
1.99776e-05
2.60663e-05
2.15622e-05
2.05798e-05
2.4063e-05
2.7952e-05
3.34167e-05
3.04576e-05
2.75832e-05
2.45322e-05
2.24002e-05
2.17841e-05
2.00403e-05
1.82214e-05
1.70969e-05
1.70401e-05
1.66222e-05
1.72041e-05
2.60864e-05
2.76235e-05
2.52226e-05
2.50711e-05
2.21033e-05
2.36572e-05
2.36623e-05
2.37656e-05
2.20703e-05
2.03248e-05
2.05615e-05
1.98546e-05
1.85629e-05
1.74395e-05
1.67586e-05
1.631e-05
1.66077e-05
1.71139e-05
1.33809e-05
1.37818e-05
1.54404e-05
1.25956e-05
1.41695e-05
1.40342e-05
1.32149e-05
1.2252e-05
1.16915e-05
1.10566e-05
1.12427e-05
1.09925e-05
1.03627e-05
9.6317e-06
9.11227e-06
9.34066e-06
8.85646e-06
9.41238e-06
9.72987e-06
0.000778507
0.000563008
0.000711511
0.000419676
0.000499729
0.000394381
0.000379612
0.000431125
0.000403471
0.000450332
0.000493643
0.000368491
0.000426567
0.000450411
0.000424047
0.000486672
0.000397934
0.000464787
0.000439058
0.000258258
0.000643598
0.000435806
0.000566887
0.00069578
0.000599415
0.000648044
0.00060771
0.000515229
0.000603673
0.000720202
0.000487369
0.000809279
0.000402421
0.000367137
0.000594203
0.000553498
0.000391143
0.000593614
0.000526041
0.000940124
0.0011625
0.000951574
0.000415621
0.000649954
0.000984169
0.00102609
0.00110642
0.00132221
0.000775052
0.00118957
0.00101369
0.00119834
0.00109077
0.00105242
0.000840941
0.000689906
0.000408217
0.000304705
0.000131788
0.00107431
0.000868169
0.000686932
0.000455826
0.00025899
0.000162845
0.000126985
0.000256673
0.000154193
8.76001e-05
0.000486233
0.000266927
0.000115958
8.66783e-05
0.000110548
0.000131824
8.64656e-05
9.66682e-05
8.43402e-05
7.97076e-05
6.54678e-05
0.000113179
7.15382e-05
7.08122e-05
0.000141194
0.00011976
7.06125e-05
0.000101684
8.67856e-05
6.81362e-05
5.32142e-05
5.49619e-05
5.21273e-05
6.59743e-05
8.98933e-05
9.25202e-05
4.3793e-05
6.33685e-05
7.12102e-05
9.1101e-05
7.25467e-05
6.1889e-05
5.79837e-05
4.88763e-05
4.73941e-05
4.52036e-05
4.80507e-05
6.66154e-05
6.23539e-05
7.35245e-05
4.98838e-05
5.33137e-05
5.21991e-05
6.1091e-05
4.77595e-05
4.7728e-05
4.85511e-05
4.42219e-05
3.67289e-05
3.37411e-05
4.21939e-05
4.62063e-05
2.97687e-05
3.74206e-05
3.85821e-05
6.447e-05
4.56588e-05
5.77699e-05
3.85941e-05
4.24102e-05
3.59217e-05
3.70523e-05
3.42132e-05
2.95016e-05
2.75441e-05
2.96033e-05
2.76764e-05
3.48989e-05
3.56128e-05
4.03867e-05
4.41943e-05
3.89488e-05
3.84356e-05
3.52276e-05
3.4921e-05
3.31896e-05
3.23201e-05
3.05033e-05
2.42271e-05
2.29546e-05
2.07458e-05
2.81554e-05
1.71753e-05
2.55832e-05
3.05305e-05
3.61312e-05
4.03776e-05
3.69741e-05
3.46343e-05
3.03656e-05
2.82811e-05
2.71988e-05
2.54615e-05
2.28233e-05
1.98508e-05
2.02129e-05
2.02783e-05
2.13711e-05
2.12697e-05
2.03472e-05
2.06549e-05
2.32328e-05
2.68812e-05
2.98365e-05
3.015e-05
2.7791e-05
2.56391e-05
2.25502e-05
2.15546e-05
2.07368e-05
1.81337e-05
1.67672e-05
1.7093e-05
1.70377e-05
1.67304e-05
1.87934e-05
2.37694e-05
2.75136e-05
2.98498e-05
2.36e-05
2.28836e-05
2.29185e-05
2.48791e-05
2.42725e-05
2.1924e-05
2.02572e-05
2.06302e-05
1.97921e-05
1.84729e-05
1.74524e-05
1.65515e-05
1.64731e-05
1.66554e-05
1.74098e-05
1.78309e-05
1.08334e-05
1.16043e-05
1.46941e-05
1.57253e-05
1.32837e-05
1.45743e-05
1.35366e-05
1.26866e-05
1.16691e-05
1.10416e-05
1.11664e-05
1.08856e-05
1.03633e-05
9.665e-06
9.07454e-06
9.23341e-06
9.46866e-06
8.97664e-06
9.73461e-06
1.07446e-05
0.0011031
0.000807038
0.000837247
0.000489059
0.000586141
0.000714895
0.000347304
0.000354636
0.00043467
0.000439831
0.000362779
0.000381306
0.000428622
0.000435018
0.000439755
0.00041445
0.000454821
0.000424754
0.000393961
0.000440877
0.000369002
0.000537433
0.000368055
0.000364441
0.00036188
0.000270478
0.000430338
0.000474111
0.000640894
0.000552564
0.000384302
0.00063365
0.000465272
0.000519142
0.000374056
0.000669772
0.00074053
0.000540301
0.000707733
0.000612541
0.000564614
0.00043197
0.000511045
0.000748034
0.000578066
0.000323411
0.000504323
0.000752346
0.00105434
0.00095352
0.00112451
0.00112043
0.000348002
0.000421561
0.000889533
0.00105197
0.000998352
0.00105777
0.00108915
0.000972655
0.00062709
0.000999475
0.00125244
0.00116696
0.000937305
0.000852703
0.000595758
0.000425481
0.00032953
0.000330148
9.31606e-05
0.00120369
0.000968048
0.000739625
0.000501578
0.000309352
0.000143695
0.000130942
0.000126051
8.45588e-05
5.90138e-05
6.33914e-05
0.000610501
0.000377821
0.000126005
0.000113149
0.0001093
8.9857e-05
0.000127194
6.64064e-05
7.58963e-05
7.65716e-05
7.89637e-05
6.29515e-05
0.000113608
6.13228e-05
6.85787e-05
7.76609e-05
9.66498e-05
0.000105331
8.81946e-05
0.000104194
6.99147e-05
4.7944e-05
4.79241e-05
5.41024e-05
4.44712e-05
9.54002e-05
8.62694e-05
7.46076e-05
6.35605e-05
5.76237e-05
5.73984e-05
7.56048e-05
6.75113e-05
5.56082e-05
6.36537e-05
4.46643e-05
4.66308e-05
4.55358e-05
3.78977e-05
6.58351e-05
6.76726e-05
6.25497e-05
4.6979e-05
5.96808e-05
4.55285e-05
4.95273e-05
5.1478e-05
5.46969e-05
4.58259e-05
4.53977e-05
4.42435e-05
3.80218e-05
3.31206e-05
2.83379e-05
5.43156e-05
3.15733e-05
4.43517e-05
3.08581e-05
4.90831e-05
4.53551e-05
5.68424e-05
4.52976e-05
4.98686e-05
3.93891e-05
3.85168e-05
3.79115e-05
3.45668e-05
2.99684e-05
2.70494e-05
2.47808e-05
3.38037e-05
3.38253e-05
3.39412e-05
3.83811e-05
3.90907e-05
3.766e-05
4.15518e-05
3.95693e-05
3.54225e-05
3.28719e-05
3.31072e-05
3.3797e-05
2.76517e-05
2.59005e-05
2.2153e-05
2.1023e-05
2.17915e-05
2.79017e-05
2.51733e-05
2.39761e-05
3.35156e-05
3.71598e-05
4.07097e-05
3.94253e-05
3.44067e-05
2.94759e-05
2.89523e-05
2.81413e-05
2.63215e-05
2.2377e-05
2.03556e-05
1.94175e-05
2.0921e-05
2.10253e-05
2.25914e-05
1.98843e-05
1.72396e-05
2.06454e-05
2.22243e-05
2.57784e-05
2.85601e-05
2.75998e-05
2.76165e-05
2.53448e-05
2.32181e-05
2.18812e-05
2.04997e-05
1.88202e-05
1.70501e-05
1.70771e-05
1.70885e-05
1.70573e-05
1.81632e-05
2.01072e-05
2.23371e-05
2.57897e-05
3.08997e-05
2.75431e-05
2.25835e-05
2.40471e-05
2.36887e-05
2.58392e-05
2.17827e-05
1.98667e-05
2.05001e-05
1.99994e-05
1.8502e-05
1.74697e-05
1.67765e-05
1.64454e-05
1.6677e-05
1.74907e-05
1.82452e-05
1.92853e-05
1.47345e-05
1.39625e-05
1.24788e-05
1.558e-05
1.48254e-05
1.3854e-05
1.35341e-05
1.29358e-05
1.20172e-05
1.10483e-05
1.11344e-05
1.08191e-05
1.03627e-05
9.66521e-06
9.13266e-06
8.93264e-06
9.92927e-06
9.3295e-06
9.2573e-06
1.07573e-05
1.14612e-05
0.00111307
0.00136625
0.00109427
0.000910288
0.000794618
0.000922741
0.000538897
0.000615811
0.000666733
0.000693958
0.000307217
0.000405658
0.000463746
0.000467048
0.000363441
0.000391303
0.000371966
0.000425532
0.00041595
0.000272378
0.000372691
0.000406876
0.000447172
0.000465403
0.000413652
0.000445795
0.000453932
0.000369973
0.000408154
0.000503567
0.000316146
0.000346688
0.000454688
0.000518524
0.000524305
0.000379834
0.000542742
0.000719992
0.000502313
0.000340294
0.000486483
0.000447547
0.000505357
0.000551927
0.000453965
0.000702416
0.000779595
0.000450766
0.000388696
0.000146149
0.000727609
0.000455387
0.000763042
0.000445267
0.000380072
0.000327298
0.000446817
0.000514515
0.000913789
0.000891575
0.00117535
0.00112893
0.00103629
0.000145503
0.000428474
0.00079662
0.00100578
0.00122754
0.00126184
0.00107797
0.000822765
0.000712051
0.000370963
0.000936824
0.00113866
0.00117313
0.000975062
0.000910348
0.000563537
0.000591105
0.000240903
0.000160266
0.000101435
0.000114494
0.00123959
0.00109063
0.000732227
0.000471497
0.000284585
0.000164337
0.000150456
9.29288e-05
6.92763e-05
7.06186e-05
5.04742e-05
0.000110184
0.00057038
0.000381787
0.000147322
8.69044e-05
0.000147908
9.55921e-05
9.53858e-05
6.70764e-05
9.83542e-05
7.30227e-05
7.06603e-05
7.26628e-05
5.84498e-05
0.000126761
0.000118109
6.67451e-05
7.39592e-05
6.2451e-05
6.54405e-05
8.95901e-05
0.000104213
6.08939e-05
4.98815e-05
4.47321e-05
5.97101e-05
4.8488e-05
4.19649e-05
6.0984e-05
6.15285e-05
7.76812e-05
5.74128e-05
6.36245e-05
6.76795e-05
6.18394e-05
6.96845e-05
5.5965e-05
5.32263e-05
5.00911e-05
4.50438e-05
4.10155e-05
3.75672e-05
3.43443e-05
5.20666e-05
8.81063e-05
7.61547e-05
5.66073e-05
4.33438e-05
5.38686e-05
4.87423e-05
4.94781e-05
4.51478e-05
5.45481e-05
4.90938e-05
4.12059e-05
3.85977e-05
3.3396e-05
2.6768e-05
2.50702e-05
3.91719e-05
5.82574e-05
3.43945e-05
3.53172e-05
4.19476e-05
5.05494e-05
4.31193e-05
5.60412e-05
4.04426e-05
4.84051e-05
3.90967e-05
3.82529e-05
3.51893e-05
3.01354e-05
2.72056e-05
2.39945e-05
2.34682e-05
5.13263e-05
4.26893e-05
3.94091e-05
4.24537e-05
3.94293e-05
3.9811e-05
3.56151e-05
3.91254e-05
3.42778e-05
3.53345e-05
3.293e-05
3.23247e-05
2.90807e-05
2.44102e-05
2.27097e-05
2.08696e-05
2.21281e-05
2.47086e-05
2.34443e-05
2.54906e-05
2.4545e-05
3.41512e-05
4.2048e-05
4.02404e-05
3.90898e-05
3.62582e-05
2.93189e-05
2.85817e-05
2.80821e-05
2.63321e-05
2.3511e-05
1.99815e-05
1.972e-05
2.0127e-05
2.21865e-05
2.19445e-05
2.46745e-05
2.48764e-05
1.90153e-05
1.98695e-05
2.40037e-05
2.46055e-05
2.74184e-05
2.65345e-05
2.67033e-05
2.5882e-05
2.28338e-05
2.20444e-05
2.08757e-05
1.86695e-05
1.72276e-05
1.71582e-05
1.71912e-05
1.72813e-05
1.83374e-05
2.01443e-05
2.28116e-05
2.39242e-05
2.89272e-05
2.81107e-05
2.6462e-05
2.42253e-05
2.42162e-05
2.4122e-05
2.53027e-05
2.26728e-05
1.95702e-05
2.02419e-05
1.98613e-05
1.85372e-05
1.74429e-05
1.66606e-05
1.64641e-05
1.66864e-05
1.74434e-05
1.83394e-05
1.9599e-05
2.14735e-05
1.42463e-05
1.37622e-05
1.40089e-05
1.42285e-05
1.4886e-05
1.49291e-05
1.32669e-05
1.29258e-05
1.22447e-05
1.11433e-05
1.11864e-05
1.08471e-05
1.04291e-05
9.6424e-06
9.19759e-06
8.80691e-06
9.64757e-06
1.07144e-05
9.41216e-06
1.02838e-05
1.12403e-05
1.22146e-05
1.2809e-05
0.00271386
0.00110428
0.00104613
0.00108169
0.000985068
0.00114514
0.000731649
0.000758087
0.000772896
0.000755141
0.000485222
0.000520461
0.00051709
0.000587721
0.000466036
0.000406217
0.000372769
0.000384848
0.000469305
0.000443344
0.000444627
0.00039364
0.000406513
0.000348372
0.00046883
0.000562726
0.000406887
0.000444505
0.000402457
0.00047578
0.000350708
0.00037332
0.000444266
0.000443634
0.000397486
0.000480676
0.000440791
0.000335678
0.000477004
0.000363248
0.000358742
0.000439364
0.000456721
0.00043883
0.000555372
0.000539217
0.000387156
0.000604537
0.000553956
0.00045267
0.000427053
0.000243483
0.000112811
0.000382421
0.000550919
0.000674206
0.000848215
0.000618676
0.000537017
0.000547279
0.000415743
0.000757323
0.000877346
0.00113648
0.000333055
0.000395819
0.000232166
0.000524237
0.000458852
0.000827008
0.000992874
0.00111812
0.00112554
0.00113172
0.000768589
0.000296931
0.000534285
0.000981124
0.00102501
0.00127255
0.00120501
0.000988642
0.000743445
0.000741589
0.00040986
0.000227435
0.00113044
0.00121416
0.00105311
0.00105133
0.000937645
0.000663516
0.000570641
0.000269116
0.000242152
0.000132505
0.00015
9.09903e-05
0.0012619
0.00100662
0.000781657
0.000537185
0.000306363
0.000144171
0.000143414
0.000123945
8.91232e-05
5.63038e-05
7.2216e-05
8.04281e-05
4.91465e-05
0.000500726
0.000354608
0.000170149
8.27032e-05
0.00014491
0.000119827
0.000100603
7.05725e-05
8.79958e-05
7.61518e-05
6.66279e-05
6.84122e-05
5.00345e-05
4.81817e-05
0.000140367
0.000147745
0.000103473
8.40928e-05
6.99484e-05
6.35295e-05
6.67051e-05
8.09524e-05
7.18482e-05
5.86255e-05
4.8068e-05
4.77423e-05
4.94507e-05
4.35796e-05
3.10081e-05
0.00010788
8.42313e-05
5.75788e-05
5.63746e-05
5.70927e-05
6.04901e-05
7.46802e-05
6.6006e-05
6.14345e-05
6.36617e-05
4.31378e-05
4.94961e-05
4.14586e-05
3.55933e-05
3.42069e-05
2.88924e-05
0.000104106
4.60209e-05
0.000105194
7.10926e-05
5.32094e-05
4.83428e-05
5.35124e-05
5.21951e-05
5.64151e-05
4.6527e-05
5.25918e-05
5.09991e-05
3.60022e-05
3.41761e-05
2.66057e-05
2.44335e-05
2.76575e-05
3.59531e-05
3.41471e-05
4.50528e-05
3.59894e-05
4.4476e-05
4.57955e-05
4.64325e-05
4.48624e-05
4.44297e-05
4.1378e-05
4.26836e-05
4.15001e-05
3.64729e-05
3.02711e-05
2.69575e-05
2.39749e-05
2.25125e-05
2.37027e-05
4.56848e-05
4.75573e-05
3.26169e-05
4.28392e-05
4.57782e-05
3.73631e-05
3.82198e-05
3.7116e-05
3.47964e-05
3.40308e-05
3.43805e-05
3.34625e-05
2.76536e-05
2.46442e-05
2.22016e-05
2.0706e-05
2.20755e-05
2.49505e-05
2.80275e-05
2.58082e-05
2.85177e-05
2.69908e-05
2.9071e-05
4.46245e-05
4.37336e-05
3.77366e-05
3.6369e-05
2.9162e-05
2.76358e-05
2.8376e-05
2.54401e-05
2.30701e-05
2.03557e-05
1.93881e-05
2.03175e-05
2.19469e-05
2.31423e-05
2.41081e-05
2.76402e-05
3.25416e-05
2.51299e-05
2.27775e-05
2.549e-05
2.52912e-05
2.60652e-05
2.59696e-05
2.50916e-05
2.50809e-05
2.33313e-05
2.18361e-05
2.10932e-05
1.92666e-05
1.72342e-05
1.71141e-05
1.71309e-05
1.73671e-05
1.8728e-05
2.01604e-05
2.30531e-05
2.61509e-05
2.18281e-05
2.48107e-05
2.98182e-05
2.5642e-05
2.44229e-05
2.46876e-05
2.44263e-05
2.48376e-05
2.34141e-05
2.02788e-05
2.0294e-05
1.9821e-05
1.8658e-05
1.74087e-05
1.68352e-05
1.64891e-05
1.67068e-05
1.74827e-05
1.83722e-05
1.98451e-05
2.17861e-05
2.41604e-05
2.262e-05
1.27699e-05
1.23334e-05
1.41187e-05
1.44635e-05
1.45748e-05
1.5057e-05
1.32827e-05
1.29411e-05
1.24133e-05
1.13854e-05
1.11137e-05
1.0846e-05
1.04772e-05
9.76028e-06
9.21935e-06
8.73585e-06
9.24496e-06
1.1394e-05
1.11421e-05
9.87017e-06
1.07364e-05
1.20506e-05
1.41792e-05
1.38041e-05
0.00271881
0.00270732
0.00113737
0.00104986
0.00108487
0.00113622
0.000999934
0.0010891
0.00121996
0.000740282
0.000772404
0.000852133
0.000779764
0.000675126
0.000497338
0.000508701
0.000558199
0.000487589
0.000574655
0.000360739
0.000301591
0.000374671
0.00037668
0.000408044
0.000469596
0.000404241
0.000356822
0.000388358
0.000398124
0.000346317
0.00043612
0.000462218
0.000289292
0.000331434
0.000249104
0.000558416
0.000433076
0.000452943
0.000478977
0.000287177
0.000327253
0.000353176
0.000432592
0.000524102
0.000450431
0.000481894
0.000419084
0.00060522
0.000358981
0.000466188
0.000551297
0.000500573
0.000440955
0.000346452
0.000479416
0.000515721
0.000276726