/*--------------------------------*- C++ -*----------------------------------*\
  =========                 |
  \\      /  F ield         | OpenFOAM: The Open Source CFD Toolbox
   \\    /   O peration     | Website:  https://openfoam.org
    \\  /    A nd           | Version:  7
     \\/     M anipulation  |
\*---------------------------------------------------------------------------*/
FoamFile
{
    version     2.0;
    format      ascii;
    class       surfaceScalarField;
    location    "1";
    object      phi;
}
// * * * * * * * * * * * * * * * * * * * * * * * * * * * * * * * * * * * * * //

dimensions      [0 3 -1 0 0 0 0];

internalField   nonuniform List<scalar> 
53739
(
-9.83369e-06
-9.3707e-05
9.16924e-05
-1.47666e-05
7.61465e-05
0.000281537
-1.01502e-05
-8.25192e-05
9.20764e-05
-9.0248e-06
-8.3938e-05
9.03017e-05
-1.64226e-05
0.000101132
0.000476281
-1.44599e-05
8.31175e-05
0.000282646
-1.32608e-05
7.98024e-05
0.000277903
-1.03938e-05
-7.10839e-05
9.24671e-05
-9.34755e-06
-7.31671e-05
9.06531e-05
-8.10072e-06
-7.5219e-05
8.86287e-05
-2.19878e-05
0.000176659
0.00067523
-6.72978e-06
9.84045e-05
0.000477626
-1.16687e-05
8.93883e-05
0.000469965
-1.39995e-05
8.94599e-05
0.000283684
-1.30503e-05
8.72405e-05
0.00027891
-1.16786e-05
7.96004e-05
0.000273899
-1.0455e-05
-5.95805e-05
9.28502e-05
-9.51629e-06
-6.21894e-05
9.10057e-05
-8.29917e-06
-6.52449e-05
8.89782e-05
-6.69983e-06
-6.79112e-05
8.66064e-05
-1.79368e-05
0.000194975
0.000879206
-3.07255e-06
0.000181338
0.000677693
-8.12202e-06
0.000171183
0.000666642
-1.18425e-06
9.05074e-05
0.000479148
-4.85902e-06
8.73278e-05
0.000471496
-9.07033e-06
8.31874e-05
0.00046362
-1.25902e-05
9.45159e-05
0.000284799
-1.25175e-05
9.40174e-05
0.000279908
-1.11687e-05
8.64409e-05
0.00027494
-8.15428e-06
6.81841e-05
0.000269236
-1.05243e-05
-4.7998e-05
9.32351e-05
-9.50479e-06
-5.12396e-05
9.14052e-05
-8.42213e-06
-5.51256e-05
8.93085e-05
-6.77989e-06
-5.91532e-05
8.70001e-05
-5.01782e-06
-7.04708e-05
8.42754e-05
-2.05595e-05
0.000344002
0.00108807
6.13274e-06
0.000197627
0.000881182
-8.73215e-07
0.000165709
0.000867009
1.0298e-05
0.000178121
0.000679389
5.07993e-06
0.000169745
0.000669192
-5.23236e-07
0.000157937
0.00065878
-1.31735e-06
8.42207e-05
0.00048163
-9.61512e-07
8.15761e-05
0.000473344
-4.27393e-06
8.25145e-05
0.000465274
-4.49374e-06
7.58097e-05
0.000455724
-1.20349e-05
9.91601e-05
0.000286111
-1.10548e-05
9.93766e-05
0.00028099
-1.05188e-05
9.25691e-05
0.000275876
-7.37574e-06
7.32904e-05
0.000270429
-4.01841e-06
4.90493e-05
0.000263506
-1.04057e-05
-3.65211e-05
9.36184e-05
-9.56161e-06
-4.02248e-05
9.1782e-05
-8.45886e-06
-4.49505e-05
8.96888e-05
-6.89638e-06
-5.03161e-05
8.73678e-05
-5.08766e-06
-6.30608e-05
8.46777e-05
-3.98826e-06
-6.92129e-05
8.19657e-05
3.59925e-06
0.000595724
0.00129146
2.17158e-05
0.000342199
0.00109026
3.34471e-07
0.000265124
0.00107343
2.14369e-05
0.000197838
0.000883653
1.46345e-05
0.000168116
0.00086922
8.16021e-06
0.000159991
0.000854792
4.91185e-06
0.000180186
0.000681076
1.58268e-05
0.000161146
0.0006712
8.41152e-06
0.00015313
0.000661314
7.85524e-06
0.000132062
0.000647022
-6.29342e-06
8.36161e-05
0.000484049
-1.01565e-06
7.74027e-05
0.000475765
-1.3125e-06
7.92628e-05
0.00046739
-5.64014e-07
7.68321e-05
0.00045744
1.27566e-06
6.37119e-05
0.000446072
-1.1097e-05
0.000103077
0.000287921
-1.0329e-05
0.00010402
0.000282235
-9.28552e-06
9.74008e-05
0.000276985
-6.78989e-06
7.77826e-05
0.000271278
-3.32168e-06
5.29411e-05
0.000264771
-2.61778e-06
3.85515e-05
0.000257515
-1.04524e-05
-2.49832e-05
9.40058e-05
-9.45263e-06
-2.93113e-05
9.21576e-05
-8.54959e-06
-3.46863e-05
9.00674e-05
-6.97319e-06
-4.13805e-05
8.77264e-05
-5.23337e-06
-5.55057e-05
8.50461e-05
-4.08312e-06
-6.28114e-05
8.23593e-05
-2.61344e-06
-6.32512e-05
7.95883e-05
0.000106045
0.000789984
0.00150195
6.67354e-05
0.000564681
0.00129116
3.04373e-05
0.000484258
0.00127443
6.30745e-05
0.000316477
0.00109185
3.41057e-05
0.000261276
0.00107464
9.77429e-06
0.000226034
0.00105923
1.84753e-05
0.000195792
0.000885873
2.90591e-05
0.000166395
0.000872143
1.98512e-05
0.000160424
0.000857347
2.36013e-05
0.000145531
0.000837524
-4.67588e-06
0.000186461
0.000682912
1.15012e-05
0.000156746
0.000672959
1.61772e-05
0.00014332
0.00066352
1.43158e-05
0.0001289
0.000649595
1.37197e-05
0.00010808
0.000632464
-6.77262e-06
8.45575e-05
0.000485809
-4.32312e-06
7.75272e-05
0.000477919
-1.43837e-06
7.75682e-05
0.000469612
1.75435e-06
7.61716e-05
0.000459506
4.79649e-06
6.52688e-05
0.000447764
3.63602e-06
5.40696e-05
0.00043559
-1.10524e-05
0.000106918
0.000289704
-9.4019e-06
0.000108003
0.000283887
-8.71479e-06
0.000101553
0.000278248
-5.98537e-06
8.14088e-05
0.000272371
-2.87146e-06
5.62694e-05
0.000265587
-2.07101e-06
4.26041e-05
0.000258707
2.52154e-07
3.566e-05
0.000250424
-1.04238e-05
-1.34649e-05
9.43804e-05
-9.44074e-06
-1.84001e-05
9.25353e-05
-8.49081e-06
-2.44788e-05
9.04408e-05
-7.06974e-06
-3.23397e-05
8.80964e-05
-5.36569e-06
-4.7813e-05
8.53994e-05
-4.20909e-06
-5.62833e-05
8.27272e-05
-2.7127e-06
-5.81288e-05
7.99497e-05
-2.05814e-06
-5.59349e-05
7.73451e-05
0.000370072
0.000951331
0.00170723
0.00021557
0.000651501
0.00150317
0.000111186
0.000666318
0.0014886
0.000127401
0.000516916
0.00129242
7.8218e-05
0.000459005
0.0012723
3.64664e-05
0.000408047
0.0012561
7.86844e-05
0.00027234
0.00109522
7.11094e-05
0.000235367
0.0010757
3.70903e-05
0.000223151
0.00106028
3.70857e-05
0.000213329
0.00103473
-6.91e-06
0.000209434
0.000889278
1.89379e-05
0.00017015
0.00087468
3.22366e-05
0.000156409
0.000860099
3.24908e-05
0.000144612
0.000840091
3.28929e-05
0.00012188
0.000818321
-2.74242e-06
0.000190192
0.000685664
2.68268e-06
0.000157817
0.000674835
1.16366e-05
0.00013794
0.000665265
2.01493e-05
0.000122369
0.000651656
1.95398e-05
0.000107943
0.000634988
1.46854e-05
9.86193e-05
0.000617124
-7.64515e-06
8.65419e-05
0.000487664
-5.30818e-06
7.96021e-05
0.000479641
-4.26655e-06
7.94951e-05
0.000471544
1.7128e-06
7.66091e-05
0.000461477
6.29917e-06
6.60551e-05
0.000449549
5.975e-06
5.65572e-05
0.000437231
8.59002e-06
4.52388e-05
0.000423604
-1.13176e-05
0.000111118
0.000290787
-9.11383e-06
0.000111835
0.000285546
-7.93786e-06
0.000105262
0.000279624
-5.60507e-06
8.46101e-05
0.000273582
-2.40019e-06
5.9026e-05
0.000266649
-1.57251e-06
4.58692e-05
0.000259686
7.03112e-07
3.9486e-05
0.000251465
1.02198e-06
3.2917e-05
0.000243652
-1.03281e-05
-2.03453e-06
9.47511e-05
-9.3904e-06
-7.53147e-06
9.29022e-05
-8.42291e-06
-1.43267e-05
9.08062e-05
-7.06158e-06
-2.32978e-05
8.84605e-05
-5.4938e-06
-3.99813e-05
8.57586e-05
-4.34554e-06
-4.96146e-05
8.30762e-05
-2.83147e-06
-5.28668e-05
8.02967e-05
-2.16553e-06
-5.14801e-05
7.76604e-05
-1.64206e-06
-4.69408e-05
7.52742e-05
0.000776865
0.00107144
0.00193986
0.000439274
0.000737836
0.0017061
0.000337386
0.000762835
0.00168142
0.000273972
0.000523737
0.00149603
0.000206593
0.000554372
0.00148674
0.000113479
0.000502382
0.00146893
0.000191958
0.000424647
0.00129492
0.000136829
0.000411694
0.00127401
7.7613e-05
0.000384434
0.00125539
6.9103e-05
0.000334596
0.00122729
8.17055e-05
0.000201617
0.00109794
7.34271e-05
0.000197556
0.00107854
6.58051e-05
0.000203677
0.00106161
5.91121e-05
0.000210586
0.0010364
4.87405e-05
0.000189557
0.00101072
6.34203e-06
0.000212311
0.000890452
7.45456e-06
0.000177482
0.000877174
2.16626e-05
0.000158139
0.000862924
4.36371e-05
0.000138885
0.000842338
3.89896e-05
0.000121579
0.000820942
3.43821e-05
0.000110616
0.000798379
8.44341e-06
0.000182213
0.000689757
3.15302e-06
0.000157757
0.000677263
3.71601e-06
0.000137596
0.000667195
1.73405e-05
0.000118551
0.000653455
2.39554e-05
0.000104977
0.000636966
1.90076e-05
0.000101162
0.000619413
2.24138e-05
8.96709e-05
0.000598981
-1.18704e-05
9.24125e-05
0.000489552
-6.45904e-06
8.33275e-05
0.000481284
-5.10372e-06
8.30497e-05
0.000473252
-4.86977e-07
7.97318e-05
0.000463303
6.42357e-06
6.74097e-05
0.000451298
7.02712e-06
5.86541e-05
0.000438852
1.00223e-05
4.79892e-05
0.000425161
9.20838e-06
4.11814e-05
0.000412407
-1.17473e-05
0.000115939
0.000292045
-8.715e-06
0.000115337
0.00028661
-7.37503e-06
0.000108574
0.000281187
-4.99586e-06
8.74922e-05
0.000274677
-2.15223e-06
6.14912e-05
0.000267775
-1.22444e-06
4.86963e-05
0.000260701
1.12007e-06
4.26588e-05
0.000252561
1.33172e-06
3.63884e-05
0.000244496
1.50883e-06
2.74843e-05
0.000237466
-1.02365e-05
9.2904e-06
9.51475e-05
-9.25491e-06
3.20777e-06
9.32667e-05
-8.32518e-06
-4.26518e-06
9.11658e-05
-7.01636e-06
-1.42942e-05
8.88189e-05
-5.53618e-06
-3.20902e-05
8.61056e-05
-4.44563e-06
-4.2824e-05
8.34135e-05
-2.94556e-06
-4.74638e-05
8.06187e-05
-2.26968e-06
-4.69092e-05
7.79954e-05
-1.73277e-06
-4.31256e-05
7.5578e-05
-1.03453e-06
-4.39547e-05
7.32375e-05
0.00128587
0.000953373
0.00202398
0.000829416
0.000715632
0.00191727
0.000719776
0.000830923
0.00192166
0.000511582
0.000517787
0.00170611
0.000413545
0.000580196
0.00168178
0.000272785
0.000573796
0.00165596
0.000352359
0.000388127
0.00150025
0.000257244
0.00045046
0.00147952
0.000179769
0.000421856
0.00146511
0.000151709
0.0004044
0.0014289
0.000237751
0.000288464
0.00130906
0.000177886
0.000327924
0.00127423
0.000122788
0.000344503
0.00125696
0.00010483
0.000314891
0.00122937
7.53502e-05
0.000277995
0.00119895
7.85561e-05
0.00014707
0.00110195
7.5091e-05
0.000147873
0.00107999
6.04531e-05
0.000179276
0.00106415
8.1497e-05
0.000196126
0.00103821
6.52943e-05
0.000186695
0.00101296
5.59607e-05
0.000154701
0.000984289
2.03888e-05
0.000213658
0.000892553
1.97633e-05
0.000172562
0.000878761
1.07584e-05
0.00016342
0.000864851
3.80293e-05
0.000135588
0.000845532
5.03767e-05
0.000114566
0.000822929
3.95049e-05
0.000109937
0.000801123
4.49215e-05
8.7978e-05
0.000776604
2.22978e-05
0.000155885
0.000693755
1.28751e-05
0.00014738
0.000680801
3.84617e-06
0.000136522
0.000669387
1.18733e-05
0.000118022
0.000655364
2.26701e-05
0.000103304
0.000638882
2.27924e-05
0.000100985
0.000621377
2.55287e-05
9.24584e-05
0.000601119
2.12026e-05
7.13473e-05
0.000582989
-1.38138e-05
9.97913e-05
0.000491314
-7.79044e-06
8.87251e-05
0.00048323
-6.04448e-06
8.82176e-05
0.000474785
-7.58863e-07
8.37837e-05
0.000464963
4.66569e-06
7.09562e-05
0.000452939
7.18037e-06
6.10988e-05
0.000440449
1.08171e-05
5.04424e-05
0.000426702
1.02848e-05
4.34934e-05
0.000413896
8.8854e-06
3.84678e-05
0.000401999
-1.08658e-05
0.000119758
0.000293737
-8.67837e-06
0.000119042
0.000287764
-6.65461e-06
0.000111155
0.000282357
-4.58414e-06
9.01656e-05
0.000276081
-1.65734e-06
6.3561e-05
0.000268728
-9.68578e-07
5.12824e-05
0.000261712
1.50255e-06
4.53988e-05
0.000253512
1.60247e-06
3.9557e-05
0.000245521
1.6689e-06
3.03329e-05
0.000238246
2.56562e-06
1.71001e-05
0.000231605
-9.74025e-06
2.01153e-05
9.55183e-05
-9.13588e-06
1.38261e-05
9.3665e-05
-8.21251e-06
5.68734e-06
9.15267e-05
-6.91213e-06
-5.38584e-06
8.91696e-05
-5.52835e-06
-2.41945e-05
8.64516e-05
-4.4953e-06
-3.59695e-05
8.37464e-05
-3.03179e-06
-4.19401e-05
8.09217e-05
-2.36884e-06
-4.22148e-05
7.82932e-05
-1.82634e-06
-3.9203e-05
7.58992e-05
-1.1449e-06
-4.07791e-05
7.35473e-05
-6.24885e-07
-4.06625e-05
7.12569e-05
0.00142687
0.00306882
0.00227192
0.000831495
0.00094918
0.00200406
0.000938927
0.00095453
0.00196414
0.000816877
0.00043346
0.00191038
0.000665591
0.000577977
0.00191817
0.00052826
0.000686543
0.00187335
0.000513975
0.000369638
0.00171067
0.000454618
0.000410509
0.00167842
0.000313312
0.00046875
0.00165329
0.000269553
0.000414553
0.00161628
0.000319353
0.000325995
0.00151154
0.000301781
0.000347782
0.00147903
0.000209821
0.000353441
0.00146091
0.000200182
0.000347883
0.00142627
0.000138493
0.000313242
0.00139741
0.000199924
0.000189643
0.00131313
0.000204148
0.000221595
0.00128633
0.000140467
0.000281757
0.00125696
0.000129485
0.000293698
0.00123016
0.000109908
0.000260151
0.0012026
8.06395e-05
0.000221969
0.00116955
7.51745e-05
0.000112383
0.00110079
7.39829e-05
0.000111214
0.00108439
5.70262e-05
0.000146599
0.0010664
7.49712e-05
0.000182714
0.00104062
8.47528e-05
0.000175994
0.00101453
6.96897e-05
0.000151158
0.00098632
7.40362e-05
0.000121048
0.000955636
6.52705e-05
0.000184584
0.000899694
2.66279e-05
0.000170293
0.000881069
2.29792e-05
0.000155851
0.000867197
2.02479e-05
0.000144522
0.000847543
4.70427e-05
0.000109559
0.000826166
5.03092e-05
0.000102074
0.000803276
4.74848e-05
8.78317e-05
0.000779314
4.25395e-05
7.12378e-05
0.000757071
2.36763e-05
0.000126339
0.00069561
2.54806e-05
0.000123013
0.000684851
1.14234e-05
0.000127585
0.00067227
1.27328e-05
0.000116411
0.000657506
1.9122e-05
0.000103439
0.000640773
2.24205e-05
0.00010131
0.000623316
2.81659e-05
9.33506e-05
0.000603136
2.32265e-05
7.44949e-05
0.00058503
2.00733e-05
5.37134e-05
0.000567717
-1.07002e-05
0.000104984
0.000493051
-8.45641e-06
9.46184e-05
0.000485198
-5.55849e-06
9.36694e-05
0.000476682
-1.59675e-06
8.89705e-05
0.000466611
4.71682e-06
7.48786e-05
0.000454667
6.09752e-06
6.51455e-05
0.000441826
1.10087e-05
5.31682e-05
0.000428217
1.11298e-05
4.52904e-05
0.000415378
9.75905e-06
4.07997e-05
0.000403474
9.01763e-06
2.43828e-05
0.000392257
-8.6903e-06
0.000121654
0.000295137
-7.7688e-06
0.000121961
0.000289451
-6.37182e-06
0.000113758
0.000283321
-3.94963e-06
9.2115e-05
0.000277446
-1.57028e-06
6.57821e-05
0.000269902
-5.30064e-07
5.33533e-05
0.000262692
1.81755e-06
4.7762e-05
0.000254499
1.88548e-06
4.23668e-05
0.000246448
1.88464e-06
3.2935e-05
0.000239208
2.6017e-06
1.91776e-05
0.000232422
3.13246e-06
1.143e-05
0.000225998
-9.41945e-06
3.06358e-05
9.58889e-05
-8.73404e-06
2.40449e-05
9.40336e-05
-8.10598e-06
1.55612e-05
9.18971e-05
-6.81619e-06
3.43794e-06
8.95191e-05
-5.47421e-06
-1.6345e-05
8.67943e-05
-4.52739e-06
-2.90668e-05
8.40763e-05
-3.09482e-06
-3.63499e-05
8.1251e-05
-2.43482e-06
-3.74235e-05
7.85652e-05
-1.89994e-06
-3.52063e-05
7.61964e-05
-1.26057e-06
-3.74792e-05
7.38598e-05
-7.29515e-07
-3.79517e-05
7.1566e-05
-1.07039e-07
-3.59423e-05
6.94207e-05
0.000765377
0.00597016
0.00376716
0.000976651
0.00570479
0.00309796
0.000852279
0.00321972
0.00220792
0.00108517
0.00305871
0.00208286
0.000733438
0.00109097
0.00197558
0.000705105
0.000948525
0.00197055
0.000627201
0.000705964
0.00196549
0.000723102
0.000242473
0.0019064
0.000670393
0.000363953
0.00190863
0.000581657
0.000469682
0.00186669
0.000464795
0.000629085
0.00180785
0.000438207
0.000264001
0.00171018
0.000445369
0.000295049
0.00168254
0.00034422
0.000368988
0.00164378
0.000318168
0.000339132
0.00161072
0.000236251
0.000350344
0.00158399
0.000278461
0.000272926
0.00150909
0.000271802
0.000301852
0.00148982
0.000231454
0.000284995
0.00145649
0.000208831
0.000301961
0.00142748
0.000175305
0.000276493
0.00139762
0.000144053
0.000254395
0.00135247
0.00015896
0.000133885
0.00131541
0.000168306
0.000153177
0.00128722
0.000161064
0.000198268
0.00126578
0.000141231
0.000252322
0.00123208
0.000116896
0.000254443
0.00120372
0.000107407
0.000213662
0.00117319
9.94355e-05
0.00015576
0.00113923
7.50463e-05
0.000121636
0.00110427
7.22597e-05
8.37212e-05
0.00108265
5.96901e-05
0.000123969
0.00107031
6.90012e-05
0.000156487
0.00104388
7.71122e-05
0.000169478
0.00101707
8.37936e-05
0.000144516
0.000987693
8.31147e-05
0.000113848
0.00095789
6.64646e-05
8.31194e-05
0.00093173
6.57801e-05
0.000156839
0.000905195
5.66219e-05
0.000151514
0.000887332
2.8465e-05
0.000150078
0.000869801
3.74225e-05
0.00013683
0.0008502
2.9315e-05
0.000118233
0.000828675
4.70955e-05
9.7438e-05
0.000806127
5.53186e-05
8.23942e-05
0.00078156
4.29722e-05
7.12313e-05
0.000759574
4.07572e-05
6.05616e-05
0.000737798
1.17697e-05
0.000111756
0.000698719
2.50109e-05
9.79225e-05
0.000687234
2.07598e-05
0.000110055
0.000676062
1.71773e-05
0.00010993
0.000659977
2.03544e-05
0.000102466
0.000642842
2.09745e-05
0.000102032
0.000625175
2.87479e-05
9.37952e-05
0.000605133
2.53755e-05
7.63836e-05
0.000587002
2.16236e-05
5.71148e-05
0.000569764
1.95376e-05
3.44744e-05
0.000553885
-3.17009e-06
0.000104896
0.000494655
-4.86581e-06
9.78136e-05
0.000486953
-4.63064e-06
9.85362e-05
0.00047859
4.76703e-08
9.32062e-05
0.000468449
4.33946e-06
7.91122e-05
0.000456468
6.6943e-06
6.87591e-05
0.000443829
1.04104e-05
5.69751e-05
0.000429426
1.14719e-05
4.7092e-05
0.000416829
1.05516e-05
4.25828e-05
0.000404928
9.56386e-06
2.71431e-05
0.000393752
9.72828e-06
1.58709e-05
0.000382754
-6.44363e-06
0.000121721
0.000296192
-6.05895e-06
0.000123432
0.000290991
-5.58805e-06
0.000115863
0.000284827
-3.50559e-06
9.37037e-05
0.000278422
-1.12123e-06
6.77003e-05
0.000271174
-4.18298e-07
5.54081e-05
0.000263738
2.12058e-06
4.9704e-05
0.000255534
2.23299e-06
4.46982e-05
0.0002475
2.0545e-06
3.53361e-05
0.000240093
2.75794e-06
2.10632e-05
0.000233304
3.16463e-06
1.31059e-05
0.000226852
3.84387e-06
1.00492e-05
0.000220397
-9.20034e-06
4.09392e-05
9.62254e-05
-8.42702e-06
3.39656e-05
9.43952e-05
-7.83359e-06
2.51678e-05
9.22605e-05
-6.7284e-06
1.21912e-05
8.98722e-05
-5.41747e-06
-8.54529e-06
8.71369e-05
-4.52332e-06
-2.21558e-05
8.44066e-05
-3.14626e-06
-3.07017e-05
8.15743e-05
-2.49116e-06
-3.25674e-05
7.88861e-05
-1.95333e-06
-3.11697e-05
7.6482e-05
-1.35804e-06
-3.40904e-05
7.41657e-05
-8.26833e-07
-3.51429e-05
7.18778e-05
-2.22064e-07
-3.3871e-05
6.97167e-05
1.14147e-07
-3.19125e-05
6.7881e-05
0.000648458
0.00567967
0.00388073
0.000657128
0.00616038
0.00372098
0.00106609
0.00584267
0.00372863
0.000768541
0.00572105
0.00301664
0.000964295
0.00526814
0.0031216
0.000628209
0.00354151
0.00215882
0.000797738
0.00310703
0.00206696
0.000979803
0.0022652
0.00202493
0.000550106
0.0012601
0.00201465
0.000681274
0.000924983
0.00198824
0.00060824
0.000678733
0.0019712
0.000516853
0.000540075
0.00194784
0.000590854
9.58223e-05
0.00191866
0.000645186
0.0001648
0.00190573
0.00060084
0.000269245
0.00185245
0.000547948
0.000465858
0.00180013
0.00040439
0.000456757
0.00175051
0.000345382
0.000219739
0.00172176
0.000343926
0.000244338
0.00168877
0.000349618
0.000283528
0.00164983
0.000281254
0.000305584
0.00160491
0.00026164
0.000293678
0.00158105
0.000228746
0.000305838
0.00154007
0.000243439
0.000219266
0.00151067
0.000258944
0.000235931
0.00148437
0.000210698
0.000258774
0.0014664
0.000239063
0.000236625
0.001424
0.000165764
0.000252433
0.00140267
0.00018312
0.000220667
0.00135564
0.000151321
0.000207946
0.00131501
0.000109456
0.000125813
0.00131692
0.000121232
0.000132195
0.00128742
0.000134315
0.000144599
0.00126626
0.000167899
0.000180279
0.00123893
0.00013718
0.000219921
0.00120653
0.000114073
0.000212209
0.0011749
0.000116814
0.000153092
0.00114216
9.30308e-05
0.000129471
0.00110982
4.57865e-05
0.000161622
0.00110827
6.73129e-05
9.0934e-05
0.00108637
6.52992e-05
9.865e-05
0.00107113
8.12971e-05
0.000135815
0.00104711
7.643e-05
0.000146326
0.00101991
7.84818e-05
0.000140179
0.000990021
9.18817e-05
0.000105651
0.000959327
6.96076e-05
8.04082e-05
0.000933966
6.42011e-05
6.2105e-05
0.000905901
2.8663e-05
0.000154421
0.000906181
5.33597e-05
0.000136657
0.000891703
4.89964e-05
0.000134683
0.00087449
3.97261e-05
0.000131131
0.000852951
4.48873e-05
0.000112568
0.000831333
3.41939e-05
0.000103994
0.0008089
5.24025e-05
8.10219e-05
0.000783845
4.92742e-05
6.70308e-05
0.000761862
4.06836e-05
6.07563e-05
0.00074032
3.88904e-05
4.46478e-05
0.000719693
8.29029e-06
0.000108749
0.000702711
1.87863e-05
8.27426e-05
0.000690247
2.16135e-05
9.22226e-05
0.000678822
2.2913e-05
0.0001002
0.000662927
2.30338e-05
9.87977e-05
0.000644951
2.24594e-05
0.000101925
0.000627184
2.84505e-05
9.38683e-05
0.000607062
2.64312e-05
7.75733e-05
0.000588984
2.46404e-05
5.82895e-05
0.000571738
2.06482e-05
3.71387e-05
0.000556015
2.0209e-05
2.41414e-05
0.00054075
3.0212e-06
0.000100883
0.000496437
-4.04489e-07
9.81392e-05
0.000488675
3.14568e-07
9.92379e-05
0.000480349
2.38146e-06
9.5732e-05
0.000470178
6.52504e-06
8.16741e-05
0.000458241
6.76569e-06
7.22346e-05
0.000445808
1.14547e-05
5.97358e-05
0.000431734
1.11681e-05
4.96403e-05
0.000417942
1.12623e-05
4.38538e-05
0.00040635
1.01851e-05
2.94321e-05
0.000395211
1.01529e-05
1.84199e-05
0.000384215
1.0635e-05
1.23355e-05
0.000373622
-4.97048e-06
0.000120605
0.000297367
-4.00306e-06
0.000123198
0.000292003
-4.31417e-06
0.000117004
0.000286331
-3.09487e-06
9.51906e-05
0.000279706
-7.87266e-07
6.92016e-05
0.00027229
-7.39768e-08
5.74408e-05
0.000264692
2.45213e-06
5.13133e-05
0.00025653
2.47418e-06
4.66978e-05
0.00024857
2.35365e-06
3.73771e-05
0.000241152
2.83456e-06
2.2849e-05
0.000234114
3.29088e-06
1.45966e-05
0.000227695
3.90574e-06
1.14994e-05
0.000221274
3.54027e-06
7.04461e-06
0.000215459
-9.02542e-06
5.11025e-05
9.65836e-05
-8.17679e-06
4.36184e-05
9.47494e-05
-7.5679e-06
3.45076e-05
9.26234e-05
-6.56184e-06
2.07836e-05
9.023e-05
-5.36968e-06
-7.89024e-07
8.74857e-05
-4.49841e-06
-1.52662e-05
8.47458e-05
-3.1788e-06
-2.50118e-05
8.18955e-05
-2.54539e-06
-2.76493e-05
7.92016e-05
-2.01081e-06
-2.70603e-05
7.67874e-05
-1.43652e-06
-3.06395e-05
7.44676e-05
-9.13814e-07
-3.22484e-05
7.2185e-05
-3.1719e-07
-3.16914e-05
7.00154e-05
2.38346e-08
-3.03792e-05
6.81596e-05
5.187e-07
-2.56985e-05
6.64963e-05
0.000505942
0.0048008
0.00423633
0.000537923
0.0050956
0.00397669
0.000531367
0.00586436
0.00384251
0.000756133
0.00585932
0.00390611
0.000505264
0.00636125
0.00370994
0.000760413
0.00607424
0.0036933
0.00100539
0.00585677
0.00367772
0.000702899
0.00575229
0.00291315
0.000754545
0.00531543
0.00301254
0.00103344
0.00479326
0.0029934
0.000486075
0.00385624
0.00209615
0.00125392
0.00262813
0.00206507
0.000900541
0.00199983
0.00204004
0.000699907
0.00194677
0.00197542
0.000395582
0.00142959
0.00209997
0.000638514
0.000927847
0.00201846
0.000635059
0.000656454
0.0019763
0.000719904
0.000414493
0.00192483
0.000498674
0.000496464
0.00193638
0.000431707
1.89589e-05
0.00192416
0.000525373
-1.18718e-06
0.0019032
0.000597207
8.42166e-05
0.00184317
0.000513597
0.000302154
0.00178381
0.000447065
0.000326705
0.00174476
0.000361239
0.000379869
0.00168297
0.000316252
0.000168077
0.00173208
0.000302261
0.000228918
0.00169387
0.000281869
0.000245873
0.00165525
0.000324925
0.00026234
0.00160722
0.000222748
0.000263055
0.00157855
0.000262334
0.000269453
0.00153822
0.000220849
0.000253049
0.00149463
0.000201358
0.00015358
0.00152406
0.000217078
0.000166387
0.00148437
0.000208974
0.000205771
0.00146272
0.000228511
0.000210691
0.00143173
0.000221637
0.000190046
0.00140193
0.000175545
0.000199668
0.0013622
0.000182915
0.000177248
0.00132023
0.000130032
0.000139606
0.00128176
9.56891e-05
0.000101649
0.00132756
9.99357e-05
0.000126363
0.00129013
0.000108972
0.000121456
0.0012669
0.000149323
0.000138096
0.00124042
0.000171503
0.000150823
0.00121295
0.000138358
0.000182272
0.00117659
0.000122164
0.000152954
0.00114475
0.000101532
0.000126601
0.00111311
9.051e-05
9.49162e-05
0.00107972
6.21012e-05
0.000147897
0.00111031
3.48242e-05
0.000128048
0.00108969
6.26691e-05
9.69969e-05
0.00107435
8.38182e-05
0.00011267
0.00105019
8.78333e-05
0.000127651
0.00102284
8.37635e-05
0.000119109
0.000991412
8.79952e-05
9.87365e-05
0.000961343
7.72595e-05
7.6107e-05
0.000935643
6.46669e-05
6.35682e-05
0.000908519
5.63384e-05
3.79363e-05
0.000884611
2.01412e-05
0.000158741
0.000906601
3.34481e-05
0.000135274
0.000892901
4.52611e-05
0.000124793
0.000877945
5.31936e-05
0.000118778
0.000856562
4.30554e-05
0.000111613
0.000833884
4.54899e-05
0.000101016
0.00081128
4.55172e-05
8.60728e-05
0.000786783
4.68999e-05
6.63959e-05
0.000764011
4.78323e-05
5.67324e-05
0.000742694
3.90005e-05
4.44717e-05
0.000722143
3.98751e-05
3.98364e-05
0.000701482
1.85478e-05
0.000101948
0.000705485
1.49223e-05
7.66718e-05
0.000693455
2.13901e-05
8.00027e-05
0.000681392
2.63367e-05
8.93338e-05
0.000665733
2.68251e-05
9.45298e-05
0.000646895
2.35505e-05
0.00010099
0.000629101
2.95454e-05
9.38962e-05
0.000609065
2.70532e-05
7.78123e-05
0.000590937
2.54085e-05
5.93975e-05
0.00057373
2.36018e-05
3.74025e-05
0.000558058
2.12297e-05
2.62037e-05
0.000542876
2.14657e-05
1.88888e-05
0.000527873
4.64247e-06
9.67565e-05
0.000498151
4.16834e-06
9.59242e-05
0.00049048
3.40797e-06
9.80454e-05
0.000482145
7.11749e-06
9.40067e-05
0.000471861
8.53917e-06
8.25837e-05
0.000459942
9.56358e-06
7.33172e-05
0.000447521
1.17329e-05
6.23909e-05
0.000433873
1.21257e-05
5.1387e-05
0.000420336
1.14821e-05
4.51981e-05
0.00040747
1.08275e-05
3.11455e-05
0.000396644
1.07512e-05
2.04895e-05
0.000385682
1.10011e-05
1.45029e-05
0.000374952
9.85491e-06
8.67214e-06
0.000365493
-3.51143e-06
0.000118221
0.000298554
-2.60271e-06
0.000121869
0.000293121
-2.51154e-06
0.000116661
0.000287289
-2.24642e-06
9.61377e-05
0.000281068
-7.25725e-07
7.07812e-05
0.000273483
-2.38621e-08
5.94603e-05
0.000265796
2.62485e-06
5.27927e-05
0.000257409
2.90444e-06
4.82411e-05
0.000249537
2.56034e-06
3.91602e-05
0.000242215
2.97126e-06
2.44746e-05
0.000235119
3.38372e-06
1.59083e-05
0.000228505
3.95045e-06
1.27967e-05
0.00022213
3.58239e-06
8.44812e-06
0.000216312
3.91969e-06
5.13955e-06
0.000210867
-8.89258e-06
6.11494e-05
9.69785e-05
-8.02318e-06
5.31506e-05
9.50746e-05
-7.32653e-06
4.36107e-05
9.29729e-05
-6.37391e-06
2.91912e-05
9.05897e-05
-5.28602e-06
6.89605e-06
8.7831e-05
-4.46072e-06
-8.40579e-06
8.5086e-05
-3.18228e-06
-1.93062e-05
8.22224e-05
-2.58347e-06
-2.26899e-05
7.95196e-05
-2.05098e-06
-2.29051e-05
7.70974e-05
-1.51556e-06
-2.71071e-05
7.47706e-05
-9.911e-07
-2.92812e-05
7.24915e-05
-3.98813e-07
-2.94185e-05
7.03109e-05
-5.3114e-08
-2.87573e-05
6.84465e-05
4.3829e-07
-2.47348e-05
6.67576e-05
7.983e-07
-2.17298e-05
6.51894e-05
0.000452172
0.00467443
0.00418019
0.000323109
0.00490002
0.00423332
0.000763686
0.00478505
0.00429623
0.000313451
0.00519482
0.00399155
0.00049864
0.00534339
0.0040476
0.00054009
0.00585587
0.00384165
0.000522824
0.00606538
0.00387404
0.000830787
0.00588299
0.00386872
0.000669337
0.00642521
0.00359596
0.000668298
0.00616688
0.00370354
0.000997605
0.00593322
0.00365269
0.00112676
0.00576189
0.00355293
0.000337816
0.00592691
0.00303789
0.00132763
0.00533946
0.00281541
0.0010619
0.00482819
0.00281625
0.00109171
0.004074
0.00287809
0.000375758
0.00400921
0.00221299
0.000447966
0.00274767
0.00216716
0.000866247
0.00179288
0.00204083
0.00100657
0.00175245
0.00194769
0.000846408
0.00124243
0.00196713
0.000262785
0.00159017
0.0021845
0.000543112
0.0009216
0.00208848
0.0007294
0.000565929
0.00197679
0.000696314
0.000296497
0.00191158
0.000613744
0.000354987
0.00189963
0.000504567
0.000314045
0.00188657
0.000301811
4.97147e-05
0.00194321
0.000398349
-6.87348e-05
0.00189562
0.000450975
-3.39052e-05
0.00185221
0.000498051
0.000186745
0.00178546
0.000334117
0.000264746
0.0017344
0.000427557
0.000278975
0.00168043
0.000333437
0.000284995
0.00165037
0.000274169
0.00011486
0.00175381
0.000321367
0.000157055
0.00169965
0.000263885
0.000224718
0.00166011
0.000301362
0.000230286
0.00161445
0.000265867
0.000248852
0.00157719
0.000242545
0.000239415
0.00154159
0.000268691
0.000209982
0.00149551
0.000182974
0.000218476
0.00145229
0.000180697
8.98795e-05
0.00154685
0.000199343
9.21712e-05
0.00149887
0.000194906
0.000142578
0.00146163
0.000221782
0.000169417
0.00143153
0.000219939
0.000166768
0.00140657
0.000229481
0.000146102
0.00136437
0.000182143
0.000152914
0.00132656
0.000153546
0.000121095
0.00128673
0.000120778
0.00010867
0.00124469
0.000126727
6.23985e-05
0.00133697
0.000102755
8.81025e-05
0.00129789
9.92073e-05
0.000105221
0.00126983
0.000139768
0.000106597
0.00124244
0.000149563
0.000114502
0.00121501
0.000173827
0.000122299
0.00118286
0.000142429
0.000130347
0.00114477
0.000108497
0.000123891
0.00111623
9.37518e-05
9.53955e-05
0.00108354
7.84441e-05
5.99545e-05
0.00105276
3.52741e-05
0.000153217
0.00111187
6.3503e-05
0.000116896
0.00109141
3.10439e-05
0.000122669
0.00107823
8.44623e-05
0.000102613
0.00105314
8.2315e-05
0.000112191
0.00102639
8.63478e-05
0.000106049
0.00099504
9.44007e-05
7.951e-05
0.000961755
7.08197e-05
7.59493e-05
0.000937581
7.25254e-05
6.39251e-05
0.000910593
5.57637e-05
4.21585e-05
0.000887534
5.76359e-05
3.15271e-05
0.000862215
4.10691e-05
0.000153081
0.000909314
2.21148e-05
0.000141659
0.000893023
3.36036e-05
0.000125855
0.000879626
5.23308e-05
0.000111358
0.000859371
5.61793e-05
0.000102043
0.000836778
4.12033e-05
0.000103729
0.000813519
5.04941e-05
8.72174e-05
0.000789187
4.55191e-05
6.78796e-05
0.000766833
4.45232e-05
5.65801e-05
0.000745049
4.54482e-05
4.07826e-05
0.000724537
4.05193e-05
3.87544e-05
0.000703936
3.87623e-05
2.46856e-05
0.000684032
1.80024e-05
9.72655e-05
0.000707611
2.03866e-05
6.99968e-05
0.000695942
1.85635e-05
7.42048e-05
0.000684098
2.92592e-05
8.03817e-05
0.000668202
3.17663e-05
8.74844e-05
0.000649551
2.71236e-05
9.96698e-05
0.000630655
3.02679e-05
9.33981e-05
0.000611064
2.72911e-05
7.88161e-05
0.000592896
2.65807e-05
5.96148e-05
0.000575621
2.38388e-05
3.80562e-05
0.000560065
2.33417e-05
2.67959e-05
0.000544875
2.20168e-05
2.07753e-05
0.000529974
1.91633e-05
1.38653e-05
0.000516483
8.10858e-06
9.07053e-05
0.000499877
5.95714e-06
9.33031e-05
0.000492212
7.17813e-06
9.4943e-05
0.000483893
9.84561e-06
9.04487e-05
0.000473611
1.29216e-05
7.92438e-05
0.000461554
1.07825e-05
7.32117e-05
0.000449241
1.43244e-05
6.27542e-05
0.000435458
1.25977e-05
5.30928e-05
0.000422474
1.20891e-05
4.63445e-05
0.00040966
1.12203e-05
3.25518e-05
0.000397814
1.11386e-05
2.22466e-05
0.000387132
1.15735e-05
1.60817e-05
0.00037648
1.01002e-05
1.03813e-05
0.000366725
1.05289e-05
9.24109e-06
0.000357746
-2.96299e-06
0.000115428
0.000299699
-1.19031e-06
0.000119267
0.000294323
-1.10022e-06
0.000115158
0.000288398
-7.53959e-07
9.58174e-05
0.000281989
-1.78921e-07
7.20936e-05
0.000274649
1.98943e-08
6.14717e-05
0.000266991
2.80338e-06
5.41518e-05
0.000258451
3.03861e-06
4.95205e-05
0.000250508
2.8662e-06
4.06091e-05
0.000243171
3.10574e-06
2.59189e-05
0.00023615
3.44938e-06
1.71567e-05
0.00022943
4.03866e-06
1.38993e-05
0.000222965
3.59988e-06
9.76293e-06
0.000217162
3.92874e-06
6.29424e-06
0.000211666
4.17636e-06
2.20317e-06
0.000206504
-8.74897e-06
7.10119e-05
9.73513e-05
-7.83672e-06
6.25323e-05
9.54335e-05
-7.13909e-06
5.25336e-05
9.32907e-05
-6.17179e-06
3.74034e-05
9.09325e-05
-5.16977e-06
1.44759e-05
8.81796e-05
-4.39536e-06
-1.5959e-06
8.54165e-05
-3.16192e-06
-1.36128e-05
8.25545e-05
-2.59951e-06
-1.77025e-05