/*--------------------------------*- C++ -*----------------------------------*\
  =========                 |
  \\      /  F ield         | OpenFOAM: The Open Source CFD Toolbox
   \\    /   O peration     | Website:  https://openfoam.org
    \\  /    A nd           | Version:  7
     \\/     M anipulation  |
\*---------------------------------------------------------------------------*/
FoamFile
{
    version     2.0;
    format      ascii;
    class       volVectorField;
    location    "1";
    object      U;
}
// * * * * * * * * * * * * * * * * * * * * * * * * * * * * * * * * * * * * * //

dimensions      [0 1 -1 0 0 0 0];

internalField   nonuniform List<vector> 
18630
(
(0.0683764 -0.0724363 2.09715)
(-0.0194917 -0.0808734 2.1312)
(0.0677705 -0.0724802 2.09748)
(0.0618964 -0.0676649 2.07055)
(-0.03939 -0.0542695 2.15204)
(-0.0183208 -0.0839272 2.13141)
(-0.0226698 -0.0738196 2.11229)
(0.0674161 -0.0726569 2.09782)
(0.0612066 -0.0678781 2.07124)
(0.0554996 -0.0611394 2.03629)
(-0.0738242 -0.0647098 2.16661)
(-0.0393557 -0.0527547 2.14879)
(-0.0350264 -0.0480962 2.13093)
(-0.0160849 -0.0854362 2.13107)
(-0.0221768 -0.0775304 2.11169)
(-0.0245289 -0.0654438 2.08145)
(0.0670616 -0.0726331 2.0981)
(0.0605355 -0.0676243 2.07172)
(0.0547693 -0.0614104 2.03579)
(0.0492302 -0.0532652 1.99255)
(-0.085195 -0.0646009 2.18144)
(-0.0881885 -0.0189795 2.16533)
(-0.0771941 -0.0419784 2.14549)
(-0.0320736 -0.0491828 2.1465)
(-0.0340741 -0.046509 2.12889)
(-0.0329816 -0.0436951 2.1004)
(-0.0154273 -0.0843042 2.13142)
(-0.0204261 -0.0791405 2.11091)
(-0.0245295 -0.0671007 2.0806)
(-0.0226853 -0.0485163 2.04826)
(0.0668446 -0.0726785 2.09837)
(0.0598928 -0.0674953 2.07226)
(0.0541786 -0.0617185 2.0344)
(0.0488147 -0.0535321 1.9931)
(0.0473163 -0.0400649 1.94324)
(-0.158687 -0.0453384 2.19681)
(-0.087004 -0.0444702 2.1778)
(-0.0782297 -0.0261607 2.15969)
(-0.0963429 0.00247968 2.16192)
(-0.085723 -0.012099 2.14503)
(-0.0743344 -0.0291818 2.1167)
(-0.0301631 -0.0418423 2.14912)
(-0.0294634 -0.0430365 2.12785)
(-0.0316468 -0.0416672 2.09921)
(-0.0316725 -0.0300618 2.06956)
(-0.0129057 -0.0832687 2.1334)
(-0.020616 -0.0779118 2.11038)
(-0.0237501 -0.0677609 2.07913)
(-0.0233131 -0.0477432 2.04853)
(-0.0166993 -0.0321139 2.01122)
(0.0665088 -0.0724389 2.09866)
(0.0595012 -0.0674454 2.07274)
(0.0537047 -0.0618398 2.0353)
(0.0484028 -0.0538619 1.99339)
(0.0465853 -0.040235 1.9451)
(0.0442461 -0.0306346 1.88925)
(-0.28575 -0.110946 2.19242)
(-0.180857 -0.00474321 2.19443)
(-0.126012 -0.0198211 2.17235)
(-0.0975193 -0.0263284 2.17441)
(-0.0814566 -0.0141074 2.15635)
(-0.0796288 -0.00494825 2.12752)
(-0.0901595 -0.0123647 2.15873)
(-0.0881409 0.000642655 2.14285)
(-0.077908 -0.0104256 2.11639)
(-0.0643164 -0.0148862 2.08817)
(-0.0258772 -0.0405081 2.15176)
(-0.027787 -0.0356868 2.13055)
(-0.0293274 -0.0391827 2.10021)
(-0.0315657 -0.0284216 2.06892)
(-0.0297292 -0.0089771 2.03224)
(-0.0135122 -0.0806057 2.13866)
(-0.0182763 -0.0776888 2.11112)
(-0.0237877 -0.0675618 2.07907)
(-0.0231426 -0.048111 2.04687)
(-0.01771 -0.0309201 2.01273)
(-0.0129399 -0.0246114 1.9648)
(0.0665394 -0.072392 2.099)
(0.0590183 -0.0672374 2.07298)
(0.0532955 -0.0619537 2.0358)
(0.0479515 -0.0538801 1.99359)
(0.0460838 -0.0404988 1.94594)
(0.0433746 -0.0308134 1.89085)
(0.0383256 -0.0200694 1.8352)
(-0.428274 -0.0280368 2.19508)
(-0.28102 -0.062145 2.18521)
(-0.235462 -0.057547 2.16874)
(-0.176513 0.0122107 2.19095)
(-0.140866 0.00654659 2.16669)
(-0.109824 -0.00611455 2.14277)
(-0.0873437 -0.0409646 2.17123)
(-0.0905141 0.00550351 2.15464)
(-0.0824545 0.00109034 2.12514)
(-0.0781663 0.0198268 2.0924)
(-0.0802769 -0.0479472 2.15541)
(-0.079274 -0.0120215 2.14018)
(-0.0778361 -0.00203024 2.11527)
(-0.0670002 -2.3468e-06 2.08786)
(-0.0538549 -0.00153725 2.04799)
(-0.0257517 -0.0411612 2.15132)
(-0.026487 -0.0331335 2.13227)
(-0.0279497 -0.0327507 2.10253)
(-0.031066 -0.0271688 2.07045)
(-0.0310331 -0.00824232 2.03182)
(-0.0259106 -0.00339084 1.98397)
(-0.0102671 -0.080124 2.14356)
(-0.0187375 -0.0759539 2.11594)
(-0.0215841 -0.068411 2.08051)
(-0.0228316 -0.048872 2.047)
(-0.0177676 -0.0315919 2.0101)
(-0.0141689 -0.0240812 1.96638)
(-0.0138475 -0.0140085 1.91551)
(0.0664205 -0.07208 2.0991)
(0.0588349 -0.0672375 2.07316)
(0.0527817 -0.0618535 2.03613)
(0.0475209 -0.0539853 1.99418)
(0.0455315 -0.0407431 1.94632)
(0.0427681 -0.0310123 1.89178)
(0.0375576 -0.0201998 1.83671)
(0.03356 -0.0157693 1.78357)
(-0.531912 0.0553011 2.18623)
(-0.379961 0.0505083 2.19098)
(-0.368784 0.00825091 2.17792)
(-0.284631 0.0147405 2.18071)
(-0.238769 -0.0139279 2.15736)
(-0.198218 -0.0320743 2.13913)
(-0.167317 0.00667021 2.18963)
(-0.137983 0.0218055 2.16066)
(-0.122026 0.0132337 2.13602)
(-0.107571 0.0186941 2.10793)
(-0.085031 -0.0542393 2.17147)
(-0.0863056 -0.00604966 2.15163)
(-0.0887347 0.0147131 2.12392)
(-0.0797882 0.0223165 2.09052)
(-0.0695891 0.0353501 2.04783)
(-0.0757914 -0.0571751 2.15532)
(-0.0698498 -0.0388373 2.13797)
(-0.0686914 -0.0134752 2.11263)
(-0.0684092 0.00528123 2.08653)
(-0.0585885 0.0113511 2.048)
(-0.0503656 0.00801316 1.99569)
(-0.022277 -0.0440959 2.15127)
(-0.026492 -0.0327762 2.13148)
(-0.0283309 -0.0312184 2.103)
(-0.0307935 -0.0234873 2.07142)
(-0.031851 -0.00745625 2.03218)
(-0.0275975 -0.00276001 1.98364)
(-0.0242855 0.0106937 1.93333)
(-0.00880734 -0.0800855 2.14339)
(-0.0162845 -0.0752938 2.11977)
(-0.0213707 -0.0678323 2.08361)
(-0.0213945 -0.050204 2.04843)
(-0.0175111 -0.0325027 2.01018)
(-0.0146732 -0.024443 1.96529)
(-0.0153094 -0.0139022 1.91637)
(-0.0132486 -0.0104247 1.86267)
(0.066261 -0.0718477 2.09912)
(0.0585968 -0.0671749 2.07307)
(0.0524932 -0.0618629 2.03618)
(0.0472188 -0.0540733 1.99462)
(0.0451159 -0.0411564 1.94668)
(0.042128 -0.0312117 1.89231)
(0.0368078 -0.020407 1.83747)
(0.032533 -0.0161249 1.78391)
(0.0282501 -0.0145543 1.73258)
(-0.710671 0.395226 2.22162)
(-0.48298 0.182934 2.17834)
(-0.435868 0.0569568 2.1655)
(-0.337197 0.0966599 2.1763)
(-0.318197 0.0579586 2.16829)
(-0.280553 0.0224366 2.15441)
(-0.285906 0.0435325 2.18006)
(-0.246014 0.0546281 2.15116)
(-0.207165 0.00245191 2.12723)
(-0.172511 0.0293937 2.10171)
(-0.103676 -0.0618118 2.18841)
(-0.116958 -0.00754981 2.15879)
(-0.120761 0.029055 2.12934)
(-0.121724 0.0319699 2.1023)
(-0.0994276 0.039785 2.05601)
(-0.0953866 -0.0519905 2.16577)
(-0.0855147 -0.0244187 2.1505)
(-0.0832672 0.00219978 2.12177)
(-0.0865617 0.0312745 2.08818)
(-0.0717148 0.0378577 2.04605)
(-0.0628237 0.0308092 1.99625)
(-0.0737787 -0.0659756 2.16042)
(-0.0617533 -0.0496857 2.13738)
(-0.0595132 -0.0363279 2.11054)
(-0.0623418 -0.0034294 2.08397)
(-0.0606557 0.0128942 2.04605)
(-0.0554038 0.014656 1.99566)
(-0.0486136 0.0214467 1.94349)
(-0.0183135 -0.0508629 2.15051)
(-0.0256174 -0.0355333 2.13068)
(-0.0286672 -0.0307607 2.1024)
(-0.0318968 -0.0234749 2.07128)
(-0.0329167 -0.00636868 2.03237)
(-0.0295039 -0.00175549 1.98331)
(-0.0268703 0.0110676 1.9328)
(-0.0229283 0.0139718 1.88019)
(-0.00779867 -0.0793246 2.14445)
(-0.0151657 -0.0754744 2.11847)
(-0.0200752 -0.0669031 2.08706)
(-0.0209879 -0.0500038 2.04952)
(-0.0169627 -0.0334718 2.01132)
(-0.014758 -0.0254963 1.96512)
(-0.016392 -0.0146205 1.91666)
(-0.0147554 -0.0105412 1.86212)
(-0.0119301 -0.0045219 1.81114)
(0.0662282 -0.071483 2.09908)
(0.0584659 -0.0670534 2.07301)
(0.0522205 -0.0619023 2.03615)
(0.047062 -0.0542808 1.99465)
(0.0447409 -0.0414171 1.94692)
(0.0415885 -0.0315039 1.89249)
(0.0361185 -0.0206166 1.83792)
(0.0320694 -0.0162125 1.78448)
(0.0276005 -0.0147585 1.73255)
(0.025234 -0.00871063 1.68759)
(-0.711456 0.587952 2.0622)
(-0.554722 0.377026 2.19398)
(-0.580446 0.383132 2.1918)
(-0.407451 0.254312 2.17539)
(-0.390785 0.186548 2.15805)
(-0.33912 0.0900815 2.13184)
(-0.323771 0.199315 2.18027)
(-0.303595 0.103636 2.14766)
(-0.244982 0.065158 2.1407)
(-0.228581 0.0476252 2.11673)
(-0.258975 0.142784 2.19532)
(-0.239615 0.0812159 2.14454)
(-0.205087 0.0516691 2.12203)
(-0.185155 0.0552987 2.0942)
(-0.147421 0.0460207 2.05075)
(-0.0792097 -0.0207826 2.18714)
(-0.081524 -0.0282148 2.15372)
(-0.105989 -0.000796186 2.12598)
(-0.119191 0.0485398 2.09712)
(-0.113331 0.044548 2.05234)
(-0.0842095 0.0528723 2.00182)
(-0.114589 -0.0118549 2.16341)
(-0.0906699 -0.0200495 2.14498)
(-0.0830967 -0.0157165 2.11858)
(-0.0804683 0.0236844 2.08735)
(-0.0797655 0.0451722 2.04266)
(-0.0645567 0.034097 1.99506)
(-0.0559719 0.0527752 1.94606)
(-0.0492444 -0.0777311 2.16399)
(-0.0565478 -0.0592098 2.14059)
(-0.052113 -0.0462937 2.10904)
(-0.0552844 -0.0212744 2.08182)
(-0.058189 0.00711382 2.04396)
(-0.057486 0.0133736 1.99405)
(-0.0532302 0.0232334 1.9427)
(-0.0396973 0.0240011 1.88719)
(-0.0125689 -0.0597934 2.14933)
(-0.025368 -0.0378292 2.13052)
(-0.0298763 -0.0331174 2.10056)
(-0.0326907 -0.0238282 2.07084)
(-0.0344766 -0.00773311 2.0321)
(-0.0312129 -0.00142946 1.98274)
(-0.0297325 0.0115843 1.93216)
(-0.0253611 0.0134201 1.87954)
(-0.0210539 0.0118061 1.82957)
(-0.00703796 -0.0798466 2.14785)
(-0.014272 -0.0742111 2.11933)
(-0.0194278 -0.0662401 2.08678)
(-0.0207162 -0.0493154 2.05268)
(-0.0167678 -0.0333357 2.01048)
(-0.0147786 -0.0260302 1.96521)
(-0.0170201 -0.0155761 1.91641)
(-0.0158168 -0.0112685 1.86249)
(-0.0133748 -0.00483266 1.80969)
(-0.00765544 -0.00115105 1.76729)
(0.0663177 -0.070573 2.09896)
(0.0583702 -0.0667711 2.07376)
(0.052173 -0.0619292 2.03621)
(0.047008 -0.0544745 1.99458)
(0.0444327 -0.0416792 1.94708)
(0.0411004 -0.0317535 1.89254)
(0.0354544 -0.0209138 1.83808)
(0.0312319 -0.016621 1.78423)
(0.0271354 -0.0149071 1.73314)
(0.0245558 -0.00888274 1.68785)
(0.0222543 -0.00362637 1.64148)
(-1.65309 0.796255 2.12207)
(-0.595062 0.695011 2.05178)
(-0.60965 0.550398 2.0428)
(-0.439051 0.4583 2.16808)
(-0.450487 0.384808 2.16523)
(-0.449407 0.249999 2.15599)
(-0.355166 0.314249 2.16904)
(-0.334722 0.235305 2.14488)
(-0.301508 0.174202 2.12142)
(-0.268514 0.175449 2.09202)
(-0.288478 0.214175 2.1845)
(-0.26987 0.165724 2.14154)
(-0.241886 0.102267 2.1224)
(-0.20881 0.0862552 2.10322)
(-0.179195 0.0653102 2.05515)
(-0.200432 0.116042 2.19747)
(-0.20717 0.120964 2.15969)
(-0.197181 0.0570948 2.11235)
(-0.183061 0.087822 2.08801)
(-0.15922 0.067222 2.04875)
(-0.122491 0.061828 1.99957)
(-0.0644658 -0.0245867 2.1784)
(-0.0713373 0.00577626 2.15389)
(-0.077876 -0.0220202 2.11979)
(-0.117391 0.0285217 2.09353)
(-0.111081 0.0644692 2.04777)
(-0.0983591 0.0545129 1.99833)
(-0.0730148 0.067991 1.95109)
(-0.162685 0.0402174 2.17346)
(-0.110003 0.0176887 2.14143)
(-0.085333 -0.0117365 2.11501)
(-0.0834855 0.0105398 2.08351)
(-0.0732251 0.0413185 2.04262)
(-0.0725247 0.0422278 1.99198)
(-0.0594177 0.0563065 1.94519)
(-0.0459509 0.0473002 1.8935)
(-0.0305665 -0.0719024 2.16066)
(-0.0388441 -0.0622088 2.14456)
(-0.0452879 -0.0546968 2.1106)
(-0.0515031 -0.0282918 2.08044)
(-0.0536271 -0.00719004 2.042)
(-0.0573448 0.00800349 1.99245)
(-0.0553786 0.0210264 1.94141)
(-0.0445586 0.0253922 1.88631)
(-0.031268 0.026817 1.83483)
(-0.0145776 -0.059581 2.14844)
(-0.0227242 -0.0448129 2.13039)
(-0.0307873 -0.0342504 2.10057)
(-0.0339353 -0.0276283 2.06972)
(-0.0362287 -0.00871337 2.03145)
(-0.0333931 -0.00328681 1.98139)
(-0.032154 0.0118979 1.93128)
(-0.0276092 0.01293 1.87885)
(-0.0231119 0.0104785 1.8289)
(-0.0156758 0.0199496 1.78514)
(-0.00952111 -0.073363 2.14834)
(-0.0134141 -0.0743954 2.12454)
(-0.0183757 -0.0652938 2.0863)
(-0.0210239 -0.0481382 2.05371)
(-0.0169206 -0.0326534 2.01205)
(-0.015002 -0.0260043 1.9648)
(-0.0175484 -0.0162377 1.91633)
(-0.0167838 -0.0120652 1.86198)
(-0.0143869 -0.00551021 1.80993)
(-0.0086552 -0.00187718 1.7663)
(-0.00492794 -0.00099583 1.72436)
(0.0664735 -0.0700743 2.09879)
(0.0583896 -0.0662265 2.07381)
(0.0522688 -0.0619072 2.0365)
(0.0470951 -0.0546625 1.99468)
(0.044224 -0.0419437 1.94706)
(0.0406871 -0.0320526 1.89241)
(0.0348944 -0.0212117 1.83814)
(0.0307139 -0.0168983 1.783)
(0.0265582 -0.0151649 1.7329)
(0.0239406 -0.00908422 1.6881)
(0.0214634 -0.00371921 1.64208)
(0.0188301 6.92803e-05 1.59655)
(-2.93523 0.0707325 2.94804)
(-2.76312 0.300364 2.52136)
(-1.56939 -0.0779563 2.1839)
(-1.58387 0.353915 2.05031)
(-0.712688 0.513498 2.0539)
(-0.602787 0.447246 2.04418)
(-0.467979 0.447843 2.00071)
(-0.340134 0.407789 2.15672)
(-0.383769 0.404184 2.15284)
(-0.347822 0.226494 2.14675)
(-0.38577 0.175066 2.09909)
(-0.290717 0.238468 2.15843)
(-0.289268 0.276335 2.14246)
(-0.284175 0.177186 2.10493)
(-0.241573 0.225271 2.07888)
(-0.225852 0.143514 2.04336)
(-0.266087 0.154565 2.17789)
(-0.263449 0.185089 2.15003)
(-0.214063 0.129283 2.10818)
(-0.20378 0.0931485 2.0926)
(-0.17582 0.106539 2.04449)
(-0.146511 0.0702121 2.00017)
(-0.16736 0.125126 2.19626)
(-0.156835 0.099219 2.15435)
(-0.169406 0.0788424 2.12115)
(-0.184552 0.0724134 2.08108)
(-0.156297 0.0899888 2.04187)
(-0.135639 0.0807643 1.99829)
(-0.0973318 0.104201 1.95175)
(-0.08434 0.0423446 2.17532)
(-0.0506107 -0.0186519 2.14076)
(-0.0780934 0.00842206 2.12)
(-0.0832348 -0.0206247 2.09125)
(-0.117173 0.0471797 2.04485)
(-0.0955041 0.0732375 1.99354)
(-0.0813088 0.0633306 1.94755)
(-0.0560458 0.0746863 1.89384)
(-0.150313 0.0529914 2.17922)
(-0.148437 0.0590581 2.14977)
(-0.101093 0.0189073 2.11258)
(-0.0884888 0.012182 2.08168)
(-0.079451 0.0321149 2.04011)
(-0.0661784 0.0416275 1.99184)
(-0.0670396 0.061026 1.94254)
(-0.0490625 0.0477229 1.89237)
(-0.0395502 0.0427057 1.84372)
(-0.0250614 -0.0550747 2.16149)
(-0.0252291 -0.0546939 2.14225)
(-0.0355638 -0.0524165 2.11516)
(-0.0454459 -0.0342428 2.08038)
(-0.0523389 -0.0121693 2.04047)
(-0.0547066 -0.00229526 1.99047)
(-0.0568393 0.0153237 1.93995)
(-0.0474009 0.0253351 1.88521)
(-0.0364466 0.0284479 1.83408)
(-0.0206919 0.0215616 1.79037)
(-0.0175714 -0.0573787 2.1467)
(-0.0245488 -0.0443408 2.12977)
(-0.0301468 -0.0396569 2.10124)
(-0.0341266 -0.0299247 2.06941)
(-0.0369323 -0.0145699 2.03081)
(-0.0351419 -0.00433862 1.98175)
(-0.0357924 0.0102093 1.92909)
(-0.0293988 0.0123783 1.87793)
(-0.0250434 0.0098633 1.82825)
(-0.0182772 0.0187487 1.78465)
(-0.0125319 0.0256114 1.74164)
(-0.0103498 -0.0708848 2.1474)
(-0.0148033 -0.0698049 2.12694)
(-0.0175805 -0.0654584 2.0898)
(-0.0206586 -0.0472052 2.05191)
(-0.0178533 -0.0318536 2.01471)
(-0.0151381 -0.0259218 1.96504)
(-0.0181826 -0.0168347 1.91613)
(-0.0175881 -0.0126247 1.86232)
(-0.0155484 -0.00617443 1.80979)
(-0.00931946 -0.00285215 1.76613)
(-0.00569568 -0.00178113 1.72385)
(-0.0051426 0.00313547 1.68032)
(0.0674356 -0.0698694 2.09732)
(0.0584926 -0.0659324 2.07341)
(0.0523735 -0.0617406 2.03652)
(0.0473144 -0.0548211 1.99445)
(0.0441753 -0.042237 1.94693)
(0.0403772 -0.0323481 1.89233)
(0.0343591 -0.0215287 1.83803)
(0.0301164 -0.0171623 1.78336)
(0.0261526 -0.0153474 1.73227)
(0.0233432 -0.00933726 1.68822)
(0.0206866 -0.00383746 1.64263)
(0.0181599 -0.000256896 1.59715)
(0.0163942 0.00110794 1.5581)
(-2.71485 -0.0383457 2.89164)
(-2.96324 -0.220023 2.86558)
(-2.82523 0.318217 2.96084)
(-2.90168 0.0128863 2.50818)
(-2.65639 0.241417 2.68251)
(-1.63943 -0.224279 2.15773)
(-1.56914 -0.0269586 1.90392)
(-1.26101 0.107711 1.86465)
(-0.77474 0.364975 2.05308)
(-0.645091 0.420119 2.0022)
(-0.483794 0.557053 1.98025)
(-0.400124 0.456236 1.99601)
(-0.267428 0.361997 2.15062)
(-0.284626 0.360995 2.13964)
(-0.291719 0.27616 2.12258)
(-0.330648 0.202833 2.08182)
(-0.297078 0.181991 2.01601)
(-0.246596 0.218547 2.16569)
(-0.240309 0.191578 2.13896)
(-0.246877 0.199879 2.10557)
(-0.243869 0.214488 2.05914)
(-0.201747 0.165441 2.02948)
(-0.198867 0.160886 1.99251)
(-0.188551 0.0760423 2.17617)
(-0.239698 0.130642 2.13544)
(-0.217344 0.14945 2.11557)
(-0.191488 0.122281 2.07769)
(-0.166868 0.0863558 2.04196)
(-0.146675 0.0962602 1.99503)
(-0.126268 0.0857145 1.94375)
(-0.123864 0.0571717 2.18804)
(-0.154881 0.12172 2.1465)
(-0.127721 0.0636355 2.11343)
(-0.1705 0.113383 2.08423)
(-0.166672 0.0633925 2.03898)
(-0.134723 0.0910955 1.99286)
(-0.113932 0.119349 1.9492)
(-0.0792199 0.0776939 1.89981)
(-0.110086 0.00610928 2.17551)
(-0.0514891 0.0207237 2.14001)
(-0.0623634 -0.0142786 2.11055)
(-0.0930552 0.0238265 2.08948)
(-0.0836163 -0.0065465 2.04388)
(-0.104248 0.0534489 1.99067)
(-0.0782338 0.0773688 1.94203)
(-0.0628945 0.067851 1.8905)
(-0.0452076 0.0746592 1.84309)
(-0.105971 -0.000738547 2.17294)
(-0.138461 0.056216 2.15272)
(-0.123515 0.0446142 2.11721)
(-0.0968955 0.029917 2.07992)
(-0.0853193 0.0326284 2.03879)
(-0.0745204 0.0363402 1.99052)
(-0.066317 0.0630648 1.94101)
(-0.0540309 0.0498839 1.89053)
(-0.0420089 0.0418426 1.8425)
(-0.0330839 0.0490656 1.79914)
(-0.0466816 -0.0329324 2.16635)
(-0.0237127 -0.0368556 2.14363)
(-0.0290892 -0.0424018 2.11507)
(-0.0447227 -0.0277551 2.08275)
(-0.0501845 -0.0139968 2.03937)
(-0.0557302 -0.0047283 1.9889)
(-0.0544566 0.00747554 1.93813)
(-0.0508487 0.021805 1.88406)
(-0.0394897 0.0288 1.83321)
(-0.0246678 0.0224023 1.78988)
(-0.0160139 0.0220945 1.7465)
(-0.0219967 -0.0481866 2.1457)
(-0.0267847 -0.0432662 2.12867)
(-0.0308424 -0.0398112 2.10095)
(-0.0340769 -0.0336897 2.06902)
(-0.036772 -0.0173258 2.03036)
(-0.0366792 -0.00909555 1.98207)
(-0.0373159 0.00873051 1.93127)
(-0.0324389 0.0112974 1.87544)
(-0.0263662 0.00851458 1.82739)
(-0.0209911 0.0186216 1.78411)
(-0.0156629 0.0248101 1.74152)
(-0.0112923 0.0271022 1.69826)
(-0.00980193 -0.0686921 2.14771)
(-0.0155274 -0.0677152 2.12553)
(-0.0177429 -0.0627918 2.09262)
(-0.0203827 -0.0471106 2.054)
(-0.01818 -0.0310283 2.01468)
(-0.0157506 -0.0257138 1.96511)
(-0.0183263 -0.0173464 1.91602)
(-0.0183197 -0.0134111 1.86273)
(-0.0164331 -0.00673494 1.8108)
(-0.0100756 -0.00364718 1.76524)
(-0.00618015 -0.0025425 1.72331)
(-0.0060749 0.0022848 1.68017)
(-0.00429193 0.00545905 1.63983)
(0.0679186 -0.0695763 2.09739)
(0.0590337 -0.0658044 2.07277)
(0.0525544 -0.0616171 2.03618)
(0.0475888 -0.054781 1.9946)
(0.0442123 -0.0424662 1.94687)
(0.0401425 -0.0326206 1.8925)
(0.0339052 -0.0218253 1.83793)
(0.0295873 -0.0174404 1.78335)
(0.0257454 -0.0156188 1.73236)
(0.0227973 -0.00959244 1.68814)
(0.0199348 -0.00397948 1.64313)
(0.0175053 -0.000519696 1.59773)
(0.0158514 0.000913006 1.55844)
(0.0126623 0.00289158 1.5257)
(-2.27747 0.0548245 2.62321)
(-2.47385 -0.000849879 2.66991)
(-2.81286 -0.276015 2.83169)
(-2.84187 0.0780661 2.80676)
(-2.91242 -0.564173 2.88399)
(-2.91566 -0.151177 2.89809)
(-2.80534 0.218372 2.891)
(-2.82982 -0.416581 2.55338)
(-2.66731 -0.0249823 2.63882)
(-2.44872 0.40026 2.61538)
(-1.72363 -0.580362 2.01396)
(-1.43506 -0.156221 1.81046)
(-0.983615 -0.0835587 1.93144)
(-1.00886 -0.0157565 1.85554)
(-0.812564 0.142908 2.11601)
(-0.610547 0.376175 2.03214)
(-0.534206 0.512835 1.99972)
(-0.372351 0.552313 1.99201)
(-0.361697 0.367377 1.98707)
(-0.161918 0.247833 2.15051)
(-0.17819 0.282352 2.14008)
(-0.198986 0.289319 2.11012)
(-0.247422 0.143922 2.05722)
(-0.251548 0.195194 1.99839)
(-0.23921 0.172185 1.94845)
(-0.27682 0.227379 2.16882)
(-0.243489 0.208204 2.13965)
(-0.203795 0.128132 2.10419)
(-0.241422 0.23519 2.05492)
(-0.192862 0.150957 2.0156)
(-0.19399 0.199533 1.97941)
(-0.169364 0.161473 1.93982)
(-0.159885 0.0396475 2.18212)
(-0.130877 0.0277462 2.12793)
(-0.206462 0.106377 2.09847)
(-0.181479 0.141096 2.0818)
(-0.180145 0.139414 2.0304)
(-0.136936 0.0904872 1.99639)
(-0.125327 0.0964502 1.9427)
(-0.0961994 0.110173 1.88368)
(-0.0756301 -0.00498611 2.1974)
(-0.137284 0.0655219 2.14117)
(-0.135891 0.0983841 2.10527)
(-0.144786 0.100334 2.07816)
(-0.154971 0.125398 2.04109)
(-0.149521 0.0742696 1.98944)
(-0.115706 0.120612 1.9451)
(-0.0895642 0.0822884 1.89745)
(-0.0630619 0.0802679 1.84805)
(-0.0731468 -0.0430187 2.17044)
(-0.0734326 -0.0106672 2.13785)
(-0.0590913 0.0175578 2.10924)
(-0.0807609 0.00505592 2.08533)
(-0.093404 0.0337657 2.04159)
(-0.0760627 0.0122726 1.98711)
(-0.0831051 0.0566702 1.93863)
(-0.0641636 0.0800268 1.88598)
(-0.0523668 0.0684543 1.8407)
(-0.0313585 0.0667234 1.79755)
(-0.0690591 -0.0451495 2.16645)
(-0.110156 0.0175537 2.14654)
(-0.11581 0.0395416 2.11805)
(-0.106465 0.03634 2.08141)
(-0.0891739 0.0385863 2.03736)
(-0.0782622 0.0355048 1.9887)
(-0.0764526 0.0601911 1.94037)
(-0.054421 0.0515816 1.88818)
(-0.0478156 0.0479845 1.84077)
(-0.0356074 0.0483539 1.79807)
(-0.0314374 0.0517088 1.75384)
(-0.0581385 -0.0197029 2.16678)
(-0.0334287 -0.0238286 2.146)
(-0.0370526 -0.0212081 2.11512)
(-0.0471948 -0.0164616 2.08318)
(-0.055379 -0.00621052 2.03847)
(-0.0550739 -0.00604619 1.98729)
(-0.0581054 0.007534 1.93662)
(-0.0492811 0.0157797 1.88277)
(-0.0435774 0.0289352 1.83229)
(-0.0269173 0.0223678 1.7892)
(-0.0189917 0.0224631 1.74639)
(-0.0143967 0.0254834 1.7035)
(-0.0243592 -0.04471 2.14445)
(-0.0315986 -0.0365149 2.12777)
(-0.0315735 -0.0386356 2.10063)
(-0.0320222 -0.035482 2.06843)
(-0.0365052 -0.0211033 2.02964)
(-0.0364096 -0.0111599 1.98205)
(-0.0410428 0.00599656 1.93267)
(-0.0335242 0.00986103 1.87884)
(-0.0283005 0.00780426 1.825)
(-0.0232297 0.0172263 1.78335)
(-0.0184287 0.0246497 1.74113)
(-0.0143479 0.0267741 1.69791)
(-0.00855425 0.0225464 1.6584)
(-0.00707126 -0.0666166 2.14789)
(-0.0149455 -0.065441 2.12549)
(-0.0180374 -0.061114 2.09097)
(-0.0204971 -0.0460526 2.05647)
(-0.0185114 -0.0310931 2.01531)
(-0.0162954 -0.0254522 1.96562)
(-0.0186688 -0.017997 1.91463)
(-0.0184978 -0.0142809 1.86258)
(-0.0173084 -0.00766114 1.81153)
(-0.0106869 -0.00424348 1.76604)
(-0.0066468 -0.00327192 1.7223)
(-0.00666729 0.00157522 1.67986)
(-0.00513154 0.00487702 1.63998)
(-0.0042706 0.00989352 1.60468)
(0.0689359 -0.0691332 2.09813)
(0.060014 -0.0658151 2.07165)
(0.0530263 -0.0616507 2.03575)
(0.0479658 -0.0547528 1.99461)
(0.0442926 -0.0427106 1.94703)
(0.0399721 -0.0328833 1.89249)
(0.0334966 -0.0221204 1.83809)
(0.0291277 -0.0177431 1.78329)
(0.025425 -0.0158718 1.73234)
(0.0222983 -0.00986292 1.68817)
(0.019209 -0.00417404 1.64354)
(0.0168351 -0.000721257 1.59826)
(0.0153504 0.000733125 1.55874)
(0.0122954 0.00263763 1.52578)
(0.0102727 0.00408876 1.49571)
(-2.18967 0.0396153 2.48259)
(-2.29547 -0.196116 2.63346)
(-2.26082 0.272523 2.71665)
(-2.46299 -0.224565 2.64487)
(-2.57019 -0.0570257 2.66745)
(-2.79388 -0.450486 2.78519)
(-2.87845 -0.192992 2.74999)
(-2.87087 0.0690858 2.8198)
(-3.10721 -0.641949 2.79648)
(-2.91853 -0.491813 2.87396)
(-2.86881 -0.145785 2.87279)
(-2.82805 0.241539 2.81954)
(-2.80025 -0.542144 2.5799)
(-2.81568 0.528742 2.356)
(-2.51774 0.336684 2.41407)
(-2.15401 0.287157 2.51521)
(-1.75737 -0.80223 1.94847)
(-1.29568 -0.180288 1.89499)
(-0.904904 -0.0960719 1.97081)
(-0.918004 0.137545 1.81605)
(-0.689269 0.131484 1.81227)
(-0.825036 -0.0397751 2.1725)
(-0.654075 0.25419 2.09647)
(-0.502321 0.480174 2.02384)
(-0.368849 0.525604 1.97756)
(-0.319237 0.406989 1.94869)
(-0.243573 0.321455 1.95385)
(-0.112844 0.167757 2.16294)
(-0.0823114 0.212449 2.12714)
(-0.134918 0.260347 2.10166)
(-0.202234 0.203077 2.03963)
(-0.183619 0.142409 1.97239)
(-0.22461 0.174896 1.93595)
(-0.188724 0.177722 1.88591)
(-0.225721 0.194155 2.19044)
(-0.283083 0.234292 2.14384)
(-0.212139 0.147809 2.10273)
(-0.228031 0.183253 2.05496)
(-0.207888 0.189196 2.00853)
(-0.194297 0.176392 1.97452)
(-0.168894 0.200974 1.93258)
(-0.134128 0.104983 1.87974)
(-0.150753 0.105473 2.205)
(-0.112637 0.0354024 2.1408)
(-0.118259 0.0356586 2.08892)
(-0.179968 0.104189 2.0712)
(-0.159771 0.162417 2.03138)
(-0.156737 0.1408 1.99011)
(-0.115376 0.0993236 1.94475)
(-0.0975324 0.113758 1.88386)
(-0.0767535 0.102151 1.83763)
(-0.129599 0.0797167 2.20418)
(-0.0758178 0.00439598 2.14894)
(-0.121903 0.0585764 2.10251)
(-0.147196 0.122754 2.07229)
(-0.137875 0.110454 2.03637)
(-0.141426 0.139224 1.99225)
(-0.132158 0.113297 1.9387)
(-0.089943 0.0837821 1.89483)
(-0.0706569 0.0791132 1.84644)
(-0.0424928 0.0712128 1.80077)
(-0.0783695 -0.0161236 2.16523)
(-0.0590263 -0.0313165 2.13347)
(-0.0716971 -0.00732017 2.10705)
(-0.0826808 0.0336676 2.08267)
(-0.0822122 0.014666 2.04083)
(-0.0839342 0.0413891 1.9853)
(-0.0628162 0.0322404 1.93192)
(-0.0697994 0.0621308 1.88221)
(-0.0573154 0.0785167 1.83731)
(-0.0383042 0.0625947 1.79595)
(-0.0284741 0.0681892 1.75216)
(-0.0803091 -0.0351684 2.16429)
(-0.0852568 -0.016028 2.1376)
(-0.0981718 0.0132119 2.11307)
(-0.101544 0.0346856 2.08049)
(-0.0940871 0.0332639 2.03706)
(-0.0801779 0.0335117 1.98657)
(-0.0795455 0.0544851 1.93837)
(-0.0635176 0.0523525 1.88786)
(-0.0466907 0.0457496 1.8391)
(-0.0417659 0.055704 1.79678)
(-0.0338833 0.0519807 1.75292)
(-0.0243525 0.0563445 1.70738)
(-0.0573479 -0.0222581 2.16436)
(-0.0397925 -0.0135882 2.14557)
(-0.0430963 -0.0124537 2.11574)
(-0.0604838 0.00327016 2.08232)
(-0.0600595 0.00131371 2.03844)
(-0.0643854 0.00250097 1.984)
(-0.0571178 0.00462544 1.93495)
(-0.0539877 0.0158682 1.88147)
(-0.0446075 0.0258214 1.83122)
(-0.0295854 0.0235196 1.78844)
(-0.0215241 0.0228309 1.74587)
(-0.016941 0.0253011 1.70355)
(-0.0117949 0.0269129 1.66409)
(-0.0277343 -0.0379845 2.14336)
(-0.034395 -0.0347134 2.12665)
(-0.0356298 -0.0328807 2.09993)
(-0.0309769 -0.034434 2.06794)
(-0.032884 -0.0243313 2.02888)
(-0.0348921 -0.015901 1.98201)
(-0.0406865 0.00378122 1.93239)
(-0.0374295 0.00884405 1.88076)
(-0.0292007 0.00666684 1.82814)
(-0.0251895 0.0159917 1.78131)
(-0.0211296 0.0237916 1.74061)
(-0.0166997 0.0260552 1.69783)
(-0.011194 0.0220679 1.65757)
(-0.00865975 0.0203765 1.62344)
(-0.00407145 -0.0651539 2.14736)
(-0.012536 -0.0635571 2.12554)
(-0.0176782 -0.0591566 2.09114)
(-0.0209114 -0.045102 2.05539)
(-0.0190014 -0.0308899 2.01629)
(-0.0170207 -0.025622 1.96672)
(-0.0189643 -0.0183123 1.91475)
(-0.0187227 -0.0151402 1.86228)
(-0.0177757 -0.00831149 1.81125)
(-0.0112239 -0.00516552 1.76695)
(-0.00696007 -0.00389824 1.72254)
(-0.00735424 0.00079705 1.67942)
(-0.00613105 0.00427146 1.63991)
(-0.00545054 0.00931022 1.60456)
(-0.00378287 0.0131183 1.57113)
(0.0699678 -0.0689145 2.09733)
(0.060603 -0.0657872 2.07155)
(0.0537654 -0.0616414 2.0345)
(0.0484566 -0.0548262 1.99408)
(0.0445404 -0.0428867 1.9469)
(0.0399163 -0.0331029 1.89245)
(0.0331456 -0.0224278 1.83809)
(0.0287261 -0.0180602 1.78338)
(0.0251238 -0.016115 1.73253)
(0.0218286 -0.0101247 1.68829)
(0.0185202 -0.00440827 1.64386)
(0.0161626 -0.000899947 1.59874)
(0.0148512 0.000531794 1.55906)
(0.0119135 0.00242488 1.52609)
(0.00998068 0.00391024 1.49554)
(0.00738952 0.00615041 1.46608)
(-2.05776 -0.00862371 2.38531)
(-2.23141 -0.165497 2.50042)
(-2.24561 0.0718249 2.48464)
(-2.33576 -0.496129 2.58192)
(-2.34899 -0.192706 2.6783)
(-2.31923 0.170215 2.71784)
(-2.46167 -0.38634 2.67765)
(-2.5099 -0.382992 2.68336)
(-2.48387 0.0487179 2.80781)
(-2.81887 -0.604762 2.75918)
(-2.91248 -0.358601 2.7342)
(-2.86809 0.0807404 2.81277)
(-2.80897 0.24442 2.7958)
(-2.82796 -1.31393 2.87903)
(-2.99155 -0.692492 2.82952)
(-2.87815 -0.394396 2.86419)
(-2.83634 0.0673303 2.80828)
(-2.59811 0.352113 2.78256)
(-2.84534 -0.846349 2.62676)
(-2.60789 -0.828925 2.47765)
(-2.45446 0.205947 2.40109)
(-2.01744 0.429634 2.37978)
(-1.74614 0.488262 2.3007)
(-1.74751 -1.01202 2.02711)
(-1.28771 -0.364277 2.08452)
(-0.983463 -0.00174489 2.00412)
(-0.914206 0.0725252 1.81903)
(-0.65697 0.247026 1.80661)
(-0.352289 0.325835 1.84574)
(-0.843615 -0.229919 2.19822)
(-0.591396 0.156887 2.16748)
(-0.445513 0.274395 2.08932)
(-0.314779 0.447714 1.96219)
(-0.258888 0.284717 1.92517)
(-0.254701 0.416355 1.89926)
(-0.225998 0.27558 1.89963)
(-0.150049 0.114658 2.17262)
(-0.0833266 0.195179 2.14453)
(-0.0829356 0.217049 2.08504)
(-0.1763 0.205614 2.04674)
(-0.204005 0.15466 1.96537)
(-0.156779 0.159528 1.91914)
(-0.190695 0.210754 1.87831)
(-0.144296 0.175534 1.84155)
(-0.154851 0.111503 2.20269)
(-0.225736 0.215923 2.16132)
(-0.256787 0.196787 2.09888)
(-0.225382 0.19038 2.05414)
(-0.21102 0.152782 2.00979)
(-0.205062 0.21687 1.9659)
(-0.164429 0.187209 1.93045)
(-0.140724 0.137362 1.87539)
(-0.0876197 0.114843 1.82486)
(-0.131542 0.072072 2.19382)
(-0.136552 0.132212 2.16225)
(-0.111758 0.0501915 2.10237)
(-0.12604 0.075328 2.06167)
(-0.167168 0.110975 2.02608)
(-0.137431 0.163947 1.98674)
(-0.130538 0.134078 1.94161)
(-0.098083 0.120341 1.88469)
(-0.0807762 0.10111 1.83745)
(-0.0515964 0.0957174 1.79239)
(-0.0508256 0.010733 2.20404)
(-0.12717 0.0880289 2.15591)
(-0.0585177 0.00352192 2.10408)
(-0.13343 0.093257 2.06829)
(-0.128252 0.114275 2.03283)
(-0.126275 0.110341 1.98793)
(-0.130013 0.160292 1.94071)
(-0.0971469 0.0715839 1.88642)
(-0.0755958 0.0825888 1.84442)
(-0.0507555 0.0662509 1.80026)
(-0.0386881 0.0746061 1.75329)
(-0.126888 -0.00678126 2.16861)
(-0.0504922 -0.0260558 2.12716)
(-0.0662879 -0.0214134 2.10152)
(-0.0884824 0.0205077 2.08302)
(-0.0978127 0.0494151 2.0388)
(-0.076558 0.0220519 1.98441)
(-0.0662125 0.0468663 1.93214)
(-0.0610954 0.0498883 1.875)
(-0.0630942 0.0628215 1.8342)
(-0.0452849 0.0697283 1.79314)
(-0.0353731 0.0649878 1.75124)
(-0.0280988 0.058795 1.70841)
(-0.0741911 -0.0410147 2.16753)
(-0.0908714 -0.0176378 2.13455)
(-0.0811711 -0.0129591 2.10649)
(-0.0918194 0.0158697 2.07692)
(-0.0936848 0.0392906 2.03472)
(-0.0842682 0.0238708 1.98556)
(-0.084643 0.0513042 1.93585)
(-0.0630771 0.0450224 1.88616)
(-0.0550155 0.0459346 1.83857)
(-0.0412794 0.0515169 1.79557)
(-0.0387235 0.0560266 1.75188)
(-0.0277985 0.0556903 1.70665)
(-0.0150172 0.0465242 1.66553)
(-0.0602554 -0.0165556 2.16148)
(-0.0406317 -0.0140143 2.14397)
(-0.0481145 -0.00629112 2.11504)
(-0.0671217 0.00973932 2.08184)
(-0.0760628 0.0197168 2.03821)
(-0.0687117 0.00714648 1.98408)
(-0.066752 0.012245 1.93246)
(-0.0536308 0.0126324 1.8805)
(-0.04811 0.0246269 1.82998)
(-0.0318448 0.0227695 1.78723)
(-0.023616 0.0224375 1.74529)
(-0.0199582 0.0263652 1.70317)
(-0.0150629 0.0264156 1.66406)
(-0.011957 0.0331107 1.62874)
(-0.0265293 -0.0367449 2.14204)
(-0.0381518 -0.0298472 2.12552)
(-0.0386606 -0.0304625 2.09922)
(-0.0335142 -0.0290152 2.06719)
(-0.0309526 -0.0237908 2.02824)
(-0.0313146 -0.0188648 1.98087)
(-0.0415466 7.04674e-05 1.93232)
(-0.0371143 0.00698509 1.88034)
(-0.0314023 0.00538375 1.83022)
(-0.026914 0.0149201 1.78321)
(-0.0235758 0.0223857 1.73906)
(-0.019344 0.0253204 1.69769)
(-0.0126308 0.0213246 1.65798)
(-0.0104313 0.0197361 1.62246)
(-0.00670972 0.0194875 1.5901)
(-0.000766616 -0.0625982 2.14659)
(-0.01032 -0.0623276 2.1257)