/*--------------------------------*- C++ -*----------------------------------*\
  =========                 |
  \\      /  F ield         | OpenFOAM: The Open Source CFD Toolbox
   \\    /   O peration     | Website:  https://openfoam.org
    \\  /    A nd           | Version:  7
     \\/     M anipulation  |
\*---------------------------------------------------------------------------*/
FoamFile
{
    version     2.0;
    format      ascii;
    class       volVectorField;
    location    "1";
    object      U_0;
}
// * * * * * * * * * * * * * * * * * * * * * * * * * * * * * * * * * * * * * //

dimensions      [0 1 -1 0 0 0 0];

internalField   nonuniform List<vector> 
18630
(
(0.0681802 -0.0723324 2.09757)
(-0.0196979 -0.0807366 2.13168)
(0.0675705 -0.0723726 2.0979)
(0.0617215 -0.0675205 2.07094)
(-0.0394541 -0.0540806 2.15243)
(-0.0185275 -0.0838231 2.13188)
(-0.0228967 -0.0736268 2.11276)
(0.0672147 -0.0725438 2.09824)
(0.0610381 -0.0677356 2.07162)
(0.055343 -0.0609766 2.0367)
(-0.0740537 -0.0638929 2.16695)
(-0.0393412 -0.052604 2.14919)
(-0.0351591 -0.047866 2.13137)
(-0.0162788 -0.0853498 2.13154)
(-0.0224021 -0.0773291 2.11215)
(-0.0246882 -0.0651612 2.08193)
(0.0668598 -0.0725195 2.09851)
(0.060364 -0.0674814 2.07209)
(0.0546165 -0.0612395 2.0362)
(0.0491182 -0.0530625 1.99292)
(-0.0849909 -0.0634876 2.18166)
(-0.0882581 -0.0185079 2.16566)
(-0.0773866 -0.0414011 2.1459)
(-0.0320519 -0.0490339 2.14693)
(-0.0341593 -0.0462778 2.12935)
(-0.0331067 -0.0434043 2.10088)
(-0.0156268 -0.0842109 2.13187)
(-0.0206527 -0.0789243 2.11136)
(-0.0246885 -0.0667803 2.08108)
(-0.0227602 -0.0481937 2.04878)
(0.0666411 -0.0725658 2.09878)
(0.0597219 -0.0673495 2.07265)
(0.0540256 -0.06155 2.03481)
(0.0487087 -0.0533274 1.99348)
(0.0472353 -0.039866 1.94361)
(-0.157808 -0.0440475 2.19697)
(-0.0867406 -0.0435617 2.17801)
(-0.0783104 -0.0251839 2.16001)
(-0.0962224 0.00262584 2.16227)
(-0.0857817 -0.0117165 2.14546)
(-0.0743664 -0.0287123 2.11722)
(-0.0301265 -0.0416857 2.14956)
(-0.0295599 -0.0428141 2.12834)
(-0.0317532 -0.0413807 2.0997)
(-0.0317784 -0.0296922 2.07007)
(-0.0130953 -0.0831876 2.13382)
(-0.0208405 -0.0777017 2.11083)
(-0.0239116 -0.06743 2.07958)
(-0.0233848 -0.0474018 2.04906)
(-0.016735 -0.0318803 2.01171)
(0.0663029 -0.0723272 2.09907)
(0.0593294 -0.0672994 2.07313)
(0.0535531 -0.0616751 2.03569)
(0.0482976 -0.0536619 1.99377)
(0.0465043 -0.0400352 1.94546)
(0.0441451 -0.030464 1.88958)
(-0.284394 -0.1091 2.19249)
(-0.179758 -0.00378977 2.19455)
(-0.125564 -0.0187834 2.1726)
(-0.0971232 -0.0255348 2.17467)
(-0.0814846 -0.0132637 2.15669)
(-0.0797326 -0.00417662 2.12789)
(-0.0899254 -0.0123131 2.15909)
(-0.0880528 0.000827995 2.1433)
(-0.0778527 -0.0100524 2.1169)
(-0.0642697 -0.0144823 2.08867)
(-0.0258749 -0.0403084 2.15219)
(-0.0278706 -0.0354661 2.13104)
(-0.0294419 -0.0389087 2.10074)
(-0.0316721 -0.028066 2.06944)
(-0.0297906 -0.0086912 2.03268)
(-0.0136967 -0.0805302 2.13909)
(-0.0184842 -0.0774973 2.11158)
(-0.0239342 -0.0672519 2.07954)
(-0.0232104 -0.0477749 2.0474)
(-0.0177438 -0.0306899 2.01322)
(-0.0130111 -0.0244299 1.96524)
(0.0663331 -0.0722799 2.09941)
(0.0588476 -0.067091 2.07337)
(0.0531481 -0.0617884 2.0362)
(0.0478463 -0.0536786 1.99396)
(0.0460036 -0.0402965 1.9463)
(0.0432727 -0.0306368 1.89122)
(0.0382116 -0.0199519 1.83562)
(-0.425924 -0.0260313 2.19518)
(-0.27958 -0.0603095 2.18529)
(-0.234343 -0.0558255 2.16889)
(-0.175284 0.0128909 2.19104)
(-0.140185 0.00734247 2.16691)
(-0.109676 -0.00523137 2.14304)
(-0.087024 -0.0400974 2.17151)
(-0.090431 0.00620406 2.15502)
(-0.0824993 0.00176633 2.12552)
(-0.0781579 0.0204082 2.09277)
(-0.0800286 -0.0477046 2.15578)
(-0.0790993 -0.0119223 2.14063)
(-0.0777107 -0.00181324 2.11577)
(-0.0669412 0.000378492 2.08835)
(-0.0538513 -0.00115802 2.04835)
(-0.0257238 -0.0409394 2.15174)
(-0.0265935 -0.0329343 2.13275)
(-0.0280649 -0.0325102 2.10303)
(-0.0311788 -0.0268234 2.07098)
(-0.0310912 -0.00796509 2.03227)
(-0.0259563 -0.00316786 1.98436)
(-0.0104538 -0.0800351 2.14398)
(-0.0189365 -0.0757768 2.1164)
(-0.0217215 -0.0681181 2.08101)
(-0.0228857 -0.0485503 2.04754)
(-0.0177991 -0.0313646 2.0106)
(-0.0142385 -0.0239084 1.96681)
(-0.0139336 -0.0138757 1.91593)
(0.0662138 -0.0719711 2.0995)
(0.0586632 -0.0670907 2.07355)
(0.0526359 -0.06169 2.03653)
(0.0474162 -0.0537817 1.99458)
(0.0454499 -0.0405411 1.94669)
(0.0426646 -0.0308343 1.89216)
(0.037442 -0.0200824 1.83712)
(0.0334502 -0.015726 1.78404)
(-0.527113 0.05848 2.18608)
(-0.377267 0.0518151 2.19119)
(-0.366365 0.0100353 2.17792)
(-0.283234 0.0159973 2.18081)
(-0.237658 -0.0123548 2.15748)
(-0.197401 -0.0305092 2.1393)
(-0.165798 0.0067227 2.18977)
(-0.137262 0.0224108 2.16086)
(-0.121762 0.0139414 2.1363)
(-0.107467 0.019494 2.10815)
(-0.0847288 -0.0534775 2.17175)
(-0.0861896 -0.0054656 2.15202)
(-0.0887011 0.0152304 2.12431)
(-0.0797288 0.0228498 2.09089)
(-0.0695323 0.0356637 2.04813)
(-0.0755519 -0.056822 2.1557)
(-0.0696494 -0.0386648 2.13843)
(-0.0685389 -0.0133073 2.11313)
(-0.0683276 0.00554882 2.087)
(-0.0585665 0.0116018 2.04837)
(-0.0504202 0.00834246 1.99601)
(-0.0222635 -0.043867 2.15168)
(-0.0265835 -0.0325797 2.13194)
(-0.0284534 -0.0310189 2.10348)
(-0.0309094 -0.0231891 2.07192)
(-0.0319187 -0.0071791 2.03262)
(-0.0276428 -0.00253967 1.98403)
(-0.0243391 0.010862 1.9337)
(-0.00899346 -0.0799922 2.1438)
(-0.0164819 -0.0751148 2.1202)
(-0.0214992 -0.0675478 2.08408)
(-0.0214502 -0.0498828 2.04896)
(-0.0175378 -0.0322816 2.01068)
(-0.0147455 -0.0242765 1.96574)
(-0.0153942 -0.0137734 1.91676)
(-0.0133094 -0.0103337 1.86308)
(0.0660531 -0.0717419 2.09951)
(0.0584265 -0.0670289 2.07346)
(0.0523487 -0.0617001 2.03658)
(0.0471142 -0.0538721 1.99502)
(0.0450335 -0.0409557 1.94704)
(0.0420233 -0.0310326 1.89268)
(0.0366944 -0.0202882 1.83788)
(0.0324271 -0.0160807 1.78438)
(0.0281625 -0.0144994 1.73314)
(-0.704362 0.39541 2.22131)
(-0.479223 0.184147 2.17865)
(-0.431841 0.0596103 2.16528)
(-0.334909 0.0975477 2.1765)
(-0.315745 0.0591606 2.16839)
(-0.278509 0.0236332 2.1544)
(-0.284258 0.0448816 2.18017)
(-0.244682 0.055634 2.15136)
(-0.206346 0.00378604 2.12745)
(-0.171878 0.0306268 2.10184)
(-0.102542 -0.0608985 2.18856)
(-0.116006 -0.00733744 2.15902)
(-0.120383 0.0296109 2.12967)
(-0.121568 0.0325936 2.10256)
(-0.099223 0.0404191 2.05618)
(-0.0950104 -0.0510949 2.16603)
(-0.0853933 -0.0238579 2.15086)
(-0.0831611 0.00266293 2.12219)
(-0.0864718 0.0317205 2.08854)
(-0.0716317 0.0381727 2.04636)
(-0.0627777 0.0311212 1.99656)
(-0.0733563 -0.0657478 2.16081)
(-0.0615414 -0.049472 2.13784)
(-0.0593635 -0.0360959 2.11104)
(-0.0622694 -0.00317427 2.08445)
(-0.060618 0.0130768 2.04642)
(-0.055423 0.0148555 1.99597)
(-0.0486168 0.0216564 1.94381)
(-0.0183442 -0.0505601 2.15093)
(-0.0257305 -0.0353464 2.13111)
(-0.0287827 -0.0305737 2.10289)
(-0.0320099 -0.0232096 2.07178)
(-0.0329885 -0.00612472 2.0328)
(-0.0295576 -0.00153886 1.98369)
(-0.0269226 0.0112289 1.93317)
(-0.02297 0.0140175 1.88059)
(-0.00798066 -0.0792219 2.14485)
(-0.0153598 -0.0752922 2.11888)
(-0.0202113 -0.0666167 2.08755)
(-0.0210419 -0.0496815 2.05001)
(-0.0169946 -0.0332452 2.01181)
(-0.0148324 -0.0253292 1.96557)
(-0.0164768 -0.0144961 1.91706)
(-0.0148135 -0.0104524 1.86251)
(-0.01195 -0.00444538 1.81162)
(0.0660213 -0.0713764 2.09949)
(0.0582989 -0.0669088 2.0734)
(0.0520808 -0.0617397 2.03655)
(0.0469592 -0.0540801 1.99505)
(0.0446586 -0.0412162 1.94729)
(0.0414827 -0.0313224 1.89288)
(0.0360033 -0.0204989 1.83832)
(0.0319628 -0.0161693 1.78493)
(0.0275117 -0.0147036 1.7331)
(0.0251612 -0.0086458 1.68814)
(-0.703051 0.590456 2.06173)
(-0.549085 0.377506 2.19422)
(-0.574105 0.382668 2.19104)
(-0.403742 0.255112 2.17568)
(-0.387188 0.187413 2.15807)
(-0.336187 0.092241 2.1317)
(-0.32146 0.199997 2.18052)
(-0.301422 0.104563 2.14783)
(-0.243059 0.0661004 2.14077)
(-0.227129 0.0486567 2.11662)
(-0.257284 0.143243 2.19556)
(-0.238191 0.0818856 2.14472)
(-0.204106 0.0524505 2.12232)
(-0.184468 0.0562977 2.09444)
(-0.146883 0.0468068 2.05086)
(-0.0784693 -0.0198225 2.18732)
(-0.0808624 -0.0275229 2.15392)
(-0.105714 -0.000280439 2.12631)
(-0.118948 0.0490851 2.09742)
(-0.113116 0.0450547 2.05253)
(-0.084001 0.0533612 2.00206)
(-0.114277 -0.0108692 2.16366)
(-0.0904819 -0.0194338 2.14537)
(-0.0830023 -0.0152279 2.11897)
(-0.0803407 0.0241426 2.08773)
(-0.0796492 0.045456 2.04296)
(-0.0645012 0.0344135 1.99539)
(-0.0558951 0.0530105 1.94641)
(-0.0489161 -0.0772539 2.16437)
(-0.0562592 -0.0590043 2.14104)
(-0.0519911 -0.046005 2.10954)
(-0.0552361 -0.0209616 2.0823)
(-0.0581696 0.00729314 2.04433)
(-0.0574906 0.0135271 1.99437)
(-0.05322 0.0233972 1.94301)
(-0.0396379 0.0241154 1.88755)
(-0.0126496 -0.0594078 2.14975)
(-0.0255025 -0.0376056 2.13096)
(-0.029997 -0.0329446 2.10105)
(-0.0328002 -0.0235816 2.07133)
(-0.0345459 -0.0075138 2.03251)
(-0.0312697 -0.00122472 1.98311)
(-0.0297798 0.0117337 1.93253)
(-0.0253954 0.013454 1.87994)
(-0.0210591 0.0118789 1.83004)
(-0.00721486 -0.0797299 2.14827)
(-0.0144599 -0.0740254 2.11975)
(-0.0195637 -0.0659405 2.08727)
(-0.0207754 -0.0489915 2.05316)
(-0.0168 -0.0331081 2.01095)
(-0.0148573 -0.0258625 1.96566)
(-0.0171089 -0.0154531 1.9168)
(-0.0158732 -0.0111818 1.86288)
(-0.0133897 -0.00476008 1.81017)
(-0.00766419 -0.00112368 1.76783)
(0.0661127 -0.0704688 2.09936)
(0.0582056 -0.0666299 2.07414)
(0.0520361 -0.0617704 2.0366)
(0.0469081 -0.0542749 1.99498)
(0.0443497 -0.0414785 1.94745)
(0.0409927 -0.0315714 1.89293)
(0.0353406 -0.0207952 1.83848)
(0.0311286 -0.0165762 1.78469)
(0.0270458 -0.0148535 1.73366)
(0.0244814 -0.00881727 1.68842)
(0.0221822 -0.00358093 1.64202)
(-1.65117 0.783242 2.12289)
(-0.591562 0.692194 2.05192)
(-0.605519 0.548376 2.04165)
(-0.434641 0.457702 2.16879)
(-0.445387 0.383579 2.16523)
(-0.445107 0.248359 2.15534)
(-0.351783 0.314213 2.16946)
(-0.331567 0.23543 2.14502)
(-0.298818 0.175239 2.12143)
(-0.2666 0.176589 2.09201)
(-0.286717 0.213808 2.18484)
(-0.267647 0.165582 2.14173)
(-0.240091 0.102696 2.12264)
(-0.207523 0.0871418 2.10322)
(-0.178058 0.0660294 2.05509)
(-0.198761 0.115919 2.1976)
(-0.205729 0.120922 2.15989)
(-0.196181 0.0573102 2.11268)
(-0.182303 0.0884456 2.08828)
(-0.158555 0.0677704 2.04896)
(-0.12201 0.0625814 1.99981)
(-0.0636333 -0.0242417 2.17848)
(-0.0709324 0.00627391 2.15414)
(-0.0775814 -0.0217611 2.12017)
(-0.117253 0.0290153 2.09384)
(-0.110776 0.0649174 2.04798)
(-0.0980884 0.0549127 1.99857)
(-0.0728392 0.0683507 1.95136)
(-0.16234 0.0411046 2.17374)
(-0.109758 0.0181929 2.14184)
(-0.085245 -0.0112246 2.11545)
(-0.0833796 0.0110384 2.0839)
(-0.0730976 0.0416217 2.04293)
(-0.0724311 0.0425174 1.99231)
(-0.0593329 0.0565111 1.94554)
(-0.0458811 0.0473556 1.89388)
(-0.0303152 -0.0712988 2.16103)
(-0.0386625 -0.0618648 2.14502)
(-0.04514 -0.0543779 2.1111)
(-0.0514824 -0.0279387 2.08092)
(-0.0536294 -0.00696285 2.04237)
(-0.0573636 0.00815809 1.99277)
(-0.0553614 0.0211928 1.94173)
(-0.0444945 0.0254985 1.88666)
(-0.0311851 0.0268509 1.83528)
(-0.014644 -0.0591603 2.14887)
(-0.0228834 -0.0445618 2.13086)
(-0.0308979 -0.0340856 2.10106)
(-0.0340278 -0.0274208 2.07021)
(-0.0362955 -0.00850786 2.03186)
(-0.0334544 -0.00309013 1.98175)
(-0.0321962 0.012037 1.93165)
(-0.0276314 0.0129551 1.87925)
(-0.0231158 0.0105466 1.82938)
(-0.0156698 0.0200501 1.78566)
(-0.00967583 -0.0732522 2.14879)
(-0.0136002 -0.0741983 2.12497)
(-0.0185101 -0.0650054 2.08676)
(-0.0210882 -0.047817 2.0542)
(-0.0169516 -0.0324286 2.0125)
(-0.0150824 -0.0258423 1.96525)
(-0.0176384 -0.0161134 1.91672)
(-0.0168394 -0.0119765 1.86238)
(-0.0143978 -0.00544131 1.81041)
(-0.00865957 -0.00185402 1.76685)
(-0.00496073 -0.000970943 1.72491)
(0.0662678 -0.0699741 2.0992)
(0.0582268 -0.066093 2.0742)
(0.0521357 -0.0617528 2.03687)
(0.0469943 -0.0544671 1.99508)
(0.0441395 -0.0417432 1.94743)
(0.040578 -0.0318686 1.89281)
(0.0347796 -0.0210932 1.83855)
(0.03061 -0.016853 1.78346)
(0.0264701 -0.0151102 1.73343)
(0.023864 -0.00901794 1.68867)
(0.0213908 -0.00367487 1.64263)
(0.0187633 8.50557e-05 1.59713)
(-2.93954 0.059209 2.94772)
(-2.76565 0.2984 2.52388)
(-1.56777 -0.0862874 2.18425)
(-1.5836 0.339038 2.04648)
(-0.710841 0.509325 2.05381)
(-0.600609 0.443008 2.04381)
(-0.464665 0.446513 2.00073)
(-0.335488 0.405558 2.158)
(-0.379945 0.402154 2.15325)
(-0.344643 0.225628 2.14651)
(-0.382948 0.175165 2.0985)
(-0.287621 0.236872 2.15913)
(-0.28659 0.27534 2.14288)
(-0.281877 0.177277 2.10505)
(-0.239675 0.225703 2.07894)
(-0.224629 0.143906 2.04336)
(-0.264445 0.153907 2.17816)
(-0.261605 0.184497 2.15033)
(-0.212437 0.129335 2.10848)
(-0.202467 0.0933708 2.09281)
(-0.174816 0.107069 2.04454)
(-0.145834 0.070785 2.00027)
(-0.166444 0.125161 2.19628)
(-0.155457 0.0987926 2.15444)
(-0.168523 0.0790943 2.12147)
(-0.183918 0.0726832 2.08145)
(-0.155655 0.0902767 2.04212)
(-0.135134 0.0814348 1.99855)
(-0.0969775 0.104584 1.95204)
(-0.0831553 0.0420404 2.17546)
(-0.0501892 -0.0183878 2.141)
(-0.0779672 0.00878634 2.1204)
(-0.0830933 -0.0202377 2.09163)
(-0.116916 0.0474773 2.04509)
(-0.0951939 0.0735472 1.99379)
(-0.0810543 0.063602 1.94783)
(-0.0558613 0.0748607 1.89417)
(-0.149869 0.0532826 2.17944)
(-0.14799 0.0593319 2.15016)
(-0.100893 0.0192278 2.11305)
(-0.0883893 0.0126791 2.08209)
(-0.0793465 0.0324461 2.04046)
(-0.0661142 0.0419159 1.99217)
(-0.0669128 0.0611857 1.9429)
(-0.0489652 0.0477172 1.89275)
(-0.0395105 0.0428138 1.84417)
(-0.0247983 -0.0545558 2.16188)
(-0.0251262 -0.0543189 2.14273)
(-0.0355738 -0.0519943 2.11565)
(-0.0454761 -0.0338087 2.08085)
(-0.0523702 -0.0119009 2.04084)
(-0.0547372 -0.00209742 1.9908)
(-0.0568333 0.0154935 1.94028)
(-0.0473355 0.0254534 1.88556)
(-0.036351 0.0284767 1.83453)
(-0.0206422 0.021564 1.79088)
(-0.0176201 -0.0569807 2.14713)
(-0.02469 -0.0440919 2.13025)
(-0.0302605 -0.0394707 2.10174)
(-0.0341976 -0.0297268 2.0699)
(-0.0369895 -0.0143814 2.03124)
(-0.0351953 -0.0041512 1.98213)
(-0.0358325 0.01035 1.92945)
(-0.0294107 0.0123887 1.87833)
(-0.025046 0.00993391 1.82873)
(-0.0182759 0.0188528 1.78517)
(-0.0125466 0.0256656 1.74217)
(-0.0104984 -0.0707808 2.14784)
(-0.0149621 -0.0696371 2.12737)
(-0.017713 -0.0651642 2.09025)
(-0.0207258 -0.0468848 2.05242)
(-0.0178825 -0.0316379 2.01517)
(-0.0152151 -0.025771 1.96548)
(-0.0182737 -0.0167196 1.91652)
(-0.0176445 -0.0125359 1.86273)
(-0.0155546 -0.00610578 1.81027)
(-0.00931899 -0.00282931 1.76668)
(-0.00572829 -0.00175798 1.72439)
(-0.00518243 0.00316216 1.68086)
(0.0672273 -0.0697695 2.09772)
(0.0583327 -0.065801 2.0738)
(0.0522447 -0.0615892 2.03689)
(0.0472123 -0.0546284 1.99485)
(0.044089 -0.0420366 1.94731)
(0.0402664 -0.0321656 1.89272)
(0.0342441 -0.0214091 1.83845)
(0.0300152 -0.0171161 1.78382)
(0.0260631 -0.0152935 1.73282)
(0.0232659 -0.00926972 1.6888)
(0.0206129 -0.00379381 1.64318)
(0.0180939 -0.000242321 1.59773)
(0.0163242 0.00110377 1.55875)
(-2.72272 -0.0449244 2.88762)
(-2.96312 -0.228486 2.86662)
(-2.82948 0.307264 2.95885)
(-2.90377 0.0119684 2.51097)
(-2.65876 0.232348 2.68431)
(-1.64095 -0.232769 2.15399)
(-1.56405 -0.0314185 1.90247)
(-1.25448 0.0987412 1.86546)
(-0.771744 0.362327 2.05449)
(-0.641784 0.416531 2.00298)
(-0.480695 0.55798 1.98076)
(-0.398661 0.456163 1.99676)
(-0.264167 0.359009 2.15195)
(-0.281092 0.359026 2.14024)
(-0.288379 0.274555 2.12259)
(-0.328161 0.202964 2.08132)
(-0.294723 0.182577 2.01554)
(-0.244722 0.217462 2.16631)
(-0.237838 0.189927 2.13953)
(-0.244956 0.199365 2.10583)
(-0.242092 0.214342 2.05932)
(-0.200549 0.165517 2.02955)
(-0.197956 0.161509 1.99255)
(-0.186695 0.0746151 2.17642)
(-0.238062 0.129894 2.13566)
(-0.215768 0.14909 2.11593)
(-0.190536 0.122621 2.07802)
(-0.165811 0.086621 2.04219)
(-0.145975 0.0965612 1.99525)
(-0.125724 0.0862451 1.94392)
(-0.123444 0.0570362 2.18811)
(-0.154005 0.121426 2.14657)
(-0.127095 0.063768 2.11373)
(-0.169894 0.113891 2.08463)
(-0.166111 0.0636392 2.03932)
(-0.13421 0.0914789 1.99316)
(-0.113507 0.119566 1.9495)
(-0.0789543 0.0777527 1.90013)
(-0.109005 0.00561838 2.17563)
(-0.0508649 0.0205428 2.14031)
(-0.0622807 -0.0139509 2.11104)
(-0.0929551 0.0241686 2.08986)
(-0.0833825 -0.00612909 2.04413)
(-0.103906 0.0536218 1.99093)
(-0.0779799 0.0775588 1.94233)
(-0.0626921 0.0680126 1.89084)
(-0.0450499 0.0746886 1.8435)
(-0.105651 -0.000436884 2.17315)
(-0.137991 0.0561966 2.15305)
(-0.123046 0.0445942 2.11763)
(-0.0966855 0.030189 2.08036)
(-0.0851823 0.0329486 2.03914)
(-0.0744648 0.0366515 1.99087)
(-0.0662286 0.0632122 1.94135)
(-0.0539099 0.0498868 1.89092)
(-0.0419522 0.0419144 1.84295)
(-0.0330738 0.0491811 1.79962)
(-0.046127 -0.032686 2.1667)
(-0.0237384 -0.0364369 2.14412)
(-0.0292261 -0.0419116 2.11558)
(-0.044876 -0.0272439 2.08318)
(-0.0502528 -0.0136832 2.03974)
(-0.0557939 -0.00448537 1.98922)
(-0.0544526 0.00767014 1.93846)
(-0.0507925 0.0219579 1.88442)
(-0.0393864 0.0288278 1.83367)
(-0.0245994 0.0223959 1.79039)
(-0.01602 0.0221424 1.74702)
(-0.0220481 -0.0478465 2.14612)
(-0.0269027 -0.0430223 2.12916)
(-0.03092 -0.0396369 2.10145)
(-0.0341404 -0.0334845 2.0695)
(-0.0368166 -0.0171343 2.03078)
(-0.0367452 -0.0088859 1.98247)
(-0.037346 0.00886577 1.93166)
(-0.0324318 0.0113124 1.87584)
(-0.0263696 0.0085781 1.82787)
(-0.0209919 0.0187287 1.78464)
(-0.0156803 0.0248696 1.74205)
(-0.0113055 0.0270772 1.6988)
(-0.00992606 -0.0685891 2.14815)
(-0.0156656 -0.0675418 2.12592)
(-0.0178591 -0.0625194 2.09306)
(-0.0204522 -0.0467913 2.05449)
(-0.0182096 -0.0308188 2.01515)
(-0.0158197 -0.025575 1.9655)
(-0.0184136 -0.0172392 1.91642)
(-0.0183741 -0.0133264 1.86314)
(-0.016437 -0.00666744 1.81128)
(-0.0100703 -0.00362561 1.76578)
(-0.00621209 -0.00251826 1.72385)
(-0.00611482 0.00231256 1.68072)
(-0.00432973 0.00547951 1.64041)
(0.0677134 -0.0694769 2.0978)
(0.0588756 -0.0656775 2.07316)
(0.0524307 -0.061466 2.03657)
(0.0474918 -0.0545898 1.99499)
(0.0441262 -0.0422651 1.94725)
(0.0400303 -0.0324406 1.89286)
(0.033788 -0.021707 1.83835)
(0.0294872 -0.0173931 1.78382)
(0.0256572 -0.0155638 1.73291)
(0.0227157 -0.00952677 1.68872)
(0.01986 -0.00393562 1.64368)
(0.0174402 -0.000506248 1.59831)
(0.0157822 0.000908775 1.55908)
(0.0125908 0.00287945 1.52638)
(-2.27685 0.0553726 2.62436)
(-2.47372 -0.000515955 2.67027)
(-2.81238 -0.268686 2.83019)
(-2.84603 0.0735326 2.80463)
(-2.91387 -0.56784 2.88402)
(-2.91708 -0.163726 2.896)
(-2.81112 0.205643 2.88809)
(-2.83186 -0.416861 2.55526)
(-2.66902 -0.0119408 2.636)
(-2.44978 0.400728 2.61281)
(-1.72395 -0.58397 2.01088)
(-1.42953 -0.15695 1.8114)
(-0.977409 -0.0832926 1.93361)
(-1.00582 -0.0161747 1.85634)
(-0.809282 0.138973 2.11865)
(-0.607276 0.375286 2.03388)
(-0.531132 0.510801 2.00057)
(-0.37046 0.551271 1.99204)
(-0.35936 0.366353 1.98727)
(-0.158234 0.243633 2.15203)
(-0.175232 0.280387 2.14088)
(-0.19726 0.288525 2.11004)
(-0.2447 0.142273 2.05699)
(-0.24958 0.19559 1.99799)
(-0.237613 0.172415 1.94837)
(-0.276165 0.226815 2.1696)
(-0.241657 0.207101 2.14024)
(-0.202119 0.12728 2.10458)
(-0.240102 0.234993 2.05516)
(-0.191664 0.150866 2.01588)
(-0.193224 0.200057 1.97956)
(-0.168577 0.161637 1.93992)
(-0.158509 0.0390034 2.18254)
(-0.129242 0.0269229 2.12818)
(-0.205139 0.105861 2.09889)
(-0.180409 0.141278 2.08218)
(-0.179389 0.139883 2.03076)
(-0.136182 0.0907931 1.9967)
(-0.1247 0.0966952 1.94297)
(-0.095751 0.110485 1.88394)
(-0.0749737 -0.00505672 2.19754)
(-0.13672 0.0653916 2.14135)
(-0.135356 0.09841 2.10562)
(-0.144439 0.100739 2.07858)
(-0.15443 0.125922 2.04147)
(-0.149043 0.0748157 1.98976)
(-0.115275 0.120708 1.94545)
(-0.089203 0.0821813 1.89779)
(-0.0628057 0.0803393 1.84843)
(-0.0724669 -0.0429321 2.1706)
(-0.0727225 -0.0108504 2.13813)
(-0.0590557 0.0177329 2.10973)
(-0.0806766 0.0053642 2.0858)
(-0.093205 0.0341327 2.04184)
(-0.0757857 0.0127174 1.98734)
(-0.0828192 0.0568157 1.93893)
(-0.0640001 0.0801457 1.88634)
(-0.0522078 0.0685116 1.84113)
(-0.0312738 0.0667671 1.79801)
(-0.0690282 -0.0446577 2.16657)
(-0.109827 0.0176467 2.14689)
(-0.115354 0.0394478 2.11843)
(-0.106095 0.036329 2.08182)
(-0.088975 0.0387181 2.03772)
(-0.0781694 0.0357641 1.98905)
(-0.0763496 0.0603732 1.94073)
(-0.0542952 0.0515445 1.88857)
(-0.0477559 0.0480898 1.84122)
(-0.0355927 0.0484756 1.79856)
(-0.0314175 0.0518074 1.75431)
(-0.0573477 -0.0195948 2.16711)
(-0.0333079 -0.0235684 2.14645)
(-0.0372948 -0.0207629 2.11561)
(-0.0473931 -0.0160283 2.08361)
(-0.0555429 -0.00586254 2.0388)
(-0.0551471 -0.00580784 1.98761)
(-0.0581204 0.00774746 1.93696)
(-0.0492458 0.0159651 1.88313)
(-0.0434632 0.0289906 1.83275)
(-0.0268424 0.0223624 1.78972)
(-0.0189841 0.0225032 1.74691)
(-0.0144115 0.025528 1.70403)
(-0.0244052 -0.044428 2.14487)
(-0.0317038 -0.0363005 2.12827)
(-0.0316222 -0.0384614 2.10112)
(-0.0320429 -0.0352967 2.06892)
(-0.036527 -0.0209228 2.03007)
(-0.0364678 -0.0109506 1.98245)
(-0.0410854 0.00615963 1.93307)
(-0.0335127 0.00987778 1.87925)
(-0.0282915 0.00786471 1.82549)
(-0.0232373 0.0173358 1.78388)
(-0.0184428 0.0247052 1.74166)
(-0.0143586 0.0267508 1.69844)
(-0.00857713 0.0224873 1.65897)
(-0.00718266 -0.0665286 2.14832)
(-0.015077 -0.065296 2.1259)
(-0.0181473 -0.060853 2.09142)
(-0.0205637 -0.0457506 2.05695)
(-0.0185427 -0.0308897 2.01577)
(-0.0163584 -0.0253228 1.96602)
(-0.0187499 -0.0179002 1.91503)
(-0.0185507 -0.0141995 1.86299)
(-0.0173087 -0.00759601 1.81202)
(-0.0106771 -0.00422294 1.76658)
(-0.00667824 -0.00324844 1.72285)
(-0.00671036 0.00160324 1.68041)
(-0.00517036 0.00489885 1.64057)
(-0.00430773 0.00990442 1.6053)
(0.0687287 -0.0690425 2.09854)
(0.0598694 -0.0656904 2.072)
(0.0529051 -0.0615007 2.03613)
(0.0478712 -0.054562 1.99499)
(0.0442039 -0.0425122 1.9474)
(0.0398569 -0.0327026 1.89286)
(0.0333789 -0.0220033 1.83848)
(0.0290277 -0.0176989 1.78375)
(0.0253356 -0.0158187 1.73288)
(0.0222149 -0.00979835 1.68874)
(0.0191324 -0.00413016 1.6441)
(0.0167709 -0.000708802 1.59884)
(0.0152822 0.000728776 1.55939)
(0.0122263 0.00262682 1.52646)
(0.0102081 0.00407482 1.49641)
(-2.19069 0.0400497 2.48197)
(-2.29599 -0.200916 2.63293)
(-2.26307 0.267305 2.71589)
(-2.46225 -0.228409 2.64416)
(-2.5708 -0.0570694 2.66741)
(-2.79594 -0.448696 2.78269)
(-2.87962 -0.19695 2.74771)
(-2.87194 0.0695742 2.81853)
(-3.10401 -0.654724 2.79814)
(-2.92183 -0.491076 2.87239)
(-2.87023 -0.150847 2.87105)
(-2.83035 0.237809 2.81874)
(-2.80437 -0.543694 2.58118)
(-2.81646 0.507237 2.35951)
(-2.51707 0.341169 2.41262)
(-2.14969 0.290325 2.51427)
(-1.75745 -0.805724 1.94689)
(-1.29162 -0.178871 1.89885)
(-0.90406 -0.0966098 1.97365)
(-0.91598 0.13951 1.8169)
(-0.681753 0.137106 1.81375)
(-0.821791 -0.0418182 2.17457)
(-0.651251 0.252048 2.09867)
(-0.498654 0.477626 2.02496)
(-0.3653 0.523163 1.97752)
(-0.316706 0.405198 1.94865)
(-0.24144 0.320977 1.95373)
(-0.111808 0.165572 2.16453)
(-0.0801802 0.210931 2.12807)
(-0.133197 0.258899 2.1022)
(-0.200878 0.201853 2.03956)
(-0.18189 0.142524 1.97226)
(-0.223262 0.175078 1.9361)
(-0.187491 0.177976 1.88609)
(-0.224837 0.193818 2.19125)
(-0.28188 0.233484 2.14439)
(-0.210666 0.147164 2.10316)
(-0.227086 0.183134 2.05533)
(-0.206846 0.189019 2.00889)
(-0.193538 0.176764 1.97485)
(-0.168201 0.20103 1.93278)
(-0.133304 0.104939 1.8799)
(-0.150273 0.105946 2.20551)
(-0.111495 0.0352404 2.14122)
(-0.117476 0.0357292 2.08943)
(-0.179118 0.104102 2.0717)
(-0.158936 0.162702 2.03174)
(-0.156041 0.141059 1.99052)
(-0.114826 0.0996756 1.94504)
(-0.0970758 0.113975 1.88416)
(-0.076385 0.10222 1.83802)
(-0.129431 0.0802014 2.20432)
(-0.0750819 0.00432314 2.14909)
(-0.121354 0.0586742 2.10293)
(-0.146725 0.122875 2.07278)
(-0.13739 0.110572 2.03676)
(-0.141009 0.13973 1.99261)
(-0.131666 0.113433 1.93903)
(-0.0895845 0.0836463 1.8952)
(-0.0703635 0.0790931 1.84684)
(-0.0423343 0.0712931 1.8012)
(-0.0774154 -0.0163777 2.16533)
(-0.0586116 -0.0311449 2.13377)
(-0.0715109 -0.00707655 2.10758)
(-0.0827498 0.0339918 2.08315)
(-0.0820013 0.0148951 2.04113)
(-0.0836082 0.0416043 1.98556)
(-0.062634 0.0326046 1.93221)
(-0.0696301 0.0622382 1.88258)
(-0.0571862 0.078532 1.83776)
(-0.0382137 0.062647 1.79643)
(-0.0284816 0.0682053 1.75264)
(-0.0802178 -0.0348665 2.16439)
(-0.0851443 -0.0157631 2.13794)
(-0.0978447 0.0132258 2.11348)
(-0.101234 0.0347387 2.08087)
(-0.0938162 0.0332421 2.03741)
(-0.0800887 0.0336663 1.98691)
(-0.0794041 0.0546085 1.93874)
(-0.0633637 0.0523229 1.88826)
(-0.04662 0.0458074 1.83957)
(-0.0417395 0.0558107 1.79728)
(-0.0338674 0.0520782 1.7534)
(-0.024285 0.0563315 1.70786)
(-0.0566538 -0.0220775 2.1647)
(-0.0396167 -0.0133816 2.14602)
(-0.0433024 -0.0120696 2.11621)
(-0.0607654 0.00370776 2.08276)
(-0.0602241 0.00160377 2.03878)
(-0.0644837 0.00272423 1.98432)
(-0.0571299 0.00482111 1.93529)
(-0.0539453 0.0160404 1.88184)
(-0.0445187 0.02591 1.83168)
(-0.0294933 0.0235073 1.78897)
(-0.0215211 0.0228773 1.7464)
(-0.0169562 0.0253406 1.70408)
(-0.0118214 0.0269589 1.66465)
(-0.027778 -0.0377379 2.14378)
(-0.0344941 -0.0345144 2.12716)
(-0.0356578 -0.0327146 2.10043)
(-0.0309765 -0.0342433 2.06842)
(-0.0328871 -0.0241541 2.0293)
(-0.0349534 -0.0156859 1.98241)
(-0.0407261 0.00394013 1.93278)
(-0.0374043 0.00887083 1.88118)
(-0.0291963 0.00673046 1.82862)
(-0.0251974 0.0160957 1.78185)
(-0.0211455 0.0238503 1.74114)
(-0.0166994 0.0260281 1.69837)
(-0.0112091 0.0220066 1.65814)
(-0.00868568 0.0203289 1.62405)
(-0.00417452 -0.0650679 2.14779)
(-0.0126493 -0.063403 2.12598)
(-0.0177817 -0.0588997 2.09159)
(-0.0209757 -0.0448025 2.05584)
(-0.0190332 -0.0306935 2.01672)
(-0.0170811 -0.0254975 1.9671)
(-0.0190388 -0.0182222 1.91515)
(-0.0187738 -0.0150601 1.86271)
(-0.0177752 -0.00824315 1.81175)
(-0.0112091 -0.00514493 1.76749)
(-0.00698947 -0.00387615 1.72308)
(-0.00739912 0.000826061 1.67998)
(-0.00617237 0.00429389 1.6405)
(-0.00548858 0.00932267 1.60518)
(-0.00382089 0.0131008 1.57177)
(0.0697725 -0.0688281 2.09773)
(0.0604458 -0.0656653 2.07191)
(0.0536483 -0.0614921 2.03487)
(0.0483642 -0.0546337 1.99448)
(0.0444485 -0.0426907 1.94727)
(0.0397984 -0.032922 1.89283)
(0.0330269 -0.0223106 1.83849)
(0.0286292 -0.0180166 1.78382)
(0.0250352 -0.016062 1.73308)
(0.0217429 -0.0100608 1.68886)
(0.018442 -0.00436436 1.64442)
(0.016099 -0.00088799 1.59931)
(0.0147839 0.000527182 1.5597)
(0.0118441 0.00241201 1.52677)
(0.0099155 0.00389628 1.49625)
(0.00732309 0.00613051 1.46679)
(-2.05856 -0.0100665 2.38534)
(-2.23226 -0.171347 2.49998)
(-2.24608 0.0707063 2.485)
(-2.33606 -0.496757 2.58331)
(-2.34932 -0.191772 2.67858)
(-2.31963 0.170323 2.71678)
(-2.46338 -0.38747 2.67642)
(-2.5082 -0.389109 2.68492)
(-2.48084 0.0469014 2.80851)
(-2.81869 -0.599955 2.75647)
(-2.9142 -0.355784 2.73155)
(-2.8664 0.0870814 2.81204)
(-2.80758 0.246333 2.79531)
(-2.82931 -1.31247 2.87914)
(-2.99276 -0.699645 2.8311)
(-2.88062 -0.39345 2.86391)
(-2.83452 0.0638888 2.80805)
(-2.59677 0.350803 2.78111)
(-2.84557 -0.855665 2.62926)
(-2.60663 -0.830966 2.4782)
(-2.44991 0.188409 2.40562)
(-2.0155 0.423465 2.37852)
(-1.74589 0.480998 2.29699)
(-1.74647 -1.01303 2.03069)
(-1.28543 -0.365803 2.09023)
(-0.986849 -0.00425446 2.00498)
(-0.914501 0.0721681 1.82082)
(-0.653151 0.245693 1.80868)
(-0.349236 0.325739 1.84702)
(-0.838725 -0.228243 2.20171)
(-0.587997 0.154395 2.17008)
(-0.441869 0.271674 2.09051)
(-0.310802 0.445033 1.96281)
(-0.256867 0.2828 1.92552)
(-0.253334 0.415532 1.89966)
(-0.224865 0.27515 1.89962)
(-0.149766 0.113054 2.17406)
(-0.0818408 0.193555 2.14556)
(-0.0821973 0.215497 2.08586)
(-0.17593 0.204851 2.04722)
(-0.202651 0.154171 1.96561)
(-0.155613 0.159946 1.91952)
(-0.189455 0.210915 1.87866)
(-0.143568 0.175435 1.84189)
(-0.154077 0.110589 2.20323)
(-0.224716 0.215153 2.16181)
(-0.255813 0.196153 2.09932)
(-0.224252 0.189986 2.05463)
(-0.210294 0.152623 2.01023)
(-0.204271 0.217018 1.96633)
(-0.163682 0.187065 1.93073)
(-0.139968 0.137106 1.87562)
(-0.086972 0.114733 1.82523)
(-0.131067 0.0717162 2.19415)
(-0.135775 0.131998 2.16256)
(-0.111254 0.0503852 2.1029)
(-0.125561 0.0755751 2.06226)
(-0.166406 0.110801 2.02651)
(-0.136774 0.163914 1.98713)
(-0.130001 0.134305 1.94195)
(-0.097704 0.120517 1.885)
(-0.0804236 0.101154 1.83785)
(-0.0513511 0.095837 1.79285)
(-0.0500011 0.0102502 2.20416)
(-0.126481 0.0878324 2.15605)
(-0.0582041 0.00387268 2.10442)
(-0.133017 0.0934338 2.06877)
(-0.127717 0.114155 2.03327)
(-0.125861 0.110441 1.98831)
(-0.129566 0.160328 1.94106)
(-0.0967538 0.0714515 1.88679)
(-0.0753114 0.0825563 1.84484)
(-0.0506002 0.0663037 1.8007)
(-0.0386171 0.0747939 1.75371)
(-0.126322 -0.00711579 2.16882)
(-0.0499734 -0.026099 2.12751)
(-0.0661816 -0.0211058 2.10203)
(-0.0884424 0.0208611 2.08356)
(-0.0977724 0.0497031 2.03915)
(-0.0762614 0.0222243 1.98468)
(-0.0659976 0.0470476 1.93247)
(-0.0610356 0.0501549 1.87538)
(-0.0629475 0.0628244 1.83468)
(-0.0452055 0.069726 1.79363)
(-0.0353641 0.0649981 1.75172)
(-0.0281029 0.0587445 1.70889)
(-0.073872 -0.0407693 2.16767)
(-0.0907499 -0.0174453 2.13491)
(-0.0809968 -0.0128276 2.10695)
(-0.0915894 0.0159588 2.07732)
(-0.0934796 0.0393606 2.03507)
(-0.0841875 0.0239928 1.98591)
(-0.0845324 0.0514137 1.93623)
(-0.0628866 0.0449921 1.88657)
(-0.0549204 0.0459641 1.83904)
(-0.0412622 0.0516075 1.79607)
(-0.0386913 0.0560598 1.75236)
(-0.027736 0.0556593 1.70713)
(-0.0149921 0.0464383 1.66606)
(-0.0596468 -0.0163342 2.16183)
(-0.0404199 -0.0138248 2.14442)
(-0.0482824 -0.00600473 2.11551)
(-0.0673755 0.0101025 2.08226)
(-0.0762434 0.0199682 2.03855)
(-0.0688152 0.00735452 1.9844)
(-0.0667565 0.0124135 1.93283)
(-0.0536064 0.0128168 1.88088)
(-0.0479951 0.0246999 1.83045)
(-0.0317571 0.0227668 1.78775)
(-0.0236087 0.0224552 1.74581)
(-0.0199763 0.0264092 1.7037)
(-0.015096 0.0264594 1.66462)
(-0.0119825 0.0331258 1.62933)
(-0.0265496 -0.0365412 2.14245)
(-0.0382371 -0.0296744 2.12603)
(-0.038674 -0.0302979 2.09973)
(-0.0334938 -0.0288268 2.06768)
(-0.0309488 -0.0236101 2.02867)
(-0.0313766 -0.018646 1.98127)
(-0.0416092 0.00026228 1.9327)
(-0.0370872 0.00701452 1.88075)
(-0.0313833 0.00543975 1.83069)
(-0.0269272 0.0150233 1.78373)
(-0.0235947 0.022445 1.7396)
(-0.0193444 0.0252942 1.69823)
(-0.0126388 0.0212669 1.65856)
(-0.0104515 0.0196873 1.62307)
(-0.0067338 0.0194706 1.59072)
(-0.000866063 -0.0625141 2.14704)