/*--------------------------------*- C++ -*----------------------------------*\
  =========                 |
  \\      /  F ield         | OpenFOAM: The Open Source CFD Toolbox
   \\    /   O peration     | Website:  https://openfoam.org
    \\  /    A nd           | Version:  7
     \\/     M anipulation  |
\*---------------------------------------------------------------------------*/
FoamFile
{
    version     2.0;
    format      ascii;
    class       volScalarField;
    location    "7.5";
    object      nut;
}
// * * * * * * * * * * * * * * * * * * * * * * * * * * * * * * * * * * * * * //

dimensions      [0 2 -1 0 0 0 0];

internalField   nonuniform List<scalar> 
18750
(
0.00107251
0.0014476
0.000888676
0.00120876
0.00112276
0.00156126
0.00102243
0.00118005
0.00117162
0.000920022
0.00139683
0.00113744
0.00336506
0.00163688
0.000720684
0.000482168
0.00153894
0.00105457
0.000963922
0.00119489
0.00207789
0.00149105
0.00120012
0.00137048
0.000797943
0.00087789
0.00156142
0.000719117
0.000675683
0.000342794
0.00172319
0.000915556
0.00104911
0.00105216
0.000480845
0.00320366
0.00252314
0.00334773
0.00153134
0.00134994
0.000840023
0.00128925
0.00105614
0.000845495
0.000688785
0.00138559
0.0010876
0.000821547
0.000426284
0.000346668
0.0017861
0.00122425
0.0010719
0.000817537
0.000455909
0.000289713
0.00248108
0.00238095
0.000991418
0.00278211
0.00188985
0.00249332
0.00144206
0.000755285
0.00111289
0.000568101
0.0010015
0.00139394
0.00080496
0.000541927
0.000659967
0.0012647
0.00132503
0.000765172
0.000463041
0.000358977
0.00020896
0.00173894
0.00150266
0.00120841
0.000888066
0.000494563
0.00036027
0.000185635
0.0028773
0.00294986
0.00130905
0.00211213
0.000736332
0.000592354
0.0031182
0.00205786
0.00221422
0.000621738
0.00146201
0.00086342
0.000834121
0.00117263
0.000610801
0.00103956
0.000960694
0.000792516
0.000485863
0.000561197
0.00067527
0.00113135
0.00146446
0.000625681
0.000362745
0.000274415
0.000262838
0.000218334
0.00160226
0.00170788
0.00112336
0.000927298
0.000484878
0.000384267
0.000169669
0.000187167
0.0024893
0.00275453
0.00174039
0.00278183
0.000610403
0.000756253
0.00237147
0.0011461
0.00136014
0.00163924
0.00308883
0.00213415
0.000966955
0.00238795
0.00122168
0.00136678
0.000773705
0.000614845
0.000976731
0.000496743
0.00111244
0.00100249
0.000823954
0.000890559
0.000472498
0.000611309
0.000674037
0.000439655
0.000989134
0.00149689
0.000597946
0.00035517
0.000281468
0.000361118
0.000213029
0.000306273
0.00139247
0.001743
0.000814335
0.000924678
0.000465559
0.000382092
0.000156774
0.000188525
0.000150415
0.00238824
0.00262171
0.00135962
0.0028707
0.00140867
0.000961085
0.00278168
0.00133786
0.000789976
0.000679652
0.00238249
0.000424533
0.00139793
0.000988055
0.000628465
0.003091
0.00128103
0.00135231
0.0011097
0.000952592
0.000906145
0.00140512
0.000859032
0.000747491
0.000720342
0.000504614
0.00113718
0.000752835
0.001193
0.000763688
0.000733411
0.000390176
0.000667039
0.000524881
0.00050583
0.000528713
0.000893512
0.00131182
0.000598327
0.00032537
0.000338651
0.000359315
0.000212109
0.000318982
0.000292683
0.00112358
0.00157727
0.000762829
0.000865404
0.000439813
0.000344547
0.000148684
0.000186676
0.000146541
0.000238626
0.00243156
0.0024283
0.0013125
0.00279874
0.00123955
0.00095908
0.00357937
0.000792456
0.000947058
0.000806465
0.00283985
0.000700916
0.000676512
0.00100415
0.00100846
0.00226325
0.00106802
0.00147536
0.00116492
0.0005429
0.000535155
0.00333189
0.00175522
0.00103756
0.000916153
0.00103071
0.000469483
0.000605988
0.00152317
0.000790992
0.000812413
0.000538154
0.000640088
0.00113062
0.000929986
0.00107064
0.00121369
0.000760307
0.000768334
0.000349949
0.000639461
0.000459817
0.000328791
0.000555827
0.00025895
0.000785243
0.000999113
0.000650991
0.000312907
0.000397943
0.000320482
0.0002107
0.000306
0.000314804
0.000293474
0.000801291
0.00134889
0.000734631
0.000724509
0.000409004
0.000291195
0.000146294
0.000186437
0.000160057
0.000229608
0.000357602
0.0028057
0.00246933
0.000695789
0.00236771
0.00112275
0.000610493
0.00245785
0.000726341
0.00131496
0.000621844
0.00315565
0.000589865
0.00111381
0.000687079
0.000808061
0.00254564
0.00164251
0.000633554
0.00109662
0.000992423
0.000778673
0.00262411
0.00193089
0.00111859
0.000977268
0.000769927
0.000620952
0.000610217
0.00357804
0.00096393
0.000874972
0.000766121
0.00168875
0.000739884
0.00102144
0.000911406
0.00196108
0.000677043
0.000561266
0.000455063
0.000511193
0.000928791
0.000806973
0.000653757
0.000697398
0.00112806
0.000652047
0.000782074
0.000252276
0.000696112
0.000513615
0.000335222
0.00066648
0.000449471
0.000241795
0.000726663
0.00084399
0.000779181
0.000357251
0.000442479
0.00034393
0.000225647
0.000291803
0.000320241
0.000304328
0.000353928
0.000450529
0.00106592
0.000681494
0.000372242
0.000372806
0.000269134
0.000145247
0.00018117
0.000172138
0.000213438
0.000274556
0.000256307
0.00238355
0.00266574
0.000690607
0.00283044
0.00235037
0.00091976
0.000517318
0.00254016
0.000683319
0.000572311
0.000515113
0.00222629
0.00087579
0.0013708
0.00100766
0.000760664
0.00284881
0.00113471
0.00105024
0.000879108
0.000577255
0.000574163
0.00263228
0.0022174
0.000752478
0.000856809
0.000698133
0.000664282
0.000977567
0.00275773
0.000332011
0.00141504
0.000579699
0.000595361
0.000567779
0.00048893
0.000897229
0.00385993
0.000769368
0.00059203
0.000919687
0.000930756
0.00129121
0.000874425
0.00140679
0.000163967
0.00248941
0.000906573
0.00045195
0.000580325
0.000478792
0.000753286
0.000384567
0.000578387
0.000495939
0.00110147
0.00108634
0.000682348
0.000602087
0.000223529
0.000751643
0.000584651
0.000432692
0.000773487
0.000122695
0.000354068
0.000655178
0.000716952
0.00078418
0.00073749
0.000426189
0.000485144
0.000328185
0.00020862
0.000309288
0.000366632
0.000261916
0.000252534
0.000349644
0.000368794
0.000747031
0.000534708
0.000230084
0.000342853
0.000296489
0.000129742
0.000184377
0.000229577
0.000205215
0.000251515
0.000269963
0.000533837
0.00207653
0.00243875
0.000584822
0.00273191
0.00261804
0.000722031
0.00056416
0.000577985
0.0022585
0.00104225
0.000760231
0.000464481
0.00239244
0.000466963
0.00106203
0.000471051
0.000383111
0.00272671
0.00134196
0.000831945
0.000970983
0.000690975
0.000843846
0.00285461
0.00148748
0.000280169
0.000512137
0.000549873
0.000936701
0.000974488
0.00259643
0.00124769
0.00115128
0.000789303
0.000660531
0.000482178
0.000773396
0.000791278
0.00269551
0.000947046
0.000633781
0.000770128
0.00172092
0.00064662
0.000540663
0.00033456
0.000209767
0.00347857
0.00146492
0.000486435
0.000848055
0.000701951
0.000859
0.000203202
0.000204299
0.000521353
0.000463562
0.00214996
0.000585417
0.000460486
0.000307127
0.000697614
0.000934085
0.00064469
0.00145926
0.000620108
0.000623805
0.000138057
0.00109744
0.000674306
0.000492266
0.000386246
0.000786386
0.000696272
0.000469773
0.00076259
0.000482334
0.000607788
0.000542908
9.17523e-05
0.000758012
0.000748648
0.000724735
0.000407302
0.000501449
0.000344151
0.000193298
0.000356394
0.000506858
0.000301922
0.000236335
0.000516931
0.000605756
0.000444054
0.000466153
0.000326105
0.000258188
0.000319496
0.000333535
0.00012712
0.000177118
0.000190358
0.000194598
0.000192242
0.000268552
0.00029204
0.000492723
0.00235783
0.00238344
0.000487357
0.00230418
0.00243742
0.000598513
0.000403519
0.000518806
0.00251027
0.000633935
0.000402289
0.000579146
0.000803582
0.00212157
0.000724379
0.000658307
0.000629971
0.000393317
0.00255288
0.000807349
0.000527301
0.000571518
0.000458831
0.000608404
0.003118
0.000908653
0.000710087
0.000864047
0.000609516
0.000848152
0.000496333
0.0029491
0.000852903
0.000419238
0.00076669
0.000584328
0.000666277
0.000705628
0.000498931
0.00277699
0.000714581
0.00118042
0.000698631
0.000681998
0.000611082
0.000715747
0.000637791
0.00100446
0.00280001
0.00112536
0.00078035
0.00127586
0.00188058
0.000940888
0.000481979
0.000328543
0.000487738
0.000344955
0.00294908
0.000701684
0.000689966
0.000932399
0.000841944
0.000559731
0.000510395
0.000488828
0.000594671
0.000817761
0.000593881
0.00221578
0.0008574
0.000289836
0.000773539
0.000795921
0.00105911
0.000965729
0.00120006
0.00059479
0.000189565
0.000340763
0.000545825
0.00122517
0.000426386
0.000513784
0.000578804
0.000842831
0.000722652
0.000356293
0.0003781
0.00056289
0.000273395
0.000200778
0.000204704
0.000161821
0.000811527
0.000774719
0.000620564
0.000459272
0.000479985
0.000379869
0.0002141
0.000372012
0.000424399
0.000363718
0.000252959
0.000207043
0.000376079
0.000369847
0.00043974
0.000354775
0.000261788
0.000299149
0.000307623
0.000342081
0.000145651
0.000159368
0.000157738
0.000173258
0.000239014
0.000272155
0.000283408
0.000512263
0.00016775
0.00228203
0.00220872
0.000428487
0.00234501
0.00221463
0.000761038
0.00060755
0.000648563
0.00263718
0.000513495
0.00068173
0.000319764
0.000455485
0.00251809
0.000882556
0.00063905
0.000362721
0.000308739
0.000478177
0.00221338
0.000625346
0.000428533
0.000603614
0.000583296
0.000604432
0.00239
0.000741077
0.000371103
0.000651775
0.000594555
0.000480937
0.000510336
0.00281133
0.00108651
0.00140181
0.00084397
0.000730282
0.000696039
0.000840069
0.000682129
0.00276996
0.00115491
0.00128805
0.00101341
0.000725119
0.000428851
0.000577126
0.000353018
0.000558072
0.00286217
0.00122796
0.000676277
0.000636472
0.000968609
0.000529414
0.000834908
0.000811987
0.000800032
0.00111246
0.00247077
0.000512668
0.000530176
0.00127956
0.000819226
0.0011265
0.000953616
0.000567292
0.000293289
0.000413454
0.000714109
0.00291569
0.0005285
0.000734591
0.00114043
0.000690352
0.00110489
0.000647756
0.000396735
0.000431351
0.000315353
0.000669503
0.000277254
0.00225482
0.000718664
0.000311983
0.000860104
0.000960332
0.00127373
0.000894133
0.000547292
0.000464707
0.000512791
0.000738696
0.000148226
0.000313028
0.00139473
0.000287575
0.00055955
0.000665362
0.000800579
0.000714377
0.000352711
0.000777916
0.000794314
0.000327905
0.000276669
0.000252253
0.000170984
0.000190849
0.000846151
0.00077362
0.000488237
0.000508482
0.000480674
0.000293949
0.000249219
0.000564714
0.000375632
0.000185535
0.000312294
0.000203795
0.000392065
0.000383621
0.000260259
0.000461012
0.000330111
0.000271133
0.000309349
0.000311569
0.000323881
0.0001642
0.000142638
0.00016027
0.000170934
0.000190902
0.000274271
0.000269748
0.000506215
0.000193671
0.00013595
0.00213119
0.00224281
0.000497275
0.00229218
0.00225213
0.000585774
0.00049697
0.00054494
0.00247255
0.00230316
0.000505375
0.000614276
0.000282356
0.000410219
0.00262105
0.00067218
0.000408152
0.000406291
0.000295719
0.000423474
0.00248017
0.000701295
0.000362456
0.000398115
0.00034126
0.000346474
0.000558382
0.00217174
0.000450878
0.00035356
0.000514652
0.000438346
0.000251056
0.000268129
0.00243525
0.000819318
0.000392363
0.000392622
0.000512311
0.000427299
0.000572012
0.000496655
0.00271838
0.00132606
0.000991822
0.000666771
0.000607386
0.000673949
0.000895797
0.000735452
0.000458155
0.00247944
0.00122743
0.00133926
0.000961599
0.000667816
0.000576324
0.000634133
0.000915647
0.000511687
0.000460321
0.00282213
0.000692082
0.000169696
0.000833296
0.00072448
0.000662004
0.000692565
0.00090315
0.000842647
0.000694747
0.000691454
0.0025626
0.000604373
0.00125433
0.000776792
0.00107063
0.00112491
0.000749952
0.000610815
0.00047046
0.000582956
0.000588474
0.000696869
0.00336132
0.000783401
0.00127918
0.000496664
0.000836644
0.000615917
0.000676167
0.000371676
0.000458741
0.000130213
0.000873014
0.000285532
0.000759113
0.00215599
0.000711529
0.000339227
0.000598509
0.00139616
0.00131059
0.000941036
0.00125747
0.00190692
0.000340605
0.000242025
0.000287286
0.000330733
0.000309739
0.00161342
0.000501113
0.000803457
0.000656413
0.000718072
0.000724194
0.000262046
0.000898252
0.000798276
0.000430274
0.000284086
0.000201063
0.000159617
0.000267741
0.000219324
0.000855177
0.000702807
0.000845266
0.000427495
0.000489558
0.000215796
0.000291609
0.000793756
0.000324539
0.000203541
0.00026437
0.00062609
0.000415282
0.000356939
0.000281286
0.000239969
0.000481435
0.000298313
0.000236403
0.000308694
0.000333666
0.000304777
0.000167776
0.000113526
0.000155776
0.000171566
0.000191573
0.000278304
0.0002714
0.000469295
0.000141775
6.62172e-05
0.000141802
0.00211101
0.00222951
0.000384704
0.00225008
0.0022777
0.00031399
0.000162445
0.000320453
0.00239295
0.0022114
0.000439866
0.000409123
0.000301325
0.000471174
0.000497147
0.00238442
0.000588167
0.000550845
0.000527152
0.000570858
0.000549077
0.00255456
0.000946328
0.000127136
0.000475629
0.000473182
0.000299771
0.00060907
0.0023724
0.000281731
0.000529208
0.000486538
0.000434767
0.000202868
0.000456566
0.00067805
0.00220922
0.000424789
0.00047975
0.000436051
0.000336825
0.000494768
0.000549243
0.000355982
0.0025604
0.000855018
0.000578672
0.000892873
0.000493789
0.000526805
0.000538403
0.000484399
0.000581169
0.00280378
0.000823102
0.000688672
0.000786021
0.000552025
0.00067583
0.000521255
0.000601974
0.000520899
0.000497424
0.00273207
0.00199476
0.000491606
0.00068331
0.000765246
0.00099484
0.000628624
0.000709453
0.000887884
0.000787514
0.000559697
0.0027848
0.000603846
0.000760328
0.000511852
0.000918035
0.000460665
0.000762048
0.000637875
0.000902202
0.000938115
0.000765131
0.00062784
0.00252104
0.00101378
0.00102397
0.000941595
0.00111562
0.000991709
0.000606906
0.000349399
0.000372278
0.000449612
0.000533137
0.000518665
0.00119142
0.00259116
0.00111093
0.000509186
0.00108479
0.000897712
0.000667005
0.0010197
0.000591455
0.000448126
0.000619974
0.000357682
0.000702518
0.00106198
0.000670095
0.00242806
0.000973068
0.000345796
0.000691122
0.00207367
0.00116519
0.000786025
0.00158695
0.00049361
0.000766893
0.000274171
0.000277009
0.000374568
0.000363735
0.000586881
0.00174902
0.000616945
0.000801284
0.000430381
0.000631059
0.000764724
0.000265178
0.000702823
0.000568261
0.000312396
0.000180941
0.000248993
0.00023377
0.00028676
0.000281123
0.000246595
0.000828018
0.00069122
0.000601379
0.000348584
0.000581402
0.000177236
0.000301024
0.000676193
0.0003811
0.000279647
0.000225917
0.000167216
0.000378004
0.000338651
0.000287347
0.000259077
0.000187834
0.000495806
0.000267259
0.000196392
0.000297563
0.000292518
0.000298952
0.000174019
0.000119414
0.000204277
0.000161912
0.000206223
0.000286459
0.000273499
0.00045641
0.000194306
7.10358e-05
4.66648e-05
3.09304e-05
0.0020979
0.00206273
0.000426927
0.00222906
0.00218449
0.000373617
0.000399432
0.00053816
0.00232761
0.00221175
0.000448236
0.000382602
0.000567775
0.000552393
0.000603
0.00227159
0.000503407
0.000425954
0.000429395
0.000283735
0.000245516
0.000341692
0.00249323
0.000515566
0.000381344
0.000482057
0.000349661
0.000411954
0.000469905
0.00240899
0.000633938
0.000617217
0.000358865
0.000344771
0.000275984
0.000363508
0.000562957
0.00228128
0.000517907
0.000559897
0.000414653
0.000277478
0.000429179
0.000434821
0.00042024
0.000423002
0.00224278
0.000520369
0.000708902
0.000521592
0.000561237
0.000531102
0.000473404
0.000477069
0.00037253
0.00250603
0.000725519
0.000897529
8.29937e-05
0.000545163
0.000500045
0.000445962
0.000632222
0.00072256
0.000570757
0.0029714
0.00080305
0.000619807
0.000754301
0.000636397
0.000516264
0.000438748
0.000520991
0.000774813
0.00051033
0.000527181
0.00274364
0.00137323
0.000713756
0.000657255
0.000821473
0.00121965
0.000703228
0.000900334
0.000855236
0.000782256
0.000727388
0.000523456
0.00252817
0.0004031
0.000742997
0.000689325
0.000642465
0.000699925
0.000739661
0.000944698
0.00076982
0.000903421
0.00086025
0.000827971
0.000240726
0.00220498
0.000751835
0.000174918
0.00075049
0.000566069
0.00129206
0.000429526
0.000392443
0.000431585
0.000407978
0.000639525
0.000429071
0.000501624
0.000807995
0.00296828
0.0010417
0.000517535
0.000875549
0.00108932
0.00042158
0.000796494
0.000497324
0.000725566
0.000461551
0.000743914
0.000748275
0.000431847
0.000876962
0.000442496
0.00237596
0.000932547
0.00022503
0.00113429
0.00230014
0.000875293
0.000780086
0.000808115
0.0017245
0.000495091
0.000370134
0.00022114
0.000291657
0.000406561
0.000623884
0.00053084
0.00183736
0.00075059
0.000838537
0.00030359
0.000680948
0.000788701
0.000310494
0.00106288
0.000773639
0.000198445
0.000316798
0.000176179
0.00026131
0.000405504
0.000526775
0.000265611
0.000440014
0.000780668
0.000665899
0.000502217
0.000479945
0.000586221
0.000192358
0.000294681
0.000439169
0.000236113
0.000440176
0.000285441
0.000214588
0.00037446
0.000365755
0.000282583
0.000255062
0.000103433
0.000172047
0.000504428
0.000247975
0.000184829
0.000289856
0.000282006
0.000336314
0.00018568
0.000114363
0.000201306
0.000178477
0.00025966
0.000287181
0.000265846
0.000443371
0.000159232
0.000108596
3.78312e-05
0.000124698
0.000118764
0.00211104
0.00208803
0.000308323
0.00219869
0.00205798
0.000320756
0.000472334
0.000415269
0.00224423
0.0021315
0.000333382
0.000467704
0.000372977
0.000218794
0.000407738
0.00218359
0.000473834
0.000357784
0.000484238
0.000506776
0.000279036
0.000238127
0.00229354
0.000795734
0.000345329
0.000444046
0.000427608
0.000587363
0.000439451
0.00053564
0.0025172
0.000791945
0.000418138
0.000347696
0.000316976
0.000410993
0.000476606
0.00033842
0.0025284
0.000619741
0.000614976
0.000383336
0.000416487
0.000293346
0.000580083
0.000336261
0.00023708
0.00228626
0.000603256
0.00019391
0.00037826
0.000452566
0.000359931
0.000253933
0.000355762
0.000501323
0.000589076
0.00231419
0.000772104
0.000693508
0.000407682
0.000561328
0.000438538
0.000321227
0.000624427
0.000679184
0.000374204
0.00257243
0.000936417
0.000259942
0.00080878
0.000529194
0.000604525
0.000566126
0.000565621
0.000722815
0.000682775
0.000376819
0.0027472
0.00124116
0.000371997
0.00122379
0.000744635
0.000786361
0.000799555
0.000791319
0.000895446
0.00068997
0.000223681
0.000356203
0.00253906
0.000520095
0.000998833
0.000906368
0.000564225
0.000655448
0.000890705
0.000594147
0.000593308
0.000818155
0.000562762
0.000306173
0.00040986
0.00283299
0.000765257
0.000563599
0.00112446
0.000890444
0.000511815
0.000609117
0.00071835
0.000848807
0.000736974
0.00053337
0.000274326
0.000295304
0.00025682
0.00258146
0.0014054
0.000789747
0.000449494
0.000965635
0.00106724
0.000370253
0.0002537
0.000493682
0.000346984
0.000539545
0.000943142
0.00163882
0.00146218
0.000721369
0.00342342
0.00136928
0.000498952
0.00058225
0.000860691
0.000407843
0.000593083
0.000489127
0.000236179
0.000327744
0.000745171
0.000419964
0.000548039
0.000448878
0.000278901
0.000613435
0.00220149
0.00114369
0.00048752
0.00145351
0.00182401
0.00100693
0.000583028
0.00115278
0.00105088
0.000378157
0.000380119
0.000286405
0.000375496
0.000665533
0.000349734
0.000468609
0.000549704
0.00210162
0.00083915
0.000830555
0.000417033
0.000834936
0.000781039
0.000513739
0.00153435
0.000686357
0.0013931
0.000349401
0.000134518
0.000230313
0.000567227
0.000238207
0.000322147
0.000712978
0.000285705
0.000714887
0.000646801
0.000562027
0.000491959
0.000471423
0.000221586
0.000272271
0.000337852
0.000316885
0.000429535
0.000332511
0.000229369
0.000375313
0.000404033
0.000308785
0.000231267
0.000194633
0.000182835
8.51778e-05
0.000503735
0.000236776
0.000196946
0.000290407
0.000331354
0.000354848
0.000191876
0.00011321
0.00017239
0.000183486
0.000159092
0.000294087
0.000315693
0.000305259
0.000103938
0.000102309
9.88305e-05
3.39347e-05
0.000116558
0.000142944
0.00220534
0.00212682
0.000296936
0.00225624
0.00208312
0.000372114
0.000425687
0.000403944
0.00221234
0.00207923
0.00028269
0.000697418
0.00024862
0.000485486
0.000514948
0.00221385
0.000340568
0.000477119
0.000284583
0.00056374
0.000451959
0.000567625
0.00221399
0.000606137
0.000331063
0.000359228
0.000762537
0.000430624
0.000519616
0.000409163
0.00224714
0.000574701
0.000417505
0.000536396
0.000618322
0.000279809
0.000358239
0.000520801
0.000398697
0.00248705
0.000374628
0.000340195
0.0004105
0.000251213
0.000233432
0.000448187
0.000362226
0.000343136
0.00248999
0.000786407
0.000216577
0.000157553
0.000409206
0.000590026
0.000318098
0.000410372
0.00042222
0.000376706
0.00226553
0.000714572
0.000363261
0.000273447
0.000428254
0.000426865
0.000242075
0.000446757
0.00052951
0.00058954
0.000366156
0.00220621
0.000735387
0.000946919
0.00103649
0.000306926
0.000495508
0.000521106
0.000205416
0.00062805
0.000539308
0.000460461
0.00247135
0.000743015
0.000680767
0.00136062
0.000518786
0.000821567
0.000450196
0.000416536
0.000537864
0.00060505
0.000610491
0.000577468
0.00263517
0.00125833
0.000647955
0.000205388
0.000619806
0.000751643
0.000765525
0.000762462
0.000560699
0.00082387
0.000520149
0.000411833
0.000399617
0.00252679
0.0012869
0.000622081
0.000378538
0.000764873
0.000871655
0.000679702
0.000345075
0.000684841
0.000648929
0.000422069
0.00037089
0.000504196
0.000664157
0.00268523
0.00102767
0.000465561
0.000368288
0.00100495
0.000701945
0.000761609
0.000720862
0.000675791
0.000532943
0.000454297
0.000513712
0.000580915
0.000458769
0.000573829
0.00281285
0.00141456
0.000901944
0.000721041
0.000664652
0.000799185
0.000522163
0.000339838
0.000240721
0.000415031
0.000669547
0.00149388
0.00111835
0.000779945
0.00106261
0.000741805
0.00303341
0.00110151
0.000975792
0.000456851
0.000569471
0.00061078
0.000251009
0.000897605
0.000857569
0.000479409
0.00048801
0.000554725
0.000474219
0.000328179
0.000381653
0.000339822
0.000586486
0.00237436
0.000878277
0.000585298
0.00116976
0.00133879
0.00148096
0.00069536
0.00112218
0.00196621
0.000842426
0.000364644
0.000337186
0.000547839
0.000261993
0.000847657
0.000160809
0.000414189
0.000514669
0.00227071
0.000910692
0.000581066
0.000407343
0.000694563
0.000728343
0.000673982
0.00170035
0.000429918
0.000495992
0.000290716
0.000277941
0.000423486
0.000222683
0.000404621
0.000381282
0.000362666
0.000185868
0.000242646
0.000597807
0.000643641
0.00059863
0.000442693
0.000656763
0.0002495
0.000301736
0.000221634
0.000210686
0.000379439
0.000244136
0.000223506
0.000355993
0.000378185
0.000301096
0.000263619
0.000274686
0.000107271
0.000105135
0.000237638
0.000501653
0.000235861
0.000204995
0.000297615
0.000355297
0.000332889
0.000187833
0.000126544
0.000175099
0.000184246
0.000242765
0.000290527
0.000385962
0.000270208
0.0001512
0.000145162
7.71993e-05
4.99946e-05
0.000194029
0.000135825
9.6345e-05
0.00203945
0.00220724
0.000424147
0.00238179
0.00208225
0.00028784
0.000505777
0.000379569
0.00228745
0.00208838
0.000338754
0.000496067
0.000385446
0.000290163
0.000345619
0.00209681
0.000224482
0.000575676
0.000262181
0.000515811
0.0005523
0.000379851
0.00219031
0.000481743
0.000294277
0.000395151
0.000285629
0.000206117
0.000302696
0.000469385
0.00221727
0.000596873
0.00045011
0.000337349
0.000299174
0.000492688
0.000303076
0.00059425
0.000369723
0.00221889
0.000407466
0.000618491
0.00051569
0.000314732
0.000562287
0.00038537
0.000329904
0.000268875
0.000360265
0.00252903
0.000741456
0.000266984
0.000323677
0.000310325
0.000240644
0.000219128
0.000242345
0.00050157
0.000444063
0.00235823
0.000667411
0.000466157
0.000296253
0.000292833
0.000505205
0.000520572
0.000389722
0.000404217
0.000544841
0.000325823
0.00224306
0.000484477
0.000688714
0.000433326
0.000222149
0.000496985
0.000508152
0.000348678
0.000314369
0.000682033
0.000295108
0.000552256
0.00236341
0.000788121
0.000549765
0.000363685
0.000587859
0.000538323
0.000348121
0.000442897
0.000566026
0.000585527
0.000336768
0.000575439
0.00264875
0.000670833
0.000649127
0.000150999
0.000537109
0.000615278
0.000440714
0.0006684
0.0004995
0.000616692
0.000465637
0.000578732
0.000380704
0.00277465
0.000833598
0.000690363
0.000407606
0.000577138
0.000645423
0.000588447
0.000630831
0.000657278
0.000594581
0.000590112
0.000551518
0.000466053
0.000492321
0.00267171
0.000958133
0.000243289
0.000497292
0.00100776
0.000339556
0.000502976
0.000472369
0.000477174
0.000467202
0.000438987
0.000559731
0.000638311
0.000635935
0.00050005
0.00252169
0.00062058
0.00058544
0.00061976
0.000572377
0.000696855
0.000730543
0.000562867
0.000558934
0.000495294
0.000705069
0.000491946
0.000555777
0.000394391
0.000561229
0.000647012
0.0023343
0.00070193
0.00131801
0.000788735
0.000321232
0.000952127
0.000356839
0.000522725
0.000281338
0.000541404
0.000447559
0.00118452
0.00112492
0.000831067
0.000535576
0.000810736
0.00108106
0.00285294
0.00102236
0.0010341
0.000856151
0.000545792
0.000909889
0.00178819
0.000792224
0.000326181
0.000461828
0.000922019
0.000477302
0.000576913
0.000453654
0.000435871
0.000466692
0.001003
0.000332974
0.00261563
0.000579458
0.000376945
0.00107643
0.0015425
0.00190074
0.00101136
0.000606053
0.000706694
0.000757265
0.00034976
0.00058748
0.0003357
0.000502448
0.00034477
0.00062364
0.000568648
0.000759471
0.000619608
0.00236555
0.00102275
0.000342626
0.00047947
0.000500502
0.000679122
0.000694708
0.00105887
0.000238222
0.00109896
0.000502138
0.000351726
0.000367281
0.000489878
0.00042998
0.000266803
0.000729519
0.000477502
0.000316168
0.000426616
0.000473105
0.000675088
0.000578822
0.000473618
0.000615171
0.000323009
0.000420811
0.000130028
0.000300545
0.000535013
0.000229217
0.000228846
0.000350285
0.000423057
0.000331797
0.000313773
0.00017877
0.000142269
0.000250166
0.000269432
0.00045296
0.0004949
0.000249973
0.000231101
0.000297535
0.000293504
0.000310209
0.000181418
0.000111226
0.000148393
0.000173839
0.000199155
0.000278132
0.000280249
0.000322604
0.000149252
0.000121369
9.71742e-05
0.00022561
0.000114401
0.000134629
0.000180647
8.66105e-05
0.00197063
0.00204657
0.000392038
0.00219154
0.00212579
0.000683797
0.000266081
0.000479714
0.00229589
0.00210373
0.000268189
0.000638572
0.000489251
0.000371205
0.000485935
0.00212195
0.00035219
0.000347003
0.000465364
0.000220682
0.000521153
0.000282183
0.00216079
0.000337362
0.000455554
0.000347259
0.000162445
0.00034373
0.000458024
0.000451792
0.0021885
0.000378663
0.000427616
0.000420928
0.000275203
0.000473668
0.000221575
0.000290884
0.000414844
0.00218659
0.000519483
0.000452424
0.000229604
0.000337788
0.000777852
0.00015461
0.000322782
0.000297441
0.000369935
0.00231847
0.000656014
0.000381591
0.00035118
0.00042957
0.000600031
0.000360551
0.000364063
0.000482551
0.000481381
0.000305299
0.00252743
0.000724625
0.000421767
0.000315542
0.000421642
0.000155367
0.000514238
0.000412981
0.000412392
0.000431484
0.000371476
0.00241486
0.000572479
0.000502869
0.000594711
0.00032111
0.00036149
0.000492572
0.000365865
0.000419556
0.000281616
0.000264219
0.000610933
0.00216334
0.000462733
0.000560061
0.000548067
0.000508578
0.000759793
0.000477163
0.000736689
0.000521647
0.000537576
0.000266025
0.000258907
0.000145606
0.00243032
0.000982491
0.000412123
0.000613931
0.000771007
0.00062267
0.000352884
0.000902239
0.000488766
0.000813691
0.000444524
0.000314164
0.000476747
0.00265982
0.000846613
0.000495884
0.000376313
0.000593763
0.000499704
0.000443794
0.000351522
0.000521661
0.000685431
0.000475285
0.000628625
0.000449616
0.000664105
0.00283254
0.000936214
0.000462147
0.000600106
0.000529111
0.000624601
0.000819364
0.000506453
0.000615896
0.000609616
0.000492966
0.000642875
0.0004834
0.000315578
0.000591063
0.00262002
0.000678283
0.000566552
0.000728171
0.000573941
0.000257904
0.000841274
0.000713782
0.000478102
0.000277649
0.000602354
0.000735009
0.000843539
0.000409716
0.000545459
0.000593556
0.00260044
0.000781456
0.000784531
0.000341312
0.00052979
0.000958735
0.000441902
0.000459156
0.000387531
0.000369298
0.000616859
0.000958837
0.00127345
0.00110743
0.00067204
0.000621626
0.000614259
0.00273327
0.000891849
0.00114249
0.00066553
0.00108267
0.000857839
0.000563371
0.000708702
0.000529895
0.000491949
0.000799052
0.00106042
0.00114485
0.000637339
0.00105527
0.0005685
0.00080124
0.0003098
0.00310066
0.00125498
0.000884785
0.000706562
0.0012618
0.00113553
0.00120753
0.000840115
0.000775994
0.000350869
0.000828832
0.000635117
0.000618934
0.000562873
0.000523489
0.000802698
0.000337133
0.000609308
0.00100776
0.00243047
0.000757559
0.000672732
0.00076234
0.00172404
0.00197166
0.00139771
0.00154173
0.000775441
0.000896704
0.000403372
0.000521014
0.000391779
0.000720923
0.000450884
0.000717999
0.000472825
0.000628549
0.000521257
0.00102274
0.00194074
0.00104582
0.000250492
0.000465933
0.000861978
0.000657305
0.000666265
0.00070177
0.000594859
0.000403603
0.000124001
0.000424765
0.000365115
0.000635337
0.000353979
0.000295474
0.000368684
0.000300462
0.000423967
0.000810876
0.00100717
0.000528162
0.000665739
0.000621146
0.000551345
0.000541764
0.000394269
0.000246485
9.10844e-05
0.00039258
0.000375889
0.000257096
0.000255929
0.000515958
0.000500017
0.000385181
0.000298062
0.000202184
0.000151996
0.000117574
0.000243899
0.000581648
0.000786023
0.000501165
0.000273671
0.000249336
0.000287198
0.000244398
0.000289344
0.000185186
9.233e-05
0.000115049
0.000157941
0.000188672
0.00034443
0.000319498
0.000337625
0.000236976
0.000136647
0.000218605
0.000155129
9.65257e-05
0.000117798
0.000354186
0.000185592
0.000165167
0.00192757
0.00201995
0.000239624
0.00213262
0.00203724
0.000404167
0.000640051
0.000347033
0.00219407
0.0021182
0.00055298
0.000372891
0.000563103
0.000447891
0.000306506
0.00210564
0.000254817
0.000622168
0.000412977
0.000420685
0.000556987
0.000368529
0.00214329
0.000483911
0.000323076
0.000438741
0.000263518
0.000402855
0.000288802
0.00036107
0.00214844
0.000351141
0.000420983
0.000358953
0.000270562
0.000300393
0.000375791
0.000229484
0.000252279
0.00216995
0.000494523
0.000362483
0.000425867
0.000348387
0.000455645
0.00038698
0.000487251
0.00018287
0.000203336
0.00223473
0.000434463
0.000493724
0.000259883
0.00035999
0.00071397
0.000408542
0.000301621
0.000406236
0.0003273
0.000369091
0.00237186
0.000563053
0.000545042
0.000274244
0.0002644
0.000652178
0.000464764
0.000474673
0.00048682
0.000468871
0.00032969
0.000386302
0.00241877
0.000531241
0.000590743
0.000314685
0.000214354
0.000447457
0.000427235
0.000344696
0.00058871
0.000265976
0.000372977
0.000372557
0.00222951
0.000634001
0.000351693
0.000418045
0.000303101
0.000354898
0.000509921
0.000212657
0.000444243
0.000521064
0.000148528
0.000474933
0.000376028
0.0021471
0.000501292
0.000542955
0.000422553
0.000514504
0.000420161
0.000528316
0.000205835
0.000225539
0.000789237
0.00038883
0.000485291
0.000385108
0.000511639
0.00240363