/*--------------------------------*- C++ -*----------------------------------*\
  =========                 |
  \\      /  F ield         | OpenFOAM: The Open Source CFD Toolbox
   \\    /   O peration     | Website:  https://openfoam.org
    \\  /    A nd           | Version:  7
     \\/     M anipulation  |
\*---------------------------------------------------------------------------*/
FoamFile
{
    version     2.0;
    format      ascii;
    class       volScalarField;
    location    "7.5";
    object      p;
}
// * * * * * * * * * * * * * * * * * * * * * * * * * * * * * * * * * * * * * //

dimensions      [0 2 -2 0 0 0 0];

internalField   nonuniform List<scalar> 
18750
(
-61.9174
-63.8615
-61.8703
-63.3535
-62.123
-63.7221
-64.743
-61.9255
-63.2891
-66.0687
-61.1266
-62.3698
-59.9755
-63.759
-64.9091
-65.4007
-62.0966
-63.262
-66.1585
-65.737
-55.0313
-61.1532
-63.9019
-62.7756
-62.7375
-66.8141
-63.864
-65.0965
-65.5488
-65.4805
-62.4639
-63.3527
-66.2813
-65.8753
-64.0654
-54.4806
-55.2358
-60.8351
-61.3408
-64.7706
-67.4533
-63.4357
-64.5864
-66.9897
-67.1243
-63.9857
-65.2138
-65.6841
-65.5762
-64.5948
-62.9891
-63.602
-66.4449
-66.015
-64.1203
-64.69
-52.7841
-54.5225
-56.4061
-55.43
-60.6987
-60.3647
-61.706
-65.3755
-67.1851
-67.5805
-64.1458
-65.4855
-67.0166
-67.5165
-66.7245
-64.1501
-65.4179
-65.8239
-65.6642
-64.618
-64.7837
-63.592
-63.909
-66.6265
-66.1402
-64.1775
-64.7023
-64.7177
-49.8026
-52.5779
-52.5588
-55.028
-56.3039
-55.5317
-55.6786
-60.6368
-59.8706
-61.4524
-62.1002
-65.7197
-66.8051
-67.2926
-67.483
-64.6094
-65.9877
-66.9798
-67.7631
-66.8134
-64.6768
-64.3195
-65.6501
-65.9306
-65.7459
-64.6292
-64.7867
-64.9388
-64.1887
-64.448
-66.8142
-66.2451
-64.2329
-64.7144
-64.7232
-65.0787
-47.6307
-50.1009
-48.6185
-52.4427
-52.5327
-52.6501
-54.6609
-55.8726
-55.3392
-56.0116
-55.7579
-60.4253
-59.376
-61.3024
-61.7773
-62.563
-65.7858
-66.2424
-66.8499
-67.4104
-65.6267
-64.9573
-66.355
-66.8013
-67.8087
-66.7773
-64.6315
-64.7246
-64.456
-65.8822
-66.0001
-65.8151
-64.6256
-64.7844
-64.9426
-65.4667
-64.7113
-65.0739
-66.9764
-66.3335
-64.2853
-64.7274
-64.7282
-65.0739
-65.4081
-46.5933
-47.5545
-47.1431
-50.442
-48.8967
-49.4838
-52.5659
-52.458
-52.5241
-52.9276
-53.8343
-55.5146
-54.9615
-56.43
-57.0122
-55.7905
-60.2678
-58.6913
-61.071
-61.8855
-61.8635
-63.079
-65.6101
-65.613
-66.6193
-67.3706
-65.5616
-65.2572
-65.1345
-66.4914
-66.6244
-67.6972
-66.5996
-64.6396
-64.7069
-65.1834
-64.5419
-66.105
-66.0939
-65.8643
-64.6041
-64.7774
-64.9447
-65.4797
-66.1281
-65.1173
-65.6775
-67.1276
-66.3995
-64.3337
-64.7441
-64.7334
-65.0676
-65.3903
-65.6418
-46.0928
-46.6693
-46.5219
-47.3337
-47.2097
-47.5904
-49.9381
-49.3308
-49.5689
-49.7234
-52.057
-52.6952
-52.3506
-52.7863
-53.453
-53.2242
-55.3348
-54.805
-56.4944
-56.8866
-57.3205
-55.7407
-59.7764
-58.2194
-60.9931
-61.8091
-61.8242
-62.5459
-63.6784
-65.4346
-65.1255
-66.2405
-67.1168
-65.4808
-65.1527
-64.291
-65.3237
-66.4293
-66.4888
-67.4769
-66.3531
-64.6441
-64.7018
-65.235
-65.614
-64.5831
-66.2055
-66.2013
-65.8989
-64.5676
-64.7688
-64.9437
-65.4827
-66.1174
-66.4749
-65.3911
-66.1938
-67.2889
-66.4345
-64.3787
-64.7596
-64.7376
-65.0583
-65.3721
-65.621
-65.7462
-44.9673
-45.9772
-45.9374
-46.6559
-46.7962
-46.7274
-47.2153
-47.5226
-47.594
-47.9532
-49.6054
-49.5649
-49.5133
-49.7314
-49.9989
-51.8197
-52.2865
-52.5251
-52.7095
-53.31
-53.92
-52.7975
-54.703
-55.0763
-56.1838
-56.5392
-56.9946
-57.5717
-55.8498
-59.5291
-58.0146
-60.9586
-61.4018
-61.8988
-62.3846
-62.808
-64.2361
-65.1201
-64.756
-65.7261
-66.6568
-65.2526
-65.2207
-64.5176
-63.7294
-65.5903
-66.395
-66.2582
-67.1883
-66.0152
-64.5583
-64.6859
-65.2697
-65.6298
-65.8792
-64.5698
-66.2311
-66.3031
-65.9198
-64.5209
-64.7596
-64.9344
-65.4694
-66.0944
-66.4131
-66.7655
-65.5479
-66.571
-67.417
-66.4548
-64.4214
-64.7774
-64.7408
-65.047
-65.3495
-65.5989
-65.7087
-65.9004
-44.3381
-44.9836
-45.0891
-45.1975
-45.8657
-45.9045
-46.0663
-46.5049
-46.8073
-46.8133
-46.868
-47.2865
-47.6105
-47.6231
-47.9568
-48.3714
-49.7652
-49.4618
-49.7271
-49.8952
-50.1664
-50.5978
-51.6973
-52.4673
-52.4863
-52.7118
-53.3569
-53.6666
-54.0778
-52.5872
-54.9711
-54.981
-55.9719
-56.651
-56.834
-57.4599
-57.7991
-56.0595
-59.1737
-58.0092
-60.5249
-61.2845
-61.6999
-62.5147
-62.3438
-62.0289
-64.4989
-64.8105
-64.446
-65.2244
-65.9357
-65.1237
-65.2812
-64.5049
-63.7169
-63.4707
-65.7259
-66.3592
-66.0935
-66.9058
-65.5312
-64.4296
-64.6407
-65.2519
-65.6231
-65.7948
-65.9154
-64.4914
-66.2183
-66.4011
-65.9155
-64.4656
-64.7479
-64.9206
-65.429
-66.0667
-66.3381
-66.6451
-66.6036
-65.6166
-66.8045
-67.5012
-66.4721
-64.4572
-64.7924
-64.7425
-65.0372
-65.3219
-65.5767
-65.6726
-65.8659
-65.926
-44.1831
-44.4421
-44.5907
-44.1968
-45.0925
-45.0334
-45.1059
-45.1281
-45.8426
-45.8516
-45.8814
-46.1128
-46.4028
-46.736
-46.5141
-46.886
-47.0476
-47.2754
-47.5946
-47.8189
-47.8313
-48.4317
-48.5758
-49.5297
-49.6426
-49.9476
-49.9514
-50.3776
-50.4817
-50.9854
-51.8612
-52.7886
-52.347
-52.6125
-53.1827
-53.5531
-53.8763
-54.02
-52.4168
-54.5102
-54.9097
-55.7929
-56.6613
-56.8433
-57.2444
-57.4599
-57.7308
-55.7679
-58.466
-58.1108
-60.0463
-60.9306
-61.6157
-62.5275
-62.5084
-61.9132
-61.1028
-64.2028
-64.4779
-64.0239
-64.8782
-65.2153
-64.8738
-65.1274
-64.4076
-63.6658
-63.4558
-63.6069
-65.6898
-66.2083
-65.9029
-66.5369
-65.0632
-64.2369
-64.5658
-65.2582
-65.6084
-65.7258
-65.8088
-65.8527
-64.3421
-66.179
-66.4337
-65.9016
-64.3968
-64.7338
-64.901
-65.3684
-66.0604
-66.2367
-66.5329
-66.42
-65.7207
-65.6317
-66.9201
-67.5521
-66.4862
-64.4868
-64.809
-64.744
-65.0295
-65.3015
-65.5563
-65.6431
-65.8311
-65.8616
-65.9845
-43.7065
-44.0845
-44.1522
-44.1197
-44.5863
-44.5951
-44.5672
-44.5733
-45.1784
-45.1667
-45.0644
-45.1936
-45.1018
-45.7624
-45.8712
-45.9515
-46.0079
-46.2219
-46.1219
-46.5645
-46.787
-46.8306
-47.1325
-47.24
-47.2483
-47.5503
-48.0173
-47.9637
-48.3612
-48.4898
-48.5825
-49.0511
-49.7648
-50.2293
-50.0754
-50.3128
-50.5911
-51.0356
-51.2492
-51.5843
-52.3254
-52.2486
-52.302
-52.759
-53.6046
-53.75
-54.0974
-54.0462
-52.407
-54.1303
-54.5394
-55.7123
-56.4279
-56.8167
-57.1558
-57.5477
-57.7083
-57.1748
-55.5184
-58.0232
-57.9128
-59.6644
-60.7783
-61.6952
-62.5061
-62.2855
-61.6582
-61.0044
-60.7271
-63.8271
-63.9237
-63.3244
-64.2656
-64.7054
-64.5436
-64.8373
-64.2018
-63.5893
-63.5219
-63.4581
-62.5816
-65.4013
-66.0356
-65.6197
-65.9912
-64.6219
-64.0507
-64.4765
-65.2911
-65.5998
-65.6335
-65.6305
-65.6962
-65.1049
-64.1906
-66.1206
-66.4348
-65.8912
-64.3171
-64.7142
-64.8757
-65.3011
-66.0666
-66.1364
-66.3914
-66.2568
-65.5079
-64.9577
-65.6555
-66.96
-67.5979
-66.5024
-64.5155
-64.8288
-64.7448
-65.0218
-65.2893
-65.5377
-65.6165
-65.792
-65.8168
-65.9588
-65.7242
-43.5633
-43.8223
-43.8309
-43.8253
-44.2372
-44.1001
-44.1619
-44.1718
-44.6452
-44.7058
-44.6062
-44.6922
-44.5432
-45.1109
-45.1542
-45.309
-45.2409
-45.4054
-45.2014
-45.7231
-45.8223
-46.1208
-46.0685
-46.1831
-46.2312
-46.2416
-46.5235
-46.9929
-46.972
-47.1082
-47.285
-47.5011
-47.3462
-47.6216
-47.8499
-48.0424
-48.3606
-48.4595
-48.6051
-48.878
-48.9159
-49.6718
-50.1588
-50.0649
-50.3099
-50.6262
-50.9805
-51.202
-51.3134
-51.0188
-51.9623
-52.1009
-52.2893
-52.7973
-53.2468
-53.597
-53.9325
-54.1115
-53.8978
-52.5128
-54.1219
-54.6598
-55.6428
-56.3658
-56.8418
-57.1583
-57.3592
-57.5865
-57.7053
-56.6339
-55.3865
-57.623
-57.6098
-59.4933
-60.6296
-61.6239
-62.1834
-61.6846
-61.5307
-61.0474
-60.1661
-59.6326
-63.0495
-63.442
-62.8724
-63.4456
-63.9272
-64.3686
-64.6038
-64.0916
-63.5417
-63.5261
-63.1624
-62.4165
-61.5898
-64.8796
-65.9245
-65.3514
-65.415
-64.1893
-63.8705
-64.3914
-65.1928
-65.4267
-65.5643
-65.4841
-65.5187
-64.8526
-63.9446
-64.0597
-66.0282
-66.5
-65.8682
-64.2209
-64.6899
-64.8445
-65.2219
-65.999
-66.0408
-66.242
-66.0913
-65.2843
-64.7796
-63.9901
-65.7091
-66.9706
-67.6188
-66.5201
-64.5431
-64.8484
-64.744
-65.0151
-65.2752
-65.5156
-65.577
-65.7535
-65.7786
-65.9309
-65.7009
-64.526
-43.3448
-43.6194
-43.5352
-43.5923
-43.8309
-43.8443
-43.8204
-43.8747
-43.7372
-44.2723
-44.1996
-44.1741
-44.2805
-44.1949
-44.707
-44.7289
-44.7167
-44.733
-44.8341
-44.6538
-45.1801
-45.1625
-45.3421
-45.3467
-45.404
-45.5166
-45.4346
-45.8277
-45.9372
-46.075
-46.1228
-46.2248
-46.3661
-46.3916
-46.2852
-46.5493
-46.8649
-47.0328
-47.1684
-47.3767
-47.4528
-47.6055
-47.5957
-47.6183
-47.6511
-48.0826
-48.4159
-48.487
-48.6002
-48.8285
-49.0259
-49.1435
-49.5461
-50.2208
-50.1244
-50.3481
-50.5604
-50.9499
-51.0143
-51.2107
-51.3988
-50.8149
-51.7675
-52.2295
-52.4105
-52.8956
-53.2032
-53.3205
-53.5561
-53.9409
-53.894
-53.6348
-52.625
-54.1302
-54.5041
-55.6225
-56.3236
-56.6718
-57.2847
-57.4995
-57.3675
-57.5354
-56.7635
-56.1547
-55.0898
-57.1316
-57.324
-59.4888
-60.6073
-61.5472
-62.0896
-61.569
-61.4467
-61.0286
-59.8135
-59.3896
-58.8713
-62.141
-63.1792
-62.6744
-62.7105
-63.1052
-64.0863
-64.5255
-64.0635
-63.5206
-63.3944
-63.0759
-62.2542
-61.2743
-60.837
-64.1752
-65.6632
-65.0856
-64.9396
-63.7994
-63.6815
-64.3191
-65.0902
-65.4256
-65.4598
-65.354
-65.2987
-64.6145
-63.6719
-62.7364
-63.9093
-65.9561
-66.5266
-65.8341
-64.0965
-64.6617
-64.8055
-65.1425
-65.9249
-65.9195
-66.0991
-65.9159
-65.0558
-64.6062
-63.83
-63.3851
-65.7715
-66.9726
-67.6298
-66.5384
-64.5704
-64.8678
-64.7415
-65.0042
-65.2607
-65.4898
-65.5249
-65.7141
-65.742
-65.9001
-65.6556
-64.5255
-64.1084
-43.1185
-43.325
-43.3359
-43.3071
-43.5939
-43.6334
-43.6266
-43.5703
-43.6122
-43.844
-43.8944
-43.8792
-43.915
-43.7605
-43.8647
-44.2999
-44.244
-44.2098
-44.2338
-44.3118
-44.2252
-44.8041
-44.9676
-44.8656
-44.788
-44.8095
-44.9311
-44.7827
-45.2118
-45.3948
-45.4458
-45.4135
-45.4802
-45.5844
-45.6319
-45.3824
-45.8129
-45.9295
-46.0294
-46.1642
-46.3309
-46.3842
-46.3969
-46.4566
-46.4147
-46.3346
-46.8171
-46.9384
-47.246
-47.3499
-47.4711
-47.6052
-47.7448
-47.7585
-47.6972
-47.8427
-48.1523
-48.5269
-48.4296
-48.7013
-48.7283
-49.0033
-49.0329
-49.1244
-49.1913
-50.2531
-50.1055
-50.3977
-50.5697
-50.927
-51.1284
-51.1267
-51.3261
-51.3046
-51.0186
-51.7758
-52.2065
-52.4818
-52.9284
-53.028
-53.4924
-53.5463
-53.7331
-53.6507
-53.6241
-53.3237
-53.0716
-54.1934
-54.6165
-55.5765
-56.2787
-56.5555
-57.1456
-57.5008
-57.4788
-57.3358
-57.2047
-55.9927
-55.2729
-55.519
-57.1144
-57.578
-59.2941
-60.457
-61.5399
-61.9458
-61.5014
-61.4027
-60.8527
-60.0869
-59.0962
-58.3105
-58.1946
-61.235
-63.1205
-62.3364
-62.2611
-62.1395
-63.777
-64.6127
-64.0371
-63.8411
-63.3228
-62.9345
-62.0779
-60.9283
-60.5413
-60.1447
-63.3841
-65.319
-64.8626
-64.5855
-63.511
-63.5281
-64.2499
-65.0722
-65.5909
-65.3308
-65.1707
-65.0182
-64.3825
-63.4179
-62.569
-61.8558
-63.7755
-65.8996
-66.5026
-65.7622
-63.9872
-64.6347
-64.7639
-65.0975
-65.8453
-65.8133
-65.9545
-65.7753
-64.8386
-64.4474
-63.6636
-63.2611
-63.0489
-65.8462
-66.9697
-67.636
-66.5566
-64.6017
-64.8861
-64.7371
-64.992
-65.247
-65.4652
-65.4708
-65.6726
-65.7018
-65.8683
-65.5613
-64.4868
-64.0729
-63.8611
-42.9672
-43.1165
-43.1245
-43.0878
-43.343
-43.3397
-43.3988
-43.3103
-43.2642
-43.5917
-43.616
-43.6263
-43.6538
-43.5252
-43.6071
-43.7865
-43.909
-43.895
-43.9401
-43.87
-43.9309
-43.9239
-44.3387
-44.2771
-44.2726
-44.2871
-44.3915
-44.4094
-44.3178
-44.9227
-44.9236
-44.8163
-44.8553
-44.8976
-44.9407
-44.9979
-44.7799
-45.1964
-45.3504
-45.3479
-45.4018
-45.5251
-45.5269
-45.6045
-45.673
-45.6293
-45.8319
-45.8732
-45.9556
-46.1218
-46.2876
-46.359
-46.4321
-46.4627
-46.6406
-46.4948
-46.3598
-46.7739
-47.05
-47.2374
-47.3169
-47.4677
-47.5386
-47.629
-47.8057
-47.744
-47.7919
-48.136
-48.2462
-48.4611
-48.3864
-48.722
-48.8552
-48.829
-48.9432
-49.1349
-49.0695
-49.2509
-50.235
-49.9177
-50.3474
-50.4365
-50.8533
-51.0419
-51.0505
-51.169
-51.2744
-51.271
-50.7275
-51.8514
-52.1627
-52.4909
-52.8606
-53.0253
-53.3811
-53.442
-53.613
-53.5647
-53.3323
-53.2067
-53.0552
-53.3318
-54.4099
-54.9868
-55.6337
-56.0694
-56.479
-56.9864
-57.3233
-57.5074
-57.3854
-56.9958
-55.9859
-55.2051
-55.0001
-55.4627
-57.4359
-57.5107
-58.6752
-60.0996
-61.676
-61.8566
-61.0778
-61.0555
-60.6868
-59.7365
-58.7638
-58.0639
-57.8758
-57.4683
-60.7101
-62.8105
-61.8968
-61.6216
-60.932
-63.4527
-64.6885
-63.996
-64.0175
-63.2845
-62.7234
-61.8537
-60.7359
-60.1044
-59.9067
-59.6156
-62.7552
-64.8727
-64.6848
-64.2737
-63.3185
-63.3869
-64.1688
-65.078
-65.546
-65.2203
-64.9618
-64.7302
-64.0536
-63.109
-62.2932
-61.711
-61.1643
-63.684
-65.8332
-66.5583
-65.6483
-63.8643
-64.6113
-64.722
-65.0927
-65.7912
-65.6906
-65.8017
-65.6192
-64.6181
-64.2762
-63.5171
-63.1261
-62.9388
-62.8017
-65.9341
-66.9587
-67.6374
-66.5756
-64.636
-64.9058
-64.7319
-64.9824
-65.2345
-65.4526
-65.4279
-65.6339
-65.6671
-65.8487
-65.5106
-64.4499
-64.0282
-63.7722
-63.912
-42.8568
-42.9704
-42.9519
-42.9788
-43.155
-43.1402
-43.1607
-43.1255
-43.0578
-43.369
-43.3341
-43.379
-43.3844
-43.4445
-43.2731
-43.5838
-43.6381
-43.6263
-43.6161
-43.5719
-43.6422
-43.4564
-43.8559
-43.8085
-43.9902
-43.9258
-43.938
-43.9244
-43.8955
-43.7997
-44.3497
-44.2089
-44.2696
-44.3187
-44.3141
-44.3909
-44.4306
-44.3811
-44.7456
-44.8922
-44.7983
-44.8475
-44.9473
-44.9668
-44.9519
-45.0343
-44.9614
-45.1488
-45.3485
-45.4054
-45.444
-45.5184
-45.5367
-45.6084
-45.6494
-45.8612
-45.6538
-45.771
-45.8202
-46.0244
-46.2181
-46.2695
-46.37
-46.4648
-46.4618
-46.5591
-46.6444
-46.6161
-46.5215
-46.908
-47.0228
-47.2891
-47.2981
-47.4936
-47.6214
-47.5082
-47.727
-48.0464
-47.9244
-48.2182
-48.2405
-48.2261
-48.4504
-48.3707
-48.6451
-48.8387
-48.8473
-48.9215
-49.1265
-49.1843
-49.1653
-49.8504
-50.1802
-50.0578
-50.3244
-50.4412
-50.6505
-50.8937
-50.9737
-51.0918
-51.3198
-51.337
-51.1461
-50.6216
-51.4847
-52.2066
-52.4807
-52.7928
-53.1077
-53.2998
-53.4363
-53.3999
-53.4181
-53.1226
-53.0066
-53.0669
-52.7632
-53.1386
-54.0308
-54.8767
-55.0893
-55.6325
-56.3006
-56.946
-57.2004
-57.4197
-57.45
-56.9115
-55.9723
-55.2373
-54.8869
-54.8592
-55.1559
-57.3805
-57.0977
-58.4617
-59.5796
-61.7933
-61.7829
-61.2014
-61.0794
-60.6313
-59.4147
-58.6833
-57.9489
-57.6221
-57.404
-57.286
-60.4151
-61.9928
-61.6064
-61.1995
-59.9445
-63.3011
-64.6367
-64.1267
-63.8158
-63.1725
-62.5563
-61.6145
-60.506
-59.8441
-59.6718
-59.4514
-59.1246
-62.2491
-64.4726
-64.5061
-64.0796
-63.1648
-63.2671
-64.0103
-64.9727
-65.7298
-65.1267
-64.7414
-64.426
-63.7269
-62.8281
-62.1665
-61.5815
-61.0518
-60.7384
-63.6548
-65.7905
-66.6001
-65.5382
-63.7487
-64.5971
-64.6854
-65.0743
-65.7205
-65.5839
-65.6331
-65.4539
-64.4126
-64.1036
-63.3992
-63.0044
-62.8302
-62.7061
-62.7775
-66.0337
-66.941
-67.6399
-66.5953
-64.6716
-64.9258
-64.7284
-64.9701
-65.2192
-65.4342
-65.3844
-65.5989
-65.6411
-65.8214
-65.4846
-64.4115
-63.9558
-63.7139
-63.8797
-63.7956
-42.6151
-42.8673
-42.8999
-42.8469
-42.9865
-42.959
-42.9718
-42.9379
-42.9185
-43.1693
-43.1613
-43.1029
-43.1959
-43.1266
-43.089
-43.3732
-43.352
-43.3418
-43.3759
-43.4176
-43.3497
-43.2417
-43.6237
-43.5849
-43.6551
-43.617
-43.5806
-43.6357
-43.5781
-43.5033
-43.8849
-43.8542
-43.9678
-43.9186
-43.9654
-43.998
-44.0426
-43.9746
-43.936
-44.2804
-44.3495
-44.3455
-44.3201
-44.3426
-44.4343
-44.4508
-44.5367
-44.4886
-44.735
-44.8502
-44.9092
-45.002
-44.9343
-44.9405
-45.0124
-45.0736
-45.1612
-44.9869
-45.1989
-45.196
-45.5096
-45.5538
-45.6127
-45.5519
-45.6521
-45.6851
-45.8191
-45.8936
-45.8337
-45.8267
-45.8731
-45.9477
-46.1468
-46.3575
-46.3669
-46.4302
-46.5567
-46.6321
-46.634
-46.7948
-46.8061
-46.6582
-47.0223
-46.961
-47.3368
-47.2866
-47.4101
-47.7055
-47.5784
-47.6102
-47.9867
-47.9752
-48.1731
-48.1982
-48.3655
-48.5171
-48.5191
-48.5171
-48.5836
-48.8735
-48.9741
-48.913
-49.007
-49.1544
-49.2123
-49.3971
-49.4676
-50.2944
-50.2237
-50.2741
-50.4968
-50.678
-50.8987
-51.0612
-51.1664
-51.2778
-51.4053
-51.1692
-51.0382
-50.8183
-51.3891
-52.1727
-52.4406
-52.6411
-53.1728
-53.3285
-53.3601
-53.6442
-53.4791
-53.1144
-52.8745
-52.8423
-52.5988
-52.5834
-53.2131
-53.8682
-54.739
-55.2334
-55.6537
-56.1758
-56.7941
-57.1243
-57.3346
-57.3515
-56.8335
-55.8365
-55.0417
-54.9098
-54.7262
-54.4615
-55.6014
-57.5656
-57.0645
-58.4026
-59.3982
-61.5715
-61.8257
-61.378
-61.3087
-60.5699
-59.4836
-58.4696
-57.8996
-57.3952
-57.3515
-57.1266
-57.085
-59.9973
-61.3331
-61.5256
-60.7079
-59.6113
-63.2265
-64.5498
-64.2811
-64.296
-63.0384
-62.3182
-61.3826
-60.2147
-59.7113
-59.5689
-59.3592
-58.9963
-58.6911
-61.8397
-64.1699
-64.4031
-64.0836
-62.9616
-63.1806
-63.7926
-64.7561
-65.5541
-65.1313
-64.5027
-64.1787
-63.5426
-62.68
-62.0207
-61.4036
-61.0229
-60.6477
-60.7067
-63.7015
-65.804
-66.6066
-65.4619
-63.6794
-64.5875
-64.6575
-65.0541
-65.6193
-65.4537
-65.4752
-65.2854
-64.2192
-63.9357
-63.3021
-62.8838
-62.7027
-62.6259
-62.6944
-62.6714
-66.1403
-66.9188
-67.6492
-66.618
-64.7072
-64.9472
-64.727
-64.9556
-65.2029
-65.4086
-65.3245
-65.569
-65.6163
-65.7598
-65.4575
-64.344
-63.9001
-63.6685
-63.7914
-63.7536
-64.2554
-42.5276
-42.6174
-42.7106
-42.6274
-42.865
-42.9098
-42.8262
-42.8777
-42.7739
-42.9944
-42.9833
-42.9993
-43.0084
-43.0003
-42.9162
-43.1784
-43.1768
-43.1572
-43.2067
-43.1532
-43.1296
-43.1021
-43.41
-43.3555
-43.3933
-43.4064
-43.3814
-43.4768
-43.4124
-43.2947
-43.6377
-43.6435
-43.6143
-43.6248
-43.7015
-43.6576
-43.7416
-43.6427
-43.623
-43.901
-43.9592
-43.9568
-43.969
-44.05
-44.0309
-44.1086
-44.1285
-44.0604
-43.9811
-44.3569
-44.2778
-44.4167
-44.3814
-44.3963
-44.4328
-44.5126
-44.5958
-44.622
-44.5505
-44.8257
-44.7302
-44.8682
-44.9679
-44.9713
-45.0208
-45.02
-45.0874
-45.1369
-45.2749
-45.1817
-45.2568
-45.2343
-45.3172
-45.4872
-45.615
-45.6213
-45.6224
-45.6465
-45.8095
-45.8616
-46.0725
-45.8706
-45.8895
-45.8514
-45.9854
-45.8986
-46.3219
-46.3804
-46.4952
-46.4714
-46.6329
-46.633
-46.7594
-46.8123
-46.8672
-46.8559
-47.1324
-47.1229
-47.2672
-47.2904
-47.492
-47.3781
-47.6172
-47.6336
-47.9408
-47.935
-47.9927
-48.222
-48.267
-48.2914
-48.5755
-48.5239
-48.5062
-48.7479
-48.8356
-48.972
-48.971
-49.0465
-48.9945
-49.1527
-49.1783
-49.4746
-49.5925
-50.3664
-50.435
-50.4851
-50.4106
-50.7427
-50.8667
-51.0371
-51.1684
-51.2274
-51.1752
-51.0651
-51.0303
-51.0619
-50.9922
-51.7118
-52.1609
-52.5558
-52.8702
-52.881
-53.2697
-53.3317
-53.6541
-53.3586
-53.0538
-52.86
-52.8462
-52.8082
-52.4773
-52.4971
-53.6173
-53.9915
-54.6693
-55.3657
-55.8525
-55.8812
-56.7192
-56.7982
-57.2659
-57.0497
-56.594
-55.4653
-54.9953
-54.7735
-54.7101
-54.455
-54.4195
-56.0989
-57.9202
-57.4375
-58.2463
-59.4885
-61.3517
-61.5731
-61.0926
-60.8048
-60.3565
-59.2862
-58.3218
-57.706
-57.2801
-57.1591
-57.0862
-56.8407
-56.4548
-59.5748
-60.7821
-61.4157
-60.2218
-59.6638
-63.164
-64.5847
-64.3027
-64.3936
-62.9239
-62.081
-61.0713
-60.0029
-59.6005
-59.2991
-59.1889
-58.7895
-58.5679
-58.5364
-61.64
-63.8709
-64.3205
-64.0099
-63.0078
-63.1396
-63.6464
-64.544
-65.4832
-65.0638
-64.3184
-63.9493
-63.3684
-62.4928
-61.748
-61.2939
-60.9789
-60.5329
-60.5983
-60.5626
-63.8406
-65.8474
-66.6023
-65.4073
-63.6254
-64.6042
-64.6234
-65.0303
-65.5213
-65.3183
-65.332
-65.1225
-64.0487
-63.7848
-63.2146
-62.772
-62.6168
-62.546
-62.6161
-62.6125
-62.7922
-66.2571
-66.8875
-67.6604
-66.6431
-64.7405
-64.9729
-64.7269
-64.9481
-65.1869
-65.3872
-65.2858
-65.5404
-65.6062
-65.706
-65.4457
-64.2808
-63.8658
-63.6001
-63.7182
-63.72
-64.2119
-64.5953
-42.4307
-42.5279
-42.5001
-42.5119
-42.6612
-42.6536
-42.7013
-42.6589
-42.657
-42.8548
-42.8758
-42.8507
-42.9103
-42.9054
-42.7822
-42.9857
-42.9718
-43.0806
-43.0226
-43.0194
-42.9344
-42.9611
-43.2057
-43.1872
-43.1999
-43.2167
-43.1855
-43.227
-43.1873
-43.1061
-43.4222
-43.4393
-43.3865
-43.4271
-43.4339
-43.4603
-43.5158
-43.418
-43.3432
-43.6344
-43.6794
-43.6242
-43.6918
-43.7157
-43.6698
-43.7571
-43.7887
-43.7508
-43.6827
-43.8971
-43.8699
-43.9854
-44.0097
-44.0299
-44.0174
-44.1105
-44.1942
-44.2114
-44.1157
-44.0493
-44.3436
-44.3367
-44.399
-44.392
-44.4101
-44.4963
-44.4615
-44.6221
-44.6382
-44.7367
-44.6568
-44.8065
-44.8516
-44.8329
-44.8447
-44.967
-44.9766
-45.0092
-45.1102
-45.186
-45.2612
-45.3762
-45.2545
-45.2239
-45.2466
-45.4129
-45.3571
-45.5165
-45.6562
-45.7314
-45.5044
-45.7397
-45.8466
-46.08
-46.1338
-46.0706
-45.818
-45.8151
-46.0074
-46.0483
-46.2248
-46.2338
-46.5002
-46.4599
-46.6712
-46.5337
-46.7614
-46.8735
-46.8993
-46.9372
-47.0268
-47.2979
-47.1554
-47.2388
-47.3498
-47.5186
-47.4548
-47.5676
-47.6353
-47.912
-47.8723
-48.02
-48.0568
-48.2505
-48.4087
-48.4924
-48.5326
-48.5941
-48.4967
-48.6486
-48.809
-48.941
-48.926
-49.0023
-48.9766
-49.0929
-49.0621
-49.1465
-49.4149
-49.7687
-50.1524
-50.3834
-50.5845
-50.4271
-50.5263
-50.8324
-51.073
-51.0872
-51.1902
-51.0221
-50.8631
-50.9313
-51.0051
-50.9947
-51.0076
-51.8298
-52.0555
-52.5457
-52.8855
-52.9716
-53.0519
-53.3841
-53.4646
-53.2749
-52.9544
-52.8128
-52.8815
-52.7586
-52.4409
-52.5813
-52.4063
-53.6611
-53.8886
-54.8456
-55.287
-55.666
-55.5649
-56.4196
-56.6465
-57.0208
-56.9304
-56.4822
-55.265
-54.6745
-54.7812
-54.5911
-54.6143
-54.3526
-54.2158
-56.2783
-58.1036
-57.7759
-58.2074
-59.3779
-61.0427
-61.1232
-60.9333
-60.6598
-60.1464
-59.1793
-58.1814
-57.5613
-57.1378
-56.8031
-56.959
-56.844
-56.3186
-56.1699
-59.1803
-60.3215
-61.2952
-60.1862
-59.559
-63.0144
-64.3484
-64.3878
-63.8695
-62.9309
-61.8667
-60.891
-59.7814
-59.3764
-59.1504
-59.101
-58.7617
-58.4284
-58.3902
-58.509
-61.7127
-63.5945
-64.0966
-63.9231
-62.9806
-63.1333
-63.5384
-64.3754
-65.2633
-64.7499
-64.1433
-63.7088
-63.1738
-62.1971
-61.6186
-61.231
-60.8278
-60.5207
-60.4847
-60.469
-60.3316
-64.0932
-65.908
-66.5906
-65.3254
-63.6086
-64.6299
-64.5896
-65.0045
-65.4131
-65.1961
-65.1818
-64.9614
-63.8965
-63.6483
-63.1155
-62.6882
-62.5602
-62.4804
-62.5396
-62.5506
-62.6604
-63.3174
-66.3875
-66.8487
-67.6728
-66.6714
-64.7745
-64.9998
-64.7292
-64.9471
-65.1736
-65.3645
-65.2717
-65.5036
-65.5834
-65.6621
-65.4257
-64.2463
-63.8284
-63.5708
-63.6634
-63.6791
-64.198
-64.5114
-64.8191
-42.3347
-42.4091
-42.4429
-42.4178
-42.5551
-42.4983
-42.5519
-42.5176
-42.5227
-42.6752
-42.6533
-42.6734
-42.7221
-42.6906
-42.6431
-42.8565
-42.8833
-42.8162
-42.8883
-42.9296
-42.8623
-42.8075
-43.0201
-43.0017
-43.0563
-43.0304
-43.0597
-43.0438
-43.0094
-42.9957
-43.2114
-43.2025
-43.2028
-43.2032
-43.2585
-43.2559
-43.3019
-43.2107
-43.1606
-43.4349
-43.4099
-43.3957
-43.4143
-43.4557
-43.4357
-43.4857
-43.5949
-43.5202
-43.4206
-43.6198
-43.6496
-43.6718
-43.7255
-43.6962
-43.6435
-43.7706
-43.8437
-43.8716
-43.8118
-43.7429
-43.9521
-43.9518
-43.9588
-44.0997
-44.0603
-44.0366
-44.0835
-44.1856
-44.3023
-44.3246
-44.235
-44.1075
-44.3697
-44.3936
-44.3947
-44.3619
-44.4432
-44.4485
-44.4877
-44.5748
-44.7079
-44.7619
-44.9757
-44.79
-44.8054
-44.8686
-44.8665
-44.8931
-44.9063
-44.906
-44.9945
-45.096
-45.1827
-45.2687
-45.4005
-45.4699
-45.4119
-45.2315
-45.2498
-45.4328
-45.3992
-45.4687
-45.6068
-45.8041
-45.866
-45.7969
-45.7003
-46.046
-46.1701
-46.2243
-46.1092
-45.8795
-45.7916
-45.9914
-46.0875
-46.1884
-46.3085
-46.4981
-46.5239
-46.5451
-46.5042
-46.7202
-46.8519
-46.896
-46.9575
-47.0853
-47.116
-47.3079
-47.1583
-47.3198
-47.2556
-47.502
-47.5774
-47.665
-47.6306
-47.8306
-47.9721
-47.9181
-48.0487
-48.1171
-48.3655
-48.5585
-48.4919
-48.5601
-48.6126
-48.5588
-48.6098
-48.738
-48.9089
-48.9199
-48.8932
-48.9595
-48.9681
-49.1303
-49.1934
-49.3136
-49.405
-49.6975
-50.1391
-50.304
-50.5319
-50.3197
-50.4946
-50.8078
-51.031
-50.9771
-51.1051
-50.9229
-50.7233
-50.7375
-50.8736
-51.0234
-51.0057
-51.0894
-51.9367
-52.2069
-52.5193
-52.8203
-52.7067
-53.0107
-53.1673
-53.3314
-53.0174
-52.7854
-52.8072
-52.7585
-52.6769
-52.4051
-52.5471
-52.5513
-52.4327
-53.568
-53.8785
-55.059
-55.0439
-55.7408
-55.6238
-55.9046
-56.9708
-56.6875
-56.6833
-56.3113
-55.1322
-54.5125
-54.7821
-54.4449
-54.5378
-54.3789
-54.2769
-54.0766
-56.5492
-58.1293
-57.9915
-58.2611
-59.0524
-60.5342
-60.9908
-60.7483
-60.1054
-59.8063
-58.8892
-57.9744
-57.4547
-56.9844
-57.0817
-56.8505
-56.8294
-56.2676
-56.2276
-56.2156
-58.4972
-59.9683
-61.0274
-60.2942
-59.6722
-62.9216
-63.7073
-64.0414
-63.7026
-62.5865
-61.6157
-60.6833
-59.4708
-59.2235
-58.9932
-58.8419
-58.5606
-58.3331
-58.3922
-58.479
-58.8447
-62.0397
-63.4965
-63.915
-63.9096
-62.6364
-63.197
-63.4579
-64.2202
-64.9673
-64.5228
-63.9239
-63.4439
-63.0307
-62.0095
-61.5177
-61.1772
-60.7877
-60.4908
-60.3905
-60.3708
-60.2947
-60.8444
-64.3881
-65.9717
-66.5989
-65.2401
-63.6145
-64.6545
-64.5801
-64.9626
-65.3251
-65.0891
-65.0109
-64.7993
-63.7791
-63.5355
-63.0319
-62.6017
-62.5027
-62.4163
-62.4794
-62.4861
-62.5363
-63.1009
-63.373
-66.5162
-66.8555
-67.6877
-66.703
-64.8013
-65.0285
-64.7345
-64.9458
-65.168
-65.3328
-65.2522
-65.4552
-65.5284
-65.624
-65.4228
-64.2175
-63.7895
-63.5653
-63.6067
-63.6277
-64.1946
-64.437
-64.7426
-64.6931
-42.2224
-42.3654
-42.3264
-42.3599
-42.4436
-42.4113
-42.4383
-42.4221
-42.4144
-42.5622
-42.5549
-42.5337
-42.5373
-42.5265
-42.5344
-42.6956
-42.661
-42.7
-42.7292
-42.7381
-42.9375
-42.6974
-42.8836
-42.8662
-42.8942
-42.8912
-42.9613
-42.9614
-42.7455
-42.8297
-43.0345
-43.0102
-43.0455
-43.0701
-43.0452
-43.0277
-43.1661
-43.0477
-42.9624
-43.218
-43.2138
-43.208
-43.19
-43.2361
-43.2575
-43.2836
-43.3389
-43.2815
-43.1913
-43.4057
-43.4277
-43.4154
-43.4159
-43.4339
-43.477
-43.4998
-43.5936
-43.6659
-43.5392
-43.4821
-43.6277
-43.6534
-43.6998
-43.6814
-43.7028
-43.7107
-43.7435
-43.7884
-43.92
-44.0398
-43.8645
-43.8201
-43.984
-43.9782
-43.9501
-43.894
-44.0387
-44.0307
-44.0777
-44.1153
-44.287
-44.3928
-44.4972
-44.2804
-44.2163
-44.3633
-44.4238
-44.3934
-44.4245
-44.4204
-44.4284
-44.4693
-44.5184
-44.6847
-44.7559
-44.9319
-44.9668
-44.9611
-44.7948
-44.8419
-44.8776
-44.9152
-44.9113
-44.9586
-45.0762
-45.031
-45.1654
-45.2105
-45.4287
-45.5066
-45.5512
-45.4498
-45.306
-45.2511
-45.4064
-45.4096
-45.4684
-45.5214
-45.773
-45.8393
-45.8036
-45.6932
-45.9981
-46.15
-46.2138
-46.2864
-46.2107
-45.9013
-45.7302
-45.9609
-46.0519
-46.228
-46.2563
-46.4237
-46.5286
-46.5341
-46.5706
-46.725
-46.8317
-46.8161
-47.0145
-47.0576
-47.0848
-47.179
-47.1908
-47.1333
-47.3026
-47.3008
-47.5312
-47.5805
-47.7151
-47.6723
-47.7523
-47.8853
-47.9044
-48.0566
-48.0779
-48.2167
-48.4283
-48.6122
-48.6625
-48.6601
-48.5668
-48.3663
-48.6184
-48.5928
-48.8417
-48.8871
-48.8585
-48.9763
-48.9901
-49.0335
-49.2857
-49.3688
-49.3834
-49.382
-49.6143
-50.276
-50.3551
-50.3136
-50.3007
-50.4866
-50.5751
-50.9535
-51.0251
-50.9825
-50.8311
-50.9447
-50.9492
-50.9069
-50.9995
-51.0519
-50.9859
-51.0068
-51.6537
-52.2159
-52.3148
-52.7727
-52.807
-53.0725
-53.2339
-53.0468
-52.8959
-52.3968
-52.6819
-52.6917
-52.7476
-52.7301
-52.5628
-52.7149
-52.4203
-52.4814
-53.2064
-54.1327
-55.055
-54.8525
-55.5389
-55.6416
-56.4077
-56.7512
-56.3902
-56.2313
-55.9728
-55.0226
-54.5429
-54.7143
-54.5715
-54.2069
-54.4108
-54.1142
-54.3595
-54.09
-56.8661
-58.1676
-57.9929
-58.3916
-58.851
-60.0564
-60.9268
-60.0933
-59.8806
-59.4323
-58.4391
-57.7888
-57.2698
-56.9965
-57.0288
-56.993
-56.6294
-56.3298
-56.0625
-56.2697
-56.8319
-58.0447
-59.8665
-60.519
-60.5665
-59.9203
-62.8553
-63.2787
-63.6791
-63.6358
-62.1561
-61.3032
-60.4467
-59.2967
-59.2416
-58.9327
-58.7658
-58.4789
-58.3225
-58.366
-58.5111
-58.9764
-59.3608
-62.5229
-63.5718
-63.929
-63.9484
-62.75
-63.2706
-63.4126
-64.1054
-64.766
-64.3766
-63.6888
-63.23
-62.6798
-61.9685
-61.4007
-61.1564
-60.8153
-60.4203
-60.3396
-60.3317
-60.3121
-60.9863
-61.5869
-64.6931
-65.9969
-66.6283
-65.2051
-63.6542
-64.7198
-64.5726
-64.9113
-65.2115
-64.9677
-64.8401
-64.6594
-63.683
-63.4407
-62.9641
-62.5262
-62.4532
-62.3908
-62.4211
-62.4354
-62.4144
-62.9021
-63.2375
-64.2011
-66.9124
-67.701
-66.7382
-64.8481
-65.059
-64.7386
-64.9447
-65.1582
-65.3045
-65.2264
-65.4061
-65.493
-65.6074
-65.4292
-64.1783
-63.7777
-63.5437
-63.5628
-63.5854
-64.1455
-64.3715
-64.6855
-64.6078
-64.4361
-42.2722
-42.1951
-42.2239
-42.4004
-42.3404
-42.3936
-42.3735
-42.3385
-42.4649
-42.4625
-42.44
-42.4803
-42.4042
-42.4128
-42.55
-42.5857
-42.5576
-42.6216
-42.5362
-42.5197
-42.5395
-42.7144
-42.6736
-42.7535
-42.7055
-42.7592
-42.7345
-42.7594
-42.6054
-42.9039
-42.8765
-42.8616
-42.8983
-42.9097
-42.8984
-42.9719
-42.8952
-42.9762
-43.0235
-43.05
-43.0491
-43.122
-43.1324
-43.0669
-43.1466
-43.1552
-43.1512
-43.0292
-43.198
-43.2432
-43.2062
-43.2257
-43.2419
-43.3239
-43.3457
-43.3585
-43.4374
-43.3016
-43.198
-43.3809
-43.4177
-43.4043
-43.3707
-43.4531
-43.4911
-43.4943
-43.5633
-43.694
-43.7002
-43.6148
-43.5349
-43.6594
-43.6757
-43.6835
-43.6685
-43.7437
-43.7384
-43.733
-43.8377
-43.9125
-43.9661
-44.0684
-44.0345
-43.9111
-43.974
-43.985
-44.1069
-44.0334
-44.0337
-44.0743
-44.1158
-44.084
-44.1767
-44.3501
-44.5389
-44.6414
-44.5045
-44.3083
-44.3324
-44.3962
-44.4532
-44.4467
-44.4824
-44.431
-44.4298
-44.481
-44.6352
-44.7446
-44.9347
-44.973
-45.0779
-44.9176
-44.758
-44.7757
-44.8445
-44.8911
-44.9538
-44.9469
-44.9708
-44.9582
-45.1512
-45.1809
-45.4249
-45.5182
-45.5921
-45.6873
-45.5598
-45.3076
-45.1833
-45.3572
-45.3535
-45.4829
-45.4817
-45.3798
-45.6582
-45.7303
-45.7296
-45.9407
-46.1195
-46.2553
-46.3122
-46.4557
-46.3574
-45.8062
-45.8053
-45.9736
-45.9706
-46.1241
-46.1741
-46.2916
-46.6137
-46.5297
-46.546
-46.7075
-46.8676
-46.9404
-46.9493
-47.0768
-47.2577
-47.0093
-47.2668
-47.2012
-47.162
-47.1646
-47.2234
-47.5661
-47.5666
-47.7149
-47.6518
-47.7448
-47.8458
-47.92
-48.0631
-48.2255
-48.1747
-48.2814
-48.38
-48.5404
-48.7016
-48.5577
-48.5195
-48.5999
-48.5418
-48.7439
-48.806
-49.0078
-48.6655
-48.9701
-49.0092
-49.2175
-49.3283
-49.3439
-49.5372
-49.6516
-49.2922
-49.6486
-50.2459
-50.2245
-49.9478
-50.4268
-50.4182
-50.4267
-50.7216
-50.8113
-50.8055
-50.7387
-50.8294
-50.8992
-50.9694
-51.0482
-51.0662
-51.0776
-51.2363
-50.8009
-51.7438
-52.1971
-52.3489
-52.3384
-52.6135
-53.0016
-53.2476
-53.0351
-52.8748
-52.7816
-52.5753
-52.5394
-52.6146
-52.7527
-52.573
-52.6753
-52.5874
-52.177
-52.6555
-53.006
-54.8563
-55.1527
-54.9801
-55.3276