/*--------------------------------*- C++ -*----------------------------------*\
  =========                 |
  \\      /  F ield         | OpenFOAM: The Open Source CFD Toolbox
   \\    /   O peration     | Website:  https://openfoam.org
    \\  /    A nd           | Version:  7
     \\/     M anipulation  |
\*---------------------------------------------------------------------------*/
FoamFile
{
    version     2.0;
    format      ascii;
    class       surfaceScalarField;
    location    "7.5";
    object      phi;
}
// * * * * * * * * * * * * * * * * * * * * * * * * * * * * * * * * * * * * * //

dimensions      [0 3 -1 0 0 0 0];

internalField   nonuniform List<scalar> 
54095
(
0.000306927
0.000370772
-5.78502e-05
0.000205506
-0.000950481
-2.07942e-05
0.000312949
0.000125505
-6.76818e-05
0.000275622
0.00108711
-7.57396e-05
-0.000165378
0.00242282
-5.74423e-05
0.000190244
-0.000788126
-3.96497e-05
0.000463821
0.000319984
-5.78329e-05
0.000298329
-9.4801e-05
-7.80224e-05
0.000303077
0.000802742
-8.63874e-05
0.000130964
0.00127221
-9.3359e-05
-0.000614527
0.00584761
2.66259e-05
-0.000183981
0.00283386
-3.68225e-05
0.000484998
0.00176707
0.000330066
0.000155355
-0.000593058
-5.20939e-05
0.000496987
0.000152286
-6.58608e-05
0.000177985
0.00148994
-2.28383e-05
0.000264928
-0.000272362
-8.73674e-05
0.000319033
0.000504512
-9.8825e-05
0.000137434
0.00115176
-0.000103376
4.15519e-05
0.00108457
-5.69726e-05
-0.00131892
0.0064214
0.000590003
-0.000632972
0.00621104
8.5562e-05
0.000433803
0.00486322
8.10229e-05
-0.000166498
0.00316404
-8.31944e-06
0.000305545
0.00163936
0.000282327
-1.34736e-05
0.000494788
0.000361318
0.000121816
-0.000394917
-5.50288e-05
0.000484943
6.1957e-06
-7.19147e-05
0.000145324
0.00143109
-1.48992e-05
-3.09247e-05
0.000762012
7.69977e-06
0.00023088
-0.000409259
-9.39827e-05
0.000317195
0.000211415
-0.000111466
0.000134553
0.00102904
-0.000110662
2.43375e-05
0.00101971
-6.28495e-05
9.04763e-06
0.000587741
-1.27735e-05
-0.00151016
0.00383241
0.000500582
-0.00139163
0.00658815
0.000591904
-0.000367981
0.00671498
0.00117544
-0.000534874
0.0064766
0.000102819
0.000131612
0.00491498
0.000207732
-0.0002201
0.00511832
0.000166906
-0.000119608
0.00336372
4.1742e-05
0.000228412
0.00162744
0.000260135
-0.000133364
0.000722344
0.000333459
-2.3597e-05
0.00142535
0.000139806
9.97692e-05
-0.000219711
-4.4095e-05
0.000420412
-8.62831e-05
-6.57676e-05
0.00011425
0.00139381
-1.43322e-05
-5.95193e-05
0.000827278
3.69113e-06
-3.87966e-05
-0.000324501
3.06312e-05
0.000193581
-0.000506768
-9.60726e-05
0.000292484
-5.28369e-05
-0.000122214
0.000123385
0.000909024
-0.000114831
1.22775e-05
0.000962423
-6.5653e-05
3.17698e-06
0.000537206
-1.5491e-05
3.94877e-05
0.000154764
-2.37555e-05
-0.00127176
0.00504645
2.24795e-05
-0.00164534
0.00359459
0.000491529
-0.000897
0.00656538
0.000941467
-0.00133472
0.00672986
0.000658139
-0.000378144
0.00659521
0.00122143
-0.000411375
0.00651039
0.00142449
-0.000390167
0.00660822
0.000138944
-1.5571e-05
0.00499975
0.000262033
-0.000606992
0.00548595
0.000313734
5.94992e-05
0.00506864
0.000119289
-9.69491e-05
0.00349046
6.99801e-05
0.000122851
0.0017127
0.000254041
-0.000223347
0.000987393
0.000332684
-7.82078e-05
0.00162544
0.000152063
-0.000129552
0.0010526
1.33553e-05
6.4309e-05
-6.18818e-05
-2.85572e-05
0.000354613
-0.000137658
-5.48495e-05
7.44401e-05
0.00138317
-6.18755e-06
-8.37503e-05
0.000913407
-4.43264e-06
-6.78348e-05
-0.000277804
2.80057e-05
7.50572e-05
0.00052999
4.00318e-05
0.000155481
-0.000567767
-9.44816e-05
0.00025424
-0.000274274
-0.000128875
0.000109228
0.000793576
-0.000115994
-1.28636e-06
0.000914692
-6.58132e-05
-3.28483e-06
0.00049385
-1.90127e-05
4.28837e-05
0.00012193
-2.554e-05
2.10603e-05
-0.000239503
-2.71666e-05
-0.00138186
0.00600781
-0.000124308
-0.0012439
0.00470418
-5.91727e-05
-0.000890717
0.0076212
0.000199718
-0.0017343
0.00356888
0.000425294
-0.000590636
0.00644246
0.00082694
-0.000406514
0.00704276
0.000986614
-0.00117723
0.0069295
0.000587423
-0.000335818
0.00628136
0.00129223
-0.000770361
0.0066022
0.00129299
-4.24464e-05
0.00713635
0.00127366
-0.000249069
0.00659606
0.000164277
-0.000264959
0.00520115
0.00032535
-0.000722751
0.00582692
0.000420466
-0.000321513
0.00539643
0.000229251
-0.000455311
0.00591117
0.000169029
-9.82908e-05
0.00355058
0.000102474
4.77002e-05
0.001839
0.000250597
-0.000307309
0.0012783
0.000344884
-0.000146823
0.00184705
0.000174137
-0.000150535
0.00123913
4.82334e-05
-5.83341e-05
-2.56388e-06
0.000142796
2.5783e-05
7.91694e-05
-1.13535e-05
0.000267756
-0.000134079
-4.56527e-05
4.80926e-05
0.00138453
4.93077e-06
-0.000112292
0.00102485
-6.62932e-06
-0.000106326
-0.00020482
2.56239e-05
6.8805e-05
0.000493303
3.8772e-05
-6.41527e-06
1.28189e-05
5.60589e-05
0.000119237
-0.000595955
-9.10493e-05
0.000210082
-0.000448269
-0.000130569
9.13494e-05
0.000688478
-0.000115127
-1.30188e-05
0.000876139
-6.4423e-05
-7.93055e-06
0.000458873
-2.29057e-05
4.47567e-05
8.586e-05
-2.77e-05
1.86248e-05
-0.000254823
-2.88445e-05
1.16063e-05
-0.000427409
-2.76455e-05
-0.00162815
0.00395634
0.000108198
-0.00121958
0.00608577
-0.000102278
-0.00110733
0.00616485
0.000173855
-0.00128777
0.00433404
-7.63909e-05
-0.000630159
0.0074427
0.000158859
-0.000435486
0.00692599
0.000266861
-0.00167234
0.00371922
0.000344767
-0.00047477
0.00642969
0.000577012
-0.000532583
0.00680651
0.000825409
-0.000497076
0.00710719
0.000948762
-0.00099562
0.00706701
0.000609042
-0.000779794
0.00621776
0.00116586
-0.000648294
0.00662208
0.0011979
-0.00058948
0.00753103
0.00116628
-0.000599852
0.00760721
0.000847706
-0.000165443
0.00649821
0.000165001
-0.000334975
0.00543134
0.000316769
-0.000792633
0.00614744
0.000490153
-0.000445918
0.00578137
0.000334618
-0.000358025
0.00613364
0.000214278
-0.000290892
0.00320624
0.000415
-8.50536e-05
0.00353411
0.000127305
-6.42727e-05
0.00201683
0.000256668
-0.000379468
0.00160161
0.00035485
-0.000221949
0.00208443
0.000217168
-0.000199039
0.00141625
8.97254e-05
-4.0446e-05
-1.12398e-05
0.00016616
-9.42517e-05
0.000482457
0.000241791
-1.29765e-05
0.000202754
8.62939e-06
0.000188687
-8.93474e-05
-3.46889e-05
3.34891e-05
0.00138864
8.10089e-06
-0.000139092
0.00115419
1.67194e-06
-0.000135472
-0.000108464
2.45573e-05
6.48282e-05
0.000461779
3.70758e-05
-4.34659e-06
1.29523e-05
6.161e-05
4.30651e-06
0.000123339
6.72285e-05
8.67963e-05
-0.000596702
-8.60494e-05
0.000161023
-0.000571692
-0.00012865
7.59684e-05
0.000593397
-0.000111456
-2.13276e-05
0.00084447
-6.21295e-05
-1.05151e-05
0.000431896
-2.69302e-05
4.38984e-05
4.90728e-05
-3.00167e-05
1.62121e-05
-0.000268315
-3.04207e-05
5.61359e-06
-0.000432788
-2.90786e-05
-5.02623e-06
-0.000515399
-2.92065e-05
-0.00180333
0.00317535
0.000199786
-0.00147166
0.00412811
8.02991e-05
-0.00111395
0.0043719
0.000360772
-0.00104578
0.00592002
-7.62392e-05
-0.00131089
0.00659103
0.000152268
-0.000675683
0.00659126
0.000470118
-0.00131148
0.00399022
-1.70325e-05
-0.000730435
0.00739698
0.000224988
-0.000579261
0.00681017
0.000321356
-0.000645276
0.00716097
0.000447398
-0.00163844
0.00409937
0.00026266
-0.000699735
0.00620258
0.000491821
-0.000300301
0.00646871
0.000566817
-0.000602225
0.00718107
0.000764271
-0.000709225
0.00761568
0.000899203
-0.000897878
0.00724559
0.000553848
-0.000705061
0.00617825
0.00101864
-0.000840061
0.00674914
0.00108623
-0.000685773
0.00781336
0.00115542
-0.00042812
0.00793734
0.000906237
-0.00027832
0.00689764
0.000662116
-8.24849e-05
0.00636901
0.000126633
-0.000496502
0.00563628
0.000392283
-0.000906878
0.00652388
0.000467734
-0.0005521
0.00618311
0.000418566
-0.000284033
0.00625486
0.000298391
-0.000221912
0.00314515
0.000456839
-0.000224207
0.00202978
0.000496255
-5.3617e-05
0.00343927
0.000135486
-0.000151034
0.00222435
0.000259512
-0.000346777
0.00187997
0.000358566
-0.000274784
0.00232891
0.00024606
-0.000231402
0.0015907
0.000138647
-1.79201e-05
-2.40644e-05
0.000185298
-9.36218e-05
0.000475367
0.000262526
-9.56076e-05
0.0016
0.000299771
-5.22234e-05
0.00031686
2.49141e-05
0.000118612
-1.88095e-05
-1.94972e-05
1.7547e-05
0.00140294
9.42335e-06
-0.000161818
0.00129527
7.50874e-06
-0.000157863
1.38228e-05
2.67322e-05
3.76031e-05
0.000457129
3.55024e-05
-8.78899e-06
9.51229e-06
6.5517e-05
-2.02655e-05
0.000134092
7.67356e-05
-8.30893e-06
0.000518788
7.17099e-05
5.92993e-05
-0.000575744
-8.02574e-05
0.000120433
-0.000654066
-0.000124107
6.32111e-05
0.000506823
-0.000105287
-2.68703e-05
0.000819312
-5.9428e-05
-1.11702e-05
0.000411685
-3.0749e-05
4.48211e-05
9.63443e-06
-3.2313e-05
1.41691e-05
-0.000280601
-3.18994e-05
3.31024e-07
-0.000432882
-3.06584e-05
-6.56828e-06
-0.000507351
-3.05583e-05
-1.48613e-05
-0.000276138
-3.41689e-05
-0.00166083
0.00293498
1.14767e-06
-0.00174823
0.00316318
0.000288749
-0.000975267
0.0040481
0.000483611
-0.00141488
0.00441942
7.77998e-05
-0.00153685
0.0044001
0.000278057
-0.000929035
0.00523337
0.000557857
-0.000900924
0.00557022
-6.07573e-05
-0.00114306
0.00678642
0.000141001
-0.0008558
0.00657991
0.000440167
-0.000740456
0.00647334
0.000490985
-0.00171401
0.00406792
-2.12751e-06
-0.000712651
0.0070872
0.000305663
-0.00055646
0.0069156
0.000375712
-0.000525325
0.00695028
0.000455145
-0.000785196
0.00711673
0.000701478
-0.00155314
0.00440974
0.000344896
-0.000569839
0.00594345
0.00038657
-0.00060306
0.00624929
0.000474239
-0.000702153
0.00709615
0.000668118
-0.000714399
0.00780135
0.000864872
-0.000602053
0.00758969
0.00106311
-0.00084224
0.00750061
0.000504737
-0.00107942
0.0063945
0.000920517
-0.000910038
0.00684512
0.000925812
-0.000817386
0.00799164
0.00117324
-0.00019015
0.00808368
0.000915205
-0.000182566
0.00700611
0.000758431
-0.000486334
0.00688331
0.000536701
6.25647e-06
0.00621757
9.15662e-05
-0.000601671
0.00583792
0.00037563
-0.000777163
0.0068224
0.000524151
-0.00062885
0.00653138
0.000473527
-0.00039767
0.00643596
0.000403732
-0.000233755
0.00311926
0.000540116
-0.000232196
0.0020573
0.000567889
-9.82448e-05
0.00258867
0.000369795
-5.18365e-05
0.00329991
0.000138971
-0.00018672
0.00240051
0.000264651
-0.000358911
0.00216301
0.000352932
-0.000325469
0.00258211
0.000269015
-0.000253741
0.00175315
0.00017949
-3.37983e-05
-6.96955e-06
0.000192953
-7.31889e-05
0.000449397
0.000275668
-4.81546e-05
0.00157598
0.000314435
-2.31099e-05
0.00262854
0.000355143
-7.66645e-05
0.000417087
3.57368e-05
7.32425e-05
5.96931e-05
-6.39828e-06
5.20238e-06
0.00143078
1.068e-05
-0.000183483
0.0014494
1.19077e-05
-0.000176598
0.000157062
2.96979e-05
2.10445e-05
0.0004714
3.62385e-05
-2.32691e-05
1.23051e-05
7.01478e-05
-4.24229e-05
0.000154571
8.77925e-05
-2.93831e-05
0.000545523
7.28153e-05
-5.05887e-05
0.000441765
9.55328e-05
3.78737e-05
-0.000539189
-7.44279e-05
8.67226e-05
-0.000702763
-0.000118284
5.10372e-05
0.000430775
-9.90964e-05
-2.99443e-05
0.000800497
-5.65281e-05
-1.06476e-05
0.000396684
-3.37786e-05
4.25524e-05
-2.9331e-05
-3.4336e-05
1.20116e-05
-0.00029183
-3.30963e-05
-4.04591e-06
-0.000428458
-3.22773e-05
-9.89756e-06
-0.000496199
-3.19125e-05
-1.90736e-05
-0.000251114
-3.6509e-05
-3.76956e-05
-7.31877e-05
-5.05796e-05
-0.00141953
0.00369441
7.1058e-06
-0.00394283
-0.00175145
0.00297984
-4.16486e-05
-0.000911062
0.00470034
8.00192e-05
-0.00171477
0.00320098
0.000262089
-0.00129655
0.0035425
0.000554037
-0.000948674
0.00434925
0.000551213
-0.00125407
0.00471026
6.23001e-05
-0.00148566
0.00464473
0.000175764
-0.00109645
0.00523936
0.000512721
-0.000829287
0.00529558
0.000601466
-0.00133366
0.0050399
0.00014997
-0.000950113
0.00695345
9.66982e-06
-0.000863448
0.00657762
0.000450275
-0.000709437
0.00658875
0.000508875
-0.000821123
0.00668423
0.000378402
-0.00172669
0.00408205
0.000159417
-0.000538802
0.00678941
0.000264634
-0.000663539
0.00684355
0.000438194
-0.000628263
0.00682053
0.000431571
-0.000839521
0.00700326
0.000693741
-0.000551412
0.00706556
0.00081419
-0.00154549
0.0047492
0.000363787
-0.00102285
0.00569219
0.000539589
-0.000637386
0.00587861
0.000484597
-0.00080468
0.00694843
0.000609258
-0.00054102
0.00801728
0.00080306
-0.000545888
0.00773826
0.00107962
-0.000637079
0.00763331
0.0011274
-0.000814085
0.00776521
0.000555747
-0.00111073
0.00659345
0.000814847
-0.000975102
0.00707488
0.000888692
-0.000837012
0.00800215
0.00112346
-0.000206551
0.00808091
0.00098489
-0.000201361
0.00721987
0.000669044
-0.000475781
0.00719884
0.000686484
-6.00361e-05
0.00655563
0.000432346
5.7441e-05
0.00603522
7.30694e-05
-0.000533579
0.00595328
0.000323071
-0.000776127
0.00711432
0.000500931
-0.000654644
0.00686979
0.000514914
-0.000466699
0.00660572
0.000516729
-0.000217573
0.00307646
0.000630307
-9.20089e-05
0.0020484
0.000567839
-0.000166799
0.00283911
0.000436086
-0.000150963
0.00335492
0.000402378
-0.000221204
0.00330574
0.00013871
-0.000269379
0.00262148
0.000260628
-0.000370696
0.00245068
0.000352883
-0.000339497
0.00279848
0.000292581
-0.000300037
0.00192754
0.000218063
-6.01793e-05
6.52493e-05
0.000188495
-0.000112381
0.000447471
0.000283992
-0.000174806
0.00165828
0.000325751
-7.408e-05
0.00264199
0.000345685
1.24574e-05
0.00284759
0.00032607
-0.000105031
0.000516685
4.33058e-05
3.34959e-05
0.000154004
-5.34698e-06
-1.62304e-05
0.00147931
1.23373e-05
-0.000201994
0.00161525
1.68758e-05
-0.000190164
0.000312533
3.59534e-05
1.21774e-06
0.000504705
3.77268e-05
-4.11886e-05
2.83428e-05
7.3401e-05
-7.68741e-05
0.00020059
9.69565e-05
-5.34403e-05
0.000599303
7.75545e-05
-6.16076e-05
0.00046071
9.64042e-05
-0.000163608
0.0004834
0.00012206
2.33251e-05
-0.000493098
-6.94162e-05
5.80839e-05
-0.000722808
-0.000112466
3.53748e-05
0.000373207
-9.609e-05
-2.86185e-05
0.000784583
-5.45635e-05
-9.28097e-06
0.000385083
-3.56465e-05
3.86999e-05
-6.61432e-05
-3.56662e-05
9.99854e-06
-0.000302293
-3.38706e-05
-9.05161e-06
-0.000418462
-3.40405e-05
-1.39035e-05
-0.000481508
-3.30655e-05
-2.2621e-05
-0.000221744
-3.86609e-05
-4.00615e-05
-1.68272e-05
-5.2808e-05
-8.20152e-05
0.00013035
-6.73776e-05
-0.00132029
0.00295824
0.000101886
-0.00315936
-0.00160146
0.00345102
9.34067e-05
-0.000978486
0.00418308
9.8798e-05
-0.00420734
-0.00121518
-4.06174e-05
-0.00175845
0.00297225
5.12734e-05
-0.00106185
0.00439643
2.75698e-05
-0.000869282
0.00463166
5.72884e-05
-0.00156956
0.00322728
0.000289196
-0.00154842
0.00342891
0.000438447
-0.000996133
0.00425818
0.000544787
-0.000820742
0.00461675
0.000526061
-0.00133016
0.0048893
-0.000182543
-0.00131848
0.00498855
8.68559e-05
-0.00118501
0.00527699
0.000459704
-0.000898995
0.00535591
0.000641952
-0.000833331
0.00547374
0.000619078
-0.00128806
0.00461322
-1.1957e-05
-0.000529422
0.00683491
0.000259133
-0.00108111
0.00665776
0.000347094
-0.000791945
0.00668056
0.000522142
-0.000794063
0.006719
0.000428646
-0.000530626
0.00716019
0.000335457
-0.0018482
0.00401044
0.000374332
-0.000925407
0.00629077
0.000560605
-0.000648052
0.00663238
0.000486473
-0.000731724
0.00667278
0.000512987
-0.000785864
0.00697267
0.000707006
-0.000588618
0.00703051
0.000771523
-0.000518642
0.00693333
0.000811929
-0.00149835
0.00499358
0.000439891
-0.00115624
0.00552986
0.00057162
-0.000811768
0.00571074
0.000544129
-0.000788507
0.00686766
0.000516853
-0.000381784
0.00796513
0.000836641
-0.000438788
0.00771554
0.0010632
-0.00066782
0.0077245
0.00118047
-0.000505228
0.00794195
0.00129235
-0.000754882
0.0079779
0.000599624
-0.000923795
0.00672793
0.00081148
-0.00100637
0.00727804
0.000841939
-0.000789504
0.00793791
0.0010878
-0.000369414
0.00818141
0.000925667
-9.79286e-05
0.00741729
0.000667828
-0.000252747
0.00735103
0.000677587
-0.00032241
0.00673746
0.00066027
-0.00025502
0.00615546
0.000612131
-0.000338764
0.00605593
9.68505e-05
-0.000652387
0.00609305
0.000316308
-0.000681814
0.00726969
0.000478812
-0.00065228
0.00714973
0.000533775
-0.000463785
0.0066808
0.000603582
-8.34733e-05
0.00292505
0.000691428
-0.00013381
0.00207466
0.000625471
-0.000325206
0.00315898
0.000398368
-0.000199618
0.0035169
0.00039964
-0.000151961
0.00393034
0.0004996
-0.000295621
0.00333525
0.000161074
-0.000348924
0.00288328
0.000259326
-0.000352213
0.00270672
0.000340572
-0.000337593
0.00297657
0.000310395
-0.000337088
0.00212039
0.000246654
-8.37341e-05
0.000197389
0.000170875
-0.000158849
0.000463293
0.000290332
-0.00019406
0.00172639
0.000333063
-9.41937e-05
0.00267653
0.000331965
3.77018e-05
0.00275181
0.000342152
-0.000255632
0.00266034
0.000337655
-0.000137532
0.000630493
4.70497e-05
-3.91066e-06
0.000262867
-3.56291e-06
-5.07014e-05
0.00155721
2.83067e-06
-0.000214471
0.00179054
2.29017e-05
-0.00019826
0.000472343
4.6045e-05
-1.35287e-05
0.000552818
4.00699e-05
-5.59203e-05
5.73292e-05
7.46592e-05
-0.000116691
0.000272361
0.00010927
-4.92306e-05
0.000655369
7.6218e-05
-8.28158e-05
0.000499817
9.86422e-05
-0.000134972
0.000547309
0.000127406
-0.000210081
0.000614032
0.000110587
1.72013e-05
-0.000443998
-6.63015e-05
3.50353e-05
-0.000719028
-0.000108232
2.77932e-05
0.000326872
-9.39252e-05
-2.54895e-05
0.000769854
-5.58714e-05
-7.91758e-06
0.000374636
-3.61992e-05
3.2497e-05
-9.84246e-05
-3.58621e-05
8.25824e-06
-0.000311801
-3.44167e-05
-1.38388e-05
-0.000402645
-3.58493e-05
-1.74829e-05
-0.000463753
-3.43121e-05
-2.6992e-05
-0.000187874
-3.99437e-05
-4.33825e-05
4.30815e-05
-5.51871e-05
-8.43037e-05
0.000230744
-6.88983e-05
-0.000100805
0.00064382
-7.96164e-05
-0.00127333
0.00298467
-4.00514e-05
-0.00299158
-0.00162228
0.00297671
2.3485e-06
-0.00112712
0.00386701
0.000174949
-0.00379143
-0.00148134
0.000189211
-0.00166413
0.0032141
0.000142607
-0.00109436
0.00414609
0.000162901
-0.000892029
0.00435825
0.000171754
-0.00440846
-0.00120375
3.35982e-05
-0.00175018
0.00303716
0.000115712
-0.00120488
0.00398419
0.000119969
-0.000765945
0.00430833
0.000120708
-0.000818896
0.00464826
0.000140863
-0.00159745
0.00320276
0.000291802
-0.0015829
0.00350001
0.000482519
-0.00118945
0.00423041
0.000470653
-0.000909713
0.00465527
0.000516992
-0.000798756
0.0048861
0.000520385
-0.0011356
0.00484946
-0.000112622
-0.0011853
0.0054012
6.06846e-05
-0.00148354
0.00533291
0.000433362
-0.00097377
0.00542018
0.00057726
-0.000768209
0.00548873
0.000601105
-0.000563914
0.00560588
0.000564459
-0.00151783
0.00440803
-0.000125181
-0.000788072
0.00664791
3.7713e-05
-0.000811193
0.00673326
0.00034678
-0.000896604
0.0067019
0.000490633
-0.000752623
0.00673042
0.000477485
-0.000574374
0.00708829
0.000486303
-0.000515157
0.00726382
0.000472156
-0.00184048
0.00394178
0.000410785
-0.00114674
0.00586416
0.000791448
-0.000583397
0.00632541
0.000639203
-0.000667536
0.00655798
0.000480305
-0.000674458
0.00706613
0.000712198
-0.000524964
0.00698005
0.000843649
-0.000569854
0.00689674
0.000710141
-0.000592837
0.00719536
0.00070893
-0.0014228
0.00529122
0.000370277
-0.000972435
0.00541497
0.000603419
-0.000941416
0.00567741
0.000539994
-0.000765872
0.00694361
0.000444549
-0.000397618
0.00775982
0.000750368
-0.000339946
0.00768121
0.00111299
-0.000544944
0.00790196
0.00117794
-0.000503353
0.00801529
0.00128807
-0.000352685
0.00792652
0.0014358
-0.000850907
0.00792995
0.000560096
-0.00104078
0.00694144
0.000774505
-0.00085476
0.00743174
0.000830723
-0.000834572
0.00792585
0.00103629
-0.000536699
0.00839285
0.000949274
0.000116275
0.00750172
0.000641491
-8.17603e-05
0.00725197
0.000714844
-0.00031525
0.00667968
0.000725415
-0.000303362
0.00621166
0.000707818
-0.000213239
0.00594001
0.000737598
-0.000436583
0.00611434
8.25544e-05
-0.000803065
0.0063736
0.000270438
-0.00059701
0.00735669
0.000474104
-0.000592512
0.0073068
0.000576662
-0.000489127
0.00671301
0.000653601
-0.000137019
0.00284202
0.000739898
-0.000235801
0.00214423
0.000698809
-0.000268598
0.00340878
0.000450215
-0.000172855
0.0036056
0.000388335
-5.82131e-05
0.00393759
0.000488302
-0.000326684
0.00473562
0.000515589
-0.000422465
0.00343163
0.000188556
-0.000323685
0.0030958
0.000268329
-0.000339793
0.00292496
0.000330173
-0.000411429
0.00320419
0.000309907
-0.000329779
0.00229538
0.000266929
-0.000102248
0.000376694
0.000156069
-0.000170524
0.000465922
0.00028285
-0.000177186
0.00172859
0.000348628
-8.14874e-05
0.00272694
0.000314907
2.61766e-05
0.00264612
0.000328667
-0.00019712
0.00271662
0.000348022
-0.000251798
0.00346273
0.000337852
-0.000171574
0.00077184
4.74283e-05
-3.33144e-05
0.000388823
-1.05566e-05
-6.75342e-05
0.00164412
4.84666e-06
-0.000219628
0.00196267
2.4838e-05
-0.00019812
0.000635335
5.01113e-05
-2.46832e-05
0.000609965
4.60775e-05
-6.71899e-05
0.000102021
7.08267e-05
-0.000145077
0.000355039
0.00012322
-2.8634e-05
0.000690135
8.56543e-05
-0.000110883
0.000566845
9.30815e-05
-0.000146292
0.000606535
0.000142325
-0.000220236
0.00076286
0.00011451
-0.000265643
0.000911796
0.000109794
1.80445e-05
-0.000397
-6.50422e-05
1.81925e-05
-0.000696555
-0.000106967
1.57496e-05
0.000296311
-9.34199e-05
-2.11047e-05
0.000754737
-5.77042e-05
-5.94222e-06
0.00036072
-3.60126e-05
2.36783e-05
-0.000123453
-3.48489e-05
6.05206e-06
-0.000319102
-3.4613e-05
-1.86345e-05
-0.000382073
-3.63537e-05
-2.04714e-05
-0.000443179
-3.59524e-05
-2.88307e-05
-0.000153683
-3.96724e-05
-4.7118e-05
0.000107171
-5.69157e-05
-8.26863e-05
0.000329023
-7.07807e-05
-0.000100413
0.000754031
-7.8696e-05
-9.35796e-05
0.0012684
-5.07869e-05
-0.00164889
0.00241588
0.000252794
-0.00229312
-0.00157838
0.00303715
-9.63874e-05
-0.00129826
0.00323476
9.00021e-05
-0.00319367
-0.00180626
2.94316e-05
-0.00158743
0.00295593
-5.59238e-05
-0.00121292
0.00394236
4.5553e-05
-0.000851317
0.00411315
0.000216959
-0.00419587
-0.00134498
0.000227316
-0.00170701
0.00300675
0.000164176
-0.00109724
0.0040481
0.000132959
-0.000833107
0.00438189
0.000206427
-0.000808889
0.00438845
0.00021444
-0.00444114
-0.000825459
0.000121196
-0.00168554
0.00300901
0.000116242
-0.00139279
0.00370944
0.000200361
-0.00110782
0.00419206
0.000154614
-0.00085573
0.00447672
0.000238267
-0.000868516
0.00456156
0.000292904
-0.00153534
0.00335125
0.000251255
-0.00150893
0.00363988
0.000475555
-0.00138605
0.00422205
0.000393383
-0.000962519
0.00463596
0.000478708
-0.000735288
0.00484228
0.00052789
-0.000521105
0.00505027
0.000471584
-0.00136659
0.00476098
-6.27564e-05
-0.0012281
0.00559524
0.00013337
-0.00103918
0.00526036
0.000361234
-0.00101949
0.00545303
0.000523401
-0.000764167
0.00551955
0.000557988
-0.000591869
0.0057042
0.000520279
-0.000554245
0.00596596
0.000503837
-0.00155196
0.00428949
-0.000169979
-0.000797963
0.00633603
-0.000162087
-0.000786796
0.00671168
0.000262689
-0.000722576
0.00661294
0.000490775
-0.000615004
0.00663162
0.000529979
-0.000567849
0.00707697
0.000531683
-0.000522039
0.0071326
0.000569704
-0.000578787
0.00700867
0.000571565
-0.00189227
0.00407524
0.000336007
-0.00114856
0.00566637
0.000784705
-0.000571823
0.00601647
0.000730798
-0.000802092
0.00652549
0.000707909
-0.000588142
0.00714006
0.000596903
-0.000500868
0.00704471
0.00080846
-0.000491102
0.00699282
0.000693735
-0.000415472
0.00717328
0.000644336
-0.000377615
0.00738155
0.00069671
-0.00134551
0.00540405
0.000381769
-0.00117404
0.00536394
0.000554572
-0.000968957
0.0059048
0.000490227
-0.000782768
0.00695505
0.00047675
-0.000592194
0.00761423
0.000645633
-0.000278985
0.00771982
0.00110702
-0.000369595
0.00807178
0.00123101
-0.00047821
0.00810542
0.00125076
-0.000389193
0.0079246
0.00137583
-0.00022834
0.00777071
0.00135449
-0.000971679
0.00788374
0.000581303
-0.00110646
0.00711786
0.000687072
-0.000796928
0.00759519
0.000810979
-0.000965055
0.00810816
0.00102096
-0.000614567
0.00864764
0.000906938
3.87253e-05
0.00755556
0.000719686
-0.000205958
0.00708369
0.00077993
-0.000187333
0.00654021
0.000773048
-0.000309417
0.00629618
0.000777455
-0.000139291
0.00601993
0.000708975
-0.000329671
0.00652563
0.000754615
-0.000531814
0.00611341
0.000110277
-0.000650503
0.00656444
0.00021853
-0.000509913
0.00741066
0.000386596
-0.000675044
0.0074457
0.000598818
-0.000438608
0.00671541
0.000683094
-5.06317e-05
0.00268356
0.000760443
-0.000273325
0.00228503
0.0007019
-0.000212122
0.00359694
0.000545588
-0.000143645
0.00370109
0.000416882
1.19329e-05
0.00388166
0.000458508
-0.000187128
0.00469401
0.000519914
-0.000326456
0.00526216
0.000476966
-0.000596747
0.00365559
0.000201218
-0.000282942
0.0032515
0.000282481
-0.000334244
0.00313695
0.000323049
-0.000479905
0.00349309
0.000301554
-0.000329476
0.00246403
0.00027261
-9.41269e-05
0.000560469
0.000152598
-0.00016301
0.000457943
0.000259869
-0.000192504
0.00170122
0.000357648
-6.18339e-05
0.0028159
0.000292869
-7.6095e-05
0.00260968
0.000316554
-0.000181382
0.00274883
0.00033155
-0.000265672
0.00352623
0.000329956
-0.000360188
0.00405405
0.000309169
-0.00019857
0.000944875
4.35795e-05
-6.20879e-05
0.000515928
6.03216e-07
-0.000103192
0.0017453
7.20895e-06
-0.000207352
0.00211949
3.42699e-05
-0.000191324
0.000791792
5.37627e-05
-4.17541e-05
0.000678976
4.65329e-05
-7.69193e-05
0.000165239
6.58299e-05
-0.000163093
0.000441012
0.000129312
-1.38875e-05
0.000702085
0.000104686
-8.97924e-05
0.000624028
8.94333e-05
-0.000153441
0.000676757
0.000129183
-0.000215492
0.000910411
0.000127581
-0.000271108
0.00108676
0.000110239
-0.000287341
0.00197996
0.000136601
1.82301e-05
-0.000350398
-6.48328e-05
2.63365e-06
-0.000657714
-0.000106517
3.00535e-05
0.000254745
-9.54549e-05
-1.78367e-05
0.000738842
-5.96879e-05
-3.6468e-06
0.000342019
-3.53569e-05
1.6076e-05
-0.000142015
-3.35265e-05
4.36993e-06
-0.00032392
-3.44009e-05
-2.09391e-05
-0.000359121
-3.66264e-05
-2.72123e-05
-0.000415732
-3.65885e-05
-3.05258e-05
-0.000119907
-3.92028e-05
-4.94163e-05
0.000174046
-5.71308e-05
-9.00472e-05
0.000434397
-7.22424e-05
-0.000100876
0.000861667
-7.75409e-05
-9.46902e-05
0.00133358
-4.91788e-05
-0.000136963
0.00217453
-1.1289e-05
-0.00164407
0.00226416
-8.61025e-05
-0.00218287
-0.00167674
0.00238492
0.000129319
-0.0013389
0.00290614
0.000266338
-0.00287904
-0.00198525
0.000227024
-0.00234115
-0.00154027
0.00304811
-5.81104e-05
-0.00158958
0.00338615
0.000128877
-0.00108861
0.00371633
0.000203042
-0.00359208
-0.00164089
0.000204378
-0.00157354
0.00281596
6.49957e-06
-0.00113044
0.00394142
-2.17833e-05
-0.000933437
0.00409947
0.000159566
-0.000920688
0.00421571
0.000303457
-0.00419041
-0.00105968
0.000323525
-0.00180971
0.00297683
0.000154085
-0.00110266
0.0037016
0.000220537
-0.00107712
0.0043059
0.000178249
-0.000823412
0.00431532
0.000247237
-0.000926275
0.00425329
0.000316574
-0.00429767
-0.000962566
0.000197179
-0.00170868
0.00302402
0.000158333
-0.0015141
0.00361205
0.000218793
-0.00123761
0.00404752
0.000196459
-0.000890836
0.00430061
0.000259042
-0.000762966
0.00448077
0.000346739
-0.000700325
0.00463113
0.000454983
-0.00163488
0.00343331
0.00018623
-0.00160878
0.00392985
0.000341957
-0.00122381
0.00451658
0.000365661
-0.00104522
0.0046225
0.00043257
-0.000792782
0.00485316
0.000496442
-0.000517241
0.00497768
0.000525852
-0.000493304
0.00511469
0.000432865
-0.00147719
0.00460776
7.84536e-05
-0.000956814
0.00556027
0.000131065
-0.00105039
0.00524927
0.00040805
-0.000950581
0.00561154
0.000430729
-0.00071363
0.00559897
0.000542612
-0.000523136
0.00574945
0.000468026
-0.000441151
0.00591777
0.000487586
-0.000534956
0.00595181
0.000534105
-0.0017595
0.00416629
-9.57084e-06
-0.000972607
0.0061731
-0.000182997
-0.000662236
0.0064126
0.000227403
-0.000809543
0.00643495
0.000448132
-0.000639855
0.00660254
0.000571571
-0.000481846
0.00701311
0.000574815
-0.000497589
0.0070294
0.000641377
-0.000349018
0.00691714
0.000594778
-0.000370629
0.00688521
0.000572595
-0.00181588
0.00427707
0.000268547
-0.00119844
0.00539375
0.000633029
-0.000996717
0.00607753
0.000751402
-0.00080449
0.00650624
0.000771776
-0.000518703
0.0070124
0.000762077
-0.000357476
0.0070204
0.000699698
-0.000490021
0.00725684
0.000664861
-0.000398977
0.00717553
0.000612251
-0.000335023
0.0072821
0.000689621
-0.000276239
0.00733254
0.000799628
-0.00144789
0.00551631
0.000363949
-0.00129293
0.00535547
0.0005767
-0.000920059
0.00611597
0.000466533
-0.000890342
0.0069291
0.000441467
-0.000731427
0.00754547
0.000662372
-0.000296488
0.00765226
0.0010484
-0.000377804
0.00817586
0.00117479
-0.000358208
0.00821525
0.00129205
-0.000394485
0.00796704
0.00129339
-0.000172912
0.00785454
0.00132561
-0.000212101
0.00770343
0.00108493
-0.000730412
0.00747585
0.000606489
-0.000982886
0.00736003
0.00067152
-0.000578508
0.00761701
0.000733848
-0.00103024
0.0082863
0.000988035
-0.000508382
0.00877258
0.000965793
9.94344e-05
0.00756219
0.000750248
-0.000316238
0.00700702
0.000839262
-0.000320607
0.00658624
0.00084238
-0.000209968
0.00632998
0.00080557
-9.69619e-05
0.0060959
0.00081038
-0.00012628
0.00648168
0.000692074
-0.000355779
0.00653328
0.000725891
-0.000919941
0.00630677
0.000129839
-0.000518126
0.00670949
0.000200414
-0.000528576
0.007473
0.000350521
-0.000797571
0.0076172
0.000532767
-0.000402873
0.00664534
0.00074228
5.82045e-05
0.00242351
0.000790811
-0.000243374
0.00242222
0.000703616
-0.000206474
0.00381625
0.000496556
-0.000178383
0.00390409
0.000459138
-9.05985e-05
0.00386518
0.000447871
-0.000272042
0.00474478
0.0004984
-0.000290469
0.00534543
0.000461447
-0.000328679
0.00562217
0.000409019
-0.000729675
0.00396441
0.000222287
-0.000264446
0.00336936
0.000285723
-0.000325077
0.00331273
0.000328581
-0.000457515
0.0037659
0.000300396
-0.000329575
0.00262925
0.000274585
-7.93866e-05
0.000720026
0.000150685
-0.000164738
0.000453749
0.00024461
-0.000296975
0.00170941
0.000385559
-1.85254e-05
0.00290708
0.000271107
-8.2193e-05
0.00260583
0.000289118
-0.000125288
0.0027143
0.000322926
-0.000269137
0.00359739
0.000314036
-0.000364125
0.00417655
0.000300474
-0.000367581
0.00409868
0.000269968
-0.00021525
0.00113856
3.97947e-05
-0.000107449
0.000688128
-1.85381e-05
-5.7513e-05
0.00180621
2.72644e-05
-0.0001915
0.00225128
4.90841e-05
-0.000189288
0.000957048
5.46553e-05
-4.90364e-05
0.000751146
4.67053e-05
-9.39693e-05
0.000250535
5.95768e-05
-0.000208615
0.000569294
0.000125224
-9.04446e-05
0.000784616
0.000110014
-9.96938e-05
0.0007044
9.34821e-05
-0.000171281
0.000756416
0.000131639
-0.000231341
0.00106467
0.000116217
-0.00027258
0.00127691
0.000109142
-0.00028604
0.00214522
0.000136327
-0.000248403
0.00286337
0.000103082
1.91178e-05
-0.000304767
-6.47484e-05
-5.50453e-06
-0.00061059
-0.000106452
1.6713e-05
0.000229206
-9.76909e-05
-2.11077e-05
0.000726102
-6.16074e-05
-1.21215e-06