/*--------------------------------*- C++ -*----------------------------------*\
  =========                 |
  \\      /  F ield         | OpenFOAM: The Open Source CFD Toolbox
   \\    /   O peration     | Website:  https://openfoam.org
    \\  /    A nd           | Version:  7
     \\/     M anipulation  |
\*---------------------------------------------------------------------------*/
FoamFile
{
    version     2.0;
    format      ascii;
    class       volVectorField;
    location    "7.5";
    object      U;
}
// * * * * * * * * * * * * * * * * * * * * * * * * * * * * * * * * * * * * * //

dimensions      [0 1 -1 0 0 0 0];

internalField   nonuniform List<vector> 
18750
(
(3.64592 0.433285 -1.05635)
(3.20926 -0.569245 0.0106844)
(3.8113 0.517115 -1.28467)
(2.52014 0.898343 -1.60742)
(-1.16489 1.46937 -0.97024)
(3.09062 -0.329922 -0.0322821)
(4.01041 0.410477 -0.352139)
(3.67899 0.577225 -1.48462)
(2.82015 0.897523 -1.81639)
(1.35818 0.963007 -1.92562)
(-0.342583 3.85333 0.435494)
(-1.35461 1.68525 -0.902553)
(1.35288 1.08842 0.575541)
(2.82451 -0.0775319 -0.0474955)
(4.25126 0.542775 -0.611829)
(1.69919 1.09569 -0.543744)
(3.32592 0.604141 -1.61874)
(3.08026 0.938681 -2.0717)
(1.41742 0.983554 -2.19388)
(1.01713 0.819912 -2.34575)
(-3.20872 4.22466 -0.350746)
(-0.641475 4.07057 0.276187)
(1.89697 3.30141 -0.292796)
(-1.65064 1.85461 -0.707752)
(1.26574 1.16228 0.629946)
(0.0552137 0.204505 2.11669)
(2.33857 0.180366 -0.0339387)
(4.19153 0.685168 -0.792178)
(1.6215 1.15781 -0.392752)
(-0.448979 0.487196 0.193507)
(2.87176 0.590253 -1.65322)
(3.19154 0.946591 -2.34667)
(1.37094 0.986382 -2.49678)
(0.687365 0.805829 -2.51985)
(0.460238 0.441462 -0.216364)
(-3.40879 2.5874 -0.310645)
(-3.54836 4.09494 -0.843771)
(0.45836 4.51921 2.96605)
(-0.576895 4.25755 0.219987)
(0.405663 3.34945 0.198718)
(-0.341845 3.37543 0.746834)
(-1.70892 1.89273 -0.32632)
(0.93858 1.43297 0.633796)
(-0.384016 0.424989 1.73648)
(0.0464802 0.895842 1.35341)
(2.02227 0.34841 0.0339332)
(3.87233 0.799542 -0.847138)
(1.44568 1.18927 -0.293204)
(-0.531895 0.506427 0.163319)
(-0.492761 -0.229215 -0.0491335)
(2.3763 0.532233 -1.61638)
(2.97777 0.902863 -2.59572)
(1.20792 0.963437 -2.77771)
(0.471179 0.775704 -2.52974)
(0.422905 0.433287 -0.300879)
(0.621495 0.13681 -0.415865)
(-2.46941 3.47404 -0.191698)
(-3.7062 2.04122 -0.100123)
(-2.51432 4.193 2.20409)
(-3.63129 4.01861 -1.00853)
(-0.339066 4.55776 3.49205)
(-0.952407 4.52178 3.2952)
(-0.57271 4.44788 0.083417)
(-0.110179 3.35197 0.344611)
(-1.14823 3.48541 1.14511)
(-0.436996 3.42358 0.37444)
(-1.83525 1.92789 -0.148598)
(0.344634 1.21062 0.66589)
(-0.680238 0.464729 1.6095)
(-0.346027 0.956097 1.31457)
(0.0343144 0.625435 -0.0608837)
(1.68854 0.484927 0.123339)
(3.43648 0.875039 -0.747523)
(1.23075 1.21251 -0.139004)
(-0.647362 0.481671 0.071502)
(-0.641777 -0.266845 -0.0877902)
(0.109713 0.377072 0.480051)
(1.8867 0.435304 -1.52828)
(2.58618 0.801042 -2.70883)
(0.960253 0.907692 -2.99302)
(0.259779 0.730476 -2.41587)
(0.369502 0.423707 -0.403158)
(0.692001 0.159772 -0.453945)
(0.271882 -0.144081 -0.647543)
(-1.8082 3.88172 -0.0779402)
(-2.87588 3.0961 -0.296486)
(-1.17934 5.04257 0.284238)
(-3.67199 1.95306 -0.12005)
(-2.2378 4.23191 1.94612)
(-1.27934 4.91125 1.77786)
(-3.37081 3.99124 -0.891438)
(-1.12454 4.296 3.99595)
(-2.71125 4.13468 2.97611)
(0.653247 4.6957 3.55556)
(-0.676172 4.48367 0.0166291)
(-0.524085 3.42644 0.674053)
(-1.84441 3.6178 1.40087)
(-0.735244 3.49358 0.888306)
(-1.33946 3.81606 0.380159)
(-2.07932 1.84173 0.0465514)
(-0.142549 1.14171 0.705749)
(-1.05515 0.547722 1.56789)
(-0.660802 1.1254 1.31293)
(-0.198231 0.746544 0.10867)
(0.844578 0.0191642 0.221613)
(1.34516 0.572371 0.218528)
(2.91293 0.912074 -0.596386)
(1.06183 1.31018 -0.0615759)
(-0.811085 0.496835 0.0419578)
(-0.76126 -0.288686 -0.121052)
(0.0570783 0.344514 0.477339)
(0.1539 0.0113759 0.155097)
(1.43452 0.311714 -1.40835)
(2.13058 0.658655 -2.71101)
(0.622949 0.775463 -3.15416)
(0.0889782 0.675052 -2.2303)
(0.328229 0.413744 -0.509951)
(0.759432 0.188923 -0.513955)
(0.270456 -0.139569 -0.688125)
(0.317035 -0.278786 -0.620509)
(-2.23359 2.50242 0.0796294)
(-1.81967 3.91385 -0.0764634)
(-1.84311 3.97592 -0.228888)
(-3.52697 2.44209 -0.461662)
(-0.8144 5.04972 0.0818514)
(-0.598547 4.66291 0.422967)
(-3.5725 1.70155 -0.0800503)
(-1.67728 4.24009 1.73805)
(-1.62566 4.43926 1.57614)
(-1.14294 4.48673 2.17692)
(-3.07913 4.06738 -0.579225)
(-2.45678 3.7097 3.54178)
(-3.15095 4.0289 2.75019)
(-1.66805 4.92023 3.16263)
(-1.25625 4.71117 2.9528)
(-0.814123 4.43076 -0.0756062)
(-0.833922 3.51754 0.892475)
(-2.41914 3.64001 1.52808)
(-1.25888 3.55916 1.26537)
(-1.54253 3.91478 0.542684)
(-1.56593 2.06934 0.816336)
(-2.29772 1.67876 0.194726)
(-0.792611 1.1369 0.77366)
(-1.35912 0.651259 1.58019)
(-0.977407 1.16948 1.41189)
(-0.594348 0.853226 0.333539)
(0.798424 0.0777603 0.397352)
(-0.257128 0.316561 1.00165)
(1.02248 0.615348 0.306082)
(2.36446 0.892152 -0.419596)
(0.990682 1.32943 -0.0651456)
(-0.961277 0.516321 0.12831)
(-0.8511 -0.293592 -0.119912)
(-0.0350877 0.321039 0.473165)
(0.0957301 0.0196536 0.136213)
(-0.204305 0.0758496 0.677956)
(1.04338 0.176347 -1.27307)
(1.63185 0.463501 -2.66526)
(0.366971 0.662291 -3.19836)
(-0.0427189 0.61873 -2.00822)
(0.308443 0.412486 -0.619469)
(0.813339 0.224048 -0.583826)
(0.273894 -0.134434 -0.723011)
(0.284322 -0.271432 -0.652323)
(0.0811306 -0.353343 -0.657859)
(-2.07994 2.04686 -0.0305889)
(-2.10554 2.51557 0.150752)
(-1.53006 3.02383 0.228103)
(-1.63559 3.87578 -0.0437627)
(-2.04574 4.04556 -0.17936)
(-1.03542 4.36979 0.687236)
(-3.70188 2.13809 -0.499114)
(-1.54735 4.70759 0.192317)
(-1.23623 4.43269 0.495438)
(-1.0993 4.78067 0.464154)
(-3.44041 1.77146 0.136253)
(-2.65777 3.5583 1.35759)
(-1.10824 4.3803 0.74689)
(-1.84996 4.63564 1.64363)
(-1.70922 4.9325 1.6299)
(-3.06089 4.07032 -0.363807)
(-2.99466 3.51792 3.31577)
(-3.41065 3.90298 2.5252)
(-2.36725 4.82014 2.96493)
(-1.09064 5.13732 2.75478)
(-0.0796938 4.51688 1.29684)
(-0.825576 4.37639 -0.29182)
(-1.38341 3.51521 1.00809)
(-2.98586 3.59781 1.27045)
(-1.87344 3.70259 1.51375)
(-1.82249 3.94121 0.833649)
(-1.48497 2.01048 0.958619)
(-0.600917 1.32911 1.77348)
(-2.53313 1.45422 0.258017)
(-1.27216 1.15063 0.846558)
(-1.60573 0.672767 1.60446)
(-1.29793 1.18211 1.44211)
(-0.895677 0.836566 0.641669)
(0.830063 0.0991514 0.560983)
(-0.183919 0.300331 1.02446)
(0.264763 1.08528 1.15282)
(0.737005 0.630477 0.376659)
(1.78688 0.839118 -0.215059)
(0.852647 1.3793 -0.0720215)
(-1.07411 0.495732 0.174029)
(-0.924296 -0.294628 -0.0874616)
(-0.182626 0.27324 0.454399)
(0.0334627 0.0125228 0.112216)
(-0.295639 0.0593089 0.775654)
(-0.309915 0.331665 0.319742)
(0.728383 0.0462346 -1.13651)
(1.20037 0.254687 -2.56738)
(0.196055 0.541091 -3.12821)
(-0.139141 0.565049 -1.77749)
(0.305089 0.420841 -0.724624)
(0.844788 0.257169 -0.656766)
(0.283005 -0.126644 -0.753499)
(0.270393 -0.25891 -0.683335)
(0.0768415 -0.350142 -0.685243)
(0.113185 -0.195976 -0.681258)
(-2.20325 1.89539 -0.0744113)
(-2.10433 1.94737 0.0263369)
(-1.51443 2.82548 0.485421)
(-2.1639 2.50792 0.289726)
(-2.21633 2.56914 0.0750915)
(-1.05003 3.47637 0.70519)
(-1.77305 3.70028 0.146904)
(-2.19262 4.20193 -0.142343)
(-1.37498 4.30056 0.582785)
(-1.15072 4.22428 0.749333)
(-3.91028 1.6284 -0.312278)
(-1.84487 4.6077 0.441701)
(-1.44915 4.41417 0.600773)
(-1.26081 4.60866 0.581293)
(-1.28022 4.76876 1.05159)
(-3.44207 1.84495 0.0964135)
(-2.27296 3.93442 0.814028)
(-2.20172 3.78918 0.76935)
(-2.14517 4.5902 1.41056)
(-1.72214 4.98212 1.47959)
(-1.43471 4.89805 2.07391)
(-3.19119 4.07227 -0.157139)
(-3.75583 3.19561 2.8432)
(-3.95304 3.59404 1.99844)
(-2.91565 4.78982 2.57962)
(-0.964261 5.43495 2.87729)
(-0.171318 4.54749 1.78324)
(-0.812574 4.38675 1.9407)
(-0.653738 4.41649 -0.470093)
(-1.93113 3.41275 1.00601)
(-2.82465 3.77686 1.63518)
(-2.32785 3.83707 1.58387)
(-2.05881 3.90922 1.16486)
(-1.42542 1.87463 1.20856)
(-0.774076 1.28944 1.89171)
(-1.15143 1.6622 1.4276)
(-2.73499 1.04697 0.351641)
(-1.52738 0.980848 0.870538)
(-1.84012 0.747513 1.53353)
(-1.61685 1.2134 1.42294)
(-1.14721 0.855802 0.878979)
(0.631865 0.127566 0.686102)
(-0.171808 0.276949 1.02702)
(-0.00386801 1.04808 1.30387)
(0.194573 1.7059 1.60495)
(0.487302 0.624284 0.427011)
(1.38528 0.809096 -0.0638201)
(0.672099 1.41307 -0.0523755)
(-1.17394 0.503751 0.198776)
(-0.982252 -0.281803 -0.0311082)
(-0.245087 0.25104 0.450163)
(-0.025858 0.000261909 0.103339)
(-0.38666 0.0320716 0.854111)
(-0.336746 0.322656 0.360114)
(-0.683454 0.26595 0.794298)
(0.49768 -0.0587138 -1.01211)
(0.840239 0.0505022 -2.43915)
(0.079794 0.434321 -2.99463)
(-0.209893 0.529623 -1.54795)
(0.309582 0.43883 -0.81745)
(0.843577 0.286203 -0.723209)
(0.297318 -0.11632 -0.778126)
(0.255432 -0.248183 -0.713954)
(0.0441172 -0.346427 -0.719683)
(0.0621623 -0.179343 -0.711886)
(-0.309089 -0.0855513 -0.887078)
(-1.21749 2.48947 0.0224352)
(-2.23933 1.76906 -0.0238338)
(-0.859234 3.15437 0.0792086)
(-2.15724 1.7836 0.0113713)
(-2.19138 2.28559 0.61151)
(-1.5429 2.81984 0.643664)
(-2.06523 2.71368 0.512969)
(-2.024 2.74313 -0.103402)
(-1.6828 3.31324 0.617731)
(-1.17995 3.46081 0.725144)
(-2.98532 2.6875 0.247687)
(-2.32097 4.24153 -0.314545)
(-1.60717 4.18948 0.541467)
(-1.20545 4.22514 0.734065)
(-1.40877 4.29718 0.672721)
(-3.93538 1.59413 -0.319531)
(-2.3586 4.28206 0.302132)
(-1.89223 4.28194 0.636846)
(-1.86162 4.31321 0.657285)
(-1.85984 4.48707 0.936582)
(-1.15116 4.69633 1.32215)
(-3.55581 1.87495 0.00386377)
(-3.36184 2.75588 1.18401)
(-2.38528 3.64573 0.844619)
(-2.65919 4.18503 1.03104)
(-1.45181 5.0963 1.31243)
(-1.47972 4.96854 2.05112)
(-1.50124 4.99034 2.17861)
(-3.51768 4.01862 0.246199)
(-4.20236 2.96234 2.40564)
(-4.03498 3.5654 1.94282)
(-3.49599 4.62111 2.3104)
(-1.8719 5.05403 3.36594)
(-0.742812 4.73676 1.63451)
(-1.04728 4.5359 1.87794)
(0.450611 4.5939 0.787925)
(-0.668071 4.41774 -0.549396)
(-2.24103 3.37511 0.998227)
(-3.08759 3.83134 1.49807)
(-2.75695 3.79538 1.5527)
(-2.29975 3.90861 1.47758)
(-1.46475 1.81587 1.50283)
(-0.705454 1.22892 2.16692)
(-0.654439 1.71371 1.79485)
(-0.492944 2.09438 0.982789)
(-2.84397 0.815253 0.417572)
(-1.759 0.899105 0.808013)
(-1.96933 0.768203 1.5243)
(-1.9323 1.1539 1.43659)
(-1.37123 0.830156 1.10984)
(0.469845 0.136266 0.784618)
(-0.276444 0.247685 0.970767)
(-0.240292 1.05148 1.40944)
(-0.173178 1.75621 1.55992)
(0.107317 1.91079 1.59261)
(0.270765 0.605485 0.457117)
(1.08412 0.802639 0.0352334)
(0.445444 1.38898 -0.0189818)
(-1.26842 0.546271 0.197584)
(-1.03367 -0.266447 0.0171897)
(-0.350669 0.223963 0.432127)
(-0.0975707 -0.0127229 0.115915)
(-0.483942 0.01296 0.930684)
(-0.374606 0.326105 0.440693)
(-0.722672 0.22667 0.769485)
(-0.684751 0.268436 0.633292)
(0.364475 -0.117397 -0.917174)
(0.567839 -0.131968 -2.30273)
(-0.00270182 0.347387 -2.83792)
(-0.238931 0.493132 -1.3895)
(0.314648 0.460285 -0.893645)
(0.802729 0.302435 -0.76493)
(0.316031 -0.102355 -0.796382)
(0.234983 -0.234199 -0.737172)
(0.0145408 -0.344673 -0.755346)
(0.0126155 -0.165838 -0.734816)
(-0.327976 -0.0601494 -0.957208)
(-0.740031 0.0239787 -1.44752)
(-1.62132 1.90891 -0.00559719)
(-1.62866 2.17354 0.0834167)
(-1.13408 2.74177 -0.0124618)
(-0.693214 2.77431 -0.0101327)
(-2.29416 1.61832 0.052803)
(-1.14589 2.94437 -0.0581384)
(-0.791246 3.11197 0.0747333)
(-2.11811 1.78936 -9.71456e-05)
(-2.52321 1.90643 0.555326)
(-1.68278 2.73696 0.683581)
(-1.11318 2.95049 0.626758)
(-2.22924 2.68268 -0.00748817)
(-1.88275 2.86731 -0.365629)
(-1.95026 3.24063 0.570354)
(-1.45424 3.37724 0.733479)
(-1.19544 3.56116 0.793239)
(-3.27344 2.34151 0.191344)
(-1.75996 4.37883 0.219346)
(-1.99748 3.99466 0.344013)
(-1.47692 4.20813 0.75812)
(-1.55522 4.30479 0.72123)
(-0.805888 4.74834 0.439075)
(-4.07668 1.19629 -0.365332)
(-2.98578 3.58193 0.815045)
(-2.24055 4.08745 0.620585)
(-2.19689 4.12562 0.823892)
(-2.0794 4.37127 0.795657)
(-1.47582 4.50262 1.40691)
(-1.18118 4.59607 1.48952)
(-3.60797 1.91834 0.221095)
(-3.47459 2.64424 1.32023)
(-2.91703 3.04166 1.05935)
(-2.66789 4.01802 1.02769)
(-1.19267 5.19369 1.39684)
(-1.57882 4.98378 1.95787)
(-1.82565 4.9247 2.2659)
(-1.04141 5.06209 2.4939)
(-3.83918 4.02995 0.79547)
(-4.05675 3.09283 2.23573)
(-4.28808 3.372 1.84758)
(-3.74679 4.3979 2.21269)
(-2.60095 4.83389 3.3537)
(-1.04769 4.7472 1.44567)
(-0.706307 4.80712 1.56354)
(-0.862436 4.18081 1.63424)
(-0.604186 4.09751 1.3535)
(-2.00309 3.60963 -0.188856)
(-2.89722 3.01942 0.99594)
(-3.40001 3.74228 1.12131)
(-2.9301 3.86808 1.54273)
(-2.73598 3.79384 1.77095)
(-1.59781 1.62851 1.83717)
(-1.00858 1.17915 2.44135)
(-1.56032 1.73324 1.5507)
(-0.713187 2.24243 1.0048)
(-0.136149 2.53368 1.57525)
(-3.03853 0.558034 0.49668)
(-2.11027 0.925214 0.739859)
(-2.18514 0.745364 1.52982)
(-2.24451 1.07108 1.43823)
(-1.55771 0.833155 1.31172)
(0.28721 0.188627 0.849131)
(-0.412332 0.209937 0.830769)
(-0.623846 1.01469 1.52638)
(-0.552641 1.69335 1.52713)
(-0.1042 1.83828 1.57672)
(-1.2536 1.61086 1.42761)
(0.0624509 0.578396 0.465195)
(0.799918 0.774961 0.108953)
(0.0688823 1.29597 -0.101104)
(-1.31385 0.581378 0.192871)
(-1.07732 -0.237491 0.0991619)
(-0.433615 0.198281 0.468426)
(-0.171689 -0.0345578 0.154768)
(-0.587294 0.000696678 0.969867)
(-0.440976 0.332741 0.490545)
(-0.74387 0.199384 0.760338)
(-0.734106 0.259961 0.66319)
(-1.2815 0.306786 1.20395)
(0.328431 -0.100408 -0.881267)
(0.386153 -0.273127 -2.17955)
(-0.0674651 0.273171 -2.69389)
(-0.228983 0.487089 -1.39527)
(0.302567 0.484687 -0.956692)
(0.725081 0.30064 -0.767782)
(0.334295 -0.084735 -0.808219)
(0.214251 -0.225655 -0.748849)
(-0.0191942 -0.339213 -0.804687)
(-0.036201 -0.154916 -0.747855)
(-0.347587 -0.048202 -1.0259)
(-0.766239 0.0393056 -1.47164)
(-0.751857 0.354874 -1.64442)
(-0.827603 2.0626 -0.0453614)
(-1.7703 1.79825 -0.00930684)
(-0.885781 2.48271 0.165447)
(-1.17092 2.19216 0.0748733)
(-1.80223 1.97535 0.147084)
(-1.49795 2.58083 0.086831)
(-1.1085 2.75376 0.19605)
(-1.03103 2.78043 -0.0559286)
(-2.25054 1.55992 0.130446)
(-1.627 2.55196 0.0592188)
(-1.05783 2.82666 0.112909)
(-0.934555 3.08307 0.0511701)
(-2.3436 1.48261 0.0469514)
(-2.51011 1.78312 0.638644)
(-1.93308 2.55585 0.491522)
(-1.41528 2.93537 0.554099)
(-1.08094 3.17593 0.561036)
(-2.12668 2.82517 -0.0922285)
(-1.8677 3.04956 -0.434336)
(-2.54733 2.94048 0.585373)
(-1.85648 3.32175 0.629066)
(-1.39934 3.49403 0.862812)
(-0.961537 3.62118 0.842848)
(-3.49068 1.75671 0.261509)
(-2.61665 3.72338 -0.212802)
(-2.1803 4.03123 0.482895)
(-1.98009 4.09861 0.650461)
(-1.71658 4.23145 0.758939)
(-1.14702 4.55995 0.563238)
(-0.747723 4.78062 0.524863)
(-4.1315 0.937767 -0.338646)
(-3.50787 2.78301 1.55114)
(-2.61088 3.71682 1.0968)
(-2.57046 3.82192 1.03112)
(-2.28558 4.23616 0.919314)
(-1.54469 4.40798 1.57629)
(-1.49106 4.37051 1.26049)
(-1.14122 4.56552 1.28043)
(-3.58147 1.90421 0.307278)
(-3.29199 2.59841 1.4008)
(-3.17433 2.76176 1.05655)
(-2.73975 3.91265 1.04753)
(-1.72776 4.99489 1.03797)
(-1.43761 4.85539 2.03689)
(-1.83768 4.89477 2.28375)
(-1.31766 5.14857 2.52259)
(-0.707135 5.19077 2.69056)
(-4.63603 3.38751 1.13052)
(-4.32106 2.78572 1.92242)
(-4.13272 3.54853 1.95132)
(-4.09084 4.00028 2.08262)
(-2.77333 4.90128 3.21778)
(-0.582153 4.9638 1.12247)
(-0.99872 4.75806 1.74044)
(-1.20062 4.31704 1.87139)
(-1.03438 3.98853 1.59323)
(-0.955998 3.87924 1.70684)
(-2.54322 3.27362 -0.00308876)
(-3.51887 2.73709 0.789405)
(-3.42899 3.73041 1.04352)
(-2.99409 3.98943 1.79574)
(-3.08018 3.55762 1.89054)
(-1.69592 1.48488 2.04834)
(-1.32519 1.1452 2.51382)
(-1.52675 2.01476 1.6754)
(-0.702325 2.26464 0.995577)
(0.0247688 2.59228 1.52642)
(-0.650116 3.09594 1.61917)
(-3.27474 0.256894 0.545865)
(-2.34517 0.802565 0.849492)
(-2.38903 0.753623 1.58363)
(-2.53306 0.971638 1.32759)
(-1.70388 0.817387 1.47244)
(0.158715 0.275213 0.858693)
(-0.501028 0.158362 0.61221)
(-1.06193 0.903729 1.70338)
(-0.559162 1.70658 1.45796)
(-0.454354 1.74754 1.48955)
(-0.957414 1.70263 1.5489)
(-1.18114 2.22718 1.55665)
(-0.116998 0.553862 0.453868)
(0.516202 0.733737 0.149519)
(-0.109279 1.26532 -0.15112)
(-1.39333 0.598524 0.13722)
(-1.10771 -0.205079 0.199285)
(-0.521851 0.181487 0.524977)
(-0.24351 -0.0438939 0.152358)
(-0.680475 -0.0158087 0.957804)
(-0.484079 0.314659 0.619647)
(-0.799146 0.188287 0.690789)
(-0.819642 0.252721 0.696057)
(-1.31739 0.329093 1.25325)
(-1.72996 0.481211 0.522015)
(0.345371 -0.0153594 -0.88805)
(0.287449 -0.357763 -2.08683)
(-0.0868402 0.222788 -2.60798)
(-0.222469 0.497787 -1.4222)
(0.29328 0.50326 -1.00226)
(0.650191 0.287548 -0.723853)
(0.342308 -0.0710389 -0.807116)
(0.179368 -0.219143 -0.75726)
(-0.0428304 -0.351754 -0.868546)
(-0.0868944 -0.149214 -0.7516)
(-0.379685 -0.0382393 -1.06396)
(-0.790541 0.051773 -1.50289)
(-0.751228 0.374656 -1.6727)
(-0.488194 0.781479 -2.02601)
(-1.27004 1.5524 0.192887)
(-1.35537 1.78022 -0.134688)
(-1.16355 2.08157 -0.0135824)
(-1.10491 1.7721 -0.0710721)
(-1.91489 1.66395 -0.0934953)
(-1.04131 2.47446 0.0125229)
(-0.732905 2.72538 0.150549)
(-0.856499 2.45918 0.19573)
(-2.00043 1.63813 0.124848)
(-1.58571 2.53623 0.121059)
(-0.979406 2.82686 0.219236)
(-0.85639 2.8503 0.135353)
(-0.492991 3.03713 0.113967)
(-2.23961 1.46472 0.0702699)
(-1.95652 2.12862 0.115203)
(-1.55753 2.55448 0.175873)
(-1.1349 2.87951 0.140974)
(-0.91071 3.0082 0.226628)
(-2.35404 1.56535 0.142029)
(-2.52655 1.75804 0.626949)
(-2.33957 2.24017 0.442712)
(-1.57311 2.87695 0.54118)
(-1.12066 3.10072 0.606608)
(-0.669123 3.27939 0.654288)
(-2.61652 2.36694 -0.0449836)
(-2.0836 3.15285 -0.208996)
(-2.11376 3.21944 0.573581)
(-2.06905 3.21517 0.551897)
(-1.56346 3.40367 0.806407)
(-1.19513 3.58513 0.731267)
(-0.898209 3.8873 0.603186)
(-3.49064 1.651 0.24547)
(-3.00638 3.48549 -0.639417)
(-2.06556 4.03283 0.306324)
(-1.85543 4.13975 0.560472)
(-1.70711 4.15065 0.794431)
(-1.44103 4.47048 0.640201)
(-1.1591 4.6274 0.822137)
(-1.03742 4.54067 0.887505)
(-4.09743 0.781878 -0.107326)
(-3.46243 2.72927 1.65689)
(-3.05022 3.15794 1.15753)
(-2.85499 3.63697 1.06687)
(-2.35809 4.2681 0.600354)
(-1.87038 4.33078 1.44852)
(-1.60453 4.33833 1.30599)
(-1.41422 4.60675 1.1217)
(-0.848158 4.74653 1.13469)
(-3.58508 2.06602 0.408527)
(-3.70922 1.94218 1.06838)
(-3.22176 2.73989 1.10376)
(-3.06579 3.77963 1.02012)
(-2.8614 4.41053 0.745347)
(-1.58162 4.82027 2.02643)
(-1.41275 5.05889 2.35019)
(-1.55017 5.12701 2.46393)
(-1.02974 5.1304 2.70811)
(-0.187566 4.79677 3.09382)
(-4.93896 2.98914 1.20007)
(-4.86204 2.48476 1.41149)
(-4.2158 3.39932 1.99223)
(-4.32742 3.84104 1.95214)
(-3.17908 4.83271 3.02583)
(-1.18628 4.92299 1.33941)
(-1.59325 4.5374 1.93828)
(-1.32157 4.25633 1.89723)
(-1.26479 3.92884 1.70965)
(-0.973677 3.8234 1.88648)
(-1.37081 4.18137 1.96936)
(-3.33667 2.68943 0.216215)
(-3.48257 2.90444 0.50508)
(-3.55207 3.64834 0.944894)
(-3.51935 3.72364 1.86692)
(-3.15806 3.45293 1.91035)
(-1.78173 1.24354 2.20801)
(-1.36733 1.04041 2.61201)
(-1.08796 2.00928 2.01885)
(-0.868603 2.29178 1.1707)
(0.0370551 2.6039 1.43441)
(-0.860629 3.00371 1.61359)
(-0.673824 3.39035 1.7613)
(-3.5502 -0.0639119 0.546683)
(-2.51727 0.641823 1.02351)
(-2.56045 0.667427 1.57549)
(-2.70525 0.922724 1.19559)
(-1.79624 0.810034 1.56592)
(0.0539871 0.366563 0.843558)
(-0.546434 0.0944334 0.469994)
(-1.33567 0.722523 1.84069)
(-0.395103 1.75705 1.39871)
(-0.827077 1.55001 1.40657)
(-1.11654 1.63668 1.4938)
(-1.41064 2.17839 1.55349)
(-1.3441 2.5644 1.57356)
(-0.270171 0.560316 0.428452)
(0.244007 0.671639 0.165266)
(-0.483551 1.11983 -0.293681)
(-1.45956 0.633199 0.222323)
(-1.1307 -0.168241 0.284729)
(-0.669306 0.122288 0.477502)
(-0.310483 -0.0585385 0.184859)
(-0.755606 -0.0340511 0.906944)
(-0.523539 0.302807 0.822904)
(-0.773617 0.17738 0.707264)
(-0.892023 0.233122 0.677844)
(-1.25789 0.329577 1.43245)
(-1.77284 0.478976 0.528483)
(-1.92517 1.17603 1.14769)
(0.352395 0.0392628 -0.909037)
(0.251134 -0.386395 -2.02525)
(-0.0690753 0.20403 -2.62519)
(-0.219365 0.493923 -1.47087)
(0.285026 0.524173 -1.03846)
(0.571439 0.274615 -0.66337)
(0.349233 -0.0528865 -0.797391)
(0.15197 -0.208056 -0.760915)
(-0.0912063 -0.357556 -0.877263)
(-0.133759 -0.151093 -0.756734)
(-0.415339 -0.0321769 -1.03859)
(-0.802182 0.068435 -1.53262)
(-0.750669 0.397088 -1.70468)
(-0.564208 0.787697 -1.94627)
(-1.35055 1.32532 -0.324977)
(-1.32483 1.38039 -0.190064)
(-1.43916 1.42384 0.110406)
(-1.0512 1.94341 0.159638)
(-1.37607 1.44895 0.106281)
(-1.36849 1.8289 -0.0984493)
(-1.41126 1.99676 -0.0174271)
(-0.863759 2.34588 0.16165)
(-1.08426 2.0583 0.111467)
(-1.95569 1.60591 -0.0266026)
(-1.25379 2.41263 -0.00900365)
(-1.06976 2.56173 0.0728582)
(-0.838739 2.70891 0.217231)
(-0.745059 2.7283 0.179862)
(-2.04487 1.4767 0.189726)
(-1.79501 2.23077 0.193657)
(-1.45943 2.64187 0.118012)
(-1.10006 2.71635 0.165473)
(-0.992125 2.72022 0.251051)
(-0.693661 2.97153 0.0973127)
(-2.32946 1.30129 0.0341754)
(-2.01995 1.95177 0.176885)
(-1.81381 2.3799 0.272974)
(-1.41672 2.67894 0.15027)
(-1.07216 2.85049 0.33711)
(-0.691023 2.95447 0.384329)
(-2.56912 1.29097 0.0704722)
(-2.72994 1.62063 0.410442)
(-2.17836 2.42571 0.405738)
(-1.81376 2.69192 0.46847)
(-1.32296 2.99342 0.556311)
(-0.915909 3.16121 0.603661)
(-0.730607 3.32928 0.407216)
(-3.01681 1.98343 0.010127)
(-2.11643 3.2372 -0.130431)
(-2.47843 2.74024 0.560822)
(-2.19763 3.15031 0.388358)
(-1.64048 3.38298 0.746899)
(-1.34637 3.58389 0.655658)
(-0.991047 3.80072 0.587214)
(-0.760631 3.88692 0.69031)
(-3.69959 1.01323 0.271446)
(-3.30941 3.05934 -0.75902)
(-1.90287 3.99968 0.164207)
(-2.37609 3.67658 0.500128)
(-1.89606 3.96225 0.837403)
(-1.59456 4.4104 0.7358)
(-1.32396 4.48612 0.892989)
(-0.722507 4.51259 0.882225)
(-0.651496 4.43624 0.824797)
(-4.1417 0.64117 0.0239165)
(-3.7043 2.14971 1.17984)
(-3.44001 2.73231 1.00581)
(-3.0056 3.40687 1.27495)
(-2.37549 4.08738 1.27412)
(-2.05616 4.26284 1.37464)
(-2.00267 4.33981 1.28903)
(-1.66889 4.51478 1.04714)
(-1.25048 4.66654 1.08766)
(-0.92574 4.70289 1.25847)
(-3.94958 1.53449 0.494179)
(-3.83844 1.80321 0.995154)
(-3.32789 2.65987 1.19006)
(-3.83 3.25958 0.762875)
(-3.3317 4.00373 0.886746)
(-1.96978 4.76599 1.87466)
(-1.89639 5.05823 2.34151)
(-1.43525 5.11576 2.62402)
(-1.39119 5.04687 2.59413)
(-0.427116 5.15406 2.77335)
(-0.267136 4.87707 2.46625)
(-4.91531 2.95465 1.21423)
(-4.8228 2.6018 1.45891)
(-4.19107 3.42813 2.08382)
(-4.77677 3.57461 1.81563)
(-3.47659 4.79174 3.03085)
(-1.00284 5.00701 1.3233)
(-2.01628 4.20567 2.12884)
(-1.75673 3.91426 2.035)
(-1.33032 3.95063 1.87965)
(-0.987117 3.82044 2.05417)
(-0.752394 4.34169 1.72507)
(-1.36475 4.15158 1.83953)
(-4.20589 1.78761 0.191668)
(-3.3335 3.02672 0.438582)
(-3.68164 3.51933 0.897087)
(-4.161 3.32371 1.44828)
(-3.33361 3.2867 1.97855)
(-1.70175 1.09279 2.33433)
(-1.36785 1.14477 2.55469)
(-1.16201 2.23602 1.89277)
(-1.17848 2.23908 1.43363)
(-0.534036 2.49308 1.42919)
(-0.848933 2.99093 1.52923)
(-0.878136 3.3694 1.76184)
(-1.30316 3.59871 1.37778)
(-3.83132 -0.328002 0.58155)
(-2.72973 0.535164 1.1073)
(-2.68832 0.578243 1.52012)
(-2.76761 0.984401 1.15033)
(-1.85963 0.830712 1.59479)
(-0.0630563 0.475114 0.782593)
(-0.58674 0.0628643 0.454182)
(-1.53312 0.694497 1.8064)
(-0.377925 1.96984 1.31448)
(-0.738063 1.60475 1.26752)
(-1.23752 1.58751 1.45389)
(-1.56357 2.1034 1.46487)
(-1.55083 2.53664 1.48211)
(-1.39952 2.60544 1.26983)
(-0.445151 0.5897 0.390343)
(-0.118757 0.501359 0.140262)
(-0.292027 1.36694 -0.155999)
(-1.54015 0.64686 0.404082)
(-1.15866 -0.129921 0.348454)
(-0.772015 0.0646696 0.437636)
(-0.373574 -0.0595144 0.237466)
(-0.785055 -0.00819553 0.799817)
(-0.641023 0.27824 0.950472)
(-0.75684 0.186153 0.794741)
(-0.926765 0.224634 0.60263)
(-1.50147 0.35201 1.24542)
(-1.83201 0.495456 0.555117)
(-1.97074 1.14739 1.13393)
(-1.73627 1.73907 0.93788)
(0.341359 0.120752 -0.938388)
(0.232758 -0.399788 -1.97803)
(-0.0428114 0.209005 -2.65054)
(-0.22615 0.488306 -1.52471)
(0.285277 0.550312 -1.06821)
(0.506104 0.259449 -0.591337)
(0.357725 -0.0322851 -0.792475)
(0.140153 -0.198146 -0.756195)
(-0.128805 -0.369272 -0.879479)
(-0.173847 -0.150963 -0.770252)
(-0.463568 -0.0246976 -1.00297)
(-0.826394 0.0836074 -1.55766)
(-0.752613 0.428059 -1.72738)
(-0.641887 0.79095 -1.85728)
(-1.37972 1.3068 -0.319263)
(-1.22266 1.20401 -0.154057)
(-1.04901 1.51913 -0.104842)
(-1.34464 1.36328 -0.0929754)
(-1.05092 1.79351 0.0802619)
(-1.25994 1.49174 -0.139525)
(-1.54787 1.33456 0.0891594)
(-1.46332 1.6685 0.0741093)
(-1.02286 2.10671 0.245588)
(-1.19576 1.80715 0.181234)
(-0.991393 1.72033 0.249891)
(-1.51443 1.73165 -0.202264)
(-1.33935 2.1027 0.0125238)
(-0.967363 2.35003 0.219651)
(-0.894119 2.4674 0.145799)
(-0.762787 2.34949 0.18455)
(-2.21725 1.18085 0.0688033)
(-1.31839 2.39446 0.0363194)
(-1.34862 2.483 -0.0239214)
(-0.940922 2.66119 0.189169)
(-0.893419 2.55733 0.291911)
(-0.762795 2.70632 0.313483)
(-2.14004 1.31866 0.251657)
(-2.1446 1.81929 0.106866)
(-1.75638 2.47241 0.194139)
(-1.19403 2.6624 0.221567)
(-0.973516 2.69756 0.287754)
(-0.878265 2.697 0.352736)
(-0.877244 2.8518 0.222502)
(-2.42763 1.14016 0.0200315)
(-2.22163 1.66172 0.273792)
(-1.90397 2.19465 0.246607)
(-1.64631 2.46469 0.148443)
(-1.33569 2.70207 0.366547)
(-0.791018 2.94308 0.36345)
(-0.524237 2.87863 0.556677)
(-2.59778 1.34332 -0.00894553)
(-2.5571 1.94801 0.349272)
(-2.12456 2.4498 0.334774)
(-1.88401 2.61519 0.453271)
(-1.51794 2.92403 0.49555)
(-1.00528 3.13357 0.56609)
(-0.769631 3.21345 0.598404)
(-0.806321 3.25073 0.597156)
(-3.36827 1.56658 -0.103262)
(-2.54998 2.79905 0.173616)
(-2.74498 2.63034 0.487386)
(-2.32105 3.14544 0.443216)
(-1.94496 3.27458 0.656682)
(-1.43983 3.54675 0.665135)
(-1.24648 3.67952 0.530749)
(-0.959065 3.7634 0.659349)
(-0.57953 3.96317 0.692893)
(-3.68338 0.90465 0.157131)
(-3.29752 2.74716 -0.301466)
(-2.93278 3.07207 0.219983)
(-2.62742 3.5077 0.514889)
(-2.11854 3.86588 0.757513)
(-1.49756 4.33182 0.838871)
(-1.46123 4.33006 0.919486)
(-0.955251 4.36092 0.994442)
(-0.635632 4.41899 0.863476)
(-0.234661 4.40891 0.830624)
(-4.1928 0.501291 0.126489)
(-4.05904 1.51017 0.808235)
(-3.56611 2.65177 0.924234)
(-2.98503 3.35316 1.47151)
(-2.81299 3.80041 1.26149)
(-2.26595 4.12402 1.30429)
(-2.16932 4.44693 0.985324)
(-1.89931 4.40886 0.976436)
(-1.4901 4.56601 1.00687)
(-1.07472 4.67351 1.26511)
(-0.788492 4.65983 1.47715)
(-3.72144 2.01854 0.407964)
(-3.83583 1.6616 0.843162)
(-3.1515 3.05712 1.3446)
(-4.06257 3.01162 0.585787)
(-3.23316 4.03925 1.00984)
(-2.43491 4.43728 1.78916)
(-2.48187 4.87431 2.25175)
(-2.1431 5.07894 2.38235)
(-1.45987 5.02796 2.59183)
(-0.761601 5.15428 2.60419)
(-0.662728 4.95835 2.64827)
(-0.397792 4.73843 1.96412)
(-5.43718 1.43015 0.422663)
(-4.85365 2.45131 1.56058)
(-4.58672 3.01933 1.93814)
(-5.32243 3.24459 1.3197)
(-3.69863 4.67142 3.00955)
(-0.848919 5.10954 1.58092)
(-2.20462 4.03633 2.27782)
(-2.13153 3.87144 2.07145)
(-1.59282 3.91084 2.04216)
(-1.35837 3.84265 2.0157)
(-1.64101 3.86321 2.04863)
(-1.39316 4.16521 1.74779)
(-0.765978 4.10545 1.80604)
(-4.90877 1.12002 0.0212293)
(-3.43041 3.10873 0.549856)
(-3.80799 3.3994 0.851371)
(-4.38363 3.16258 1.2625)
(-3.45962 2.96649 1.9647)
(-1.51439 0.864632 2.5775)
(-1.42263 1.07666 2.58047)
(-1.96787 1.95739 1.96419)
(-1.29464 2.39323 1.23746)
(-0.950728 2.39204 1.44117)
(-0.57636 3.04904 1.45066)
(-1.11166 3.38946 1.66518)
(-1.49674 3.55922 1.26535)
(-1.31785 3.48433 1.23561)
(-4.06661 -0.506225 0.699423)
(-2.91204 0.337204 1.22706)
(-2.72058 0.556011 1.46538)
(-2.80247 1.04934 1.26404)
(-1.98234 0.777273 1.6052)
(-0.11128 0.549394 0.760267)
(-0.682683 -0.0679167 0.498183)
(-1.96974 0.18315 1.68741)
(-1.18858 1.43415 1.545)
(-0.975196 1.46219 1.1523)
(-1.5043 1.42005 1.33246)
(-1.64135 2.0749 1.41889)
(-1.71978 2.52284 1.4028)
(-1.54697 2.56221 1.26798)
(-1.10045 2.44381 1.20261)
(-0.628937 0.601783 0.345985)
(-0.304421 0.427211 0.123794)
(-0.777439 1.098 -0.422369)
(-1.71946 0.507082 0.570609)
(-1.20954 -0.10426 0.395183)
(-0.843704 0.0374306 0.379645)
(-0.447951 -0.0469674 0.280205)
(-0.741593 0.0552727 0.649488)
(-0.748759 0.231574 0.99218)
(-0.897139 0.178715 0.750724)
(-0.937139 0.210244 0.567794)
(-1.43722 0.345332 1.35009)
(-1.88896 0.493964 0.56767)
(-2.04638 1.14698 1.06857)
(-1.71671 1.75275 0.941424)
(-1.40596 1.98686 0.645667)
(0.33127 0.200112 -0.971232)
(0.207852 -0.410745 -1.92827)
(-0.0265286 0.20997 -2.68038)
(-0.245598 0.475754 -1.57586)
(0.294038 0.584518 -1.08697)
(0.469356 0.263374 -0.511577)
(0.364622 -0.00691943 -0.78761)
(0.12723 -0.184658 -0.741783)
(-0.162744 -0.378111 -0.875383)
(-0.206125 -0.147074 -0.80271)
(-0.486558 -0.0227727 -1.03464)
(-0.849747 0.0967094 -1.58588)
(-0.775596 0.453288 -1.73343)
(-0.710835 0.789785 -1.76771)
(-1.39701 1.28118 -0.332046)
(-1.23638 1.20651 -0.164935)
(-1.05293 1.48635 0.342894)
(-1.04004 1.32033 0.0507431)
(-1.1192 1.42972 -0.0699728)
(-1.13759 1.66317 -0.0181302)
(-1.01342 1.5576 -0.0757758)
(-1.37601 1.31298 -0.0263119)
(-1.13875 1.7803 -0.0185875)
(-0.835598 2.03549 -0.129823)
(-0.947024 1.83717 0.0433639)
(-1.27307 1.48859 -0.182781)
(-1.60634 1.27889 0.0792754)
(-1.51092 1.66995 0.0643508)
(-1.11581 2.08927 0.122182)
(-0.705794 2.24413 0.273504)
(-0.587209 2.21476 0.0523208)
(-0.910632 1.93423 0.216836)
(-1.62351 1.68661 -0.262107)
(-1.40181 2.07609 0.0471046)
(-1.34831 2.22169 0.128126)
(-0.995435 2.41094 0.141858)
(-0.858718 2.43886 0.19988)
(-0.825049 2.44852 0.0891885)
(-2.28132 1.06073 0.0687584)
(-1.68539 2.08393 0.00926358)
(-1.44333 2.4397 -0.0939707)
(-1.24333 2.5335 0.115765)
(-0.968177 2.5108 0.255488)
(-0.77193 2.47135 0.405341)
(-0.761674 2.67353 0.289888)
(-2.25765 1.09216 0.218835)
(-2.23033 1.73655 0.0456286)
(-1.76754 2.38487 0.118485)
(-1.42822 2.46804 0.119123)
(-1.17538 2.54585 0.227032)
(-0.766849 2.7272 0.309325)
(-0.826088 2.72633 0.421959)
(-0.601464 2.79242 0.342712)
(-2.46191 1.05537 0.0178904)
(-2.28597 1.60413 0.230557)
(-1.91569 2.08672 0.140596)
(-1.75371 2.34288 0.224872)
(-1.38836 2.6521 0.321701)
(-0.832705 2.86669 0.377698)
(-0.596574 2.88061 0.503462)
(-0.797647 2.87172 0.598727)
(-2.75758 1.06054 0.0194379)
(-2.62618 1.83551 0.0798075)
(-2.12128 2.4333 0.396658)