/*--------------------------------*- C++ -*----------------------------------*\
  =========                 |
  \\      /  F ield         | OpenFOAM: The Open Source CFD Toolbox
   \\    /   O peration     | Website:  https://openfoam.org
    \\  /    A nd           | Version:  7
     \\/     M anipulation  |
\*---------------------------------------------------------------------------*/
FoamFile
{
    version     2.0;
    format      ascii;
    class       volScalarField;
    location    "8.5";
    object      p;
}
// * * * * * * * * * * * * * * * * * * * * * * * * * * * * * * * * * * * * * //

dimensions      [0 2 -2 0 0 0 0];

internalField   nonuniform List<scalar> 
18720
(
-69.78
-69.409
-69.8399
-69.7184
-69.851
-68.7874
-69.4831
-69.3087
-69.6368
-69.9069
-69.6512
-69.7971
-69.6759
-67.5733
-69.0265
-68.5937
-69.3618
-69.737
-69.1783
-69.5497
-69.9258
-69.708
-69.5754
-69.7491
-69.6363
-69.551
-67.595
-67.8846
-67.4301
-68.2326
-69.4751
-68.4997
-69.2477
-69.4739
-70.0361
-69.0684
-69.481
-69.809
-69.9655
-69.5742
-69.4878
-69.7008
-69.5865
-69.5193
-69.3497
-66.7922
-67.868
-67.3748
-67.9106
-68.394
-67.3529
-68.0225
-68.869
-69.676
-68.4297
-69.1692
-69.2877
-70.0061
-70.0641
-68.9709
-69.3958
-69.7004
-69.8847
-69.5502
-69.3499
-69.3829
-69.654
-69.5327
-69.4839
-69.3507
-68.9046
-65.8974
-67.1989
-66.3972
-67.1369
-68.3558
-67.2613
-67.729
-68.1289
-69.2253
-67.3609
-67.895
-68.6235
-69.6473
-70.2629
-68.3928
-69.1399
-69.1361
-69.7623
-70.1019
-69.6805
-68.8829
-69.3037
-69.6033
-69.7936
-69.4451
-69.1859
-68.9075
-69.2589
-69.6124
-69.4754
-69.4517
-69.3533
-68.9005
-68.6223
-65.1744
-66.135
-65.8887
-66.172
-67.6864
-66.2649
-66.6789
-68.5059
-68.8201
-67.1273
-67.6294
-67.7136
-69.5273
-70.0311
-67.5035
-67.951
-68.414
-69.2316
-70.1412
-70.3435
-68.3669
-69.1269
-69.0544
-69.5146
-69.7772
-69.9611
-69.2696
-68.8037
-69.2228
-69.5004
-69.7185
-69.3267
-69.1093
-68.8772
-68.5976
-69.1418
-69.5586
-69.4151
-69.416
-69.3558
-68.896
-68.6473
-68.2879
-63.5223
-64.8597
-64.9403
-65.428
-66.8809
-65.6155
-65.8183
-67.2836
-69.2372
-66.204
-66.3957
-67.9028
-69.8692
-70.3431
-67.1726
-67.6976
-67.5141
-68.819
-70.4385
-70.5842
-67.6643
-68.0449
-68.2719
-68.7916
-69.6504
-70.5706
-70.1103
-68.396
-69.1219
-69.0418
-69.3003
-69.4636
-69.7982
-69.9125
-68.9028
-68.7364
-69.1547
-69.4071
-69.5872
-69.2176
-69.0476
-68.8478
-68.4559
-68.2708
-69.041
-69.499
-69.3543
-69.3724
-69.3438
-68.891
-68.6755
-68.3097
-67.7914
-62.6115
-63.6794
-63.3018
-64.21
-65.9888
-64.3825
-65.0661
-66.3158
-67.9738
-65.4908
-65.5909
-66.4047
-68.8589
-70.4629
-66.3941
-66.1408
-67.2488
-69.0565
-70.7932
-71.1978
-67.8225
-67.7604
-67.5216
-68.384
-69.5577
-71.3274
-71.0065
-67.8272
-68.1458
-68.2868
-68.4725
-69.1393
-70.0699
-71.0304
-70.1224
-68.4687
-69.1425
-69.031
-69.1381
-69.1545
-69.5147
-69.66
-69.6746
-68.4888
-68.6719
-69.0863
-69.3442
-69.4434
-69.1633
-68.9989
-68.8013
-68.4138
-68.1171
-67.7712
-68.9385
-69.4301
-69.2948
-69.3362
-69.3196
-68.8996
-68.7045
-68.336
-67.7978
-66.9611
-61.9723
-62.8437
-62.3338
-62.6809
-64.5946
-63.1897
-63.6473
-65.0183
-66.5503
-64.3932
-64.6696
-65.3774
-66.7992
-69.8273
-65.4089
-65.2986
-66.0552
-67.8295
-70.5606
-71.5171
-66.8013
-66.0389
-66.8324
-68.3519
-69.8547
-72.0369
-72.0015
-67.9275
-67.7133
-67.5814
-68.0318
-68.9277
-70.5264
-72.5168
-71.4365
-67.9911
-68.1845
-68.3502
-68.2461
-68.7129
-69.4999
-70.5745
-71.1349
-69.7978
-68.5368
-69.1376
-69.0222
-69.0203
-68.9006
-69.2752
-69.4192
-69.5207
-69.256
-68.1367
-68.5966
-69.0243
-69.2923
-69.3479
-69.1165
-68.955
-68.7388
-68.3618
-68.0841
-67.4843
-66.971
-68.8137
-69.3515
-69.2379
-69.3112
-69.2945
-68.9285
-68.7287
-68.3611
-67.8024
-66.969
-66.5772
-61.2686
-62.301
-61.5253
-62.5048
-63.1074
-62.0775
-62.4548
-62.9764
-65.4939
-63.1753
-63.61
-64.177
-67.6455
-67.8939
-64.2648
-64.4379
-64.9626
-68.049
-69.965
-71.5937
-65.5039
-65.2302
-65.7673
-67.2711
-69.684
-72.3608
-72.7434
-67.2372
-65.9031
-66.5825
-67.703
-68.8737
-71.1445
-73.3081
-72.8857
-68.1943
-67.609
-67.6073
-67.9124
-68.3779
-69.6931
-72.0669
-72.6353
-71.3141
-68.1322
-68.1856
-68.279
-68.1919
-68.4143
-69.0541
-70.123
-70.9016
-71.0233
-69.3332
-68.5905
-69.1207
-69.0938
-68.9366
-68.7515
-69.0614
-69.2609
-69.3412
-69.1553
-68.689
-67.4624
-68.5244
-68.9716
-69.255
-69.2771
-69.0468
-68.9593
-68.6804
-68.3055
-68.0445
-67.4943
-66.7278
-66.5906
-68.6965
-69.2648
-69.1844
-69.2837
-69.2694
-68.9515
-68.7521
-68.3889
-67.8141
-66.9821
-66.5608
-66.7327
-60.4687
-61.491
-61.0241
-61.6646
-62.7146
-61.2498
-62.329
-62.3075
-63.4332
-61.9186
-62.5402
-62.9611
-64.9862
-66.7471
-62.8215
-63.3733
-64.0007
-66.4041
-67.4775
-71.869
-64.1979
-64.1918
-64.5396
-66.9158
-68.6497
-72.4399
-73.2652
-65.569
-65.2606
-65.4424
-66.683
-68.8239
-71.3578
-73.7577
-73.868
-67.7693
-66.0623
-66.3584
-67.1749
-68.0635
-70.0363
-72.5682
-73.4683
-72.875
-68.6845
-67.4701
-67.52
-67.7811
-67.9305
-69.0814
-71.5652
-72.3054
-72.8122
-71.0978
-68.2901
-68.2137
-68.2835
-68.2198
-68.1235
-68.675
-69.6901
-70.5947
-70.9145
-70.7155
-68.7109
-68.6168
-69.1176
-69.1398
-68.9057
-68.6522
-68.869
-69.0397
-69.147
-69.0262
-68.6471
-67.5709
-66.6887
-68.4551
-68.9336
-69.2231
-69.2238
-69.0224
-68.9914
-68.65
-68.2425
-67.9894
-67.4826
-66.7688
-66.7108
-66.7343
-68.6064
-69.1755
-69.1342
-69.2574
-69.252
-68.9663
-68.778
-68.4117
-67.8266
-66.9965
-66.5358
-66.7293
-66.1994
-59.7266
-60.492
-60.2894
-61.0453
-61.9914
-60.7618
-61.6755
-61.6762
-62.3683
-61.1303
-62.0626
-62.3519
-62.2437
-65.4343
-61.8992
-62.4339
-63.2026
-63.5099
-66.1471
-68.942
-62.783
-62.9941
-63.4127
-64.2358
-67.638
-71.6437
-73.5205
-64.0706
-63.9353
-64.3824
-65.6057
-67.6476
-71.0365
-73.666
-74.5545
-65.8234
-65.2623
-65.294
-66.344
-67.9343
-70.1338
-72.9779
-74.3231
-73.7872
-68.2325
-66.3013
-66.2437
-66.8221
-67.3938
-69.0823
-71.7512
-73.089
-73.6429
-72.878
-68.6475
-67.3933
-67.4247
-67.5255
-67.7312
-68.6354
-70.8184
-71.8981
-72.6482
-72.1705
-70.8107
-68.379
-68.3148
-68.3608
-68.2666
-67.9865
-68.3877
-69.3003
-70.2255
-70.7705
-70.5513
-69.4212
-67.5478
-68.6095
-69.1268
-69.1676
-68.954
-68.6129
-68.6995
-68.849
-68.9448
-68.8735
-68.5851
-67.5833
-66.8096
-66.7193
-68.4242
-68.9032
-69.1942
-69.1902
-69.0077
-69.0028
-68.6298
-68.2178
-67.9221
-67.4412
-66.8052
-66.6971
-66.1203
-66.1986
-68.5163
-69.098
-69.104
-69.2361
-69.2413
-68.98
-68.8037
-68.4273
-67.8717
-67.0104
-66.5017
-66.7253
-66.1993
-66.2758
-59.2939
-59.8796
-59.5458
-60.368
-60.9278
-59.9745
-60.8104
-61.0604
-61.7991
-60.6233
-61.4991
-61.6296
-62.0307
-63.048
-61.0212
-61.984
-62.3873
-62.0344
-63.7827
-66.4932
-61.5982
-62.5448
-62.7986
-62.7753
-65.5993
-68.7726
-72.7371
-62.5749
-63.2211
-63.3363
-64.0441
-66.9613
-70.0068
-73.3369
-74.4938
-64.1271
-63.7562
-64.2249
-65.2417
-66.6237
-69.6992
-72.7916
-75.1387
-74.9258
-65.8799
-65.3244
-65.2415
-66.0201
-67.0578
-69.2047
-72.0096
-73.6936
-73.6962
-73.7079
-68.6875
-66.7151
-66.2019
-66.5241
-66.9514
-68.3464
-70.9144
-72.6217
-73.4314
-73.3357
-72.2399
-68.9078
-67.4592
-67.3193
-67.3085
-67.5096
-68.2594
-69.7573
-71.3594
-72.2474
-72.0226
-70.8943
-69.3924
-68.4585
-68.4535
-68.408
-68.3206
-67.9218
-68.2127
-68.9654
-69.8298
-70.5842
-70.3418
-69.4184
-68.3715
-66.7553
-68.5823
-69.1525
-69.2146
-69.0289
-68.6182
-68.5843
-68.6361
-68.7092
-68.7045
-68.5226
-67.5838
-66.8817
-66.2665
-66.1301
-68.4257
-68.8769
-69.176
-69.1782
-69.0138
-69.023
-68.6247
-68.1999
-67.8504
-67.4069
-66.8348
-66.6845
-66.1123
-66.2419
-66.2787
-68.4396
-69.0178
-69.0464
-69.2174
-69.2326
-68.9936
-68.8286
-68.4468
-67.9373
-67.017
-66.4632
-66.7218
-66.1975
-66.2641
-66.1221
-58.6404
-59.3772
-59.0341
-59.4165
-60.2475
-59.5641
-59.9309
-60.5118
-61.1565
-59.8548
-60.5981
-61.1513
-61.4223
-62.2062
-60.3327
-61.2962
-61.7179
-61.8397
-62.9063
-64.2266
-60.6203
-61.7631
-62.0125
-61.8412
-63.2412
-65.6596
-69.6693
-61.3586
-62.1891
-62.2133
-62.6679
-65.2686
-67.8888
-71.3008
-74.2162
-62.4664
-62.7371
-63.078
-64.2489
-66.2729
-68.5775
-72.3585
-75.3881
-75.7156
-64.168
-63.7497
-64.0204
-64.9022
-66.3027
-68.4238
-71.9551
-74.4412
-74.2767
-73.6627
-66.3146
-65.5921
-65.1771
-65.7763
-66.6911
-68.4489
-71.1078
-72.9256
-73.5159
-73.8585
-73.4275
-69.249
-67.275
-66.254
-66.3919
-66.5901
-67.6848
-69.9967
-72.0188
-72.9194
-73.0978
-72.0082
-70.7723
-69.1917
-67.6219
-67.2607
-67.172
-67.1078
-67.9434
-69.1462
-70.8041
-71.6788
-71.7971
-70.942
-69.9753
-68.3082
-68.4976
-68.6092
-68.4637
-68.425
-67.851
-68.0115
-68.6947
-69.4564
-70.301
-70.1604
-69.4063
-68.3828
-67.1067
-66.186
-68.5517
-69.1449
-69.2629
-69.0867
-68.6401
-68.503
-68.4661
-68.3876
-68.5227
-68.4462
-67.6343
-66.8845
-66.3176
-65.8912
-66.2591
-68.3877
-68.841
-69.1637
-69.1868
-69.0468
-69.0512
-68.6345
-68.1622
-67.7596
-67.3867
-66.8738
-66.6613
-66.1049
-66.1956
-65.8416
-66.1277
-68.3554
-68.91
-68.9957
-69.2055
-69.2248
-69.0093
-68.8547
-68.4721
-67.9896
-67.0255
-66.4309
-66.7163
-66.1934
-66.2442
-66.0903
-65.8735
-58.4161
-58.8389
-58.709
-58.9252
-59.9431
-59.0515
-59.2074
-59.8515
-60.506
-59.2903
-59.9079
-60.4884
-60.8278
-61.5335
-59.7732
-60.4311
-61.1479
-61.4554
-61.9259
-63.2755
-60.2904
-60.9552
-61.5919
-62.0027
-62.1423
-63.7864
-66.1546
-60.608
-61.1296
-61.8984
-62.0164
-62.7861
-65.662
-67.5844
-72.1623
-61.3806
-61.6083
-62.3769
-63.0023
-64.3056
-67.3245
-70.1463
-73.4523
-75.6679
-62.465
-62.4102
-62.8572
-63.9569
-65.2695
-68.1432
-71.1708
-74.4599
-74.9387
-74.2409
-64.3594
-63.9185
-63.9068
-64.7615
-65.8548
-67.4451
-70.9083
-73.4781
-74.0601
-73.5601
-73.8421
-66.5766
-66.1453
-65.2816
-65.5837
-66.0192
-67.6516
-70.2144
-72.118
-73.0189
-73.6755
-73.3598
-71.7599
-69.8994
-67.9299
-66.3291
-66.2708
-66.2771
-66.9789
-69.2568
-71.201
-72.2961
-72.7081
-72.1306
-71.1206
-69.8799
-69.4093
-67.9081
-67.3641
-67.1882
-66.8214
-67.3877
-68.7154
-69.9967
-71.1179
-71.458
-70.943
-69.9988
-69.0353
-66.9919
-68.4721
-68.7181
-68.5639
-68.5599
-67.7912
-67.7729
-68.4074
-69.1118
-69.9629
-69.856
-69.3678
-68.3685
-67.2458
-66.2632
-65.8323
-68.5157
-69.1307
-69.3445
-69.1582
-68.6934
-68.4599
-68.3528
-68.0496
-68.3943
-68.3203
-67.6104
-66.816
-66.3639
-65.9455
-65.664
-65.8671
-68.3235
-68.7997
-69.154
-69.2121
-69.0961
-69.0906
-68.6545
-68.1461
-67.6813
-67.3625
-66.849
-66.6189
-66.0935
-66.1592
-65.8464
-65.5059
-65.8718
-68.2533
-68.8182
-68.9597
-69.1874
-69.2216
-69.0261
-68.8832
-68.4902
-68.0382
-67.0472
-66.3997
-66.7104
-66.1863
-66.221
-66.0702
-65.8887
-66.0695
-58.224
-58.502
-58.3431
-58.7513
-59.189
-58.5696
-58.9261
-59.3692
-60.0053
-58.9887
-59.4732
-59.7676
-60.2356
-60.8817
-59.3705
-59.7582
-60.4575
-60.8664
-61.1619
-62.208
-59.5246
-60.2813
-61.1472
-61.4196
-61.8456
-62.707
-63.7711
-60.0352
-60.8309
-61.6108
-61.8815
-62.2237
-63.5302
-65.0916
-67.9679
-60.6243
-61.0724
-62.2114
-62.1582
-62.897
-65.143
-67.1783
-69.574
-73.8284
-61.317
-61.5071
-61.946
-62.558
-64.0174
-66.4671
-69.0768
-72.7759
-74.5935
-74.9352
-62.2824
-62.3765
-62.6811
-63.8508
-64.5168
-66.2235
-70.2419
-73.5761
-74.9481
-73.0933
-73.3708
-64.7096
-63.9438
-63.8585
-64.4897
-65.1086
-66.614
-69.4982
-72.4916
-73.8832
-73.6435
-73.8185
-73.2347
-66.9068
-66.6228
-65.3415
-65.321
-65.6347
-66.8835
-68.8996
-71.1267
-72.4946
-73.4292
-73.4148
-71.1511
-70.9199
-70.0049
-68.3004
-66.5253
-66.1653
-66.036
-66.4471
-68.4946
-70.4148
-71.6612
-72.2126
-72.2175
-71.1557
-70.9046
-68.7577
-69.254
-68.2272
-67.7237
-67.2565
-66.7018
-66.8521
-68.1847
-69.2223
-70.5789
-70.9226
-70.7346
-69.9391
-69.1519
-67.264
-65.9885
-68.3862
-68.7745
-68.7225
-68.7005
-67.7973
-67.4706
-68.1001
-68.833
-69.5158
-69.6393
-69.2052
-68.3379
-67.3721
-66.2575
-64.9835
-65.7109
-68.4784
-69.1353
-69.4309
-69.2413
-68.7878
-68.4656
-68.2284
-67.7758
-68.2297
-68.1823
-67.5887
-66.8742
-66.3968
-65.9905
-65.6252
-65.3692
-65.5287
-68.2508
-68.7653
-69.1419
-69.2465
-69.1549
-69.15
-68.7002
-68.1411
-67.6226
-67.3126
-66.7938
-66.6291
-66.0737
-66.1204
-65.81
-65.4972
-65.6687
-66.0728
-68.1598
-68.7415
-68.9231
-69.1698
-69.2221
-69.0443
-68.9109
-68.5056
-68.0862
-67.0786
-66.376
-66.698
-66.1788
-66.1967
-66.0559
-65.8529
-66.0633
-66.2986
-58.0293
-58.2738
-58.0934
-58.4036
-58.778
-58.2314
-58.8082
-59.0161
-59.3669
-58.587
-58.8974
-59.2604
-59.5771
-60.1776
-58.9576
-59.3362
-59.7795
-60.1825
-60.472
-61.289
-59.1224
-59.6981
-60.3892
-60.7063
-61.1618
-61.8411
-62.7867
-59.3061
-60.1452
-61.0357
-61.4501
-61.9118
-62.5328
-63.6177
-65.2883
-59.923
-60.5007
-61.4731
-61.9248
-62.4738
-63.5235
-65.041
-66.3298
-69.7176
-60.4974
-60.7849
-61.6373
-62.2727
-63.0992
-63.8393
-67.3832
-69.2387
-70.8557
-73.6741
-61.2273
-61.3694
-61.9478
-62.732
-63.8933
-65.0747
-68.9543
-71.9254
-75.0446
-72.4518
-72.7838
-62.3995
-62.5468
-62.8622
-63.5552
-64.6753
-65.2221
-69.0496
-72.5441
-74.8281
-73.3706
-73.0359
-73.5683
-64.7987
-64.2001
-63.8364
-64.2904
-64.6943
-65.9901
-68.4853
-71.5602
-73.4306
-73.7276
-73.9638
-71.5304
-70.7465
-66.9996
-66.7237
-65.5395
-65.2059
-65.4592
-66.2957
-67.9925
-70.2804
-71.9097
-73.1066
-73.2103
-71.4569
-70.5523
-70.6315
-69.8591
-68.8974
-66.6631
-66.0249
-65.8047
-66.336
-67.8783
-69.6561
-71.1054
-71.7126
-72.0209
-71.149
-70.8523
-69.0043
-67.0736
-69.0646
-68.4324
-67.8677
-67.381
-66.6627
-66.5547
-67.7801
-68.5977
-70.0645
-70.4523
-70.5721
-69.8549
-69.1598
-67.4293
-65.9006
-64.8676
-68.2505
-68.7552
-68.8505
-68.8484
-67.895
-67.2267
-67.8148
-68.4799
-69.1714
-69.4294
-69.03
-68.2902
-67.4727
-66.3698
-65.1946
-64.8181
-65.4291
-68.4239
-69.1281
-69.4951
-69.3462
-68.9209
-68.4725
-68.131
-67.6334
-68.0623
-68.0426
-67.5657
-66.9153
-66.4133
-66.0279
-65.6138
-65.305
-65.4056
-65.6922
-68.166
-68.7284
-69.1266
-69.2811
-69.2205
-69.2274
-68.755
-68.1482
-67.5913
-67.2608
-66.7579
-66.6596
-66.0439
-66.0814
-65.7588
-65.492
-65.6425
-65.9576
-66.2815
-68.0755
-68.6558
-68.8863
-69.1506
-69.2252
-69.0637
-68.9388
-68.5295
-68.1294
-67.1181
-66.3692
-66.6769
-66.1583
-66.174
-66.0454
-65.8377
-66.0423
-66.2122
-65.8498
-58.0026
-58.0242
-57.9719
-58.211
-58.5888
-58.032
-58.4464
-58.7144
-59.0624
-58.2502
-58.4575
-58.9153
-59.0689
-59.6718
-58.4808
-58.8355
-59.2417
-59.576
-59.9223
-60.4877
-58.8131
-59.1867
-59.6383
-60.1642
-60.4328
-60.9305
-61.9219
-59.2321
-59.3668
-60.2347
-60.6033
-61.0907
-61.7221
-62.3723
-63.4863
-59.5749
-59.7603
-60.7645
-61.4848
-61.9968
-62.5689
-63.6894
-64.3403
-66.5314
-59.9804
-60.1678
-61.1015
-62.0262
-62.6127
-62.9681
-64.8216
-66.131
-67.3484
-70.4266
-60.4038
-60.5043
-61.4073
-62.3608
-62.8901
-64.1463
-66.6939
-68.7516
-71.5043
-69.3284
-71.9446
-61.1391
-61.192
-61.5672
-62.6035
-63.9181
-64.7141
-68.0313
-71.2407
-75.2359
-72.6677
-71.7408
-72.4555
-62.5151
-62.5341
-62.705
-63.5733
-64.3659
-64.8622
-68.1576
-71.556
-74.6616
-73.4649
-73.6162
-71.5033
-71.066
-64.9304
-64.4548
-63.789
-64.3132
-64.9031
-65.421
-67.6801
-70.6248
-72.8305
-73.6131
-73.8668
-71.9497
-69.5461
-70.0392
-67.0381
-67.1381
-65.7296
-65.3332
-65.2391
-65.8829
-67.3344
-69.5267
-71.2607
-72.6726
-72.9652
-71.5654
-70.8015
-69.7646
-68.8428
-69.5894
-69.1714
-67.0013
-66.1528
-65.5651
-65.9079
-67.2819
-68.8526
-70.5732
-71.1713
-71.8337
-70.9027
-70.6527
-69.053
-66.1763
-65.771
-68.9721
-68.5281
-67.9519
-67.6081
-66.7697
-66.3812
-67.1731
-68.0678
-69.5376
-70.1554
-70.291
-69.7245
-69.1197
-67.4807
-66.0728
-64.8075
-64.8083
-68.1256
-68.7828
-68.9798
-68.9629
-68.0043
-67.1199
-67.5473
-68.0514
-68.8515
-69.1896
-68.8291
-68.2321
-67.5191
-66.4792
-65.3912
-64.822
-64.6981
-65.3933
-68.3655
-69.119
-69.5542
-69.4568
-69.0838
-68.4832
-68.0518
-67.5574
-67.9052
-67.8483
-67.4498
-66.8866
-66.4054
-66.0548
-65.5919
-65.2453
-65.4149
-65.7792
-66.0155
-68.0697
-68.6937
-69.108
-69.3109
-69.2905
-69.3199
-68.8075
-68.1666
-67.5732
-67.1896
-66.7081
-66.6492
-66.0054
-66.0474
-65.7482
-65.497
-65.5981
-65.873
-65.8046
-65.8742
-68.0031
-68.5769
-68.8476
-69.1318
-69.2303
-69.0837
-68.9647
-68.5582
-68.1702
-67.1733
-66.374
-66.6446
-66.1341
-66.1581
-66.0391
-65.8369
-66.0428
-66.1248
-65.8411
-65.9754
-57.7813
-57.9738
-57.8758
-58.2158
-58.276
-57.9133
-58.197
-58.4627
-58.7878
-57.9616
-58.2878
-58.6301
-58.8577
-59.2963
-58.213
-58.4084
-58.864
-59.1443
-59.3864
-59.8107
-58.4751
-58.7255
-59.1389
-59.5409
-59.8632
-60.0926
-60.9631
-58.8446
-58.9693
-59.6519
-60.0209
-60.3654
-60.8831
-61.2801
-62.2657
-59.1977
-59.2555
-60.0799
-60.6174
-61.2193
-61.6899
-62.2766
-62.7961
-64.5848
-59.4125
-59.5277
-60.5302
-61.5547
-62.0339
-62.4313
-63.2759
-64.437
-64.9843
-67.0391
-59.7992
-59.8695
-60.959
-61.8294
-62.7447
-63.0837
-63.5603
-66.3922
-67.5967
-66.553
-68.942
-60.3581
-60.4858
-61.0527
-62.1821
-62.8556
-63.5921
-65.4546
-69.2517
-71.7977
-69.8037
-68.1684
-70.9118
-61.0842
-61.0529
-61.2624
-62.4103
-63.3687
-64.1477
-66.9862
-70.1803
-75.0855
-72.6093
-72.1644
-69.5638
-70.8298
-62.6133
-62.5021
-62.3344
-63.1595
-64.1763
-64.9008
-66.9773
-70.617
-73.9734
-73.476
-74.0918
-72.2502
-68.6895
-68.8799
-64.7488
-63.8411
-63.6815
-64.3075
-64.5991
-65.3097
-66.906
-69.6122
-72.1493
-73.3346
-73.7896
-72.1197
-70.1547
-68.8143
-69.2905
-67.0548
-67.8525
-66.0816
-65.3537
-65.1565
-65.5015
-66.6886
-68.864
-70.6832
-72.1444
-72.7322
-71.6016
-70.9664
-70.1865
-67.9663
-66.1511
-69.5681
-69.3832
-67.4068
-66.5096
-65.5572
-65.4314
-66.7444
-68.0994
-70.0816
-70.7213
-71.3881
-70.7924
-70.3991
-68.893
-66.5554
-65.1367
-64.7449
-68.9126
-68.5135
-68.1731
-67.8016
-66.872
-66.2458
-66.8119
-67.6201
-68.9889
-69.7659
-69.8374
-69.5633
-69.0712
-67.5615
-66.2091
-64.9043
-64.1434
-64.739
-68.0037
-68.8033
-69.0789
-69.0673
-68.1753
-67.1128
-67.3471
-67.7024
-68.4787
-68.9071
-68.6454
-68.1781
-67.5372
-66.4958
-65.5343
-64.9829
-64.6808
-64.8227
-65.8293
-68.2902
-69.1093
-69.599
-69.5699
-69.2692
-68.5282
-67.991
-67.4409
-67.6949
-67.716
-67.4206
-66.8594
-66.3792
-66.0728
-65.5457
-65.2826
-65.3824
-65.7632
-65.6946
-65.8387
-67.9657
-68.6561
-69.0863
-69.3391
-69.3625
-69.3746
-68.8503
-68.1931
-67.5805
-67.0749
-66.6486
-66.6309
-65.9578
-66.0119
-65.7546
-65.5076
-65.5603
-65.7929
-65.761
-66.3561
-66.0253
-67.9428
-68.5149
-68.8051
-69.1143
-69.2363
-69.1054
-68.9953
-68.6068
-68.2178
-67.2357
-66.3832
-66.6046
-66.1081
-66.1542
-66.0372
-65.8283
-66.0365
-66.0809
-65.835
-65.9495
-66.3772
-57.746
-57.7979
-57.7808
-58.0735
-58.1538
-57.8954
-58.1811
-58.3714
-58.4545
-57.8642
-58.1326
-58.4992
-58.6492
-58.8897
-57.9397
-58.1905
-58.6571
-58.9128
-58.9806
-59.4526
-58.1718
-58.4503
-58.7218
-59.1555
-59.3513
-59.5982
-60.2911
-58.4566
-58.5937
-59.1005
-59.5789
-59.8002
-60.1176
-60.4496
-61.3638
-58.6731
-58.893
-59.5177
-60.0719
-60.329
-60.8503
-61.2449
-61.6692
-62.6441
-58.9693
-59.4059
-59.8681
-60.6035
-61.2051
-61.6495
-62.188
-62.951
-63.0936
-64.7572
-59.3201
-59.751
-60.2181
-61.06
-62.1439
-62.4958
-63.0409
-64.5219
-64.5724
-64.7586
-66.166
-59.7375
-59.8545
-60.6368
-61.841
-62.6436
-63.4126
-63.9957
-66.2457
-67.6369
-67.2251
-65.6328
-67.7168
-60.2804
-60.3339
-61.0046
-62.0436
-62.7674
-63.2326
-64.6055
-68.1343
-71.3437
-70.2493
-68.6718
-67.0963
-68.5947
-61.1739
-61.1003
-61.4378
-62.262
-62.9662
-63.7422
-65.3661
-69.5289
-74.3974
-73.372
-72.4562
-70.1821
-67.732
-68.2249
-62.7661
-62.4801
-62.3051
-63.0851
-63.6625
-64.8053
-66.3132
-69.8425
-73.2922
-73.8003
-74.3141
-73.0568
-69.2434
-67.3291
-68.32
-64.7539
-64.0287
-63.5816
-63.9355
-64.3761
-64.9378
-66.166
-68.8163
-71.4974
-72.8422
-73.5501
-72.2059
-70.6102
-69.1479
-67.8105
-67.5586
-67.1047
-67.8845
-66.3225
-65.3654
-64.9667
-65.217
-66.3006
-68.1193
-70.3041
-71.5861
-72.4062
-71.66
-71.1221
-70.1207
-68.3471
-66.0922
-64.9055
-69.6722
-69.2715
-67.9983
-66.7312
-65.7702
-65.1428
-66.3645
-67.5626
-69.5399
-70.3161
-71.0986
-70.6504
-70.332
-68.817
-66.9062
-65.2978
-63.8742
-64.0677
-68.8398
-68.4687
-68.4383
-68.0564
-67.0685
-66.1577
-66.5472
-67.0561
-68.5766
-69.3117
-69.5481
-69.4566
-69.0427
-67.7208
-66.328
-65.1327
-64.2687
-63.88
-64.7631
-67.8315
-68.8112
-69.1728
-69.2147
-68.4478
-67.2176
-67.202
-67.3779
-68.1158
-68.6302
-68.4319
-68.0855
-67.5261
-66.5441
-65.6417
-65.103
-64.7441
-64.8123
-65.0612
-65.7661
-68.2045
-69.0937
-69.6246
-69.6878
-69.4553
-68.6076
-67.9612
-67.3064
-67.4915
-67.6233
-67.3332
-66.8271
-66.3135
-66.0744
-65.513
-65.2017
-65.365
-65.7093
-65.6209
-66.1962
-66.3916
-67.85
-68.6107
-69.0583
-69.3677
-69.4359
-69.4422
-68.9327
-68.2353
-67.6019
-66.9482
-66.5687
-66.5919
-65.9011
-65.9765
-65.7517
-65.482
-65.5279
-65.7293
-65.7163
-66.3265
-66.5847
-66.4267
-67.8938
-68.4285
-68.7375
-69.0972
-69.2423
-69.1275
-69.0238
-68.6618
-68.2631
-67.2851
-66.3998
-66.5574
-66.0825
-66.1534
-66.0368
-65.8301
-66.0249
-66.0373
-65.7974
-65.9493
-66.3633
-66.5202
-57.5866
-57.7131
-57.7396
-57.9318
-58.0349
-57.6762
-58.1142
-58.1698
-58.4525
-57.8324
-58.0938
-58.3826
-58.412
-58.6801
-57.8196
-58.0531
-58.3582
-58.5891
-58.7295
-59.0997
-57.8906
-58.1554
-58.5633
-58.8492
-59.0033
-59.2074
-59.7496
-58.1958
-58.3826
-58.6975
-59.1963
-59.3128
-59.5188
-59.8236
-60.52
-58.2747
-58.6529
-59.077
-59.512
-59.7181
-60.0998
-60.4102
-60.6526
-61.6191
-58.6645
-58.9572
-59.482
-59.8849
-60.3066
-60.7859
-61.1105
-61.4233
-61.7546
-62.9561
-58.9612
-59.2828
-59.7463
-60.4708
-61.0881
-61.5995
-62.0751
-62.6161
-63.1653
-63.1393
-64.38
-59.117
-59.4169
-60.1326
-61.0875
-61.9914
-62.4851
-63.0671
-64.0822
-65.0071
-64.933
-64.0791
-65.3082
-59.6188
-59.7536
-60.461
-61.4654
-62.5699
-62.8609
-63.3804
-65.8535
-68.0784
-67.8793
-65.8682
-64.943
-66.4143
-60.2241
-60.2524
-60.6501
-61.7769
-62.8143
-62.9858
-64.3033
-67.3149
-70.9238
-71.1841
-69.3334
-67.6631
-65.76
-66.8876
-61.302
-61.0692
-61.0655
-62.0477
-62.7788
-63.419
-64.7913
-68.6161
-73.6073
-74.4492
-72.9546
-71.0219
-68.3923
-65.8178
-66.7394
-62.6429
-61.9873
-62.2565
-62.7231
-63.4888
-64.2077
-65.7026
-68.9767
-72.6446
-73.7774
-74.2925
-73.4885
-69.9072
-67.6267
-66.5439
-67.3636
-64.7827
-64.6924
-63.8668
-63.8082
-63.9552
-64.5458
-65.6537
-67.9441
-70.8282
-72.5332
-73.21
-72.5171
-71.1561
-69.2797
-68.1849
-65.9641
-65.5537
-67.2658
-67.94
-66.8058
-65.6126
-64.7728
-64.9747
-66.024
-67.3756
-69.7674
-70.9934
-72.0347
-71.6826
-71.1922
-69.8635
-68.5537
-66.384
-64.0885
-63.83
-69.5368
-69.2284
-68.3402
-66.9745
-65.8243
-65.0971
-66.014
-67.0101
-68.9496
-69.8195
-70.7051
-70.5157
-70.2282
-68.7844
-67.1359
-65.5634
-64.0544
-63.1044
-63.8085
-68.707
-68.4242
-68.697
-68.2903
-67.3635
-66.1765
-66.2739
-66.6823
-68.1079
-68.9897
-69.3793
-69.3281
-68.9958
-67.7873
-66.5148
-65.3184
-64.4272
-63.9205
-63.8916
-65.1136
-67.6065
-68.7632
-69.2758
-69.3655
-68.6299
-67.381
-67.1327
-67.0893
-67.7496
-68.3408
-68.2182
-67.9587
-67.5169
-66.6076
-65.7255
-65.1265
-64.7991
-64.7443
-65.0447
-65.8133
-66.2708
-68.1125
-69.053
-69.64
-69.798
-69.6227
-68.7181
-67.9689
-67.2316
-67.3465
-67.5338
-67.2157
-66.7866
-66.2384
-66.0673
-65.4707
-65.1019
-65.3489
-65.6411
-65.548
-66.099
-66.5835
-66.6648
-67.7521
-68.5566
-69.0248
-69.3959
-69.5178
-69.521
-69.0054
-68.2876
-67.6131
-66.8878
-66.4824
-66.535
-65.8358
-65.9315
-65.7132
-65.4419
-65.4944
-65.6753
-65.6717
-66.244
-66.491
-66.8446
-66.5779
-67.853
-68.3057
-68.6729
-69.08
-69.2474
-69.1502
-69.0479
-68.7196
-68.2965
-67.3391
-66.4167
-66.5058
-66.059
-66.1511
-66.0333
-65.8183
-66.0049
-66.0065
-65.7808
-65.9703
-66.3074
-66.438
-66.6009
-57.6486
-57.6183
-57.4991
-57.7415
-57.9747
-57.7031
-57.9265
-58.0463
-58.2445
-57.6246
-57.968
-58.1495
-58.3015
-58.505
-57.7284
-58.068
-58.2826
-58.3638
-58.5214
-58.7876
-57.8263
-57.9781
-58.3583
-58.5034
-58.7312
-58.8226
-59.2935
-57.8525
-58.1398
-58.4579
-58.7621
-58.9874
-59.1637
-59.3127
-59.845
-58.0238
-58.4009
-58.696
-58.9564
-59.2544
-59.5277
-59.8001
-59.912
-60.5899
-58.2066
-58.3938
-58.9497
-59.3005
-59.7152
-60.0108
-60.3816
-60.5707
-60.7386
-61.7749
-58.7209
-58.7201
-59.4317
-60.0106
-60.1787
-60.6923
-61.139
-61.4674
-61.8721
-61.8006
-62.793
-58.7833
-58.9982
-59.5888
-60.4358
-60.9645
-61.5868
-62.0737
-62.6723
-63.2892
-63.3293
-62.7359
-63.8714
-59.1623
-59.309
-59.8031
-60.7314
-61.7582
-62.3742
-62.8508
-64.0807
-65.2576
-65.2303
-64.5268
-63.4262
-64.5536
-59.5521
-59.8152
-60.0663
-61.4133
-62.6589
-62.7226
-63.4666
-65.5908
-67.7054
-67.8372
-66.323
-65.434
-64.0646
-65.1966
-60.2091
-60.0871
-60.2383
-61.2187
-62.8408
-62.9083
-63.7875
-66.1484
-69.8891
-71.4544
-69.6598
-68.221
-66.3773
-64.7449
-65.4544
-61.1762
-61.0625
-60.9259
-61.452
-62.5081
-63.254
-64.4706
-67.4668
-72.4161
-73.2725
-73.0954
-71.666
-68.7431
-66.1959
-64.9862
-66.0249
-62.7122
-62.188
-62.2172
-62.7919
-63.3053
-63.9913
-65.1768
-68.338
-71.8765
-74.0617
-73.9582
-73.9125
-70.6764
-67.9593
-67.0692
-65.2169
-65.3953
-64.9201
-64.5907
-63.6287
-63.755
-63.7038
-64.1686
-65.249
-67.5695
-70.7565
-72.6149
-72.9403
-72.6832
-71.6468
-69.343
-68.5896
-66.4005
-64.0814
-63.8889
-67.5186
-67.6215
-67.1125
-66.0461
-64.7275
-64.9007
-65.7946
-66.8811
-69.1165
-70.686
-71.7545
-71.6857
-71.2528
-70.0353
-68.5704
-66.8212
-64.2921
-62.7725
-62.9989
-69.2966
-69.1309
-68.6647
-67.3531
-66.0104
-65.2282
-65.7102
-66.3936
-68.4153
-69.6579
-70.4167
-70.4518
-70.1763
-68.7958
-67.2875
-65.8435
-64.2901
-63.2458
-62.9528
-63.9132
-68.5004
-68.3859
-68.9376
-68.5364
-67.676
-66.1973
-66.1262
-66.3227
-67.6622
-68.7067
-69.1094
-69.1541
-68.9713
-67.8248
-66.5126
-65.4406
-64.6205
-64.0004
-63.8912
-64.4119
-65.872
-67.3873
-68.6278
-69.3959
-69.4727
-68.799
-67.6308
-67.1368
-66.9253
-67.3656
-68.0352
-68.0195
-67.8057
-67.4232
-66.6135
-65.8018
-65.1883
-64.8498
-64.749
-64.9697
-65.7268
-66.486
-66.6558
-67.878
-68.9868
-69.6572
-69.9138
-69.814
-68.8832
-68.0284
-67.194
-67.2446
-67.3881
-67.0931
-66.7522
-66.1595
-66.0376
-65.4571
-65.1394
-65.3148
-65.5594
-65.4764
-66.0325
-66.4943
-66.856
-66.9566
-67.6592
-68.4896
-68.9849
-69.4198
-69.6062
-69.5999
-69.0834
-68.3552
-67.6315
-66.8801
-66.3973
-66.4736
-65.7686
-65.8822
-65.6479
-65.4097
-65.4658
-65.6314
-65.6293
-66.1278
-66.3801
-66.7245
-67.6385
-66.6995
-67.8192
-68.1835
-68.635
-69.0617
-69.2508
-69.1745
-69.0817
-68.788
-68.3248
-67.3922
-66.4423
-66.4533
-66.039
-66.1484
-66.0337
-65.8101
-65.9857
-65.9924
-65.7871
-65.9643
-66.2616
-66.3812
-66.5087
-67.0264
-57.3973
-57.5743
-57.5652
-57.7374
-57.7529
-57.5027
-57.7684
-57.8146
-58.0628
-57.6126
-57.9185
-58.0586
-58.1341
-58.3274
-57.5818
-57.8823
-58.1215
-58.2687
-58.3437
-58.564
-57.769
-58.0281
-58.2178
-58.3543
-58.4774
-58.5821
-58.8977
-57.8222
-57.9687
-58.2679
-58.4508
-58.6899
-58.8239
-58.9326
-59.363
-57.8713
-58.0079
-58.42
-58.6615
-58.9476
-59.1568
-59.2317
-59.3896
-59.8717
-57.9224
-58.0666
-58.4944
-58.873
-59.2287
-59.4427
-59.8221
-59.8752
-59.9843
-60.6917
-58.0988
-58.2848
-58.6058
-59.3308
-59.6169
-60.0177
-60.4234
-60.6402
-60.8287
-60.7173
-61.6145
-58.5112
-58.6749
-58.9992
-59.8608
-60.1124
-60.6482
-61.1301
-61.6096
-61.8737
-61.7646
-61.504
-62.4706
-58.7209
-58.9531
-59.3748
-60.5578
-60.8035
-61.497
-62.0408
-62.642
-63.1317
-63.6911
-62.9614
-62.2009
-63.0685
-59.1013
-59.3218
-59.5467
-60.5538
-61.7131
-62.2382
-62.7482
-63.9351
-64.9826
-65.3063
-64.4657
-63.8079
-62.8264
-63.7055
-59.4348
-59.6763
-59.7674
-60.851
-62.586
-62.8788
-63.3005
-64.9856
-67.1743
-66.8227
-66.4422
-65.6447
-64.2622
-63.2035
-64.2276
-60.1449
-60.0803
-60.0923
-60.9898
-62.5688
-63.1353
-63.5937
-65.4755
-68.9682
-71.723
-69.6884
-68.725
-66.6873
-65.1917
-63.8214
-64.5423
-61.1851
-60.7775
-61.0103
-61.4084
-62.2563
-63.0105
-64.4195
-67.2194
-71.9131
-75.3021
-72.8697
-72.2703
-69.5181
-66.4646
-65.3884
-64.2648
-64.6128
-62.6697
-62.475
-62.3686
-62.3359
-63.2308
-63.7941
-65.0087
-67.8207
-71.336
-73.8354
-74.0103
-74.1948
-71.4724
-68.5913
-67.4433
-65.9003
-63.611
-63.7709
-64.8809
-64.4117
-63.6869
-63.7038
-63.3416
-63.7647
-64.8218
-67.2356
-70.3802
-72.2875
-72.6367
-72.8868
-71.9742
-69.5979
-68.715
-66.8506
-64.4143
-62.7368
-62.5813
-67.6097
-67.3013
-67.0131
-66.2381
-64.7033
-64.6258
-65.5397
-66.7563
-68.711
-70.3677
-71.4698
-71.7205
-71.214
-69.9831
-68.4893
-66.7001
-64.4483
-62.9966
-62.4259
-62.9616
-69.0375
-69.1194
-68.7059
-67.6413
-66.1651
-65.3489
-65.7428
-66.0865
-67.9268
-69.3711
-70.1584
-70.3695
-70.1276
-68.8592
-67.4068
-65.8979
-64.5404
-63.4517
-63.0158
-63.02
-64.4362
-68.1429
-68.3378
-69.1388
-68.8409
-68.0588
-66.2711
-66.0875
-65.9091
-67.2731
-68.3864
-68.7209
-68.9845
-68.8886
-67.8497
-66.5979
-65.5687
-64.7656
-64.1418
-63.9341
-64.3072
-65.332
-66.583
-67.2255
-68.4045
-69.4816
-69.6224
-69.0988
-67.8973
-67.1459
-66.8897
-66.9706
-67.7223
-67.8115
-67.6317
-67.3407
-66.6284
-65.8531
-65.2473
-64.9645
-64.7689
-64.905
-65.5974
-66.3629
-66.7908
-67.009
-67.59
-68.8959
-69.657
-70.0265
-70.0296
-69.1193
-68.1286
-67.1891
-67.154
-67.1473
-66.9714
-66.6949
-66.0754
-65.9878
-65.4656
-65.1593
-65.2707
-65.4982
-65.4085
-66.0072
-66.3923
-66.7112
-67.852
-67.8211
-67.5334
-68.3876
-68.9374
-69.4386
-69.6928
-69.688
-69.1443
-68.4309
-67.6593
-66.8995
-66.3063
-66.4195
-65.7017
-65.8374
-65.587
-65.3806
-65.4522
-65.6006
-65.59
-66.0169
-66.2721
-66.6005
-67.479
-68.8812
-67.1067
-67.7929
-68.071
-68.5946
-69.0415
-69.2526
-69.1996
-69.1254
-68.8246
-68.3699
-67.4353
-66.4807
-66.4101
-66.0235
-66.1354
-66.0309
-65.8015
-65.9671
-65.9905
-65.7967
-65.9682
-66.2136
-66.3385
-66.4108
-66.9513
-67.3002
-57.3955
-57.3755
-57.4197
-57.6996
-57.4723
-57.7135
-57.7816
-57.8581
-57.4127
-57.7347
-57.8537
-57.9133
-58.1356
-57.6868
-57.8283
-57.9635
-58.0985
-58.1618
-58.3787
-57.5819
-57.8184
-58.0333
-58.2371
-58.3038
-58.339
-58.6031
-57.7747
-57.857
-58.2138
-58.3592
-58.4386
-58.5561
-58.6332
-58.9442
-57.7988
-57.9372
-58.1728
-58.4244
-58.6477
-58.825
-58.9133
-58.945
-59.4278
-57.7799
-58.0543
-58.3039
-58.658
-58.9007
-59.0998
-59.3424
-59.3586
-59.4307
-59.9486
-57.9004
-58.0272
-58.2416
-58.7819
-59.2437
-59.4697
-59.7138
-59.9758
-60.0417
-59.9836
-60.7465
-58.1048
-58.2299
-58.5572
-59.1415
-59.4428
-59.9201
-60.4306