/*--------------------------------*- C++ -*----------------------------------*\
  =========                 |
  \\      /  F ield         | OpenFOAM: The Open Source CFD Toolbox
   \\    /   O peration     | Website:  https://openfoam.org
    \\  /    A nd           | Version:  7
     \\/     M anipulation  |
\*---------------------------------------------------------------------------*/
FoamFile
{
    version     2.0;
    format      ascii;
    class       surfaceScalarField;
    location    "8.5";
    object      phi;
}
// * * * * * * * * * * * * * * * * * * * * * * * * * * * * * * * * * * * * * //

dimensions      [0 3 -1 0 0 0 0];

internalField   nonuniform List<scalar> 
54006
(
7.27882e-05
0.000578091
-0.000676892
-0.00011692
0.000109323
0.00144617
-0.00148526
-0.00036616
8.60882e-05
-0.000116143
7.1993e-05
-0.000780232
-0.000129967
0.000105217
-0.000611385
0.00049235
-0.000103102
0.000223234
0.00171032
-0.00181122
-0.000660851
0.000152996
-0.000355532
9.40246e-05
-0.00151109
-0.000415364
0.000122104
0.000624521
-0.000645621
-0.000361948
0.000102794
-0.000103369
6.64506e-05
-0.000880426
-0.000131132
0.000116696
0.000359327
-0.000113641
8.21028e-05
-0.000820177
0.000742271
-0.0001073
0.000482896
0.00360053
-0.00352041
-0.000633785
0.000258713
-0.000593517
0.000165805
-0.00182673
-0.000783475
0.000171749
0.00194414
-0.0020403
-0.000614337
0.000134886
-0.000344203
7.27005e-05
-0.00152033
-0.000429988
0.000129189
-0.000652838
-0.00042064
0.000188017
0.000387475
-0.000508084
-0.000347253
8.15373e-05
-0.000104625
6.45278e-05
-0.000979884
-0.000132618
0.000113097
0.00022882
-0.000113722
8.99423e-05
0.000661004
-0.000122317
9.88126e-05
-0.000898836
0.000813156
-0.000120433
0.000553736
0.0052433
-0.0051041
-0.000102095
0.000535054
-0.000782379
0.000373416
-0.00332369
-0.000548429
0.000408588
0.00321825
-0.00326661
-0.000822262
0.000220031
-0.000549576
0.000102563
-0.0017483
-0.000830902
5.18499e-05
-0.00198393
-0.000762509
0.000361593
0.00158049
-0.00180932
-0.00055909
0.000192038
-0.00032693
5.21995e-05
-0.00150795
-0.000446091
0.000132874
-0.000660224
-0.000442378
0.000178739
-0.000612266
-0.000405255
0.000229786
-0.000435664
0.00029386
-0.000336422
9.65564e-05
-0.000117031
6.71651e-05
-0.00108167
-0.000135107
0.000109463
0.000101304
-0.000114565
9.42731e-05
0.000579952
-0.000126944
0.00010886
0.000719082
-0.000137102
6.03043e-05
-0.00122582
0.00117982
-0.000134737
0.000844371
0.00558009
-0.00563338
-0.00029486
0.000744149
-0.000269546
0.000377714
-0.00502805
4.69546e-05
0.00062015
0.00502411
-0.00489861
-0.000439151
0.000513842
-0.00075699
0.000194334
-0.00314955
-0.000324256
0.000187136
-0.00306559
-0.000884742
0.000592717
0.0031183
-0.00337407
-0.000797613
0.00041864
-0.000496513
6.91614e-05
-0.0016153
-0.000847126
2.72366e-05
-0.00187655
-0.000832644
0.000327611
-0.00201749
-0.000703209
0.000443142
0.00133731
-0.00157438
-0.000535377
0.000233017
-0.000318699
3.19122e-05
-0.00147028
-0.000462665
0.000116841
-0.000649464
-0.000464229
0.000134525
-0.00066658
-0.000428316
0.000237107
0.000154078
-0.00039372
0.000259772
-0.00137899
0.0012015
-0.000358405
5.78834e-05
-0.000132815
7.27812e-05
-0.00118649
-0.000139219
0.000104401
-2.12893e-05
-0.000116915
9.61985e-05
0.000501277
-0.000132088
0.000106858
0.000626718
-0.000141438
6.9389e-05
0.00112403
-0.000150697
7.06219e-05
-0.000726743
0.000654477
-0.000133093
0.00137133
0.00594872
-0.00607681
-0.000314252
0.00113382
-0.000472835
0.000679236
-0.00570932
-0.000150545
0.000989712
0.00538168
-0.00539812
-0.000647982
0.000783473
-0.000684305
8.77165e-05
-0.00481302
0.000179437
0.000499225
-0.00501444
-0.000149308
0.0011265
0.00433309
-0.00446027
-0.000845752
0.000722859
-0.000646972
-1.49199e-05
-0.00291322
-0.000127267
2.17817e-06
-0.002704
-0.000660786
0.000492829
-0.00342992
-0.000994111
0.000787028
0.00223844
-0.00271178
-0.000668167
0.000468561
-0.000474858
3.42675e-05
-0.00144464
-0.000814095
2.53167e-05
-0.00176908
-0.000863076
0.000186631
-0.00210942
-0.00079282
0.000429518
-0.00181195
-0.000658047
0.000584522
0.000193345
-0.000538459
-0.000515012
0.000243149
-0.000342822
1.61335e-05
-0.0014089
-0.000479058
0.000110059
-0.000631762
-0.000486026
0.000120362
-0.000702564
-0.000452407
0.000218532
3.09835e-05
-0.000416895
0.000299942
0.000989622
-0.000412394
0.000298917
-0.000956124
0.000754429
-0.000385005
6.86546e-05
-0.00013507
7.9003e-05
-0.00129282
-0.000144501
9.80297e-05
-0.000137242
-0.000121296
9.67956e-05
0.000425162
-0.000137595
0.00010553
0.000534747
-0.000145648
7.00958e-05
0.00106472
-0.000152228
8.00028e-05
0.000567847
-0.00014407
6.92065e-05
4.2994e-05
-0.000127441
-0.000117852
0.00150578
0.00594926
-0.00589708
-0.000178116
0.0014501
-0.000582175
0.00118694
-0.00638547
0.000168619
0.00139195
0.00597428
-0.00591386
-0.000776906
0.00125727
-0.000698993
0.000415296
-0.00569279
0.000176715
0.000866829
-0.00534562
-0.000570651
0.00135761
0.0051732
-0.00528806
-0.000764229
0.00130944
-0.00091603
-0.000210586
-0.00442716
0.000266847
0.00027591
-0.00522127
0.000112533
0.000872398
-0.00441361
-0.000575536
0.00133042
0.00366116
-0.00400958
-0.00104073
0.000832325
-0.000556776
-7.73428e-05
-0.00269975
6.14631e-06
-3.93353e-05
-0.0023831
-0.000383516
0.000290627
-0.00325997
-0.000934731
0.000850598
-0.00322646
-0.00090051
0.000929755
0.00138693
-0.00174995
-0.000650376
0.000607656
-0.000479345
-7.02335e-06
-0.00124699
-0.000744698
1.26421e-05
-0.00165038
-0.000835371
7.91972e-05
-0.00208741
-0.00084392
0.000390709
-0.0020447
-0.000732242
0.000600818
-0.000871594
-0.000625788
0.00057532
-0.000567445
0.00026246
-0.00048643
0.000291692
-0.000377079
6.59902e-06
-0.00132846
-0.000494836
9.70513e-05
-0.000603084
-0.000506757
0.000120965
-0.000735069
-0.000477691
0.000207335
-8.41756e-05
-0.000439053
0.000282554
0.000788185
-0.000427917
0.000316473
0.000537554
-0.000431988
0.000272422
-0.000299015
6.05026e-05
-0.000349709
7.20258e-05
-0.000122588
8.21171e-05
-0.00139702
-0.000150204
9.36082e-05
-0.000248034
-0.000127317
9.51465e-05
0.000352
-0.00014328
0.000102853
0.000443897
-0.000149598
6.91523e-05
0.00100313
-0.000153209
8.04344e-05
0.000476104
-0.000140919
6.4009e-05
-0.000210659
-0.00012486
6.99267e-05
0.000477083
-0.000561607
-0.000103255
0.0014174
0.00669973
-0.0060881
-0.000226448
0.00154813
-0.000600823
0.00168278
-0.00619752
0.000125939
0.00154444
0.00648033
-0.00647944
-0.000331495
0.00180159
-0.00103498
0.000556782
-0.00625342
0.000311035
0.00132586
-0.00604375
-0.000160527
0.00200887
0.00568918
-0.00620225
-0.0009151
0.00181284
-0.000705216
8.32663e-05
-0.0053692
0.000247916
0.000764622
-0.00540685
-0.000250758
0.00113085
-0.00530789
-0.000809261
0.00186541
0.00503189
-0.00558398
-0.000747123
0.00135906
-0.000975982
-0.000338729
-0.00386994
0.000140492
9.50289e-05
-0.00537474
0.00028596
0.000700739
-0.00440577
-0.000305414
0.00147772
-0.00424747
-0.000964763
0.0013859
0.00247532
-0.00313488
-0.00083732
0.000962278
-0.000587028
-0.000183097
-0.00247052
6.38061e-05
-3.16222e-05
-0.00218235
-0.000150342
7.07219e-05
-0.00290603
-0.000728982
0.000659932
-0.00347385
-0.000956561
0.000971454
-0.00226829
-0.000752803
0.000898466
-0.000421116
4.78623e-05
-0.000600268
0.000565859
-0.000456798
-4.18594e-05
-0.00102838
-0.000667217
-2.04149e-05
-0.00152467
-0.000752944
3.54349e-05
-0.00199741
-0.000839839
0.000333085
-0.0022174
-0.000796977
0.000554941
-0.00119383
-0.000682395
0.000640231
-0.000111135
-0.000575951
0.000540885
-0.00115432
0.000853621
-0.000454191
0.000281665
-0.000347028
-1.49731e-05
-0.00121986
-0.00050933
8.92244e-05
-0.00056851
-0.000525026
7.5947e-05
-0.000720384
-0.000502242
0.000184379
-0.000184147
-0.000459245
0.000248221
0.000613544
-0.00044348
0.000291473
0.000333523
-0.000434924
0.000288995
-0.000207863
-0.000388607
0.000234268
-0.000422833
0.000209234
-0.000300451
6.74051e-05
-0.000106676
7.0827e-05
-0.00148228
-0.000156692
9.22322e-05
-0.000356112
-0.000134358
9.29665e-05
0.000280639
-0.000148924
9.65406e-05
0.000357518
-0.000153442
6.73944e-05
0.000939694
-0.000153554
7.88984e-05
0.000381752
-0.000137756
5.81005e-05
-0.00028945
-0.000120228
8.01077e-05
-0.000656056
-0.000110517
0.000110039
0.00106843
-0.00118313
-9.86005e-05
0.00161369
0.0059261
-0.00587891
0.000713881
0.00150508
-0.000218568
0.00175464
-0.00581617
3.9934e-05
0.001366
0.00705511
-0.00697746
-0.000125662
0.0017105
-0.00069552
0.00072713
-0.00602373
0.000465458
0.00137698
-0.00645396
4.93415e-05
0.00206422
0.00679063
-0.00672907
-0.000448399
0.0019822
-0.00102837
0.000386648
-0.00628655
0.000980446
0.0011564
-0.00625012
0.000125628
0.00156175
-0.00601723
-0.000776452
0.00205272
0.00543962
-0.00567533
-0.000866695
0.00196033
-0.000718738
-3.56888e-05
-0.00501042
0.000283611
0.000491866
-0.00540175
-0.000154025
0.000876924
-0.00527183
-0.000463009
0.00182578
-0.00586025
-0.000881048
0.00202313
0.00422365
-0.00486284
-0.000745161
0.00129591
-0.000870455
-0.000470406
-0.00338195
0.000208272
-2.90155e-05
-0.00542619
0.000189334
0.000463868
-0.00463156
0.000118603
0.00112929
-0.00429045
-0.000731797
0.00160655
-0.00392469
-0.000810048
0.00129982
0.00178386
-0.00236258
-0.000659948
0.00078452
-0.00060408
-0.000318946
-0.0020992
1.89964e-05
2.48567e-05
-0.00215465
-9.16449e-06
-2.39526e-06
-0.00255208
-0.000466467
0.000481777
-0.00343869
-0.000912829
0.000897945
-0.00278474
-0.000783116
0.00116419
-0.000590206
-0.000638691
0.000696315
-0.000842733
0.000604711
-0.000517676
0.000530285
-0.000440454
5.48369e-06
-0.00087861
-0.000606888
-7.93073e-06
-0.00143256
-0.000662176
-6.47488e-05
-0.00183434
-0.000775323
0.000212694
-0.00225502
-0.00083053
0.00047035
-0.00148676
-0.000726173
0.000590273
-0.000479477
-0.000612854
0.000654441
0.000417725
-0.000505501
0.000358635
-0.00138497
0.001183
-0.00037659
0.000206663
-0.000298541
-5.67552e-05
-0.00107677
-0.000521397
8.35364e-05
-0.000529577
-0.000539568
4.63496e-05
-0.000674656
-0.000524137
0.000162251
-0.000274181
-0.000477919
0.000230184
0.000449882
-0.000458374
0.000264945
0.000139579
-0.000435582
0.000288834
-0.000484947
-0.000388574
0.000291939
-5.86217e-05
-0.000332582
0.000266165
-0.000693812
0.000519258
-0.000282024
0.000119031
-9.94656e-05
7.01705e-05
-0.00155928
-0.000163106
9.36461e-05
-0.000464537
-0.000141913
9.02948e-05
0.000210448
-0.000154461
9.00695e-05
0.000275427
-0.000156902
6.71278e-05
0.000871928
-0.000152804
7.43549e-05
0.000288378
-0.000134535
5.76469e-05
-0.000367978
-0.000116875
8.16577e-05
-0.000750048
-0.000107893
0.000111179
-0.00129797
-0.000106848
0.000119639
0.000112524
-0.000248108
-8.26551e-05
0.00167424
0.00535319
-0.00516218
0.00202611
0.00165156
0.000826422
0.00170762
-0.00568207
0.00087727
0.00138591
0.00595256
-0.00545144
0.000192845
0.00110985
-9.28201e-06
0.00114385
-0.00572422
0.000215603
0.0010707
-0.00667585
4.46032e-05
0.00149376
0.00751373
-0.00743294
0.000364003
0.00169706
-0.000651619
0.000941331
-0.00618787
0.000667364
0.00146329
-0.00654547
0.000250068
0.00143685
-0.00651987
-3.49629e-05
0.00234972
0.00670524
-0.00691005
-0.000540588
0.00231625
-0.000792702
0.000150467
-0.00621759
0.000997579
0.000833473
-0.00609929
0.000488007
0.00110466
-0.00602155
-9.77874e-05
0.00212931
-0.00580299
-0.000952328
0.0026351
0.00454231
-0.00557346
-0.000447516
0.0020251
-0.000699841
-0.000153854
-0.00485392
0.000434021
0.000276487
-0.00530887
-0.000114773
0.000832591
-0.0056348
-0.000159775
0.0013465
-0.00596226
-0.000578207
0.00217165
-0.00536728
-0.0009417
0.0017226
0.00279914
-0.00316425
-0.000802837
0.00109364
-0.000749697
-0.000556678
-0.00308465
0.00026909
-7.23757e-05
-0.00503893
-8.17604e-05
0.000272529
-0.00497924
0.000262089
0.000799185
-0.00414529
-0.000343963
0.00154095
-0.0046035
-0.000695991
0.00163959
-0.00307587
-0.000572164
0.000737077
0.00131137
-0.00131298
-0.000699101
0.000568087
-0.000528452
-2.11894e-05
-0.00193766
-7.81317e-05
0.000114151
-0.00228549
2.77589e-05
0.000191345
-0.00257996
-0.000237375
0.000302793
-0.0032347
-0.000760557
0.000767153
-0.0031975
-0.000796875
0.00112082
-0.00123411
-0.000669752
0.00096013
0.000226811
-0.000566479
0.000396113
-0.000545841
0.000409407
-0.000418719
0.000275118
-0.000376101
1.2323e-05
-0.000782577
-0.000544967
3.28447e-05
-0.00139257
-0.000596187
-0.00013609
-0.00162945
-0.000684625
9.71693e-05
-0.00214709
-0.000818169
0.000351223
-0.00168198
-0.000756344
0.000521729
-0.000813634
-0.000648799
0.000622927
-1.1401e-05
-0.000517821
0.000469765
0.000927213
-0.000427539
0.000363142
-0.00182955
0.00169614
-0.000340155
0.000245591
-0.000274645
-5.95911e-05
-0.000930962
-0.000530229
8.5911e-05
-0.000494167
-0.000549072
2.83638e-05
-0.000612073
-0.000540219
0.000136841
-0.000350868
-0.000494222
0.000209081
0.000295277
-0.000465268
0.000241412
-5.5155e-05
-0.000430697
0.000294272
-0.000771446
-0.000385709
0.000331973
-0.00036164
-0.000335871
0.000310664
0.000304597
-0.000317405
0.00021746
-0.000892774
0.000776906
-0.000263977
0.000109291
-8.29545e-05
7.81995e-05
-0.00163619
-0.000168658
9.41194e-05
-0.000572151
-0.000149611
8.72355e-05
0.000140969
-0.000159669
8.00508e-05
0.000200805
-0.000159891
6.0508e-05
0.0008059
-0.000151381
6.83167e-05
0.00019811
-0.000130853
5.76009e-05
-0.000445646
-0.000114469
8.2866e-05
-0.000843126
-0.000106663
9.86506e-05
-0.00140028
-0.000104236
0.000136292
-0.000401573
-8.96748e-05
2.02138e-05
-0.000427598
0.000384344
-5.96147e-05
0.00158308
0.0054867
-0.00542088
0.00328148
0.00177622
0.00212252
0.00187379
-0.00503807
0.0021848
0.0014757
0.00524546
-0.00516126
0.00185211
0.00112046
0.000416651
0.0015528
-0.005639
0.000750121
0.00147193
-0.00551758
0.000542183
0.0012737
0.00677468
-0.00623868
-0.000123094
0.00129313
0.000365923
0.00146295
-0.00583419
0.000544343
0.00149357
-0.00650669
1.61633e-05
0.00129235
-0.00683324
-0.000410588
0.002477
0.0074455
-0.00745776
0.000248983
0.00262122
-0.000590424
0.000480735
-0.00621673
0.00118823
0.00127378
-0.00672132
0.000402907
0.00132494
-0.00641474
-7.53422e-05
0.00252577
-0.00672511
-0.000616368
0.00270198
0.00570508
-0.00583136
-0.000481195
0.00250218
-0.000390286
3.54545e-05
-0.00625975
0.00104965
0.000529967
-0.00581814
0.000462951
0.000951949
-0.00580594
0.000153047
0.00229754
-0.00625549
-0.000596323
0.00257564
-0.00622849
-0.000701277
0.00218074
0.00320371
-0.00364155
-0.000467812
0.00157655
-0.000714421
-0.00015654
-0.0048191
0.000362778
-2.90938e-05
-0.00490934
-8.78959e-06
0.00067606
-0.00615478
1.67648e-06
0.001082
-0.00605618
-0.000348671
0.00209382
-0.00564937
-0.000848994
0.0020048
-0.00349809
-0.000973059
0.00115482
0.00232917
-0.0025456
-0.00100415
0.000656091
-0.000753177
-0.000230178
-0.00280407
1.2128e-05
-7.13623e-05
-0.00449386
-9.0465e-05
0.000532184
-0.00534733
-5.45151e-05
0.000604594
-0.00411099
-7.40119e-05
0.00124674
-0.00486309
-0.000563962
0.00166516
-0.00378819
-0.000528012
0.000985479
-0.00122708
-0.000683418
0.000340362
0.000728558
-0.000722974
-0.000648934
0.000243315
-0.000424904
-0.000174318
-0.00166185
-0.000130007
0.000230677
-0.00248546
-7.5991e-05
0.000125464
-0.00272224
-9.15134e-05
0.000204282
-0.00302662
-0.000552574
0.000550795
-0.00337573
-0.000781896
0.00100535
-0.0018625
-0.000652107
0.00105713
-0.000285481
-0.000591667
0.000616436
0.000152935
-0.000456678
0.000346545
-0.00122364
0.0012173
-0.00039578
0.000292245
-0.000336645
3.70128e-05
-0.000720023
-0.000481545
3.251e-05
-0.00132595
-0.000558186
-0.000113891
-0.00147938
-0.000604001
2.86052e-05
-0.00195357
-0.000769909
0.000298678
-0.00181749
-0.000772256
0.000465302
-0.0011213
-0.000672565
0.000602892
-0.000428869
-0.00053995
0.000576365
0.000598893
-0.000433893
0.000484637
0.00149475
-0.000400118
0.000380366
-0.00198718
0.001848
-0.000363877
0.000179335
-0.000255084
-3.74684e-05
-0.000802033
-0.000535275
8.51513e-05
-0.000463365
-0.000552063
1.41615e-05
-0.000540734
-0.000547337
0.000102962
-0.000410892
-0.000503105
0.000155557
0.000166639
-0.000460632
0.000230347
-0.000266412
-0.000416041
0.000309917
-0.00107789
-0.000376571
0.000371642
-0.000698007
-0.000338118
0.000324084
6.71045e-05
-0.000323812
0.000265459
0.000629401
-0.000299067
8.18147e-05
-0.000616425
0.00053371
-0.000242863
1.72226e-05
-6.07519e-05
8.18129e-05
-0.00170906
-0.000172759
9.23684e-05
-0.000676079
-0.000157098
8.36002e-05
7.21512e-05
-0.000164394
6.84771e-05
0.000134833
-0.000162174
5.64011e-05
0.000738959
-0.000149351
5.84515e-05
0.00011543
-0.000127153
5.12866e-05
-0.000515293
-0.000112493
7.9028e-05
-0.000930196
-0.000106427
8.68469e-05
-0.00149195
-0.000101846
0.000131944
-0.000550554
-8.71994e-05
3.19023e-05
0.00032712
-6.43561e-05
1.69159e-05
-0.000210305
0.000176691
-4.29162e-05
0.0015839
0.00603839
-0.00616388
0.00395741
0.00147933
0.00344287
0.00210492
-0.00558972
0.00333359
0.00145281
0.00557162
-0.00554558
0.00327834
0.00106814
0.00191968
0.00207266
-0.00518609
0.00204954
0.00180736
-0.00529364
0.00198175
0.00108947
0.00517791
-0.00467796
0.00153638
0.00120761
0.000183964
0.00192627
-0.00576993
0.000821368
0.00164544
-0.00558606
0.000666726
0.00116052
-0.00573321
0.000168547
0.00208623
0.00806713
-0.00809187
0.000292414
0.00237763
0.000469612
0.00100993
-0.00576398
0.000724795
0.00145597
-0.00626746
0.000122925
0.0010423
-0.00684908
0.000314636
0.00217344
-0.00709157
-0.000424452
0.00278964
0.0070375
-0.00686148
-1.46971e-05
0.00306196
-0.000207955
0.00042349
-0.00628009
0.00136467
0.000985387
-0.0065936
0.000605083
0.00112367
-0.00656526
0.000381706
0.00237988
-0.00617845
-0.000704342
0.00294921
-0.00600882
-0.000812475
0.0028596
0.00444862
-0.00493184
-0.000676834
0.00202558
-0.00036662
-9.31506e-05
-0.00636182
0.00110487
0.000289371
-0.00570749
0.000620539
0.00100566
-0.00577395
0.000101358
0.00123123
-0.00592236
-0.000329311
0.002341
-0.00627878
-0.000793215
0.0024901
-0.00415636
-0.000671773
0.00173161
0.00304034
-0.0033887
-0.000696252
0.00116074
-0.000882949
-0.000252227
-0.00450195
0.000469538
-0.00018184
-0.00445025
1.4165e-05
0.000469619
-0.00608042
-2.05855e-05
0.000886478
-0.00613615
-0.000200237
0.00181759
-0.00578808
-0.00078081
0.00219584
-0.00398524
-0.000892534
0.00138643
-0.00279283
-0.00112678
0.000622312
0.00155101
-0.00193257
-0.000904539
0.000217619
-0.000698749
-0.000330665
-0.00258857
3.6407e-06
-0.000119903
-0.00404933
-8.18204e-05
0.00038763
-0.00545821
-0.00024175
0.000521527
-0.00449746
1.4711e-05
0.000966608
-0.00496208
-0.000390832
0.00152068
-0.00427194
-0.000595547
0.00131559
-0.00141023
-0.00060331
0.000587685
-0.000714549
-0.000663092
0.000322331
7.76621e-05
-6.0875e-05
-0.000641507
0.000191891
-0.000383172
-9.64302e-06
-0.00151673
-0.000185295
0.000110128
-0.00237021
-0.000322883
8.09811e-05
-0.00281825
-0.00017486
0.000260052
-0.00294328
-0.000406299
0.000448178
-0.00337555
-0.000702255
0.000940278
-0.00242803
-0.00069134
0.0011285
-0.00090797
-0.000555228
0.000833531
-0.000229078
-0.00046682
0.000586681
0.00108448
-0.000425899
0.000345802
-0.00174735
0.00177279
-0.000386651
0.000275825
-0.000346664
8.4364e-05
-0.000699887
-0.000408878
2.74064e-05
-0.00122555
-0.000524196
1.18692e-05
-0.00148349
-0.000551778
-2.74644e-05
-0.00173188
-0.000695265
0.000199482
-0.00186926
-0.000762068
0.000422097
-0.00140069
-0.00068462
0.000561381
-0.00079275
-0.000560149
0.000681999
0.000197185
-0.000448599
0.00057842
0.00120961
-0.00040309
0.000507416
0.0016467
-0.000440782
0.000245566
-0.00172516
0.00161559
-0.000418055
6.03791e-05
-0.000238726
-1.366e-05
-0.000697821
-0.000535738
7.85306e-05
-0.000436933
-0.00054787
-4.31101e-07
-0.000464764
-0.000544002
6.46738e-05
-0.000450759
-0.000503667
0.0001346
3.59347e-05
-0.0004506
0.000216501
-0.00049033
-0.000394763
0.000316359
-0.00139485
-0.00036415
0.000379319
-0.00103528
-0.000339589
0.000333853
-0.000193642
-0.000324378
0.000296766
0.00044638
-0.000305613
0.000108547
0.000429655
-0.000271657
2.5153e-05
0.000554976
-0.000574291
-0.000231784
8.93414e-06
-4.14855e-05
8.83112e-05
-0.00178145
-0.000175035
9.35982e-05
-0.000778496
-0.00016394
7.7647e-05
5.843e-06
-0.000168437
5.43811e-05
7.9979e-05
-0.000163921
5.12252e-05
0.000672475
-0.000146915
4.51962e-05
4.45618e-05
-0.000123679
4.00003e-05
-0.000571508
-0.000110938
6.34002e-05
-0.000999496
-0.000106593
7.7852e-05
-0.00157663
-9.95929e-05
0.000130149
-0.000697966
-8.45818e-05
4.74439e-05
0.000255226
-6.27487e-05
2.55755e-05
0.000135419
-4.86593e-05
8.70001e-05
-0.000580911
0.000464502
-1.35072e-05
0.00125174
0.00576629
-0.00575094
0.00440902
0.00137327
0.00412885
0.00179176
-0.00600311
0.00416454
0.00147917
0.00605472
-0.00623382
0.00411015
0.000956675
0.00343181
0.00182336
-0.00539325
0.00308056
0.00164512
-0.00541382
0.00336408
0.00128133
0.00482946
-0.00489873
0.00315575
0.0011176
0.00150505
0.0023962
-0.00521759
0.00169118
0.00188123
-0.00533423
0.00185435
0.00132345
-0.0044537
0.00159455
0.00127041
0.00657916
-0.00560364
0.00137667
0.00165853
0.000610804
0.00143102
-0.00570244
0.000938591
0.00177443
-0.00612505
0.0010419
0.00103446
-0.00562385
0.000565205
0.00133096
-0.00747702
0.00039617
0.00226558
0.00830946
-0.00815685
0.000663866
0.00322493
0.000508353
0.00102767
-0.00582017
0.000950256
0.00140288
-0.00604577
8.56071e-05
0.000711664
-0.00636543
5.12804e-05
0.00161038
-0.00643149
0.000424063
0.00314787
-0.00732537
-0.000159227
0.00303254
0.00546179
-0.00554627
-0.000103166
0.00253121
-9.91312e-05
0.000188447
-0.00633087
0.00152899
0.000772973
-0.00640682
0.00069429
0.00115816
-0.00653931
0.000426636
0.00156706
-0.00601424
-0.000118332
0.00262842
-0.00615591
-0.000844675
0.00327078
-0.00552473
-0.00100026
0.0021399
0.00364623
-0.00404102
-0.000690334
0.00155785
-0.000276327
-2.66613e-05
-0.00662692
0.00101095
6.61027e-05
-0.00567543
0.000824861
0.000851389
-0.0058958
0.00036062
0.00117182
-0.00606924
-3.71082e-05
0.00206025
-0.00614407
-0.000706681
0.00257554
-0.00461598
-0.000713289
0.00203131
-0.00363246
-0.00107289
0.00140965
0.00212769
-0.0028253
-0.000785985
0.000521403
-0.000778853
-6.77013e-05
-0.00468192
0.000341546
-0.000310828
-0.00394219
0.000152407
0.000250185
-0.00593598
7.16877e-06
0.000776886
-0.00639315
-1.89472e-05
0.00147148
-0.00590567
-0.000587512
0.0022698
-0.00479738
-0.000717789
0.00162594
-0.00311741
-0.000878312
0.000715464
-0.00218742
-0.000999711
0.000297731
0.00204594
-0.00211398
-0.000811896
5.9335e-05
-0.000654848
-0.000258008
-0.00235357
-0.000214351
-0.000309763
-0.00350935
-0.000116446
0.000129395
-0.00522908
-0.000359357
0.000586071
-0.00474335
-0.000321883
0.000768941
-0.0049347
-0.000333433
0.00139264
-0.00451387
-0.000601267
0.00168684
-0.00196048
-0.000603638
0.00102398
-0.000880731
-0.000627576
0.000724653
-0.000154893
-0.000707046
0.000177397
8.27745e-05
4.04413e-05
-0.000596318
0.000189196
-0.000350922
0.000162813
-0.00149438
-0.000258198
0.000110763
-0.00221765
-0.000421207
0.000237696
-0.00283601
-0.000530948
0.000300708
-0.00292577
-0.000520544
0.000430879
-0.00339754
-0.000615709
0.000821962
-0.0027747
-0.000755453
0.00109895
-0.00154009
-0.000596793
0.00103701
-0.000691079
-0.000448243
0.000765066
0.000928855
-0.000497843
0.000582979
0.00169409
-0.000422765
0.000242017
-0.00206303
0.00211786
-0.000437929
0.000175094
-0.000397625
0.000113887
-0.000710308
-0.000326965
2.99111e-05
-0.00110182
-0.000483991
4.62279e-06
-0.00150216
-0.000510586
-4.84293e-05
-0.00154881
-0.00062175
0.000192146
-0.00191561
-0.000706456
0.000432307
-0.00167929
-0.00069927
0.000560221
-0.00115636
-0.000564875
0.000743865
-0.000246353
-0.000481157
0.000665062
0.000864799
-0.000434999
0.000583057
0.00141096
-0.000453633
0.000356304
0.00141469
-0.000487641
0.000164205
-0.000487944
0.000380889
-0.000450052
1.32661e-05
-0.000231916
1.11014e-06
-0.000607257
-0.000532014
8.44269e-05
-0.000426263
-0.000537236
-6.46561e-06
-0.000398755
-0.000529766
1.80297e-05
-0.000462687
-0.000495723
9.36429e-05
-7.21988e-05
-0.000437951
0.00018243
-0.000701465
-0.000376699
0.000285609
-0.00169088
-0.000344343
0.000360564
-0.00135186
-0.000344736
0.000326528
-0.000456103
-0.000325805
0.000304547
0.000253324
-0.000305719
0.000128805
0.00031738
-0.000274698
4.23009e-05
-0.000606627
-0.000256046
-2.16599e-05
0.000261379
-0.000215799
-0.000168704
9.23545e-05
-1.23618e-05
8.16907e-05
-0.00184099
-0.000176736
9.32381e-05
-0.000877054
-0.000169716
6.66224e-05
-5.31775e-05
-0.000171542
4.06216e-05
3.57748e-05
-0.000164855
4.53752e-05
0.000607432
-0.000144253
3.26145e-05
-1.4314e-05
-0.000120654
2.65092e-05
-0.000611905
-0.00010979
5.63e-05
-0.00106022
-0.000106514
6.71654e-05
-0.00165273
-9.7658e-05
0.000126141
-0.000842193
-8.15076e-05
6.40906e-05
0.000167291
-6.07382e-05
2.94391e-05
9.22978e-05
-4.90664e-05
8.80059e-05
0.000343405
-1.55699e-05
0.000110019
-0.00221692
0.00209274
6.53579e-07
0.000730778
0.00585928
-0.00539868
0.00423463
0.000872979
0.00435666
0.00118827
-0.00551991
0.00481512
0.00148884
0.00590903
-0.00597002
0.00446034
0.000877952
0.00417995
0.00120249
-0.00578784
0.00424968
0.00128023
-0.00615792
0.00445353
0.00131287
0.00595605
-0.00603173
0.0041543
0.000972948
0.00305566
0.00237146
-0.00539143
0.00274468
0.00179742
-0.00537487
0.00312542
0.00150106
-0.00487555
0.00316329
0.00116612
0.0057686
-0.00514008
0.00263152
0.00139261
0.00145347
0.00191457
-0.00527078
0.00171595
0.00226663
-0.00579121
0.00165596
0.00145481
-0.00458375
0.00156406
0.00157783
-0.0052247
0.000968755
0.00192422
0.00748961
-0.0070757
0.00130412
0.00214241
0.00121255
0.00134933
-0.00536309
0.00112774
0.00172225
-0.00569917
0.000193339
0.000583688
-0.00534225
0.000888281
0.00109212
-0.0068292
0.000435654
0.00293427
-0.00799356
0.000446486
0.00262557
0.0082833
-0.00826395
0.00105149
0.00227622
0.000351956
0.000776372
-0.00596304
0.00128343
0.00168009
-0.00639849
0.000395867
0.0014717
-0.00665495
6.15955e-05
0.00170366
-0.00665371
0.00013689
0.00286468
-0.00711348
-2.40894e-05
0.00367379
-0.00558495
-0.000523556
0.00225186
0.00479668
-0.00503033
1.85272e-05
0.00207346
-5.68715e-05
0.000327761
-0.00649552
0.00155241
0.000437535
-0.00612222
0.000872957
0.000968809
-0.00632061
0.000358163
0.0014092
-0.00589387
6.88842e-05
0.00253796
-0.00603025
-0.000721703
0.00311883
-0.00577348
-0.00113922
0.00253666
-0.00453716
-0.00100947
0.00159796
0.00302122
-0.00355793
-0.000341932
0.000970659
-0.000114166
-9.4297e-05
-0.00653048
0.000907067
1.57589e-05
-0.0058572
0.000866132
0.000695031
-0.00593656
0.000420774
0.001081
-0.0062229
0.000210162
0.00185678
-0.00612839
-0.00043809
0.00276048
-0.00517929
-0.000634058
0.00199358
-0.00357821
-0.00113517
0.00163082
-0.00349255
-0.001321
0.000466349
0.00226387
-0.00243467
-0.000783798
0.000148181
-0.00067894
-0.000201691
-0.00459381
0.000228735
-0.000496549
-0.00365081
0.00023695
-7.78871e-07
-0.00571822
6.48189e-05
0.000682082
-0.00651928
3.72878e-05
0.00121274
-0.00607618
-0.000292238
0.00209528
-0.00526605
-0.000821482
0.00223926
-0.00371116
-0.000676458
0.00110048
-0.00228234
-0.000859889
0.000656967
-0.0021391
-0.000906905
-0.000160208
0.00157951
-0.00137869
-0.000675107
-1.10056e-05
-0.000564471
-7.42436e-05
-0.00200609
-0.000412032
-0.000303788
-0.00302735
-0.000281802
-9.03393e-06
-0.00470777
-0.000391025
0.000562935
-0.00471943
-0.000645503
0.000682225
-0.00491455
-0.000593384
0.00123478
-0.00463452
-0.000625595
0.00165842
-0.00261182
-0.000509388
0.00132049
-0.00117894
-0.000588908
0.00108744
-0.000378222
-0.000726622
0.000461482
0.000144673
-0.000689781
-8.6887e-05
-0.000717272
0.00100757
-0.000557713
9.00177e-05
-0.000394034
0.000168451
-0.00149684
-0.000277012
8.06706e-05
-0.00208721
-0.000439405
0.000243871
-0.00281674
-0.000679719
0.00024036
-0.0029962
-0.000749297
0.000496834
-0.00351879
-0.000703984
0.000726957
-0.00294723
-0.000737827
0.00100015
-0.00204541
-0.000690062
0.00123533
-0.00131274
-0.000466592
0.000941427
0.000674944
-0.000470697
0.000721377
0.00160404
-0.000546113
0.000473265
0.00207878
-0.000500651
0.000385859
-0.00194171
0.00187962
-0.000597497
0.000140716
-0.000442917
0.000147616
-0.000771253
-0.000256484
4.98809e-05
-0.000961218
-0.000433018
-1.23109e-05
-0.00150709
-0.00047321
-4.36975e-06
-0.00147533
-0.000561667
0.000178386
-0.00199536
-0.000626751
0.000462673
-0.001981
-0.000684986
0.000595743
-0.00155735
-0.000608415
0.000801081
-0.00077927
-0.000472476
0.000701429
0.000467884
-0.000459142
0.000632507
0.00114652
-0.000498518
0.000389349
0.00120336
-0.000502841
0.000228068
0.000213223
-0.000505742
-0.000103821
0.000443744
-0.00041822
-0.000393415
-3.55705e-05
-0.000174695
1.13753e-05
-0.000541658
-0.000522127
8.92272e-05
-0.000433009
-0.000521256
-1.63142e-05
-0.000345912
-0.000507143
-2.89564e-05
-0.000444166
-0.000478709
4.6461e-05
-0.000146774
-0.000422233
0.000158406
-0.000903174
-0.000362033
0.000247046
-0.00195885
-0.000329266
0.00033897
-0.00163717
-0.0003417
0.000358114
-0.000765689
-0.000326098
0.000316553
4.25373e-05
-0.000305431
0.000143588
0.00020906
-0.000276895
6.49118e-05
-0.000660597
-0.000256201
3.62678e-06
-0.000202767
-0.000184699
3.00272e-05
0.000177229
-0.000147646
-0.000118295
9.73494e-05
-7.3634e-07
7.99735e-05
-0.00189404
-0.000176245
9.80658e-05
-0.000977889
-0.000173966
5.74368e-05
-0.000106861
-0.000173469
2.98167e-05
-7.75525e-07
-0.000164808
4.01612e-05
0.000543766
-0.00014135
2.16691e-05
-6.21327e-05
-0.000118103
1.3821e-05
-0.000637131
-0.000109249
5.67114e-05
-0.00112071
-0.000106012
6.26785e-05
-0.00172554
-9.63817e-05
0.00012421
-0.000985843
-7.82176e-05
8.32313e-05
6.07304e-05
-5.81778e-05
3.26681e-05
4.69907e-05
-4.80992e-05
8.05985e-05
0.000228829
-1.50887e-05
0.000130547
0.00194489
1.72896e-06
0.000146346
-0.00343413
0.003291
-2.56036e-06
0.000375373
0.00569644
-0.00558835
0.00431796
0.000390769
0.00410665
0.000807083
-0.00520678
0.00482842
0.000783383
0.00629993
-0.00587176
0.00451191
0.000411284
0.00450077
0.000999491
-0.00564956
0.00483094
0.00122959
-0.0060024
0.00489813
0.00109529
0.00625912
-0.00609066
0.00450946
0.000914096
0.00416274
0.00199037
-0.0055852
0.00383029
0.00135879
-0.00593876
0.00446914
0.00129697
-0.00592475
0.00455064
0.00114315
0.00583903
-0.00576641
0.00410464
0.00135199
0.00267473
0.00185702
-0.00513339
0.00288443
0.00234753
-0.00558204
0.00287093
0.00155635
-0.00502553
0.00317385
0.00143762
-0.00470068
0.0028641
0.00171509
0.00647363
-0.0059907
0.00235772
0.0016841
0.00157982