/*--------------------------------*- C++ -*----------------------------------*\
  =========                 |
  \\      /  F ield         | OpenFOAM: The Open Source CFD Toolbox
   \\    /   O peration     | Website:  https://openfoam.org
    \\  /    A nd           | Version:  7
     \\/     M anipulation  |
\*---------------------------------------------------------------------------*/
FoamFile
{
    version     2.0;
    format      ascii;
    class       surfaceScalarField;
    location    "8.5";
    object      phi_0;
}
// * * * * * * * * * * * * * * * * * * * * * * * * * * * * * * * * * * * * * //

dimensions      [0 3 -1 0 0 0 0];

internalField   nonuniform List<scalar> 
54006
(
7.37912e-05
0.000572408
-0.000671818
-0.000117013
0.000112301
0.00144031
-0.00148094
-0.000365895
8.71569e-05
-0.000116229
7.26683e-05
-0.00077537
-0.000130079
0.000104897
-0.000615131
0.000496479
-0.000103259
0.000228355
0.00170301
-0.00180755
-0.000657831
0.000155833
-0.000355487
9.59824e-05
-0.00150751
-0.000414981
0.000122761
0.000628629
-0.000650349
-0.00036204
0.0001025
-0.000103517
6.67851e-05
-0.000875476
-0.000131232
0.00011641
0.000363803
-0.000113814
8.20072e-05
-0.000827194
0.000749413
-0.000107486
0.000490232
0.0036105
-0.00353654
-0.000641603
0.00026415
-0.000590405
0.000171428
-0.00182803
-0.000781101
0.000177613
0.00193374
-0.00203515
-0.000611273
0.000136676
-0.000344361
7.43361e-05
-0.00151763
-0.000429434
0.0001282
-0.000656328
-0.000420793
0.000187843
0.000384256
-0.000504744
-0.000347387
8.14498e-05
-0.000104817
6.43478e-05
-0.000974452
-0.000132698
0.000112833
0.000233621
-0.000113884
8.98592e-05
0.000668236
-0.000122497
9.85361e-05
-0.00089789
0.000812467
-0.000120599
0.000566602
0.00526052
-0.00511671
-0.000111427
0.000540012
-0.000788958
0.000385207
-0.00334301
-0.000556934
0.000419859
0.0032035
-0.00326633
-0.00082102
0.00022147
-0.000547098
0.000105648
-0.00175209
-0.000829141
5.54843e-05
-0.00198446
-0.000759076
0.000362461
0.0015686
-0.00179785
-0.00055664
0.000191407
-0.000326981
5.36675e-05
-0.0015066
-0.000445341
0.00013332
-0.00066381
-0.000442438
0.000180942
-0.000611183
-0.000405436
0.000229741
-0.000439094
0.000297103
-0.000336602
9.63755e-05
-0.000117202
6.65359e-05
-0.00107547
-0.000135122
0.000109237
0.000106378
-0.000114691
9.41296e-05
0.000587315
-0.000127093
0.000108498
0.000718758
-0.000137287
5.99609e-05
-0.00122835
0.00118264
-0.000134849
0.000861179
0.00557112
-0.00561975
-0.000310637
0.000756112
-0.000279136
0.000393944
-0.0050432
4.01355e-05
0.000629316
0.00503493
-0.00489832
-0.000457496
0.00051652
-0.000754424
0.000205461
-0.00317068
-0.000334812
0.000201511
-0.00307837
-0.000890916
0.000600435
0.00309414
-0.00336009
-0.000793044
0.00042149
-0.000494987
7.2275e-05
-0.00162073
-0.000847528
2.78229e-05
-0.00187759
-0.000830514
0.000333161
-0.00200949
-0.000699657
0.000444929
0.00132946
-0.00156783
-0.000533466
0.000232921
-0.000318739
3.29498e-05
-0.00147036
-0.00046178
0.000116948
-0.000652665
-0.000464196
0.000135462
-0.000666455
-0.000428498
0.000236983
0.000157056
-0.000393874
0.000259156
-0.00138243
0.00120477
-0.000358141
5.77057e-05
-0.000132917
7.18849e-05
-0.00117948
-0.000139129
0.00010424
-1.60256e-05
-0.000116959
9.59929e-05
0.00050884
-0.000132209
0.000106552
0.000626738
-0.000141625
6.91187e-05
0.00112707
-0.000150841
7.0411e-05
-0.000733411
0.000661536
-0.000133385
0.00139048
0.00594596
-0.00606881
-0.000337084
0.00115338
-0.000490077
0.000701987
-0.0057054
-0.000170592
0.00100304
0.00536594
-0.00539291
-0.000657395
0.000796445
-0.000691532
0.00010552
-0.00484005
0.000170183
0.000510116
-0.00500121
-0.000165575
0.0011439
0.00431691
-0.00446505
-0.000852821
0.000730584
-0.000639951
-2.40624e-06
-0.0029403
-0.000134726
1.25886e-05
-0.00272445
-0.000673499
0.000503133
-0.0034289
-0.00099208
0.000790769
0.00221314
-0.00268838
-0.000663645
0.000469859
-0.000473095
3.75797e-05
-0.00145125
-0.000816884
2.55959e-05
-0.00177046
-0.000863307
0.000191524
-0.0021058
-0.000790259
0.000430798
-0.00180571
-0.000655587
0.000586128
0.000190361
-0.00053691
-0.000513888
0.000242844
-0.000342444
1.66508e-05
-0.00141031
-0.000478058
0.000110194
-0.000634557
-0.000485842
0.000120526
-0.000702561
-0.000452623
0.00021814
3.40147e-05
-0.000417044
0.000300123
0.000992042
-0.000412148
0.000298603
-0.000970544
0.000768986
-0.000384775
6.83366e-05
-0.000135325
7.80607e-05
-0.00128502
-0.00014433
9.80429e-05
-0.000131977
-0.000121221
9.65514e-05
0.000433017
-0.000137687
0.000105279
0.000535095
-0.000145846
6.98525e-05
0.00106801
-0.00015242
7.9929e-05
0.000575189
-0.000144425
6.94439e-05
3.85565e-05
-0.00012311
-0.000118276
0.0015075
0.00597471
-0.00589258
-0.000199627
0.0014555
-0.000592956
0.00122227
-0.00638599
0.000144447
0.00140646
0.00597705
-0.00591095
-0.000806602
0.00127783
-0.000704648
0.000437174
-0.00571089
0.000163911
0.000876244
-0.00534056
-0.000589067
0.0013842
0.00514583
-0.00527814
-0.000765382
0.00131713
-0.000912277
-0.000194282
-0.00446789
0.000269961
0.000291345
-0.00520933
9.95518e-05
0.000886972
-0.00442027
-0.0005942
0.00133262
0.00364786
-0.00400066
-0.00104187
0.000834727
-0.000555675
-7.01947e-05
-0.00272806
1.63135e-06
-3.77245e-05
-0.00239999
-0.000395871
0.000301335
-0.00327076
-0.000941448
0.000855569
-0.00320932
-0.00089591
0.000928714
0.00137724
-0.00173389
-0.00064958
0.000607663
-0.000478609
-3.57913e-06
-0.00125471
-0.000748418
1.43354e-05
-0.00165262
-0.000838859
8.20941e-05
-0.00208709
-0.000843587
0.000390915
-0.00203883
-0.000729918
0.000602655
-0.000870739
-0.00062429
0.000574979
-0.000577311
0.000272654
-0.000485606
0.000290741
-0.000376723
7.32024e-06
-0.00133154
-0.000493815
9.71053e-05
-0.000605182
-0.000506496
0.000121013
-0.000735034
-0.00047783
0.000207612
-8.17876e-05
-0.000439153
0.000283221
0.000789438
-0.00042781
0.000316986
0.000551735
-0.000431953
0.000272194
-0.000317916
8.01567e-05
-0.000349765
7.20684e-05
-0.000123004
8.16558e-05
-0.00138913
-0.000149952
9.34605e-05
-0.000242633
-0.000127135
9.49223e-05
0.00036022
-0.000143346
0.000102626
0.000444587
-0.000149805
6.89954e-05
0.00100663
-0.000153457
8.05417e-05
0.000483502
-0.000141274
6.42095e-05
-0.00020645
-0.000125293
6.96696e-05
0.000470263
-0.000554698
-0.000103511
0.00141328
0.00673524
-0.00611833
-0.000232794
0.00154502
-0.000614379
0.00171879
-0.0061974
0.000102368
0.00154646
0.0065015
-0.00648894
-0.000352187
0.0018102
-0.00103862
0.000576656
-0.00625439
0.000277135
0.00133455
-0.00603543
-0.000189383
0.00202784
0.00567078
-0.00618898
-0.00093205
0.00182662
-0.000704334
9.851e-05
-0.00539642
0.000240586
0.000781049
-0.00539955
-0.000266802
0.00114778
-0.00530274
-0.000825274
0.0018726
0.0049902
-0.00555015
-0.000745414
0.00136097
-0.000971206
-0.000329608
-0.00391192
0.000138594
0.000103424
-0.00536707
0.000286549
0.000709196
-0.00440434
-0.00032423
0.00148389
-0.00424519
-0.000977991
0.00138119
0.00244489
-0.00309591
-0.000843312
0.000961987
-0.000586825
-0.000177098
-0.00250031
6.31476e-05
-3.16688e-05
-0.00219402
-0.000158332
7.93628e-05
-0.00292297
-0.000740935
0.000668468
-0.00347129
-0.000957031
0.000974344
-0.00224953
-0.000751958
0.000895117
-0.000428717
5.98395e-05
-0.000600841
0.000564731
-0.000456566
-4.08605e-05
-0.00103497
-0.000670278
-1.93333e-05
-0.0015264
-0.000758197
3.73326e-05
-0.00199953
-0.00084274
0.000335187
-0.00221465
-0.000795341
0.000557645
-0.00119386
-0.000681218
0.000641389
-0.000101252
-0.000574787
0.00053935
-0.00116958
0.000870711
-0.000453897
0.00028113
-0.000346994
-1.36226e-05
-0.00122481
-0.000508393
8.9339e-05
-0.000570137
-0.000524738
7.69855e-05
-0.000721207
-0.000502386
0.000184823
-0.000182455
-0.00045936
0.000248904
0.000613974
-0.000443596
0.000292198
0.000347394
-0.000435125
0.000288637
-0.000187379
-0.000388844
0.000232574
-0.000431302
0.000218938
-0.000300306
6.69977e-05
-0.000106957
7.07271e-05
-0.00147478
-0.000156388
9.19512e-05
-0.000350451
-0.000134084
9.27647e-05
0.000289286
-0.000148965
9.63739e-05
0.000358531
-0.000153664
6.7478e-05
0.000943191
-0.000153846
7.8883e-05
0.000389281
-0.000138119
5.80948e-05
-0.000285243
-0.000120577
7.99321e-05
-0.000649176
-0.000110745
0.000110644
0.00106941
-0.00118486
-9.87023e-05
0.00161633
0.00592173
-0.0058833
0.000719276
0.00150828
-0.000212179
0.00176739
-0.00582723
2.83452e-05
0.00136162
0.00706831
-0.00698852
-0.000127744
0.001697
-0.000693721
0.000741851
-0.00602356
0.000445255
0.00137389
-0.00644994
2.40298e-05
0.00206086
0.00681241
-0.00673832
-0.000459295
0.00199497
-0.00102366
0.000409369
-0.00629484
0.000962648
0.00117335
-0.00625092
0.000100322
0.00159508
-0.00601923
-0.00080643
0.00206402
0.00540364
-0.00565628
-0.000870833
0.00196699
-0.00071953
-2.67841e-05
-0.00503376
0.000276786
0.000507312
-0.00540364
-0.000159211
0.000882384
-0.00525342
-0.000489306
0.00183525
-0.00584464
-0.000882144
0.00202723
0.00419001
-0.00484313
-0.000738335
0.00129377
-0.000872025
-0.000467353
-0.00341182
0.000203101
-1.95309e-05
-0.00544514
0.000204523
0.000479297
-0.00461945
0.000101722
0.00114782
-0.00429663
-0.000752139
0.00160931
-0.00389079
-0.000818081
0.00129407
0.00176409
-0.00234018
-0.000666181
0.000782422
-0.000604626
-0.000325192
-0.00212401
2.28045e-05
1.68705e-05
-0.00215415
-1.29252e-05
-1.23948e-05
-0.00255535
-0.000476226
0.000489098
-0.00344717
-0.000918962
0.000903449
-0.00277046
-0.000781902
0.00116436
-0.000576918
-0.00063817
0.000690195
-0.000853505
0.000620404
-0.000518586
0.000528293
-0.000440186
5.10618e-06
-0.00088212
-0.000608948
-1.01358e-05
-0.00143073
-0.000666481
-6.09927e-05
-0.00184
-0.000779748
0.000217939
-0.00225955
-0.000830954
0.000475531
-0.00149068
-0.000725147
0.000592395
-0.000470442
-0.000612225
0.00065425
0.00043545
-0.000505138
0.000355666
-0.00139565
0.00119443
-0.00037577
0.000205078
-0.000298479
-5.49499e-05
-0.00108365
-0.000520668
8.34847e-05
-0.000530699
-0.000539364
4.66781e-05
-0.000675477
-0.000524382
0.000162751
-0.000273206
-0.000478012
0.000230486
0.000450336
-0.00045873
0.000265369
0.000153386
-0.000436073
0.000287489
-0.000462892
-0.000389007
0.000290143
-4.77449e-05
-0.000332371
0.000264091
-0.000704489
0.000532394
-0.000281658
0.000119692
-9.95448e-05
6.95337e-05
-0.00155171
-0.00016282
9.32846e-05
-0.000458555
-0.000141568
9.01631e-05
0.000219522
-0.000154484
8.99622e-05
0.000276758
-0.000157154
6.73574e-05
0.000875326
-0.000153156
7.45349e-05
0.000295817
-0.000134917
5.78176e-05
-0.000364065
-0.000117115
8.15829e-05
-0.000743321
-0.000108015
0.000111823
-0.00130042
-0.000107005
0.00012046
0.000115962
-0.000252326
-8.27987e-05
0.00167448
0.00535393
-0.00516951
0.00203637
0.00165321
0.000835059
0.00171141
-0.00568564
0.000884656
0.00137305
0.00596094
-0.00544682
0.00019373
0.00108697
1.30043e-07
0.00115268
-0.00572825
0.000199802
0.00105905
-0.00668762
4.2296e-05
0.00148734
0.00752378
-0.00744082
0.000362827
0.00169898
-0.000637772
0.000964969
-0.0061855
0.000637284
0.00147185
-0.00653843
0.000235255
0.00145531
-0.00652789
-4.66263e-05
0.00236622
0.00670106
-0.00693135
-0.000531204
0.00233364
-0.00078363
0.000164464
-0.00622794
0.000995007
0.000854726
-0.00611282
0.000477136
0.0011216
-0.00603202
-0.000126103
0.0021314
-0.00579195
-0.0009669
0.00263971
0.00448574
-0.00552387
-0.000445187
0.00202297
-0.000697402
-0.000150324
-0.00486922
0.000428489
0.000293558
-0.00531937
-0.000120577
0.000837769
-0.00559403
-0.000177072
0.00136771
-0.00595117
-0.00060267
0.0021785
-0.00536035
-0.000934115
0.00171945
0.00277409
-0.00314341
-0.000794389
0.00108745
-0.000751691
-0.000567783
-0.00310604
0.000276668
-7.63301e-05
-0.00507673
-7.21055e-05
0.000262522
-0.00496561
0.00027576
0.000812877
-0.00415652
-0.000362167
0.00154873
-0.00458064
-0.00070757
0.00163691
-0.00305264
-0.000578171
0.000735412
0.0013036
-0.00131252
-0.000702473
0.00056497
-0.000529246
-2.36313e-05
-0.00195983
-7.44958e-05
0.000107896
-0.00227889
2.95104e-05
0.000185385
-0.00257014
-0.00024451
0.000310022
-0.00324699
-0.000768489
0.000775487
-0.0031922
-0.000797182
0.00112554
-0.00122144
-0.000670528
0.000954319
0.000249355
-0.000567189
0.000390376
-0.000554392
0.000419387
-0.000418292
0.000271975
-0.000375306
1.27847e-05
-0.000783461
-0.000546512
3.30741e-05
-0.00139064
-0.000598622
-0.000133837
-0.00163752
-0.000688442
0.000100429
-0.00215711
-0.000819866
0.000354824
-0.00168977
-0.000756205
0.000524178
-0.000806145
-0.000648252
0.000621
7.33589e-06
-0.000517623
0.000466426
0.000939535
-0.000426523
0.000358775
-0.00184081
0.00170933
-0.000338976
0.000243479
-0.000274364
-5.94118e-05
-0.0009385
-0.00052972
8.56832e-05
-0.000494662
-0.000549104
2.84403e-05
-0.000612411
-0.000540708
0.000137312
-0.00035035
-0.000494589
0.000210372
0.000295456
-0.000466146
0.000241426
-4.02262e-05
-0.00043201
0.000293059
-0.000747855
-0.000386351
0.0003306
-0.000350035
-0.000335734
0.000308706
0.000320093
-0.000316953
0.000217353
-0.000897415
0.00078268
-0.000263816
0.000110095
-8.30596e-05
7.74849e-05
-0.00162854
-0.000168448
9.39231e-05
-0.000566083
-0.000149215
8.72032e-05
0.000150435
-0.000159684
7.99985e-05
0.00020245
-0.000160175
6.09063e-05
0.000809048
-0.000151782
6.85704e-05
0.000205328
-0.000131237
5.75824e-05
-0.000441921
-0.000114644
8.29088e-05
-0.000836684
-0.000106661
9.94622e-05
-0.0014035
-0.000104396
0.00013697
-0.000406406
-8.98964e-05
2.0435e-05
-0.000431409
0.000387874
-5.9699e-05
0.0015728
0.00549364
-0.00542474
0.00329556
0.00176442
0.00213621
0.00187141
-0.00503936
0.00219032
0.00145274
0.00524572
-0.00515516
0.00186611
0.00109711
0.000435694
0.0015513
-0.00563669
0.000754103
0.00147262
-0.00551501
0.000539269
0.0012691
0.00678391
-0.00625144
-0.0001205
0.00127807
0.000366103
0.001479
-0.00583593
0.000527376
0.00148751
-0.00651634
1.28628e-05
0.00130054
-0.00684425
-0.000399506
0.0024876
0.0074585
-0.00746516
0.000248102
0.00263611
-0.000572955
0.000501519
-0.00621814
0.0011653
0.00128774
-0.00672196
0.0003878
0.00133002
-0.00641227
-8.87962e-05
0.00252525
-0.00675169
-0.000620133
0.00271618
0.00566836
-0.00581151
-0.00046453
0.00249951
-0.000385033
4.43867e-05
-0.00625908
0.00104149
0.000547683
-0.0058317
0.00045976
0.000948475
-0.00581182
0.000146237
0.00232281
-0.00625237
-0.000620789
0.00258855
-0.00620272
-0.000698099
0.00217927
0.00316999
-0.00360849
-0.000466505
0.00156935
-0.000710068
-0.000153568
-0.00483966
0.000360007
-9.67644e-06
-0.00494244
-1.50909e-05
0.000686682
-0.00613526
-3.50845e-06
0.00109365
-0.00604695
-0.000362064
0.00209461
-0.00565097
-0.000857932
0.00199929
-0.00346823
-0.000971675
0.00115906
0.00231362
-0.00253088
-0.00100078
0.000656231
-0.000754256
-0.00023305
-0.00282616
2.0978e-05
-6.98259e-05
-0.0045304
-9.19349e-05
0.000526644
-0.0053427
-3.6272e-05
0.000612593
-0.00410131
-8.20281e-05
0.00126436
-0.00485651
-0.000575161
0.0016723
-0.00377837
-0.0005286
0.000981776
-0.00123114
-0.000687007
0.000332943
0.000728204
-0.000722811
-0.000650433
0.000238432
-0.000424513
-0.000176457
-0.00168219
-0.000127096
0.000234046
-0.00249168
-6.26821e-05
0.000133403
-0.00271582
-9.2051e-05
0.000201921
-0.00303437
-0.00055862
0.000559179
-0.00338123
-0.000783813
0.00100991
-0.00185292
-0.000651427
0.00105384
-0.000260373
-0.000593639
0.000609941
0.00016524
-0.000456557
0.000340079
-0.00122758
0.00122278
-0.0003948
0.000287498
-0.000335594
3.51952e-05
-0.000717775
-0.000482784
3.40946e-05
-0.00132619
-0.000559378
-0.000121161
-0.00148051
-0.000606036
3.01756e-05
-0.0019664
-0.000772018
0.00030028
-0.00182661
-0.000772933
0.000466565
-0.0011151
-0.000672392
0.000601804
-0.000410269
-0.000539393
0.000573445
0.000611773
-0.000432705
0.00048034
0.00150973
-0.000398554
0.000378433
-0.00199529
0.00185799
-0.000362763
0.000179367
-0.000254964
-3.72372e-05
-0.000810037
-0.000535198
8.54514e-05
-0.000463512
-0.000552398
1.43984e-05
-0.00054046
-0.00054825
0.000103668
-0.000410904
-0.000503823
0.000157092
0.000166683
-0.000462002
0.000229469
-0.000249399
-0.000417872
0.000307912
-0.0010525
-0.000377691
0.00037114
-0.000686543
-0.000338075
0.000322761
8.44091e-05
-0.000323349
0.000265383
0.000636234
-0.000298921
8.15549e-05
-0.000623875
0.00054185
-0.00024291
1.74341e-05
-6.08253e-05
8.1139e-05
-0.00170137
-0.000172658
9.17942e-05
-0.000669645
-0.000156681
8.37273e-05
8.19029e-05
-0.00016441
6.84615e-05
0.000136806
-0.000162501
5.69666e-05
0.000741686
-0.00014978
5.89713e-05
0.000122086
-0.000127511
5.18816e-05
-0.000512424
-0.000112615
7.96356e-05
-0.000924622
-0.000106342
8.77884e-05
-0.00149595
-0.000102005
0.000132413
-0.000555755
-8.74599e-05
3.20833e-05
0.000330442
-6.45483e-05
1.69628e-05
-0.000208528
0.000175117
-4.32507e-05
0.00158029
0.00604227
-0.00617247
0.00396319
0.00146549
0.00344949
0.00210586
-0.00559875
0.00334558
0.00144005
0.00557167
-0.00555423
0.00329081
0.00105436
0.00193103
0.00206062
-0.00518461
0.00206523
0.00180439
-0.00528714
0.00199053
0.00108356
0.005195
-0.00468978
0.00154644
0.00118771
0.000196579
0.00194064
-0.0057693
0.000817516
0.00163268
-0.00556561
0.000659532
0.0011611
-0.00573306
0.000160324
0.00208189
0.00808413
-0.00809943
0.000300512
0.0023829
0.000479145
0.00102983
-0.00576958
0.000708076
0.00145375
-0.00627218
0.000117201
0.00104895
-0.00686208
0.000311774
0.00219097
-0.00712436
-0.00040603
0.00280275
0.00704033
-0.00687842
-3.76316e-07
0.00306849
-0.000188701
0.000436305
-0.00627684
0.00134519
0.00100255
-0.00660308
0.000591557
0.00112221
-0.00656421
0.000366006
0.00238599
-0.00618776
-0.000715906
0.00295853
-0.00599081
-0.000810814
0.00285507
0.00442273
-0.0048934
-0.000669657
0.00201666
-0.0003584
-8.91823e-05
-0.00635747
0.00110621
0.000311842
-0.0057121
0.000600372
0.00101024
-0.00576836
9.27314e-05
0.00125868
-0.0059199
-0.00035127
0.00234938
-0.00627391
-0.000804366
0.00249108
-0.00412726
-0.000671122
0.00173035
0.00300577
-0.00335911
-0.00068445
0.0011647
-0.000877744
-0.000257069
-0.00450837
0.000470115
-0.000172673
-0.00448752
7.93169e-06
0.000486502
-0.00608746
-2.2747e-05
0.000892299
-0.00611858
-0.000211587
0.00182978
-0.00578941
-0.000789047
0.00218974
-0.00394203
-0.000901572
0.00138881
-0.00277893
-0.00113067
0.000621763
0.00153233
-0.00191698
-0.000904951
0.000212627
-0.000699386
-0.000331883
-0.002608
1.36342e-05
-0.000110928
-0.00408471
-7.97404e-05
0.000401046
-0.00547466
-0.000227619
0.00052156
-0.00447851
2.12908e-05
0.000980596
-0.00496398
-0.000395974
0.00153076
-0.00427861
-0.000595768
0.00129945
-0.00140206
-0.000603291
0.000576095
-0.000711344
-0.000664629
0.000312105
8.57576e-05
-6.72749e-05
-0.000640941
0.000185249
-0.000382443
-1.95878e-05
-0.0015295
-0.000180784
0.000114189
-0.00238604
-0.000312828
7.48419e-05
-0.00281989
-0.000154613
0.000251792
-0.00294586
-0.000402184
0.000449136
-0.00338518
-0.000703525
0.000944708
-0.00242511
-0.000689766
0.00112898
-0.000883791
-0.000555189
0.000827607
-0.00021583
-0.00046673
0.000580338
0.00109132
-0.000425096
0.000341344
-0.00175089
0.00177795
-0.000384773
0.00027407
-0.000345525
8.31334e-05
-0.000695135
-0.000410081
2.89055e-05
-0.00122692
-0.000525508
1.04983e-05
-0.00148353
-0.00055246
-2.65073e-05
-0.00174465
-0.000697611
0.000200116
-0.00187779
-0.000763862
0.000421745
-0.00139518
-0.000685125
0.000559852
-0.000774734
-0.000559866
0.000679411
0.000211308
-0.000447198
0.000575026
0.00122608
-0.000401323
0.000505009
0.00165916
-0.000439346
0.000243579
-0.0017354
0.00162746
-0.000416852
5.98544e-05
-0.000238761
-1.40841e-05
-0.000705597
-0.000535802
7.76226e-05
-0.000435916
-0.000548622
-1.73667e-07
-0.000463581
-0.000545376
6.54098e-05
-0.000451247
-0.000504855
0.000135719
3.63086e-05
-0.000452201
0.000216648
-0.000472363
-0.000396715
0.000316708
-0.00136999
-0.000365213
0.000380271
-0.00102543
-0.000339441
0.000333073
-0.000174932
-0.000324019
0.000296674
0.00045413
-0.000305505
0.000108466
0.000438299
-0.000271752
2.47979e-05
0.000554894
-0.000573508
-0.000232131
8.98842e-06
-4.18447e-05
8.72159e-05
-0.00177322
-0.000175125
9.30954e-05
-0.000771845
-0.000163553
7.84741e-05
1.52167e-05
-0.000168469
5.45834e-05
8.20941e-05
-0.000164282
5.17717e-05
0.000674776
-0.000147363
4.57837e-05
5.05141e-05
-0.000123992
4.08581e-05
-0.00056979
-0.000111003
6.45293e-05
-0.000995331
-0.000106435
7.79655e-05
-0.00158053
-9.97248e-05
0.00013031
-0.000703192
-8.48773e-05
4.76644e-05
0.000258278
-6.29601e-05
2.51509e-05
0.000134384
-4.89657e-05
8.52666e-05
-0.000575293
0.000460433
-1.3658e-05
0.0012542
0.00576707
-0.00575271
0.00440661
0.00136999
0.00413123
0.00179475
-0.00601324
0.00417063
0.00146399
0.00605796
-0.00623277
0.00411405
0.000947507
0.00343419
0.00180669
-0.00540265
0.00309664
0.00163323
-0.00541668
0.0033792
0.00127425
0.00483927
-0.00490193
0.00316277
0.00111349
0.00151107
0.00240608
-0.00521947
0.0017031
0.00186833
-0.0053198
0.00186223
0.0013165
-0.00445405
0.0015994
0.00126046
0.00660172
-0.00562279
0.00138893
0.00165942
0.000618257
0.00145307
-0.00571379
0.000933361
0.00176538
-0.00612263
0.00106292
0.00104804
-0.00562188
0.000549256
0.0013592
-0.0075005
0.000393171
0.00226325
0.00833204
-0.00817948
0.000687449
0.00320653
0.000537035
0.00103783
-0.00581287
0.000923701
0.00140735
-0.00604176
7.28587e-05
0.000685065
-0.00635874
5.09979e-05
0.00160557
-0.00644907
0.000416902
0.00315961
-0.00733547
-0.00015005
0.00299482
0.0054817
-0.0055525
-6.93269e-05
0.00250502
-6.6157e-05
0.000194131
-0.00632433
0.00152117
0.000799339
-0.00642136
0.000675973
0.00116557
-0.00655258
0.000424609
0.00159444
-0.00601924
-0.000138267
0.0026385
-0.00614901
-0.000846837
0.00328255
-0.00549769
-0.000998003
0.00213876
0.00361747
-0.00401398
-0.000681557
0.00155145
-0.000261934
-2.70144e-05
-0.00662616
0.0010156
7.6529e-05
-0.00567279
0.000817702
0.000863699
-0.00589239
0.000347205
0.00117584
-0.00605317
-5.75384e-05
0.00206478
-0.00613522
-0.000724954
0.00256373
-0.00458853
-0.000717099
0.00203318
-0.0036105
-0.00106409
0.00140728
0.00209196
-0.00279564
-0.00076629
0.000511758
-0.000774311
-6.3148e-05
-0.00469171
0.000350365
-0.00030082
-0.0039761
0.000148591
0.000265024
-0.00594881
5.29816e-06
0.000784634
-0.00637638
-2.80249e-05
0.00148509
-0.00589779
-0.000607693
0.0022774
-0.00475545
-0.000722274
0.00160871
-0.0030964
-0.000893355
0.000715403
-0.00218178
-0.00100517
0.000291682
0.00203981
-0.0021137
-0.000810638
5.08577e-05
-0.000654358
-0.000268091
-0.00237679
-0.000199079
-0.00030599
-0.00354512
-0.000105781
0.000140429
-0.00526679
-0.000353195
0.000579763
-0.00475099
-0.000283107
0.000777377
-0.00494488
-0.000326051
0.00140266
-0.00453173
-0.000600804
0.00168376
-0.00194842
-0.000604191
0.00101109
-0.000869753
-0.000628367
0.00071168
-0.000156723
-0.000706523
0.000171836
8.85617e-05
3.4453e-05
-0.000594449
0.000184792
-0.000348807
0.00015878
-0.00150346
-0.000256089
0.000112142
-0.00223395
-0.000416108
0.000235324
-0.00284413
-0.000513413
0.000300598
-0.00292552
-0.000502056
0.000422344
-0.0033995
-0.000610091
0.000826511
-0.0027798
-0.000753601
0.0011006
-0.00152019
-0.000594115
0.00103074
-0.000674713
-0.000447638
0.000760398
0.000935879
-0.000496659
0.000577583
0.00170192
-0.000421638
0.00023827
-0.00206804
0.00212383
-0.000435253
0.000172655
-0.000396402
0.00011278
-0.00070404
-0.000327975
3.11247e-05
-0.00110502
-0.000485479
6.45681e-06
-0.00150427
-0.000511393
-5.15645e-05
-0.00155655
-0.000623581
0.00018895
-0.00191864
-0.000709998
0.000429043
-0.00167193
-0.000699507
0.000557303
-0.00113604
-0.000564419
0.000742421
-0.000231287
-0.000479421
0.000662558
0.000882556
-0.000433161
0.000581355
0.0014251
-0.000451946
0.000354393
0.00142871
-0.000486517
0.000162844
-0.00049407
0.000388598
-0.000449427
1.25706e-05
-0.00023225
-6.32484e-07
-0.000613802
-0.00053239
8.39174e-05
-0.000424205
-0.000538335
-4.94949e-06
-0.000397311
-0.000531469
1.9541e-05
-0.000464203
-0.000497378
9.59335e-05
-7.29477e-05
-0.00043976
0.000182484
-0.00068279
-0.000378475
0.000287987
-0.00166839
-0.000345446
0.000362399
-0.00134399
-0.000344523
0.000326141
-0.000437262
-0.000325286
0.000303903
0.000262289
-0.000305771
0.000128896
0.00032641
-0.000274849
4.17407e-05
-0.000605419
-0.000256431
-2.30879e-05
0.000265158
-0.000219402
-0.000169532
9.07717e-05
-1.25461e-05
8.21182e-05
-0.00183368
-0.000176921
9.2752e-05
-0.000870322
-0.0001694
6.76809e-05
-4.44101e-05
-0.000171608
4.07249e-05
3.81456e-05
-0.000165245
4.6039e-05
0.000609168
-0.000144713
3.32446e-05
-9.18131e-06
-0.000120912
2.7318e-05
-0.000611311
-0.000109789
5.65834e-05
-0.00105649
-0.000106424
6.92022e-05
-0.00165842
-9.77455e-05
0.000126406
-0.000847479
-8.18444e-05
6.4422e-05
0.000169938
-6.09589e-05
2.90624e-05
9.1648e-05
-4.92865e-05
8.66149e-05
0.000340435
-1.55865e-05
0.000109658
-0.00220956
0.0020855
7.3995e-07
0.000723304
0.00588228
-0.0054097
0.00422909
0.000871572
0.00435656
0.00118933
-0.00551771
0.00481699
0.00145885
0.00592363
-0.00597133
0.00445944
0.00087323
0.00417959
0.00118381
-0.00579609
0.00426546
0.0012742
-0.00616307
0.00445996
0.00130838
0.00595706
-0.00603273
0.00415559
0.000972007
0.0030543
0.00237104
-0.00540363
0.00275397
0.00177722
-0.0053716
0.00314265
0.00149699
-0.00487731
0.00317409
0.00116263
0.00579561
-0.00516476
0.00262976
0.00139722
0.00145784
0.00192759
-0.00526859
0.00170897
0.00225658
-0.00578244
0.00167454
0.00145001
-0.00456609
0.0015723
0.00158403
-0.00523199
0.00098377
0.00192062
0.00749336
-0.0070815
0.00131969
0.00212086
0.00122483
0.00135782
-0.00537353
0.00111143
0.00172482
-0.00570612
0.000199381
0.000553646
-0.00533391
0.000906366
0.00108322
-0.00685714
0.000428242
0.00292647
-0.00800231
0.000449146
0.00258712
0.00830775
-0.00829285
0.00108025
0.00225092
0.000382916
0.000787999
-0.00595918
0.00126205
0.00169579
-0.0063864
0.000371896
0.00147992
-0.00665165
5.14236e-05
0.00171101
-0.00666716
0.000152516
0.00287988
-0.0071418
-1.81457e-05
0.00367696
-0.00559151
-0.000505445
0.00225084
0.00479477
-0.00502938
5.32064e-05
0.00206843
-2.35201e-05
0.000331786
-0.00648581
0.00154735
0.000444307
-0.00612909
0.00086112
0.00096523
-0.00633679
0.000358648
0.00141145
-0.00589038
6.01467e-05
0.00253408
-0.00602661
-0.000729971
0.00312019
-0.00575889
-0.00114209
0.00254004
-0.00451399
-0.00100486
0.00158381
0.00299709
-0.003529
-0.000326181
0.00094676
-9.68407e-05
-8.40383e-05
-0.0065448
0.000913351
2.55913e-05
-0.00584166
0.000858069
0.000710364
-0.00593758
0.000417552
0.00108344
-0.00620865
0.000203879
0.0018677
-0.00612002
-0.000455361
0.00276373
-0.00515378
-0.000646035
0.00199321
-0.00357007
-0.00114203
0.00164015
-0.00347637
-0.00130812
0.00045892
0.00226155
-0.00242149
-0.000773587
0.000142521
-0.000675958
-0.000200908
-0.0046123
0.000228774
-0.000483475
-0.00367588
0.000227632
1.63137e-05
-0.00573864
6.25418e-05
0.000687717
-0.00651617
3.71418e-05
0.00122316
-0.00606541
-0.000306191
0.00210568
-0.00524671
-0.000819457
0.00222228
-0.00368173
-0.000675471
0.00108034
-0.00227844
-0.00086595
0.000644974
-0.00214448
-0.000907693
-0.000162862
0.00158388
-0.00138731
-0.000672508
-1.60185e-05
-0.000562511
-7.60696e-05
-0.00203179
-0.000408141
-0.000304915
-0.00305618
-0.000270958
-4.95984e-06
-0.00474895
-0.000383336
0.000567127
-0.00474192
-0.000628793
0.000676635
-0.00491731
-0.00056497
0.00124277
-0.00465667
-0.000617374
0.00166851
-0.00260433
-0.000512798
0.0013143
-0.00116655
-0.000590951
0.00107712
-0.000375979
-0.000725834
0.000453779
0.000139946
-0.000688212
-9.31146e-05
-0.000706256
0.000998918
-0.000555726
8.61514e-05
-0.00039099
0.000161865
-0.00149786
-0.000276106
8.09971e-05
-0.00210007
-0.000439841
0.000246908
-0.00282616
-0.000674531
0.000242501
-0.00299584
-0.000737159
0.000488122
-0.00351001
-0.000690716
0.000724516
-0.00294962
-0.000735742
0.00100198
-0.00203012
-0.000688352
0.00122978
-0.0012914
-0.00046479
0.000937917
0.000681207
-0.000468324
0.000716645
0.00161528
-0.000545308
0.000468653
0.00208613
-0.000498206
0.000382386
-0.00194744
0.00188848
-0.000595832
0.000139107
-0.000442405
0.000146028
-0.00076451
-0.000256961
5.01188e-05
-0.000964491
-0.000434707
-1.06352e-05
-0.00150984
-0.000474225
-8.53934e-06
-0.00147678
-0.000563089
0.000177251
-0.0019935
-0.000630035
0.000458599
-0.00197144
-0.000686604
0.000594166
-0.00153505
-0.000606674
0.000799304
-0.000761806
-0.000470805
0.000700257
0.00048557
-0.000456551
0.000631301
0.00116114
-0.000496593
0.000387802
0.00121962
-0.000501764
0.000226512
0.000222445
-0.000505137
-0.000105373
0.000446134
-0.000419728
-0.000393548
-3.6642e-05
-0.000175439
1.1263e-05
-0.000547017
-0.000522796
8.91604e-05
-0.000430399
-0.000522605
-1.44011e-05
-0.000344374
-0.00050919
-2.77242e-05
-0.000446537
-0.000480686
4.86504e-05
-0.000148749
-0.000424188
0.000159172
-0.000884804
-0.000363673
0.000250058
-0.00193957
-0.00033003
0.00033965
-0.0016309
-0.0003416
0.000357278
-0.000743969
-0.000325891
0.000317174
5.16316e-05
-0.000305396
0.000144597
0.000217541
-0.000277077
6.43741e-05
-0.000658996
-0.000256583
2.38903e-06
-0.000205946
-0.000185661
2.89649e-05
0.000188058
-0.000157927
-0.00011897
9.70393e-05
-3.78416e-07
7.96226e-05
-0.00188676
-0.000176684
9.70124e-05
-0.000970491
-0.000173764
5.84172e-05
-9.86409e-05
-0.000173587
2.9834e-05
1.93357e-06
-0.00016523
4.06877e-05
0.000545047
-0.000141813
2.23191e-05
-5.79042e-05
-0.000118309
1.44485e-05
-0.000637476
-0.000109196
5.63714e-05
-0.00111673
-0.000105925
6.23449e-05
-0.00173076
-9.643e-05
0.000124297
-0.000990929
-7.85928e-05
8.3589e-05
6.29095e-05
-5.84053e-05
3.23768e-05
4.65677e-05
-4.82554e-05
7.94804e-05
0.000226672
-1.50032e-05
0.00013011
0.00193801
1.79937e-06
0.000146601
-0.0034351
0.00329127
-2.02386e-06
0.000372598
0.00569838
-0.00559829
0.00432358
0.000391807
0.00410294
0.000805604
-0.00520735
0.00482656
0.000762719
0.00630551
-0.00588998
0.0045097
0.000416225
0.00449891
0.000992082
-0.00565147
0.00483334
0.00123496
-0.00600989
0.0048948
0.00108929
0.00626123
-0.00608988
0.00450718
0.000909247
0.00416332
0.00198234
-0.00559244
0.00384698
0.0013499
-0.00594621
0.00447592
0.00130149
-0.00593195
0.00455468
0.00113749
0.00584362
-0.00577067
0.00410778
0.00136348
0.00268725
0.00185915
-0.0051404
0.00288846
0.00233194
-0.00558128
0.00288829
0.00154716
-0.00502107
0.00318926
0.00143678
-0.00471016
0.00286674
0.00171602
0.00648686
-0.0060173
0.0023648
0.00165704
0.00158314
0.00182218
-0.00522382