/*--------------------------------*- C++ -*----------------------------------*\
  =========                 |
  \\      /  F ield         | OpenFOAM: The Open Source CFD Toolbox
   \\    /   O peration     | Website:  https://openfoam.org
    \\  /    A nd           | Version:  7
     \\/     M anipulation  |
\*---------------------------------------------------------------------------*/
FoamFile
{
    version     2.0;
    format      ascii;
    class       volVectorField;
    location    "8.5";
    object      U;
}
// * * * * * * * * * * * * * * * * * * * * * * * * * * * * * * * * * * * * * //

dimensions      [0 1 -1 0 0 0 0];

internalField   nonuniform List<vector> 
18720
(
(0.642492 0.35264 -3.01433)
(0.540404 0.764683 -2.77023)
(0.758849 0.348536 -2.93078)
(0.566658 0.371031 -3.12293)
(1.04675 -0.232736 -2.37012)
(0.281457 0.86542 -3.13195)
(0.565983 0.796998 -2.6837)
(0.589048 0.74944 -2.84443)
(0.636467 0.347547 -2.8107)
(1.08418 -0.221028 -2.39771)
(0.567847 0.389879 -3.25163)
(1.03332 -0.228692 -2.31988)
(0.750236 -0.3505 -2.36218)
(1.01979 1.82928 -1.57752)
(0.535638 0.896934 -2.80058)
(0.124821 0.945318 -3.35729)
(0.27393 1.02418 -2.87907)
(0.516925 0.358054 -2.70415)
(0.581045 0.719433 -2.94527)
(0.675465 0.320076 -2.93043)
(0.549952 0.244537 -2.73006)
(0.723452 -0.351063 -2.32513)
(0.64349 0.396547 -3.38239)
(0.994705 -0.234915 -2.26151)
(0.743635 -0.36099 -2.42307)
(0.835839 -0.396061 -2.57522)
(0.766962 2.60734 -0.0306631)
(0.774631 1.82729 -2.33976)
(0.92183 1.68748 -0.940161)
(0.710781 1.73486 -2.4971)
(0.455402 0.976565 -2.55573)
(0.079352 0.910411 -3.54828)
(0.273387 1.0346 -3.16361)
(1.08735 0.893291 -2.66991)
(0.594459 0.223116 -2.54643)
(0.526024 0.704183 -3.06964)
(0.679325 0.264579 -3.06203)
(0.536272 0.274754 -2.91095)
(0.808568 -0.146403 -2.58529)
(0.832098 -0.391328 -2.47161)
(0.75953 0.387652 -3.50864)
(0.934906 -0.227891 -2.21519)
(0.759003 -0.371135 -2.50411)
(0.828557 -0.403747 -2.69361)
(0.350817 -0.593705 -2.96859)
(1.00339 2.81456 -0.20015)
(0.980402 2.73176 -0.213343)
(0.534308 2.52627 0.0375815)
(0.796425 2.44235 -0.503321)
(0.641137 1.63674 -2.66865)
(0.781535 1.55585 -0.521831)
(0.107645 1.5603 -2.30291)
(0.857128 1.65227 -2.85874)
(1.01273 0.820314 -2.40925)
(0.081233 0.853472 -3.59796)
(0.387212 0.927271 -3.39853)
(0.938812 0.925759 -3.07157)
(1.13714 0.74547 -2.47828)
(0.80983 -0.204419 -2.44234)
(0.494263 0.666785 -3.20141)
(0.72742 0.22326 -3.1927)
(0.601807 0.274386 -3.09688)
(0.771638 -0.125661 -2.73919)
(0.808067 -0.626896 -2.50836)
(0.374894 -0.594679 -2.89402)
(0.896315 0.359648 -3.63126)
(0.848853 -0.21524 -2.21666)
(0.773762 -0.38712 -2.60455)
(0.804356 -0.409214 -2.82697)
(0.322695 -0.588903 -3.04563)
(0.404424 -0.324747 -3.21228)
(1.23109 3.05985 0.310025)
(1.07048 2.92285 -0.487775)
(0.877677 2.7638 0.107748)
(1.1939 2.74063 -0.960266)
(1.04488 2.62358 -1.16431)
(0.268625 2.46273 0.20057)
(0.695038 2.43404 0.165124)
(1.61106 2.25767 -1.61321)
(1.13145 1.57241 -2.25299)
(0.729093 1.42351 -0.19711)
(-0.0077861 1.47623 -1.43173)
(0.827171 1.704 -2.92208)
(1.34341 1.28861 -2.31203)
(1.15283 0.743207 -2.13637)
(0.0429089 0.793595 -3.44472)
(0.271303 0.887484 -3.51447)
(0.574 0.992393 -3.45014)
(1.09231 0.814303 -2.81239)
(1.39259 0.245449 -2.36766)
(0.806794 -0.636023 -2.36078)
(0.484369 0.624031 -3.3267)
(0.785688 0.150158 -3.32234)
(0.619296 0.256133 -3.29459)
(0.735792 -0.122031 -2.89842)
(0.823068 -0.571399 -2.67385)
(0.925647 -0.406841 -2.95924)
(0.414474 -0.339814 -3.17665)
(1.04543 0.305414 -3.74121)
(0.776716 -0.188787 -2.29288)
(0.78154 -0.405931 -2.72135)
(0.761893 -0.412476 -2.96475)
(0.289159 -0.581112 -3.1182)
(0.387046 -0.314862 -3.23454)
(0.476944 0.0521108 -2.91589)
(1.76932 3.09469 -0.02274)
(1.54591 2.93782 -0.364269)
(0.983457 3.11451 0.41778)
(1.41382 2.8131 -1.33952)
(1.18159 2.81378 -1.3809)
(0.58075 2.88379 0.776206)
(1.07254 2.59891 -0.63619)
(1.84471 2.60803 -1.74807)
(1.6439 2.20519 -2.15883)
(-0.224474 2.30261 0.680888)
(0.406537 2.5013 0.58097)
(1.2639 2.16542 -0.790673)
(1.83854 1.88079 -2.72948)
(1.35752 1.10248 -1.93507)
(0.689836 1.31574 0.103273)
(0.235496 1.24427 -0.602463)
(0.663931 1.62868 -2.48491)
(1.21766 1.41299 -2.93654)
(1.91901 0.820457 -1.98)
(1.27779 0.106738 -2.1725)
(-0.0089046 0.696961 -3.13642)
(0.198715 0.837684 -3.45115)
(0.522509 0.98502 -3.60151)
(1.04833 0.849784 -3.18964)
(1.45961 0.305424 -2.59096)
(1.59768 -0.109488 -2.28521)
(0.920175 -0.435253 -2.85225)
(0.451736 0.574789 -3.44588)
(0.802276 0.0925499 -3.45719)
(0.620118 0.222439 -3.49751)
(0.758182 -0.0971716 -3.05675)
(0.813637 -0.521215 -2.85127)
(0.95267 -0.34528 -3.04765)
(0.765393 -0.0564161 -2.9031)
(0.51264 0.0415367 -3.01668)
(1.20629 0.242474 -3.82897)
(0.736905 -0.160182 -2.4332)
(0.782571 -0.42677 -2.85025)
(0.699805 -0.40546 -3.10329)
(0.258144 -0.555073 -3.18257)
(0.356665 -0.294499 -3.24715)
(0.416178 0.0633617 -2.79897)
(0.462312 0.264809 -2.50509)
(1.30299 3.17151 -0.0553361)
(1.4252 3.21008 -0.488393)
(1.82345 2.75137 0.292378)
(1.65175 3.27046 -0.449178)
(1.72977 3.09943 -1.62388)
(1.02508 2.98934 0.761257)
(1.33004 3.05384 0.118212)
(1.90285 3.13746 -1.29642)
(2.15608 2.66768 -1.53439)
(0.443744 2.69587 1.14679)
(1.03738 2.59608 -0.110437)
(1.40208 2.66121 -1.5483)
(2.39276 2.73547 -1.3481)
(1.80054 1.92087 -2.50112)
(-0.255673 2.19979 0.625682)
(0.21706 2.66551 0.471179)
(0.873522 2.06937 -0.0410333)
(2.15207 2.05142 -1.92215)
(1.81718 1.43686 -2.45277)
(2.14658 0.826988 -1.61107)
(0.570654 1.17481 0.199836)
(0.344055 1.08865 -0.0708895)
(0.30778 1.51155 -1.66502)
(1.2548 1.60279 -3.04747)
(1.68579 0.933438 -2.33658)
(1.63979 -0.0736822 -2.18137)
(1.60912 -0.2378 -2.12207)
(0.0007499 0.617707 -2.77072)
(0.125112 0.793482 -3.19112)
(0.596 0.942831 -3.44613)
(1.01581 0.929419 -3.49338)
(1.33487 0.381506 -2.85607)
(1.40696 -0.125391 -2.56913)
(1.51234 -0.495952 -2.19442)
(0.783457 -0.140865 -2.85924)
(0.341155 0.566074 -3.55265)
(0.801352 0.0199349 -3.58914)
(0.590123 0.217767 -3.68272)
(0.792024 -0.133039 -3.21879)
(0.779489 -0.489941 -3.02849)
(0.96723 -0.304946 -3.11805)
(0.620252 0.00841188 -2.94628)
(0.8038 -0.130913 -2.41477)
(0.471441 0.253424 -2.60115)
(1.27994 0.184588 -3.92798)
(0.72834 -0.147282 -2.61531)
(0.778402 -0.448044 -2.98666)
(0.627049 -0.39675 -3.23969)
(0.220411 -0.551578 -3.23614)
(0.317654 -0.283061 -3.24878)
(0.333799 0.0841401 -2.67898)
(0.437585 0.277938 -2.4227)
(0.815332 0.570219 -2.24588)
(1.0987 2.91733 0.939259)
(1.18009 3.57481 -0.282853)
(1.68154 2.72189 0.0266736)
(1.38899 3.4609 -0.518734)
(2.05507 3.32753 -1.33237)
(0.833997 3.01706 0.91047)
(1.69189 3.08485 0.0477285)
(2.68473 3.10882 -0.569325)
(2.48411 2.8908 -1.83648)
(0.705619 3.05713 2.075)
(1.4087 2.84724 0.221995)
(1.79874 2.79311 -0.616611)
(2.53645 2.90309 -1.90448)
(2.34831 2.55056 -1.27419)
(0.332779 2.53135 1.44619)
(1.02193 2.55557 -0.208656)
(1.64244 2.40812 -0.863631)
(2.34609 2.74168 -1.43114)
(2.65518 2.40506 -1.69035)
(1.55139 1.22872 -2.34526)
(-0.419172 2.18831 0.739494)
(0.380656 2.74508 -0.0375695)
(0.594324 2.18544 0.898135)
(1.627 1.94149 -1.42123)
(2.10444 1.59838 -2.40314)
(2.00319 1.08403 -1.68936)
(1.54908 -0.164954 -2.17052)
(0.436218 1.0605 0.102261)
(0.340817 1.00845 0.148613)
(0.108156 1.34686 -0.80623)
(1.18054 1.58052 -2.6849)
(1.70144 1.0966 -2.58426)
(1.91682 0.0359283 -2.0351)
(1.5284 -0.341141 -1.76753)
(1.6124 -0.452562 -2.06888)
(-0.0170778 0.531333 -2.45662)
(0.0936436 0.758614 -2.92237)
(0.314094 0.901708 -3.063)
(0.844816 0.962087 -3.6272)
(1.12469 0.477975 -3.11664)
(1.19478 0.0484327 -2.79502)
(1.58835 -0.371528 -2.22167)
(1.13044 -0.602754 -1.90035)
(0.719171 -0.188969 -2.40788)
(0.0798327 0.625535 -3.64899)
(0.806279 -0.0558333 -3.71379)
(0.541254 0.177483 -3.84053)
(0.785547 -0.109935 -3.39278)
(0.746811 -0.41453 -3.19418)
(0.97013 -0.273233 -3.18409)
(0.666358 0.112212 -2.9432)
(0.936528 -0.068798 -2.41615)
(1.06808 -0.268788 -2.1932)
(0.928233 0.581136 -2.28662)
(1.32414 0.132401 -4.01306)
(0.748772 -0.146388 -2.82204)
(0.764429 -0.467366 -3.12732)
(0.587003 -0.37671 -3.36874)
(0.236015 -0.525858 -3.2874)
(0.286272 -0.240263 -3.23342)
(0.246217 0.117252 -2.56769)
(0.402189 0.301826 -2.36874)
(0.717702 0.586692 -2.20075)
(1.10297 0.131869 -2.27151)
(1.37084 2.61342 2.06999)
(1.03927 3.04184 0.963965)
(1.39187 2.77261 0.826265)
(1.04219 2.78664 0.761535)
(0.908184 3.68593 -0.26711)
(1.13499 2.79692 0.614611)
(1.17008 3.27581 0.068353)
(1.44368 3.60961 0.234216)
(1.64984 4.00364 -0.638363)
(1.18213 2.83503 1.17887)
(1.73775 3.01179 0.31635)
(1.67369 3.33585 0.0904728)
(2.34245 3.37627 -0.659588)
(2.46923 2.78355 -1.73926)
(0.869486 2.9769 1.97248)
(1.1087 2.98056 1.02302)
(1.20779 2.99249 0.17641)
(2.5988 2.50633 -1.87197)
(2.78498 2.56829 -1.04226)
(2.48616 2.095 -1.66446)
(0.39916 2.4367 1.62299)
(0.800089 2.55071 -0.373443)
(1.5801 2.36885 -0.392894)
(2.19091 2.72069 -0.871172)
(2.80095 2.38205 -1.81784)
(2.25321 1.56349 -1.32276)
(1.57354 0.903217 -1.94208)
(-0.897471 1.67116 0.910945)
(0.814978 2.52653 0.188308)
(0.735693 2.25953 0.974561)
(1.26762 1.91386 -0.374753)
(2.07947 1.96896 -1.85496)
(2.48551 1.22126 -1.25316)
(1.23345 0.69255 -1.70145)
(1.36554 -0.338036 -1.78585)
(0.695281 0.803677 -0.128484)
(0.553528 0.979726 -0.00994092)
(-0.00448495 1.32255 -0.20104)
(0.887411 1.47952 -1.99027)
(1.6536 1.20485 -2.68337)
(1.94057 0.266725 -1.98887)
(1.72344 -0.229167 -1.78052)
(0.829056 -0.202386 -1.52485)
(1.03187 -0.633743 -1.88205)
(-0.0250602 0.486109 -2.09157)
(0.0669815 0.744488 -2.74358)
(0.164295 0.855278 -2.60297)
(0.736497 0.944841 -3.47799)
(1.09917 0.576178 -3.28974)
(1.00754 0.155976 -2.93128)
(1.55956 -0.251879 -2.31766)
(1.21389 -0.554306 -1.9463)
(1.14044 -0.840667 -1.52183)
(1.03445 -0.294104 -2.14866)
(0.0504994 0.558809 -3.73055)
(0.815396 -0.138037 -3.82041)
(0.495887 0.137632 -3.95816)
(0.727898 -0.0979022 -3.56502)
(0.662788 -0.404117 -3.31846)
(0.923166 -0.248668 -3.24507)
(0.856413 0.173927 -2.90872)
(1.07957 -0.00473546 -2.44042)
(1.0808 -0.235544 -2.22327)
(0.79249 -0.386766 -2.11582)
(1.02228 0.113855 -2.25772)
(1.35052 0.0612259 -4.05929)
(0.78881 -0.158936 -3.04087)
(0.738771 -0.480459 -3.26861)
(0.523914 -0.360447 -3.49166)
(0.179816 -0.506114 -3.33158)
(0.250152 -0.209582 -3.18047)
(0.167634 0.158359 -2.47011)
(0.38815 0.318973 -2.35839)
(0.629181 0.601899 -2.16169)
(1.10108 0.11881 -2.24572)
(0.197051 -0.184772 -1.52458)
(0.973733 2.6717 3.1041)
(1.12813 2.76996 2.02723)
(1.32758 2.42187 2.14492)
(0.998106 2.55718 2.06788)
(0.58972 3.07922 0.982677)
(1.34188 2.65904 0.990765)
(0.878041 2.59724 1.05449)
(1.20541 3.12839 -0.282328)
(1.08798 3.8763 0.244955)
(1.55222 2.63236 0.843306)
(1.66917 3.14641 -0.113497)
(1.32221 3.48564 0.0554947)
(2.01689 3.98923 0.60407)
(2.64725 3.29612 -1.18547)
(0.875433 3.0096 2.06722)
(1.76486 3.04646 0.617965)
(1.7643 2.91639 0.400106)
(1.99995 3.80466 -0.222411)
(3.14916 2.78982 -1.02311)
(2.72619 2.19585 -0.932913)
(0.816565 2.97353 1.90115)
(1.111 2.71323 1.20382)
(1.45817 2.72909 0.504318)
(1.91699 2.97246 -0.511826)
(2.77699 2.92594 -1.14612)
(2.38053 1.79115 -0.493814)
(1.90499 1.42999 -1.14145)
(0.671946 2.40707 1.41153)
(0.52296 2.53675 0.0525955)
(1.29617 2.79035 -0.0852455)
(1.90657 2.69735 -0.236857)
(2.98831 2.42303 -1.23059)
(2.47987 1.57108 -1.65689)
(1.21163 1.2341 -2.00771)
(0.861449 0.739601 -1.87159)
(0.315666 1.76977 0.162696)
(1.05433 2.14743 0.286921)
(1.90034 2.17088 -0.566445)
(1.05233 1.82266 0.17711)
(1.88134 2.07061 -1.15736)
(2.47691 1.42175 -1.27864)
(1.78205 0.553218 -1.43923)
(0.743481 0.376769 -1.69346)
(0.515248 -0.255036 -1.54984)
(0.738666 0.60714 -0.211591)
(0.939456 0.902804 -0.364499)
(-0.0666371 1.41433 0.179197)
(0.529268 1.4578 -1.21959)
(1.25329 1.44318 -2.48741)
(1.89311 0.464518 -2.00627)
(1.61551 -0.224323 -2.01549)
(1.07332 -0.186946 -1.51035)
(0.824651 -0.565439 -1.19963)
(1.05759 -0.822141 -1.51951)
(-0.0166479 0.449267 -1.71536)
(0.0940816 0.723884 -2.59479)
(0.0931818 0.809776 -2.25338)
(0.642936 0.849287 -3.17996)
(1.07078 0.579871 -3.35668)
(0.931367 0.275392 -3.04414)
(1.42905 -0.128683 -2.49229)
(1.3668 -0.523758 -1.97816)
(1.21261 -0.816932 -1.5822)
(1.08613 -0.921434 -1.60849)
(0.721008 -0.401479 -2.02903)
(0.182518 0.41378 -3.80189)
(0.773882 -0.191243 -3.89666)
(0.45438 0.0862105 -4.02298)
(0.639339 -0.0749224 -3.69923)
(0.591282 -0.355814 -3.39966)
(0.87791 -0.175202 -3.24071)
(1.06013 0.215324 -2.80127)
(1.20523 0.0679226 -2.45999)
(1.04849 -0.198455 -2.25882)
(0.868557 -0.378276 -2.18956)
(0.152334 -0.276715 -1.84956)
(0.205917 -0.194574 -1.53714)
(1.38051 0.0286766 -4.05795)
(0.83879 -0.185848 -3.26197)
(0.700384 -0.484359 -3.40631)
(0.463729 -0.334621 -3.60155)
(0.165535 -0.478835 -3.36163)
(0.231796 -0.17749 -3.10396)
(0.119985 0.206605 -2.38817)
(0.396227 0.351018 -2.37358)
(0.545598 0.628381 -2.13738)
(1.04271 0.125505 -2.19706)
(0.258943 -0.174515 -1.49729)
(0.131071 -0.0880976 -1.25744)
(1.07813 3.00921 3.24448)
(1.04013 2.79069 3.11124)
(1.38042 2.65409 2.79349)
(1.13387 2.72013 3.07371)
(0.665653 2.65131 2.28763)
(1.50083 2.33729 2.01271)
(1.42541 2.49345 1.92342)
(0.657685 2.37612 1.84895)
(0.730568 3.50338 0.0278964)
(1.83795 2.4833 0.876524)
(1.48682 2.57434 0.620327)
(1.06971 2.87966 0.0943672)
(2.56525 3.72867 -0.040828)
(2.10775 3.88527 0.736237)
(1.43501 2.57109 1.34862)
(1.72925 2.86459 0.451257)
(1.33316 3.23555 0.153237)
(2.97178 3.01489 -1.09794)
(2.39629 3.70599 0.142516)
(2.50417 2.96427 -0.677937)
(1.03137 2.86113 2.33001)
(1.4174 3.06659 1.18376)
(1.57676 2.9786 0.507596)
(3.40161 2.17966 -0.648087)
(2.98538 2.87731 -1.31885)
(2.52857 2.40284 -0.404966)
(2.1106 1.57826 -0.399908)
(0.954047 2.97884 1.69073)
(0.981073 2.67885 1.45187)
(1.75428 2.44632 0.249782)
(1.8436 2.67057 -0.0255791)
(2.7214 2.86187 -1.40927)
(2.67628 1.78205 -0.998313)
(1.80542 1.64177 -1.14932)
(1.20007 1.17466 -1.82467)
(0.626022 2.18842 1.48388)
(0.404188 2.34064 0.0349749)
(1.3295 2.80653 -0.100611)
(1.8736 2.60792 0.0879823)
(2.6624 2.45174 -1.00948)
(2.77239 1.46378 -1.93675)
(1.29629 1.26339 -1.99299)
(0.370002 0.90064 -1.99781)
(0.431858 0.3999 -1.78429)
(-0.487284 1.61054 0.257071)
(1.20914 1.79422 -0.118635)
(1.97681 2.1698 -0.706364)
(1.2736 1.84316 0.315096)
(1.73744 2.09795 -0.485344)
(2.31726 1.68292 -1.38631)
(2.28926 0.417459 -1.23335)
(1.19083 0.312778 -1.57286)
(0.54147 0.0448344 -1.6206)
(0.596709 -0.534557 -1.20138)
(0.861802 0.419521 -0.370477)
(1.01465 0.853724 -0.596942)
(0.283226 1.39482 -0.093634)
(0.358138 1.44322 -0.731828)
(1.15282 1.35665 -2.03913)
(1.84264 0.661513 -2.1407)
(1.74781 0.0480978 -1.88344)
(1.44957 -0.121434 -1.45728)
(1.08886 -0.626519 -1.1934)
(0.950744 -0.795116 -1.41482)
(0.898547 -0.902977 -1.56721)
(0.00281737 0.430605 -1.31278)
(0.141678 0.664647 -2.44311)
(0.0536438 0.799406 -2.11221)
(0.503108 0.775066 -2.8525)
(0.782816 0.699 -3.28413)
(0.998195 0.365703 -3.14124)
(1.40737 -0.00857825 -2.60117)
(1.57761 -0.457855 -2.02131)
(1.33176 -0.812555 -1.61146)
(1.13281 -0.879225 -1.76545)
(0.611963 -0.811795 -1.64211)
(0.115735 -0.317473 -1.78647)
(0.25323 0.285614 -3.84841)
(0.675983 -0.198879 -3.92876)
(0.423489 0.0438928 -4.02438)
(0.528535 -0.0330705 -3.76133)
(0.532964 -0.28861 -3.41612)
(0.742363 -0.0803483 -3.13552)
(1.1174 0.309085 -2.61809)
(1.21671 0.134185 -2.46151)
(1.04266 -0.148771 -2.28292)
(0.892929 -0.354026 -2.26482)
(0.201047 -0.247714 -1.89526)
(0.159837 0.277288 -1.9225)
(0.0753772 -0.100834 -1.28741)
(1.4486 -0.0579799 -4.00265)
(0.892149 -0.225985 -3.47399)
(0.648127 -0.477106 -3.53531)
(0.410967 -0.30886 -3.6953)
(0.145952 -0.459578 -3.37665)
(0.221088 -0.147216 -3.01562)
(0.0915841 0.245317 -2.32767)
(0.383123 0.370863 -2.39116)
(0.480242 0.649942 -2.12919)
(1.00305 0.137563 -2.14066)
(0.391969 -0.174907 -1.45665)
(0.171789 -0.0789048 -1.23148)
(1.05561 -0.223918 -0.686603)
(0.805013 2.75855 3.31803)
(0.528446 3.00431 3.43461)
(1.48741 2.92825 3.02892)
(0.690965 3.00272 3.55445)
(0.484177 2.76688 3.31008)
(1.84322 2.51032 2.50518)
(1.2704 2.63124 2.9179)
(0.817097 2.31374 3.17818)
(0.638438 2.77434 1.78357)
(1.94232 2.26408 1.6457)
(1.4403 2.40949 1.8182)
(0.787017 2.11863 1.86822)
(0.802606 2.89379 1.35577)
(1.43941 4.33859 0.337648)
(1.54416 2.65221 1.17106)
(1.65572 2.63432 0.821443)
(1.04771 2.73923 0.718622)
(1.02642 3.85029 0.287075)
(2.42335 4.11307 0.772526)
(3.47982 3.25976 0.438177)
(1.49801 2.48321 1.44679)
(1.92021 2.60306 0.385529)
(1.62829 2.91629 -0.134735)
(1.84264 3.23067 0.649554)
(2.74148 3.16799 0.166673)
(3.06425 2.80311 -0.196954)
(2.22366 2.27414 0.100865)
(1.03033 2.9189 2.44861)
(1.41442 2.92525 1.41849)
(1.77927 2.93632 0.49218)
(1.73425 3.01544 0.489334)
(3.01292 2.63826 -1.13456)
(2.6996 2.35018 -0.947952)
(2.21219 1.93911 -1.51769)
(1.66705 1.48274 -0.883071)
(1.08778 3.06295 1.45737)
(0.936769 2.65098 1.84789)
(1.56766 2.54042 0.500038)
(1.69566 2.60882 0.0535203)
(2.72825 2.55115 -1.05292)
(3.14557 1.85503 -0.995196)
(2.20015 1.65715 -1.15416)
(1.2624 1.2904 -1.23958)
(0.227517 0.622145 -1.66378)
(1.19829 1.96032 1.08233)
(0.152628 2.17555 0.395444)
(1.16667 2.72988 0.0117013)
(1.80827 2.69249 0.0157957)
(2.31353 2.35859 -0.798081)
(2.87743 1.71676 -1.93201)
(1.95187 1.23997 -1.42313)
(0.635829 0.968912 -2.10792)
(0.507106 1.06909 -1.70515)
(0.172595 0.0681846 -1.74845)
(0.14285 1.41819 -0.354708)
(0.768682 1.67882 -0.226422)
(1.70904 2.19967 -0.281995)
(1.96214 1.79278 -0.426788)
(1.66303 2.10266 -0.231574)
(2.34781 1.70769 -1.31218)
(2.53615 0.400523 -1.43615)
(1.66048 0.219223 -1.42931)
(1.00821 0.0229605 -1.51355)
(0.498459 0.0299373 -1.59621)
(0.674735 -0.819441 -1.32783)
(1.08417 0.159836 -0.662918)
(0.98006 0.769241 -0.780781)
(1.06255 1.063 -1.35775)
(0.3154 1.44779 -0.969849)
(1.14443 1.39069 -1.66007)
(1.72216 0.85252 -2.14393)
(1.63224 0.220732 -2.00433)
(1.80627 -0.0902757 -1.41401)
(1.35863 -0.588081 -1.32078)
(1.24507 -0.964107 -1.35244)
(0.72148 -0.978207 -1.008)
(0.52999 -0.810172 -1.51404)
(0.100506 0.377048 -0.882153)
(0.204761 0.582229 -2.2363)
(0.0352746 0.845499 -1.99969)
(0.349363 0.736639 -2.55518)
(0.754329 0.685389 -3.01892)
(1.1629 0.358008 -3.15209)
(1.52206 0.0435258 -2.62844)
(1.68966 -0.386698 -2.10227)
(1.41876 -0.746711 -1.70084)
(1.29954 -0.900459 -1.77564)
(0.641848 -0.758887 -1.81872)
(0.061812 -0.219218 -2.17306)
(0.0676825 0.273164 -1.91211)
(0.287131 0.175586 -3.86581)
(0.624058 -0.225262 -3.92377)
(0.363932 0.00491538 -3.96687)
(0.366711 0.0453941 -3.73765)
(0.456826 -0.233841 -3.39081)
(0.557117 0.0668343 -3.01212)
(1.05713 0.421787 -2.43212)
(1.05358 0.321934 -2.49372)
(1.08186 -0.0798394 -2.31779)
(0.95545 -0.329129 -2.2722)
(0.256305 -0.208465 -1.93044)
(0.244925 0.277065 -1.93456)
(0.14552 0.116207 -1.53952)
(1.17607 -0.2094 -0.585541)
(1.39761 -0.0690776 -3.94815)
(0.953669 -0.27332 -3.66535)
(0.58804 -0.452481 -3.64841)
(0.364865 -0.287165 -3.77004)
(0.127966 -0.440555 -3.38382)
(0.211521 -0.121081 -2.92229)
(0.0813819 0.27651 -2.28864)
(0.352071 0.391881 -2.4032)
(0.387021 0.695321 -2.13752)
(0.989257 0.154124 -2.07266)
(0.534138 -0.186858 -1.41608)
(0.187899 -0.0717805 -1.20796)
(0.926189 -0.227166 -0.766911)
(1.18038 -1.00665 0.0501343)
(0.460829 2.70243 3.0556)
(0.665995 2.93155 3.30973)
(0.815126 2.71479 3.34044)
(1.00815 2.80886 3.57934)
(0.35541 2.96906 3.61324)
(1.02406 2.72384 3.18635)
(0.954976 2.9897 3.46784)
(0.774945 2.89125 3.55245)
(0.533943 2.50996 3.23257)
(2.10105 2.31347 2.32637)
(1.65248 2.43848 2.72624)
(1.17543 2.34677 2.89947)
(0.822854 2.54901 2.70478)
(0.726571 3.40525 1.24633)
(1.85126 2.22399 1.85758)
(1.90748 2.466 1.46192)
(1.02494 2.11815 1.68448)
(1.14018 2.57258 1.18626)
(1.20299 3.59043 1.44121)
(1.81918 4.31104 1.15216)
(1.74888 2.17532 1.72703)
(1.71921 2.67756 0.759619)
(0.416822 2.51823 1.39887)
(1.42644 3.31297 0.557536)
(2.78537 3.67248 0.493927)
(2.4226 4.00527 0.693742)
(2.36937 2.98679 0.75945)
(1.46518 2.5897 1.76914)
(1.82998 2.65494 0.768394)
(1.81082 2.92152 -0.180163)
(2.30097 2.78131 0.260623)
(2.57168 3.40216 0.27577)
(3.48578 2.43326 -0.574723)
(1.90594 2.45971 -0.0465487)
(1.75387 1.82376 -0.387101)
(1.49927 2.80559 2.438)
(1.29069 2.77486 1.77694)
(2.00006 2.73071 0.483443)
(2.08007 2.35926 0.626341)
(2.80133 2.51966 -0.780819)
(2.80423 2.58712 -1.19882)
(2.32175 1.93282 -1.66978)
(1.89026 1.661 -0.611664)
(1.0413 0.865119 -0.0847219)
(1.25991 3.0083 1.40275)
(1.07599 2.57238 1.81484)
(1.4955 2.57256 0.763969)
(1.87745 2.59278 0.607816)
(2.64729 2.42582 -0.168483)
(3.55239 1.76685 -1.08651)
(2.33696 1.55171 -1.32083)
(1.22515 1.4892 -2.18608)
(0.283716 1.17954 -1.34654)
(-0.0719526 0.940957 -1.506)
(0.9887 2.08383 0.503581)
(0.0691809 2.01742 0.310951)
(0.954981 2.71694 0.142418)
(1.70884 2.76425 0.0139662)
(2.19705 2.42137 -0.0700158)
(2.85884 1.92682 -1.39817)
(3.05086 1.14894 -0.772199)
(1.58444 1.01709 -1.81925)
(1.23544 1.02283 -1.62851)
(0.0189574 0.752229 -1.67552)
(0.174103 0.0856165 -1.54704)
(0.453188 1.04379 -1.00479)
(0.852219 1.36453 -0.633407)
(1.57378 1.95486 -0.348492)
(2.3691 1.50584 -1.39337)
(1.83387 1.87978 -1.04173)
(2.26593 1.65399 -1.31867)
(2.75445 0.373275 -1.49681)
(2.12201 0.130908 -1.24891)
(1.39921 -0.0327208 -1.49757)
(0.895438 -0.073941 -1.66909)
(0.272327 -0.397143 -1.30805)
(0.52265 -0.938887 -0.853815)
(1.12986 0.0147183 -0.878575)
(0.91558 0.639711 -0.946173)
(1.16041 0.934752 -1.77686)
(0.486875 1.41254 -1.86386)
(1.27075 1.30507 -2.11311)
(1.74575 0.879616 -2.02912)
(1.65799 0.456584 -2.40347)
(2.10105 -0.00909481 -1.54696)
(1.63393 -0.699836 -1.28066)
(1.35892 -0.830896 -1.64322)
(1.01577 -1.10389 -1.0631)
(0.850865 -0.880521 -1.85406)
(0.0548838 -0.258385 -2.10829)
(0.169246 0.34001 -0.586709)
(0.280411 0.456578 -1.97109)
(0.0877894 0.853911 -1.88475)
(0.215138 0.743552 -2.33237)
(0.604446 0.783087 -2.7176)
(1.28806 0.441043 -2.96049)
(1.51439 0.12209 -2.77362)
(1.87022 -0.300696 -2.1333)
(1.33628 -0.675361 -1.90114)
(1.24652 -0.831507 -1.97331)
(0.69507 -0.705891 -1.93672)
(0.093101 -0.123743 -2.22101)
(-0.360108 0.214366 -1.93833)
(0.0657243 0.151748 -1.53593)
(0.286536 0.132862 -3.85689)
(0.547828 -0.200423 -3.88398)
(0.250718 0.0370287 -3.85459)
(0.202986 0.137179 -3.61866)
(0.369854 -0.161567 -3.32728)
(0.407722 0.232412 -2.88589)
(0.945869 0.569056 -2.31595)
(1.08663 0.39537 -2.4331)
(1.15721 -0.0364352 -2.37074)
(0.946334 -0.307924 -2.28378)
(0.328089 -0.19212 -1.94718)
(0.313524 0.288538 -1.94787)
(0.197443 0.0948648 -1.54731)
(0.44101 0.0766096 -1.09865)
(1.17077 -1.00064 0.00385796)
(1.37521 -0.0806825 -3.85579)
(1.00671 -0.338481 -3.82405)
(0.519655 -0.418462 -3.73713)
(0.324669 -0.271056 -3.82179)
(0.117769 -0.432498 -3.37548)
(0.196329 -0.0994023 -2.82874)
(0.083031 0.293413 -2.27399)
(0.366484 0.411956 -2.4098)
(0.356112 0.73095 -2.14457)
(0.988159 0.15999 -1.99793)
(0.707219 -0.216833 -1.36594)
(0.210187 -0.0662503 -1.17037)
(0.817501 -0.219551 -0.810242)
(1.19254 -1.01471 0.099212)
(1.3914 -1.59251 -0.0159248)
(0.212347 2.73005 2.77113)
(-0.19792 2.99478 2.83336)
(0.594987 2.38827 3.25694)
(0.618391 2.91019 3.18858)
(0.213199 3.01571 3.54396)
(0.87473 2.60182 3.44698)
(0.717837 2.88983 3.49893)
(0.727001 2.9604 3.53474)
(0.286905 2.94082 3.57719)
(1.81232 2.4839 2.87179)
(1.17584 2.80966 3.42323)
(0.844378 2.8795 3.53316)
(0.639649 2.78801 3.56866)
(0.684655 3.08005 2.40912)
(1.88754 2.16628 2.58334)
(2.05502 2.37483 2.33921)
(1.40392 2.26785 2.70407)
(1.09447 2.31474 2.52489)
(1.34236 3.08337 2.19486)
(0.965292 3.69144 1.75233)
(1.70986 2.08254 2.31857)
(2.15511 2.46196 1.32288)
(1.25491 2.11656 1.69406)
(0.827494 2.36771 1.36141)
(1.97275 3.27978 0.645252)
(1.75299 4.07609 1.23875)
(1.27171 4.21345 1.51349)
(1.77201 2.18365 1.59537)
(2.58663 1.95098 0.601655)
(2.02253 2.14787 -0.312619)
(1.60693 2.96322 0.579894)
(2.84931 3.6143 0.280892)
(2.94987 3.84842 0.431741)
(2.06872 3.39894 1.67189)
(1.97762 2.36909 0.219941)
(1.62088 2.47443 2.32581)
(1.65826 2.71677 1.27082)
(1.6617 2.8816 0.226576)
(1.93024 3.03571 0.319493)
(2.80956 3.09807 0.0248125)
(3.57634 2.37701 -0.320841)
(2.40342 2.38736 -0.645139)
(1.17494 2.17937 0.0599054)
(0.964994 1.39547 0.208764)
(1.59249 2.83085 2.37982)
(1.3296 2.63154 1.88367)
(2.04789 2.4702 0.61384)
(2.14835 2.41716 0.474346)
(2.7021 2.49692 -0.430576)
(3.17663 2.28501 -1.19052)
(2.35458 2.14056 -1.88681)
(2.29093 1.7536 -1.1331)
(0.705936 1.14426 -0.32762)
(0.347848 1.0566 -0.263033)
(1.54352 2.91519 1.44775)
(0.996132 2.81394 1.51711)
(1.42374 2.55494 0.946246)
(2.14267 2.48855 0.541747)
(2.48421 2.43525 0.0736862)
(3.48054 1.94307 -1.17882)
(2.93485 1.26156 -0.992621)
(1.48941 1.67223 -2.18659)
(0.508957 1.226 -1.81321)
(-0.548201 1.19229 -1.42239)
(-0.313313 0.769378 -1.32732)
(1.25115 1.84085 0.398566)
(0.0175498 2.04167 0.43127)
(0.826758 2.70825 0.545494)
(1.50308 2.83667 0.0905232)
(2.09533 2.45622 0.13588)
(2.80104 1.86385 -1.00174)
(2.88055 1.36503 -1.73519)
(2.07732 0.796283 -1.80172)
(2.01633 0.806032 -1.38257)
(0.472513 0.591283 -1.7704)
(-0.550632 0.136918 -0.964821)
(-0.0748468 -0.286353 -1.17568)
(0.350307 0.890622 -0.815442)
(0.775199 1.17108 -0.909152)
(1.551 1.62483 -0.731605)
(2.17571 1.42696 -1.46818)
(2.20329 1.70202 -1.57499)
(2.13514 1.68288 -1.70851)
(2.70964 0.823508 -1.6004)
(2.68145 0.123268 -0.860756)
(1.82156 -0.0457745 -1.48902)
(1.26015 -0.213539 -1.76525)
(0.637549 -0.591858 -1.41146)
(0.720513 -0.915596 -1.51668)
(0.798399 -0.879938 -1.71791)
(1.28346 -0.0978864 -1.02013)
(0.937437 0.553469 -0.859975)
(1.14136 0.899048 -1.72725)
(0.969249 1.18282 -2.37212)
(1.56301 1.21247 -2.60577)
(1.94733 0.772858 -2.11892)
(2.01999 0.4542 -2.4298)
(2.34639 0.144387 -1.71618)
(1.88378 -0.688385 -1.28935)
(1.57247 -1.10937 -1.47465)
(1.03287 -1.03764 -1.51312)
(0.992163 -0.961708 -1.89334)
(-0.160433 -0.382245 -1.94955)
(-0.403974 0.187027 -1.90515)
(0.265372 0.305981 -0.533732)
(0.347718 0.251718 -1.66413)
(0.181348 0.808375 -1.7394)
(0.116611 0.810869 -2.14793)
(0.444053 0.917021 -2.43968)
(1.44496 0.427367 -2.60228)
(1.57265 0.265996 -2.87619)
(1.84103 -0.182461 -2.34369)
(1.57152 -0.599307 -1.81329)
(1.31689 -0.801301 -2.00067)
(0.706131 -0.633407 -2.11728)
(0.222789 -0.11954 -2.22557)
(-0.194886 0.181953 -1.98649)
(-0.251834 0.476156 -1.6482)
(0.262712 0.14486 -1.18396)
(0.320193 0.0390751 -3.83311)
(0.548283 -0.249517 -3.7848)
(0.189924 0.0466138 -3.6928)
(0.0792081 0.209342 -3.43568)
(0.275183 -0.0888364 -3.23144)
(0.311954 0.385608 -2.75365)
(0.841431 0.719862 -2.25315)
(1.20324 0.406503 -2.3632)
(1.28602 -0.00586853 -2.38811)
(0.98018 -0.253813 -2.25005)
(0.413343 -0.145183 -1.95724)
(0.360819 0.276171 -1.9641)
(0.23203 0.077962 -1.55631)
(0.516058 0.0529997 -1.07717)
(0.958782 -0.501226 -0.667915)
(1.39645 -1.58331 -0.0358536)
(1.33979 -0.121067 -3.74517)
(1.06956 -0.425082 -3.92513)
(0.47519 -0.380469 -3.79366)
(0.289871 -0.25341 -3.84861)
(0.0979191 -0.404939 -3.34909)
(0.176523 -0.0792855 -2.73881)
(0.0827024 0.306722 -2.2798)
(0.410813 0.411174 -2.41798)
(0.466609 0.698234 -2.14361)
(0.903418 0.205557 -1.94838)
(0.876492 -0.258527 -1.31285)
(0.257159 -0.0704992 -1.1214)
(0.741718 -0.204196 -0.814208)
(1.20868 -1.02192 0.159351)
(1.38406 -1.59169 -0.0211947)
(1.12968 -1.74514 -0.101009)
(-0.00536191 2.46715 2.79397)
(0.137017 2.68081 2.87032)
(0.379077 2.62865 2.72891)
(0.041301 2.8525 3.04858)
(-0.323107 3.09674 3.12757)
(0.736278 2.57516 3.08878)
(0.815542 2.63365 3.20581)
(0.386432 2.95803 3.39181)
(0.316102 3.04842 3.52868)
(1.3183 2.49378 3.24598)
(0.960341 2.79059 3.54012)
(0.823563 2.92066 3.56031)
(0.62967 2.85263 3.59136)
(0.627804 2.85254 3.51163)
(1.63285 2.40824 3.05707)
(1.81725 2.55 3.11026)
(1.03702 2.72637 3.60223)
(0.839997 2.71383 3.56577)
(0.84453 2.87587 3.44959)
(0.828063 3.31228 2.50443)
(2.112 1.99365 2.59545)
(2.13209 2.2366 2.35156)
(1.55919 2.21698 2.63473)
(1.11393 2.1733 2.6791)
(1.22594 2.58488 2.3487)
(0.953773 3.28053 2.28909)
(1.18048 4.20554 1.47937)
(1.92554 2.10426 2.13333)
(2.28258 2.19107 1.39961)
(1.60217 2.12327 1.24322)
(1.73187 2.0381 0.6675)
(1.67832 2.6508 0.891188)
(2.18287 3.87313 1.16272)
(1.29241 4.29102 1.81352)
(2.0497 3.5204 1.45878)
(1.96055 2.01666 1.97974)
(2.13107 2.22563 1.33459)
(1.4664 2.18903 0.578633)
(2.73772 1.99067 -0.402692)
(2.97562 3.16816 -1.09801)
(2.89251 3.8596 0.522221)
(2.57089 3.19431 1.25206)
(1.81129 2.9494 1.19481)
(1.30186 2.16517 0.462114)
(1.86974 2.46642 2.44281)
(1.94834 2.33145 1.38361)
(2.08277 2.38067 -0.0343759)
(2.32851 2.78231 0.225066)
(3.03852 2.24399 -0.925045)
(3.68456 2.27158 -0.613743)
(2.76025 2.329 -0.594819)
(1.67473 2.13869 -0.845767)
(0.377701 1.67554 0.0226991)
(0.0798697 1.12189 0.00776096)
(2.046 2.7602 2.12364)
(1.42989 2.60447 1.99506)
(1.97356 2.33411 0.596116)
(2.32674 2.42209 0.094091)
(3.21503 1.77006 -0.221958)
(3.19367 2.17272 -1.12507)
(2.57904 2.06959 -2.09739)
(2.20539 1.999 -1.74181)
(1.28095 1.217 -1.08197)
(0.140505 1.78343 -0.233561)
(-0.665778 1.16143 -0.457379)
(1.63494 2.89071 1.40009)
(1.07005 3.06565 1.31776)
(1.29021 2.61619 1.38054)
(2.34231 2.49885 0.304871)
(2.543 2.39064 -0.0429538)
(3.27478 1.95024 -1.09563)
(3.654 0.906856 -0.421082)
(2.5937 1.45274 -1.45616)
(0.697974 1.37999 -2.16559)
(-0.217568 1.18921 -1.55515)
(-0.83071 0.687407 -1.43227)
(-0.90632 0.134806 -0.777667)
(1.54201 1.8805 -0.292734)
(0.136221 2.01313 0.744376)
(0.947625 2.52822 0.687022)
(1.50043 2.83793 0.10405)
(2.19453 2.39825 0.198234)
(2.79949 1.85752 -0.649029)
(2.67048 1.53047 -2.08701)
(2.29429 0.656795 -1.66842)
(2.21685 0.536051 -1.41242)
(0.816414 0.373641 -2.01434)
(-0.177755 0.0244398 -1.14862)
(-0.181507 0.300115 -0.965513)
(0.511575 -0.71595 -1.41334)
(0.664394 0.489748 -1.3513)
(0.793102 1.0314 -1.01997)
(1.48854 1.42413 -0.942801)
(1.82097 1.61061 -1.29445)
(2.3282 1.62739 -1.49028)
(2.31879 1.5688 -1.83876)
(2.53341 0.836642 -2.06655)
(2.99208 -0.18905 -0.722114)
(2.12984 -0.130746 -1.48901)
(1.66477 -0.349298 -1.73831)
(0.950837 -0.72994 -1.59576)
(0.918224 -1.03627 -1.63581)
(0.217375 -0.978286 -1.24883)
(-0.265995 -0.440417 -1.78961)
(1.42413 -0.193633 -1.106)
(1.01918 0.526632 -0.815013)
(1.14552 0.865575 -1.25995)
(1.25676 1.0231 -2.3134)
(1.7466 1.19106 -2.51932)