/*--------------------------------*- C++ -*----------------------------------*\
  =========                 |
  \\      /  F ield         | OpenFOAM: The Open Source CFD Toolbox
   \\    /   O peration     | Website:  https://openfoam.org
    \\  /    A nd           | Version:  7
     \\/     M anipulation  |
\*---------------------------------------------------------------------------*/
FoamFile
{
    version     2.0;
    format      ascii;
    class       volScalarField;
    location    "1";
    object      nut;
}
// * * * * * * * * * * * * * * * * * * * * * * * * * * * * * * * * * * * * * //

dimensions      [0 2 -1 0 0 0 0];

internalField   nonuniform List<scalar> 
18750
(
0.000926302
0.00180541
0.000965962
0.000628063
0.00170136
0.0015555
0.0014299
0.000917528
0.000589935
0.00130888
0.00169789
0.00137919
0.00436207
0.00116474
0.0019458
0.00115788
0.000805782
0.000847561
0.00134545
0.000413737
0.00166642
0.00151543
0.000731093
0.00126159
0.000380357
0.00156881
0.000773797
0.00184304
0.00129089
0.000310382
0.000647208
0.00102349
0.00127519
0.000528163
0.000244642
0.00157781
0.00150695
0.000648364
0.00135022
0.000738515
0.00172692
0.00109289
0.000567395
0.00136417
0.000531062
0.000537376
0.00154105
0.00132353
0.000222472
0.000459216
0.000508247
0.00103223
0.00112588
0.000590903
0.000306557
0.00071433
0.00195559
0.00138273
0.000949931
0.00127135
0.000823342
0.000372939
0.00113594
0.00121564
0.00194751
0.000821429
0.000891454
0.00174512
0.000989347
0.00035227
0.000291446
0.000453412
0.00111113
0.00125822
0.00043304
0.000475729
0.000160227
0.000400645
0.000899964
0.000907629
0.000631371
0.000387596
0.000649653
0.000272632
0.00186802
0.00176171
0.000949446
0.00113008
0.000812247
0.000818696
0.000991609
0.00126625
0.000729076
0.000255276
0.000896392
0.00148547
0.00138856
0.000691488
0.000277398
0.000658916
0.00149228
0.00072856
0.000365652
0.000299108
0.000267673
0.000203285
0.000798737
0.00109485
0.000185562
0.00045195
0.000216426
0.000194894
0.000325008
0.000666704
0.000622162
0.000578926
0.000474191
0.00054433
0.000206392
0.000221492
0.00175991
0.00171634
0.00181639
0.00136106
0.00104658
0.00115636
0.000888908
0.00103143
0.000779056
0.000729589
0.000753248
0.001429
0.00119673
0.000507393
0.000272138
0.000640409
0.00143343
0.00111214
0.000517198
0.000376901
0.000188185
0.000545336
0.00150441
0.000546331
0.000422979
0.000315667
0.000291376
0.000204785
0.00018531
0.000535159
0.000901309
0.000105507
0.000449996
0.000284936
0.000235723
0.00021535
0.000327766
0.000459583
0.000338316
0.00052302
0.000514032
0.000496914
0.00022103
0.000239025
0.000332088
0.00142851
0.00174537
0.00176443
0.00140383
0.00134855
0.000945168
0.000904664
0.0015322
0.00097839
0.000662378
0.000632506
0.00144974
0.000733575
0.000881352
0.000747072
0.000470919
0.00150996
0.00124599
0.000730482
0.000277755
0.000524022
0.000458669
0.00122133
0.000767797
0.000441564
0.000354514
0.00027084
0.000184081
0.000559552
0.00109278
0.000445202
0.000469303
0.000359932
0.000411584
0.000210774
0.000225048
0.000352063
0.000421146
0.000656569
0.000263777
0.000432091
0.000387528
0.000334949
0.000191553
0.000185241
0.000311908
0.000393868
0.000228795
0.000428707
0.000519355
0.000563252
0.000291954
0.000224895
0.000324492
0.000305347
0.00124514
0.00152821
0.00160205
0.00156142
0.00142283
0.00113596
0.00105644
0.00131668
0.00087503
0.000443571
0.000704604
0.00115502
0.000779009
0.000736418
0.000525104
0.000434709
0.000953216
0.000738847
0.000778976
0.000746145
0.000666129
0.000338676
0.00101543
0.00061603
0.000843815
0.000520579
0.000262426
0.00045426
0.000358624
0.000762008
0.000485349
0.000392287
0.000129491
0.000292712
0.000235448
0.000344623
0.000355378
0.000805855
0.000406867
0.000311692
0.000297248
0.000551196
0.000204388
0.000197716
0.000197763
0.000323952
0.000444325
0.000443931
0.000149246
0.000380078
0.000532073
0.000350788
0.000177761
0.000206132
9.25983e-05
0.000280868
0.000377227
0.000232086
0.000339836
0.000488263
0.000643541
0.000357082
0.000192986
0.000276698
0.000234759
0.000117928
0.00144217
0.00145874
0.00158699
0.00169924
0.00127929
0.00067039
0.00114016
0.00148564
0.00119282
0.000728319
0.000691409
0.00137019
0.00115013
0.000734869
0.000408499
0.000505638
0.000713969
0.000624172
0.00127714
0.000523696
0.000455681
0.000323764
0.000499567
0.000600632
0.000337073
0.000793992
0.00107052
0.00106915
0.00034197
0.000530003
0.000347305
0.000795306
0.000577759
0.000338409
0.000423192
0.000546824
0.000465804
0.000443592
0.000407102
0.000245053
0.000173334
0.00022459
0.000289535
0.000336559
0.000231631
0.000267282
0.000453618
0.000236251
0.000231495
0.000191678
0.000320299
0.000193903
0.000169257
0.000167057
0.000239742
0.000276805
0.000400659
0.000358131
0.000236928
0.000340864
0.000411807
0.000255924
0.000158878
0.000264526
0.000109947
0.000192832
0.000273449
0.000358757
0.000261439
0.000291885
0.000433547
0.000696403
0.000367349
0.000151136
0.000238492
7.35229e-05
0.000102252
0.000191022
0.00135963
0.00137227
0.00153678
0.00150763
0.00164189
0.00162029
0.000903075
0.00163698
0.000926834
0.000886422
0.000583071
0.000973014
0.00139472
0.00116866
0.000533106
0.000407258
0.000641347
0.00100492
0.000870768
0.000801017
0.000545457
0.000311629
0.000355824
0.000588989
0.000387648
0.00120453
0.000753342
0.000551123
0.000685259
0.000212555
0.000415101
0.000265679
0.000761575
0.000608429
0.000980323
0.000746884
0.0006962
0.000299035
0.000471307
0.000270232
0.000417608
0.000428694
0.000388804
0.000545401
0.000436309
0.000688157
0.000523793
0.000402434
0.000370528
0.000271007
0.000185799
0.00012225
0.00018947
0.000194209
0.000194238
0.000323442
0.000114589
0.000464444
0.000149705
0.000163871
0.000159209
0.000334378
0.000168817
0.000155931
0.000201497
0.000191804
0.000396947
0.000191551
0.000423651
0.000350873
0.000327514
0.000314677
0.000411819
0.000211854
0.000143422
0.000260091
0.000125375
0.000166467
9.34494e-05
0.000276936
0.00040083
0.000265882
0.000270602
0.00036337
0.000699183
0.000348866
0.000144385
0.000201424
0.000189334
0.000110432
0.000168153
0.000178257
0.00142183
0.00130195
0.0016077
0.00134518
0.00130186
0.00139138
0.000539118
0.00154761
0.00153338
0.00146842
0.000745769
0.000827712
0.00128066
0.00106098
0.000911209
0.000653909
0.000631685
0.000834522
0.000860056
0.00070546
0.000545287
0.000821684
0.000506721
0.000672243
0.000446272
0.000518332
0.00104138
0.000426723
0.000417748
0.000783037
0.000443971
0.000442187
0.000577691
0.000778234
0.00137833
0.00092745
0.000676316
0.00132561
0.000192225
0.000475684
0.000329697
0.000945237
0.000472292
0.000823725
0.000973994
0.000453393
0.00110129
0.000193826
0.000416327
0.000384964
0.00035714
0.000271207
0.000379067
0.000502011
0.000429452
0.00058763
0.000380944
0.000346135
0.000344914
0.000365309
0.000291876
0.000171081
0.00025167
0.000181886
0.000172741
0.000151577
0.000263418
0.000124666
0.000170289
0.000343285
0.000144528
8.40308e-05
0.000141686
0.000241214
0.000149189
0.000115616
0.000243674
0.000172746
0.000163192
0.000337202
0.000179183
0.000382033
0.000290606
0.000256336
0.000422993
0.000307833
0.000204774
0.000146701
0.000278945
0.000217068
0.000155632
0.000105549
0.00022278
0.000297789
0.000436444
0.000298561
0.000261293
0.000324922
0.000656315
0.0003248
0.000126389
0.000189604
0.000266064
0.000115801
0.000138309
0.000189444
0.0001326
0.00113453
0.00130913
0.00138018
0.00168077
0.00127187
0.00151115
0.000561112
0.00197898
0.0013336
0.00166292
0.000741151
0.000317115
0.000517243
0.00136049
0.00152789
0.000769894
0.000473042
0.000690562
0.00121458
0.0010328
0.00102983
0.000802586
0.000385235
0.000556029
0.000912819
0.000513587
0.000557529
0.000573635
0.000716681
0.000455186
0.000424703
0.000696306
0.000479001
0.000504438
0.000688694
0.00104723
0.000578952
0.000593026
0.00133648
0.000527919
0.000418433
0.000580361
0.000466457
0.00123206
0.00114133
0.00102827
0.000165812
0.00109874
0.000283312
0.000571369
0.000448001
0.000686251
0.000734364
0.00068489
0.000786401
0.00104854
0.000741734
0.000407444
0.000202343
0.000279061
0.000392014
0.000398588
0.000123639
0.000335967
0.000473011
0.000456625
0.0004246
0.000427164
0.000225539
0.00026306
7.53385e-05
0.000297907
0.000200078
0.000195541
0.000156676
0.000153763
0.000188241
0.000124741
0.00032153
0.00017039
0.000392754
0.000275846
0.000132878
0.000184184
0.000148248
0.000118911
0.000193674
0.000144172
0.000122464
0.000359389
0.000198148
0.000130388
0.000219081
0.000459976
0.000285398
0.00037297
0.000178008
0.000141355
0.000381248
0.000230135
0.000169847
0.000158542
0.000157496
0.000185605
0.000143717
0.000111072
0.000221182
0.000148485
0.000331392
0.000409236
0.000258307
0.000253189
0.000258975
0.000574371
0.000264923
0.000107136
0.00016151
0.000311948
0.000113242
0.000115325
0.000226934
0.000154935
0.000111478
0.00109019
0.00115495
0.00136055
0.00124971
0.00125657
0.00138468
0.000904879
0.00176172
0.00127612
0.00131616
0.000651929
0.000586375
0.000564746
0.00134083
0.00136512
0.000743405
0.000357951
0.000425061
0.000568416
0.00130863
0.00121894
0.000520742
0.000473604
0.000390136
0.000447209
0.00102086
0.000850313
0.000713243
0.00048653
0.000321569
0.000618042
0.000317448
0.000704406
0.000455503
0.000783016
0.000511992
0.000378684
0.000255456
0.000233206
0.000234451
0.000668376
0.000466773
0.000628517
0.000826218
0.000838996
0.000993514
0.000816224
0.000277582
0.000690316
0.000623445
0.000356503
0.000470473
0.000853333
0.000855626
0.00124022
0.00109451
0.000841675
0.00112591
0.000349845
0.000344717
0.00063514
0.000365983
0.000466601
0.000667167
0.000736566
0.000696219
0.000997915
0.000562697
0.000787477
0.000446642
0.000268671
0.000275897
0.000516517
0.000372899
0.000274559
0.000310967
0.000419447
0.000446445
0.000469032
0.000429416
0.000359171
0.000459917
0.000269847
0.000108861
0.000144591
0.000155353
0.000213754
0.000176671
0.000234857
0.000124171
0.000117418
0.00034776
0.000141205
0.000447811
6.79259e-05
0.000243287
0.000167563
4.89319e-05
0.000211217
0.000117921
0.000156926
0.000152326
0.000125417
0.000303948
0.00018625
0.000142061
0.000142298
0.000347652
0.000180014
0.000202605
0.000351959
0.000138922
0.000125752
0.000198039
0.000303032
0.000163223
0.000134941
0.000137551
0.000137731
0.000143662
0.000116245
0.000241647
0.000160955
7.876e-05
0.00031469
0.000379024
0.000226149
0.00022857
0.000282431
0.000472879
0.000193156
0.000101176
0.000120824
0.000309252
0.000104905
0.000106631
0.000192614
0.000176386
0.000107688
0.000108418
0.00119235
0.00112647
0.0016164
0.00120258
0.00121793
0.00167364
0.000655183
0.00146088
0.00127733
0.00126362
0.00130562
0.000925396
0.000578082
0.000669978
0.00127493
0.00120316
0.000685359
0.000524269
0.000652933
0.000393932
0.00123476
0.00130921
0.000474213
0.000353368
0.000544626
0.000463709
0.000634566
0.00116527
0.000875047
0.000605513
0.000570672
0.000505142
0.00049825
0.000609173
0.00098133
0.000557661
0.000670101
0.00103528
0.00045441
0.000599417
0.000427192
0.000601628
0.000839149
0.000455159
0.000541205
0.000643132
0.000848034
0.000452507
0.000509687
0.000820546
0.000447046
0.000768192
0.000394885
0.000619526
0.000647814
0.000856977
0.000603962
0.000223945
0.00114917
0.00163372
0.000652129
0.000691229
0.000436237
0.000705462
0.00108096
0.000542056
0.00127619
0.000741447
0.000420147
0.000332811
0.00113815
0.000560074
0.000358833
0.000604348
0.000402333
0.000419474
0.000458722
0.000635679
0.000621971
0.00077898
0.000811385
0.000660618
0.000429814
0.000614135
0.000265397
0.000410664
0.000521894
0.000275738
0.000261503
0.000278293
0.000258052
0.000173587
0.000444771
0.00032242
0.000385852
0.000291962
0.000349937
0.000332374
0.000158658
0.000157513
9.95621e-05
0.000254854
0.000131835
0.000221217
0.000122784
0.000211267
0.000329478
0.000234916
0.000212593
0.000147753
0.000362511
0.000186076
0.00019211
6.42495e-05
0.000192473
0.000114869
0.000120897
0.000158615
0.000130284
0.000185928
0.000308913
6.00312e-05
8.84971e-05
0.000321357
0.000169414
0.000140056
0.000159986
0.000349611
0.000166022
0.000133591
0.000175299
0.000322963
0.00015527
0.000122944
0.000195833
0.000147938
0.000141936
0.000116029
0.000200243
0.000201088
6.85893e-05
0.000117922
0.000289479
0.000365658
0.000296588
0.000184754
0.000291865
0.000365993
0.000136084
7.88403e-05
9.31454e-05
0.000293271
9.31287e-05
9.35479e-05
6.67718e-05
0.000218023
9.03917e-05
0.000109586
0.000139831
0.00110459
0.00107153
0.00162726
0.00111402
0.0012229
0.00151836
0.000536742
0.00180014
0.00130349
0.00131941
0.00149745
0.000672999
0.000272988
0.000675425
0.00147412
0.00123369
0.00117665
0.000716831
0.000373194
0.000420354
0.000405366
0.00132215
0.0011021
0.000509435
0.000498846
0.000477746
0.000371167
0.000593399
0.00125757
0.00103649
0.000359687
0.000482198
0.000415209
0.000375304
0.000465462
0.000599164
0.0012027
0.000764175
0.000533431
0.000402317
0.000559556
0.000431152
0.000488236
0.000456776
0.00112924
0.000482613
0.000574197
0.000640613
0.000788682
0.00064648
0.00039344
0.000426905
0.000541166
0.000940077
0.000540015
0.000657738
0.000774108
0.000594343
0.000660841
0.000470639
0.000272374
0.000774946
0.000346783
0.000842772
0.000406221
0.000493367
0.000795875
0.000710273
0.000719051
0.000698902
0.00093823
0.0004485
0.00102332
0.000971191
0.000672277
0.000718423
0.000608843
0.000792227
0.000848604
0.000832528
0.000735636
0.000992006
0.000431513
0.000799811
0.000630158
0.00127594
0.000374984
0.000432886
0.000595691
0.00045567
0.000456706
0.000424575
0.000720866
0.00047229
0.000868869
0.000501448
0.000664466
0.000293742
0.000478462
0.000231194
0.000409589
0.000478849
0.000270191
0.000238182
0.000315588
0.000252687
0.000219052
0.000302141
0.000366448
0.000345095
0.000330132
0.000298335
0.000146285
0.00027899
0.000162668
0.000208422
0.000121995
0.00027154
0.000108563
0.000105289
0.000122184
0.000218529
0.000359423
0.000187868
0.000159288
0.00022467
0.000315135
0.000482449
0.000277341
0.000119424
0.000208783
0.000210607
0.000129742
0.000107534
0.000213863
0.000137755
0.000151408
0.000294233
0.000299651
0.000132049
0.000363516
0.000166462
0.000130412
0.000296722
0.000258536
0.000301564
0.000133831
0.00012734
0.000167098
0.000215014
0.00014391
0.000109688
0.000167038
0.000123661
0.000169512
0.000125808
0.000169977
0.000166747
5.78861e-05
0.000143298
0.000266486
0.000196989
0.000373573
0.000384827
0.000154039
0.000240422
0.000267052
8.69429e-05
7.81128e-05
9.32067e-05
0.000267626
7.78476e-05
6.99312e-05
0.000119094
0.000150782
0.000113019
0.000100181
0.000120273
7.48364e-05
0.00131265
0.00112862
0.00148317
0.00108538
0.00109037
0.00161408
0.000525672
0.00168343
0.00129981
0.0011268
0.00153314
0.000469796
0.000423104
0.000581815
0.00191448
0.00118137
0.00129917
0.000310822
0.000205564
0.000499764
0.000288159
0.000249315
0.0012869
0.00102415
0.000403917
0.000312892
0.000353411
0.000352385
0.000535573
0.00118671
0.000957944
0.000427001
0.000588473
0.000331044
0.000393297
0.00040635
0.000230565
0.00131451
0.000734604
0.000506241
0.000470823
0.000395178
0.00064656
0.000514604
0.000456342
0.000542002
0.0012784
0.000878079
0.000315735
0.000727039
0.000459469
0.000577804
0.000561208
0.000540252
0.000787247
0.00117206
0.000808643
0.000806868
0.000780725
0.000541066
0.00067203
0.000429572
0.000557671
0.000533772
0.000411201
0.00102597
0.000635355
0.000829381
0.000878023
0.000608225
0.000317535
0.000594198
0.000910437
0.000358055
0.000508125
0.00059363
0.00104561
0.000501501
0.000419554
0.000785893
0.00132405
0.000445536
0.000785222
0.000519325
0.00104325
0.00143694
0.000257015
0.000823482
0.000916388
0.000587919
0.000421735
0.000580693
0.000648051
0.000751065
0.000933455
0.000855617
0.000290599
0.000229285
0.000504698
0.000242339
0.00069607
0.000593685
0.00029632
0.000652052
0.000405044
0.000442753
0.000456501
0.000963141
0.00038777
0.000560591
0.000609707
0.00034484
0.000432767
0.000428159
0.000457963
0.00037852
0.000295708
0.000465033
0.000256693
0.000367882
0.000259871
0.000323939
0.000465824
0.000360878
0.000316039
0.000572847
0.000354268
0.000256798
0.000198431
0.000183576
0.000271348
0.000183984
0.000198282
0.000183516
0.000156443
0.000140475
0.000222783
0.000124825
0.000155051
0.000417485
0.000220568
8.82947e-05
0.000191684
0.000363113
0.000266861
0.000104329
0.000227217
0.000155603
0.000188937
0.00024199
0.000119574
0.000105514
0.000172652
0.000160677
0.000123378
0.0002378
0.000205845
0.000176396
0.000348942
0.000198319
0.00017675
0.000368221
0.000230352
0.00021797
0.000275603
0.000132423
0.000126072
0.000169961
0.000183988
0.000137439
0.000118953
0.000164972
0.000152429
0.000165096
0.000123833
0.00018741
0.000122819
7.55117e-05
0.000173931
0.000261457
0.000139799
0.000175259
0.000455737
0.000258068
0.000149167
0.000355885
0.000196713
8.57571e-05
8.03777e-05
8.19276e-05
0.000210238
6.00615e-05
5.71874e-05
5.95898e-05
0.000136356
5.13317e-05
8.54356e-05
9.68134e-05
9.91724e-05
3.69934e-05
0.00276025
0.00102676
0.00157675
0.00161539
0.00106522
0.00162028
0.000481672
0.00163969
0.00244827
0.00118941
0.00143892
0.00056654
0.000648203
0.000633765
0.00132403
0.00107983
0.00127207
0.00051272
0.000324962
0.000381752
0.000228437
0.000494629
0.00087757
0.00130177
0.000551651
0.000324233
0.000248122
0.000152419
0.000347812
0.000257878
0.000787533
0.00141673
0.000475626
0.000566002
0.000477697
0.000205007
0.00048657
0.000356161
0.00108345
0.00112487
0.000505577
0.000690092
0.000752598
0.00042517
0.000444897
0.000798131
0.000266197
0.00123231
0.00120991
0.000395716
0.000578871
0.000482337
0.000563064
0.000363116
0.000824548
0.000752536
0.000375139
0.0013354
0.000887839
0.000511714
0.000560589
0.000260101
0.000647193
0.000391233
0.00055462
0.000977991
0.000476247
0.00130573
0.000833199
0.000894431
0.000489104
0.000670681
0.000513754
0.000538813
0.000487525
0.000635094
0.000524468
0.000292347
0.00134483
0.000576063
0.000719566
0.000645182
0.000652594
0.000470365
0.000312339
0.000298959
0.000263891
0.000631376
0.000160603
0.000427515
0.00122682
0.000417286
0.000366402
0.000712438
0.000623502
0.000196548
0.000957371
0.000529113
0.000275071
0.000269953
0.00168109
0.000577698
0.000768415
0.0011133
0.000591113
0.000442144
0.00052715
0.00049102
0.000666331
0.00102664
0.000389983
0.00065552
0.000553193
0.00070138
0.00054229
0.000432162
0.000448601
0.000840667
0.000358935
0.000755688
0.000400048
0.000216486
0.000666059
0.00112614
0.000797782
0.000477125
0.000462176
0.000434694
0.000707222
0.000699547
0.000371911
0.000279399
0.000522608
0.000301386
0.000381336
0.000298079
0.000323536
0.000282274
0.000251027
0.000282491
0.000403854
0.000443825
0.000496849
0.00029826
0.000218964
0.00019088
0.000281448
0.000200181
0.000320658
0.000141684
0.000153552
0.000133787
0.00013373
6.57179e-05
0.000177226
0.000150622
0.000137529
0.000412403
0.000300449
0.000157235
0.000222561
0.000331747
0.000277976
0.000128541
0.000154645
0.000145606
8.36706e-05
0.000209263
0.000218853
0.000174628
0.00011087
0.000155763
0.000160226
0.000100487
0.000270715
5.80443e-05
0.000164257
0.000137094
0.000301568
0.000207083
0.000298368
0.000238876
0.00014206
0.000183226
0.000270431
0.000143733
0.00011386
0.000141258
0.000172309
0.000123969
0.000133218
0.000172831
0.000229254
8.81652e-05
0.000121934
0.000160923
0.00012585
4.44271e-05
0.000170759
0.000242979
0.000122951
4.37862e-05
0.000225598
0.000789477
0.000222306
0.000122583
0.000274497
0.000167205
9.88299e-05
8.20046e-05
7.40177e-05
0.000154855
4.46672e-05
5.03593e-05
7.86176e-05
8.54477e-05
3.763e-05
6.95904e-05
7.77447e-05
9.91054e-05
2.54527e-05
5.53397e-05
0.00270098
0.00171178
0.0014585
0.00263732
0.000875654
0.00145539
0.000537486
0.00132252
0.00309753
0.00109929
0.00171157
0.000709552
0.000764326
0.00044722
0.00152466
0.00101951
0.00120224
0.000530366
0.00068988
0.000500238
0.000236774
0.000564507
0.000806802
0.00128407
0.00039293
0.00117423
0.000427698
0.000393685
0.000354612
0.000398255
0.000848456
0.00120015
0.000994245
0.00104479
0.000756203
0.000301464
0.000374535
0.000374596
0.000572215
0.000886604
0.00102672
0.00115771
0.000589224
0.000599605
0.000273871
0.000426269
0.000551759
0.000553624
0.00115748
0.00158157
0.000820641
0.000446412
0.000810668
0.000284199
0.000413307
0.000838549
0.000142891
0.000638348
0.00133364
0.00141887
0.00064836
0.000472259
0.000440218
0.000512223
0.000215901
0.000652486
0.000390737
0.00044144
0.000576786
0.00144383
0.00100254
0.000772039
0.00064708
0.000374274
0.000623659
0.000627118
0.000511986
0.000481175
0.000437384
0.000485696
0.00159592
0.000813912
0.000724921
0.000364717
0.000380097
0.000697303
0.000819967
0.000528896
0.000339556
0.00010067
0.000459974
0.000228919
0.00156725
0.000548078
0.000555151
0.000596122
0.000326236
0.000545889
0.000523201
0.000311437
0.000751866
0.00021279
0.000309247
0.00015734
0.000372323
0.00143464
0.000683139
0.000437016
0.000720139
0.000471024
0.000316531
0.000617873
0.000618164
0.000515488
0.000994205
0.000239057
0.00033446
0.000555618
0.000620608
0.00132843
0.000475701
0.0005923
0.00058776
0.000496625
0.00086847
0.000781912
0.00076035
0.00045233
0.000343517
0.000271024
0.000584968
0.000480331
0.000518339
0.000371155
0.00100051
0.000697316
0.000355584
0.000467416
0.00037023
0.000580797
0.000700052
0.00103589
0.000855489
0.000402964
0.000533095
0.000556785
0.00029102
0.000270308
0.000377412
0.000270916
0.000661078
0.000448852
0.000220179
0.000330466
0.000399938
0.000193146
0.000381488
0.000330108
0.000259047
0.000681975
0.000523391
0.000534598
0.000235455
0.000214141
0.000239368
0.000212744
0.00014158
0.000404215
0.000181314
0.000220101
0.000120724
0.000181959
7.3161e-05
0.000207347
0.000164056
8.71507e-05
0.000403901
0.00034083
0.000197129
0.000232602
0.000268774
0.000289825
0.000154867
0.000185104
0.000236315
0.000231429
0.000222328
0.000272319
0.000240892
0.000199093
9.92561e-05
0.000163973
0.000147893
0.0001203
0.000282333
7.22604e-05
0.000220333
0.00019435
0.000452299
0.000203746
0.000141134
0.000224937
0.000212281
0.000262099
0.000245229
0.000263511
0.000165398
0.000111708
0.000115061
0.000170104
0.000116292
0.000121544
0.00016672
0.000270075
4.88328e-05
0.000123728
0.00017188
0.000316825
0.000216534
0.000154433
0.000205557
0.000102266
4.30623e-05
5.52253e-05
0.000175772
0.000490118
0.000206718
0.000152654
0.000161049
0.000151745
0.000104129
8.64057e-05
6.34716e-05
0.000128781
3.72653e-05
4.76877e-05
6.18205e-05
5.52832e-05
0.000105931
6.29212e-05
6.75346e-05
9.30623e-05
4.62191e-05
2.95286e-05
8.31761e-05
0.00182156
0.00265535
0.000894573
0.00254885
0.00131233
0.00128309
0.000679058
0.00151022
0.00240241
0.00146217
0.0015494
0.000555444
0.000690952
0.000805259
0.00124609
0.000881397
0.00138217
0.000768782
0.000357941
0.000694122
0.000409897
0.000612504
0.000923444
0.00126262
0.00066858
0.000945082
0.000452515
0.000318579
0.000364097
0.000357895
0.000879129
0.00127698
0.00108318
0.00069636
0.000617491
0.000730372
0.000271059
0.000309664
0.000478401
0.000993221
0.000979744
0.00082419
0.000131773
0.000613985
0.000642685
0.000444362
0.00049278
0.000403319
0.000351066
0.00118807
0.00119247
0.000993206
7.33614e-05
0.000429817
0.000313338
0.000452815
0.000413469
0.000218597
0.000366949
0.00127417
0.00110715
0.000941855
0.000210753
0.000436248
0.000351491
0.00042813
0.000557156
0.000447212
0.000282284
0.000259306
0.00150711
0.00106568
0.000877799
0.000295898
0.000554869
0.000487641
0.000287967
0.000649256
0.000322834
0.000632839
0.000514349
0.00047244
0.00181548
0.000939141
0.000683676
0.000424715
0.000465689
0.000940402
0.000487074
0.000550861
0.000648736
0.000557334
0.000575968
0.000612541
0.00181666
0.000645596
0.000669551
0.000374174
0.000614173
0.000777436
0.000790022
0.000238074
0.000568721
0.000498046
0.000378539
0.000279371
0.000230808
0.00178823
0.000439196
0.000590014
0.000815257
0.000601492
0.00036509
0.000579945
0.00048233
0.000463707
0.000327133
0.000809676
0.000140525
0.000435464
0.000802705
0.00177987
0.000665697
0.000412477
0.000600807
0.000853764
0.000868222
0.000563716
0.000482081
0.000620004
0.000524648
0.000863657
0.000943475
0.000164856
0.000468727
0.000701906
0.00153754
0.000870646
0.00063642
0.00064163
0.00049175
0.000914892
0.000635515
0.00107215
0.000371303
0.000423354
0.000851023
0.000603992
0.000197809
0.00024976
0.000636931
0.000426478
0.00113667
0.000657518
0.000284677
0.000511956
0.000530669
0.000505242
0.000418156
0.000483443
0.000517229
0.000784465
0.000519541
0.000497673
0.000324105
0.00022155
0.000275098
0.000375853
0.000255696
0.00075326
0.000559922
0.000281396
0.000394551
0.00031846
0.00017017
0.000360048
0.000255426
0.000238395
0.000629958
0.000625977
0.000549609
0.000222756
0.000296416
0.000281386
0.000254118
0.000147822
0.000259921
0.000436539
0.000251231
0.000278645
0.000194452
0.000239207
7.83215e-05
0.000279424
0.000193804
8.88275e-05
0.000404342
0.000351798
0.000167173
0.000241924
0.000263649
0.000233343
0.000180622
0.000145467
0.000218827
0.000209432
0.000219301
0.000235709
0.000305055
0.000319162
0.000217132
9.77562e-05
0.000157176
0.00011256
0.000101294
0.000345358
6.59829e-05
0.000176412
0.000146701
0.000385674
0.000174784
0.000164106
0.000208095
0.000213613
0.000139401
0.000106071
0.000257223
0.000275679
0.000174035
0.00013062
0.000121374
0.000167199
0.000113387
0.000118381
0.000152993
0.000157247
5.37287e-05
0.00010466
0.000189806
0.000363672
0.000346533
0.000157741
0.000165267
9.78023e-05
3.92606e-05
5.29208e-05
9.11133e-05
0.000174571
0.000479254
0.000200241
0.000198218
0.000158328
0.000146725
0.000197618
8.86971e-05
5.91644e-05
0.0001115
4.75263e-05
5.34721e-05
5.52819e-05
3.56591e-05
6.98209e-05
6.49459e-05
6.25078e-05
8.73341e-05
4.73637e-05
2.29665e-05
6.04041e-05
8.00765e-05
0.002018
0.00227317
0.000441972
0.00210474
0.00235816
0.00124134
0.0003377
0.00104567
0.00206299
0.0016068
0.00114485
0.000610819
0.000386909
0.000704427
0.00100404
0.00150505
0.00164749
0.000577289
0.000404297
0.000695705
0.000492004
0.000462455
0.000839933
0.00105955
0.000471769
0.000639762
0.00033796
0.000463191
0.000348747
0.000305531
0.0008684
0.00114588
0.000868668
0.00012802
0.000337816
0.000691608
0.000119192
0.00059441
0.000387387
0.000872966
0.000748598
0.00114291
0.000243152
0.000951087
0.000260761
0.000565071
0.000164599
0.000124311
0.000723728
0.00112632
0.000859928
0.000858827
0.00058036
0.000551077
0.000291291
0.00039051
0.000226266
0.000271087
0.000388281
0.000639262
0.00136349
0.000739543
0.000609206
0.000936615
0.000243243
0.000485994
0.000280404
0.00040874
0.000109659
0.000486649
0.0004195
0.00167018
0.000672881
0.000900104
0.000215347
0.000806433
0.000363566
0.000409164
0.000744131
0.000569375
0.000332935
0.000653632
0.000484101
0.00173092
0.0010609
0.000445841
0.00033495
0.000841337
0.000537078
0.000428954
0.0006248
0.000438011
0.000601136
0.000410041
0.000578314
0.000655858
0.00187658
0.0010424
0.000673549
0.000379141
0.00069495
0.000719923
0.000482687
0.000586853
0.000544256
0.000699708
0.000454991
0.00055205
0.00070621
0.00202002
0.00105023
0.00072354
0.000456482
0.000264137
0.000767515
0.000660789
0.000466213
0.000563933
0.000747953
0.000386015
0.000386705
0.000613282
0.000201064
0.00200518
0.00112551
0.000331529
0.00104968
0.000937315
0.000729432
0.000428302
0.000392088
0.000497903
0.000331611
0.000249971
0.000388547
5.51943e-05
0.000321481
0.000468477
0.00189361
0.00109316
0.00103684
0.000658722
0.000863104
0.00110628
0.000634364
0.000407151
0.000366215
0.000429491
0.000730467
0.000642396
0.000646906
0.000514632
0.00110689
0.000883803
0.00168073
0.000504374
0.000267694
0.000553266
0.00042377
0.000823661
0.00073913
0.000242455
0.000595452
0.000607857
0.000303039
0.000445793
0.000759808
0.000545521
0.000137162
0.000444379
0.000539409
0.00126
0.000629201
0.0004823
0.000389898
0.000521978
0.000420373
0.000438737
0.000307134
0.000530842
0.00114824
0.000578598
0.000317809
0.000446911
0.000392992
0.00039479
0.000276667
0.000286396
0.000117541
0.000810571
0.000587758
0.00034591
0.000210437
0.000294374
0.000173168
0.000411625
0.000285327
0.000328491
0.000653038
0.000698201
0.000281002
0.000292038
0.000397575
0.000286033
0.000229627
0.000215667
0.000224843
0.000313904
0.000478064
0.000277936
0.000232607
0.000229363
0.000177174
6.56517e-05
0.000193093
0.000203919
9.57467e-05
0.000488312
0.000327465
0.000245904
0.000323342
0.000319021
0.000219385
0.000196349
0.000124622
0.000125104
0.000191838
9.09603e-05
0.000193532
0.000137316
0.000245858
0.000295758
0.000210681
8.70886e-05
0.000162468
0.000133345
0.000145622
0.000313275
0.000131789
0.000186617
0.000203332
0.000208271
0.000165135
0.000169138
0.000216706
0.000177658
0.000151753
0.000141064
9.28716e-05
0.000243104
0.000257783
0.00017752
0.000133525
0.000106203
0.000157718
0.00010444
0.000110608
0.000136203
5.24194e-05
0.000133204
9.2833e-05
0.00022925
0.000112501
0.000254839
0.000143017
0.000116147
8.73802e-05
4.70328e-05
5.76281e-05
8.04323e-05
0.000151447
0.000209316
0.00042114
0.000199865
0.000151988
0.00014956
0.000204716
0.000183156
9.18539e-05
5.6665e-05
9.85572e-05
5.88726e-05
5.91717e-05
6.33929e-05
3.59134e-05
8.01304e-05
5.9796e-05
5.35429e-05
5.55386e-05
3.83007e-05
3.84253e-05
4.22558e-05
5.96461e-05
5.71385e-05
0.00199334
0.00205919
0.000269369
0.00213042
0.00239898
0.000749721
0.000402036
0.000659979
0.00181022
0.00182137
0.00110143
0.000569195
0.000578323
0.000483342
0.000650242
0.00207401
0.00111679
0.000366781
0.00034741
0.000139172
0.0009764
0.000456816
0.00119678
0.000981314
0.000921328
0.000618029
0.000120891
0.000538952
0.000414264
0.000795257
0.000624778
0.000940563
0.000837623
0.000379173
0.000590045
0.000569059
0.000408363
0.000245698
0.000651865
0.000859486
0.000455142
0.000898045
0.000543892
0.00048093
0.00036063
0.000485986
0.000393275
0.00029712
0.000358966
0.00117119
0.000571038
0.000876592
0.000344015
0.000265497
0.000637785
0.000450769
0.000275571
0.000637722
0.000522546
0.000384594
0.00137358
0.000675446
0.000971708
0.000243509
0.000354204
0.000794535
0.000352403
0.00035648
0.000445242
0.000683612
0.000567229
0.000189498
0.00143342
0.000735345
0.000983191
0.000331329
0.000530011
0.00029686
0.000534243
0.000435252
9.81825e-05
0.000730502
0.000466696
0.000453953
0.00168034
0.000875264
0.000516908
0.00043273
0.000670839
0.000422493
0.000693815
0.000686196
0.000354691
0.000399645
0.000611361
0.000570709