/*--------------------------------*- C++ -*----------------------------------*\
  =========                 |
  \\      /  F ield         | OpenFOAM: The Open Source CFD Toolbox
   \\    /   O peration     | Website:  https://openfoam.org
    \\  /    A nd           | Version:  7
     \\/     M anipulation  |
\*---------------------------------------------------------------------------*/
FoamFile
{
    version     2.0;
    format      ascii;
    class       surfaceScalarField;
    location    "1";
    object      phi_0;
}
// * * * * * * * * * * * * * * * * * * * * * * * * * * * * * * * * * * * * * //

dimensions      [0 3 -1 0 0 0 0];

internalField   nonuniform List<scalar> 
54095
(
0.000246216
-0.00139505
-1.52244e-05
0.000480663
-0.00103026
-9.65219e-05
0.000204631
-0.00158042
-1.92574e-05
0.000384092
-0.000524116
-5.98224e-05
0.000767237
-0.000179692
-0.000257241
0.000379921
-0.00112104
-8.45065e-05
0.000644605
-0.000333517
-0.000219372
0.0001663
-0.001729
-1.77207e-05
0.000352463
-0.000833808
-6.20286e-05
0.000265006
-0.000704856
-7.07103e-05
0.000993016
-0.000205502
-0.000182978
0.000647397
-0.000231655
-0.000215514
0.000912468
0.00188381
0.000114029
0.000288918
-0.00117756
-6.60957e-05
0.000622462
-0.000517495
-0.000170528
0.000342638
-0.000525539
-0.000128936
0.000133685
-0.00184718
-1.55058e-05
0.000312971
-0.00110701
-5.74933e-05
0.000234602
-0.000934136
-6.73498e-05
0.000116603
-0.000385088
-5.15595e-05
0.00128621
0.000433132
-0.000196465
0.000823235
-0.000207705
-0.000173634
0.00116402
-0.000924469
-0.000211481
0.000535327
-0.00028962
-0.000188443
0.000922665
0.00134868
1.94095e-05
0.00038101
-0.000901338
0.000210303
0.000212555
-0.00120899
-4.744e-05
0.000583496
-0.0007238
-0.000130316
0.000289158
-0.000661584
-8.90386e-05
0.000123044
-0.000932754
-4.4094e-05
0.000107671
-0.00194178
-1.30765e-05
0.000270594
-0.00134105
-5.2058e-05
0.000199834
-0.0011293
-6.21658e-05
0.000107576
-0.000509907
-5.01061e-05
9.74409e-05
-0.000160497
-3.67342e-05
0.0015143
0.0006969
-0.000185698
0.00109505
0.000350796
-0.000189476
0.00125526
-0.000493615
-0.000119402
0.000679596
-0.000192811
-0.000159163
0.00106145
-0.00096902
-0.00026787
0.000573831
0.000284097
-6.81215e-05
0.000433316
-0.000341167
-0.000169214
0.000933759
0.000807392
2.58151e-06
0.000154367
-0.00088095
0.000133812
0.000262108
-0.000225628
4.95529e-05
0.000152022
-0.00122223
-3.11143e-05
0.000488341
-0.000894405
-9.45819e-05
0.000218296
-0.000748464
-6.18987e-05
0.000113586
-0.00100078
-2.70224e-05
0.000137618
-0.000775329
-5.0251e-05
8.60537e-05
-0.0020172
-1.06263e-05
0.000232315
-0.00153956
-4.68755e-05
0.00016566
-0.00129085
-5.61698e-05
9.7483e-05
-0.000622216
-4.73398e-05
8.79837e-05
-0.000258191
-4.03956e-05
7.85453e-05
0.000205295
-3.11049e-05
0.001811
0.00103348
-0.000207243
0.00127864
0.000649217
-0.000135912
0.00144514
-0.000223513
0.000100473
0.000893897
0.000302012
-0.000165517
0.00111998
-0.000535569
-0.000206049
0.000650467
0.00127139
-8.08333e-05
0.000558934
-0.000168958
-0.000149471
0.000952312
-0.000931179
-0.000215557
0.000283982
1.9373e-05
-0.000132761
0.000351977
7.48684e-05
4.7402e-05
0.000331025
-0.000379639
-0.000140532
0.000806972
0.000312926
6.62111e-06
-1.40763e-05
-0.00074693
0.000100933
0.000209145
-0.000230107
4.27329e-05
0.000120814
-0.000701592
2.43084e-05
0.000101411
-0.00122069
-1.68984e-05
0.000382537
-0.00101276
-6.29841e-05
0.000150042
-0.000773935
-5.34928e-05
0.000103831
-0.00104975
-1.92764e-05
0.000109787
-0.000785066
-3.90893e-05
0.000144658
-0.000803141
-9.40947e-06
6.68146e-05
-0.00207556
-8.45459e-06
0.000200184
-0.00170783
-4.25446e-05
0.000135501
-0.00142276
-5.04643e-05
8.23548e-05
-0.000717221
-4.35201e-05
7.71147e-05
-0.00034107
-4.15758e-05
8.67872e-05
0.000112982
-3.487e-05
4.79172e-05
0.0001848
-6.41193e-06
0.00190157
0.00104079
-0.000149955
0.00150329
0.000908595
-9.97619e-05
0.00131476
0.00106309
0.000222753
0.00102806
0.000558329
-4.32707e-05
0.00117317
-0.000407441
-5.17568e-06
0.000405094
0.000897554
0.000227337
0.000723
0.000260527
-0.000122581
0.000930623
-0.000506516
-0.000172881
0.000479584
0.00103267
-0.000162931
0.00035971
0.00148383
-2.22874e-05
0.000422974
-0.000144579
-0.000116327
0.000728378
-0.00088032
-0.000121736
3.88254e-05
-0.000143864
-0.000105221
0.000277782
-0.000165393
3.88637e-05
0.000195791
-0.000495434
6.29616e-05
0.000245393
-0.000410017
-0.000113604
0.000609369
-5.97918e-05
5.35543e-06
-9.26171e-05
-0.000587231
8.95814e-05
0.000162098
-0.000230294
4.28526e-05
7.94561e-05
-0.00066336
3.48322e-05
0.000125916
-0.0008618
5.31061e-05
5.59877e-05
-0.00120653
-3.33309e-06
0.000282902
-0.00107601
-3.636e-05
0.00010858
-0.000778119
-3.18785e-05
7.19027e-05
-0.00106414
-2.86555e-05
8.43898e-05
-0.000774569
-3.70478e-05
0.000132564
-0.000886698
-1.3095e-06
8.29022e-05
-0.000610867
3.31022e-05
5.37587e-05
-0.00212236
-6.96536e-06
0.000174225
-0.001851
-3.95052e-05
0.000110122
-0.00152989
-4.55307e-05
7.86654e-05
-0.000806889
-3.94613e-05
6.5782e-05
-0.000410914
-3.94577e-05
9.47216e-05
1.23628e-05
-3.56777e-05
5.07271e-05
0.000105635
-6.43206e-06
4.49196e-05
-0.000110433
1.52334e-05
0.00202554
0.00108739
-0.000171559
0.00162824
0.00101007
-9.42304e-05
0.000752532
0.00222232
0.000555217
0.00119142
0.000777433
-3.22043e-05
0.00109458
0.000855213
0.000186705
-0.000106478
0.00259523
0.000682686
0.000801064
0.000493655
-1.339e-05
0.00075786
-0.000272966
-4.98332e-06
0.000207989
0.00107104
9.29283e-05
0.000113106
0.00166115
0.000372272
0.000543248
0.000200029
-5.97758e-05
0.000566527
-0.000437978
-2.92682e-05
0.000349308
0.00070652
-0.000157209
0.000402761
0.00120347
-7.55865e-06
0.000210899
0.000468694
8.27537e-05
0.000309318
-0.00013009
-7.84134e-05
0.000454471
-0.000802687
-3.90634e-05
-0.000112063
-0.000244735
-1.41949e-06
0.000171136
-0.000345023
6.53713e-05
0.000133127
-0.000604189
9.39489e-05
0.000110499
-0.000536841
0.000150769
0.000180155
-0.000442264
-9.19201e-05
0.000397995
-0.000305162
1.66727e-05
-8.49567e-05
-0.000463712
7.53728e-05
0.000118224
-0.000223405
3.6371e-05
2.24951e-05
-0.000614411
5.57983e-05
9.52493e-05
-0.00086074
7.10867e-05
9.04883e-05
-0.000686567
9.44856e-05
2.03498e-05
-0.00117382
7.01351e-07
0.000204529
-0.00109664
-1.30141e-05
7.56795e-05
-0.000759132
-2.09051e-05
6.71225e-05
-0.00106578
-1.86913e-05
6.26122e-05
-0.000766206
-3.38488e-05
0.000116618
-0.000946164
5.22671e-07
7.41978e-05
-0.000674031
3.83833e-05
2.3001e-05
-0.000527955
7.9359e-05
4.92978e-05
-0.00216534
-6.31613e-06
0.000156734
-0.00197649
-3.82171e-05
9.10102e-05
-0.00161847
-4.19424e-05
6.37759e-05
-0.000880758
-3.54372e-05
5.34388e-05
-0.00046904
-3.47742e-05
9.97883e-05
-9.36124e-05
-3.32709e-05
5.19965e-05
2.32949e-05
-5.3338e-06
3.9633e-05
-0.000174065
1.75667e-05
5.08969e-05
-0.000355306
1.7135e-05
0.00205428
0.000839641
-6.45398e-05
0.0017972
0.00107568
-0.000157247
0.000297987
0.00240069
0.0004337
0.00131029
0.000972904
-8.17033e-05
0.000979536
0.00181376
0.000429365
-0.000440979
0.0036294
0.000983295
0.000863438
0.000718244
-3.18486e-06
0.000795297
0.00067639
0.000109182
-0.000268341
0.00270103
0.000557235
-0.000140254
0.00270871
0.000978341
0.000563991
0.000453282
1.96297e-05
0.000231272
-9.45705e-07
4.98448e-05
0.000155025
0.00128118
-2.08306e-05
8.4148e-05
0.00175084
0.000321855
-2.37541e-05
0.00172393
0.000508432
0.000386692
0.000119005
3.65025e-06
0.000190238
-0.0003186
8.508e-05
0.000200044
0.00037598
-1.08358e-05
0.000372554
0.000808471
3.63757e-05
0.000176796
0.000301669
0.000115797
3.58024e-05
0.000142658
0.000233935
0.000223001
-0.000135199
-3.77373e-05
0.000187276
-0.000652979
-1.74026e-05
-0.000141479
-0.000336051
0.000108776
9.39443e-05
-0.000415806
9.36433e-05
3.59296e-05
-0.000689858
0.000137606
7.74773e-05
-0.000600697
0.000175576
8.86691e-05
-0.000538694
0.000198785
0.000117843
-0.000480693
-5.90648e-05
0.000242393
-0.000441878
6.93262e-06
-6.35453e-05
-0.000390915
8.31002e-05
5.1135e-05
-0.000189031
5.69863e-05
-1.04314e-05
-0.00058518
8.0183e-05
4.95819e-05
-0.000823904
8.59977e-05
7.0105e-05
-0.000717405
0.000106018
-5.25741e-05
-0.000377642
0.000163546
3.05967e-06
-0.00113569
8.10645e-06
0.000148759
-0.00108829
3.2465e-07
4.87415e-05
-0.000721412
-8.46561e-06
3.49852e-05
-0.00103993
-1.79601e-05
3.59492e-05
-0.000749534
-1.78737e-05
9.53554e-05
-0.000983767
8.18703e-06
6.46193e-05
-0.000730519
4.43877e-05
1.33524e-05
-0.000547681
8.43902e-05
8.04169e-05
-0.00071785
9.42564e-05
4.61697e-05
-0.00220426
-7.24987e-06
0.000142855
-0.0020878
-3.7853e-05
8.01042e-05
-0.00169658
-4.02084e-05
5.31328e-05
-0.000943885
-3.1949e-05
4.13795e-05
-0.000516586
-2.92708e-05
9.98448e-05
-0.000200001
-2.823e-05
5.01171e-05
-5.65423e-05
-3.55082e-06
3.4736e-05
-0.000233579
1.94447e-05
4.43095e-05
-0.000399262
1.72139e-05
4.30348e-05
0.000185179
2.65258e-05
0.00208502
0.000970248
-8.69616e-05
0.00178343
0.000968326
-0.000114914
3.89925e-05
0.00189113
0.000319437
0.0014395
0.00108421
-0.000137734
0.000774388
0.00205241
0.000396186
-0.000639817
0.00361606
0.000684138
0.000972273
0.000927189
-6.31192e-05
0.000881564
0.00138241
0.00026338
-0.000454694
0.00339167
0.000853452
-0.000307635
0.00455565
0.00118803
0.000599595
0.000697399
-1.47596e-05
0.000141341
0.000680587
8.25486e-05
-0.00027687
0.00283232
0.000409793
-0.000211321
0.00266658
0.000894828
-0.000252266
0.00320219
0.00122246
0.00039433
0.000432134
1.35104e-05
-0.000100152
0.000169316
0.000139757
0.000118946
0.00145084
-3.87168e-05
0.000166319
0.00171907
0.000217172
-6.84207e-05
0.00181274
0.000478265
-0.000141562
0.00142662
0.00071563
0.00028059
3.66647e-05
2.47507e-05
-7.59279e-05
-0.000186896
0.00013515
-9.42653e-06
0.000178183
0.000150825
0.000337798
0.000476497
7.72848e-05
0.000163517
4.08116e-05
0.000169646
4.43535e-05
3.39797e-05
0.000257599
9.32432e-05
-0.000302678
0.000383976
0.00015019
-0.000175557
8.01155e-06
5.77164e-05
-0.000499784
-6.255e-06
-0.000157477
-0.000376661
0.000117138
-2.6717e-05
-0.000380374
0.000151195
-5.28575e-05
-0.000697226
0.000143437
-2.2318e-05
-0.000594217
0.000203026
4.5135e-05
-0.000573767
0.000235619
1.75916e-06
-0.000651638
0.000231866
5.5699e-05
-0.000511902
-2.14303e-05
0.000144579
-0.000514642
1.78791e-05
-4.78467e-05
-0.00036013
7.2736e-05
1.53334e-05
-0.000157544
7.12655e-05
-4.71255e-05
-0.000564781
0.000119662
8.01855e-06
-0.000759718
0.000103335
3.36192e-05
-0.000715339
0.000114932
-4.40566e-05
-0.000379904
0.000165689
6.66589e-05
-0.000451214
0.000185317
-1.12315e-05
-0.00108561
7.31721e-06
0.000105483
-0.00105111
8.30116e-06
3.29906e-05
-0.000680352
6.37868e-06
1.80026e-05
-0.000999877
-1.33934e-05
1.80621e-05
-0.000734424
-9.75247e-06
5.08573e-05
-0.000975939
2.32853e-05
5.03256e-05
-0.000778037
5.54974e-05
6.25162e-06
-0.000562752
8.79431e-05
6.47125e-05
-0.000753784
9.99207e-05
7.86039e-05
-0.000369355
0.000108012
3.6259e-05
-0.00223284
-7.67922e-06
0.000130514
-0.00218791
-3.76589e-05
7.19146e-05
-0.00176688
-3.94665e-05
4.55111e-05
-0.0010004
-2.9204e-05
2.97395e-05
-0.000554569
-2.37051e-05
9.29316e-05
-0.000299867
-2.23363e-05
4.71429e-05
-0.000130552
-1.36351e-06
2.99874e-05
-0.000288027
2.09096e-05
3.78248e-05
-0.000435696
1.80537e-05
4.72843e-05
0.000129656
2.54525e-05
2.35105e-05
-0.000227901
3.5302e-05
0.00218935
0.000779002
-5.35044e-05
-0.000829831
0.00181901
0.0010025
-6.78297e-05
-0.00029899
0.00185494
0.000411417
0.0014682
0.0010496
-0.000109976
0.000273139
0.00202125
0.000256216
-0.000782599
0.00357408
0.000408899
0.00104662
0.00106047
-5.06167e-05
0.00088513
0.00164614
0.000264972
-0.00042445
0.00329201
0.000689991
-0.000685088
0.00428298
0.000996412
0.000691143
0.000846104
-1.04629e-05
0.000128004
0.00111778
0.000214848
-0.000377658
0.00298048
0.000775357
-0.000168535
0.00419475
0.00117156
-0.000216575
0.00482879
0.0012415
0.000394652
0.000701973
-4.89657e-06
-0.000203327
0.00072118
4.78227e-05
-0.000220104
0.00300956
0.000244357
-0.00022472
0.00266621
0.000801211
-0.000153088
0.00301773
0.00116396
-0.000327144
0.0035568
0.00138096
0.00029119
0.000410835
1.06991e-05
-0.000264486
0.000214221
0.000157163
-4.18806e-05
0.00158523
3.78114e-05
0.000320189
0.00156415
0.000133813
-4.15732e-05
0.00182231
0.000412689
-0.000145852
0.00138892
0.000706166
-0.000142861
0.00137718
0.0009441
0.000214706
-5.4671e-05
2.68197e-05
-0.000164279
-4.78074e-05
0.000107657
-0.000101576
8.38704e-05
0.000173562
0.00017655
0.000235357
0.000188698
0.000111481
-0.000243747
0.000197505
-6.37435e-06
-9.79647e-05
0.000285647
2.5585e-05
-0.000451222
0.000425693
0.000216814
-0.000301426
0.000419176
7.19344e-05
-0.000242263
5.04699e-05
1.97224e-05
-0.00038227
1.53531e-05
-0.000190345
-0.000349795
0.000109378
-9.28476e-05
-0.000330669
0.000175614
-0.000126227
-0.000624504
0.000157575
-7.36819e-05
-0.000573579
0.0002045
-2.83042e-05
-0.000564908
0.00025609
1.0807e-05
-0.000720278
0.000249395
4.2601e-05
-0.000512664
0.000274793
-1.70242e-05
-0.000508643
2.53374e-06
9.0186e-05
-0.000556148
3.53728e-05
-3.75574e-05
-0.000349705
7.80023e-05
-1.17997e-07
-0.000149258
8.25698e-05
-5.98697e-05
-0.000516694
0.00010111
-5.11183e-05
-0.00066801
0.00012993
1.01244e-05
-0.000695896
0.000124093
-3.48031e-05
-0.000390519
0.000166601
4.82612e-05
-0.000460118
0.000191044
0.000117484
-0.000396398
0.000201376
-4.0523e-05
-0.00101518
6.35561e-06
7.33703e-05
-0.00100363
1.69817e-05
1.83702e-05
-0.000634813
1.6306e-05
9.83609e-06
-0.000955924
-1.89955e-06
6.48634e-06
-0.000724417
-1.47771e-07
6.30822e-05
-0.000985638
2.97961e-05
3.49418e-05
-0.000803054
6.05034e-05
-8.16925e-07
-0.000568578
9.21276e-05
4.86004e-05
-0.000779958
0.000103342
7.80853e-05
-0.000411427
0.000111191
1.786e-05
-0.000558416
0.000119926
2.51175e-05
-0.00225061
-7.34332e-06
0.000117679
-0.00227599
-3.72764e-05
6.29008e-05
-0.00182878
-3.86609e-05
3.63789e-05
-0.00104909
-2.71597e-05
1.89908e-05
-0.000584248
-1.8516e-05
8.21742e-05
-0.000389259
-1.64874e-05
4.35153e-05
-0.000197472
1.06886e-06
2.64817e-05
-0.000337888
2.20158e-05
2.95099e-05
-0.000464487
2.01911e-05
5.10871e-05
7.10857e-05
2.55366e-05
2.58443e-05
-0.000265069
3.67761e-05
2.14064e-05
-0.000303103
4.4365e-05
0.00202368
0.000559984
-8.45152e-05
-0.000309797
0.00190361
0.000706283
-1.18808e-05
-0.000501048
0.00222182
0.000301086
-0.00237436
0.00263392
-4.11639e-05
0.00155479
0.000827694
8.82231e-05
-0.000333431
0.00195708
0.000436594
-0.000658543
0.00306351
0.00046183
0.00105223
0.00099065
5.33424e-05
0.000582356
0.00207017
0.000143873
-0.000603144
0.00353303
0.000475967
-0.000833017
0.00398167
0.000752629
0.000771115
0.000908872
7.16299e-05
0.000279684
0.00111785
0.000325988
-0.000386865
0.00296189
0.000604294
-0.000457077
0.00435825
0.000903259
-0.000366302
0.0044155
0.00116642
0.000464717
0.000809036
-3.29968e-05
-0.000313061
0.0010385
0.000178548
-8.92626e-05
0.00250106
0.000563422
-0.000123397
0.00368904
0.00117974
-2.23569e-05
0.00456966
0.00129996
-0.000292591
0.00481363
0.00116724
0.000327653
0.000680513
-1.50019e-05
-0.000355636
0.000772696
3.47372e-05
-0.000126836
0.00298596
0.000156375
4.02544e-05
0.00257934
0.000611154
-0.000228292
0.00290767
0.00109799
-0.000312968
0.00352843
0.00135944
-0.00046603
0.00348779
0.00143363
0.000247579
0.000361472
1.64893e-05
-0.000351967
0.000249618
0.000162991
-5.93627e-05
0.00157792
0.000122265
0.000322258
0.00129942
0.000156834
4.41893e-05
0.00169406
0.000329356
-0.000109897
0.00126667
0.000638462
-0.000165065
0.00137972
0.000894276
1.96791e-05
0.00168644
0.00105283
0.000119835
-0.000134058
3.14866e-05
-0.000162584
8.34608e-05
7.78577e-05
-0.000213843
3.4586e-05
0.000180441
-8.93254e-05
0.000150798
0.000254599
1.3336e-05
-0.000408703
0.000214091
3.42412e-07
-0.000289678
0.000315193
-8.04924e-06
-0.000616286
0.000430456
1.02837e-05
-0.000321716
0.000446506
-3.53226e-05
-0.000124189
0.000486493
-2.19877e-05
-0.000323963
8.66642e-05
1.7014e-05
-0.00030112
4.24923e-05
-0.000192307
-0.000303784
0.000124091
-0.000104554
-0.000305597
0.000188742
-0.000149546
-0.000539115
0.000179901
-9.91084e-05
-0.000577856
0.000209841
-3.63623e-05
-0.000574851
0.00026093
1.15512e-05
-0.000768391
0.000257849
4.79375e-05
-0.000543544
0.000280599
0.000163482
-0.000619834
0.000356659
-7.58843e-05
-0.000503809
3.0528e-05
2.55976e-05
-0.000560194
5.43524e-05
-3.0351e-05
-0.000345376
7.97653e-05
-4.2693e-06
-0.000152323
9.51735e-05
-6.16431e-05
-0.000490873
0.000124879
-4.41318e-06
-0.000605596
0.000106192
-7.68314e-06
-0.000655145
0.000131804
-5.21929e-05
-0.00038166
0.00016661
2.57197e-05
-0.000467191
0.000196555
0.000101795
-0.000446266
0.000217202
5.71559e-05
-0.000432105
0.000202577
-5.62156e-05
-0.000941964
8.1183e-06
2.98347e-05
-0.000938972
2.95422e-05
4.83771e-06
-0.000593959
3.41911e-05
-1.03651e-07
-0.000911158
8.0228e-06
-8.23867e-06
-0.000706005
6.91764e-06
2.63961e-05
-0.000967448
3.74403e-05
2.66502e-05
-0.000820988
6.45949e-05
-5.1194e-06
-0.000570406
9.39324e-05
2.2491e-05
-0.00078879
0.000107978
7.54926e-05
-0.000447158
0.000114668
3.26388e-05
-0.000577324
0.000123305
7.6906e-07
-0.000471595
0.000140238
1.36369e-05
-0.002258
-6.24675e-06
0.000104955
-0.00235216
-3.61323e-05
4.96363e-05
-0.00187813
-3.75568e-05
2.73711e-05
-0.0010895
-2.56133e-05
9.74753e-06
-0.000607122
-1.40334e-05
6.98751e-05
-0.000466649
-1.1001e-05
3.93647e-05
-0.000256836
3.51214e-06
2.36729e-05
-0.000383548
2.30556e-05
2.28607e-05
-0.000487981
2.26486e-05
5.1016e-05
1.31443e-05
2.71165e-05
2.67098e-05
-0.000304515
3.82728e-05
1.83623e-05
-0.000330495
4.58061e-05
5.89912e-06
-0.000429847
5.02232e-05
0.00192462
0.00104428
-0.00029546
-0.000649764
0.00178303
0.000771663
-9.1101e-05
-0.000627171
0.00240161
0.000193859
-0.00255386
0.00264467
4.77165e-05
0.00147358
0.000692175
9.53194e-05
-0.000664458
0.0022512
0.000289773
-0.00065523
0.00325602
0.000302031
-0.00326028
-0.000304179
0.000392422
0.000972686
0.000660175
0.000247061
-5.95465e-05
0.00225067
0.000436541
-0.000746224
0.00317752
0.000465664
-0.000813866
0.00385501
0.000556908
0.000755323
0.000718807
0.000287634
0.000305825
0.00200248
9.49008e-05
-0.000519066
0.00335545
0.000453656
-0.000712431
0.00390568
0.000807309
-0.000648999
0.00424823
0.000976906
0.000524323
0.000687075
0.00016219
-0.000235082
0.00092882
0.000182684
-0.000290866
0.00283337
0.000656112
-0.000274184
0.00424401
0.000869324
-0.000342616
0.00453466
0.00110436
-0.000321378
0.00472525
0.00127457
0.000250665
0.000815346
7.0677e-05
-0.000389936
0.000954732
8.50742e-05
-0.000184203
0.00232364
0.000413338
-0.000134831
0.00348279
0.000944759
-0.00020007
0.00441019
0.00131099
-0.000220913
0.00476054
0.001261
-0.000380163
0.00484891
0.00100486
0.000161454
0.00075432
1.23186e-05
-0.000441811
0.000819948
2.75905e-05
-1.87358e-05
0.00283073
0.000149342
0.000188444
0.00248344
0.000386095
-0.000188935
0.00276143
0.000990521
-0.000311382
0.0034352
0.0013927
-0.000380448
0.00353713
0.00152549
-0.000434626
0.00352854
0.00126604
0.000112753
0.000377893
-9.33944e-06
-0.000377499
0.000362113
0.000118909
-8.98904e-05
0.00144447
0.000172488
0.000102866
0.000932848
0.000296645
0.000212744
0.00131925
0.000332234
2.2858e-05
0.00103503
0.000538488
-7.67282e-05
0.00126513
0.000821725
-0.000219885
0.0018013
0.00100958
-0.000497056
0.00195257
0.00115904
2.65928e-05
-0.000199905
1.72665e-05
-0.000138163
0.000187528
8.25967e-05
-0.000292388
3.58341e-05
0.00017669
-0.000185994
7.41489e-05
0.00033853
-9.60363e-05
-0.000457812
0.000250199
-9.45067e-05
-0.000419183
0.000338995
2.16741e-05
-0.000805947
0.000446818
-1.33465e-05
-0.000325265
0.000458902
2.39034e-05
-0.000150345
0.000496696
4.87964e-05
-9.3777e-05
0.000516191
-8.38217e-05
-0.000389354
7.3328e-05
-4.64606e-05
-0.000238398
9.60003e-05
-0.000179274
-0.000246661
0.000134292
-0.000112077
-0.000272721
0.000199023
-0.000155278
-0.00045341
0.000196671
-0.000125965
-0.000494516
0.000218113
-4.55152e-05
-0.000589244
0.000262066
-1.10715e-05
-0.000810602
0.000262018
2.10996e-05
-0.000559488
0.000278413
9.71574e-05
-0.000707045
0.000372446
9.51344e-05
-0.000542248
0.000379577
-8.44161e-05
-0.000504313
2.87044e-05
-3.79851e-05
-0.000530132
6.82861e-05
-2.99219e-05
-0.000344497
8.82331e-05
1.36579e-05
-0.000187274
0.000100954
-7.14323e-05
-0.000451307
0.0001188
-4.13985e-05
-0.000546457
0.000133534
-1.60991e-05
-0.000640877
0.000134673
-6.21233e-05
-0.00036173
0.000168878
5.55925e-06
-0.000481788
0.000198139
7.73612e-05
-0.000484186
0.000232607
5.73248e-05
-0.000454711
0.000215122
2.5102e-05
-0.000391455
0.000246674
-7.5457e-05
-0.000862439
9.56868e-06
1.47115e-05
-0.000872534
3.19231e-05
-2.62899e-05
-0.00053535
4.68592e-05
-1.58423e-05
-0.000867667
3.39138e-05
-2.20661e-05
-0.000679953
1.37851e-05
1.43266e-05
-0.00094593
4.09485e-05
1.12184e-05
-0.000824931
6.95294e-05
-5.9714e-06
-0.000571379
9.52127e-05
-1.52902e-06
-0.000782432
0.000111964
7.39061e-05
-0.000481994
0.000119924
3.31528e-05
-0.000595857
0.000126758
-1.09422e-05
-0.000460672
0.000141687
-1.7689e-05
-0.00073448
0.000174941
3.88851e-06
-0.00225694
-4.95295e-06
9.48672e-05
-0.00241913
-3.41373e-05
3.93885e-05
-0.0019177
-3.59509e-05
1.8937e-05
-0.00112185
-2.41472e-05
-1.2201e-06
-0.000621076
-1.04394e-05
5.81045e-05
-0.000532575
-6.21251e-06
3.52418e-05
-0.000308747
5.6676e-06
1.87849e-05
-0.000422938
2.41173e-05
1.34077e-05
-0.000503553
2.52201e-05
4.78438e-05
-4.12501e-05
2.91992e-05
2.65477e-05
-0.000343593
3.96469e-05
1.59644e-05
-0.000355227
4.70407e-05
2.96928e-08
-0.000435758
5.16874e-05
3.4929e-05
-2.34242e-05
4.98396e-05
0.00195113
0.000809189
-0.000144301
-0.000691396
0.00177828
0.00120507
-0.000156038
-0.000737872
0.00206914
-0.000106059
-0.00214784
0.00249512
-0.000227863
0.00136067
0.000964409
-7.98435e-05
-0.000809904
0.00244318
1.27745e-05
-0.000849674
0.00324975
0.00035697
-0.00321842
-0.000423435
0.000371541
0.00081463
0.000779168
7.10632e-05
-0.000699311
0.00262682
0.000359461
-0.000823567
0.00328567
0.000337464
-0.00103697
0.00370543
0.000489644
-0.00366994
-0.000779094
0.000383635
0.000424881
0.000612742
0.000377876
-0.000269346
0.00272758
0.000345322
-0.000820242
0.00339242
0.000522818
-0.000838501
0.00388019
0.000566547
-0.000557277
0.00427221
0.000507778
0.000232788
0.000632269
0.000378074
-8.81334e-05
0.00196315
0.000180011
-0.000674891
0.00343133
0.000403037
-0.000685167
0.00397973
0.000790588
-0.000594664
0.00435593
0.000951663
-0.000509661
0.00462071
0.00118627
-2.28264e-06
0.000799792
0.000140231
-0.000392132
0.000913026
0.000180181
-0.000436573
0.00289338
0.000375047
-0.000391372
0.00429125
0.000865407
-0.000429589
0.00450733
0.00112617
-0.000313665
0.00468275
0.00123962
-0.00038895
0.0046589
0.0013584
-1.30478e-05
0.000962173
2.7675e-05
-0.000506019
0.00104906
4.05561e-05
-9.12078e-05
0.00215432
0.000326869
0.000227088
0.00307691
0.000780569
-0.000235478
0.00409669
0.0013048
-0.00015408
0.00454841
0.00136582
-0.000247176
0.00490408
0.00107255
-0.000561267
0.00481406
0.000682833
-4.51813e-06
0.000904722
-3.31309e-05
-0.000525261
0.00096451
1.55181e-05
-9.17033e-05
0.00266586
0.000194275
0.000181997
0.00216267
0.000390979
0.000396585
0.00222893
0.000734756
-8.9116e-05
0.00318695
0.00135075
-0.000180749
0.00350093
0.00153292
-4.42057e-05
0.00342285
0.0014555
-0.000976796
0.00316315
0.00127361
8.50818e-06
0.000437377
-4.13993e-05
-0.000383612
0.000530754
6.74679e-05
-0.000198296
0.00128971
0.000179579
-4.65173e-05
0.00062931
0.000336549
0.000148776
0.00094666
0.000424423
5.24481e-06
0.000696314
0.000571194
2.81055e-05
0.00105366
0.000743529
-0.000267546
0.00188104
0.000996183
-0.000261749
0.00212115
0.00112666
-8.68501e-06
0.00176532
0.00106575
-4.08268e-05
-0.000256815
1.39153e-05
-0.000114445
0.000195038
7.77417e-05
-0.000323013
7.80829e-05
0.000184088
-0.000244546
4.52198e-05
0.000338088
-0.000205942
-0.000363889
0.000295271
-0.000163929
-0.000460183
0.000329163
-5.58247e-05
-0.000917347
0.000460705
5.37372e-06
-0.000355639
0.000460747
-6.07716e-06
-0.000160889
0.000496623
-7.18124e-05
3.02409e-05
0.000541648
2.41559e-05
-0.000457496
0.000571448
-9.4767e-05
-0.000453308
7.43055e-05
-8.0869e-05
-0.000223988
0.000101802
-0.000165111
-0.000152709
0.000137238
-7.66091e-05
-0.000239683
0.000191521
-0.00018055
-0.000354002
0.000208733
-0.000125815
-0.000438902
0.000225474
-5.18991e-05
-0.000595594
0.000260263
-3.10459e-05
-0.000839715
0.000260102
-3.74364e-06
-0.0005676
0.000279433
6.27649e-05
-0.000791824
0.000377789
4.47164e-05
-0.000552019
0.000394825
8.35422e-05
-0.00096025
0.00040369
-8.9361e-05
-0.000524936
3.45266e-05
-3.90582e-05
-0.000511977
6.43194e-05
-4.99296e-05
-0.000339364
8.67924e-05
-9.8401e-06
-0.000211062
0.000106019
-8.64483e-05
-0.000420804
0.000134834
-3.17693e-05
-0.000504754
0.000123193
-3.44429e-05
-0.000606092
0.00014441
-7.1341e-05
-0.000333049
0.000171361
-2.22556e-05
-0.000491968
0.000199784
4.88083e-05
-0.000503454
0.000242505
4.20837e-05
-0.000457832
0.000226797
-3.41193e-05
-0.00040181
0.000248654
2.81957e-05
-0.000920868
0.000298657
-9.23191e-05
-0.000778159
1.19283e-05
-1.32335e-05
-0.000793133
3.82684e-05
-3.78184e-05
-0.000475176
4.89562e-05
-3.91856e-05
-0.000801814
3.91287e-05
-3.90029e-05
-0.000639795
3.15383e-05
-2.94546e-07
-0.000916663
4.29176e-05
2.20947e-06
-0.000825106
7.41564e-05
-1.3062e-05
-0.000566821
9.68181e-05
-4.02651e-05
-0.000747555
0.00011401
7.61648e-05
-0.000524862
0.00012651
2.85783e-05
-0.000608544
0.000130581
-1.57241e-05
-0.000445159
0.000142933
-3.56603e-05
-0.000734172
0.000177069
7.65907e-05
-0.00030435
0.000178793
-3.77707e-06
-0.00224862
-4.54275e-06
8.56754e-05
-0.00247691
-3.28555e-05
3.02351e-05
-0.00194801
-3.40635e-05
1.06449e-05
-0.00114604
-2.24107e-05
-8.96801e-06
-0.000628433
-7.82218e-06
4.81885e-05
-0.000588736
-2.46661e-06
3.22459e-05
-0.000354638
7.43293e-06
1.50321e-05
-0.000457098
2.47959e-05
1.19404e-05
-0.00051921
2.78336e-05
4.62008e-05
-9.38285e-05
3.15977e-05
2.51587e-05
-0.000380408
4.0855e-05
1.35195e-05
-0.000377168
4.80682e-05
-7.33032e-06
-0.000434523
5.31357e-05
3.30944e-05
-5.62432e-05
5.1412e-05
3.30769e-05
-0.000277685
5.62867e-05
0.00192045
0.00054062
-7.50483e-05
-0.000434889
0.00185789
0.000820726
-9.11417e-05
-0.00119012
0.00226043
0.000214355
-0.00216684
0.00228336
-5.24068e-05
-0.000427229
0.00151833
0.00108866
-4.12486e-05
-0.00116601
0.00221524
5.3977e-05
-0.001079
0.00281294
0.000178293
-0.00286796
-0.000437466
2.15345e-05
0.000855727
0.000981532
-5.82201e-05
-0.000949521
0.00254734
6.62066e-05
-0.00102566
0.0032323
0.000232317
-0.00107845
0.00328962
0.000456813
-0.00334798
-0.000917234
0.000410442
0.000127793
0.000927767
0.000148488
-0.000787386
0.00289554
0.000320386
-0.000970869
0.00340718
0.000388573
-0.00107487
0.00379189
0.000487375
-0.000719477
0.00395475
0.000670094
-0.003973
-0.00106744
0.000538937
-0.000168905
0.000716968
0.000297467
-0.000223863
0.0029499
0.000291281
-0.000995705
0.00358217
0.000476389
-0.000726863
0.00380707
0.000637642
-0.000557006
0.00426572
0.000535385
-0.000681959
0.00471553
0.000680635
-0.00028535
0.000655063
0.000260273
-0.000404588
0.00204112
0.000312565
-0.000672661
0.0035394
0.000308038
-0.000752967
0.00400937
0.000734998
-0.000551085
0.00433609
0.000931919
-0.000533417
0.00461158
0.00118054
-0.000489655
0.00462375
0.00130228
-0.000186874
0.000920946
5.26719e-05
-0.00062212
0.00106468
0.000104676
-0.000363859
0.00298025
0.000365958
2.38411e-05
0.00409345
0.000776102
-0.000407118
0.00445057
0.0010938
-0.000270293
0.00469923
0.00122591
-0.00031831
0.0046884
0.00128125
-0.000439771
0.00465221
0.00132847
-0.000135124
0.00112676
-3.39859e-05
-0.000687221
0.00120972
2.8977e-05
-0.000241585
0.00209229
0.000252463
-9.59383e-05
0.00301056
0.000671155
0.000272053
0.00369665
0.00130514
2.82567e-05
0.00416031
0.00157553
-6.05807e-05
0.00485868
0.00129105
8.15184e-06
0.00461327
0.001221
-0.00097169
0.00407431
0.000629328
-8.37654e-05
0.00107623
-7.92349e-05
-0.000604074
0.00110781
4.40286e-05
-0.000102962
0.002374
0.000212043
9.29464e-05
0.00173945
0.000478033
0.000219472
0.00184323
0.000705984
5.28255e-05
0.00269375
0.00118038
-0.000163647
0.00351209
0.00153134
-0.000698247
0.00383072
0.00155576
-0.000156048
0.00324294
0.00127001
-0.00014424
0.00292077
0.00123167
-4.2429e-05
0.000463775
-2.47952e-05
-0.000342861
0.000678498
3.92717e-05
-0.000306339
0.00116896
0.000171537
-0.000258277
0.000469305
0.000353317
-9.69447e-05
0.000689683
0.000484529
3.10683e-05
0.000339237
0.000586502
5.59889e-05
0.000750179
0.000762862
-0.000185965
0.00184523
0.000970674
-0.000201145
0.0022024
0.00110999
-0.000457217
0.00218023
0.00109715
6.04113e-05
0.00164236
0.000967307
-5.85894e-05
-0.000326767
3.37743e-05
-6.77337e-05
9.62431e-05
9.95744e-05
-0.000316344
0.000112383
0.000194676
-0.000226717
8.11033e-05
0.000298312
-0.000290414
-0.000217171
0.000301235
-0.000161284
-0.000462609
0.000333166
-0.000117492
-0.000982183
0.000459592
4.32184e-05
-0.000428604
0.000459405
-5.00334e-05
-0.000157845
0.000503993
-7.02557e-05
0.000121043
0.000538842
-5.34963e-05
-0.000423515
0.00060588
-1.95343e-05
-0.000190131
0.000583385
-9.1872e-05
-0.000526088
7.52905e-05
-8.81425e-05
-0.000208746
0.000108148
-0.000142479
-0.000108661
0.000150304
-9.02038e-05
-0.000194815
0.000172735
-0.000208196
-0.000252462
0.000211728
-0.00010464
-0.000378122
0.000220823
-6.67507e-05
-0.000599467
0.000261655
-6.50711e-05
-0.000843545
0.000257823
-2.46774e-05
-0.000580466
0.00027539
-8.42346e-06
-0.000834568
0.00037941
1.28245e-05
-0.00054681
0.000401839
-3.40068e-06
-0.00101107
0.000414926
7.41363e-05
-0.000676395
0.000395957
-0.00010258
-0.000541413
2.67378e-05
-5.98383e-05
-0.000510465
7.96192e-05
-6.0184e-05
-0.000337792
8.51127e-05
-3.06332e-05
-0.000240661
0.000107838
-9.27792e-05
-0.000399515
0.000138507
-3.37812e-05
-0.000475551
0.000139118
-6.57631e-05
-0.000561118
0.000146192
-8.14631e-05
-0.000291875
0.000171637
-6.83059e-05
-0.00049269
0.000200124
4.17469e-05
-0.000516997
0.000247745
4.01996e-05
-0.000460605
0.000233657
-6.99698e-05
-0.000374128
0.000253361
-8.56875e-06
-0.000999367
0.000300061
8.72681e-05
-0.00025509
0.000301413
-0.000101101
-0.000694166
1.33312e-05
-2.66455e-05
-0.000706383
3.74998e-05
-4.79113e-05
-0.000411721
5.29602e-05
-5.83631e-05
-0.000728797
4.49474e-05
-5.33235e-05
-0.000600954
4.46427e-05
-1.03057e-05
-0.000874269
4.76382e-05
-1.46895e-06