/*--------------------------------*- C++ -*----------------------------------*\
  =========                 |
  \\      /  F ield         | OpenFOAM: The Open Source CFD Toolbox
   \\    /   O peration     | Website:  https://openfoam.org
    \\  /    A nd           | Version:  7
     \\/     M anipulation  |
\*---------------------------------------------------------------------------*/
FoamFile
{
    version     2.0;
    format      ascii;
    class       volVectorField;
    location    "1";
    object      U;
}
// * * * * * * * * * * * * * * * * * * * * * * * * * * * * * * * * * * * * * //

dimensions      [0 1 -1 0 0 0 0];

internalField   nonuniform List<vector> 
18750
(
(2.88093 -0.769254 0.200049)
(2.69505 -0.579516 0.0651361)
(2.60932 -0.759925 0.229593)
(4.15248 -0.107361 -0.898122)
(2.85595 -0.0384982 -1.42089)
(1.98945 -0.559191 -0.0619808)
(4.68074 0.0370157 -1.47125)
(2.34201 -0.761115 0.250771)
(4.01657 -0.0597685 -1.09526)
(3.2163 -0.266719 -1.83502)
(2.89534 -0.0547381 -0.606589)
(2.4519 0.0900524 -1.04402)
(2.73123 1.25097 -0.779679)
(1.40087 -0.582595 -0.0793763)
(4.00619 0.0753694 -1.1567)
(2.63991 -0.218113 -1.99263)
(2.09908 -0.772458 0.271489)
(3.82194 -0.047151 -1.04404)
(2.82768 -0.267702 -1.73221)
(1.69767 -0.157372 -1.45175)
(2.89364 0.405903 -0.474803)
(2.39561 0.0889268 -0.470542)
(3.85534 -0.601589 -0.720931)
(2.0479 0.158323 -0.830496)
(3.07177 1.20125 -0.826891)
(1.1616 -0.585622 1.72594)
(0.969689 -0.616456 -0.0694144)
(3.18305 0.0253964 -0.870898)
(2.4163 -0.190964 -1.52749)
(0.625593 -0.57951 0.0197881)
(1.89905 -0.789446 0.292803)
(3.55132 -0.0445381 -0.965654)
(2.47214 -0.294005 -1.5748)
(1.6016 -0.151254 -1.3734)
(1.13188 -0.0429677 -0.872213)
(2.83989 0.582503 -0.569391)
(2.37218 0.496279 -0.340356)
(3.17153 -0.325863 -0.561722)
(1.94912 0.185327 -0.432869)
(3.54831 -0.302006 -0.788731)
(1.73186 0.346044 -0.59196)
(1.66126 0.13507 -0.716138)
(3.38622 1.52427 -0.821929)
(0.754034 -0.544505 1.03405)
(0.8982 -0.150007 0.36266)
(0.688183 -0.657904 -0.050341)
(2.40494 -0.045679 -0.612776)
(2.02772 -0.179424 -1.16069)
(0.571147 -0.610128 0.174103)
(1.0029 -0.481793 -0.639019)
(1.75016 -0.803104 0.313099)
(3.25537 -0.0585087 -0.883962)
(2.16583 -0.333737 -1.39851)
(1.49059 -0.151154 -1.27025)
(1.05696 -0.0479361 -0.890528)
(0.756118 0.179744 -0.82249)
(2.93684 0.80719 -0.491279)
(2.39521 0.657551 -0.502966)
(2.52507 0.228718 -0.162842)
(1.92125 0.483373 -0.336256)
(2.82342 -0.0111177 -0.671449)
(1.45284 1.02853 -0.0940151)
(1.57208 0.203108 -0.424105)
(3.22011 -0.0812585 -0.694944)
(0.452601 0.179501 -0.826591)
(1.00639 0.156168 0.185137)
(1.29458 0.116434 -0.599065)
(3.17138 0.956049 -0.759395)
(0.352247 -0.489785 0.808535)
(0.885759 -0.0625676 0.288163)
(0.558774 -0.45568 0.0639184)
(0.473986 -0.724454 -0.0157017)
(1.85689 -0.151598 -0.399178)
(1.59848 -0.186083 -0.846142)
(0.521719 -0.593125 0.195064)
(0.883138 -0.450259 -0.528203)
(1.07764 -0.473935 -0.165648)
(1.64915 -0.821648 0.330127)
(2.98477 -0.085803 -0.807365)
(1.91914 -0.378603 -1.23514)
(1.37319 -0.156614 -1.15538)
(0.965356 -0.0514358 -0.870908)
(0.915612 0.183768 -0.966762)
(0.48064 0.160034 -0.599098)
(2.86838 0.782226 -0.544211)
(2.41112 0.925986 -0.250395)
(2.73165 0.781211 -0.267388)
(1.89496 0.729352 -0.324952)
(2.21949 -0.243438 -0.0753477)
(1.56416 0.568732 0.517485)
(1.53449 0.54485 -0.307553)
(2.46697 -0.0116654 -0.512234)
(1.08249 0.867057 -0.410436)
(0.994512 1.12653 -0.226821)
(1.16052 0.233499 -0.334712)
(2.59055 -0.124842 -0.607601)
(-0.37847 -0.133868 -0.638614)
(0.606425 0.0465567 0.0141434)
(0.369983 -0.294862 0.0960765)
(0.993825 0.0575732 -0.497853)
(2.52766 0.78644 -0.634216)
(0.0554122 -0.411888 0.844574)
(0.872354 -0.0231936 0.185521)
(0.412253 -0.424664 0.0752019)
(0.577416 -0.561756 0.172893)
(0.272447 -0.79779 0.0282553)
(1.48996 -0.234223 -0.230943)
(1.21279 -0.205798 -0.560133)
(0.343563 -0.726447 -0.00460592)
(0.754141 -0.418635 -0.457005)
(1.06109 -0.483866 -0.106131)
(0.605888 -0.364036 0.0294587)
(1.59619 -0.823295 0.335149)
(2.77854 -0.114959 -0.743503)
(1.73998 -0.41832 -1.1046)
(1.25192 -0.173062 -1.0474)
(0.866248 -0.0681699 -0.811209)
(1.09875 0.202069 -1.0332)
(0.54614 0.145249 -0.626373)
(0.560522 -0.0322459 0.317823)
(2.52654 0.805054 -0.799784)
(2.3118 0.910048 -0.301777)
(1.61751 1.59544 0.174994)
(1.86749 0.848743 -0.108428)
(1.95402 0.963992 -0.141906)
(-0.105424 1.70102 1.07451)
(1.47556 0.687016 -0.300689)
(1.57788 0.0664682 0.119833)
(1.01604 0.81016 0.054379)
(0.563762 1.07027 0.501853)
(1.13561 0.488955 -0.220329)
(1.75934 0.0481939 -0.304586)
(0.54255 0.741904 -0.405062)
(0.916113 1.03772 -0.307835)
(0.713814 0.377862 0.0865792)
(0.838678 0.19864 -0.240285)
(1.80834 -0.0736298 -0.467207)
(-0.643021 -0.240784 -0.144095)
(0.282873 -0.156914 0.00251387)
(0.249643 -0.333857 0.213752)
(0.356915 -0.325972 0.334366)
(0.750661 0.0263288 -0.409987)
(1.80328 0.458309 -0.509238)
(0.0599487 -0.372545 0.704223)
(0.747192 0.0160521 0.0378837)
(0.298916 -0.375486 0.17726)
(0.516703 -0.520957 0.255847)
(0.350746 -0.436614 0.317525)
(0.194216 -0.775514 0.0528935)
(1.22346 -0.276354 -0.0815496)
(0.881072 -0.24794 -0.311225)
(0.519722 -0.586319 0.0549928)
(0.628302 -0.391526 -0.386805)
(1.00415 -0.477038 -0.146074)
(0.588429 -0.381826 0.0862055)
(0.387124 -0.331978 0.478683)
(1.56603 -0.805237 0.329841)
(2.64941 -0.117585 -0.698988)
(1.63817 -0.4351 -1.02214)
(1.14176 -0.194136 -0.948021)
(0.757062 -0.0889937 -0.732452)
(1.25318 0.236356 -0.990222)
(0.598417 0.133603 -0.594663)
(0.507647 -0.04557 0.343642)
(0.613687 -0.207597 0.373893)
(2.4508 0.638161 -0.546806)
(2.17766 0.935656 -0.515671)
(0.288819 1.68377 0.411971)
(1.75155 0.930436 -0.205144)
(1.5229 1.56133 0.0634368)
(-0.36736 2.49491 1.3175)
(1.34751 0.794936 -0.0715131)
(1.18278 0.650722 -0.0265313)
(-0.501061 1.74617 0.837665)
(-0.259002 1.84075 1.3668)
(1.04016 0.632274 -0.331378)
(0.709946 0.04804 0.238346)
(0.869341 0.911519 -0.139793)
(0.706724 1.22297 0.391054)
(0.189003 1.10667 0.909506)
(0.797997 0.406142 -0.185406)
(0.939088 -0.00545865 -0.0702093)
(0.00781336 0.33531 0.139603)
(0.637062 0.803068 -0.298557)
(0.481032 0.33922 0.251097)
(0.291988 0.125815 0.373089)
(0.601805 0.171149 -0.122593)
(1.09409 -0.147292 -0.302734)
(-0.527275 -0.367326 0.251772)
(0.108836 -0.249584 0.135815)
(-0.0184969 -0.468963 0.390381)
(0.237024 -0.371781 0.417244)
(0.324578 -0.334357 0.622232)
(0.517487 -0.0886924 -0.253388)
(1.20391 0.221749 -0.40745)
(0.0831453 -0.228933 0.687751)
(0.508505 -0.00467298 0.0309202)
(0.228545 -0.373673 0.267504)
(0.447503 -0.50725 0.338951)
(0.315136 -0.447632 0.395736)
(-0.147551 -0.254189 0.564505)
(0.284793 -0.721049 0.119099)
(1.06967 -0.284812 -0.036246)
(0.616765 -0.278089 -0.0923306)
(0.346691 -0.631769 -0.0275563)
(0.498924 -0.393113 -0.300401)
(0.914471 -0.4605 -0.155231)
(0.563119 -0.391325 0.151655)
(0.346534 -0.328873 0.501092)
(0.498096 -0.453686 0.71709)
(1.57655 -0.759848 0.303003)
(2.5625 -0.09856 -0.675197)
(1.60918 -0.432517 -0.988523)
(1.04818 -0.217915 -0.871295)
(0.644389 -0.118298 -0.645976)
(1.32806 0.264206 -0.848966)
(0.619127 0.12262 -0.526244)
(0.454219 -0.0640335 0.361671)
(0.564946 -0.208383 0.453622)
(0.413343 0.149007 0.430507)
(2.20665 0.682807 -0.602446)
(2.1101 0.766964 -0.430646)
(0.28922 1.20699 0.417634)
(1.69744 0.97722 -0.351674)
(0.916742 1.58501 0.156187)
(-0.915235 2.44515 0.643298)
(1.14592 0.933939 -0.186193)
(1.20759 1.23651 -0.0482274)
(-0.766078 2.33004 1.12183)
(-0.271093 3.02711 1.74091)
(0.812434 0.744927 -0.123781)
(0.0124785 0.467145 0.0565562)
(-0.746431 1.75092 0.444202)
(-0.712374 1.7389 1.13034)
(-0.375435 2.16703 1.89425)
(0.663436 0.545844 -0.346227)
(-0.163618 0.0754473 0.401943)
(0.668265 1.05191 -0.0545797)
(0.739965 1.32208 0.0739054)
(0.174897 1.2204 0.827851)
(-0.193919 1.03756 1.23796)
(0.561552 0.293821 -0.171446)
(0.123049 -0.11816 0.206953)
(-0.218027 0.147034 0.452066)
(0.417276 0.493307 -0.191866)
(0.268301 0.179597 0.436544)
(0.217819 0.0871018 0.375995)
(0.213587 -0.165914 0.787382)
(0.439522 0.101685 0.0484124)
(0.622711 -0.151509 -0.146431)
(-0.382043 -0.398329 0.217652)
(-0.100469 -0.310445 0.459421)
(-0.13287 -0.506985 0.438179)
(0.0182709 -0.389202 0.524652)
(0.257933 -0.354832 0.704604)
(-0.221105 -0.439537 0.680379)
(0.328963 -0.222676 -0.0887495)
(0.780793 0.0331924 -0.269534)
(0.138326 -0.237613 0.49404)
(0.341701 -0.00901524 0.0971823)
(0.101982 -0.373491 0.451219)
(0.356089 -0.512569 0.461208)
(0.281139 -0.444611 0.446176)
(-0.178663 -0.267499 0.586694)
(0.38875 -0.276 0.879356)
(0.296171 -0.711943 0.0723792)
(0.921622 -0.305347 -0.0098235)
(0.437919 -0.283191 0.0482955)
(0.279604 -0.609921 -0.0425737)
(0.388318 -0.392214 -0.219922)
(0.816021 -0.456844 0.00916704)
(0.504022 -0.411462 0.28878)
(0.323145 -0.327468 0.525888)
(0.43175 -0.448213 0.769728)
(0.564567 -0.209894 0.738034)
(1.5375 -0.750707 0.302573)
(2.51438 -0.120811 -0.687423)
(1.59286 -0.43622 -0.973074)
(0.970996 -0.241529 -0.817997)
(0.537408 -0.154617 -0.560968)
(1.30597 0.272953 -0.679865)
(0.620933 0.110702 -0.435203)
(0.410423 -0.0848839 0.372225)
(0.519569 -0.209535 0.518544)
(0.464254 0.143078 0.350797)
(0.281536 -0.132322 0.776028)
(2.08941 0.528946 -0.550157)
(1.83737 0.871958 -0.49742)
(-0.276847 1.19551 0.44566)
(1.59626 0.985622 -0.273411)
(0.63266 1.31988 0.195848)
(-0.939544 2.3229 0.284312)
(1.18537 0.99628 -0.233988)
(0.92739 1.41003 -0.00112551)
(-0.828899 2.27555 0.820533)
(-0.75373 2.823 1.13623)
(0.76894 0.795913 -0.0974278)
(0.219902 0.921472 -0.022062)
(-0.740327 2.08298 0.811418)
(-0.34684 2.97162 1.51463)
(-0.568271 3.23029 1.66586)
(0.509233 0.68242 -0.0525914)
(-0.370273 0.393532 0.0629261)
(-0.849114 1.77298 0.264024)
(-0.608453 1.68895 1.01432)
(-0.735091 2.00016 1.81266)
(-0.473665 2.38499 2.28689)
(0.422611 0.514523 -0.246584)
(-0.483252 -0.0153506 0.402226)
(-0.138075 1.04908 0.123563)
(0.760923 1.2477 -0.0758219)
(0.242394 1.25393 0.732044)
(-0.114527 0.910034 1.20236)
(0.142125 0.808876 1.63574)
(0.369593 0.188043 -0.103221)
(-0.150213 -0.144225 0.308497)
(-0.387249 -0.0923921 0.411887)
(-0.016935 0.255132 0.34718)
(-0.0529535 -0.0826527 0.518149)
(-0.0893168 -0.0127578 0.467272)
(0.0553387 -0.205505 0.888164)
(0.276264 -0.134939 1.04487)
(0.275335 0.0195501 0.182864)
(0.393359 -0.12833 -0.00931706)
(-0.276112 -0.395195 0.121518)
(-0.16866 -0.284283 0.537982)
(-0.212605 -0.510948 0.485058)
(-0.123559 -0.414659 0.508261)
(0.0659769 -0.366287 0.76493)
(-0.0813681 -0.457276 0.799914)
(0.118259 -0.325869 0.807945)
(0.202786 -0.294179 0.013973)
(0.55766 -0.135061 -0.10607)
(0.177577 -0.172283 0.445369)
(0.240232 0.00126573 0.176858)
(0.0578244 -0.352114 0.511577)
(-0.0455693 -0.407655 0.649049)
(0.242168 -0.435372 0.486003)
(-0.196066 -0.290519 0.608768)
(0.329488 -0.274253 0.872917)
(0.322182 -0.236113 0.855993)
(0.227435 -0.752794 0.0563632)
(0.780944 -0.327143 0.0244153)
(0.331415 -0.32997 0.131347)
(0.277465 -0.599628 0.0350254)
(0.292291 -0.404946 -0.132527)
(0.683051 -0.463378 0.0581674)
(0.45251 -0.428734 0.350541)
(0.296144 -0.323306 0.556443)
(0.36318 -0.462077 0.796026)
(0.598611 -0.211048 0.757387)
(0.241917 -0.356578 0.879989)
(1.48426 -0.743437 0.300845)
(2.46384 -0.100136 -0.680397)
(1.5497 -0.448268 -0.951989)
(0.908543 -0.264512 -0.780816)
(0.442535 -0.195313 -0.484817)
(1.22623 0.261269 -0.509342)
(0.608306 0.0957212 -0.333114)
(0.380741 -0.106494 0.377593)
(0.480481 -0.211065 0.571304)
(0.49933 0.140873 0.318712)
(0.305078 -0.137866 0.799268)
(0.318948 -0.180517 0.859418)
(1.94514 0.384441 -0.442772)
(1.76114 0.720542 -0.3727)
(-0.453875 1.47253 0.438897)
(2.2239 0.621267 -0.583223)
(1.5077 0.847306 -0.165845)
(-0.22221 1.20861 0.376825)
(-0.868147 1.98438 0.367171)
(1.07823 0.959068 0.0278988)
(0.756169 1.50776 0.00154123)
(-0.731846 2.33218 0.356731)
(-1.14177 2.65988 0.673625)
(0.716142 0.940192 -0.0477855)
(-0.213003 0.905608 0.0823919)
(-0.897443 1.92572 0.689992)
(-0.669397 2.82248 0.963791)
(-0.208105 2.88543 1.47888)
(0.338116 0.760345 -0.188879)
(-0.54287 0.59881 0.0599598)
(-0.591256 1.67131 0.686538)
(-0.744653 2.47582 1.54783)
(-0.189017 3.12848 1.81971)
(-0.667676 3.12998 1.96921)
(0.303283 0.61606 -0.0960549)
(-0.673375 0.31146 0.0312872)
(-0.843863 1.88874 0.122403)
(-0.196252 1.71536 0.62318)
(-0.896584 1.86524 1.62738)
(-0.759566 2.30538 2.1791)
(-0.834722 2.12608 2.43334)
(0.345242 0.446221 -0.143159)
(-0.603154 -0.0916515 0.295796)
(-0.409746 1.00831 0.176836)
(0.460118 1.18422 0.0485736)
(0.303963 1.28356 0.55513)
(-0.0697189 0.906401 1.03533)
(-0.0214396 0.980688 1.6022)
(0.646803 0.858125 2.12781)
(0.173561 0.0218048 -0.0762825)
(-0.172479 -0.0754132 0.250918)
(-0.663973 -0.198711 0.170411)
(-0.280566 -0.00343518 0.500019)
(-0.318823 -0.328669 0.509391)
(-0.190295 -0.177704 0.522235)
(-0.108246 -0.385519 0.913063)
(0.225531 -0.189311 1.1585)
(0.120678 -0.068799 1.13896)
(0.000827813 -0.22676 0.176973)
(0.305466 -0.1108 0.108424)
(-0.251201 -0.357096 0.128818)
(-0.143678 -0.311228 0.575628)
(-0.22175 -0.489498 0.559011)
(-0.122137 -0.448662 0.539964)
(-0.00869878 -0.384942 0.783034)
(0.0647106 -0.493259 0.854833)
(0.0802852 -0.338742 0.811212)
(0.583287 -0.360575 0.973821)
(0.0392956 -0.397269 0.122521)
(0.402144 -0.15276 0.00571953)
(0.193163 -0.179558 0.422356)
(0.185324 -0.0206737 0.262946)
(0.0796989 -0.332969 0.535325)
(0.351316 -0.40943 0.420524)
(0.173082 -0.406918 0.523925)
(-0.20722 -0.310802 0.640752)
(0.258569 -0.269339 0.853274)
(0.3121 -0.249298 0.907744)
(-0.0351879 -0.274517 0.920814)
(0.167369 -0.779065 0.0619328)
(0.650491 -0.34124 0.0316095)
(0.254899 -0.352313 0.211434)
(0.218159 -0.61724 0.100305)
(0.217827 -0.431955 -0.0517794)
(0.549331 -0.481866 0.1274)
(0.411728 -0.435443 0.395987)
(0.289212 -0.31415 0.571647)
(0.243664 -0.485447 0.819673)
(0.650099 -0.184744 0.774768)
(0.308635 -0.351924 0.904723)
(0.101222 -0.307931 0.95928)
(1.44096 -0.735263 0.298367)
(2.40048 -0.0615386 -0.639702)
(1.48862 -0.474209 -0.926268)
(0.855576 -0.289541 -0.749349)
(0.361684 -0.238523 -0.423586)
(1.11769 0.232201 -0.349625)
(0.588544 0.0837288 -0.238042)
(0.36154 -0.123256 0.387653)
(0.445061 -0.213015 0.613473)
(0.510658 0.135585 0.357048)
(0.311703 -0.145898 0.828126)
(0.28909 -0.184028 0.899066)
(0.172387 -0.280211 1.18849)
(1.50109 0.51657 -0.496231)
(1.66832 0.559263 -0.356325)
(-0.544687 1.57354 0.288201)
(2.31998 0.0145167 -0.403603)
(1.47222 0.594947 -0.156107)
(-0.739467 1.34492 0.352188)
(-0.622547 2.1223 0.161272)
(-0.128765 1.73643 0.493313)
(1.00037 0.764643 0.211202)
(0.185141 1.35019 0.364561)
(-0.961175 1.93266 0.467696)
(-0.807822 2.46603 0.565195)
(0.780467 0.817628 0.232253)
(0.42062 1.45029 0.0554997)
(-0.743512 2.18933 0.345932)
(-0.969453 2.51152 0.775892)
(-0.874066 2.68394 1.06854)
(0.494272 0.680321 0.158943)
(-0.694499 0.472614 0.205749)
(-0.392772 1.78439 0.815722)
(-0.395167 2.80356 0.831749)
(-0.419525 2.93371 1.36808)
(-0.297315 3.13752 1.51141)
(0.311116 0.669982 0.0447798)
(-0.724384 0.426465 0.0785564)
(-0.494732 1.4653 0.507397)
(-0.558138 2.32009 1.02888)
(-0.53037 2.90893 1.82652)
(-0.678405 3.12811 1.98162)
(-0.747536 3.08654 1.50846)
(0.17754 0.619185 -0.0241279)
(-0.863598 0.213217 0.034918)
(-0.784105 1.83806 0.106297)
(-0.0102642 1.73022 0.439278)
(-0.810218 1.74506 1.40417)
(-0.863712 2.18801 2.10088)
(-0.934295 2.31169 2.44225)
(-0.685641 2.07103 2.45654)
(0.183018 0.37067 -0.151618)
(-0.616334 -0.0827843 0.219049)
(-0.649755 0.895722 0.304596)
(-0.355726 0.677907 0.350931)
(0.196073 1.12593 0.503243)
(0.0722631 0.832821 0.864778)
(-0.00158393 0.895042 1.46562)
(-0.283869 1.26287 1.95839)
(-0.336221 1.08197 2.28559)
(0.0679546 -0.0895172 -0.0989148)
(-0.151299 0.0380554 0.247765)
(-0.613966 -0.313746 0.0882152)
(-0.350588 -0.0220917 0.777846)
(-0.372025 -0.462171 0.67524)
(-0.257473 -0.307695 0.614757)
(-0.0156215 -0.493047 0.984325)
(0.104619 -0.184004 1.1658)
(0.229257 -0.0824864 1.12923)
(0.311427 -0.0958681 1.21569)
(-0.111306 -0.386603 0.154808)
(-0.00190031 -0.168576 0.337011)
(-0.184529 -0.334713 0.186482)
(-0.106683 -0.258576 0.63795)
(-0.23168 -0.460273 0.603896)
(-0.130942 -0.423517 0.599213)
(-0.017722 -0.406181 0.797208)
(-0.00203161 -0.523172 0.856356)
(0.026322 -0.370932 0.817858)
(0.511714 -0.389562 1.00093)
(0.530486 -0.323124 1.27448)
(0.0203799 -0.405244 0.11988)
(0.185451 -0.345656 0.154245)
(0.149271 -0.15625 0.462039)
(0.181764 -0.026139 0.287373)
(0.0526841 -0.335509 0.5586)
(0.0805245 -0.324281 0.602006)
(0.184254 -0.405993 0.523428)
(-0.204126 -0.316432 0.666644)
(0.148012 -0.28482 0.820161)
(0.256899 -0.27502 0.97428)
(0.0962399 -0.280283 0.996835)
(-0.0886807 -0.239142 0.982258)
(0.0504443 -0.766832 0.0692809)
(0.523621 -0.369376 0.0598119)
(0.0889602 -0.374906 0.370555)
(0.148087 -0.625444 0.28749)
(0.169668 -0.447433 0.0424227)
(0.435231 -0.50775 0.139642)
(0.374198 -0.443628 0.436044)
(0.286762 -0.307298 0.584067)
(0.172037 -0.504331 0.82155)
(0.637806 -0.172625 0.813347)
(0.36287 -0.340736 0.935596)
(0.0986433 -0.300004 0.978783)
(-0.0914811 -0.482064 1.22055)
(1.41562 -0.730493 0.293012)
(2.36914 -0.0190911 -0.575841)
(1.4205 -0.481018 -0.892335)
(0.814221 -0.309921 -0.710089)
(0.295141 -0.280101 -0.378463)
(0.999592 0.189207 -0.208664)
(0.562594 0.0684998 -0.149172)
(0.338411 -0.145984 0.403512)
(0.41172 -0.213233 0.646707)
(0.503106 0.130357 0.420224)
(0.310097 -0.156166 0.857923)
(0.266551 -0.188952 0.933498)
(0.130989 -0.279904 1.20801)
(0.331935 0.00633587 1.10827)
(1.48494 0.597267 -0.399086)
(1.22483 1.006 -0.323848)
(-0.587522 1.31101 0.0206113)
(1.87844 0.267365 -0.629389)
(1.07405 0.794325 -0.294853)
(-0.771197 1.5063 0.20485)
(-0.705126 2.10465 0.0732081)
(-0.231059 1.75807 0.467755)
(0.678801 0.708665 -0.10838)
(-0.764281 1.45763 0.354055)
(-0.901648 2.06144 0.170648)
(-1.02283 2.36792 0.365971)
(-0.517896 2.11244 0.240733)
(0.616157 0.515661 0.262452)
(-0.322778 1.61739 0.293476)
(-1.0456 2.01021 0.482468)
(-1.07242 2.4252 0.508026)
(-0.71546 2.74384 0.622044)
(0.467908 0.576266 0.363037)
(-0.429301 1.30545 0.347041)
(-1.14439 1.98555 0.190528)
(-1.06901 2.41206 0.724182)
(-0.953718 2.71907 1.02763)
(-0.678119 3.00675 1.13956)
(-0.0474024 0.518044 0.127481)
(-0.736005 0.354173 0.210562)
(-0.976967 1.70653 0.298875)
(-0.93659 2.61496 0.817955)
(-0.882359 2.89189 1.40258)
(-0.466885 3.02774 1.48342)
(-0.470706 3.04258 1.80461)
(-0.189742 0.580801 -0.0502996)
(-0.827069 0.382864 0.138935)
(-0.416869 1.4531 0.202016)
(-0.434714 2.10483 0.696675)
(-0.805222 2.74961 1.66145)
(-0.895487 3.02021 2.02694)
(-0.740477 3.11711 1.75321)
(-0.925714 2.75018 1.35186)
(-0.203834 0.541084 -0.164783)
(-0.98255 0.182417 0.0602889)
(-0.715458 1.68021 0.0774146)
(-0.0194788 1.68605 0.379792)
(-0.151913 1.74073 0.827059)
(-0.664169 2.10912 1.92106)
(-0.791885 2.2277 2.60621)
(-0.790193 2.22 2.63739)
(-1.57 1.84054 1.91237)
(-0.0881382 0.309391 -0.229507)
(-0.633129 -0.00776367 0.125309)
(-0.975077 0.546213 0.214105)
(-0.654843 0.309745 0.433171)
(-0.128233 0.787901 0.744312)
(-0.198714 0.542676 0.910948)
(0.0599832 0.816745 1.20954)
(-0.335368 1.20154 1.8425)
(-0.265856 1.34301 2.24997)
(-0.16202 1.05162 2.29739)
(-0.0107271 -0.191625 -0.11132)
(-0.195193 0.0434785 0.194518)
(-0.590069 -0.275117 0.113941)
(-0.345531 -0.163662 0.839227)
(-0.363837 -0.453688 0.790853)
(-0.30916 -0.436193 0.623023)
(0.0255651 -0.589036 0.994168)
(0.101311 -0.200201 1.17606)
(0.166045 -0.0809425 1.15739)
(0.0267326 0.0127274 1.28335)
(-0.000663458 -0.32805 1.39898)
(-0.0806837 -0.458446 0.141303)
(-0.0835758 -0.283717 0.282795)
(-0.164822 -0.270847 0.288512)
(0.0254665 -0.190717 0.635495)
(-0.258097 -0.433592 0.612426)
(-0.134991 -0.388765 0.64318)
(-0.0286821 -0.433977 0.791514)
(0.00352539 -0.579125 0.838345)
(0.0283391 -0.36967 0.838927)
(0.438435 -0.433529 0.978502)
(0.423351 -0.316942 1.33177)
(0.327376 -0.602366 1.25904)
(0.00308092 -0.468159 0.0704908)
(0.214636 -0.30793 0.138526)
(0.0590086 -0.254783 0.422194)
(0.16082 -0.057253 0.320499)
(0.000371637 -0.331037 0.587189)
(0.154261 -0.34698 0.518216)
(0.0974689 -0.404107 0.57713)
(-0.172447 -0.303966 0.690319)
(0.0268796 -0.327599 0.81011)
(0.287003 -0.27675 1.01255)
(0.071931 -0.291774 1.05029)
(-0.172977 -0.285263 1.02368)
(-0.0761854 -0.580793 1.2475)
(0.00577648 -0.80704 0.0757862)
(0.404466 -0.398767 0.0784894)
(0.0717046 -0.416181 0.369957)
(0.0948153 -0.637706 0.315922)
(0.0667393 -0.480875 0.25296)
(0.362794 -0.515007 0.147648)
(0.353246 -0.44585 0.4701)
(0.238876 -0.315758 0.613297)
(0.00897762 -0.528183 0.820642)
(0.578362 -0.185383 0.869102)
(0.408924 -0.322492 0.969994)
(0.107022 -0.285915 0.996204)
(-0.139881 -0.495983 1.21696)
(0.453603 -0.169564 1.39007)
(1.39713 -0.723654 0.282713)
(2.34573 0.001769 -0.518463)
(1.4038 -0.528674 -0.849149)
(0.779997 -0.3267 -0.664534)
(0.238389 -0.329151 -0.345316)
(0.884879 0.136577 -0.0929262)
(0.535067 0.0527408 -0.0746844)
(0.324959 -0.158396 0.41202)
(0.373742 -0.214906 0.675147)
(0.487047 0.120268 0.497363)
(0.306752 -0.167434 0.88683)
(0.249322 -0.194706 0.960907)
(0.0779467 -0.276594 1.2232)
(0.323685 0.00506564 1.14561)
(0.341563 -0.157943 1.19423)
(1.41872 0.343131 -0.442317)
(1.42154 0.646515 -0.391997)
(-0.736058 1.51781 0.167827)
(1.67375 0.255751 -0.294041)
(1.03881 0.902437 -0.291242)
(-0.858462 1.30247 0.0951655)
(-0.844326 1.80853 -0.173366)
(-0.339421 1.43752 0.280947)
(0.54913 0.766873 -0.268604)
(-1.02719 1.48827 0.173943)
(-0.993764 2.03108 -0.176605)
(-0.998823 2.11437 0.499451)
(-0.658509 2.08318 0.151181)
(-0.012055 0.558647 -0.188446)
(-0.970742 1.65628 0.258005)
(-1.19052 2.00999 0.275533)
(-1.05908 2.35609 0.424193)
(-0.549905 2.569 0.59601)
(-0.954739 2.35056 0.360959)
(-0.277034 0.412871 0.029376)
(-0.588048 1.79573 0.463865)
(-1.29087 2.09364 0.376234)
(-1.23797 2.40604 0.611484)
(-0.846316 2.71075 0.674301)
(-0.632955 3.06997 0.407112)
(-0.330054 0.347342 0.136474)
(-0.790697 1.07738 0.427971)
(-1.16846 2.04926 0.0992465)
(-1.12775 2.41539 0.685729)
(-1.05062 2.75525 1.01621)
(-0.856061 2.94698 1.15942)
(-0.691307 2.99886 1.55571)
(-0.353814 0.437002 0.0459775)
(-1.03395 0.296864 0.194351)
(-0.979197 1.712 0.290252)
(-0.31773 2.81396 0.599517)
(-1.08198 2.77711 1.42144)
(-0.44022 3.02505 1.49003)
(-0.500609 2.95241 1.67337)
(-0.748183 3.01401 1.72975)
(-0.441688 0.547664 -0.191636)
(-1.04858 0.330172 0.125917)
(-0.794544 1.17795 0.000106555)
(-0.594102 1.90076 0.726046)
(0.156471 2.58703 1.49214)
(-0.685022 2.80096 2.18014)
(-0.543543 3.23969 1.9381)
(0.244737 3.39845 1.33352)
(-1.72712 2.82607 0.6458)
(-0.413728 0.516484 -0.285923)
(-1.10177 0.192162 0.062943)
(-0.762231 1.51638 -7.98116e-05)
(-0.176571 1.4056 0.552203)
(0.0249294 1.3787 0.942534)
(-0.483611 1.93402 1.62881)
(-0.624371 2.15438 2.62394)
(-1.20036 2.26869 2.57451)
(-0.996741 1.99464 2.42529)
(0.0660378 1.79589 2.3456)
(-0.238747 0.204105 -0.166317)
(-0.571687 0.123128 0.087701)
(-1.12111 0.31803 0.112437)
(-0.806735 -0.0144884 0.546208)
(-0.526367 0.362344 0.844276)
(-0.359229 0.244052 1.02242)
(-0.266728 0.517063 1.29005)
(-0.286985 1.12796 1.74977)
(-0.403749 1.39411 2.1933)
(-0.507533 1.29922 2.24927)
(0.0755316 0.993474 2.05775)
(0.0238666 -0.226549 -0.00886715)
(-0.20422 -0.00851523 0.187613)
(-0.530576 -0.268933 0.151804)
(-0.310789 -0.12222 0.835752)
(-0.470756 -0.441966 0.719793)
(-0.261553 -0.443642 0.72173)
(0.0939039 -0.650121 0.938655)
(0.0579019 -0.253857 1.2159)
(0.0567055 -0.0722568 1.15558)
(-0.0633261 0.032308 1.26048)
(-0.134666 -0.255334 1.45531)
(0.114156 -0.130926 1.48459)
(-0.0201462 -0.462125 0.13024)
(-0.118905 -0.276028 0.306066)
(-0.190763 -0.236068 0.366213)
(-0.0917807 -0.229769 0.549838)
(-0.31983 -0.405573 0.574616)
(-0.0954325 -0.350667 0.691576)
(-0.0233233 -0.441304 0.796089)
(-0.0353041 -0.611815 0.827376)
(0.0109709 -0.387151 0.838822)
(0.252607 -0.505991 0.960814)
(0.374367 -0.311011 1.37861)
(0.0246809 -0.628784 1.30208)
(0.319272 -0.418071 1.2788)
(0.0138093 -0.553933 0.0747237)
(0.0713651 -0.348997 0.240743)
(0.0366569 -0.282046 0.400466)
(0.045237 -0.144968 0.345157)
(-0.0148564 -0.33275 0.600092)
(0.0936361 -0.305045 0.627601)
(0.0741998 -0.405854 0.564908)
(-0.160217 -0.293679 0.713656)
(-0.179189 -0.409053 0.800557)
(0.414285 -0.232797 1.02989)
(-0.00047176 -0.309566 1.0834)
(-0.196461 -0.289176 1.07758)
(-0.166852 -0.64847 1.20842)
(0.354025 -0.148975 1.41722)
(0.029979 -0.830068 0.0752547)
(0.303913 -0.409187 0.108464)
(-0.00571374 -0.394256 0.434564)
(0.0240995 -0.631789 0.357616)
(0.0225906 -0.504912 0.298715)
(0.340474 -0.501247 0.194701)
(0.368709 -0.432702 0.486346)
(0.209253 -0.31935 0.642928)
(0.0842413 -0.493933 0.815377)
(0.583952 -0.183723 0.893437)
(0.424585 -0.300246 1.00751)
(0.104273 -0.272431 1.0153)
(-0.209045 -0.513871 1.20757)
(0.424466 -0.173505 1.41083)
(0.397041 -0.264328 1.3679)
(1.3963 -0.734415 0.27475)
(2.31704 -0.00366696 -0.510827)
(1.39014 -0.506529 -0.845407)
(0.749647 -0.340236 -0.618554)
(0.193733 -0.355301 -0.308378)
(0.782322 0.080415 -0.00794093)
(0.513169 0.039368 -0.0212468)
(0.308982 -0.178082 0.416752)
(0.351006 -0.227319 0.691238)
(0.470204 0.106523 0.580774)
(0.302789 -0.178756 0.91371)
(0.231855 -0.201533 0.981622)
(0.0139967 -0.286676 1.23509)
(0.330089 -0.000635024 1.18567)
(0.328433 -0.165443 1.22072)
(0.106509 -0.133556 1.39571)
(1.29896 0.631548 -0.440884)
(1.2343 0.528647 -0.41174)
(-1.0784 1.65362 0.339029)
(1.51275 0.202016 -0.38633)
(1.10404 0.735429 -0.311993)
(-1.27289 1.34047 0.266394)
(-1.03428 1.71252 0.182439)
(-0.252817 1.30026 0.207762)
(1.96475 0.108052 -0.166351)
(0.619249 0.80695 -0.329559)
(-1.05868 1.32998 0.229257)
(-1.0975 1.70851 -0.00968545)
(-0.999777 2.10912 0.417154)
(-0.627916 1.93141 -0.23621)
(-0.105301 0.663437 -0.27231)
(-1.21139 1.45715 0.18407)
(-1.21178 1.95382 -0.0714823)
(-1.30273 1.99675 0.556958)
(-0.917816 2.30861 0.335076)
(-0.698012 2.25008 0.43906)
(-0.414805 0.539742 -0.28737)
(-0.866763 1.82308 0.470478)
(-1.56448 1.96416 0.295704)
(-0.95317 2.38524 0.443048)
(-0.729616 2.50538 0.530467)
(-0.896187 2.53515 0.616912)
(-0.482296 2.56965 0.607411)
(-0.5987 0.274496 -0.0824987)
(-1.09372 1.71706 0.537629)
(-1.5249 2.07332 0.140856)
(-1.5383 2.20096 0.63879)
(-0.963346 2.68654 0.724587)
(-0.840127 2.98134 0.416847)
(-0.536867 2.94415 0.995907)
(-0.518284 0.249616 0.0327206)
(-1.17417 1.02687 0.403571)
(-1.25007 2.05667 0.321606)
(-1.10535 2.50313 0.568459)
(-1.09759 2.64897 1.00186)
(-1.13008 2.84461 1.14493)
(-0.832564 2.93899 1.5154)
(-0.531032 3.16729 1.4579)
(-0.565394 0.47077 -0.117118)
(-1.38312 0.202313 0.0779785)
(-1.15077 1.67358 0.10433)
(-1.19124 2.42248 0.607143)
(-0.868944 2.76324 1.41865)
(-0.494936 3.07124 1.38921)
(-0.545878 3.03785 1.66664)
(-0.744716 3.03627 1.67272)
(-0.955794 3.24922 1.69943)
(-0.618074 0.576761 -0.142597)
(-1.2971 0.268667 0.103069)
(-0.89247 1.11056 -0.0267797)
(-0.847797 1.75325 0.699489)
(-0.621759 2.42934 1.14095)
(-0.562895 2.48014 2.35691)
(-0.953546 2.89734 2.37629)
(-1.77667 2.63994 1.87802)
(-0.000710827 2.44006 2.04035)
(-0.694982 2.43625 1.28496)
(-0.528042 0.574487 -0.096803)
(-1.15335 0.186364 0.0415074)
(-0.934712 1.21608 0.0879436)
(-0.557118 0.818294 0.705558)
(-0.433437 1.06085 1.04788)
(-0.166518 1.65704 1.36846)
(-0.318637 2.28671 2.27869)
(-1.13644 2.28756 2.59647)
(-0.793419 2.08723 2.76024)
(-1.38362 1.99441 1.89875)
(0.071565 1.9845 1.83196)
(-0.326886 0.154783 -0.0760625)
(-0.429034 0.316474 0.0817545)
(-1.13504 0.165013 0.0462141)
(-0.750962 -0.0982814 0.607761)
(-0.711897 0.0865115 0.80187)
(-0.284254 0.0113363 1.1172)
(-0.526034 0.277247 1.30649)
(-0.13615 1.16597 1.67651)
(-0.597093 1.3786 2.17856)
(-0.505327 1.41227 2.27491)
(-0.206321 1.15626 2.14902)
(-0.242154 0.951895 1.97086)
(0.0738096 -0.260894 0.0227286)
(-0.14784 -0.0868531 0.185629)
(-0.404852 -0.201126 0.272284)
(-0.251274 -0.0976477 0.806048)
(-0.562 -0.444156 0.543297)
(-0.159111 -0.409574 0.807251)
(0.0840488 -0.684494 0.876473)
(-0.00556883 -0.36219 1.24069)
(0.00696232 -0.122747 1.10344)
(-0.225671 0.0655562 1.27576)
(-0.216219 -0.335222 1.44314)
(0.0195392 -0.124182 1.55496)
(0.107493 -0.13736 1.45895)
(0.0575842 -0.514588 0.156264)
(-0.0879036 -0.291058 0.325275)
(-0.19979 -0.258196 0.373117)
(-0.092581 -0.218748 0.55074)
(-0.356406 -0.393157 0.547494)
(-0.0516118 -0.298582 0.731846)
(-0.180759 -0.50606 0.721673)
(-0.0830991 -0.613198 0.823289)
(-0.0234177 -0.42788 0.825761)
(0.104222 -0.535978 0.932728)
(0.477535 -0.249154 1.40325)
(-0.146487 -0.70275 1.28399)
(0.213023 -0.432556 1.29293)
(0.333551 -0.395915 1.32662)
(0.0195589 -0.585426 0.0562832)
(0.137827 -0.419557 0.165207)
(0.0148259 -0.28098 0.423021)
(-0.00886331 -0.238017 0.351779)
(-0.052198 -0.372534 0.595613)
(0.0721152 -0.335551 0.638388)
(0.0581386 -0.374824 0.600736)
(-0.153297 -0.276455 0.733316)
(-0.26867 -0.448751 0.77602)
(0.382773 -0.23486 1.03941)
(-0.0753028 -0.336785 1.10006)
(-0.193319 -0.28598 1.10742)
(-0.278583 -0.733898 1.17265)
(0.315095 -0.137554 1.45896)
(0.278214 -0.170184 1.37674)
(-0.0391588 -0.803238 0.0819638)
(0.237923 -0.434676 0.130313)
(-0.0595612 -0.43527 0.393494)
(-0.00429615 -0.646948 0.359754)
(-0.0270884 -0.529029 0.341077)
(0.262373 -0.513632 0.338751)
(0.388468 -0.410572 0.506411)
(0.18169 -0.322834 0.670431)
(-0.00541925 -0.506582 0.841546)
(0.611931 -0.1701 0.911757)
(0.413548 -0.285397 1.04327)
(0.0896201 -0.26165 1.0355)
(-0.26531 -0.527697 1.19764)
(0.37645 -0.187497 1.42524)
(0.426269 -0.262742 1.38848)
(-0.00359418 -0.41939 1.43396)
(1.37089 -0.723988 0.266716)
(2.25229 -0.0260737 -0.583874)
(1.36897 -0.500026 -0.795746)
(0.722251 -0.351276 -0.582039)
(0.139138 -0.419073 -0.262028)
(0.697463 0.0277843 0.0439039)
(0.500157 0.0314978 0.0152434)
(0.305133 -0.189089 0.418434)
(0.331111 -0.219569 0.70645)
(0.456768 0.0973606 0.662006)
(0.297036 -0.189591 0.937435)
(0.211741 -0.210689 0.997588)
(-0.00944434 -0.291836 1.24312)
(0.383446 0.00902447 1.21961)
(0.314979 -0.171454 1.24465)
(0.0850088 -0.137144 1.40338)
(0.0734005 -0.0962384 1.5455)
(1.1067 0.437073 -0.623801)
(1.22266 0.607623 -0.438695)
(-1.04711 1.27435 0.415616)
(1.34305 0.478572 -0.37179)
(0.892691 0.591842 -0.426212)