/*--------------------------------*- C++ -*----------------------------------*\
  =========                 |
  \\      /  F ield         | OpenFOAM: The Open Source CFD Toolbox
   \\    /   O peration     | Website:  https://openfoam.org
    \\  /    A nd           | Version:  7
     \\/     M anipulation  |
\*---------------------------------------------------------------------------*/
FoamFile
{
    version     2.0;
    format      ascii;
    class       volVectorField;
    location    "6";
    object      U_0;
}
// * * * * * * * * * * * * * * * * * * * * * * * * * * * * * * * * * * * * * //

dimensions      [0 1 -1 0 0 0 0];

internalField   nonuniform List<vector> 
18630
(
(0.124883 0.0616076 -1.40683)
(-0.50311 -0.023941 -1.3727)
(0.13408 0.0384874 -1.36668)
(-0.317268 0.654224 -0.752265)
(-1.14801 0.648365 -1.14164)
(-0.465395 0.106885 -1.38905)
(-0.706433 0.323757 -1.41621)
(0.150801 0.0367306 -1.33028)
(-0.29863 0.591165 -0.840028)
(-0.417672 0.0804027 -0.718848)
(-1.86963 1.03177 -0.113762)
(-1.07074 0.48925 -1.29135)
(-0.931701 0.463463 -1.50478)
(-0.455306 0.265235 -1.39074)
(-0.705432 0.306618 -1.4623)
(-0.823612 -0.0728654 -1.33971)
(0.171518 0.0357424 -1.30478)
(-0.268186 0.512228 -0.925679)
(-0.43117 0.111573 -0.695299)
(-0.62636 -0.0474497 -0.873915)
(-2.27818 0.321287 1.80253)
(-1.99334 0.900718 -0.294963)
(-1.55786 0.202916 0.269598)
(-0.978869 0.327609 -1.50603)
(-0.84603 0.0585828 -1.65799)
(-0.996516 0.195708 -1.54067)
(-0.454343 0.390142 -1.40057)
(-0.719562 0.30582 -1.43684)
(-0.801053 -0.136165 -1.39629)
(-0.741222 -0.21043 -1.4687)
(0.191186 0.040186 -1.29114)
(-0.225023 0.423208 -0.9981)
(-0.4505 0.158054 -0.662954)
(-0.627125 -0.046348 -0.897294)
(-0.652146 -0.0929765 -0.966852)
(-3.03084 0.637876 2.83256)
(-2.34585 0.278544 1.34215)
(-1.84544 -0.293555 1.74786)
(-2.07321 0.744302 -0.45015)
(-1.52777 -0.00560664 -0.0652212)
(-1.79056 0.0263225 0.516156)
(-0.889263 0.161759 -1.71876)
(-0.831569 0.0271876 -1.67035)
(-0.916135 -0.00298845 -1.45142)
(-0.718583 -0.643552 -1.55601)
(-0.438048 0.442164 -1.39049)
(-0.734169 0.295539 -1.3789)
(-0.787585 -0.199756 -1.44482)
(-0.757656 -0.15185 -1.47099)
(-0.704944 -0.508775 -1.30897)
(0.20598 0.0542038 -1.2908)
(-0.172084 0.33398 -1.05121)
(-0.458309 0.168671 -0.655885)
(-0.626451 -0.046166 -0.914478)
(-0.665364 -0.104553 -0.996406)
(-0.632711 -0.296162 -1.25146)
(-3.18585 0.557176 3.02813)
(-2.97144 1.12705 2.38742)
(-2.5783 0.444644 2.52554)
(-2.11764 0.183126 1.382)
(-1.72186 -0.465357 1.79353)
(-1.82239 0.241011 1.35364)
(-2.0453 0.560861 -0.378576)
(-1.52065 -0.0449547 -0.281924)
(-1.79767 0.0818919 0.00526994)
(-1.81657 0.572231 -0.10381)
(-0.80554 0.199878 -1.97629)
(-0.725621 -0.0987834 -1.65634)
(-0.866637 -0.0427119 -1.13108)
(-0.611679 -0.679607 -1.65922)
(-0.674386 -0.910774 -1.29155)
(-0.46618 0.45115 -1.36821)
(-0.754366 0.274054 -1.36684)
(-0.797027 -0.182397 -1.47961)
(-0.80272 -0.140594 -1.48363)
(-0.701879 -0.678815 -1.33542)
(-0.884154 -0.739486 -1.35892)
(0.217059 0.0822615 -1.30168)
(-0.116779 0.25516 -1.08535)
(-0.45373 0.146795 -0.677315)
(-0.633663 -0.054565 -0.912721)
(-0.680316 -0.122445 -1.02452)
(-0.641427 -0.323102 -1.26307)
(-0.701021 -0.361947 -1.28108)
(-3.42014 0.404395 2.74997)
(-3.38537 0.393001 2.73138)
(-3.10199 0.423688 2.70544)
(-2.77898 0.390276 2.57739)
(-2.35849 0.308453 2.52756)
(-2.09056 0.339628 2.37767)
(-2.10499 0.0562739 1.44766)
(-1.69909 -0.491155 1.78369)
(-1.92594 0.158812 0.98535)
(-2.16174 0.321601 0.311656)
(-2.06751 0.469389 -0.364253)
(-1.58311 -0.0514713 -0.532267)
(-1.77943 0.125438 -0.549554)
(-1.73753 0.482247 -0.361413)
(-1.46346 0.163509 -0.565529)
(-0.285266 -0.603632 -2.04716)
(-0.66945 -0.109209 -1.44252)
(-0.695841 -0.22686 -0.971105)
(-0.530782 -0.711458 -1.75822)
(-0.550178 -1.07919 -1.49916)
(-0.622916 -0.96724 -1.58524)
(-0.520167 0.451129 -1.32587)
(-0.750565 0.246413 -1.40534)
(-0.826515 -0.177176 -1.50666)
(-0.903449 0.0604444 -1.4844)
(-0.703204 -0.830836 -1.39188)
(-0.909946 -0.84859 -1.40416)
(-0.796679 -1.24281 -1.0921)
(0.224794 0.11044 -1.31468)
(-0.064177 0.192894 -1.10685)
(-0.428884 0.103817 -0.721792)
(-0.634441 -0.0493937 -0.915376)
(-0.698158 -0.144513 -1.05027)
(-0.656091 -0.335881 -1.27682)
(-0.690837 -0.408298 -1.29231)
(-0.487179 -0.754731 -0.955139)
(-3.26951 0.512425 2.48666)
(-3.45694 0.745911 2.46463)
(-3.67021 0.635938 2.2858)
(-3.59096 0.630389 2.02903)
(-3.08857 -0.0354421 2.56557)
(-2.67137 -0.0969286 2.77677)
(-2.44857 -0.244758 2.75322)
(-2.15707 -0.178627 2.56183)
(-2.1288 0.168845 2.17922)
(-2.15912 0.414844 1.91331)
(-2.18215 -0.166307 1.47945)
(-1.80289 -0.427686 1.55411)
(-2.04014 0.146895 0.845715)
(-2.18211 0.297826 0.163482)
(-2.31674 0.0253105 0.337533)
(-2.07325 0.301184 -0.202121)
(-1.65702 -0.0551355 -0.782565)
(-1.68258 0.0461185 -1.35112)
(-1.68648 0.445734 -0.434308)
(-1.36009 -0.0701726 -0.893281)
(-1.31584 -0.701337 -1.19404)
(-0.0553167 -0.779549 -2.02134)
(-0.579707 -0.104821 -1.08989)
(-0.69244 -0.180698 -1.00262)
(-0.490449 -0.77274 -1.75781)
(-0.51459 -1.01424 -1.81034)
(-0.538437 -1.15943 -1.71585)
(-0.890465 -1.60728 -0.823545)
(-0.585623 0.446748 -1.27991)
(-0.727107 0.171901 -1.45595)
(-0.85244 -0.169264 -1.53547)
(-0.823305 -0.282618 -1.51001)
(-0.724152 -0.919425 -1.4552)
(-0.874362 -1.01516 -1.45852)
(-0.823203 -1.32062 -1.12029)
(-1.13325 -1.1365 -1.15358)
(0.227886 0.14462 -1.32463)
(-0.02961 0.169997 -1.12323)
(-0.392466 0.0492848 -0.777233)
(-0.64347 -0.0461142 -0.916504)
(-0.710219 -0.167315 -1.07805)
(-0.67896 -0.324302 -1.29018)
(-0.705985 -0.449031 -1.29375)
(-0.469003 -0.802832 -0.945886)
(0.0458761 -0.133016 -0.759919)
(-3.10063 0.438717 2.70586)
(-3.32546 0.343102 2.58642)
(-3.28164 0.604038 2.5263)
(-3.31293 -0.0290025 2.56854)
(-3.2864 0.1926 2.63573)
(-3.11683 0.524743 2.73843)
(-3.28233 0.0288576 2.23184)
(-2.80257 -0.33446 2.7944)
(-2.58649 0.127066 2.69972)
(-2.58321 0.757397 2.59568)
(-2.28948 -0.556406 2.70548)
(-2.04189 -0.382445 2.44129)
(-2.14283 0.0219629 2.02113)
(-2.23365 0.211917 1.69088)
(-2.04901 0.11248 1.03669)
(-2.28196 -0.319969 1.2883)
(-1.94528 -0.443438 1.08197)
(-2.21085 0.0300547 0.782467)
(-2.23534 0.114858 0.169662)
(-2.28155 -0.0183349 0.35255)
(-2.03577 -0.353858 0.221054)
(-1.93413 0.16913 -0.297381)
(-1.74225 -0.0709163 -1.06222)
(-1.55645 -0.0928408 -1.63319)
(-1.50895 0.166537 -0.619644)
(-1.12883 -0.483766 -1.36974)
(-1.10226 -1.10269 -1.33881)
(-1.49218 -1.4206 -0.185395)
(0.0706882 -0.641269 -1.84169)
(-0.366035 -0.260451 -0.78516)
(-0.619786 -0.306067 -1.1194)
(-0.533281 -0.73672 -1.81789)
(-0.50366 -0.883929 -2.0811)
(-0.519281 -1.19621 -1.89232)
(-0.83023 -1.59643 -1.1243)
(-1.94972 -1.13295 -0.985931)
(-0.615108 0.412028 -1.25325)
(-0.728382 0.131097 -1.45745)
(-0.855344 -0.222567 -1.55097)
(-0.804616 -0.380838 -1.5119)
(-0.688498 -1.01038 -1.52062)
(-0.97736 -0.966753 -1.56355)
(-0.884147 -1.31124 -1.19076)
(-1.14033 -1.16904 -1.13944)
(-1.0368 -0.307347 -1.30251)
(0.224381 0.180264 -1.33085)
(-0.023515 0.183998 -1.13884)
(-0.34548 -0.0104033 -0.83721)
(-0.655104 -0.0492659 -0.917389)
(-0.729853 -0.182968 -1.10219)
(-0.673998 -0.358152 -1.31)
(-0.728203 -0.429232 -1.30681)
(-0.475089 -0.800291 -0.966068)
(0.0472721 -0.131412 -0.734083)
(-0.211486 0.577629 -0.957386)
(-3.09272 -0.0493831 2.81211)
(-3.28761 0.379618 2.64272)
(-3.2152 0.00747469 2.64747)
(-3.34885 -0.118851 2.64948)
(-3.30358 0.137161 2.67151)
(-3.21032 0.348334 2.7717)
(-3.27355 -0.257338 2.579)
(-3.15998 -0.139299 2.7887)
(-3.02923 0.31039 2.63861)
(-2.82031 0.79013 2.90253)
(-3.06994 -0.43857 2.46164)
(-2.727 -0.36974 2.77016)
(-2.60131 0.310568 2.59993)
(-2.47659 0.55563 2.65201)
(-2.57753 1.04133 2.34613)
(-2.26764 -0.810343 2.46937)
(-2.10486 -0.518082 2.09554)
(-2.18366 0.0245748 1.65106)
(-2.33252 0.347272 1.28865)
(-2.0422 0.00109377 0.405488)
(-1.77009 -0.820736 0.566507)
(-2.3543 -0.396855 1.08243)
(-2.00336 -0.442999 0.994363)
(-2.23802 -0.0168038 0.694199)
(-2.20756 0.0083282 0.300888)
(-2.21207 -0.0387368 0.348375)
(-1.99753 -0.38954 0.296603)
(-1.89464 -1.02677 0.322549)
(-1.79527 0.0639411 -0.546819)
(-1.73056 -0.170683 -1.51152)
(-1.43383 -0.147316 -1.47527)
(-1.19511 -0.215667 -0.975416)
(-1.03676 -0.638025 -1.74283)
(-0.861564 -1.35182 -1.47475)
(-1.32304 -1.65169 -0.239139)
(-2.72119 -0.132701 0.237644)
(0.0625012 -0.439127 -1.4892)
(-0.21954 -0.339962 -0.801519)
(-0.518209 -0.451507 -1.21689)
(-0.48034 -0.98497 -1.71885)
(-0.461664 -0.949001 -2.24574)
(-0.545045 -1.01563 -2.09466)
(-0.850853 -1.40254 -1.50233)
(-1.87337 -1.25576 -0.975058)
(-2.00259 -0.938779 -1.22196)
(-0.588087 0.318128 -1.23103)
(-0.734049 0.0739252 -1.42204)
(-0.843041 -0.257602 -1.55823)
(-0.853671 -0.283969 -1.54516)
(-0.713207 -1.08101 -1.56576)
(-0.859458 -1.19267 -1.59872)
(-0.821304 -1.34954 -1.29468)
(-1.11536 -1.20098 -1.14184)
(-1.01873 -0.450185 -1.21123)
(-1.12432 0.405578 -1.32513)
(0.215958 0.214263 -1.33522)
(-0.0199689 0.200845 -1.1508)
(-0.290812 -0.0685383 -0.897083)
(-0.661503 -0.0512216 -0.926013)
(-0.75059 -0.196716 -1.12643)
(-0.705009 -0.349819 -1.32082)
(-0.69493 -0.493493 -1.32559)
(-0.476405 -0.79025 -0.986075)
(0.0470993 -0.120727 -0.709218)
(-0.222523 0.586318 -0.935725)
(-0.348806 0.716857 -1.60718)
(-3.02775 0.0696552 2.76697)
(-3.02964 -0.160493 2.95542)
(-3.12611 0.3166 2.64404)
(-3.31055 -0.184434 2.8176)
(-3.11869 0.223034 2.92462)
(-3.12826 0.303095 2.73596)
(-3.35579 0.200124 2.55269)
(-3.16114 0.0271037 2.79457)
(-3.11457 0.405922 2.82192)
(-3.13717 -0.136061 2.9086)
(-2.95111 -0.369032 2.80465)
(-2.93339 -0.376239 2.97139)
(-2.78925 0.217434 2.8629)
(-2.95814 0.753521 2.92458)
(-2.8383 0.423238 3.08887)
(-2.84899 -0.551185 2.64998)
(-2.55257 -0.609432 2.80449)
(-2.63071 0.436806 2.19601)
(-2.4664 0.612489 2.45697)
(-2.65419 0.968752 2.11391)
(-2.73452 0.560321 2.10606)
(-2.25145 -0.896837 2.21471)
(-2.16585 -0.636042 1.95049)
(-2.29911 0.02169 1.12379)
(-2.44211 0.220419 0.978077)
(-2.0669 0.0591919 0.359699)
(-1.81824 -0.480543 -0.426876)
(-1.63768 -0.99692 0.0343283)
(-2.30257 -0.630926 1.03859)
(-2.12957 -0.588268 0.907468)
(-2.1663 -0.0952546 0.493565)
(-2.11158 -0.187213 0.36339)
(-2.13563 -0.106246 0.118355)
(-1.83578 -0.423862 -0.227401)
(-1.90242 -0.783323 0.27591)
(-2.34409 -0.238815 -0.260938)
(-1.80231 0.192798 -0.480467)
(-1.61378 -0.234453 -1.67914)
(-1.42813 -0.124409 -0.934636)
(-1.10794 -0.208817 -1.19235)
(-0.848477 -0.810629 -1.94158)
(-0.642087 -1.47495 -1.593)
(-1.02027 -1.69793 -0.870742)
(-2.32894 -0.964971 -0.492871)
(-2.44825 -0.855444 -0.379579)
(0.071623 -0.264976 -1.08423)
(-0.0342035 -0.443229 -0.994939)
(-0.467617 -0.576623 -1.12919)
(-0.442069 -1.07853 -1.72377)
(-0.565227 -0.825539 -2.42272)
(-0.525175 -1.1331 -2.11577)
(-0.77401 -1.79481 -1.43431)
(-1.78754 -1.41591 -0.986205)
(-2.00608 -1.05866 -1.1267)
(-1.95662 0.242127 -1.34416)
(-0.514054 0.216643 -1.19691)
(-0.749909 0.0211557 -1.35747)
(-0.843475 -0.303667 -1.54608)
(-0.792231 -0.631738 -1.47992)
(-0.779465 -1.04874 -1.64304)
(-0.947776 -1.17115 -1.69554)
(-0.893363 -1.35867 -1.38482)
(-1.09722 -1.29659 -1.09245)
(-1.01192 -0.54419 -1.13016)
(-1.11261 0.265747 -1.42164)
(-1.10541 0.644242 -1.57427)
(0.205244 0.242162 -1.3399)
(-0.0198682 0.222359 -1.15929)
(-0.230982 -0.119779 -0.953422)
(-0.666976 -0.0627972 -0.938002)
(-0.764639 -0.217349 -1.15183)
(-0.721977 -0.357629 -1.33766)
(-0.754799 -0.466327 -1.31991)
(-0.489494 -0.75569 -1.0135)
(0.041024 -0.102229 -0.686928)
(-0.233432 0.586199 -0.906937)
(-0.366704 0.770931 -1.59862)
(-0.43205 0.774302 -1.55648)
(-2.16927 -0.148094 2.4801)
(-2.80447 0.284108 2.44102)
(-2.81508 -0.189994 3.16237)
(-2.99025 0.0874725 2.68837)
(-3.15565 -0.203666 3.00995)
(-2.97945 -0.138196 2.91623)
(-3.12529 0.347655 2.65856)
(-3.2149 -0.269449 2.87505)
(-3.20947 -0.294037 2.84539)
(-2.9994 0.393773 3.04313)
(-3.06893 0.582479 2.78074)
(-3.11268 -0.497051 2.75119)
(-2.98045 -0.147519 2.93889)
(-2.97879 0.170972 2.92075)
(-2.96128 0.926668 3.00197)
(-3.07227 -0.205825 2.71038)
(-2.99343 -0.419325 2.36626)
(-2.81311 -0.410696 2.88179)
(-2.93453 0.236585 2.68687)
(-2.91865 0.780325 2.81624)
(-3.32251 -0.222437 2.6323)
(-3.12831 -0.243721 2.80656)
(-2.66922 -0.812735 2.58668)
(-2.60779 -0.458828 2.49323)
(-2.60972 0.375474 2.00514)
(-2.43974 0.222448 1.96343)
(-2.76283 0.532737 1.76)
(-2.69224 -0.056274 1.61746)
(-2.39334 -0.560908 1.98977)
(-2.31513 -0.843413 1.91868)
(-2.21344 -0.697526 1.89872)
(-2.35862 0.0532581 0.942716)
(-2.41935 0.0543677 0.663967)
(-2.12351 -0.0263885 0.0772596)
(-1.81743 -0.722299 -0.178668)
(-1.64981 -0.968908 -0.188427)
(-2.23619 -0.477934 -0.255233)
(-2.26896 -0.644193 1.09591)
(-2.12353 -0.770798 0.854799)
(-2.03396 -0.360671 0.0934983)
(-1.96359 -0.429689 0.122308)
(-2.08437 -0.200576 0.0031979)
(-1.78626 -0.511105 -0.464841)
(-1.86107 -0.442057 -0.404965)
(-2.48008 0.147845 -0.0994995)
(-2.13392 -0.522965 0.0357864)
(-1.6315 0.155342 -0.797891)
(-1.49173 -0.227465 -1.20752)
(-0.962286 -0.607579 -0.1722)
(-0.981714 -0.329167 -1.55114)
(-0.717028 -0.878959 -2.08245)
(-0.593414 -1.40294 -1.64433)
(-0.845373 -1.59733 -1.38668)
(-2.0307 -1.22288 -0.788451)
(-2.37788 -1.28077 -0.156607)
(-2.50196 -0.667588 -0.742576)
(0.156664 -0.215198 -0.89955)
(0.122581 -0.508161 -1.10981)
(-0.439253 -0.755884 -0.918788)
(-0.358618 -1.22616 -1.73562)
(-0.388612 -0.965646 -2.611)
(-0.496338 -1.15328 -2.24018)
(-0.736245 -1.62547 -1.6801)
(-1.65096 -1.60341 -1.06393)
(-2.03953 -1.27562 -0.928094)
(-2.07725 0.297375 -1.35385)
(-1.66358 0.394148 -1.64489)
(-0.40535 0.101991 -1.15832)
(-0.757287 -0.0449651 -1.29264)
(-0.882324 -0.327564 -1.49084)
(-0.791209 -0.661194 -1.47154)
(-0.669744 -1.22892 -1.65492)
(-0.986409 -1.19509 -1.78096)
(-0.840923 -1.58543 -1.30985)
(-1.06356 -1.36283 -1.10644)
(-0.998317 -0.703704 -1.00876)
(-1.09553 0.240004 -1.43825)
(-1.09686 0.634216 -1.57532)
(-1.17305 1.0643 -1.18515)
(0.198112 0.262307 -1.3453)
(-0.0290549 0.244977 -1.1677)
(-0.171571 -0.160473 -1.00435)
(-0.671929 -0.0770425 -0.955424)
(-0.784048 -0.230123 -1.1753)
(-0.739687 -0.365044 -1.35127)
(-0.699909 -0.53443 -1.34207)
(-0.524002 -0.70011 -1.04348)
(0.0305096 -0.0722994 -0.666659)
(-0.241991 0.578546 -0.875012)
(-0.377451 0.786724 -1.57506)
(-0.43385 0.842572 -1.52644)
(-0.754709 0.704995 -1.07453)
(-2.25575 -0.284524 2.36532)
(-2.37259 -0.387681 2.42968)
(-2.26038 -0.0875505 2.47141)
(-2.63619 -0.918428 2.5706)
(-2.74027 0.549409 2.58939)
(-3.19401 -0.576859 2.76222)
(-2.8176 -0.0125621 3.05009)
(-2.74695 0.0840287 2.88505)
(-3.24382 -0.43589 3.049)
(-3.21769 -0.388771 3.0192)
(-3.01663 0.447303 2.84934)
(-2.96037 -0.0791786 2.65633)
(-3.19606 -0.658495 2.80595)
(-3.13424 -0.269912 2.8933)
(-3.17734 0.0703607 2.94431)
(-3.03839 0.353044 2.92097)
(-2.88583 0.00178958 2.64641)
(-3.12951 -0.499564 2.55857)
(-2.98755 0.185546 2.7953)
(-3.07918 0.440196 2.91976)
(-3.21364 0.189885 2.89804)
(-3.18229 0.217189 2.74404)
(-3.07014 -0.718819 2.63336)
(-2.50783 -0.636073 2.62533)
(-2.76483 -0.0125577 2.5879)
(-3.15891 0.2844 2.35249)
(-2.93379 0.625811 2.53765)
(-3.20796 0.0136022 2.70965)
(-3.39408 -0.853887 2.5108)
(-3.09067 -1.25882 2.41242)
(-2.64198 -1.01699 2.07015)
(-2.77403 -0.375394 1.96187)
(-2.79916 0.413843 1.27041)
(-2.53555 0.431774 1.25458)
(-2.71549 -0.170973 1.21912)
(-2.66877 -0.659376 1.25258)
(-2.35862 -0.715107 1.6245)
(-2.43059 -0.316959 1.12119)
(-2.39385 -0.819659 1.45762)
(-2.31252 -0.511026 1.61073)
(-2.34209 -0.104242 1.01395)
(-2.41584 0.146888 0.262078)
(-2.11764 -0.120358 -0.0999515)
(-1.79709 -0.954839 0.134482)
(-1.75235 -0.929133 -0.540033)
(-2.26093 -0.328619 -0.612431)
(-2.58074 0.13633 0.205675)
(-2.2167 -0.952438 0.945419)
(-2.06793 -0.854055 0.72407)
(-1.95793 -0.59552 0.109072)
(-1.83296 -0.456117 -0.329328)
(-1.88797 -0.319404 -0.505846)
(-1.74107 -0.650912 -0.425083)
(-1.70542 -0.442152 -0.866814)
(-2.38547 -0.0591766 0.0564788)
(-1.97969 -0.937655 -0.199159)
(-2.58531 -0.135545 -0.471783)
(-1.23134 0.0138177 -1.12145)
(-1.11062 -0.448868 -0.633504)
(-0.551198 -0.953902 -0.169646)
(-0.927589 -0.368503 -1.88391)
(-0.571326 -0.973382 -2.32073)
(-0.498478 -1.34168 -1.7749)
(-0.694169 -1.28169 -1.86219)
(-1.69579 -1.47741 -0.889135)
(-2.31573 -1.45467 -0.236813)
(-2.65551 -0.528661 -0.563437)
(-2.29581 0.241575 -1.00821)
(0.255439 -0.228837 -0.901659)
(0.166434 -0.642468 -1.126)
(-0.510824 -0.83422 -0.839798)
(-0.659397 -1.02953 -1.77618)
(-0.678318 -0.788944 -2.79104)
(-0.606296 -0.940633 -2.43456)
(-0.785543 -1.40061 -1.86731)
(-1.52163 -1.75257 -1.1786)
(-2.00125 -1.52244 -0.761053)
(-2.14258 0.159509 -1.38768)
(-1.71033 0.422631 -1.46505)
(-1.49323 0.892059 -1.58484)
(-0.328259 0.00671157 -1.11835)
(-0.686513 -0.173937 -1.2517)
(-0.847907 -0.394197 -1.43437)
(-0.769505 -0.739398 -1.4543)
(-0.74806 -1.21475 -1.69963)
(-0.971606 -1.2826 -1.79294)
(-0.859596 -1.4208 -1.50616)
(-1.08124 -1.32472 -1.1559)
(-1.07878 -0.621613 -0.939609)
(-1.1036 0.213723 -1.42272)
(-1.08106 0.592008 -1.62305)
(-1.14346 1.03347 -1.2439)
(-1.56583 1.20125 -0.9517)
(0.195432 0.279496 -1.35024)
(-0.0405857 0.261575 -1.17882)
(-0.121175 -0.184974 -1.051)
(-0.680814 -0.0849625 -0.977642)
(-0.811869 -0.241862 -1.19552)
(-0.761644 -0.356739 -1.36239)
(-0.713552 -0.551965 -1.35071)
(-0.547282 -0.665024 -1.06121)
(0.0116464 -0.031319 -0.647983)
(-0.246019 0.567283 -0.845039)
(-0.366791 0.751687 -1.53302)
(-0.413312 0.825743 -1.46236)
(-0.738763 0.7369 -1.07214)
(-0.948778 1.02126 -0.681729)
(-1.94739 -0.182162 2.12192)
(-2.349 -0.209168 2.07921)
(-2.23171 -0.410218 2.45507)
(-2.18816 -0.0217272 2.34338)
(-2.44623 -0.711361 2.39024)
(-2.47711 -0.170833 2.45353)
(-2.23815 0.388548 2.35123)
(-2.84075 -0.662768 2.52345)
(-2.8008 -0.288672 2.7506)
(-2.5159 0.755125 2.80917)
(-3.04191 -0.718966 2.85741)
(-2.87907 -0.992568 3.04126)
(-3.10197 0.472069 2.43224)
(-2.96451 0.662895 2.21408)
(-3.22992 -0.637002 2.96666)
(-3.25175 -0.474101 3.05814)
(-3.18957 -0.0850166 3.00136)
(-3.05865 0.773816 2.55338)
(-2.85589 -0.320414 2.61574)
(-3.18851 -0.655931 2.78681)
(-3.12282 -0.369264 2.76916)
(-3.11441 -0.202211 2.96091)
(-3.07695 -0.391232 2.8027)
(-3.05629 0.172962 2.69172)
(-3.05021 -1.21969 2.71898)
(-2.89931 -0.843108 2.67456)
(-2.97492 -0.098203 2.5704)
(-3.13085 0.323127 2.81666)
(-3.26471 -0.79555 2.72903)
(-3.27872 -0.26234 2.65091)
(-3.39139 -0.446345 2.60475)
(-2.86097 -1.73563 2.63499)
(-2.60668 -0.731679 2.34439)
(-2.96826 -0.0427239 1.95498)
(-3.37213 0.488329 1.82378)
(-2.9832 0.111021 2.09978)
(-3.42843 0.0331384 2.28802)
(-3.34864 -1.1962 2.36861)
(-3.49756 -0.451169 2.25409)
(-2.84295 -0.879526 2.89315)
(-2.72831 -0.987622 1.27345)
(-2.81269 -0.353785 1.61552)
(-2.74351 0.369526 1.1331)
(-2.52574 -0.0219602 1.04921)
(-2.55791 -0.59641 0.725014)
(-2.63093 -0.997524 1.10862)
(-2.3069 -1.03782 1.1915)
(-2.44902 -0.201345 0.884323)
(-2.3356 -0.207925 1.58325)
(-2.47501 -0.646062 0.879911)
(-2.45971 -0.272901 1.08664)
(-2.33763 -0.158083 0.682594)
(-2.38799 -0.103921 -0.0305335)
(-2.02917 -0.358977 -0.267112)
(-1.78727 -1.19649 0.26719)
(-1.90185 -0.93644 -0.544066)
(-2.27305 -0.300416 -0.819957)
(-2.43592 -0.29008 0.514336)
(-2.12101 0.00868794 -0.306001)
(-2.36849 -0.72121 0.281991)
(-2.06886 -0.93083 0.478253)
(-1.94779 -0.47691 0.0521321)
(-1.83942 -0.441316 -0.379342)
(-1.81467 -0.327578 -0.76298)
(-1.68099 -0.724909 -0.212654)
(-1.37083 -0.898626 -0.911828)
(-1.75978 -1.03017 -0.443205)
(-1.84753 -1.09787 -0.602707)
(-2.699 -0.327123 -0.568664)
(-2.77188 0.395002 -1.47582)
(-0.920309 0.0084056 -0.871653)
(-0.352755 -0.850593 -0.55759)
(-0.483329 -0.993441 -0.342129)
(-1.10395 -0.313722 -2.00248)
(-0.471574 -0.935869 -2.6412)
(-0.56748 -1.06506 -2.0943)
(-0.812127 -1.07178 -2.04087)
(-1.65942 -1.36061 -1.10375)
(-2.29794 -1.46074 -0.327287)
(-2.62252 -0.751588 -0.775691)
(-2.29493 0.302668 -1.05026)
(-1.94195 1.01973 -0.966534)
(0.435483 -0.360645 -0.804014)
(0.176677 -0.678666 -1.28236)
(-0.319431 -1.01789 -0.886071)
(-0.637718 -1.03383 -1.78179)
(-0.866627 -0.598176 -2.82766)
(-0.733863 -0.667511 -2.57992)
(-0.905714 -1.02831 -2.07224)
(-1.48409 -1.7379 -1.2006)
(-1.97226 -1.61894 -0.780774)
(-2.08695 0.0171965 -1.4949)
(-1.67198 0.422407 -1.31845)
(-1.46301 0.848598 -1.42154)
(-1.82309 0.871355 -0.849626)
(-0.385771 -0.0349048 -1.11246)
(-0.497579 -0.420566 -1.23616)
(-0.784347 -0.508668 -1.37595)
(-0.748802 -0.817427 -1.43981)
(-0.769668 -1.17964 -1.70462)
(-0.906458 -1.29174 -1.85211)
(-0.951437 -1.25371 -1.6222)
(-1.0816 -1.31428 -1.16439)
(-1.06247 -0.715163 -0.833728)
(-1.11954 0.188642 -1.38303)
(-1.07076 0.620868 -1.62065)
(-1.10821 0.988366 -1.36746)
(-1.50751 1.18863 -1.12174)
(-1.51423 1.31804 -0.701203)
(0.188657 0.296466 -1.35434)
(-0.043715 0.280966 -1.19032)
(-0.105514 -0.185498 -1.09067)
(-0.701334 -0.0838271 -1.00061)
(-0.822663 -0.257535 -1.21772)
(-0.771323 -0.368277 -1.37646)
(-0.781047 -0.503753 -1.34286)
(-0.557499 -0.652447 -1.08877)
(-0.0188081 0.0223103 -0.628654)
(-0.244428 0.552633 -0.818526)
(-0.33768 0.693626 -1.48928)
(-0.362983 0.743788 -1.39409)
(-0.72533 0.773795 -1.07426)
(-0.946719 1.05274 -0.641997)
(-0.6175 1.09442 -0.775268)
(-2.0073 -0.113329 2.09712)
(-2.05183 -0.242203 2.09147)
(-1.91787 0.200414 2.09405)
(-2.3604 -0.389385 2.05175)
(-2.31374 -0.161955 2.03783)
(-2.26917 -0.607497 2.45913)
(-2.31699 0.102004 2.30246)
(-2.15476 0.074494 2.18313)
(-2.3099 -0.770809 2.41623)
(-2.51926 -0.507748 2.49026)
(-2.40783 0.136917 2.59961)
(-2.12677 0.481321 2.62153)
(-3.03273 -0.350588 2.50948)
(-2.76201 -0.532807 2.74094)
(-2.9231 -0.0527502 2.49713)
(-2.85239 0.326249 2.30856)
(-2.94665 -0.908625 2.93968)
(-3.5032 0.618821 2.6814)
(-3.16406 -0.0345032 2.58168)
(-2.85395 0.42157 2.40478)
(-2.97808 -0.348086 2.13271)
(-3.21394 -0.829189 2.95079)
(-3.19987 -0.343756 2.95502)
(-3.14183 -0.260302 2.99932)
(-3.06214 -0.308595 2.71361)
(-2.85375 -0.426189 2.60487)
(-2.97131 -0.840785 2.72134)
(-3.15521 -0.759544 2.81037)
(-3.08346 -0.627369 2.75515)
(-3.19691 -0.151592 2.92278)
(-3.24253 0.860954 2.78908)
(-3.17296 -0.658814 2.67871)
(-3.08854 -1.13418 2.89352)
(-2.81099 -1.26504 2.66012)
(-2.81882 -0.926677 2.73531)
(-3.11495 0.0470012 2.0131)
(-3.36386 0.132838 2.47898)
(-3.24423 -0.301859 2.69916)
(-3.23829 -0.790628 2.5461)
(-3.36234 -1.06267 2.54219)
(-2.91921 -1.33917 2.66116)
(-3.07872 -0.0888203 3.15869)
(-2.75184 -0.903862 1.96022)
(-3.14044 0.0222101 1.28967)
(-3.5464 -0.000728127 1.33157)
(-3.03428 -0.430667 1.60742)
(-3.55493 -0.27457 1.75021)
(-3.16475 -1.76605 2.1371)
(-2.97707 -1.72265 2.38202)
(-2.76741 -0.547791 2.78225)
(-2.51332 0.52481 2.36466)
(-2.75715 -0.984897 0.952497)
(-2.61806 -0.456165 1.33058)
(-2.59522 0.163739 1.00529)
(-2.49949 -0.274878 0.772099)
(-2.39424 -0.970789 0.495703)
(-2.56 -1.31986 0.960741)
(-2.30162 -1.13979 1.05548)
(-2.42432 -0.469348 0.745015)
(-2.28229 -0.339319 1.39945)
(-2.1079 0.111546 0.424691)
(-2.42264 -0.568765 0.360658)
(-2.35688 -0.398852 0.676805)
(-2.25581 -0.383935 0.475561)
(-2.37477 -0.221726 -0.140675)
(-2.01607 -0.442485 -0.466691)
(-1.80412 -1.31687 0.195769)
(-2.05464 -1.17677 -0.287861)
(-2.20839 -0.315796 -0.768156)
(-2.24807 -0.586687 0.0553417)
(-2.27059 0.0263042 -0.888366)
(-2.88448 1.25418 -1.20231)
(-2.23346 -0.711009 0.0693299)
(-1.94771 -0.922652 0.66577)
(-1.85431 -0.475606 -0.0143896)
(-1.82802 -0.386899 -0.639785)
(-1.6434 -0.315192 -0.948229)
(-1.48806 -0.872976 -0.470304)
(-1.19922 -1.17709 -0.924472)
(-1.6411 -1.13563 -0.668533)
(-1.8554 -0.970244 -1.09496)
(-2.75028 -0.147827 -0.818632)
(-2.65838 0.560705 -1.35996)
(-2.26549 1.27529 -1.20749)
(-0.352302 -0.178995 -0.478191)
(-0.0656564 -0.937658 -0.815191)
(-0.468646 -1.02465 -0.722701)
(-1.18589 -0.353639 -2.13545)
(-0.652629 -0.617373 -2.87566)
(-0.58904 -1.04356 -2.30918)
(-0.834546 -0.920884 -2.23828)
(-1.52048 -1.09302 -1.53286)
(-2.32256 -1.26369 -0.5801)
(-2.74194 -0.540634 -0.960489)
(-2.28403 0.398549 -1.05551)
(-1.87117 1.01248 -1.01494)
(-1.95148 0.994769 -1.16352)
(0.454652 -0.412645 -0.906565)
(0.251438 -0.85623 -1.42313)
(-0.476764 -1.13055 -1.03622)
(-0.650051 -1.1682 -1.7017)
(-0.896218 -0.529457 -2.81766)
(-0.798084 -0.551016 -2.58536)
(-0.972521 -0.811007 -2.11892)
(-1.38238 -1.55187 -1.40452)
(-1.96735 -1.64247 -0.4975)
(-2.11825 -0.0322861 -1.427)
(-1.54507 0.217545 -1.35633)
(-1.40657 0.881442 -1.20601)
(-1.84076 1.06851 -0.735145)
(-1.32641 1.56755 -0.786324)
(-0.294688 -0.109325 -1.09681)
(-0.763454 -0.218293 -1.21087)
(-0.600565 -0.700885 -1.30497)
(-0.772266 -0.869962 -1.43395)
(-0.802701 -1.14916 -1.70517)
(-0.899878 -1.2953 -1.88692)
(-0.909238 -1.24907 -1.69594)
(-1.04694 -1.32244 -1.19196)
(-1.08531 -0.722978 -0.72877)
(-1.11777 0.16231 -1.35433)
(-1.08486 0.56456 -1.5702)
(-1.07744 0.953084 -1.38187)
(-1.48063 1.24581 -1.15397)
(-1.44957 1.27972 -0.698161)
(-0.882316 1.39703 -0.34739)
(0.180415 0.313376 -1.35843)
(-0.0562339 0.291751 -1.19989)
(-0.119995 -0.174054 -1.11835)
(-0.73076 -0.0767614 -1.02529)
(-0.836295 -0.270713 -1.22915)
(-0.800177 -0.370332 -1.38322)
(-0.717258 -0.529249 -1.38004)
(-0.556561 -0.647986 -1.09393)
(-0.0624766 0.0882658 -0.605986)
(-0.234711 0.533009 -0.79422)
(-0.301858 0.626893 -1.43945)
(-0.294857 0.633475 -1.33061)
(-0.714518 0.810267 -1.09651)
(-0.946298 1.07687 -0.631724)
(-0.598952 1.05272 -0.879909)
(-0.205584 -0.0931351 -0.969731)
(-1.80974 -0.0458964 2.09878)
(-2.04147 -0.269082 2.11641)
(-2.05839 0.0415306 1.94063)
(-2.04812 -0.455664 2.15152)
(-1.99391 -0.107748 2.03083)
(-1.87986 0.323713 1.88526)
(-2.42759 -0.718539 1.95209)
(-2.20108 -0.288264 2.06331)
(-2.27861 -0.062718 1.89513)
(-2.24049 -0.801846 2.50204)
(-2.37146 -0.330309 2.34453)
(-2.13281 -0.0306358 2.52977)
(-2.1723 -0.0234296 2.31117)
(-2.52598 -0.507417 2.54496)
(-2.39389 -0.692946 2.50703)
(-2.80482 -0.276229 2.39352)
(-2.72047 0.130002 2.40836)
(-2.2389 0.455647 2.674)
(-2.79902 -0.750059 2.74068)
(-2.93706 -0.315601 2.64807)
(-2.85879 -0.23783 2.56888)
(-2.60799 0.21998 2.6858)
(-2.72662 -0.00313548 2.31428)
(-3.06739 -0.281146 3.06712)
(-2.86815 -1.32265 3.14154)
(-3.41355 0.300772 2.66664)
(-2.70998 0.124867 2.97244)
(-2.27614 -0.171274 3.14098)
(-2.82182 -1.13055 2.1535)
(-3.19959 -0.843623 3.00393)
(-3.23533 -0.510621 2.95565)
(-3.0474 -0.320252 3.06636)
(-3.01401 -0.379214 2.69589)
(-3.03487 -0.357451 2.61674)
(-2.99681 -1.07747 2.5701)
(-2.81428 -1.42527 2.26722)
(-3.19827 -0.70587 2.79012)
(-3.42 0.053836 2.36503)
(-3.26844 -0.66088 2.82433)
(-3.11105 -0.916033 3.01157)
(-3.23592 -0.167606 2.79528)
(-3.21732 -1.60713 2.68544)
(-2.69689 -1.6445 2.67072)
(-2.53182 -0.724125 2.92227)
(-2.95932 -0.926796 2.60781)
(-3.21204 -0.0801158 1.83614)
(-3.54465 0.213185 2.11684)
(-2.92547 -1.27068 2.71052)
(-3.14876 -0.726044 2.78781)
(-3.30403 -1.32103 2.59357)
(-3.00953 -1.34723 2.60497)
(-3.01455 -0.317404 3.07167)
(-2.91006 0.897087 3.13983)
(-2.86749 -0.911821 1.86119)
(-3.31733 0.0666412 0.433645)
(-3.53292 -0.0230574 0.931491)
(-3.08195 -0.547305 1.46598)
(-3.1661 -1.00196 1.55402)
(-3.23421 -1.80138 2.01229)
(-3.17968 -1.79837 2.00158)
(-2.89909 -0.350129 2.27335)
(-2.53853 0.5659 2.04942)
(-2.10176 0.597832 1.65189)
(-2.64653 -1.1682 1.00828)
(-2.29424 -0.650154 0.656093)
(-2.3831 -0.0830593 0.740732)
(-2.46536 -0.504597 0.601425)
(-2.36343 -1.15307 0.396956)
(-2.35739 -1.59255 0.703841)
(-2.3438 -1.46863 0.876812)
(-2.28442 -0.894779 0.656758)
(-2.30453 -0.289918 0.513799)
(-2.41884 0.231549 -0.320756)
(-2.78163 0.955308 -0.424604)
(-2.18552 -0.897778 -0.189267)
(-2.19029 -0.526965 0.241254)
(-1.96117 -0.781255 0.12809)
(-2.35635 -0.32192 -0.41192)
(-1.96687 -0.609791 -0.536341)
(-1.88204 -1.39083 0.228633)
(-2.20339 -1.03772 -0.720258)
(-2.02487 -0.68487 -0.546278)
(-2.10295 -0.705757 -0.506236)
(-2.54202 0.170398 -1.2165)
(-2.80505 0.992025 -1.97646)
(-2.81452 1.17745 -1.97064)
(-2.00662 -0.727103 0.663334)
(-1.66261 -0.899456 0.953455)
(-1.5161 -0.858024 0.00238036)
(-1.7731 -0.412682 -0.764297)
(-1.20421 -0.768546 -0.771366)
(-1.41882 -0.95616 -0.679383)
(-1.07892 -1.37205 -0.962917)
(-1.58501 -1.08878 -1.16589)
(-2.01499 -0.603429 -1.47673)
(-2.81359 -0.0118639 -0.910604)
(-2.64079 0.807298 -1.16738)
(-2.25792 1.39685 -1.1075)
(-1.78587 1.19914 -1.56358)
(-0.041592 -0.269876 -0.427168)
(0.0536738 -0.939334 -1.19986)
(-0.423588 -1.0941 -1.23527)
(-1.16032 -0.474777 -2.32093)
(-0.714738 -0.735173 -2.91981)
(-0.332437 -1.21957 -2.41308)
(-1.11136 -0.521975 -2.35663)
(-1.53372 -0.782106 -1.87747)
(-2.4239 -0.712839 -0.973434)
(-2.82762 -0.423363 -0.933686)
(-2.20402 0.357679 -1.25461)
(-1.74465 0.967097 -1.1873)
(-1.88434 1.03694 -1.25731)
(-1.3141 1.48417 -0.755306)
(0.43293 -0.547727 -0.978857)
(0.283537 -0.907668 -1.63855)
(-0.240893 -1.24317 -1.28336)
(-0.631005 -1.20605 -1.70664)
(-1.00077 -0.524445 -2.76562)
(-0.7782 -0.561276 -2.54279)
(-0.997324 -0.611947 -2.04791)
(-1.3275 -1.35214 -1.56149)
(-1.89889 -1.54239 -0.472433)
(-2.07917 -0.126241 -1.38962)
(-1.49665 0.184086 -1.25355)
(-1.32231 0.778992 -1.22551)
(-1.82465 1.13829 -0.882896)
(-1.31863 1.52239 -0.731211)
(-0.766614 0.70425 -0.765963)
(-0.26745 -0.206004 -1.07831)
(-0.469667 -0.606003 -1.2396)
(-0.496595 -0.797113 -1.29042)
(-0.830006 -0.882277 -1.43587)
(-0.802461 -1.15941 -1.72364)
(-0.970979 -1.28231 -1.90967)
(-0.866055 -1.2629 -1.7097)
(-1.07969 -1.2264 -1.21033)
(-1.10755 -0.722504 -0.681494)
(-1.14752 0.153333 -1.28302)
(-0.996757 0.412403 -1.58574)
(-0.991235 0.849924 -1.36143)
(-1.47161 1.38855 -1.07956)
(-1.4113 1.33955 -0.528387)
(-0.875475 1.25512 -0.435335)
(-0.514166 0.356796 -0.441672)
(0.167694 0.33084 -1.3628)
(-0.0591804 0.295224 -1.20721)
(-0.146733 -0.160026 -1.13746)
(-0.760243 -0.0693708 -1.05761)
(-0.841032 -0.28446 -1.25062)
(-0.811887 -0.385385 -1.39615)
(-0.798154 -0.504735 -1.35078)
(-0.528749 -0.663372 -1.08976)
(-0.120989 0.165624 -0.578174)
(-0.216746 0.50305 -0.7617)
(-0.257315 0.55503 -1.389)
(-0.217247 0.514347 -1.26388)
(-0.687419 0.827212 -1.14067)
(-0.9376 1.10181 -0.680349)
(-0.580559 0.997058 -0.930309)
(-0.183359 -0.145052 -0.985998)
(0.225945 -0.485874 -0.935813)
(-1.75559 -0.113396 1.97839)
(-1.94333 -0.155315 1.99904)
(-1.84743 0.089345 1.96253)