/*--------------------------------*- C++ -*----------------------------------*\
  =========                 |
  \\      /  F ield         | OpenFOAM: The Open Source CFD Toolbox
   \\    /   O peration     | Website:  https://openfoam.org
    \\  /    A nd           | Version:  7
     \\/     M anipulation  |
\*---------------------------------------------------------------------------*/
FoamFile
{
    version     2.0;
    format      ascii;
    class       volScalarField;
    location    "1.5";
    object      nut;
}
// * * * * * * * * * * * * * * * * * * * * * * * * * * * * * * * * * * * * * //

dimensions      [0 2 -1 0 0 0 0];

internalField   nonuniform List<scalar> 
18750
(
0.00140659
0.00121651
0.00105472
0.0012766
0.00147592
0.000938964
0.00132235
0.000373848
0.00103795
0.0010645
0.00275988
0.000821467
0.0016172
0.00105764
0.000683904
0.00140353
0.000347674
0.000471334
0.000894028
0.000912647
0.00225929
0.0011908
0.00207144
0.000697541
0.00248537
0.00144593
0.000585483
0.00115142
0.00083136
0.00134948
0.000159504
0.000280192
0.000781836
0.000725233
0.00100732
0.00247865
0.000950317
0.00330743
0.00099257
0.00123083
0.00240999
0.00069336
0.000788282
0.000938028
0.00160471
0.000449776
0.000523983
0.000446701
0.00103056
0.00146816
0.000179868
0.000205927
0.00014336
0.000646019
0.000735445
0.00110544
0.00266699
0.000775559
0.00252587
0.000555657
0.00105729
0.0034812
0.00113178
0.000810657
0.00119763
0.00280419
0.000660953
0.000657231
0.00133698
0.00231123
0.00175046
0.00012286
0.000520166
0.00043167
0.0012392
0.00114622
0.0013328
0.000140787
0.000188434
0.000197679
0.000160377
0.000428431
0.000769838
0.00113228
0.00269667
0.000880327
0.00295824
0.0013253
0.00108299
0.00285556
0.00232232
0.000777541
0.00268346
0.00344807
0.000966751
0.000825825
0.000614823
0.00123391
0.00255816
0.000299866
0.000614986
0.000429738
0.00108912
0.000813627
0.00168591
0.000309194
0.000132235
0.000546563
0.000310804
0.00120988
0.000758154
0.00127823
0.00011637
0.000121109
0.000193233
0.000211261
0.000156097
0.000373814
0.000688651
0.00108046
0.00241487
0.000690399
0.00261193
0.00117753
0.00107462
0.00291889
0.000561891
0.0010581
0.00135396
0.00320193
0.00154566
0.000617593
0.00130545
0.00226815
0.00352665
0.00102774
0.000473412
0.000942537
0.000541005
0.00127324
0.00172386
0.000544328
0.00045085
0.000554789
0.0012038
0.000984145
0.00156975
0.00149073
0.000261588
0.000271113
0.00013079
0.000543501
0.000308495
0.000935478
0.000738968
0.0011861
0.000272014
0.000316992
0.000272926
0.000241767
0.000221434
0.000153767
0.000533658
0.000551378
0.000956568
0.00238732
0.000628653
0.00241527
0.00061168
0.000985101
0.00258245
0.000630152
0.00121134
0.00116253
0.00277041
0.000973973
0.0007867
0.0012356
0.00118986
0.00291784
0.00145375
0.000613189
0.000772455
0.00141348
0.00178523
0.00275625
0.00108494
0.00063189
0.000843789
0.000777337
0.000794763
0.000821985
0.00172114
0.000339019
0.000584044
0.00050885
0.00044554
0.00155506
0.00132538
0.00133269
0.0010519
0.000252734
0.000304754
0.000256547
0.000203259
0.000558451
0.000351144
0.000598407
0.000973985
0.00111589
0.000186426
0.000244209
0.000345152
0.000393688
0.000191243
0.000244864
0.000176542
0.000845416
0.000370895
0.000793045
0.0022363
0.000675631
0.00246642
0.00108749
0.00077756
0.00245695
0.000672995
0.000932168
0.000715223
0.00259553
0.000562753
0.000979228
0.000893411
0.00172735
0.00279011
0.000879913
0.000882084
0.000756027
0.00157513
0.000888418
0.00280308
0.000555015
0.000892819
0.000967118
0.000650803
0.00107294
0.00208533
0.00288283
0.000835791
0.000822429
0.00133597
0.00048717
0.000717164
0.000724282
0.000817368
0.00178576
0.00028668
0.000419596
0.000497513
0.00016822
0.000362998
0.000935391
0.00148004
0.0013866
0.000808629
0.000365555
0.000272321
0.000290177
0.000280026
0.000178712
0.000486498
0.000339728
0.000348901
0.00103311
0.000999817
0.000109891
7.11528e-05
0.00015027
0.000153356
0.000184408
0.000203974
0.000256186
0.000185116
0.00102991
0.000328445
0.00062429
0.000478972
0.0022449
0.00054173
0.000684931
0.00251321
0.000582563
0.000683776
0.000877983
0.00239931
0.000824311
0.000808808
0.000723595
0.000631434
0.00243334
0.000563802
0.00121078
0.000754537
0.00203226
0.000958233
0.00280738
0.000984698
0.000809474
0.000791107
0.000760903
0.000854207
0.00140695
0.00329849
0.000532118
0.000787701
0.000743851
0.00038215
0.00090834
0.00114379
0.00173493
0.00338236
0.000321906
0.000601219
0.00157355
0.000243515
0.000589798
0.000672874
0.000872736
0.000386195
0.00221234
0.000239419
0.000324556
0.000445019
0.000484965
0.000501182
0.00041815
0.00076202
0.00131242
0.0011562
0.000887173
0.0003958
0.000337098
0.000265423
0.000287909
0.000300275
0.000216526
0.000464916
0.000285843
0.0005536
0.00111341
0.000870218
0.000203794
0.000187364
9.53986e-05
0.000142242
0.000192724
9.29392e-05
0.00024765
0.000266506
0.00019666
0.00119607
0.000419032
0.00052311
0.00240007
0.000823613
0.000681726
0.00229456
0.000428208
0.000972056
0.000927142
0.00234359
0.00065661
0.000583505
0.000482227
0.000909616
0.00246573
0.00110386
0.000593375
0.000931784
0.000428408
0.000741084
0.00253681
0.000429591
0.000482146
0.000355339
0.000730861
0.00190064
0.00117921
0.00272313
0.000531608
0.00068252
0.000483825
0.000811591
0.000977986
0.00108952
0.00148718
0.00342446
0.000451912
0.000841066
0.000747615
0.000864001
0.0012661
0.00082297
0.000776259
0.00133775
0.00343605
0.000424783
0.00032998
0.000604648
0.000851385
0.00136246
0.000846857
0.000575755
0.000781885
0.00175852
0.00232507
0.000344926
0.000200009
0.000291192
0.000391846
0.000444944
0.000374767
0.00074901
0.000538565
0.00130562
0.000905726
0.000761758
0.000171703
0.000318803
0.000319484
0.000340039
0.000316434
0.000325356
0.00022978
0.000429621
0.000852725
0.000344384
0.00101708
0.000771773
0.000156023
0.000143544
8.94873e-05
0.000123256
0.00020207
0.000186892
0.000157337
0.000185536
0.000283165
0.000257411
0.0012981
0.000462149
0.000500247
0.00244032
0.000626996
0.0023807
0.000455628
0.000589726
0.000476829
0.00234188
0.000583742
0.000584422
0.000733169
0.000567856
0.00244422
0.000400264
0.000484275
0.000496812
0.000487768
0.000690924
0.00261681
0.00057264
0.000691003
0.000809167
0.000797168
0.00117246
0.000926212
0.00250326
0.000796121
0.000673075
0.000485199
0.000610675
0.000598878
0.00109975
0.000944474
0.00262737
0.000321017
0.000606639
0.000256996
0.000653386
0.00059945
0.0011893
0.00136161
0.00215758
0.00275679
0.000893361
0.000626144
0.000856924
0.000749768
0.000947974
0.000367718
0.000987903
0.000659653
0.00141366
0.00348043
0.00036977
0.000326177
0.000434141
0.000749895
0.000983229
0.000745901
0.000808599
0.000893146
0.000674582
0.000396531
0.00156764
0.000565962
0.000113279
0.000217864
0.00018041
0.000282159
0.000211047
0.000406412
0.000751652
0.0012488
0.00130453
0.00125568
0.000980717
0.000168721
0.000230422
0.000310293
0.000310763
0.000284465
0.000334668
0.000276609
0.000205042
0.000380562
0.00113089
0.00054976
0.00058775
0.000661324
0.000179533
0.000163721
8.87056e-05
0.000167781
0.000140203
0.000105813
0.000140732
0.000212302
9.76319e-05
0.000320962
0.000225376
0.00131422
0.000528565
0.000513693
0.00255779
0.000776241
0.00247608
0.000392018
0.000824554
0.00244587
0.000557625
0.000442058
0.000610013
0.000824256
0.00224776
0.000506305
0.000485962
0.000619344
0.000825966
0.00071618
0.00243427
0.00046031
0.000735949
0.000788954
0.000562511
0.00076566
0.00075297
0.00268788
0.000559133
0.000655016
0.000413011
0.000514986
0.000647731
0.000706452
0.000881074
0.00248215
0.00067827
0.000627988
0.000564762
0.000444622
0.000676672
0.000988681
0.00122691
0.00100979
0.00258493
0.000408249
0.000329082
0.000440449
0.0006589
0.000456526
0.000717695
0.000923014
0.00137854
0.00207119
0.00266379
0.000806334
0.00102825
0.000876816
0.00093639
0.000615682
0.000683362
0.000843719
0.00108119
0.00109742
0.00170732
0.00299151
0.000478616
0.000426973
0.000330758
0.000276415
0.00041593
0.000602292
0.000642554
0.00109539
0.000765699
0.000831719
0.00209218
0.00233767
0.000445564
0.00098083
0.000947103
0.000305091
0.000326278
0.000239842
0.000227767
0.00055967
0.000762079
0.000987172
0.00115165
0.00116137
0.00115197
0.000105222
0.000142681
0.000259346
0.000452386
0.000311712
0.000253308
0.000334007
0.00023911
0.000225538
0.000297386
0.000642865
0.000388371
0.000598097
0.000683869
0.000124822
0.000132528
0.000117793
0.00012187
9.54063e-05
0.000130098
0.000109519
0.000179412
0.000186784
0.000129189
0.000358394
0.000216289
0.00128053
0.000712654
0.000532504
0.00075727
0.00250609
0.000499972
0.000769204
0.00247985
0.000337518
0.000643231
0.000921352
0.00242338
0.000487615
0.000536626
0.000481981
0.000511251
0.000756726
0.00245686
0.000617814
0.000579152
0.00039419
0.000670796
0.000570448
0.000871242
0.00246327
0.000569451
0.000532314
0.00028166
0.000636811
0.00105073
0.000850051
0.000874393
0.00256221
0.000590337
0.000554093
0.000578018
0.000766738
0.00061216
0.000540903
0.00102579
0.000876922
0.00247823
0.000847671
0.000684167
0.000655412
0.000553603
0.000582776
0.000699458
0.000999479
0.00109851
0.00120436
0.00260098
0.000843037
0.000174978
0.000501968
0.000429152
0.000329749
0.000376219
0.000915091
0.00103712
0.00150972
0.00169977
0.00272212
0.000868088
0.000877144
0.000745034
0.000774777
0.00121087
0.000840981
0.00104003
0.000678423
0.000355293
0.00117475
0.00185557
0.00272614
0.000468041
0.000386037
0.000833259
0.000360719
0.00057196
0.000575356
0.000721214
0.000922778
0.001119
0.000769889
0.000964792
0.00268361
0.00273086
0.000432745
0.000460988
0.000626417
0.000349088
0.00034818
0.000153444
0.000318722
0.00031767
0.000895245
0.000782803
0.00088142
0.00102655
0.00100187
0.000923519
0.000210403
0.00010102
0.000244191
0.000180029
0.000309328
0.000323242
0.000282908
0.000337049
0.00023366
0.000258378
0.000315335
0.00043992
0.000413235
0.000591117
0.000563427
0.00019738
6.47957e-05
0.00030561
0.00018286
0.000129964
8.65456e-05
0.000147797
0.000113134
0.000163902
0.000155842
0.00014836
0.000368992
0.000431881
0.00116919
0.000892974
0.000563338
0.00233834
0.000672227
0.000498494
0.00249241
0.00048349
0.000293683
0.000618126
0.0024528
0.000564102
0.000580844
0.000439015
0.000823135
0.00242013
0.000731774
0.000393829
0.000392429
0.0004493
0.000563618
0.00069713
0.00237976
0.000537857
0.000454746
0.000502627
0.000717016
0.00057536
0.00090705
0.00081467
0.00261411
0.000359437
0.000480289
0.00029832
0.000531044
0.000349646
0.000790315
0.000692873
0.00107817
0.00278622
0.000631071
0.000673403
0.000469783
0.000724108
0.000712802
0.000654199
0.000634737
0.0010214
0.00145864
0.00259722
0.00108801
0.000591185
0.000871686
0.00070969
0.000537302
0.000689328
0.000810091
0.00105123
0.00110258
0.00118423
0.00257714
0.00096717
0.000442879
0.000284722
0.000376142
0.000148544
0.000306039
0.000545842
0.000955198
0.00113495
0.000984886
0.00172662
0.00248349
0.000472953
0.00070608
0.00078607
0.00098092
0.00139257
0.00114241
0.000902076
0.000813199
0.000861932
0.00052584
0.000809072
0.00116062
0.00259968
0.000587631
0.000476863
0.000292315
0.000786648
0.000235216
0.000329587
0.000628416
0.000695369
0.00121778
0.000917708
0.000523995
0.000834102
0.00189992
0.00250253
0.000529502
0.000515598
0.000521046
7.1164e-05
0.000218703
0.000278393
0.000795474
0.000491525
0.000550017
0.000946727
0.00141059
0.00103872
0.00086913
0.000780466
0.000984218
0.000354526
0.000217528
0.0001632
0.000105818
0.000325046
0.00028296
0.000292622
0.000152355
0.000334673
0.000181744
0.000265173
0.000285293
0.000403784
0.000382382
0.000610369
0.000537788
0.000443055
0.000221558
0.000153852
0.000144508
0.000245558
0.000125999
8.35694e-05
0.000123696
0.000194405
0.000256305
0.000139096
0.000163756
0.000348706
0.000574786
0.000957724
0.00078215
0.000608669
0.0022788
0.000699385
0.00217349
0.000408174
0.000482251
0.000520461
0.00242411
0.000456082
0.000608972
0.000410847
0.000485474
0.00247253
0.000436783
0.000497
0.000310299
0.000279999
0.000570299
0.00270887
0.00085249
0.000455222
0.000492908
0.000434696
0.000551918
0.000498589
0.000724021
0.00238404
0.000461624
0.000535022
0.000685047
0.000446822
0.000576437
0.000620337
0.000706198
0.000803626
0.00236497
0.00047142
0.000476817
0.000348491
0.000422736
0.000922689
0.000619165
0.000663571
0.000951479
0.000935179
0.00274732
0.000518671
0.000763833
0.000677241
0.000917142
0.000424993
0.0005937
0.000682138
0.000594939
0.000488796
0.000933408
0.00254043
0.00127765
0.000819035
0.000955476
0.00093079
0.000492863
0.000974691
0.000623789
0.0012084
0.00115887
0.00122166
0.00112588
0.00268043
0.00117646
0.000506797
0.000385282
0.000429676
0.000296511
0.00036564
0.000276761
0.00052875
0.000691065
0.00109467
0.00102119
0.00202825
0.00263025
0.000441354
0.000738839
0.000851323
0.000979606
0.000941506
0.000635646
0.000717103
0.000802626
0.000495818
0.00076558
0.000579902
0.000840337
0.00165968
0.00218289
0.000774212
0.000522427
0.000423882
0.000468691
0.000395466
0.00071546
0.000254035
0.000304898
0.000872603
0.000502314
0.000476924
0.000634238
0.000527154
0.00126982
0.0017926
0.000605222
0.000622243
0.000451644
0.000191599
0.00113366
0.000479201
0.000182688
0.000371858
0.000511143
0.000654877
0.000923414
0.00137786
0.00102671
0.000751858
0.00059449
0.00112142
0.000826902
0.000441242
0.000226817
0.000102435
0.00018355
0.000257855
0.000376327
0.000248516
0.0003769
0.000305447
0.000152693
0.00033521
0.000273815
0.000357326
0.000383748
0.000661506
0.000613418
0.000216983
0.000418705
0.000246011
0.000209956
0.000119487
0.00011025
9.99697e-05
0.000136911
0.000116315
0.000155882
0.000263863
0.000119407
0.000128162
0.000302647
0.000615683
0.000538684
0.000581018
0.000716956
0.00229039
0.000365758
0.00222682
0.000444888
0.000623288
0.00216601
0.000408027
0.000581156
0.000483993
0.000489707
0.00246334
0.000470878
0.000486909
0.000436068
0.000263484
0.000350575
0.00240352
0.00061576
0.000385194
0.000430055
0.000334595
0.000524725
0.000533269
0.00258993
0.000714412
0.000346323
0.000496879
0.000460272
0.000490704
0.000392116
0.000583394
0.00058518
0.00241141
0.000560038
0.000408809
0.000729512
0.000434691
0.000493252
0.00053356
0.000627326
0.000660578
0.000964364
0.00242492
0.00050951
0.000452002
0.00052102
0.000489495
0.000574163
0.000728818
0.0007862
0.00078963
0.000454841
0.000486823
0.00244142
0.000742723
0.000867876
0.000669972
0.000892246
0.000771323
0.00107307
0.000481065
0.000790796
0.000516965
0.000589231
0.000667916
0.00264729
0.000772113
0.000990438
0.000577331
0.000702586
0.00065939
0.000728319
0.000727988
0.00108331
0.000935902
0.00113437
0.00104369
0.00102058
0.00256579
0.00047114
0.000376124
0.000379974
0.000570925
0.000707478
0.00056174
0.000447296
0.00051367
0.000570473
0.000419561
0.00144687
0.00103959
0.00156106
0.00282292
0.000831394
0.000809541
0.0010895
0.00103051
0.000815086
0.00101254
0.000771867
0.00108138
0.000447362
0.000907257
0.000897191
0.000480897
0.00091491
0.0015043
0.00260804
0.000687058
0.00058942
0.000578923
0.000549451
0.000158314
0.000269314
0.000492692
0.000563318
0.000531338
0.000780806
0.000682775
0.000828644
0.000787775
0.000780394
0.00065368
0.00182613
0.000643966
0.000550875
0.000933591
0.000212748
0.000592292
0.000300694
0.000780355
0.000276217
0.000785528
0.000448171
0.000694024
0.0017009
0.000491869
0.0011311
0.000738212
0.000606143
0.0010375
0.000549133
0.000731696
0.000414198
0.000348439
0.000147036
0.000162643
0.000306342
0.000202359
0.00027857
0.000244534
0.000303982
0.000366171
0.000324394
0.000284392
0.000439034
0.000431434
0.000627399
0.000781688
0.000141841
0.000218026
0.000380702
0.000270653
0.000174445
0.000134246
0.00013456
0.000164156
0.000125455
0.000109363
0.00010762
0.000145747
9.68048e-05
0.00013146
0.000210423
0.000591012
0.000731231
0.00054699
0.000786877
0.00222126
0.000521092
0.00219801
0.000400632
0.000424583
0.00215591
0.000440897
0.000324485
0.000646167
0.00211905
0.000298653
0.000392999
0.000223837
0.000469443
0.000443389
0.00243811
0.000384539
0.000488844
0.000363773
0.00068891
0.00040625
0.000379007
0.002385
0.000620294
0.000514467
0.000395678
0.00038533
0.000456286
0.000466324
0.000367205
0.00238754
0.000630437
0.000461937
0.000508376
0.000587463
0.000613881
0.000482408
0.000406199
0.000456088
0.000488461
0.00242439
0.000430037
0.000390984
0.000583306
0.000679301
0.000518139
0.000623037
0.000579703
0.000598615
0.000543145
0.000835888
0.00243659
0.000707433
0.000462498
0.000612645
0.000507908
0.000633616
0.000517348
0.000429846
0.000665657
0.00066497
0.000533465
0.000513714
0.00245809
0.000711626
0.000836365
0.000557862
0.000869618
0.00110711
0.000548447
0.0011566
0.000926365
0.000893924
0.00079476
0.00100351
0.000812186
0.00253006
0.00124272
0.00104062
0.000474863
0.000918838
0.000525692
0.000945835
0.00075349
0.000546726
0.00094484
0.000873527
0.00125971
0.00086851
0.000890663
0.00250139
0.000606039
0.000658847
0.000471118
0.000443302
0.000625116
0.000449245
0.00050154
0.00197578
0.00120088
0.000511624
0.000248206
0.00090643
0.00119453
0.00118996
0.00263894
0.000948692
0.000939108
0.000932677
0.000915473
0.000934182
0.000657569
0.000797808
0.000969325
0.000734513
0.000854101
0.000802218
0.000986205
0.000352098
0.000903809
0.000889419
0.00294567
0.00086808
0.000540105
0.000430192
0.000271556
0.00036758
0.000693631
0.000315206
0.000600758
9.47858e-05
0.000510697
0.000284582
0.000495517
0.000697453
0.000627879
0.000965063
0.00091833
0.00178166
0.000910633
0.000686773
0.000812374
0.000846722
0.000497853
0.000225497
0.000292026
0.00030205
0.000181832
0.000569859
0.000346711
0.000607902
0.00153576
0.000656723
0.000608341
0.000587349
0.000522191
0.000876565
0.000812882
0.000546439
0.000565541
0.000450866
0.000419491
0.000166062
0.000150068
0.000176577
0.000432106
0.000296045
0.000201437
0.00037184
0.000660835
0.000411907
0.000604513
0.000348579
0.000500482
0.000631428
0.000899019
0.000132586
0.000133503
0.00022971
0.000336011
0.000256479
0.000113734
0.000144785
0.000253861
0.000174344
0.000122064
0.000192669
0.000117264
0.000178273
0.000132612
0.000129357
0.000172295
0.000527004
0.00106789
0.000704329
0.000721487
0.00219543
0.000493839
0.00233295
0.000408541
0.000658439
0.00227553
0.000491557
0.000332982
0.00046538
0.00210259
0.00031816
0.000427572
0.000454318
0.000542175
0.00208844
0.000394177
0.000418479
0.000565063
0.000389475
0.000450288
0.00043262
0.00244571
0.000362933
0.000524231
0.000351589
0.00031779
0.000510121
0.000542777
0.000580196
0.00243233
0.0004939
0.000614401
0.000455334
0.000320614
0.000548829
0.000369838
0.000512133
0.0005374
0.00236125
0.000344348
0.000663
0.000393112
0.000567876
0.000558472
0.000590267
0.000448315
0.000620471
0.000482761
0.00061104
0.00241734
0.000340892
0.000751253
0.000862884
0.000834737
0.000661444
0.000562774
0.00056288
0.000685028
0.000575601
0.000631625
0.000768101
0.00243462
0.000668176
0.000626854
0.000416877
0.000422076
0.000554182
0.000245756
0.000764797
0.000569904
0.000448187
0.000506339
0.000886477
0.000872883
0.00262663
0.000868249
0.000859949
0.000753644
0.000644052
0.000853083
0.000579589
0.00115004
0.000688968
0.00120908
0.000699515
0.000679903
0.000728683
0.00097511
0.00221556
0.00108972
0.000692268
0.000975079
0.000406188
0.0005279
0.00081754
0.000652158
0.000223308
0.000662119
0.000597282
0.00104024
0.00163274
0.00092799
0.00110109
0.0024994
0.000414422
0.00059902
0.000519235
0.00052076
0.000574446
0.000556525
0.000650233
0.00133657
0.000733008
0.00138467
0.00115768
0.00074996
0.00102205
0.001078
0.00138328
0.00252874
0.0011126
0.000979589
0.00106446
0.000898753
0.000714033
0.000911085
0.000636579
0.000474546
0.000570902
0.000778024
0.000473936
0.000469629
0.000732877
0.00135745
0.000579283
0.000917695
0.00325571
0.00103756
0.000989478
0.000662255
0.000635981
0.000305558
0.000246288
0.000484609
0.000639981
0.000650811
0.000399929
0.000701299
0.000391135
0.00075871
0.00114521
0.00103209
0.00116619
0.00127826
0.0018259
0.00101949
0.00137509
0.00025964
0.000684154
0.000953772
0.000244931
0.000262466
0.000193905
0.00130929
0.000177812
0.000231389
0.000263978
0.000730022
0.00037742
0.000538094
0.000882128
0.000726569
0.000432198
0.000917279
0.000384501
0.000706759
0.000642437
0.000519693
0.000381405
0.000343414
0.000130405
0.000194494
0.000259074
0.000231827
0.000273479
0.000194891
0.000327477
0.000550161
0.000354171
0.000648532
0.000388199
0.000474018
0.000628435
0.000884264
1.95718e-05
0.000113325
0.000174204
0.000233884
0.000296246
0.000230767
0.000125164
0.000147425
0.000127137
0.000117679
0.00012792
8.46086e-05
0.000108914
0.000173463
0.000262936
0.000150654
0.000292377
0.000597609
0.000995553
0.000829793
0.000758952
0.00219173
0.000512863
0.00213538
0.000347594
0.000620436
0.00234505
0.000414502
0.000462822
0.000855415
0.00243071
0.000428878
0.000257509
0.000471264
0.000639385
0.00213679
0.000405489
0.000322077
0.000341792
0.000396047
0.000370885
0.00211865
0.000475838
0.000417028
0.000431759
0.000499581
0.000734165
0.000584658
0.00070437
0.00231861
0.000304987
0.000281237
0.000594964
0.000365766
0.000324139
0.000350489
0.000558338
0.000538953
0.00246047
0.000451714
0.000560693
0.000530333
0.000521288
0.000485614
0.000530567
0.000498038
0.000502895
0.000783248
0.00241414
0.000253783
0.000573357
0.000335153
0.000471106
0.000641811
0.000473755
0.0004123
0.000644477
0.000416319
0.000632939
0.000760283
0.00230645
0.000505386
0.000514863
0.000537246
0.000735349
0.000762943
0.000308111
0.000640718
0.000779
0.000560516
0.000741694
0.000717528
0.00106127
0.00247295
0.000952223
0.00089749
0.000693553
0.000576643
0.000726544
0.000469165
0.000649677
0.000539329
0.000685719
0.000793454
0.000721577
0.000997072
0.000840393
0.00243735
0.000961744
0.000825951
0.000934951
0.000487326
0.00101331
0.000673869
0.000686367
0.000843384
0.000836714
0.000934665
0.000685846
0.000700864
0.000834973
0.000837835
0.00242899
0.00075932
0.00108944
0.00108611
0.000441344
0.000570911
0.00044967
0.000660312
0.000305802
0.00135715
0.000511834
0.000344027
0.00108064
0.000973801
0.00080218
0.00102992
0.00248415
0.00043463
0.000611019
0.000654493
0.000448083
0.000572428
0.000593801
0.000442912
0.000543709
0.000423709
0.00159045
0.00063675
0.000530921
0.000674187
0.000751125
0.00110418
0.00127247
0.0026709
0.000634212
0.000714811
0.00074852
0.000829714
0.000832772
0.000727866
0.000680642
0.000691764
0.000706533
0.000645915
0.000545912
0.000939862
0.000609218
0.000862423
0.00117762
0.000760597
0.000921357
0.00339765
0.000743916
0.000832115
0.00096137
0.000808829
0.000360869
0.000346552
0.000307601
0.000277108
0.000458306
0.000112786
0.000457997
0.000521669
0.000712834
0.000709649
0.00114299
0.000971205
0.00110458
0.0012122
0.00181385
0.000840631
0.001041
0.00128293
0.000812092
0.000570639
0.000640449
0.000208534
0.000205204
0.000166238
0.00117849
0.000344741
0.000131747
0.000588971
0.0010119
0.000404712
0.000664332
0.000560373
0.000584834
0.000401687
0.000904319
0.000181419
0.000404244
0.000455881
0.000533055
0.00039857
0.000343629
0.000298068
0.000143864
0.000137331
0.000164869
0.000162684
0.000214483
0.000283504
0.00035427
0.000465692
0.000316314
0.000418302
0.00039714
0.000393847
0.000529834
0.000665551
0.000157512
4.93114e-05
9.62434e-05
0.000137464
0.000235258
0.000226916
0.00023179
0.000111216
0.000143474
9.52569e-05
9.00755e-05
0.000179461
0.000108999
8.99321e-05
0.000171894
0.000272387
0.000192882
0.000322514
0.000724276
0.00101614
0.00080127
0.000909629
0.00216583
0.000313752
0.00214347
0.000544438
0.000285911
0.00220852
0.000400195
0.000271549
0.000704938
0.00229464
0.000444527
0.000390667
0.000289318
0.000628272
0.00234508
0.000483332
0.000391845
0.000265014
0.000537184
0.0006633
0.00222673
0.000405178
0.000245092
0.000453516
0.000332635
0.000451667
0.000467366
0.00216717
0.000335008
0.000395533
0.000462825
0.000367897
0.000421909
0.000465662
0.000448954
0.000578731
0.00223649
0.000478534
0.000348187
0.000461682
0.000555462
0.00036678
0.000494792
0.00053053
0.000536728
0.000521732
0.00232303
0.000397525
0.000482935
0.000524614
0.00036905
0.000439108
0.000547736
0.000527641
0.000477662
0.000584647
0.00061528
0.00238118
0.000643026
0.000370397
0.000594704
0.000783078
0.000663144
0.000640534
0.000506688
0.000460724
0.000493877
0.000535725
0.000594422
0.000561196
0.00250542
0.000347441
0.000414318
0.000640885
0.000531539
0.000469581
0.000397337
0.000486527
0.000640906
0.000547789
0.000462509
0.000576475
0.000808343
0.00108391
0.00232947
0.000952038
0.000953113
0.000990688
0.000658125
0.000793409
0.000606979
0.000418735
0.000842897
0.000712301
0.000881192
0.000739832
0.000752573
0.000823727
0.000958427
0.00244222
0.0013621
0.000714136
0.000820195
0.00063618
0.000823851
0.000882499
0.000642988
0.000992149
0.000573288
0.000741175
0.000642215
0.000920996
0.000921829
0.000840939
0.000482107
0.00255151
0.000626243
0.00170563
0.000780523
0.00055154
0.000378911
0.000594065
0.000517119
0.000607899
0.000706442
0.000520668
0.00140294
0.000716367
0.00112293
0.000955417
0.000787868
0.000904731
0.00247557
0.000558204
0.000226385
0.000594023
0.000520594
0.000688142
0.000698205
0.000557238
0.000523386
0.000512212
0.00093619
0.000747158
0.00154392
0.000458608
0.000455109
0.000425063
0.000957903
0.000941697
0.00273114
0.000669201
0.000792672
0.000519158
0.00055455
0.000636327
0.00057935
0.000395676
0.000532418
0.000636863
0.000528119
0.000520142
0.000733594
0.00067121
0.00107082
0.00105926
0.000738498
0.000764483
0.00113812
0.00317729
0.000664973
0.000519955
0.000816719
0.000599333
0.000340512
0.000621352
0.000278456
0.000323146
0.000274526
0.000178918
0.000243548
0.000437677
0.000270715
0.00124502
0.000856946
0.000665918
0.00105561
0.000482371
0.0011225
0.00262177
0.00117159
0.000792077
0.00114491
0.000830127
0.000689318
0.000436287
0.000503256
0.000419466
0.000167364
0.000555653
0.000410998
0.000269496
0.000279315
0.000346227
0.000393655
0.000559672
0.000691482
0.00100162
0.000494828
0.000325062
0.00111555
0.000383083
0.000413694
0.000439382
0.000394474
0.000464636
0.000318489
0.000328137
0.000331268
0.00016867
0.000164861
0.000186842
0.000375751
0.0002259
0.000299865
0.000565405
0.000256408
0.000417198
0.000406626
0.000532591
0.000375183
0.000517442
0.000515793
0.000115662
0.000154698
9.45113e-05
0.000114361
0.000149034
0.000237394
0.000173665
0.000232035
0.00010384
0.000146703
0.000151168
8.2072e-05
3.91875e-05
4.82169e-05
0.000102814
0.000162363
0.000197253
0.000272775
0.000314899
0.000606751
0.00102415
0.000646398
0.00100859
0.00209842
0.000409189
0.00213675
0.000328038
0.000357784
0.00211756
0.000634497
0.000360641
0.000439993
0.00221763
0.000189037
0.000368924
0.000284301
0.000607912
0.00238042
0.00038656
0.000459086
0.000205168
0.000413075
0.000763181
0.00250285
0.000379129
0.000525277
0.000511466
0.000450358
0.000437232
0.000796235
0.0022604
0.000482289
0.000381378
0.000279955
0.000330007
0.000356267
0.000653825
0.000571873
0.00216333
0.00044028
0.000343553
0.000334651
0.000631032
0.000365236
0.000426793
0.000388445
0.000448037
0.000668526
0.00221081
0.000494148
0.000363396
0.000381308
0.000529773
0.000496182
0.000364682
0.000541677
0.000604285
0.00044451
0.000550104
0.00224188
0.000597376
0.000394019
0.000523126
0.000481186
0.000387716
0.000449447
0.000487564
0.000576404
0.00043156
0.000532916
0.0006615
0.00224817
0.00050745
0.000649461
0.000632979
0.000525802
0.000710467
0.000666224
0.000738339
0.000548478
0.000553984
0.000439118
0.000494223
0.000465084
0.000627533
0.00241667
0.000732338
0.00064843
0.0006974
0.00049024
0.000469693
0.000595305
0.000389539
0.00063803
0.000423253
0.000826813
0.000641601
0.00050685
0.000422757
0.000697927
0.00238567
0.00103123
0.000974385
0.000827471
0.000618103
0.000604658
0.000790907
0.000351988
0.000473006
0.000640793
0.000809279
0.00066754
0.000562689
0.000813297
0.000761616
0.000806609
0.00255785
0.000646382
0.000582048
0.000773412
0.000825466
0.000656696
0.000976926
0.000930726
0.000737617
0.000714065
0.000697458
0.000617059
0.000757696
0.000732872
0.000904527
0.000480676
0.000312027
0.00255288
0.000572963
0.000619223
0.000821183
0.000466129
0.000233352
0.000391384
0.000766501
0.000628067
0.000410481
0.000687828
0.000473415
0.000322072
0.00049342
0.00116028
0.000860194
0.000844986
0.00098592
0.00250983
0.000631876
0.000679608
0.000946377
0.000839855
0.000492852
0.000580575
0.000647694
0.000502265
0.000592047
0.000765449
0.00070502
0.00061181
0.00038381
0.000658961
0.000645847
0.000841741
0.000815085
0.00116501
0.00287205
0.000874396
0.000915746
0.000615288
0.000466209
0.000408545
0.000390221
0.000359337
0.000570677
0.00060989
0.000896013
0.000730065
0.000688707
0.000776166
0.000764498
0.00136093
0.000706672
0.000490686
0.000751431
0.00103514
0.00330839
0.00119074
0.000566706
0.000802316
0.000824783
0.000600788
0.000610616
0.000484029
0.000354783
0.000435619
0.000353808
0.0004923
0.000548891
0.000607725
0.000316486
0.000740765
0.000783094
0.000456763
0.000693423
0.000431992
0.00110751
0.00217174
0.000906082
0.00140486
0.000725238
0.00158879
0.000970343
0.000552198
0.000390553
0.000405833
0.000488627
0.000118191
0.00031762
0.00103036
0.000426719
0.000193504
0.000432152
0.000488502
0.000865304
0.000683624
0.000666722
0.000522516
0.000375683
0.00146945
0.000478023
0.000458714
0.00069949
0.000357276
0.000505812
0.000447424
0.000272366
0.000311892
0.000293318
0.000184965
0.000139193
0.000219726
0.000188002
0.000263434
0.000281334
0.000742626
0.000416891
0.000255744
0.000312284
0.000474412
0.000444833
0.000661131
0.000740685
5.46594e-05
0.000202909
0.00013273
0.000143943
0.000167378
0.000144525
0.000228439
0.000168925
0.000229397
0.00011245
0.00010703
0.000196605
8.52521e-05
9.17025e-05
8.04711e-05
0.000126951
0.000131147
0.000175809
0.000330247
0.000242477
0.000590556
0.00103939
0.000415023
0.00104709
0.00210812
0.000264934
0.00207708
0.000363545
0.00048751
0.00212237
0.000311116
0.000267418
0.000457892
0.00213958
0.000323052
0.00041802
0.000511152
0.000435529
0.00212223
0.000406371
0.000305485
0.000359327
0.000384608
0.000577
0.00202457
0.00047125
0.00045975
0.00063405
0.000265125
0.000408678
0.000442394
0.00246445
0.000494832
0.000333981
0.000321414
0.000340521
0.000325596
0.000378795
0.000626165
0.00222141
0.00048876
0.000468454
0.000571324
0.000311096
0.000509308
0.000489663
0.000481869
0.000322388