/*--------------------------------*- C++ -*----------------------------------*\
  =========                 |
  \\      /  F ield         | OpenFOAM: The Open Source CFD Toolbox
   \\    /   O peration     | Website:  https://openfoam.org
    \\  /    A nd           | Version:  7
     \\/     M anipulation  |
\*---------------------------------------------------------------------------*/
FoamFile
{
    version     2.0;
    format      ascii;
    class       volScalarField;
    location    "1.5";
    object      p;
}
// * * * * * * * * * * * * * * * * * * * * * * * * * * * * * * * * * * * * * //

dimensions      [0 2 -2 0 0 0 0];

internalField   nonuniform List<scalar> 
18750
(
-65.6308
-61.9641
-65.8316
-65.2301
-57.5498
-63.4738
-61.55
-65.0867
-65.5969
-64.8838
-58.3415
-57.8989
-57.5964
-65.9726
-63.1816
-61.4132
-65.0043
-64.8901
-65.4035
-64.6396
-55.453
-59.8929
-58.6518
-65.7801
-51.767
-58.0405
-65.3337
-65.7606
-63.0368
-61.1639
-64.8321
-64.9975
-64.6665
-65.2938
-64.4316
-53.4458
-58.096
-55.2096
-61.4579
-61.1326
-58.5971
-64.2171
-65.6385
-57.7554
-58.6926
-65.368
-65.3824
-65.4053
-62.8446
-60.9266
-65.6301
-64.8038
-65.0066
-64.4483
-65.1918
-64.2637
-50.6983
-54.8174
-53.6257
-59.1662
-58.5335
-55.6835
-61.5695
-61.8389
-62.7207
-59.0187
-64.3911
-64.1981
-65.3356
-58.4656
-59.5223
-67.0416
-65.2742
-65.4571
-65.0783
-62.7109
-60.9249
-65.1949
-65.6347
-64.7791
-64.9915
-64.2553
-65.1202
-64.1885
-49.0102
-50.9034
-50.5912
-55.6664
-54.7956
-53.5451
-58.6657
-59.4847
-59.2011
-55.2375
-61.8047
-61.6277
-62.2995
-63.9593
-59.1861
-65.0164
-64.2424
-64.2126
-65.059
-60.6252
-60.6521
-67.1243
-67.0009
-65.1999
-65.5242
-64.9121
-62.7431
-60.9766
-64.6636
-65.2448
-65.6324
-64.7611
-64.9743
-64.1171
-65.0789
-64.1956
-47.7387
-49.1505
-48.9916
-50.4843
-50.8783
-50.4432
-55.0385
-55.8958
-54.1135
-53.5388
-58.9618
-58.803
-59.5876
-60.0429
-55.3742
-62.5093
-61.7291
-61.8249
-62.5674
-65.0998
-59.7222
-65.4312
-64.8974
-64.1099
-64.1731
-64.743
-61.5644
-61.6013
-67.4483
-67.1073
-66.9536
-65.1421
-65.5524
-64.8004
-62.8264
-61.0965
-64.3924
-64.7212
-65.2912
-65.6243
-64.749
-64.9686
-64.0071
-65.0559
-64.2613
-46.6994
-47.7095
-47.6408
-49.3892
-49.2106
-48.8941
-51.4858
-50.5541
-50.8775
-50.2509
-56.0501
-55.2076
-55.5862
-54.0114
-53.4951
-58.8047
-59.3893
-58.9823
-59.8975
-59.8949
-55.8242
-62.5249
-62.3015
-61.7068
-62.0892
-62.9393
-65.6645
-60.9804
-65.4141
-65.4788
-64.8195
-64.0374
-64.1021
-64.1299
-62.2452
-62.5141
-66.9293
-67.4232
-67.0802
-66.8996
-65.1057
-65.543
-64.6945
-62.7824
-61.2639
-63.9936
-64.4259
-64.7953
-65.3373
-65.6122
-64.7393
-64.9622
-63.9069
-65.0309
-64.354
-45.8795
-46.678
-46.6635
-47.9187
-47.6798
-47.5754
-49.7752
-49.3343
-49.0387
-49.024
-51.9046
-51.2728
-50.3082
-50.8564
-50.0762
-55.6807
-56.1642
-55.3111
-55.4125
-54.1263
-53.2388
-59.1214
-58.9758
-59.2838
-59.2404
-59.8451
-60.3466
-56.0663
-62.9601
-62.5989
-62.6265
-61.8381
-62.3957
-63.254
-65.9361
-62.1554
-65.4773
-65.485
-65.5021
-64.8347
-63.9826
-63.9744
-63.6451
-63.012
-63.5733
-65.9222
-66.9655
-67.411
-67.0676
-66.8379
-65.0791
-65.5075
-64.6153
-62.591
-61.4763
-63.6249
-64.0424
-64.4763
-64.85
-65.3824
-65.5976
-64.7294
-64.9556
-63.8504
-64.9948
-64.4494
-45.9208
-45.8658
-46.6743
-46.6219
-46.5758
-47.999
-47.8893
-47.7704
-47.6655
-49.9956
-49.8331
-49.5679
-49.0564
-49.1351
-52.0167
-51.6646
-51.0078
-49.7938
-50.8801
-49.7683
-55.9537
-55.992
-55.7438
-55.1376
-55.1715
-53.8136
-52.9613
-58.8823
-58.9442
-58.9024
-59.259
-59.5725
-60.0538
-61.2904
-56.325
-62.8276
-63.019
-62.7674
-62.485
-61.7485
-62.8266
-63.6839
-66.2962
-62.884
-65.2298
-65.6028
-65.5911
-65.6242
-64.6233
-63.8759
-63.837
-63.374
-63.6838
-64.355
-65.0272
-65.9741
-66.9955
-67.3921
-67.0838
-66.7737
-65.0448
-65.466
-64.5141
-62.3581
-61.6637
-63.1275
-63.6465
-64.0791
-64.5137
-64.9046
-65.4129
-65.5788
-64.7202
-64.947
-63.8462
-64.9489
-64.5336
-45.2667
-45.9094
-45.8954
-45.7875
-46.8714
-46.7945
-46.5455
-46.6629
-48.0682
-48.0315
-47.8488
-47.8153
-47.6412
-50.1495
-50.0301
-49.8968
-49.4106
-49.2946
-48.7508
-52.207
-51.8742
-51.6622
-50.9962
-50.1985
-50.6683
-49.5437
-56.0959
-56.0936
-55.7912
-55.5637
-55.0757
-54.8722
-53.5882
-52.9295
-58.9779
-58.9115
-58.7571
-58.31
-59.0768
-60.1562
-59.8963
-61.7037
-56.3375
-62.1798
-62.795
-62.7197
-62.5106
-62.1219
-61.8724
-63.1346
-63.9993
-66.5635
-63.8893
-65.0385
-65.3888
-65.6839
-65.6548
-65.6165
-64.5264
-63.7643
-63.6772
-63.0935
-63.6377
-64.5312
-64.7683
-65.0882
-66.0032
-67.0253
-67.3781
-67.1176
-66.706
-65.0146
-65.4385
-64.4112
-62.2837
-61.7899
-62.839
-63.1806
-63.6542
-64.1056
-64.5419
-64.9587
-65.4297
-65.5569
-64.7107
-64.9301
-63.8927
-64.9076
-64.6048
-44.7355
-45.3768
-45.2831
-46.062
-45.9133
-45.8619
-45.8124
-46.9559
-46.8981
-46.762
-46.6101
-46.5421
-48.2549
-48.2318
-47.9782
-47.8771
-47.7769
-47.6105
-50.2355
-50.1782
-50.1162
-49.9162
-49.2783
-49.1331
-48.7828
-52.4028
-52.0933
-51.98
-51.4522
-51.0515
-50.5976
-50.5744
-49.5112
-55.9699
-56.1928
-56.0836
-55.7889
-55.6385
-54.9764
-54.293
-53.3486
-52.9004
-59.0269
-58.986
-58.6764
-58.3814
-58.4586
-59.2555
-60.5719
-59.7637
-61.268
-55.9699
-61.7902
-62.2677
-62.6618
-62.431
-62.1641
-62.0955
-61.9489
-63.3889
-64.2809
-66.1376
-64.4444
-64.5319
-65.089
-65.5254
-65.7501
-65.6764
-65.6575
-64.3549
-63.6685
-63.5
-62.8546
-63.0358
-64.4038
-64.3581
-64.7569
-65.1061
-66.0081
-67.0576
-67.3718
-67.1516
-66.6307
-64.9927
-65.418
-64.3245
-62.393
-61.8053
-62.7443
-62.8775
-63.2135
-63.6472
-64.1224
-64.558
-64.9931
-65.4412
-65.5342
-64.6989
-64.9011
-63.9611
-64.8916
-64.6647
-44.1958
-44.7809
-44.7577
-45.3475
-45.3048
-45.2787
-46.032
-46.0137
-45.8982
-45.891
-45.8423
-47.0769
-47.0947
-46.9195
-46.7364
-46.4635
-46.4985
-48.5328
-48.4371
-48.2215
-47.9468
-47.83
-47.9551
-47.5408
-50.429
-50.3563
-50.3367
-50.1974
-49.8352
-49.6425
-49.071
-48.8752
-52.8805
-52.3949
-52.353
-52.1516
-51.7388
-51.2355
-50.673
-50.1622
-49.6871
-56.0332
-56.0338
-56.4907
-56.3051
-55.8677
-55.7244
-55.2471
-53.9893
-53.0626
-52.3677
-58.8288
-59.1181
-58.9056
-58.4387
-58.5101
-58.5727
-59.6007
-60.7469
-59.6294
-60.3737
-56.0971
-61.4701
-61.8193
-62.2845
-62.5763
-62.3883
-61.9599
-61.9088
-62.0327
-63.5127
-64.2981
-65.0136
-64.6403
-63.6524
-64.5824
-65.2057
-65.6364
-65.869
-65.6915
-65.6244
-64.1964
-63.577
-63.2991
-62.6579
-62.6721
-64.4312
-64.2576
-64.3538
-64.7873
-65.1612
-66.0075
-67.065
-67.3601
-67.1877
-66.5439
-64.9734
-65.3555
-64.247
-62.4155
-61.7476
-63.0149
-62.7661
-62.9304
-63.2358
-63.6359
-64.1132
-64.5494
-64.9951
-65.4492
-65.5136
-64.6857
-64.8629
-64.0272
-64.9102
-64.7245
-44.2681
-44.2433
-44.8259
-44.8159
-44.7865
-45.366
-45.2782
-45.2821
-45.3108
-46.1245
-46.0445
-45.9854
-45.9766
-45.8909
-45.6763
-47.2347
-47.1945
-47.0616
-46.8376
-46.7613
-46.3397
-46.5202
-48.7233
-48.5639
-48.4499
-48.2961
-48.0142
-47.7754
-47.8195
-47.5858
-50.5511
-50.4769
-50.4418
-50.1978
-50.0984
-49.6563
-49.3283
-49.0569
-48.9118
-53.0108
-52.7908
-52.4979
-52.5028
-52.3278
-52.0009
-51.4194
-51.0265
-50.137
-49.9963
-56.1763
-56.0806
-56.18
-56.5797
-56.3868
-56.0022
-55.7154
-55.0501
-53.6901
-52.694
-52.4207
-58.8508
-58.9698
-59.2162
-58.8462
-58.6031
-58.5723
-58.763
-59.5226
-60.8076
-59.5307
-59.2275
-56.0073
-61.1087
-61.6822
-61.8451
-62.3444
-62.5434
-62.4237
-61.8043
-61.8392
-62.1995
-63.5759
-64.3043
-64.4706
-64.3748
-63.0696
-63.7831
-64.8227
-65.3865
-65.7326
-65.9383
-65.7252
-65.6217
-64.039
-63.5082
-63.0796
-62.6153
-62.7729
-64.4832
-64.2938
-64.2545
-64.3556
-64.8534
-65.2339
-66.0025
-67.0413
-67.3392
-67.2098
-66.4452
-64.9457
-65.2748
-64.1956
-62.4071
-61.7318
-63.0956
-63.0455
-62.7896
-62.9677
-63.2589
-63.6179
-64.0979
-64.5271
-64.9769
-65.4467
-65.4857
-64.6723
-64.8199
-64.0706
-64.958
-64.797
-43.8979
-44.2463
-44.2478
-44.2832
-44.7857
-44.8898
-44.7166
-44.7653
-45.312
-45.3268
-45.282
-45.3326
-45.2568
-46.2256
-46.1036
-46.1272
-45.9881
-45.9691
-45.7949
-45.7
-47.4009
-47.3203
-47.2105
-46.9706
-46.7378
-46.6355
-46.4091
-46.5119
-48.8835
-48.7479
-48.6345
-48.4089
-48.2809
-47.9718
-47.6735
-47.7538
-47.3131
-50.8065
-50.6827
-50.5232
-50.4376
-50.2559
-50.0385
-49.581
-49.4452
-49.0027
-49.0429
-53.238
-53.1485
-52.8664
-52.8713
-52.591
-52.5064
-51.848
-51.4749
-51.1785
-50.3299
-50.2037
-56.5106
-56.3943
-56.3291
-56.3505
-56.4883
-56.3593
-56.1193
-55.7313
-54.8335
-53.6913
-52.5542
-52.7289
-58.8816
-59.0311
-59.0206
-59.173
-58.8431
-58.6824
-58.6852
-58.8691
-59.5251
-60.6803
-59.4327
-58.4363
-55.8979
-60.6999
-61.4777
-61.9169
-61.9597
-62.3569
-62.7085
-62.3441
-61.7218
-61.7677
-62.2367
-63.5964
-64.258
-64.5108
-63.9519
-62.605
-63.1813
-64.1204
-64.9374
-65.4234
-65.8043
-65.9976
-65.7273
-65.6911
-63.9575
-63.4238
-62.9345
-62.6372
-63.104
-64.529
-64.9664
-64.2746
-64.2403
-64.3786
-64.7279
-65.2575
-65.9755
-66.9617
-67.2827
-67.2166
-66.3335
-64.9046
-65.1911
-64.1504
-62.4655
-61.6894
-63.19
-63.1269
-63.0725
-62.8107
-62.9825
-63.2708
-63.5974
-64.081
-64.5037
-64.952
-65.4337
-65.4486
-64.6593
-64.7733
-64.0628
-65.0255
-64.8995
-43.5795
-43.8779
-44.0113
-44.2869
-44.2887
-44.2615
-44.2754
-44.8259
-44.6974
-44.7533
-44.7455
-44.8008
-45.4141
-45.3353
-45.3683
-45.3064
-45.2779
-45.0421
-46.3008
-46.2819
-46.1363
-46.1009
-45.948
-45.9372
-45.766
-45.742
-47.5825
-47.4956
-47.3045
-47.1778
-46.9783
-46.8638
-46.7173
-46.3644
-46.5095
-49.0663
-48.9223
-48.8051
-48.5994
-48.3163
-48.1613
-47.8215
-47.5016
-47.6156
-47.2813
-50.8085
-50.8876
-50.6707
-50.541
-50.5089
-50.3069
-49.8817
-49.6971
-49.5204
-48.9964
-49.0705
-53.4934
-53.6082
-53.2005
-53.011
-52.9168
-52.6097
-52.6932
-52.1396
-51.6343
-51.2257
-50.566
-50.3405
-56.5202
-56.8089
-56.5957
-56.5038
-56.4558
-56.1781
-56.4349
-56.0569
-55.9398
-54.7556
-53.832
-52.6694
-52.5519
-58.4246
-59.0693
-59.1454
-59.1324
-59.2668
-58.9108
-58.6407
-58.8117
-58.7983
-59.4814
-60.5703
-59.1598
-57.8762
-55.2757
-60.4202
-60.9181
-61.6715
-61.8138
-62.0878
-62.3789
-62.5366
-62.2248
-61.536
-61.5462
-62.3441
-63.3725
-64.026
-64.7292
-64.0842
-63.0712
-62.7373
-63.4006
-64.2199
-64.9314
-65.5469
-65.872
-65.9633
-65.7816
-65.7051
-63.8479
-63.3726
-62.9349
-62.7001
-63.4195
-64.568
-63.9106
-64.8814
-64.2448
-64.2363
-64.3394
-64.7758
-65.2599
-65.9377
-66.8237
-67.1959
-67.1835
-66.2081
-64.8586
-65.1019
-64.1057
-62.497
-61.6094
-62.687
-63.2204
-63.1451
-63.0979
-62.8328
-63.0157
-63.2759
-63.5791
-64.0549
-64.4808
-64.9172
-65.4148
-65.4146
-64.6471
-64.7237
-64.0111
-65.0957
-65.0316
-43.4009
-43.6649
-43.5967
-43.9675
-43.9178
-43.9911
-44.4
-44.2426
-44.2704
-44.2857
-44.2476
-44.8113
-44.7243
-44.7386
-44.8452
-44.764
-44.7765
-45.4926
-45.4327
-45.3905
-45.3212
-45.2732
-45.1527
-45.0665
-46.4613
-46.3318
-46.2067
-46.1974
-46.0732
-46.0184
-45.8924
-45.787
-45.6876
-47.6469
-47.5753
-47.474
-47.253
-47.126
-46.9238
-46.7616
-46.5876
-46.2924
-46.2607
-49.187
-48.9533
-48.9285
-48.7237
-48.6774
-48.3104
-48.0874
-47.7757
-47.6518
-47.5889
-47.4936
-51.0502
-50.8966
-50.8128
-50.6296
-50.6526
-50.4473
-50.2154
-49.9767
-49.7643
-49.2811
-49.0567
-49.0166
-53.7156
-53.6803
-53.7229
-53.3635
-53.1516
-52.8211
-53.0808
-52.6967
-52.0874
-51.8159
-51.3125
-50.5557
-50.2585
-56.4249
-56.872
-56.9258
-56.8381
-56.6819
-56.4277
-56.3396
-56.2607
-56.2013
-55.9213
-54.4827
-53.8168
-52.8301
-51.9786
-57.8365
-58.7403
-59.1711
-59.1859
-59.1936
-59.2282
-58.7174
-58.5411
-58.6993
-58.6402
-59.4432
-60.4833
-58.6192
-57.7275
-55.7619
-60.41
-60.6478
-61.0768
-61.6875
-61.9554
-62.1882
-62.5047
-62.2944
-62.0735
-61.4757
-61.4975
-62.4414
-63.3349
-63.7602
-64.8687
-64.1514
-63.0242
-63.1087
-63.0964
-63.4916
-64.2213
-65.0226
-65.7877
-65.936
-65.8873
-65.7436
-65.6703
-63.7532
-63.3237
-63.3099
-62.7624
-63.5607
-64.569
-63.6335
-63.9803
-64.7843
-64.2128
-64.1979
-64.3203
-64.7253
-65.2262
-65.8883
-66.7386
-67.0882
-67.1059
-66.0656
-64.8194
-64.9968
-64.0477
-62.5294
-61.524
-62.1016
-62.752
-63.2484
-63.1539
-63.1111
-62.8457
-63.0378
-63.2683
-63.5589
-64.0296
-64.4623
-64.8968
-65.3809
-65.3851
-64.6342
-64.6754
-63.9551
-65.1153
-65.0947
-43.2319
-43.5004
-43.5218
-43.656
-43.6748
-43.6025
-43.9992
-44.0048
-43.946
-43.9626
-44.4071
-44.3315
-44.3155
-44.2576
-44.3106
-44.2366
-44.8741
-44.8235
-44.7859
-44.6972
-44.7878
-44.7177
-44.6487
-45.5507
-45.4949
-45.4671
-45.3346
-45.3178
-45.223
-45.2341
-45.1901
-46.5954
-46.4843
-46.3417
-46.2465
-46.1384
-46.1057
-45.9059
-45.8662
-45.719
-45.6298
-47.8888
-47.6848
-47.5967
-47.3405
-47.2698
-47.016
-46.8977
-46.7256
-46.6559
-46.3537
-46.3483
-49.0561
-49.0295
-48.9303
-49.0141
-48.7778
-48.5558
-48.2929
-48.0559
-47.7745
-47.7169
-47.4124
-47.3925
-51.4174
-51.0194
-50.9598
-50.7988
-50.6494
-50.6828
-50.4952
-50.201
-49.8348
-49.4947
-49.2381
-49.1126
-49.0419
-53.7874
-53.838
-53.9656
-53.5469
-53.3213
-53.2959
-53.541
-53.1902
-52.8501
-52.3306
-52.0063
-51.2925
-50.7041
-50.21
-56.1071
-56.8104
-57.018
-56.8973
-56.9953
-56.8851
-56.5513
-56.7577
-56.0232
-56.2325
-55.9514
-54.8072
-53.8949
-52.9155
-51.3487
-57.4995
-58.077
-59.0196
-59.3434
-59.2908
-59.2018
-59.1691
-58.6767
-59.1763
-58.7594
-58.6244
-59.3715
-60.1056
-58.1748
-57.3518
-55.9395
-60.5116
-60.6121
-60.784
-61.2146
-61.8265
-62.0693
-62.1992
-62.4567
-62.2202
-62.0187
-61.3392
-61.3238
-62.4238
-63.2363
-63.6471
-64.63
-64.5248
-62.9757
-63.1409
-63.1002
-63.0249
-63.5547
-64.3043
-65.1469
-65.7259
-65.9006
-65.8624
-65.6899
-65.5949
-63.5888
-63.3292
-63.2991
-62.894
-63.5412
-64.408
-62.6221
-63.8065
-64.1001
-64.7243
-64.1963
-64.1545
-64.2664
-64.6962
-65.1098
-65.8275
-66.6096
-66.961
-66.9705
-65.9068
-64.7822
-64.8808
-63.9807
-62.5882
-61.433
-61.6354
-62.1566
-62.8211
-63.2715
-63.164
-63.1033
-62.8562
-63.035
-63.2477
-63.5708
-64.0017
-64.4354
-64.8672
-65.3306
-65.3585
-64.6143
-64.6279
-63.9606
-65.0762
-65.095
-43.0068
-43.2046
-43.2136
-43.4608
-43.4955
-43.6165
-43.6273
-43.68
-43.6728
-43.5849
-44.0594
-44.0215
-43.9886
-43.95
-43.94
-44.46
-44.3386
-44.3293
-44.2745
-44.2865
-44.2993
-44.2218
-45.0212
-44.8896
-44.8315
-44.7871
-44.7557
-44.7216
-44.6671
-44.6404
-45.6521
-45.5331
-45.5221
-45.3856
-45.3376
-45.2743
-45.195
-45.1768
-45.1524
-46.7521
-46.6141
-46.5049
-46.3224
-46.2097
-46.1506
-45.9915
-45.9041
-45.8628
-45.6627
-45.6444
-48.0796
-47.7792
-47.7257
-47.5229
-47.3389
-47.2366
-47.0481
-46.8913
-46.7222
-46.6544
-46.46
-46.383
-49.0316
-49.0341
-49.1041
-49.1243
-48.6635
-48.8821
-48.3643
-48.2068
-48.0671
-47.8266
-47.6624
-47.2719
-47.2548
-51.3546
-51.2011
-51.0978
-50.8326
-50.8005
-50.6178
-50.6831
-50.5521
-50.202
-49.9466
-49.5111
-49.1697
-49.1942
-49.0311
-53.7129
-53.9311
-54.0296
-54.0355
-53.6365
-53.4029
-53.5967
-53.9012
-53.4566
-52.929
-52.3704
-52.0016
-51.2653
-50.9042
-49.9807
-55.8778
-56.7541
-57.2568
-57.0733
-56.9673
-57.0854
-56.7347
-56.6445
-56.617
-56.6706
-55.9916
-55.8935
-54.6939
-54.0446
-52.8135
-51.3962
-57.0877
-57.5667
-58.3176
-59.1547
-59.3812
-59.2848
-59.1397
-59.066
-59.1133
-59.0732
-59.3227
-58.6374
-59.2606
-59.9538
-58.2142
-57.2011
-55.5953
-60.8766
-60.6761
-60.771
-60.8606
-61.3311
-61.8728
-62.1495
-62.0863
-62.5164
-62.2298
-61.8478
-61.0054
-61.1576
-62.3684
-63.3217
-63.7745
-64.3785
-64.477
-61.9379
-63.1577
-63.313
-63.1835
-62.7085
-63.6094
-64.3142
-65.173
-65.5687
-65.8655
-65.8188
-65.5741
-65.3428
-63.3655
-63.3091
-63.2045
-63.0539
-63.4999
-64.1406
-61.8179
-62.9112
-63.9912
-64.2406
-64.6813
-64.1566
-64.0998
-64.2073
-64.6111
-65.0645
-65.7369
-66.4297
-66.8195
-66.8039
-65.7634
-64.7304
-64.751
-63.9052
-62.6298
-61.3405
-61.3206
-61.6726
-62.2081
-62.8842
-63.2864
-63.1786
-63.0836
-62.8724
-63.0339
-63.2335
-63.5774
-63.9709
-64.4002
-64.8224
-65.2691
-65.329
-64.5911
-64.5789
-64.0112
-65.0252
-65.1116
-42.8964
-43.0178
-42.9848
-43.3745
-43.2176
-43.3179
-43.4751
-43.4631
-43.5724
-43.4487
-43.7263
-43.7031
-43.6104
-43.5701
-43.5831
-44.0648
-43.9991
-44.0203
-44.0651
-43.966
-43.8932
-44.5243
-44.4364
-44.4066
-44.3496
-44.2251
-44.1943
-44.2055
-44.2149
-45.1164
-44.9922
-44.904
-44.8544
-44.788
-44.7562
-44.6613
-44.7143
-44.6497
-45.7903
-45.665
-45.578
-45.4228
-45.4142
-45.3413
-45.2382
-45.2548
-45.1021
-45.0543
-46.8705
-46.7127
-46.7053
-46.3743
-46.343
-46.2302
-46.1326
-45.8841
-45.9287
-45.798
-45.6763
-45.7192
-47.9852
-47.949
-47.8421
-47.6197
-47.4856
-47.3859
-47.1835
-47.0144
-46.8883
-46.6681
-46.6159
-46.3954
-46.3034
-48.9737
-48.976
-49.1199
-49.1444
-48.959
-48.8477
-48.5807
-48.4698
-48.1045
-47.9171
-47.8172
-47.6696
-47.2953
-47.2011
-51.539
-51.423
-51.1115
-51.1993
-50.7965
-50.7417
-50.676
-50.7105
-50.5176
-50.1615
-49.8016
-49.3186
-49.2821
-49.1558
-49.0604
-53.9068
-54.0113
-54.0102
-54.1382
-53.8481
-53.7344
-53.5536
-53.7742
-52.895
-53.3366
-52.9644
-52.3435
-52.1381
-51.3859
-51.0775
-49.7504
-56.106
-56.2269
-56.9721
-57.4235
-57.2004
-56.9025
-57.0871
-56.8484
-56.8234
-56.4057
-56.4747
-56.3312
-55.6744
-54.8052
-54.0934
-52.9376
-50.6708
-56.6755
-57.2504
-57.7729
-58.4978
-59.2143
-59.3416
-59.1949
-59.081
-59.1094
-58.9864
-59.0636
-58.9401
-58.6507
-59.0285
-60.169
-58.308
-57.1082
-55.8808
-61.1772
-60.9034
-60.7608
-60.9644
-61.0259
-61.4424
-61.9167
-62.0628
-62.176
-62.417
-62.0619
-61.6526
-60.9254
-61.2439
-62.3765
-63.3396
-64.0363
-64.2536
-64.4037
-60.9602
-62.1995
-63.3972
-63.4794
-63.2928
-62.802
-63.6078
-64.3088
-65.1221
-65.7295
-65.7817
-65.6433
-65.3861
-65.0841
-63.1819
-63.2793
-63.2668
-63.2384
-63.3517
-63.9076
-61.7642
-62.1844
-63.2085
-64.21
-64.4005
-64.6313
-64.11
-64.0309
-64.1522
-64.5435
-64.9346
-65.6032
-66.2334
-66.6483
-66.554
-65.6248
-64.6661
-64.5823
-63.8213
-62.6722
-61.2523
-60.3723
-61.3601
-61.714
-62.2273
-62.94
-63.2968
-63.1891
-63.0668
-62.8842
-63.0306
-63.2249
-63.5381
-63.9394
-64.3601
-64.7695
-65.1833
-65.3002
-64.5693
-64.5439
-64.046
-64.9652
-65.1477
-42.7681
-42.8755
-42.8991
-43.0165
-43.1093
-42.9207
-43.2555
-43.3074
-43.2546
-43.337
-43.4715
-43.481
-43.4673
-43.5336
-43.6466
-43.7244
-43.7351
-43.6537
-43.6147
-43.6537
-43.5816
-44.0923
-44.0851
-43.9572
-43.9336
-43.9989
-43.8901
-43.8703
-44.6332
-44.5834
-44.4405
-44.3807
-44.3515
-44.2523
-44.2121
-44.2281
-44.2123
-45.199
-45.0636
-45.0341
-44.8704
-44.8882
-44.7465
-44.6884
-44.6845
-44.595
-44.6493
-45.9937
-45.786
-45.6852
-45.537
-45.4873
-45.3963
-45.2868
-45.1757
-45.1764
-45.0451
-45.0694
-46.8588
-46.8332
-46.7503
-46.3891
-46.4992
-46.2879
-46.1312
-46.0527
-46.0216
-45.888
-45.7911
-45.7616
-45.5913
-48.2454
-47.9854
-48.0306
-47.7737
-47.5617
-47.4665
-47.2708
-47.2129
-47.0201
-46.8201
-46.7224
-46.6355
-46.2548
-46.3712
-49.091
-49.0032
-49.1015
-49.2478
-49.1676
-49.0103
-48.865
-48.5692
-48.4456
-47.9874
-47.9899
-47.8358
-47.6284
-47.2972
-47.037
-51.6056
-51.4696
-51.2176
-51.2391
-50.9937
-50.8146
-50.7145
-50.759
-50.5349
-50.1186
-50.2299
-49.6686
-49.3297
-49.3634
-49.2071
-49.0025
-53.8717
-54.1429
-54.1637
-54.2674
-54.1475
-53.9236
-53.7778
-53.6962
-53.1549
-53.3451
-52.6006
-52.8166
-52.2207
-52.0778
-51.2962
-50.88
-49.8801
-55.9216
-56.2866
-56.4978
-57.1783
-57.3835
-57.1517
-56.9956
-57.0731
-56.6255
-56.5765
-56.4907
-56.0982
-56.2799
-55.5455
-54.8412
-54.1139
-53.0684
-50.4234
-56.3237
-56.8691
-57.3851
-57.7861
-58.6094
-59.1493
-59.2324
-59.1832
-59.129
-59.0777
-58.9304
-58.9375
-58.8929
-58.761
-59.041
-59.8623
-58.7066
-57.3774
-55.8893
-59.7035
-61.3299
-60.7814
-60.824
-61.1073
-61.2862
-61.4945
-61.9405
-62.0272
-62.2994
-62.3297
-61.8785
-61.4458
-61.1743
-61.3522
-62.3578
-63.2296
-64.2337
-64.2519
-64.0607
-60.4863
-61.2356
-62.3662
-63.5057
-63.6786
-63.4048
-63.3081
-63.6413
-64.2821
-64.9987
-65.5398
-65.5751
-65.4934
-65.2499
-64.8814
-63.076
-63.2393
-63.2676
-63.2997
-63.1191
-63.3318
-62.5328
-62.107
-62.6192
-63.4603
-64.3932
-64.5593
-64.5832
-64.0604
-63.9672
-64.077
-64.4077
-64.7368
-65.4195
-66.0278
-66.4267
-66.2737
-65.5075
-64.6109
-64.3805
-63.7157
-62.7287
-61.1577
-59.6142
-60.417
-61.3717
-61.745
-62.2904
-63.0027
-63.3095
-63.1859
-63.047
-62.8836
-63.019
-63.2066
-63.493
-63.9018
-64.3127
-64.7111
-65.0889
-65.2767
-64.5489
-64.5244
-64.0741
-64.9018
-65.1814
-42.679
-42.769
-42.7542
-42.8141
-42.9089
-42.9135
-43.0254
-43.0919
-43.047
-43.0069
-43.3097
-43.2363
-43.2842
-43.2554
-43.2216
-43.5188
-43.4549
-43.5045
-43.4182
-43.4477
-43.5004
-43.7948
-43.721
-43.6724
-43.6605
-43.6999
-43.6379
-43.6367
-44.1994
-44.1455
-44.0328
-44.0079
-43.9295
-43.9
-43.8921
-43.8658
-44.6665
-44.6211
-44.5891
-44.4208
-44.3544
-44.2875
-44.2124
-44.2434
-44.1846
-44.2119
-45.3005
-45.2019
-45.1067
-45.0197
-44.9597
-44.8133
-44.7991
-44.6915
-44.6945
-44.6211
-44.6448
-46.0315
-45.9503
-45.8325
-45.6607
-45.5257
-45.4267
-45.3361
-45.2446
-45.2236
-45.1366
-45.0475
-45.1213
-47.09
-46.9384
-46.815
-46.7438
-46.5266
-46.4364
-46.1745
-46.1937
-46.0943
-46.0064
-45.8619
-45.7144
-45.5768
-45.5582
-48.3795
-48.053
-47.96
-47.9012
-47.6637
-47.584
-47.489
-47.3221
-47.28
-46.9741
-46.8811
-46.6624
-46.5015
-46.4692
-46.2615
-49.2919
-49.0246
-49.0464
-49.2487
-49.2791
-49.0861
-49.0581
-48.8715
-48.6422
-48.4075
-48.2832
-47.9249
-47.738
-47.6724
-47.2921
-47.0285
-51.6953
-51.6261
-51.4161
-51.3147
-51.1088
-50.9946
-50.9287
-50.6988
-50.7026
-50.4116
-50.1136
-49.8423
-49.7329
-49.3332
-49.4157
-49.1462
-48.8888
-54.0064
-54.0969
-54.2982
-54.3409
-54.2896
-54.0698
-53.9234
-53.8753
-53.3726
-53.2335
-53.1674
-52.9483
-52.6385
-52.1034
-52
-51.1025
-50.9189
-49.7876
-55.6573
-56.3499
-56.4311
-56.7212
-57.2993
-57.339
-57.083
-57.023
-57.0423
-56.7448
-56.617
-56.3094
-56.0445
-56.0692
-55.4853
-54.8711
-54.1305
-52.5795
-50.6478
-56.0763
-56.5908
-57.0892
-57.5839
-57.9772
-58.7267
-59.1667
-59.0964
-59.1301
-58.9991
-58.9586
-58.9559
-58.8198
-58.6963
-58.8447
-59.1799
-59.6158
-59.2254
-57.7629
-54.949
-58.4845
-60.0766
-61.3456
-60.6471
-60.8841
-61.1969
-61.4167
-61.6066
-61.8955
-62.068
-62.0893
-62.2048
-61.7815
-61.2689
-60.9656
-61.2818
-62.3532
-63.2819
-64.4125
-63.9259
-62.8538
-60.8011
-60.8988
-61.4539
-62.5971
-63.5655
-63.8936
-63.4807
-63.1978
-63.6348
-64.2012
-64.8703
-65.2116
-65.3108
-65.2747
-65.0198
-64.4755
-63.1274
-63.106
-63.2797
-63.1722
-62.8682
-62.5023
-60.0567
-62.6346
-62.3595
-63.114
-63.6645
-64.5535
-64.7096
-64.5547
-63.9964
-63.9049
-63.9933
-64.2546
-64.6078
-65.2366
-65.8021
-66.1803
-65.9876
-65.4265
-64.5603
-64.2121
-63.6164
-62.7662
-61.0476
-59.0678
-59.6868
-60.4795
-61.379
-61.7587
-62.3504
-63.0766
-63.3185
-63.1755
-63.0191
-62.8761
-62.9923
-63.1799
-63.4512
-63.8574
-64.255
-64.6388
-64.9759
-65.2534
-64.5277
-64.4985
-64.0977
-64.8457
-65.1929
-42.5749
-42.6965
-42.6616
-42.7649
-42.7466
-42.7523
-42.883
-42.9308
-42.93
-42.9235
-43.141
-43.0459
-43.1056
-43.005
-43.0048
-43.3099
-43.3084
-43.2581
-43.2618
-43.2588
-43.2599
-43.5834
-43.5103
-43.4501
-43.4885
-43.4266
-43.5088
-43.4089
-43.8422
-43.7972
-43.7782
-43.6995
-43.7168
-43.6554
-43.6269
-43.7025
-44.2557
-44.1897
-44.1069
-44.0671
-43.9691
-43.9127
-43.9055
-43.9405
-43.8548
-44.8482
-44.7085
-44.5935
-44.5424
-44.4373
-44.3363
-44.2921
-44.2862
-44.3241
-44.1014
-44.2008
-45.4123
-45.3264
-45.169
-45.0675
-45.0386
-44.8962
-44.8023
-44.7223
-44.6449
-44.6177
-44.6479
-44.6263
-46.2113
-46.0667
-45.9841
-45.8219
-45.6985
-45.5404
-45.4627
-45.3655
-45.2643
-45.2482
-45.1261
-45.081
-44.9728
-47.2531
-47.1196
-46.9102
-46.7518
-46.6752
-46.5355
-46.4949
-46.4121
-46.2141
-46.1686
-45.9417
-45.8147
-45.749
-45.5496
-45.5758
-48.6576
-48.301
-48.1183
-48.0153
-47.8954
-47.5663
-47.6117
-47.4393
-47.3315
-47.1808
-46.9872
-46.8507
-46.627
-46.4695
-46.4901
-46.3229
-49.7111
-49.3869
-49.1173
-49.4489
-49.2722
-49.1148
-49.0686
-48.8733
-48.8716
-48.6625
-48.4305
-48.2201
-47.944
-47.7775
-47.6837
-47.2967
-46.9264
-51.9645
-51.697
-51.5253
-51.4421
-51.2848
-50.9856
-50.9881
-50.8973
-50.8352
-50.6068
-50.4413
-50.182
-49.9722
-49.6829
-49.3509
-49.2391
-48.9192
-48.8474
-54.1698
-54.164
-54.1446
-54.3635
-54.4015
-54.2341
-54.0564
-53.888
-53.6369
-53.3128
-53.4168
-53.2557
-53.1939
-52.6595
-51.9062
-51.8745
-51.047
-50.861
-49.7777
-55.5822
-55.9112
-56.5423
-56.6372
-56.8708
-57.3618
-57.2627
-56.9631
-56.9777
-56.7629
-56.6291
-56.5404
-56.1939
-56.0229
-56.047
-55.2735
-55.0388
-54.1309
-52.2936
-50.0654
-55.9264
-56.3844
-56.7776
-57.2552
-57.7114
-58.1789
-58.6937
-59.1052
-59.0877
-59.1611
-58.9506
-58.7982
-58.7904
-58.7462
-58.5822
-58.807
-59.253
-59.6354
-59.1985
-57.5017
-54.1696
-56.9517
-58.9865
-60.3861
-61.1448
-60.5922
-60.9695
-61.3118
-61.4474
-61.6473
-61.8574
-61.9996
-61.9815
-62.1639
-61.6434
-60.9608
-60.7475
-61.3721
-62.3343
-63.5071
-64.3417
-63.4934
-61.4297
-59.6825
-61.5373
-61.4564
-61.6475
-62.8973
-63.6315
-64.0824
-63.5962
-62.9938
-63.6253
-64.0993
-64.6849
-64.9719
-65.1719
-64.9573
-64.7124
-64.0607
-62.9384
-62.9475
-63.2677
-62.9897
-62.398
-61.7547
-59.8105
-60.3752
-62.7145
-62.7774
-63.3889
-63.85
-64.6544
-64.8528
-64.5112
-63.934
-63.8396
-63.8909
-64.1092
-64.4254
-65.0637
-65.5525
-65.8941
-65.7074
-65.3388
-64.5207
-64.0747
-63.5712
-62.7566
-60.9708
-58.4559
-59.0724
-59.8212
-60.5799
-61.407
-61.7713
-62.3969
-63.1456
-63.3213
-63.1656
-62.9844
-62.8686
-62.9735
-63.1586
-63.4199
-63.812
-64.1903
-64.5343
-64.8604
-65.2272
-64.5056
-64.4691
-64.1173
-64.8213
-65.1653
-42.5037
-42.5679
-42.5631
-42.674
-42.6453
-42.6392
-42.7814
-42.7548
-42.7857
-42.7631
-42.9167
-42.9219
-42.9394
-42.926
-42.9186
-43.1162
-43.1474
-43.0908
-43.0888
-43.0421
-43.0542
-43.3678
-43.3376
-43.3074
-43.2877
-43.2426
-43.1739
-43.2283
-43.651
-43.5434
-43.5262
-43.3922
-43.4347
-43.4007
-43.5005
-43.4218
-43.9036
-43.8379
-43.8394
-43.778
-43.7148
-43.6519
-43.6837
-43.6497
-43.6924
-44.327
-44.2683
-44.1965
-44.0248
-44.0212
-43.9172
-43.9668
-43.9186
-43.8614
-43.8462
-44.9877
-44.8093
-44.7057
-44.6155
-44.5412
-44.4166
-44.3709
-44.3587
-44.1768
-44.256
-44.102
-44.2341
-45.5038
-45.3486
-45.2938
-45.1809
-45.0439
-45.015
-44.8742
-44.7335
-44.6972
-44.6953
-44.668
-44.6389
-44.6384
-46.3486
-46.2103
-46.0556
-45.9976
-45.7464
-45.6578
-45.5475
-45.3996
-45.3946
-45.2477
-45.1857
-45.0692
-45.0023
-44.9664
-47.6152
-47.3296
-47.2101
-46.8715
-46.8479
-46.7023
-46.5807
-46.4518
-46.3286
-46.2396
-45.8715
-45.9304
-45.8706
-45.7471
-45.6618
-45.576
-48.7462
-48.4837
-48.3805
-48.2734
-47.9529
-47.87
-47.675
-47.5461
-47.4456
-47.2852
-47.1596
-47.0479
-46.746
-46.6198
-46.5232
-46.5351
-46.3669
-49.9946
-49.2736
-49.3311
-49.7274
-49.4044
-49.2524
-49.1486
-48.9999
-49.008
-48.8475
-48.732
-48.4786
-48.1401
-47.9503
-47.7919
-47.6085
-47.2303
-46.9179
-52.3913
-51.8092
-51.7574
-51.6169
-51.3641
-51.1285
-50.9209
-50.9337
-50.6811
-50.7858
-50.6034
-50.4138
-50.1867
-49.9133
-49.5244
-49.4368
-49.2409
-48.9658
-48.6337
-54.0492
-54.23
-54.2547
-54.2213
-54.483
-54.2644
-54.2251
-53.9669
-53.8163
-53.5777
-53.3127
-53.4463
-53.3635
-53.1969
-52.6304
-51.949
-51.6513
-51.0247
-50.1552
-49.7361
-55.1767
-55.5935
-55.8643
-56.5716
-56.6045
-56.8834
-57.3063
-56.9768
-56.8811
-56.8622
-56.7108
-56.5324
-56.4834
-56.1074
-56.1139
-56.0453
-55.1351
-55.0112
-53.627
-52.6474
-49.9971
-55.866
-56.2152
-56.7597
-57.147
-57.4691
-57.8595
-58.3312
-58.8256
-59.0415
-59.033
-59.1652
-58.893
-58.786
-58.6679
-58.7242
-58.8174
-58.705
-59.4354
-59.5547
-58.839
-57.4903
-53.2188
-56.6695
-57.3674
-59.2931
-60.5792
-60.8766
-60.5538
-61.087
-61.3593
-61.4894
-61.6178
-61.7343
-61.813
-61.9228
-61.8061
-61.4319
-60.7435
-60.6851
-61.3332
-62.3669
-63.7682
-64.146
-62.6939
-60.0108
-58.4672
-59.8967
-62.0624
-61.904
-62.0315
-62.9382
-63.7462
-64.2625
-63.6756
-63.0622
-63.568
-63.9804
-64.4053
-64.7752
-64.8575
-64.6601
-64.3096
-63.6852
-62.6003
-62.8429
-63.2171
-62.8176
-61.8344
-61.1376
-59.1739
-60.104
-60.7009
-62.768
-63.1839
-63.5317
-63.9835
-64.7144
-64.991
-64.4358
-63.8556
-63.7758
-63.7816
-63.9401
-64.214
-64.763
-65.271
-65.5473
-65.443
-65.2506
-64.4929
-63.9457
-63.402
-62.6223
-60.8813
-58.5015
-58.0641
-59.0946
-59.9356
-60.6827
-61.4519
-61.7938
-62.4481
-63.206
-63.3219
-63.1497
-62.9497
-62.8581
-62.9643
-63.1442
-63.4001
-63.7651
-64.114
-64.3922
-64.7507
-65.2013
-64.4777
-64.4381
-64.1081
-64.8079
-65.0905
-42.3773
-42.4944
-42.5028
-42.5819
-42.5757
-42.5613
-42.703
-42.6518
-42.6502
-42.6622
-42.7899
-42.7873
-42.7738
-42.7736
-42.7536
-42.9491
-42.991
-42.9271
-42.9444
-42.8657
-42.8963
-43.1825
-43.1206
-43.1241
-43.1036
-43.0506
-43.2265
-43.0499
-43.3832
-43.3861
-43.3095
-43.263
-43.2454
-43.1848
-43.1621
-43.2158
-43.8086
-43.6148
-43.5736
-43.5303
-43.4457
-43.4655
-43.4311
-43.4428
-43.4065
-44.0088
-43.8771
-43.8541
-43.7325
-43.7522
-43.6694
-43.655
-43.6574
-43.6558
-43.6709
-44.4504
-44.3362
-44.2429
-44.1808
-44.0377
-43.9914
-43.9619
-43.8592
-43.9848
-43.9527
-43.8815
-44.9328
-44.8467
-44.7662
-44.7037
-44.6043
-44.4868
-44.4395
-44.3409
-44.3158
-44.265
-44.216
-44.1364
-44.2227
-45.7483
-45.5368
-45.4084
-45.3044
-45.2166
-45.0177
-44.8173
-44.8548
-44.7911
-44.7084
-44.6911
-44.5967
-44.5969
-44.5985
-46.4406
-46.3912
-46.2491
-46.0661
-45.9267
-45.7554
-45.5873
-45.5704
-45.434
-45.2622
-45.2838
-45.0948
-45.0562
-45.0178
-44.9236
-47.6466
-47.4087
-47.3805
-47.0062
-46.8204
-46.8834
-46.7288
-46.566
-46.4145
-46.2531
-46.1226
-45.958
-45.888
-45.8099
-45.7269
-45.6619
-45.612
-48.7702
-48.7243
-48.5359
-48.4319
-48.1954
-47.8517
-47.8025
-47.7316
-47.5109
-47.4875
-47.2883
-47.0969
-46.9263
-46.7426
-46.6245
-46.5079
-46.4751
-46.3684
-50.3454
-49.6608
-49.6819
-49.5944
-49.6275
-49.454
-49.219
-49.1548
-49.007
-48.8974
-48.7076
-48.6816
-48.294
-48.1095
-47.872
-47.7389
-47.6381
-47.2985
-46.9025
-52.0999
-52.1408
-51.8556
-51.7387
-51.6605
-51.3337
-51.0509
-50.9533
-50.8318
-50.8071
-50.6643
-50.5547
-50.3623
-50.1124
-49.7187
-49.6019
-49.4859
-49.21
-48.8031
-48.6311
-53.8744
-54.1337
-54.2943
-54.236
-54.0938
-54.3402
-54.1607
-54.06
-53.9409
-53.7883
-53.5243
-53.3386
-53.3371
-53.2698
-52.8502
-52.0927
-51.9859
-51.6251
-50.7762
-50.2237
-49.4244
-54.65
-55.117