/*--------------------------------*- C++ -*----------------------------------*\
  =========                 |
  \\      /  F ield         | OpenFOAM: The Open Source CFD Toolbox
   \\    /   O peration     | Website:  https://openfoam.org
    \\  /    A nd           | Version:  7
     \\/     M anipulation  |
\*---------------------------------------------------------------------------*/
FoamFile
{
    version     2.0;
    format      ascii;
    class       surfaceScalarField;
    location    "1.5";
    object      phi_0;
}
// * * * * * * * * * * * * * * * * * * * * * * * * * * * * * * * * * * * * * //

dimensions      [0 3 -1 0 0 0 0];

internalField   nonuniform List<scalar> 
54095
(
0.000198765
-9.56738e-05
-0.000369206
0.000208454
-0.000178755
-0.00200898
0.000165033
-9.42157e-05
0.000416693
0.000219718
-0.000104033
-0.000484891
-2.61086e-06
4.16571e-05
-0.00304511
0.000132925
-0.000157918
-0.00177289
0.000195252
-0.000181525
-0.00180299
7.61943e-05
-4.95173e-05
0.00159295
0.000178842
-9.78082e-05
0.000231626
0.000229532
-0.000113554
-0.000600869
-2.80064e-05
0.000415987
-0.00742762
-4.47326e-05
0.000347204
-0.00322396
-0.000163014
2.18944e-05
-0.00270874
0.000137259
-5.10811e-05
1.68635e-05
9.96584e-05
-0.000166585
-0.00170865
0.000165158
-0.000181894
-0.00155672
2.03286e-05
-2.55801e-05
0.000937991
0.000104602
-4.74633e-05
0.001438
0.000197522
-0.000100233
2.07824e-05
0.000236121
-0.000123044
-0.000713945
-0.000244218
0.000426079
-0.00454732
-0.000397071
0.000664477
-0.00490859
-0.000453766
0.000447165
-0.00758403
2.06266e-05
0.000407451
-0.00338029
-5.89133e-05
0.000371445
0.00170536
-0.000229661
0.000184898
-0.00249882
-4.69018e-05
3.84867e-05
-0.00138717
0.000219443
-6.30888e-05
-0.000201473
0.000141422
-0.000185398
-0.00164904
0.000168627
-0.000162593
-0.00132663
7.39957e-05
-2.43147e-05
0.000735487
1.70598e-05
-2.40752e-05
0.000897544
0.000121401
-4.4094e-05
0.00126046
0.000196518
-0.000103651
-0.000195129
0.00021614
-0.000129846
-0.000800239
-0.000942846
0.000511912
-0.00455605
-0.000776307
0.000723631
-0.00596725
-0.00050872
0.000338261
-0.00483063
-9.85482e-05
0.000737767
-0.00389074
-0.000543363
0.000683755
-0.00466073
-0.000848156
0.000424393
-0.00738993
6.07078e-06
0.000357458
-0.00329575
-1.51761e-05
0.000457941
-0.00323216
-4.4863e-05
0.000414197
0.00166235
-0.000332576
0.000175952
-0.00217356
9.64746e-05
6.04172e-05
-0.00127377
-6.33411e-05
3.52333e-05
-0.00140509
0.000311525
-8.51886e-05
-0.000491806
0.000136589
-0.000156527
-0.00159518
0.000119135
-0.000120783
-0.00110884
-6.66386e-06
-2.28102e-05
0.000973973
7.15142e-05
-2.40393e-05
0.000663937
1.75681e-05
-2.40528e-05
0.000859934
0.000113077
-4.1382e-05
0.00108512
0.000195717
-0.000107314
-0.000413378
0.000194685
-0.000130284
-0.000864641
-0.00127795
0.000143699
-0.00565516
-0.000774975
0.000569136
-0.00767497
-0.000988168
0.000440793
-0.0045174
-0.000210037
0.00100962
-0.00628275
-0.000884137
0.000708276
-0.00599649
-0.0010117
0.00042992
-0.005097
-0.000118873
0.00062753
-0.00411692
-0.000230414
0.000761512
-0.00375326
-0.000436977
0.000657301
-0.00450152
-0.00116938
0.000436158
-0.00698928
8.06634e-05
0.000329097
-0.00301545
-4.3447e-05
0.000409367
-0.00326707
2.78578e-05
0.00046477
-0.00299907
-1.21493e-06
0.000400953
0.00157515
-0.000472482
0.00021825
-0.0018002
1.77965e-05
5.34866e-05
-0.00136989
7.29947e-05
5.94765e-05
-0.0012995
-8.46545e-05
3.23498e-05
-0.00142041
0.000295423
-6.71865e-05
-0.000763492
0.000178805
-0.000108145
-0.00159091
8.27011e-05
-9.82391e-05
-0.000898621
-5.20556e-05
-1.49986e-05
0.00135783
2.6337e-07
-2.25633e-05
0.000972234
6.89461e-05
-2.42349e-05
0.000595173
2.04068e-05
-2.50704e-05
0.000823216
0.000101848
-3.99948e-05
0.000915952
0.000176633
-0.000108442
-0.000611852
0.000170731
-0.000126011
-0.000909361
-0.00156416
0.000139038
-0.00415995
-0.000908334
0.000249998
-0.00615159
-0.0014032
0.000224607
-0.00546473
-0.000357813
0.000809739
-0.00767921
-0.000852734
0.000612346
-0.00787793
-0.00104299
0.000362179
-0.00484829
-0.000368453
0.00114166
-0.00588715
-0.000123665
0.000878756
-0.00655998
-0.00069481
0.000916472
-0.00622521
-0.00125099
0.000648034
-0.00566343
9.35656e-05
0.00053605
-0.00421004
-5.76747e-07
0.000604481
-0.00400276
-0.000155979
0.000760465
-0.00367259
-0.000168258
0.000655303
-0.00455362
-0.00132215
0.000400807
-0.00654043
-9.12704e-06
0.000289395
-0.00315695
1.4866e-05
0.000376771
-0.00292473
-0.000134933
0.000444916
-0.00319694
2.33463e-05
0.00045099
-0.00277703
5.75672e-05
0.000398282
0.00151636
-0.000504213
0.000229499
-0.00144278
-0.000114501
7.34087e-05
-0.00117059
2.85072e-05
5.12603e-05
-0.00138991
5.5782e-05
5.86524e-05
-0.00131264
-5.3723e-05
3.0115e-05
-0.00144358
0.000242667
-4.70406e-05
-0.000965415
0.000157206
-8.60336e-05
-0.00158368
3.60922e-05
-6.86346e-05
-0.000695347
-5.46423e-05
-3.30396e-06
0.00191968
-4.73145e-05
-1.38541e-05
0.00139643
8.88906e-06
-2.19241e-05
0.000961034
6.60555e-05
-2.4575e-05
0.000528622
2.45404e-05
-2.61546e-05
0.000784835
9.60935e-05
-3.88971e-05
0.000750313
0.000158155
-0.000109158
-0.00078686
0.000148442
-0.000119812
-0.000937991
-0.00167671
4.99178e-05
-0.00363536
-0.00118674
0.000396202
-0.00504697
-0.00169549
0.000223759
-0.00409143
-0.000659349
0.000530399
-0.00698598
-0.000975512
0.000320716
-0.00612492
-0.00137828
0.00025539
-0.00538483
-0.000145272
0.0010614
-0.00754908
-0.000138581
0.000914211
-0.00796616
-0.000793262
0.000588387
-0.00800569
-0.00102082
0.000268103
-0.00534656
6.16009e-05
0.000949708
-0.00532343
-5.28746e-05
0.0010522
-0.0060083
-5.01261e-07
0.000899053
-0.00669804
-0.00031038
0.00136825
-0.0068033
-0.00132932
0.000664537
-0.00632079
0.000172221
0.000298824
-0.00496009
0.000302399
0.000496022
-0.00438911
-0.000158987
0.000709321
-0.00392757
-4.64018e-05
0.000740503
-0.00368804
-0.000101392
0.000625669
-0.00461953
-0.00127506
0.000373948
-0.00614352
-0.000130288
0.000233028
-0.00366552
-4.30475e-05
0.00035663
-0.00306525
-3.61538e-05
0.000409045
-0.00279692
-0.000143864
0.000461738
-0.00311755
8.19067e-06
0.000428535
-0.00257281
7.26402e-05
0.000403544
0.00142688
-0.000483275
0.000225876
-0.00114929
-0.000144873
9.06015e-05
-0.0012903
-0.000100601
6.85504e-05
-0.00113459
2.52428e-05
4.97495e-05
-0.00139736
5.16305e-05
5.48506e-05
-0.00132295
1.15721e-05
2.62822e-05
-0.00150393
0.00023274
-3.4005e-05
-0.00115409
0.000138155
-6.30417e-05
-0.00156928
-7.49665e-06
-5.93005e-05
-0.000480108
-2.74533e-05
6.58601e-06
0.00208014
-4.59596e-05
-8.81879e-07
0.00195266
-4.20532e-05
-1.2277e-05
0.00142884
1.26311e-05
-1.93324e-05
0.000943161
6.31307e-05
-2.51001e-05
0.000464437
2.71075e-05
-2.74529e-05
0.000746284
9.35289e-05
-4.0776e-05
0.000588402
0.00014889
-0.000112314
-0.000943248
0.000132173
-0.000113601
-0.000956562
-0.00162868
-2.33867e-05
-0.00324684
-0.00134914
0.000176198
-0.00448509
-0.00174533
5.41194e-05
-0.00363964
-0.000824731
0.000473896
-0.00530601
-0.00126773
0.000530231
-0.00506122
-0.00163712
0.000210476
-0.00404306
-0.000310611
0.000802481
-0.00691432
-0.000596746
0.000574034
-0.00678113
-0.000973854
0.000451123
-0.00614006
-0.00134295
0.000182743
-0.00524544
0.000128781
0.0012051
-0.00673392
-6.4281e-05
0.00104022
-0.00766368
-0.000289434
0.000977561
-0.0080664
-0.000603988
0.000606313
-0.00805029
-0.0011532
0.00023346
-0.00575614
0.000310115
0.00095833
-0.00507762
0.00064859
0.000959583
-0.005577
-0.000199354
0.000999348
-0.00606823
0.000371317
0.00103417
-0.00678167
-0.00034326
0.0015751
-0.007472
-0.00133447
0.000578665
-0.00684005
0.000137129
4.96697e-05
-0.00558063
0.000208304
0.000322888
-0.00503831
-0.000210731
0.000618632
-0.00412385
-0.000282041
0.000697098
-0.00374598
-1.96512e-05
0.000634982
-0.00366951
-5.10206e-05
0.000543162
-0.00466508
-0.00115438
0.000476661
-0.00594908
-0.000188569
0.000223687
-0.00376622
-0.00010929
0.000282359
-0.00358256
-8.3816e-05
0.000396608
-0.00294376
-4.69169e-05
0.000444821
-0.00268146
-4.51958e-05
0.000438712
-0.00307096
5.68472e-05
0.000365915
-0.00235928
0.000122524
0.000356251
0.00131214
-0.000397892
0.000249956
-0.00100885
-0.000117435
0.00010295
-0.000914939
-0.000152405
8.88169e-05
-0.00120412
-0.000100024
6.63922e-05
-0.00109326
3.46647e-05
4.69337e-05
-0.00141148
4.06017e-05
4.56607e-05
-0.0013198
6.40538e-05
2.5619e-05
-0.0016005
0.000203823
-2.05704e-05
-0.00130686
0.000128884
-5.88758e-05
-0.0015497
-1.28208e-05
-5.90707e-05
-0.000276044
-1.71643e-05
1.15079e-05
0.00200163
-1.92306e-05
7.26286e-06
0.00209123
-3.96803e-05
7.88142e-07
0.00197928
-3.99536e-05
-9.91069e-06
0.00145937
1.7926e-05
-1.79492e-05
0.000918084
6.02307e-05
-2.63134e-05
0.000403067
2.75414e-05
-2.89816e-05
0.000706948
9.61219e-05
-4.61891e-05
0.000426155
0.000143075
-0.000117053
-0.00108287
0.000120115
-0.000108188
-0.00096849
6.17999e-05
-0.00314168
-0.00164339
0.000143296
-0.00395589
-0.00165788
-6.97555e-05
-0.00326454
-0.000834577
0.000283407
-0.00511075
-0.00147944
0.000198775
-0.00441803
-0.00170725
6.81111e-05
-0.00363762
-0.000497674
0.000641199
-0.00558178
-0.000455131
0.000551835
-0.00546923
-0.00120038
0.000441367
-0.00506558
-0.00162016
0.000165522
-0.00393137
-3.75202e-07
0.00097283
-0.00695391
-0.000342554
0.000788313
-0.00685033
-0.000717577
0.000722648
-0.00662451
-0.00105901
0.00042258
-0.00592487
-0.00144318
0.000108085
-0.00506355
5.34153e-05
0.00133417
-0.00584387
0.0004503
0.00127465
-0.00677005
-0.000192037
0.00103202
-0.00772546
-5.41952e-05
0.000955036
-0.00798961
-0.00067362
0.000632306
-0.00811877
-0.00123452
0.000197943
-0.00605404
0.000210504
0.000877659
-0.00532796
0.000506436
0.000959455
-0.00537562
-0.000371798
0.000959872
-0.00537646
-0.000168919
0.000926144
-0.00607332
0.000370912
0.00120585
-0.00680299
-0.000369062
0.00144064
-0.00801593
-0.00129422
0.000455862
-0.00715606
-5.55969e-05
-8.20443e-05
-0.00533146
7.45276e-05
4.30137e-05
-0.00548458
-0.000177359
0.000395147
-0.00472128
2.84099e-05
0.000673994
-0.00417607
-0.000285903
0.000655884
-0.00352618
6.7368e-05
0.000528644
-0.00366551
0.000101833
0.000492474
-0.0046602
-0.000830687
0.000548058
-0.00606434
-0.000110815
0.000218663
-0.00372934
-0.000157422
0.000237767
-0.00371661
-0.000103851
0.000329253
-0.00351138
0.000112828
0.00042771
-0.00300481
-7.70894e-05
0.000451838
-0.00257689
4.2206e-05
0.000377884
-0.00306108
6.50642e-05
0.000281249
-0.00214552
4.24532e-05
0.000396828
0.0012517
-0.000333643
0.000277063
-0.000965092
-9.20409e-05
0.000115311
4.71975e-06
-0.000115197
9.79779e-05
-0.000828133
-0.000141925
8.81436e-05
-0.00112363
-0.000109582
6.59784e-05
-0.00104268
3.65538e-05
4.09494e-05
-0.0014254
4.81995e-05
4.71297e-05
-0.00132928
2.91582e-05
2.75809e-05
-0.00165027
0.000121429
-1.37668e-05
-0.00137727
0.000126946
-7.65439e-05
-0.00151609
2.47558e-05
-6.2763e-05
-0.000117922
-3.35941e-05
1.22831e-05
0.00208496
-9.28443e-06
1.11225e-05
0.00200705
-1.09343e-05
7.79028e-06
0.00209516
-3.34723e-05
8.66785e-07
0.00200197
-3.57292e-05
-9.81755e-06
0.00148697
2.27308e-05
-1.85126e-05
0.000887552
5.75398e-05
-2.67597e-05
0.000343305
2.70373e-05
-3.07125e-05
0.000664434
9.53023e-05
-5.32294e-05
0.000267029
0.000142818
-0.000122085
-0.00121179
0.000113559
-0.000103429
-0.00097862
0.000165441
-0.00349183
-0.00170757
5.52694e-05
-0.00314726
-0.000984262
0.00035988
-0.00461062
-0.00160941
0.000134249
-0.00402992
-0.00163352
-3.05781e-05
-0.0033077
-0.00060166
0.00044495
-0.00545805
-0.000562244
0.000267454
-0.00507232
-0.0013168
0.000160531
-0.00439404
-0.00167281
9.10001e-05
-0.00367597
-0.00023141
0.000850075
-0.0055786
-0.000533436
0.000666654
-0.00550571
-0.000766821
0.000524515
-0.00550314
-0.00137782
0.000345141
-0.0049264
-0.00166927
0.000246622
-0.0039519
-0.000107597
0.00109181
-0.00658065
-6.48845e-05
0.00103033
-0.00668075
-0.000302256
0.000832342
-0.0068498
-0.000844897
0.000801594
-0.00621282
-0.000999794
0.000393492
-0.00588411
-0.00149899
0.000192486
-0.00499157
-0.000102294
0.00133673
-0.00605204
0.000175809
0.00146875
-0.00570735
-0.000236736
0.0011615
-0.00703459
-0.000134235
0.000973932
-0.00777904
8.52394e-05
0.00100338
-0.00807501
-0.000800326
0.000625854
-0.00811542
-0.00116775
0.000152375
-0.00633289
-2.26977e-05
0.000733529
-0.00582673
0.000275131
0.000871437
-0.00544054
-0.000135001
0.00091192
-0.00537003
0.000145305
0.000843037
-0.00541025
-0.000203697
0.000940247
-0.00588993
0.000424509
0.00124467
-0.00696415
-0.000312157
0.00109554
-0.00824162
-0.000960856
0.00051424
-0.00754014
-8.38208e-05
-0.000100151
-0.00524316
1.29925e-06
-8.01902e-05
-0.00536697
-7.67105e-05
0.000138091
-0.00525466
0.000224406
0.000603163
-0.00476203
-0.000164414
0.000586845
-0.0040197
-0.000261442
0.000585139
-0.00327903
0.000146833
0.000461453
-0.00371626
0.000103991
0.000422
-0.00459568
-0.000582398
0.000516716
-0.00633231
-0.000185835
0.000273982
-0.00356278
-0.000142311
0.000230522
-0.00369498
-0.000159607
0.00027991
-0.00364959
1.31258e-05
0.000359267
-0.00356564
-8.45733e-05
0.000440598
-0.00287244
-6.14622e-05
0.000451147
-0.00254049
-5.54915e-06
0.000302476
-0.0030476
-5.41072e-05
0.000265093
-0.00183825
0.000120152
0.000411005
0.00112455
-0.000162286
0.000272782
-0.00105083
-0.000101644
0.000112935
0.000436255
-7.57568e-05
0.000109814
5.93557e-05
-8.35647e-05
9.40699e-05
-0.000761429
-0.000130168
8.88865e-05
-0.00104984
-0.000123409
6.63507e-05
-0.0009804
2.67304e-05
4.61143e-05
-0.00142838
4.50489e-05
3.838e-05
-0.00132758
2.93449e-06
2.5288e-05
-0.00166522
0.000124161
-3.14915e-05
-0.00145118
0.000158408
-9.62812e-05
-0.00149817
0.000103649
-7.84367e-05
-2.95749e-05
-2.78683e-05
1.60014e-05
0.00200463
-2.45794e-05
1.2218e-05
0.00210844
-9.4198e-07
1.16004e-05
0.00200418
-2.25487e-06
7.86526e-06
0.00209042
-2.27051e-05
-1.75134e-07
0.00201504
-2.90433e-05
-1.15155e-05
0.00150902
2.5204e-05
-1.79385e-05
0.000853527
5.5081e-05
-2.77719e-05
0.000285283
2.69076e-05
-3.21991e-05
0.000616496
8.73324e-05
-5.93333e-05
0.000116945
0.000145598
-0.00012576
-0.00133506
0.000109174
-9.93726e-05
-0.000988422
-0.00191249
0.000127264
-0.0025755
0.000286304
-0.004013
-0.00170169
0.000158279
-0.00350256
-0.00173439
8.02442e-05
-0.00312663
-0.000681988
0.000461292
-0.00481937
-0.00105712
0.000413834
-0.00439534
-0.0015528
0.00020742
-0.00403192
-0.00157865
1.88142e-05
-0.00342068
-0.000460576
0.000624564
-0.00540901
-0.000661238
0.000401369
-0.00546416
-0.000865632
0.000163939
-0.00497691
-0.00122375
0.000159157
-0.00461626
-0.00173726
0.000115516
-0.0037235
-0.000282623
0.000972399
-0.00549601
-0.000347746
0.000924584
-0.00555367
-0.000515249
0.000736819
-0.00550503
-0.00082312
0.000543533
-0.00572331
-0.0013176
0.000431463
-0.00479343
-0.00164735
7.72634e-05
-0.0038808
-2.52788e-05
0.00112549
-0.00662343
0.00013099
0.00105719
-0.00656269
-0.000183372
0.000938887
-0.00684066
-0.000316881
0.00086674
-0.0067323
-0.000648501
0.000836089
-0.00592168
-0.00131972
0.000569117
-0.00574134
-0.00138839
0.00015659
-0.00492751
-0.000247979
0.00140463
-0.00614859
-1.63855e-05
0.0014537
-0.00574547
-0.000161837
0.00140922
-0.00592823
-9.54723e-05
0.00115765
-0.00697753
-0.000258876
0.000996401
-0.00771688
-5.53866e-05
0.0010656
-0.00803487
-0.000814206
0.000593309
-0.00805431
-0.000970349
0.000265798
-0.00658919
-0.000192239
0.000786374
-0.00585455
-1.87073e-05
0.000721575
-0.00565686
-0.000112001
0.000847412
-0.00534074
6.72399e-05
0.000824292
-0.00519412
-9.28132e-05
0.000776034
-0.00531763
-6.67656e-05
0.0010222
-0.00586214
0.000507543
0.00110248
-0.0073318
-0.000231316
0.000964748
-0.00835682
-0.000798768
0.000515722
-0.00783949
-0.000339916
1.10766e-07
-0.00511477
-0.000161602
-6.55106e-05
-0.00523855
-0.000227045
3.833e-06
-0.00516528
8.12588e-05
0.000276432
-0.00499606
-0.000112085
0.000376635
-0.00452431
-0.000285253
0.000550598
-0.00376137
-0.0001996
0.000514143
-0.00313767
0.000126533
0.00038458
-0.00385948
0.00033762
0.000365366
-0.0046618
-0.000277031
0.000402489
-0.00662005
-0.000160655
0.00033042
-0.00325596
-0.000178008
0.000286001
-0.003516
-0.000100543
0.000259537
-0.00365763
-0.000115273
0.000303805
-0.00360902
-0.000131836
0.00037452
-0.00349114
-6.30858e-05
0.000454022
-0.0027855
-7.75647e-05
0.000401674
-0.00251708
-5.55989e-05
0.000238239
-0.00296221
-9.57296e-06
0.000244708
-0.00153822
0.000462987
0.000353807
0.000738943
7.57095e-05
0.000249235
-0.00127213
-5.90563e-05
8.80274e-05
-0.000168474
-4.90127e-05
0.000110017
0.000460486
-5.36746e-05
0.000104779
0.000101379
-9.41618e-05
9.02648e-05
-0.0006709
-0.000121012
8.76587e-05
-0.000972846
-0.000129518
6.67441e-05
-0.000900555
3.03605e-05
4.24661e-05
-0.00143762
4.76271e-05
3.00188e-05
-0.00132486
8.32227e-06
1.65557e-05
-0.00169469
0.000167713
-8.47697e-05
-0.00154307
0.000196758
-0.000103617
-0.00152415
0.000151529
-8.64248e-05
1.44945e-05
-2.20826e-05
2.49366e-05
0.00164361
-2.02518e-05
1.57335e-05
0.00202136
-1.88363e-05
1.26686e-05
0.00212621
8.68944e-06
1.05151e-05
0.00199284
7.04862e-06
7.14111e-06
0.00207605
-1.24046e-05
-1.01383e-06
0.00201694
-2.31349e-05
-1.2216e-05
0.00152643
3.27296e-05
-1.83405e-05
0.000811366
5.34885e-05
-2.91965e-05
0.000228792
3.60832e-05
-3.30736e-05
0.000554153
7.74539e-05
-6.34422e-05
-2.28266e-05
0.000146076
-0.000127603
-0.0014529
0.000105035
-9.58837e-05
-0.000997573
-0.00185559
-3.03516e-05
-0.00249008
-0.00172985
0.00011182
-0.00318182
-0.00194005
0.000109758
-0.0024796
0.000364474
-0.0043391
-0.00106198
0.000266314
-0.00411618
-0.0017085
0.000183759
-0.00345038
-0.00177051
0.000100161
-0.00303493
-0.000484705
0.000532641
-0.00496779
-0.000845593
0.000490517
-0.0047117
-0.000917899
0.000417178
-0.00455283
-0.00156286
0.000242398
-0.0039164
-0.00172654
2.35256e-05
-0.00345493
-0.000338805
0.000755881
-0.0056078
-0.000436739
0.000593221
-0.00551187
-0.000754818
0.000353872
-0.00541452
-0.000692483
0.000182185
-0.00513058
-0.00136253
0.000163411
-0.00461923
-0.00162109
9.82597e-05
-0.00384802
-0.000155532
0.00108121
-0.00547831
-4.55192e-05
0.00105978
-0.00545469
-0.000333478
0.000817192
-0.00548394
-0.0005295
0.000775775
-0.00552465
-0.000995275
0.000603034
-0.0055481
-0.00161394
0.000275232
-0.00469718
-0.00155378
0.000171692
-0.0038871
-0.000150526
0.00117661
-0.00639052
-0.000133109
0.00109504
-0.00654456
-0.000185028
0.00100045
-0.00660106
-0.000222131
0.000944872
-0.00679213
-0.000368034
0.000878178
-0.00666523
-0.000545857
0.00091474
-0.00577683
-0.0012236
0.000507303
-0.00568266
-0.00134151
0.000176849
-0.0047332
-0.000278543
0.00155861
-0.00570906
-0.000198126
0.00143579
-0.00595127
-0.000293757
0.00151791
-0.00567241
-0.000228752
0.00138547
-0.00586006
-0.000211358
0.0011396
-0.00700218
-0.00019777
0.00112721
-0.00764749
-0.000117093
0.00113099
-0.00794791
-0.000908954
0.000662587
-0.00777346
-0.00103211
0.000418278
-0.00677413
-0.000361992
0.000888899
-0.00539111
-0.00027351
0.000752883
-0.00577395
-0.000236524
0.000681111
-0.00548108
-8.49414e-05
0.000708027
-0.00505828
-4.10338e-05
0.000697207
-0.00518634
-0.000273517
0.000839115
-0.00514628
3.64123e-05
0.000978471
-0.00597414
0.000371958
0.00100364
-0.00761612
2.21119e-05
0.000818299
-0.00834389
-0.000621858
0.000476477
-0.00797114
-0.000284225
0.000107176
-0.00494497
-0.000287583
2.22487e-05
-0.00509296
-0.000148282
-3.50181e-05
-0.00515196
-0.000140923
1.33942e-05
-0.00487659
-0.000156649
0.000143431
-0.00473805
-0.000224323
0.000391452
-0.00420392
-0.000221977
0.000510782
-0.0036136
-4.13079e-05
0.000414246
-0.00318162
0.000172093
0.000268076
-0.00394386
0.000793647
0.00032859
-0.00491856
0.000111947
0.000382176
-0.00703846
-9.63073e-05
0.000289598
-0.0028382
-9.54409e-05
0.000312512
-0.00323604
-0.000139837
0.000284384
-0.00345469
-0.000127687
0.000268116
-0.00358842
-0.000117476
0.000322565
-0.0035606
-0.000130149
0.000387652
-0.00342414
-4.43654e-05
0.000461623
-0.00277072
-8.0562e-05
0.000334748
-0.0024854
-8.13104e-05
0.000184129
-0.002812
0.000177896
0.000132958
-0.00132755
0.000476364
0.000301001
0.000407571
8.19987e-05
0.000192219
-0.00139482
-0.000116201
8.72224e-05
-0.000443681
-7.69842e-05
9.29003e-05
-9.46252e-05
-4.93131e-05
0.000108788
0.000486954
-3.56974e-05
9.66192e-05
0.000139412
-6.91689e-05
8.44521e-05
-0.000591476
-0.000118695
8.50695e-05
-0.000884881
-0.000112446
6.57406e-05
-0.000834518
3.8379e-05
3.92231e-05
-0.00145248
4.34277e-05
2.18709e-05
-0.00132012
6.81385e-05
-2.52832e-05
-0.00178623
0.000165695
-0.000101479
-0.00163345
0.000231961
-0.000103998
-0.00159246
0.000234762
-7.18184e-05
-4.3414e-05
-2.49546e-05
2.86431e-05
0.00140655
-1.39426e-05
2.40158e-05
0.00164927
-1.03761e-05
1.63819e-05
0.00202803
-3.87495e-06
1.14069e-05
0.00212919
1.89193e-05
1.01629e-05
0.0019709
1.78075e-05
7.75048e-06
0.00204948
-2.98517e-06
-2.34634e-06
0.00201005
-1.8315e-05
-1.26285e-05
0.00153903
3.66064e-05
-1.85756e-05
0.000764139
5.29491e-05
-3.15131e-05
0.000174283
4.60961e-05
-3.32358e-05
0.000477851
6.74582e-05
-6.73743e-05
-0.000150513
0.000143239
-0.00012768
-0.00156435
9.81191e-05
-9.20962e-05
-0.0010036
-0.000106976
-0.00261409
-0.00141641
-0.000207174
-0.00343537
-0.00181946
-2.78378e-05
-0.00258284
-0.00104635
0.0001815
-0.00394843
-0.00152864
9.95805e-05
-0.0033515
-0.00198675
0.000152127
-0.00241548
0.000531059
-0.00447458
-0.000904214
0.000327988
-0.00434215
-0.00096507
0.000293692
-0.00417894
-0.00160919
0.000209786
-0.00351367
-0.00188997
0.000127488
-0.00299898
-0.000445343
0.000634629
-0.00506327
-0.000453398
0.000537488
-0.00499811
-0.000834319
0.000462262
-0.00467728
-0.000885468
0.000405854
-0.0045233
-0.00158624
0.000226687
-0.00389585
-0.0016594
3.86604e-05
-0.00345528
-0.000181301
0.000846127
-0.00549715
-0.000348764
0.000772574
-0.00548391
-0.000535869
0.000612061
-0.00556767
-0.000775727
0.000380531
-0.00536664
-0.000939911
0.000205864
-0.0052284
-0.00141513
4.192e-05
-0.0047617
-0.00164163
0.000135219
-0.00389538
-0.000186811
0.00111788
-0.00540263
-0.000199072
0.00107601
-0.00542859
-0.000290199
0.000893385
-0.00542572
-0.000176969
0.000859905
-0.00561323
-0.000494934
0.000728719
-0.00552343
-0.000666255
0.000599765
-0.00575224
-0.00142653
0.000318233
-0.00464079
-0.00155364
0.00017543
-0.0038504
-0.000307119
0.00125332
-0.00622225
-0.000137316
0.00115001
-0.00650629
-0.000241852
0.00104774
-0.00664376
-0.000266841
0.00100527
-0.00662336
-0.000331494
0.000964137
-0.00675795
-0.000465193
0.00096027
-0.00644334
-0.000565539
0.000913296
-0.00573438
-0.00143664
0.000476455
-0.00545458
-0.0014049
0.00017147
-0.00453188
-0.000165417
0.00150258
-0.00564455
-0.000333258
0.00155862
-0.00577214
-0.000210597
0.00145179
-0.00591108
-0.000232231
0.00146139
-0.00560104
-0.000275188
0.00138813
-0.00587444
-0.000322864
0.0011716
-0.00699722
-0.000147452
0.0012221
-0.00755473
-0.000299356
0.00105823
-0.00767224
-0.000742954
0.000846325
-0.00743644
-0.00106473
0.000360068
-0.00669132
-0.000357353
0.000924641
-0.00504974
-0.000329823
0.000838757
-0.00543475
-0.000230366
0.000641111
-0.00565186
-0.00015088
0.000560201
-0.0053233
-0.000123771
0.000604804
-0.00499875
-0.000279473
0.000657647
-0.00494973
-9.30544e-05
0.000755002
-0.00505173
0.000278798
0.000874636
-0.00616524
0.000336227
0.000860216
-0.00782217
7.81527e-05
0.000947534
-0.00809945
-0.000400079
0.000461409
-0.00792052
-0.000326344
0.000240665
-0.00454164
-0.000273229
0.000124459
-0.00486939
-0.000229011
3.52989e-05
-0.0050741
-0.00013547
-4.03177e-06
-0.00512675
-0.000176162
3.51162e-05
-0.00470959
-0.000117855
0.000215159
-0.00457405
-0.000148819
0.000411373
-0.00400006
-0.000165539
0.000364521
-0.0034789
-5.01748e-05
0.000227485
-0.00317217
0.000177114
0.000220934
-0.00383542
0.000749318
0.000342817
-0.00515215
1.08414e-05
0.000394102
-0.00736141
-0.000227651
0.00020227
-0.0026288
-0.000155549
0.000289542
-0.00273667
-0.000152975
0.000289046
-0.00313704
-0.000120777
0.000276514
-0.00337801
-0.000102018
0.000271387
-0.00350439
-0.000134224
0.000334412
-0.00349183
-9.95599e-05
0.000416518
-0.00339192
-4.0293e-05
0.000443972
-0.00280128
-7.04835e-05
0.000269847
-0.0024572
1.02183e-05
7.14395e-05
-0.00269256
0.000158294
0.000101365
-0.00112052
0.000366034
0.000225051
0.000240666
0.00011186
0.000129194
-0.00140111
-0.000103671
8.51e-05
-0.000886001
-9.56926e-05
9.35923e-05
-0.000362623
-9.29956e-05
9.51471e-05
1.63574e-06
-8.09539e-05
0.000105968
0.000554684
-3.58678e-05
9.36238e-05
0.000185027
-3.84186e-05
7.87851e-05
-0.000528966
-0.000100872
7.99299e-05
-0.000801183
-9.38321e-05
6.13004e-05
-0.000781079
3.90293e-05
3.69964e-05
-0.00147003
3.81193e-05
1.18464e-05
-0.00134242
5.06034e-05
-5.11501e-05
-0.00184106
0.000188844
-0.000106957
-0.00175188
0.000241419
-0.000102364
-0.00166009
0.00027448
-4.82844e-05
-0.000171491
-9.96438e-06
2.43806e-05
0.00129357
-1.23564e-05
2.8578e-05
0.00141434
-5.69719e-06
2.45846e-05
0.00164676
3.21901e-07
1.54982e-05
0.00202361
4.03692e-06
1.13896e-05
0.00212393
2.63149e-05
1.01309e-05
0.00194221
3.29973e-05
6.77562e-06
0.00200736
1.18132e-05
-2.15817e-06
0.00198777
-1.15722e-05
-1.43803e-05
0.00154641
4.1269e-05
-1.88828e-05
0.000710239
5.23913e-05
-3.38356e-05
0.000122491
5.22275e-05
-3.47217e-05
0.000392971
4.74626e-05
-7.07724e-05
-0.000254884
0.000143175
-0.000125994
-0.00167362
9.48374e-05
-8.69106e-05
-0.00101152
-8.43225e-05
-0.00334712
-0.00149923
-0.000181905
-0.00275241
-0.00110306
-7.84533e-05
-0.00379464
-0.00128545
-0.000147454
-0.00355894
-0.00179075
-7.98813e-05
-0.00269895
-0.000957265
0.000217161
-0.00400989
-0.00104694
0.000198966
-0.00396595
-0.00134622
0.000146818
-0.00360916
-0.00196635
0.000155642
-0.00249475
0.000600079
-0.00455324
-0.000610534
0.000503589
-0.00449304
-0.000769162
0.00028339
-0.00439701
-0.000952282
0.000325185
-0.00422752
-0.00136043
0.000136635
-0.00374863
-0.00188063
0.000164811
-0.00294256
-0.000332923
0.000794249
-0.00517827
-0.000515725
0.000651138
-0.00500996
-0.000616556
0.000544127
-0.00499928
-0.000779595
0.000455848
-0.00472341
-0.000999406
0.000343219
-0.00458033
-0.00145424
0.000206487
-0.00402456
-0.00170865
2.20398e-05
-0.0034103
-0.000261887
0.000936183
-0.00552601
-0.00029492
0.000839969
-0.0054687
-0.000377524
0.000771233
-0.00555575
-0.000377488
0.000576844
-0.00556346
-0.000748087
0.000374421
-0.00528205
-0.000827437
0.000312551
-0.00533784
-0.00136305
0.000117737
-0.0048077
-0.00166602
0.000135905
-0.00391891
-0.000242465
0.00106464
-0.00546912
-0.000163055
0.00108818
-0.00538906
-0.000209394
0.00102072
-0.00558838
-0.000340837
0.000968889
-0.00546071
-0.000362235
0.000771042
-0.00562481
-0.000342838
0.000700044
-0.00574607
-0.000836121
0.000607081
-0.00577051
-0.00147651
0.000268562
-0.00469405
-0.0015938
0.000185663
-0.00384716
-0.000296712
0.00138032
-0.00613113
-0.000368026
0.00129202
-0.00632949
-0.000243935
0.00113973
-0.00656494
-0.000262469
0.00104159
-0.00664984
-0.000285612
0.0010254
-0.00667421
-0.000356435
0.00103118
-0.00679529
-0.000435288
0.000992374
-0.00623458
-0.000491846
0.000876974
-0.00594241
-0.00126343
0.000444694
-0.00520733
-0.0014533
0.000193756
-0.00433707
-0.000280805
0.00149287
-0.0055504
-0.000332242
0.00156496
-0.00564847
-0.000341406
0.00150401
-0.00571332
-0.000184161
0.00144263
-0.00585903
-0.000199224
0.00146203
-0.00559948
-0.000312155
0.00130711
-0.00597726
-0.000283816
0.00121895
-0.0068033
-0.00010431
0.0012881
-0.0074015
-0.000281655
0.00104625
-0.00725428
-0.000688363
0.000854383
-0.00716424
-0.00110663
0.000245524
-0.0062303
-0.000353314
0.000934022
-0.00473822
-0.000307314
0.000861124
-0.00503802
-0.000301699
0.000753426
-0.00547437
-0.000226812
0.000577309
-0.00557763
-0.000177638
0.000481373
-0.00519839
-7.71606e-05
0.000488093
-0.00486989
-0.000197275
0.000557477
-0.00470374
0.00010454
0.000582951
-0.00503013
0.000322891
0.00076675
-0.00644484
0.000176524
0.000977045
-0.0078511
-4.76839e-05
0.000990523
-0.00783156
-0.000548614
0.000468369
-0.00782943
-0.000395628
0.000364884
-0.00421838
-0.000290267
0.00021295
-0.00449541
-0.000299205
0.00014042
-0.00482828
-0.000235225
6.14713e-05
-0.00502516
-0.000110037
3.70768e-05
-0.00512069
-7.20905e-05
0.000130543
-0.0046871
-0.000173887
0.000260383
-0.00434873
-4.79564e-05
0.00032756
-0.00395544
-0.000188967
0.00024651
-0.00337944
1.81868e-05
0.00012699
-0.00308619
0.000224132
0.000184156
-0.0037426
0.000509342
0.00038456
-0.00528592
-0.000289278
0.000364037
-0.00732431
-0.000155467
9.7881e-05
-0.00259126
-0.000191212
0.000234458
-0.0024782
-0.000191527
0.000261585
-0.00261068
-0.000118678
0.000316546
-0.00313935
-0.000143309
0.000287269
-0.00328645
-4.58749e-05
0.000284972
-0.0034475
-6.5548e-05
0.000340076
-0.00345072
-5.28102e-05
0.000411783
-0.00340075
2.00102e-05
0.00040592
-0.00291833
-2.31018e-05
0.00018625
-0.00251079
-2.44404e-05
2.83678e-05
-0.00254452
0.000213696
2.76795e-05
-0.000947998
0.000259299
0.000157697
0.000194283
0.000106833
8.50639e-05
-0.00131852
9.1452e-06
3.94631e-05
-0.0011622
-7.25407e-05
8.8051e-05
-0.000820275
-0.000104313
9.64925e-05
-0.000265352
1.03042e-05
9.35604e-05
4.06089e-06
-4.75775e-05
0.000104029
0.000595894
-2.22661e-05
8.77438e-05
0.000224649
-1.80627e-05
7.23352e-05
-0.000470311
-7.52734e-05
7.19508e-05
-0.000724747
-8.14674e-05
5.47692e-05
-0.000728956
5.1121e-05
3.05115e-05
-0.00149854
3.83146e-05
2.57814e-06
-0.00138207
6.38152e-05
-6.37257e-05
-0.00189588
0.00017617
-0.000128774
-0.00185418
0.000241494
-9.24996e-05
-0.0017142
0.000279722
-4.03812e-05
-0.000315994
4.12354e-05
-1.03817e-05
0.0011893
-2.64181e-06
2.41776e-05
0.00130062
-7.50843e-06
2.85464e-05
0.00141789
1.67999e-06
2.41546e-05
0.00163643
1.07602e-05
1.51869e-05
0.00200905
1.75948e-05
1.08333e-05
0.00210563
3.8911e-05
9.99946e-06
0.00190007
4.3586e-05
6.38666e-06
0.00195523
2.43666e-05
-3.63207e-06
0.00195266
-3.19773e-06
-1.31123e-05
0.00154384
4.48507e-05
-1.92405e-05
0.000650793
5.18491e-05
-3.64072e-05
7.23277e-05
6.17224e-05
-3.72593e-05
0.000297735
2.97174e-05
-7.42131e-05
-0.000336382
0.000146435
-0.000122402
-0.00178457
9.43334e-05
-8.04092e-05
-0.00102545
-0.00132488
-0.000104224
-0.00271159
0.00011634
-0.00345948
-0.00138996
-0.000111037
-0.00331348
-0.0015102
-0.00018691
-0.00284605
-0.00111604
0.000173243
-0.00393155
-0.00110193
-8.08333e-05
-0.00380627
-0.00121213
-0.000165084
-0.00360783
-0.0017256
-8.10104e-05
-0.00285869
-0.000793563
0.000388933
-0.00415756