/*--------------------------------*- C++ -*----------------------------------*\
  =========                 |
  \\      /  F ield         | OpenFOAM: The Open Source CFD Toolbox
   \\    /   O peration     | Website:  https://openfoam.org
    \\  /    A nd           | Version:  7
     \\/     M anipulation  |
\*---------------------------------------------------------------------------*/
FoamFile
{
    version     2.0;
    format      ascii;
    class       volVectorField;
    location    "1.5";
    object      U;
}
// * * * * * * * * * * * * * * * * * * * * * * * * * * * * * * * * * * * * * //

dimensions      [0 1 -1 0 0 0 0];

internalField   nonuniform List<vector> 
18750
(
(2.27378 0.197355 -1.72158)
(1.86459 1.34902 -1.1229)
(1.81431 -0.364159 -2.32)
(2.59079 0.0929692 -1.94042)
(0.420138 2.12683 -0.198676)
(1.56516 1.14791 -1.39444)
(2.02681 1.07955 -1.19297)
(0.510064 -1.10518 -1.59868)
(2.14495 -0.401739 -2.47409)
(2.7985 -0.0387192 -2.16321)
(-0.496932 5.03629 0.899857)
(-0.00306013 3.04815 0.64213)
(0.251827 1.93919 -0.0620067)
(1.12707 -0.0976057 -0.920154)
(1.34752 1.11165 -1.36329)
(2.05783 0.966697 -1.23381)
(0.30872 -0.657893 -0.506764)
(0.537369 -1.06027 -1.6238)
(2.41992 -0.471055 -2.67362)
(2.82886 -0.134798 -2.33935)
(0.484015 2.93791 0.380307)
(-0.247797 3.40925 1.50394)
(-0.941045 5.30761 0.903222)
(0.211885 2.38136 1.96106)
(-0.0227172 0.352808 0.405283)
(0.0687741 1.81426 0.690703)
(0.00101814 0.93056 0.279302)
(1.78496 -0.121123 -1.06963)
(1.55634 0.921443 -1.34294)
(2.18258 0.333511 -1.1555)
(0.628941 -0.540955 -0.542632)
(0.278419 -0.636974 -0.418707)
(0.469196 -0.9624 -1.54306)
(2.56085 -0.522253 -2.91744)
(2.63607 -0.222639 -2.44336)
(-1.44604 3.17697 1.17757)
(-1.68446 4.09895 1.44146)
(-0.60642 3.23868 0.0150582)
(0.0934591 2.64998 2.31286)
(-0.247752 3.31806 1.61834)
(-0.805763 5.28052 0.607445)
(-0.428535 2.24259 1.67786)
(0.499182 2.20022 2.25504)
(-0.132308 -1.99541 1.0014)
(-0.0731401 1.63195 0.511135)
(0.903277 0.822161 0.27942)
(-0.0422836 0.956486 0.256096)
(2.30386 -0.166788 -1.36918)
(1.3301 0.761499 -1.17318)
(2.01984 0.311184 -0.993731)
(-0.254275 -0.65844 -0.531341)
(0.610788 -0.527603 -0.562274)
(0.269419 -0.649054 -0.385054)
(0.405357 -0.84944 -1.43878)
(2.48945 -0.517472 -3.12133)
(2.39718 -0.259322 -2.37218)
(-1.49531 3.90012 0.190103)
(-1.26907 5.18035 0.617066)
(-1.18553 3.18068 1.23574)
(-0.528379 4.15109 1.85035)
(-1.72594 4.19995 1.32662)
(-2.26345 3.78502 -0.396348)
(0.672638 2.83566 2.10559)
(-0.159241 2.59671 2.3695)
(-0.156891 3.17188 1.72382)
(-1.03202 5.2689 0.440689)
(0.100257 2.04959 1.23205)
(-0.335887 2.27487 1.90267)
(1.07676 1.91952 2.13721)
(0.259431 -0.815193 1.12212)
(-0.406551 1.51284 0.708178)
(0.2044 0.911709 0.49148)
(0.874945 0.792328 0.271613)
(-0.0233136 0.982289 0.232814)
(2.15164 -0.055573 -1.11537)
(1.5894 0.684235 -0.761547)
(1.81861 0.0445581 -0.851884)
(-0.584157 -0.917428 -0.369033)
(-0.25828 -0.638767 -0.507522)
(0.598877 -0.52422 -0.584781)
(0.282014 -0.649066 -0.39101)
(0.393915 -0.780958 -1.37851)
(2.27651 -0.462048 -3.22534)
(2.13998 -0.281385 -2.22594)
(-2.06643 2.90289 -0.0876411)
(-1.00483 4.13079 0.262498)
(-1.47619 3.86951 0.25131)
(-0.00444343 5.05951 1.54295)
(-1.01544 5.37756 0.304156)
(-1.05816 3.29312 1.10321)
(-1.166 4.03349 2.75617)
(-0.459694 4.41565 1.92473)
(-0.609373 4.29082 2.33305)
(-3.01107 4.37654 -1.01037)
(0.648351 2.79702 1.63771)
(0.552531 2.65492 2.19121)
(-0.146102 2.56519 2.27409)
(0.213728 3.08694 1.96309)
(-1.42862 5.15831 -0.10816)
(0.10613 2.15184 1.47378)
(0.0761672 2.01494 1.45556)
(-0.359083 2.30069 2.03648)
(1.2098 1.72854 1.93957)
(0.308287 -1.31544 1.18412)
(-0.665075 1.40915 0.528256)
(-0.609035 0.825994 0.31137)
(0.428942 0.903565 0.486416)
(0.836136 0.761695 0.271109)
(0.038739 0.985889 0.229066)
(1.85972 0.0836173 -0.823076)
(1.54094 0.62853 -0.593594)
(1.56929 -0.118727 -0.65819)
(-0.637493 -1.30499 -0.218956)
(-0.556654 -0.908457 -0.396512)
(-0.232176 -0.622599 -0.49588)
(0.585621 -0.520233 -0.622362)
(0.288421 -0.649439 -0.386102)
(0.501439 -0.745014 -1.33817)
(2.09184 -0.401957 -3.21068)
(1.89447 -0.286442 -2.04859)
(-1.85107 2.50851 -0.035953)
(-1.53219 3.40161 0.466197)
(-2.07599 2.95108 -0.1322)
(-0.726698 4.64307 0.545619)
(-0.864693 4.26018 0.41849)
(-1.29834 3.9209 0.183632)
(0.0183142 4.94705 1.57804)
(0.965717 5.24125 1.94991)
(-0.521837 5.4274 0.188505)
(-0.629213 3.7287 0.700944)
(-0.0659047 4.00154 2.30386)
(0.0212486 4.00815 2.21041)
(0.523881 4.51809 2.14642)
(0.905713 4.37374 3.82239)
(-2.6365 5.10962 -1.39075)
(-0.00600514 3.26207 1.4937)
(0.528466 2.94125 1.40199)
(0.278785 2.67429 2.28838)
(-0.0833083 2.58522 2.1643)
(0.499531 3.13369 2.1611)
(-0.999621 4.94146 -0.0965145)
(-0.338738 2.48658 0.994762)
(0.166453 2.03348 1.63894)
(0.118844 1.92531 1.6476)
(0.192242 2.14902 2.0831)
(1.15177 1.59925 1.93628)
(0.0942352 -1.19029 1.38816)
(-0.959436 1.39719 0.299413)
(-0.638115 0.910277 0.661273)
(-0.564241 0.837199 0.285382)
(0.563642 0.863496 0.474552)
(0.790668 0.729482 0.25371)
(0.152643 0.992815 0.191642)
(1.56342 0.177918 -0.670162)
(1.46736 0.531693 -0.374566)
(1.34973 -0.26329 -0.514396)
(-0.248435 -1.40604 0.0682751)
(-0.57906 -1.30469 -0.166108)
(-0.533895 -0.905154 -0.397289)
(-0.229855 -0.600485 -0.477875)
(0.580097 -0.521239 -0.668752)
(0.288677 -0.656361 -0.386657)
(0.611494 -0.752035 -1.40947)
(1.94054 -0.345595 -3.14962)
(1.67632 -0.279038 -1.87293)
(-1.83477 2.20927 -0.0767389)
(-1.33056 3.06989 0.157814)
(-1.82372 2.5938 -0.00720483)
(-1.05584 3.52999 0.590874)
(-1.37468 3.49073 0.737964)
(-1.76145 3.04364 -0.04639)
(-0.184036 4.57137 1.05996)
(-0.412281 4.722 0.645402)
(-0.561409 4.23182 0.573644)
(-1.11654 3.9368 0.156877)
(0.596214 4.491 2.18)
(0.669025 5.07406 1.57923)
(1.23781 5.29184 1.91965)
(0.179878 5.58677 0.249731)
(-0.490157 4.12485 0.506201)
(1.14659 3.4508 2.07802)
(1.40658 3.25284 2.41417)
(-0.0654567 4.13371 2.14348)
(1.51582 4.3584 2.81006)
(1.42472 4.67048 4.22177)
(-2.00968 5.67117 -1.22475)
(-0.27108 3.71834 0.38308)
(0.0144069 3.3952 1.56301)
(0.404583 2.75874 1.94245)
(-0.0732732 2.63212 2.27661)
(0.106358 2.58091 1.77673)
(0.98343 2.98639 2.13273)
(-0.251441 4.54543 0.550485)
(-0.622322 2.53628 0.994887)
(-0.0299342 2.41996 1.37933)
(0.166834 2.02523 1.72107)
(0.296286 1.81288 1.76777)
(0.960691 1.91073 1.85785)
(1.53504 1.14474 1.81645)
(-0.00504031 -0.944835 1.54072)
(-1.18932 1.41601 0.12511)
(-0.465264 0.644215 0.608068)
(-0.569861 0.897284 0.630506)
(-0.491087 0.841646 0.280159)
(0.651408 0.829118 0.436797)
(0.741443 0.708653 0.231184)
(0.242153 1.04231 0.209085)
(1.38224 0.32695 -0.563977)
(1.59277 0.356487 -0.380312)
(1.2178 -0.461416 -0.438913)
(-0.148429 -1.32528 0.200133)
(-0.230282 -1.39123 0.105431)
(-0.549881 -1.27007 -0.117716)
(-0.57059 -0.889998 -0.322759)
(-0.230297 -0.575008 -0.457781)
(0.570642 -0.523494 -0.721515)
(0.292812 -0.66691 -0.402143)
(0.711746 -0.748988 -1.62454)
(1.85538 -0.312151 -3.08489)
(1.4973 -0.269779 -1.71989)
(-1.36715 2.12415 0.0796102)
(-1.57412 2.7067 0.0254679)
(-1.71045 2.32354 -0.0889306)
(-0.782714 3.30722 0.242258)
(-1.29141 3.07871 0.135468)
(-1.62306 2.72419 -0.0242461)
(-0.525757 3.74271 0.674192)
(-0.66669 3.64587 0.677769)
(-1.13017 3.69107 0.61145)
(-1.46379 3.08846 0.0858679)
(0.208701 4.59424 1.41341)
(0.0712701 4.58151 1.07927)
(-0.534639 4.63676 0.929032)
(-0.03278 4.12254 0.363454)
(-1.15239 3.95242 0.104361)
(0.33316 3.98556 2.40311)
(1.88102 4.12392 2.16047)
(0.783101 5.05173 1.85014)
(2.40483 4.89758 1.93326)
(0.197748 5.63517 0.324842)
(-0.263243 4.41485 0.451877)
(1.29357 3.44709 2.22237)
(1.73374 3.27814 2.08548)
(-0.4286 3.96278 2.31713)
(0.107224 4.20404 2.1415)
(1.9234 4.19381 3.31344)
(1.81784 4.93518 3.62709)
(-1.53022 5.85495 -0.912558)
(-0.45127 3.52702 -0.0788382)
(-0.0684699 3.73645 0.40838)
(0.0814022 3.41529 1.68858)
(0.404159 2.75393 1.8543)
(0.0493688 2.55551 1.98754)
(0.162953 2.56437 1.32301)
(1.5872 2.71049 2.12846)
(0.874715 4.18848 1.01802)
(-0.531669 2.51086 0.854332)
(-0.54865 2.5561 1.04564)
(0.0688693 2.37514 1.61006)
(0.365837 1.96375 1.90163)
(0.410933 1.75961 1.79547)
(1.64342 1.59865 1.37281)
(1.56385 0.905487 1.36219)
(-0.352392 -0.924119 1.91001)
(-1.1342 1.46343 0.116427)
(-0.345973 0.0266855 0.849392)
(-0.358373 0.622631 0.599231)
(-0.492556 0.873511 0.615042)
(-0.41986 0.835874 0.281474)
(0.778166 0.77686 0.3398)
(0.703387 0.695707 0.203297)
(0.28125 1.09344 0.282678)
(1.34228 0.344827 -0.513825)
(1.70951 0.20704 -0.443932)
(1.13756 -0.64083 -0.399484)
(-0.302247 -1.36855 0.278755)
(-0.133432 -1.33087 0.189154)
(-0.239926 -1.38996 0.125592)
(-0.554584 -1.25986 -0.0949597)
(-0.592258 -0.876439 -0.269044)
(-0.186816 -0.562494 -0.459465)
(0.553188 -0.523179 -0.774914)
(0.29284 -0.674462 -0.424231)
(0.717152 -0.709599 -1.91495)
(1.84166 -0.317593 -3.02677)
(1.36563 -0.270338 -1.60294)
(-1.63908 2.26143 0.0330323)
(-1.28143 2.2195 0.0925161)
(-0.892382 3.09869 0.274708)
(-1.52237 2.76149 -0.0533525)
(-1.48912 2.43032 -0.080932)
(-0.489058 3.58332 0.419923)
(0.221127 3.45989 0.322309)
(-0.918526 3.09461 0.182763)
(-1.50604 2.86902 0.00140714)
(0.069488 3.70412 1.06647)
(-0.351459 3.68637 0.814402)
(-0.389354 3.79207 0.528384)
(-1.52757 3.68787 0.381635)
(-1.34291 3.15914 0.115205)
(0.163043 4.3747 1.66357)
(0.516988 4.39725 1.44311)
(0.215232 4.55656 1.30837)
(-0.363072 4.36745 1.0456)
(0.294607 4.10438 0.208399)
(-1.06676 3.98518 0.014117)
(-0.239877 4.14344 2.49568)
(0.857912 3.64057 2.61416)
(0.354841 4.71437 1.92596)
(1.4134 5.02734 1.73577)
(2.54934 4.88178 1.98648)
(0.52587 5.59853 0.270525)
(0.162142 4.4363 0.381735)
(0.534104 3.84153 1.78878)
(1.24046 3.48881 2.21043)
(0.192271 3.66199 2.11853)
(1.15578 3.33257 2.04594)
(0.365656 4.0588 2.35203)
(2.76436 3.8767 3.17386)
(2.57619 4.96725 2.82546)
(-0.250173 5.86375 -0.568897)
(0.0525281 3.46486 -0.410672)
(0.0745031 3.63227 -0.143596)
(0.254535 3.6433 0.753478)
(1.60581 2.72158 2.09427)
(0.383892 2.76634 1.89055)
(0.0402504 2.39448 1.78464)
(0.26357 2.55563 1.0272)
(1.58452 2.73709 2.0701)
(1.64557 3.95823 1.00556)
(-0.534496 2.37853 0.990548)
(-0.452771 2.49088 0.916285)
(-0.292466 2.53533 1.22888)
(0.0677389 2.40884 1.68001)
(0.421124 1.93471 1.93952)
(0.686307 1.55868 1.77427)
(1.39368 1.63339 1.07125)
(0.896601 1.09554 1.38765)
(-0.458961 -0.623195 2.16444)
(-0.646435 1.33101 0.115226)
(-0.536157 -0.24298 0.77115)
(-0.287646 0.0114707 0.798548)
(-0.234352 0.579803 0.599682)
(-0.402042 0.847968 0.615829)
(-0.362486 0.821524 0.291581)
(0.829522 0.728787 0.395706)
(0.6843 0.675376 0.159)
(0.288509 1.11376 0.319005)
(1.35707 0.274658 -0.727786)
(1.79442 -0.0412758 -0.534928)
(1.10643 -0.848615 -0.388579)
(-0.202504 -1.31987 0.234756)
(-0.28823 -1.37198 0.267912)
(-0.11009 -1.34677 0.193672)
(-0.207287 -1.40259 0.126631)
(-0.501097 -1.27719 -0.126965)
(-0.544727 -0.883584 -0.29917)
(-0.223195 -0.535338 -0.432435)
(0.533952 -0.521048 -0.828648)
(0.294692 -0.68459 -0.439553)
(0.619968 -0.598362 -2.21326)
(1.88133 -0.37124 -2.95293)
(1.2835 -0.291973 -1.52782)
(-1.53297 1.88228 0.147644)
(-0.912246 2.68615 0.290604)
(-1.27934 2.50827 0.0122171)
(-1.16754 2.26162 0.146354)
(-0.663922 3.20187 0.479556)
(-0.90037 3.02971 0.336098)
(-1.11376 2.90866 0.0267154)
(-1.18963 2.64336 -0.0645771)
(-0.412712 3.557 0.637712)
(-0.256491 3.65353 0.296667)
(-0.382406 3.34389 0.191534)
(-0.550526 3.17962 0.210755)
(-1.3456 2.9828 0.0662469)
(-0.2456 3.6674 1.2191)
(0.0342368 3.66661 0.984218)
(0.173418 3.67685 0.908503)
(-0.436939 3.94658 0.513803)
(-1.18279 3.85026 0.564956)
(-1.18281 3.21344 0.19347)
(0.245345 4.32701 1.69048)
(0.527207 4.25437 1.71702)
(0.36836 4.52187 1.32553)
(0.377561 4.56988 1.38489)
(0.479021 4.11901 1.13923)
(0.0361222 4.07283 0.552646)
(-0.673935 3.97503 0.036821)
(-0.403175 4.12579 2.42122)
(0.484223 3.84923 2.79486)
(0.433762 3.85468 2.40365)
(1.31613 4.5052 1.86982)
(1.56844 4.91665 1.86144)
(2.49211 4.86985 2.00783)
(0.849161 5.64327 0.191145)
(1.12835 4.42121 0.0784785)
(-0.221022 3.86772 1.5036)
(0.68394 3.7531 1.80055)
(0.591483 3.58197 2.01531)
(1.09539 3.22485 1.89658)
(0.567256 3.62639 1.97983)
(0.886016 3.87517 2.57335)
(3.61957 3.70037 2.36084)
(3.08233 4.70552 2.76761)
(0.929185 5.64068 -0.417893)
(-0.426917 3.39932 -0.131011)
(0.130577 3.47584 -0.322624)
(0.227501 3.52681 0.128433)
(1.39246 3.05737 1.57848)
(0.412264 3.19353 1.50163)
(0.391013 2.64104 1.70346)
(0.195122 2.26332 1.64674)
(0.518219 2.68522 0.668911)
(2.69073 2.15432 1.82328)
(2.82635 3.45686 0.638959)
(-0.472213 2.18042 1.24325)
(-0.280904 2.37519 1.0327)
(-0.0760101 2.50799 1.10218)
(-0.0974896 2.49669 1.4084)
(0.0492416 2.4451 1.7233)
(0.406447 1.86603 1.94308)
(0.827077 1.498 1.49395)
(1.2904 1.64039 0.896773)
(0.889895 0.735039 1.29928)
(-0.322869 -0.58009 2.15155)
(0.0911778 0.951134 0.310412)
(-0.510237 0.14161 0.741148)
(-0.479866 -0.251246 0.741011)
(-0.21788 -0.0223608 0.750929)
(-0.156471 0.51482 0.61081)
(-0.311271 0.802534 0.620304)
(-0.311636 0.792526 0.311061)
(0.953864 0.641812 0.321676)
(0.679301 0.653935 0.089514)
(0.326944 1.13235 0.249565)
(1.43448 0.256011 -0.943827)
(1.8835 -0.17468 -0.770142)
(1.07093 -0.966157 -0.381281)
(-0.0355917 -1.12879 0.434239)
(-0.240289 -1.32723 0.243147)
(-0.340764 -1.36401 0.281101)
(-0.0990688 -1.33674 0.199747)
(-0.193093 -1.39464 0.119612)
(-0.444049 -1.28221 -0.169943)
(-0.524835 -0.899436 -0.305342)
(-0.167624 -0.511569 -0.428502)
(0.517028 -0.519626 -0.889503)
(0.290101 -0.680138 -0.412346)
(0.457868 -0.411874 -2.47163)
(1.92661 -0.440446 -2.86183)
(1.23745 -0.335828 -1.48332)
(-1.40962 1.79227 0.0894341)
(-1.46628 2.20077 0.059911)
(-1.47248 1.92775 0.126643)
(-0.537128 2.87515 0.232006)
(-0.725436 2.70841 0.294481)
(-1.28229 2.51333 0.000881513)
(-0.972011 2.37193 0.207122)
(-0.421897 3.23558 0.487361)
(-0.608352 3.20663 0.522536)
(-0.563666 3.05909 0.402735)
(-0.897179 2.96841 0.109729)
(-1.15092 2.66688 -0.0572678)
(-0.200474 3.64526 0.809971)
(-0.163456 3.64141 0.625118)
(-0.241636 3.69497 0.200568)
(0.0860309 3.46418 0.163968)
(-0.252446 3.34718 0.194021)
(-1.08495 3.07318 0.0875272)
(-0.0956766 3.57441 1.37699)
(0.558138 3.53039 1.47914)
(0.370586 3.61569 1.08052)
(0.492746 3.63241 0.999585)
(-0.183972 3.94084 0.606242)
(-1.50926 3.76875 -0.00371248)
(-0.833191 3.24463 0.314252)
(-0.0708857 4.14046 1.80436)
(0.261473 4.28942 1.61284)
(0.384422 4.32482 1.59376)
(0.503935 4.51442 1.37691)
(0.397577 4.51992 1.39353)
(0.548656 3.91185 1.32845)
(0.288635 4.12838 0.425884)
(-0.450475 3.89747 0.084975)
(-0.356648 3.76463 2.79847)
(-0.0305695 3.98466 2.59954)
(0.0231004 3.70462 2.82727)
(0.785813 3.86261 2.46547)
(1.38177 4.39896 1.86618)
(2.21722 4.66646 2.12563)
(2.58637 4.66904 1.98209)
(1.27038 5.36238 0.966269)
(1.31703 4.54063 -0.0599127)
(-1.03589 3.54437 2.07332)
(-0.204255 3.83318 1.44586)
(-0.166908 3.6996 1.89926)
(0.531546 3.29991 1.81206)
(0.903733 3.43134 1.67836)
(0.344718 3.58595 2.17326)
(1.37523 3.71476 2.57865)
(3.77813 3.66371 1.95005)
(3.86234 4.36853 2.59777)
(2.03075 5.21044 -0.459331)
(-0.334034 3.26443 0.137832)
(-0.264661 3.38495 -0.0299525)
(0.420389 3.39645 -0.0723154)
(0.688582 3.19985 0.0563954)
(0.736976 3.17735 0.750537)
(0.866722 2.80015 1.49233)
(0.31979 2.54899 1.44458)
(0.202972 2.31717 1.50993)
(1.01589 2.52622 0.540807)
(4.54516 0.779917 1.5338)
(3.83929 2.88776 0.800634)
(-0.0290289 1.83309 1.45242)
(0.18154 2.12542 1.30389)
(0.0179348 2.33095 1.10001)
(-0.116596 2.46737 1.12669)
(0.0634831 2.48159 1.50338)
(0.114444 2.43321 1.81582)
(0.467199 1.82816 1.8166)
(1.00615 1.39481 1.14473)
(1.47512 1.3881 0.766057)
(1.27863 0.262805 0.929403)
(0.0658886 -0.545687 1.84428)
(0.58448 0.697406 0.361588)
(-0.653741 0.373434 0.516274)
(-0.40221 0.124978 0.744463)
(-0.410944 -0.247915 0.715434)
(-0.142266 -0.0382537 0.692729)
(-0.0480371 0.473033 0.587804)
(-0.218953 0.75784 0.615369)
(-0.24921 0.75714 0.326058)
(1.03954 0.561506 0.283732)
(0.694457 0.622726 0.00618961)
(0.65073 1.02727 -0.324811)
(1.60108 0.127044 -0.825305)
(1.89976 -0.230033 -0.858987)
(0.961617 -1.04325 -0.355905)
(-0.0357622 -0.933343 0.612054)
(-0.0085959 -1.10127 0.420619)
(-0.213277 -1.34272 0.251333)
(-0.245311 -1.38666 0.241362)
(-0.0836057 -1.34802 0.181123)
(-0.211882 -1.39903 0.131871)
(-0.422285 -1.30109 -0.201041)
(-0.545102 -0.893048 -0.316064)
(-0.152301 -0.511877 -0.425977)
(0.512003 -0.525471 -0.96746)
(0.301065 -0.678084 -0.336121)
(0.26809 -0.168384 -2.66969)
(1.95546 -0.509757 -2.7569)
(1.20519 -0.398167 -1.44296)
(-1.12248 1.81052 -0.0412606)
(-1.05309 2.30561 -0.140756)
(-1.29306 1.88508 0.00532663)
(-0.738386 2.6303 0.135583)
(-1.14616 2.36697 0.0546618)
(-1.49475 1.97565 0.142148)
(-0.368255 2.90628 0.455066)
(-0.531712 2.88138 0.195907)
(-0.377755 2.86245 0.359183)
(-1.16476 2.55866 -0.0100643)
(-1.07279 2.3773 0.214722)
(-0.338021 3.30797 0.61454)
(-0.165724 3.32238 0.507954)
(-0.400997 3.17647 0.470247)
(-0.183779 3.15631 0.386553)
(-1.11119 2.91885 0.115474)
(-0.740911 2.79945 -0.0634382)
(-0.0614749 3.57556 0.969241)
(0.0167237 3.63719 0.812989)
(0.0147959 3.66169 0.62518)
(-0.151546 3.65581 0.282368)
(-0.155844 3.5165 0.199895)
(-0.371991 3.42453 0.130709)
(-0.734269 3.22559 0.0685573)
(-0.137445 3.51167 1.52129)
(0.0733851 3.56009 1.38233)
(0.298608 3.57843 1.128)
(0.655082 3.61329 1.05679)
(0.812458 3.55908 1.02904)
(0.512281 3.86176 0.707345)
(-0.859128 3.93242 0.152524)
(-0.544747 3.24555 0.29559)
(-0.296636 4.03796 1.85287)
(0.266011 4.24225 1.76874)
(0.34868 4.30351 1.5417)
(0.383063 4.41254 1.58769)
(0.544772 4.47488 1.43988)
(0.517765 4.44882 1.48203)
(0.728682 3.82693 1.26251)
(0.0349058 4.14918 0.457599)
(-0.390558 3.84106 0.141938)
(-0.146693 3.65069 2.93046)
(-0.187584 3.77752 2.77547)
(0.323822 3.84499 2.76605)
(0.701377 3.72274 2.67463)
(0.977257 3.70949 2.4491)
(1.5001 4.4685 2.11584)
(2.55472 4.40923 2.36673)
(2.40721 4.64366 1.56525)
(1.8709 4.79116 1.6863)
(1.5347 4.47236 -0.000102389)
(-0.903281 3.32824 1.979)
(-0.473159 3.64443 1.97802)
(0.0606294 3.84228 1.15324)
(0.209799 3.57867 1.45226)
(0.383549 3.34335 1.4782)
(0.294282 3.4825 1.75415)
(1.09248 3.27937 2.00156)
(2.63018 3.26568 2.49969)
(4.09318 3.65797 1.54513)
(4.1802 3.82227 2.47381)
(3.00422 4.52947 -0.41778)
(-0.436852 2.98235 0.485342)
(-0.261768 3.26743 0.17575)
(0.0598482 3.37504 -0.102705)
(0.636988 3.30633 0.0306656)
(0.820366 3.02245 0.0932854)
(1.05353 2.89428 0.919675)
(1.08411 2.36107 1.4992)
(0.300976 2.47307 1.02231)
(0.0323254 2.50236 0.927584)
(1.70535 1.98945 0.617109)
(4.26779 0.83878 1.40438)
(3.70798 3.35007 1.12483)
(-0.419639 1.78841 0.988342)
(-0.239496 1.8194 1.2785)
(0.151253 2.06211 1.23613)
(0.245994 2.24573 1.14858)
(0.216275 2.39112 1.19209)
(0.159474 2.43119 1.55113)
(0.364896 2.31313 1.98975)
(0.611092 1.76206 1.63665)
(1.05411 1.2846 0.815675)
(1.87725 0.909046 0.113863)
(1.07988 0.183343 0.78028)
(0.485675 -0.708643 1.36784)
(1.37707 -0.0195565 0.322913)
(-0.729874 0.633129 0.675583)
(-0.560519 0.29402 0.581155)
(-0.331644 0.098895 0.760506)
(-0.358774 -0.280357 0.679501)
(-0.0777632 -0.0903378 0.641775)
(0.0582807 0.370672 0.55654)
(-0.112059 0.676403 0.594252)
(-0.167176 0.702951 0.31395)
(1.10539 0.488674 0.260494)
(0.711691 0.594887 -0.0407953)
(0.898741 0.863599 -0.642868)
(1.79212 -0.102593 -0.733628)
(1.83631 -0.295725 -0.66809)
(0.878934 -0.902864 -0.232252)
(-0.0931676 -0.857927 0.554068)
(0.0452808 -0.972565 0.596678)
(0.00979063 -1.12473 0.45086)
(-0.178897 -1.34337 0.248553)
(-0.228564 -1.38654 0.243415)
(-0.125105 -1.34983 0.198155)
(-0.140488 -1.41963 0.10223)
(-0.354351 -1.33037 -0.202246)
(-0.538951 -0.888369 -0.335345)
(-0.103119 -0.512788 -0.446785)
(0.516756 -0.542382 -1.06179)
(0.339895 -0.695369 -0.310868)
(0.0877214 0.105366 -2.80179)
(1.98952 -0.612958 -2.62417)
(1.18291 -0.470505 -1.38832)
(-0.688944 2.30192 -0.121129)
(-0.943792 1.94758 -0.131898)
(-0.543406 2.55796 -0.182482)
(-0.705511 2.43714 -0.0494372)
(-1.10239 2.04367 -0.0727785)
(-0.619711 2.62299 0.170357)
(-0.530255 2.69948 0.122919)
(-0.781871 2.52308 0.11004)
(-1.34425 2.10967 0.151535)
(-0.348529 2.97623 0.547998)
(-0.141735 2.94156 0.42152)
(-0.306187 2.95979 0.189492)
(-0.313098 2.90282 0.393769)
(-0.646693 2.77558 0.036494)
(-0.971696 2.43585 0.231411)
(-0.108377 3.38016 0.728143)
(-0.16493 3.3115 0.635716)
(-0.123345 3.3306 0.500395)
(-0.108521 3.17076 0.462653)
(-0.107745 3.16284 0.340985)
(-0.590385 3.08702 0.157386)
(-0.768938 2.78428 -0.0637717)
(-0.0940392 3.58749 1.01915)
(0.13824 3.56744 0.96941)
(0.172239 3.64526 0.843675)
(0.595331 3.64832 0.59456)
(0.0762043 3.63252 0.313966)
(0.538745 3.66788 -0.0187737)
(0.0799876 3.476 0.235059)
(-0.618165 3.26709 0.0398572)
(-0.348537 3.55587 1.46042)
(0.0637927 3.5377 1.48696)
(0.188302 3.61908 1.28474)
(0.610875 3.4987 1.30845)
(0.81464 3.61168 0.933199)
(0.943432 3.61999 0.931927)
(0.717312 3.797 0.706032)
(-0.865002 3.86313 0.179363)
(-0.457198 3.25394 0.218781)
(-0.126272 4.00093 2.02738)
(-0.0988918 4.14455 1.8269)
(0.351876 4.21593 1.74313)
(0.470159 4.42321 1.58979)
(0.512962 4.37891 1.58967)
(0.722449 4.56744 1.6032)
(0.778537 4.27566 1.56278)
(0.882869 3.91756 1.08871)
(0.28459 4.00059 0.399585)
(-0.267443 3.87701 0.147827)
(-0.277714 3.57974 2.70455)
(-0.116738 3.69221 2.96944)
(0.231189 3.77017 2.71426)
(0.818869 3.81526 2.73828)
(1.12142 3.50554 2.70044)
(1.15681 3.81079 2.32805)
(1.9779 4.15529 2.25753)
(2.82743 4.13792 2.48424)
(2.49712 4.3057 1.5573)
(2.12381 4.50641 1.37907)
(1.72016 4.24611 0.158988)
(-1.01096 3.09546 2.17553)
(-0.489966 3.37362 1.86796)
(-0.0846637 3.64479 1.76241)
(0.309121 3.67204 1.05705)
(0.240639 3.49736 1.32677)
(0.625779 3.30567 1.2323)
(0.617872 3.18698 1.52079)
(1.63459 2.92836 1.67447)
(3.20649 3.06367 2.26529)
(3.74427 3.84593 2.29843)
(4.3144 3.32942 2.44935)
(3.12629 4.30471 -0.368774)
(-0.878039 2.73263 0.941496)
(-0.291197 2.96909 0.551635)
(-0.299431 3.17694 0.332077)
(0.275928 3.34838 -0.034092)
(0.885346 3.25402 0.175626)
(0.972001 2.96533 0.364409)
(1.23891 2.63862 0.992301)
(1.27269 2.36332 1.0497)
(0.513825 2.3754 0.458611)
(0.319491 2.29143 0.618826)
(1.79997 1.82858 0.787842)
(3.44695 1.55754 1.20127)
(3.39027 3.76299 0.997653)
(-0.103158 1.72906 0.681123)
(-0.213674 1.64426 1.14681)
(-0.379839 1.9209 1.15833)
(-0.13789 2.16912 1.13861)
(0.273978 2.20386 1.12007)
(0.538823 2.2584 1.24966)
(0.371959 2.36914 1.63)
(0.632122 2.21722 2.00875)
(0.736954 1.78472 1.44078)
(1.12075 1.25013 0.479892)
(1.50379 1.07357 0.0284968)
(1.00629 0.014007 0.552677)
(0.635349 -0.859202 0.87228)
(1.72212 -0.642243 0.308457)
(-0.165961 0.767985 0.5349)
(-0.562333 0.61798 0.698836)
(-0.463868 0.305199 0.600566)
(-0.214118 0.0113293 0.75521)
(-0.300625 -0.261511 0.681837)
(-0.00502372 -0.14064 0.597882)
(0.169022 0.302843 0.508378)
(0.0196054 0.581267 0.550157)
(-0.0739266 0.643539 0.297854)
(1.16792 0.415104 0.179631)
(0.723083 0.595428 -0.0421)
(1.03005 0.786455 -0.831183)
(1.83775 -0.126283 -0.89868)
(1.82377 -0.369672 -0.450398)
(0.833535 -0.834366 -0.195587)
(0.0518233 -0.788403 0.480515)
(-0.0526611 -0.87212 0.559448)
(-0.00825476 -0.965163 0.606884)
(0.0153153 -1.16256 0.424342)
(-0.168068 -1.34566 0.237811)
(-0.192503 -1.40973 0.218743)
(-0.0639595 -1.35133 0.201682)
(-0.123631 -1.43395 0.110259)
(-0.337115 -1.3437 -0.262852)
(-0.517925 -0.891819 -0.344658)
(-0.0767685 -0.512697 -0.457336)
(0.524927 -0.567 -1.16308)
(0.438436 -0.771999 -0.333514)
(-0.0546059 0.381756 -2.87838)
(2.05715 -0.776122 -2.44211)
(1.1739 -0.556456 -1.32118)
(-0.662497 1.90913 -0.249283)
(-0.673521 2.3472 0.0084885)
(-0.551813 2.2846 -0.13552)
(-0.81125 2.05923 -0.14108)
(-0.503596 2.55973 0.0624956)
(-0.441933 2.57875 -0.197407)
(-0.371496 2.51471 -0.0512382)
(-0.915996 2.16439 -0.0689996)
(-0.439285 2.7513 0.209519)
(-0.208508 2.74473 0.207445)
(-0.175739 2.75437 0.154224)
(-0.388771 2.68476 0.118621)
(-1.15654 2.22038 0.173037)
(-0.347446 3.04918 0.582981)
(-0.245917 2.99421 0.527845)
(-0.0988795 3.00593 0.338365)
(-0.101222 2.98263 0.238108)
(-0.20397 2.95421 0.211579)
(-0.499111 2.81506 0.0787575)
(-0.787593 2.52689 0.204312)
(-0.245129 3.37163 0.918949)
(-0.141363 3.40359 0.712487)
(0.0733257 3.29489 0.657697)
(0.113307 3.27525 0.516532)
(0.203958 3.23343 0.403468)
(-0.00960147 3.16131 0.259239)
(-0.509204 3.15215 0.118341)
(-0.531527 2.8757 -0.147211)
(-0.0295834 3.60837 1.15919)
(0.229998 3.58646 1.01569)
(0.490222 3.56313 0.951053)
(0.17963 3.67343 0.800055)
(0.442031 3.69438 0.56451)
(0.814886 3.49017 0.745868)
(0.306593 3.66595 0.0727818)
(0.381361 3.45447 0.269765)
(-0.395042 3.26929 0.0332228)
(-0.509447 3.58161 1.40201)
(-0.238879 3.5685 1.44667)
(0.146511 3.54117 1.4604)
(0.576878 3.63186 1.30219)
(0.960579 3.49059 1.18559)
(1.1321 3.54505 0.985274)
(1.28845 3.62126 0.940801)
(1.43544 3.72191 0.535108)
(-0.0805084 3.85927 0.311197)
(-0.255493 3.37937 0.123476)
(-0.311391 3.9637 2.28683)
(-0.219084 4.05603 2.17316)
(-0.0122 4.1898 1.82146)
(0.483656 4.34501 1.70824)
(0.610135 4.36723 1.66039)
(0.843457 4.42328 1.65907)
(0.934014 4.48743 1.63595)
(1.02987 4.0109 1.66261)
(1.34814 3.98146 1.01105)
(0.504192 3.78583 0.484507)
(-0.305036 3.86935 -0.00228924)
(-0.159802 3.50635 2.77342)
(-0.0708973 3.68331 2.85443)
(0.0710227 3.73246 2.8346)
(0.431615 3.7657 2.72338)
(1.14592 3.68967 2.72811)
(1.50306 3.38005 2.53222)
(1.58748 3.66927 2.37301)
(2.42178 3.68699 2.40838)
(2.87152 3.97119 2.40184)
(2.6879 3.91564 1.8313)
(1.74517 4.55907 0.807266)
(1.18683 4.36765 0.153843)
(-0.934157 3.06702 2.04629)
(-0.569435 3.19343 1.97758)
(-0.121187 3.34511 1.71157)
(0.105852 3.60724 1.5846)
(0.647713 3.59676 0.844167)
(1.09775 3.3675 1.00371)
(0.456949 3.25005 0.977952)
(1.27668 2.89155 1.03717)
(1.63799 2.90591 1.45692)
(3.58095 2.81508 2.10575)
(4.15301 3.37552 2.42845)
(4.51668 3.03377 2.45272)
(2.8979 4.6691 -0.272665)
(-0.743168 2.77387 1.19187)
(-0.604254 2.84005 0.711307)
(-0.00811132 3.0218 0.476683)
(0.718354 3.16044 0.426459)
(0.456689 3.30215 0.0884022)
(1.24038 3.21507 0.433813)
(1.529 2.71244 0.547108)
(1.56576 2.49086 0.934696)
(1.83339 2.0628 0.92334)
(0.95834 2.06244 0.168478)
(0.740182 2.18305 0.268664)
(2.18546 1.39332 1.23055)
(2.97689 2.12462 1.14164)
(2.91262 3.89088 0.581103)
(0.415691 1.78662 0.165779)
(0.138416 1.57287 0.783779)
(-0.311008 1.7412 1.06553)
(0.748047 1.49915 1.51702)
(0.275467 2.01556 1.27034)
(0.443443 2.10076 1.18773)
(0.757248 2.1556 1.20566)
(0.64827 2.2421 1.57962)
(0.819167 2.19161 1.85079)
(1.04861 1.80209 1.10284)
(1.30945 1.15217 0.155797)
(1.50606 0.785099 -0.358289)
(0.852855 -0.0148971 0.4208)
(0.620181 -0.917944 0.481642)
(1.75305 -0.901415 0.363251)
(0.890307 1.06131 -0.0346401)
(-0.0692463 0.757623 0.559707)
(-0.392762 0.56978 0.723105)
(-0.374188 0.239672 0.59146)
(-0.116024 0.0656374 0.748307)
(-0.245915 -0.370642 0.634446)
(0.0495179 -0.18908 0.556579)
(0.261727 0.210238 0.44558)
(0.168352 0.450499 0.481556)
(0.0624244 0.557005 0.27134)
(1.21753 0.345597 0.0678604)
(0.750244 0.620472 -0.0241703)
(1.13711 0.713495 -0.993898)
(1.89048 -0.208933 -0.965432)
(1.82768 -0.412346 -0.379473)
(0.848296 -0.79131 -0.159024)
(-0.485153 -0.221207 -0.929017)
(0.0633336 -0.789991 0.475119)
(-0.0408931 -0.867707 0.558077)
(-0.023857 -0.964471 0.611991)
(0.0276038 -1.13046 0.414684)
(-0.149526 -1.34729 0.246759)
(-0.201748 -1.4332 0.210338)
(-0.0814733 -1.35092 0.165213)
(-0.0766394 -1.44482 0.0981755)
(-0.347806 -1.34924 -0.204336)
(-0.484273 -0.904341 -0.359342)
(-0.0379758 -0.505278 -0.474812)
(0.530257 -0.596061 -1.26193)
(0.552628 -0.889436 -0.418729)
(-0.151036 0.631534 -2.91858)
(2.11443 -0.93644 -2.22789)
(1.17834 -0.661698 -1.2443)
(-0.544905 1.74184 0.129081)
(-0.778647 2.0014 0.117846)
(-0.562034 1.97625 -0.231403)
(-0.736536 2.36786 0.161041)
(-0.458492 2.35627 -0.0223004)
(-0.470286 2.30711 -0.125376)
(-0.60217 2.17872 -0.116852)
(-0.395055 2.58083 0.209103)
(-0.151468 2.62759 0.0811662)
(-0.355489 2.58468 -0.217941)
(-0.239122 2.53378 -0.0556702)
(-0.568822 2.31578 -0.0006582)
(-0.245125 2.76642 0.443384)
(-0.18693 2.78812 0.275676)
(0.00813307 2.79642 0.206837)
(-0.212112 2.77294 0.10962)
(-0.215006 2.70936 0.0745479)
(-0.826551 2.36193 0.140943)
(0.0223644 3.13488 0.848721)
(-0.0560263 3.06218 0.604543)
(-0.145253 3.04956 0.435313)
(0.043689 3.07099 0.316967)
(0.120889 2.96349 0.250651)
(0.0372603 2.98747 0.206837)
(-0.0652935 2.86823 0.141369)
(-0.608358 2.5846 0.133904)
(-0.27639 3.33573 0.998219)
(-0.0484843 3.44513 0.919964)
(0.287897 3.33349 0.7908)
(0.177776 3.285 0.661937)
(0.336503 3.23379 0.480373)
(0.355116 3.23479 0.383389)
(0.353318 3.15931 0.258899)
(-0.0881969 3.24726 0.150803)
(-0.420729 2.91399 -0.20698)
(0.00482415 3.60201 1.12342)
(0.119067 3.59975 1.09508)
(0.440595 3.56315 0.965387)
(0.452912 3.60409 0.923577)
(0.423181 3.64284 0.810519)
(0.735418 3.53946 0.59143)
(0.803273 3.44589 0.538453)
(1.15798 3.41345 0.25318)
(1.2037 3.40687 0.351002)
(0.156321 3.3024 -0.0677651)
(-0.304202 3.75788 1.29815)
(-0.0446659 3.69558 1.36298)
(0.0999843 3.67506 1.42385)
(0.394465 3.54272 1.41385)
(0.662266 3.70696 1.28452)
(1.02527 3.63459 1.04336)
(1.17847 3.67843 0.793386)
(1.32432 3.71581 0.696995)
(1.64683 3.77594 0.464729)
(0.713724 3.68775 0.462526)
(0.0675846 3.52647 -0.00790173)
(-0.391563 4.08777 2.49282)
(0.315587 4.10012 2.47826)
(0.347945 4.16891 2.25986)
(0.754919 4.19615 1.98508)
(0.728487 4.3084 1.88368)
(0.89035 4.1472 1.78465)
(0.987407 4.40642 1.78426)
(1.19439 4.25161 1.813)
(1.2367 3.89026 1.76419)
(1.77059 3.78473 0.901358)
(1.00615 3.62701 0.701648)
(-0.14251 3.80515 -0.0674774)
(-0.49036 3.61043 2.50361)
(0.0497972 3.66965 2.71921)
(-0.0693878 3.74267 2.83878)
(0.312493 3.77405 2.78095)
(0.911804 3.70592 2.6036)
(1.28645 3.45438 2.65328)
(1.55024 3.44533 2.44341)
(2.06021 3.23765 2.52177)
(2.63305 3.47811 2.58193)
(3.02882 3.63654 2.34259)
(2.71767 3.92195 1.75957)
(2.45429 3.87783 1.01251)
(0.883244 4.32198 0.124918)
(-1.10139 2.99624 2.02047)
(-0.641111 3.01478 2.13645)
(-0.242683 3.15365 1.7604)
(0.176493 3.30409 1.3636)
(0.613393 3.6275 1.22412)
(1.58431 3.34866 0.62246)
(1.10004 3.06609 0.880149)
(1.4663 2.6983 0.899203)
(1.30579 2.73672 0.848274)
(1.73084 2.92547 1.36749)