/*--------------------------------*- C++ -*----------------------------------*\
  =========                 |
  \\      /  F ield         | OpenFOAM: The Open Source CFD Toolbox
   \\    /   O peration     | Website:  https://openfoam.org
    \\  /    A nd           | Version:  7
     \\/     M anipulation  |
\*---------------------------------------------------------------------------*/
FoamFile
{
    version     2.0;
    format      ascii;
    class       volScalarField;
    location    "9.5";
    object      nut;
}
// * * * * * * * * * * * * * * * * * * * * * * * * * * * * * * * * * * * * * //

dimensions      [0 2 -1 0 0 0 0];

internalField   nonuniform List<scalar> 
18750
(
0.000289716
0.000435425
0.000310992
0.000282156
0.000759781
0.000367731
0.000381583
0.000696531
0.000257318
0.000288832
0.00105546
0.000695702
0.00062666
0.000538304
0.000309551
0.000456716
0.000160945
0.000494321
0.000228459
0.000296841
0.00194119
0.00101637
0.000812667
0.000351684
0.000603158
0.000807131
0.000516028
0.000340369
0.000289437
0.000462444
0.00050779
0.000366982
0.000452099
0.000213728
0.000286194
0.00264943
0.000708164
0.00167215
0.000729829
0.000848724
0.000891192
0.000331088
0.000371841
0.000606607
0.000705049
0.000806982
0.000460418
0.000235311
0.000315943
0.000491114
0.000173578
0.000526436
0.000484965
0.000364859
0.000205852
0.000264961
0.00350117
0.00198656
0.0030514
0.000390596
0.00229244
0.00193334
0.000415197
0.000587369
0.000526231
0.00142568
0.000404619
0.000298016
0.000355505
0.000432249
0.000740628
0.000195841
0.000711461
0.000179492
0.000275643
0.000250884
0.000487269
0.000334392
0.000137739
0.00043156
0.000332354
0.000269009
0.000227578
0.000222814
0.00344202
0.00226464
0.00320553
0.000560699
0.000679188
0.003411
0.000425041
0.00151295
0.00102628
0.00208836
0.000389098
0.000386132
0.000591213
0.000791085
0.00088069
0.00103918
0.00033565
0.000303816
0.00037333
0.000470257
0.000714856
0.000310067
0.000210752
0.000982224
0.000341239
0.000242833
0.000240701
0.000543502
0.000185903
0.000325546
0.000168532
0.000403678
0.000379768
0.000186689
0.000253858
0.000198078
0.00310807
0.00154879
0.00278699
0.00189208
0.00169753
0.00274907
0.000544654
0.00164778
0.00218857
0.00320087
0.000617679
0.0005741
0.000395938
0.00179096
0.00197699
0.000287483
0.000390446
0.000421558
0.000455878
0.00099921
0.00121119
0.000761049
0.000476114
0.000209287
0.000290494
0.000319938
0.000317399
0.000769318
0.000434853
0.000241634
0.000314559
0.00136895
0.000637353
0.000161404
0.000209079
0.000528269
0.000232321
0.000185134
0.000330477
0.000204675
0.000404065
0.000360654
0.000185779
0.000236236
0.000196489
0.00288685
0.00115992
0.0029809
0.00142005
0.000886041
0.00320579
0.000691555
0.000643063
0.000826351
0.00255095
0.00106154
0.00113238
0.00223265
0.00139355
0.0028551
0.000668143
0.000475773
0.000287248
0.00064625
0.00113813
0.0018895
0.000452882
0.000737069
0.000448297
0.000375407
0.000488994
0.000950812
0.00124373
0.000642004
0.000598383
0.000364107
0.000196606
0.000304095
0.000373237
0.000493811
0.000849877
0.000398467
0.000365768
0.000210362
0.000232944
0.000783774
0.000466851
0.000211259
0.000208739
0.000516785
9.77731e-05
0.000182233
0.000204096
0.000323251
0.000226466
0.000396571
0.000342784
0.000244554
0.000205656
0.000208986
0.00290765
0.0012428
0.0027609
0.0012455
0.00121173
0.00290288
0.00180972
0.00129145
0.00167775
0.00312767
0.000976344
0.000575779
0.000798136
0.00106626
0.00284999
0.000641142
0.000889087
0.00140389
0.000942865
0.00103021
0.00263329
0.000939076
0.000622068
0.00040497
0.000491477
0.00107833
0.00182879
0.00192724
0.000644315
0.000479322
0.00066294
0.000422245
0.000340956
0.000497358
0.000297767
0.00164537
0.000371378
0.000543107
0.000691715
0.00028187
0.00028741
0.000303615
0.000414265
0.000421436
0.000672961
0.000492014
0.000462783
0.000332154
0.000198406
0.0002237
0.000449967
0.000475561
0.000217213
0.00027324
0.000483891
5.67863e-05
0.000229937
0.000165462
0.000181104
0.000305924
0.000226744
0.000393811
0.000313604
0.000213311
0.000299726
0.000264153
0.00264792
0.00114067
0.00271627
0.000888951
0.000996626
0.00276269
0.000708308
0.0011329
0.000889565
0.00286848
0.000452471
0.000620701
0.00100873
0.00141512
0.00282285
0.000223552
0.000319947
0.00126164
0.00114308
0.00144481
0.00349946
0.000895606
0.00111963
0.000879006
0.00108542
0.0012487
0.00160101
0.00239048
0.000461536
0.000568695
0.000524576
0.000427641
0.000808391
0.00100542
0.000808667
0.00208103
0.000731981
0.000749512
0.000918635
0.000143225
0.000479565
0.000481739
0.000861887
0.00112614
0.00147084
0.000319401
0.000347221
0.000556056
0.000449052
0.000340677
0.000293852
0.000385084
0.000416406
0.000494695
0.000732093
0.000466802
0.000356814
0.000568547
0.000275099
0.000184433
0.000391095
0.00021756
0.000420454
0.000244295
0.00032096
0.000436096
0.000168572
6.28065e-05
0.000121682
0.000169564
0.000202345
0.000281716
0.000221988
0.000376006
0.000227774
0.000239842
0.000268954
0.000246278
0.00234708
0.000908972
0.00253452
0.000813959
0.00111683
0.00270882
0.000849329
0.000283233
0.00100827
0.00281412
0.000903384
0.00145644
0.000954367
0.00146728
0.00357617
0.000780148
0.000841863
0.0015004
0.00146096
0.000800968
0.00285774
0.00069565
0.000358823
0.000640091
0.00108031
0.00135114
0.00168548
0.00306178
0.00127497
0.00104197
0.00120306
0.000730568
0.00118251
0.00111875
0.00222446
0.00265539
0.000501276
0.000630681
0.000517761
0.000675284
0.000683888
0.000858286
0.000887203
0.00182987
0.00249666
0.000865966
0.000911626
0.000381194
0.000968057
0.0002901
0.000413624
0.000614401
0.000717981
0.00087349
0.00186018
0.000281601
0.000262789
0.000350737
0.000625877
0.000221481
0.000272468
0.000430889
0.000400811
0.000374831
0.000497033
0.000978284
0.00038021
0.000580713
0.000379247
0.000546016
0.000174164
0.000193833
0.000577413
0.000193253
0.00038859
0.000232153
0.000360416
0.000367199
0.00016463
0.000139616
0.000101658
0.00025276
0.000164863
0.000204331
0.000229978
0.000278141
0.000369145
0.000316564
0.000267576
0.000157216
0.000202101
0.00233171
0.000742758
0.00222189
0.000755574
0.000687584
0.00250354
0.000944548
0.000941898
0.00116238
0.00271472
0.00092508
0.000849704
0.000805608
0.00130981
0.00238675
0.000937176
0.000905165
0.000734996
0.00117168
0.00178176
0.0036565
0.0004944
0.000831777
0.000965768
0.000801645
0.00100809
0.000568095
0.00249694
0.000492408
0.000506515
0.000633649
0.000937111
0.000852334
0.000813954
0.00100493
0.00265428
0.000620197
0.000876375
0.0008264
0.000935216
0.00126484
0.00113496
0.00135309
0.00144837
0.00301701
0.00113824
0.000384132
0.000578609
0.000506096
0.000359665
0.000918024
0.00148752
0.00130926
0.00132886
0.00237485
0.000938735
0.000422398
0.000645929
0.000605317
0.000524998
0.00028772
0.000898547
0.000671631
0.000815745
0.00097486
0.002657
0.000766592
0.000103817
9.99063e-05
0.000399725
0.000809612
0.000435314
0.000348667
0.000259096
0.000425893
0.00044483
0.000434267
0.000528874
0.000412051
0.000406051
0.000375205
0.000496499
0.000481462
9.041e-05
0.000179716
0.000715643
0.000211619
0.000273513
0.000218588
0.000348671
0.000288328
0.000186057
0.000270478
0.000122387
8.71016e-05
9.83666e-05
0.000150341
0.000179775
0.000169058
0.000388642
0.000322135
0.000265963
0.000335719
0.000202396
0.00028644
0.00237106
0.000459533
0.00222206
0.00066277
0.000622532
0.00227413
0.000611325
0.000619546
0.000707889
0.00259267
0.000533491
0.000475145
0.000922892
0.000960519
0.00272438
0.000644712
0.000247971
0.000620618
0.000497878
0.000812739
0.00258918
0.000851602
0.000853487
0.000724155
0.00107327
0.00120477
0.0010927
0.00325781
0.000534546
0.000677926
0.000926943
0.000596225
0.00118671
0.00095742
0.000875746
0.00264187
0.000984829
0.000691786
0.000261281
0.000854523
0.000498187
0.0013862
0.000939633
0.00117788
0.00288214
0.000763957
0.00160974
0.000413817
0.000934385
0.00207485
0.00168472
0.00108959
0.00159307
0.00159852
0.00337548
0.00210949
0.000919777
0.000668588
0.000705169
0.000517588
0.000847072
0.000957849
0.00121993
0.00150563
0.00104255
0.00257742
0.00157116
0.00028446
0.00046394
0.000687548
0.000777028
0.000496817
0.000482698
0.000619786
0.000732989
0.00121346
0.00126209
0.00157094
0.00106779
0.000461826
0.000367272
0.000278316
0.000502602
0.000586706
0.000471634
0.00029235
0.000452844
0.000454714
0.000447204
0.000487278
0.000786045
0.0011258
0.000394934
0.000396029
0.000440493
0.000606509
0.000472133
0.000223054
0.00015502
0.000734412
0.000298518
0.000184351
0.000187495
0.000374095
0.000289687
0.000308987
0.00020911
0.000199196
0.000106034
7.69863e-05
0.000119796
0.00012752
0.000228218
0.000140573
0.000480946
0.000309116
0.000231301
0.000197694
0.000195627
0.000258001
0.00246766
0.000458073
0.00227569
0.00053096
0.00039424
0.00233861
0.00070669
0.000513222
0.000625295
0.00227333
0.000567181
0.000633116
0.000718281
0.000722532
0.00254785
0.000595036
0.000723317
0.00054101
0.000910971
0.000940918
0.00264091
0.000717278
0.000492796
0.00071846
0.000931291
0.000435427
0.000680213
0.00288502
0.00100189
0.000953898
0.00093512
0.00123032
0.0010598
0.00116152
0.00111464
0.0031401
0.000432375
0.000907202
0.00098313
0.000869522
0.00144856
0.000833747
0.00169995
0.00131972
0.00262216
0.000923463
0.000547354
0.000592851
0.000594844
0.000804351
0.00133292
0.000993278
0.00117872
0.00108349
0.00254946
0.000883515
0.00110783
0.000868243
0.000724877
0.000496688
0.00129556
0.00104263
0.00121317
0.00118739
0.0020521
0.0035797
0.000687205
0.00126078
0.0011397
0.000476539
0.000666704
0.00048616
0.000988713
0.00111127
0.00130187
0.00131312
0.00174262
0.00266407
0.000752956
0.00154793
0.000983888
0.000794341
0.00106536
0.000387624
0.000470534
0.000465941
0.00089574
0.00079848
0.000703763
0.00102468
0.00172354
0.00136393
0.00101509
0.000504985
0.000324016
0.000183488
0.000524927
0.000426136
0.000290821
0.00056896
0.000522465
0.000467989
0.000434467
0.000568475
0.00071885
0.000509564
0.000753569
0.00039714
0.000365422
0.000463584
0.000585797
0.000534387
0.000234938
0.000211045
0.00080337
0.000344511
0.000218323
0.000190536
0.000383112
0.000267604
0.000348451
0.000262343
0.000207095
0.000133436
0.000221759
9.39145e-05
0.000141822
0.000121905
0.000253415
0.000141116
0.000506262
0.00036539
0.00031192
0.000466768
0.000196594
0.000221017
0.00246845
0.000594734
0.00231026
0.000375003
0.000444188
0.00230181
0.000426996
0.000321318
0.000482289
0.00224025
0.000520671
0.000398515
0.000514854
0.000518493
0.00232
0.000621583
0.000567397
0.000512224
0.000540597
0.000831421
0.00251526
0.000657957
0.000591355
0.000712406
0.000800174
0.000544355
0.00105047
0.00264182
0.000838672
0.000496317
0.000647523
0.00088924
0.000595105
0.00112768
0.00114219
0.002459
0.000845154
0.0010092
0.00087234
0.000755242
0.00101143
0.000590451
0.000923305
0.00116756
0.00338005
0.000690597
0.000672468
0.000984921
0.00077106
0.000393854
0.000901109
0.000716995
0.00174253
0.00106797
0.00306297
0.000752222
0.000672445
0.000792662
0.00090052
0.000593672
0.000973721
0.000920221
0.000420106
0.000282234
0.000896858
0.00247083
0.00121477
0.00133223
0.00104133
0.0012251
0.00074062
0.000483055
0.00181821
0.000713331
0.000337904
0.000953415
0.00183926
0.00329845
0.000792209
0.000803066
0.000786309
0.000958625
0.000359148
0.000601319
0.000587336
0.00103763
0.000950795
0.00140544
0.0019141
0.00207958
0.00215281
0.000841623
0.00124682
0.000456897
0.00130792
0.000789565
0.000541888
0.000311425
0.000498361
0.000729232
0.000868313
0.00060917
0.000574822
0.000991979
0.00236398
0.000495115
0.00128925
0.000873047
0.00042308
0.000243843
0.000342374
0.000578495
0.000495501
0.000324441
0.000658404
0.000561504
0.000434509
0.000478852
0.000600615
0.000795222
0.000345913
0.000595773
0.00048053
0.00043293
0.000391779
0.000469593
0.000501125
0.000592412
0.000203882
0.000416439
0.000559146
0.000319785
0.000237694
0.000187307
0.000362457
0.000264684
0.000305031
0.000327714
0.000274182
0.000190475
0.000102488
0.000168702
0.000107169
0.000139465
0.000121835
0.000270962
0.000157566
0.000484043
0.000382352
0.00025572
0.000182703
0.000155983
0.000252631
0.00223276
0.00063219
0.00231879
0.000491115
0.000516416
0.00228448
0.000342717
0.000396362
0.000472369
0.00222082
0.000463238
0.000575113
0.000453477
0.00039166
0.00225344
0.000447503
0.000446667
0.000478443
0.000585883
0.000402741
0.00228934
0.000790236
0.000326037
0.000528604
0.000444263
0.000481423
0.000761236
0.00248789
0.000674076
0.000795203
0.000538411
0.00045299
0.00068435
0.000753548
0.000689751
0.00268471
0.000350141
0.000542638
0.000753951
0.000973206
0.00062658
0.000447008
0.00115192
0.000789311
0.00262023
0.000643599
0.000509537
0.000668154
0.000838281
0.000801234
0.000873222
0.000885741
0.000491359
0.0007691
0.003031
0.000887527
0.000643887
0.000712279
0.000823233
0.00069091
0.000902627
0.000718231
0.00124439
0.000893278
0.00120346
0.0031641
0.000263827
0.000550191
0.000649207
0.000885693
0.000606057
0.00034993
0.000964611
0.000577564
0.000670337
0.000745777
0.0011145
0.00253351
0.000611277
0.000498783
0.000925778
0.000901372
0.00151856
0.000780482
0.000631648
0.00133504
0.000564498
0.000540841
0.00127808
0.000883743
0.00342501
0.0011455
0.000768891
0.00243499
0.000966536
0.00136765
0.000342754
0.000546849
0.000827554
0.000970693
0.000975708
0.000691264
0.00100278
0.00113488
0.00408382
0.000501824
0.000805998
0.00147767
0.00056538
0.00076967
0.000302882
0.000378136
0.00032143
0.000587338
0.000914441
0.000814476
0.000901271
0.000900944
0.00135494
0.00199399
0.000517033
0.000610169
0.00124392
0.000723084
0.000480392
0.000294945
0.000477629
0.000502966
0.000573008
0.000340814
0.000589847
0.000485112
0.000414442
0.000526383
0.000576195
0.000507823
0.000391679
0.000302015
0.000516114
0.000393327
0.000380336
0.00034385
0.000484926
0.000597118
0.00054706
0.000295735
0.000652288
0.000770656
0.000239776
0.000288392
0.0002035
0.000381248
0.000323805
0.000207444
0.000313579
0.000343293
0.000235179
0.000191361
0.000107163
8.29618e-05
9.09151e-05
0.000109566
0.000125285
0.000274172
0.000183099
0.000355724
0.00035571
0.000211895
0.000354465
0.000386467
0.000245569
0.00215604
0.000675084
0.00214219
0.000304437
0.000736657
0.0022881
0.000290813
0.000403771
0.00044394
0.00230456
0.000373234
0.000376605
0.000371753
0.000447136
0.00236779
0.000346286
0.00061076
0.000514665
0.000476624
0.000478202
0.00230564
0.000544636
0.000326487
0.000544816
0.000610326
0.000637183
0.000726811
0.00228332
0.000559082
0.000394444
0.000676204
0.00065392
0.000561891
0.00096791
0.000886711
0.00240847
0.000559607
0.000637023
0.000726903
0.000958745
0.000806577
0.000577632
0.000640388
0.000523047
0.00254173
0.000832198
0.000798879
0.00072406
0.000739821
0.00078786
0.000799916
0.000633925
0.000663746
0.000454946
0.00258749
0.000575784
0.000633694
0.000787852
0.000711201
0.000709397
0.0010451
0.000830217
0.000684653
0.000599644
0.000817095
0.00278386
0.00046916
0.000437317
0.000549469
0.000883572
0.000931509
0.000907405
0.00121577
0.000828986
0.000966919
0.000697597
0.00109008
0.00291869
0.000534636
0.00058989
0.000315369
0.000415643
0.0011323
0.000617689
0.00040897
0.00072043
0.000659861
0.00123505
0.00130743
0.000594624
0.00243549
0.000735774
0.000553421
0.000553263
0.000869652
0.00154199
0.00100202
0.000675294
0.000995633
0.000719547
0.000434659
0.000899656
0.00100732
0.00112164
0.00282345
0.000575217
0.000825244
0.000275216
0.00214712
0.0010304
0.00109861
0.000483351
0.000616697
0.00112092
0.00113787
0.000792513
0.000775014
0.00220031
0.00192648
0.00228762
0.0004265
0.000441062
0.00057791
0.00149959
0.000649366
0.000537017
0.0007543
0.000455862
0.000335181
0.000611053
0.000901995
0.000823553
0.000811842
0.000992131
0.00123764
0.00161881
0.000291045
0.000410297
0.000616812
0.00124527
0.000718821
0.000369857
0.000367902
0.000367914
0.000609739
0.000501129
0.000401556
0.000653939
0.000533734
0.000431184
0.000584913
0.000617739
0.000821894
0.000230217
0.000175947
0.000326989
0.000519626
0.000319255
0.000343847
0.000339507
0.000544317
0.000484267
0.000613176
0.000502597
0.000620181
0.000929639
0.000219283
0.000298573
0.000181065
0.00040222
0.000348482
0.000193358
0.000202196
0.000347227
0.000370362
0.000200424
0.000198938
0.000140334
0.000110114
0.000145335
0.000100136
0.000116377
0.0002591
0.000211593
0.00029625
0.000328253
0.000155946
0.000420239
0.000295006
0.000400583
0.0021821
0.000458629
0.00206551
0.000271289
0.00061264
0.00218458
0.000546617
0.000431823
0.000621393
0.00232441
0.000274673
0.000382964
0.000362692
0.000241968
0.0023193
0.000310038
0.000299369
0.000273852
0.000332874
0.000437647
0.0023716
0.000502754
0.000513745
0.000522963
0.000450877
0.00042937
0.000530206
0.00233784
0.000492236
0.000491812
0.000649773
0.000533921
0.000508798
0.00051142
0.000563549
0.00230191
0.000556645
0.000418392
0.000631824
0.000721072
0.000703821
0.000501503
0.000813425
0.000781006
0.00243247
0.000981978
0.000862346
0.000411109
0.000611369
0.000484916
0.000718291
0.000519038
0.000471136
0.000908973
0.00260674
0.000734922
0.000868474
0.000654817
0.00069735
0.000480779
0.000466744
0.000659502
0.000540146
0.000694161
0.000761339
0.0028579
0.000470738
0.000568906
0.000619332
0.000631796
0.000572622
0.000717006
0.000770716
0.000874417
0.000540174
0.000567254
0.000898123
0.00255223
0.000394093
0.000578586
0.000475057
0.000476062
0.000440946
0.000756011
0.00100252
0.000578503
0.00122617
0.00053063
0.000456209
0.000932695
0.00271337
0.000547756
0.000492555
0.000830768
0.000644789
0.000547032
0.000772118
0.000800705
0.000271465
0.000615643
0.00104032
0.000849884
0.000616772
0.000707945
0.00248436
0.000518852
0.000597774
0.000867803
0.000849339
0.00162155
0.0011612
0.000884345
0.000699347
0.00206264
0.00138001
0.000536742
0.00136199
0.000690175
0.00121347
0.00306516
0.000470935
0.000395694
0.00071049
0.000496621
0.00160167
0.000729913
0.00105168
0.000498216
0.000591552
0.000957403
0.000984149
0.000853992
0.000836796
0.000824868
0.00180536
0.0028718
0.000458745
0.000436277
0.000607477
0.000888207
0.00135404
0.000652498
0.000981329
0.000585149
0.000471802
0.0005561
0.000696391
0.000829001
0.000754028
0.000977974
0.00121111
0.000654132
0.00306788
0.000818847
0.000317076
0.000499082
0.000882724
0.00115626
0.000474217
0.000152874
0.000429021
0.000336144
0.000396904
0.000436507
0.000427331
0.000448653
0.000533563
0.000441364
0.000625117
0.00064786
0.000879236
0.000462226
0.000154437
0.000274308
0.00058034
0.000471345
0.00032373
0.00036407
0.000353065
0.000570481
0.000428636
0.000569286
0.00063997
0.000507903
0.000809577
0.000239981
0.000351403
0.000206928
0.000408481
0.000335821
0.000289991
0.000191958
0.000218716
0.000371209
0.000349006
0.000222723
0.000207393
0.000130851
7.96729e-05
0.000220153
0.000115952
0.000132024
0.000276402
0.000218478
0.000228476
0.000321289
0.000156512
0.000342634
0.000202297
0.000385955
0.00219392
0.000630954
0.00208589
0.000537039
0.000395493
0.00206528
0.000701044
0.000494823
0.000562735
0.00219102
0.000531137
0.000470302
0.000423395
0.000757085
0.00229897
0.000233745
0.000283402
0.000440885
0.000266368
0.000457366
0.00222678
0.000475938
0.000258224
0.000153224
0.000300486
0.000480551
0.000591636
0.00227364
0.00061666
0.000482002
0.000514716
0.000474901
0.000468331
0.000600654
0.000411906
0.00226632
0.000829398
0.000467891
0.000569898
0.000576644
0.00052598
0.000577909
0.000647022
0.000590065
0.00212697
0.000881806
0.000780585
0.000522407
0.000366732
0.000556211
0.000485695
0.000397199
0.000768768
0.000841069
0.00238064
0.000570595
0.00060467
0.000587999
0.000547717
0.000348048
0.000667568
0.000481184
0.0003501
0.000750764
0.000950793
0.00231193
0.000703212
0.00060637
0.000540452
0.000636035
0.000700597
0.000852472
0.000864221
0.000657197
0.000439576
0.000618588
0.000789895
0.00303015
0.000595129
0.000556738
0.000438971
0.000416767
0.000701437
0.000978816
0.000866565
0.000969953
0.00076783
0.000851218
0.000532601
0.00110304
0.00251231
9.4425e-05
0.00038754
0.000139408
0.00026039
0.000354235
0.000933138
0.000787302
0.000707351
0.00114796
0.000881567
0.00086872
0.000670741
0.000998937
0.00271897
0.000726441
0.000854393
0.000805356
0.000956269
0.000600409
0.000797043
0.000640969
0.000499469
0.000210029
0.000576095
0.00068804
0.00149675
0.00104
0.000978941
0.00251503
0.000605027
0.00052734
0.000626669
0.00116746
0.00172949
0.00147079
0.000956559
0.00103013
0.00107569
0.000928949
0.000503495
0.000783604
0.00179538
0.00134808
0.00065508
0.00309525
0.000345645
0.000366636
0.000514539
0.000415347
0.0024923
0.000879392
0.000799836
0.000858528
0.000529463
0.000898191
0.00122989
0.000631652
0.000682838
0.00162268
0.00153353
0.00125296
0.00259741
0.000429981
0.000366601
0.000403402
0.000635083
0.00151436
0.00113513
0.000737616
0.000589017
0.000195482
0.000415611
0.00060873
0.00096736
0.00108855
0.000922712
0.00108118
0.00111822
0.00145689
0.00224901
0.000954483
0.000643608
0.000247854
0.000765041
0.000534497
0.000926026
0.000574116
0.000720156
0.000215337
0.000569038
0.000445438
0.000449744
0.00042847
0.000552713
0.000539547
0.000428853
0.000618305
0.000542452
0.00102375
0.000589344
0.000470959
0.000308211
0.000241611
0.000602051
0.000595137
0.000327423
0.000292445
0.000357721
0.000561527
0.000470906
0.000378221
0.000654381
0.000404272
0.000769087
0.000262988
0.000306226
0.000218017
0.000435565
0.000393255
0.000168388
0.000401355
0.000206748
0.000248193
0.000398964
0.000330883
0.000251577
0.000183649
8.2272e-05
0.000141484
0.000140909
0.000103607
0.000300901
0.000280681
0.000238542
0.000170352
0.00031301
0.00018658
0.000300433
0.00021618
0.000276184
0.00234609
0.000261015
0.0021474
0.000409935
0.000654774
0.00211905
0.000481237
0.00064868
0.000566971
0.00210739
0.000762192
0.000690477
0.000519598
0.000480166
0.00214789
0.000754966
0.000428733
0.00029319
0.0004221
0.000576409
0.00223209
0.000666171
0.000325268
0.000461173
0.000349548
0.000370949
0.000348299
0.0022733
0.000446372
0.00024095
0.000248192
0.000239676
0.000455687
0.000441414
0.000450562
0.0024517
0.000305211
0.000315402
0.000419097
0.000419769
0.000388215
0.000625916
0.000679275
0.00049838
0.00215835
0.000634149
0.000268484
0.000351189
0.000517834
0.000627451
0.000732729
0.000431027
0.000645828
0.000791142
0.00236879
0.000670301
0.000634486
0.000615511
0.000469273
0.000490371
0.000422489
0.000669251
0.000557231
0.000736926
0.000771081
0.00259551
0.000443388
0.000652807
0.000548935
0.000891674
0.000638158
0.000874515
0.000564268
0.000622737
0.000699337
0.000727512
0.000769606
0.00237252
0.000622142
0.000554539
0.000632232
0.000748255
0.000885891
0.000827454
0.00102076
0.000878807
0.000707228
0.000729917
0.000527388
0.000572401
0.00300567
0.000412278
0.000634372
0.00052259
0.000478484
0.000676247
0.000951652
0.00105126
0.000823041
0.00102873
0.000589196
0.00103928
0.000730458
0.00107461
0.00256662
0.000489253
0.000397185
0.000534909
0.000302229
0.000287648
0.000616477
0.000945025
0.000482567
0.000728863
0.0014574
0.000966931
0.00129615
0.000915763
0.000713433
0.00261096
0.000987478
0.000842062
0.00149742
0.00116082
0.000612679
0.000718096
0.000714775
0.00056678
0.000549432
0.000846828
0.000825758
0.00172207
0.00173515
0.00100357
0.000586427
0.00245462
0.000375513
0.000441159
0.000508397
0.000210528
0.00119353
0.00139035
0.000997196
0.000977308
0.000585563
0.00115491
0.00161099
0.00068523
0.000956
0.000655598
0.0011471
0.000726852
0.00294157
0.000770461
0.000469832
0.000381619
0.00042146
0.000604253
0.00279316
0.00058067
0.00107761
0.000847534
0.0006895
0.000767243
0.0008505
0.000875198
0.00082241
0.000998801
0.00145608
0.000828674
0.00305172
0.00070342
0.000353716
0.00083858
0.000787736
0.00084366
0.00129822
0.00087517
0.000728863
0.000352506
0.000136188
0.000526571
0.00078928
0.000734474
0.000833858
0.000912465
0.000749676
0.000921626
0.000578803
0.00220338
0.000366397
0.0006852
0.000314152
0.00019943
0.000617617
0.00123118
0.00070297
0.000615043
0.000468756
0.00016711
0.00105936
0.000405845
0.000471777
0.000640977
0.00041221
0.00053709
0.000375457
0.000671675
0.000580598
0.00109995
0.000552873
0.000413143
0.000394295
0.000352015
0.00027565
0.000480491
0.000489665
0.000383926
0.000349065
0.00030178
0.000541634
0.000444954
0.000373648
0.000577617
0.000291104
0.000724446
0.000321842
0.00033436
0.000203399
0.000435287
0.000496214
0.000214666
0.000187034
0.00017912
0.000228898
0.000277868
0.000420079
0.000352183
0.000181662
0.000214961
8.57522e-05
0.000179252
9.18441e-05
9.99913e-05
9.60906e-05
0.000250798
0.000211249
0.000172471
0.00030988
0.000227813
0.000219011
0.00016614
0.00041431
0.00222887
0.000367668
0.00214631
0.000294727
0.000308501
0.00209112
0.000311407
0.00029243
0.00057224
0.00216491
0.000329559
0.000445383
0.000408226
0.000425828
0.00213629
0.000604801
0.000709497
0.000924559
0.000459863
0.000553855
0.00211906
0.000722528
0.000726055
0.000315133
0.000360293
0.000618221
0.000602241
0.00222792
0.000511166
0.000709418
0.000496031
0.000427075
0.000418236
0.000375269
0.000273408
0.00216809
0.00029768
0.000345661
0.000226424
0.000280498
0.000547864
0.000442861
0.000485645
0.000503324
0.0026933
0.000362306
0.000343569
0.000300114
0.000382929
0.00042554
0.000887382
0.000392293
0.000465408
0.000634007
0.00252001
0.000370476
0.000554394
0.000410388
0.000450265
0.00098249
0.000565924
0.000847914
0.000464857
0.00065581
0.000510534
0.00241932
0.000518665
0.000386926
0.000482977
0.000463011
0.000610222
0.00102589
0.000805793
0.000808992
0.000533498
0.000795235
0.000928645
0.00246725
0.000512051
0.000496705
0.000379938
0.000522669
0.000479989
0.000929816
0.000659661
0.00081932
0.00064603
0.000798754
0.000499636
0.000798056
0.00245754
0.000700276
0.000436686
0.000451694
0.000535044
0.000777868
0.000583949
0.00065957
0.000588347
0.000653291
0.000600392
0.000733312
0.000670036
0.000758109
0.00310313
0.00034688
0.000603063
0.000649153
0.000461266
0.000677492
0.000947214
0.000596282
0.000544399
0.00110265
0.000445007
0.000783531
0.000719685
0.000866299
0.00115545
0.00270616
0.00132646
0.000680562
0.000432599
0.00043417
0.000313919
0.000375138
0.000678212
0.000609353
0.00100937
0.000943036
0.000832891
0.000939142
0.000539533
0.000773627
0.000854337
0.00246452
0.000758893
0.000943331
0.000858554
0.00133435
0.000704299
0.000604856
0.000609749
0.000736143
0.000440523
0.000431735
0.000704879
0.000955581
0.00159024
0.000886827
0.000614047
0.00072754
0.00256426
0.000556593
0.000346961
0.000480422
0.000341657
0.000956963
0.00101184
0.00102045
0.000689337
0.000556667
0.00101262
0.000818766
0.000996697
0.000868564
0.000572298
0.000482816
0.00107377
0.000174776
0.00267938
0.000833402
0.000636933
0.000803585
0.000344445
0.000948022
0.00130264
0.000911847
0.000770833
0.00103653
0.000488511
0.000542289
0.00105296
0.00113573
0.000946221
0.00104839
0.00131452
0.00112211
0.00146668
0.00345714
0.000924367
0.000418026
0.00031872
0.00129186
0.000813818
0.00103207
0.00196493
0.000613176
0.00044435
0.000364961
0.000369611
0.000508577
0.000709298
0.000836947
0.000931233
0.000714035
0.000777571
0.000573881
0.00040699
0.00236674
0.000637983
0.000252235
0.00143723
0.000321787
0.000309497
0.000469572
0.000842121
0.000537805
0.000534802
0.000340851
0.000236158
0.000870753
0.000638187
0.00058395
0.000469949
0.000506732
0.000552513
0.000373627
0.000692486
0.000654892
0.00122363
0.000814425
0.000657553
0.000863697
0.000405194
0.000298927
0.000359136
0.000426816
0.000358588
0.000316576
0.000238795
0.000298717
0.000462028
0.000469287
0.000443774
0.000459082
0.000529635
0.000489019
0.000376089
0.00029224
0.000277592
0.000490309
0.000571918
7.85483e-05
0.000146964
0.000249622
0.000206244
0.000258102
0.00031015
0.000403138
0.000383938
0.000186846
0.000189836
0.000129904
0.000130216
0.000106259
0.000108347
7.35516e-05
0.000304972
0.000273657
0.000162514
0.000306694
0.000208925
0.000325218
0.000162185
0.000315415
0.00195055
0.000432399
0.00210084
0.000311471
0.000484496
0.00215439
0.000410359
0.00029682
0.000366641
0.00214596
0.000264051
0.000704204
0.000271035
0.000341838
0.00206726
0.000397229
0.000168521
0.000173915
0.000357377
0.000452294
0.00209348
0.000241987
0.000413613
0.000713002
0.000769032
0.000354556
0.000439296
0.00208548
0.000536255
0.00074564
0.000428037
0.00047453
0.000418692
0.000446483
0.000696554
0.00230294
0.000327456
0.000687036
0.000694987
0.000467516
0.000601833
0.000297021
0.000366435
0.000417039
0.00221066
0.000442922
0.000378973
0.000384626
0.000270834
0.000430084
0.000618421
0.00028207
0.000521565
0.00062042
0.00243755
0.000226022
0.000356737
0.000417683
0.000478195
0.000263904
0.000300288
0.000428885
0.000462841
0.000615533
0.000483979
0.00244239
0.00058364
0.000317854
0.00052923
0.000474045
0.000755172
0.000543505
0.000857707
0.000849571
0.000504823
0.000756159
0.00077912
0.00223004
0.0005162
0.000544868
0.000345619
0.000745176
0.000402827
0.000728077
0.00079476
0.00130897
0.000985808
0.000680038
0.000470982
0.00118424
0.00250397
0.000579099
0.000476778
0.000452214
0.000438844
0.000754239
0.000565009
0.000480457
0.000376005
0.000674454
0.000575357
0.000524712
0.000443741
0.000614667
0.00250563
0.000594917
0.000570222
0.000419363
0.000579036
0.00069265
0.000556159
0.000421356
0.000762918
0.00049544
0.000468254
0.000575765
0.000577334
0.000526737
0.000898789
0.00290506
0.000436816
0.000381199
0.000440264
0.000393927
0.000611501
0.000920412
0.000664932
0.000630519
0.000892982
0.000767735
0.00071155
0.000791223
0.000953629
0.000832987
0.00105567
0.0026899
0.00113508
0.000751923
0.000639186
0.000775359
0.000292231
0.000519652
0.000241234
0.000710687
0.000824832
0.00114065
0.000759392
0.000643682
0.000759686
0.00123144
0.000732041
0.000932165
0.00245018
0.000690733
0.000794081
0.000786673
0.00062893
0.000882215
0.00118173
0.000713674
0.000646235
0.000560222
0.000267102
0.000623735
0.000784943
0.000923542
0.000693691
0.000814727
0.000968947
0.000687919
0.00265353
0.000402384
0.000623048
0.000474505
0.000781212
0.000728993
0.00120789
0.00110815
0.000926218
0.000659405
0.000700712
0.00089579
0.000736832
0.000771636
0.000520935
0.000436898
0.000832688
0.000517394
0.000833803
0.00272465
0.000919766
0.000700493
0.00108324
0.000719272
0.000654266
0.000969925
0.00322934
0.0004098
0.00076707
0.000798585
0.000549848
0.00065861
0.000651371
0.000854941
0.000760271
0.000778527
0.000673987