/*--------------------------------*- C++ -*----------------------------------*\
  =========                 |
  \\      /  F ield         | OpenFOAM: The Open Source CFD Toolbox
   \\    /   O peration     | Website:  https://openfoam.org
    \\  /    A nd           | Version:  7
     \\/     M anipulation  |
\*---------------------------------------------------------------------------*/
FoamFile
{
    version     2.0;
    format      ascii;
    class       surfaceScalarField;
    location    "9.5";
    object      phi;
}
// * * * * * * * * * * * * * * * * * * * * * * * * * * * * * * * * * * * * * //

dimensions      [0 3 -1 0 0 0 0];

internalField   nonuniform List<scalar> 
54125
(
9.73946e-05
-1.33289e-05
-0.000560308
0.000163632
-8.74668e-05
0.000627466
0.000150503
-5.38574e-05
-0.00106148
9.06081e-05
-1.24577e-05
-0.000638458
0.000112203
-7.26153e-05
0.00162632
0.000254434
-0.00015294
-0.000164546
0.000181575
-7.32017e-05
0.0006097
0.000146553
-7.42833e-05
-0.000636995
0.000136899
-4.71131e-05
-0.00116372
9.49311e-05
-1.28645e-05
-0.000720525
9.19304e-05
-7.58808e-06
0.00253482
0.000218071
-6.17997e-05
0.000835184
0.000199007
-0.000103786
0.00171268
0.000319698
-0.000147022
-9.61036e-05
0.000232705
-0.000130257
-0.000203298
0.000182929
-7.21606e-05
0.000593863
8.13065e-05
-8.23984e-05
-0.00112262
0.000141399
-6.57226e-05
-0.000759784
0.000136861
-4.55228e-05
-0.00126793
9.94459e-05
-1.31777e-05
-0.000806793
-0.000347511
0.000386266
0.00466429
0.00027326
-5.2538e-05
0.0018328
0.000135834
-3.07069e-05
0.0026287
0.000390105
-0.000111933
0.000319561
0.000265106
-8.74667e-05
0.000786465
0.000128589
-0.000119507
0.00188653
0.000223403
-0.000152168
-0.000104742
0.000300681
-0.000132191
-0.000253452
0.000239009
-0.000126198
-0.000251409
0.000180049
-7.44775e-05
0.000587737
-2.99887e-05
-5.44583e-05
-2.04785e-06
7.76188e-05
-7.57292e-05
-0.00119023
0.000147452
-6.27498e-05
-0.000890009
0.000135359
-4.45668e-05
-0.0013719
0.000103446
-1.34683e-05
-0.000896771
-0.00124816
0.000628625
0.00627211
0.00027965
0.000388445
0.00333526
-0.000341247
0.000441134
0.00470023
0.000389892
-0.000128305
0.000947567
0.000211627
-8.9096e-05
0.00194466
7.80384e-05
-2.32636e-05
0.00270251
0.000313853
-0.000157669
0.000302964
0.00035007
-0.000119304
0.000302011
0.000244124
-0.000115839
0.000777682
0.000195995
-0.000122414
0.00199299
4.41178e-05
-9.65466e-05
0.000905772
0.000222992
-0.000164352
-0.000217954
0.000300575
-0.000131484
-0.000401289
0.00024455
-0.00012369
-0.000311387
0.000185921
-7.5466e-05
0.000580728
5.76998e-06
-3.59408e-05
-4.79014e-05
-2.05622e-05
-5.05471e-05
-6.66781e-06
8.59284e-05
-7.50714e-05
-0.00126384
0.000150608
-6.10882e-05
-0.0010241
0.000133575
-4.40971e-05
-0.00147484
0.000106907
-1.37715e-05
-0.000989906
-0.001559
0.000614848
0.00593005
0.000266244
0.000689643
0.00459392
-0.00118348
0.000687982
0.00642636
0.000891526
0.000278424
0.002763
5.76135e-05
0.000425408
0.003505
-0.000272155
0.000159795
0.00489063
0.000294497
-0.000147323
0.000761407
0.000350351
-0.000159078
0.00101727
0.000537687
-0.00011931
0.00174715
0.000193994
-5.40124e-05
0.00275852
0.000162098
-6.24701e-05
0.000112873
0.000288296
-0.000161098
0.000279454
0.000339394
-0.000134938
0.000282291
0.000290529
-0.000137207
0.000746496
0.000230269
-0.000127307
0.00207595
6.52563e-06
-7.27215e-05
0.00101368
3.77388e-05
-0.000111423
0.000794542
0.000229339
-0.000187385
-0.000305463
0.000295072
-0.000131062
-0.000538381
0.000247139
-0.000118728
-0.00038169
0.0002234
-7.99155e-05
0.00054415
3.45374e-05
-3.9094e-05
-0.000236449
6.06594e-06
-3.10581e-05
-7.34564e-05
-1.23868e-05
-5.19458e-05
-1.74066e-05
8.25217e-05
-7.47595e-05
-0.00133269
0.000152059
-5.93562e-05
-0.0011609
0.00013006
-4.38668e-05
-0.00157481
0.000109584
-1.3967e-05
-0.00108552
-0.00189902
0.000431229
0.00508109
0.000171376
0.000964627
0.00606235
-0.00150236
0.000601031
0.0056479
0.00119274
0.000545014
0.00379153
-0.000261012
0.000970035
0.00463049
-0.00122334
0.000817011
0.00656054
0.000317847
0.000211534
0.00234111
8.55199e-05
0.000262995
0.00319024
0.000419453
0.000109898
0.00367313
-0.000249804
0.000478582
0.00485585
2.84356e-05
-4.95391e-05
0.00106134
0.000273146
-0.000170511
0.00078799
0.000368958
-0.000192676
0.00106107
0.000355719
-0.000134356
0.0017623
0.000218688
-5.40601e-05
0.00282417
0.000103941
1.41112e-05
0.00120124
0.000135855
-7.95811e-05
-6.67603e-05
0.000285356
-0.000173627
0.000262125
0.000324702
-0.000155739
0.000271193
0.000275366
-0.000156235
0.000747196
0.00025374
-0.000136892
0.0021825
5.50383e-05
-9.65413e-05
0.000795007
-2.13574e-05
-7.22829e-05
0.00100196
4.7882e-05
-0.00012398
0.000670869
0.000213202
-0.000189446
-0.00037776
0.000286313
-0.00011173
-0.000679633
0.000241688
-0.000118484
-0.00045475
0.000215764
-7.90618e-05
0.000517033
-1.21076e-05
-1.10624e-05
-0.000130128
3.50898e-05
-3.44811e-05
-0.000268116
4.3701e-06
-2.99355e-05
-9.98368e-05
1.71543e-05
-5.3331e-05
-5.59894e-05
8.74724e-05
-7.38238e-05
-0.00140569
0.000150273
-5.76323e-05
-0.0012974
0.000127104
-4.38869e-05
-0.00167199
0.000110694
-1.3884e-05
-0.00118233
-0.00164798
4.329e-06
0.00424564
-0.000545713
0.000786065
0.00725425
-0.00188623
0.000390063
0.00507489
0.000481936
0.00111
0.00581108
-0.000527969
0.000865987
0.00606435
-0.00156721
0.000449794
0.00554197
0.000708988
0.000692736
0.00362345
-4.86185e-05
0.000673194
0.00422251
-0.000483321
0.000973681
0.00537659
-0.00115099
0.000915593
0.00654613
-3.49906e-05
0.000106744
0.00260502
0.000105737
0.00018146
0.00259006
0.000305507
0.00020282
0.00316077
7.81068e-05
0.000347447
0.00408188
-0.000287197
0.000535234
0.0048265
0.000162727
7.91865e-05
0.00212936
1.83091e-05
-9.33793e-05
0.00110175
0.000233654
-0.000201366
0.000848384
0.000357787
-0.000213437
0.00110707
0.000257499
-0.000115698
0.00184181
0.000179986
-7.41214e-05
0.00297204
0.00012585
7.21443e-05
0.00169381
3.48722e-05
-1.90365e-05
0.00108446
0.000132317
-0.000119592
-0.00020523
0.000265017
-0.00018592
0.000240492
0.000304595
-0.00016981
0.000266485
0.000341619
-0.000165236
0.000675609
0.000216564
-0.000121802
0.00230351
3.29408e-05
-0.000100505
0.000420929
6.02619e-05
-0.000100643
0.000798194
-2.65168e-05
-6.60731e-05
0.000974941
0.00012304
-0.00011755
0.000493088
0.00022307
-0.000168683
-0.000456405
0.000272741
-0.000101701
-0.000818883
0.000246341
-0.000119088
-0.000533961
0.00022055
-7.79102e-05
0.000485086
-3.30119e-06
-1.8322e-06
-0.00113656
-1.04444e-05
-9.07862e-06
-0.000145086
3.84745e-05
-3.3125e-05
-0.000303401
1.39415e-06
-2.89918e-05
-0.00012557
3.47985e-05
-5.46034e-05
-0.000110008
8.87734e-05
-7.24144e-05
-0.00147968
0.000145679
-5.63217e-05
-0.00143065
0.000124129
-4.37531e-05
-0.00176625
0.000110535
-1.40437e-05
-0.00127882
-0.0013566
-0.000191266
0.00456397
-0.000894166
0.000345361
0.00606353
-0.0016988
3.80226e-05
0.00402019
-3.79492e-05
0.00103248
0.00645188
-0.000601179
0.000647737
0.00706978
-0.00188817
0.000394844
0.005001
0.000439762
0.00125885
0.00549705
4.61246e-05
0.000974363
0.00560796
-0.000826989
0.000771431
0.00608638
-0.00160303
0.000312386
0.00568162
5.35966e-05
0.000870462
0.00448638
0.000101143
0.000498778
0.00380246
0.000133031
0.000665381
0.00470329
-0.000552826
0.00104668
0.00587644
-0.00103969
0.000973629
0.006325
6.5185e-05
0.000114776
0.002838
-2.33245e-05
7.97035e-05
0.00274841
0.000199036
0.000152427
0.00267507
0.00050786
0.000195439
0.00316271
5.82845e-05
0.000492376
0.00432396
-0.000468952
0.000578565
0.00489687
0.000220413
0.000251553
0.00263828
0.000138385
1.01386e-05
0.00192233
2.16682e-05
-0.000185431
0.00119647
0.000216394
-0.000234598
0.000918167
0.000353243
-0.000222733
0.00116545
0.000286896
-0.0001294
0.00195181
7.25152e-05
-5.27205e-05
0.00316881
0.000148438
0.000234435
0.00189144
0.000130796
4.87979e-05
0.00155544
-3.55485e-05
-7.66362e-05
0.00105054
0.000134486
-0.000145826
-0.00025677
0.00024367
-0.000191875
0.000241956
0.000244596
-0.000172601
0.000301994
0.000329653
-0.000170317
0.000640812
0.000189012
-0.000124617
0.00245966
-3.11394e-05
-4.62627e-05
6.21049e-07
3.04692e-05
-0.000104669
0.000384042
8.10757e-05
-0.000108041
0.000797561
-2.85438e-05
-6.06461e-05
0.000947975
0.000162676
-0.00011631
0.000312838
0.000222887
-0.000152316
-0.000539904
0.000249366
-9.38215e-05
-0.000947836
0.000246707
-0.000120295
-0.000614154
0.000236859
-7.2547e-05
0.00043131
-5.10023e-05
-6.4415e-06
-0.00143222
-5.26659e-06
-1.1893e-06
-0.00113918
-9.43106e-06
-8.52177e-06
-0.000160258
4.01089e-05
-3.1477e-05
-0.000341025
-5.84094e-07
-2.81844e-05
-0.000151405
4.77236e-05
-5.57163e-05
-0.00017443
8.85895e-05
-7.09382e-05
-0.00155366
0.000141766
-5.47749e-05
-0.00156139
0.000120175
-4.33005e-05
-0.00185717
0.000110431
-1.33736e-05
-0.00137588
-0.00138109
-5.39313e-05
0.00435013
-0.00118986
-1.25118e-06
0.00547839
-0.00134996
-0.000116244
0.00433138
-0.000233517
0.00057441
0.00577487
-0.000905824
0.000298511
0.00610768
-0.00187573
1.49117e-08
0.00400774
-0.000349915
0.00117087
0.00668658
-0.00050126
0.00103168
0.00661533
-0.00073862
0.000611192
0.00676507
-0.00186491
0.000348303
0.00491458
6.83775e-05
0.00144721
0.00610786
0.00034207
0.00101532
0.00521517
-0.000139446
0.000927622
0.00572425
-0.00114236
0.000790239
0.00619806
-0.00147321
0.000537547
0.00557759
0.000150143
0.00107776
0.00484152
0.000168164
0.000611508
0.00418216
0.000179926
0.000491474
0.00399547
0.000363736
0.000834932
0.00505916
-0.000388831
0.00115525
0.00614194
-0.00114664
0.000808075
0.00619461
2.05013e-05
0.000343484
0.00273976
9.78093e-05
4.63365e-05
0.00291194
-3.195e-05
0.000101719
0.00285273
0.000316546
0.000138182
0.00263217
0.000258895
0.000333914
0.00341552
-7.77913e-05
0.000623754
0.00464345
-0.000620431
0.00058169
0.00500813
0.000160988
0.000315114
0.00283694
0.000227517
0.000167091
0.0023846
-2.73415e-05
-0.000104119
0.00183281
2.60366e-05
-0.000218112
0.00128843
0.00021545
-0.000254085
0.000977739
0.000272861
-0.00020349
0.00121128
0.000486339
-0.00010664
0.00184904
-8.49163e-05
-1.48219e-05
0.00345756
2.76418e-06
0.000335382
0.00181769
9.47274e-05
0.000213006
0.00166297
0.000156666
2.36082e-05
0.0013796
-3.76199e-05
-0.000111994
0.00102578
0.000132451
-0.000169656
-0.000248764
0.000227489
-0.000190251
0.000255004
0.000188706
-0.000176013
0.00036835
0.000309891
-0.000173505
0.000626516
0.000338505
-0.000132337
0.00249035
-7.86316e-05
5.2103e-05
-0.0008631
-2.88361e-05
-4.05464e-05
-3.99322e-05
1.91964e-05
-0.000117593
0.000364966
0.000100184
-0.000111616
0.000788456
-2.39581e-05
-6.29769e-05
0.000918016
0.000184389
-0.000115484
0.000139341
0.00021752
-0.000138998
-0.000623657
0.000224814
-8.61464e-05
-0.00106503
0.000240995
-0.00011865
-0.000688871
0.000255393
-6.36189e-05
0.000349967
-0.000142595
-6.68107e-06
-0.000690704
-5.13355e-05
-6.4651e-06
-0.00137561
-5.85235e-06
-1.04392e-06
-0.0011408
-7.25251e-06
-8.30454e-06
-0.000176178
4.04766e-05
-2.96736e-05
-0.000380012
9.55684e-09
-2.7559e-05
-0.000179572
5.27479e-05
-5.64895e-05
-0.000241626
8.79458e-05
-6.90107e-05
-0.00162737
0.000136452
-5.3711e-05
-0.00168743
0.000117021
-4.17497e-05
-0.00194581
0.000109153
-1.2096e-05
-0.00147294
-0.00144637
7.91918e-05
0.00325015
-0.00116994
1.79452e-05
0.00450666
-0.00145968
-4.2574e-05
0.00450242
-0.000700825
0.000236627
0.0060091
-0.00128612
0.000143391
0.00559905
-0.00139447
-0.000118609
0.00396872
-0.00041846
0.000709632
0.00619778
-0.000478801
0.000442045
0.00560888
-0.000924054
0.00032201
0.00597112
-0.00193689
-2.58011e-05
0.00410553
-0.000120095
0.00132333
0.00656601
0.000119057
0.00119718
0.00674409
-0.000614546
0.000776182
0.00692544
-0.00102945
0.000527127
0.00647334
-0.00167032
0.000190931
0.00492075
0.000217592
0.0014483
0.00647368
0.000330255
0.00117424
0.00578685
-0.00028252
0.00108945
0.00551579
-0.000185459
0.00101381
0.00604987
-0.00105657
0.00113608
0.00626727
-0.00136141
0.000469986
0.00532238
-1.9694e-05
0.001261
0.00476348
0.000218331
0.000878955
0.00445355
0.000131257
0.000487495
0.00402293
0.000311931
0.000594267
0.00424075
-0.000185555
0.00111828
0.00554058
-0.000789415
0.00133504
0.0063266
-0.0012677
0.000752993
0.00608889
0.000201808
0.00055223
0.00235109
0.000188276
0.00022591
0.00259943
-0.000128302
7.28053e-05
0.00304181
0.000160017
7.74097e-05
0.00277953
0.000243505
0.000234382
0.00270365
0.000264451
0.000495718
0.00355196
0.000252748
0.000695854
0.00476288
-0.000857359
0.000621875
0.0051587
-8.61661e-05
0.000354523
0.00239579
4.22059e-05
0.000242914
0.00281364
0.000153744
0.000129407
0.002154
-1.38969e-05
-0.000176832
0.00176781
3.00199e-05
-0.000238841
0.00137562
0.000193162
-0.000279565
0.00108814
-8.08615e-08
-0.000165418
0.00145884
0.000127773
-9.6678e-05
0.00211302
3.38403e-05
-8.7625e-06
0.00377099
-0.000141791
0.000332931
0.00162632
-4.425e-05
0.000310211
0.0017359
4.87542e-05
0.000203258
0.00145376
0.000115073
-4.1131e-06
0.00125684
-2.54543e-05
-0.00013358
0.000991202
0.000137074
-0.000190134
-0.000201566
0.00017832
-0.000192771
0.000310962
0.000148864
-0.000172567
0.000443362
0.000303478
-0.000178974
0.000610671
0.000291409
-0.000135727
0.00259006
-0.00016755
5.70388e-05
0.000208084
-7.21134e-05
4.33947e-05
-0.000926263
-2.39568e-05
-4.55174e-05
-9.39029e-05
1.39595e-05
-0.000127739
0.000359877
0.000107859
-0.000111927
0.000770024
-9.21592e-06
-6.78866e-05
0.000879644
0.000172568
-0.000123775
4.29721e-06
0.000213447
-0.000128804
-0.000706501
0.000195295
-7.99172e-05
-0.00116261
0.000246682
-0.000113029
-0.000769122
0.000250984
-5.26522e-05
0.000260788
-0.000131974
-1.63748e-05
-0.000215861
-0.000141526
-6.86776e-06
-0.000548775
-5.81715e-05
-8.48412e-06
-0.00131
-4.51242e-06
-7.68617e-07
-0.00114383
-3.90931e-06
-8.05736e-06
-0.000193885
4.09291e-05
-2.80662e-05
-0.000420434
3.49648e-06
-2.70554e-05
-0.000212502
5.54378e-05
-5.67604e-05
-0.000309314
8.51205e-05
-6.7273e-05
-0.00169892
0.000128852
-5.2567e-05
-0.00180547
0.000115554
-4.00389e-05
-0.00203342
0.000104243
-1.19639e-05
-0.00156522
-0.00166633
8.65721e-05
0.00305921
-0.00136714
0.000239864
0.00395756
-0.00150226
0.000178654
0.00311407
-0.000924552
0.00026463
0.00499204
-0.00123489
3.93719e-05
0.00437348
-0.00139702
4.72168e-05
0.00445776
-0.00053064
0.000372912
0.00576079
-0.000528608
0.000239022
0.00596328
-0.00129788
0.000166338
0.00568794
-0.00157284
-0.000112443
0.00371711
-0.00049862
0.00095706
0.0064075
-0.000382489
0.000671492
0.00646988
-0.000515782
0.000411069
0.00542106
-0.000859018
0.000327819
0.00544706
-0.00189908
0.000239056
0.00409523
1.10351e-05
0.00150214
0.00638259
5.76413e-05
0.00127782
0.00675798
-0.000694519
0.000983958
0.00694831
-0.000794679
0.000790823
0.00727096
-0.00131751
0.000305825
0.00661938
-0.00167166
2.87179e-05
0.00520229
0.000183398
0.0014575
0.00630582
0.000187934
0.00139539
0.00628292
0.000169782
0.00117514
0.00566264
-0.000274812
0.00113271
0.00598363
-0.00070279
0.00100342
0.00669977
-0.00136606
0.000980382
0.00633351
-0.00140873
0.000379699
0.0050837
0.000302837
0.00130128
0.00454526
0.000197961
0.000988501
0.00464425
7.25223e-05
0.000600533
0.00413969
0.000173852
0.000496096
0.00410727
0.00020167
0.000899986
0.00450088
-0.00014159
0.00147857
0.00580309
-0.000824195
0.00144269
0.00671384
-0.00134817
0.000681192
0.0058985
0.000116339
0.000589659
0.00269172
-0.000176506
0.000397581
0.00239813
8.22322e-05
0.000190994
0.00255275
-0.000236761
5.74688e-05
0.00328462
8.62726e-05
0.000142888
0.00281477
0.000158758
0.000359192
0.00287458
-0.000270036
0.00067624
0.00384153
-0.000328494
0.000872096
0.00496893
-0.00104638
0.000570381
0.00566854
-0.000302269
0.000310709
0.0023122
-0.00014933
0.000262104
0.00248168
2.08638e-05
0.000168491
0.00280245
3.76316e-05
5.02535e-05
0.00200435
-5.46871e-05
-0.000210889
0.00176909
3.07403e-05
-0.000260486
0.00146287
6.47719e-05
-0.000224547
0.00126082
6.75291e-05
-0.000193757
0.00163726
6.51426e-05
-5.47671e-05
0.00239736
-2.93103e-05
-3.66145e-05
0.00412832
-0.00019975
0.000326238
0.00249309
-0.000154885
0.000287453
0.00173185
-7.06641e-05
0.000297587
0.00168828
4.77091e-05
0.000181141
0.00123476
9.67287e-05
-3.92031e-05
0.00117359
-1.36717e-05
-0.000150316
0.00095584
7.86726e-05
-0.000204763
-9.56781e-05
0.000163423
-0.000196643
0.000385062
0.000112516
-0.000169387
0.000516555
0.000282259
-0.000191766
0.000631134
0.000141849
-0.000122716
0.00282191
-0.000213043
1.62595e-05
0.000242823
-0.000179741
3.51099e-05
0.000254583
-9.47869e-05
3.74158e-05
-0.000972581
-1.31421e-05
-5.80621e-05
-0.000154951
3.4945e-06
-0.000130276
0.000370822
0.000106961
-0.000111562
0.000747667
1.47148e-05
-7.80218e-05
0.000822672
0.000168271
-0.000135162
-0.000102178
0.000204335
-0.000120384
-0.000785248
0.000176474
-7.25234e-05
-0.00125074
0.00024031
-0.000103834
-0.000842696
0.000243351
-3.98994e-05
0.00016158
-0.000160577
-1.09867e-05
-0.000627195
-0.000121305
-1.70992e-05
-8.43245e-05
-0.000147691
-9.01396e-06
-0.000400555
-6.55767e-05
-8.48005e-06
-0.00123671
-3.77581e-06
-1.724e-06
-0.00114638
-2.16968e-06
-8.03165e-06
-0.00021175
4.13972e-05
-2.68657e-05
-0.000462021
1.11902e-05
-2.68337e-05
-0.000253619
5.70189e-05
-5.64826e-05
-0.000377124
8.05249e-05
-6.56609e-05
-0.00176635
0.000122429
-4.99565e-05
-0.00191798
0.000112311
-3.95009e-05
-0.0021182
9.77e-05
-1.2109e-05
-0.00165081
-0.00182469
9.58759e-05
0.00257835
-0.0015072
0.000229344
0.00322916
-0.00147366
1.17897e-05
0.00301882
-0.000898791
0.000295709
0.00422204
-0.0013756
0.000299836
0.00397708
-0.00158889
0.000193478
0.00311247
-0.000618934
0.000405763
0.00499871
-0.000865473
0.000228858
0.00513942
-0.00127725
0.000120503
0.00427956
-0.00149774
2.5669e-05
0.00435699
-0.000611864
0.00045449
0.00597186
-0.000616254
0.000349737
0.00588384
-0.000473384
0.000232863
0.00585435
-0.00137503
0.000236504
0.005855
-0.00171314
2.74009e-05
0.00350377
-0.00031627
0.00122774
0.00636609
-0.000314776
0.000841144
0.00661026
-0.000588765
0.000581495
0.0061937
-0.000842735
0.000407447
0.00538949
-0.00109153
0.000542632
0.00491751
-0.00191199
0.000621003
0.00371456
0.000159618
0.00157451
0.00629993
-0.000105165
0.00138189
0.00657162
-0.000155447
0.00118938
0.00687779
-0.000616131
0.000979396
0.00710106
-0.00109707
0.000652207
0.00731886
-0.00131277
0.000100193
0.00649462
-0.00155656
-0.000236684
0.00558681
0.000267017
0.00128049
0.00678236
0.000247833
0.0014524
0.00619894
0.000236221
0.00145209
0.00584227
-0.000179218
0.00120798
0.00594044
-0.000339909
0.00124402
0.0062846
-0.000673807
0.00109374
0.00711863
-0.00131433
0.000744764
0.00645858
-0.00118815
0.000221273
0.00470241
0.000339602
0.00115277
0.00510748
-0.000177347
0.00106253
0.00447208
0.000199023
0.00077054
0.00435745
-0.00022311
0.000561499
0.00406063
0.000367321
0.000414972
0.00431124
-1.23024e-05
0.00123538
0.00491513
-0.000449326
0.00162779
0.00579728
-0.000978389
0.00148815
0.00655678
-0.0015304
0.00062539
0.00575713
1.37887e-05
0.000560802
0.0028575
-0.000116627
0.000429259
0.00262734
-0.000217563
0.00035397
0.00247358
-0.000119432
0.000162909
0.00260438
-5.21007e-05
9.61344e-05
0.00332879
-6.07087e-05
0.000245131
0.00302028
-0.000126862
0.000534734
0.00320772
-0.000326238
0.000889442
0.00421795
-0.000369595
0.000852152
0.00512189
-0.000994506
0.000570418
0.00606331
-0.000323863
0.000253387
0.00269984
-0.000338913
0.000259437
0.0024989
-0.000192633
0.000255266
0.00251687
8.78171e-06
0.000293597
0.00259803
-5.64157e-05
-1.63399e-05
0.00196295
-6.11744e-05
-0.000218792
0.0017749
-5.80455e-05
-0.000198465
0.00157351
0.000185111
-0.000303632
0.00134901
-6.36577e-05
-0.000136219
0.00189488
-1.80397e-05
-6.71753e-05
0.00272822
-0.000243085
-1.98695e-05
0.00453313
-6.20607e-05
0.000392233
0.00191153
-0.000146067
0.000267532
0.00247934
-0.000130161
0.000282139
0.00178267
-5.55822e-05
0.000275013
0.00163685
-4.42778e-05
0.000126297
0.00111703
7.52646e-05
-7.45692e-05
0.00112954
-3.3709e-05
-0.000174721
0.000974221
0.000169464
-0.000223047
-7.04659e-05
0.000132207
-0.000198603
0.000486406
8.22214e-05
-0.000167604
0.000586646
0.000271998
-0.000190327
0.000667056
0.000458302
-0.000113698
0.00272066
-0.000271413
-8.219e-06
-3.27068e-05
-0.000197527
8.47833e-06
0.000345676
-0.000193507
2.04005e-05
0.000317415
-0.000110166
2.97185e-05
-0.00101577
-7.70929e-06
-6.99558e-05
-0.000211338
-2.71172e-07
-0.000122421
0.000379783
8.46345e-05
-0.000109529
0.000735937
4.76839e-05
-9.05011e-05
0.000741518
0.000155146
-0.000144651
-0.000176038
0.000190699
-0.000109379
-0.000858566
0.000160553
-7.03652e-05
-0.00132233
0.00023498
-9.40684e-05
-0.000911196
0.000239586
-2.76583e-05
4.73522e-05
-0.000161139
1.97814e-05
0.000456217
-0.000142511
-1.24628e-05
-0.00048932
-0.000121882
-1.92378e-05
4.77809e-05
-0.000148364
-9.28211e-06
-0.000251389
-6.65754e-05
-1.05002e-05
-0.00116136
-3.62671e-06
-4.18081e-07
-0.00115037
-4.36168e-06
-8.27795e-06
-0.000225976
3.95298e-05
-2.60996e-05
-0.000502285
2.38892e-05
-2.66294e-05
-0.000307362
5.83602e-05
-5.58657e-05
-0.000445279
7.48055e-05
-6.34538e-05
-0.00182766
0.000115413
-4.82634e-05
-0.00202463
0.000103514
-3.81743e-05
-0.00219565
9.01902e-05
-1.31703e-05
-0.00172783
-0.00183877
5.58757e-06
0.00252049
-0.00168692
0.000267993
0.00310052
-0.00158987
3.76199e-05
0.00265694
-0.00111149
0.000272101
0.00389826
-0.00151839
0.000146663
0.00323708
-0.00160059
2.5817e-05
0.0030047
-0.000746219
0.000369764
0.00455485
-0.00101499
0.000307889
0.00436351
-0.00132822
0.000279837
0.00394169
-0.00156175
0.000164249
0.00301222
-0.000429704
0.000415479
0.0050709
-0.000729493
0.000285059
0.00505574
-0.000769386
0.000270131
0.00528579
-0.00145887
0.000104237
0.00428484
-0.0015703
-9.74718e-05
0.00431162
-0.000389944
0.000521131
0.00602255
-0.000387564
0.000412914
0.00598147
-0.000428517
0.000225864
0.00573059
-0.00075986
0.000283764
0.00572422
-0.00139593
0.000298465
0.00588833
-0.00168511
-9.56539e-05
0.00337254
-5.92074e-05
0.00139594
0.00631251
-0.000298954
0.000971054
0.00642997
-0.00017023
0.000765349
0.00644119
-0.000607981
0.000552274
0.00604073
-0.000792109
0.000420867
0.00520629
-0.00100779
0.000588685
0.00464485
-0.00198915
0.000631152
0.003516
0.000252585
0.00153967
0.00637909
1.26491e-05
0.00148632
0.00643068
-0.000113987
0.00139673
0.00671448
-0.000341503
0.00116477
0.0068547
-0.000791895
0.000967242
0.00723801
-0.00113587
0.000542835
0.00733828
-0.00124488
-7.75084e-05
0.006266
-0.00128391
-0.000204195
0.00588676
0.000191181
0.00114409
0.00673601
0.000231514
0.00113108
0.00669481
0.000237326
0.00147885
0.00613389
-6.307e-05
0.00147874
0.00541147
0.000158706
0.00120436
0.00618872
-0.000563241
0.00114616
0.00678312
-0.00057134
0.00100561
0.00697981
-0.00123152
0.000513393
0.00641959
-0.00119689
0.000223838
0.00414506
0.000470145
0.000837313
0.00586926
5.44924e-05
0.000974101
0.00502479
-0.000318124
0.00095871
0.00438447
-0.000156916
0.000676857
0.00427958
4.08208e-05
0.000278179
0.0041045
-0.000124449
0.000695621
0.00491473
-0.000420671
0.00144388
0.00539285
-0.000851211
0.00160688
0.00620352
-0.000955998
0.00140776
0.00636081
-0.00161505
0.000680534
0.00569714
3.0752e-05
0.000739363
0.00334636
-0.000113292
0.000243519
0.00281762
-0.000413106
0.00030665
0.00289514
-0.000283765
0.000248715
0.00268032
-0.000168942
0.000138429
0.00267461
0.000204865
0.00013855
0.00316933
-0.000161273
0.000433097
0.00322514
-7.92879e-05
0.000715795
0.00364577
-0.000575463
0.000877391
0.00470452
-0.000433195
0.00086069
0.00524678
-0.000944353
0.000535866
0.00622872
6.51104e-05
0.00056213
0.00330338
-0.000221053
0.000249351
0.00278492
-0.000277806
0.000280944
0.00262087
-0.00018234
0.000381379
0.00255585
-0.000115998
0.00010603
0.00254738
-0.000128462
-4.3196e-05
0.00199108
-0.000125659
-0.000198634
0.00186701
1.36892e-05
-0.000265057
0.00169071
1.8223e-05
-0.000220567
0.00154734
-0.00025765
-0.000126024
0.0022936
-0.000111623
-8.8619e-05
0.00318059
0.000189108
-3.14921e-06
0.00480547
-0.000289566
0.000479502
0.00123185
-0.000203676
0.000295964
0.00188924
-0.000155951
0.000261305
0.00246262
-0.000192142
0.000266437
0.00187322
-0.000141449
0.000246693
0.00165019
-6.39149e-05
7.12688e-05
0.00103484
1.22243e-05
-9.89799e-05
0.00112621
-1.71625e-05
-0.000194817
0.00101084
7.40428e-05
-0.000227098
3.91319e-05
9.43102e-05
-0.000195639
0.00061083
8.26444e-05
-0.000173532
0.00064776
0.000246095
-0.00018168
0.000723924
0.00023149
-9.2006e-05
0.00282076
-0.000318428
0.000103783
0.000486302
-0.000248639
-3.04917e-05
0.000112391
-0.000190746
-3.86062e-07
0.000435328
-0.000181695
1.48044e-05
0.000365661
-0.000111202
1.74709e-05
-0.00105857
1.77313e-06
-7.47557e-05
-0.000264403
-7.18313e-06
-0.000103852
0.000376928
7.79319e-05
-0.000108683
0.000715717
8.58701e-05
-9.77122e-05
0.000632598
0.000142791
-0.000143911
-0.000225938
0.000164713
-0.000103451
-0.000915388
0.00014651
-7.57978e-05
-0.0013717
0.00022477
-8.8222e-05
-0.000971888
0.000189868
-1.42652e-05
-3.80604e-05
-5.55642e-05
2.92357e-05
0.0018148
-0.000139571
1.58662e-05
0.000567459
-0.000139033
-1.51533e-05
-0.000354371
-0.000121697
-2.05074e-05
0.000180703
-0.000146621
-1.04228e-05
-0.000104846
-7.22644e-05
-1.00384e-05
-0.00107947
-6.10793e-06
-1.42166e-06
-0.00115112
-7.17755e-06
-8.47422e-06
-0.000236423
3.83249e-05
-2.57432e-05
-0.000541496
3.84432e-05
-2.63089e-05
-0.000375362
5.82718e-05
-5.50661e-05
-0.000511939
6.63419e-05
-6.19724e-05
-0.0018803
0.000107179
-4.51077e-05
-0.00212488
9.71082e-05
-4.13659e-05
-0.00226456
7.67719e-05
-1.36091e-05
-0.00179099
-0.0019237
6.00368e-05
0.00231869
-0.00180181
0.000166272
0.00288784
-0.00163414
2.52605e-05
0.0025395
-0.00132914
0.000358121
0.00345488
-0.00160572
0.000138883
0.00308659
-0.00167456
1.4213e-05
0.0027167
-0.000957901
0.000351174
0.0040013
-0.00116364
0.000243052
0.00395052
-0.00154094
0.000138216
0.00333741
-0.00160584
6.30706e-06
0.00304248
-0.000474004
0.000408753
0.00450682
-0.00072446
0.000307693
0.00455001
-0.000849618
0.000269608
0.00445397
-0.0013534
0.000177188
0.00382328
-0.00162053
0.000130401
0.00293204
-0.000424698
0.000480412
0.00517674
-0.000457815
0.000361617
0.0050646
-0.000568931
0.000327017
0.00513927
-0.00100199
0.000203135
0.00542903
-0.00148172
6.34851e-06
0.00426681
-0.00154523
-8.00371e-07
0.00417254
-0.000190424
0.000611795
0.00609609
-0.000296257
0.000424753
0.00600802
-0.000174776
0.00032661
0.00588527
-0.000568049
0.000229939
0.00574448
-0.000654494
0.000192919
0.00569215
-0.00128128
0.000242944
0.00582323
-0.00185947
-5.19496e-05
0.00329481
-3.12832e-05
0.00146877
0.0062859
-0.000198861
0.00107057
0.0064245
-0.000287489
0.000876689
0.00649213
-0.000377886
0.000764803
0.00626504
-0.000795329
0.000467159
0.00599787
-0.00095548
0.000398442
0.00521614
-0.0009747
0.000479515
0.00452631
-0.00193474
0.000497074
0.00366976
0.00024208
0.00150691
0.00634122
0.00017254
0.00146198
0.00646241
-5.01917e-05
0.00144079
0.00667413
-0.000353987
0.0013341
0.00683607
-0.000465056
0.00118706
0.00725865
-0.000867311
0.000779138
0.00730578
-0.000899669
0.000580246
0.00700886
-0.00124589
-0.000119208
0.00619539
-0.00102398
9.87355e-05
0.00561512
0.000262197
0.0010367
0.00673912
0.000166466
0.000911011
0.00684411
-4.31145e-05
0.00119159
0.00670706
1.49599e-05
0.0013688
0.00607196
-0.000140885
0.00132448
0.00547305
-0.000374538
0.00107951
0.00650546
-0.000694559
0.00100902
0.0070536
-0.00110281
0.000812475
0.00693232
-0.00121233
0.000504531
0.00639523
-0.00153762
0.000290662
0.00377697
0.000483755
0.000774437
0.00585974
0.000240037
0.000825762
0.00566427
-0.000261556
0.00093228
0.00489967
-0.000259052
0.000783563
0.00425305
-0.000191394
0.000471988
0.00410822
0.000436742
0.00031827
0.00424998
-0.000338234
0.00112292
0.00541265
-0.000610481
0.0014806
0.00605033
-0.00102742
0.00150771
0.00655554
-0.000793306
0.00135219
0.00604927
-0.00151105
0.000502589
0.00576125
-0.000110158
0.00094687
0.00541994
-0.000108791
0.000476491
0.00300113
-0.000282506
3.93292e-05
0.00308964
-0.000371617
0.000196278
0.00313685
-0.000398562
0.000213271
0.00288804
-0.000272405
9.5761e-05
0.00286134
-2.62785e-05
0.000262414
0.00324063
-0.000273879
0.000605326
0.00362318
-0.000379141
0.000774244
0.00414628
-0.000799533
0.000894341
0.00521275
-0.000842669
0.000804605
0.00570908
-0.000961919
0.000397854
0.00698189
-0.000160396
0.000717179
0.0038958
-7.61206e-05
0.000431493
0.00299368
-0.000200769
0.000167912
0.00294276
-0.000343855
0.000200236
0.00295372
-0.000316563
0.000170742
0.00266625
-0.000176932
6.49631e-05
0.00255224
-0.000188115
-7.02475e-05
0.00206303
-0.000137059
-0.000179097
0.00190095
-0.000176526
-0.000173554
0.00189426
-8.49674e-05
-0.000185692
0.00178628
-5.13839e-05
-0.000135249
0.00247426
-0.000133605
-3.54341e-05
0.00359257
4.14052e-05
-7.49661e-06
0.00500305
-8.94773e-05
0.00051441
0.0018106
-0.000286559
0.000324415
0.00124132
-0.000238197
0.00024217
0.00195583
-0.000159863
0.000239817
0.00246741
-0.000169744
0.000240263
0.00193819
-0.00013512
0.000205088
0.00165326
-9.10521e-05
4.2082e-05
0.000977643
-1.71322e-05
-0.0001114
0.00113786
-2.59417e-05
-0.000205826
0.00110138
3.62069e-05
-0.000229676
0.000179752
4.32986e-05
-0.000190873
0.000749585
6.63498e-05
-0.000175816
0.000722056
0.000195521
-0.000167501
0.000828668
0.00015279
-6.90943e-05
0.00292694
-0.000117899
0.00020695
0.00331979
-0.00028649
6.37496e-05
0.00053898
-0.000242663
-4.46738e-05
0.000260308
-0.000183367
-8.06749e-06
0.00051987
-0.000182686
8.9741e-06
0.000410223
-0.000128144
1.71036e-06
-0.00107916
1.23316e-05
-6.55046e-05
-0.00032119
-1.58377e-05
-8.49569e-05
0.000361861
8.29357e-05
-0.000108854
0.000682248
0.000143014
-9.23516e-05
0.000476468
0.000125779
-0.000125791
-0.000271104
0.000141101
-0.00010443
-0.000961515
0.000123124
-8.02528e-05
-0.00139561
0.000213328
-8.1204e-05
-0.00102117
0.00015904
-4.42881e-07
-0.000119886
-4.06505e-06
-1.64065e-06
0.00146497
-3.87429e-05
2.43411e-05
0.00184507
-0.000132496
1.41388e-05
0.000670663
-0.000135834
-1.6641e-05
-0.000222403
-0.000120652
-2.18971e-05
0.000312829
-0.00014794
-1.26566e-05
4.57125e-05
-7.05829e-05
-1.21061e-05
-0.000998206
-8.86556e-06
-4.2882e-07
-0.0011503
-8.15687e-06
-8.86057e-06
-0.000245149
3.64955e-05
-2.5628e-05
-0.000578672
5.22082e-05
-2.58294e-05
-0.000456806
5.60418e-05
-5.35727e-05
-0.00057638
5.94673e-05
-5.9309e-05
-0.00192556
9.17135e-05
-4.59108e-05
-0.00221204
8.98651e-05
-4.37015e-05
-0.00232433