/*--------------------------------*- C++ -*----------------------------------*\
  =========                 |
  \\      /  F ield         | OpenFOAM: The Open Source CFD Toolbox
   \\    /   O peration     | Website:  https://openfoam.org
    \\  /    A nd           | Version:  7
     \\/     M anipulation  |
\*---------------------------------------------------------------------------*/
FoamFile
{
    version     2.0;
    format      ascii;
    class       volVectorField;
    location    "9.5";
    object      U;
}
// * * * * * * * * * * * * * * * * * * * * * * * * * * * * * * * * * * * * * //

dimensions      [0 1 -1 0 0 0 0];

internalField   nonuniform List<vector> 
18750
(
(0.363393 1.11816 0.0646801)
(-0.407749 0.869528 -0.239547)
(0.721947 1.78044 -0.671088)
(0.352402 1.15578 0.0435243)
(-1.11319 0.833712 -0.331821)
(0.144686 1.28016 -0.987035)
(-0.465272 0.876261 -0.218146)
(0.405325 1.49934 -1.53095)
(0.679098 1.81858 -0.664987)
(0.326561 1.1996 0.0254406)
(-1.71404 0.0326853 0.0346551)
(-0.548702 1.28124 -0.272174)
(-1.04559 1.11799 -0.453845)
(0.0591518 1.60663 -1.08452)
(0.0993306 1.28864 -0.915394)
(-0.500599 0.9322 -0.222673)
(0.73676 0.580354 -1.60716)
(0.404405 1.60894 -1.45728)
(0.639044 1.84407 -0.661581)
(0.311396 1.24417 0.0175909)
(-3.16911 0.6024 0.769683)
(-1.24818 0.261874 -0.0891377)
(-1.71346 0.349311 -0.0138245)
(-0.188661 1.593 -0.269328)
(-0.598798 1.27885 -0.468192)
(-1.40118 0.930838 -0.422786)
(0.061812 1.22542 -1.02455)
(0.0673834 1.71408 -1.02012)
(0.010125 1.29173 -0.885431)
(-0.566872 0.973148 -0.230105)
(-0.0156867 -0.403528 -1.81253)
(0.730908 0.58917 -1.59048)
(0.374736 1.72976 -1.38198)
(0.610843 1.85117 -0.66575)
(0.288099 1.29089 0.0167748)
(-4.20363 -1.83151 0.382248)
(-2.152 1.36926 0.936522)
(-3.15648 0.22672 0.823778)
(-0.587973 1.15823 -0.227255)
(-1.22534 0.660207 -0.21009)
(-1.91226 -0.256769 0.0926374)
(-0.174943 1.1313 -0.618247)
(-0.256557 1.58819 -0.367695)
(-0.633788 1.32068 -0.63388)
(-1.47428 0.718025 -0.396645)
(-0.660111 -0.149091 -1.04639)
(0.0699755 1.41271 -1.06739)
(0.0689847 1.74743 -0.981328)
(0.000162887 1.30055 -0.902068)
(-0.636924 0.997503 -0.228605)
(0.0233587 0.0375563 -0.490895)
(0.0172086 -0.253766 -1.86968)
(0.748651 0.730037 -1.51524)
(0.353218 1.82154 -1.32819)
(0.561917 1.86059 -0.675188)
(0.264192 1.32999 0.0184009)
(-4.17109 -2.18478 -0.156661)
(-3.02723 -0.105968 1.78961)
(-4.28342 -2.02316 0.647593)
(-1.96568 0.942245 0.788047)
(-2.49282 0.483417 1.3299)
(-3.29459 0.222372 0.778051)
(-0.454933 0.947248 -0.556625)
(-0.685923 0.998236 -0.375901)
(-1.3674 0.328483 -0.267657)
(-1.79672 0.352903 -0.0155857)
(-0.123064 0.734152 -0.730626)
(-0.227797 1.13849 -0.680011)
(-0.331934 1.52713 -0.462936)
(-0.737925 1.31589 -0.700693)
(-1.5473 0.604523 -0.375371)
(-0.684724 0.112278 -0.303659)
(-0.560647 -0.2257 -1.38997)
(0.0678929 1.50593 -1.09464)
(0.0396851 1.75273 -0.919411)
(-0.0301882 1.30551 -0.905524)
(-0.695444 1.03315 -0.236843)
(0.156977 0.346497 -0.980574)
(0.0373125 0.0512607 -0.479922)
(0.0152116 -0.136173 -1.90192)
(0.75186 0.779322 -1.47826)
(0.327499 1.89024 -1.28943)
(0.542172 1.86072 -0.685566)
(0.254773 1.3524 0.0213372)
(-3.3954 -2.27104 0.1787)
(-4.08975 1.25187 1.84894)
(-3.80741 -2.7457 0.105284)
(-2.05152 2.78399 0.779915)
(-3.10251 -0.416254 1.99554)
(-4.18246 -2.14998 1.11878)
(-1.52439 0.666462 0.466264)
(-1.96924 0.994383 0.793838)
(-2.18234 2.40075 -0.0623799)
(-3.3197 -0.109603 1.09029)
(-0.69245 0.311843 -0.330835)
(-0.55376 0.923424 -0.680192)
(-0.784761 0.946222 -0.489169)
(-1.23093 0.635695 -0.36578)
(-2.0568 0.490665 -0.108861)
(-0.861108 -0.00867527 0.192279)
(-0.0328112 0.714505 -0.834004)
(-0.287524 1.09193 -0.718903)
(-0.409211 1.42053 -0.584794)
(-0.783833 1.28732 -0.767344)
(-1.65677 0.82313 -0.421172)
(-0.522085 0.352165 -0.67262)
(-0.67775 0.0761781 -0.329735)
(-0.513757 -0.190242 -1.68384)
(-0.0116434 1.39955 -1.14618)
(0.0408685 1.7593 -0.834618)
(-0.0993537 1.26759 -0.945054)
(-0.766692 1.07796 -0.235383)
(0.0791851 -0.218045 -0.668331)
(0.153602 0.403531 -0.919327)
(0.0511767 0.0574304 -0.501816)
(0.0217562 -0.0304201 -1.91263)
(0.746748 0.843822 -1.42556)
(0.299559 1.93411 -1.26248)
(0.509727 1.88565 -0.694588)
(0.238892 1.35896 0.0231118)
(-3.0429 -2.26608 -0.183909)
(-4.77555 -0.465171 0.907557)
(-3.32165 -2.48836 0.102963)
(-3.44213 1.57371 1.40327)
(-4.05167 -0.898559 1.73789)
(-3.41291 -3.28068 -0.0209703)
(-2.5413 0.697725 1.22962)
(-2.97836 -0.88304 1.83481)
(-3.22042 -0.960341 2.06348)
(-4.15554 -2.15702 1.46147)
(-1.68984 -0.0898313 0.494881)
(-1.66042 0.529516 0.457689)
(-2.24303 0.847491 0.625308)
(-3.02764 0.647192 1.16214)
(-3.25067 -0.473677 1.20714)
(-1.47319 0.810709 0.032848)
(-0.718155 0.210697 -0.425747)
(-0.624655 0.89978 -0.773172)
(-0.866254 0.831114 -0.519919)
(-1.422 0.351062 -0.273016)
(-2.15579 0.189736 -0.1036)
(-1.14043 0.235327 -0.0590877)
(-0.743109 -0.418509 0.110353)
(0.0440422 0.741501 -0.90889)
(-0.334473 0.989823 -0.771711)
(-0.452333 1.29331 -0.679896)
(-0.852727 1.19709 -0.794325)
(-1.87944 0.421759 -0.268175)
(-0.295846 0.0324931 -0.693864)
(-0.53912 0.350455 -0.737749)
(-0.675586 -0.0175737 -0.232589)
(-0.451254 0.518998 -1.65433)
(-0.0355481 1.54076 -0.920121)
(0.0411542 1.71733 -0.798148)
(-0.0495201 1.24543 -0.922646)
(-0.838957 1.09252 -0.213355)
(0.766135 0.0907161 0.221786)
(0.100642 -0.195152 -0.678185)
(0.149127 0.442878 -0.841966)
(0.0662542 0.0472335 -0.543525)
(0.0347438 0.0705119 -1.91026)
(0.741711 0.911686 -1.363)
(0.266088 1.95558 -1.24362)
(0.453612 1.90893 -0.699159)
(0.238683 1.35782 0.025892)
(-3.09878 -1.40063 -0.143)
(-4.10185 -0.743068 0.186735)
(-2.66724 -2.83415 -0.270613)
(-4.15501 0.120553 1.27753)
(-4.84179 -0.928971 0.973064)
(-3.24393 -2.49203 0.166392)
(-3.16599 1.92921 1.86359)
(-3.95446 0.516654 1.39931)
(-3.93347 -1.70843 1.39651)
(-3.28517 -3.47614 -0.346063)
(-3.1311 0.0923779 1.39532)
(-2.51276 -0.163676 1.02527)
(-2.88516 0.0289734 1.78581)
(-3.60203 -1.29074 2.12108)
(-4.03222 -2.36713 1.52604)
(-1.83397 0.124027 0.00101359)
(-1.79203 -0.189405 0.478822)
(-1.80551 0.138485 0.362288)
(-2.29153 0.718141 0.609826)
(-2.97265 0.145036 1.37829)
(-3.21238 -0.743338 1.29772)
(-1.81071 0.763175 0.472047)
(-1.3794 0.666566 -0.180004)
(-0.792609 0.148793 -0.516329)
(-0.720279 0.781846 -0.853818)
(-0.916561 0.727422 -0.495522)
(-1.37019 0.814678 -0.42438)
(-2.13624 0.0122208 -0.0374802)
(-1.33746 0.360476 0.638554)
(-1.10705 0.25224 -0.260934)
(-0.671361 -0.460882 -0.15264)
(0.0491548 0.779183 -0.970399)
(-0.350919 0.914675 -0.796978)
(-0.532784 1.16203 -0.722564)
(-0.902881 1.26699 -0.798098)
(-1.88341 0.303582 -0.263853)
(-0.0203387 -0.273061 -0.670586)
(-0.267038 0.00450633 -0.82559)
(-0.579344 0.364288 -0.739553)
(-0.637778 -0.11475 -0.1577)
(-0.46282 0.871756 -1.56801)
(-0.0869457 1.56306 -0.790529)
(0.0615385 1.63253 -0.831441)
(-0.107492 1.21463 -0.917439)
(-0.901332 1.103 -0.17271)
(0.949889 -0.540627 -0.311423)
(0.763793 0.102244 0.274288)
(0.119435 -0.16523 -0.685893)
(0.143419 0.461725 -0.754151)
(0.0860722 0.0228827 -0.592879)
(0.0437367 0.167138 -1.89789)
(0.73223 0.961247 -1.31114)
(0.24503 1.98842 -1.21769)
(0.398276 1.90352 -0.705298)
(0.227991 1.3611 0.0281826)
(-2.88394 -1.09737 0.019715)
(-3.62285 -1.07295 -0.236718)
(-2.95725 -1.76464 -0.197236)
(-3.8759 0.0181248 0.668118)
(-3.97517 -1.09185 0.349104)
(-2.34346 -3.16534 -0.461756)
(-4.13598 -0.359621 1.4406)
(-4.29702 -0.605984 1.03107)
(-4.53842 -1.50027 0.962987)
(-2.89361 -2.67473 0.520985)
(-3.98482 0.354223 2.16973)
(-3.79118 0.314308 1.79498)
(-3.81579 -0.187543 1.37224)
(-3.84447 -2.11792 1.27543)
(-3.17403 -3.33382 -0.704236)
(-3.30088 0.290223 1.81504)
(-2.85122 -0.0571002 0.941539)
(-2.49802 0.384653 0.978283)
(-3.31352 0.707192 1.97227)
(-3.97278 -1.37474 2.25125)
(-3.41508 -3.23536 0.618107)
(-1.80115 0.465058 0.552841)
(-1.94019 0.00547386 -0.0647106)
(-1.86007 -0.28254 0.414548)
(-1.81418 0.00414507 0.327161)
(-2.28396 0.569067 0.987252)
(-2.94833 -0.425466 1.46778)
(-3.07512 -1.4853 1.06653)
(-1.85669 0.812185 0.954029)
(-1.68218 0.685293 0.252554)
(-1.23874 0.0454471 -0.670907)
(-0.848483 0.102456 -0.634586)
(-0.784293 0.630348 -0.926325)
(-0.922677 0.321217 -0.3695)
(-1.58386 0.40767 -0.358931)
(-2.29733 -0.445551 0.0968832)
(-1.25439 -0.0164865 1.28084)
(-1.17893 0.300846 0.690298)
(-1.01695 0.389295 -0.503416)
(-0.633415 -0.451765 -0.311978)
(-0.00450688 0.810001 -0.99124)
(-0.404624 0.840177 -0.784045)
(-0.565928 0.971547 -0.761184)
(-0.983458 1.21321 -0.827)
(-1.98657 0.260378 -0.278233)
(0.541311 -0.511038 0.0401774)
(0.018406 -0.278048 -0.742656)
(-0.255449 -0.0162012 -0.926327)
(-0.594099 0.362344 -0.73098)
(-0.60192 -0.151623 -0.203981)
(-0.458701 1.10071 -1.44652)
(-0.129351 1.57398 -0.629064)
(0.0869285 1.55129 -0.84992)
(-0.0912796 1.20197 -0.869821)
(-0.958011 1.11274 -0.121801)
(0.489954 -1.50988 0.0482841)
(0.963703 -0.496268 -0.339776)
(0.760783 0.113164 0.308117)
(0.138988 -0.133981 -0.690918)
(0.14236 0.463902 -0.664487)
(0.111127 -0.00719054 -0.64413)
(0.0477463 0.262254 -1.87199)
(0.721901 1.01931 -1.25269)
(0.235813 2.02204 -1.19345)
(0.407898 1.90891 -0.665868)
(0.222441 1.37871 0.0435331)
(-2.26303 -1.28167 -0.00302042)
(-3.04428 -1.08877 -0.111103)
(-2.84753 -1.35198 0.0384218)
(-3.8871 -0.318953 0.229815)
(-3.63165 -1.45884 -0.0455598)
(-2.56928 -2.16512 -0.226996)
(-4.16487 -0.33273 0.6333)
(-3.69232 -1.09189 0.467579)
(-3.92686 -1.46402 0.45759)
(-2.2207 -3.22325 -0.615234)
(-4.30527 0.142016 1.63183)
(-4.40978 0.651118 1.88183)
(-4.45788 -0.960007 0.862389)
(-3.99431 -2.55504 0.479895)
(-2.80041 -2.70382 0.493992)
(-4.25454 0.509722 2.2889)
(-3.96772 0.476447 1.82789)
(-3.53467 -0.257624 1.77531)
(-3.74161 -0.417019 1.54138)
(-3.86399 -1.94214 2.3805)
(-2.98257 -3.17426 -0.193318)
(-3.20134 -0.265533 2.18404)
(-3.16039 0.262484 1.59296)
(-2.62323 -0.27001 0.981328)
(-2.84745 0.730197 1.48571)
(-3.62116 -0.699233 2.31513)
(-3.81785 -1.81913 2.4904)
(-3.18599 -3.52762 0.1682)
(-1.60508 0.10583 1.03189)
(-1.78698 0.470467 0.312224)
(-1.9062 -0.496606 0.105124)
(-1.84445 -0.386608 0.379249)
(-1.75487 0.000349674 0.658672)
(-2.47986 0.249938 1.50448)
(-3.46702 0.678221 1.60094)
(-2.76804 -2.2852 0.789665)
(-1.57168 0.144374 0.955972)
(-1.9022 0.339495 0.779906)
(-1.57438 0.577676 0.044361)
(-1.20707 -0.082773 -0.752359)
(-0.925758 -0.0145264 -0.674774)
(-0.845309 0.500617 -0.938018)
(-0.96672 -0.0178009 -0.251958)
(-1.55348 0.247215 -0.219868)
(-2.77486 0.38143 0.133859)
(-1.03424 -0.314543 1.49051)
(-1.16149 -0.0922923 1.24045)
(-1.05169 0.113904 0.707337)
(-0.950941 0.535854 -0.659998)
(-0.602719 -0.423581 -0.492904)
(-0.0228004 0.78499 -0.978322)
(-0.447091 0.712162 -0.783755)
(-0.608261 0.763336 -0.750787)
(-1.03984 1.12935 -0.86084)
(-2.12116 0.219957 -0.241135)
(-0.199939 -1.38823 0.645811)
(0.611721 -0.594162 0.136173)
(0.0635378 -0.230288 -0.831206)
(-0.230516 0.00181247 -0.978104)
(-0.609448 0.35079 -0.7253)
(-0.600162 -0.101586 -0.289599)
(-0.424134 1.1023 -1.40475)
(-0.167618 1.56532 -0.488028)
(0.114592 1.45718 -0.869842)
(-0.127558 1.20644 -0.783165)
(-0.969716 1.09714 -0.0652313)
(0.160052 -1.36068 -0.308852)
(0.475986 -1.5354 0.0490503)
(0.954465 -0.455638 -0.367102)
(0.758195 0.130771 0.323766)
(0.151004 -0.109323 -0.692586)
(0.143982 0.456686 -0.580861)
(0.138468 -0.0225826 -0.693278)
(0.0443263 0.349424 -1.83222)
(0.712967 1.0545 -1.21406)
(0.196551 2.03541 -1.16423)
(0.350513 1.94715 -0.627798)
(0.247197 1.38919 0.0575258)
(-2.00651 -1.09845 0.0365594)
(-2.59345 -0.945629 0.145092)
(-1.9959 -1.75577 0.0184617)
(-3.33231 -0.840708 0.142193)
(-2.87813 -1.58228 -0.120454)
(-2.92344 -1.3728 0.0741519)
(-3.82588 -0.302719 0.29022)
(-3.94738 -0.38865 0.338613)
(-3.6126 -1.51229 -0.0172595)
(-2.22086 -2.49196 -0.231054)
(-4.17419 -0.192418 1.05074)
(-4.13146 -0.592893 0.657349)
(-3.58417 -1.47382 0.43779)
(-3.72372 -1.63835 0.529647)
(-2.26495 -3.01779 -0.563391)
(-4.17577 0.442672 1.94637)
(-4.30381 0.400364 1.7252)
(-4.56678 -1.3711 1.33332)
(-4.56574 -1.40695 1.03533)
(-3.80039 -2.96533 0.0703232)
(-2.66445 -2.81315 0.552733)
(-4.26604 0.486415 2.24245)
(-4.22666 0.361532 2.15599)
(-3.85184 0.20389 1.85833)
(-3.56062 -0.533712 1.89585)
(-4.01159 -1.65259 1.52858)
(-3.38478 -3.46053 1.64216)
(-2.40182 -3.586 0.228914)
(-2.9883 0.809051 2.35149)
(-3.05522 0.147105 1.95353)
(-2.7539 -0.523926 1.04141)
(-2.74126 0.424544 0.932271)
(-3.0977 0.0957293 2.21077)
(-3.76225 -0.721486 2.88267)
(-3.92625 -2.03295 2.70574)
(-2.74838 -4.01014 -0.503501)
(-1.8345 -0.554735 1.40639)
(-1.54932 -0.220953 0.850473)
(-1.69407 -0.0351198 0.261524)
(-2.04521 -0.504646 0.013583)
(-1.79592 -0.419567 0.531307)
(-1.86989 -0.209334 0.9804)
(-2.34515 -1.17089 1.89204)
(-3.10021 -1.52736 2.04125)
(-2.58161 -2.93455 0.654338)
(-1.46402 -0.481885 1.05112)
(-1.58655 -0.279404 0.84689)
(-1.83837 -0.00201903 0.750035)
(-1.36592 -0.0468567 -0.336967)
(-1.1706 -0.11861 -0.828491)
(-0.952098 -0.00985275 -0.814894)
(-0.91514 0.142538 -0.837617)
(-0.980882 -0.254336 -0.345622)
(-1.62548 0.0493806 -0.214933)
(-2.96636 -0.506021 -0.0927179)
(-1.6023 -0.193035 1.19258)
(-1.06501 -0.247498 1.53504)
(-1.11904 -0.14618 1.13698)
(-0.888709 -0.0236155 0.618247)
(-0.937539 0.547421 -0.671157)
(-0.564302 -0.365673 -0.680246)
(-0.153682 0.610192 -0.980735)
(-0.510314 0.620413 -0.775525)
(-0.643507 0.511683 -0.745875)
(-1.0944 1.14051 -0.913938)
(-2.20962 -0.0554765 -0.207264)
(-0.155385 -1.357 0.162057)
(-0.101593 -1.66514 0.494038)
(0.692652 -0.704766 0.151967)
(0.103727 -0.132503 -0.92529)
(-0.262983 0.0566015 -0.97746)
(-0.632806 0.356501 -0.726132)
(-0.614314 0.023093 -0.433084)
(-0.401298 1.04847 -1.39048)
(-0.197084 1.53542 -0.369489)
(0.159619 1.35953 -0.871678)
(-0.143676 1.21854 -0.672861)
(-0.968513 1.03989 0.0215617)
(0.423203 -1.58325 -0.403883)
(0.147246 -1.35906 -0.347497)
(0.477165 -1.52589 -0.0109338)
(0.942861 -0.457391 -0.368796)
(0.75558 0.149156 0.337875)
(0.16574 -0.0625944 -0.69766)
(0.149518 0.452227 -0.504367)
(0.158881 9.87843e-05 -0.733453)
(0.038301 0.422529 -1.78317)
(0.702429 1.07648 -1.18048)
(0.14145 2.05358 -1.10984)
(0.288621 1.94803 -0.630599)
(0.244284 1.3923 0.0601846)
(-1.66978 -1.39166 0.0295734)
(-2.15889 -1.21239 0.106939)
(-1.9793 -1.24292 0.0207257)
(-2.82673 -0.707449 0.242416)
(-2.56278 -1.15266 0.30355)
(-1.89368 -1.8857 0.00215648)
(-3.32253 -0.559323 0.371088)
(-3.26323 -0.96433 0.197194)
(-2.69672 -1.94397 0.0306668)
(-2.64034 -1.73838 0.0639429)
(-3.91054 -0.660412 0.464255)
(-3.75985 -0.645655 0.254056)
(-3.90368 -0.54847 0.360588)
(-3.60446 -1.63455 -0.00306472)
(-1.75968 -2.85343 -0.283681)
(-4.1555 -0.158262 1.22121)
(-4.22176 -0.524291 1.04919)
(-4.08181 -1.31809 0.547999)
(-3.27205 -1.94807 0.397807)
(-2.95434 -2.27583 1.108)
(-1.75125 -3.14482 0.198707)
(-4.13991 0.35569 2.10392)
(-4.18691 0.0282991 2.01437)
(-4.53734 -0.393144 1.59468)
(-4.473 -1.5324 1.29073)
(-4.45511 -2.39771 0.772507)
(-3.79786 -2.83695 -0.472217)
(-2.78309 -2.82938 0.459311)
(-4.36525 0.525059 2.19904)
(-3.99883 0.452474 2.6074)
(-4.08034 0.2097 2.19959)
(-3.63761 -0.758963 1.89025)
(-4.08444 -0.910811 1.87422)
(-4.3543 -2.15615 1.68574)
(-3.23662 -3.8887 0.949654)
(-2.1479 -3.66368 0.0910083)
(-3.32439 1.21621 2.53073)
(-2.93716 -0.819436 1.9721)
(-3.06954 -0.0539191 1.34551)
(-2.55661 -1.30355 1.10894)
(-2.81343 -0.169528 1.44498)
(-3.10864 -0.423516 2.97317)
(-3.4637 -1.99382 3.14246)
(-3.69592 -2.80439 3.02515)
(-2.16587 -4.43959 -0.831868)
(-1.9091 -1.06101 1.34856)
(-1.75911 -0.737072 1.07169)
(-1.58596 -0.185024 0.717079)
(-1.68486 -0.208421 0.275226)
(-2.08994 -0.930341 0.175552)
(-1.79788 -0.612405 0.825178)
(-1.92385 -0.802027 1.38894)
(-2.46537 -0.821349 2.36744)
(-2.8564 -1.92463 1.95221)
(-2.85542 -3.09742 0.588269)
(-1.79007 -0.95779 0.828604)
(-1.55543 -0.922228 0.779043)
(-1.65463 -0.599647 0.379755)
(-1.85056 -0.0200785 0.639775)
(-1.2659 -0.331155 -0.485128)
(-1.16154 -0.191677 -0.813524)
(-1.02369 -0.442295 -0.557832)
(-0.926761 0.011394 -0.914068)
(-1.12824 -0.483925 -0.0935081)
(-1.76994 -0.462892 -0.182975)
(-2.54797 -1.78302 0.0119424)
(-1.29706 -0.588134 1.59041)
(-1.66634 -0.315962 1.02768)
(-1.13414 -0.418329 1.49842)
(-1.08006 -0.173729 1.01474)
(-0.748706 -0.260871 0.303993)
(-0.921384 0.430521 -0.627584)
(-0.584845 -0.316549 -0.813298)
(-0.177216 0.639048 -0.99803)
(-0.567781 0.488307 -0.765584)
(-0.658648 0.422326 -0.777876)
(-1.16808 0.966068 -0.835743)
(-2.17401 -0.24306 -0.211901)
(0.0225969 -1.66493 0.0894407)
(-0.153354 -1.38034 0.0551202)
(-0.00996658 -1.83018 0.385924)
(0.786463 -0.768022 0.0571167)
(0.133255 -0.0512067 -0.956232)
(-0.277484 0.0322626 -0.951639)
(-0.646491 0.363508 -0.744414)
(-0.65912 0.205395 -0.597495)
(-0.379853 0.992561 -1.37979)
(-0.214034 1.4846 -0.25214)
(0.198665 1.28449 -0.847486)
(-0.180185 1.22039 -0.568373)
(-0.895675 0.949965 0.109988)
(-0.282794 -1.48406 -0.0717562)
(0.434685 -1.54522 -0.462979)
(0.14002 -1.35704 -0.382961)
(0.458256 -1.51452 -0.0063807)
(0.948423 -0.374889 -0.429682)
(0.761182 0.156159 0.344825)
(0.174585 -0.0418374 -0.71357)
(0.163346 0.426958 -0.450299)
(0.16398 0.0685182 -0.758879)
(0.0395786 0.483677 -1.73104)
(0.699453 1.13184 -1.1154)
(0.134668 2.06287 -1.06571)
(0.313245 1.90416 -0.63405)
(0.234367 1.39112 0.0594101)
(-1.68435 -1.15989 0.0526938)
(-2.05504 -1.03912 0.108699)
(-1.7056 -1.39607 0.0156895)
(-2.52108 -0.643404 0.234334)
(-2.04589 -1.52548 0.00320022)
(-1.83523 -1.49208 -0.000879236)
(-2.96776 -0.399365 0.278634)
(-2.72353 -1.02772 0.268944)
(-2.53593 -1.18884 0.341515)
(-1.7841 -1.94629 -0.00434507)
(-3.42264 -0.358593 0.367849)
(-3.2155 -0.930143 0.266444)
(-3.32361 -1.1081 0.20748)
(-2.42703 -2.34128 -0.00315405)
(-2.55373 -1.88018 0.0808606)
(-3.90844 -0.299397 0.493443)
(-3.88822 -0.51619 0.515697)
(-3.79536 -0.860381 0.203004)
(-3.60446 -1.31525 0.49873)
(-3.5325 -1.95145 0.355335)
(-1.66724 -2.87903 -0.584191)
(-4.05177 0.289418 1.61895)
(-4.15195 -0.582083 1.16149)
(-4.31301 -0.84023 0.999684)
(-3.93595 -1.49283 0.564725)
(-3.14473 -2.22737 0.367669)
(-2.50539 -2.67292 1.29966)
(-1.52323 -3.10022 0.57319)
(-4.11802 0.560523 2.1091)
(-4.11472 0.137097 2.0845)
(-4.39646 -0.179083 1.90501)
(-4.4762 -1.0031 1.54872)
(-4.40551 -1.93251 1.18401)
(-4.42355 -2.44 0.75605)
(-3.58273 -2.70585 -1.15499)
(-3.20236 -2.50328 0.266791)
(-4.3435 0.245926 1.86349)
(-4.45553 0.0617474 2.29762)
(-4.0977 0.189937 2.68444)
(-3.72281 -0.431982 2.28944)
(-4.04705 0.0695421 2.24161)
(-4.13545 -1.65633 2.0006)
(-4.13599 -2.49185 1.53697)
(-3.03212 -3.99725 0.611456)
(-1.40357 -3.85582 -0.0566127)
(-3.80375 1.4012 1.81368)
(-3.35182 0.0183371 2.39654)
(-2.85626 -1.3131 1.76998)
(-2.68328 -1.0566 1.10954)
(-2.61015 -0.28023 0.246356)
(-2.90666 -0.960569 2.05108)
(-3.10444 -1.49817 3.23886)
(-3.02685 -2.96831 3.07186)
(-3.48182 -2.94477 3.1317)
(-1.85073 -4.50762 -0.692289)
(-2.34541 -0.666219 1.11153)
(-1.822 -1.15904 1.15001)
(-1.6921 -0.80517 1.00446)
(-1.62499 -0.474514 0.556337)
(-1.66117 -0.634104 0.30665)
(-1.97033 -1.07836 0.387805)
(-1.92215 -0.946751 1.26894)
(-2.24376 -0.256959 1.87201)
(-2.58098 -1.79656 2.29262)
(-2.73183 -2.25726 2.01647)
(-2.80311 -3.40946 0.616604)
(-2.39175 0.381128 0.611064)
(-1.73526 -0.778908 0.963179)
(-1.64796 -0.731523 1.19926)
(-1.48068 -0.603622 1.30065)
(-1.59827 -0.565863 0.372914)
(-1.21743 -0.498478 -0.548044)
(-1.09625 -0.515979 -0.671947)
(-1.03164 0.143362 -0.992132)
(-0.965576 -0.239773 -0.798747)
(-1.16418 -0.81131 -0.188351)
(-1.92192 -0.691604 -0.169136)
(-3.58799 0.376042 0.0299158)
(-0.861504 -0.867133 1.73689)
(-1.20505 -0.694563 1.47605)
(-1.60947 -0.349722 1.04849)
(-1.14508 -0.537223 1.41252)
(-1.06172 -0.247852 0.820959)
(-0.635639 -0.313918 -0.0527285)
(-0.81884 0.0766552 -0.706505)
(-0.594908 -0.235911 -0.979643)
(-0.256754 0.538774 -0.9802)
(-0.615727 0.321452 -0.728762)
(-0.718826 0.326355 -0.816011)
(-1.20824 0.820576 -0.738874)
(-2.20697 -0.335811 -0.139917)
(-0.346688 -1.83166 -0.227116)
(0.0241079 -1.59836 0.0924133)
(-0.123111 -1.39193 -0.0630699)
(0.0513875 -1.82965 0.364002)
(0.87053 -0.770224 -0.0900206)
(0.160959 0.0405927 -0.861116)
(-0.242504 -0.0582198 -0.883073)
(-0.674836 0.337128 -0.76985)
(-0.736038 0.454306 -0.731924)
(-0.390846 0.950741 -1.33085)
(-0.187828 1.38228 -0.238811)
(0.215001 1.22941 -0.811128)
(-0.190986 1.20992 -0.477803)
(-0.809695 0.832128 0.192999)
(-1.16073 -0.483795 0.933914)
(-0.269909 -1.46433 -0.126746)
(0.43658 -1.51066 -0.522896)
(0.136854 -1.35108 -0.400253)
(0.454511 -1.5037 -0.0302806)
(0.901989 -0.456711 -0.371237)
(0.762488 0.166353 0.349115)
(0.174483 -3.39848e-05 -0.726779)
(0.180595 0.405319 -0.411683)
(0.154628 0.170736 -0.774309)
(0.0310662 0.527079 -1.68133)
(0.6643 1.14447 -1.0928)
(0.114809 2.08128 -0.992076)
(0.297269 1.89209 -0.694404)
(0.286336 1.38771 0.0437729)
(-1.54408 -1.23778 0.0675373)
(-1.95063 -1.25179 -0.0460257)
(-1.62447 -1.24266 0.054781)
(-2.21902 -0.925634 0.273645)
(-1.977 -1.24551 0.0462928)
(-1.61709 -1.54926 0.0246224)
(-2.53523 -0.662284 0.207265)
(-2.50228 -1.04728 0.230756)
(-2.00788 -1.66319 0.0513462)
(-1.76047 -1.60109 -0.0390505)
(-2.93145 -0.213898 0.341512)
(-2.94998 -0.759446 0.297764)
(-2.83485 -1.05216 0.202188)
(-2.35657 -1.43514 0.290856)
(-1.48173 -2.17596 0.0680102)
(-3.38089 -0.255574 0.424238)
(-3.26087 -0.554583 0.327233)
(-3.31158 -0.722456 0.340855)
(-3.36211 -1.35233 0.197988)
(-2.42607 -2.4085 -0.263765)
(-2.35756 -2.04101 0.112448)
(-3.93653 -0.160994 0.60538)
(-3.91655 -0.419648 0.430612)
(-3.86308 -0.323102 0.311466)
(-3.61804 -1.19546 0.182148)
(-3.61085 -1.32938 0.320954)
(-3.60734 -1.69366 0.349571)
(-1.12761 -3.17226 -0.645131)
(-3.96575 0.294228 1.67365)
(-4.1475 -0.365554 1.31554)
(-4.1885 -0.909137 0.990855)
(-4.03716 -1.2121 0.913259)
(-3.52384 -2.01264 0.649521)
(-2.7542 -2.73888 0.277377)
(-2.23269 -2.90675 0.959559)
(-1.20347 -3.05698 0.43573)
(-4.0922 0.577636 2.01115)
(-4.14601 0.462426 2.28023)
(-4.24187 -0.141488 2.18471)
(-4.37778 -0.978124 1.87465)
(-4.40043 -1.33942 1.61661)
(-4.30623 -2.4633 0.838899)
(-4.33514 -2.22151 0.941867)
(-3.31869 -2.77938 -0.833096)
(-3.22963 -2.42025 0.340333)
(-4.23104 0.497797 1.69814)
(-4.47347 -0.039208 1.66152)
(-4.35166 -0.384348 2.40202)
(-4.04421 -0.487859 2.61377)
(-3.39133 -0.834097 1.95672)
(-4.1544 -1.48741 1.83002)
(-3.91201 -2.57878 1.81406)
(-3.60705 -3.3109 1.06607)
(-2.68786 -4.08054 0.785508)
(-0.661476 -4.04794 -0.0820503)
(-3.8931 1.06752 1.23245)
(-3.86912 0.525235 1.66414)
(-3.11242 -1.60401 2.07652)
(-2.63552 -1.56922 1.62476)
(-2.58652 -1.08146 0.853774)
(-2.9847 0.68022 0.665683)
(-3.06118 -1.53752 2.5783)
(-3.16811 -2.38443 3.14434)
(-2.9925 -3.64613 2.61049)
(-3.02685 -3.12122 3.1995)
(-1.76737 -4.36951 -0.129545)
(-3.45083 0.0850789 2.21077)
(-1.9528 -0.673752 0.0105795)
(-1.85553 -1.14556 0.582415)
(-1.86052 -0.941755 0.641946)
(-1.71209 -0.771305 0.401968)
(-1.58828 -1.05576 0.312334)
(-1.73915 -1.23894 0.890026)
(-1.88263 -1.32386 1.68642)
(-2.38422 -1.31063 1.88293)
(-2.14449 -2.81378 2.20685)
(-2.42514 -2.9319 1.84001)
(-2.43762 -3.71094 0.946678)
(-2.70359 -1.02859 2.65785)
(-1.95833 -0.835482 0.5825)
(-1.80882 -1.04273 0.680654)
(-1.58132 -1.25875 1.0639)
(-1.52531 -1.36285 0.321338)
(-1.52561 -0.770174 0.26152)
(-1.17874 -0.713031 -0.561262)
(-1.10548 -0.609798 -0.623014)
(-1.1232 -0.708661 -0.611331)
(-0.995469 -0.530075 -0.650761)
(-1.264 -0.984643 -0.334003)
(-2.03748 -1.11691 -0.0602103)
(-3.17911 -1.98732 -0.185464)
(-1.30512 -1.23877 2.09325)
(-0.761098 -0.990812 1.30959)
(-1.17747 -0.671901 1.36726)
(-1.58139 -0.260902 1.01731)
(-1.15607 -0.552161 1.34778)
(-1.04778 -0.277285 0.673957)
(-0.592644 -0.337733 -0.174252)
(-0.801615 -0.0729038 -0.709236)
(-0.70465 -0.22548 -1.05195)
(-0.296863 0.394118 -0.96511)
(-0.615313 0.103551 -0.747907)
(-0.747342 0.232998 -0.82698)
(-1.24052 0.641222 -0.616618)
(-1.92007 -0.842058 -0.0397617)
(-2.1834 -0.617843 1.63046)
(-0.273337 -1.70999 -0.598082)
(0.0235407 -1.51525 0.0638145)
(-0.102991 -1.39525 -0.126597)
(0.1122 -1.76903 0.331983)
(0.937625 -0.69049 -0.25408)
(0.185085 0.0544104 -0.64828)
(-0.191921 -0.199917 -0.833179)
(-0.688756 0.336902 -0.742809)
(-0.851805 0.685879 -0.755063)
(-0.383884 0.895777 -1.25384)
(-0.15744 1.23959 -0.35136)
(0.258789 1.13521 -0.818706)
(-0.203168 1.20162 -0.372957)
(-0.669438 0.688009 0.276633)
(-0.93777 0.0831704 0.327392)
(-1.14803 -0.469249 0.889125)
(-0.252335 -1.43478 -0.189742)
(0.432235 -1.48749 -0.55876)
(0.117916 -1.34607 -0.427782)
(0.444649 -1.50592 -0.0670779)
(0.887159 -0.393672 -0.425067)
(0.767767 0.168604 0.352266)
(0.160346 0.0519663 -0.742923)
(0.195887 0.394848 -0.377395)
(0.133337 0.290632 -0.782252)
(0.0360661 0.558497 -1.61254)
(0.627467 1.18758 -1.03689)
(0.169875 2.00839 -1.05644)
(0.290986 1.87678 -0.689258)
(0.266309 1.39474 0.0774056)
(-1.51651 -1.09568 -0.0422122)
(-1.97888 -1.08779 -0.000158049)
(-1.48102 -1.3098 0.05922)
(-2.17596 -0.876649 0.260783)
(-1.80153 -1.40787 -0.0193119)
(-1.5186 -1.41917 0.0503977)
(-2.29309 -0.687521 0.248963)
(-2.21854 -1.07025 0.161966)
(-1.90252 -1.38383 -0.00406669)
(-1.53586 -1.65216 0.0548931)
(-2.67062 -0.399976 0.321281)
(-2.61018 -0.760286 0.205975)
(-2.56398 -1.03972 0.170665)
(-1.9712 -1.7112 0.053225)
(-1.69736 -1.65099 -0.017026)
(-2.96379 -0.311614 0.362516)
(-2.91584 -0.577062 0.28708)
(-2.90603 -1.03173 0.279855)
(-2.66849 -1.63797 0.0536619)
(-2.15467 -1.71088 0.153854)
(-1.43283 -2.19086 0.0730824)
(-3.39432 0.0162735 0.489271)
(-3.35095 -0.442658 0.410984)
(-3.2504 -0.703507 0.342658)
(-3.2161 -1.08599 0.234845)
(-3.31144 -1.56005 0.274568)
(-2.14276 -2.75218 -0.112921)
(-2.11472 -2.18855 0.0380742)
(-3.95253 -0.10845 0.654077)
(-3.94765 -0.366953 0.550657)
(-3.86313 -0.554965 0.420343)
(-3.71312 -0.941955 0.329539)
(-3.47043 -1.54769 0.119282)
(-3.40832 -1.5184 0.235865)
(-3.4424 -1.6776 0.521094)
(-1.05178 -3.19909 -0.295734)
(-3.88675 0.255348 1.79039)
(-4.14257 -0.272724 1.45142)
(-4.165 -0.792281 1.24114)
(-4.05931 -1.25786 1.01438)
(-3.78661 -1.72275 0.582785)
(-3.46583 -2.16931 0.672586)
(-2.78006 -2.80247 0.327323)
(-1.98148 -3.04535 0.802017)
(-1.45803 -2.90867 0.904815)
(-3.94129 0.490564 2.02078)
(-4.12123 0.306724 2.0389)
(-4.27113 -0.505671 2.05366)
(-4.43266 -0.746658 1.98216)
(-4.35596 -1.25218 1.82359)
(-4.41304 -2.04469 1.36546)
(-4.30864 -2.47355 0.708079)
(-3.46277 -3.23954 0.476726)
(-3.11093 -2.9732 -0.0467773)
(-2.49085 -3.0401 0.068382)
(-4.17513 0.846864 1.51091)
(-4.49675 0.149092 1.45236)
(-4.39306 0.111571 1.69657)
(-4.41659 -0.330871 2.11016)
(-3.77376 -0.983874 2.37701)
(-3.50104 -0.824068 1.84835)
(-3.8983 -2.1074 1.62967)
(-3.88616 -3.02611 1.59744)
(-3.30095 -3.75709 0.83043)
(-2.89282 -3.70534 1.04157)
(-0.400746 -3.99446 -0.0501654)
(-3.6479 -0.240178 1.63385)
(-3.78218 0.142722 1.646)
(-3.56423 -0.63089 1.79386)
(-3.00827 -1.571 1.5024)
(-2.39791 -2.03556 1.05983)
(-2.43848 -1.29578 0.65928)
(-3.01417 -0.505829 1.87194)
(-3.25377 -2.12429 2.78867)
(-3.08733 -3.19439 3.20432)
(-2.93909 -3.96473 2.30863)
(-1.94762 -4.26038 1.93809)
(-1.59289 -4.3882 0.212478)
(-3.61408 0.526484 2.1417)
(-3.53843 0.2366 2.31662)
(-1.90672 -0.491731 -0.409937)
(-1.9065 -1.12457 0.377175)
(-1.92354 -1.15266 0.612874)
(-1.75423 -1.14099 0.176113)
(-1.58983 -1.39227 0.410997)
(-1.81195 -1.47281 1.30629)
(-1.91388 -1.86497 1.93897)
(-2.2526 -1.88145 2.07755)
(-2.97311 -2.1207 2.0389)
(-2.7087 -3.35884 0.870408)
(-3.65722 -3.53102 0.0646781)
(-3.66967 0.906906 1.5067)
(-2.40571 -1.30628 2.1889)
(-1.73722 -1.32394 0.342838)
(-1.80798 -1.40405 0.276522)
(-1.86798 -1.32588 0.726243)
(-1.4911 -1.45531 0.171599)
(-1.42256 -1.07111 0.0983325)
(-1.14521 -0.911464 -0.498589)
(-1.04895 -0.857326 -0.418898)
(-0.999605 -0.915171 -0.500424)
(-0.932959 -0.818635 -0.555743)
(-1.21749 -1.20652 -0.153317)
(-1.96871 -1.62045 0.133096)
(-2.86969 -2.12586 -0.161904)
(-2.67891 -0.356263 2.20019)
(-1.08203 -1.41996 1.51031)
(-0.725333 -1.04452 0.923118)
(-1.2291 -0.681072 1.17713)
(-1.55744 -0.418534 0.83141)
(-1.15655 -0.852063 1.15484)
(-1.06357 -0.230531 0.530977)
(-0.556933 -0.306965 -0.274595)
(-0.797809 -0.106652 -0.724668)
(-0.841419 0.00890833 -1.0967)
(-0.3572 0.20529 -0.885975)
(-0.633567 -0.0596791 -0.760609)
(-0.753994 0.0754035 -0.811214)
(-1.25687 0.42886 -0.519187)
(-1.82013 -1.10998 -0.011063)
(-2.23231 -0.133636 1.37545)
(-2.11539 -0.542558 1.5465)
(-0.218982 -1.59686 -0.792949)
(-0.0141197 -1.42016 0.024699)
(-0.072064 -1.3841 -0.186914)
(0.200153 -1.77942 0.275187)
(0.971001 -0.617612 -0.323614)
(0.222843 0.0848649 -0.414387)
(-0.118706 -0.294658 -0.85407)
(-0.694699 0.306354 -0.637905)
(-0.878516 0.916199 -0.559479)
(-0.373764 0.81317 -1.15087)
(-0.0875772 1.12809 -0.406149)
(0.307927 1.03689 -0.815467)
(-0.22098 1.17112 -0.279174)
(-0.504612 0.540096 0.352908)
(-0.57066 0.0833144 -0.415643)
(-0.966275 0.0964678 0.268589)
(-1.14523 -0.422214 0.869744)
(-0.235359 -1.40793 -0.21972)
(0.432775 -1.47338 -0.589836)
(0.145946 -1.34186 -0.489425)
(0.441958 -1.50512 -0.103925)
(0.882182 -0.421329 -0.379133)
(0.773955 0.179075 0.34975)
(0.138601 0.104894 -0.765937)
(0.211555 0.387844 -0.342938)
(0.0984492 0.412933 -0.779713)
(0.0482852 0.575866 -1.52616)
(0.626563 1.21507 -1.00204)
(0.2411 1.91338 -1.15918)
(0.346894 1.80368 -0.731806)
(0.254712 1.40175 0.0896496)
(-1.47934 -0.903183 -0.0462188)
(-1.92211 -0.931828 -0.0696344)
(-1.40906 -1.24635 -0.0523038)
(-2.17284 -0.820991 0.167441)
(-1.79114 -1.32723 0.0615761)
(-1.40916 -1.39949 0.0168966)
(-2.2851 -0.672089 0.0452013)
(-2.05673 -1.06415 0.271147)
(-1.75793 -1.46524 -0.00441204)
(-1.41706 -1.5227 0.0480174)
(-2.38062 -0.363605 0.369497)
(-2.26974 -0.871614 0.161491)
(-2.2139 -1.06154 0.0893402)
(-1.7807 -1.55618 -0.0240214)
(-1.57807 -1.62251 0.00858596)
(-2.69807 -0.50391 0.334137)
(-2.64001 -0.528927 0.293945)
(-2.64154 -0.780312 0.0919745)
(-2.50153 -1.02388 0.11789)
(-1.93125 -1.70664 -0.0066346)
(-1.40634 -1.84574 -0.0162667)
(-2.96827 -0.0510892 0.487249)
(-2.96905 -0.531023 0.368487)
(-2.88215 -0.719503 0.308601)
(-2.92491 -1.10378 0.129098)
(-2.83643 -1.2815 -0.0247851)