/*--------------------------------*- C++ -*----------------------------------*\
  =========                 |
  \\      /  F ield         | OpenFOAM: The Open Source CFD Toolbox
   \\    /   O peration     | Website:  https://openfoam.org
    \\  /    A nd           | Version:  7
     \\/     M anipulation  |
\*---------------------------------------------------------------------------*/
FoamFile
{
    version     2.0;
    format      ascii;
    class       volVectorField;
    location    "9.5";
    object      U_0;
}
// * * * * * * * * * * * * * * * * * * * * * * * * * * * * * * * * * * * * * //

dimensions      [0 1 -1 0 0 0 0];

internalField   nonuniform List<vector> 
18750
(
(0.370086 1.11665 0.061478)
(-0.40593 0.873549 -0.238906)
(0.727933 1.78302 -0.668184)
(0.359599 1.15313 0.0405977)
(-1.11467 0.841856 -0.335494)
(0.1486 1.28182 -0.983128)
(-0.462258 0.881603 -0.218678)
(0.411346 1.50388 -1.52837)
(0.686422 1.82084 -0.662159)
(0.333733 1.19592 0.0218134)
(-1.71509 0.0485684 0.0322887)
(-0.550898 1.28548 -0.277012)
(-1.04768 1.13184 -0.457968)
(0.0632565 1.61189 -1.08016)
(0.101192 1.29054 -0.910948)
(-0.497221 0.93816 -0.223972)
(0.745406 0.588828 -1.6078)
(0.410751 1.61258 -1.45528)
(0.641494 1.84911 -0.657351)
(0.319075 1.23959 0.0128555)
(-3.1677 0.559916 0.778113)
(-1.2474 0.277681 -0.0971405)
(-1.72025 0.363706 -0.0163382)
(-0.187512 1.59598 -0.268189)
(-0.598153 1.2827 -0.475035)
(-1.41029 0.932958 -0.421397)
(0.0673748 1.23704 -1.02503)
(0.0710235 1.7171 -1.01664)
(0.0141634 1.29393 -0.884997)
(-0.563587 0.978355 -0.23098)
(-0.0161471 -0.404107 -1.81753)
(0.740808 0.590253 -1.59191)
(0.380551 1.73306 -1.37972)
(0.618936 1.85682 -0.66238)
(0.296615 1.28644 0.0114441)
(-4.21282 -1.83845 0.38588)
(-2.1545 1.36702 0.939143)
(-3.15598 0.244577 0.822878)
(-0.586972 1.16509 -0.232382)
(-1.22582 0.66733 -0.219912)
(-1.92266 -0.268092 0.092086)
(-0.17016 1.13504 -0.619623)
(-0.253737 1.58916 -0.367301)
(-0.635067 1.32531 -0.638658)
(-1.47768 0.716482 -0.394999)
(-0.654635 -0.14626 -1.06223)
(0.0749074 1.42468 -1.06607)
(0.0724991 1.74936 -0.978786)
(0.00382953 1.30252 -0.902099)
(-0.632986 1.00224 -0.229033)
(0.0223119 0.034748 -0.489458)
(0.01655 -0.254806 -1.87509)
(0.758645 0.729369 -1.51782)
(0.359169 1.82538 -1.32514)
(0.568356 1.86571 -0.668855)
(0.271443 1.32746 0.0124678)
(-4.14267 -2.22814 -0.136015)
(-3.02023 -0.139073 1.796)
(-4.28352 -2.01828 0.67743)
(-1.96468 0.94408 0.778963)
(-2.49294 0.498651 1.31711)
(-3.29841 0.235321 0.78179)
(-0.452639 0.954027 -0.56332)
(-0.684949 1.00384 -0.382315)
(-1.36635 0.343978 -0.274459)
(-1.79675 0.408231 -0.0278149)
(-0.115023 0.737081 -0.736078)
(-0.224591 1.14066 -0.680626)
(-0.328558 1.52687 -0.46405)
(-0.73743 1.31957 -0.702424)
(-1.54679 0.616454 -0.376328)
(-0.685771 0.107325 -0.304965)
(-0.555747 -0.219514 -1.4073)
(0.0717438 1.51383 -1.09333)
(0.0428394 1.75382 -0.918751)
(-0.0264826 1.30744 -0.905802)
(-0.691068 1.03829 -0.237282)
(0.156329 0.345366 -0.980224)
(0.0363263 0.0488956 -0.479269)
(0.0150138 -0.136687 -1.90681)
(0.762004 0.782885 -1.4791)
(0.332945 1.89491 -1.28556)
(0.542454 1.86646 -0.68235)
(0.260537 1.35224 0.0153715)
(-3.39935 -2.26312 0.185427)
(-4.08385 1.06895 1.84278)
(-3.80683 -2.74039 0.0968991)
(-2.05058 2.766 0.791807)
(-3.1096 -0.436307 2.00614)
(-4.18123 -2.13711 1.14171)
(-1.5274 0.66557 0.457012)
(-1.97275 1.00128 0.783927)
(-2.20403 2.38966 -0.0427006)
(-3.3171 -0.0987121 1.09838)
(-0.692002 0.314104 -0.334748)
(-0.551468 0.930092 -0.686792)
(-0.782722 0.9524 -0.493337)
(-1.23216 0.644367 -0.370843)
(-2.07145 0.489092 -0.114408)
(-0.85404 -0.0356803 0.198558)
(-0.0248744 0.718774 -0.837173)
(-0.284001 1.09422 -0.719572)
(-0.405611 1.41904 -0.586579)
(-0.783223 1.29051 -0.76779)
(-1.66341 0.818729 -0.41317)
(-0.524843 0.353966 -0.672156)
(-0.678692 0.0718373 -0.328667)
(-0.509362 -0.166118 -1.69568)
(-0.0100619 1.4022 -1.14884)
(0.044214 1.75947 -0.835482)
(-0.0959601 1.26996 -0.945326)
(-0.762348 1.08176 -0.234756)
(0.0771002 -0.217985 -0.668272)
(0.153036 0.402985 -0.919688)
(0.0500611 0.0555824 -0.501457)
(0.022073 -0.0302955 -1.91694)
(0.755849 0.845111 -1.42778)
(0.302209 1.93931 -1.25792)
(0.524309 1.88109 -0.690291)
(0.243068 1.35957 0.018016)
(-3.03847 -2.28861 -0.187915)
(-4.78369 -0.485746 0.887683)
(-3.32438 -2.47797 0.102666)
(-3.43569 1.5638 1.40483)
(-4.04609 -0.85602 1.73706)
(-3.39974 -3.29698 -0.0379698)
(-2.53922 0.702442 1.21298)
(-2.98198 -0.85591 1.82566)
(-3.23281 -0.969949 2.07432)
(-4.16086 -2.13789 1.472)
(-1.69491 -0.0849046 0.490343)
(-1.666 0.52335 0.449513)
(-2.24101 0.849162 0.620085)
(-3.03207 0.64828 1.16854)
(-3.24499 -0.487976 1.21407)
(-1.4702 0.818173 0.0288497)
(-0.718164 0.213014 -0.430286)
(-0.624138 0.903822 -0.779303)
(-0.864051 0.833596 -0.522064)
(-1.42415 0.354632 -0.2763)
(-2.16035 0.197263 -0.106824)
(-1.13605 0.239551 -0.0788169)
(-0.739912 -0.418061 0.106494)
(0.0505443 0.747127 -0.91049)
(-0.330204 0.991063 -0.773017)
(-0.448189 1.29143 -0.681066)
(-0.851154 1.20235 -0.795867)
(-1.87786 0.429938 -0.266046)
(-0.29718 0.0343026 -0.695501)
(-0.54178 0.352063 -0.736329)
(-0.675834 -0.0248084 -0.227995)
(-0.444543 0.544751 -1.65302)
(-0.0313192 1.54818 -0.918416)
(0.043988 1.71815 -0.797653)
(-0.0450665 1.24817 -0.922235)
(-0.83365 1.0961 -0.212088)
(0.764494 0.0896068 0.206379)
(0.0983617 -0.195355 -0.677896)
(0.148621 0.443018 -0.84284)
(0.0649754 0.0462347 -0.543329)
(0.0355726 0.0709898 -1.91418)
(0.751551 0.914623 -1.36391)
(0.273801 1.95991 -1.24161)
(0.458782 1.90879 -0.697121)
(0.24905 1.35916 0.0224339)
(-3.09117 -1.41912 -0.147061)
(-4.09444 -0.749908 0.19835)
(-2.66058 -2.8477 -0.275722)
(-4.16064 0.0946006 1.25865)
(-4.83866 -0.930588 0.978341)
(-3.2415 -2.48269 0.177995)
(-3.1368 1.98681 1.87457)
(-3.95687 0.487283 1.3984)
(-3.922 -1.75048 1.36528)
(-3.29383 -3.46141 -0.365068)
(-3.12602 0.0985332 1.36313)
(-2.51728 -0.165401 1.01572)
(-2.8966 0.100312 1.77771)
(-3.62642 -1.26822 2.12756)
(-4.01213 -2.39609 1.5017)
(-1.83556 0.131454 0.00156717)
(-1.79407 -0.184814 0.47447)
(-1.8043 0.139331 0.357429)
(-2.28436 0.719891 0.617554)
(-2.98028 0.127204 1.38614)
(-3.21561 -0.755979 1.29737)
(-1.80387 0.763695 0.4724)
(-1.37381 0.652814 -0.195243)
(-0.79307 0.153466 -0.520164)
(-0.719128 0.783887 -0.858766)
(-0.912226 0.728542 -0.493805)
(-1.36674 0.823436 -0.429183)
(-2.14451 0.00848173 -0.040668)
(-1.32754 0.36314 0.643773)
(-1.10507 0.258206 -0.264163)
(-0.667648 -0.460213 -0.156186)
(0.0529445 0.784638 -0.970325)
(-0.347481 0.91578 -0.797363)
(-0.528607 1.15943 -0.723117)
(-0.902952 1.27156 -0.797988)
(-1.88585 0.306753 -0.262544)
(-0.0205804 -0.273692 -0.672876)
(-0.268587 0.00623989 -0.826847)
(-0.581986 0.365588 -0.736353)
(-0.636243 -0.118988 -0.159418)
(-0.458201 0.889468 -1.5666)
(-0.0836343 1.56844 -0.789155)
(0.0641523 1.63295 -0.83085)
(-0.102909 1.21739 -0.91706)
(-0.894008 1.10629 -0.171493)
(0.949328 -0.539759 -0.315107)
(0.762387 0.101231 0.264976)
(0.117212 -0.165827 -0.685404)
(0.142776 0.462389 -0.755244)
(0.0846637 0.022559 -0.592997)
(0.044743 0.167941 -1.90166)
(0.741724 0.962361 -1.3126)
(0.253426 1.98431 -1.22067)
(0.412254 1.90364 -0.711819)
(0.242454 1.35857 0.0234839)
(-2.88732 -1.10234 0.0193178)
(-3.62708 -1.08431 -0.230937)
(-2.94676 -1.77773 -0.199598)
(-3.87596 0.00372122 0.660708)
(-3.97588 -1.08421 0.352254)
(-2.35146 -3.16172 -0.462099)
(-4.14738 -0.361091 1.43124)
(-4.30165 -0.613993 1.0224)
(-4.51151 -1.55642 0.942219)
(-2.89071 -2.67344 0.525992)
(-3.97137 0.377156 2.17164)
(-3.80693 0.252596 1.79364)
(-3.81046 -0.19217 1.37735)
(-3.85238 -2.09222 1.31508)
(-3.17889 -3.30162 -0.694294)
(-3.2912 0.287877 1.81144)
(-2.83915 -0.0500783 0.929522)
(-2.50434 0.4413 0.979487)
(-3.33473 0.714078 1.98451)
(-3.97936 -1.37104 2.26489)
(-3.39814 -3.25263 0.583161)
(-1.79753 0.472215 0.549742)
(-1.94324 -0.00658358 -0.0589567)
(-1.86024 -0.275075 0.411893)
(-1.80817 0.00836785 0.330879)
(-2.27568 0.565502 1.01225)
(-2.95657 -0.402354 1.47063)
(-3.07678 -1.4959 1.04937)
(-1.85309 0.794256 0.953506)
(-1.67399 0.68418 0.245276)
(-1.23548 0.0370941 -0.679082)
(-0.84877 0.106789 -0.637333)
(-0.782161 0.633717 -0.928108)
(-0.921489 0.307477 -0.363429)
(-1.58872 0.40916 -0.356515)
(-2.31782 -0.423085 0.0957148)
(-1.24787 -0.0177319 1.28065)
(-1.17081 0.297093 0.695558)
(-1.01289 0.399363 -0.510439)
(-0.630195 -0.450551 -0.316057)
(-0.00042459 0.813116 -0.991338)
(-0.400972 0.840425 -0.784258)
(-0.561533 0.969163 -0.761174)
(-0.983691 1.21784 -0.825773)
(-1.98778 0.276021 -0.275138)
(0.538587 -0.510017 0.0307598)
(0.0175955 -0.279331 -0.744607)
(-0.257549 -0.0137601 -0.926634)
(-0.594856 0.362613 -0.728589)
(-0.602486 -0.150376 -0.206489)
(-0.451323 1.11024 -1.44589)
(-0.125706 1.57856 -0.628046)
(0.0894423 1.55136 -0.849777)
(-0.086531 1.20445 -0.869535)
(-0.951055 1.11503 -0.118508)
(0.492478 -1.5111 0.0361812)
(0.963107 -0.496084 -0.342623)
(0.758929 0.111102 0.301351)
(0.136816 -0.135096 -0.690222)
(0.141742 0.464762 -0.665616)
(0.109927 -0.00759475 -0.644555)
(0.0488572 0.263068 -1.87586)
(0.730491 1.02231 -1.25147)
(0.237783 2.02338 -1.19249)
(0.408361 1.90299 -0.675239)
(0.22343 1.37242 0.0349396)
(-2.26462 -1.28668 -0.00314169)
(-3.04355 -1.09794 -0.119262)
(-2.85358 -1.34834 0.0376823)
(-3.8908 -0.317959 0.236089)
(-3.6367 -1.45613 -0.0385696)
(-2.54497 -2.18737 -0.228916)
(-4.16853 -0.35015 0.630695)
(-3.68683 -1.12022 0.462902)
(-3.92104 -1.46579 0.461704)
(-2.2282 -3.21361 -0.612777)
(-4.30188 0.148991 1.63576)
(-4.41945 0.594029 1.86783)
(-4.47202 -0.96074 0.858612)
(-3.98968 -2.57083 0.459616)
(-2.80596 -2.69722 0.491839)
(-4.24788 0.514975 2.28954)
(-3.96294 0.493935 1.82452)
(-3.54024 -0.261766 1.77823)
(-3.75032 -0.432792 1.55895)
(-3.85417 -1.99125 2.38165)
(-2.95267 -3.18869 -0.146561)
(-3.1875 -0.270593 2.17423)
(-3.14487 0.25776 1.57883)
(-2.6181 -0.256234 0.978822)
(-2.8563 0.742355 1.52091)
(-3.62688 -0.723135 2.34088)
(-3.83047 -1.80974 2.49997)
(-3.17954 -3.53618 0.122056)
(-1.59562 0.0925662 1.03199)
(-1.78235 0.466511 0.309868)
(-1.90614 -0.495949 0.106342)
(-1.83892 -0.382924 0.384884)
(-1.74935 0.00426421 0.67815)
(-2.46922 0.212882 1.53205)
(-3.45136 0.588078 1.63927)
(-2.76366 -2.30869 0.780739)
(-1.57064 0.125111 0.948173)
(-1.90035 0.313432 0.775687)
(-1.56723 0.564404 0.0361237)
(-1.20538 -0.0831746 -0.754918)
(-0.924542 -0.00999959 -0.676514)
(-0.844959 0.49925 -0.9367)
(-0.966553 -0.0187213 -0.253016)
(-1.55996 0.241099 -0.220879)
(-2.80334 0.402881 0.117397)
(-1.03348 -0.312475 1.48848)
(-1.1582 -0.0933064 1.23818)
(-1.04451 0.108568 0.707993)
(-0.949749 0.54186 -0.661783)
(-0.599397 -0.421973 -0.496463)
(-0.0205909 0.787639 -0.977712)
(-0.443739 0.711559 -0.783956)
(-0.604722 0.75989 -0.749851)
(-1.03945 1.13586 -0.860275)
(-2.12109 0.222275 -0.235705)
(-0.200085 -1.39679 0.642526)
(0.609343 -0.590941 0.126122)
(0.0624079 -0.231912 -0.832221)
(-0.234107 0.00613942 -0.975867)
(-0.612128 0.352875 -0.721153)
(-0.600943 -0.0973961 -0.294499)
(-0.416366 1.10846 -1.4051)
(-0.164209 1.56989 -0.48676)
(0.116905 1.45751 -0.870403)
(-0.121199 1.20848 -0.785805)
(-0.959862 1.09782 -0.0611752)
(0.158717 -1.363 -0.315386)
(0.472181 -1.53617 0.0495484)
(0.95465 -0.453932 -0.37097)
(0.756439 0.128177 0.318798)
(0.149096 -0.110607 -0.691835)
(0.143402 0.457502 -0.581861)
(0.137775 -0.0245849 -0.693945)
(0.0456104 0.350022 -1.83627)
(0.720073 1.05935 -1.21091)
(0.209456 2.03105 -1.17382)
(0.36111 1.9457 -0.62955)
(0.253885 1.38812 0.0521861)
(-2.00924 -1.09729 0.0364641)
(-2.59567 -0.9488 0.144448)
(-1.99553 -1.76007 0.018459)
(-3.33429 -0.83399 0.140732)
(-2.87569 -1.5926 -0.121011)
(-2.9241 -1.37181 0.0721241)
(-3.82375 -0.314836 0.287368)
(-3.94758 -0.379687 0.340783)
(-3.62033 -1.50041 -0.0157819)
(-2.21132 -2.49846 -0.234584)
(-4.17755 -0.195449 1.05106)
(-4.13106 -0.606449 0.65535)
(-3.57624 -1.49299 0.434295)
(-3.70045 -1.65088 0.54332)
(-2.27133 -3.00349 -0.541792)
(-4.17446 0.436901 1.9513)
(-4.30576 0.404305 1.72587)
(-4.57001 -1.35713 1.33487)
(-4.57257 -1.44005 1.03132)
(-3.80605 -2.95721 0.0532398)
(-2.67783 -2.80139 0.549384)
(-4.24857 0.483874 2.26803)
(-4.21402 0.374297 2.16457)
(-3.844 0.180313 1.86364)
(-3.57738 -0.538474 1.90563)
(-4.03658 -1.68612 1.53158)
(-3.3785 -3.50429 1.57194)
(-2.3995 -3.58569 0.221992)
(-2.98139 0.773823 2.34354)
(-3.04874 0.171658 1.92707)
(-2.74011 -0.53599 1.01894)
(-2.74667 0.462354 0.941245)
(-3.1015 0.0786734 2.25241)
(-3.76131 -0.74358 2.91945)
(-3.92103 -2.06357 2.71857)
(-2.72729 -4.03415 -0.538672)
(-1.82584 -0.56163 1.39539)
(-1.548 -0.222926 0.840508)
(-1.69033 -0.0422329 0.26401)
(-2.05076 -0.5047 0.0143765)
(-1.79349 -0.415566 0.537826)
(-1.87119 -0.223769 1.00019)
(-2.33271 -1.20882 1.90857)
(-3.09508 -1.53186 2.03037)
(-2.60409 -2.94129 0.649642)
(-1.46915 -0.502678 1.04313)
(-1.58708 -0.294184 0.830274)
(-1.83643 -0.00716584 0.748189)
(-1.35523 -0.0735794 -0.351345)
(-1.17001 -0.113501 -0.829115)
(-0.951693 -0.0129166 -0.811186)
(-0.91375 0.13807 -0.836347)
(-0.982863 -0.257701 -0.34653)
(-1.6318 0.03539 -0.219463)
(-2.9638 -0.557195 -0.102993)
(-1.60369 -0.206565 1.1744)
(-1.06681 -0.246606 1.5301)
(-1.11716 -0.145218 1.13255)
(-0.882085 -0.0280921 0.611837)
(-0.937322 0.548399 -0.669567)
(-0.561153 -0.363492 -0.683484)
(-0.150801 0.612761 -0.979646)
(-0.506964 0.618631 -0.775808)
(-0.639933 0.51125 -0.746798)
(-1.09601 1.13845 -0.906746)
(-2.20537 -0.0488989 -0.20211)
(-0.157265 -1.35921 0.155569)
(-0.0962084 -1.67734 0.485437)
(0.690122 -0.702572 0.146212)
(0.10226 -0.133935 -0.926146)
(-0.26517 0.0578616 -0.976271)
(-0.633911 0.35787 -0.723931)
(-0.61552 0.0296825 -0.439437)
(-0.393937 1.05434 -1.39086)
(-0.193966 1.54011 -0.368297)
(0.162285 1.3596 -0.873908)
(-0.137065 1.21952 -0.674425)
(-0.956835 1.03897 0.025298)
(0.418334 -1.58164 -0.412581)
(0.145809 -1.36128 -0.354017)
(0.476975 -1.5253 -0.0120824)
(0.941508 -0.457236 -0.371074)
(0.75387 0.147423 0.333601)
(0.163773 -0.0647113 -0.696604)
(0.148912 0.453164 -0.505219)
(0.159195 -0.00356159 -0.734055)
(0.0396564 0.4231 -1.78712)
(0.713664 1.08413 -1.17871)
(0.147733 2.04905 -1.11947)
(0.304274 1.94954 -0.629116)
(0.255147 1.38877 0.0574539)
(-1.67123 -1.39101 0.0294859)
(-2.15953 -1.21516 0.105996)
(-1.9785 -1.2459 0.0205564)
(-2.82803 -0.70898 0.239268)
(-2.56507 -1.15073 0.304208)
(-1.89837 -1.88256 0.00210115)
(-3.32243 -0.561889 0.36781)
(-3.2659 -0.961877 0.197548)
(-2.69471 -1.95209 0.0299908)
(-2.63481 -1.7441 0.0628011)
(-3.91178 -0.650199 0.464676)
(-3.76067 -0.640871 0.253435)
(-3.89566 -0.559521 0.363443)
(-3.61088 -1.62858 0.00815683)
(-1.74697 -2.86089 -0.291674)
(-4.15419 -0.154487 1.22192)
(-4.22613 -0.532208 1.04575)
(-4.07628 -1.32733 0.546052)
(-3.26532 -1.96132 0.395387)
(-2.91576 -2.30731 1.13537)
(-1.74408 -3.13671 0.236897)
(-4.13561 0.354551 2.10631)
(-4.19013 0.0328307 2.01386)
(-4.54401 -0.393139 1.59566)
(-4.47845 -1.53359 1.2858)
(-4.46318 -2.40945 0.763058)
(-3.80157 -2.8122 -0.523784)
(-2.80988 -2.81056 0.447808)
(-4.3741 0.51644 2.20001)
(-3.99638 0.466964 2.6147)
(-4.06472 0.205812 2.21097)
(-3.6388 -0.742547 1.90144)
(-4.10619 -0.926119 1.87749)
(-4.37454 -2.1511 1.69005)
(-3.24777 -3.87045 0.960482)
(-2.12473 -3.66846 0.0749099)
(-3.33203 1.19447 2.52106)
(-2.92481 -0.893556 1.94718)
(-3.05639 -0.0851045 1.31991)
(-2.54565 -1.33098 1.09351)
(-2.82122 -0.198111 1.47361)
(-3.10869 -0.465251 3.00461)
(-3.43189 -2.06653 3.14495)
(-3.68443 -2.80778 3.04227)
(-2.16666 -4.44107 -0.831937)
(-1.89916 -1.04913 1.34209)
(-1.75871 -0.742799 1.05865)
(-1.58785 -0.182938 0.717389)
(-1.68365 -0.216544 0.280219)
(-2.09142 -0.934671 0.183265)
(-1.79901 -0.615322 0.845475)
(-1.93294 -0.796404 1.40831)
(-2.48224 -0.807032 2.3795)
(-2.85274 -1.93894 1.9423)
(-2.89319 -3.07869 0.59212)
(-1.79887 -0.938786 0.799063)
(-1.56007 -0.925018 0.78459)
(-1.65353 -0.602107 0.389378)
(-1.84406 -0.0278949 0.638482)
(-1.26485 -0.329765 -0.484045)
(-1.16065 -0.192198 -0.809298)
(-1.02181 -0.435015 -0.558833)
(-0.925138 0.00848665 -0.913204)
(-1.13301 -0.487537 -0.0933207)
(-1.77607 -0.472297 -0.188993)
(-2.56398 -1.75214 0.00916578)
(-1.28604 -0.595755 1.58775)
(-1.66407 -0.3162 1.02692)
(-1.13554 -0.419842 1.49188)
(-1.07884 -0.172496 1.00743)
(-0.743922 -0.264396 0.289553)
(-0.920545 0.425461 -0.62664)
(-0.583748 -0.313189 -0.816433)
(-0.175993 0.638196 -0.995568)
(-0.564165 0.484939 -0.765788)
(-0.656077 0.426035 -0.778038)
(-1.16779 0.967367 -0.828239)
(-2.16874 -0.237953 -0.206329)
(0.0201056 -1.66042 0.0916009)
(-0.154898 -1.38243 0.0467123)
(-0.0102126 -1.83145 0.382157)
(0.784086 -0.767904 0.0547088)
(0.1321 -0.0526812 -0.958218)
(-0.281275 0.0329394 -0.948944)
(-0.648257 0.363845 -0.743446)
(-0.660819 0.214273 -0.604271)
(-0.372391 0.997402 -1.37996)
(-0.21197 1.49 -0.249892)
(0.202749 1.28355 -0.850937)
(-0.173367 1.22116 -0.568287)
(-0.881696 0.948209 0.112952)
(-0.293277 -1.48339 -0.0708502)
(0.428853 -1.54446 -0.471736)
(0.13853 -1.35908 -0.388629)
(0.457185 -1.51408 -0.00932356)
(0.947821 -0.377295 -0.427525)
(0.759308 0.155464 0.341737)
(0.172732 -0.0431367 -0.711968)
(0.162735 0.428219 -0.450733)
(0.165342 0.0633692 -0.759276)
(0.0426192 0.485083 -1.73479)
(0.716218 1.13024 -1.12438)
(0.142864 2.05942 -1.08156)
(0.309736 1.90311 -0.628913)
(0.24086 1.38796 0.0600761)
(-1.68438 -1.15973 0.0525476)
(-2.0554 -1.03991 0.109386)
(-1.70721 -1.39524 0.0153541)
(-2.524 -0.643677 0.233351)
(-2.04682 -1.52747 0.00337575)
(-1.83453 -1.49388 -0.00133954)
(-2.96952 -0.400111 0.277784)
(-2.72508 -1.03268 0.267798)
(-2.53608 -1.18856 0.341547)
(-1.78319 -1.94733 -0.00358597)
(-3.42055 -0.354728 0.365975)
(-3.21503 -0.931914 0.262502)
(-3.32956 -1.10688 0.206937)
(-2.42914 -2.34541 -0.00985032)
(-2.5513 -1.88317 0.0795575)
(-3.90791 -0.299782 0.489686)
(-3.88857 -0.495897 0.512738)
(-3.79381 -0.859776 0.201978)
(-3.59673 -1.32753 0.493523)
(-3.53525 -1.94257 0.368619)
(-1.65762 -2.88442 -0.588483)
(-4.05046 0.298453 1.62433)
(-4.15351 -0.587709 1.15621)
(-4.31291 -0.840535 0.999365)
(-3.9305 -1.49836 0.569355)
(-3.13204 -2.24741 0.360482)
(-2.49989 -2.67802 1.29003)
(-1.5286 -3.08797 0.577701)
(-4.1194 0.568432 2.11283)
(-4.1158 0.143245 2.08738)
(-4.40001 -0.200482 1.90577)
(-4.47539 -1.03079 1.54913)
(-4.40905 -1.94133 1.17169)
(-4.44004 -2.40622 0.766332)
(-3.57952 -2.69401 -1.17736)
(-3.22471 -2.48656 0.259801)
(-4.35962 0.226611 1.83879)
(-4.45617 0.0592586 2.30032)
(-4.09823 0.179178 2.68806)
(-3.70652 -0.447112 2.28589)
(-4.0653 0.0478262 2.2394)
(-4.13819 -1.69271 1.99946)
(-4.10427 -2.53195 1.51149)
(-3.02833 -3.99143 0.617476)
(-1.35584 -3.86993 -0.0700248)
(-3.80645 1.39833 1.8086)
(-3.34501 -0.111358 2.36712)
(-2.84904 -1.31585 1.76698)
(-2.67052 -1.07298 1.09065)
(-2.62082 -0.205546 0.214598)
(-2.91791 -0.991967 2.07564)
(-3.11037 -1.54304 3.24049)
(-3.01472 -3.00555 3.05567)
(-3.46492 -2.935 3.14327)
(-1.86523 -4.49025 -0.646961)
(-2.32174 -0.67917 1.04404)
(-1.82779 -1.15345 1.12966)
(-1.70037 -0.80221 0.994459)
(-1.62975 -0.484342 0.549387)
(-1.65936 -0.64734 0.310663)
(-1.9619 -1.07788 0.410027)
(-1.92286 -0.956944 1.2921)
(-2.25953 -0.264388 1.88475)
(-2.57684 -1.85167 2.27631)
(-2.72583 -2.27851 2.00594)
(-2.81055 -3.40429 0.63619)
(-2.37774 0.319616 0.605844)
(-1.74221 -0.77882 0.962083)
(-1.65034 -0.734819 1.21054)
(-1.47344 -0.601279 1.33578)
(-1.59074 -0.5794 0.365752)
(-1.21622 -0.502595 -0.548511)
(-1.09522 -0.5181 -0.666041)
(-1.03136 0.138688 -0.99066)
(-0.965421 -0.242693 -0.796752)
(-1.16703 -0.810258 -0.202983)
(-1.93486 -0.698475 -0.174344)
(-3.60179 0.333446 0.00759716)
(-0.853012 -0.878202 1.70642)
(-1.20203 -0.695919 1.47155)
(-1.60564 -0.348512 1.04862)
(-1.14559 -0.536984 1.40781)
(-1.06193 -0.244315 0.814837)
(-0.633773 -0.311349 -0.0625704)
(-0.817474 0.0675848 -0.70826)
(-0.593885 -0.227372 -0.982183)
(-0.254135 0.541242 -0.976223)
(-0.611763 0.316431 -0.729226)
(-0.717309 0.328409 -0.815259)
(-1.20889 0.821106 -0.729524)
(-2.19274 -0.346302 -0.127235)
(-0.34609 -1.82437 -0.250514)
(0.0213652 -1.59253 0.0944034)
(-0.124131 -1.39363 -0.0707116)
(0.050753 -1.8277 0.361666)
(0.868036 -0.771517 -0.0921481)
(0.159666 0.040454 -0.865108)
(-0.244456 -0.0595607 -0.881048)
(-0.676218 0.339024 -0.768969)
(-0.737526 0.464747 -0.737766)
(-0.383115 0.955251 -1.33003)
(-0.186147 1.38877 -0.232598)
(0.218756 1.22993 -0.812969)
(-0.184419 1.21061 -0.475655)
(-0.794717 0.828174 0.196745)
(-1.16361 -0.475206 0.92958)
(-0.280054 -1.46278 -0.125926)
(0.430687 -1.51041 -0.529958)
(0.135467 -1.35308 -0.404586)
(0.453115 -1.50326 -0.0332784)
(0.902625 -0.455428 -0.37133)
(0.760443 0.165807 0.347379)
(0.172978 -0.00293751 -0.725059)
(0.180149 0.406222 -0.412067)
(0.156672 0.165261 -0.774518)
(0.0319616 0.52571 -1.68802)
(0.676693 1.14067 -1.10114)
(0.114611 2.09181 -0.994739)
(0.317481 1.88737 -0.677428)
(0.293428 1.38535 0.0404846)
(-1.54424 -1.23728 0.0677123)
(-1.94915 -1.25317 -0.0468812)
(-1.62528 -1.242 0.054528)
(-2.22011 -0.926676 0.272963)
(-1.97701 -1.24635 0.0452679)
(-1.61718 -1.54973 0.0245611)
(-2.53803 -0.664777 0.205292)
(-2.50508 -1.04773 0.229899)
(-2.01014 -1.66164 0.0532997)
(-1.76098 -1.60073 -0.0390861)
(-2.93183 -0.213882 0.340423)
(-2.95012 -0.764354 0.29726)
(-2.8373 -1.05864 0.197784)
(-2.35268 -1.44161 0.286978)
(-1.48332 -2.17579 0.0679595)
(-3.3812 -0.254083 0.422872)
(-3.26002 -0.552002 0.325695)
(-3.31677 -0.708644 0.341972)
(-3.36447 -1.35504 0.201785)
(-2.42897 -2.41108 -0.265014)
(-2.35365 -2.04276 0.107908)
(-3.94076 -0.166272 0.602597)
(-3.91693 -0.416078 0.428154)
(-3.86039 -0.320189 0.304952)
(-3.60816 -1.21225 0.179586)
(-3.60566 -1.32912 0.317832)
(-3.61241 -1.66735 0.355067)
(-1.11734 -3.1782 -0.631192)
(-3.97102 0.287407 1.66969)
(-4.15359 -0.398841 1.29669)
(-4.19028 -0.908498 0.986759)
(-4.02541 -1.23133 0.90056)
(-3.52186 -2.01546 0.653378)
(-2.76125 -2.73515 0.278434)
(-2.2202 -2.9188 0.941011)
(-1.21969 -3.04469 0.447753)
(-4.09036 0.581415 2.01155)
(-4.1464 0.480277 2.28775)
(-4.2525 -0.158789 2.18101)
(-4.37924 -0.985641 1.87816)
(-4.40669 -1.34836 1.61571)
(-4.31167 -2.46001 0.824926)
(-4.3207 -2.22442 0.936816)
(-3.31922 -2.78094 -0.793782)
(-3.2139 -2.43182 0.328888)
(-4.24834 0.495392 1.68663)
(-4.47132 -0.0156565 1.65299)
(-4.3482 -0.383225 2.39626)
(-4.04131 -0.515814 2.5981)
(-3.3806 -0.833765 1.94646)
(-4.16467 -1.48117 1.82615)
(-3.91209 -2.60754 1.79661)
(-3.60126 -3.31902 1.05805)
(-2.69972 -4.05269 0.814243)
(-0.659914 -4.0468 -0.0851002)
(-3.88089 1.00223 1.26563)
(-3.86044 0.44993 1.66665)
(-3.1088 -1.59461 2.06555)
(-2.62475 -1.58331 1.60148)
(-2.58061 -1.08113 0.839071)
(-3.00291 0.710906 0.720171)
(-3.0739 -1.55519 2.59468)
(-3.1767 -2.42455 3.14644)
(-2.989 -3.69632 2.56234)
(-2.98294 -3.16851 3.13943)
(-1.78045 -4.36235 -0.0728353)
(-3.44516 0.101439 2.22829)
(-1.94706 -0.64891 -0.0368169)
(-1.86809 -1.13744 0.56235)
(-1.87224 -0.947364 0.628602)
(-1.71887 -0.779277 0.394377)
(-1.58835 -1.06629 0.317628)
(-1.73176 -1.24543 0.919735)
(-1.88261 -1.3404 1.70414)
(-2.39021 -1.34249 1.87794)
(-2.19634 -2.77374 2.18074)
(-2.45028 -2.93912 1.79233)
(-2.49587 -3.68833 0.932231)
(-2.69466 -1.04234 2.63304)
(-1.94086 -0.882545 0.585426)
(-1.81716 -1.06391 0.661137)
(-1.59065 -1.26946 1.0522)
(-1.52733 -1.39684 0.268066)
(-1.52323 -0.781037 0.254067)
(-1.17894 -0.716109 -0.560023)
(-1.10657 -0.611957 -0.615231)
(-1.12157 -0.70981 -0.610012)
(-0.994156 -0.535009 -0.649815)
(-1.26089 -0.982237 -0.335511)
(-2.04083 -1.13545 -0.0540239)
(-3.18485 -1.99118 -0.187759)
(-1.28932 -1.24484 2.04925)
(-0.757427 -0.99821 1.27633)
(-1.17953 -0.671334 1.35921)
(-1.58231 -0.258536 1.00852)
(-1.15783 -0.559363 1.33982)
(-1.04962 -0.271054 0.67008)
(-0.593462 -0.333001 -0.176635)
(-0.803521 -0.0717982 -0.709981)
(-0.707878 -0.220143 -1.05263)
(-0.294973 0.393984 -0.96016)
(-0.6122 0.100678 -0.747065)
(-0.744249 0.234887 -0.824462)
(-1.24073 0.639343 -0.605158)
(-1.89582 -0.853454 -0.0282187)
(-2.18105 -0.608169 1.62551)
(-0.276472 -1.70163 -0.600014)
(0.0187491 -1.50804 0.0633597)
(-0.104624 -1.39617 -0.130856)
(0.11902 -1.77533 0.326773)
(0.935181 -0.692614 -0.257258)
(0.183673 0.0536821 -0.652461)
(-0.194286 -0.200677 -0.832871)
(-0.690353 0.33791 -0.739446)
(-0.852769 0.694939 -0.757783)
(-0.376785 0.900364 -1.25237)
(-0.155318 1.24614 -0.344825)
(0.261415 1.13747 -0.819638)
(-0.196197 1.2023 -0.370198)
(-0.653306 0.68288 0.280603)
(-0.939335 0.0891994 0.314513)
(-1.15096 -0.461845 0.88551)
(-0.262031 -1.43267 -0.187707)
(0.427083 -1.48787 -0.565542)
(0.116678 -1.34771 -0.431935)
(0.44331 -1.5054 -0.0701344)
(0.885668 -0.394159 -0.42597)
(0.765771 0.168003 0.351312)
(0.15922 0.0486955 -0.740789)
(0.195628 0.395518 -0.377685)
(0.135635 0.285449 -0.782477)
(0.0392894 0.559836 -1.61621)
(0.641874 1.18642 -1.04757)
(0.147849 2.03892 -1.02377)
(0.290442 1.885 -0.678032)
(0.277654 1.38553 0.0691105)
(-1.51587 -1.09701 -0.0417557)
(-1.97681 -1.09071 3.84907e-05)
(-1.48146 -1.30899 0.0592029)
(-2.17564 -0.876024 0.261041)
(-1.8016 -1.40705 -0.0191609)
(-1.5187 -1.41956 0.0504917)
(-2.29359 -0.687919 0.248032)
(-2.22018 -1.06886 0.160943)
(-1.9018 -1.38499 -0.00479235)
(-1.53794 -1.65062 0.0538873)
(-2.67206 -0.397828 0.320857)
(-2.61298 -0.757708 0.203337)
(-2.56658 -1.03621 0.169565)
(-1.97401 -1.70741 0.0543514)
(-1.69426 -1.65316 -0.0158908)
(-2.96517 -0.31305 0.362409)
(-2.91594 -0.581204 0.286185)
(-2.90784 -1.03217 0.276902)
(-2.66911 -1.64392 0.051452)
(-2.15349 -1.71255 0.148057)
(-1.4367 -2.18906 0.0726893)
(-3.39357 0.0198878 0.489388)
(-3.35167 -0.442067 0.411689)
(-3.2551 -0.704263 0.340816)
(-3.21263 -1.09693 0.226282)
(-3.31538 -1.55237 0.274715)
(-2.15167 -2.75097 -0.109841)
(-2.10767 -2.19182 0.0324609)
(-3.95373 -0.106419 0.653425)
(-3.94764 -0.35919 0.549907)
(-3.85924 -0.554735 0.418559)
(-3.70719 -0.952046 0.331237)
(-3.46965 -1.5438 0.120908)
(-3.38597 -1.54037 0.232696)
(-3.42537 -1.68976 0.531833)
(-1.04199 -3.19993 -0.303329)
(-3.89426 0.245346 1.78104)
(-4.15241 -0.299021 1.43778)
(-4.16608 -0.797743 1.23925)
(-4.05482 -1.26265 1.01223)
(-3.78914 -1.71863 0.577461)
(-3.46582 -2.16704 0.675261)
(-2.79878 -2.7929 0.331267)
(-1.97827 -3.05039 0.782317)
(-1.47787 -2.89946 0.915352)
(-3.94484 0.475939 2.02683)
(-4.1192 0.295683 2.04103)
(-4.27878 -0.551459 2.03812)
(-4.44321 -0.751537 1.96356)
(-4.36241 -1.24782 1.81368)
(-4.41045 -2.07579 1.34101)
(-4.31138 -2.46524 0.701021)
(-3.42733 -3.2709 0.455938)
(-3.12249 -2.96988 -0.0249191)
(-2.45207 -3.07457 0.0538657)
(-4.18968 0.829338 1.51281)
(-4.50016 0.149522 1.44436)
(-4.38588 0.147136 1.68652)
(-4.42091 -0.308772 2.10081)
(-3.76556 -1.0054 2.35493)
(-3.51723 -0.816114 1.84515)
(-3.89319 -2.1459 1.61405)
(-3.89431 -3.01473 1.59471)
(-3.30278 -3.74762 0.829862)
(-2.89007 -3.68848 1.04439)
(-0.404204 -3.98907 -0.0465019)
(-3.63647 -0.293449 1.63956)
(-3.75957 0.0554399 1.68411)
(-3.55037 -0.658334 1.79811)
(-3.00003 -1.55551 1.45919)
(-2.38852 -2.04573 1.03566)
(-2.43831 -1.29462 0.654919)
(-3.01009 -0.556727 1.92037)
(-3.2582 -2.14877 2.79822)
(-3.08821 -3.205 3.21969)
(-2.93346 -3.95868 2.30133)
(-1.92008 -4.30155 1.85117)
(-1.61956 -4.39293 0.221703)
(-3.61837 0.516523 2.10865)
(-3.53622 0.255489 2.30502)
(-1.9146 -0.481777 -0.428552)
(-1.92326 -1.11705 0.354125)
(-1.92891 -1.16328 0.602123)
(-1.76481 -1.13967 0.173066)
(-1.59595 -1.39925 0.420797)
(-1.81459 -1.48306 1.3267)
(-1.91287 -1.8779 1.95146)
(-2.26457 -1.86918 2.08725)
(-3.00396 -2.07828 2.04843)
(-2.74154 -3.33821 0.895235)
(-3.59985 -3.5896 0.129569)
(-3.66583 0.895609 1.52113)
(-2.38907 -1.31248 2.14687)
(-1.72253 -1.35613 0.328395)
(-1.81447 -1.426 0.251048)
(-1.87333 -1.33724 0.714727)
(-1.49349 -1.45208 0.167396)
(-1.41771 -1.0803 0.0937134)
(-1.14665 -0.912699 -0.494453)
(-1.05023 -0.860936 -0.410705)
(-0.998749 -0.916779 -0.49807)
(-0.930656 -0.821698 -0.555613)
(-1.21213 -1.20439 -0.146191)
(-1.96929 -1.63703 0.132133)
(-2.87982 -2.13709 -0.163077)
(-2.68387 -0.363096 2.17405)
(-1.06777 -1.43025 1.4583)
(-0.723895 -1.04788 0.895851)
(-1.23287 -0.679145 1.17436)
(-1.56324 -0.412366 0.827094)
(-1.15941 -0.848543 1.15273)
(-1.06547 -0.22151 0.525992)
(-0.558809 -0.301223 -0.278027)
(-0.800071 -0.106926 -0.725178)
(-0.84337 0.0202111 -1.09661)
(-0.353322 0.203744 -0.881316)
(-0.631176 -0.0640266 -0.75909)
(-0.750933 0.0742638 -0.807263)
(-1.25665 0.425685 -0.506711)
(-1.79894 -1.11177 -7.97882e-05)
(-2.23573 -0.123929 1.36706)
(-2.11469 -0.52068 1.54192)
(-0.221496 -1.59 -0.790749)
(-0.014324 -1.41762 0.0141785)
(-0.0739234 -1.38481 -0.191733)
(0.196913 -1.77811 0.271915)
(0.969558 -0.618471 -0.329341)
(0.221966 0.0831587 -0.418642)
(-0.120818 -0.295322 -0.854683)
(-0.695106 0.306339 -0.632841)
(-0.875144 0.922297 -0.561355)
(-0.367193 0.817358 -1.15063)
(-0.0861591 1.13311 -0.405676)
(0.310718 1.0377 -0.817586)
(-0.213503 1.17099 -0.275216)
(-0.487361 0.532904 0.356997)
(-0.572113 0.0810987 -0.425301)
(-0.967852 0.102087 0.254984)
(-1.14853 -0.407541 0.870191)
(-0.245044 -1.40588 -0.215529)
(0.427106 -1.47393 -0.596316)
(0.144053 -1.34363 -0.49205)
(0.440451 -1.5043 -0.106759)
(0.881094 -0.417845 -0.382231)
(0.772356 0.177738 0.348904)
(0.137802 0.101093 -0.763424)
(0.211465 0.388404 -0.343227)
(0.100704 0.408262 -0.780476)
(0.0504846 0.576427 -1.53005)
(0.641421 1.21546 -1.00948)
(0.235983 1.92768 -1.14493)
(0.341925 1.81265 -0.722562)
(0.264059 1.38935 0.085016)
(-1.47942 -0.90394 -0.0468895)
(-1.92239 -0.933143 -0.0689965)
(-1.40832 -1.24744 -0.0519596)
(-2.17099 -0.823722 0.169831)
(-1.78769 -1.33081 0.0618862)
(-1.40968 -1.39883 0.0168069)
(-2.28371 -0.676596 0.0468459)
(-2.05573 -1.06485 0.270851)
(-1.75855 -1.4638 -0.00460946)
(-1.41681 -1.52305 0.0482949)
(-2.38154 -0.364668 0.369196)
(-2.27099 -0.871985 0.160753)
(-2.21539 -1.05885 0.0881355)
(-1.78129 -1.55571 -0.0238653)
(-1.57994 -1.62097 0.00813964)
(-2.69872 -0.501685 0.333492)
(-2.63999 -0.529725 0.291831)
(-2.6428 -0.778977 0.0903971)
(-2.50047 -1.0232 0.114963)
(-1.93169 -1.70474 -0.00679571)
(-1.40361 -1.84757 -0.0153186)
(-2.96768 -0.0576766 0.487322)
(-2.9702 -0.52842 0.368769)
(-2.88345 -0.717038 0.306352)
(-2.92789 -1.10006 0.126912)