/*--------------------------------*- C++ -*----------------------------------*\
  =========                 |
  \\      /  F ield         | OpenFOAM: The Open Source CFD Toolbox
   \\    /   O peration     | Website:  https://openfoam.org
    \\  /    A nd           | Version:  7
     \\/     M anipulation  |
\*---------------------------------------------------------------------------*/
FoamFile
{
    version     2.0;
    format      ascii;
    class       volScalarField;
    location    "6";
    object      nut;
}
// * * * * * * * * * * * * * * * * * * * * * * * * * * * * * * * * * * * * * //

dimensions      [0 2 -1 0 0 0 0];

internalField   nonuniform List<scalar> 
150000
(
0.00101596
0.000866122
0.00111051
0.00136136
0.00086272
0.00100718
0.000667476
0.000810316
0.00106497
0.0011212
0.00142008
0.000511883
0.00178587
0.000691738
0.00178004
0.000984758
0.00546884
0.00154332
0.000454748
0.00122357
0.000897145
0.000986452
0.00111578
0.00105977
0.00173805
0.000473243
0.000315804
0.000507118
0.00200006
0.000425961
0.00271237
0.00213248
0.00339442
0.0021207
0.00115935
0.00193486
0.00264963
0.000773439
0.00122259
0.000304017
0.00099572
0.000883398
0.00036504
0.00134789
0.00153602
0.00122652
0.000946567
0.00187453
0.000448323
0.000183703
7.88058e-05
0.00018351
0.000482253
0.00191342
0.000949586
0.00222847
0.00260689
0.00130962
0.00335993
0.00186397
0.00170921
0.00171564
0.00159557
0.00206177
0.00116049
0.0025582
0.0017836
0.000778714
0.00305973
0.00326791
0.00224229
0.000352368
0.000800514
0.00126661
0.000422114
0.00032513
0.000295906
0.00139543
0.00192502
0.00113101
0.000820429
0.00183576
0.000466512
0.000445003
5.54013e-05
0.000133158
0.000153535
0.000247279
0.000298153
0.00162903
0.00135703
0.00189947
0.00235229
0.000700586
0.00227302
0.00294375
0.00274468
0.000951844
0.00167721
0.00276869
0.00179252
0.00102662
0.000877974
0.0015538
0.00220518
0.00143713
0.00244842
0.00100562
0.00218211
0.00135159
0.000664802
0.000353263
0.000726124
0.000845711
0.00109772
0.00216708
0.00045973
0.000810381
0.00130123
0.000309587
0.000294238
0.000486622
0.000393804
0.000472195
0.00125994
0.000902441
0.00099763
0.000696591
0.00164451
0.00073708
0.000231079
6.25049e-05
0.000172698
8.80843e-05
0.00013585
0.000132047
0.00025407
0.000388315
0.00122047
0.00140206
0.0025716
0.00196048
0.00131489
0.00218079
0.00219823
0.00100626
0.00065566
0.00207573
0.0025591
0.00277045
0.00212654
0.000948856
0.00074037
0.00045849
0.0012644
0.00262481
0.00152
0.00111507
0.00140855
0.00144397
0.000686415
0.00109375
0.00185747
0.00259768
0.00239887
0.00108706
0.000746681
0.00113147
0.000633768
0.000282269
0.000853443
0.000533024
0.00144235
0.00185387
0.00463232
0.00213111
0.000365824
0.000819217
0.00118618
0.000168411
0.000274202
0.000497377
0.000228599
0.000533653
0.000395496
0.000405284
0.000902623
0.00217182
0.000913912
0.00058164
0.00134366
0.000857509
0.000354965
0.000186065
0.0001561
3.18859e-05
8.98242e-05
0.000113317
0.000182161
0.000119152
0.000108484
0.000629877
0.000772773
0.00124637
0.00215448
0.00246425
0.00118512
0.00223055
0.00223996
0.000985416
0.000981864
0.000773957
0.00201971
0.0020653
0.00198761
0.00122111
0.000800318
0.000912206
0.000693199
0.00238757
0.00371679
0.00112541
0.000302204
0.00106772
0.000779334
0.000907531
0.000892062
0.00106059
0.00248623
0.00212124
0.00156682
0.00168874
0.00143823
0.000599007
0.000560378
0.000770103
0.00123051
0.00136031
0.00200427
0.00211588
0.00109186
0.000736151
0.000882931
0.000432727
0.000462115
0.000808134
0.000677488
0.00093648
0.000580496
0.00152059
0.00100551
0.00151657
0.00206318
0.000419797
0.00082407
0.00107785
0.000285283
0.000422862
0.000504149
0.000267722
0.000137828
0.000206232
0.000545986
0.000382185
0.000330189
0.000486163
0.00227321
0.00105693
0.000496294
0.000995091
0.000995708
0.000208051
0.000369108
0.000139989
2.76099e-05
0.000191509
0.000169259
0.000111684
0.000149398
0.000176398
0.000116772
0.000327673
0.000466216
0.000417546
0.000926053
0.0021407
0.00196536
0.00111791
0.00224254
0.00198758
0.00114795
0.000701374
0.000658641
0.00269739
0.00254769
0.00206744
0.00142462
0.00185082
0.00056634
0.00104587
0.00223756
0.00238774
0.00290235
0.00171204
0.00212336
0.000999309
0.00170312
0.000563397
0.000971258
0.00202342
0.00246177
0.00129467
0.000803868
0.000478945
0.00102137
0.000148585
0.00148279
0.000760405
0.00126984
0.000806353
0.00251381
0.000940675
0.00152335
0.00118759
0.00127263
0.00042957
0.000588031
0.000753189
0.000721753
0.000776982
0.00158122
0.00138032
0.00226694
0.00208793
0.000902715
0.0008416
0.000827316
0.000602661
0.000564562
0.000778894
0.000719066
0.000237411
0.000695905
0.000985716
0.000408117
0.000875109
0.0010124
0.00260356
0.0019617
0.000518792
0.000719828
0.000989894
0.000605888
0.000693795
0.000512057
0.000317816
0.000332213
9.04012e-05
0.000131728
0.000145258
0.000509949
0.000516503
0.000506404
0.000268204
0.00203139
0.00158447
0.000431096
0.000698768
0.00104124
0.000207641
0.000259968
0.000137158
6.71891e-05
0.000115997
0.00016451
6.6623e-05
9.8441e-05
0.000182182
0.000135041
0.000138878
0.000120041
0.000301559
0.000109302
0.000311383
0.00046914
0.00215773
0.00224479
0.000917691
0.00220816
0.00227698
0.000883253
0.000800732
0.000850293
0.00214184
0.00242172
0.000746078
0.000803938
0.000812384
0.000562623
0.000925634
0.00243854
0.0026692
0.00156933
0.00110529
0.000848985
0.00145766
0.00048437
0.000451994
0.000603554
0.00238569
0.0025002
0.00295552
0.00146809
0.00148276
0.00208324
0.000525849
0.00137205
0.00101869
0.000358049
0.00107518
0.00200984
0.0024496
0.00188066
0.00116539
0.000560707
0.000523752
0.000706216
0.000707113
0.00150743
0.00117939
0.00106219
0.00148772
0.000465762
0.00255559
0.00238345
0.000588237
0.0011382
0.00122163
0.000384669
0.000626561
0.000739358
0.000746809
0.000806877
0.000960604
0.000759524
0.00160161
0.00128025
0.00218192
0.0019917
0.000773037
0.000855
0.000952844
0.000722469
0.000381058
0.000782766
0.000778274
0.00032294
0.00036468
0.000251649
0.000606925
0.000996871
0.000708719
0.00104072
0.000626304
0.00344722
0.00202005
0.000547446
0.000654998
0.00101159
0.000582454
0.000322716
0.000539421
0.000325868
0.000123982
7.06397e-05
0.000262298
0.000132124
0.000184393
0.000152326
0.000486013
0.000474294
0.000557804
0.00019775
0.00147564
0.00181661
0.00040093
0.000540437
0.00101112
0.000114993
0.000180706
0.000141391
3.30527e-05
0.000142714
7.26299e-05
9.67142e-05
6.88182e-05
7.14489e-05
0.000109345
0.00018059
0.000137896
0.000107425
0.000108691
0.0001541
0.000411627
0.000259341
0.000210266
0.00219354
0.00186685
0.000828199
0.00215911
0.00230602
0.000947436
0.000781913
0.00110156
0.00221474
0.00249871
0.00111579
0.000768495
0.000725075
0.000570156
0.000730491
0.0022725
0.00239692
0.00101011
0.000607996
0.000771487
0.000507994
0.000654731
0.000505916
0.000619828
0.00238947
0.00250468
0.00149497
0.000858682
0.000782861
0.00116366
0.00191595
0.000629985
0.000935224
0.000612899
0.000472518
0.00264683
0.0030947
0.00243663
0.00180971
0.00106569
0.00133145
0.00242598
0.000829272
0.00167357
0.000488025
0.000628373
0.00110224
0.000775658
0.00228232
0.00414609
0.00116006
0.000850573
0.000652144
0.00056803
0.000865387
0.000641276
0.000938158
0.000711252
0.00109149
0.000779747
0.00142807
0.00102453
0.000804165
0.00205187
0.00231869
0.000426823
0.00103515
0.00140148
0.000577191
0.000712851
0.00066525
0.000832005
0.000604939
0.000834973
0.000866376
0.000936388
0.000618974
0.00113606
0.000971297
0.0018589
0.00199448
0.000628871
0.000852108
0.000937295
0.000681373
0.000429906
0.00073646
0.000652302
0.000690665
0.000425992
0.000349699
0.000279706
0.000562329
0.000640671
0.00098655
0.000777372
0.000879105
0.000365932
0.00238501
0.00254264
0.000449112
0.000629613
0.00103391
0.000566413
0.000598814
0.000621574
0.000331342
0.000452316
0.000150133
0.000263637
0.000114288
0.000208342
8.92805e-05
0.00020085
0.000119743
0.000482248
0.000391144
0.000383955
0.000387664
0.000969033
0.00162014
0.000366939
0.000478343
0.000947167
0.000195815
0.000239985
0.000129008
0.000177002
0.000159197
8.34356e-05
4.35066e-05
0.000172397
0.0003453
3.10992e-05
5.01357e-05
0.00014676
0.000156048
0.000151452
9.13263e-05
0.00010586
0.000144118
0.000144497
0.000268321
0.000198331
0.00218139
0.00232593
0.00097583
0.002418
0.00245609
0.00089077
0.000671178
0.000697088
0.00225773
0.00217741
0.000807121
0.00055666
0.000353247
0.000646219
0.000629308
0.00213815
0.00207762
0.000921876
0.000453915
0.000468433
0.000554732
0.000818548
0.000624556
0.00113514
0.00223698
0.002617
0.000950912
0.00106411
0.000834082
0.000498854
0.000437133
0.000424086
0.000470255
0.000498429
0.000484494
0.0024769
0.00275156
0.00110945
0.00101941
0.000860393
0.000869302
0.000969359
0.00100368
0.000658709
0.000664805
0.000486309
0.000755233
0.00118387
0.00254054
0.0023735
0.0020713
0.0014427
0.00102793
0.00079927
0.00158713
0.000716702
0.000420502
0.000811529
0.00123184
0.000848187
0.000417826
0.000899073
0.000506853
0.00242974
0.00374169
0.00124929
0.00126566
0.000626185
0.00066377
0.000343682
0.000655
0.00077851
0.00104271
0.000838367
0.000628196
0.00108912
0.00115063
0.00119004
0.000730454
0.000675712
0.00250703
0.00122149
0.00057764
0.00111991
0.00111034
0.000418507
0.000798837
0.000695899
0.000850055
0.000839236
0.00086472
0.000851565
0.000796763
0.000840317
0.000947164
0.000844472
0.00129096
0.000709923
0.00131901
0.00228046
0.000861242
0.000676923
0.00061562
0.000708511
0.000573802
0.000715929
0.000636398
0.00068363
0.00051043
0.00034221
0.000709715
0.000328179
0.000208618
0.000990292
0.000711769
0.000941684
0.000587209
0.000728075
0.000820033
0.00187986
0.00277746
0.000443697
0.000582564
0.00101632
0.000562723
0.000576579
0.000572999
0.000351559
0.000299977
0.000217357
0.000171597
5.46705e-05
0.000116077
0.000217337
0.000188138
0.000157816
0.000180003
0.000108438
0.000456086
0.000420597
0.000369012
0.000444415
0.000456957
0.0012559
0.000344048
0.000493239
0.000888953
0.000270787
0.000186432
0.000129622
0.000121849
0.000154712
9.30602e-05
4.40607e-05
3.68064e-05
0.000287211
0.000357917
0.000246314
0.000178023
5.07214e-05
8.57881e-05
0.000154343
0.000149967
8.84874e-05
0.000106354
0.00014989
0.000244674
0.000273474
0.000192684
0.0022039
0.0021982
0.000728596
0.00221475
0.00214242
0.000785609
0.000473861
0.000668062
0.00241695
0.00247642
0.000600017
0.000556453
0.000423311
0.000306193
0.00067303
0.00223746
0.00223286
0.000858248
0.000554976
0.000313536
0.000348612
0.000554069
0.000439985
0.000568508
0.00230172
0.00240943
0.000820041
0.00104292
0.000646552
0.000535242
0.000665313
0.00055194
0.00055688
0.000518506
0.000508988
0.00230806
0.00258848
0.00103531
0.000994362
0.00109409
0.000626735
0.000526217
0.00023689
0.000607395
0.000454888
0.000876342
0.00067258
0.000703952
0.00247794
0.00278678
0.000648582
0.000623693
0.00119221
0.000886297
0.0006634
0.000834522
0.000837528
0.00101764
0.000807505
0.000629755
0.000707321
0.000871455
0.00101532
0.00265489
0.0027585
0.00192524
0.00154714
0.00169361
0.00105848
0.000419319
0.000625624
0.000352585
0.00038614
0.000240495
0.000612436
0.00101214
0.00118534
0.00103597
0.000616757
0.00129621
0.0030555
0.00354
0.00159968
0.00157991
0.00103158
0.000700275
0.000625886
0.000960412
0.00090215
0.000762137
0.000686131
0.00101211
0.000984107
0.00100602
0.00106796
0.00112765
0.000543746
0.00076917
0.000534556
0.00333559
0.00140341
0.000768097
0.00169442
0.000936874
0.0006844
0.000746379
0.000716061
0.000796598
0.000716467
0.000747467
0.000565066
0.000759345
0.000790665
0.000777819
0.000698067
0.000924333
0.000710224
0.00141204
0.000994132
0.000934834
0.00236016
0.00100122
0.000585417
0.000462733
0.000675155
0.000507037
0.000799254
0.000683678
0.000338973
0.000449126
0.000292887
0.000708299
0.000816528
0.000713075
0.000351939
0.000241917
0.000824505
0.000734513
0.000966869
0.000645528
0.000779254
0.00090749
0.00168907
0.00265192
0.000472009
0.000519469
0.00103215
0.000574004
0.000331898
0.000617297
0.000326505
0.000227933
0.000289748
0.000219122
0.000104111
0.000150246
0.000150081
9.93264e-05
0.000153602
0.000120473
0.000199013
0.000436863
0.000190346
0.000433882
0.000449521
0.000354352
0.000435102
0.00033435
0.00107109
0.00032939
0.000509879
0.000902332
0.000223167
0.000201714
0.000122403
0.000122946
0.000147854
9.15866e-05
9.64917e-05
0.000147825
0.000254684
0.000336735
0.000607604
0.000330876
8.30848e-05
7.33943e-05
5.92051e-05
0.000113444
0.000233624
0.000153148
0.000127899
0.000114744
0.000159322
0.000218278
0.000292441
0.000173436
0.00216389
0.00219789
0.000483741
0.00231988
0.00215225
0.000654237
0.00039683
0.000689163
0.00229717
0.00204001
0.000697757
0.000455477
0.000403267
0.000473447
0.000857524
0.00232514
0.00197965
0.000820751
0.000512409
0.000417118
0.0005877
0.000549457
0.000344639
0.000478732
0.0022504
0.00228637
0.000903564
0.000946507
0.000713386
0.000414004
0.000403426
0.000561101
0.00065624
0.000537517
0.000690981
0.00232237
0.00223958
0.000731854
0.00080859
0.000787336
0.000696129
0.000876301
0.00039813
0.000538462
0.000739647
0.000606054
0.000647926
0.000510037
0.00253685
0.00260035
0.00122968
0.000683883
0.000949629
0.000790211
0.000633999
0.000786319
0.000684543
0.000484215
0.000615525
0.000616037
0.000844698
0.000640516
0.000579358
0.00234922
0.00253211
0.000907979
0.00144541
0.000897861
0.000839146
0.00145677
0.00102003
0.000759574
0.000488692
0.000950461
0.000841433
0.000927388
0.000334949
0.000784191
0.00104367
0.00131055
0.00236979
0.00290326
0.00127831
0.00139936
0.00131381
0.000904954
0.0017109
0.00113616
0.000439824
0.000231925
0.000398765
0.000455516
0.00109551
0.000885975
0.000865071
0.000688538
0.000781207
0.00196598
0.00198956
0.00261095
0.00279672
0.00303969
0.000813051
0.00048193
0.000521706
0.000666212
0.000946438
0.000870231
0.000678158
0.000882147
0.00151034
0.000812657
0.00085797
0.00104446
0.00084196
0.00112577
0.00140558
0.000782907
0.000804783
0.000988212
0.00345355
0.00129351
0.0011675
0.00137808
0.00121033
0.000789298
0.00066824
0.000795911
0.000757831
0.000667843
0.000816967
0.000721812
0.000988458
0.000668023
0.000696392
0.000979949
0.000778122
0.00093152
0.000979136
0.00102754
0.00146979
0.00121211
0.000703631
0.00205194
0.00100696
0.000558543
0.000448124
0.000649353
0.000403141
0.000876116
0.00065758
0.000380951
0.000422111
0.000418366
0.000640975
0.000614828
0.000270986
0.000817671
0.000706105
0.000326014
0.000280713
0.000624871
0.000709876
0.000967501
0.000706229
0.000710909
0.00084119
0.000298707
0.00238362
0.000441533
0.000509122
0.00105041
0.000550601
0.000456102
0.000607998
0.000337775
0.000428005
0.00029919
0.000273891
7.88018e-05
0.000170802
0.000212239
0.000218139
0.000183418
0.000123667
7.77252e-05
0.000482206
0.000182468
0.000316304
0.000214274
0.000401081
0.000416907
0.000326107
0.000368149
0.000324645
0.000933327
0.000331148
0.000518885
0.000900354
0.000204074
0.000152446
0.000102997
0.000139362
0.000378444
6.39888e-05
5.48533e-05
0.000270421
0.000416869
0.000357659
0.00054969
0.000489843
0.000705455
0.000281519
0.000101473
0.000140497
7.33262e-05
0.000191387
0.000230052
0.000132812
8.96697e-05
0.000114138
0.00041368
0.000225232
0.000372814
0.000193644
0.0021538
0.00221387
0.000562433
0.00227397
0.00223782
0.000645898
0.000347674
0.000505898
0.00229707
0.00224004
0.000602566
0.000409127
0.000423557
0.000298899
0.000451195
0.00230809
0.00229441
0.000506059
0.000564483
0.000470045
0.000443402
0.000273168
0.000348069
0.000727344
0.00226466
0.00212964
0.000530668
0.000313612
0.000523632
0.000569335
0.000476429
0.000595841
0.000478845
0.000316298
0.000460588
0.00228007
0.00231448
0.000730435
0.000482163
0.000868925
0.000537133
0.000318673
0.00021631
0.000512839
0.000634924
0.000834877
0.00054827
0.000551878
0.00240881
0.00230086
0.000742063
0.000708544
0.000573905
0.000573397
0.000407604
0.00066477
0.000349454
0.000532887
0.000676574
0.000654676
0.000577532
0.00065487
0.00066267
0.00261537
0.00258335
0.000720148
0.00106379
0.000639914
0.000557625
0.000544462
0.000893065
0.000720872
0.000426544
0.000595881
0.000621464
0.000351042
0.00091426
0.000657597
0.000528133
0.000521011
0.00252316
0.00251695
0.00086437
0.00131221
0.00144602
0.000877197
0.000537082
0.000508373
0.000599247
0.000728622
0.000789675
0.000753166
0.000938551
0.000636099
0.000696945
0.00026275
0.000832094
0.00101688
0.00124505
0.00230432
0.0025406
0.00114386
0.000652856
0.000687276
0.000632403
0.000650896
0.00046125
0.00046331
0.000374522
0.000434728
0.000549761
0.000976485
0.000860854
0.000740063
0.000564391
0.000787966
0.000973292
0.00051857
0.00213279
0.00198998
0.00222995
0.00255273
0.00162715
0.000580012
0.00042903
0.000439034
0.000661204
0.000804815
0.000958995
0.000694657
0.000845969
0.0013037
0.000868639
0.00143511
0.000597313
0.000897637
0.000693272
0.000908053
0.00142618
0.00152927
0.000588232
0.000985397
0.00122158
0.00297105
0.00113548
0.00111884
0.000917127
0.00104661
0.00077539
0.000647305
0.000961732
0.000593453
0.000695474
0.000792575
0.000818785
0.000956403
0.000970023
0.000860079
0.000774213
0.000565065
0.000920513
0.000965655
0.00115219
0.00100173
0.00122951
0.00150427
0.00118767
0.000384339
0.00199513
0.00132321
0.000555823
0.000415358
0.000564839
0.000429854
0.000878142
0.000677058
0.000532195
0.00049417
0.000407975
0.000712253
0.000643346
0.000349822
0.00038197
0.000475484
0.000666942
0.000775874
0.000365891
0.000275296
0.000387102
0.000560381
0.000947002
0.000696068
0.000653773
0.00110392
0.000407708
0.00192975
0.000468906
0.000469985
0.00094145
0.00061626
0.000354755
0.000585114
0.00036353
0.000257243
0.000185061
0.000164311
7.05555e-05
9.34117e-05
0.000226075
0.00021327
0.000310593
0.00028121
0.000277405
0.000121345
0.000189682
0.000216526
0.000193027
0.000481088
0.00024344
0.000407035
0.000435741
0.000305991
0.000468518
0.000312103
0.000684729
0.000310485
0.00048904
0.000828548
0.000191603
0.000278156
0.000106999
0.000121235
0.000126443
0.000154197
3.8126e-05
0.000155319
0.000211605
0.000550553
0.000648121
0.000291891
0.000256708
0.000654841
0.000361974
0.000277246
0.000152198
0.000205637
0.000148671
0.000123598
0.00015074
0.000122564
7.6481e-05
0.000116058
0.000219473
0.000318948
0.000349707
0.000266754
0.00218185
0.0021916
0.000369942
0.00227394
0.00222422
0.000494812
0.000361035
0.000392117
0.00231683
0.00222839
0.000512894
0.000306506
0.000601095
0.000378309
0.000594393
0.00226575
0.00216204
0.000667947
0.000403314
0.000279284
0.000229797
0.000273082
0.000272343
0.0005065
0.00231926
0.00230706
0.000673679
0.000459195
0.000338568
0.000211761
0.000302915
0.000577509
0.000345842
0.000379841
0.000509005
0.00224292
0.00220727
0.000770214
0.000374479
0.000568628
0.000338488
0.000604975
0.000433492
0.000523137
0.000726244
0.00054509
0.00021963
0.000414384
0.00233961
0.00231578
0.000740817
0.000571713
0.00054738
0.000644298
0.000527731
0.000694269
0.000319591
0.000300177
0.00063912
0.000384415
0.000828601
0.000594838
0.000624356
0.00251658
0.00244622
0.000734079
0.00105231
0.000700032
0.000487752
0.000245201
0.000645699
0.000437962
0.0003849
0.000576664
0.000540829
0.000634283
0.000578923
0.000537971
0.000934902
0.000611958
0.0027288
0.00266089
0.000788161
0.000896134
0.00100808
0.000603013
0.000644289
0.000537104
0.000505018
0.000663569
0.000542605
0.000433241
0.000493535
0.000484835
0.000668195
0.000505806
0.000435001
0.000401632
0.00111373
0.00265972
0.00274142
0.00108476
0.000793789
0.00158599
0.00122264
0.000878014
0.00072836
0.00072964
0.000599736
0.000445315
0.00028283
0.000686106
0.000581183
0.000624429
0.000797606
0.000938287
0.000645913
0.000531288
0.00151964
0.00181275
0.00227578
0.0025289
0.00144987
0.000689504
0.000464648
0.000694817
0.000532526
0.000653604
0.000709934
0.000360418
0.000847395
0.000600074
0.00101226
0.000572942
0.00031005
0.000437155
0.000544762
0.000754839
0.000665636
0.000817123
0.00114831
0.00122725
0.00166974
0.00269595
0.00213711
0.000778762
0.000575326
0.000536469
0.000420905
0.000534451
0.000794613
0.000812522
0.000447123
0.000916851
0.00140574
0.00103453
0.00118138
0.00218802
0.00126939
0.000685882
0.000707129
0.000787483
0.00126707
0.00170645
0.00106527
0.000468489
0.00235603
0.00204366
0.00395141
0.00172459
0.00135792
0.00106554
0.00082641
0.000967563
0.000657682
0.00104124
0.000569697
0.00079527
0.000761219
0.000653222
0.00101851
0.000928151
0.000897138
0.000709787
0.000963075
0.000590192
0.000869865
0.00110453
0.00110466
0.00106158
0.00106896
0.00141254
0.00157087
0.00102197
0.000399585
0.00331515
0.00189545
0.000587125
0.000306632
0.000363446
0.000376215
0.000899625
0.000745455
0.000344399
0.00049501
0.000426936
0.00054376
0.000584223
0.000291345
0.000294985
0.000318065
0.000283915
0.000504727
0.000749131
0.000632369
0.000249366
0.000522321
0.000557572
0.000369217
0.00090873
0.000683435
0.000778241
0.0009245
0.000991652
0.00208511
0.00051444
0.000474651
0.000766592
0.000664065
0.000325959
0.000562548
0.000366501
0.00017426
0.000290287
0.000108443
9.19134e-05
0.000203017
0.000246524
0.000230916
0.000314193
0.000314351
0.00039598
0.000434189
0.000216078
0.00018855
0.000236017
0.000505007
0.000353754
0.000416691
0.000359682
0.00035949
0.000428512
0.000330016
0.00076316
0.000286287
0.000529783
0.000312816
0.00046953
0.000705262
0.000290536
0.000271646
0.000147429
5.5001e-05
0.000124322
2.78544e-05
0.000173743
0.0001121
0.000219193
0.000573434
0.000663256
0.00015407
0.000163857
0.000429202
0.000291825
0.000611126
0.000162285
0.000230446
0.000167487
0.000262208
0.00010249
8.89523e-05
0.000134617
0.000130107
0.000167526
0.000133728
0.000334644
0.000217996
0.000260282
0.000268986
0.00204763
0.00221906
0.000258818
0.00229069
0.0022028
0.000352847
0.000278524
0.000341459
0.00224542
0.00223199
0.000535655
0.000335416
0.000329837
0.000385913
0.00035153
0.00233251
0.0021714
0.000711956
0.000454609
0.000423964
0.00037625
0.000499022
0.000227612
0.000482893
0.00227784
0.00211616
0.000646584
0.000470471
0.000257595
0.000225877
0.00036685
0.00035391
0.000324961
0.000340079
0.00071217
0.00230677
0.00221064
0.000680181
0.000443346
0.000472159
0.000428126
0.000531512
0.000374083
0.000341248
0.00041628
0.000404651
0.000433483
0.000525021
0.00234579
0.00227367
0.000967982
0.000476433
0.00066702
0.000714719
0.000587164
0.000540809
0.000439412
0.000467382
0.000673882
0.00073784
0.000729292
0.000504658
0.000562773
0.00237257
0.00224956
0.000626728
0.000567159
0.000226347
0.000644223
0.000686456
0.000682899
0.000385984
0.000526517
0.00050968
0.000457715
0.000520847
0.000468175
0.000634641
0.000482024
0.000565141
0.00241168
0.00258661
0.000923507
0.00117399
0.000833298
0.000575134
0.000435644
0.000413754
0.000716156
0.000421501
0.00030139
0.000462119
0.000610069
0.00046872
0.000510775
0.000369914
0.000449684
0.000844143
0.000854535
0.00284767
0.00279846
0.00113882
0.000617752
0.00116943
0.000709422
0.000745673
0.000609648
0.000506276
0.000505242
0.000464245
0.000576769
0.000411273
0.000522226
0.000555313
0.000545558
0.000703058
0.000422767
0.000405935
0.000939116
0.00138977
0.00265025
0.00245192
0.00082391
0.000907105
0.000713481
0.00105034
0.00109369
0.000949401
0.000653356
0.000575718
0.000567562
0.000473503
0.000351069
0.000585105
0.000495414
0.000842608
0.000799786
0.000735011
0.000650381
0.000869709
0.000790026
0.00184124
0.00208051
0.00256511
0.00222211
0.000672748
0.000980715
0.000744927
0.000642806
0.000339065
0.000368219
0.00039485
0.000592985
0.000269678
0.000570126
0.000670707
0.000546988
0.000873716
0.000699341
0.00044601
0.000388057
0.000827279
0.00150595
0.00107481
0.000895712
0.00142549
0.000923139
0.00160618
0.00278632
0.00184665
0.00103464
0.000753919
0.000517761
0.000713093
0.000728904
0.000607322
0.000679359
0.00057996
0.000949585
0.00146879
0.000994472
0.000700668
0.000766142
0.00261086
0.00254313
0.00117302
0.000652819
0.000861233
0.00113892
0.00080039
0.00145783
0.000898889
0.000597427
0.00344272
0.0039728
0.00410609
0.00222531
0.00144215
0.000982269
0.00106483
0.000917247
0.000957909
0.000973595
0.000675915
0.000700368
0.000986214
0.000636022
0.000999015
0.000724388
0.000792305
0.00112822
0.000842779
0.000838932
0.000912268
0.00116015
0.000804655
0.000826628
0.000937388
0.00105799
0.00107899
0.00137296
0.00136071
0.00120525
0.00208667
0.00294466
0.0018038
0.000687072
0.000366719
0.000369993
0.000327271
0.0008315
0.000756733
0.000549018
0.000485762
0.00047821
0.000554148
0.000689438
0.000105445
0.000538082
0.000381008
0.000504741
0.000147972
0.000376386
0.000559888
0.000496914
0.000582573
0.000201308
0.000448541
0.000618548
0.000408354
0.000855778
0.000724397
0.000688683
0.000801439
0.00142303
0.00269487
0.000443309
0.000494885
0.000680994
0.000405135
0.000362956
0.000576108
0.000360583
0.000156867
0.000212014
0.000122304
0.000191902
0.000101569
0.000234462
0.000162973
0.00030045
0.00019669
0.000223819
0.000402778
0.000427873
0.000356156
0.000343757
0.000174681
0.000110338
0.000504059
0.000424152
0.00020887
0.000459264
0.000367258
0.000434933
0.000389316
0.000697739
0.000340856
0.00039767
0.000310884
0.000463948
0.000494327
0.000328948
0.000155377
0.000147841
3.90842e-05
0.000253525
9.50341e-05
3.49042e-05
0.000135175
0.000793648
0.000366568
0.00070309
0.000113708
7.2844e-05
0.000378885
0.000173694
0.000459256
0.000205543
0.000617067
0.000410434
0.000205252
0.000109855
0.00010159
5.93496e-05
0.000124688
0.000421822
0.000122718
0.000126597
0.000170722
0.000356517
0.00015983
0.000244723
0.00031883
0.00191077
0.0020832
0.000294307
0.00216316
0.00223069
0.000214912
0.000426025
0.000535175
0.002239
0.0021762
0.000437168
0.000259693
0.000260495
0.000305213
0.000330481
0.00226359
0.00221707
0.000614968
0.000249529
0.000257583
0.000317778
0.000449006
0.000422425
0.00045625
0.00224397
0.00221864
0.000613227
0.000706131
0.000385732
0.00022005
0.000320869
0.000358532
0.000395923
0.000443817
0.000425551
0.00227775
0.00216634
0.000496122
0.000638599
0.000555154
0.000356924
0.000393958
0.000453202
0.000261743
0.000480054
0.000417643
0.000391324
0.000585405
0.00234981
0.00227674
0.000556615
0.000524506
0.000618168
0.00062574
0.000486221
0.000553643
0.000387994
0.000267699
0.000451551
0.00058899
0.000286456
0.000263432
0.000501651
0.00236869
0.00233174
0.00047634
0.000655017
0.000505412
0.000584393
0.000405181
0.00030972
0.000459308
0.000464519
0.000477553
0.000484068
0.00063795
0.000366456
0.000700312
0.000567234
0.000554846
0.00248467
0.00231378
0.000314459
0.000591444
0.00046972
0.000365093
0.000594762
0.000378578
0.000755492
0.000543043
0.000388499
0.00030047
0.000612603
0.000358888
0.000426008
0.000512293
0.000555937
0.000751577
0.000670398
0.00259273
0.00254739
0.000696962
0.000700788
0.000802973
0.000690366
0.000656675
0.00063828
0.000602906
0.000382585
0.000429394
0.000384359
0.000440142
0.000575792
0.000352573
0.00072158
0.000778065
0.000363519
0.000457203
0.000698452
0.00130227
0.00254214
0.00247212
0.000872964
0.000702019
0.00065671
0.000870221
0.00052479
0.000498936
0.000504729
0.000448552
0.000495274
0.000614331
0.000809807
0.000399958
0.000281981
0.000655839
0.000372368
0.000631791
0.000283673
0.000424099
0.000687884
0.00132846
0.0013538
0.00246239
0.002417
0.000949792
0.000951327
0.000947158
0.00076568
0.000879663
0.0010253
0.000828749
0.000537672
0.000693821
0.000387774
0.000821528
0.000613016
0.00040469
0.000465735
0.00074084
0.000816362
0.0005977
0.00059377
0.000801004
0.000670742
0.000765043
0.00182453
0.00184953
0.00286823
0.002027
0.00124026
0.000417633
0.000872943
0.000441528
0.000476783
0.000256167
0.000242436
0.000503888
0.000619752
0.000845779
0.000823339
0.000293704
0.000818662
0.000924495
0.000874414
0.000694311
0.000194378
0.00067711
0.00121637
0.000752841
0.000482706
0.000892423
0.00154087
0.00122998
0.00105994
0.00361572
0.00211067
0.00176364
0.00116768
0.00046507
0.000417005
0.000547121
0.000527533
0.000705116
0.0006172
0.000730101
0.00100058
0.000641085
0.000869586
0.00119719
0.00124812
0.000602986
0.00136579
0.0024717
0.00112207
0.00071012
0.0011986
0.000835716
0.00135363
0.00138884
0.00124111
0.00141223
0.00167955
0.00182493
0.00384229
0.00275505
0.00165133
0.000909267
0.00124329
0.000484468
0.00103703
0.000829726
0.000648537
0.000632533
0.00106779
0.000504751
0.000931069
0.000745978
0.00102545
0.00069761
0.000500428
0.000725528
0.000878954
0.00109123
0.00076381
0.000570344
0.000968064
0.00104017
0.00088923
0.000974938
0.0010712
0.00141071
0.00121305
0.00115639
0.00352303
0.00321245
0.000608657
0.000639531
0.00044501
0.000468959
0.000415353
0.000814812
0.000710941
0.000564931
0.000532536
0.000565984
0.000551875
0.000702905
0.000497458
0.000443531
0.000497374
0.000824192
0.000960729
0.000257558
0.000444278
0.000465361
0.000610492
0.000512852
0.000410007
0.000504066
0.000283605
0.000323492
0.000341576
0.000761959
0.000802828
0.000660775
0.000801328
0.00170589
0.00309823
0.000247439
0.000527755
0.000631798
0.000455401
0.000368228
0.000557151
0.000329725
0.000249278
0.000181439
0.000105301
0.000194893
0.000235269
0.000369718
0.00017648
0.000260572
0.000274026
0.000160524
0.000403561
0.000304946
0.000355956
0.000536716
0.000453339
0.000277192
8.13275e-05
0.000282436
0.000260428
0.000394334
0.000976154
0.000330106
0.000335185
0.000423827
0.00038865
0.000690751
0.000152501
0.000500929
0.000331834
0.000433153
0.000271566
0.000220138
0.000181177
0.000116187
3.37853e-05
0.000114087
3.73991e-05
0.000100855
0.000121317
0.000375464
0.000342067
0.000573407
8.87287e-05
0.000121396
0.000186947
0.000151787
0.000190852
0.000232616
0.000360832
0.000351755
0.00059794
0.000260863
0.000211193
0.000115938
0.000154678
4.33913e-05
0.000120217
0.000191135
0.000111096
0.000116894
0.000209656
0.000261695
0.000140452
0.000280902
0.00049877
0.0020628
0.00191584
0.000233278
0.00208721
0.00211542
0.000316948
0.000246624
0.000471479
0.0021169
0.00219606
0.000409725
0.000427501
0.000281215
0.000520748
0.000405021
0.00227954
0.00220275
0.000488812
0.000255068
0.000212173
0.000403203
0.000384271
0.00032004
0.000301733
0.00221988
0.00214895
0.000684575
0.00024363
0.000317905
0.000303898
0.000376039
0.000306667
0.000514804
0.000413801
0.000682885
0.00224847
0.00225395
0.000733609
0.000581962
0.000529895
0.000278921
0.000287888
0.000368946
0.000346646
0.000547949
0.000394946
0.000393027
0.000406057
0.00235771
0.00227798
0.000775333