/*--------------------------------*- C++ -*----------------------------------*\
  =========                 |
  \\      /  F ield         | OpenFOAM: The Open Source CFD Toolbox
   \\    /   O peration     | Website:  https://openfoam.org
    \\  /    A nd           | Version:  7
     \\/     M anipulation  |
\*---------------------------------------------------------------------------*/
FoamFile
{
    version     2.0;
    format      ascii;
    class       volScalarField;
    location    "6";
    object      p;
}
// * * * * * * * * * * * * * * * * * * * * * * * * * * * * * * * * * * * * * //

dimensions      [0 2 -2 0 0 0 0];

internalField   nonuniform List<scalar> 
150000
(
-78.872
-79.3945
-78.9604
-78.6638
-78.8762
-77.7747
-79.5662
-78.9675
-79.1389
-79.1354
-78.5773
-81.7769
-79.064
-78.9683
-76.4654
-78.3406
-71.2909
-77.3091
-79.6477
-78.9564
-81.8453
-79.0535
-79.0157
-79.3626
-78.8262
-81.615
-82.8099
-81.9658
-79.8233
-79.1467
-74.3748
-76.2685
-74.6547
-76.1258
-79.097
-73.4498
-80.8771
-69.5794
-76.6068
-79.7781
-79.1973
-81.8661
-82.6093
-81.855
-79.0993
-79.012
-79.5983
-79.377
-81.4751
-82.7983
-82.6931
-82.8125
-82.1783
-80.8262
-79.4509
-74.2689
-74.8504
-76.5212
-74.3788
-76.3934
-76.5715
-79.3508
-74.1887
-75.468
-79.8891
-76.0211
-81.8221
-82.1893
-80.1503
-56.0236
-75.976
-79.9721
-79.4814
-81.908
-82.7097
-81.8322
-82.5343
-81.9158
-79.4065
-79.0866
-79.8083
-80.119
-81.356
-82.7807
-82.6897
-82.2485
-82.6934
-82.8097
-82.3566
-81.7715
-79.9144
-71.739
-74.3802
-74.7661
-74.1217
-75.0904
-77.2445
-78.706
-76.0358
-74.2373
-77.3544
-79.3427
-80.698
-81.1145
-78.4847
-74.7654
-74.9245
-80.825
-78.2982
-82.5265
-82.2564
-81.1978
-81.975
-79.8474
-66.4701
-75.5894
-80.2729
-79.72
-81.9104
-82.7952
-81.7878
-81.2642
-81.8762
-82.4891
-82.0402
-79.9292
-79.2247
-79.9763
-80.867
-81.2541
-82.7533
-82.6895
-82.2333
-82.8607
-82.2698
-82.6932
-82.8182
-82.5075
-82.489
-80.3892
-70.1814
-71.7151
-71.7628
-71.7533
-74.577
-75.4394
-74.5848
-74.1468
-73.766
-75.4631
-78.1151
-79.1986
-79.752
-78.3096
-75.99
-74.4109
-78.5707
-81.4723
-81.8427
-81.1873
-82.4021
-81.0715
-78.1719
-75.4319
-74.5755
-81.6841
-80.0009
-82.8522
-82.346
-81.2685
-80.2838
-81.1248
-81.5259
-80.0485
-68.5814
-75.5852
-80.6049
-79.9446
-81.8607
-82.8156
-81.7483
-81.2013
-81.5655
-81.335
-81.9168
-82.4473
-82.2002
-80.5852
-79.4201
-80.0959
-81.4718
-81.223
-82.7064
-82.6948
-82.2215
-82.8393
-83.5435
-82.872
-82.2896
-82.6954
-82.8348
-82.6561
-82.9639
-80.9495
-69.1583
-70.0559
-70.358
-70.1734
-71.7144
-71.564
-72.2606
-72.0558
-71.6786
-74.6694
-75.5631
-74.8419
-75.4187
-74.476
-74.2478
-73.6533
-75.8078
-79.4807
-80.4675
-79.4934
-80.5178
-79.4492
-77.7864
-75.9602
-74.7172
-79.6038
-83.153
-82.6131
-81.4879
-82.7004
-81.7371
-81.7169
-80.5729
-78.3751
-76.0374
-74.573
-82.3787
-81.0515
-82.8697
-82.4219
-81.3208
-80.2716
-80.5233
-80.2762
-81.058
-81.268
-80.6536
-73.1607
-75.8772
-80.7565
-80.1487
-81.7958
-82.7483
-81.7186
-81.141
-81.4641
-81.9134
-81.6824
-81.4082
-81.9485
-82.4284
-82.3971
-81.3631
-79.7372
-80.1721
-81.8641
-81.2702
-82.6685
-82.706
-82.2109
-82.798
-83.4889
-83.2587
-83.6205
-82.8907
-82.31
-82.7001
-82.8393
-82.7247
-83.2392
-81.4201
-68.2511
-69.1111
-68.9317
-69.3121
-69.9812
-70.098
-70.4212
-70.5653
-70.0824
-71.8327
-71.1905
-72.0933
-72.0217
-72.3539
-72.192
-71.6542
-74.4208
-75.6768
-75.1884
-75.7259
-75.7363
-74.6953
-74.5964
-74.3063
-73.7269
-76.7037
-81.3708
-80.9866
-79.9513
-80.9689
-81.2293
-80.0368
-79.0786
-77.485
-76.0767
-74.8869
-81.3607
-84.2075
-83.1306
-81.5703
-82.7135
-81.94
-80.9174
-81.4155
-81.1403
-80.2222
-78.749
-76.2294
-75.0948
-82.8043
-81.4901
-82.7506
-82.4024
-81.3384
-80.2341
-80.4607
-80.9032
-80.5861
-80.2653
-80.9816
-81.2171
-81.3445
-76.1699
-76.4234
-80.6791
-80.3204
-81.7327
-82.5899
-81.6892
-81.082
-81.423
-81.9055
-81.8765
-81.9366
-81.8125
-81.4834
-81.9617
-82.437
-82.649
-82.1335
-80.1627
-80.2227
-82.0614
-81.378
-82.6687
-82.7237
-82.2028
-82.7543
-83.4614
-83.215
-83.1361
-83.3344
-83.6774
-82.9189
-82.3356
-82.7067
-82.8464
-82.6809
-83.4235
-81.7767
-67.6417
-68.3408
-68.1405
-68.2282
-69.2619
-69.0833
-69.2494
-69.2283
-69.3919
-69.8891
-70.1226
-70.3055
-70.339
-70.4935
-70.4353
-70.2143
-71.8547
-71.4555
-72.0436
-72.7607
-72.5721
-72.4723
-72.3757
-72.2026
-71.6628
-74.8128
-75.4338
-75.5749
-74.8594
-75.7762
-77.2164
-75.494
-74.9124
-74.3248
-74.0579
-73.7665
-77.3894
-82.6714
-81.2692
-80.5256
-81.2246
-81.2889
-81.1604
-80.3107
-79.9219
-79.0523
-77.5072
-76.26
-75.0407
-82.3947
-84.8408
-83.5461
-81.8099
-82.6402
-81.9889
-80.9075
-80.6143
-80.93
-81.0528
-80.7643
-80.2357
-79.3687
-76.2038
-75.4984
-82.8961
-81.7881
-82.6219
-82.3165
-81.3807
-80.192
-80.3983
-80.8106
-81.3612
-80.9993
-80.638
-80.2752
-80.914
-81.2155
-82.04
-78.1482
-77.1777
-80.5388
-80.4398
-81.6568
-82.4424
-81.6687
-81.0251
-81.423
-81.8579
-81.8554
-81.9242
-81.9198
-81.9706
-81.9434
-81.5565
-81.9833
-82.4788
-82.8821
-82.7442
-80.6274
-80.256
-82.14
-81.5257
-82.667
-82.7326
-82.1993
-82.714
-83.4416
-83.177
-83.1012
-82.5742
-83.1595
-83.4132
-83.6996
-82.9484
-82.3483
-82.7131
-82.8635
-82.6143
-83.5395
-82.0347
-66.9471
-67.6169
-67.482
-67.6418
-68.2137
-68.0877
-68.2422
-68.2396
-68.273
-69.1874
-69.1878
-69.1562
-69.3512
-69.3497
-69.2944
-69.2121
-69.9087
-70.2331
-70.3948
-70.3254
-70.7344
-70.5338
-70.6511
-70.6061
-70.2851
-72.0625
-71.5263
-72.4981
-72.6286
-72.6064
-72.4333
-72.8557
-72.6489
-72.4002
-72.132
-71.6469
-74.4821
-75.7017
-75.5986
-74.9973
-76.0357
-77.4004
-77.134
-76.451
-75.3526
-75.1785
-74.6158
-74.2063
-73.6348
-77.8947
-83.6052
-81.3569
-81.0622
-81.3137
-81.4526
-81.2178
-80.3894
-80.8471
-79.7837
-79.5502
-78.7394
-77.6236
-76.8957
-74.7542
-82.8103
-85.3776
-83.6937
-82.1496
-82.4692
-81.9164
-80.9153
-80.6083
-80.4465
-80.7034
-80.9618
-80.7834
-80.354
-80.2002
-80.0637
-76.8498
-75.9311
-82.8633
-81.8014
-82.437
-82.19
-81.371
-80.1193
-80.3511
-80.719
-81.2631
-81.3505
-81.4456
-81.1323
-80.6919
-80.3146
-80.8746
-81.242
-82.5521
-80.3469
-78.1297
-80.3903
-80.4985
-81.5648
-82.3494
-81.6217
-80.9692
-81.4108
-81.7878
-81.843
-81.8943
-81.8473
-81.959
-81.9878
-82.0149
-82.0939
-81.624
-82.0287
-82.5509
-82.9542
-83.0662
-81.0725
-80.2751
-82.1585
-81.678
-82.673
-82.7274
-82.1994
-82.6849
-83.417
-83.1233
-83.0485
-82.5603
-82.6256
-82.6007
-83.183
-83.444
-83.7262
-82.9771
-82.3769
-82.7202
-82.883
-82.5416
-83.4837
-82.1908
-66.5826
-66.8424
-66.9535
-66.9087
-67.4411
-67.4205
-67.6506
-67.5424
-67.6126
-68.1355
-68.1304
-68.2364
-68.4148
-68.2747
-68.3025
-68.3771
-69.2404
-69.0726
-69.2817
-69.2971
-69.5937
-69.4522
-69.2472
-69.3334
-69.2271
-69.8874
-70.1365
-70.4241
-70.4391
-70.7055
-71.1406
-70.867
-70.7478
-70.825
-70.6388
-70.2344
-72.1933
-71.6438
-72.6873
-72.2071
-72.6799
-73.3485
-73.4476
-73.073
-72.8333
-72.6527
-72.4249
-71.9491
-71.609
-74.2112
-75.993
-75.6354
-75.5145
-76.2254
-76.8322
-77.2498
-77.25
-77.2503
-76.258
-75.2304
-75.3901
-75.1174
-74.6434
-73.8724
-78.0624
-83.884
-81.5655
-81.4019
-81.4021
-81.9175
-81.5
-80.4657
-80.242
-80.5034
-80.7133
-79.3173
-79.1737
-78.6491
-77.9996
-77.7173
-75.1954
-82.6768
-85.5217
-83.526
-82.2167
-82.3014
-81.7502
-80.8782
-80.5877
-80.4037
-80.2429
-80.4837
-80.7859
-80.9419
-80.5957
-80.0959
-80.0174
-80.6392
-78.3567
-76.6587
-82.5132
-81.6205
-82.2286
-82.0501
-81.3207
-80.059
-80.3092
-80.6577
-81.1762
-81.2755
-80.4286
-81.4329
-81.5065
-81.2517
-80.8149
-80.3863
-80.8664
-81.3491
-82.7012
-81.5624
-79.395
-80.1705
-80.4731
-81.4787
-82.252
-81.552
-80.9306
-81.4081
-81.7719
-81.8352
-81.8824
-81.8704
-81.9116
-81.827
-81.9983
-82.0727
-82.0945
-82.2443
-81.7007
-82.0876
-82.6176
-82.9232
-83.205
-81.4366
-80.3045
-82.1251
-81.7767
-82.6383
-82.7195
-82.2007
-82.6786
-83.3906
-83.0939
-82.999
-82.5483
-82.6608
-82.7274
-82.6201
-82.644
-83.2282
-83.4837
-83.7635
-83.0087
-82.4045
-82.7275
-82.9146
-82.505
-83.4312
-82.2829
-66.1471
-66.4805
-66.6496
-66.595
-66.8957
-66.9769
-67.0242
-67.0287
-66.8847
-67.5263
-67.4403
-67.5518
-67.5949
-67.6844
-67.5289
-67.6962
-68.1509
-68.1122
-68.1762
-68.4612
-68.6307
-68.3526
-68.309
-68.3679
-68.3405
-69.0677
-68.9314
-69.0729
-69.2792
-69.5395
-69.7247
-69.5566
-69.5302
-69.3251
-69.4408
-69.1086
-69.9749
-70.2566
-70.3362
-70.4425
-70.7878
-71.0494
-71.733
-71.187
-70.994
-70.7007
-70.8223
-70.5465
-70.4116
-72.3269
-71.9758
-73.2415
-72.3187
-72.6189
-73.3586
-73.484
-73.9771
-73.5756
-73.0379
-72.7972
-72.7214
-72.4368
-72.0158
-71.4997
-74.3379
-75.9849
-75.5168
-75.5953
-76.1428
-77.0026
-77.4002
-77.0914
-77.0571
-77.1715
-77.0744
-76.1422
-75.323
-75.3067
-75.3824
-74.7661
-73.9776
-78.0635
-84.062
-81.1527
-81.5696
-81.374
-81.5501
-81.2815
-80.5641
-80.1571
-80.1997
-80.3047
-80.4488
-80.5074
-79.0565
-79.0307
-78.9814
-78.774
-78.571
-76.144
-82.0279
-84.7252
-83.2069
-82.061
-81.9802
-81.5378
-80.8464
-80.5747
-80.3606
-79.9776
-79.5323
-80.4867
-80.5762
-80.8951
-80.9177
-80.4802
-80.1087
-80.2877
-81.0556
-80.1747
-78.0314
-81.781
-81.3008
-82.0744
-81.9135
-81.2514
-80.0072
-80.2415
-80.6097
-81.1076
-81.2298
-80.4014
-79.9821
-80.4786
-81.5174
-81.5646
-81.372
-80.9967
-80.4841
-80.8831
-81.456
-82.8707
-82.4137
-80.7043
-79.9822
-80.3529
-81.4122
-82.1566
-81.5583
-80.8981
-81.3951
-81.7755
-81.8325
-81.8979
-81.8749
-81.9353
-82.0823
-81.8768
-81.8267
-82.0319
-82.1746
-82.1789
-82.3901
-81.791
-82.1569
-82.6881
-82.9358
-83.2164
-81.6764
-80.367
-82.079
-81.972
-82.5789
-82.7192
-82.2016
-82.6603
-83.3639
-83.0796
-82.9775
-82.5489
-82.6736
-82.7908
-82.5992
-82.6747
-82.6331
-82.6809
-83.3042
-83.5566
-83.7923
-83.0406
-82.4329
-82.7332
-82.9497
-82.5218
-83.4299
-82.3887
-65.8081
-66.1223
-66.1753
-66.1705
-66.555
-66.6254
-66.5768
-66.6287
-66.5646
-67.0103
-67.0212
-66.9895
-67.1007
-67.0794
-66.9597
-66.8996
-67.6066
-67.4286
-67.5445
-67.5616
-67.7267
-67.6259
-67.6392
-67.6535
-67.644
-68.1756
-68.1416
-68.0188
-68.4603
-68.5931
-68.6255
-68.577
-68.3592
-68.3365
-68.4623
-68.2424
-69.1468
-68.9614
-68.9799
-69.1759
-69.4696
-69.6832
-70.0104
-69.8046
-69.7513
-69.5504
-69.3239
-69.3917
-69.0862
-70.1232
-70.3784
-70.3568
-70.4359
-70.8071
-71.0988
-71.5968
-72.0002
-71.6393
-71.383
-71.0184
-70.8939
-70.7669
-70.5121
-70.365
-72.629
-72.181
-73.1473
-72.5919
-72.6728
-72.783
-73.0322
-73.7175
-74.1837
-73.7641
-73.5826
-73.1753
-72.9879
-72.7552
-72.3289
-72.0001
-71.9645
-74.8226
-75.775
-75.9028
-75.4577
-75.9477
-77.1219
-77.4462
-77.1198
-77.0228
-77.0185
-76.8734
-77.1153
-77.0081
-76.0546
-75.4927
-75.6697
-75.6977
-75.0834
-74.549
-78.0115
-82.6783
-80.7027
-81.1573
-81.0458
-81.3146
-81.0511
-80.5661
-80.0906
-79.8691
-78.5502
-80.2376
-80.2866
-80.5099
-80.3578
-78.859
-78.7531
-79.4337
-80.0786
-80.0008
-76.7399
-80.7686
-82.8513
-82.7022
-81.9252
-81.6733
-81.307
-80.8341
-80.5753
-80.3353
-79.7645
-79.4277
-78.7814
-79.6851
-80.7703
-80.5836
-81.0662
-80.856
-80.4629
-80.1667
-80.6638
-81.6151
-82.0692
-79.5805
-80.9644
-80.9342
-81.9177
-81.7493
-81.1812
-79.9396
-80.1915
-80.5484
-81.0797
-81.1858
-80.4045
-80.1446
-80.8353
-79.9446
-80.5829
-81.5998
-81.6388
-81.4839
-81.2437
-80.5996
-80.9346
-81.5839
-82.9922
-83.447
-81.6834
-79.8935
-80.2223
-81.3672
-82.0967
-81.5583
-80.8698
-81.3762
-81.7766
-81.8328
-81.9161
-81.9046
-81.9353
-82.1085
-82.353
-82.049
-81.8469
-81.8237
-82.0977
-82.2779
-82.286
-82.5288
-81.8928
-82.2309
-82.7919
-82.9641
-83.1453
-81.8101
-80.4165
-82.0827
-82.1986
-82.5955
-82.727
-82.2055
-82.6292
-83.3347
-83.0784
-82.9769
-82.5688
-82.6823
-82.8611
-82.7191
-83.0881
-82.508
-82.641
-82.6581
-82.7023
-83.3803
-83.6025
-83.8106
-83.0744
-82.4722
-82.7387
-82.9823
-82.5312
-83.3222
-82.489
-65.5641
-65.8115
-65.7977
-65.8218
-66.1943
-66.1319
-66.1996
-66.1716
-66.1711
-66.6185
-66.5809
-66.5784
-66.6242
-66.613
-66.5988
-66.5259
-67.0045
-67.0086
-67.0697
-67.0987
-67.1295
-67.0681
-67.0857
-66.9392
-66.9138
-67.6034
-67.4696
-67.5717
-67.4955
-67.7279
-67.8106
-67.7534
-67.6468
-67.6184
-67.6872
-67.5136
-68.339
-68.2365
-68.2991
-68.3809
-68.5606
-68.8358
-68.9987
-68.6263
-68.58
-68.3787
-68.4211
-68.3925
-68.1839
-69.2876
-69.0972
-69.1349
-69.1173
-69.4448
-69.7152
-69.9595
-70.1611
-69.9976
-69.6843
-69.7678
-69.4327
-69.2679
-69.3841
-69.1738
-70.2843
-70.4963
-70.4557
-70.6303
-70.8645
-71.2332
-71.5318
-71.9516
-72.189
-71.9619
-71.6356
-71.4121
-71.1245
-70.9256
-70.7021
-70.5585
-70.3215
-72.6183
-72.6567
-73.074
-72.5903
-72.8976
-73.4144
-73.3808
-73.5864
-74.039
-73.8052
-74.0925
-74.0574
-73.8544
-73.4987
-73.1379
-72.7965
-72.4677
-71.7671
-72.2413
-74.9942
-75.6724
-75.708
-75.6081
-76.0132
-76.7673
-76.9881
-77.3522
-77.0455
-77.1485
-76.117
-77.024
-76.9759
-77.1362
-76.8604
-76.0208
-75.6875
-76.0524
-75.9461
-75.4609
-74.7127
-77.7302
-81.023
-80.4563
-80.647
-80.6188
-80.9001
-80.9771
-80.3976
-80.1665
-79.4593
-78.3889
-77.8429
-78.504
-80.5565
-80.4011
-80.6398
-80.0935
-78.7064
-79.1333
-80.1528
-80.9256
-81.0665
-76.9353
-79.3948
-81.2209
-82.2928
-81.7324
-81.4608
-81.0592
-80.7515
-80.591
-80.301
-79.588
-79.3152
-78.8043
-79.4804
-78.7776
-79.9349
-80.875
-80.6239
-81.2382
-80.8433
-80.5666
-80.397
-81.1409
-82.6076
-84.2607
-81.0712
-80.264
-80.5758
-81.725
-81.5756
-81.1264
-79.9206
-80.1784
-80.4876
-81.0183
-81.1244
-80.4487
-80.3097
-80.9642
-81.3555
-80.8726
-79.908
-80.7597
-81.6571
-81.7059
-81.6088
-81.5399
-80.7774
-81.0403
-81.6927
-82.7958
-84.1618
-82.4697
-79.8468
-80.1623
-81.3547
-82.0568
-81.5179
-80.8721
-81.3625
-81.7757
-81.8461
-81.937
-81.931
-81.978
-82.1538
-82.454
-82.792
-82.2406
-82.0011
-81.8274
-81.8395
-82.1707
-82.3775
-82.3779
-82.6729
-82.0038
-82.3054
-82.9009
-82.9622
-83.0992
-81.8909
-80.399
-82.1153
-82.3585
-82.6482
-82.7333
-82.2012
-82.603
-83.3149
-83.0741
-82.9851
-82.6344
-82.7354
-82.9449
-82.8476
-83.1544
-83.4639
-83.0424
-82.4368
-82.6169
-82.6577
-82.7316
-83.4296
-83.5977
-83.8239
-83.1074
-82.5223
-82.7425
-83.0099
-82.5587
-83.2385
-82.5702
-65.3218
-65.5941
-65.57
-65.5708
-65.8551
-65.7732
-65.836
-65.8248
-65.7966
-66.2064
-66.1712
-66.2037
-66.2018
-66.2082
-66.1496
-66.1107
-66.5676
-66.5735
-66.6236
-66.6355
-66.6813
-66.5809
-66.6125
-66.5772
-66.5304
-67.0219
-66.9876
-67.04
-67.1186
-67.203
-67.2944
-67.0921
-67.0509
-67.0128
-66.9658
-66.8988
-67.6613
-67.6039
-67.6469
-67.5285
-67.781
-67.8447
-67.9787
-67.7281
-67.6654
-67.6245
-67.7182
-67.5835
-67.4187
-68.3893
-68.336
-68.31
-68.402
-68.6498
-68.7973
-68.9565
-69.1619
-69.0065
-68.6635
-68.5863
-68.4047
-68.3811
-68.3515
-68.2048
-69.3299
-69.2029
-69.1668
-69.2401
-69.5394
-69.7271
-69.8658
-70.1528
-70.4777
-70.1245
-70.0456
-69.8364
-69.4517
-69.4147
-69.1946
-69.3096
-69.1791
-70.3455
-70.5977
-70.4991
-70.6425
-70.8992
-71.3436
-71.6311
-71.8957
-72.168
-72.3172
-72.1724
-72.0361
-71.6778
-71.4637
-71.3121
-70.9531
-70.7357
-70.3512
-70.4189
-72.6079
-72.8672
-73.1817
-72.9036
-72.8623
-73.3143
-73.4703
-73.5606
-74.0386
-74.0318
-74.1221
-74.164
-74.1855
-74.3417
-73.9612
-73.5199
-73.2817
-72.9125
-72.0396
-71.1707
-72.2959
-75.1182
-76.1601
-75.4239
-75.8985
-76.0634
-76.3358
-76.8899
-77.2926
-76.9531
-76.9812
-76.2248
-76.2161
-76.2631
-76.9638
-77.0751
-77.0867
-77.014
-76.3047
-75.9806
-76.3491
-76.3495
-76.1124
-74.1444
-77.2702
-79.6671
-80.171
-80.3206
-80.2576
-80.5534
-80.6095
-80.3074
-80.1725
-79.3911
-78.4821
-78.1602
-79.2911
-77.4267
-78.5358
-80.6872
-80.3852
-80.6039
-80.1787
-78.8193
-79.7467
-80.9635
-81.5436
-82.519
-76.9564
-78.3455
-79.9159
-81.5686
-81.648
-81.2679
-80.8174
-80.6376
-80.5973
-80.2353
-79.4972
-79.2196
-78.8666
-79.5378
-79.9638
-79.5863
-78.8176
-80.2267
-81.0747
-80.7071
-81.4731
-80.9454
-80.735
-80.7419
-81.764
-83.744
-86.7268
-82.4409
-79.7168
-80.2832
-81.541
-81.4778
-81.047
-79.999
-80.1585
-80.4738
-80.9344
-81.0367
-80.5287
-80.482
-81.0956
-81.5133
-82.0461
-81.2225
-80.7997
-79.9587
-80.8588
-81.6971
-81.7936
-81.7567
-81.7649
-80.9789
-81.1775
-81.7944
-82.6342
-84.4535
-82.2769
-79.832
-80.1922
-81.3672
-82.024
-81.5814
-80.8887
-81.3601
-81.8099
-81.8675
-81.9681
-81.9548
-82.0035
-82.2081
-82.561
-82.9184
-83.1555
-82.6638
-82.1516
-81.9815
-81.8185
-81.87
-82.1857
-82.4903
-82.5099
-82.8061
-82.131
-82.3918
-83.0125
-83.0189
-83.0621
-81.9256
-80.385
-82.1336
-82.4406
-82.6736
-82.7382
-82.187
-82.569
-83.3018
-83.0489
-83.0003
-82.6788
-82.8146
-83.0297
-82.9703
-83.2111
-83.5081
-83.3406
-83.4
-82.9924
-82.3566
-82.5961
-82.6539
-82.7921
-83.4686
-83.6236
-83.8428
-83.1393
-82.5699
-82.7472
-83.0464
-82.6055
-83.2426
-82.6453
-65.1254
-65.3494
-65.3516
-65.286
-65.5987
-65.578
-65.5726
-65.5769
-65.5318
-65.8418
-65.861
-65.8619
-65.8574
-65.8274
-65.8033
-65.7931
-66.1996
-66.153
-66.2232
-66.2191
-66.2698
-66.1843
-66.1612
-66.1286
-66.1043
-66.594
-66.5553
-66.6566
-66.7232
-66.6877
-66.726
-66.6239
-66.6111
-66.5568
-66.4891
-66.4638
-67.0898
-66.9643
-67.0725
-67.0632
-67.1664
-67.2696
-67.3389
-67.2587
-67.0074
-67.0271
-67.0369
-66.9706
-66.8495
-67.7134
-67.5528
-67.6997
-67.6222
-67.7119
-67.7848
-67.884
-68.1436
-67.9502
-67.743
-67.7238
-67.5414
-67.596
-67.537
-67.4224
-68.4241
-68.3619
-68.298
-68.4809
-68.618
-68.8047
-68.8595
-69.1174
-69.2895
-69.1198
-68.967
-68.6988
-68.5251
-68.4064
-68.3341
-68.2994
-68.2013
-69.4103
-69.2197
-69.1809
-69.2846
-69.5381
-69.6871
-69.8419
-70.0907
-70.3415
-70.6251
-70.4818
-70.3145
-70.0155
-69.7587
-69.5762
-69.4189
-69.1474
-69.2301
-68.9466
-70.5874
-70.5925
-70.802
-70.7811
-70.8635
-71.2759
-71.6006
-71.8061
-72.1601
-72.3263
-72.4603
-72.3214
-72.2132
-72.0356
-71.7719
-71.5401
-71.2436
-70.9318
-70.5645
-70.0397
-70.608
-72.8599
-73.0205
-73.3266
-73.1164
-73.0029
-73.3686
-73.3374
-73.7872
-73.8966
-74.0511
-74.161
-74.1693
-74.216
-74.3585
-74.1829
-74.4193
-74.2882
-73.6963
-73.4352
-72.9829
-72.0877
-71.7193
-71.9916
-75.1377
-75.8661
-75.5413
-75.9594
-76.004
-76.1636
-76.9209
-76.9065
-76.9143
-76.7709
-76.202
-76.4383
-77.8542
-75.9987
-76.4147
-77.1191
-77.2496
-77.1783
-77.2668
-76.5577
-76.5469
-76.7894
-76.5007
-77.0018
-73.5921
-76.8339
-78.5821
-79.3559
-79.9354
-79.8295
-80.3594
-80.3493
-80.1911
-80.2137
-79.2908
-78.4288
-78.2128
-79.4161
-79.4969
-79.1378
-77.0287
-78.8668
-80.7308
-80.4267
-80.7424
-80.6745
-79.1672
-80.3677
-81.7013
-82.4381
-84.4297
-76.4116
-77.5242
-78.9014
-80.7692
-81.0832
-81.2186
-80.6585
-80.4973
-80.5403
-80.1773
-79.4392
-79.1927
-79.0712
-79.6131
-80.0686
-80.5604
-79.863
-79.3706
-78.8975
-80.5238
-81.3245
-80.7818
-81.6912
-81.1267
-81.0507
-81.2122
-82.5836
-84.4159
-87.3871
-83.0921
-79.3928
-80.0456
-81.3742
-81.4393
-80.9685
-80.0214
-80.1371
-80.4358
-80.8933
-80.9818
-80.6099
-80.6958
-81.1904
-81.7171
-82.2149
-82.4677
-81.9146
-81.1524
-80.6348
-80.1171
-80.9157
-81.6866
-81.9548
-82.0533
-82.0493
-81.1953
-81.3271
-81.919
-82.5909
-84.6027
-81.827
-79.8546
-80.2606
-81.3921
-82.0086
-81.6287
-80.9151
-81.3509
-81.8402
-81.8898
-82.0192
-81.993
-82.0509
-82.2706
-82.6831
-83.0547
-83.2787
-83.4397
-83.0268
-82.5384
-82.0803
-81.9682
-81.8267
-81.8904
-82.3086
-82.5792
-82.6549
-82.9387
-82.2775
-82.488
-83.11
-83.1164
-83.07
-81.9261
-80.4128
-82.1289
-82.4833
-82.6659
-82.7546
-82.1771
-82.5297
-83.2634
-83.015
-83.0138
-82.6693
-82.8838
-83.1046
-83.0798
-83.2673
-83.555
-83.4158
-83.6865
-83.2495
-83.3377
-82.9352
-82.2837
-82.581
-82.6576
-82.8846
-83.5056
-83.6716
-83.8683
-83.1719
-82.5976
-82.7532
-83.087
-82.6413
-83.1879
-82.6253
-64.9797
-65.1523
-65.1384
-65.0972
-65.338
-65.3727
-65.3069
-65.2896
-65.2709
-65.5965
-65.6326
-65.5862
-65.5864
-65.5805
-65.562
-65.4954
-65.8737
-65.8643
-65.8927
-65.8776
-65.8876
-65.8581
-65.7859
-65.6977
-65.7511
-66.2333
-66.2254
-66.184
-66.2324
-66.2733
-66.2816
-66.2265
-66.1439
-66.0958
-66.1435
-66.0532
-66.6268
-66.6446
-66.6142
-66.6028
-66.6884
-66.711
-66.775
-66.7342
-66.5881
-66.5417
-66.4929
-66.4601
-66.4128
-67.1064
-67.0205
-67.1052
-67.0081
-67.1062
-67.2678
-67.3223
-67.4866
-67.3307
-67.1151
-67.062
-67.0164
-67.0413
-66.9013
-66.8855
-67.666
-67.6237
-67.635
-67.6886
-67.7104
-67.8306
-67.9456
-68.0831
-68.3061
-68.1581
-67.9222
-67.726
-67.688
-67.5555
-67.5223
-67.45
-67.212
-68.4654
-68.4536
-68.2973
-68.4719
-68.5529
-68.6891
-68.9566
-69.0455
-69.2804
-69.5117
-69.4019
-69.0803
-68.9693
-68.6732
-68.5412
-68.416
-68.1354
-68.1494
-68.1558
-69.4444
-69.3494
-69.298
-69.2418
-69.5322
-69.7134
-69.8577
-70.0247
-70.28
-70.5551
-70.8208
-70.6875
-70.5514
-70.3536
-69.957
-69.6729
-69.5942
-69.3783
-69.1882
-69.1259
-68.9355
-70.826
-70.7621
-71.0435
-70.9627
-70.9382
-71.1801
-71.4905
-71.8282
-72.0951
-72.2278
-72.3881
-72.508
-72.4421
-72.4402
-72.1655
-71.9518
-71.7489
-71.4892
-71.1932
-70.7884
-70.1799
-70.178
-70.6326
-72.9974
-73.2256
-73.3426
-73.1885
-73.1468
-73.398
-73.662
-73.7464
-73.8716
-73.8454
-74.0266
-74.1495
-74.684
-74.3427
-74.3657
-74.3828
-74.4568
-74.7897
-74.5562
-73.9107
-73.4
-73.0675
-72.5571
-72.1979
-71.4922
-75.2582
-75.7833
-75.7285
-75.7445
-76.0584
-76.2203
-76.6639
-76.982
-76.7604
-76.7901
-76.0741
-76.6932
-77.8179
-78.1373
-77.4621
-75.7753
-76.4045
-77.1917
-77.4492
-77.5694
-77.4102
-76.8181
-77.0595
-77.1821
-76.1689
-76.5571
-73.2617
-76.4788
-77.9239
-78.6085
-79.289
-79.7693
-80.0165
-80.0256
-80.0978
-80.1241
-79.2986
-78.4785
-78.346
-79.2309
-79.4609
-79.2745
-79.6349
-78.6246
-76.9411
-79.4817
-80.7427
-80.5272
-81.1795
-80.4731
-79.568
-81.0734
-81.7933
-83.0666
-85.7024
-76.6525
-76.754
-78.2834
-80.1142
-80.4592
-81.0865
-80.4338
-80.3266
-80.4671
-80.1742
-79.3795
-79.1549
-79.3202
-79.7747
-80.3098
-80.9972
-81.2464
-80.4641
-79.972
-79.1754
-78.9516
-80.8239
-81.4898
-80.8892
-81.9034
-81.3946
-81.4187
-81.8505
-83.1563
-84.8426
-87.4579
-83.1494
-79.3221
-79.8952
-81.2395
-81.4078
-80.8728
-80.0114
-80.1809
-80.3977
-80.8623
-80.9463
-80.6948
-80.6533
-81.3093
-81.898
-82.4043
-82.626
-82.9281
-82.2971
-81.808
-81.0592
-80.5241
-80.2115
-80.9941
-81.6347
-82.0763
-82.2921
-82.3716
-81.428
-81.4667
-82.022
-82.6659
-83.9719
-81.7209
-79.8732
-80.2909
-81.4127
-82.0298
-81.625
-80.9558
-81.3512
-81.8636
-81.9365
-82.0829
-82.0425
-82.1211
-82.3339
-82.8191
-83.202
-83.3991
-83.5517
-84.0085
-83.3011
-82.896
-82.4164
-82.0066
-81.9583
-81.8236
-81.8707
-82.4628
-82.696
-82.7522
-83.0209
-82.4436
-82.6038
-83.187
-83.1753
-83.1282
-81.88
-80.4533
-82.0878
-82.4754
-82.6658
-82.7575
-82.1805
-82.5036
-83.2004
-82.9844
-83.0173
-82.6912
-83.0488
-83.1914
-83.1804
-83.3331
-83.6007
-83.4767
-83.747
-84.0941
-83.6315
-83.1536
-83.2744
-82.8656
-82.2882
-82.5717
-82.6733
-82.9486
-83.5494
-83.7024
-83.889
-83.2044
-82.6097
-82.7596
-83.1114
-82.6612
-83.0548
-82.6121
-64.7517
-65.0004
-64.9988
-64.937
-65.1476
-65.176
-65.1418
-65.0994
-65.0797
-65.4012
-65.3711
-65.354
-65.3186
-65.278
-65.2697
-65.2444
-65.6571
-65.6165
-65.624
-65.6394
-65.5988
-65.5838
-65.5248
-65.552
-65.4495
-65.903
-65.9296
-65.8651
-65.9167
-65.9182
-65.9085
-65.9003
-65.7549
-65.8025
-65.6817
-65.7155
-66.2489
-66.2255
-66.225
-66.2258
-66.2704
-66.3145
-66.3297
-66.2772
-66.1505
-66.1741
-66.0794
-66.0037
-65.9756
-66.6186
-66.6139
-66.6424
-66.6626
-66.7011
-66.8038
-66.7706
-66.9209
-66.7551
-66.6139
-66.6177
-66.5059
-66.5012
-66.4279
-66.421
-67.1209
-67.0821
-67.0673
-67.1449
-67.1463
-67.301
-67.3258
-67.5071
-67.6472
-67.4741
-67.2574
-67.1262
-67.1171
-67.0077
-66.9086
-66.9475
-66.8366
-67.6974
-67.698
-67.6564
-67.6923
-67.7859
-67.8541
-68.0763
-68.0293
-68.3629
-68.5837
-68.2628
-68.0214
-67.9377
-67.8032
-67.6495
-67.602
-67.4046
-67.2701
-67.1658
-68.476
-68.5344
-68.4726
-68.4917
-68.5774
-68.6354
-68.91
-69.0712
-69.2963
-69.5214
-69.7176
-69.5331
-69.2527
-69.1325
-68.8811
-68.5543
-68.5152
-68.295
-68.1609
-68.1495
-68.0465
-69.5012
-69.4581
-69.3847
-69.4461
-69.5446
-69.7076
-69.8428
-70.1201
-70.2938
-70.5043
-70.7803
-71.1266
-70.8634
-70.7621
-70.5635
-70.2668
-70.0221
-69.799
-69.6496
-69.2297
-68.9718
-69.0705
-69.1049
-71.0274
-70.9743
-71.2075
-71.0254
-71.142
-71.2938
-71.4881
-71.7945
-71.9679
-72.1744
-72.3283
-72.4017
-72.9597
-72.5529
-72.4719
-72.4636
-72.2136
-72.1347
-71.657
-71.4061
-71.1088
-70.7517
-70.3409
-70.4561
-70.6497
-73.1544
-73.2382
-73.347
-73.1495
-73.4746
-73.5576
-73.7182
-73.8372
-73.8206
-73.7825
-74.0175
-74.473
-74.7023
-75.0836
-74.6824
-74.4383
-74.4971
-74.5515
-74.884
-74.8492
-73.477
-74.0324
-73.5174
-72.8559
-72.9911
-71.5715
-71.133
-75.3321
-75.7383
-75.6832
-76.1715
-76.242
-75.9949
-76.7647
-76.8392
-76.8306
-76.4467
-76.0519
-76.6083
-77.7737
-78.0348
-77.8214
-78.2814
-76.9773
-75.836
-76.5334
-77.3255
-77.6975
-77.7256
-77.5303
-77.1584
-77.1617
-77.2804
-76.4086
-76.8127
-73.1851
-76.3786
-77.8112
-77.988
-78.6039
-79.6267
-79.8015
-79.7736
-79.9125
-80.0889
-79.222
-78.5821
-78.5702
-79.3202
-79.3121
-79.3319
-79.9353
-79.2064
-79.6543
-78.0152
-77.4008
-79.7949
-80.8196
-81.0914
-81.2734
-80.6411
-79.9016
-81.6242
-82.2508
-83.496
-84.8138
-76.4423
-76.293
-77.9105
-79.7962
-80.052
-80.7433
-80.2373
-80.1524
-80.3352
-80.0452
-79.3738
-79.1682
-79.2604
-79.8139
-80.4106
-81.4
-81.6101
-81.9281
-80.9435
-80.3415
-80.0039
-79.1108
-79.0303
-81.1517
-81.7043
-81.0372
-82.0808
-81.7838
-82.0191
-82.578
-83.4016
-85.0965
-86.9804
-82.8116
-79.4273
-79.891
-81.1406
-81.4001
-80.8812
-80.0472
-80.243
-80.3942
-80.8227
-80.9139
-80.784
-80.7905
-81.4744
-82.115
-82.6096
-82.8279
-83.1243
-83.8055
-82.7389
-82.1327
-81.7045
-80.9837
-80.4993
-80.2832
-81.0597
-81.6273
-82.1938
-82.4878
-82.5366
-81.6433
-81.6028
-82.1398
-82.8016
-82.9384
-81.6015
-79.8357
-80.3079
-81.3971
-82.1022
-81.6997
-81.0095
-81.3782
-81.913
-81.9915
-82.147
-82.0992
-82.1897
-82.4159
-82.9788
-83.3517
-83.5242
-83.6678
-84.1664
-84.5169
-83.8883
-83.1445
-82.7612
-82.3032
-81.9756
-81.947
-81.8234
-81.8922
-82.5242
-82.8325
-82.9463
-83.1004
-82.6261
-82.7196
-83.2472
-83.1896
-83.1468
-81.7051
-80.5265
-82.0284
-82.43
-82.7005
-82.749
-82.2022
-82.5026
-83.1565
-82.9824
-83.0303
-82.7699
-83.2276
-83.281
-83.2784
-83.4077
-83.6493
-83.5323
-83.7989
-84.1612
-84.159
-84.0177
-83.5695
-83.0757
-83.1944
-82.7841
-82.2727
-82.567
-82.713
-82.9836
-83.5913
-83.6793
-83.9059
-83.235
-82.6196
-82.769
-83.1293
-82.6702
-83.0169
-82.7315
-64.7502
-64.8078
-64.8217
-64.7432
-65.012
-65.0312
-64.9936
-64.9582
-64.8925
-65.1659
-65.1819
-65.1703
-65.1683
-65.0984
-65.0881
-65.0679
-65.4019
-65.3808
-65.3967
-65.3863
-65.3674
-65.315
-65.3021
-65.245
-65.1717
-65.6642
-65.6381
-65.6097
-65.6453
-65.6164
-65.6467
-65.608
-65.4851
-65.4811
-65.4638
-65.4755
-65.9339
-65.9332
-65.9265
-65.9176
-65.9497
-65.9815
-65.9388
-65.9166
-65.8017
-65.7803
-65.7318
-65.7317
-65.6849
-66.2454
-66.2454
-66.2431
-66.2657
-66.2702
-66.3018
-66.3655
-66.4492
-66.3597
-66.2146
-66.1801
-66.0804
-66.0542
-66.0469
-65.97
-66.623
-66.608
-66.6201
-66.7048
-66.7182
-66.7818
-66.8246
-66.9094
-67.0327
-66.8994
-66.7281
-66.6428
-66.5593
-66.5476
-66.4969
-66.4567
-66.4026
-67.1384
-67.1405
-67.0122
-67.1434
-67.194
-67.2686
-67.356
-67.4799
-67.6307
-67.7868
-67.5625
-67.3751
-67.2358
-67.1267
-67.0805
-66.9542
-66.8424
-66.8349
-66.5575
-67.71
-67.7048
-67.6782
-67.7237
-67.7969
-67.878
-67.9716
-68.1853
-68.3467
-68.5211
-68.6821
-68.495
-68.2262
-68.0334
-67.8728
-67.7492
-67.6429
-67.5552
-67.2998
-67.2396
-67.2966
-68.5191
-68.5278
-68.4546
-68.5663
-68.565
-68.7274
-68.8398
-69.0611
-69.2793
-69.4426
-69.6582
-69.8129
-69.702
-69.4503
-69.1919
-69.0695
-68.7292
-68.591
-68.4974
-68.2771
-68.1738
-68.0407
-67.9932
-69.6185
-69.6134
-69.4952
-69.443
-69.5938
-69.7747
-69.8878
-70.0412
-70.2815
-70.5783
-70.7442
-71.0418
-71.3168
-71.0034
-70.9843
-70.8704
-70.5359
-70.3244
-70.0235
-69.8519
-69.5607
-69.2032
-68.7877
-69.133
-69.1536
-71.1646
-71.2825
-71.2645
-71.1702
-71.3072
-71.3347
-71.5337
-71.7679
-71.8591
-72.1196
-72.3627
-72.4557
-72.8993
-73.2326
-72.8559
-72.6324
-72.5549
-72.4066
-72.2977
-72.0011
-71.7213
-71.5192
-71.0461
-70.7896
-70.5841
-70.3815
-70.8869
-73.337
-73.3905
-73.4305
-73.4451
-73.4611
-73.5407
-73.7488
-73.9088
-73.8892
-73.6686
-74.0637
-74.5742
-74.7287
-75.1093
-75.5682
-75.1958
-74.714
-74.5316
-74.6419
-74.6958
-75.0805
-74.2084
-74.1733
-73.9984
-73.6493
-72.8954
-72.8384
-71.3345
-70.4005
-75.2814
-76.1532
-75.5641
-76.2128
-76.2634
-76.2002
-76.6131
-76.7865
-76.6849
-76.2453
-76.0889
-76.719
-77.6147
-77.9624
-77.8205
-77.7614
-77.8069
-78.251
-76.9692
-76.2117
-76.7548
-77.3703
-77.6645
-77.7997
-77.5125
-77.1775
-77.4723
-77.2223
-76.3988
-76.6859
-73.1888
-76.4902
-78.053
-77.8416
-78.2804
-79.0365
-79.5594
-79.7163
-79.7309
-80.085
-79.1504
-78.6613
-78.7102
-79.1502
-79.4566
-79.4803
-80.13
-80.3394
-79.6009
-79.1967
-79.4585
-77.6335
-77.7842
-80.1739
-81.2038
-81.1498
-81.3348
-80.6785
-80.4516
-82.0121
-82.5566
-84.0348
-84.7726
-76.6036
-76.2769
-78.2396
-79.6639
-80.043
-80.4694
-80.0452
-79.9454
-80.1957
-79.9241
-79.3855
-79.2344
-79.4164
-79.8621
-80.5371
-81.3583
-81.911
-82.3966
-82.9357
-81.4623
-80.7358
-80.1964
-79.5553
-79.1077
-79.3023
-81.5382
-81.9041
-81.2154
-82.089
-82.2422
-82.8132
-83.1426
-83.5668
-85.3271
-85.8097
-82.0284
-79.4888
-79.9051
-81.1142
-81.4315
-80.9232
-80.0996
-80.344
-80.5694
-80.7978
-80.9136
-80.8637
-81.0172
-81.6858
-82.4108
-82.8429
-83.069
-83.4011
-83.9461
-84.9823
-83.656
-82.5989
-81.9707
-81.5961
-80.9658
-80.5447
-80.4312
-81.106
-81.6996
-82.3503
-82.8303
-82.7104
-81.7829
-81.757
-82.2598
-83.0204
-81.9987
-81.4317
-79.778
-80.3231
-81.3501
-82.1572
-81.7745
-81.0719
-81.4205
-81.9503
-82.0527
-82.2019
-82.1774
-82.2507
-82.53
-83.1631
-83.5001
-83.6574
-83.7966
-84.3284
-84.7135
-84.8826
-84.3482
-83.7942
-83.0066
-82.6373
-82.2026
-81.9894
-81.9583
-81.8384
-81.9079
-82.6027
-82.9756
-83.1861
-83.2021
-82.7894
-82.817
-83.2802
-83.1802
-83.0917
-81.5846
-80.6043
-81.9655
-82.3813
-82.7213
-82.7461
-82.2404
-82.5154
-83.1383
-83.0089
-83.1014
-82.9701
-83.3287
-83.3674
-83.3642
-83.4906
-83.6971
-83.5858
-83.8563
-84.2292
-84.1846
-83.7273
-84.105
-83.9406
-83.5155
-83.0191
-83.1073
-82.7068
-82.2429
-82.5641
-82.7363