/*--------------------------------*- C++ -*----------------------------------*\
  =========                 |
  \\      /  F ield         | OpenFOAM: The Open Source CFD Toolbox
   \\    /   O peration     | Website:  https://openfoam.org
    \\  /    A nd           | Version:  7
     \\/     M anipulation  |
\*---------------------------------------------------------------------------*/
FoamFile
{
    version     2.0;
    format      ascii;
    class       volScalarField;
    location    "2";
    object      p;
}
// * * * * * * * * * * * * * * * * * * * * * * * * * * * * * * * * * * * * * //

dimensions      [0 2 -2 0 0 0 0];

internalField   nonuniform List<scalar> 
18780
(
-66.4986
-65.0565
-66.4119
-65.7284
-64.1799
-65.0796
-64.3414
-66.416
-65.7376
-65.1106
-62.9722
-64.2122
-63.7194
-65.1527
-64.4047
-64.0084
-66.4996
-65.7511
-65.0833
-64.4913
-62.6426
-63
-62.5479
-64.2688
-63.7658
-63.2004
-65.2316
-64.4554
-64.0045
-63.5504
-66.583
-65.7525
-65.1076
-64.5002
-64.1951
-63.2445
-62.7132
-62.1339
-62.9921
-62.514
-61.9088
-64.3256
-63.816
-63.2135
-62.7609
-65.3139
-64.4921
-64.0691
-63.5299
-63.3765
-66.6634
-65.7534
-65.1464
-64.5528
-64.1108
-63.9889
-63.08
-63.3025
-62.1593
-62.6623
-62.0563
-61.6486
-63.0527
-62.4949
-61.7766
-61.9611
-64.3623
-63.8783
-63.165
-62.6961
-62.6283
-65.404
-64.5618
-64.1379
-63.5186
-63.306
-63.5233
-66.6901
-65.7712
-65.1973
-64.608
-64.0827
-63.931
-64.3001
-62.2195
-63.2998
-62.3909
-63.1519
-62.0758
-61.1689
-62.6216
-61.9382
-61.5502
-61.4024
-63.0635
-62.4981
-61.6367
-61.9273
-61.9583
-64.4074
-63.953
-63.1018
-62.6507
-62.4992
-62.8177
-65.4904
-64.6226
-64.1953
-63.5327
-63.2368
-63.4209
-63.6018
-66.7619
-65.8054
-65.2823
-64.596
-64.0996
-63.9071
-64.2361
-64.153
-61.8373
-62.164
-62.8841
-63.4021
-62.3435
-61.7098
-63.054
-61.9931
-60.9759
-61.0275
-62.6782
-61.8721
-61.4791
-61.263
-61.4073
-63.0971
-62.4573
-61.6051
-61.8169
-61.8335
-61.9989
-64.4153
-64.0127
-63.0465
-62.5891
-62.4414
-62.7044
-62.7678
-65.5865
-64.7001
-64.2759
-63.5477
-63.172
-63.3199
-63.5205
-63.5453
-66.8464
-65.8418
-65.3358
-64.6056
-64.1215
-63.9347
-64.1671
-64.1039
-64.2623
-62.2124
-61.8196
-61.4781
-63.6911
-62.2842
-62.684
-63.3168
-63.3419
-62.2662
-61.2836
-61.5362
-62.8048
-61.9306
-60.8905
-60.8589
-61.2057
-62.6943
-61.8532
-61.4117
-61.1129
-61.2514
-61.5775
-63.1492
-62.4177
-61.6252
-61.7217
-61.7315
-61.9866
-62.2977
-64.4629
-64.0934
-62.9869
-62.5434
-62.3981
-62.7016
-62.6524
-62.7601
-65.6609
-64.801
-64.3148
-63.5559
-63.1167
-63.2404
-63.4215
-63.4565
-63.5177
-66.8338
-65.88
-65.296
-64.6344
-64.1225
-63.9421
-64.1122
-64.0469
-64.208
-64.2975
-61.6922
-61.8793
-65.6079
-61.1804
-65.4862
-61.1987
-63.3769
-65.1282
-62.1897
-62.6125
-63.2402
-63.0414
-63.1034
-62.2796
-61.0767
-61.2842
-61.3633
-62.6579
-61.9115
-60.761
-60.6782
-61.1025
-61.2438
-62.6327
-61.8256
-61.2755
-60.9659
-61.1388
-61.5035
-61.754
-63.253
-62.3581
-61.67
-61.6952
-61.6533
-62.0364
-62.2262
-62.3022
-64.5233
-64.1347
-62.9519
-62.5101
-62.3649
-62.6917
-62.5368
-62.6379
-62.7535
-65.7658
-64.9113
-64.3427
-63.5271
-63.0845
-63.1644
-63.3049
-63.3779
-63.4173
-63.2225
-66.8339
-65.9394
-65.2773
-64.6617
-64.1223
-63.893
-64.0563
-63.9674
-64.1138
-64.2467
-63.2488
-60.2515
-61.2135
-63.0831
-61.3498
-65.2891
-66.699
-60.6469
-64.5131
-66.9906
-60.7872
-62.9355
-65.1213
-64.896
-62.0023
-62.4898
-62.93
-62.918
-62.1857
-62.7708
-62.1818
-60.9723
-60.9389
-61.0904
-61.1102
-62.3869
-61.8495
-60.6734
-60.5841
-60.9458
-61.1823
-61.386
-62.6225
-61.7998
-61.1464
-60.8391
-61.0381
-61.3252
-61.5928
-62.0801
-63.3136
-62.3337
-61.6909
-61.6118
-61.5428
-61.9269
-62.1198
-62.216
-62.6464
-64.5783
-64.2486
-62.9201
-62.4981
-62.3502
-62.4713
-62.4876
-62.5716
-62.6907
-62.8671
-65.8823
-65.0182
-64.3715
-63.5233
-63.0647
-63.1008
-63.2278
-63.306
-63.3887
-63.1235
-62.6504
-66.8377
-66.0179
-65.3284
-64.6868
-64.1217
-63.8423
-63.9939
-63.8558
-64.013
-64.1988
-63.2185
-62.353
-58.6358
-59.0708
-59.8406
-61.2939
-60.4638
-63.2069
-64.5882
-60.6493
-64.459
-67.0898
-64.9833
-60.0926
-63.4856
-67.1143
-65.7112
-60.1955
-62.5777
-64.9499
-64.9719
-63.1609
-61.794
-62.4046
-62.4908
-62.7014
-62.1132
-61.0722
-62.6425
-62.2901
-60.6711
-60.6045
-60.9643
-61.001
-61.1342
-62.1151
-61.6281
-60.4763
-60.4207
-60.823
-61.1075
-61.4443
-61.8385
-62.603
-61.8596
-61.1003
-60.7242
-60.8991
-61.1586
-61.5212
-61.9625
-62.7232
-63.4608
-62.3057
-61.716
-61.5594
-61.4264
-61.6987
-62.027
-62.1109
-62.4964
-63.0304
-64.6648
-64.3871
-62.9407
-62.4889
-62.2901
-62.4075
-62.4673
-62.4636
-62.593
-62.7631
-62.7716
-65.9871
-65.1348
-64.3769
-63.5284
-63.061
-63.0677
-63.2042
-63.2289
-63.2711
-63.0099
-62.5909
-62.3544
-66.8496
-66.0661
-65.3682
-64.7112
-64.109
-63.8202
-63.9609
-63.7732
-63.9171
-64.1622
-63.1807
-62.2968
-62.2208
-58.1624
-58.2706
-59.307
-59.0469
-60.4794
-59.4402
-61.35
-62.3749
-59.7362
-63.0909
-64.8315
-63.732
-60.0311
-63.5206
-67.4241
-65.593
-62.9113
-59.6339
-62.5743
-66.7537
-66.0662
-63.6278
-59.7058
-62.2332
-64.3565
-64.9994
-63.2151
-61.3279
-61.565
-62.5609
-62.0669
-62.3041
-62.0726
-61.2204
-60.5192
-62.1453
-62.3186
-60.4251
-60.309
-60.7445
-60.9756
-61.0997
-61.6817
-62.1529
-61.4144
-60.3023
-60.2319
-60.697
-61.0088
-61.3916
-61.7643
-62.8866
-62.5419
-61.9292
-61.1277
-60.6475
-60.7589
-61.2653
-61.4315
-61.825
-62.5051
-63.61
-63.6447
-62.3986
-61.7565
-61.5171
-61.3248
-61.6825
-61.874
-62.0209
-62.3222
-62.8505
-63.5331
-64.8119
-64.4614
-62.9936
-62.4953
-62.2417
-62.3912
-62.4526
-62.3788
-62.4556
-62.6547
-62.6406
-63.0448
-66.1532
-65.2558
-64.4366
-63.496
-63.0699
-63.0112
-63.1191
-63.1517
-63.1292
-62.8936
-62.5203
-62.221
-62.1838
-66.9351
-66.1105
-65.4127
-64.7286
-64.1072
-63.7978
-63.9611
-63.7749
-63.8378
-64.1295
-63.1312
-62.2325
-62.1771
-61.323
-57.8543
-58.1564
-58.5581
-58.2543
-59.1889
-59.4615
-59.0036
-60.1274
-60.7303
-59.166
-61.3851
-62.3217
-62.0804
-59.5942
-62.5107
-65.6612
-64.4298
-62.3514
-59.4566
-62.5621
-67.5347
-66.588
-63.2987
-61.2374
-59.4733
-61.6556
-66.2254
-66.5765
-63.9794
-61.3809
-59.3393
-61.7794
-63.849
-64.8334
-63.5133
-61.4179
-60.1057
-61.2854
-62.6352
-61.7742
-61.9018
-61.9609
-61.2966
-60.6339
-60.999
-61.6405
-62.2575
-60.4681
-59.8646
-60.5602
-60.8739
-60.9818
-61.3726
-62.806
-62.0002
-61.2566
-60.1634
-60.0398
-60.5314
-60.9447
-61.2951
-61.6181
-62.4221
-64.0901
-62.5934
-61.9126
-61.1489
-60.57
-60.7203
-61.1212
-61.3422
-61.6976
-62.3016
-63.3863
-64.4832
-63.8454
-62.5228
-61.8405
-61.4828
-61.216
-61.6022
-61.7535
-61.9564
-62.1567
-62.7563
-63.3808
-63.7775
-64.9465
-64.5626
-63.0463
-62.518
-62.2035
-62.301
-62.4177
-62.3164
-62.3585
-62.5576
-62.5453
-62.8871
-62.9111
-66.3481
-65.3882
-64.5128
-63.4867
-63.0789
-62.9912
-63.036
-63.0669
-63.0532
-62.7936
-62.4534
-62.111
-62.1226
-61.7918
-67.0649
-66.1844
-65.4518
-64.7466
-64.0557
-63.7835
-63.9613
-63.7745
-63.7522
-64.0913
-63.0984
-62.1701
-62.1296
-61.2736
-60.8448
-57.7485
-57.8848
-58.1575
-58.0621
-58.5352
-58.987
-58.3709
-59.2124
-59.7052
-59.8202
-58.8326
-60.242
-60.8636
-60.6928
-58.857
-60.9065
-62.4273
-62.4541
-61.3582
-59.2598
-61.9176
-65.3542
-65.3483
-62.6072
-61.0745
-59.0912
-61.6919
-67.0538
-67.5905
-63.7059
-61.5743
-60.3528
-59.0974
-61.0466
-65.6564
-66.8449
-64.3418
-61.6168
-59.9705
-59.3001
-61.4594
-63.1666
-64.5113
-63.6808
-61.7455
-60.3434
-60.2371
-61.162
-62.1411
-61.5801
-61.4252
-61.7751
-61.3256
-60.6656
-60.774
-62.3908
-61.2863
-61.8909
-60.4328
-59.5576
-60.351
-60.7954
-60.9297
-61.1658
-62.4335
-64.3368
-61.8554
-61.1998
-60.056
-59.9049
-60.3058
-60.7932
-61.2272
-61.4327
-62.2132
-63.6562
-65.4735
-62.6328
-61.9218
-61.1478
-60.4714
-60.5929
-60.8804
-61.2695
-61.538
-62.0693
-63.1229
-64.1873
-64.994
-64.0628
-62.6471
-61.9249
-61.4338
-61.1647
-61.5247
-61.6403
-61.8801
-62.0005
-62.5705
-63.0482
-63.5415
-63.899
-65.1242
-64.7012
-63.1144
-62.5419
-62.1507
-62.219
-62.3453
-62.2322
-62.2622
-62.4587
-62.5103
-62.759
-62.8381
-62.6183
-66.4524
-65.5292
-64.5747
-63.5025
-63.1325
-62.9879
-62.9772
-62.9963
-63.0041
-62.7044
-62.3854
-62.0461
-62.0641
-61.7319
-61.2883
-67.2304
-66.2851
-65.4601
-64.7852
-64.0447
-63.7795
-63.9391
-63.747
-63.6712
-64.049
-63.0821
-62.1069
-62.0775
-61.2273
-60.8245
-60.62
-57.5925
-57.7192
-57.9144
-57.8443
-58.0768
-58.4254
-57.9683
-58.4118
-59.0187
-59.1539
-58.3259
-58.9813
-59.8075
-59.8261
-59.8604
-58.6073
-59.9271
-60.3569
-60.8907
-60.5405
-58.5611
-60.6327
-62.3561
-62.9565
-61.5536
-60.6441
-58.8035
-60.9594
-65.1346
-66.2363
-63.0436
-61.3748
-60.2325
-58.7391
-60.6766
-66.641
-68.0963
-64.381
-61.5499
-60.4388
-60.251
-58.7431
-60.5341
-64.6867
-66.8669
-64.8366
-62.1025
-60.1144
-59.947
-59.1852
-61.4795
-62.3397
-64.1386
-63.6999
-61.9625
-60.4991
-60.1232
-61.451
-60.7552
-62.0502
-61.2366
-60.8916
-61.5591
-61.3292
-60.695
-60.615
-61.9556
-65.0688
-61.0323
-61.7316
-60.4143
-59.5223
-60.1313
-60.6835
-60.8295
-60.9842
-62.0686
-63.8502
-66.4466
-61.7705
-61.2237
-60.0209
-59.7813
-60.1102
-60.675
-61.1082
-61.3773
-62.0052
-63.2696
-65.1131
-66.1781
-62.772
-61.9127
-61.169
-60.3951
-60.5391
-60.8307
-61.2441
-61.3768
-61.8666
-62.7812
-63.8148
-64.7559
-65.2354
-64.2726
-62.7974
-61.9895
-61.4131
-61.1185
-61.4608
-61.4925
-61.8007
-61.8736
-62.3264
-62.8503
-63.3438
-63.8162
-63.4211
-65.4493
-64.8753
-63.2075
-62.4885
-62.1444
-62.1728
-62.2455
-62.1678
-62.1554
-62.3518
-62.4778
-62.6362
-62.7622
-62.5739
-62.029
-66.5106
-65.6715
-64.643
-63.5503
-63.1626
-62.9681
-62.9091
-62.932
-62.9281
-62.6324
-62.3119
-61.9191
-62.0066
-61.6629
-61.3305
-60.9371
-67.3915
-66.3751
-65.5041
-64.8401
-64.0676
-63.7694
-63.9068
-63.7302
-63.5714
-64.0028
-63.0748
-62.0477
-62.0265
-61.1868
-60.7988
-60.624
-60.1049
-57.503
-57.6024
-57.6585
-57.7364
-57.8105
-58.2079
-57.7363
-58.0487
-58.4863
-58.8247
-57.8669
-58.199
-59.1257
-59.1813
-59.3551
-58.2454
-58.7678
-59.5113
-59.7509
-59.9102
-59.7771
-58.4153
-59.7204
-60.8337
-60.9933
-60.6509
-60.2841
-58.3886
-60.0264
-62.6072
-62.9296
-61.91
-60.7891
-60.2752
-58.4248
-60.0115
-64.7814
-66.9497
-63.8092
-61.5806
-60.42
-60.2473
-58.7792
-60.0643
-65.2661
-68.7919
-65.3218
-62.1971
-60.1819
-59.9917
-61.0774
-58.6297
-59.9648
-63.7257
-66.8903
-65.1884
-62.5393
-60.4003
-59.8284
-60.814
-59.2618
-61.6703
-61.8689
-63.6529
-63.7067
-62.1432
-60.678
-60.0891
-61.0276
-64.1209
-60.4784
-62.0692
-60.9166
-60.4382
-61.2755
-61.2841
-60.8183
-60.4857
-61.4889
-64.2563
-66.5815
-60.8337
-61.2976
-60.4506
-59.3793
-59.9201
-60.5435
-60.7515
-60.8316
-61.6821
-63.398
-65.7847
-66.9348
-61.8951
-61.1002
-60.0138
-59.7063
-59.9324
-60.5593
-60.9723
-61.2463
-61.7443
-62.9842
-64.6193
-65.8968
-66.4459
-63.0074
-61.9337
-61.1525
-60.3791
-60.5403
-60.7563
-61.0349
-61.3283
-61.6883
-62.5124
-63.5995
-64.4683
-65.0712
-64.9189
-64.4728
-62.9542
-62.0703
-61.3821
-61.0791
-61.4122
-61.454
-61.7092
-61.7694
-62.1464
-62.6657
-63.1902
-63.673
-63.3986
-63.1194
-65.7604
-65.0813
-63.3293
-62.5337
-62.1497
-62.1354
-62.1682
-62.1054
-62.0638
-62.2226
-62.2836
-62.3778
-62.6871
-62.5007
-61.9819
-61.4211
-66.5973
-65.84
-64.731
-63.5898
-63.1715
-62.9556
-62.852
-62.8602
-62.8373
-62.5586
-62.2536
-61.8108
-61.948
-61.5942
-61.3524
-60.9383
-60.6883
-67.5527
-66.4296
-65.5606
-64.9007
-64.1033
-63.753
-63.847
-63.7216
-63.4703
-63.9525
-63.077
-62.0169
-61.9687
-61.1495
-60.7631
-60.6271
-60.1015
-60.0089
-57.3478
-57.4423
-57.5425
-57.5087
-57.6786
-57.954
-57.6095
-57.8288
-58.2057
-58.4234
-57.7081
-57.8886
-58.5115
-58.7548
-58.9854
-57.9495
-58.2514
-58.9697
-59.2432
-59.3687
-59.3394
-58.173
-58.7332
-59.6061
-59.8332
-59.9407
-59.833
-59.782
-58.1078
-59.2267
-61.1141
-61.041
-60.7747
-60.3651
-60.0846
-58.0947
-59.5987
-62.0713
-63.276
-62.3775
-60.9674
-60.3326
-60.2739
-58.2057
-59.5373
-63.6191
-67.7758
-64.4287
-61.9088
-60.4993
-60.1533
-60.7421
-58.4846
-59.5439
-63.9292
-68.8185
-65.7472
-62.8033
-60.6308
-59.8613
-60.7146
-62.6912
-58.5779
-59.6841
-62.8411
-66.371
-65.412
-62.9204
-60.7555
-59.666
-60.4921
-62.9448
-59.2176
-61.5438
-61.7037
-63.0411
-63.5549
-62.3763
-60.9243
-60.0703
-60.7604
-63.4311
-65.9884
-60.2456
-61.668
-60.6172
-60.0967
-60.9126
-61.1808
-60.8456
-60.4104
-61.0518
-63.4463
-66.3473
-66.9997
-60.5302
-60.7629
-60.4549
-59.2929
-59.738
-60.3678
-60.8379
-60.6726
-61.3889
-62.9227
-65.2446
-66.6312
-67.1774
-62.0314
-61.1405
-60.1005
-59.6722
-59.7565
-60.4217
-60.7946
-61.0618
-61.6347
-62.7107
-64.0489
-65.5912
-66.2817
-66.4253
-63.2954
-62.1116
-61.1419
-60.3915
-60.4679
-60.6716
-60.9187
-61.2079
-61.5126
-62.2654
-63.2572
-64.1451
-64.8791
-64.8437
-64.3513
-64.771
-63.0983
-62.1656
-61.3073
-61.0496
-61.3363
-61.4472
-61.6534
-61.7008
-62.0129
-62.5127
-63.0158
-63.5068
-63.336
-63.1211
-62.1216
-66.1064
-65.2897
-63.4553
-62.624
-62.0929
-62.0904
-62.1074
-62.0432
-62.0086
-62.108
-62.1429
-62.3791
-62.5888
-62.3923
-61.9403
-61.4518
-61.2231
-66.7221
-66.0196
-64.8064
-63.6353
-63.203
-62.9488
-62.8465
-62.7946
-62.7609
-62.4886
-62.2038
-61.7017
-61.8894
-61.5328
-61.365
-60.9382
-60.6995
-60.3511
-67.661
-66.4812
-65.62
-64.9622
-64.1261
-63.7446
-63.7723
-63.7072
-63.4136
-63.8974
-63.0542
-61.9945
-61.8971
-61.1173
-60.7287
-60.6226
-60.0987
-60.0116
-59.6427
-57.275
-57.2404
-57.458
-57.3713
-57.5326
-57.6868
-57.518
-57.6285
-57.8966
-58.1318
-57.6021
-57.795
-58.1871
-58.3869
-58.5464
-57.7023
-57.8459
-58.3535
-58.6811
-58.9192
-59.0406
-57.8373
-58.1684
-58.7232
-59.2554
-59.3694
-59.334
-59.4568
-57.9347
-58.533
-59.8597
-59.9828
-59.9832
-59.8129
-59.7181
-59.84
-57.9959
-58.9797
-60.845
-61.0242
-61.0263
-60.4271
-60.1163
-60.1372
-57.7659
-59.2048
-61.8642
-63.7907
-62.7557
-61.2866
-60.447
-60.1791
-60.5593
-57.9045
-59.1336
-62.6747
-67.8085
-65.3633
-62.3475
-60.6819
-60.0769
-60.7072
-61.9313
-58.3215
-59.1411
-62.7933
-68.1129
-66.419
-63.3461
-60.9069
-59.826
-60.3465
-62.2159
-63.9834
-58.6006
-59.5805
-61.9016
-65.4798
-65.6124
-63.2253
-61.1245
-59.7363
-60.2509
-62.3338
-64.9229
-59.2733
-61.1681
-61.3782
-62.2788
-63.2371
-62.5175
-61.1884
-60.125
-60.4945
-62.605
-65.676
-66.3961
-60.2222
-61.2864
-60.4074
-59.7499
-60.4902
-61.0611
-60.9366
-60.4991
-60.7405
-62.689
-65.7942
-66.6487
-67.5103
-60.6141
-60.568
-60.2337
-59.1901
-59.5285
-60.1805
-60.7306
-60.5529
-61.0591
-62.4715
-64.9769
-66.3383
-67.0757
-67.6242
-62.0647
-61.4032
-60.2172
-59.6954
-59.6357
-60.2441
-60.7974
-60.9925
-61.4295
-62.3841
-63.6043
-65.0997
-66.1541
-66.3084
-65.8422
-63.4456
-62.3119
-61.204
-60.4426
-60.4401
-60.5363
-61.1205
-61.1433
-61.4028
-61.9659
-62.9282
-63.8825
-64.6654
-64.7256
-64.3711
-63.5217
-65.1698
-63.2863
-62.2833
-61.3124
-60.9775
-61.2751
-61.4182
-61.602
-61.6
-61.8825
-62.2909
-62.8202
-63.3725
-63.2157
-62.9696
-62.1655
-61.9374
-66.4499
-65.4758
-63.579
-62.6786
-62.1026
-62.0634
-62.0637
-61.9855
-61.936
-62.0064
-62.1189
-62.2819
-62.4707
-62.2805
-61.931
-61.4526
-61.2396
-60.8187
-66.9202
-66.2004
-64.9107
-63.7147
-63.2428
-62.9449
-62.7842
-62.7465
-62.7165
-62.4283
-62.122
-61.5825
-61.8349
-61.4723
-61.3446
-60.9392
-60.7048
-60.3598
-59.9864
-67.7223
-66.5468
-65.6667
-65.0181
-64.1135
-63.7559
-63.7215
-63.6947
-63.3609
-63.8338
-62.9966
-61.9577
-61.8302
-61.0925
-60.7056
-60.6131
-60.0966
-60.0115
-59.6425
-59.3958
-57.1149
-57.2569
-57.4171
-57.2485
-57.365
-57.5726
-57.4504
-57.478
-57.6898
-57.8234
-57.4411
-57.6216
-57.8395
-58.1005
-58.2374
-57.483
-57.7113
-58.132
-58.3567
-58.5838
-58.6712
-57.5985
-57.8455
-58.1671
-58.6515
-58.8862
-59.0142
-59.0694
-57.7225
-58.0725
-58.6284
-59.4007
-59.3816
-59.3527
-59.4785
-59.5146
-57.8245
-58.4841
-59.6726
-59.6841
-60.0183
-59.8913
-59.7431
-59.8625
-60.0988
-57.8804
-58.596
-60.5872
-61.2412
-61.3585
-60.5441
-60.1658
-60.1411
-60.5269
-57.7598
-58.7366
-61.6554
-64.0356
-63.4164
-61.5802
-60.4369
-60.1672
-60.4999
-61.3345
-57.9424
-58.4519
-61.6564
-67.6059
-66.6066
-62.89
-60.8375
-60.2406
-60.4375
-61.4738
-63.0404
-58.2536
-58.7998
-61.6667
-67.2642
-67.1817
-63.9166
-61.3124
-59.7825
-59.9841
-61.7226
-63.8157
-65.1546
-58.7074
-59.2331
-61.1557
-64.7367
-65.653
-63.3614
-61.5497
-59.8399
-60.0209
-61.8758
-64.4472
-65.6663
-59.273
-60.8141
-61.3397
-61.5378
-62.7395
-62.5669
-61.4483
-60.2238
-60.1156
-62.0765
-65.1134
-66.322
-66.9374
-60.1573
-60.8765
-60.5586
-59.3623
-59.9945
-60.906
-61
-60.4275
-60.6957
-62.0178
-64.9847
-66.3947
-67.365
-68.7329
-60.804
-60.7704
-60.1405
-59.2465
-59.2766
-59.9718
-60.5862
-60.6245
-60.8177
-62.167
-64.3228
-66.0033
-66.7855
-67.6015
-66.8929
-62.2327
-61.4773
-60.2696
-59.6753
-59.6113
-60.1069
-60.6311
-60.8531
-61.2288
-62.0579
-63.1737
-64.6604
-65.934
-66.1091
-65.8842
-65.0106
-63.6906
-62.5133
-61.3168
-60.4804
-60.3707
-60.4298
-60.9334
-61.0311
-61.2445
-61.7677
-62.6256
-63.6417
-64.3732
-64.5325
-64.2956
-63.6538
-62.697
-65.5657
-63.607
-62.4482
-61.3824
-60.9241
-61.2295
-61.3633
-61.5158
-61.4729
-61.7236
-62.0641
-62.6314
-63.1903
-63.0702
-62.9202
-62.4088
-61.9874
-61.4176
-66.7628
-65.6831
-63.7511
-62.7507
-62.1282
-62.0183
-62.0374
-61.9396
-61.8438
-61.8936
-62.0038
-62.1129
-62.3514
-62.1696
-61.924
-61.5037
-61.247
-60.8493
-60.387
-67.1379
-66.3711
-65.0272
-63.7967
-63.2703
-62.9467
-62.7319
-62.6743
-62.6726
-62.3873
-62.0187
-61.5292
-61.7833
-61.4055
-61.2812
-60.9459
-60.7055
-60.3672
-60.0018
-59.6652
-67.7767
-66.6166
-65.671
-65.0632
-64.1348
-63.7695
-63.6823
-63.6826
-63.3081
-63.7651
-62.9428
-61.9251
-61.7745
-61.0634
-60.6864
-60.6018
-60.0936
-60.0089
-59.6392
-59.4007
-59.1392
-57.1043
-57.1046
-57.2021
-57.3031
-57.2844
-57.4778
-57.2546
-57.3321
-57.5449
-57.6868
-57.3304
-57.4964
-57.6474
-57.8293
-58.0267
-57.3477
-57.5268
-57.8225
-58.0259
-58.2414
-58.4119
-57.4206
-57.6524
-57.8914
-58.3771
-58.5014
-58.6962
-58.8423
-57.4281
-57.8315
-58.0041
-58.8023
-58.8864
-58.9645
-59.086
-59.1443
-57.7128
-58.0655
-58.499
-59.3527
-59.3764
-59.435
-59.4987
-59.5336
-59.6335
-57.6686
-58.0694
-59.1723
-59.7485
-60.0546
-59.9191
-59.8357
-59.9132
-60.0721
-60.4581
-57.7737
-58.5236
-60.4478
-61.4162
-61.5441
-60.7863
-60.1366
-60.0942
-60.2451
-60.8064
-57.6343
-57.9234
-60.9894
-63.8077
-63.9996
-61.9668
-60.6523
-60.1545
-60.2775
-61.0636
-62.1702
-57.8601
-58.1246
-60.8535
-66.9607
-67.6306
-63.4504
-61.2793
-60.179
-60.0654
-61.147
-62.8199
-63.802
-58.2258
-58.5949
-60.8576
-66.3388
-67.7578
-64.3447
-61.7711
-59.8935
-59.88
-61.3405
-63.3008
-64.9714
-65.5846
-58.7578
-59.2102
-60.8182
-63.821
-65.414
-63.5111
-61.9853
-60.0337
-59.8093
-61.276
-63.8792
-65.5982
-65.9976
-59.3247
-60.5134
-61.5553
-61.0697
-62.1191
-62.5203
-61.673
-60.3433
-60.0978
-61.4748
-64.3132
-66.0758
-66.7012
-67.786
-60.1556
-60.559
-60.4729
-59.0714
-59.5233
-60.6782
-60.9148
-60.4832
-60.523
-61.4529
-64.3324
-66.1681
-67.1215
-68.3866
-67.7179
-60.985
-60.6074
-60.302
-59.3256
-59.0934
-59.7165
-60.509
-60.4982
-60.6846
-61.7509
-63.4512
-65.5859
-66.5591
-67.3352
-67.087
-65.629
-62.3745
-61.3395
-60.3505
-59.6566
-59.5465
-59.977
-60.4383
-60.7929
-61.0518
-61.7579
-62.8335
-64.287
-65.5972
-65.8246
-65.8976
-65.0933
-63.7168
-63.9793
-62.7267
-61.4292
-60.4945
-60.3597
-60.3563
-60.658
-60.8619
-61.1259
-61.5996
-62.3322
-63.3128
-64.0516
-64.2077
-64.2324
-63.5902
-62.7906
-62.1132
-65.9784
-63.9727
-62.6204
-61.4386
-60.9024
-61.1613
-61.3102
-61.4073
-61.3669
-61.58
-61.8671
-62.4602
-62.9714
-62.9211
-62.8522
-62.6385
-62.0558
-61.4808
-60.9431
-67.0907
-65.9189
-63.9074
-62.845
-62.1113
-62.0085
-62.0173
-61.9323
-61.7583
-61.8168
-61.8892
-61.9661
-62.2224
-62.0706
-61.9148
-61.5335
-61.2576
-60.883
-60.4209
-60.0065
-67.3567
-66.5174
-65.1465
-63.9165
-63.3051
-62.943
-62.7479
-62.6087
-62.6321
-62.3511
-61.9769
-61.5374
-61.7242
-61.353
-61.2292
-60.9554
-60.7204
-60.3721
-60.0148
-59.6838
-59.3723
-67.8332
-66.6766
-65.6568
-65.0981
-64.119
-63.793
-63.6644
-63.6639
-63.2837
-63.6994
-62.9029
-61.8911
-61.7298
-61.0263
-60.6684
-60.592
-60.092
-60.0067
-59.647
-59.3995
-59.1463
-58.9058
-56.9613
-57.1495
-57.1343
-57.1369
-57.1586
-57.3141
-57.2777
-57.3599
-57.3536
-57.5994
-57.2096
-57.3521
-57.5224
-57.6715
-57.8128
-57.2728
-57.4434
-57.6959
-57.8622
-58.0036
-58.1807
-57.2886
-57.4747
-57.7328
-57.9903
-58.2633
-58.3737
-58.5319
-57.3614
-57.596
-57.9198
-58.2859
-58.492
-58.6398
-58.8313
-58.949
-57.3091
-57.7774
-58.1249
-58.8395
-58.8801
-58.9491
-59.057
-59.1323
-59.3839
-57.5587
-57.9135
-58.32
-59.2366
-59.4055
-59.453
-59.5153
-59.5063
-59.6836
-59.9982
-57.5297
-58.0353
-58.7039
-59.8463
-60.1143
-60.0443
-59.8787
-59.8568
-59.9659
-60.2965
-60.8815
-57.5273
-58.0269
-60.3512
-61.5275
-61.8629
-60.9637
-60.3686
-60.057
-60.0302
-60.7174
-61.4303
-57.6788
-57.8423
-60.4085
-63.5861
-64.3717
-62.4599
-60.8784
-60.0823
-60.1463
-60.8515
-61.9338
-62.7608
-57.9592
-58.0537
-59.9759
-66.1288
-68.0867
-64.1645
-61.7605
-60.1572
-59.9989
-60.7588
-62.4319
-63.6824
-64.7107
-58.1497
-58.4267
-59.9858
-64.982
-67.7929
-64.7405
-62.443
-60.2177
-59.5266
-60.7789
-62.925
-64.5048
-65.4213
-65.9534
-58.8041
-59.1796
-60.3567
-62.9473
-64.9472
-63.5526
-62.3497
-60.2656
-59.8351
-60.7609
-63.256
-65.2366
-65.9858
-66.6196
-59.4665
-60.0806
-61.2595
-60.7629
-61.6215
-62.3361
-61.8145
-60.5622
-59.952
-60.8678
-63.7596
-65.6968
-66.4857
-67.7361
-68.0313
-60.0947
-60.2744
-60.3662
-59.15
-58.9655
-60.4038
-60.8454
-60.5489
-60.1294
-61.2776
-63.537
-65.8554
-66.7155
-68.038
-67.8542
-66.988
-61.1473
-60.6781
-60.2705
-59.4703
-59.1134
-59.4024
-60.368
-60.3949
-60.5521
-61.1573
-63.3234
-65.0442
-66.3483
-67.0342
-67.1519
-66.1275
-64.506
-62.6675
-61.4495
-60.3082
-59.6664
-59.4078
-59.8588
-60.3609
-60.6972
-60.8501
-61.4856
-62.4136
-63.9606
-65.1979
-65.5601
-65.839
-65.1099
-63.929
-62.8606
-64.3168
-62.9839
-61.5794
-60.5414
-60.3703
-60.3125
-60.6458
-60.8451
-60.9716
-61.429
-62.1002
-62.9497
-63.7451
-63.9442
-64.192
-63.635
-62.9094
-62.2581
-61.5453
-66.4252
-64.3265
-62.8034
-61.4823
-60.9104
-61.1301
-61.1884
-61.306
-61.253
-61.4471
-61.6769
-62.2873
-62.7714
-62.7862
-62.7272
-62.4272
-62.056
-61.5409
-61.01
-60.4178
-67.4236
-66.1763
-64.1147
-62.9681
-62.1267
-62.0026
-61.9754
-61.9536
-61.6991
-61.7287
-61.8018
-61.8269
-62.0787
-61.9682
-61.8965
-61.5421
-61.2689
-60.9087
-60.4497
-60.0432
-59.658
-67.5771
-66.6463
-65.2834
-64.0638
-63.3412
-62.9502
-62.7195
-62.5734
-62.6005
-62.317
-61.9723
-61.4683
-61.6625
-61.3272
-61.1883
-60.9585
-60.7161
-60.3741
-60.0284
-59.698
-59.3912
-59.104
-67.8786
-66.7317
-65.6363
-65.1353
-64.1258
-63.8096
-63.6641
-63.6449
-63.2792
-63.6489
-62.8779
-61.8284
-61.691
-60.9879
-60.6498
-60.5822
-60.0849
-60.0031
-59.651
-59.4014
-59.1539
-58.916
-58.7211
-56.9514
-57.1356
-57.1523
-57.2896
-57.2582
-57.0958
-57.2141
-57.2862
-57.4301
-57.3142
-57.2937
-57.4479
-57.534
-57.7123
-57.1586
-57.301
-57.4605
-57.7104
-57.8288
-57.9747
-57.2726
-57.4079
-57.653
-57.8187
-57.997
-58.1662
-58.329
-57.3025
-57.4604
-57.6651
-57.9769
-58.1751
-58.3745
-58.5516
-58.646
-57.2594
-57.5278
-57.7887
-58.2992
-58.4523
-58.5988
-58.8617
-58.9176
-59.1493
-57.247
-57.7914
-57.9516
-58.5435
-58.8889
-58.9695
-59.0563
-59.1731
-59.3891
-59.5696
-57.4698
-57.7619
-58.1115
-59.261
-59.3918
-59.4667
-59.5189
-59.4023
-59.6854
-59.9104
-60.2668
-57.4456
-58.0454
-58.6414
-60.0903
-60.3951
-60.1001
-59.8346
-59.8005
-59.8157
-60.1953
-60.8518
-61.0643
-57.3644
-57.8305
-59.8785
-61.6538
-62.0645
-61.2578
-60.5258
-60.0238
-60.0967
-60.5838
-61.2755
-61.9299
-57.5507
-57.8637
-59.4375
-63.1519
-65.0747
-63.0891
-61.2738
-60.141
-60.0639
-60.5813
-61.6508
-62.6315
-63.5523
-57.9786
-57.9403
-59.2732
-64.7819
-68.5057
-64.8622
-62.3115
-60.3613
-59.8163
-60.8286
-62.0884
-63.4566
-64.4941
-64.9102
-58.2788
-58.3369
-59.5721
-63.6247
-67.4109
-65.0445
-62.8936
-60.3624
-59.4755
-60.2712
-62.4173
-64.0901
-65.304
-65.8248
-65.8732
-58.8952
-59.0739
-60.4
-62.0213
-64.0662
-63.6427
-62.6758
-60.6645
-59.7828
-60.2983
-62.7281
-64.7241
-65.7457
-66.6556
-66.8472
-59.3994
-59.7671
-60.7157
-60.4637
-60.9111
-62.0229
-61.9346
-60.7717
-59.817
-60.5491
-62.8416
-65.2285
-66.2272
-67.552
-68.3984
-66.8688
-60.1072
-60.1335
-60.2524
-59.2853
-58.7497
-60.0649
-60.8072
-60.5833
-60.201
-60.9503
-62.4985
-65.3749
-66.3257
-67.6565
-67.9359
-67.3889
-65.8947
-61.4404
-60.6292
-60.1633
-59.4763
-59.0893
-59.2017
-60.2243
-60.5232
-60.4091
-61.0109
-62.5954
-64.5747
-66.1423
-66.5981
-67.0623
-66.4792
-64.8093
-63.6129
-62.9578
-61.5654
-60.4603
-59.7158
-59.3664
-59.7322
-60.2466
-60.6231
-60.7151
-61.2361
-62.0727
-63.5351
-64.8053
-65.2523
-65.6146
-65.1018
-64.0892
-63.0689
-62.145
-64.7183
-63.2578
-61.7893
-60.6181
-60.3557
-60.2325
-60.5483
-60.783
-60.8688
-61.2356
-61.8943
-62.7014
-63.4188
-63.7445
-64.0022
-63.5884
-62.9862
-62.3756
-61.6661
-60.9004
-66.9714
-64.6712
-63.0457
-61.5291
-60.9611
-61.1268
-61.0575
-61.1931
-61.1271
-61.2999
-61.5106
-62.1152
-62.5565
-62.6481
-62.6403
-62.3688
-62.0569
-61.5822
-61.0717
-60.4975
-59.9696
-67.7531
-66.45
-64.3396
-63.067
-62.152
-61.9897
-61.9583
-61.9468
-61.615
-61.6455
-61.6517
-61.627
-61.9399
-61.8479
-61.857
-61.5258
-61.2547
-60.9314
-60.4722
-60.0772
-59.6987
-59.3131
-67.7992
-66.7696
-65.4276
-64.1806
-63.3849
-62.9656
-62.6783
-62.5236
-62.5855
-62.2833
-61.974
-61.367
-61.5972
-61.2894
-61.1297
-60.9549
-60.676
-60.3691
-60.0369
-59.7131
-59.4104
-59.1212
-58.8825
-67.9241
-66.786
-65.6092
-65.1656
-64.1839
-63.8254
-63.6722
-63.6257
-63.2703
-63.6006
-62.8782
-61.7802
-61.6489
-60.9477
-60.6274
-60.5671
-60.0711
-59.9964
-59.6505
-59.4061
-59.1574
-58.9203
-58.731
-58.5764
-56.988
-56.9971
-57.1201
-57.1398
-57.1572
-57.2496
-57.3951
-57.0879
-57.1258
-57.2693
-57.4226
-57.5176
-57.262
-57.3218
-57.3843
-57.5537
-57.6867
-57.8375
-57.1695
-57.2489
-57.4637
-57.6036
-57.837
-57.9725
-58.1303
-57.1314
-57.4094
-57.4746
-57.8086
-57.9545
-58.1528
-58.3163
-58.4792
-57.2124
-57.3303
-57.5445
-57.8663
-58.155
-58.3857
-58.5115
-58.6522
-58.8898
-57.2491
-57.5501
-57.676
-58.2642
-58.4033
-58.6833
-58.776
-58.9434
-59.057
-59.3356
-57.2488
-57.6578
-57.9802
-58.6176
-58.7672
-59.0529
-59.1635
-59.158
-59.3688
-59.5269
-59.7259
-57.3822
-57.7787
-58.0476
-59.1805
-59.4291
-59.4425
-59.4242
-59.4885
-59.6017
-59.8598
-60.1923
-60.4835
-57.4497
-57.9101
-58.4132
-60.0651
-60.5939
-60.2435
-59.9519
-59.7871
-59.7915
-60.2042
-60.6813
-61.1404
-61.4795
-57.5402
-57.6982
-59.4748
-61.8146
-62.3157
-61.6358
-60.6521
-60.0193
-59.9768
-60.4361
-61.1397
-61.9577
-62.2521
-57.6761
-57.6944
-58.8388
-62.4237
-65.6263
-64.003
-61.6872
-60.2355
-59.8992
-60.5655
-61.36
-62.4862
-63.3449
-63.8735
-57.892
-57.942
-58.7785
-63.174
-68.4471
-65.6348
-62.9502
-60.8449
-59.5934
-60.4071
-61.7354
-63.0973
-64.1468
-64.8796
-65.189
-58.2812
-58.3116
-59.0952
-62.3625
-66.8108
-65.2611
-63.3816
-60.6624
-59.5856
-60.1053
-61.885
-63.6045
-65.1196
-65.8623
-65.842
-64.8091
-58.9122
-59.1559
-60.266
-61.3374
-63.2789
-63.6945
-62.9892
-60.9346
-59.7578
-59.9845
-61.8273
-64.1335
-65.539
-66.5296
-67.0727
-66.2804
-59.4317
-59.4821
-60.0942
-60.1257
-60.2198
-61.582
-61.9561
-60.8849
-59.8288
-60.2461
-61.8049
-64.7204
-66.006
-67.4514
-68.6847
-67.3531
-65.5537
-60.3257
-60.1312
-60.084
-59.3883
-58.7771
-59.5446
-60.7553
-60.5988
-60.1082
-60.6711
-62.2162
-64.662
-65.9112
-67.4
-67.8076
-67.5739
-66.4496
-64.1985
-61.6648
-60.6803
-60.1246
-59.4853
-59.0302
-59.101
-60.0894
-60.3525
-60.3317
-60.8345
-61.775
-64.1526
-65.6253
-66.3235
-66.848
-66.5414
-65.0969
-63.8938
-62.5538
-63.0273
-61.6439
-60.6479
-59.8499
-59.3424
-59.5576
-60.1721
-60.5106
-60.7282
-61.0471
-61.7516
-63.0685
-64.4133
-64.8791
-65.3154
-64.9538
-64.153
-63.2321
-62.342
-61.3738
-65.1099
-63.4726
-61.9175
-60.7456
-60.4186
-60.183
-60.5542
-60.7428
-60.8525
-61.0547
-61.6326
-62.3366
-63.1271
-63.4444
-63.7748
-63.5478
-63.0212
-62.4351
-61.7959
-61.0396
-60.3094
-67.5526
-65.0354
-63.2621
-61.5907
-61.0006
-61.051
-61.0552
-61.112
-61.0351
-61.177
-61.3905
-61.9909
-62.3372
-62.4986
-62.4951
-62.3469
-62.0486
-61.6173
-61.1109
-60.5569
-60.0453
-59.513
-68.0544
-66.7241
-64.5659
-63.229
-62.1957
-61.9875
-61.957
-61.9007
-61.4865
-61.5509
-61.5259
-61.4992
-61.8247
-61.7406
-61.7741
-61.5101
-61.2358
-60.9391
-60.4861
-60.114
-59.7369
-59.3493
-59.0355
-68.0272
-66.8829
-65.5793
-64.2474
-63.4365
-62.9792
-62.6608
-62.4869
-62.5628
-62.2375
-61.9233
-61.2696
-61.5334
-61.2311
-61.0693
-60.9471
-60.6558
-60.3609
-60.0371
-59.7225
-59.4232
-59.1394
-58.8966
-58.6999
-66.8357
-65.5777
-65.168
-64.2253
-63.8513
-63.6817
-63.6131
-63.2564
-63.5448
-62.8674
-61.7715
-61.6274
-60.908
-60.6011
-60.5501
-60.0611
-59.992
-59.6471
-59.4067
-59.1619
-58.9228
-58.7411
-58.5789
-58.4562
-56.9871
-57.0549
-57.1534
-57.2356
-57.2426
-57.2285
-57.2522
-57.4105
-57.4711
-57.0887
-57.1517
-57.2087
-57.412
-57.5095
-57.6584
-57.2181
-57.2877
-57.3647
-57.4709
-57.6644
-57.8655
-57.9399
-57.077
-57.2221
-57.3675
-57.6052
-57.8277
-57.991
-58.1131
-58.2591
-57.1585
-57.2767
-57.5217
-57.8181
-57.9833
-58.1307
-58.3333
-58.4567
-58.6399
-57.1522
-57.3502
-57.5421
-57.8636
-58.0832
-58.3806
-58.4984
-58.6614
-58.7838
-58.9863
-57.2022
-57.425
-57.7275
-58.0926
-58.3796
-58.6466
-58.7804
-58.927
-59.0847
-59.3508
-59.4308
-57.2506
-57.5615
-57.7381
-58.5338
-58.7722
-59.0425
-59.1111
-59.12
-59.2651
-59.4751
-59.6673
-60.0135
-57.3204
-57.7505
-57.9639
-59.1337
-59.4044
-59.4168
-59.5688
-59.4848
-59.5615
-59.7311
-60.0567
-60.4765
-60.6554
-57.4022
-57.7392
-58.6453
-60.3509
-60.5525
-60.4459
-59.9987
-59.8255
-59.7819
-60.0338
-60.6861
-61.1539
-61.4138
-61.5756
-57.5506
-57.5656
-58.7848
-61.2071
-62.1536
-62.045
-60.9132
-60.0919
-59.8819
-60.264
-60.9402
-61.7671
-62.2173
-62.6667
-57.6347
-57.6883
-58.2813
-61.4972
-65.9134
-64.9095
-62.1456
-60.4694
-59.7706
-60.4529
-61.295
-62.2776
-63.1123
-63.6846
-63.9031
-57.888
-57.9614
-58.4477
-61.8198
-68.054
-66.6233
-63.5582
-61.0488
-59.6062
-60.2651
-61.1793
-62.7478
-63.9011
-64.7736
-65.4043
-64.2755
-58.2138
-58.3865
-58.981
-61.2013
-65.6776
-65.6408