/*--------------------------------*- C++ -*----------------------------------*\
  =========                 |
  \\      /  F ield         | OpenFOAM: The Open Source CFD Toolbox
   \\    /   O peration     | Website:  https://openfoam.org
    \\  /    A nd           | Version:  7
     \\/     M anipulation  |
\*---------------------------------------------------------------------------*/
FoamFile
{
    version     2.0;
    format      ascii;
    class       surfaceScalarField;
    location    "2";
    object      phi;
}
// * * * * * * * * * * * * * * * * * * * * * * * * * * * * * * * * * * * * * //

dimensions      [0 3 -1 0 0 0 0];

internalField   nonuniform List<scalar> 
54184
(
-7.24518e-05
-0.00404487
-5.29996e-05
-6.48262e-05
-0.00476501
-2.77506e-05
-9.91661e-05
-0.00394225
-5.893e-05
-2.88395e-05
-0.00388643
-6.41456e-05
1.39154e-05
-0.00548017
2.86216e-05
-0.000104994
-0.00473807
-2.91757e-05
-2.1649e-05
-0.00401617
-9.64148e-05
-0.000113413
-0.00382459
-5.59705e-05
-4.77632e-05
-0.00382596
-7.16335e-05
-6.23675e-06
-0.00365047
-6.09174e-05
0.00022685
-0.00520894
0.000192717
-4.8975e-05
-0.00552018
6.47618e-05
0.000100273
-0.00490222
-6.59625e-06
-0.000124892
-0.00469676
-5.26188e-05
-4.53647e-05
-0.00392387
-0.000123876
5.91156e-05
-0.00454851
-0.000125142
-0.000128347
-0.00369225
-5.92501e-05
-5.77124e-05
-0.00375265
-7.15625e-05
-3.01071e-05
-0.00362491
-6.70784e-05
6.46611e-05
-0.00469685
-5.20191e-05
0.000741904
-0.00515405
0.0001181
0.000234441
-0.00552436
0.000353494
0.000391879
-0.00543358
6.99084e-05
-5.99801e-05
-0.00551077
1.04552e-05
6.63792e-05
-0.00493104
-1.81704e-05
0.000236714
-0.00471164
-6.87214e-05
-0.000141315
-0.00465567
-5.22449e-05
-6.37449e-05
-0.00384524
-0.000125208
3.36765e-05
-0.00458128
-0.000154886
0.000135559
-0.00490296
-0.00016014
-0.000140743
-0.00354694
-5.86741e-05
-7.56694e-05
-0.00366511
-7.11227e-05
-3.17821e-05
-0.00359883
-6.58613e-05
4.95091e-05
-0.00475537
-5.80688e-05
0.000135119
-0.00389011
-4.73533e-05
0.00121477
-0.00449006
0.000123709
0.0007657
-0.00562509
0.000268663
0.000803518
-0.00461859
-6.80231e-05
0.000175537
-0.00576537
0.000298978
0.000403455
-0.00557028
0.00015312
0.000522202
-0.00536486
-0.000168636
-6.85701e-05
-0.00554481
8.06165e-05
5.88797e-05
-0.00500639
-3.68112e-05
0.000227233
-0.00480873
-0.000114643
0.000271915
-0.0046511
-0.00017741
-0.000168895
-0.00458783
-5.21117e-05
-7.86268e-05
-0.00376799
-0.000126545
4.17427e-05
-0.004633
-0.000147013
0.000101655
-0.00493282
-0.000177172
0.000266799
-0.00435051
-0.000149441
-0.000152645
-0.00338902
-5.88701e-05
-8.53821e-05
-0.00356783
-7.05695e-05
-5.03773e-05
-0.00355241
-6.7174e-05
3.36159e-05
-0.00479766
-5.71805e-05
0.000133425
-0.00402883
-5.27693e-05
0.000195294
-0.00276791
-4.02541e-05
0.00150463
-0.00324577
-0.000692793
0.00124038
-0.00515974
0.000452017
0.001385
-0.00488017
-0.000191738
0.000549598
-0.00597298
0.000330124
0.000838443
-0.00490246
0.000117549
0.000846349
-0.00485127
-0.000270554
4.9036e-05
-0.00583053
0.000222802
0.000404494
-0.00572384
0.000106923
0.000481522
-0.00531718
-0.000148848
0.000470451
-0.00449499
-0.000343265
-0.000111989
-0.00549764
1.95596e-05
9.52309e-05
-0.0051264
2.67625e-05
0.000203458
-0.00493936
-6.78876e-05
0.000248905
-0.00471671
-0.000196286
0.000370459
-0.00399551
-0.00020142
-0.000193739
-0.00450052
-6.29957e-05
-0.000109519
-0.00367021
-0.000125752
3.66291e-05
-0.00468876
-0.00015779
5.71562e-05
-0.00492543
-0.000177946
0.000231251
-0.00446208
-0.000163427
0.000362664
-0.00351568
-0.000104367
-0.000166631
-0.00321735
-5.98039e-05
-9.56621e-05
-0.00346013
-7.09077e-05
-5.9719e-05
-0.0034966
-6.66519e-05
1.5224e-05
-0.00482266
-5.74031e-05
0.000114623
-0.00414804
-5.25951e-05
0.000194903
-0.00297067
-4.49103e-05
0.000226577
-0.00199746
-5.42612e-05
0.00186648
-0.00237488
-0.00135572
0.00164191
-0.0035968
-0.000505651
0.00187953
-0.0039641
-0.00086437
0.000992194
-0.00586843
0.000743901
0.00149363
-0.0051491
6.57556e-05
0.00132098
-0.00456833
-0.000446033
0.000198124
-0.00604833
0.00038303
0.000712219
-0.00506672
0.000186664
0.000862032
-0.00490895
-0.000205276
0.000701484
-0.0044928
-0.000422031
-0.000118906
-0.00576988
0.000251483
0.000412416
-0.00587296
5.4735e-05
0.00040337
-0.00526836
-0.000141809
0.000476563
-0.00448892
-0.000382577
0.000399832
-0.00371247
-0.000297781
-0.000156217
-0.00546931
4.72355e-05
4.66453e-06
-0.00519325
-2.77765e-05
0.000197083
-0.00499584
-7.72124e-05
0.000203275
-0.00474109
-0.000189622
0.000291771
-0.00403833
-0.00021398
0.000427594
-0.00309251
-0.000183832
-0.000208527
-0.00440989
-6.16924e-05
-0.000126008
-0.0035738
-0.000129061
3.18579e-05
-0.00474879
-0.0001573
2.57174e-05
-0.00491299
-0.000180719
0.000154896
-0.00451988
-0.00016042
0.000370478
-0.00374266
-0.000112024
0.000446865
-0.00314837
-9.44366e-05
-0.000174022
-0.00303869
-5.94408e-05
-0.000104677
-0.00334421
-7.10492e-05
-6.96252e-05
-0.00343225
-6.56398e-05
2.01337e-06
-0.00483449
-5.68369e-05
9.03232e-05
-0.00424281
-5.2957e-05
0.000173989
-0.00315197
-4.52915e-05
0.000240939
-0.00222308
-6.02283e-05
0.000213173
-0.00146185
-5.06067e-05
0.00214757
-0.00260815
-0.000499291
0.00204765
-0.00262846
-0.00136365
0.00216544
-0.00283629
-0.00134853
0.00150615
-0.00406032
-0.000179302
0.00212725
-0.00426479
-0.000838577
0.00160416
-0.00334538
-0.000953323
0.000582459
-0.00619682
0.000704364
0.00135322
-0.00544575
0.000399553
0.00144212
-0.00471991
-0.000362748
0.000840148
-0.00386164
-0.000530129
-0.000135346
-0.00597533
0.000484802
0.000636342
-0.00512667
0.000219052
0.000788131
-0.00497531
-0.000131737
0.000750846
-0.00454478
-0.000427581
0.000432136
-0.00336127
-0.000390017
-0.00019736
-0.00565132
0.000262091
0.000244061
-0.005925
6.41325e-05
0.000370854
-0.00531093
-7.6468e-05
0.000466876
-0.00453453
-0.000359803
0.000338215
-0.00377935
-0.000362139
0.000397159
-0.00308968
-0.000224611
-0.000185488
-0.00540141
3.35369e-05
-4.83772e-05
-0.00521558
-8.05722e-06
0.000167669
-0.0050886
-7.08352e-05
0.000150722
-0.00474413
-0.000199181
0.00019767
-0.00404051
-0.000230217
0.000452216
-0.00319695
-0.00019128
0.000626881
-0.00289073
-0.000197656
-0.000221783
-0.00431489
-6.62485e-05
-0.000140096
-0.00347261
-0.000127459
2.46456e-05
-0.00481471
-0.000157413
-2.36353e-05
-0.00486217
-0.000182476
0.000130865
-0.00458582
-0.000155315
0.00032554
-0.00394599
-0.000108643
0.000466476
-0.00338566
-0.000100271
0.000410701
-0.00265711
-0.000121247
-0.000189739
-0.00284453
-6.09387e-05
-0.000120413
-0.00321283
-7.04052e-05
-8.49245e-05
-0.0033518
-6.65739e-05
-2.7282e-05
-0.00481719
-5.56567e-05
6.93374e-05
-0.00431587
-5.31098e-05
0.000155843
-0.00331485
-4.59186e-05
0.000229343
-0.00243818
-5.95421e-05
0.000232044
-0.00169674
-5.73848e-05
0.000213362
-0.000395752
-3.95537e-05
0.00277671
-0.00353319
0.00238119
0.00268494
-0.00326868
0.000160241
0.00228654
-0.00252627
-0.000592061
0.0026313
-0.00184091
-0.000671251
0.00201644
-0.00281548
-0.00109322
0.00251553
-0.00314515
-0.00144307
0.00161044
-0.00214768
-0.00121702
0.00109802
-0.00452016
7.00761e-05
0.00214227
-0.00453289
-0.000700255
0.00190847
-0.00362764
-0.00102267
0.000820056
-0.00277548
-0.000940892
0.000270389
-0.00628734
0.000627215
0.00122146
-0.00568711
0.000360613
0.00136743
-0.00467944
-0.000220214
0.000926478
-0.00383793
-0.000562091
0.000300554
-0.00303187
-0.000527319
-0.000180984
-0.00600546
0.000624052
0.000607611
-0.00528791
0.000282486
0.000746743
-0.00507485
-5.72957e-05
0.000815092
-0.0046522
-0.000372528
0.00043172
-0.00343198
-0.000450378
0.000397443
-0.00320236
-0.000389362
-0.000238427
-0.00550122
0.000266841
8.57016e-05
-0.00582246
2.54715e-05
0.000294572
-0.00533323
-4.0462e-05
0.000372654
-0.00457421
-0.000258724
0.000316796
-0.00393214
-0.000326145
0.00045503
-0.00315504
-0.000299596
0.000693421
-0.00261586
-0.000284259
-0.000199738
-0.00527323
5.22663e-06
-8.53085e-05
-0.00521442
-2.24169e-05
0.000134395
-0.00514287
-6.3533e-05
5.31484e-05
-0.00468158
-0.000210169
0.000178722
-0.00404778
-0.000239766
0.000416051
-0.00331901
-0.000198661
0.000653666
-0.00306237
-0.000206834
0.000574428
-0.00257181
-0.000272295
-0.000267021
-0.00418779
-7.40532e-05
-0.000169924
-0.00337454
-0.000114805
-3.90009e-06
-0.00487119
-0.000152006
-5.60575e-05
-0.00481022
-0.000180591
8.11277e-05
-0.00462489
-0.000155195
0.000281115
-0.00412539
-0.000101184
0.000428269
-0.00358276
-0.000110466
0.000448227
-0.00284808
-0.000125482
0.000338123
-0.00224568
-0.000151602
-0.000197079
-0.00264362
-6.25188e-05
-0.000132203
-0.00307063
-7.09429e-05
-9.50993e-05
-0.00326115
-6.59531e-05
-5.6011e-05
-0.00477126
-5.6486e-05
4.53643e-05
-0.00436372
-5.318e-05
0.000141946
-0.00346341
-4.64947e-05
0.000221264
-0.00264614
-5.92185e-05
0.000225498
-0.00192634
-5.54374e-05
0.000239004
-0.000647576
-4.45651e-05
0.000194108
-0.00120969
-5.26424e-05
0.00240213
-0.00580274
0.00366033
0.00292282
-0.00360551
0.00216972
0.0021334
-0.00312904
0.0025344
0.00292403
-0.00343894
8.38644e-05
0.00263851
-0.00210596
0.000424412
0.00233502
-0.00246654
-0.000849249
0.00301469
-0.00208798
-0.000844151
0.00143964
-0.000726645
-0.000523716
0.0017826
-0.00300549
-0.000868512
0.00261174
-0.00333235
-0.0013755
0.00206427
-0.00239801
-0.00134854
0.000532399
-0.00163571
-0.000976375
0.000772944
-0.00479437
0.000215665
0.00210337
-0.00491122
-0.000433508
0.0020034
-0.00397627
-0.000987598
0.000967259
-0.0029236
-0.000915331
9.55087e-05
-0.00233835
-0.000835805
0.000159659
-0.00623485
0.000676125
0.00119749
-0.00585192
0.000202134
0.00127361
-0.00469158
-0.00015412
0.000943296
-0.00368761
-0.000498737
0.000342656
-0.0029667
-0.000538197
0.000244432
-0.00292936
-0.000473742
-0.000222007
-0.00599984
0.000631987
0.00044281
-0.00546543
0.000444465
0.000670942
-0.00516312
-5.61847e-06
0.000728764
-0.00474155
-0.000324066
0.000424698
-0.00344178
-0.000470629
0.000411303
-0.00313711
-0.000471904
0.000699624
-0.00250901
-0.000451624
-0.000227737
-0.00536289
0.000269639
2.02126e-06
-0.0056452
2.25086e-06
0.000212096
-0.00521808
-0.000167387
0.000254588
-0.00459175
-0.000224353
0.000259745
-0.00398133
-0.00029055
0.000374808
-0.00314714
-0.000292803
0.000690435
-0.00264997
-0.000302249
0.000732465
-0.00214497
-0.000394336
-0.000263105
-0.0051275
-1.12352e-05
-0.000103545
-0.00522664
-4.8927e-05
8.68018e-05
-0.0051717
-8.42908e-05
2.42215e-05
-0.00462648
-0.000198908
9.91492e-05
-0.0040127
-0.000263276
0.000436
-0.00354165
-0.000172016
0.000588227
-0.00324108
-0.000179906
0.000640439
-0.00269587
-0.000274987
0.000474992
-0.00240888
-0.000352248
-0.000293501
-0.00403951
-9.64853e-05
-0.000179531
-0.00329014
-0.000111129
-4.69074e-05
-0.00488848
-0.000145708
-0.000104404
-0.00473717
-0.000176657
5.0195e-05
-0.00465857
-0.00015175
0.000237627
-0.00427614
-0.000100129
0.000383831
-0.0037395
-0.00010701
0.000431563
-0.00303456
-0.000130053
0.000371068
-0.00234378
-0.000159443
0.000347209
-0.00238846
-0.000217058
-0.000212965
-0.00242691
-6.21345e-05
-0.000139565
-0.00292293
-7.06456e-05
-0.000104001
-0.0031618
-6.62968e-05
-6.68497e-05
-0.00471498
-5.53836e-05
2.79359e-05
-0.00439463
-5.35127e-05
0.000125092
-0.00359492
-4.67614e-05
0.000211703
-0.00284647
-5.78634e-05
0.000220649
-0.00215316
-5.3049e-05
0.000250289
-0.000909832
-4.34705e-05
0.000213885
-0.00141099
-5.71485e-05
0.000163246
-0.00211435
-7.587e-05
0.00248966
-0.00622615
0.00410105
0.00233387
-0.00557368
0.0034941
0.00185266
-0.00458039
0.00395699
0.00357328
-0.00365985
0.00205181
0.00255188
-0.00334913
0.00247643
0.000456824
-0.00229232
0.00273436
0.00285218
-0.00358252
0.000187643
0.00328
-0.0026414
0.000353987
0.000782104
-0.000854248
0.000912321
0.00235407
-0.00251593
-0.00121515
0.00302096
-0.00228306
-0.00106339
0.00206835
-0.000912154
-0.000662724
0.000173491
-0.000309785
-0.000143304
0.00148923
-0.00323073
-0.000594556
0.00269879
-0.00354968
-0.0012466
0.00234822
-0.00271971
-0.00139862
0.000682183
-0.00160958
-0.00108959
-0.000205671
-0.00139378
-0.00074237
0.00048317
-0.00477449
0.000270483
0.00194801
-0.00517323
-0.000272841
0.0020515
-0.00438573
-0.000801932
0.00100964
-0.00305656
-0.00092098
0.000178627
-0.00238395
-0.000705701
-4.89157e-05
-0.00232986
-0.000589224
-0.000174898
-0.00597876
0.000751997
0.00114073
-0.00600342
0.000129706
0.00118483
-0.00482307
-0.000180259
0.00101299
-0.00367396
-0.000451993
0.000370059
-0.00286871
-0.000542085
0.000293441
-0.00291977
-0.000429927
0.000818278
-0.00235729
-0.000523655
-0.000324338
-0.00592241
0.000596535
0.000285563
-0.00563069
0.000513708
0.000586988
-0.00512757
3.40217e-05
0.000641267
-0.00485729
-0.000276551
0.000358873
-0.00339161
-0.000473367
0.000315447
-0.00308056
-0.00046782
0.000702913
-0.00244939
-0.000543998
0.000943117
-0.00175228
-0.000614179
-0.00033678
-0.00517688
0.000298423
-2.03209e-05
-0.00544054
-1.82513e-05
0.000138232
-0.00512984
-0.000137418
0.000202236
-0.00462155
-0.000315606
0.000216521
-0.00395579
-0.000367267
0.00045565
-0.00319033
-0.000267006
0.000610185
-0.00265167
-0.000313062
0.000787038
-0.00220767
-0.00038615
0.000706599
-0.00204411
-0.00053909
-0.000327274
-0.00492909
-5.69569e-05
-0.000133648
-0.00522341
-6.03538e-05
1.57186e-05
-0.00518642
-9.68257e-05
-4.84927e-05
-0.00454061
-0.000226076
9.75978e-05
-0.0040145
-0.000244506
0.000268458
-0.0036457
-0.000190052
0.000518959
-0.00346376
-8.44619e-05
0.00063483
-0.0028543
-0.000224742
0.000547245
-0.00248928
-0.000370761
0.000518135
-0.00191411
-0.000425836
-0.000334521
-0.00387429
-0.000102989
-0.000194981
-0.00321469
-0.000116526
-7.24142e-05
-0.00488841
-0.000142787
-0.000142475
-0.00463091
-0.000176342
1.11325e-05
-0.00467196
-0.000146462
0.00017459
-0.00437944
-9.7946e-05
0.000340012
-0.00387425
-9.36901e-05
0.000438601
-0.00325826
-0.000101261
0.000390558
-0.00246013
-0.000153971
0.000367863
-0.00247155
-0.000230335
0.00035928
-0.00174624
-0.000279675
-0.000225322
-0.00219772
-6.26206e-05
-0.000151156
-0.00276245
-7.14625e-05
-0.000117016
-0.00304954
-6.58824e-05
-8.4141e-05
-0.00464269
-5.44474e-05
7.78427e-06
-0.00440468
-5.31164e-05
0.000105901
-0.0037085
-4.58374e-05
0.000197545
-0.00303396
-5.68193e-05
0.000218657
-0.00238011
-4.95722e-05
0.000267294
-0.00118773
-4.24432e-05
0.000208862
-0.00160674
-5.65836e-05
0.000171254
-0.00226271
-8.00502e-05
0.000158096
-0.000913868
-8.81515e-05
0.00133464
-0.00537362
0.00448399
0.0021223
-0.00516605
0.00445464
0.00199764
-0.0062699
0.00404745
0.00133065
-0.00561538
0.00465033
0.00288688
-0.00532419
0.00357127
0.00230606
-0.00467457
0.0038341
0.00049763
-0.00460674
0.0039085
0.00338071
-0.00390023
0.00178469
0.00306423
-0.00353791
0.00245637
0.000401499
-0.00214918
0.0027139
-0.000766343
-0.00258385
0.00267175
0.00286358
-0.00383591
0.000355633
0.00334526
-0.0031741
0.000396043
0.00168647
-0.000957333
0.000838959
-0.000204736
-0.000946757
0.000976791
0.00217918
-0.00246934
-0.00122628
0.00302781
-0.00254229
-0.00128493
0.00242294
-0.00131093
-0.000739328
0.000258378
-0.000333818
-0.000214886
-0.0005012
-0.00100385
9.88595e-05
0.00112101
-0.00336787
-0.000321161
0.0026467
-0.00377188
-0.00107105
0.0025963
-0.00308512
-0.00142599
0.000908208
-0.00176979
-0.00113698
-0.000134779
-0.00132829
-0.00084168
-0.000396172
-0.00191808
-0.000565535
2.22902e-05
-0.00487363
0.000807755
0.00183379
-0.00562831
3.25066e-05
0.00208968
-0.00494478
-0.000618638
0.0012075
-0.00323831
-0.000814688
0.00023784
-0.00242287
-0.000749841
9.32244e-05
-0.00229352
-0.000541829
0.000958695
-0.00254707
-0.000429847
-0.000425536
-0.00565931
0.000841645
0.000836108
-0.00599975
0.000197776
0.00111201
-0.00491987
-0.000298524
0.00106705
-0.00384758
-0.000432415
0.000386961
-0.00283122
-0.00051757
0.000209894
-0.00288685
-0.000469447
0.000785362
-0.00266611
-0.000203559
0.00127328
-0.00186785
-0.000662536
-0.000496676
-0.00574687
0.00057566
0.000121874
-0.00564627
0.000469923
0.00051508
-0.0050994
0.000108691
0.000505417
-0.0048525
-0.000273952
0.000421991
-0.00343136
-0.000442273
0.000292433
-0.00292354
-0.000467167
0.000678615
-0.00255279
-0.000432849
0.00111417
-0.0019247
-0.000698705
0.00102148
-0.00138951
-0.000748908
-0.000414561
-0.00496567
0.000315969
-6.26107e-05
-0.00523586
2.27122e-05
0.000104259
-0.00507007
-0.00016656
0.000133696
-0.0046688
-0.000272355
0.000170089
-0.00399357
-0.000350313
0.000269409
-0.00321163
-0.000346923
0.000550606
-0.00264122
-0.000309099
0.00081096
-0.00230034
-0.000396522
0.00078313
-0.00212247
-0.000543672
0.000797018
-0.00131005
-0.000608996
-0.000411413
-0.00467515
-4.87141e-05
-0.000190788
-0.0051687
-0.000115854
-4.15733e-05
-0.00515728
-0.000120337
-0.000100661
-0.00444842
-0.000230827
6.0779e-05
-0.00400877
-0.000281453
0.000212127
-0.00375448
-0.000173262
0.000471896
-0.00368758
-9.81202e-05
0.000654342
-0.0029735
-0.000181002
0.000571441
-0.00256724
-0.000327665
0.000567014
-0.00203111
-0.000452917
0.000551233
-0.00103914
-0.000465205
-0.000369958
-0.00367571
-0.000110065
-0.000243403
-0.00310895
-0.000116482
-0.000122744
-0.00485298
-0.000146223
-0.000182416
-0.00449916
-0.000176264
-1.57745e-05
-0.00467952
-0.000145224
0.000164285
-0.00448649
-9.78001e-05
0.000316092
-0.00400095
-8.97929e-05
0.000422321
-0.00342812
-0.000127491
0.000390905
-0.00256543
-0.00011957
0.000349649
-0.00253947
-0.000226832
0.000381989
-0.00187902
-0.000308295
0.000279664
4.77963e-05
-0.000275294
-0.000235525
-0.00195963
-6.22487e-05
-0.000156269
-0.00259725
-7.15557e-05
-0.00012709
-0.00292797
-6.59439e-05
-9.90061e-05
-0.0045562
-5.33669e-05
-1.00389e-05
-0.00439758
-5.15091e-05
8.44183e-05
-0.00380137
-4.46563e-05
0.00018648
-0.003211
-5.52847e-05
0.000211184
-0.00260105
-4.70581e-05
0.000251182
-0.00144887
-3.96134e-05
0.000202719
-0.00179504
-5.68686e-05
0.000165355
-0.00240832
-7.63197e-05
0.000180558
-0.0010807
-9.37747e-05
0.000122793
-0.000484938
-8.83533e-05
0.00109452
-0.00488537
0.00473507
0.00157894
-0.00514422
0.00434076
0.00117297
-0.00568268
0.00459014
0.00166723
-0.0052209
0.00443243
0.00118581
-0.00562499
0.00468451
0.00199226
-0.00600131
0.00444796
0.00171744
-0.0056062
0.00462689
0.000744036
-0.0056919
0.00452937
0.00303131
-0.00521615
0.0033338
0.00281009
-0.00497661
0.00412745
0.000262013
-0.00454233
0.00390918
-0.000770258
-0.0045112
0.00366835
0.00306487
-0.00401399
0.00188022
0.00347944
-0.00400983
0.00212244
0.00124331
-0.00203287
0.00278321
-0.000675071
-0.00197643
0.00257681
-0.000668336
-0.00350903
0.00252979
0.00277072
-0.00395406
0.000257641
0.00317336
-0.00329358
0.000329556
0.00250858
-0.0013357
0.000688767
-7.65496e-05
-0.000768586
0.000995717
-0.000533954
-0.00231518
0.000820642
0.0020368
-0.00280766
-0.00105385
0.00305279
-0.00286218
-0.00131249
0.00282347
-0.00191674
-0.000906291
0.000549698
-0.000415841
-0.000298794
-0.000415627
-0.000565843
-0.000372041
-0.00059071
-0.00191673
5.22839e-06
0.000712465
-0.00342812
-0.000140077
0.00254144
-0.00396019
-0.000840507
0.00278401
-0.0035432
-0.0013073
0.00123699
-0.00205518
-0.00117009
3.44988e-05
-0.00141022
-0.000851702
-0.000226308
-0.0017776
-0.000662622
0.000672321
-0.00249117
-0.00029902
-0.000208518
-0.00513702
0.0010938
0.00147809
-0.00620247
0.000739937
0.00207919
-0.00557571
-0.000303742
0.00149994
-0.0035918
-0.000698056
0.000413405
-0.00252355
-0.000740452
1.60325e-05
-0.00228036
-0.000569136
0.000894911
-0.00278968
-0.000408768
0.0014084
-0.00226085
-0.000495512
-0.000580326
-0.00536505
0.000854378
0.000498878
-0.00588681
0.000351708
0.000983769
-0.00495877
-0.000232008
0.000926621
-0.00410278
-0.000464536
0.000541143
-0.00288073
-0.000502052
0.000246054
-0.00288545
-0.000472597
0.000801447
-0.00277823
-0.000480155
0.00149511
-0.00208121
-0.000371142
0.00134536
-0.0016898
-0.000735412
-0.000625434
-0.00550683
0.000567242
2.31905e-05
-0.00557819
0.000421775
0.000488757
-0.00510562
9.16398e-05
0.000454124
-0.00485368
-0.000210555
0.000386709
-0.0034712
-0.000450731
0.000336286
-0.00295486
-0.000477828
0.000621659
-0.00265663
-0.000434385
0.00105678
-0.00203042
-0.00057295
0.00105319
-0.00153983
-0.000818437
0.00106634
-0.000474526
-0.000835384
-0.000463024
-0.00477035
0.000322806
-9.52388e-05
-0.00509141
7.59622e-05
9.70237e-05
-0.00509386
-9.20888e-05
0.000103774
-0.00475667
-0.000283126
0.000140184
-0.00395091
-0.00039442
0.000311812
-0.00333857
-0.000323051
0.000566807
-0.00276583
-0.000317225
0.000802021
-0.002383
-0.000374118
0.000747207
-0.00218401
-0.000510752
0.000853218
-0.00148178
-0.000658141
0.000686255
-6.6018e-05
-0.00066258
-0.000463547
-0.00437608
-0.000104074
-0.000263078
-0.00507428
-0.000123465
-0.000108616
-0.00511875
-0.000168513
-0.000151918
-0.00435299
-0.000246271
4.53953e-05
-0.00402641
-0.000274359
0.000202028
-0.0038577
-0.000215977
0.000382034
-0.00380473
-0.000122051
0.000630622
-0.00310605
-0.000173878
0.000516123
-0.00254487
-0.000328589
0.000582122
-0.00215362
-0.000437626
0.000544283
-0.00114881
-0.000505537
0.000363383
0.000488395
-0.000473267
-0.000411559
-0.00345076
-0.000106479
-0.000238387
-0.00301027
-0.000126626
-0.000158544
-0.00478439
-0.000153617
-0.000202711
-0.00436215
-0.000179523
-4.43936e-05
-0.0046857
-0.000135725
0.000130186
-0.00458235
-9.5133e-05
0.000313384
-0.00412862
-9.70272e-05
0.000408258
-0.00360125
-0.000113743
0.000339698
-0.00263458
-0.000146859
0.000339854
-0.00258474
-0.000211433
0.000375262
-0.00201737
-0.000298386
0.000332483
-0.00010759
-0.000304834
0.000114696
0.000826544
-0.000250638
-0.00024466
-0.00171237
-6.34816e-05
-0.00016475
-0.00242384
-7.0904e-05
-0.000135174
-0.00279905
-6.53014e-05
-0.000109276
-0.0044592
-5.36657e-05
-2.82184e-05
-0.00437223
-5.04971e-05
6.5055e-05
-0.00387347
-4.44707e-05
0.000168776
-0.00337322
-5.12061e-05
0.000196699
-0.0028097
-4.33401e-05
0.000250015
-0.00170863
-3.73142e-05
0.000200718
-0.00198002
-5.53452e-05
0.000161937
-0.00255442
-7.27092e-05
0.000181116
-0.00124959
-8.85507e-05
0.000145855
-0.000627312
-9.7255e-05
0.000128729
0.000669774
-7.72265e-05
0.000820237
-0.00442994
0.00511911
0.0012816
-0.00489705
0.00475465
0.000906844
-0.00479373
0.00498764
0.00143909
-0.00510702
0.00415948
0.00117864
-0.00591362
0.00457888
0.000477998
-0.00528574
0.00482695
0.00187134
-0.00542814
0.00475619
0.00156413
-0.00568021
0.00464096
0.000736516
-0.00557233
0.00478838
0.00192592
-0.00556932
0.00436031
0.00291514
-0.00612605
0.00486276
0.000253846
-0.00566866
0.00461182
-0.000529802
-0.00558983
0.00435599
0.00299698
-0.0055817
0.00343861
0.00287039
-0.0049935
0.00395974
0.00106551
-0.00452984
0.00429276
-0.000713493
-0.0042717
0.00370811
-0.000693961
-0.00513806
0.00343539
0.00304547
-0.00408923
0.00168142
0.00318449
-0.00418022
0.00203948
0.00241383
-0.00240477
0.00258909
-0.00065368
-0.00133431
0.00271822
-0.000744581
-0.00320305
0.00248146
-0.000594991
-0.00337862
0.00226933
0.00265686
-0.0039473
0.000146035
0.00331937
-0.00331838
1.58592e-05
0.00310139
-0.00168001
0.000395946
0.000172021
-0.00046412
0.000761976
-0.000781533
-0.00181025
0.000856693
-0.000657027
-0.0027646
0.000776471
0.00172968
-0.00306383
-0.000315206
0.00302504
-0.00323741
-0.00116222
0.00322363
-0.00249069
-0.00117816
0.00105693
-0.000776449
-0.000365627
-0.000212188
-0.000294186
-0.000323765
-0.000420726
-0.00162897
-0.000465383
0.000134587
-0.00235426
5.92841e-05
0.000474747
-0.00362917
0.00016345
0.00228383
-0.00430727
-0.000598738
0.00290116
-0.00405985
-0.00114583
0.00161235
-0.00230962
-0.00116527
0.000228049
-0.00153232
-0.00086264
-0.000256346
-0.00160129
-0.00075564
0.000681842
-0.00251121
-0.000429514
0.00120708
-0.00270513
-8.72289e-05
-0.000478038
-0.00521551
0.0011777
0.00104532
-0.00673292
0.00107781
0.00194061
-0.00592447
0.000131857
0.00161677
-0.00394481
-0.000640879
0.000611703
-0.00254983
-0.000742339
7.68444e-05
-0.00223795
-0.000613658
0.000760721
-0.00278773
-0.00053036
0.00150574
-0.00221131
-0.000468937
0.00157546
-0.00235291
-0.000649638
-0.000659579
-0.00517998
0.000955194
0.000368679
-0.00582077
0.000442843
0.000925977
-0.00496529
-7.89915e-05
0.000882648
-0.00437016
-0.00039315
0.000573138
-0.00301516
-0.000516535
0.000363822
-0.00293352
-0.000481513
0.000691671
-0.00287383
-0.000447014
0.00118142
-0.00206723
-0.000618773
0.00145737
-0.00166602
-0.000799113
0.00132135
-0.000801625
-0.00078448
-0.000460873
-0.00539356
0.000509461
-3.86674e-05
-0.00546938
0.000401861
0.000472527
-0.00519437
0.00013503
0.000400216
-0.00474519
-0.000313298
0.000352752
-0.0035595
-0.000334818
0.000386808
-0.00299296
-0.000487628
0.000595824
-0.00275528
-0.000408194
0.00105262
-0.00216102
-0.00055438
0.00103937
-0.00157666
-0.000828292
0.00108159
-0.000606254
-0.000915077
0.000818073
0.000436419
-0.000831154
-0.000551294
-0.00456663
0.000355276
-6.9209e-05
-0.00510763
0.000145161
9.72284e-05
-0.00519264
-3.1107e-05
0.000134118
-0.00489335
-0.000241446
0.000143169
-0.00395123
-0.000380585
0.000205807
-0.00337713
-0.000359643
0.000476241
-0.00290888
-0.000274213
0.000795098
-0.00253714
-0.000327565
0.000725917
-0.00227704
-0.00049088
0.000812148
-0.00159503
-0.00062753
0.000692423
-0.000132294
-0.000740006
0.000445112
0.00107906
-0.000650895
-0.000516372
-0.00408328
-0.000114648
-0.000246634
-0.0049814
-0.000188707
-0.000171027
-0.00505338
-0.000176354
-0.000163796
-0.004306
-0.000254418
2.47836e-05
-0.00407343
-0.000268422
0.000180487
-0.00397946
-0.000202907
0.000383238
-0.00393391
-0.000156653
0.000633852
-0.00328236
-0.000171331
0.00052112
-0.00259236
-0.000307812
0.000563825
-0.00228901
-0.000417166
0.000536722
-0.00126386
-0.000484038
0.000436188
0.000391208
-0.000512055
0.00012747
0.00172901
-0.000450323
-0.00044038
-0.00322374
-9.91898e-05
-0.000267722
-0.00288192
-0.000131852
-0.000170495
-0.00473915
-0.000136549
-0.000207097
-0.00423722
-0.000180734
-7.33911e-05
-0.00468672
-0.000133328
0.000109614
-0.00467276
-8.98717e-05
0.000292255
-0.00426414
-8.30959e-05
0.000394038
-0.00378481
-0.000110799
0.000346831
-0.002711
-0.000134138
0.000332039
-0.00266464
-0.000198285
0.000378946
-0.00215803
-0.000287779
0.000344813
-0.000271336
-0.000298336
0.000176343
0.000769051
-0.000277829
0.000201429
0.00119618
-0.000228401
-0.000257092
-0.00145275
-6.31951e-05
-0.0001725
-0.00224385
-7.09668e-05
-0.00014317
-0.00266209
-6.46956e-05
-0.000136809
-0.00433485
-5.28494e-05
-5.64646e-05
-0.00431816
-5.12696e-05
5.23221e-05
-0.00393127
-4.50125e-05
0.000152417
-0.00351837
-5.17353e-05
0.000187118
-0.00300683
-4.11902e-05
0.00024749
-0.00196506
-3.44011e-05
0.000194418
-0.00215736
-5.43986e-05
0.000158223
-0.00269852
-6.94683e-05
0.000175091
-0.00141444
-8.29484e-05
0.000159139
-0.000780834
-9.41682e-05
0.000139263
0.000518886
-8.56301e-05
5.18918e-05
0.00148491
-6.28801e-05
0.000749675
-0.00423932
0.00528707
0.000986065
-0.00449672
0.00509713
0.000635757
-0.00439373
0.00526854
0.000977273
-0.00490383
0.00467588
0.00109203
-0.00499318
0.0050407
0.000194425
-0.00496691
0.00512806
0.00187244
-0.00534108
0.00451791
0.00127916
-0.00599045
0.00452128
0.000401385
-0.00518646
0.00481473
-0.000258125
-0.0053226
0.00473804
0.00140754
-0.00524433
0.00468415
0.00272732
-0.00577331
0.00503712
0.000419518
-0.00590919
0.00481215
-0.000188385
-0.00554329
0.00461191
0.00243565
-0.00564217
0.00414392
0.00248087
-0.00617353
0.00479731
0.00102574
-0.00587673
0.0051106
-0.00042708
-0.00566816
0.00440374
-0.000418793
-0.00531236
0.00413761
0.00273456
-0.00567434
0.00312476
0.00284914
-0.00514688
0.00392733
0.00209361
-0.00459355
0.00434366
-0.00067947
-0.0039926
0.00403945
-0.000976725
-0.00473021
0.0035324
-0.000597749
-0.00495415
0.00330029
0.00292949
-0.00408695
0.0013383
0.00353607
-0.0042642
0.00154871
0.00296996
-0.00240772
0.00217386
-0.000145408
-0.000990502
0.00256271
-0.001059
-0.00276362
0.00255626
-0.000871295
-0.00324342
0.00256053
-0.000270508
-0.00421703
0.00217716
0.00242966
-0.00386491
-0.000326101
0.00333487
-0.00331443
-0.000167734
0.00363386
-0.00225439
0.000180005
0.000739297
-0.000269132
0.000518595
-0.000608372
-0.00140853
0.000756443
-0.000680771
-0.00242558
0.00077772
-0.00024015
-0.00298805
0.000871167
0.00135578
-0.00314589
-0.000344864
0.00285578
-0.00311465
-0.00100991
0.00350404
-0.00298316
-0.00127262
0.00148013
-0.0011183
-0.00070409
5.18916e-05
-0.000189874
-0.000293782
-0.000520729
-0.00140441
-0.00028394
8.04431e-05
-0.00215221
-6.60343e-05
0.000856279
-0.00310625
0.000207118
0.000135914
-0.00385845
0.000634824
0.00200806
-0.00501237
-9.41925e-05
0.00292336
-0.00468658
-0.000954753
0.00193322
-0.00261885
-0.00115305
0.000490036
-0.00164987
-0.000926043
-0.000174565
-0.00145726
-0.000755257
0.000357086
-0.00231543
-0.000547789
0.00118958
-0.00265076
-0.000167734
0.00169001
-0.00324002
-0.000134089
-0.000493747
-0.00532572
0.0012501
0.000710737
-0.0069504
0.00105312
0.00177714
-0.0060653
0.00036748
0.00167143
-0.00405147
-0.000550262
0.000782948
-0.00266719
-0.000733329
0.000195116
-0.00219051
-0.000621067
0.00059712
-0.00273644
-0.000570393
0.00125199
-0.00223339
-0.000578851
0.00167521
-0.00240317
-0.000636518
0.00168419
-0.00167095
-0.000722671
-0.000516432
-0.00505469
0.000918645
0.000238421
-0.00576677
0.000624107
0.000815117
-0.00492896
6.39172e-05
0.000821498
-0.00456461
-0.000305822
0.000609754
-0.0031748
-0.000490517
0.000307235
-0.00285585
-0.000514632
0.000603289
-0.00288909
-0.000473712
0.00114128
-0.00208927
-0.000513628
0.00141198
-0.00190323
-0.000754161
0.00148836
-0.00114424
-0.000863267
0.000894681
-6.34729e-05
-0.000818494
-0.000555861
-0.00525173
0.000479529
1.11035e-05
-0.0054295
0.000389275
0.000425573
-0.0051989
7.80409e-05
0.000448354
-0.00472592
-0.000198473
0.000345238
-0.00361379
-0.000461079
0.000322604
-0.00304515
-0.000399429
0.000550149
-0.0029243
-0.000392517
0.00102474
-0.00231025
-0.000488602
0.00106526
-0.00165079
-0.000819586
0.00102255
-0.000749989
-0.000894956
0.00101339
0.000114741
-0.000914369
0.000497945
0.00103243
-0.000818242
-0.00063611
-0.0043747
0.000390874
-0.000126606
-0.00505785
0.000185461
3.68221e-05
-0.00525022
-5.1121e-06
7.59934e-05
-0.00495722
-0.000207024
9.33924e-05
-0.00386906
-0.00039222
0.000190869
-0.0034166
-0.000351492
0.000486407
-0.0031065
-0.000265194
0.00079689
-0.0027101
-0.000264286
0.000747296
-0.00234606
-0.000484719
0.000767559
-0.00169659
-0.000593057
0.00075744
-0.000274828
-0.000705714
0.000531589