/*--------------------------------*- C++ -*----------------------------------*\
  =========                 |
  \\      /  F ield         | OpenFOAM: The Open Source CFD Toolbox
   \\    /   O peration     | Website:  https://openfoam.org
    \\  /    A nd           | Version:  7
     \\/     M anipulation  |
\*---------------------------------------------------------------------------*/
FoamFile
{
    version     2.0;
    format      ascii;
    class       surfaceScalarField;
    location    "2";
    object      phi_0;
}
// * * * * * * * * * * * * * * * * * * * * * * * * * * * * * * * * * * * * * //

dimensions      [0 3 -1 0 0 0 0];

internalField   nonuniform List<scalar> 
54184
(
-7.20301e-05
-0.00404109
-5.2738e-05
-6.42164e-05
-0.00476489
-2.61272e-05
-9.80315e-05
-0.00394007
-5.84127e-05
-2.90179e-05
-0.0038954
-6.38407e-05
1.46284e-05
-0.00547174
2.96111e-05
-0.000104191
-0.00473716
-2.89707e-05
-2.06922e-05
-0.00402889
-9.28601e-05
-0.000113183
-0.00382281
-5.58602e-05
-4.8627e-05
-0.00383401
-7.11765e-05
-5.59875e-06
-0.00364932
-6.06531e-05
0.000225932
-0.00518063
0.00016634
-4.73431e-05
-0.00551433
6.60648e-05
0.000103951
-0.00489927
3.43747e-06
-0.000129293
-0.00469295
-4.79924e-05
-4.45447e-05
-0.00393947
-0.000122474
5.65312e-05
-0.00453978
-0.000121412
-0.000128735
-0.00369016
-5.92978e-05
-5.73286e-05
-0.00376127
-7.12714e-05
-3.0329e-05
-0.00362313
-6.70367e-05
6.52449e-05
-0.00469925
-5.16983e-05
0.000739206
-0.00511855
0.000117256
0.000234092
-0.00549415
0.000350738
0.000396756
-0.00542298
5.77329e-05
-6.7898e-05
-0.00550127
1.05947e-05
6.55321e-05
-0.00492735
-1.59331e-05
0.00023241
-0.00470265
-5.82542e-05
-0.000142567
-0.00465199
-5.14139e-05
-6.54881e-05
-0.00385575
-0.000123547
3.20767e-05
-0.00457133
-0.000153323
0.000138558
-0.00489963
-0.000159521
-0.00014122
-0.00354447
-5.84639e-05
-7.49353e-05
-0.00367457
-7.10589e-05
-3.41061e-05
-0.00359447
-6.58328e-05
5.01383e-05
-0.00475847
-5.79577e-05
0.000134744
-0.0038937
-4.72204e-05
0.00121438
-0.00445593
0.000109598
0.000770431
-0.00558765
0.000262073
0.000804453
-0.00459707
-7.68091e-05
0.000178837
-0.00575255
0.00030874
0.000401553
-0.00556038
0.000152117
0.000528779
-0.00536809
-0.00017015
-6.99942e-05
-0.00554067
8.09141e-05
5.18948e-05
-0.00499579
-3.83486e-05
0.000226643
-0.00479924
-0.000113907
0.000274351
-0.00464898
-0.000178107
-0.00016935
-0.00458597
-5.06497e-05
-7.86434e-05
-0.00377765
-0.000125808
3.65055e-05
-0.00461966
-0.000145829
0.000104736
-0.004931
-0.000176544
0.000268723
-0.00434617
-0.000149326
-0.000153384
-0.0033861
-5.87245e-05
-8.56778e-05
-0.00357683
-7.05269e-05
-5.04532e-05
-0.00354811
-6.69608e-05
3.10404e-05
-0.0047981
-5.72486e-05
0.000133426
-0.00403248
-5.26025e-05
0.000196834
-0.00276606
-3.99363e-05
0.0015024
-0.00322962
-0.000709806
0.00124807
-0.00511124
0.000423269
0.00138699
-0.00486711
-0.000203601
0.000565514
-0.00595166
0.00032894
0.000842105
-0.00488383
0.000108281
0.000849813
-0.00484632
-0.000274421
6.05586e-05
-0.0058333
0.000225013
0.00039684
-0.00571128
0.00011469
0.00048643
-0.00532562
-0.000150141
0.000471067
-0.0044986
-0.000343429
-0.000112734
-0.00549493
2.22265e-05
9.51612e-05
-0.00511611
2.74307e-05
0.000199637
-0.00493122
-6.95031e-05
0.000251957
-0.004714
-0.000196116
0.000375031
-0.00399478
-0.000202574
-0.000193421
-0.00450138
-6.14391e-05
-0.000109268
-0.00367947
-0.000125242
3.31883e-05
-0.00467321
-0.000155898
5.90958e-05
-0.00492775
-0.00017714
0.000234984
-0.00446063
-0.000163646
0.000364347
-0.00349905
-0.000105139
-0.000166725
-0.00321435
-5.93245e-05
-9.69172e-05
-0.00346806
-7.0581e-05
-6.06126e-05
-0.00349124
-6.67854e-05
1.3616e-05
-0.00482133
-5.73432e-05
0.00011482
-0.00415204
-5.25126e-05
0.000197915
-0.00297215
-4.44302e-05
0.000226762
-0.00199735
-5.37423e-05
0.00186497
-0.00235968
-0.00135859
0.00164411
-0.00356973
-0.000532684
0.00187419
-0.00393862
-0.000871644
0.00101133
-0.00583605
0.000740404
0.00149766
-0.00513233
3.29265e-05
0.00131744
-0.00454457
-0.000456475
0.000222669
-0.0060462
0.000379295
0.000714721
-0.00505836
0.000185586
0.00086513
-0.00490635
-0.000210391
0.000702207
-0.00449049
-0.000423961
-0.000112953
-0.00578294
0.000250589
0.000415833
-0.00586396
5.70224e-05
0.000405611
-0.00527185
-0.000145055
0.000477951
-0.00449167
-0.000383059
0.000401541
-0.00370931
-0.000298504
-0.0001547
-0.00546664
4.66778e-05
7.47991e-06
-0.00518623
-2.44028e-05
0.000194543
-0.00498931
-7.58378e-05
0.000206283
-0.00474165
-0.000189035
0.000298954
-0.00404063
-0.000214237
0.000428115
-0.0030887
-0.000184092
-0.00021095
-0.00440876
-6.20147e-05
-0.00012854
-0.003581
-0.000128287
2.73743e-05
-0.00472992
-0.000156527
2.73076e-05
-0.00491795
-0.000179389
0.000156599
-0.00451855
-0.000161005
0.000371473
-0.00372372
-0.000112541
0.000447104
-0.0031404
-9.49384e-05
-0.000175069
-0.00303481
-5.94388e-05
-0.00010433
-0.00335199
-7.10608e-05
-6.99475e-05
-0.00342653
-6.53446e-05
1.21222e-06
-0.00483221
-5.71126e-05
9.19545e-05
-0.00424862
-5.2717e-05
0.000175742
-0.00315541
-4.49911e-05
0.000241943
-0.00222386
-5.98549e-05
0.000213314
-0.00146295
-5.04489e-05
0.00214823
-0.00260859
-0.000494489
0.00204951
-0.00261202
-0.00137382
0.00215587
-0.00281285
-0.00134975
0.00152192
-0.00402428
-0.00020066
0.00212104
-0.00424112
-0.000853561
0.00159272
-0.00332139
-0.00095402
0.000602403
-0.00617603
0.000706327
0.0013614
-0.00543029
0.000391692
0.00144407
-0.00471613
-0.000374457
0.000838929
-0.00385401
-0.000531844
-0.000125726
-0.00597023
0.000472758
0.000636905
-0.00511861
0.000218476
0.000791145
-0.00497033
-0.000135969
0.000748524
-0.00454113
-0.000430329
0.00043198
-0.00335539
-0.000389783
-0.000198027
-0.00566488
0.000262061
0.000256601
-0.00592926
6.67669e-05
0.00037294
-0.00531219
-8.1032e-05
0.000469375
-0.00453233
-0.000367492
0.000340174
-0.00377027
-0.000363327
0.000395016
-0.00309115
-0.000225762
-0.000188093
-0.00540595
3.78478e-05
-4.82806e-05
-0.00521228
-7.52734e-06
0.000166437
-0.00508268
-7.00949e-05
0.00015614
-0.00474989
-0.000196432
0.000200091
-0.00404496
-0.000228196
0.000451764
-0.00319123
-0.000191999
0.000627319
-0.00287737
-0.000198925
-0.000222125
-0.00431533
-6.32606e-05
-0.000139073
-0.00347972
-0.00012855
2.24214e-05
-0.00479314
-0.00015743
-2.16592e-05
-0.00486973
-0.000181879
0.00013339
-0.00458345
-0.000155916
0.000328197
-0.00392765
-0.000109525
0.000468219
-0.00337994
-9.92755e-05
0.000410676
-0.00265302
-0.000122057
-0.000189171
-0.00284106
-6.09576e-05
-0.000121007
-0.00321998
-7.04419e-05
-8.4478e-05
-0.00334649
-6.66268e-05
-1.78525e-05
-0.00482419
-5.55152e-05
7.10814e-05
-0.00432382
-5.29877e-05
0.000155709
-0.00331838
-4.54524e-05
0.000229502
-0.00243904
-5.93173e-05
0.000231826
-0.00169708
-5.75491e-05
0.000212541
-0.00038702
-3.96556e-05
0.00277054
-0.00354265
0.00239796
0.00268364
-0.00326335
0.000174923
0.00228857
-0.00253046
-0.000586617
0.00261587
-0.00181904
-0.000661474
0.00202548
-0.00279746
-0.00110966
0.00250647
-0.00312527
-0.00144684
0.0015935
-0.00212869
-0.00121628
0.00111397
-0.00448431
5.00145e-05
0.00214302
-0.00450619
-0.000717223
0.00189712
-0.00360159
-0.00102641
0.000814543
-0.00276018
-0.000941962
0.000281003
-0.0062818
0.000629035
0.00122824
-0.00567995
0.000364663
0.00137453
-0.00467752
-0.000230297
0.000923345
-0.00383782
-0.000565474
0.00030044
-0.00303185
-0.000529172
-0.000185434
-0.00600028
0.000619505
0.000611867
-0.00527292
0.000271798
0.000748223
-0.00506638
-6.07514e-05
0.000814189
-0.00464652
-0.000375391
0.000431884
-0.00342788
-0.000449552
0.000395911
-0.00320524
-0.000388916
-0.000237281
-0.00552201
0.000267582
9.21116e-05
-0.0058378
3.02077e-05
0.000298636
-0.00534517
-3.24534e-05
0.000380245
-0.0045726
-0.000264863
0.000318251
-0.00392703
-0.000328889
0.000453851
-0.00315633
-0.000300228
0.000693545
-0.00261812
-0.000284448
-0.000199616
-0.00528248
8.75935e-06
-8.75739e-05
-0.00520813
-1.78036e-05
0.000135772
-0.00514228
-6.12721e-05
5.6194e-05
-0.00468778
-0.00021006
0.000182396
-0.00405331
-0.00023709
0.000418244
-0.00331009
-0.000199382
0.000655234
-0.00304847
-0.000207915
0.000573392
-0.00256481
-0.000274175
-0.000265114
-0.00419005
-7.19599e-05
-0.00016913
-0.00337855
-0.00011631
-1.71917e-06
-0.00485222
-0.000152232
-5.31321e-05
-0.00481106
-0.000180812
8.19021e-05
-0.00462029
-0.000155858
0.000283818
-0.00410984
-0.000101835
0.000430293
-0.00358108
-0.000109175
0.000449904
-0.00284539
-0.000124985
0.000337588
-0.00225249
-0.000152497
-0.000197423
-0.00263991
-6.15995e-05
-0.000132809
-0.00307713
-7.09962e-05
-9.62107e-05
-0.00325473
-6.59857e-05
-5.72412e-05
-0.00477693
-5.66511e-05
4.62287e-05
-0.00437247
-5.30949e-05
0.00014106
-0.00346647
-4.59591e-05
0.000220354
-0.00264566
-5.91886e-05
0.000225173
-0.00192583
-5.57371e-05
0.00023732
-0.000637128
-4.47602e-05
0.000193949
-0.00120785
-5.26157e-05
0.00240127
-0.005814
0.00366825
0.00290922
-0.00361186
0.00219327
0.00210409
-0.00312782
0.00255076
0.00293124
-0.00343764
9.45288e-05
0.00260832
-0.00208557
0.00043826
0.00233458
-0.00247434
-0.000828929
0.00300581
-0.00207228
-0.000832715
0.00141438
-0.000720455
-0.000511848
0.00179748
-0.00298878
-0.000883577
0.0026039
-0.00331441
-0.0013814
0.00204704
-0.00237784
-0.00134761
0.000522782
-0.00162891
-0.000974857
0.000791789
-0.00477264
0.00020455
0.00211172
-0.00488482
-0.000454839
0.0019981
-0.00394634
-0.000996045
0.000960064
-0.00290478
-0.000918528
9.29201e-05
-0.00233517
-0.000837554
0.000169743
-0.00623987
0.0006687
0.00119271
-0.00584329
0.000211526
0.00127769
-0.00468668
-0.000155645
0.000940535
-0.00369086
-0.000503601
0.000339734
-0.00296517
-0.000539999
0.000242563
-0.00293123
-0.000475583
-0.000218245
-0.00599738
0.00063257
0.000453759
-0.00544851
0.000433453
0.000674467
-0.00516216
-8.25242e-06
0.000734538
-0.00473514
-0.000326426
0.0004263
-0.00344067
-0.000470651
0.000411309
-0.00314091
-0.00047134
0.000699792
-0.00251258
-0.000450231
-0.000228306
-0.00538308
0.000267605
3.44192e-06
-0.00566702
5.79411e-06
0.000216413
-0.0052325
-0.000163107
0.000258581
-0.00459018
-0.000217265
0.000261252
-0.00398173
-0.000289022
0.000375078
-0.00314838
-0.000293677
0.000691282
-0.0026526
-0.000301798
0.000733168
-0.00214053
-0.000394798
-0.000258211
-0.00514087
-7.29852e-06
-0.000102524
-0.00522131
-4.46679e-05
9.09177e-05
-0.00517173
-8.09964e-05
2.75929e-05
-0.00463321
-0.000196561
9.92762e-05
-0.00401765
-0.000263091
0.000437197
-0.00352773
-0.000172831
0.00059102
-0.00322519
-0.000183384
0.000640687
-0.00268681
-0.000276702
0.000474343
-0.00240667
-0.000353135
-0.000293214
-0.00404257
-9.25723e-05
-0.000182786
-0.00329003
-0.000110494
-4.73392e-05
-0.00487075
-0.000146646
-0.000101891
-0.00474178
-0.000176865
5.15828e-05
-0.0046536
-0.00015286
0.000240395
-0.0042647
-0.000100336
0.000385691
-0.00374087
-0.000107387
0.00043285
-0.00303304
-0.000129198
0.000370425
-0.00235066
-0.000159912
0.000347532
-0.00238693
-0.000217233
-0.000212298
-0.00242386
-6.21897e-05
-0.0001401
-0.00292824
-7.03975e-05
-0.000104071
-0.00315533
-6.63241e-05
-6.7222e-05
-0.00472007
-5.56212e-05
2.7596e-05
-0.00440322
-5.35012e-05
0.000124627
-0.00359772
-4.64737e-05
0.000211684
-0.00284553
-5.77686e-05
0.000219497
-0.00215094
-5.35764e-05
0.000248679
-0.00089792
-4.36246e-05
0.000213903
-0.00140947
-5.70426e-05
0.000164235
-0.0021141
-7.61198e-05
0.00248304
-0.0062025
0.00410546
0.00232761
-0.00559627
0.00350918
0.00182945
-0.00458754
0.00396067
0.00356525
-0.00365806
0.00206992
0.0025194
-0.00334126
0.00249564
0.000454183
-0.00231046
0.00274456
0.00285842
-0.00357772
0.0001847
0.00326209
-0.00261576
0.000368436
0.000749196
-0.000857079
0.000924192
0.0023611
-0.00252137
-0.00120651
0.00301517
-0.00227154
-0.00104093
0.00204184
-0.000897583
-0.000650387
0.000163444
-0.00030994
-0.000134614
0.00151097
-0.00321281
-0.000612416
0.0026955
-0.00352521
-0.00125655
0.00233069
-0.00269586
-0.00139596
0.000668611
-0.00159789
-0.00108719
-0.000212006
-0.00139243
-0.000741989
0.000505842
-0.00476557
0.000254709
0.00195606
-0.00516169
-0.000281935
0.00204865
-0.00435441
-0.000817724
0.00100281
-0.00303857
-0.000924529
0.00017213
-0.00237826
-0.000707836
-5.20425e-05
-0.00232791
-0.000592539
-0.000157296
-0.00599188
0.000745395
0.00114654
-0.00599477
0.000127398
0.00119009
-0.0048131
-0.000177672
0.00100794
-0.00366633
-0.000453583
0.000368377
-0.00286709
-0.000543758
0.000291791
-0.00291973
-0.00043198
0.000818547
-0.00235677
-0.000525307
-0.000317266
-0.00592943
0.000600997
0.000294958
-0.00562247
0.000515009
0.000590981
-0.00513194
2.8665e-05
0.000647185
-0.00485452
-0.000277472
0.000358219
-0.00338975
-0.000474313
0.000315004
-0.0030835
-0.000467989
0.000702096
-0.00245104
-0.000543702
0.000943819
-0.0017484
-0.000614414
-0.000329364
-0.0052007
0.000295855
-2.11107e-05
-0.00546188
-1.8951e-05
0.000139411
-0.00514116
-0.000134035
0.000206457
-0.0046168
-0.000315347
0.000218116
-0.00395247
-0.000365365
0.000454689
-0.00318946
-0.000265433
0.000611288
-0.00265339
-0.00031316
0.000787236
-0.00220163
-0.000387245
0.000706746
-0.00203357
-0.000539734
-0.000320854
-0.00495083
-5.35373e-05
-0.000135039
-0.00522267
-5.36848e-05
2.06107e-05
-0.00519151
-9.28342e-05
-4.55395e-05
-0.00454683
-0.000223734
9.60889e-05
-0.0040146
-0.000244117
0.000271096
-0.00363046
-0.000191064
0.000522364
-0.00344548
-8.92215e-05
0.000635151
-0.00284587
-0.000226625
0.000545368
-0.00248615
-0.000372165
0.000517097
-0.0019074
-0.000425879
-0.000332117
-0.00388049
-0.000101222
-0.00019298
-0.00321371
-0.000116017
-7.04585e-05
-0.00487255
-0.000142314
-0.000140264
-0.00463931
-0.000176076
1.1942e-05
-0.00466752
-0.000147295
0.000176429
-0.00437099
-9.83717e-05
0.000341159
-0.00387677
-9.39128e-05
0.000437263
-0.00325631
-0.000101881
0.000389874
-0.0024666
-0.000154452
0.00036843
-0.00247103
-0.000230338
0.000359456
-0.00173889
-0.000279697
-0.00022447
-0.00219537
-6.24391e-05
-0.000152036
-0.00276733
-7.1062e-05
-0.000117219
-0.00304276
-6.57523e-05
-8.27821e-05
-0.00464865
-5.49582e-05
8.08738e-06
-0.00441356
-5.33691e-05
0.000106674
-0.00371205
-4.58444e-05
0.000197825
-0.00303301
-5.68222e-05
0.000217848
-0.00237669
-4.98716e-05
0.000265979
-0.00117485
-4.2621e-05
0.00020918
-0.00160585
-5.64311e-05
0.000171813
-0.00226267
-8.02858e-05
0.000157824
-0.000901632
-8.83495e-05
0.00132526
-0.00538128
0.00448287
0.00211038
-0.00516741
0.00445587
0.00201028
-0.00626257
0.0040509
0.00131693
-0.0056206
0.00464638
0.00286762
-0.00535174
0.00359222
0.00227118
-0.00467149
0.00384134
0.000500627
-0.00462002
0.00390849
0.00339399
-0.00390131
0.0017946
0.00303298
-0.00352407
0.00248184
0.000369818
-0.00216013
0.00272468
-0.000771974
-0.00261765
0.0026799
0.00286416
-0.00383064
0.000363082
0.00334326
-0.00315937
0.00040022
0.00164559
-0.000947243
0.000854853
-0.000206919
-0.00096547
0.000985766
0.00218892
-0.00246834
-0.00122074
0.00302325
-0.00253011
-0.00127568
0.00239975
-0.00128057
-0.000727004
0.000243382
-0.000330173
-0.000204925
-0.000509112
-0.0010089
0.000107179
0.00114592
-0.00335554
-0.000340041
0.00264894
-0.00374683
-0.00108367
0.00258197
-0.00305643
-0.00142931
0.000893575
-0.00174931
-0.00113531
-0.00014265
-0.00132503
-0.000839798
-0.000398253
-0.00192175
-0.000565364
4.30342e-05
-0.00484974
0.000773904
0.0018433
-0.00559946
-4.28732e-06
0.00208997
-0.00490714
-0.000629081
0.00119145
-0.00321567
-0.000824131
0.000230819
-0.0024137
-0.000751528
8.90648e-05
-0.0022896
-0.00054342
0.00095976
-0.00254277
-0.000431171
-0.000413419
-0.00567458
0.000836876
0.00085817
-0.00600361
0.000191025
0.00111732
-0.0049158
-0.000296248
0.00106847
-0.00383182
-0.000433456
0.000382838
-0.00282659
-0.000518708
0.000205863
-0.00288454
-0.000469806
0.00078333
-0.00266334
-0.000206649
0.00127355
-0.00186385
-0.000664181
-0.000489195
-0.00575662
0.000577055
0.000127423
-0.00564652
0.000476518
0.000516721
-0.00510278
0.00010854
0.000511923
-0.00485682
-0.000274505
0.000422232
-0.00342779
-0.000443547
0.000289587
-0.002925
-0.00046771
0.000677657
-0.00255185
-0.000433547
0.00111461
-0.00191972
-0.000699752
0.00102212
-0.00138015
-0.000749835
-0.000409997
-0.00498951
0.000315024
-6.11457e-05
-0.0052591
1.91854e-05
0.000103378
-0.0050744
-0.000168479
0.000134065
-0.00465963
-0.000270811
0.000171269
-0.00399393
-0.000349066
0.000271151
-0.00320768
-0.000347195
0.000549191
-0.00263687
-0.000308775
0.000810826
-0.00229319
-0.000397272
0.000781773
-0.00211197
-0.000545242
0.00079621
-0.00129915
-0.000609735
-0.000405405
-0.00470471
-4.51559e-05
-0.000186484
-0.00517197
-0.000110736
-3.55965e-05
-0.00516594
-0.000114121
-9.62076e-05
-0.00445489
-0.000228825
6.10909e-05
-0.00400701
-0.000280472
0.00021414
-0.00373929
-0.000173003
0.000475385
-0.00367268
-9.80873e-05
0.00065313
-0.00296674
-0.000184223
0.000570409
-0.00256415
-0.00032916
0.000566507
-0.00202431
-0.000453337
0.000550176
-0.00102427
-0.000465401
-0.000367037
-0.0036846
-0.000109623
-0.000244415
-0.00310726
-0.000115289
-0.000119327
-0.00484219
-0.000144259
-0.00018069
-0.00450781
-0.000175902
-1.57508e-05
-0.00467394
-0.00014581
0.000164129
-0.00447779
-9.79549e-05
0.000315203
-0.00400363
-8.88884e-05
0.000422398
-0.00342701
-0.000127765
0.000390967
-0.00257336
-0.000120109
0.000350122
-0.00253923
-0.000227189
0.000381626
-0.0018706
-0.000308438
0.000280311
4.48628e-05
-0.000275254
-0.000235602
-0.00195711
-6.22695e-05
-0.000157171
-0.00260117
-7.14222e-05
-0.000127841
-0.00292017
-6.58122e-05
-0.000100043
-0.00456084
-5.35224e-05
-1.0253e-05
-0.00440612
-5.21455e-05
8.70991e-05
-0.00380734
-4.51741e-05
0.000187124
-0.00321006
-5.59151e-05
0.000211223
-0.00259696
-4.77785e-05
0.000250896
-0.00143581
-3.98143e-05
0.000202937
-0.00179473
-5.66791e-05
0.000164752
-0.00240722
-7.66337e-05
0.00018042
-0.00106818
-9.41579e-05
0.000122032
-0.000472336
-8.83548e-05
0.00108864
-0.00488264
0.0047352
0.00156887
-0.00515668
0.00434456
0.00117303
-0.00567597
0.00458715
0.00167407
-0.0052142
0.00443189
0.00117128
-0.00562737
0.00468084
0.0020059
-0.00601435
0.00444894
0.001675
-0.0056011
0.00462758
0.000747717
-0.00568902
0.00452379
0.00302739
-0.00523192
0.00334281
0.00280208
-0.00498352
0.00413515
0.000247951
-0.00456693
0.00391012
-0.00077167
-0.00453717
0.00366783
0.00306433
-0.00401994
0.001894
0.00346896
-0.00399919
0.00214402
0.00120173
-0.00203343
0.00279901
-0.000674528
-0.00201158
0.00258622
-0.000660056
-0.00353052
0.00253286
0.00277521
-0.00395698
0.000267576
0.00316794
-0.00328903
0.00034805
0.00246747
-0.00131939
0.000704647
-8.74829e-05
-0.000787447
0.00100769
-0.000533819
-0.00233694
0.000827815
0.00205237
-0.00279807
-0.00107045
0.00305241
-0.00284453
-0.00130979
0.00279985
-0.00188133
-0.000892814
0.00052825
-0.000402803
-0.000289049
-0.000425947
-0.000572197
-0.000358334
-0.000591522
-0.001926
1.04745e-05
0.000733296
-0.00341157
-0.000159748
0.0025525
-0.00393628
-0.000859785
0.0027725
-0.00350837
-0.00131426
0.00121823
-0.00203509
-0.00117031
2.2856e-05
-0.00140259
-0.000849789
-0.000233323
-0.00177834
-0.000660821
0.000671619
-0.00249332
-0.000296936
-0.00019088
-0.0051177
0.0010831
0.00150585
-0.00616712
0.000693884
0.00208269
-0.00554373
-0.000333064
0.00148971
-0.00356134
-0.000704653
0.000403874
-0.00251645
-0.00074242
9.48192e-06
-0.00227531
-0.000569433
0.000894748
-0.00278611
-0.0004115
0.00140927
-0.00226051
-0.000494598
-0.000575765
-0.00537493
0.000851284
0.000510557
-0.00589273
0.000342867
0.000991307
-0.00496031
-0.000239044
0.000933104
-0.00408379
-0.000465465
0.000537908
-0.00287268
-0.000503037
0.000240103
-0.00288073
-0.000473032
0.000800212
-0.0027772
-0.000478499
0.00149663
-0.00208072
-0.000371806
0.00134604
-0.00168822
-0.000735292
-0.000632106
-0.00551188
0.000570297
2.53868e-05
-0.00558141
0.000425414
0.000488931
-0.00510513
9.33102e-05
0.000455684
-0.00486077
-0.000209127
0.000388832
-0.00346637
-0.000453483
0.000335063
-0.00295457
-0.000477894
0.000620228
-0.00265618
-0.000434414
0.00105705
-0.00202556
-0.000573929
0.00105479
-0.00153311
-0.000819806
0.00106625
-0.000460672
-0.000836855
-0.000455835
-0.0047953
0.000320973
-9.79642e-05
-0.00510221
6.96066e-05
9.75962e-05
-0.00509117
-9.72365e-05
0.000103814
-0.00474359
-0.000284537
0.000140836
-0.00395107
-0.000393411
0.000312095
-0.00333222
-0.00032248
0.000567283
-0.00275555
-0.000320415
0.000802124
-0.00237517
-0.000375794
0.000747496
-0.00217326
-0.000513074
0.000852241
-0.00147127
-0.000658857
0.000684461
-5.57408e-05
-0.000663192
-0.00045905
-0.00440901
-0.000100826
-0.0002646
-0.00508101
-0.000115925
-0.00010425
-0.00512851
-0.000163236
-0.000151072
-0.00435456
-0.000244074
4.30854e-05
-0.00402003
-0.000274649
0.000200233
-0.00384026
-0.000215603
0.000381127
-0.00379296
-0.000118649
0.000630269
-0.00309877
-0.000173922
0.000516749
-0.00254504
-0.000329113
0.000580841
-0.00214614
-0.00043805
0.000542205
-0.00113225
-0.000505932
0.000363535
0.000486196
-0.000472919
-0.000409609
-0.00346142
-0.000106867
-0.000238423
-0.00301097
-0.000124669
-0.000159738
-0.00477146
-0.000154131
-0.000206115
-0.00436777
-0.000178233
-4.42181e-05
-0.00467829
-0.000137586
0.00013024
-0.00457149
-9.52458e-05
0.000310907
-0.00412887
-9.64961e-05
0.000408359
-0.00359939
-0.000113649
0.000339276
-0.00264253
-0.00014698
0.0003398
-0.00258412
-0.000212091
0.000374365
-0.00200873
-0.000298671
0.000333005
-0.000111312
-0.000304848
0.000114415
0.000841136
-0.000250631
-0.000244935
-0.00170957
-6.33332e-05
-0.00016546
-0.00242732
-7.06675e-05
-0.000136985
-0.00278936
-6.52469e-05
-0.00010814
-0.00446524
-5.32713e-05
-2.66719e-05
-0.00438238
-5.05905e-05
6.59912e-05
-0.00388122
-4.42573e-05
0.000169701
-0.00337319
-5.17482e-05
0.000196834
-0.00280536
-4.43393e-05
0.000249257
-0.00169495
-3.78936e-05
0.000200613
-0.00197986
-5.52971e-05
0.000161369
-0.00255229
-7.29847e-05
0.000180993
-0.00123672
-8.90832e-05
0.000145011
-0.000614174
-9.73303e-05
0.000128097
0.000674892
-7.72922e-05
0.000815876
-0.00442705
0.00512036
0.00127778
-0.00489606
0.00475599
0.000897429
-0.00478724
0.00498972
0.00142898
-0.00511076
0.00416332
0.00116529
-0.00590559
0.00458018
0.000455655
-0.00528341
0.0048273
0.00189242
-0.00542714
0.00475246
0.00153585
-0.00569364
0.0046373
0.000730189
-0.00556375
0.00478676
0.00191879
-0.0055806
0.00436693
0.00290833
-0.00612433
0.00486592
0.000253449
-0.00567352
0.00460659
-0.000536369
-0.00558838
0.00435187
0.00299299
-0.00559191
0.0034475
0.00285566
-0.00500163
0.00397422
0.00100674
-0.0045329
0.0042961
-0.000716852
-0.00429511
0.00371038
-0.000676285
-0.00515818
0.00343575
0.00304523
-0.0041017
0.00169941
0.00318261
-0.00417839
0.00205854
0.00236443
-0.00239433
0.00260796
-0.000665735
-0.00136691
0.00273259
-0.000736305
-0.00323159
0.00248977
-0.00059027
-0.0033944
0.00226877
0.00266626
-0.00395209
0.000159842
0.00331375
-0.00332011
3.73102e-05
0.0030754
-0.00165563
0.000408745
0.000141917
-0.000473526
0.000777059
-0.000787295
-0.00183156
0.000863661
-0.000658527
-0.00277403
0.00078241
0.00175161
-0.00306128
-0.000328668
0.00302955
-0.00322537
-0.00116665
0.00320425
-0.00245304
-0.00116982
0.00103126
-0.000756475
-0.000352168
-0.000225419
-0.000297586
-0.000315385
-0.000424751
-0.00163752
-0.000455389
0.000136709
-0.00236578
6.23828e-05
0.000496696
-0.00361725
0.000143854
0.00229981
-0.00426606
-0.000623927
0.00289435
-0.00402006
-0.00115977
0.00159204
-0.00228439
-0.00116729
0.000214707
-0.00152273
-0.000860999
-0.000263198
-0.00160262
-0.000752824
0.000681246
-0.00251348
-0.000427163
0.00120997
-0.00270593
-8.76263e-05
-0.000471032
-0.00520464
0.00117395
0.00105824
-0.0067081
0.00107638
0.0019508
-0.00591341
0.000104071
0.00161133
-0.00392518
-0.000647454
0.000602849
-0.00254161
-0.000744429
6.97836e-05
-0.00223369
-0.000613722
0.000760932
-0.00278724
-0.000529018
0.00150694
-0.00221194
-0.00047038
0.00157794
-0.00235122
-0.000652199
-0.000665263
-0.00518431
0.000950912
0.000371654
-0.00582481
0.000437093
0.000928545
-0.00496781
-8.92447e-05
0.000887081
-0.00435586
-0.000398372
0.000571313
-0.00300351
-0.000517117
0.000361331
-0.00292814
-0.000481893
0.00069174
-0.00287466
-0.000447087
0.00118303
-0.00206866
-0.000616528
0.00145904
-0.00166623
-0.000798049
0.0013209
-0.000794474
-0.000784767
-0.000462795
-0.00539489
0.000513746
-4.03012e-05
-0.00547388
0.0004051
0.000474908
-0.00519295
0.00013592
0.000400382
-0.00475155
-0.000312485
0.000353472
-0.00355581
-0.000332325
0.000382869
-0.0029889
-0.000489932
0.000593089
-0.00275092
-0.000408961
0.00105225
-0.00215643
-0.000553675
0.00104114
-0.00157226
-0.000828434
0.00108116
-0.000593172
-0.000916225
0.000816124
0.00044173
-0.000831853
-0.000542389
-0.00459095
0.000350205
-6.93812e-05
-0.00511613
0.000139678
9.66705e-05
-0.00518551
-3.69781e-05
0.000131806
-0.0048788
-0.000244906
0.000142741
-0.00395454
-0.000380728
0.000206909
-0.00337244
-0.000359866
0.000474718
-0.00289585
-0.000275768
0.000793167
-0.00252705
-0.000331425
0.000726825
-0.00226721
-0.000491919
0.000810553
-0.00158494
-0.000629118
0.000691382
-0.000123353
-0.000740422
0.000444297
0.001084
-0.000650577
-0.00051572
-0.00411508
-0.000113902
-0.000245687
-0.00499093
-0.000183642
-0.000170248
-0.00506292
-0.000171013
-0.000164633
-0.00430615
-0.000253124
2.52484e-05
-0.00406422
-0.000269351
0.000179668
-0.00396038
-0.000203951
0.000379772
-0.00392292
-0.000154507
0.000632156
-0.0032708
-0.000170421
0.000520314
-0.00259129
-0.00030871
0.000564105
-0.00228165
-0.000417904
0.00053476
-0.00124645
-0.000484251
0.000436155
0.000388688
-0.000511574
0.000126488
0.00173415
-0.000450192
-0.000439268
-0.00323647
-9.97995e-05
-0.000266873
-0.00288445
-0.00013197
-0.000172675
-0.00472352
-0.000136912
-0.000205314
-0.00424164
-0.000183082
-7.42588e-05
-0.00467537
-0.000133573
0.000109246
-0.00466145
-9.08845e-05
0.000290349
-0.00426175
-8.30115e-05
0.000394238
-0.00378236
-0.000110925
0.000345479
-0.00271778
-0.000134619
0.000332251
-0.00266405
-0.000198685
0.000378086
-0.00214968
-0.000287858
0.000344962
-0.000275606
-0.000298346
0.000176089
0.000783121
-0.000277911
0.000199827
0.00119559
-0.000228194
-0.00025657
-0.00145052
-6.33452e-05
-0.000173104
-0.00224675
-7.07944e-05
-0.000142526
-0.0026529
-6.46039e-05
-0.000136048
-0.00434173
-5.27109e-05
-5.28177e-05
-0.00433216
-5.06758e-05
5.18758e-05
-0.00393892
-4.4773e-05
0.000153584
-0.0035196
-5.14309e-05
0.000188461
-0.00300419
-4.13826e-05
0.000247278
-0.00195195
-3.4618e-05
0.000194511
-0.00215801
-5.42542e-05
0.000158025
-0.00269595
-6.966e-05
0.000175147
-0.00140137
-8.34895e-05
0.00015845
-0.000767455
-9.42526e-05
0.000138506
0.000524612
-8.55569e-05
5.1729e-05
0.00148993
-6.2986e-05
0.000747141
-0.00424097
0.00528425
0.000981822
-0.00449086
0.00509804
0.000623891
-0.0043974
0.00526654
0.000968612
-0.00490458
0.00468242
0.00107633
-0.0049828
0.0050405
0.000176998
-0.00496853
0.00512648
0.00187849
-0.0053377
0.00451948
0.00126186
-0.00599166
0.00452339
0.000392169
-0.00518016
0.00481495
-0.000264191
-0.00532124
0.00473525
0.00141447
-0.00525383
0.00468138
0.0026902
-0.00576615
0.0050431
0.00042069
-0.00590191
0.00480822
-0.000199314
-0.00553426
0.00460968
0.00241826
-0.00564467
0.00415715
0.00247455
-0.0061723
0.00479601
0.000963963
-0.00587677
0.00511194
-0.000434861
-0.00566447
0.00440068
-0.000404455
-0.00531159
0.00413639
0.00273713
-0.00569666
0.00314492
0.00284396
-0.005154
0.00393852
0.00205287
-0.00459731
0.0043502
-0.000699828
-0.00400884
0.00404392
-0.00096512
-0.00475274
0.00353375
-0.000590982
-0.00495698
0.00330029
0.00292836
-0.00409877
0.00135391
0.00352618
-0.00426512
0.00157371
0.00294555
-0.00240069
0.00219474
-0.000178505
-0.00101346
0.00257493
-0.00105647
-0.0027926
0.00256278
-0.000869446
-0.00325736
0.00256365
-0.000263143
-0.004236
0.00218063
0.0024432
-0.00386877
-0.000325868
0.00333883
-0.00330911
-0.000160436
0.00361298
-0.0022198
0.000192748
0.000709229
-0.000272748
0.000529995
-0.000617825
-0.00142669
0.000764595
-0.000675527
-0.00244281
0.000783213
-0.000236387
-0.00299948
0.000876509
0.00137577
-0.0031428
-0.0003628
0.00287
-0.00310381
-0.00102042
0.00348839
-0.00294509
-0.00126865
0.00145225
-0.00109438
-0.000692133
3.80081e-05
-0.000188581
-0.000284474
-0.000523985
-0.00141279
-0.000279323
8.23406e-05
-0.00216078
-6.14826e-05
0.00086212
-0.00311276
0.000213037
0.000155046
-0.0038425
0.000594762
0.0020229
-0.00496442
-0.000122442
0.00292101
-0.00464397
-0.00097022
0.00191362
-0.00258939
-0.00115706
0.000475247
-0.00163775
-0.000924668
-0.000182576
-0.00145734
-0.000753923
0.000358886
-0.00231905
-0.000545204
0.00119225
-0.00265166
-0.000166737
0.00169197
-0.00323838
-0.000134922
-0.000495431
-0.00531984
0.00124522
0.000735883
-0.00695097
0.00105259
0.00178991
-0.00606283
0.000364444
0.0016701
-0.00404532
-0.000558806
0.000774799
-0.00265601
-0.000736543
0.000188928
-0.0021834
-0.000622319
0.000596185
-0.00273409
-0.000571322
0.00125419
-0.00223403
-0.000578089
0.00167701
-0.00240145
-0.00063813
0.00168219
-0.00166477
-0.000725408
-0.000518685
-0.0050548
0.000916406
0.000245173
-0.00577662
0.000617249
0.000822261
-0.00493231
5.42363e-05
0.000824718
-0.00455847
-0.00031097
0.000607959
-0.0031639
-0.000492467
0.000305089
-0.00285393
-0.000513552
0.000602074
-0.00289198
-0.000473556
0.00113985
-0.00208878
-0.000514572
0.00141297
-0.00190211
-0.000752468
0.00148874
-0.00113706
-0.000863043
0.000891152
-6.23824e-05
-0.000818821
-0.000548437
-0.00525254
0.00048337
9.37905e-06
-0.00543086
0.000391965
0.000431049
-0.00520368
8.14588e-05
0.000449229
-0.00473204
-0.000201007
0.000348156
-0.00361289
-0.000460825
0.000323503
-0.00303834
-0.000399477
0.000546385
-0.00291894
-0.000393574
0.0010239
-0.00230615
-0.000489978
0.00106654
-0.00164657
-0.000819083
0.00102395
-0.000739123
-0.000895881
0.00101312
0.000118647
-0.000914877
0.000495863
0.00103945
-0.000818199
-0.000636007
-0.00439274
0.000385169
-0.000122022
-0.00507138
0.000181794
3.73736e-05
-0.00525065
-2.8012e-06
7.66603e-05
-0.00494994
-0.000207132
9.65314e-05
-0.00387914
-0.000391592
0.000190587
-0.00341133
-0.000352758
0.000485693
-0.00309478
-0.000266858
0.000796699
-0.00270032
-0.000267049
0.000746468
-0.00233844
-0.000486347
0.000768708
-0.00168831
-0.000593146
0.000755051
-0.000266761
-0.000706001
0.000529866
0.000956312