/*--------------------------------*- C++ -*----------------------------------*\
  =========                 |
  \\      /  F ield         | OpenFOAM: The Open Source CFD Toolbox
   \\    /   O peration     | Website:  https://openfoam.org
    \\  /    A nd           | Version:  7
     \\/     M anipulation  |
\*---------------------------------------------------------------------------*/
FoamFile
{
    version     2.0;
    format      ascii;
    class       volVectorField;
    location    "2";
    object      U;
}
// * * * * * * * * * * * * * * * * * * * * * * * * * * * * * * * * * * * * * //

dimensions      [0 1 -1 0 0 0 0];

internalField   nonuniform List<vector> 
18780
(
(2.03759 0.778486 -1.21176)
(2.41129 0.438784 0.248544)
(1.94382 0.767274 -1.22496)
(1.95315 0.275861 -1.23972)
(2.7531 0.286372 0.424878)
(2.41292 0.43265 0.303676)
(2.02906 0.288869 -0.6818)
(2.05253 0.726891 -1.09297)
(1.94529 0.26491 -1.26613)
(1.83857 0.14098 -1.70027)
(2.54214 -0.256646 0.623753)
(2.78017 0.223216 0.443335)
(2.45162 0.026187 -0.170377)
(2.4312 0.429473 0.122043)
(2.02668 0.282285 -0.718342)
(2.29302 0.0457995 -0.813262)
(2.03659 0.756153 -1.23869)
(1.94543 0.237093 -1.27635)
(1.78653 0.118741 -1.70174)
(2.36135 -0.532383 -1.09946)
(2.52076 -0.595077 0.615804)
(2.69079 -0.210883 1.16576)
(2.71565 -0.521252 0.60772)
(2.7892 0.0288359 0.444972)
(2.47017 -0.074171 0.0880334)
(2.34402 -0.412508 0.112377)
(2.46326 0.396678 0.0294523)
(1.97377 0.192294 -0.863937)
(2.26132 0.16798 -1.02722)
(2.46977 -0.415656 -1.10141)
(2.04555 0.740814 -1.22019)
(1.92672 0.247676 -1.26855)
(1.80568 0.030635 -1.69941)
(2.34133 -0.534932 -1.11714)
(1.9792 -1.18764 -1.29922)
(2.11842 -1.65735 0.501545)
(2.6597 -0.906182 0.610838)
(2.27587 -0.99012 -0.0454749)
(2.83025 -0.335496 1.07032)
(2.71822 -0.499697 0.886526)
(2.70767 -0.870008 -0.156385)
(2.80466 -0.164605 0.444956)
(2.4774 -0.108111 -0.368211)
(2.37814 -0.627771 -0.240222)
(2.32861 -0.602658 -0.727036)
(2.47721 0.334297 0.077498)
(1.97677 0.213907 -0.766154)
(2.34804 -0.00650862 -0.912331)
(2.46048 -0.366703 -1.1126)
(2.18425 -0.939 -1.30716)
(2.04667 0.723452 -1.22795)
(1.91841 0.209542 -1.26794)
(1.83812 0.0996475 -1.72285)
(2.34421 -0.599427 -1.09633)
(1.95863 -1.19095 -1.3108)
(1.40666 -1.60046 -0.857655)
(1.60479 -1.72542 -1.06653)
(2.33974 -1.51953 1.13976)
(2.41504 -1.57674 0.0253503)
(2.85402 -0.941192 0.658202)
(2.34333 -1.21433 0.598719)
(2.42247 -1.10449 -0.27978)
(2.90119 -0.475227 0.875512)
(2.7674 -0.783821 0.658933)
(2.63929 -0.784599 0.0490501)
(2.22318 -0.799781 -0.967163)
(2.79375 -0.216143 0.457253)
(2.52233 -0.334987 0.206936)
(2.37805 -0.839473 0.0670934)
(2.31494 -0.592719 -0.688111)
(1.99622 -1.1587 -0.90429)
(2.48189 0.280875 -0.0228011)
(1.96401 0.170859 -0.814233)
(2.35113 -0.0422392 -1.03284)
(2.44997 -0.359612 -1.12304)
(2.17343 -0.947971 -1.32295)
(1.76061 -1.5624 -1.00951)
(2.00385 0.712753 -1.27107)
(1.90564 0.212852 -1.27473)
(1.8327 0.0813877 -1.71544)
(2.33551 -0.607537 -1.11041)
(1.96189 -1.20431 -1.30194)
(1.4229 -1.53079 -0.878222)
(1.02804 -1.93455 -1.02909)
(1.176 -1.87582 -1.91273)
(1.63969 -1.823 -0.607756)
(2.00659 -2.16987 -1.22634)
(2.67448 -1.22584 1.34741)
(2.41419 -1.52574 0.592677)
(2.26493 -1.7056 -0.771813)
(2.9347 -0.703863 0.953085)
(2.37943 -1.28818 0.845562)
(2.38532 -1.15411 -0.0685876)
(2.224 -1.05443 -1.09028)
(2.86983 -0.572593 0.869696)
(2.77149 -1.12957 0.411391)
(2.54332 -0.757006 0.013235)
(2.25775 -0.837777 -0.971171)
(1.83413 -0.801593 -1.23441)
(2.79962 -0.300804 0.442935)
(2.56792 -0.331984 -0.313807)
(2.33175 -1.10389 0.028053)
(2.33909 -0.579505 -0.609389)
(1.89919 -0.930074 -0.947814)
(1.54811 -1.38226 -0.952789)
(2.48486 0.258503 0.0268344)
(1.94033 0.0963589 -0.869647)
(2.38749 -0.169914 -0.982152)
(2.43764 -0.379178 -1.1551)
(2.15883 -0.945545 -1.32875)
(1.75993 -1.5479 -0.977975)
(1.57245 -1.78079 -0.561984)
(2.02441 0.658848 -1.26985)
(1.89828 0.192681 -1.28174)
(1.8253 0.0907665 -1.73121)
(2.29494 -0.663641 -1.10651)
(1.95716 -1.20684 -1.30131)
(1.41341 -1.48707 -0.891264)
(1.02181 -1.91407 -1.04031)
(0.767232 -1.78176 -1.42691)
(1.327 -1.89133 -0.600444)
(1.1717 -1.95834 -1.61096)
(1.36851 -2.23195 -2.08177)
(1.7034 -1.78128 0.0515475)
(1.94732 -2.38191 -0.88473)
(1.66167 -1.87526 -1.6604)
(2.92394 -0.833493 1.45471)
(2.51134 -1.384 1.49864)
(2.27017 -1.73123 -0.351733)
(1.92632 -1.2276 -1.08607)
(3.0171 -0.312094 1.23062)
(2.3466 -1.33083 0.809908)
(2.34125 -1.22277 0.00123385)
(2.20867 -1.16016 -0.876183)
(1.65712 -0.787789 -1.00019)
(2.78693 -0.616949 0.943156)
(2.80932 -1.00026 0.594259)
(2.54357 -0.772212 -0.058057)
(2.13569 -0.909849 -0.896151)
(1.83931 -0.675079 -1.24016)
(1.66566 -0.896502 -0.681236)
(2.75608 -0.486091 0.355544)
(2.60836 -0.408967 -0.0769385)
(2.30026 -1.27672 0.0970166)
(2.29828 -0.628544 -0.650646)
(2.00641 -0.613863 -0.98179)
(1.46016 -1.39491 -0.847547)
(1.44986 -1.86287 -0.718147)
(2.4974 0.151668 -0.10537)
(1.89583 0.0253581 -0.906347)
(2.39942 -0.348057 -0.984595)
(2.41759 -0.402998 -1.20115)
(2.17312 -0.870423 -1.34409)
(1.77586 -1.52058 -0.953568)
(1.57481 -1.83943 -0.562474)
(1.33331 -1.72876 -0.887048)
(2.00204 0.691305 -1.32556)
(1.88092 0.174255 -1.27767)
(1.80922 0.121598 -1.73975)
(2.35574 -0.567302 -1.06904)
(1.95238 -1.14156 -1.28839)
(1.41106 -1.50619 -0.912185)
(1.00982 -1.90705 -1.04726)
(0.758891 -1.82827 -1.44548)
(0.21546 -1.88994 -0.907098)
(1.85335 -2.26246 2.35092)
(1.60245 -1.95687 0.273413)
(1.20226 -1.95553 -0.634154)
(0.887603 -2.20796 -0.719249)
(1.1927 -1.91818 -1.03059)
(1.40125 -2.40979 -2.00067)
(1.05716 -1.76678 -1.91064)
(1.93913 -1.45092 0.29846)
(1.91385 -2.50821 -0.554084)
(1.64017 -2.08376 -1.65218)
(1.36609 -0.991311 -1.65124)
(3.05719 -0.675014 1.61456)
(2.58163 -1.42822 1.25232)
(2.15078 -1.74746 0.0185542)
(1.88567 -1.32072 -1.03462)
(1.54713 -0.536728 -1.09199)
(3.02542 -0.307013 1.38419)
(2.37892 -1.18124 1.01491)
(2.29453 -1.42682 0.180362)
(2.13407 -1.35725 -0.602231)
(1.64744 -0.769426 -1.0463)
(1.67682 -0.610898 -0.97624)
(2.75495 -0.618622 0.99272)
(2.77107 -1.03594 0.588165)
(2.56987 -0.773707 -0.179848)
(2.08931 -0.899571 -0.429386)
(1.83329 -0.778502 -1.17021)
(1.4817 -0.957975 -0.904732)
(1.34833 -1.49767 -0.790425)
(2.67937 -0.583689 0.263089)
(2.6152 -0.501564 -0.109089)
(2.26926 -1.37431 0.0217576)
(2.27584 -0.521151 -0.676686)
(1.89804 -0.801135 -1.0191)
(1.50719 -1.3155 -0.958735)
(1.43367 -1.79704 -0.736524)
(1.28277 -1.62134 -1.07517)
(2.50904 0.162356 -0.1902)
(1.91825 0.0855427 -0.839942)
(2.43384 -0.440739 -0.932049)
(2.41677 -0.396772 -1.20368)
(2.14306 -0.901524 -1.34118)
(1.83012 -1.46663 -0.877256)
(1.56791 -1.86948 -0.551904)
(1.30709 -1.77004 -0.83095)
(1.11883 -1.53641 -0.969976)
(1.96824 0.653613 -1.40258)
(1.83912 0.175507 -1.29583)
(1.79477 0.126959 -1.73661)
(2.36521 -0.497224 -1.10946)
(1.9381 -1.14945 -1.2811)
(1.3984 -1.56418 -0.939372)
(0.997308 -1.9455 -1.05889)
(0.75308 -1.89137 -1.42436)
(0.206035 -1.97847 -0.961024)
(0.623191 -1.70431 -0.93031)
(2.9916 -1.4567 3.32052)
(1.88654 -2.43588 2.09024)
(1.70452 -1.51469 2.33986)
(1.56857 -1.96433 0.247963)
(1.01033 -2.42336 0.0321566)
(1.03718 -2.1356 -0.872664)
(0.907192 -2.4117 -0.783107)
(0.39479 -1.53149 -1.05921)
(1.17128 -1.61444 -0.774617)
(1.3752 -2.56047 -1.82555)
(1.06147 -2.03446 -1.92111)
(0.828309 -0.82403 -1.63807)
(2.13673 -1.21776 0.608111)
(1.93934 -2.4987 -0.0689369)
(1.64549 -2.1739 -1.56566)
(1.37344 -1.12872 -1.59237)
(1.03583 -0.235177 -1.53044)
(3.00599 -0.934872 1.77131)
(2.52148 -1.85859 0.801341)
(2.05677 -1.71433 0.14237)
(1.6911 -1.58461 -0.875763)
(1.47909 -0.598609 -1.09065)
(1.38836 -0.602573 -1.0403)
(2.99616 -0.505725 1.35382)
(2.51305 -0.890017 1.51913)
(2.27733 -1.48817 0.274861)
(2.13905 -1.29114 -0.427692)
(1.61382 -0.811463 -1.0982)
(1.51071 -0.850559 -1.0434)
(1.27399 -1.26433 -0.935808)
(2.67623 -0.749387 1.07388)
(2.65032 -1.09638 0.575518)
(2.50972 -0.813122 -0.414287)
(2.22671 -0.826266 -0.0744673)
(1.8892 -0.756336 -1.06574)
(1.56897 -1.05065 -0.812123)
(1.20704 -1.55421 -0.857285)
(1.06859 -1.4756 -1.00839)
(2.6711 -0.541365 0.153331)
(2.59017 -0.608912 -0.239017)
(2.23017 -1.37416 -0.0625397)
(2.26196 -0.595248 -0.549906)
(1.90731 -0.649118 -1.09421)
(1.57496 -1.26088 -1.03105)
(1.34324 -1.68871 -0.681351)
(1.23921 -1.71781 -0.964278)
(1.19731 -1.20078 -1.38907)
(2.4937 0.0895724 -0.421468)
(1.92904 0.063121 -0.874013)
(2.4355 -0.555835 -0.823052)
(2.42228 -0.361929 -1.18634)
(2.18954 -0.795539 -1.32083)
(1.81897 -1.41401 -0.869559)
(1.51196 -1.90173 -0.531642)
(1.29821 -1.73679 -0.982851)
(1.08716 -1.57823 -0.917971)
(1.20707 -1.44824 -1.32589)
(2.0073 0.698724 -1.38743)
(1.85852 0.163501 -1.29648)
(1.8354 0.118162 -1.75466)
(2.33802 -0.578504 -1.09077)
(1.91373 -1.16402 -1.27449)
(1.3758 -1.58929 -0.956351)
(0.967157 -1.98156 -1.0603)
(0.738558 -1.92105 -1.41439)
(0.198416 -2.15003 -0.906161)
(0.611493 -1.79832 -0.925302)
(1.06122 -1.27291 -1.46485)
(3.06082 -1.3947 3.22976)
(2.86794 -1.76918 3.19818)
(2.34453 -1.48577 3.50174)
(1.64693 -2.50693 1.98707)
(1.60566 -1.88554 2.19191)
(1.09551 -0.374026 2.92028)
(1.53106 -2.11745 0.257535)
(1.03407 -2.57248 -0.108611)
(0.514551 -0.971439 0.925842)
(0.865424 -2.1882 -1.35617)
(0.830064 -2.60955 -1.13806)
(0.330624 -1.91085 -1.27693)
(0.135492 -0.167517 -0.284815)
(1.23352 -1.40437 -0.36688)
(1.24957 -2.72002 -1.47559)
(1.03199 -2.35299 -1.94565)
(0.752704 -0.960582 -1.64619)
(0.682415 0.086842 -1.18663)
(2.13348 -1.02122 0.757698)
(2.03223 -2.36395 0.118935)
(1.70554 -2.27065 -1.23732)
(1.36321 -1.15186 -1.58812)
(1.20441 -0.388389 -1.21812)
(1.04997 0.0134512 -1.27726)
(2.86176 -0.964897 1.85273)
(2.45799 -2.0533 0.825807)
(2.01982 -1.71766 0.00410183)
(1.56049 -1.6315 -0.747275)
(1.34296 -0.75001 -1.01971)
(1.46885 -0.472405 -0.852879)
(1.15457 -0.948408 -0.849113)
(2.96682 -0.776316 1.38613)
(2.6331 -0.879648 1.59762)
(2.22258 -1.45644 0.529691)
(2.15826 -1.25527 -0.29523)
(1.6025 -0.858006 -1.08707)
(1.42528 -0.709767 -1.06586)
(1.13716 -1.13045 -1.05482)
(0.893804 -1.44069 -1.30638)
(2.57847 -0.751596 1.12483)
(2.50249 -1.20538 0.531119)
(2.43371 -0.860143 -0.556112)
(2.06894 -0.85784 -0.626599)
(1.82256 -0.766821 -1.23018)
(1.20953 -1.48558 -0.693076)
(1.15273 -1.50428 -0.886294)
(1.03494 -1.56169 -0.889317)
(1.01196 -1.30399 -1.57262)
(2.65453 -0.532091 -0.154299)
(2.54106 -0.780504 -0.260509)
(2.27571 -1.25201 -0.143128)
(2.23634 -0.548084 -0.651465)
(1.84211 -0.820669 -1.14045)
(1.41947 -1.18894 -1.16001)
(1.44992 -1.5424 -0.361246)
(1.21393 -1.83856 -0.808663)
(1.18687 -1.28911 -1.30126)
(0.948248 -1.29949 -1.83928)
(2.49531 0.0917022 -0.56123)
(1.90473 -0.0061591 -0.97354)
(2.4098 -0.697891 -0.743451)
(2.38861 -0.402373 -1.21518)
(2.19252 -0.786472 -1.29436)
(1.83581 -1.35051 -0.848967)
(1.503 -1.9103 -0.533093)
(1.291 -1.80058 -0.964416)
(1.08307 -1.64897 -0.849224)
(1.1631 -1.45717 -1.27742)
(0.872265 -1.43848 -2.00284)
(2.02391 0.715258 -1.3957)
(1.86099 0.161181 -1.30687)
(1.89787 0.120212 -1.75682)
(2.35497 -0.56143 -1.10095)
(1.89353 -1.10643 -1.25897)
(1.36818 -1.59366 -0.958135)
(0.956004 -1.97599 -1.0589)
(0.724428 -1.95546 -1.37289)
(0.169926 -2.29377 -0.821085)
(0.5848 -1.85973 -0.941569)
(1.05694 -1.27454 -1.43366)
(0.466861 -1.38986 -2.01328)
(2.68296 -0.388783 3.10225)
(2.60253 -1.30609 3.17201)
(3.10788 -1.37398 3.1747)
(2.75705 -0.640111 3.82206)
(2.53078 -2.54761 2.68227)
(2.25931 -1.99789 3.36051)
(2.20314 -0.0736174 3.7978)
(1.60511 -2.43208 1.7617)
(1.58043 -2.51393 1.74173)
(1.18709 -0.233168 2.8926)
(1.37057 0.610273 2.87606)
(1.44875 -2.26579 0.347576)
(1.19962 -2.59144 0.104923)
(0.354797 -1.43619 0.777812)
(0.48848 -0.139126 1.26477)
(0.784386 -2.06199 -1.49095)
(0.710692 -2.8018 -1.49947)
(0.317705 -2.2262 -1.47297)
(0.152407 -0.265725 -0.252822)
(0.50959 0.410478 -0.0531377)
(1.37132 -1.21169 0.0241999)
(1.19737 -2.77808 -1.17565)
(0.997199 -2.61174 -1.94057)
(0.689074 -1.1745 -1.7634)
(0.634769 -0.0180538 -1.20832)
(0.958422 0.157855 -0.9407)
(2.3583 -0.455122 1.41646)
(2.00235 -2.36203 0.139691)
(1.76801 -2.36669 -0.9321)
(1.28803 -1.53526 -1.33442)
(1.11808 -0.466952 -1.25914)
(1.17618 -0.364644 -0.94787)
(1.2373 -1.19221 -0.699102)
(2.83282 -0.741108 1.91919)
(2.45273 -2.02008 1.03738)
(1.97958 -1.78835 -0.302294)
(1.49329 -1.64388 -0.705582)
(1.29997 -0.70815 -0.973287)
(1.36279 -0.488129 -0.959686)
(1.21353 -0.999771 -0.73654)
(0.867687 -1.61786 -1.2545)
(2.97014 -0.645552 1.40538)
(2.66056 -1.00311 1.41495)
(2.16486 -1.42946 0.794817)
(2.11767 -1.27548 -0.369972)
(1.49572 -0.895634 -0.99873)
(1.36144 -0.720985 -1.06066)
(1.14137 -1.04803 -1.049)
(0.835887 -1.40642 -1.4216)
(0.695234 -1.53303 -1.76224)
(2.55269 -0.706085 1.10983)
(2.39388 -1.16232 0.675827)
(2.34845 -0.915329 -0.636978)
(2.17366 -0.854089 -0.294255)
(1.82668 -0.833555 -1.22016)
(1.42788 -0.910176 -0.973928)
(1.17194 -1.48902 -0.899108)
(0.944247 -1.56759 -0.947577)
(0.967585 -1.48653 -1.40579)
(0.595579 -1.52761 -1.89628)
(2.61727 -0.46265 -0.0872148)
(2.5559 -0.867813 -0.377023)
(2.28386 -1.22128 -0.216004)
(2.24108 -0.486663 -0.68453)
(1.81561 -0.814907 -1.27235)
(1.66552 -1.08733 -0.947207)
(1.48873 -1.42266 -0.394673)
(1.102 -2.03391 -0.362059)
(1.09424 -1.57118 -1.04055)
(0.921277 -1.30905 -1.78491)
(0.487375 -1.46291 -2.04254)
(2.52199 0.100512 -0.548145)
(1.94184 -0.00232273 -0.938999)
(2.39455 -0.77349 -0.729971)
(2.35664 -0.448543 -1.25965)
(2.20146 -0.78176 -1.27693)
(1.88491 -1.30927 -0.803171)
(1.49853 -1.94898 -0.533391)
(1.25773 -1.93112 -0.783186)
(0.896651 -1.87866 -0.47147)
(1.09997 -1.43773 -1.26221)
(0.906199 -1.44315 -1.94742)
(0.0172605 -1.14164 -2.22218)
(2.05287 0.701146 -1.3977)
(1.81261 0.152701 -1.3313)
(1.88806 0.107987 -1.79405)
(2.35619 -0.567198 -1.09108)
(1.86838 -1.11557 -1.22735)
(1.38775 -1.5456 -0.967674)
(0.958147 -1.98777 -1.03808)
(0.704791 -1.97666 -1.34142)
(0.134677 -2.38415 -0.721308)
(0.568682 -1.8807 -0.992678)
(1.04323 -1.30315 -1.40468)
(0.460277 -1.44756 -1.90064)
(0.256384 -1.24758 -2.0704)
(2.43397 -0.314831 3.07293)
(2.59326 -0.707223 2.96365)
(2.76577 -0.384017 3.2964)
(2.50954 -1.01098 3.2761)
(2.77439 -0.476 3.68451)
(2.92853 -1.35025 3.15257)
(2.73435 -1.06786 3.78338)
(2.72237 -0.18912 3.99632)
(2.18854 -2.74685 2.45403)
(2.36691 -1.89476 3.27664)
(2.25927 -0.320687 3.7203)
(2.18681 0.841414 3.64127)
(1.53435 -2.5687 1.70546)
(1.55028 -2.76492 1.5597)
(0.925312 -1.10762 2.68829)
(1.03072 0.523673 2.89765)
(1.64589 0.643471 2.68716)
(1.4176 -2.25598 0.463971)
(1.2039 -2.63084 0.380556)
(0.348093 -1.81173 0.637812)
(0.401689 -0.203127 1.08429)
(1.21019 0.559118 1.0404)
(0.658107 -1.80966 -1.51885)
(0.674258 -2.88478 -1.40203)
(0.326225 -2.58087 -1.64104)
(0.131287 -0.538629 -0.228613)
(0.406066 0.265828 -0.213256)
(0.864795 0.761671 0.332418)
(1.39225 -1.04472 0.268038)
(1.15889 -2.78408 -0.868788)
(0.963032 -2.88343 -1.72561)
(0.728681 -1.36997 -1.8665)
(0.656244 -0.190631 -1.23671)
(0.934372 0.122511 -0.99969)
(1.23924 -1.03221 -0.680972)
(2.55507 -0.400034 1.58801)
(2.36613 -2.03577 1.20563)
(1.98315 -2.49044 -0.0311436)
(1.25016 -1.90321 -1.05671)
(1.11143 -0.738075 -1.21511)
(1.06996 -0.298885 -1.06195)
(1.26571 -1.048 -0.731474)
(1.14003 -1.74247 -0.76369)
(2.85147 -0.668047 1.94331)
(2.40442 -1.77159 1.31518)
(1.91132 -1.88848 -0.252737)
(1.59905 -1.46993 -0.852307)
(1.19603 -1.04259 -0.945192)
(1.3301 -0.583329 -0.932457)
(1.21367 -1.18899 -0.778207)
(1.01808 -1.97661 0.00954356)
(0.809707 -1.73157 -1.4839)
(2.83144 -0.652708 1.36439)
(2.56804 -1.14814 1.31693)
(2.08953 -1.52984 0.788001)
(2.08763 -1.34113 -0.2816)
(1.44965 -0.876733 -0.905402)
(1.39378 -0.784799 -1.07847)
(1.12302 -1.05725 -1.10039)
(0.825768 -1.65011 -0.913617)
(0.665233 -1.44914 -1.73806)
(0.226141 -1.64358 -2.03621)
(2.57654 -0.575535 1.15841)
(2.3398 -1.07723 0.815306)
(2.3374 -0.981097 -0.541717)
(2.12228 -0.931309 -0.392352)
(1.7445 -0.884566 -1.30614)
(1.40138 -1.00184 -0.90454)
(0.829372 -1.54743 -1.11394)
(0.895873 -1.61093 -0.892179)
(0.906716 -1.46291 -1.39256)
(0.65731 -1.60808 -1.77624)
(0.0746847 -1.4989 -2.08305)
(2.57573 -0.450578 -0.271855)
(2.60168 -0.752673 -0.370989)
(2.35792 -1.07009 -0.555182)
(2.25892 -0.386349 -0.821908)
(1.78957 -0.900361 -1.28634)
(1.48532 -1.31469 -1.13407)
(1.49836 -1.4426 -0.497098)
(1.08346 -1.95757 -0.432945)
(1.01937 -1.45489 -1.12553)
(0.902743 -1.34805 -1.70328)
(0.554797 -1.46732 -1.98301)
(-0.212544 -1.09192 -2.18188)
(2.5472 0.12704 -0.489226)
(1.90083 -0.0771884 -1.06784)
(2.36118 -0.827319 -0.772974)
(2.30516 -0.517938 -1.31783)
(2.2435 -0.781225 -1.23947)
(1.87743 -1.30864 -0.805261)
(1.35357 -2.01441 -0.581046)
(1.22259 -1.99094 -0.727712)
(0.960244 -1.55646 -1.01148)
(1.04289 -1.46552 -1.16628)
(0.752582 -1.45492 -1.91612)
(-0.0815206 -1.23202 -2.26586)
(-0.389287 -0.632851 -2.01431)
(2.04251 0.713458 -1.44698)
(1.82611 0.155081 -1.32156)
(1.89804 0.0934997 -1.7895)
(2.34108 -0.589022 -1.06765)
(1.88963 -1.11606 -1.19277)
(1.38056 -1.50808 -0.960055)
(0.942056 -2.01167 -0.987846)
(0.729633 -1.99236 -1.29716)
(0.121979 -2.40501 -0.652324)
(0.527118 -1.94113 -0.982604)
(1.02202 -1.34922 -1.37449)
(0.440722 -1.49411 -1.78639)
(0.240629 -1.30184 -2.05)
(-0.310197 -1.14112 -1.96183)
(2.15911 -0.112696 3.13047)
(2.40616 -0.516748 3.13081)
(2.32188 -0.145563 3.27605)
(2.44852 -0.805056 2.95039)
(2.80299 -0.465859 3.24633)
(2.57375 -0.0388972 3.44731)
(2.55971 -1.073 3.31458)
(2.74278 -0.890756 3.57213)
(2.64452 -0.293404 3.77985)
(2.65567 -1.60709 3.03816)
(2.77232 -1.88532 3.63222)
(2.74083 0.0823468 4.04412)
(2.59733 0.596744 3.84523)
(2.30257 -2.40887 2.63523)
(2.10036 -2.48512 3.10216)
(2.19316 -0.742585 3.6972)
(2.05772 0.561683 3.70846)
(2.5351 0.753067 3.27336)
(1.38934 -2.69326 1.71431)
(1.61409 -2.6762 1.85037)
(0.898575 -2.00278 2.23342)
(0.90065 0.308143 2.69933)
(1.73429 0.376619 2.5073)
(1.84254 0.625146 2.54728)
(1.43273 -2.34003 0.482079)
(0.991754 -2.79322 0.0928734)
(0.397768 -2.25093 0.226277)
(0.31678 -0.458561 0.891221)
(0.973158 0.419731 1.0416)
(1.37611 0.334917 0.907636)
(1.09496 -1.50003 0.0705984)
(0.706493 -2.93754 -1.04047)
(0.475227 -2.91811 -1.79593)
(0.0729958 -1.04678 -0.472397)
(0.196224 0.0537313 -0.435935)
(0.929464 0.229574 -0.624492)
(1.24797 -0.277715 -0.312551)
(1.44961 -0.918711 0.439124)
(1.11338 -2.69234 -0.658915)
(1.01846 -3.09119 -1.3526)
(0.660857 -1.81688 -1.79595)
(0.670139 -0.418417 -1.24826)
(0.826723 0.088178 -1.02109)
(1.22984 -0.98144 -0.727019)
(1.35951 -1.52608 -0.211927)
(2.63226 -0.475954 1.78183)
(2.71578 -1.86647 1.92846)
(2.13538 -2.40256 1.21121)
(1.33994 -2.02796 -0.951163)
(1.05363 -0.962978 -1.1755)
(1.04547 -0.465585 -1.07915)
(1.27437 -1.1046 -0.694508)
(1.00652 -1.78361 -0.502078)
(1.15866 -1.88139 -0.952179)
(2.63225 -0.356319 2.2173)
(2.40332 -1.61399 1.38743)
(1.78534 -1.97747 0.0630712)
(1.64017 -1.55393 -0.652077)
(1.16992 -1.12426 -0.931758)
(1.27226 -0.900019 -0.916749)
(1.19971 -1.18028 -0.836)
(0.789229 -1.65155 -0.969267)
(0.760655 -1.73457 -1.39041)
(0.447024 -1.85432 -1.52357)
(2.72964 -0.921458 1.19995)
(2.39283 -1.35729 1.31487)
(1.98214 -1.74375 0.665598)
(1.97878 -1.40132 -0.345271)
(1.60057 -0.967002 -0.71703)
(1.04994 -1.01198 -1.22901)
(1.05249 -1.15981 -1.06856)
(0.751792 -1.71102 -0.864805)
(0.641962 -1.47044 -1.68912)
(0.25285 -1.51184 -2.04149)
(-0.246044 -1.28242 -2.11413)
(2.56215 -0.537324 1.23891)
(2.30191 -1.15699 0.821342)
(2.30325 -1.16463 -0.363112)
(2.14554 -1.08627 -0.0409422)
(1.72843 -0.96938 -1.27707)
(1.42477 -0.884281 -1.09881)
(1.11592 -1.39124 -1.00855)
(0.836845 -1.73694 -0.733647)
(0.870144 -1.45658 -1.32783)
(0.622219 -1.74393 -1.65569)
(-0.00779916 -1.18973 -2.15375)
(-0.509887 -0.937629 -2.15636)
(2.54151 -0.349911 -0.382939)
(2.47644 -0.958856 -0.677278)
(2.39219 -1.04071 -0.631694)
(2.28019 -0.422445 -0.908503)
(1.76595 -0.978368 -1.28509)
(1.54434 -1.34453 -1.06709)
(1.47013 -1.55199 -0.681839)
(1.03666 -2.003 -0.52031)
(0.936208 -1.55997 -1.00757)
(0.870849 -1.39379 -1.63816)
(0.36506 -1.46935 -1.92569)
(-0.306854 -1.15599 -2.17065)
(-0.839383 -0.275086 -2.1476)
(2.55873 0.122613 -0.399631)
(1.90398 -0.113451 -1.08336)
(2.3151 -0.945658 -0.797997)
(2.18731 -0.599129 -1.37742)
(2.23651 -0.817917 -1.22647)
(1.91127 -1.31878 -0.72503)
(1.43161 -1.93004 -0.548446)
(1.19424 -1.98868 -0.787065)
(0.884858 -1.66973 -0.882994)
(0.977475 -1.50079 -1.03681)
(0.804982 -1.52702 -1.794)
(0.0245128 -1.24797 -2.1987)
(-0.408346 -0.755759 -2.01729)
(-0.571847 -0.915328 -1.78381)
(2.03981 0.710601 -1.44211)
(1.8216 0.1496 -1.33651)
(1.91305 0.0572987 -1.78294)
(2.34681 -0.578309 -1.05559)
(1.94538 -0.986829 -1.23681)
(1.37525 -1.49878 -0.962355)
(0.942323 -1.9578 -0.984147)
(0.733033 -2.01773 -1.18376)
(0.100249 -2.40853 -0.539195)
(0.488694 -1.99607 -0.966306)
(1.01241 -1.41135 -1.32732)
(0.430927 -1.52595 -1.67497)
(0.224112 -1.39621 -1.95789)
(-0.308194 -1.0796 -1.98613)
(-0.708795 -0.430935 -1.58902)
(2.01016 -0.0292215 3.09514)
(2.15288 -0.419363 3.13568)
(2.13969 -0.094973 3.28993)
(2.3375 -0.587041 3.09065)
(2.34405 -0.339319 3.30844)
(2.39246 0.286603 3.41573)
(2.49264 -1.11727 2.88158)
(2.99695 -0.814911 2.99865)
(2.54764 -0.0832989 3.46271)
(2.51243 0.438859 3.47453)
(2.53618 -1.0934 3.28001)
(2.64891 -1.6313 3.41121)
(2.80756 -0.221868 3.83177)
(2.56802 0.518337 3.66498)
(2.29086 -2.27121 2.83686)
(2.84246 -1.70743 3.65443)
(2.74137 -0.836806 3.97043)
(2.67492 0.501656 3.9311)
(2.47174 0.605224 3.66486)
(2.30963 -2.47381 2.58457)
(2.13438 -2.4547 3.19364)
(2.00841 -1.72806 3.57817)
(2.03495 0.447679 3.68011)
(2.28768 0.851601 3.37933)
(2.35775 0.611277 3.19929)
(1.29911 -2.75906 1.46368)
(1.42406 -2.89043 1.54075)
(0.793536 -2.57261 1.78708)
(0.477728 0.160887 2.79218)
(1.27146 0.636569 2.53191)
(1.35911 0.87832 2.66843)
(2.29489 0.312654 2.21415)
(1.10093 -2.37051 -0.499652)
(0.792341 -2.91768 -0.13554)
(0.313521 -2.76754 -0.0889638)
(0.000342315 -0.74325 0.651786)
(0.804559 0.224613 0.776783)
(1.25866 0.429156 0.814651)
(1.49197 0.112896 0.91277)
(1.06131 -1.33869 -0.108444)
(0.621394 -2.8121 -0.8857)
(0.414891 -3.18263 -1.77983)
(0.185625 -1.43024 -0.995772)
(0.0936011 -0.106659 -0.351956)
(0.74181 0.256506 -0.29166)
(1.07959 -0.367404 -0.450188)
(1.58372 -0.894934 0.454992)
(1.80252 -0.630493 0.966787)
(1.34623 -2.48819 -0.00746358)
(1.07069 -3.27631 -0.888738)
(0.607723 -2.18294 -1.7532)
(0.598971 -0.737207 -1.33335)
(0.745969 0.0241561 -1.04604)
(1.09976 -0.782189 -0.962496)
(1.2168 -1.51968 -0.403925)
(1.59923 -1.6543 -0.031657)
(2.59451 -0.800432 2.01533)
(2.73815 -2.13361 1.95305)
(2.15995 -2.44143 1.61218)
(1.32141 -2.11279 -0.793283)
(0.976013 -1.13551 -1.13129)
(0.964854 -0.598022 -1.1416)
(1.20189 -1.00616 -0.83486)
(0.930288 -1.50937 -0.919003)
(1.08499 -1.90352 -0.987101)
(0.792253 -1.75661 -1.28874)
(2.53661 -1.01663 1.98881)
(2.45245 -1.5139 1.51136)
(1.72238 -1.99726 0.34549)
(1.70486 -1.61894 -0.382644)
(1.15871 -1.21998 -0.868416)
(1.21037 -0.884706 -0.986398)
(1.18306 -1.1565 -0.893791)
(0.744881 -1.71537 -0.79154)
(0.683287 -1.76553 -1.34246)
(0.290788 -1.78979 -1.58246)
(0.0191843 -1.35712 -1.72218)
(2.68329 -0.89857 1.21474)
(2.1687 -1.65603 1.19554)
(1.8835 -1.86061 0.588293)
(1.7689 -1.64217 -0.00657414)
(1.40592 -1.04591 -1.15012)
(1.28627 -1.01459 -0.838935)
(1.1254 -1.20595 -0.987308)
(0.724161 -1.72634 -0.81924)
(0.51289 -1.52338 -1.64954)
(0.146729 -1.30158 -2.13741)
(-0.187647 -1.39954 -2.09525)
(-0.46069 -0.853581 -2.033)
(2.53163 -0.557462 1.34756)
(2.23514 -1.29741 0.952773)
(2.32538 -1.24001 0.052859)
(2.06891 -1.30181 0.159854)
(1.65841 -1.00513 -1.37519)
(1.39472 -1.00765 -1.05556)
(1.00167 -1.4884 -1.04652)
(0.773947 -1.87535 -0.634799)
(0.805027 -1.5162 -1.20464)
(0.47624 -1.71313 -1.61013)
(-0.0463034 -1.24283 -2.05537)
(-0.561544 -1.00416 -2.12333)
(-0.968074 -0.488588 -2.11027)
(2.52457 -0.316546 -0.454312)
(2.47641 -0.944745 -0.659202)
(2.32603 -1.10095 -0.891628)
(2.2737 -0.512616 -0.91028)
(1.76497 -0.993176 -1.26893)
(1.47251 -1.45866 -1.02025)
(1.38309 -1.77536 -0.652695)
(0.984226 -2.12137 -0.629719)
(0.84268 -1.63786 -0.903954)
(0.845485 -1.44613 -1.58972)
(0.447175 -1.5446 -1.81829)
(-0.208359 -1.25555 -2.09671)
(-0.830305 -0.45203 -2.09535)
(-0.773021 -0.695019 -1.94862)
(2.58039 0.196633 -0.27184)
(1.90708 -0.119348 -1.08199)
(2.27484 -1.00627 -0.855454)
(2.31045 -0.430965 -1.11935)
(2.26185 -0.852547 -1.18639)
(1.89971 -1.41619 -0.713588)
(1.38953 -1.96684 -0.560886)
(1.18685 -2.06762 -0.631422)
(0.781614 -1.79185 -0.793685)
(0.940453 -1.46723 -0.99439)
(0.760876 -1.57291 -1.74678)
(-0.0374702 -1.15158 -2.21253)
(-0.438409 -0.876999 -2.00805)
(-0.58303 -0.903006 -1.80254)
(-1.17406 -0.445013 -1.7074)
(2.01167 0.712526 -1.52336)
(1.82534 0.135753 -1.34257)
(1.89188 0.0398955 -1.78181)
(2.33165 -0.600538 -1.04804)
(1.90189 -1.07473 -1.22771)
(1.37473 -1.49888 -0.969055)
(0.91484 -1.94604 -1.0051)
(0.729019 -1.92993 -1.22858)
(0.101774 -2.3886 -0.55935)
(0.446747 -2.03462 -0.969765)
(0.999388 -1.43036 -1.31352)
(0.414558 -1.52845 -1.59379)
(0.195693 -1.47022 -1.84752)
(-0.302252 -1.02622 -1.966)
(-0.691739 -0.37007 -1.59572)
(-0.64346 -0.825705 -1.34311)
(2.11324 -0.048135 2.84716)
(2.02647 -0.136684 3.08298)
(2.11259 0.138558 3.12893)
(2.20153 -0.29781 3.14257)
(2.11974 -0.36497 3.28236)
(2.23259 0.212871 3.33216)
(2.32603 -0.887815 2.96188)
(2.48001 -0.429255 3.25784)
(2.33548 0.101823 3.45539)
(2.22111 0.546256 3.53121)
(2.50819 -0.953708 2.94446)
(2.65695 -1.44254 3.02787)
(2.45159 -0.102403 3.66299)
(2.52933 0.17253 3.5006)
(2.40451 0.393007 3.43794)
(2.20903 -1.29669 3.28401)
(2.74404 -1.68652 3.38429)
(2.77409 -0.518043 3.8385)
(2.66642 0.194102 3.72607)
(2.32297 0.348667 3.6705)
(2.39154 -2.28227 2.70862)
(2.73643 -2.07973 3.55038)
(2.70677 -1.4765 3.87037)
(2.82465 0.170765 3.97468)
(2.55009 0.581991 3.70659)
(2.47395 0.62002 3.45181)
(2.02705 -2.48641 2.46134)
(1.83519 -2.98643 2.84018)
(1.97652 -2.18005 3.37574)
(1.90413 -0.222654 3.79163)
(2.23065 0.700838 3.37713)
(2.3854 0.535327 3.2045)
(2.4291 0.489085 3.04351)
(1.08178 -2.52394 1.41086)
(1.27039 -2.95242 1.18855)
(0.568785 -2.9506 1.19774)
(0.408809 -0.38689 2.42895)
(1.43183 0.44885 2.25003)
(1.64494 0.456877 2.32777)
(1.63181 0.411919 2.69557)
(2.14754 -0.199438 2.21234)
(1.06024 -2.11544 0.47524)
(0.744938 -2.86472 -0.14921)
(0.316795 -3.15942 -0.272089)
(-0.119041 -1.09796 0.487259)
(0.627668 -0.097994 0.516899)
(1.15861 0.437407 0.863315)
(1.37589 0.158538 0.840658)
(1.58806 -0.568359 1.05345)
(1.04651 -1.26749 0.400291)
(0.441709 -2.68845 -0.799844)
(0.37618 -3.38726 -1.52814)
(0.0959641 -1.7904 -1.3057)
(0.000541614 -0.299336 -0.621957)
(0.655348 0.0902891 -0.306466)
(0.966809 -0.0852333 -0.358086)
(1.41939 -0.81049 0.301182)
(1.94141 -1.77417 0.0925472)
(1.85659 -0.591007 1.54138)
(1.87664 -2.08598 0.717443)
(1.15669 -3.31841 -0.204203)
(0.547798 -2.4404 -1.69084)
(0.587171 -1.07648 -1.37961)
(0.657262 -0.184833 -1.13953)
(0.931532 -0.663761 -0.947256)
(1.15883 -1.40096 -0.485588)
(1.53507 -1.69071 -0.0408999)
(1.43033 -1.95323 -0.410104)
(2.57373 -0.913298 2.11989)
(2.66432 -2.32155 1.90599)
(2.1403 -2.39589 1.52533)
(1.24542 -2.14056 -0.43777)
(0.944901 -1.31956 -1.0215)
(0.942868 -0.615378 -1.17007)
(1.11363 -0.980386 -0.804907)
(0.866596 -1.46281 -0.899685)
(1.02907 -1.92514 -0.923068)
(0.821092 -1.92026 -1.0046)
(0.726482 -0.957672 -1.28346)
(2.39753 -0.884574 2.17906)
(2.40454 -1.62258 1.55861)
(1.61659 -1.9873 0.942536)
(1.64426 -1.74482 -0.110807)
(1.16779 -1.30841 -0.799962)
(1.13196 -0.913934 -0.97958)
(1.16384 -1.18005 -0.978122)
(0.700891 -1.72159 -0.847415)
(0.689276 -1.88002 -1.14023)
(0.552847 -1.90024 -1.43056)
(0.0469401 -1.54062 -1.68718)
(-0.0980377 -0.72957 -1.57596)
(2.68435 -0.843567 1.15848)
(2.16691 -1.57176 1.04383)
(1.82158 -1.89037 0.663923)
(1.79743 -1.46389 -0.195623)
(1.51058 -1.06981 -0.959044)
(1.18784 -0.988051 -0.997538)
(1.11768 -1.30212 -1.04508)
(0.646343 -1.73664 -0.806536)
(0.479777 -1.67997 -1.40127)
(0.215038 -1.26601 -2.13332)
(-0.132418 -1.53805 -1.96041)
(-0.531466 -0.867505 -2.06442)
(-0.635572 -0.48675 -2.10131)
(2.37342 -0.742694 1.52901)
(2.21556 -1.31101 1.06634)
(2.29101 -1.32511 0.169019)
(2.06484 -1.36709 -0.0850428)
(1.64017 -0.962378 -1.37365)
(1.35014 -1.07021 -1.04104)
(1.01776 -1.43088 -1.03281)
(0.742867 -1.93814 -0.539151)
(0.706471 -1.68824 -0.915596)
(0.524014 -1.5114 -1.68993)
(-0.0212098 -1.47068 -1.91673)
(-0.503227 -1.07088 -2.07192)
(-0.938661 -0.573318 -2.09653)
(-1.13533 -0.449838 -2.10581)
(2.56546 -0.286347 -0.560757)
(2.477 -0.97534 -0.660702)
(2.33337 -1.1071 -0.909257)
(2.18425 -0.605434 -0.974636)
(1.76418 -1.07184 -1.26704)
(1.59347 -1.37143 -0.984075)
(1.26505 -1.91018 -0.703907)
(0.984871 -2.173 -0.686776)
(0.795112 -1.69276 -0.755753)
(0.781165 -1.48519 -1.59845)
(0.380027 -1.61532 -1.74255)
(-0.353152 -1.14286 -2.10588)
(-0.849758 -0.496307 -2.07905)
(-0.785431 -0.637217 -1.96952)
(-1.01218 -0.0243396 -1.90781)
(2.61254 0.166566 -0.296423)
(1.91506 -0.121659 -1.01648)
(2.32336 -0.990701 -0.68771)
(2.24121 -0.555882 -1.12499)
(2.32253 -0.860722 -1.15033)
(1.86371 -1.46192 -0.744139)
(1.37693 -1.96943 -0.568745)
(1.18157 -2.05914 -0.757004)
(0.735324 -1.80734 -0.782162)
(0.917771 -1.44943 -0.960288)
(0.733773 -1.60371 -1.70571)
(-0.0362244 -1.07814 -2.2205)
(-0.472098 -0.917991 -1.9925)
(-0.589876 -0.870691 -1.81095)
(-1.18761 -0.588346 -1.69655)
(-0.708703 -0.768275 -1.37654)
(2.01108 0.705179 -1.57153)
(1.80297 0.136727 -1.36225)
(1.86808 0.00983015 -1.76751)
(2.32889 -0.604218 -1.03693)
(1.86698 -1.06519 -1.26248)
(1.3578 -1.49987 -0.982165)
(0.879089 -1.98062 -1.01211)
(0.744386 -1.9228 -1.21533)
(0.0606818 -2.39131 -0.576801)
(0.398259 -2.07861 -0.953006)
(0.981025 -1.4705 -1.28255)
(0.39949 -1.52259 -1.55043)
(0.170983 -1.52424 -1.7259)
(-0.303356 -1.02385 -1.92337)
(-0.687908 -0.456326 -1.56575)
(-0.639554 -0.80823 -1.36671)
(-0.881982 -0.207333 -1.28498)
(2.17318 0.0988873 2.49722)
(2.12244 -0.13443 2.80081)
(2.23004 0.0393631 2.80336)
(1.99699 -0.278521 3.13839)
(2.05221 -0.0936688 3.14747)
(2.23456 0.417961 3.07461)
(2.14872 -0.730831 3.08261)