/*--------------------------------*- C++ -*----------------------------------*\
  =========                 |
  \\      /  F ield         | OpenFOAM: The Open Source CFD Toolbox
   \\    /   O peration     | Website:  https://openfoam.org
    \\  /    A nd           | Version:  7
     \\/     M anipulation  |
\*---------------------------------------------------------------------------*/
FoamFile
{
    version     2.0;
    format      ascii;
    class       volVectorField;
    location    "2";
    object      U_0;
}
// * * * * * * * * * * * * * * * * * * * * * * * * * * * * * * * * * * * * * //

dimensions      [0 1 -1 0 0 0 0];

internalField   nonuniform List<vector> 
18780
(
(2.02947 0.769016 -1.21504)
(2.41151 0.429887 0.266829)
(1.95154 0.766528 -1.22216)
(1.95606 0.282233 -1.22926)
(2.74734 0.293503 0.438941)
(2.41516 0.426064 0.30025)
(2.03404 0.280515 -0.676326)
(2.05204 0.733691 -1.09407)
(1.9457 0.271997 -1.24795)
(1.83816 0.141786 -1.69361)
(2.5281 -0.270702 0.527112)
(2.77924 0.220086 0.44562)
(2.44871 0.027441 -0.174798)
(2.42772 0.427627 0.16935)
(2.03213 0.274728 -0.711143)
(2.2932 0.0287735 -0.765)
(2.0353 0.75588 -1.24076)
(1.94673 0.225227 -1.2699)
(1.79107 0.124221 -1.70018)
(2.36395 -0.532019 -1.09454)
(2.5022 -0.576889 0.647752)
(2.67455 -0.215299 1.15032)
(2.70798 -0.546998 0.535251)
(2.7868 0.0655068 0.447832)
(2.46977 -0.0727485 0.0978352)
(2.33575 -0.367977 0.207803)
(2.46318 0.399842 0.0395127)
(1.98422 0.197659 -0.846125)
(2.25637 0.166242 -1.01387)
(2.46838 -0.431798 -1.0945)
(2.04267 0.739176 -1.21375)
(1.93347 0.246305 -1.26859)
(1.80792 0.0503941 -1.69374)
(2.34908 -0.530552 -1.11543)
(1.98585 -1.1925 -1.29075)
(2.10172 -1.66607 0.452442)
(2.64026 -0.898971 0.61388)
(2.2663 -0.985246 -0.081182)
(2.81803 -0.331244 1.09326)
(2.71434 -0.496193 0.886687)
(2.70401 -0.891853 -0.164804)
(2.80357 -0.154186 0.44493)
(2.4752 -0.0995026 -0.369197)
(2.3754 -0.612418 -0.232034)
(2.32974 -0.611948 -0.72797)
(2.47629 0.34101 0.088743)
(1.97966 0.209358 -0.764876)
(2.3413 0.0109565 -0.905467)
(2.45899 -0.382013 -1.1051)
(2.18323 -0.935599 -1.30201)
(2.04017 0.728688 -1.23271)
(1.92544 0.216865 -1.26668)
(1.83544 0.0956998 -1.71982)
(2.34211 -0.5628 -1.10003)
(1.96012 -1.193 -1.30829)
(1.40876 -1.61427 -0.855699)
(1.59679 -1.72048 -1.10202)
(2.31703 -1.53913 1.1143)
(2.41028 -1.58671 0.0139502)
(2.83753 -0.956732 0.650077)
(2.33231 -1.21004 0.565402)
(2.41927 -1.11251 -0.287788)
(2.89829 -0.479411 0.8873)
(2.76377 -0.752661 0.694227)
(2.64481 -0.800323 0.0415625)
(2.22251 -0.803067 -0.968065)
(2.79098 -0.215092 0.461627)
(2.51597 -0.327842 0.209765)
(2.37575 -0.816149 0.0542353)
(2.31278 -0.600745 -0.690377)
(1.99949 -1.17757 -0.910431)
(2.48254 0.283161 -0.0166719)
(1.96839 0.168666 -0.804856)
(2.34762 -0.0333951 -1.02324)
(2.44901 -0.366673 -1.11449)
(2.17296 -0.947594 -1.31995)
(1.75276 -1.57301 -1.01528)
(2.01152 0.710955 -1.25456)
(1.90767 0.21472 -1.26531)
(1.83578 0.0797055 -1.71422)
(2.33805 -0.588822 -1.10497)
(1.96026 -1.19761 -1.30243)
(1.42258 -1.56238 -0.872221)
(1.02547 -1.94009 -1.01818)
(1.17098 -1.87324 -1.92141)
(1.63032 -1.82533 -0.649112)
(1.99233 -2.16575 -1.251)
(2.64997 -1.25352 1.34092)
(2.4067 -1.54252 0.509259)
(2.2506 -1.70844 -0.810111)
(2.9235 -0.74433 0.928858)
(2.37369 -1.28948 0.847664)
(2.38473 -1.15633 -0.0775849)
(2.22262 -1.05438 -1.10232)
(2.87612 -0.570851 0.86845)
(2.76507 -1.13529 0.413394)
(2.54543 -0.763417 0.0249743)
(2.25955 -0.844901 -0.971929)
(1.83377 -0.808558 -1.23414)
(2.79821 -0.302168 0.449007)
(2.56304 -0.335456 -0.297356)
(2.33173 -1.08454 0.0297175)
(2.33593 -0.587717 -0.609711)
(1.89372 -0.959828 -0.944665)
(1.54903 -1.38693 -0.956218)
(2.48438 0.259057 0.0289192)
(1.94993 0.109605 -0.854086)
(2.38334 -0.145069 -0.98195)
(2.43948 -0.38173 -1.13942)
(2.15699 -0.949689 -1.3255)
(1.75135 -1.55438 -0.985221)
(1.56764 -1.77637 -0.566849)
(2.01983 0.673751 -1.27531)
(1.89916 0.188059 -1.27868)
(1.81859 0.0861771 -1.7248)
(2.29638 -0.655868 -1.11342)
(1.95243 -1.21112 -1.30583)
(1.4131 -1.50034 -0.888495)
(1.02299 -1.92754 -1.02766)
(0.770612 -1.78112 -1.414)
(1.32714 -1.88891 -0.595849)
(1.16282 -1.95933 -1.6354)
(1.35663 -2.22338 -2.08359)
(1.68503 -1.80289 0.0198642)
(1.93652 -2.37432 -0.927374)
(1.65274 -1.86279 -1.66024)
(2.90612 -0.861131 1.44489)
(2.50001 -1.39119 1.49331)
(2.26392 -1.73949 -0.386095)
(1.91931 -1.22927 -1.08902)
(3.01014 -0.340505 1.21044)
(2.34231 -1.33602 0.815902)
(2.33861 -1.22266 -0.00512634)
(2.20714 -1.15793 -0.891205)
(1.6553 -0.787598 -0.997083)
(2.79216 -0.625842 0.939618)
(2.80373 -1.01331 0.592139)
(2.54102 -0.781126 -0.0449237)
(2.13907 -0.916293 -0.928185)
(1.83717 -0.68089 -1.24276)
(1.66577 -0.893818 -0.686727)
(2.76357 -0.465093 0.375177)
(2.60603 -0.407246 -0.0875501)
(2.29936 -1.26611 0.107611)
(2.29938 -0.639847 -0.640043)
(2.00916 -0.622861 -0.977013)
(1.45693 -1.39493 -0.85097)
(1.442 -1.86892 -0.718018)
(2.4993 0.158953 -0.0656072)
(1.896 0.016332 -0.913132)
(2.39394 -0.323449 -0.987787)
(2.41934 -0.409268 -1.19192)
(2.17205 -0.875546 -1.34114)
(1.76464 -1.52933 -0.964672)
(1.57151 -1.8393 -0.561369)
(1.33151 -1.73355 -0.890832)
(2.00705 0.692708 -1.33045)
(1.89069 0.180446 -1.27283)
(1.8123 0.115558 -1.74165)
(2.32562 -0.668932 -1.06338)
(1.95375 -1.15889 -1.29409)
(1.40957 -1.49175 -0.900216)
(1.01002 -1.90947 -1.03725)
(0.758651 -1.82036 -1.44153)
(0.209888 -1.88001 -0.912877)
(1.85732 -2.25793 2.36243)
(1.60026 -1.95961 0.285355)
(1.20091 -1.95552 -0.630112)
(0.875911 -2.19396 -0.712097)
(1.18141 -1.92909 -1.05941)
(1.39072 -2.40298 -2.00732)
(1.04839 -1.75258 -1.91111)
(1.91535 -1.4695 0.268776)
(1.90102 -2.51771 -0.587124)
(1.63051 -2.07726 -1.65646)
(1.36029 -0.985907 -1.65368)
(3.05185 -0.674029 1.59673)
(2.57788 -1.42449 1.26993)
(2.14972 -1.75857 -0.00634432)
(1.88462 -1.31474 -1.04256)
(1.54647 -0.536165 -1.09463)
(3.02307 -0.296502 1.38455)
(2.36582 -1.21549 0.978087)
(2.2917 -1.42224 0.172535)
(2.13197 -1.3612 -0.616216)
(1.6444 -0.771706 -1.04323)
(1.67803 -0.604873 -0.978565)
(2.75806 -0.629899 0.988996)
(2.77686 -1.03805 0.592245)
(2.57135 -0.781096 -0.161787)
(2.07727 -0.914621 -0.471646)
(1.82613 -0.780661 -1.18267)
(1.48334 -0.954401 -0.909052)
(1.34671 -1.49555 -0.791216)
(2.68161 -0.590556 0.278482)
(2.61484 -0.496037 -0.0927705)
(2.26651 -1.38042 0.0367989)
(2.27628 -0.530865 -0.679735)
(1.89888 -0.816108 -1.00743)
(1.50055 -1.32614 -0.944301)
(1.42911 -1.80903 -0.740006)
(1.28132 -1.61682 -1.08648)
(2.51123 0.156334 -0.171477)
(1.91861 0.0818503 -0.836552)
(2.42836 -0.434146 -0.941352)
(2.41478 -0.410496 -1.20226)
(2.13958 -0.907975 -1.3427)
(1.81923 -1.47869 -0.888675)
(1.56605 -1.87042 -0.552335)
(1.30411 -1.77965 -0.818926)
(1.1225 -1.53503 -0.978389)
(1.98481 0.655522 -1.36882)
(1.84518 0.174278 -1.29263)
(1.81105 0.123778 -1.74217)
(2.3664 -0.48084 -1.11172)
(1.94143 -1.14273 -1.28275)
(1.40597 -1.54573 -0.927329)
(0.99694 -1.93399 -1.04893)
(0.753529 -1.88443 -1.42351)
(0.203099 -1.95872 -0.972106)
(0.622042 -1.70067 -0.928972)
(2.99631 -1.45315 3.31896)
(1.89026 -2.43456 2.10477)
(1.7027 -1.49479 2.36299)
(1.56608 -1.9666 0.258044)
(1.00358 -2.40983 0.0512065)
(1.0414 -2.13721 -0.862128)
(0.895865 -2.39994 -0.774469)
(0.393257 -1.51143 -1.03868)
(1.16274 -1.62862 -0.794038)
(1.36584 -2.55128 -1.84443)
(1.04929 -2.01799 -1.92293)
(0.825243 -0.816479 -1.63534)
(2.11895 -1.24088 0.584976)
(1.92038 -2.5175 -0.106808)
(1.62722 -2.17687 -1.58514)
(1.36408 -1.12469 -1.59822)
(1.03652 -0.235207 -1.53079)
(3.00476 -0.92861 1.76114)
(2.52316 -1.83415 0.826934)
(2.05367 -1.7245 0.140345)
(1.69407 -1.57822 -0.889363)
(1.47987 -0.596358 -1.09437)
(1.38803 -0.602734 -1.0459)
(2.99697 -0.500636 1.35067)
(2.4958 -0.912156 1.49675)
(2.27302 -1.49406 0.262964)
(2.13328 -1.3028 -0.435712)
(1.6116 -0.814777 -1.09648)
(1.51318 -0.850336 -1.04331)
(1.27793 -1.26594 -0.930893)
(2.68833 -0.74967 1.0641)
(2.66175 -1.09474 0.58328)
(2.5162 -0.817627 -0.388421)
(2.23115 -0.834109 -0.0424105)
(1.8894 -0.759929 -1.05875)
(1.56717 -1.04901 -0.816675)
(1.21148 -1.55183 -0.855742)
(1.06578 -1.47555 -1.00975)
(2.66911 -0.554419 0.173194)
(2.58846 -0.611274 -0.228041)
(2.22219 -1.39569 -0.042714)
(2.26334 -0.603452 -0.544721)
(1.9088 -0.648012 -1.09047)
(1.57213 -1.26839 -1.02235)
(1.33365 -1.70168 -0.703852)
(1.23444 -1.71973 -0.969451)
(1.19623 -1.19798 -1.3947)
(2.49659 0.0981901 -0.368867)
(1.93252 0.0668315 -0.861296)
(2.43582 -0.526065 -0.848301)
(2.42077 -0.368879 -1.18131)
(2.18139 -0.811769 -1.32642)
(1.81032 -1.42755 -0.877123)
(1.51366 -1.90214 -0.528801)
(1.2972 -1.74243 -0.964938)
(1.0894 -1.57764 -0.922946)
(1.20647 -1.45137 -1.33017)
(1.99044 0.699945 -1.39777)
(1.85709 0.163668 -1.29081)
(1.8238 0.116441 -1.75926)
(2.33852 -0.577194 -1.08642)
(1.92081 -1.15234 -1.28082)
(1.38538 -1.58387 -0.950507)
(0.9676 -1.98139 -1.05134)
(0.740708 -1.91439 -1.42145)
(0.193905 -2.1322 -0.920097)
(0.610814 -1.79598 -0.922171)
(1.0612 -1.28326 -1.46531)
(3.04981 -1.39613 3.23592)
(2.8734 -1.74864 3.21427)
(2.34636 -1.45905 3.51475)
(1.65001 -2.51981 1.98975)
(1.6028 -1.84846 2.22471)
(1.1035 -0.376005 2.93304)
(1.53051 -2.11635 0.263728)
(1.02364 -2.56692 -0.0987087)
(0.518454 -0.94632 0.940117)
(0.867197 -2.19702 -1.34215)
(0.828764 -2.60169 -1.10177)
(0.326143 -1.89341 -1.25781)
(0.136203 -0.15559 -0.275272)
(1.2196 -1.42033 -0.391812)
(1.24343 -2.71568 -1.49689)
(1.02761 -2.33716 -1.9423)
(0.749171 -0.949181 -1.64245)
(0.681956 0.0929972 -1.1844)
(2.11669 -1.04896 0.728347)
(2.02121 -2.37507 0.107558)
(1.69089 -2.26925 -1.26547)
(1.35556 -1.14794 -1.59444)
(1.20136 -0.382634 -1.22231)
(1.04827 0.0182069 -1.28299)
(2.86485 -0.982982 1.84261)
(2.4516 -2.05683 0.808683)
(2.01398 -1.72235 0.014604)
(1.55889 -1.63791 -0.751876)
(1.34181 -0.751202 -1.02426)
(1.46927 -0.472368 -0.855511)
(1.15477 -0.947376 -0.850688)
(2.96428 -0.779223 1.38502)
(2.624 -0.887582 1.60202)
(2.22125 -1.46896 0.501087)
(2.15387 -1.26371 -0.294304)
(1.60208 -0.859832 -1.08943)
(1.42662 -0.712858 -1.06759)
(1.1376 -1.13392 -1.05192)
(0.892481 -1.44321 -1.30448)
(2.58261 -0.769604 1.12348)
(2.51204 -1.21123 0.527545)
(2.44117 -0.861893 -0.539324)
(2.06195 -0.865601 -0.627356)
(1.82164 -0.768809 -1.22004)
(1.21376 -1.48339 -0.690897)
(1.15117 -1.50562 -0.886808)
(1.03245 -1.56181 -0.889294)
(1.00666 -1.30415 -1.57407)
(2.65648 -0.548599 -0.127601)
(2.5461 -0.759491 -0.24262)
(2.26553 -1.27662 -0.119725)
(2.23479 -0.561102 -0.642024)
(1.84665 -0.812423 -1.12608)
(1.41089 -1.19305 -1.16287)
(1.43867 -1.55697 -0.37566)
(1.2077 -1.83991 -0.81422)
(1.18489 -1.28447 -1.30986)
(0.944984 -1.29835 -1.84135)
(2.49526 0.0832843 -0.543041)
(1.905 -0.00525644 -0.967918)
(2.40896 -0.684697 -0.747822)
(2.39179 -0.403013 -1.20459)
(2.18878 -0.791831 -1.30129)
(1.82611 -1.36171 -0.85902)
(1.50222 -1.9116 -0.527972)
(1.29057 -1.79378 -0.972577)
(1.08532 -1.64657 -0.854256)
(1.16226 -1.46125 -1.27816)
(0.868354 -1.4413 -2.00324)
(2.02306 0.708129 -1.39058)
(1.86292 0.163198 -1.29845)
(1.89261 0.124864 -1.75153)
(2.34811 -0.576049 -1.09836)
(1.89993 -1.11219 -1.27231)
(1.36609 -1.60251 -0.955525)
(0.955819 -1.98118 -1.05652)
(0.728829 -1.95441 -1.37634)
(0.167394 -2.28011 -0.836626)
(0.583697 -1.86111 -0.933511)
(1.05584 -1.27934 -1.43241)
(0.459676 -1.38422 -2.02447)
(2.6866 -0.381198 3.10263)
(2.60501 -1.2973 3.17383)
(3.09919 -1.38524 3.18015)
(2.75758 -0.635022 3.82277)
(2.55008 -2.51993 2.70014)
(2.25815 -1.98665 3.37381)
(2.20813 -0.0663873 3.79821)
(1.60033 -2.44231 1.76892)
(1.57709 -2.4935 1.77054)
(1.19333 -0.205906 2.90521)
(1.38458 0.618998 2.88526)
(1.4458 -2.26925 0.346804)
(1.18639 -2.58813 0.092047)
(0.354969 -1.4093 0.797747)
(0.496618 -0.132226 1.27677)
(0.785083 -2.0774 -1.47535)
(0.702237 -2.79593 -1.49313)
(0.309274 -2.2089 -1.45483)
(0.151929 -0.251689 -0.243532)
(0.512696 0.417909 -0.0409977)
(1.35764 -1.23103 -0.00181332)
(1.18102 -2.78014 -1.19904)
(0.98322 -2.5986 -1.94859)
(0.681859 -1.16313 -1.75941)
(0.634018 -0.0104997 -1.20497)
(0.960947 0.160428 -0.941136)
(2.3398 -0.482784 1.38868)
(1.99415 -2.37073 0.121556)
(1.75311 -2.37074 -0.949846)
(1.28169 -1.51282 -1.35766)
(1.11543 -0.460393 -1.2628)
(1.17538 -0.360257 -0.949685)
(1.23432 -1.19508 -0.704211)
(2.83148 -0.760078 1.9142)
(2.44612 -2.03556 1.02276)
(1.97571 -1.78883 -0.293633)
(1.48513 -1.65176 -0.706821)
(1.29904 -0.704615 -0.975118)
(1.36317 -0.483544 -0.9609)
(1.21162 -0.994376 -0.740988)
(0.864157 -1.61725 -1.2602)
(2.9697 -0.662302 1.40502)
(2.65881 -0.996878 1.43555)
(2.16431 -1.43372 0.796774)
(2.11568 -1.28179 -0.366516)
(1.49433 -0.899639 -1.00418)
(1.36186 -0.7204 -1.06258)
(1.14087 -1.04919 -1.04786)
(0.833589 -1.40611 -1.42283)
(0.690833 -1.53375 -1.76516)
(2.55062 -0.730493 1.10529)
(2.39901 -1.18052 0.660024)
(2.3519 -0.91607 -0.637462)
(2.17065 -0.854973 -0.290934)
(1.82517 -0.833794 -1.21752)
(1.42351 -0.91782 -0.972861)
(1.17876 -1.48854 -0.892154)
(0.941872 -1.5675 -0.948148)
(0.962489 -1.48229 -1.41204)
(0.591145 -1.52431 -1.89909)
(2.62186 -0.477706 -0.0840746)
(2.54994 -0.884249 -0.372458)
(2.27339 -1.24747 -0.179514)
(2.23617 -0.506272 -0.67242)
(1.81603 -0.813283 -1.26254)
(1.65488 -1.08409 -0.957636)
(1.47803 -1.42893 -0.399804)
(1.10195 -2.02921 -0.387733)
(1.09373 -1.56691 -1.05073)
(0.917512 -1.30833 -1.78763)
(0.481296 -1.46156 -2.04258)
(2.51747 0.0887749 -0.551738)
(1.9424 -6.91961e-05 -0.930191)
(2.39112 -0.769175 -0.727328)
(2.35837 -0.451641 -1.25121)
(2.1957 -0.786267 -1.28295)
(1.87871 -1.31416 -0.809981)
(1.50077 -1.94632 -0.528485)
(1.259 -1.92433 -0.791372)
(0.903637 -1.87585 -0.471537)
(1.10005 -1.4405 -1.2639)
(0.904634 -1.44494 -1.94857)
(0.0189276 -1.14594 -2.22056)
(2.04862 0.70437 -1.40301)
(1.81495 0.153962 -1.32748)
(1.89021 0.106183 -1.78539)
(2.35494 -0.569065 -1.09197)
(1.86727 -1.11183 -1.24976)
(1.37511 -1.57038 -0.966285)
(0.949643 -1.98341 -1.03858)
(0.700607 -1.97478 -1.34458)
(0.125141 -2.3789 -0.730351)
(0.567661 -1.8827 -0.983829)
(1.04738 -1.2993 -1.40496)
(0.455021 -1.44452 -1.91203)
(0.250956 -1.23967 -2.06853)
(2.43118 -0.311529 3.07123)
(2.59816 -0.69991 2.96464)
(2.76477 -0.390234 3.29405)
(2.50782 -1.01865 3.27273)
(2.77581 -0.464773 3.68446)
(2.93145 -1.35617 3.15758)
(2.73575 -1.03002 3.78725)
(2.72186 -0.198081 3.99159)
(2.19599 -2.7555 2.45455)
(2.36907 -1.87172 3.29505)
(2.26759 -0.297581 3.72204)
(2.19945 0.843885 3.6401)
(1.53791 -2.5665 1.71787)
(1.54262 -2.76543 1.56887)
(0.930011 -1.07414 2.70886)
(1.05019 0.519573 2.90625)
(1.65475 0.643456 2.69454)
(1.41291 -2.25978 0.46221)
(1.20175 -2.62436 0.396212)
(0.3435 -1.78688 0.658852)
(0.410336 -0.192402 1.09906)
(1.21876 0.565193 1.04948)
(0.647155 -1.82921 -1.54713)
(0.669728 -2.88218 -1.4024)
(0.313623 -2.56268 -1.62715)
(0.129715 -0.521034 -0.217934)
(0.40822 0.274168 -0.20029)
(0.868675 0.76401 0.342379)
(1.38156 -1.05826 0.253031)
(1.14357 -2.79325 -0.892304)
(0.953014 -2.87304 -1.73938)
(0.721062 -1.35468 -1.86653)
(0.654049 -0.182327 -1.2354)
(0.934507 0.126945 -0.997729)
(1.23983 -1.03152 -0.679581)
(2.53865 -0.407665 1.57506)
(2.32947 -2.06761 1.12639)
(1.95935 -2.49577 -0.109893)
(1.23794 -1.89321 -1.07223)
(1.1084 -0.729443 -1.21958)
(1.06814 -0.293009 -1.06311)
(1.26395 -1.04802 -0.734451)
(1.14106 -1.74442 -0.763141)
(2.8535 -0.67972 1.93556)
(2.39928 -1.79464 1.30298)
(1.91043 -1.8902 -0.263985)
(1.58606 -1.48162 -0.852115)
(1.19344 -1.03912 -0.947062)
(1.3294 -0.57471 -0.934566)
(1.21349 -1.18526 -0.777636)
(1.01744 -1.97854 0.00258018)
(0.807606 -1.73299 -1.48511)
(2.83755 -0.648914 1.37196)
(2.57394 -1.14216 1.32368)
(2.09151 -1.52718 0.7981)
(2.09079 -1.34158 -0.284618)
(1.4432 -0.880121 -0.91097)
(1.3955 -0.783307 -1.07846)
(1.12311 -1.0541 -1.10074)
(0.822977 -1.64882 -0.917933)
(0.660906 -1.44845 -1.74189)
(0.219705 -1.64311 -2.03905)
(2.57269 -0.602664 1.149)
(2.34374 -1.08482 0.812948)
(2.33785 -0.982845 -0.546646)
(2.11679 -0.930949 -0.404294)
(1.74419 -0.887567 -1.30072)
(1.39558 -1.01118 -0.899666)
(0.816794 -1.55284 -1.11731)
(0.891259 -1.61008 -0.8967)
(0.901802 -1.46231 -1.3964)
(0.650948 -1.60631 -1.77959)
(0.0685798 -1.49559 -2.08544)
(2.58223 -0.46703 -0.260597)
(2.60872 -0.746166 -0.342482)
(2.34751 -1.09688 -0.51747)
(2.25516 -0.398636 -0.804022)
(1.79121 -0.892298 -1.28204)
(1.48255 -1.30379 -1.13587)
(1.49287 -1.43688 -0.48412)
(1.07643 -1.963 -0.428012)
(1.01809 -1.45827 -1.12645)
(0.900012 -1.34808 -1.70531)
(0.54755 -1.46183 -1.9857)
(-0.212762 -1.09277 -2.18126)
(2.54804 0.1213 -0.49741)
(1.90424 -0.0718389 -1.05644)
(2.36704 -0.808795 -0.763264)
(2.32099 -0.50235 -1.29692)
(2.23948 -0.782767 -1.24373)
(1.87446 -1.31001 -0.807596)
(1.35729 -2.01484 -0.57587)
(1.22115 -1.99297 -0.720263)
(0.963695 -1.55544 -1.00719)
(1.04268 -1.46555 -1.17367)
(0.74629 -1.45321 -1.92061)
(-0.0818225 -1.23456 -2.2651)
(-0.396641 -0.630635 -2.01587)
(2.04249 0.710975 -1.44464)
(1.82691 0.156386 -1.31584)
(1.89144 0.107239 -1.7883)
(2.33566 -0.596728 -1.07106)
(1.88214 -1.13259 -1.19747)
(1.37863 -1.52478 -0.961457)
(0.934025 -2.00797 -1.00509)
(0.722242 -1.98961 -1.3271)
(0.116036 -2.39864 -0.679566)
(0.527747 -1.9384 -0.980673)
(1.02347 -1.34684 -1.37406)
(0.434191 -1.49157 -1.79895)
(0.234046 -1.29235 -2.05486)
(-0.312398 -1.13434 -1.9633)
(2.15696 -0.110548 3.13204)
(2.40508 -0.513648 3.13078)
(2.31983 -0.139795 3.27763)
(2.45391 -0.802759 2.94743)
(2.79782 -0.459447 3.25101)
(2.57128 -0.0305474 3.44782)
(2.55473 -1.0844 3.31071)
(2.74777 -0.874634 3.57273)
(2.64058 -0.290338 3.77619)
(2.66407 -1.59682 3.04446)
(2.76637 -1.89984 3.63001)
(2.74148 0.0790486 4.04189)
(2.59701 0.597186 3.84005)
(2.30612 -2.41267 2.64344)
(2.10751 -2.47153 3.11594)
(2.20062 -0.720643 3.70015)
(2.06902 0.566473 3.70995)
(2.54349 0.742279 3.27329)
(1.39257 -2.69575 1.72804)
(1.61052 -2.67438 1.86112)
(0.898969 -1.96751 2.26438)
(0.912521 0.314046 2.71063)
(1.74743 0.371354 2.51538)
(1.85638 0.621463 2.54513)
(1.43571 -2.34713 0.505526)
(0.994263 -2.78889 0.112739)
(0.392889 -2.22602 0.247199)
(0.326007 -0.441773 0.906959)
(0.985097 0.427322 1.05082)
(1.38134 0.333604 0.915142)
(1.08292 -1.5211 0.046016)
(0.697074 -2.93819 -1.04949)
(0.456959 -2.90104 -1.79193)
(0.0675699 -1.02474 -0.452681)
(0.200863 0.0644036 -0.424507)
(0.933766 0.237692 -0.605723)
(1.25334 -0.277262 -0.306875)
(1.43049 -0.939973 0.412052)
(1.09188 -2.70422 -0.694546)
(0.99789 -3.08142 -1.3854)
(0.65406 -1.79794 -1.80011)
(0.668134 -0.405958 -1.2474)
(0.828783 0.0956753 -1.01739)
(1.23058 -0.981095 -0.723755)
(1.36026 -1.52584 -0.20704)
(2.62626 -0.472355 1.7664)
(2.70028 -1.86738 1.91052)
(2.11563 -2.41686 1.13963)
(1.3276 -2.02492 -0.965136)
(1.05168 -0.956306 -1.17979)
(1.04437 -0.458502 -1.08003)
(1.27303 -1.10469 -0.694365)
(1.00544 -1.78532 -0.507679)
(1.15809 -1.88225 -0.94955)
(2.64089 -0.346552 2.21171)
(2.39589 -1.629 1.38382)
(1.78491 -1.98143 0.0413506)
(1.62923 -1.55677 -0.667652)
(1.16542 -1.12337 -0.934586)
(1.26931 -0.896914 -0.918577)
(1.2002 -1.17986 -0.834987)
(0.789812 -1.65337 -0.96388)
(0.761206 -1.73916 -1.3868)
(0.44557 -1.8561 -1.5224)
(2.72888 -0.922655 1.2038)
(2.40364 -1.34446 1.3219)
(1.9816 -1.74423 0.675467)
(1.9824 -1.4011 -0.347557)
(1.59983 -0.966984 -0.706403)
(1.05121 -1.0015 -1.23633)
(1.05442 -1.15442 -1.0698)
(0.749512 -1.71123 -0.86482)
(0.638985 -1.47159 -1.68978)
(0.244774 -1.5099 -2.04449)
(-0.250356 -1.27921 -2.11716)
(2.56081 -0.559149 1.22381)
(2.30266 -1.16238 0.818242)
(2.30287 -1.15579 -0.398487)
(2.14214 -1.073 -0.068399)
(1.73042 -0.965549 -1.27389)
(1.42167 -0.883992 -1.09678)
(1.11246 -1.38848 -1.01022)
(0.83431 -1.72858 -0.748613)
(0.864908 -1.45555 -1.33354)
(0.61734 -1.73703 -1.6649)
(-0.0119403 -1.18568 -2.15439)
(-0.512056 -0.937591 -2.1568)
(2.54895 -0.370048 -0.378487)
(2.47744 -0.965345 -0.659571)
(2.3917 -1.04919 -0.596651)
(2.27982 -0.419917 -0.899804)
(1.76327 -0.974543 -1.28555)
(1.53686 -1.33936 -1.07391)
(1.4716 -1.53214 -0.676215)
(1.03479 -1.99722 -0.505622)
(0.936296 -1.55834 -1.01286)
(0.866392 -1.39229 -1.64151)
(0.357019 -1.46303 -1.92857)
(-0.305667 -1.15765 -2.16885)
(-0.841341 -0.275761 -2.14613)
(2.56071 0.121901 -0.403187)
(1.90574 -0.111736 -1.08107)
(2.32289 -0.922991 -0.78359)
(2.17893 -0.614049 -1.39738)
(2.23657 -0.811829 -1.23133)
(1.90553 -1.30857 -0.744785)
(1.4269 -1.93416 -0.547265)
(1.19336 -1.98878 -0.785167)
(0.891834 -1.66201 -0.888985)
(0.976651 -1.50331 -1.04232)
(0.801193 -1.52499 -1.79651)
(0.0281559 -1.24901 -2.19757)
(-0.415176 -0.755133 -2.01886)
(-0.571604 -0.913514 -1.7816)
(2.03353 0.712304 -1.4549)
(1.8215 0.152814 -1.33082)
(1.91089 0.0535998 -1.7788)
(2.34404 -0.583262 -1.05507)
(1.93473 -1.02699 -1.21712)
(1.37401 -1.50525 -0.960669)
(0.940537 -1.9774 -0.976145)
(0.730309 -2.03764 -1.19223)
(0.095188 -2.40679 -0.551684)
(0.489124 -1.99395 -0.962131)
(1.01055 -1.40907 -1.32757)
(0.423989 -1.52509 -1.68637)
(0.21887 -1.3873 -1.9674)
(-0.310217 -1.07447 -1.98393)
(-0.711192 -0.42374 -1.59014)
(2.01106 -0.0278202 3.09382)
(2.15102 -0.418583 3.13552)
(2.14133 -0.0915768 3.29016)
(2.33739 -0.578303 3.09509)
(2.33818 -0.333279 3.30983)
(2.39048 0.301155 3.4173)
(2.48996 -1.12643 2.8779)
(2.99245 -0.799969 3.00668)
(2.54523 -0.0798482 3.46194)
(2.51019 0.449026 3.47296)
(2.53963 -1.09651 3.27995)
(2.65092 -1.6106 3.41334)
(2.80316 -0.219274 3.82841)
(2.56311 0.526314 3.66352)
(2.29658 -2.2625 2.84413)
(2.84597 -1.70423 3.65601)
(2.74334 -0.781143 3.97691)
(2.67305 0.502339 3.92604)
(2.47341 0.59304 3.66283)
(2.31731 -2.47494 2.59497)
(2.13456 -2.45536 3.19968)
(2.01482 -1.69475 3.59327)
(2.04434 0.457167 3.68112)
(2.29998 0.844951 3.38012)
(2.35827 0.608319 3.20036)
(1.30416 -2.76832 1.47608)
(1.4246 -2.89 1.55866)
(0.792175 -2.55729 1.81029)
(0.499213 0.182839 2.80076)
(1.28508 0.636721 2.5441)
(1.35794 0.882983 2.67857)
(2.2983 0.310945 2.21689)
(1.09933 -2.38299 -0.497419)
(0.789089 -2.91985 -0.128534)
(0.30376 -2.74285 -0.0721198)
(0.00715611 -0.722626 0.660236)
(0.815181 0.234943 0.790377)
(1.26466 0.427487 0.819979)
(1.49763 0.109734 0.918551)
(1.05521 -1.35365 -0.132407)
(0.613068 -2.82137 -0.892829)
(0.403516 -3.16904 -1.78394)
(0.180353 -1.40754 -0.978097)
(0.0957547 -0.0945039 -0.340695)
(0.747095 0.260778 -0.2836)
(1.08455 -0.367538 -0.445556)
(1.58603 -0.900909 0.456842)
(1.78621 -0.64578 0.933288)
(1.32534 -2.49816 -0.0320604)
(1.05374 -3.2704 -0.922183)
(0.599063 -2.16509 -1.7581)
(0.596584 -0.722899 -1.33296)
(0.747337 0.0319678 -1.04266)
(1.10208 -0.782977 -0.958303)
(1.21736 -1.52053 -0.401581)
(1.59767 -1.65934 -0.0379729)
(2.59309 -0.7938 2.00127)
(2.73842 -2.12137 1.95898)
(2.15958 -2.44798 1.62543)
(1.31377 -2.11705 -0.811341)
(0.973393 -1.12905 -1.13765)
(0.96342 -0.593127 -1.14289)
(1.20183 -1.00654 -0.834326)
(0.930734 -1.51193 -0.915007)
(1.08503 -1.90496 -0.985506)
(0.787135 -1.75242 -1.30095)
(2.53973 -1.01146 1.98443)
(2.44833 -1.5263 1.50058)
(1.7203 -2.00396 0.326995)
(1.69899 -1.61826 -0.400522)
(1.15301 -1.21871 -0.872884)
(1.21048 -0.883286 -0.985825)
(1.18307 -1.15482 -0.893113)
(0.745468 -1.71374 -0.7929)
(0.682178 -1.76884 -1.34021)
(0.285359 -1.79133 -1.58133)
(0.019618 -1.35353 -1.72363)
(2.67726 -0.912824 1.21471)
(2.17331 -1.65255 1.2122)
(1.88049 -1.86522 0.595923)
(1.77188 -1.64573 -0.0122333)
(1.40368 -1.04921 -1.14378)
(1.28365 -1.01744 -0.838582)
(1.12235 -1.20093 -0.990737)
(0.722617 -1.72522 -0.821416)
(0.511648 -1.52732 -1.64679)
(0.141189 -1.30259 -2.13682)
(-0.18888 -1.39977 -2.09681)
(-0.463874 -0.850183 -2.03373)
(2.54263 -0.561101 1.32728)
(2.23777 -1.30218 0.935419)
(2.32476 -1.23704 0.0235459)
(2.06709 -1.29647 0.15831)
(1.65819 -1.01064 -1.36867)
(1.39402 -1.00495 -1.05873)
(0.996053 -1.4866 -1.05083)
(0.769691 -1.87218 -0.6419)
(0.801701 -1.5129 -1.21356)
(0.472188 -1.71552 -1.61012)
(-0.0505238 -1.23916 -2.05611)
(-0.563877 -1.00145 -2.12428)
(-0.967527 -0.481906 -2.10843)
(2.52892 -0.331733 -0.461148)
(2.47503 -0.952738 -0.657563)
(2.32648 -1.1086 -0.865794)
(2.27734 -0.509771 -0.899104)
(1.76178 -0.991307 -1.26798)
(1.46228 -1.45862 -1.02813)
(1.38843 -1.75273 -0.654013)
(0.978385 -2.11779 -0.617991)
(0.841626 -1.63723 -0.911015)
(0.843047 -1.44339 -1.59198)
(0.437657 -1.53868 -1.82187)
(-0.206066 -1.25711 -2.094)
(-0.833376 -0.450579 -2.09439)
(-0.777488 -0.6829 -1.94843)
(2.57807 0.176287 -0.284747)
(1.9078 -0.120545 -1.08684)
(2.26735 -1.0069 -0.861303)
(2.30488 -0.440955 -1.13785)
(2.25122 -0.850453 -1.19858)
(1.90523 -1.4009 -0.710267)
(1.3892 -1.96708 -0.555285)
(1.1844 -2.06652 -0.631477)
(0.783531 -1.78791 -0.796129)
(0.938633 -1.47186 -0.994812)
(0.757676 -1.57138 -1.7473)
(-0.0350647 -1.15183 -2.21128)
(-0.445362 -0.876585 -2.00885)
(-0.582903 -0.896785 -1.80153)
(-1.17366 -0.45277 -1.70754)
(2.0103 0.709031 -1.53233)
(1.82786 0.138578 -1.33537)
(1.9004 0.0481482 -1.78058)
(2.33922 -0.602564 -1.04779)
(1.91695 -1.05065 -1.22315)
(1.37914 -1.5019 -0.961943)
(0.915275 -1.94543 -0.997723)
(0.717711 -1.95247 -1.22293)
(0.0943664 -2.38189 -0.558384)
(0.448457 -2.03087 -0.966778)
(0.998494 -1.42992 -1.31314)
(0.40804 -1.52863 -1.60194)
(0.190371 -1.46446 -1.85847)
(-0.30507 -1.0241 -1.96012)
(-0.69407 -0.367966 -1.59447)
(-0.643332 -0.82069 -1.3466)
(2.11444 -0.0468195 2.84561)
(2.02701 -0.133447 3.0814)
(2.11605 0.146948 3.12619)
(2.19792 -0.297808 3.14488)
(2.12077 -0.35508 3.28256)
(2.23481 0.217429 3.32883)
(2.32653 -0.884125 2.96397)
(2.47538 -0.4242 3.26155)
(2.33586 0.108548 3.45415)
(2.22314 0.541974 3.52688)
(2.50727 -0.95826 2.93886)
(2.66382 -1.42099 3.03292)
(2.44727 -0.106384 3.65987)
(2.52861 0.177099 3.49936)
(2.4039 0.391918 3.43607)
(2.216 -1.28843 3.28867)
(2.74038 -1.6836 3.38007)
(2.77739 -0.503142 3.83973)
(2.65991 0.203244 3.72111)
(2.32024 0.342987 3.66955)
(2.38981 -2.28457 2.71568)
(2.73328 -2.07052 3.56338)
(2.71142 -1.45745 3.86995)
(2.82092 0.186455 3.9734)
(2.55032 0.573533 3.70451)
(2.47579 0.614735 3.45149)
(2.04323 -2.48241 2.47635)
(1.84635 -2.97501 2.86036)
(1.97926 -2.16206 3.38997)
(1.91265 -0.204162 3.79167)
(2.2404 0.696236 3.38139)
(2.38935 0.528276 3.20661)
(2.43269 0.481101 3.04304)
(1.08384 -2.53524 1.4167)
(1.27319 -2.95615 1.20479)
(0.565127 -2.9409 1.22499)
(0.416906 -0.366371 2.45103)
(1.44528 0.449413 2.2624)
(1.65809 0.449307 2.33022)
(1.64666 0.408778 2.6931)
(2.15123 -0.203563 2.21563)
(1.05316 -2.13083 0.460114)
(0.740852 -2.87381 -0.151335)
(0.30409 -3.13823 -0.263425)
(-0.11247 -1.07183 0.498903)
(0.637292 -0.0890119 0.532372)
(1.16716 0.436366 0.868035)
(1.38124 0.155873 0.846659)
(1.58917 -0.573729 1.06049)
(1.0341 -1.28316 0.370895)
(0.429091 -2.69989 -0.820318)
(0.358337 -3.37538 -1.55156)
(0.0899325 -1.76512 -1.29067)
(0.00203141 -0.28558 -0.610873)
(0.65991 0.0963103 -0.296205)
(0.970818 -0.0890313 -0.355404)
(1.42272 -0.814807 0.3066)
(1.94334 -1.77284 0.105151)
(1.84992 -0.59124 1.51486)
(1.81489 -2.13099 0.642191)
(1.12822 -3.32792 -0.251098)
(0.538885 -2.42315 -1.70074)
(0.584719 -1.06228 -1.38267)
(0.658974 -0.17605 -1.13623)
(0.932835 -0.661661 -0.946794)
(1.15857 -1.40286 -0.483432)
(1.53409 -1.69253 -0.0408009)
(1.42763 -1.95373 -0.406366)
(2.57307 -0.910378 2.12136)
(2.66491 -2.32464 1.90559)
(2.13022 -2.40717 1.51919)
(1.23823 -2.14616 -0.461594)
(0.940743 -1.31247 -1.03068)
(0.940417 -0.610198 -1.17326)
(1.11262 -0.977969 -0.808025)
(0.86679 -1.46091 -0.903145)
(1.02759 -1.92564 -0.924926)
(0.819282 -1.91789 -1.01186)
(0.724504 -0.951731 -1.28049)
(2.39476 -0.894047 2.17381)
(2.41019 -1.62429 1.55465)
(1.61229 -1.99739 0.926478)
(1.64357 -1.74536 -0.127844)
(1.16137 -1.31015 -0.802282)
(1.13074 -0.912056 -0.981921)
(1.17095 -1.1736 -0.974689)
(0.7004 -1.72062 -0.847537)
(0.688299 -1.87973 -1.14282)
(0.550737 -1.90322 -1.42544)
(0.0453318 -1.53924 -1.68783)
(-0.0988379 -0.725982 -1.5763)
(2.67712 -0.843514 1.16758)
(2.15703 -1.58561 1.06221)
(1.82247 -1.89579 0.659788)
(1.79517 -1.47075 -0.187471)
(1.50686 -1.07656 -0.96508)
(1.18307 -0.987058 -1.0023)
(1.11517 -1.29941 -1.04529)
(0.644959 -1.73576 -0.808439)
(0.475648 -1.67934 -1.40531)
(0.210289 -1.26613 -2.13345)
(-0.133794 -1.53184 -1.96559)
(-0.534844 -0.863876 -2.06514)
(-0.636888 -0.480524 -2.10065)
(2.38527 -0.744911 1.51303)
(2.216 -1.32378 1.05121)
(2.29075 -1.33098 0.16546)
(2.06851 -1.35526 -0.0424514)
(1.64339 -0.971462 -1.37336)
(1.34614 -1.07146 -1.04302)
(1.01238 -1.42952 -1.03854)
(0.738629 -1.93613 -0.54359)
(0.703296 -1.68608 -0.925161)
(0.51963 -1.51251 -1.69006)
(-0.0236306 -1.46811 -1.9183)
(-0.506733 -1.06556 -2.07204)
(-0.939725 -0.566279 -2.09584)
(-1.13777 -0.439817 -2.10348)
(2.56811 -0.299831 -0.548902)
(2.47147 -0.988915 -0.69092)
(2.33003 -1.11998 -0.91099)
(2.18397 -0.598572 -0.970451)
(1.75432 -1.07464 -1.27068)
(1.58119 -1.3754 -0.991067)
(1.26183 -1.90503 -0.697401)
(0.976209 -2.17684 -0.680311)
(0.794171 -1.6954 -0.756085)
(0.77759 -1.48314 -1.60181)
(0.372328 -1.61252 -1.74259)
(-0.3531 -1.14425 -2.10161)
(-0.853192 -0.493526 -2.07818)
(-0.791734 -0.62361 -1.96925)
(-1.01077 -0.0281149 -1.9081)
(2.60952 0.158229 -0.284826)
(1.9149 -0.123886 -1.02712)
(2.31377 -0.987551 -0.721014)
(2.2403 -0.554709 -1.13609)
(2.30949 -0.873354 -1.15887)
(1.85819 -1.46274 -0.755334)
(1.37525 -1.97101 -0.563795)
(1.18007 -2.06009 -0.746943)
(0.743638 -1.80385 -0.784147)
(0.916255 -1.45282 -0.959686)
(0.730331 -1.60038 -1.70978)
(-0.0351364 -1.07805 -2.21958)
(-0.478051 -0.912948 -1.99417)
(-0.589516 -0.861244 -1.81075)
(-1.18612 -0.588374 -1.6966)
(-0.7118 -0.763147 -1.37725)
(2.00656 0.697173 -1.5948)
(1.80953 0.140708 -1.34963)
(1.86763 0.0202009 -1.76461)
(2.33315 -0.606622 -1.03674)
(1.88816 -1.06867 -1.24185)
(1.36073 -1.50326 -0.982248)
(0.88477 -1.96668 -1.00604)
(0.739855 -1.92626 -1.21504)
(0.0619838 -2.38464 -0.58374)
(0.400768 -2.07192 -0.953359)
(0.980225 -1.46246 -1.28774)
(0.393441 -1.52104 -1.55484)
(0.163462 -1.52088 -1.73725)
(-0.306597 -1.02501 -1.91632)
(-0.690579 -0.457811 -1.56434)
(-0.639797 -0.802677 -1.36937)
(-0.883434 -0.203327 -1.28383)
(2.17245 0.100277 2.49747)
(2.12315 -0.135387 2.79917)
(2.2321 0.0426644 2.80116)
(1.99557 -0.272578 3.13838)
(2.05478 -0.0898719 3.14541)
(2.23472 0.421088 3.07165)
(2.14844 -0.725609 3.08597)
(2.07217 -0.664372 3.32509)