/*--------------------------------*- C++ -*----------------------------------*\
  =========                 |
  \\      /  F ield         | OpenFOAM: The Open Source CFD Toolbox
   \\    /   O peration     | Website:  https://openfoam.org
    \\  /    A nd           | Version:  7
     \\/     M anipulation  |
\*---------------------------------------------------------------------------*/
FoamFile
{
    version     2.0;
    format      ascii;
    class       volScalarField;
    location    "2.5";
    object      nut;
}
// * * * * * * * * * * * * * * * * * * * * * * * * * * * * * * * * * * * * * //

dimensions      [0 2 -1 0 0 0 0];

internalField   nonuniform List<scalar> 
18870
(
0.00031077
0.00056998
0.000305297
0.000598871
0.000900633
0.00053633
0.000308287
0.000270997
0.000640081
0.000450012
0.000563887
0.000828703
0.00104562
0.000489109
0.000327913
0.00026597
0.000236562
0.000423754
0.000344745
0.000343784
0.00119748
0.00060931
0.00126015
0.000847807
0.000867773
0.000475039
0.000480874
0.000307837
0.000263003
0.000594017
0.000231793
0.000175697
0.000427622
0.000420091
0.000435236
0.00114759
0.000988846
0.000524359
0.000684864
0.00117451
0.00136691
0.000801687
0.000860026
0.000593569
0.000555309
0.000483119
0.000340917
0.000393496
0.000473865
0.000583698
0.000257322
0.000109051
0.000427153
0.000422766
0.000252843
0.000670605
0.000796463
0.00141891
0.000944579
0.000793519
0.000472598
0.000700109
0.00082515
0.0011375
0.00139169
0.000837306
0.000799405
0.000813013
0.000683904
0.000765981
0.000697327
0.000499478
0.000474457
0.000476196
0.00040588
0.00041734
0.000610678
0.000290583
0.000111346
0.000291133
0.000490968
0.000273126
0.000879226
0.000883329
0.00031267
0.00101591
0.00143782
0.00121032
0.00146396
0.00160107
0.000705199
0.000455688
0.00194285
0.00157288
0.000878376
0.00103069
0.00153127
0.000744657
0.000768755
0.000819358
0.000664311
0.000566139
0.00056473
0.000711446
0.000407487
0.00051099
0.000347562
0.000397608
0.000400065
0.000474388
0.000499718
0.000258121
0.000302397
0.000129615
0.000148601
0.000616547
0.00030126
0.000963861
0.00081463
0.000601474
0.000420292
0.000445569
0.000676851
0.0013751
0.00151007
0.00142248
0.000596402
0.00175844
0.00202596
0.000804683
0.000610896
0.000742998
0.00143385
0.00109898
0.00119084
0.000896886
0.000974875
0.000979408
0.00054862
0.000685256
0.000717992
0.000738624
0.000579332
0.000633808
0.000357358
0.000773918
0.000532651
0.000522629
0.000440222
0.000513933
0.00028439
0.000379302
0.00049761
0.000294715
0.000356739
0.000204783
0.000290521
0.000194542
0.000200579
0.000808413
0.000193358
0.000935423
0.000411602
0.000503355
0.000332029
0.000419716
0.000461813
0.00059512
0.000836828
0.000818376
0.000828269
0.0015401
0.0010784
0.000901445
0.00141032
0.00124324
0.00123082
0.000843035
0.00126159
0.000906999
0.000712683
0.000924757
0.00186821
0.00176244
0.000894989
0.000871719
0.000989826
0.000922155
0.000976713
0.000546997
0.000495977
0.000679996
0.00059013
0.000825321
0.000657363
0.000808452
0.000448892
0.000939226
0.000643499
0.000475986
0.000432263
0.000616597
0.000639009
0.000264951
0.000404048
0.0003987
0.000658229
0.00051025
0.000309776
0.00033332
0.000282552
0.000242454
0.00027288
0.000916242
0.000405722
0.00074092
0.000530345
0.000422004
0.000340378
0.000223439
0.000496433
0.000341321
0.000377446
0.00023578
0.000479246
0.000795457
0.0006769
0.00106245
0.000666143
0.000924505
0.0009458
0.000555459
0.00120462
0.00142672
0.00122032
0.000997963
0.000684263
0.000863716
0.0016351
0.00113893
0.00125219
0.000864979
0.000839665
0.00113586
0.00131117
0.000679858
0.00180237
0.000718142
0.00106928
0.000863105
0.000956894
0.000304883
0.000323546
0.00059084
0.000352749
0.000292502
0.000917722
0.00077052
0.000514174
0.000598512
0.000856217
0.000491244
0.000268507
0.000545608
0.000306295
0.000503469
0.000449311
0.000361097
0.000462059
0.000426681
0.000709921
0.000571457
0.000388611
0.000293082
0.000133192
0.000199554
0.000299084
0.000376019
0.000912488
0.000615619
0.000685048
0.000726088
0.00035741
0.00028237
0.000342851
0.000177972
0.000459098
0.000384492
0.000405181
0.000446914
0.000412458
0.000446083
0.00029602
0.000463875
0.000474966
0.000309456
0.00104642
0.00118009
0.000995792
0.000792444
0.00120354
0.00053651
0.00117858
0.00104305
0.00137869
0.00124164
0.000562335
0.000776685
0.0011127
0.00077152
0.00183669
0.00136385
0.000920381
0.000980624
0.00136601
0.0009761
0.00100367
0.00140466
0.000960336
0.00160366
0.000889124
0.000623209
0.00096115
0.000627415
0.000721827
0.00049007
0.000230746
0.000506237
0.000214269
0.000394634
0.000322672
0.00087032
0.000904555
0.000696772
0.000561684
0.00067148
0.000311756
0.000206944
0.000500612
0.000477661
0.000266155
0.000342047
0.000586259
0.000435423
0.000579006
0.000483857
0.000822072
0.000609814
0.000388736
0.000316555
0.000123753
0.00015418
5.82412e-05
0.000289418
0.000453855
0.000608892
0.000742624
0.000899689
0.00072431
0.000306705
0.000227853
0.000156066
0.000160278
0.000197079
0.000490882
0.000374116
0.000445906
0.000398663
0.000397459
0.00031064
0.000520611
0.00033244
0.000646775
0.000359903
0.000481549
0.000524935
0.00087481
0.0002915
0.000696057
0.000955003
0.000775457
0.000790208
0.000598973
0.0011239
0.000813447
0.000945908
0.0011615
0.000563286
0.000747135
0.00130724
0.000931358
0.000967864
0.000619922
0.00154202
0.00106381
0.00102351
0.00110444
0.000700968
0.000660273
0.00106688
0.00168969
0.00121346
0.00105463
0.000949692
0.00109619
0.00103538
0.000689059
0.000653736
0.000486122
0.000990771
0.000544383
0.000705668
0.000551853
0.000415627
0.000618643
0.000418632
0.000505422
0.000304772
0.000480871
0.0010078
0.000859646
0.00052846
0.000368483
0.000567098
0.000258282
0.000423576
0.000461039
0.000426103
0.00033329
0.000326539
0.000369529
0.000551646
0.000487303
0.00059476
0.000561403
0.000726113
0.000627893
0.000524893
0.000645474
0.000158523
0.000187345
0.000157825
0.000133681
0.000175607
0.000444286
0.000211461
0.000748564
0.00102314
0.000626969
0.000314364
0.000186522
0.000288084
9.25344e-05
0.000221761
0.000337266
0.000414361
0.000494855
0.000402775
0.000317198
0.000346996
0.000335817
0.00027528
0.000316795
0.000494264
0.000443861
9.10795e-05
0.000377905
0.000430812
0.00032503
0.000314568
0.000295456
0.000660281
0.000490864
0.000454927
0.000835975
0.000623109
0.000725017
0.00046782
0.000656113
0.00048319
0.00123908
0.000980808
0.00158232
0.000751945
0.000700597
0.000932569
0.000635495
0.00090605
0.00059541
0.000576095
0.000856796
0.00135116
0.00171388
0.00117155
0.00204361
0.0014802
0.000946546
0.00134438
0.00113184
0.000998016
0.00184448
0.00104196
0.000586549
0.00124835
0.000741089
0.000949638
0.000772373
0.000679586
0.000689551
0.00046128
0.00108302
0.000622788
0.000435707
0.000619113
0.00036611
0.000633067
0.000446956
0.00043281
0.000445386
0.000395871
0.000377244
0.000643348
0.000811582
0.000335695
0.000592992
0.000522089
0.000427596
0.000429088
0.000240524
0.000464072
0.00034981
0.000325429
0.000255392
0.000412585
0.000571461
0.000528306
0.000606783
0.000620726
0.000693902
0.000576104
0.000424938
0.000552185
0.000209421
0.000178195
0.000147039
0.000275995
0.000162472
0.000165424
0.000366171
0.000601379
0.000391516
0.000995833
0.000480933
0.000268659
0.000165493
0.000240356
0.000110899
0.000184008
0.000179945
8.76838e-05
0.000321074
0.000462963
0.000523024
0.000436481
0.000416585
0.000364725
0.000531335
0.000309382
0.000431218
0.000643246
0.000354912
0.000259583
0.000539142
0.000340373
0.000197305
0.000145844
0.000392766
0.000421259
0.000407295
0.000454624
0.000830462
0.000252251
0.000564128
0.000463411
0.000822919
0.000760892
0.00130002
0.0013683
0.000611402
0.000713534
0.000946393
0.0006473
0.000654739
0.00117016
0.00138214
0.001391
0.000327778
0.00174102
0.00192208
0.00101886
0.000969537
0.000778883
0.000868237
0.000958467
0.00101556
0.00185608
0.00234824
0.000684005
0.00136956
0.00150697
0.00149165
0.00116742
0.00115146
0.000797325
0.000332292
0.00114653
0.000736641
0.000865593
0.00119008
0.00109297
0.000858639
0.000798191
0.000570958
0.000634152
0.00036946
0.000256466
0.0010349
0.000624235
0.000447321
0.00082033
0.000500474
0.00068431
0.000275772
0.000442356
0.000431189
0.00035131
0.000346612
0.000408597
0.000734735
0.000810417
0.000452486
0.00063997
0.000559852
0.000409301
0.000391207
0.000207706
0.000374685
0.000458398
0.000280076
0.000342859
0.000227843
0.000410479
0.00053268
0.000535001
0.000591755
0.000704949
0.000570476
0.000583153
0.0004546
0.000266094
0.000196279
0.000133947
0.000160703
0.000271775
0.000342763
0.000171433
0.00015564
0.000312438
0.000749183
0.00044539
0.000894276
0.000315261
0.000268184
0.000358552
0.000210036
0.000125917
0.000278404
2.77107e-05
0.00013163
0.000338528
0.000502864
0.00028067
0.000435027
0.00037162
0.000437718
0.000397348
0.00053351
0.000383738
0.000308849
0.000380771
0.000493196
0.000314578
0.00048692
0.000378132
0.000411455
0.000322314
0.00034416
0.000532999
0.000360585
0.000355023
0.000674552
0.00026553
0.000407814
0.000411213
0.000432501
0.000627717
0.00103379
0.00063887
0.000206643
0.000526454
0.000695664
0.000662396
0.000898075
0.000779387
0.000699514
0.00122201
0.000881284
0.000904609
0.000964958
0.000594686
0.000638366
0.000789739
0.00087039
0.00120001
0.00115632
0.000861034
0.00125543
0.00183213
0.00107459
0.00101802
0.000786101
0.000961858
0.00113011
0.000971721
0.00100672
0.00202659
0.00202161
0.00053673
0.0018101
0.00154705
0.00132436
0.00109283
0.00104646
0.000772036
0.000459786
0.000591497
0.000592794
0.00031575
0.00130872
0.00115096
0.00079386
0.00073924
0.000672791
0.000533156
0.000505411
0.000461326
0.00041859
0.000482608
0.000977609
0.000444206
0.000713331
0.000537744
0.000586448
0.000417589
0.000389246
0.000367602
0.000456469
0.000444248
0.000237868
0.000810644
0.000300844
0.00066552
0.000940207
0.000316249
0.000622705
0.000551875
0.000405508
0.000395189
0.000266296
0.00033875
0.000404691
0.000239159
0.00044465
0.000334963
0.000331536
0.000471474
0.00044237
0.000526881
0.000626457
0.00075176
0.000510192
0.000597503
0.000421514
0.000515628
0.000193558
0.000155264
0.000326219
0.000411447
0.000384488
0.000281315
0.000173261
0.000154033
0.000298973
0.000768872
0.000654677
0.000752719
0.000201453
0.000272228
0.00043944
0.000571841
0.000155391
0.000164755
0.000217817
0.000126746
0.000161572
0.000141589
0.000576513
0.000723225
0.000329513
0.000364083
0.00012831
0.000193978
0.000512329
0.000347657
0.000330631
0.0004082
0.00036063
0.000634282
0.000509378
0.000323926
0.000479587
0.000318111
0.000613013
0.000385703
0.000416999
0.000233729
0.000319528
0.000341151
0.000243786
0.000416345
0.000348952
0.000279119
0.000358762
0.000490745
0.000153809
0.000221222
0.00025086
0.000758062
0.000886035
0.000412117
0.000939649
0.000717266
0.000305717
0.000747308
0.00107218
0.000852449
0.000390969
0.000902291
0.000657692
0.000577866
0.00131038
0.000427666
0.000664197
0.00184035
0.000718028
0.000539787
0.000995816
0.000872442
0.000990339
0.00116703
0.000872236
0.00136007
0.00225725
0.00185902
0.00192679
0.000981253
0.000953802
0.00115596
0.00136716
0.000999214
0.000726506
0.00100424
0.00176224
0.00143093
0.000843413
0.00244618
0.00212046
0.00139672
0.000950908
0.000996503
0.000520415
0.000576993
0.000634622
0.000762207
0.000436515
0.000607961
0.00103018
0.00121268
0.000605015
0.00102365
0.000493736
0.000572543
0.000346284
0.00077044
0.000336976
0.00042377
0.000572631
0.000555074
0.00038054
0.000552287
0.000367201
0.000544761
0.000343634
0.000331262
0.000434106
0.000507972
0.000363865
0.000306257
0.000347849
0.000514706
0.000632932
0.000777899
0.000947921
0.000174619
0.000646846
0.000566735
0.000423373
0.000467582
0.000441147
0.000185648
0.000355553
0.000293404
0.000311888
0.000418075
0.000566219
0.000287865
0.000327546
0.000199156
0.000538377
0.000660048
0.000754801
0.000480471
0.000559618
0.00040513
0.000404679
0.000146835
0.000192695
0.00037796
0.000424602
0.000353435
0.000271995
0.0004817
0.000163827
0.000170189
0.000290577
0.00070029
0.000640761
0.000608285
0.000211632
0.000212401
0.000211184
0.000336998
0.000176182
0.000132854
0.000306754
8.87389e-05
0.000216859
0.000113068
0.000182347
0.000382324
0.000534926
0.000299521
0.000255052
0.000290002
0.000504025
0.000255143
0.000265914
0.000172963
0.00030802
0.000480006
0.000535486
0.000547866
0.000260871
0.000478419
0.000384689
0.000359346
0.000440519
0.000445268
0.000581493
0.000153192
0.000377874
0.000324409
0.00048191
0.000551442
0.000267046
0.0002259
0.000342187
0.000463112
0.000383985
0.00044636
0.000539093
0.000414564
0.00062303
0.000415151
0.000555889
0.00012446
0.000364753
0.000408199
0.000633533
0.00047102
0.00083603
0.000448373
0.000549168
0.000758037
0.000302544
0.000329624
0.00140698
0.00134805
0.0008278
0.000548389
0.000370979
0.000494546
0.00104868
0.00121336
0.00103467
0.00155541
0.00193641
0.0013243
0.000642461
0.00115501
0.00127855
0.00161071
0.00114552
0.00100604
0.000982653
0.00141108
0.00225952
0.00113627
0.000980107
0.00141638
0.00127431
0.00124467
0.00114366
0.00103584
0.000618917
0.000597458
0.000813035
0.000594704
0.000795908
0.00119013
0.00164915
0.00190181
0.00152738
0.00138645
0.000715774
0.000814899
0.000939862
0.000566407
0.000635409
0.00101648
0.000453202
0.000556585
0.00092623
0.00109059
0.000624723
0.000907179
0.000612203
0.000476991
0.000543756
0.0005953
0.000369082
0.000379594
0.000531391
0.000556592
0.000368064
0.000921914
0.000470584
0.000527976
0.000572041
0.00037295
0.000353985
0.000488814
0.000500861
0.000342007
0.000339819
0.000538046
0.000413241
0.000745258
0.000468313
0.00126272
0.000974321
0.000249487
0.000680087
0.00065307
0.000428835
0.000546433
0.000259401
0.000267037
0.000440037
0.000252396
0.000335793
0.000522394
0.00054775
0.000286064
0.000173127
0.000277841
0.000283443
0.000493598
0.000648703
0.000737866
0.000567411
0.000523848
0.000414399
0.000347073
0.000204861
0.000292567
0.000252248
0.00019422
0.000367822
0.00028066
0.000272821
0.000642849
0.000142926
0.000204693
0.000289861
0.000556988
0.000537414
0.000449465
0.000293848
0.000202337
0.000214336
0.000182228
0.000137599
0.000158003
8.53552e-05
0.000257008
0.000214426
0.000205693
0.000179073
0.00016926
0.000272247
0.000291064
0.000133925
0.000188805
0.000657868
0.000457214
0.000449517
0.000678637
0.000225912
0.000777838
0.000242802
0.000305535
0.000204129
0.000379793
0.000399773
0.000522228
0.000488939
0.000344292
0.000788272
0.000779203
0.000190334
0.00055751
0.000326459
0.000377561
0.000581052
0.000238816
0.000394307
0.000271922
0.000585327
0.000239151
0.000371601
0.000265854
0.000243768
0.000218522
0.00037181
0.000375207
0.00030336
0.000366328
0.000260661
0.000504607
0.00140622
0.000362457
0.000246754
0.000794262
0.000444827
0.0002838
0.000347504
0.000529894
0.000696938
0.001073
0.000360931
0.000562121
0.000600142
0.000574289
0.000510269
0.000625594
0.000955699
0.00146768
0.00169306
0.00166569
0.000839945
0.000950554
0.00091379
0.00111412
0.00109085
0.000696117
0.001587
0.00161604
0.00156104
0.00141069
0.00054141
0.00102759
0.00152101
0.00166093
0.000691864
0.000980323
0.0008737
0.000968636
0.00105354
0.00226277
0.00158536
0.00138587
0.00214271
0.00214571
0.00181526
0.00116105
0.00115398
0.000870933
0.000922182
0.001099
0.00103689
0.00156607
0.00106647
0.00142439
0.00107546
0.00119502
0.000846285
0.000942785
0.000686947
0.000936247
0.000480953
0.000580116
0.000725183
0.000522469
0.000712185
0.000713392
0.000498386
0.000731987
0.000910134
0.000268115
0.000631505
0.000799653
0.000377382
0.000827567
0.000536988
0.000540572
0.000419878
0.000652201
0.000459738
0.000862686
0.000383114
0.000902152
0.00100294
0.000488529
0.000643991
0.000362596
0.000450475
0.000494913
0.000559084
0.000354303
0.000691406
0.000272571
0.000334646
0.00052765
0.000612689
0.000351362
0.000850564
0.000483563
0.000352048
0.000803242
0.000732935
0.000478861
0.000603615
0.000283768
0.000197863
0.000545987
0.00025899
0.000418797
0.000717017
0.000456988
0.000764188
0.000249619
0.000719612
0.000292408
0.000291822
0.000466406
0.000718564
0.000727112
0.000436583
0.000485054
0.000401264
0.000397222
0.000283242
0.000189526
0.00026854
0.000167166
0.000366403
0.000332856
0.000224362
0.000381617
0.000282432
0.000116878
0.000242469
0.000254559
0.000346358
0.00045172
0.000350591
0.000257271
0.000220083
0.000274634
0.000242637
0.000131501
0.000115285
5.25959e-05
0.000227324
0.000415572
0.000234441
0.000341328
0.000143437
0.000162553
0.000271957
0.000211097
0.000360515
0.000588465
0.000737071
0.00024398
0.000683093
0.000657756
0.000276881
0.000795837
0.000376637
0.000234288
0.000255406
0.000553917
0.000808051
0.00034339
0.000166848
0.000233788
0.000332997
0.000140523
0.000418838
0.000714767
0.000491156
0.000477222
0.000312847
0.000379382
0.000324736
0.000175403
0.00037754
0.000435487
0.000527544
0.000229574
0.000704399
0.00036893
0.000471509
0.000510698
0.000334564
0.000409372
0.000450416
0.000656127
0.000975206
0.000389281
0.000467736
0.000443478
0.000724546
0.000415701
0.000339456
0.000381274
0.000747609
0.000443071
0.000531606
0.000349582
0.00128302
0.000797407
0.000658824
0.000399418
0.000386509
0.000650224
0.00122587
0.00139335
0.00142664
0.00100202
0.000930686
0.000809979
0.000660499
0.000751571
0.00118493
0.000958177
0.001719
0.00160932
0.00103672
0.000641271
0.00148823
0.00116228
0.00100835
0.000989283
0.000823883
0.000918678
0.0012919
0.00123493
0.00153368
0.00104772
0.00146865
0.00161382
0.00234279
0.000879192
0.000820319
0.000704643
0.000999173
0.00100795
0.000969541
0.00141768
0.00098277
0.00119118
0.00175101
0.00271031
0.00260034
0.00163757
0.00166818
0.00132102
0.00103976
0.00145436
0.00111113
0.00104722
0.00112057
0.00185196
0.00148088
0.00128648
0.00102531
0.00116446
0.000975436
0.00103637
0.00135642
0.00121432
0.000677829
0.000777741
0.000784868
0.000824457
0.000639446
0.000808175
0.000871473
0.000660323
0.000504734
0.000752084
0.000908554
0.000518113
0.000930296
0.000482885
0.000702064
0.000793257
0.000699853
0.000470059
0.0006287
0.000795045
0.000335969
0.00102704
0.000488839
0.000856478
0.00110557
0.000463133
0.000484579
0.000415978
0.000385166
0.000645205
0.000505466
0.000473387
0.000596329
0.000372169
0.000289193
0.000473673
0.000720683
0.000627688
0.000527784
0.000512157
0.000298455
0.000508814
0.000882038
0.000737188
0.000508341
0.000608817
0.000323965
0.000174426
0.000381606
0.000256072
0.000319502
0.000893147
0.000475779
0.000528565
0.000617481
0.000335536
0.000228376
0.000250897
0.000314151
0.000678595
0.000517746
0.000650932
0.000569056
0.000470419
0.000410631
0.000402311
0.000314117
0.000176687
0.000176401
0.000171265
0.00036985
0.000358176
0.000304503
0.000208545
0.000419298
0.000251445
9.53198e-05
0.000269323
0.000221396
0.000225123
0.000434121
0.000284233
0.000170128
0.000167748
0.000193746
0.000320013
0.000177883
0.000173676
0.000263321
6.82037e-05
0.000183355
0.000108597
0.000542605
0.000231867
0.000148917
0.000101958
0.000385741
0.000310723
0.000218531
0.000328148
0.000168724
0.000348853
0.000641873
0.000316682
0.000396593
0.000249681
0.00058597
0.000477513
0.000738582
0.000490876
0.000366725
0.000421224
0.000290014
0.000193423
0.000193607
0.000200993
0.00051397
0.000601423
0.000354299
0.000270608
0.000366799
0.00100687
0.000321795
0.000508254
0.000381401
0.000628701
0.000561827
0.000427671
0.000856326
0.000460103
0.000534318
0.000393299
0.00043073
0.00063093
0.000476649
0.000490882
0.000376812
0.000406696
0.000483658
0.000677663
0.000947366
0.000274934
0.000570506
0.000420854
0.000562789
0.000398289
0.000693787
0.00031037
0.000655878
0.000820645
0.000572077
0.000345555
0.000575893
0.000382155
0.000852019
0.000859045
0.000898025
0.00113083
0.000892104
0.000794879
0.000740176
0.000646228
0.000469672
0.000647412
0.000854471
0.00110307
0.00223835
0.00163548
0.000899891
0.0005596
0.00103809
0.000966851
0.000730635
0.00100132
0.00122285
0.00132103
0.00146163
0.00150654
0.00195764
0.000476009
0.00144164
0.000724687
0.00108971
0.00123085
0.000713248
0.000828442
0.00123093
0.00151818
0.00146185
0.00140596
0.00143097
0.00170203
0.00185699
0.00214338
0.00151828
0.00111386
0.00103934
0.00122558
0.000833285
0.00140366
0.00137555
0.00028748
0.00138679
0.000868196
0.00143546
0.00153006
0.00148385
0.00189912
0.00151979
0.00109259
0.000906139
0.00109634
0.00103857
0.00133659
0.000944432
0.000816743
0.00121138
0.00169071
0.000810228
0.00134923
0.0013359
0.00121448
0.00115571
0.00143272
0.00094658
0.000901578
0.000573188
0.000848486
0.00118398
0.000495331
0.000632318
0.000937854
0.00102342
0.000908168
0.000675628
0.00056128
0.000412894
0.000597803
0.00100163
0.00054727
0.000811831
0.000852395
0.00179035
0.000409681
0.000513547
0.000808014
0.00036093
0.000584089
0.000573196
0.000615054
0.0010278
0.00063501
0.000643655
0.000612375
0.000656459
0.000478555
0.000591528
0.000475523
0.000856096
0.000382132
0.000885975
0.000343631
0.000431012
0.000461038
0.000879066
0.000368547
0.000400396
0.000370424
0.000560951
0.00056451
0.000999295
0.000721582
0.000450256
0.000488186
0.000398334
0.000217403
0.000313555
0.000339572
0.000236125
0.000814226
0.000377142
0.000420615
0.000611069
0.000654224
5.54953e-05
0.000436583
0.000248585
0.000412887
0.000691997
0.000781153
0.000613816
0.00043521
0.000460576
0.000389687
0.000412338
0.000379599
0.000238582
0.000198401
0.000218655
0.000385319
0.000328387
0.000241467
0.000156657
0.000257842
0.000296692
0.000377336
9.30351e-05
0.000265
0.000206928
0.000176046
0.000448949
0.000194274
0.000148478
0.000161081
0.000197329
0.000339355
0.000115098
8.79228e-05
0.00013106
0.000168917
0.000107281
0.000110422
0.000204514
0.000175637
0.00016776
0.000130494
0.000125141
0.000640966
0.000404313
0.0005951
0.000360383
0.000217884
0.000492088
0.000299194
0.000276938
0.000357743
0.000474651
0.000510048
0.000338697
0.000486922
0.000317957
0.00016042
0.000362299
0.00047638
0.000383255
0.000528949
0.000394894
0.000608649
0.000339559
0.000255622
0.000231026
0.000479851
0.000693774
0.000725296
0.000555572
0.000378568
0.000387861
0.000192089
0.000462462
0.000217592
0.000419707
0.00037236
0.000676067
0.000597434
0.000434218
0.0003895
0.000796466
0.000401313
0.000490846
0.000336137
0.000423181
0.000608052
0.000517088
0.000413155
0.000601952
0.000711525
0.000667385
0.000337147
0.00051725
0.000535603
0.000611341
0.000807792
0.000456196
0.000487438
0.000348184
0.000381146
0.000688102
0.000598068
0.000693037
0.000429971
0.000387772
0.00059254
0.000923195
0.000338677
0.000415192
0.000506803
0.00135988
0.00109285
0.00148039
0.000993494
0.00104799
0.000658951
0.000807598
0.000515554
0.00115492
0.000963582
0.00102032
0.000939911
0.00125264
0.00115688
0.00132224
0.00110046
0.00107026
0.000545923
0.000659096
0.000601058
0.00080604
0.00107236
0.00135797
0.00106065
0.000571124
0.00126703
0.00190938
0.00109323
0.00145123
0.00124128
0.00131809
0.00074516
0.000692997
0.000755537
0.00115958
0.00148373
0.00142035
0.000992704
0.00134445
0.00132971
0.00102051
0.00198002
0.00209134
0.00161244
0.000990501
0.000969415
0.000717208
0.000698156
0.00133566
0.00157732
0.00095399
0.000916619
0.00163536
0.000932889
0.000978306
0.000801348
0.000680758
0.00144924
0.000564202
0.00108473
0.00125431
0.00100445
0.00128932
0.0013338
0.000863586
0.000682777
0.00110193
0.000731812
0.00131902
0.000706881
0.00111139
0.000903455
0.000743587
0.000657491
0.00155958
0.000686233
0.000604525
0.000441098
0.00105506
0.000800157
0.000339564
0.000428584
0.000517728
0.000995946
0.000977148
0.000702794
0.00128224
0.000704096
0.000682538
0.000379526
0.000760882
0.000768676
0.000831491
0.00104274
0.00126313
0.000879905
0.000405554
0.00062037
0.000485554
0.000533136
0.000371102
0.000440159
0.00050755
0.000698656
0.000730192
0.000574755
0.000810697
0.00101259
0.000728046
0.000310378
0.000741608
0.000618431
0.000255813
0.000983603
0.000489953
0.000333899
0.000409687
0.000428552
0.000189742
0.000649999
0.000555117
0.000597621
0.000930053
0.000761412
0.000903077
0.000609943
0.000354631
0.000475114
0.000441462
0.000248801
0.000286959
0.000194473
0.000246495
0.000741699
0.000355945
0.000264738
0.000174357
0.000179439
0.000331014
0.000226482
0.000539342
0.000296884
0.000463482
0.000609448
0.000616887
0.000605155
0.000476179
0.000423169
0.000387293
0.000374518
0.000332888
0.000282094
0.000247486
0.000249669
0.00034487
0.00029804
0.000248551
0.00011553
0.000174885
0.000337366
0.000562788
0.000497347
9.08601e-05
0.000238979
0.000192296
0.000179579
0.000404519
0.000192515
0.000158049
0.000176739
0.000199841
0.000239876
0.000110886
0.000151682
0.000102994
0.000194672
0.000216837
0.000275948
0.000104569
9.69608e-05
0.000123404
0.00023968
6.97498e-05
0.000124856
0.00104491
0.000786717
0.000684473
0.000832916
0.000425278
0.000672347
0.000373836
0.000469148
0.000472264
0.000266179
0.000396031
0.000311016
0.000447515
0.000371346
0.000265995
0.000251188
0.000563695
0.000506487
0.000404762
0.000926807
0.000604531
0.000349172
0.000474875
0.000516937
0.000604667
0.000868986
0.000322833
0.000147865
0.000266322
0.000367819
0.000178148
0.000229577
0.000109423
0.000266777
0.000595289
0.000391517
0.000461912
0.000295407
0.000310323
0.000671386
0.000215779
0.000411003
0.00046602
0.000273376
0.000487025
0.000584512
0.00039567
0.000487105
0.000721208
0.00065541
0.000598855
0.000424935
0.000344951
0.000409522
0.000622021
0.000490204
0.000229987
0.000497163
0.000506233
0.000511385
0.000628545
0.000682233
0.000344733
0.000581873
0.000749342
0.000603248
0.000589322
0.000376386
0.000472636
0.000476909
0.0012385
0.000925173
0.000910902
0.000918978
0.000564136
0.000389024
0.000672694
0.00114344
0.000638112
0.000602354
0.000786616
0.000827414
0.0013366
0.00104108
0.00145126
0.00142862
0.0005742
0.000376492
0.000579529
0.00128171
0.00140568
0.00114781
0.00117471
0.000840068
0.000544781
0.00163117
0.00210377
0.00107305
0.00101821
0.00106622
0.000717899
0.00104337
0.00124481
0.000928389
0.00129439
0.00114922
0.00108151
0.000744281
0.0013206
0.00185278
0.00132458
0.00150114
0.00201713
0.00145234
0.000904165
0.00112332
0.00102917
0.000790702
0.00171106
0.0016467
0.00124746
0.000618784
0.00137815
0.000608355
0.000911307
0.00170513
0.00172608
0.0014013
0.00109667
0.000952596
0.000589036
0.000947237
0.00147062
0.0018613
0.00114218
0.000878921
0.00113338
0.00133904
0.00141959
0.000802484
0.00062665
0.000953593
0.000869174
0.000394341
0.00103733
0.00102461
0.00122179
0.00126097
0.00135908
0.000927007
0.000582523
0.00105389
0.000577914
0.00070582
0.000878572
0.000622332
0.000855023
0.000978524
0.000473857
0.000328937
0.000811079
0.000877184
0.000983737
0.000967135
0.000801249
0.000637513
0.000485262
0.000661965
0.000719101
0.000850355
0.000488537
0.000763646
0.000991556
0.00104878
0.000539946
0.000463288
0.000443259
0.000246623
0.000886952
0.000874352
0.000803942
0.000603955
0.000736214
0.000692454
0.000655175
0.000677182
0.000413535
0.000710062
0.000610456
0.000813288
0.000370795
0.000735091
0.000581867
0.000653742
0.000943288
0.00120622
0.00105626
0.000396527
0.000818671
0.000295087
0.000395613
0.000506512
0.000657383
0.00034775
0.000466025
0.000546742
0.000328622
0.000519404
0.00074158
0.000484937
0.000627805
0.000725044
0.000850493
0.000711548
0.000514494
0.000316961
0.000386083
0.000440227
0.000347104
0.000356557
0.000251981
0.000249796
0.000585524
0.000501126
0.000222875
0.000463843
0.000300809
0.000587232
0.000259714
0.000375805
0.000604666
0.000313436
0.000460811
0.000590379
0.000424862
0.000609673
0.000366137
0.000438822
0.000384614
0.000394183
0.000382749
0.000288528
0.000250362
0.000282918
0.00033991
0.000276693
0.000262874
0.000200428
0.000315972
0.000531393
0.000347367
0.000669642
0.000296549
7.62693e-05
0.00020118
0.000170432
0.000179362
0.000349182
0.000184081
0.000165319
0.000155678
0.000207655
0.000375033
0.000206441
0.000612755
8.60137e-05
0.000144678
0.000184858
0.000192077
0.000381425
0.000232084
7.96313e-05
0.000257116
0.000288798
0.00010847
0.000112451
0.00113545
0.00127324
0.00106442
0.000798332
0.000602308
0.000799929
0.00042285
0.000438528
0.000610708
0.00046411
0.000449835
0.000336471
0.000509287
0.000327295
0.000409493
0.000522846
0.000532687
0.000451498
0.000522506
0.000405254
0.000284082
0.000495788
0.000448978
0.00090597
0.000846735
0.00021179
0.000359358
0.000137878
0.000481534
0.000531981
0.000386718
0.000251039
0.000396559
0.000521861
0.000290657
0.000234975
0.000455446
0.000512971
0.000360653
0.000264563
0.000188516
0.000578804
0.000575913
0.00036022
0.000605068
0.000252949
0.000341247
0.00040759
0.000343572
0.000629883
0.00063391
0.000381985
0.000318359
0.000276491
0.000448284
0.000304133
0.000478331
0.000635133
0.000653746
0.000829928
0.000344646
0.000481134
0.000385272
0.000385402
0.000719785
0.000554198
0.000553945
0.000437796
0.000721629
0.000633354
0.000675766
0.000829929
0.000972331
0.000443055
0.000598582
0.000621915
0.000614517
0.00143135
0.000688693
0.000587606
0.000628936
0.000922942
0.00101477
0.00143253
0.00106463
0.000520759
0.000641619
0.000655324
0.000760109
0.00156615
0.00179258
0.00104154
0.00125399
0.000827437
0.000790174
0.00148496
0.00158605
0.001756
0.00119073
0.000907234
0.00106399
0.000611771
0.00148674
0.00153365
0.00156628
0.00164504
0.000883867
0.00129179
0.00087301
0.00198645
0.00145079
0.000914873
0.00129706
0.00124953
0.0012275
0.000948837
0.00159658
0.00145604
0.0020773
0.00141054
0.00108127
0.00100625
0.0016645
0.00152182
0.00116833
0.00130826
0.00170947
0.00145044
0.00102204
0.000752444
0.000789901
0.00118697
0.00132377
0.0022903
0.00150488
0.000701206
0.000588536
0.00147335
0.00144363
0.000568824
0.000907885
0.000737374
0.000645543
0.000329098
0.00053824
0.00118858
0.00113819
0.00110301
0.00161341
0.00178754
0.00105466
0.000727282
0.000704032
0.000663192
0.000760339
0.000856419
0.00103603
0.000851744
0.000720556
0.00076753
0.000373216
0.000442863
0.00136942
0.00112046
0.00176012
0.00141169
0.000775588
0.000554662
0.00144734
0.000782057
0.000766664
0.000859688
0.000488726
0.000755189
0.00100766
0.000796632
0.000498306
0.000136332
0.000639764
0.000947228
0.000943238
0.00106549
0.00101271
0.00113172
0.000604069
0.000603449
0.000765985
0.000738074
0.000844478
0.000711996
0.000975563
0.000838318
0.000480936
0.000309392
0.000584304
0.000689603
0.000580002
0.000335023
0.000712857
0.000765488
0.000995002