/*--------------------------------*- C++ -*----------------------------------*\
  =========                 |
  \\      /  F ield         | OpenFOAM: The Open Source CFD Toolbox
   \\    /   O peration     | Website:  https://openfoam.org
    \\  /    A nd           | Version:  7
     \\/     M anipulation  |
\*---------------------------------------------------------------------------*/
FoamFile
{
    version     2.0;
    format      ascii;
    class       volScalarField;
    location    "2.5";
    object      p;
}
// * * * * * * * * * * * * * * * * * * * * * * * * * * * * * * * * * * * * * //

dimensions      [0 2 -2 0 0 0 0];

internalField   nonuniform List<scalar> 
18870
(
-68.7773
-67.4338
-68.7743
-68.7856
-66.4955
-67.47
-67.8463
-68.7752
-68.7869
-68.5615
-65.9569
-66.5041
-66.7081
-67.5178
-67.9278
-68.0704
-68.7804
-68.7883
-68.5644
-67.499
-65.5903
-65.9027
-65.3641
-66.5603
-67.0125
-67.2242
-67.5671
-68.0122
-68.1459
-67.2603
-68.7898
-68.7981
-68.5803
-67.4713
-66.4522
-64.6912
-65.4993
-65.1352
-65.8559
-65.4226
-65.7413
-66.6585
-67.2487
-67.5069
-67.383
-67.6146
-68.1014
-68.2001
-67.3512
-66.3143
-68.804
-68.8127
-68.5967
-67.4501
-66.3725
-65.9854
-63.7822
-64.8993
-64.3982
-65.464
-65.1887
-64.7405
-65.8158
-65.5706
-66.1051
-67.4768
-66.7854
-67.4741
-67.8718
-67.632
-66.8088
-67.6577
-68.1963
-68.2775
-67.511
-66.4458
-66.6503
-68.8192
-68.8285
-68.6082
-67.4292
-66.2995
-65.9353
-66.0961
-63.7192
-63.7483
-63.6589
-65.0411
-64.6346
-64.3664
-65.4739
-65.2569
-64.8469
-65.1244
-65.8295
-65.7582
-66.3106
-67.9643
-67.6722
-66.9456
-67.7843
-68.2007
-67.9128
-67.0821
-67.4387
-67.7466
-68.3305
-68.357
-67.6732
-66.5813
-66.8043
-67.0224
-68.8368
-68.8463
-68.6241
-67.405
-66.2341
-65.8889
-66.0912
-66.4817
-62.9816
-63.6028
-63.2695
-63.6405
-63.9249
-63.2033
-65.1922
-64.8753
-64.3924
-64.5483
-65.5254
-65.2555
-65.2219
-65.6549
-66.504
-65.895
-65.9671
-66.7297
-68.4098
-68.0801
-68.3069
-67.1291
-68.0684
-68.3693
-68.1588
-67.3049
-67.6789
-67.9795
-67.897
-68.4351
-68.4363
-67.8313
-66.7217
-66.9327
-67.0951
-67.4832
-68.8606
-68.8639
-68.6572
-67.3752
-66.2224
-65.8513
-66.0879
-66.5214
-67.4251
-62.4923
-62.7977
-62.8628
-63.4691
-63.3044
-63.2267
-63.8137
-64.173
-63.4258
-63.3677
-65.2261
-64.9154
-64.5485
-64.8635
-65.922
-65.4384
-65.3324
-65.6086
-66.2148
-67.3234
-68.5143
-65.9943
-66.2005
-67.2471
-68.7936
-68.3975
-68.6128
-69.2696
-67.3063
-68.1384
-68.544
-68.3297
-67.4742
-67.8897
-68.2026
-69.0708
-68.0277
-68.4608
-68.5052
-67.9658
-66.8618
-66.9893
-67.1142
-67.5454
-68.3441
-68.8863
-68.8804
-68.665
-67.3289
-66.2206
-65.8664
-66.0943
-66.5589
-67.4351
-67.9218
-61.9638
-62.5351
-62.4655
-62.9372
-63.0328
-62.7982
-63.7007
-63.3727
-63.1355
-63.1684
-64.0927
-64.3576
-63.8443
-63.7259
-64.1861
-65.1918
-65.1364
-64.7127
-65.1507
-66.548
-67.5837
-65.3609
-65.4632
-65.8345
-66.6961
-67.8433
-69.2143
-69.7642
-66.1151
-66.477
-67.7234
-69.1786
-68.6209
-68.826
-69.3721
-69.7299
-67.4793
-68.1534
-68.8981
-68.5752
-67.6098
-68.0926
-68.4354
-69.208
-69.922
-68.1488
-68.5368
-68.5689
-68.0653
-66.9721
-66.978
-67.1115
-67.6426
-68.4423
-69.3575
-68.9117
-68.8917
-68.6554
-67.3148
-66.2314
-65.9101
-66.1225
-66.5932
-67.4456
-67.9473
-68.6364
-61.5187
-62.0837
-61.9256
-62.4689
-62.5013
-62.2771
-63.1479
-63.0202
-62.8503
-62.8227
-63.5818
-63.3957
-63.2922
-63.4073
-63.571
-64.3881
-64.3448
-63.9928
-64.0335
-64.6062
-65.3488
-65.1809
-64.9561
-64.9769
-65.5615
-66.9762
-68.1105
-69.1317
-65.3042
-65.5943
-66.2046
-67.2687
-68.1004
-69.2585
-69.7087
-70.3001
-66.2959
-66.873
-68.3163
-69.5075
-68.7342
-68.9156
-69.3699
-69.7188
-70.4436
-67.692
-68.2734
-69.1883
-68.8664
-67.7136
-68.2373
-68.5922
-69.2906
-69.8458
-70.7628
-68.283
-68.6207
-68.6241
-68.118
-67.0461
-66.929
-67.096
-67.6925
-68.4717
-69.3995
-70.0582
-68.939
-68.8979
-68.6672
-67.3537
-66.2484
-65.9469
-66.17
-66.6248
-67.4591
-67.9408
-68.6408
-69.2571
-61.1292
-61.5014
-61.5347
-62.0585
-62.042
-61.9337
-62.4024
-62.441
-62.532
-62.4639
-63.1884
-62.9479
-62.8982
-63.0084
-62.9099
-63.325
-63.3826
-63.3879
-63.6057
-63.8927
-64.2313
-64.5556
-64.3867
-64.3137
-64.3876
-65.1877
-66.0506
-66.9757
-65.1456
-64.8013
-65.2763
-65.8002
-67.1328
-68.4691
-69.2676
-70.1174
-65.3502
-65.7434
-66.5577
-67.826
-68.3119
-69.1831
-69.6731
-70.2586
-71.261
-66.5263
-67.2824
-68.765
-69.7562
-68.7617
-68.943
-69.325
-69.7268
-70.4755
-71.1831
-67.8682
-68.4749
-69.3474
-69.0627
-67.7811
-68.321
-68.6686
-69.2905
-69.8017
-70.7372
-71.3169
-68.3974
-68.6971
-68.651
-68.1234
-67.0788
-66.8952
-67.0817
-67.6996
-68.5135
-69.4164
-70.0314
-70.776
-68.965
-68.9218
-68.6933
-67.4052
-66.2695
-66.0148
-66.2227
-66.6557
-67.4715
-67.9371
-68.6454
-69.208
-69.769
-60.8305
-61.0797
-61.1363
-61.4966
-61.5347
-61.4669
-62.0856
-62.0374
-62.1222
-61.9467
-62.7105
-62.484
-62.4709
-62.4795
-62.5219
-63.1302
-62.9556
-63.0835
-63.126
-63.1811
-63.6562
-63.4171
-63.5805
-63.5719
-63.8444
-64.1348
-64.685
-65.0995
-64.6427
-64.4466
-64.4432
-64.8974
-65.6285
-66.5854
-67.4416
-68.0994
-65.0064
-64.795
-65.5293
-65.9407
-67.2641
-68.6185
-69.2227
-69.9893
-70.8735
-65.4523
-65.97
-66.9427
-68.1948
-68.436
-69.0785
-69.6149
-70.2392
-71.1956
-72.0431
-66.8066
-67.5693
-69.1668
-69.8996
-68.7492
-68.9451
-69.2607
-69.7902
-70.463
-71.1033
-71.5752
-68.0724
-68.6555
-69.5272
-69.0182
-67.8023
-68.3579
-68.6521
-69.3053
-69.7851
-70.6598
-71.1796
-71.5539
-68.4976
-68.7675
-68.6879
-68.0957
-67.0724
-66.8643
-67.0721
-67.7191
-68.5287
-69.4157
-70.0042
-70.6933
-71.3219
-68.9916
-68.9599
-68.7082
-67.4685
-66.3026
-66.0726
-66.2767
-66.6883
-67.4643
-67.9313
-68.6173
-69.1383
-69.6982
-70.7152
-60.6452
-60.7755
-60.6866
-61.2009
-61.2416
-61.1207
-61.5652
-61.6004
-61.5193
-61.4903
-62.1346
-62.1627
-62.0994
-62.0325
-62.0523
-62.6778
-62.6578
-62.6127
-62.6495
-62.7591
-62.7913
-63.2358
-62.9401
-63.0742
-63.2553
-63.4662
-63.6437
-63.9387
-63.5637
-63.5879
-63.6789
-64.147
-64.6664
-65.099
-65.5733
-65.9526
-64.5779
-63.9935
-64.5653
-65.0165
-65.9775
-67.0304
-67.6121
-68.4308
-68.7132
-64.7903
-65.0191
-65.8335
-66.0194
-67.4481
-68.5329
-69.197
-69.8711
-70.7932
-70.9469
-65.7573
-66.3391
-67.4009
-68.4255
-68.4497
-68.9904
-69.5601
-70.218
-71.1063
-71.7335
-71.6764
-67.135
-67.9303
-69.5376
-69.9328
-68.6878
-68.8972
-69.1592
-69.7755
-70.4076
-70.969
-71.3516
-71.4689
-68.3453
-68.8413
-69.6045
-68.8248
-67.7818
-68.3302
-68.588
-69.3058
-69.7538
-70.55
-71.0308
-71.3947
-72.144
-68.5882
-68.8616
-68.7183
-68.0649
-67.0287
-66.8455
-67.0658
-67.716
-68.4875
-69.4127
-69.9635
-70.6018
-71.2119
-71.6074
-69.0182
-68.9932
-68.7084
-67.5405
-66.3416
-66.1671
-66.331
-66.7142
-67.4466
-67.8838
-68.5838
-69.0965
-69.6245
-70.6735
-71.2005
-60.3649
-60.6431
-60.5466
-60.8473
-60.7723
-60.7782
-61.1987
-61.2284
-61.1946
-61.1054
-61.6023
-61.6602
-61.586
-61.5589
-61.6521
-62.1576
-62.1924
-62.0392
-62.2253
-62.178
-62.09
-62.6899
-62.644
-62.5755
-62.7296
-63.0818
-62.9418
-63.3302
-63.2884
-63.0084
-63.1588
-63.3394
-63.7604
-64.2641
-64.5033
-64.6422
-63.5786
-63.6016
-63.694
-64.7067
-65.1394
-65.5071
-65.927
-66.2838
-66.9656
-64.5672
-64.7855
-64.6013
-65.3217
-66.1449
-67.3463
-67.8116
-68.5927
-68.7788
-68.4073
-65.0107
-65.5068
-66.0801
-66.309
-67.5062
-68.509
-69.1981
-69.8967
-70.7104
-70.6964
-69.9265
-66.1301
-66.764
-67.7508
-68.4426
-68.4769
-68.886
-69.4204
-70.1533
-70.9554
-71.4994
-71.3567
-70.6257
-67.4784
-68.3676
-69.7325
-69.822
-68.5974
-68.8086
-69.0252
-69.7136
-70.2986
-70.8088
-71.1563
-71.2383
-71.4106
-68.515
-69.0214
-69.6032
-68.6694
-67.7605
-68.2653
-68.523
-69.2834
-69.7513
-70.461
-70.8846
-71.2337
-71.9936
-72.5626
-68.648
-68.9529
-68.7062
-68.0322
-66.9696
-66.8455
-67.0629
-67.712
-68.5273
-69.4077
-69.9036
-70.5215
-71.0849
-71.528
-72.3093
-69.0446
-69.0208
-68.7088
-67.6118
-66.3926
-66.2565
-66.3836
-66.7387
-67.4809
-67.8149
-68.5655
-69.1359
-69.5331
-70.6077
-71.1469
-71.6778
-60.173
-60.1425
-60.4344
-60.6662
-60.557
-60.4915
-60.8745
-60.8887
-60.8422
-60.8227
-61.2658
-61.1876
-61.2047
-61.2396
-61.1824
-61.6475
-61.6347
-61.6349
-61.6665
-61.782
-61.7329
-62.2208
-62.3063
-62.0754
-62.2406
-62.3535
-62.5152
-62.3728
-62.7312
-62.6452
-62.6949
-62.8573
-62.9986
-63.3132
-63.4595
-63.6882
-63.2576
-63.2
-63.0438
-63.5319
-64.1386
-64.8429
-64.936
-64.9551
-65.3234
-63.8495
-63.7793
-63.6695
-65.285
-65.6046
-65.9703
-66.2563
-66.7383
-67.2402
-67.2133
-64.9623
-65.1328
-64.8932
-65.7325
-66.7209
-67.382
-67.903
-68.6849
-68.7381
-68.4154
-67.9372
-65.2926
-65.8918
-66.3766
-66.5005
-67.6098
-68.4677
-69.1962
-69.8214
-70.5931
-70.5378
-69.7765
-68.7951
-66.4464
-67.2135
-68.0248
-68.3402
-68.5104
-68.6986
-69.2835
-70.0631
-70.7672
-71.2018
-71.0555
-70.3488
-69.7401
-67.8767
-68.7732
-69.8078
-69.6036
-68.4964
-68.6927
-68.8987
-69.6324
-70.1279
-70.6741
-71.0003
-71.0634
-71.1832
-71.0108
-68.6392
-69.2252
-69.5969
-68.531
-67.7418
-68.1817
-68.4476
-69.2471
-69.7035
-70.3631
-70.7198
-71.0782
-71.8511
-72.3724
-72.4344
-68.7208
-69.0591
-68.6958
-68.0108
-66.9202
-66.8887
-67.068
-67.7056
-68.4687
-69.3857
-69.8233
-70.4686
-70.9585
-71.4504
-72.2604
-72.6375
-69.071
-69.0448
-68.7136
-67.6784
-66.4555
-66.3363
-66.4276
-66.7696
-67.4957
-67.8522
-68.5356
-69.1757
-69.4914
-70.5117
-71.0944
-71.6639
-71.8569
-60.0009
-60.2282
-60.0834
-60.4116
-60.5181
-60.2603
-60.6852
-60.6947
-60.5658
-60.4866
-60.9165
-60.8529
-60.8889
-60.9582
-60.8254
-61.3353
-61.3075
-61.2743
-61.261
-61.3694
-61.3898
-61.7007
-61.7116
-61.6753
-61.7081
-61.8212
-61.9568
-61.9021
-62.2378
-62.3042
-62.2267
-62.2993
-62.51
-62.6033
-62.699
-62.6416
-62.7822
-62.7683
-62.8131
-62.7317
-63.4993
-63.7882
-63.7346
-63.8525
-64.0545
-63.3657
-63.4206
-62.8614
-63.85
-64.6054
-65.1464
-65.3126
-65.4718
-65.4162
-65.6312
-64.161
-63.5469
-64.2795
-65.6034
-66.126
-66.1456
-66.4151
-66.9874
-67.3994
-67.4034
-66.7684
-65.3629
-64.7174
-65.521
-66.3651
-67.2967
-67.7095
-68.1053
-68.7008
-68.6547
-68.3088
-67.9284
-66.9455
-65.7791
-66.3767
-66.8255
-66.7401
-67.7908
-68.445
-69.0556
-69.7607
-70.3741
-70.3246
-69.5815
-68.6289
-67.6813
-66.8212
-67.6146
-68.292
-68.356
-68.4361
-68.5853
-69.2299
-69.9623
-70.5275
-70.8955
-70.829
-70.1635
-69.5053
-68.8089
-68.3011
-69.1313
-69.7685
-69.3694
-68.3838
-68.5679
-68.7795
-69.541
-69.9565
-70.5557
-70.8435
-70.8998
-70.9854
-70.8678
-70.4198
-68.7778
-69.3925
-69.5802
-68.3834
-67.7036
-68.0921
-68.381
-69.207
-69.6272
-70.2674
-70.5355
-70.8858
-71.7127
-72.2169
-72.3775
-72.2858
-68.8288
-69.1016
-68.6838
-67.9886
-66.8866
-66.9309
-67.0767
-67.6965
-68.3971
-69.3332
-69.7328
-70.3597
-70.8457
-71.371
-72.2152
-72.6781
-72.8858
-69.0981
-69.0683
-68.7245
-67.7423
-66.5167
-66.4082
-66.4681
-66.7957
-67.5036
-67.8418
-68.4788
-69.1235
-69.508
-70.4097
-71.085
-71.6334
-71.8818
-71.0222
-59.9389
-60.2494
-60.0039
-60.2205
-60.2049
-60.0463
-60.4637
-60.4272
-60.3604
-60.2029
-60.7619
-60.7269
-60.6817
-60.6308
-60.5279
-60.9568
-60.9732
-60.995
-60.8623
-60.8466
-60.9124
-61.3293
-61.3213
-61.3582
-61.2949
-61.5901
-61.4418
-61.3821
-61.7551
-61.7903
-61.7966
-61.8145
-62.0472
-62.0412
-62.0562
-61.9847
-62.2134
-62.2972
-62.3741
-62.2634
-62.4147
-62.8023
-63.0478
-62.8548
-63.011
-62.8483
-62.9465
-62.8625
-63.1217
-63.7081
-64.1932
-64.161
-64.1914
-64.241
-64.2464
-63.4929
-63.2229
-63.9903
-63.8806
-64.3977
-65.6425
-65.803
-65.7219
-65.6101
-65.6993
-65.5578
-64.2352
-63.9827
-64.7579
-65.7995
-66.7143
-66.642
-66.736
-67.1478
-67.4759
-67.3593
-66.7792
-65.6335
-65.759
-65.2408
-65.9026
-67.3628
-67.9535
-68.1717
-68.084
-68.7668
-68.5164
-68.2826
-67.9166
-66.9808
-66.0906
-66.3386
-66.9725
-67.1598
-67.0872
-67.9893
-68.5715
-69.0253
-69.6682
-70.053
-70.0807
-69.378
-68.5134
-67.7906
-67.0712
-67.1535
-67.9501
-68.4331
-68.4039
-68.333
-68.4893
-69.1894
-69.9069
-70.306
-70.6116
-70.5886
-69.9215
-69.3703
-68.838
-68.287
-68.7802
-69.4332
-69.6938
-69.151
-68.2547
-68.4553
-68.6556
-69.436
-69.8065
-70.4184
-70.6566
-70.6781
-70.8497
-70.7241
-70.3427
-69.8829
-69.0395
-69.5439
-69.4922
-68.2577
-67.657
-68.0143
-68.3171
-69.1562
-69.5672
-70.1439
-70.3544
-70.6995
-71.5081
-72.0767
-72.3154
-72.3455
-71.6684
-68.9266
-69.0876
-68.6443
-67.9798
-66.8772
-66.9548
-67.0831
-67.6811
-68.3792
-69.2413
-69.6502
-70.178
-70.7418
-71.2883
-72.1747
-72.6959
-72.9521
-72.003
-69.1244
-69.0931
-68.7414
-67.7915
-66.5763
-66.4645
-66.5151
-66.8185
-67.5128
-67.8437
-68.3871
-69.0409
-69.4983
-70.3322
-71.1047
-71.6038
-71.9077
-71.0547
-69.8598
-59.8617
-60.0301
-59.8991
-60.1798
-59.9944
-59.9774
-60.1858
-60.2345
-60.1646
-59.9755
-60.5464
-60.5317
-60.415
-60.2571
-60.2875
-60.7395
-60.7838
-60.7274
-60.6937
-60.651
-60.5825
-60.9273
-60.9832
-61.0555
-60.9734
-61.101
-61.0842
-60.9974
-61.3776
-61.3867
-61.4126
-61.3979
-61.4674
-61.5199
-61.4456
-61.4989
-61.8636
-61.8291
-61.8442
-61.9371
-61.9067
-62.1619
-62.2379
-62.2117
-62.1893
-62.2453
-62.4671
-62.4113
-62.3623
-62.9398
-63.1612
-63.4149
-62.8506
-63.0999
-63.2293
-62.9092
-63.0202
-63.1103
-63.1758
-63.3167
-64.1962
-64.6397
-64.6249
-64.4425
-64.4436
-64.3191
-63.4799
-63.8373
-64.2644
-64.7973
-65.3692
-65.7045
-65.9998
-66.0225
-65.9433
-65.9356
-65.5533
-64.615
-64.4547
-64.7675
-65.1979
-66.4867
-66.6687
-67.2185
-67.1023
-67.3411
-67.549
-67.3462
-66.8405
-65.5809
-64.8863
-65.8234
-66.2484
-66.618
-67.7932
-68.4536
-68.516
-68.3018
-68.8469
-68.2805
-68.1428
-67.7291
-66.8923
-66.1445
-65.7564
-66.7067
-67.4813
-67.4484
-67.2923
-68.0029
-68.5622
-68.9999
-69.4892
-69.7408
-69.8211
-69.1191
-68.3982
-67.806
-67.1411
-66.8908
-67.4839
-68.2282
-68.519
-68.3764
-68.188
-68.37
-69.0267
-69.7583
-70.1113
-70.3669
-70.4037
-69.6475
-69.2456
-68.8476
-68.3893
-67.8408
-69.1195
-69.6281
-69.6017
-68.949
-68.13
-68.336
-68.5691
-69.322
-69.6645
-70.2302
-70.4485
-70.466
-70.7024
-70.5984
-70.2767
-69.8519
-69.3083
-69.3555
-69.6852
-69.3637
-68.1498
-67.617
-67.9517
-68.2498
-69.0843
-69.5076
-69.9848
-70.1655
-70.5657
-71.2187
-71.9138
-72.2354
-72.3707
-71.805
-70.9577
-69.0112
-69.076
-68.5918
-67.9741
-66.8893
-66.9864
-67.0901
-67.6725
-68.3066
-69.1229
-69.5232
-69.9831
-70.644
-71.2026
-72.1104
-72.7146
-73.0008
-72.1432
-70.2645
-69.1517
-69.1187
-68.7628
-67.8343
-66.6309
-66.5134
-66.5655
-66.8399
-67.5075
-67.8194
-68.297
-68.9797
-69.4457
-70.2459
-71.1596
-71.5681
-71.939
-71.081
-69.9307
-68.2323
-59.816
-59.9124
-59.7888
-60.0467
-59.9065
-59.8431
-60.2335
-60.0688
-60.0401
-59.9273
-60.2899
-60.2382
-60.1506
-60.0526
-60.1917
-60.5274
-60.604
-60.4787
-60.4609
-60.4767
-60.3063
-60.6281
-60.8943
-60.8245
-60.6983
-60.6405
-60.7081
-60.571
-61.0139
-61.0525
-61.0535
-60.974
-61.2677
-61.1586
-61.1295
-61.0707
-61.4829
-61.4323
-61.4373
-61.5049
-61.6014
-61.5714
-61.5808
-61.5962
-61.4182
-61.9403
-61.9278
-61.959
-61.9175
-62.1019
-62.2836
-62.5235
-62.4158
-62.2909
-62.3369
-62.3115
-62.4617
-62.5437
-62.6257
-62.853
-63.0873
-63.5297
-63.6362
-63.3318
-63.209
-63.3283
-62.8569
-63.2179
-63.4512
-63.5782
-63.3694
-64.1936
-64.9612
-64.8951
-64.6052
-64.6641
-64.3741
-63.6344
-63.5601
-64.2758
-63.9713
-65.1369
-66.0093
-66.2297
-66.3057
-66.3821
-66.0751
-65.83
-65.6266
-64.6985
-63.9665
-65.0843
-65.3939
-65.7882
-67.275
-67.3241
-67.7623
-67.4674
-67.5028
-67.4947
-67.1398
-66.7881
-65.7681
-65.0613
-64.6071
-66.6384
-67.1647
-67.5283
-68.2231
-68.7954
-68.6753
-68.4203
-68.6421
-67.9916
-67.8999
-67.5409
-66.7508
-66.0686
-65.8734
-65.7211
-67.0487
-67.8043
-67.7123
-67.414
-68.0263
-68.4814
-68.7993
-69.241
-69.5283
-69.548
-68.9409
-68.3116
-67.7648
-67.216
-67.0809
-66.5634
-67.7701
-68.3911
-68.5666
-68.3912
-68.1021
-68.2688
-68.7921
-69.591
-69.9365
-70.1608
-70.158
-69.4427
-69.0651
-68.7999
-68.4858
-68.0365
-67.557
-69.285
-69.6504
-69.51
-68.738
-67.9842
-68.1854
-68.4832
-69.22
-69.5294
-70.0121
-70.2147
-70.2425
-70.5082
-70.4493
-70.2499
-69.9442
-69.4692
-69.0127
-69.5586
-69.7268
-69.2273
-68.0969
-67.5891
-67.903
-68.1887
-68.9948
-69.4427
-69.7937
-69.9598
-70.4312
-70.8978
-71.7511
-72.1366
-72.455
-71.921
-71.2845
-69.7728
-69.0826
-69.0551
-68.5618
-67.9705
-66.9099
-67.0164
-67.101
-67.6705
-68.2237
-68.9863
-69.3598
-69.7917
-70.5276
-71.1105
-72.0295
-72.7472
-73.0245
-72.2896
-70.3955
-68.7798
-69.1784
-69.1456
-68.7852
-67.8808
-66.6828
-66.5592
-66.6146
-66.864
-67.5077
-67.7938
-68.2415
-68.88
-69.4119
-70.1298
-71.2
-71.5282
-71.9625
-71.1173
-70.001
-68.2886
-66.5642
-59.7838
-59.8259
-59.7076
-59.9724
-59.8344
-59.7097
-60.1196
-59.918
-59.8353
-59.822
-60.132
-60.1874
-60.0061
-59.9845
-59.994
-60.4028
-60.2951
-60.2463
-60.166
-60.2195
-60.0731
-60.5951
-60.5952
-60.633
-60.4387
-60.3656
-60.3895
-60.2892
-60.7633
-60.9162
-60.866
-60.766
-60.9665
-60.8045
-60.7797
-60.6363
-61.1023
-61.1275
-61.1525
-61.0037
-61.2562
-61.2372
-61.1581
-61.271
-61.1211
-61.5006
-61.4388
-61.5422
-61.573
-61.7558
-61.7562
-61.7506
-61.7305
-61.6326
-61.5795
-61.8795
-62.0632
-62.2085
-62.2442
-62.2803
-62.2777
-62.7005
-62.7896
-62.7124
-62.3996
-62.6102
-62.3558
-62.6158
-62.6582
-62.3902
-62.9073
-62.7246
-63.7773
-64.1019
-63.4695
-63.1726
-63.4458
-62.7623
-62.9149
-63.2667
-63.6159
-64.1032
-64.3743
-65.1972
-65.1636
-65.2107
-64.9053
-64.7834
-64.5794
-63.6394
-63.5181
-63.6744
-64.3739
-64.7591
-65.075
-65.5706
-66.5782
-66.6956
-66.5831
-66.1613
-65.8255
-65.6729
-64.7705
-64.0742
-64.1788
-65.638
-65.9078
-66.5518
-67.9382
-68.4382
-68.5049
-67.8085
-67.5528
-67.4945
-66.9621
-66.7307
-65.7422
-65.1061
-64.8409
-65.1927
-67.7659
-67.6808
-68.2955
-68.7377
-69.2267
-68.9022
-68.4215
-68.4368
-67.8853
-67.6834
-67.4182
-66.5548
-66.1118
-66.0426
-65.9976
-65.6097
-67.2747
-68.0204
-67.9318
-67.603
-68.0464
-68.3772
-68.6488
-68.9842
-69.2868
-69.2718
-68.7759
-68.1207
-67.7138
-67.3574
-67.276
-66.8534
-66.3901
-68.0215
-68.5721
-68.571
-68.3748
-68.0116
-68.1939
-68.6087
-69.4434
-69.7034
-69.8173
-69.7339
-69.2599
-68.9451
-68.7868
-68.5436
-68.1956
-67.738
-67.3992
-69.3833
-69.6783
-69.3636
-68.5704
-67.8131
-68.0357
-68.3938
-69.1126
-69.4151
-69.7536
-69.9462
-69.8797
-70.3429
-70.2955
-70.2287
-70.0707
-69.6188
-69.3002
-68.5519
-69.6464
-69.6908
-69.0957
-68.1002
-67.6208
-67.8556
-68.1381
-68.8823
-69.3845
-69.596
-69.7655
-70.2591
-70.5779
-71.5861
-72.0368
-72.5352
-72.0588
-71.5327
-70.1018
-68.5341
-69.1355
-69.0209
-68.5529
-67.988
-66.9372
-67.0538
-67.1145
-67.672
-68.1578
-68.8546
-69.1848
-69.614
-70.3808
-71.0107
-71.9471
-72.7675
-73.064
-72.4225
-70.532
-68.9533
-67.2237
-69.206
-69.173
-68.805
-67.9274
-66.7344
-66.5986
-66.6651
-66.8927
-67.502
-67.7788
-68.176
-68.7249
-69.3765
-70.0238
-71.1589
-71.4993
-71.9708
-71.1574
-70.1089
-68.3426
-66.6098
-65.5763
-59.6987
-59.7335
-59.5928
-59.7403
-59.7788
-59.5552
-59.9952
-59.8557
-59.7632
-59.7039
-60.0744
-59.9948
-59.8715
-59.8485
-59.7871
-60.278
-60.1024
-60.0938
-60.0111
-59.8794
-59.901
-60.5579
-60.3286
-60.3324
-60.1856
-60.2171
-60.2232
-60.1208
-60.6148
-60.5854
-60.6808
-60.5516
-60.5571
-60.495
-60.4331
-60.3554
-60.7295
-60.9317
-60.9267
-60.8191
-60.9919
-60.9342
-60.8011
-60.9603
-60.7945
-61.0358
-61.1887
-61.125
-61.1614
-61.2765
-61.268
-61.288
-61.3878
-61.2758
-61.2891
-61.5466
-61.6681
-61.6072
-61.7572
-61.691
-61.8861
-61.9054
-62.0955
-61.8574
-61.6893
-62.1581
-61.9039
-62.0169
-62.1632
-62.2846
-62.2983
-62.1854
-62.8612
-62.9853
-62.8827
-62.5729
-62.4961
-62.1917
-62.4479
-62.7915
-62.8733
-63.1982
-62.9868
-63.9713
-63.9931
-63.9359
-64.047
-63.6781
-63.4541
-62.8279
-62.8243
-63.0814
-63.4454
-63.8057
-64.0709
-64.7423
-65.1066
-65.8235
-65.5449
-65.271
-64.797
-64.5668
-63.6636
-63.7021
-63.9581
-64.5078
-64.4282
-65.4795
-65.368
-66.2476
-67.4354
-67.2689
-66.6803
-66.2259
-65.7893
-65.4706
-64.7491
-64.407
-64.41
-64.929
-65.89
-66.6301
-67.2992
-68.5101
-68.9392
-68.8375
-67.876
-67.4057
-67.1756
-66.8541
-66.5759
-65.7676
-65.1448
-64.8807
-65.4793
-65.9256
-68.218
-68.2797
-68.529
-68.8159
-69.2807
-68.7848
-68.2258
-68.169
-67.8696
-67.6531
-67.2656
-66.4594
-66.3121
-66.2261
-66.2526
-65.9306
-65.9088
-67.4178
-68.2897
-68.0338
-67.6325
-67.831
-68.2467
-68.5736
-68.8057
-69.1276
-68.8688
-68.5659
-67.9308
-67.7331
-67.4928
-67.4019
-66.9968
-66.5739
-66.3817
-68.1966
-68.6998
-68.541
-68.2847
-67.8668
-68.0814
-68.476
-69.2825
-69.3955
-69.4878
-69.3517
-69.0549
-68.822
-68.7779
-68.6159
-68.3647
-67.9212
-67.6251
-67.0397
-69.4512
-69.6595
-69.2116
-68.434
-67.6828
-67.9325
-68.2273
-69.0299
-69.3231
-69.5016
-69.6512
-69.4916
-70.1467
-70.177
-70.1888
-70.1431
-69.7979
-69.6021
-68.7265
-67.7842
-69.7095
-69.6358
-68.949
-68.0931
-67.5991
-67.7774
-68.1115
-68.7682
-69.3364
-69.3893
-69.578
-70.0714
-70.2948
-71.4118
-71.9636
-72.5158
-72.2065
-71.7234
-70.3339
-68.8392
-67.0026
-69.1869
-68.9944
-68.5548
-68.01
-66.9731
-67.0945
-67.1282
-67.673
-68.0906
-68.7125
-68.9984
-69.4395
-70.1951
-70.8864
-71.8545
-72.7527
-73.1091
-72.5487
-70.6698
-69.1217
-67.3769
-65.743
-69.2319
-69.2001
-68.8257
-67.9751
-66.783
-66.6366
-66.7142
-66.9169
-67.4878
-67.7311
-68.0877
-68.607
-69.3346
-69.965
-71.0986
-71.4677
-71.9667
-71.1802
-70.1932
-68.413
-66.6512
-65.6446
-64.4048
-59.5665
-59.6314
-59.4324
-59.7975
-59.6366
-59.3984
-59.8654
-59.8112
-59.6171
-59.5779
-59.9615
-59.8878
-59.7977
-59.7211
-59.6872
-60.0455
-59.9855
-59.9394
-59.8852
-59.8225
-59.7212
-60.3343
-60.2117
-60.1302
-59.9255
-60.1755
-60.0047
-59.9967
-60.4681
-60.2903
-60.3904
-60.3102
-60.3381
-60.2661
-60.2466
-60.0974
-60.6288
-60.6619
-60.6811
-60.6505
-60.7911
-60.5605
-60.5185
-60.566
-60.4192
-60.8368
-60.9023
-60.8991
-60.8984
-60.945
-60.832
-60.9325
-60.9638
-60.9328
-60.8453
-61.14
-61.2723
-61.1238
-61.361
-61.3137
-61.5771
-61.4019
-61.5771
-61.4453
-61.3925
-61.4209
-61.4778
-61.5943
-61.7466
-61.8899
-61.8058
-61.7963
-62.0795
-62.3093
-62.0427
-61.9613
-62.0615
-61.4503
-62.0369
-62.2083
-62.2861
-62.4207
-62.4718
-62.7219
-62.8911
-63.2486
-63.1005
-62.7931
-62.5863
-62.2122
-62.0062
-62.4257
-62.5834
-63.1682
-63.5168
-63.1251
-64.3931
-64.6271
-64.3835
-64.2907
-63.814
-63.5343
-62.9336
-63.0804
-63.9545
-63.1735
-63.7391
-64.0799
-64.4249
-64.6846
-65.3901
-66.2035
-65.9979
-65.3925
-64.7768
-64.5223
-63.7353
-63.6882
-64.3835
-65.0287
-64.8412
-64.9901
-65.7763
-65.9665
-67.3804
-68.1245
-67.3698
-66.7377
-66.1044
-65.6583
-65.3738
-64.7093
-64.6472
-64.6564
-65.252
-66.1566
-66.5906
-67.1991
-67.5035
-68.9509
-69.1904
-68.7406
-67.8462
-67.3173
-67.0774
-66.473
-66.3873
-65.7864
-65.3489
-65.2623
-65.742
-66.1727
-66.3741
-68.4671
-68.7635
-68.7559
-68.8655
-69.043
-68.5835
-68.065
-67.9674
-67.7202
-67.6432
-67.1087
-66.477
-66.5126
-66.5046
-66.5955
-66.1755
-66.1941
-66.1149
-67.4636
-68.2467
-68.1963
-67.4934
-67.6208
-68.1022
-68.4602
-68.7097
-68.8973
-68.6308
-68.2772
-67.8435
-67.6996
-67.6599
-67.5418
-67.1147
-66.7802
-66.5918
-66.027
-68.2524
-68.6932
-68.5129
-68.1689
-67.7585
-67.9658
-68.3556
-69.0505
-69.1832
-69.2856
-69.0909
-68.8598
-68.6643
-68.7168
-68.7013
-68.5272
-68.097
-67.8419
-67.3038
-66.3835
-69.4723
-69.5581
-69.0919
-68.3288
-67.6158
-67.8908
-68.0549
-68.9362
-69.1785
-69.2748
-69.3837
-69.1891
-69.9331
-70.0592
-70.1904
-70.1642
-69.9933
-69.8815
-68.9594
-68.0526
-66.6726
-69.7131
-69.5631
-68.845
-68.0722
-67.5508
-67.7894
-68.0804
-68.6805
-69.2019
-69.1759
-69.3947
-69.8092
-70.0626
-71.2325
-71.8789
-72.4624
-72.3103
-71.8565
-70.522
-69.1664
-67.333
-65.9159
-69.2365
-68.9771
-68.5887
-68.016
-67.0246
-67.1362
-67.1486
-67.6632
-68.0641
-68.5665
-68.8092
-69.2619
-69.9756
-70.7486
-71.7495
-72.7326
-73.1455
-72.6749
-70.8198
-69.2773
-67.5374
-65.8935
-64.4705
-69.2554
-69.2257
-68.8497
-68.0245
-66.8267
-66.673
-66.7403
-66.9412
-67.4615
-67.6963
-68.0186
-68.5682
-69.2442
-69.9441
-71.0546
-71.4272
-71.9512
-71.1991
-70.2415
-68.4823
-66.7405
-65.7144
-64.4651
-63.3248
-59.3164
-59.523
-59.2802
-59.7557
-59.4448
-59.233
-59.7841
-59.6697
-59.5077
-59.3654
-59.9382
-59.8176
-59.6933
-59.5118
-59.4204
-60.0213
-59.9045
-59.7905
-59.7335
-59.7278
-59.6427
-60.1327
-60.0799
-59.9783
-59.9899
-59.8882
-59.7629
-59.7445
-60.3799
-60.3446
-60.2323
-60.0158
-60.2402
-60.0663
-60.0979
-59.9038
-60.5307
-60.4417
-60.3906
-60.2876
-60.4585
-60.2481
-60.2127
-60.1917
-60.1588
-60.7581
-60.661
-60.8231
-60.722
-60.7375
-60.5806
-60.595
-60.6001
-60.5665
-60.4063
-60.8786
-60.9353
-60.9632
-61.0272
-61.0377
-61.1084
-61.1014
-61.1114
-61.0628
-61.0318
-61.0889
-61.1149
-61.356
-61.4233
-61.414
-61.4418
-61.4851
-61.6685
-61.7134
-61.6808
-61.4575
-61.5085
-61.5745
-61.5076
-61.5353
-61.6902
-61.9163
-62.0792
-61.7096
-62.3253
-62.4975
-62.3591
-62.1363
-61.8729
-61.9493
-61.892
-62.0593
-62.3888
-62.6025
-62.6797
-62.6158
-63.5381
-63.3186
-63.5474
-63.2556
-62.9332
-62.6982
-62.5636
-62.5494
-63.4634
-62.6124
-62.9455
-63.2253
-63.469
-63.9101
-63.7706
-64.9247
-64.8504
-64.4471
-63.834
-63.5921
-63.1511
-63.348
-64.3522
-65.3857
-63.4905
-63.9424
-64.2928
-64.7928
-65.1071
-66.364
-66.7119
-66.4202
-65.4983
-64.7286
-64.5529
-63.757
-63.9075
-64.8033
-65.3971
-66.6746
-65.0509
-65.0382
-66.1534
-66.4778
-67.9571
-68.4823
-67.4786
-66.6537
-66.0109
-65.6612
-65.2779
-64.8289
-64.9746
-65.04
-65.7316
-66.5527
-66.944
-67.2184
-67.6076
-67.824
-69.0865
-69.1175
-68.5689
-67.6258
-67.2105
-67.0255
-66.5277
-66.3414
-65.8892
-65.6078
-65.7099
-66.0158
-66.5572
-66.6904
-66.5586
-68.3677
-68.6213
-69.0171
-68.7906
-68.6249
-68.2785
-67.8197
-67.8032
-67.6072
-67.389
-66.911
-66.5847
-66.7415
-66.7649
-66.8685
-66.4447
-66.4727
-66.2812
-65.9062
-67.477
-68.0899
-68.2374
-67.4183
-67.4109
-67.7481
-68.2937
-68.5784
-68.6332
-68.3909
-68.071
-67.7252
-67.7203
-67.77
-67.6708
-67.2775
-67.0105
-66.8121
-66.2486
-65.7513
-68.3741
-68.6177
-68.4181
-68.0292
-67.6936
-67.8356
-68.2245
-68.8297
-68.9684
-69.0266
-68.8815
-68.6648
-68.5115
-68.647
-68.7686
-68.6339
-68.2816
-68.0707
-67.5705
-66.7945
-65.7219
-69.4669
-69.3908
-68.965
-68.2414
-67.5753
-67.8323
-67.8941
-68.8377
-69.0215
-69.0626
-69.1594
-68.9468
-69.7498
-69.9328
-70.182
-70.2135
-70.1636
-70.0499
-69.3071
-68.2023
-67.0281
-65.4818
-69.6693
-69.4694
-68.7746
-68.0176
-67.5772
-67.8546
-68.052
-68.5881
-68.9869
-68.9955
-69.2419
-69.4828
-69.8748
-71.0215
-71.7653
-72.4028
-72.3872
-71.9426
-70.7915
-69.457
-67.7017
-66.1213
-64.5389
-69.284
-68.9678
-68.6066
-68.022
-67.085
-67.1803
-67.1755
-67.6495
-67.9791
-68.4423
-68.6875
-69.0941
-69.7572
-70.6102
-71.6265
-72.7057
-73.1631
-72.7723
-70.98
-69.4735
-67.6839
-66.0266
-64.5674
-63.512
-69.2781
-69.2506
-68.8781
-68.0735
-66.8654
-66.7069
-66.7527
-66.9659
-67.4487
-67.6459
-67.9749
-68.5205
-69.1019
-69.8916
-70.9763
-71.3956
-71.9387
-71.2465
-70.3049
-68.5296
-66.8472
-65.764
-64.5136
-63.3367
-62.6357
-59.3989
-59.2174
-59.5835
-59.3739
-59.1403
-59.7203
-59.5154
-59.2506
-59.2145
-59.9042
-59.7552
-59.4813
-59.4025
-59.3337
-59.9997
-59.8463
-59.6528
-59.6728
-59.4366
-59.4532
-60.1283
-59.9633
-59.8629
-59.9475
-59.6922
-59.6704
-59.5686
-60.2571
-60.1463
-59.9859
-59.9139
-60.0152
-59.7625
-59.8509
-59.6825
-60.4461
-60.4152
-60.2415
-60.1989
-60.0529
-60.0737
-60.1592
-59.9252
-59.8789
-60.5953
-60.558
-60.5597
-60.44
-60.4675
-60.4313
-60.2985
-60.3234
-60.3411
-60.1267
-60.7045
-60.7379
-60.8696
-60.7788
-60.8754
-60.696
-60.7515
-60.8417
-60.7028
-60.677
-60.797
-60.9465
-61.038
-61.072
-61.0988
-61.2442
-61.2072
-61.275
-61.2741
-61.1633
-61.1555
-61.2455
-61.1721
-61.2193
-61.2756
-61.3678
-61.5043
-61.6094
-61.4172
-61.8122
-61.8298
-61.813
-61.64
-61.674
-61.7637
-60.7695
-61.7
-61.9063
-61.9183
-62.084
-62.1374
-62.4843
-62.5825
-62.6413
-62.5247
-62.2952
-62.0774
-62.1794
-62.2791
-63.5505
-61.9622
-62.1311
-62.5394
-62.8642
-62.8529
-63.3125
-63.7156
-63.7414
-63.493
-63.1459
-62.89
-62.7427
-62.9676
-64.1654
-65.7431
-62.8911
-63.0829
-63.3968
-63.7325
-64.4937
-64.2373
-64.9985
-65.1671
-64.5648
-63.9285
-63.989
-63.3292
-63.7473
-64.8636
-65.7956
-66.9784
-63.825
-64.0806
-64.8309
-64.7334
-65.6651
-66.7358
-67.2472
-66.2723
-65.4534
-64.7638
-64.578
-63.8939
-64.3304
-65.265
-66.0374
-66.9473
-67.3298
-65.36
-65.2317
-66.0704
-66.7901
-67.9018
-68.251
-67.1229
-66.4778
-66.0419
-65.5863
-65.246
-65.1925
-65.2882
-65.5902
-66.174
-66.9121
-67.18
-67.1332
-67.2317
-67.5875
-68.0843
-69.0718
-68.8528
-68.2051
-67.3584
-67.0914
-66.7899
-66.4216
-66.2654
-66.1807
-65.9476
-66.1103
-66.4753
-66.9836
-66.9438
-66.7791
-66.6488
-68.2521
-68.3666
-68.9449
-68.6553
-68.1333
-67.8014
-67.5531
-67.7067
-67.5159
-67.2823
-67.0075
-66.8986
-67.0244
-67.0716
-67.0954
-66.7739
-66.7338
-66.5426
-66.1839
-65.8676
-67.5049
-67.9442
-68.1203
-67.3076
-67.2009
-67.4759
-68.0701
-68.4377
-68.5122
-68.1079
-67.9223
-67.6044
-67.7697
-67.819
-67.7897
-67.4693
-67.035
-66.9441
-66.4971
-65.9566
-65.3688
-68.4162
-68.4436
-68.2589
-67.8773
-67.6064
-67.7479
-68.1123
-68.6484
-68.7706
-68.8198
-68.67
-68.5085
-68.4041
-68.5803
-68.8185
-68.7095
-68.4268
-68.2819
-67.8222
-67.1404
-66.0444
-65.2726
-69.405
-69.2158
-68.8266
-68.1621
-67.5709
-67.7511
-67.8455
-68.7869
-68.9121
-68.8977
-68.9585
-68.8125
-69.4665
-69.8048
-70.1497
-70.2589
-70.3585
-70.2394
-69.6217
-68.5326
-67.3447
-65.7301
-64.569
-69.6142
-69.3894
-68.7099
-67.9832
-67.6205
-67.8557
-68.0428
-68.4859
-68.8211
-68.866
-69.0417
-69.2489
-69.6969
-70.8088
-71.5932
-72.329
-72.4599
-72.0409
-71.1384
-69.7097
-67.9131
-66.3679
-64.7201
-63.5272
-69.3317
-68.9674
-68.5958
-68.0553
-67.1429
-67.2286
-67.2226
-67.6394
-67.9159
-68.3272
-68.6303
-68.9465
-69.57
-70.4554
-71.4891
-72.6407
-73.1631
-72.8297
-71.1636
-69.6964
-67.7791
-66.1431
-64.6738
-63.5757
-62.7105
-69.3021
-69.2755
-68.8997
-68.1216
-66.9003
-66.7368
-66.7802
-66.9969
-67.4474
-67.598
-67.9166
-68.3865
-68.9828
-69.7831
-70.8613
-71.3605
-71.95
-71.3232
-70.4048
-68.5688
-66.8937
-65.8062
-64.5382
-63.345
-62.677
-62.2041
-59.4292
-59.2097
-58.9112
-59.6305
-59.3988
-59.1912
-59.0759
-59.6971
-59.5195
-59.306
-59.2342
-59.1242
-59.8772
-59.7271
-59.6179
-59.52
-59.3347
-59.3261
-60.0503
-59.881
-59.748
-59.6172