/*--------------------------------*- C++ -*----------------------------------*\
  =========                 |
  \\      /  F ield         | OpenFOAM: The Open Source CFD Toolbox
   \\    /   O peration     | Website:  https://openfoam.org
    \\  /    A nd           | Version:  7
     \\/     M anipulation  |
\*---------------------------------------------------------------------------*/
FoamFile
{
    version     2.0;
    format      ascii;
    class       surfaceScalarField;
    location    "2.5";
    object      phi_0;
}
// * * * * * * * * * * * * * * * * * * * * * * * * * * * * * * * * * * * * * //

dimensions      [0 3 -1 0 0 0 0];

internalField   nonuniform List<scalar> 
54451
(
-2.40162e-06
0.000274549
-0.000144512
2.97524e-05
0.00158656
-0.000420267
4.32036e-06
0.000285015
-0.000143997
9.31273e-06
0.000431705
-0.000137626
-0.000112153
0.00287489
-0.00036367
5.3638e-05
0.00164118
-0.000420706
0.000127292
0.000583454
-0.000449404
9.29803e-06
0.000289656
-0.000143447
2.22062e-05
0.000403861
-0.000138359
9.14493e-05
0.000707867
-0.000122639
-0.000231812
0.00244187
-0.000258113
-9.64498e-05
0.0031096
-0.000349524
0.000154844
0.00346096
-0.000576663
7.34325e-05
0.00167574
-0.000420863
0.000124513
0.000506556
-0.000446116
0.000221909
-0.000552916
-0.000441836
1.3826e-05
0.000288838
-0.000142848
2.9238e-05
0.00036985
-0.000138673
9.82683e-05
0.000595905
-0.000124665
8.2632e-05
0.00221062
-8.77929e-05
3.89983e-05
0.00366778
0.000104919
-0.000228105
0.00260213
-0.000222557
-3.52315e-05
0.00381405
-0.000399349
-7.18256e-05
0.0033322
-0.000339811
0.000152867
0.00364603
-0.000562948
0.000420939
0.00152914
-0.000690283
9.4849e-05
0.0016886
-0.000420853
0.000124021
0.000433525
-0.000442615
0.00021545
-0.000674782
-0.000441432
0.000354457
0.00021724
-0.000371137
1.82963e-05
0.000282594
-0.000142366
3.28088e-05
0.000332862
-0.000138669
0.00010801
0.000476266
-0.000127045
8.36132e-05
0.00209157
-8.92279e-05
0.000167028
0.00284942
-5.48345e-05
0.000219931
0.00564434
6.83397e-05
0.000112803
0.00352307
2.24361e-05
0.00021421
0.00386394
-1.02252e-05
-0.000236528
0.00278813
-0.000188335
-2.97253e-05
0.00412232
-0.000348238
0.00040202
0.00373011
-0.000601377
-1.517e-05
0.00349842
-0.000321155
0.000190708
0.00376431
-0.000524775
0.000417734
0.00143894
-0.000675033
0.000638517
-0.000139478
-0.000620395
0.000115991
0.00168116
-0.000423204
0.000124266
0.000358529
-0.000437313
0.000223749
-0.000792453
-0.000440682
0.000344098
-0.000113149
-0.000371528
0.000495731
3.82431e-05
-0.000270408
2.69454e-05
0.000266801
-0.000142073
3.1521e-05
0.000297525
-0.000138551
0.000122408
0.000345281
-0.000130092
8.74327e-05
0.0019686
-9.15122e-05
0.000176155
0.00264
-5.59632e-05
0.000170145
0.00146796
-4.16527e-05
0.000162778
0.00534375
0.001152
0.00029156
0.00590343
4.61552e-05
0.00051968
0.00543426
-0.000225822
0.000166576
0.00331997
6.60016e-06
0.000132859
0.0036725
5.12984e-05
0.00043424
0.00449208
-0.000158883
-0.000231717
0.00305633
-0.000167726
3.54721e-05
0.00442823
-0.000339008
0.000376871
0.00394994
-0.000527207
0.000644025
0.00309414
-0.000643424
3.14955e-05
0.00363944
-0.000325959
0.000200797
0.00383436
-0.000467739
0.000449408
0.00131198
-0.000623475
0.000629072
-0.000475327
-0.000624157
0.000789062
-0.000218658
-0.00044705
0.00014802
0.00164788
-0.000426254
0.000129673
0.000271991
-0.000434818
0.000231864
-0.000901888
-0.000437334
0.000341155
-0.000430853
-0.0003767
0.000473091
-0.000355785
-0.000274436
0.000456646
-0.00158231
-0.000229685
2.53396e-05
0.0002518
-0.000141937
2.70247e-05
0.000266619
-0.000138192
0.000134549
0.000205519
-0.000133338
9.45726e-05
0.00183829
-9.4352e-05
0.000182675
0.00242297
-5.71572e-05
0.000180973
0.00127272
-4.17005e-05
0.000218081
0.00103148
-4.0017e-05
0.000268867
0.00545131
0.00162017
0.000234534
0.00555644
0.00109362
0.000195993
0.00584576
0.000926721
0.0004032
0.00595333
0.000165943
0.000522216
0.00506048
3.05793e-05
0.000613293
0.0052973
-0.000110566
0.000138816
0.00315343
4.03369e-05
-4.77e-05
0.00355561
0.000206657
0.000111681
0.00496578
-0.000157208
0.000761556
0.00475586
-0.000337536
-0.00018828
0.00335564
-0.000152565
6.81965e-05
0.00470188
-0.000308771
0.000302873
0.00421738
-0.000459909
0.000652376
0.00311423
-0.000570609
0.000945834
0.00142737
-0.000427274
5.30387e-05
0.00379425
-0.000336543
0.000250246
0.00384891
-0.000461086
0.000426744
0.0012236
-0.000574238
0.000579267
-0.000742791
-0.000594122
0.000665513
-0.000575423
-0.000459814
0.000593
-0.000724782
-0.000369245
0.000140414
0.00161423
-0.000432915
0.000115793
0.000193365
-0.000436396
0.000227053
-0.000993677
-0.000435533
0.000327471
-0.000721225
-0.000379861
0.000445021
-0.000719283
-0.000275547
0.000394242
-0.00182949
-0.000240531
0.000412636
-0.00167323
-0.000202322
2.92641e-05
0.000232213
-0.000142064
2.31561e-05
0.000239288
-0.000137762
0.000138159
6.51851e-05
-0.000136017
0.000105512
0.00169706
-9.76164e-05
0.000188588
0.00219883
-5.88005e-05
0.000203217
0.00105574
-4.33947e-05
0.000237485
0.000792658
-4.03622e-05
0.000218539
-0.000823788
-4.36232e-05
0.000439571
0.00563352
0.0020352
0.000214674
0.0054645
0.00163494
0.000218914
0.00514399
0.00165137
0.00023301
0.00597603
0.00092261
0.000298405
0.00638848
0.000774711
0.000531958
0.00599951
0.000812484
0.000566776
0.00569979
0.000210131
0.000373552
0.00443126
0.000373905
0.000339313
0.00504718
5.30719e-05
0.000956531
0.00582891
-0.00012636
7.40924e-05
0.00311111
4.58414e-05
-8.56433e-05
0.00373404
1.5747e-05
-0.000160622
0.00551003
0.000125899
0.000868825
0.00482325
-0.000441047
0.00136927
0.00334326
-0.000611583
-0.000179984
0.00368511
-0.000147247
0.000152558
0.0049349
-0.000287896
0.000474186
0.00428897
-0.000427807
0.000641239
0.00306731
-0.00047496
0.000839689
0.0010915
-0.000408917
0.000910658
0.00109584
-0.000324236
0.000113992
0.00387451
-0.00033458
0.000269752
0.0038467
-0.000488288
0.000424079
0.00112258
-0.000557092
0.000510043
-0.000934108
-0.000565493
0.000544481
-0.000829664
-0.00043934
0.00051914
-0.00095542
-0.000354074
0.000496227
-0.00170044
-0.000285285
0.000151092
0.00156955
-0.000440365
0.00010289
0.000117255
-0.000436539
0.000216158
-0.00107223
-0.000435846
0.000302473
-0.000972674
-0.000381045
0.000397865
-0.00102706
-0.000281359
0.000357451
-0.00202108
-0.000238187
0.000374318
-0.00184634
-0.000204245
0.000394943
-0.0022569
-0.000199397
4.05157e-05
0.000200841
-0.000142413
1.14119e-05
0.000223199
-0.000137386
0.000135823
-7.04144e-05
-0.000137986
0.000120015
0.00154257
-0.000101544
0.000194102
0.00196939
-6.22844e-05
0.000216178
0.000826924
-4.61578e-05
0.000249666
0.000541544
-4.19476e-05
0.00020588
-0.00102525
-4.47808e-05
0.000146806
-0.0017882
-5.57298e-05
0.000290741
0.00597966
0.00251171
0.000204403
0.00563428
0.0020074
0.00032072
0.00530449
0.00198806
0.000320524
0.00535203
0.00157648
0.000109965
0.00542002
0.00154735
0.00034297
0.00565634
0.0015226
0.000421911
0.00633663
0.000786757
0.000609512
0.00651335
0.00056178
0.000657523
0.00571095
0.000745061
0.000819706
0.00624445
0.000724482
0.000612538
0.00524043
0.000374285
0.000368773
0.00378581
0.000401172
0.000210824
0.00477998
0.000269658
0.00100915
0.0058421
-0.000100441
0.00139709
0.00561329
8.65162e-05
-4.49231e-05
0.0032604
3.52186e-06
-2.83282e-05
0.00403046
-6.9692e-05
0.000205242
0.00582522
-3.05008e-05
0.000844108
0.00510558
-0.000359296
0.00131727
0.00296048
-0.000535845
0.00141871
0.00212553
-0.000425243
-0.00010942
0.00399377
-0.000142127
0.000246714
0.00510746
-0.000296771
0.000549473
0.0042984
-0.000422718
0.000660794
0.00291992
-0.000431165
0.000703316
0.00090768
-0.000449971
0.000758706
0.000786681
-0.000339326
0.000631464
0.000802589
-0.000431144
0.000188244
0.00389282
-0.000346544
0.000323622
0.00376531
-0.000473928
0.00043316
0.000971816
-0.000554526
0.000424115
-0.00107112
-0.00054172
0.000435035
-0.00101633
-0.000416
0.000436741
-0.00114291
-0.000331136
0.000432286
-0.00183452
-0.000277969
0.00036802
-0.00123232
-0.000253345
0.000207887
0.00147155
-0.00044505
6.76819e-05
5.89601e-05
-0.00043834
0.000206485
-0.00114261
-0.00043682
0.000271132
-0.00117948
-0.000380161
0.000347269
-0.00127611
-0.000285169
0.000290647
-0.00213666
-0.000240247
0.000332545
-0.00196496
-0.00020245
0.000355239
-0.0024085
-0.000202009
0.000217157
-0.002735
-0.000183903
4.25717e-05
0.000166983
-0.000142914
1.05329e-05
0.000207233
-0.00013698
0.000128901
-0.000197469
-0.000139231
0.000137949
0.00137247
-0.000105836
0.000203446
0.00173168
-6.72708e-05
0.000222755
0.000592608
-5.07244e-05
0.00024375
0.00029558
-4.39441e-05
0.000192828
-0.00121421
-4.58122e-05
0.000139086
-0.00191566
-5.64147e-05
8.62225e-05
-0.00301186
-6.54521e-05
0.000131181
0.00622863
0.00253176
4.87101e-05
0.00607453
0.00245527
0.000496047
0.00588213
0.00236848
0.000380733
0.0055909
0.00196624
2.24097e-05
0.00545847
0.00194098
0.000243782
0.005555
0.00190615
0.000372443
0.00549169
0.0015944
0.000483873
0.0056957
0.00142645
0.00100997
0.00549363
0.00135762
0.000652376
0.00570521
0.00145384
0.000582691
0.00649947
0.000708471
0.000867319
0.00612545
0.000676111
0.000762269
0.00503611
0.000685168
0.000782357
0.00641668
0.000799623
0.00148961
0.00687538
0.000684943
0.000343001
0.00488727
0.000565734
0.000311494
0.00340474
0.000415532
0.000175192
0.00488163
0.000329566
0.000808911
0.00597691
0.000170044
0.00136378
0.00535214
0.00011419
0.00142721
0.00539409
0.000266042
-3.76401e-05
0.00351034
-1.89961e-06
7.86405e-05
0.00427602
-7.39685e-05
0.000377444
0.00611111
-0.000183546
0.000791177
0.0052136
-0.000268908
0.00111932
0.00250375
-0.000318574
0.00112273
0.0016198
-0.000394143
0.000939915
0.00163073
-0.000184381
9.80537e-06
0.00424905
-0.000166324
0.000406798
0.00518949
-0.000307328
0.000543565
0.00431638
-0.000425157
0.00061781
0.0027179
-0.000414391
0.000560093
0.000746933
-0.000395477
0.000586502
0.000589091
-0.000402142
0.000502778
0.000826514
-0.000433745
0.000400097
0.000953736
-0.000462045
0.000310077
0.00386311
-0.000371883
0.000389985
0.00351583
-0.000419359
0.000424908
0.000810277
-0.000530813
0.000342613
-0.00118882
-0.000508313
0.00034637
-0.00116238
-0.000394764
0.000352598
-0.00129755
-0.000323308
0.000343372
-0.00190648
-0.000269996
0.000293656
-0.00119619
-0.000252519
0.000218402
-0.000846012
-0.000252892
0.000231864
0.00134276
-0.000450505
5.88201e-05
3.76533e-06
-0.000438142
0.000190439
-0.00120547
-0.000437011
0.000224814
-0.00132522
-0.000377942
0.000303374
-0.00146939
-0.000286806
0.000231605
-0.00219166
-0.000239017
0.000295826
-0.00205304
-0.000204244
0.000298491
-0.00250924
-0.000207369
0.000203321
-0.00281625
-0.000184999
0.000110339
-0.00232262
-0.000162479
3.99196e-05
0.000135342
-0.000143423
1.85256e-05
0.000182332
-0.000136538
0.000119075
-0.000313901
-0.000139623
0.000154214
0.00118836
-0.000109334
0.000214919
0.00148246
-7.1543e-05
0.000212672
0.000368538
-5.58725e-05
0.000228937
6.19917e-05
-4.60724e-05
0.000180426
-0.00139204
-4.65397e-05
0.000132353
-0.002036
-5.78255e-05
7.03758e-05
-0.00307234
-6.6309e-05
2.32764e-05
-0.00346763
-6.11675e-05
2.82851e-05
0.00608305
0.00265188
6.56092e-05
0.00621714
0.00248864
0.000568175
0.00599095
0.00236381
0.00011339
0.00623421
0.00246787
0.000138261
0.00588122
0.00234033
0.000433508
0.00598679
0.00221262
0.000394019
0.00567036
0.00198235
0.000314377
0.00559994
0.00199427
0.00120126
0.00547205
0.00183263
0.00084354
0.00538168
0.00184807
0.000206059
0.00593452
0.00139737
0.000725394
0.00610329
0.00132873
0.000806421
0.00545924
0.00141669
0.000881367
0.00566195
0.00130187
0.00122436
0.00664309
0.0012878
0.000549362
0.00627024
0.000887216
0.000815376
0.00563295
0.000697087
0.000488682
0.00451089
0.000887843
0.000665269
0.00639133
0.000854168
0.0014223
0.00692176
0.000694722
0.00150781
0.00678
0.000754467
0.000287872
0.0046671
0.000533722
5.62026e-05
0.00362321
0.000369696
0.000292164
0.00491395
0.000468498
0.000612098
0.00609037
0.00039519
0.00114352
0.00517378
0.000324214
0.00146031
0.00473619
0.000434508
0.00122371
0.00400074
0.000114506
-9.8993e-05
0.00397363
-1.55407e-05
0.000284133
0.00450252
-0.000105732
0.000551142
0.00618417
-0.000154614
0.000734247
0.00525145
-0.000337835
0.000913734
0.00218936
-0.000308156
0.00086014
0.00116016
-0.00013257
0.000515581
0.00152402
-0.000300234
0.000726335
0.00173958
-0.000407448
0.000174249
0.00442758
-0.000152032
0.000572671
0.00516225
-0.000321773
0.00068077
0.00416911
-0.000415919
0.000576315
0.00246377
-0.000404733
0.000386423
0.000622625
-0.000330136
0.00036165
0.00057162
-0.000387058
0.00045133
0.000742913
-0.000426498
0.000336459
0.000951596
-0.000474407
0.000193579
0.0010015
-0.000495438
0.000410713
0.00377286
-0.000397204
0.000416531
0.00318328
-0.000397045
0.000441997
0.000602339
-0.000462979
0.000280667
-0.00129131
-0.000484167
0.000246291
-0.00123186
-0.000381755
0.00024819
-0.00138202
-0.000326882
0.000248022
-0.00192243
-0.000259558
0.000228004
-0.00115611
-0.000239591
0.000175646
-0.000813451
-0.000257405
0.000175313
-0.000267493
-0.000327503
0.000201376
0.00123455
-0.000454235
7.3826e-05
-6.50351e-05
-0.000437005
0.000151845
-0.0012418
-0.000434589
0.000178596
-0.00141112
-0.000375494
0.000264526
-0.00161041
-0.000286528
0.000165536
-0.00219229
-0.000239049
0.000256407
-0.00211477
-0.000204756
0.000246665
-0.00257317
-0.000206549
0.000191805
-0.00288867
-0.000194397
8.1179e-05
-0.00235196
-0.000166461
9.76893e-06
-0.00168591
-0.000160741
4.07365e-05
0.000102394
-0.000143898
2.72395e-05
0.000147698
-0.000136028
0.00010572
-0.000417018
-0.000139141
0.000170632
0.000989543
-0.000111437
0.000228977
0.00121954
-7.53869e-05
0.000194177
0.00016221
-5.93923e-05
0.000212518
-0.000158445
-4.79535e-05
0.000165039
-0.00155613
-4.70213e-05
0.000121304
-0.00214547
-5.83729e-05
5.44234e-05
-0.00311764
-6.69439e-05
1.11938e-05
-0.00348326
-6.18668e-05
-3.22243e-05
-0.00324158
-4.71338e-05
0.00015399
0.00577436
0.0028371
7.87312e-05
0.00609575
0.00263715
0.000541088
0.00588753
0.00255637
6.60936e-05
0.00625938
0.00243547
0.000380315
0.00590392
0.00233362
0.000624737
0.00600401
0.0022113
0.000131841
0.00645631
0.00238451
0.00034977
0.00599568
0.00231801
0.00110496
0.00620013
0.00222328
0.00123366
0.00557797
0.00204971
0.000233567
0.00578499
0.00191237
0.000575284
0.00574316
0.00198924
0.000655715
0.00569991
0.00191711
0.00103779
0.005253
0.00180489
0.0011983
0.00593536
0.00173269
0.000408155
0.00612888
0.001473
0.000757252
0.00622138
0.00133739
0.000598321
0.00545549
0.00122284
0.000812229
0.00553805
0.00139363
0.00122412
0.00688168
0.00126147
0.00158105
0.00731687
0.0010924
0.000433153
0.00612093
0.00106244
0.000492735
0.00524544
0.0008382
0.000422356
0.00429712
0.000780662
0.000710447
0.00611149
0.00106933
0.00123473
0.00690844
0.000776276
0.00163847
0.00649157
0.000804996
0.00150036
0.0061495
0.000643927
-0.000111132
0.00482331
0.000738874
0.000134767
0.00410108
0.000205227
0.000522082
0.00503177
0.000280931
0.0006829
0.00604674
0.000563466
0.000918524
0.00514054
0.000423638
0.00140543
0.00414055
0.000374557
0.000876142
0.0038384
0.000236285
0.00102395
0.00351231
-9.86378e-05
0.000164115
0.00440439
-8.69505e-05
0.000518438
0.00467928
-0.000138067
0.000983743
0.00594864
-0.000173174
0.000973697
0.00502437
-0.000324914
0.000725608
0.00184231
-0.000329974
0.000565797
0.000878706
-0.000230847
0.000597303
0.00160224
-0.000356768
0.000493024
0.00176637
-0.000483585
0.000433909
0.00243292
-0.000645481
0.000356357
0.00449676
-0.000179659
0.000693373
0.00504726
-0.00031388
0.000769598
0.00390431
-0.000384577
0.000526918
0.00216552
-0.000363917
0.000164289
0.000601317
-0.000301423
0.000257024
0.000590591
-0.000357941
0.000374684
0.000641752
-0.000412559
0.000343041
0.000886766
-0.000476706
0.000133817
0.00109506
-0.000526139
9.63027e-05
0.00141739
-0.000542149
0.000497101
0.00353567
-0.000437807
0.000461966
0.00279839
-0.000400457
0.000351564
0.000419385
-0.00041381
0.000193949
-0.00130665
-0.000463
0.000152398
-0.0012272
-0.000376698
0.000144868
-0.0014035
-0.000339605
0.000144632
-0.0018785
-0.000259035
0.0001787
-0.00112306
-0.000224644
0.000159364
-0.000760638
-0.000259963
0.000120637
-0.000218834
-0.000345522
1.62957e-05
0.000208171
-0.000389144
0.000196616
0.0011273
-0.000457118
8.39997e-05
-0.000138223
-0.000437807
0.000102112
-0.00124299
-0.000432208
0.000137991
-0.00143993
-0.00037314
0.000225209
-0.00169684
-0.000285296
0.00010604
-0.00215215
-0.000238526
0.000198317
-0.00213344
-0.00020618
0.000191466
-0.00259095
-0.000213403
0.00013908
-0.00291847
-0.000194527
3.77023e-05
-0.00235485
-0.000174785
-1.59082e-05
-0.00166308
-0.000162189
-7.1866e-05
-0.0018408
-0.000164074
3.42266e-05
7.53924e-05
-0.00014418
3.24258e-05
0.000107059
-0.000135685
8.94569e-05
-0.000504441
-0.000138062
0.000171234
0.000791554
-0.000112386
0.000244418
0.000941845
-7.81599e-05
0.000170441
-2.11827e-05
-6.24346e-05
0.000197323
-0.000365597
-4.95642e-05
0.000147036
-0.00170308
-4.80437e-05
0.000112121
-0.0022477
-5.69063e-05
4.14477e-05
-0.00315027
-6.71895e-05
-2.43916e-06
-0.00348522
-6.25439e-05
-4.73194e-05
-0.00320918
-4.6942e-05
-6.13005e-05
-0.00305397
-3.11307e-05
0.000335039
0.00549935
0.00318244
0.000162225
0.00578453
0.00285915
0.000571003
0.00566552
0.0028135
8.53059e-05
0.00610238
0.00266564
0.000551852
0.00582262
0.00253052
0.000765103
0.00579713
0.00248513
0.000198184
0.00620112
0.00242326
0.000523109
0.00594384
0.00222221
0.00102771
0.00613766
0.00227722
0.00131926
0.00577215
0.00215115
0.000253816
0.00647549
0.00235249
0.000577426
0.00615125
0.0022268
0.000761909
0.00625892
0.00215303
0.00104608
0.00566344
0.00212953
0.00149658
0.00551744
0.00194697
0.000406676
0.00589933
0.00192087
0.000614511
0.00590436
0.00189391
0.00066088
0.00581867
0.00180792
0.000970923
0.00507205
0.00193937
0.00119947
0.0060279
0.00173699
0.0015867
0.00700459
0.00186235
0.000382705
0.0062608
0.0014904
0.000802267
0.00609079
0.00129406
0.000517644
0.00538652
0.00131107
0.000907994
0.00531864
0.0012447
0.00118959
0.00696771
0.00135274
0.00146947
0.0073336
0.00141373
0.00172146
0.00688168
0.000814098
0.00023136
0.00599096
0.000821468
0.00036152
0.00511076
0.000970363
0.000525537
0.00435522
0.000776646
0.00102954
0.00559741
0.000948094
0.00106719
0.00684936
0.000979751
0.00163319
0.00620826
0.000831831
0.0013956
0.00567667
0.000758364
0.00155515
0.00598625
0.000170224
0.000129182
0.00511407
0.000631819
0.000236338
0.00485325
0.000268798
0.000915065
0.00535081
-4.51305e-05
0.00119325
0.00577876
0.000329356
0.00108268
0.00501309
0.00033384
0.00125097
0.00368021
0.000198812
0.00109591
0.0035698
0.000144556
0.000734176
0.00376954
-0.000262097
0.000750768
0.00487971
-0.000446449
0.000424877
0.00474777
-0.000226578
0.000716221
0.00476724
-0.000197764
0.00109235
0.00575647
-0.000268651
0.0010367
0.00457509
-0.000233676
0.000556524
0.00151184
-0.000386672
0.000482757
0.000687535
-0.000364536
0.000484407
0.00167144
-0.000409763
0.00050346
0.00185056
-0.000601378
0.000373461
0.00238977
-0.000680078
9.47893e-05
0.00300822
-0.000846397
0.000628182
0.00437444
-0.000170606
0.000780289
0.0048202
-0.000270929
0.000710639
0.00361889
-0.000387535
0.000323647
0.00196077
-0.000309525
6.77709e-05
0.000600499
-0.000278472
0.000166481
0.000590025
-0.00032247
0.000248985
0.000568674
-0.000389218
0.000343208
0.000789135
-0.000479436
0.000152343
0.00116936
-0.000543986
3.36973e-05
0.00153871
-0.000560518
-8.87004e-05
0.00185229
-0.000547462
0.000568678
0.00317457
-0.000435645
0.000485224
0.00235582
-0.000396464
0.000273567
0.000255146
-0.000407673
-1.23297e-05
-0.0011272
-0.000442931
7.23627e-05
-0.00115549
-0.000381861
4.06005e-05
-0.00136242
-0.000352347
2.44228e-05
-0.00177486
-0.000269356
0.000135211
-0.00111171
-0.000214129
0.000103182
-0.000691848
-0.000257536
4.81007e-05
-0.000126786
-0.00036241
2.42375e-07
0.000246333
-0.000399835
-0.000111708
0.000680596
-0.000415782
0.000175347
0.0010273
-0.000460512
8.72257e-05
-0.000210099
-0.000440042
5.82857e-05
-0.00121918
-0.000430439
8.81379e-05
-0.00141797
-0.000371072
0.000193937
-0.00173521
-0.000284288
2.95236e-05
-0.0020591
-0.000237426
0.000180526
-0.00214914
-0.000206029
0.000134235
-0.00256632
-0.000218017
8.98558e-05
-0.00290635
-0.000203259
2.32515e-05
-0.00235155
-0.000179635
-3.19295e-05
-0.00164271
-0.00016566
-0.000107121
-0.00178476
-0.00015843
-9.16929e-05
-0.00206077
-0.000159219
2.5277e-05
5.67718e-05
-0.000144303
3.52619e-05
6.31044e-05
-0.000135487
7.39472e-05
-0.000577259
-0.000136813
0.000165016
0.000600897
-0.000112421
0.000255853
0.000654002
-8.03965e-05
0.000147287
-0.000181814
-6.48156e-05
0.000182585
-0.000559506
-5.11099e-05
0.000139444
-0.00184316
-4.89282e-05
0.000114458
-0.00235205
-5.8148e-05
2.88865e-05
-0.00316959
-6.6478e-05
-1.64227e-05
-0.00347285
-6.31364e-05
-5.68247e-05
-0.00316673
-4.81703e-05
-7.21375e-05
-0.00299868
-3.0095e-05
-3.1077e-05
-0.00319287
-1.90205e-05
0.000343481
0.00539982
0.00346256
0.00033499
0.00544657
0.00326102
0.000491824
0.00550193
0.00321087
0.000182674
0.00577724
0.00288884
0.000605948
0.00563153
0.00283903
0.000834202
0.00562358
0.00276202
0.000387308
0.00604544
0.00255198
0.000640082
0.00584834
0.00252295
0.000935152
0.00586324
0.00255698
0.00125009
0.00574106
0.00249743
0.000179798
0.00629818
0.00236747
0.000821291
0.0058639
0.00225934
0.000883554
0.00602629
0.00221193
0.0010814
0.00571875
0.00229531
0.00172324
0.00559804
0.00217697
0.000487286
0.00645321
0.00227386
0.000712087
0.00615434
0.00225183
0.000882635
0.00616185
0.00210212
0.0011947
0.0053871
0.0022056
0.0013952
0.00533826
0.00211298
0.00171737
0.00596738
0.00214496
0.000482486
0.00586253
0.00200577
0.000754031
0.00599834
0.00187513
0.000802101
0.005691
0.00173713
0.0012075
0.00492085
0.00165962
0.00133245
0.00584543
0.00197899
0.00129236
0.00693458
0.00198412
0.00153042
0.00691771
0.00196156
0.000540081
0.00603931
0.00163503
0.000722837
0.00605068
0.0011692
0.0007558
0.00520775
0.00124256
0.00120857
0.00514332
0.00130737
0.00101287
0.00684423
0.00142249
0.00129788
0.00748093
0.00154072
0.00163352
0.00686091
0.00119659
0.00203731
0.00693576
0.000321575
0.000271105
0.00565053
0.00134999
0.000527779
0.005294
0.000346789
0.000849904
0.00462993
0.000760818
0.00116739
0.00559534
0.000804585
0.00125777
0.00672882
0.000893543
0.00153913
0.00615346
0.000746379
0.00145508
0.00546061
0.000688724
0.00139737
0.00589601
0.00018542
0.00127625
0.00640922
-0.000296704
0.000355401
0.00548566
0.00047125
0.00022325
0.00575809
0.000219953
0.00129608
0.00544072
-2.48378e-05
0.0015565
0.00510776
0.000106074
0.00136852
0.00438004
0.000150408
0.00117523
0.00324529
7.62831e-05
0.000937224
0.00343662
-0.000120832
0.00079288
0.00403738
-0.000412702
0.000607959
0.00490418
-0.000521069
0.000223746
0.0059446
-0.000589685
0.000779249
0.00485998
-0.000308046
0.00091865
0.00475164
-0.000349336
0.00117519
0.00530574
-0.000211585
0.000730993
0.00409479
-0.000195699
0.000484917
0.00114839
-0.000287376
0.000466794
0.000526485
-0.000525936
0.000505751
0.00159059
-0.000540459
0.000477028
0.00197601
-0.000669033
0.000285139
0.00243167
-0.000776079
0.000111544
0.00311037
-0.000860078
-0.000163154
0.00364377
-0.000872717
0.000767752
0.00418276
-0.000212396
0.000806764
0.0046171
-0.00028904
0.000643982
0.00333234
-0.000354786
1.73966e-05
0.00179346
-0.000249949
-1.89827e-05
0.000624778
-0.000242459
9.21064e-05
0.000547316
-0.000287269
0.000165586
0.0004724
-0.000367358
0.000291077
0.000712934
-0.000468883
0.000119511
0.00122941
-0.000555814
-4.90239e-05
0.00166109
-0.000569246
-8.59044e-05
0.00193007
-0.00055215
-0.000184114
0.00249891
-0.000573898
0.000560186
0.0028086
-0.00042197
0.000486119
0.00190142
-0.000380136
0.000187733
0.000141075
-0.00041184
-9.63625e-05
-0.0009181
-0.000432277
1.01254e-05
-0.00102086
-0.000393749
-0.000104343
-0.00124122
-0.000369191
2.05794e-05
-0.00167937
-0.000287883
8.06934e-05
-0.00111375
-0.00021377
2.62854e-05
-0.000592528
-0.000249878
4.27485e-05
-3.95057e-05
-0.000364313
-2.47974e-05
0.000277122
-0.000400331
-0.000106634
0.000701428
-0.000421154
-0.000123073
0.000913311
-0.000482196
0.000153514
0.000931491
-0.000463765
6.66028e-05
-0.000258872
-0.00044308
-7.79987e-06
-0.00114855
-0.000428931
6.26151e-05
-0.00137658
-0.000369426
0.000162061
-0.00172843
-0.000284066
-5.54651e-06
-0.00195355
-0.000237007
0.000145718
-0.00214255
-0.000207145
9.66928e-05
-0.00251375
-0.00021584
9.40906e-05
-0.00289521
-0.000208789
2.18666e-06
-0.00234232
-0.000185788
-5.91978e-05
-0.00161163
-0.000167938
-0.000116186
-0.0017351
-0.000155962
-0.000118601
-0.00201969
-0.000153051
-3.37376e-05
-0.00172467
-0.000186548
1.73695e-05
4.53378e-05
-0.000144202
3.87693e-05
1.5271e-05
-0.000135239
6.15006e-05
-0.000638776
-0.000135471
0.000155563
0.000420921
-0.0001124
0.000250034
0.000373647
-8.20999e-05
0.000126379
-0.000322025
-6.65647e-05
0.000171264
-0.000743386
-5.21992e-05
0.000123514
-0.0019687
-4.90869e-05
8.69478e-05
-0.00243031
-5.76185e-05
1.95776e-05
-0.00317951
-6.78006e-05
-3.00461e-05
-0.00344567
-6.36098e-05
-7.07378e-05
-0.00311096
-4.81697e-05
-8.93185e-05
-0.00292667
-3.08586e-05
-4.33511e-05
-0.00315969
-1.9923e-05
1.49815e-05
-0.00346655
-2.60471e-05
0.00057927
0.00506452
0.00366246
0.000465109
0.00532516
0.00344006
0.000394622
0.00542813
0.00348355
0.000422803
0.00533054
0.00333304
0.000641647
0.00549624
0.00323102
0.000797319
0.00556186
0.00314915
0.000394957
0.0058659
0.00284781
0.000708198
0.00560602
0.00284623
0.000983636
0.00560364
0.00281049
0.00124713
0.00550116
0.00281749
0.000314609
0.00598484
0.00266266
0.00101474
0.00574215
0.00246472
0.00100478
0.00577005
0.00249491
0.00123259
0.00557952
0.00256733
0.00164346
0.00571134
0.00253962
0.000423339
0.00634674
0.00237914
0.00078719
0.00587532
0.00228095
0.00103353
0.00581893
0.0023158
0.0013585
0.00538808
0.0023788
0.0015427
0.00534883
0.00239702
0.00164404
0.00562895
0.00234638
0.000591135
0.00639549
0.00230968
0.000873891
0.00607543
0.00223291
0.00119334
0.00582829
0.00219415
0.00160216
0.00509425
0.0020003
0.00159213
0.0051784
0.00210578
0.00133118
0.00585981
0.00218173
0.00169891
0.00626466
0.00232965
0.000594059
0.00583879
0.00205858
0.000927985
0.00596237
0.00183658
0.00100877
0.00553556
0.00177759
0.00139869
0.00476772
0.00170014
0.000916888
0.00603962
0.00156141
0.00131743
0.00674603
0.00214799
0.00138078
0.00708121
0.00207335
0.00204388
0.00737965
0.00162485
0.000609574
0.00578668
0.00153274
0.000844076
0.00611285
0.00125657
0.00102271
0.00509113
0.00111301
0.00115963
0.00514621
0.00124744
0.00122438
0.00682181
0.00136319
0.00130252
0.00759798
0.00154205
0.00159836
0.00689549
0.00136286
0.00196907
0.00691518
0.000645471
0.00161176
0.00731283
-4.59072e-05
0.000460667
0.00574108
0.000989508
0.000325565
0.00567597
0.000865705
0.00124875
0.00487761
0.000146429
0.00184305
0.00526129
0.000808311
0.0015751
0.0065993
0.000727526
0.00151369
0.00603924
0.000669311
0.00146636
0.00528378
0.000394076
0.00137653
0.0058472
0.000153889
0.00111468
0.00637545
-0.000287531
0.000572183
0.00642817
-0.000574598
0.000863427
0.00556644
7.84461e-05
0.000800221
0.00616637
0.000181393
0.00139499
0.00540345
3.74248e-05
0.00168124
0.00403679
9.58895e-05
0.00143834
0.00343134
0.000101347
0.00121172
0.00275719
-0.000106415
0.000905716
0.00342655
-0.00031361
0.000737881
0.00422783
-0.000572137
0.000424958
0.00500167
-0.000650006
0.000253738
0.00592886
-0.000647524
5.29931e-05
0.00575427
-0.000684698
0.00100554
0.00481808
-0.000223435
0.00111551
0.00452978
-0.000394931
0.00113347
0.00467325
-0.00020633
0.000406595
0.00358109
-8.70804e-05
0.000279517
0.000790052
-0.000135862
0.000407817
0.000511056
-0.000587657
0.000376645
0.00149178
-0.000638185
0.000353713
0.00212891
-0.000755993
0.000206075
0.00255736
-0.000881285
9.1305e-05
0.00307199
-0.000878035
-0.000148537
0.00374929
-0.00090297
-0.00028787
0.0040102
-0.000793374
0.000766768
0.00394775
-0.000325239
0.000805181
0.00441303
-0.000327385
0.000508067
0.00307275
-0.000349792
-3.66429e-05
0.00162368
-0.000244729
-8.98235e-05
0.000673133
-0.000198355
-6.32661e-06
0.000463085
-0.000256244
0.000136092
0.000411785
-0.000342167
0.000237336
0.000653622
-0.000464688
3.90613e-05
0.00130029
-0.00055254
-3.46253e-05
0.00176009
-0.000577436
-0.000104704
0.0019878
-0.000547073
-0.000125586
0.00255054
-0.000584822
-0.000144543
0.002908
-0.000634604
0.000572392
0.00243122
-0.000419722
0.000455757
0.0014772
-0.000386909
3.22314e-05
0.000141444
-0.000420536
-0.000157777
-0.000680807
-0.00042874
-2.04723e-05
-0.00085991
-0.000410698
-0.000130685
-0.00111951
-0.000390321
-4.3243e-05
-0.00155161
-0.000307991
-1.77025e-05
-0.00106266
-0.000224581
-2.87565e-05
-0.000438715
-0.000244736
4.10863e-05
3.13145e-05
-0.000359598
-5.10232e-05
0.000300247
-0.000395613
-3.36649e-05
0.000635218
-0.000416641
-0.000131218
0.000985264
-0.00048049
-2.69551e-06
0.00106953
-0.000560274
0.000143991
0.000837629
-0.000466218
5.07878e-05
-0.000286894
-0.000447761
-4.84117e-05
-0.00105323
-0.000428487
3.7606e-05
-0.00131899
-0.000368558
0.00012869
-0.00169269
-0.000283817
-3.09955e-05
-0.00184323
-0.000237013
0.000107201
-0.00210904
-0.000206458
8.14478e-05
-0.00245558
-0.000223252
1.07008e-05
-0.00282366
-0.000211144
-1.82668e-05
-0.00232198
-0.000191281
-0.000108071
-0.00154603
-0.000173364
-0.000143407
-0.00168712
-0.000143242
-0.00013212
-0.00198555
-0.0001473
-5.3882e-05
-0.00168245
-0.000184738
0.000108411
-0.000895514
-0.000240671
1.16718e-05
3.86727e-05
-0.000143927
4.11609e-05
-3.52467e-05
-0.000134845
4.90367e-05
-0.000688953
-0.000134098
0.000145343
0.000252442
-0.000112335
0.000236382
0.000108349
-8.34847e-05
0.00010903
-0.000445384
-6.77712e-05
0.00016116
-0.000918079
-5.30323e-05
0.000113696
-0.00208291
-5.16798e-05
7.96548e-05
-0.00250015
-5.89085e-05
5.31442e-06
-0.00317482
-6.7625e-05
-4.34366e-05
-0.00340568
-6.43614e-05
-7.90719e-05
-0.00304697
-4.85272e-05
-0.000105653
-0.0028392
-2.99887e-05
-5.43281e-05
-0.00311674
-1.94857e-05
-1.59259e-06
-0.00345691
-2.79682e-05
8.96232e-05
-0.00298196
-4.73708e-05
0.000530992
0.0048076
0.00415266
0.000142721
0.00534377
0.00368939
0.000374683
0.00542232
0.00346235
0.000637434
0.00523574
0.00356295
0.000689899
0.00540077
0.00341917
0.000784693
0.00534222
0.00344169
0.000468887
0.00536024
0.00332192
0.00074528
0.00545379
0.00333841
0.00111207