/*--------------------------------*- C++ -*----------------------------------*\
  =========                 |
  \\      /  F ield         | OpenFOAM: The Open Source CFD Toolbox
   \\    /   O peration     | Website:  https://openfoam.org
    \\  /    A nd           | Version:  7
     \\/     M anipulation  |
\*---------------------------------------------------------------------------*/
FoamFile
{
    version     2.0;
    format      ascii;
    class       volScalarField;
    location    "6.5";
    object      nut;
}
// * * * * * * * * * * * * * * * * * * * * * * * * * * * * * * * * * * * * * //

dimensions      [0 2 -1 0 0 0 0];

internalField   nonuniform List<scalar> 
18750
(
0.000461266
0.000619813
0.000474043
0.000343216
0.00106657
0.000575505
0.000879413
0.000352391
0.000455993
0.000366971
0.00242199
0.00105569
0.000812929
0.00039214
0.000559152
0.000939087
0.000240449
0.000255293
0.000424212
0.0004528
0.00311592
0.00119767
0.00201573
0.000572643
0.000991048
0.000983006
0.000431875
0.000821106
0.000493273
0.000915554
0.000185918
0.000314356
0.000184138
0.000446826
0.000418511
0.00290804
0.00175953
0.00268342
0.00115636
0.00108527
0.0018409
0.000379609
0.00055282
0.00105768
0.00114955
0.000856967
0.000646322
0.000355414
0.000545382
0.000857992
0.000472149
0.000300488
0.000292208
0.000203664
0.000445735
0.000500357
0.00288256
0.00124098
0.00208912
0.00132289
0.00118315
0.00206339
0.000765886
0.00120058
0.000785528
0.00213216
0.000514538
0.000396585
0.000837903
0.000816846
0.00126331
0.000496877
0.000678512
0.000487821
0.000256612
0.000591337
0.000874252
0.000274912
0.000316093
0.000324196
0.000253377
0.000251218
0.000429178
0.000474043
0.00301714
0.00247106
0.00367504
0.00110808
0.00202925
0.00207722
0.00138696
0.000822991
0.00223442
0.00345464
0.000780755
0.000744138
0.000936977
0.00162012
0.00235209
0.000394329
0.000578319
0.000764482
0.00089521
0.000737324
0.00147199
0.000458573
0.000580887
0.000698302
0.00041903
0.000496135
0.000588426
0.000886562
0.000118165
0.000259074
0.000286657
0.000275983
0.00029013
0.000284968
0.000450813
0.000481749
0.00273559
0.00173242
0.00257552
0.00121195
0.00283229
0.00352588
0.00130877
0.00158785
0.00239099
0.00295744
0.00115904
0.00139853
0.00173372
0.00401195
0.00381599
0.000649923
0.000582243
0.00058258
0.00145616
0.00114189
0.00225849
0.000509844
0.000499355
0.000534959
0.00080194
0.000763058
0.000732567
0.00158874
0.000305258
0.000393835
0.000540029
0.000658557
0.000554072
0.000462981
0.000706536
0.000895867
0.000199363
0.000102991
0.000284817
0.000235169
0.000300093
0.000274013
0.000250086
0.000440417
0.000543975
0.00262272
0.00127823
0.00244489
0.00196506
0.0014286
0.00273962
0.000706206
0.00206795
0.0028853
0.00352057
0.00188
0.00098201
0.00175633
0.00165058
0.00386968
0.00185361
0.001568
0.00143559
0.00313236
0.00223555
0.00331901
0.000748073
0.000529093
0.000808839
0.00143203
0.00147558
0.0013423
0.00244986
0.000366706
0.000427754
0.000633675
0.000718997
0.000196183
0.000540839
0.000219643
0.00157282
0.000294169
0.000324161
0.000394686
0.000520542
0.000531128
0.00057025
0.000511073
0.000664095
0.000887576
0.000210151
0.000171624
0.000126318
0.00029539
0.000326606
0.000251289
0.000285496
0.000278904
0.000447392
0.00047079
0.00295502
0.00079327
0.00254153
0.00105334
0.00124487
0.0022258
0.0011034
0.00152606
0.00172912
0.00300553
0.000229163
0.000752049
0.00125314
0.00216788
0.00331259
0.00143176
0.00084437
0.00112881
0.00116254
0.00232887
0.00332624
0.00116051
0.00106223
0.00185763
0.00205144
0.00241321
0.00225853
0.00339081
0.000610854
0.000770609
0.000405746
0.0010504
0.00105204
0.00136472
0.0020723
0.0026192
0.000358911
0.000353728
0.000509186
0.000376141
0.000321738
0.00027992
0.000566916
0.000232473
0.00150335
0.000256962
0.000251743
0.000339792
0.00038251
0.000547183
0.000513844
0.000525757
0.000519207
0.000650891
0.000883415
0.000137552
0.000119619
0.000146831
0.000139938
0.000288448
0.00050518
0.000213077
0.000333456
0.000366671
0.000454073
0.000516087
0.00290261
0.000696781
0.00258033
0.000614261
0.000815117
0.00255313
0.000790096
0.000997343
0.00147544
0.0021032
0.000687659
0.00121589
0.00193461
0.000503303
0.00275823
0.000802251
0.00127947
0.000684018
0.000707851
0.00113913
0.0029081
0.000797943
0.00192248
0.000998423
0.000943239
0.00127702
0.00262819
0.00302268
0.000482815
0.000735115
0.000913554
0.00152048
0.00193121
0.00183209
0.00111009
0.00287146
0.000531881
0.000802801
0.000633814
0.000604535
0.000621736
0.000987501
0.00107434
0.00128213
0.00251469
0.000518117
0.000470015
0.00054
0.00053279
0.00045776
0.000947645
0.000321233
0.000377447
0.00029628
0.00154647
0.000307815
0.000235064
0.000261707
0.000374325
0.000436033
0.000542148
0.000559348
0.000547001
0.000510151
0.000629446
0.00097573
0.000104051
0.000171395
8.74922e-05
0.00012756
0.000154957
0.000290766
0.000684541
0.00024801
0.000306235
0.000285227
0.000476247
0.000521283
0.00276153
0.000799765
0.00261215
0.000553083
0.000541741
0.00216722
0.000651055
0.000529356
0.00067547
0.0026212
0.000690313
0.000572817
0.0013803
0.0010485
0.0022805
0.00052325
0.000786195
0.00168923
0.00135077
0.000951713
0.0026983
0.000764257
0.000364456
0.00143485
0.000858031
0.00100436
0.00119358
0.00298085
0.000555038
0.00142042
0.000897783
0.000790702
0.00109612
0.00267223
0.00129376
0.00265455
0.000585494
0.000453549
0.000789006
0.000788836
0.0017948
0.00115336
0.00164705
0.00126449
0.00259768
0.000350561
0.000449112
0.000814359
0.000603916
0.000707635
0.00108537
0.00106803
0.00130551
0.00120534
0.00243028
0.000661996
0.000361256
0.000602993
0.000590728
0.000502768
0.000411359
0.000331965
0.000601964
0.000202362
0.000311977
0.0016337
0.000396749
0.000252665
0.000250983
0.000270682
0.0003759
0.000450459
0.000744978
0.000585525
0.000506612
0.00052817
0.000650268
0.0010639
0.000100264
0.000119224
0.000165228
0.000119721
0.000125337
0.000170476
0.000291605
0.000669837
0.000289019
0.000315164
0.000309803
0.000469309
0.000504013
0.00261434
0.00100382
0.00267575
0.000557862
0.000784798
0.0025783
0.000618162
0.000455149
0.00054321
0.00245655
0.000255878
0.000486453
0.000664351
0.00107738
0.00245607
0.000978342
0.000755731
0.000616138
0.000914356
0.0012192
0.00221855
0.000933237
0.00124491
0.00153836
0.00154613
0.00117259
0.0017332
0.00293678
0.000735579
0.000778644
0.00147007
0.000840024
0.00136493
0.00161689
0.00216193
0.00318744
0.000458777
0.00110678
0.00111543
0.000455474
0.000591972
0.00130127
0.00229465
0.000475396
0.00240471
0.000436759
0.000485698
0.000640921
0.00085468
0.00152347
0.000677201
0.000997995
0.00119045
0.000714509
0.00248404
0.000443898
0.000951409
0.000494859
0.000488438
0.000513314
0.000582139
0.0010444
0.00052313
0.000755197
0.00101234
0.00227915
0.00054699
0.000640962
0.000301792
0.000539772
0.000740478
0.000602422
0.000403357
0.000708837
0.000274951
0.000247873
0.000317066
0.00161651
0.000359616
0.000347258
0.000257527
0.000250796
0.000301233
0.000378058
0.000484837
0.00076179
0.00057774
0.000527416
0.000557816
0.000724819
0.0010396
0.000109621
0.000172604
0.000110631
0.000148836
0.000123246
0.000171031
0.000189404
0.000294226
0.000494328
0.000257989
0.000322385
0.000460718
0.000456938
0.00051682
0.00242988
0.000550748
0.00248297
0.000646992
0.000413693
0.00243572
0.000541246
0.000550208
0.000608698
0.00251978
0.000317257
0.000388712
0.000361079
0.00106221
0.00249497
0.000620061
0.000829376
0.000603813
0.000746642
0.000894127
0.0022356
0.000799372
0.00099191
0.00109829
0.00168603
0.00110898
0.000711715
0.00220531
0.000951036
0.000900725
0.00137901
0.002144
0.00147992
0.00172121
0.0012059
0.00297651
0.000656167
0.000739115
0.000731339
0.000985655
0.000682088
0.00112275
0.00106935
0.00197391
0.0028481
0.00077348
0.000451884
0.00043501
0.000616921
0.00108198
0.000961749
0.00185381
0.000975811
0.000337287
0.00236582
0.000321895
0.000532711
0.00052678
0.000776573
0.00064213
0.00055609
0.000946645
0.00117435
0.00115766
0.000879705
0.0025027
0.000703424
0.000448244
0.000939546
0.000604369
0.000721384
0.00042852
0.000415855
0.000921947
0.000186264
0.000731133
0.000885397
0.00229799
0.000534616
0.000485548
0.000534574
0.000429181
0.000572775
0.000603082
0.000515487
0.000433204
0.000748165
0.000189707
0.000165581
0.000299269
0.00169147
0.000289263
0.000320669
0.000299365
0.000226004
0.000256516
0.000335486
0.000412667
0.000505737
0.000583542
0.00059663
0.000642137
0.00063687
0.000792628
0.0010474
0.000162198
8.86911e-05
0.000189424
0.000105511
0.000124091
0.000133485
0.000203472
0.000206691
0.000272084
0.000394759
0.000270333
0.00033607
0.000343008
0.000455293
0.000501989
0.00253974
0.000608876
0.0022751
0.000495431
0.000519499
0.0023649
0.000483874
0.000525486
0.000635303
0.00243616
0.000635255
0.000399203
0.000436933
0.00103388
0.00247155
0.000521377
0.00074323
0.000334327
0.000494396
0.00073205
0.00221838
0.000439685
0.000696946
0.00101177
0.000570878
0.000998771
0.000690479
0.00235437
0.00124357
0.000742556
0.00111366
0.000920483
0.00145923
0.00141974
0.00119009
0.00232329
0.000897182
0.00124333
0.0008054
0.00139246
0.00120249
0.00075653
0.00108181
0.000859058
0.00249453
0.000754111
0.000743867
0.000566081
0.00123652
0.000884414
0.00109791
0.00130455
0.000915984
0.000850653
0.00306511
0.000767806
0.00030256
0.000695202
0.000737176
0.000380149
0.000742141
0.00114609
0.00120668
0.000632484
0.000414283
0.00237343
0.000281444
0.000335572
0.000709419
0.000435509
0.000985748
0.000785795
0.000588213
0.000901795
0.000904337
0.00108286
0.000533508
0.00238656
0.00038623
0.000812422
0.00104799
0.0004736
0.000638531
0.000495426
0.000249752
0.000585546
0.000541133
0.000720675
0.000584479
0.000659281
0.00259801
0.000487647
0.000492402
0.000538998
0.000483605
0.000505941
0.000577753
0.000636569
0.000516175
0.000594904
0.000786191
0.000248869
0.000287304
0.000450688
0.00168422
0.000328719
0.000349404
0.000313663
0.000282968
0.000190607
0.000264875
0.00034931
0.00040824
0.000501642
0.000505808
0.000538154
0.000680425
0.000716686
0.000822262
0.00111865
0.00018447
0.000140745
0.000149895
0.000132105
9.28687e-05
8.71584e-05
0.00017994
0.000180362
0.000213925
0.000233916
0.000352824
0.00029301
0.000339686
0.000247994
0.000457637
0.000490243
0.00237715
0.000466318
0.00241136
0.000475801
0.000272292
0.00236542
0.000489924
0.000490517
0.000429569
0.00250058
0.00038093
0.000673702
0.000397995
0.000693436
0.00246517
0.000198403
0.000251951
0.000510977
0.000587032
0.000450055
0.00236951
0.000469984
0.000367857
0.000396399
0.000306048
0.000663345
0.000651218
0.00232868
0.000722982
0.000730532
0.000648868
0.000639555
0.000526305
0.000421961
0.000868544
0.00235148
0.00102389
0.00105177
0.00146773
0.00139893
0.00160462
0.000755255
0.000856861
0.00114396
0.00231177
0.000593758
0.000969016
0.000959332
0.00149152
0.00101674
0.000416062
0.00118596
0.000990713
0.00150374
0.00286489
0.000572005
0.000436153
0.000753623
0.000809549
0.00143746
0.00115381
0.000841266
0.00195751
0.00190724
0.00110424
0.00305459
0.000429567
0.000493175
0.00045903
0.000400696
0.00087052
0.00049912
0.000615102
0.000691513
0.000752032
0.000711623
0.000789297
0.00227046
0.000553082
9.1284e-05
0.000348505
0.000516389
0.000604461
0.000665423
0.000222802
0.000913955
0.00058595
0.000253624
0.000477501
0.000684047
0.00208864
0.000119074
0.000155864
0.000392863
0.000986594
0.00059164
0.000621937
0.000890151
0.000435841
0.00049683
0.000486201
0.000720213
0.000510459
0.000546179
0.00210947
0.000454963
0.00040975
0.000506089
0.000491895
0.000469372
0.0006472
0.000537155
0.000787211
0.0004894
0.000433561
0.000487512
0.00048381
0.00040446
0.000540599
0.001588
0.000434469
0.000374467
0.000294751
0.000395558
0.000325357
0.000194253
0.000267453
0.00034584
0.000408099
0.000493726
0.000521834
0.00051762
0.000652565
0.000795698
0.00085968
0.00112004
0.000149886
0.000223804
0.00014099
0.000156602
0.000122262
8.75949e-05
8.31573e-05
0.000227252
0.000141053
0.000215203
0.000414934
0.000374877
0.000323618
0.000351382
0.000288524
0.000416018
0.000478213
0.00229282
0.000212313
0.00231051
0.000423707
0.000502333
0.00248188
0.000527841
0.000463537
0.000336099
0.00247809
0.000424459
0.000464964
0.000376182
0.000730241
0.00241385
0.000354016
0.000342747
0.000212388
0.000447447
0.000627648
0.00233121
0.000328368
0.000224552
0.000404209
0.000240899
0.000522289
0.000913327
0.0023832
0.000619912
0.000485206
0.000599915
0.000746087
0.000629103
0.000627833
0.00105151
0.00232297
0.000754512
0.000789092
0.000507083
0.000861244
0.000675024
0.000818754
0.000678646
0.000639296
0.00224574
0.000719684
0.000590501
0.000862792
0.00109311
0.00147162
0.00142512
0.000922639
0.00101555
0.000850663
0.00243333
0.000888077
0.000939913
0.000682284
0.000868185
0.001021
0.000333025
0.000371983
0.00136395
0.000982642
0.00100723
0.00310581
0.000735882
0.00045787
0.00153658
0.000706335
0.000689129
0.00106082
0.00123662
0.00076511
0.000762549
0.000802924
0.000904597
0.00255084
0.000964046
0.000686091
0.000443076
0.000421749
0.000625322
0.000979199
0.000474648
0.000772801
0.00065258
0.000629101
0.000674412
0.0011139
0.00247059
0.000291612
0.000177758
0.000269156
0.000340391
0.000439563
0.000370236
0.000650351
0.000935927
0.000830621
0.000628747
0.000318744
0.000798199
0.00107302
0.00242811
0.000315894
0.000164744
0.000260215
0.000542055
0.000636402
0.000322847
0.000809928
0.000503316
0.000431318
0.000421727
0.000849927
0.000328314
0.000284209
0.000411506
0.00206697
0.000661305
0.000473628
0.000330191
0.000565026
0.000779455
0.000438357
0.000674272
0.000560271
0.000786572
0.000388689
0.000436716
0.00056091
0.000397686
0.000466883
0.000591551
0.00174687
0.000561277
0.000364876
0.000411792
0.000316661
0.000338122
0.000325361
0.000175204
0.000285194
0.000347097
0.000437986
0.000565552
0.000492995
0.000606899
0.000734413
0.00090252
0.000889122
0.00109153
0.000147412
0.000188984
0.000235584
0.00012877
0.000136923
0.000112473
0.000163246
8.19224e-05
0.000206482
0.000129232
0.000268961
0.000527973
0.000375621
0.000345078
0.000379617
0.000299441
0.000403776
0.000437275
0.00211522
0.00049818
0.00213175
0.000445783
0.000250212
0.00230496
0.000556281
0.000369539
0.000622254
0.00233327
0.000337957
0.000642088
0.000426193
0.000513563
0.00237628
0.000349343
0.000256349
0.000307911
0.000353172
0.000480302
0.00238407
0.000395476
0.000243128
0.000433583
0.000309265
0.000359769
0.000853291
0.0023889
0.000511702
0.00037457
0.000404355
0.000530288
0.000199119
0.000446691
0.000968775
0.00237463
0.000616637
0.000526745
0.000501532
0.00094614
0.000703895
0.000528166
0.000756349
0.000571692
0.00231342
0.000629613
0.000625606
0.000486996
0.000812338
0.000735553
0.000767223
0.000563387
0.000581579
0.000523779
0.00222711
0.000367109
0.00022647
0.000645336
0.000716208
0.00067091
0.00130366
0.000643193
0.000811386
0.000645095
0.000803656
0.00214912
0.000871184
0.000835812
0.00050833
0.000874396
0.00157426
0.00130428
0.00042555
0.00101834
0.000871975
0.000487284
0.00102386
0.00268618
0.00139138
0.000978401
0.00121645
0.000428651
0.000582917
0.00106015
0.00132727
0.00148341
0.00132168
0.000833725
0.000928071
0.000563668
0.0024751
0.00062038
0.000878799
0.000558161
0.000600471
0.000276875
0.000736048
0.000807292
0.000531769
0.000411949
0.000770801
0.000562147
0.000437736
0.000910889
0.002409
0.000231011
0.000267072
0.000326193
0.000318885
0.000620999
0.000437481
0.000387783
0.00135132
0.000496383
0.000684259
7.8385e-05
0.000584417
0.000328435
0.000532703
0.0024455
0.000500322
0.000341963
0.000296999
0.000274178
0.00036788
0.000351635
0.000385865
0.000435631
0.000524404
0.000452147
0.000364098
0.00047572
0.000413541
0.000174129
0.000408884
0.0022837
0.000480259
0.000666391
0.000506408
0.000339861
0.000606652
0.000527645
0.000495055
0.000717821
0.000671437
0.00057445
0.000790993
0.000401475
0.000424374
0.000387438
0.000582217
0.000586723
0.00173364
0.000361018
0.000471495
0.000373103
0.000356149
0.00031628
0.000322936
0.000329492
0.000223321
0.000264897
0.000351012
0.000430515
0.000556825
0.000462015
0.000651031
0.000806836
0.00104873
0.000930876
0.00118508
0.000114617
0.000121986
0.000195119
0.000173443
0.000118343
0.000138568
0.000142437
0.000159663
7.51584e-05
0.00015446
0.000141548
0.000295687
0.000437956
0.000362282
0.000375351
0.000424403
0.00029365
0.000362311
0.000397106
0.00217575
0.00034225
0.00204378
0.000480951
0.000460811
0.00216184
0.000665906
0.000385342
0.000266366
0.00240905
0.000473689
0.000474286
0.000457981
0.000626354
0.00230995
0.000251297
0.000353015
0.00058031
0.000379438
0.000490988
0.00234177
0.000297175
0.000305137
0.00022539
0.00080166
0.000455579
0.00061546
0.00243807
0.000478643
0.000370911
0.000470429
0.000381059
0.000622047
0.000433617
0.000760229
0.00234446
0.000464558
0.000427603
0.000490663
0.000415044
0.000411093
0.000605226
0.000798676
0.000374806
0.00215072
0.00052452
0.000441722
0.000602845
0.000728256
0.000428477
0.000487838
0.000576013
0.000585017
0.000804727
0.00232692
0.000944461
0.00076516
0.000512524
0.000829615
0.00112933
0.000546266
0.000582274
0.000536464
0.000607224
0.000522306
0.002214
0.000794054
0.000543145
0.000520784
0.000606982
0.000885407
0.00108371
0.00100122
0.000669859
0.00073931
0.000833178
0.000815586
0.00232947
0.00103958
0.000488478
0.000673343
0.000906138
0.00110582
0.00160524
0.00141796
0.000948818
0.000894326
0.00151059
0.00165348
0.00118851
0.00280312
0.00114727
0.000931216
0.000441279
0.000299845
0.00056399
0.00137024
0.000972755
0.000989227
0.00114928
0.000999514
0.00141544
0.00165114
0.00121222
0.00243605
0.000492149
0.000586596
0.000269114
0.000480998
0.000553237
0.00119418
0.000926593
0.000417759
0.000603307
0.00041124
0.000643187
0.000391381
0.00077128
0.000896161
0.00238406
0.000355159
0.000213661
0.000322706
0.000306219
0.000230263
0.000439776
0.000462553
0.00051453
0.000685333
0.000528738
0.000502907
0.000173572
0.000343898
0.00091443
0.000474178
0.00224546
0.000477537
0.000435039
0.000424251
0.000373069
0.000130273
0.000446772
0.000493984
0.000731648
0.000388349
0.000457783
0.000345372
0.000477948
0.00033122
0.0003701
0.000279083
0.000550611
0.00216975
0.000512427
0.000451148
0.000719057
0.000539778
0.000408259
0.000645833
0.000662686
0.000541771
0.00058735
0.00071935
0.000834797
0.00110141
0.000337317
0.000590465
0.000569383
0.000550685
0.000668879
0.00202084
0.000404255
0.000341686
0.000472476
0.000402907
0.0003629
0.000264001
0.000337883
0.000328395
0.000102865
0.000345681
0.000361655
0.000515578
0.000509732
0.000504445
0.000614309
0.00069064
0.00117233
0.000959148
0.00123151
7.83805e-05
8.97302e-05
0.00011262
0.00018973
0.00016568
0.000103548
0.000264576
0.000143966
0.000124732
0.000168926
0.000117586
0.000135328
0.000219503
0.000379637
0.000379892
0.00038599
0.000458615
0.000269072
0.00025583
0.00041343
0.00214797
0.000415903
0.00200968
0.000318815
0.000321524
0.00194058
0.000449549
0.000410685
0.000472933
0.00228995
0.000384115
0.000432363
0.00029163
0.000283689
0.00247203
0.00033637
0.000399834
0.000346666
0.000441141
0.000541255
0.00239273
0.000399667
0.000364261
0.000580397
0.000516174
0.000453166
0.000763669
0.00237481
0.000321256
0.000466219
0.000468371
0.000479603
0.000395557
0.000553008
0.000903935
0.00235763
0.000528748
0.000238519
0.000476533
0.000434965
0.000421171
0.000601014
0.00093089
0.000368875
0.00228584
0.000409124
0.000387195
0.000392035
0.000533105
0.000482776
0.000614022
0.000884904
0.000450103
0.000781593
0.00216723
0.000595161
0.000457027
0.000534583
0.000554064
0.000429421
0.000562899
0.000612381
0.000503347
0.000546591
0.000726253
0.00228502
0.000816512
0.0007294
0.000649255
0.00062396
0.000790934
0.000622824
0.000814481
0.000613653
0.000635032
0.000909684
0.0004132
0.00218689
0.000886731
0.000267955
0.000669025
0.00087353
0.000368868
0.000634892
0.000891662
0.000852244
0.00055332
0.000735097
0.000964784
0.000532266
0.0024123
0.000391206
0.000201532
0.000510455
0.000923907
0.00158596
0.000781589
0.00079469
0.000765958
0.00113424
0.000925785
0.000820681
0.00132956
0.000735428
0.0028217
0.00116421
0.000556054
0.000393957
0.000856414
0.00110685
0.00128519
0.000856834
0.0011089
0.000561279
0.000998551
0.000810638
0.000397759
0.000377368
0.00217554
0.00243537
0.000583933
0.000704276
0.000459335
0.000477743
0.000426474
0.00078212
0.000384767
0.000435886
0.000187201
0.000327999
0.000465676
0.000179451
0.000387171
0.00149074
0.00069626
0.00234375
0.000536501
0.000329523
0.000205364
0.000170846
0.000358631
0.000315317
0.000194133
0.000485795
0.00011694
0.000579058
0.000302344
0.000379495
0.000308748
0.000368414
0.000426468
0.000462222
0.00237684
0.000294238
0.000320976
0.000413234
0.000417666
0.000293513
0.000514629
0.000496647
0.000600408
0.000670456
0.000923593
0.000702652
0.000384074
0.000503905
0.000563803
0.00031697
0.000272098
0.000486556
0.00221771
0.000599705
0.000524422
0.000507156
0.000711692
0.00052713
0.000301485
0.000636203
0.00058317
0.00061325
0.00112011
0.000552418
0.00054919
0.0007434
0.000488099
0.000518376
0.000736321
0.000553045
0.00063242
0.0020263
0.000138725
0.000397555
0.000307782
0.000521399
0.00050813
0.00038643
0.000253899
0.000349064
0.000302172
0.000243525
0.000235532
0.000414007
0.000472208
0.000496986
0.000486009
0.000582466
0.000635825
0.0011957
0.000981427
0.00099878
0.00013812
7.86659e-05
9.50576e-05
0.000101674
0.000189171
0.000235279
9.66357e-05
0.000220907
0.000140592
6.68002e-05
9.46589e-05
0.000110395
0.000126619
0.00015675
0.000325507
0.000348619
0.000384894
0.000488388
0.000531519
0.000193558
0.000366646
0.00215236
0.000315339
0.00203008
0.000252158
0.000313371
0.00209005
0.000282178
0.000326666
0.000387076
0.00195943
0.000276823
0.000279266
0.000462313
0.000683938
0.00222697
0.000479903
0.00032921
0.000484406
0.000349246
0.000484228
0.00237442
0.000577104
0.000335451
0.00043928
0.000342901
0.000366125
0.000649009
0.00233326
0.000467363
0.000277835
0.000515772
0.000370923
0.00026536
0.000549181
0.000395268
0.00246289
0.000509863
0.000339375
0.000473324
0.000493003
0.000422227
0.000515385
0.000731884
0.000506431
0.00237483
0.000320617
0.000469902
0.000433191
0.00044506
0.000169698
0.000620679
0.000425656
0.00078652
0.000677309
0.00221401
0.000374894
0.000415204
0.000358899
0.000384402
0.000320591
0.000299049
0.000662141
0.00023331
0.000370927
0.000789554
0.00218113
0.000298467
0.00036218
0.000447536
0.000436415
0.000150535
0.000766208
0.000617761
0.000615691
0.000307786
0.000702313
0.000497234
0.00219243
0.000897659
0.000586878
0.000470892
0.00058611
0.0005958
0.00043294
0.000707477
0.000674817
0.00069034
0.000647003
0.000340238
0.000436216
0.00220286
0.00068571
0.000637655
0.000286157
0.000373043
0.000372167
0.000784049
0.000882571
0.000838886
0.000879633
0.000865221
0.000743223
0.000473818
0.000693349
0.00225701
0.000764874
0.000731403
0.00105595
0.000763193
0.000713162
0.000113378
0.000957719
0.000601288
0.000835346
0.00128004
0.0010338
0.000404503
0.00056018
0.00103889
0.00258908
0.000640464
0.000984938
0.000744514
0.00107694
0.00112978
0.00128561
0.000784483
0.00108527
0.000925367
0.000928494
0.000751247
0.000440773
0.00078415
0.00130731
0.000965059
0.00239476
0.000577408
0.00045457
0.000331944
0.000463627
0.00073821
0.000400239
0.00043754
0.000766532
0.00075428
0.000411331
0.000564668
0.000159818
0.000569474
0.000609486
0.000260409
0.000416094
0.00218092
0.00033235
0.000288614
0.000348759
0.000318552
0.000294848
0.000299105
0.000584787
0.000393028
0.000355305
0.000235988
0.000419197
0.000363271
0.000268474
0.000468832
0.000404846
0.000241761
0.000583922
0.00216087
0.000660813
0.000567288
0.000297427
0.000380185
0.000399344
0.000296496
0.000573253
0.000713026
0.000577498
0.000422322
0.000699618
0.000929327
0.000632083
0.000270712
0.000378018
0.000323559
0.000121423
0.000341195
0.00226388
0.000595142
0.000598024
0.00060197
0.000582914
0.000757985
0.000559368
0.000286135
0.000604627
0.00040827
0.00091527
0.000603372
0.00111653
0.000838767
0.00057911
0.000279331
0.000453462
0.000543775
0.000833148
0.000593789
0.00118909
0.000214228
0.000158293
0.000370588
0.000319933
0.000538274
0.00065102
0.000380524
0.000393472
0.000342806
0.000293946
0.000256916
0.0003231
0.000421835
0.000494291
0.000577679
0.000524696
0.00056102
0.000708207
0.00117785
0.00102467
0.000923106
0.000122226
0.000125107
8.37719e-05
0.00012344
9.93459e-05
0.000178694
0.000187348
9.88362e-05
0.000165175
0.000132221
5.80001e-05
9.09442e-05
0.000106144
0.000136844
0.000128246
0.000326699
0.000345972
0.000394587
0.000508234
0.000798401
0.000217008
0.000311857
0.00218318
0.000338711
0.00199323
0.000387894
0.000269464
0.00200771
0.000315603
0.000228863
0.000341095
0.0020478
0.000318188
0.000266704
0.000297818
0.000315077
0.00201722
0.000389097
0.000414068
0.000432223
0.000447571
0.000497016
0.0022914
0.000461629
0.00049468
0.000676247
0.00053585
0.000434763
0.000423258
0.00245126
0.000508966
0.000616996
0.00054873
0.000618802
0.000305045
0.000395795
0.000907438
0.00230473
0.000518493
0.000475714
0.000422379
0.00047199
0.000515502
0.000496668
0.000485045
0.000602995
0.00239746
0.00048485
0.000484379
0.000417426
0.000497083
0.000402721
0.000449694
0.000554435
0.000416541
0.000650198
0.00241881
0.000307569
0.000478997
0.000525745
0.000550741
0.000380903
0.000375919
0.000442783
0.000597207
0.000509963
0.000730453
0.002157
0.000502197
0.000314097
0.000488796
0.00044157
0.000500958
0.000544057
0.000441565
0.000223479
0.000625071
0.000748809
0.00060647
0.00213434
0.000734636
0.000543333
0.000649011
0.0004777
0.000407238
0.000614197
0.000677716
0.000354559
0.000302859
0.00103651
0.000687961
0.000417319
0.00220128
0.000708622
0.000892677
0.000682691
0.000608723
0.000596058
0.000602479
0.00083835
0.000512797
0.000507463
0.000515278
0.000618292
0.00057193
0.000454946
0.00227962
0.000717483
0.00119686
0.000469199
0.000528647
0.000463905
0.000696582
0.00104774
0.000885519
0.000649775
0.000846692
0.000813737
0.000637515
0.000610707
0.000866674
0.0024248
0.000825459
0.00088276
0.000905541
0.000662699
0.000619467
0.000553766
0.00104361
0.000958248
0.000877356
0.000499989
0.00125733
0.000364517
0.000931414
0.0010829
0.00105244
0.00261905
0.000673201
0.000755592
0.000570453
0.000715408
0.000692205
0.00042766
0.000876402
0.00137646
0.00107599
0.00123322
0.00114537
0.000293512
0.00102994
0.00105662
0.000581532
0.00103736
0.00226043
0.000943658
0.000294356
0.000937638
0.000519483
0.000477441
0.000256357
0.000189335
0.000343922
0.00099528
0.000198017
0.00105188
0.000627833
0.000682283
0.000585673
0.000810859
0.000471227
0.000943146
0.00243114
0.000427972
0.000202585
0.000419924
0.000358298
0.000508771
0.00027806
0.000310268
0.000360443
0.000348303
0.000409814
0.000321856
0.000501538
0.000495376
0.000793408
0.000318561
0.00021839
0.000388957
0.00034924
0.00230907
0.000395043
0.000548622
0.000604998
0.000397431
0.000446409
0.000286946
0.000212106
0.000572805
0.000698629
0.000316011
0.000766749
0.000478662
0.000858547
0.000644495
0.000345112
0.000169803
0.000405009
0.000553233
0.000326139
0.0018745
0.000500721
0.000535802
0.000612352
0.000530453
0.000580194
0.000750945
0.000612984
0.000380369
0.00100928
0.000506731
0.000738777
0.00105286
0.000660592
0.000985955
0.000740875
0.00036674
0.000399374
0.000703473
0.000930583
0.000533237
0.00115027
0.000241598
0.000182832
0.000223404
0.000397661
0.00036801
0.0005419
0.000573189
0.000363472
0.000293002
0.000270776
0.000257541
0.000161735
0.000321595
0.000416556
0.000490549
0.000638199
0.000565757
0.000605296
0.000741377
0.00125642
0.00106757
0.000629997
0.000162269
9.47048e-05
0.00013161
7.73297e-05
0.000104789
0.000140376
0.000170676
0.000165058
7.05016e-05
0.000163264
0.000153927
0.00011853
0.000105087
0.000108693
0.000142662
0.000122552
0.000289288
0.00034919
0.000402857
0.00055565
0.000932244
0.000295399
0.000334417
0.00207204
0.000303477
0.00203823
0.000273532
0.000363108
0.00202903
0.00031066
0.000356066
0.000344607
0.00198315
0.00014714
0.000113561
0.000332303
0.000311407
0.00201302
0.000365256
0.000334688
0.000333822
0.00036035
0.000301816
0.00205433
0.000226336
0.000512422
0.000398546
0.000322866
0.000415519
0.000626857
0.00231767
0.00039582
0.000242716
0.000682663
0.000789567
0.00043968
0.000341981
0.000232402
0.00251917
0.000520851
0.000551563
0.000518179
0.000415112
0.000768324
0.000423233
0.000488465
0.000669708
0.00231282
0.000257448
0.000368295
0.000635562
0.000371733
0.000463504
0.000513624
0.000258375
0.000483226
0.000553715
0.00233475
0.000423586
0.000398448
0.000558774
0.000474783
0.000496301
0.000720731
0.0003803
0.000197196
0.000575324
0.00056825
0.0023607
0.000337128
0.000298439
0.000412114
0.000543611
0.000402338
0.000551547
0.000687595
0.000543435
0.000822683
0.000456782
0.000518969
0.00218955
0.000649142
0.000587043
0.000306438
0.000388963
0.000361432
0.000597795
0.000585009
0.000408484
0.000423198
0.000881072
0.00055418
0.000563358
0.00214353
0.000500685
0.000414349
0.00067458
0.000602105
0.000524318
0.000525765
0.000726584
0.000159741
0.000274444
0.000754553
0.000874272
0.000565684
0.000370991
0.00210066
0.000363402
0.000312965
0.000382559
0.000486901
0.000585981
0.000582498
0.000584355
0.000639572
0.000433024
0.000536402
0.000547205
0.000396986
0.000661745
0.000423327
0.00205592
0.000483319
0.000573744
0.000202724
0.000473365
0.00048093
0.000645013
0.000831942
0.000623792
0.000606077
0.000603574
0.000803477
0.000108397
0.000705023
0.000753103
0.000614415
0.0025054
0.000642228
0.00085231
0.000270998
0.000293184
0.000349111
0.000474525
0.00132873
0.000935031
0.000458975
0.000797289
0.00107295
0.000752971
0.000688263
0.000607991
0.000844163
0.000457503
0.00250837
0.00042577
0.000725343
0.000989721
0.000544523
0.000381188
0.000487334
0.00077917
0.00114971
0.000502386
0.000791883
0.000569297
0.000966375
0.000520276
0.000710847
0.000449698
0.000500567
0.00118181
0.00233733
0.000489135
0.000697796
0.000396767
0.000796706
0.00049309
0.000323772
0.000363974
0.000853263
0.000745354
0.000604455
0.000504608
0.000435734
0.000153001
0.000620809
0.000204723
0.000588673
0.000612509
0.000346479
0.00235414
0.000937026
0.000447804
0.000260587
0.000442669
0.000271062
0.000277705
0.00017512
0.000297583
0.00023115
0.000547714
0.000423097
0.000267309
0.000355336
0.000415228
0.00029511
0.000445101
0.000434732
0.000116516
0.000443499
0.00257254