/*--------------------------------*- C++ -*----------------------------------*\
  =========                 |
  \\      /  F ield         | OpenFOAM: The Open Source CFD Toolbox
   \\    /   O peration     | Website:  https://openfoam.org
    \\  /    A nd           | Version:  7
     \\/     M anipulation  |
\*---------------------------------------------------------------------------*/
FoamFile
{
    version     2.0;
    format      ascii;
    class       volScalarField;
    location    "6.5";
    object      p;
}
// * * * * * * * * * * * * * * * * * * * * * * * * * * * * * * * * * * * * * //

dimensions      [0 2 -2 0 0 0 0];

internalField   nonuniform List<scalar> 
18750
(
-75.6312
-82.2512
-75.0382
-75.524
-86.024
-80.6785
-82.129
-74.2098
-74.9604
-75.3895
-77.3321
-85.3321
-85.9059
-79.129
-80.7456
-81.88
-73.8747
-74.1503
-74.8219
-75.2938
-69.7646
-79.8288
-77.1467
-82.9907
-84.8161
-85.6559
-77.5414
-78.7439
-80.5956
-81.6062
-73.3389
-73.7856
-74.0784
-74.6768
-75.1324
-68.0973
-71.8312
-69.0021
-79.7827
-79.758
-77.034
-81.3693
-83.0547
-84.2107
-85.2374
-75.7058
-77.3047
-78.621
-80.1579
-81.1086
-73.1435
-73.284
-73.7072
-73.9681
-74.48
-74.9266
-64.3547
-70.1492
-67.7829
-73.9375
-72.2914
-68.0895
-79.9178
-80.1015
-80.0028
-76.7632
-79.1466
-81.261
-82.6638
-83.8118
-84.5979
-74.6575
-75.57
-77.0155
-78.5206
-79.55
-80.4519
-73.1346
-73.1214
-73.223
-73.6144
-73.8183
-74.2606
-74.7924
-61.5179
-63.9183
-64.0874
-70.8202
-71.4959
-66.9738
-75.5205
-74.2935
-71.7306
-67.3601
-78.833
-79.9265
-80.0698
-79.4012
-76.3046
-78.2576
-78.9516
-81.0186
-82.099
-83.5471
-83.6828
-73.7767
-74.5804
-75.3952
-76.7686
-78.1611
-78.9121
-79.798
-73.5797
-73.1251
-73.0945
-73.1566
-73.5225
-73.6593
-74.0307
-74.5497
-60.0411
-61.5238
-61.0753
-65.5888
-63.9724
-64.2085
-71.1893
-71.1878
-71.1287
-66.4961
-74.9638
-75.5254
-74.3111
-71.0148
-67.0047
-78.0544
-78.6912
-79.9673
-79.6955
-78.9056
-75.9071
-76.9592
-78.248
-78.6826
-80.6876
-81.839
-83.2248
-82.5285
-73.9602
-73.7177
-74.4899
-75.1599
-76.5151
-77.6637
-78.2747
-79.0387
-74.0533
-73.5724
-73.1135
-73.0654
-73.0946
-73.4325
-73.4848
-73.8106
-74.2719
-59.4213
-60.5036
-60.0758
-63.1083
-60.9718
-61.0396
-65.8758
-65.6499
-63.8978
-64.8516
-71.4066
-71.3593
-70.6481
-72.5326
-66.9767
-74.2145
-74.8081
-75.6135
-73.6168
-71.35
-67.2531
-77.331
-77.869
-78.5839
-79.6424
-79.0985
-78.4962
-75.1459
-75.7483
-76.9782
-78.0064
-78.4531
-80.4313
-81.2228
-82.7458
-81.2009
-74.4614
-73.9124
-73.6337
-74.3762
-75.0174
-76.1729
-77.1064
-77.6765
-78.2334
-74.6577
-74.0612
-73.5654
-73.1029
-73.041
-73.0386
-73.3057
-73.3108
-73.5674
-74.0321
-58.5299
-59.5511
-59.2661
-60.0563
-60.4301
-60.1757
-62.8387
-62.1678
-61.2742
-60.9939
-66.5538
-66.3285
-65.7622
-64.5423
-64.9204
-71.5037
-71.2573
-71.5716
-70.2258
-72.5503
-67.0623
-75.4438
-73.9444
-74.5455
-74.953
-73.0427
-70.8343
-67.0156
-76.7374
-77.3113
-77.621
-78.4054
-78.9139
-78.2744
-77.1023
-74.0942
-74.9172
-75.7855
-76.8945
-77.7298
-78.1296
-80.2289
-80.4305
-81.8042
-79.7674
-75.1837
-74.4704
-73.8592
-73.5288
-74.2607
-74.942
-75.8415
-76.5923
-77.0681
-77.4026
-75.0953
-74.6739
-74.0691
-73.5582
-73.0951
-73.0187
-72.9715
-73.1857
-73.1462
-73.3026
-73.7303
-57.6898
-58.5331
-58.3921
-59.5036
-59.3793
-59.0931
-61.0371
-59.9873
-60.4246
-60.0155
-63.6422
-62.4611
-62.0103
-61.9553
-60.9431
-66.4744
-66.5434
-66.152
-65.617
-65.0069
-64.6786
-71.478
-71.2978
-70.9552
-71.1709
-69.7855
-70.6359
-66.3265
-75.1996
-75.088
-73.6345
-74.2465
-74.2838
-72.374
-69.871
-67.0501
-76.195
-76.7849
-77.1059
-77.219
-77.5877
-78.0762
-77.4186
-75.7093
-73.3203
-74.9693
-74.8997
-75.6659
-76.7825
-77.4068
-77.6245
-79.8137
-79.6645
-80.2925
-78.2974
-75.8596
-75.2173
-74.472
-73.7988
-73.4041
-74.1256
-74.7947
-75.4817
-76.0462
-76.46
-76.5562
-75.3279
-75.1164
-74.6903
-74.0764
-73.554
-73.088
-72.9853
-72.8832
-73.0798
-72.9708
-73.0229
-73.4388
-57.0315
-57.6867
-57.604
-58.6547
-58.4105
-58.4201
-59.7238
-59.4057
-59.3715
-58.9699
-61.1311
-60.742
-59.7964
-60.3795
-59.7374
-63.6633
-63.3353
-61.9808
-62.1704
-61.569
-61.14
-66.4737
-66.7369
-66.4211
-65.8177
-65.262
-64.9038
-64.5648
-71.0568
-71.0995
-71.2406
-70.5435
-70.4224
-69.4789
-69.853
-66.0426
-74.9139
-75.0287
-74.3647
-73.4022
-73.807
-73.3872
-71.6933
-69.6043
-67.2393
-75.8791
-76.2381
-76.6083
-76.8187
-76.69
-76.7958
-77.055
-76.1296
-74.6701
-72.7102
-75.5753
-74.986
-74.822
-75.5417
-76.6552
-77.0648
-77.1415
-79.0395
-78.5842
-78.7101
-76.9091
-76.3612
-75.9376
-75.2498
-74.4695
-73.7237
-73.2561
-73.9486
-74.5659
-75.1329
-75.4811
-75.8325
-75.6975
-75.3099
-75.3321
-75.1384
-74.7048
-74.0828
-73.5484
-73.0812
-72.9403
-72.7995
-72.9702
-72.7565
-72.7537
-73.1622
-56.617
-56.9837
-56.8471
-57.8652
-57.5497
-57.4568
-58.7297
-58.55
-58.4752
-58.2444
-59.904
-59.4724
-59.2421
-59.2299
-58.9226
-61.1984
-60.8564
-60.5496
-59.8209
-60.1243
-59.6629
-63.4982
-63.0353
-63.0293
-61.5693
-61.6789
-61.0596
-61.1654
-66.3006
-66.2009
-66.8093
-66.0805
-65.5463
-64.2737
-64.2645
-64.2959
-70.3502
-70.5931
-70.6753
-70.7044
-70.1052
-69.8241
-68.7695
-68.6812
-66.0137
-74.6331
-74.9182
-74.3535
-73.7998
-72.9461
-73.2879
-72.6279
-71.0214
-69.3969
-67.3943
-75.776
-75.753
-76.1625
-76.3397
-76.4547
-76.1667
-76.0187
-76.0906
-75.1394
-73.7414
-72.1519
-76.4833
-75.5715
-74.9845
-74.7742
-75.2431
-76.4161
-76.6823
-76.6514
-78.0744
-77.3686
-77.1879
-75.8081
-76.6426
-76.4311
-76.0075
-75.2696
-74.4623
-73.6493
-73.0795
-73.7625
-74.3129
-74.7415
-74.8996
-75.1561
-74.8737
-74.9283
-75.3149
-75.3338
-75.1599
-74.7193
-74.0891
-73.5408
-73.0745
-72.8898
-72.7273
-72.8625
-72.54
-72.4929
-72.8888
-56.1923
-56.6929
-56.4032
-57.0748
-57.0871
-56.8314
-57.861
-57.8057
-57.5917
-57.5244
-58.7779
-58.6444
-58.4551
-58.2503
-58.1816
-59.7684
-59.4966
-59.2963
-59.0895
-58.9823
-59.0021
-61.334
-60.8649
-60.4119
-60.311
-59.5403
-60.0226
-59.6011
-63.209
-63.0076
-62.3968
-62.376
-61.1891
-61.0354
-60.5321
-61.0951
-66.5501
-65.7312
-66.4376
-66.5985
-65.7172
-65.0896
-64.2343
-63.8145
-64.3585
-70.3629
-70.2951
-70.1332
-70.3381
-70.2213
-69.4039
-69.1606
-67.9551
-67.8149
-65.6234
-74.7982
-74.4037
-74.583
-73.7874
-73.2182
-72.9523
-72.3939
-71.6502
-70.0685
-68.9789
-67.2255
-76.0328
-75.6407
-75.6272
-75.9826
-76.0229
-75.9966
-75.4744
-75.1595
-75.2709
-74.2163
-72.9087
-71.7241
-77.0635
-76.4796
-75.6116
-74.9484
-74.6797
-75.0997
-76.1192
-76.2409
-76.0703
-77.0927
-76.1906
-75.806
-74.6251
-76.6442
-76.6542
-76.4751
-76.0772
-75.3012
-74.4528
-73.5641
-72.8934
-73.5888
-74.047
-74.3174
-74.2746
-74.4835
-74.1247
-74.6921
-74.9114
-75.3151
-75.3362
-75.1799
-74.7333
-74.0927
-73.5322
-73.0672
-72.847
-72.6504
-72.7556
-72.3728
-72.2224
-72.632
-55.9346
-56.2479
-56.1262
-56.6555
-56.661
-56.5905
-57.1785
-57.1036
-57.1339
-56.9596
-57.9482
-57.8429
-57.7227
-57.4448
-57.4957
-58.8021
-58.6615
-58.5973
-58.3606
-58.2449
-58.2304
-59.7834
-59.537
-59.2304
-59.0996
-59.0106
-59.0017
-58.8423
-61.2454
-61.1752
-60.6189
-60.1102
-60.0052
-59.7133
-59.7597
-59.5288
-63.2143
-62.8612
-62.7127
-62.698
-61.91
-61.0666
-60.9478
-61.2004
-61.1635
-66.3404
-66.0404
-66.1153
-66.4966
-66.4221
-65.5598
-64.8674
-64.8149
-64.1655
-63.9842
-70.1359
-70.1091
-70.1275
-70.1393
-70.0859
-69.5741
-68.8242
-68.7139
-67.6125
-67.0475
-65.2726
-74.6097
-74.6403
-74.1155
-74.1372
-73.229
-72.7311
-72.6296
-71.8146
-71.0601
-69.4337
-68.5506
-67.2287
-76.5737
-75.919
-75.5314
-75.5807
-75.7597
-75.6585
-75.5338
-74.8328
-74.6012
-74.4632
-73.3263
-72.2453
-70.8237
-78.3874
-76.9888
-76.4436
-75.6143
-74.8987
-74.597
-74.8845
-75.7731
-75.8306
-75.5674
-76.0933
-75.0084
-74.7287
-73.4457
-76.154
-76.6584
-76.6468
-76.5074
-76.1496
-75.3354
-74.4396
-73.4832
-72.7091
-73.3862
-73.7809
-73.8781
-73.6394
-73.87
-73.4284
-74.1042
-74.6846
-74.8921
-75.3136
-75.3372
-75.1984
-74.7485
-74.0939
-73.5237
-73.0585
-72.8117
-72.5662
-72.6511
-72.2352
-71.951
-72.3919
-55.808
-55.9357
-55.9933
-56.3152
-56.2068
-56.1846
-56.6873
-56.6047
-56.6934
-56.6001
-57.2967
-57.189
-57.1124
-57.0289
-56.8835
-58.0576
-57.9255
-57.7884
-57.698
-57.6518
-57.416
-58.836
-58.6977
-58.6605
-58.4035
-58.2857
-58.3711
-58.1623
-59.7683
-59.5748
-59.3828
-59.1617
-59.0495
-59.0126
-58.8777
-58.794
-61.4928
-61.2104
-60.8967
-60.3973
-60.4039
-60.0799
-59.7549
-59.6315
-59.7111
-63.3906
-62.9494
-62.6174
-62.3278
-62.3773
-62.0585
-60.8852
-60.8971
-61.0776
-60.9111
-66.2788
-66.2039
-65.8266
-65.9579
-66.3095
-66.1901
-65.1551
-64.2624
-64.1427
-63.6771
-63.6728
-70.2639
-70.2082
-70.0475
-69.8467
-69.8067
-69.7944
-69.0342
-68.4122
-67.7611
-67.078
-66.5239
-65.3352
-75.0016
-74.4075
-74.3175
-74.0305
-73.6344
-72.7036
-72.4806
-71.6959
-71.2468
-70.5334
-69.0541
-68.8042
-67.6413
-76.7408
-76.4429
-75.8043
-75.2734
-75.4381
-75.4963
-75.2438
-74.9283
-74.2317
-73.9345
-73.5496
-72.5645
-71.6718
-70.1562
-77.6331
-78.2556
-76.8959
-76.4098
-75.5474
-74.834
-74.5225
-74.612
-75.3749
-75.4221
-74.9985
-75.04
-73.9303
-73.7961
-72.5833
-75.4329
-76.0777
-76.6551
-76.6296
-76.535
-76.2093
-75.3721
-74.4231
-73.3988
-72.5168
-73.1576
-73.4966
-73.4207
-73.0351
-73.2725
-72.7871
-73.8962
-74.0615
-74.6728
-74.8814
-75.3142
-75.334
-75.2136
-74.7659
-74.0957
-73.5144
-73.0433
-72.7793
-72.4811
-72.5475
-72.1135
-71.704
-72.1803
-55.4895
-55.7616
-55.8408
-55.9252
-55.9585
-56.0156
-56.2938
-56.255
-56.2357
-56.1439
-56.7618
-56.6883
-56.6657
-56.609
-56.5864
-57.358
-57.2548
-57.1961
-57.1596
-57.0287
-56.8929
-58.1106
-57.9786
-57.8277
-57.7087
-57.688
-57.5043
-57.4668
-58.9034
-58.7458
-58.5973
-58.4543
-58.3196
-58.1641
-58.133
-58.1278
-60.0044
-59.7129
-59.3892
-59.2373
-59.0222
-59.0351
-58.9681
-58.8161
-58.8565
-61.6652
-61.3226
-61.0883
-60.5861
-60.3294
-60.2788
-59.8907
-59.7261
-59.5637
-59.6984
-63.5962
-63.3015
-62.854
-62.3903
-62.3533
-62.151
-61.67
-60.6716
-60.8953
-61.0227
-60.6708
-66.5944
-66.0535
-65.8162
-65.6607
-65.7895
-66.0071
-65.7395
-64.7312
-63.8134
-63.8736
-63.4023
-63.5557
-70.5341
-70.0207
-69.9208
-69.5991
-69.5643
-69.5059
-69.486
-68.421
-67.8743
-67.0845
-66.6025
-65.9362
-65.2049
-74.5375
-74.6944
-74.1742
-73.9278
-74.0018
-73.2034
-72.0633
-71.8296
-71.4581
-70.4369
-70.0421
-68.7739
-68.4569
-67.5323
-76.4501
-76.5194
-76.2737
-75.6032
-75.0179
-75.2505
-75.1719
-74.5656
-74.3766
-73.5922
-73.0031
-72.9391
-71.9698
-71.111
-70.2243
-76.221
-77.3493
-78.0939
-76.7676
-76.3212
-75.5209
-74.7723
-74.4176
-74.4105
-74.9127
-74.9547
-74.3599
-74.1545
-73.131
-72.905
-71.7578
-74.8678
-75.3799
-75.9994
-76.6244
-76.6254
-76.5457
-76.2703
-75.4135
-74.4033
-73.3083
-72.3118
-72.9304
-73.2409
-72.9749
-72.443
-72.7084
-72.2115
-73.9494
-73.873
-74.0175
-74.6568
-74.8602
-75.3136
-75.3288
-75.2273
-74.7834
-74.096
-73.5045
-73.0142
-72.7463
-72.3998
-72.4542
-71.9977
-71.4839
-72.0101
-55.3058
-55.4341
-55.4391
-55.7124
-55.8155
-55.8198
-55.9236
-55.9169
-55.9745
-56.0681
-56.3764
-56.2572
-56.2653
-56.2065
-56.2233
-56.8276
-56.731
-56.6885
-56.6972
-56.7487
-56.6789
-57.4255
-57.3378
-57.2185
-57.192
-57.0212
-57.0017
-56.8915
-58.1539
-58.0047
-57.8764
-57.6761
-57.7732
-57.585
-57.3172
-57.3803
-58.9238
-58.7331
-58.6529
-58.4687
-58.3207
-58.2644
-58.1167
-58.2513
-58.0957
-60.3626
-59.9913
-59.7306
-59.5801
-59.2605
-59.0268
-58.8836
-58.8985
-58.8621
-58.7987
-61.8798
-61.5893
-61.2485
-60.9833
-60.5588
-60.163
-60.1706
-59.6423
-59.6245
-59.7432
-59.7343
-63.9444
-63.4733
-63.0552
-62.7963
-62.2965
-62.3227
-62.0748
-61.5508
-61.2407
-61.2806
-61.1543
-60.8353
-66.3984
-66.2304
-65.692
-65.5436
-65.5235
-65.6956
-65.5137
-65.1201
-64.3673
-64.2239
-64.0017
-63.5102
-63.2158
-70.5136
-69.9781
-69.867
-69.5193
-69.6356
-69.2981
-69.0391
-69.0554
-67.9849
-67.3262
-66.8222
-66.5088
-65.8198
-64.935
-73.8408
-74.3006
-74.3147
-73.9754
-73.6263
-73.7553
-72.7757
-71.5997
-71.3844
-70.7822
-69.9593
-69.5428
-68.6517
-68.0474
-67.4014
-75.4654
-76.143
-76.2268
-75.9953
-75.3191
-74.8267
-74.9598
-74.895
-74.2959
-73.8525
-73.0546
-72.4677
-72.2471
-71.3274
-70.5545
-69.731
-75.1459
-75.9226
-77.076
-77.8933
-76.6159
-76.2942
-75.46
-74.725
-74.2939
-74.3168
-74.4443
-74.5476
-73.7902
-73.491
-72.4275
-72.1023
-71.0093
-74.3293
-74.7424
-75.3312
-75.9219
-76.5683
-76.5919
-76.5291
-76.3089
-75.4622
-74.3823
-73.2157
-72.1693
-72.6972
-72.9636
-72.5444
-71.8623
-72.1823
-71.7189
-74.0153
-73.93
-73.8522
-73.9795
-74.638
-74.8309
-75.3109
-75.326
-75.2402
-74.8004
-74.0947
-73.4946
-72.9764
-72.7142
-72.3356
-72.3672
-71.9189
-71.3105
-71.8614
-55.1511
-55.3029
-55.2952
-55.4715
-55.478
-55.369
-55.6901
-55.7418
-55.7989
-55.8062
-56.0048
-55.8818
-55.9497
-56
-56.0907
-56.4587
-56.3396
-56.2564
-56.2505
-56.2276
-56.2621
-56.8792
-56.7721
-56.7345
-56.7171
-56.6438
-56.6429
-56.6509
-57.5127
-57.3791
-57.2643
-57.1545
-57.0758
-57.0062
-56.9096
-56.8759
-58.2277
-58.0769
-57.9477
-57.8252
-57.8242
-57.5862
-57.5286
-57.5559
-57.3899
-59.0345
-58.9033
-58.7424
-58.5577
-58.3535
-58.2757
-58.2614
-58.0128
-58.2528
-58.113
-60.6258
-60.1787
-60.0046
-59.5875
-59.4206
-59.2685
-59.0365
-58.9097
-58.8967
-58.8663
-58.7689
-62.1101
-61.7456
-61.362
-61.1275
-60.5769
-60.3411
-60.0624
-59.9711
-59.6637
-59.4505
-59.6974
-59.7276
-64.1855
-63.8797
-63.1996
-63.1536
-62.6214
-62.0617
-61.9633
-61.9221
-61.4532
-61.152
-61.0115
-61.0329
-60.8045
-67.0277
-66.1792
-66.1959
-65.736
-65.3992
-65.2572
-65.4254
-64.9288
-64.5824
-64.1582
-63.7263
-63.4146
-63.4102
-62.9103
-70.5987
-70.2023
-69.8963
-69.5893
-69.1797
-68.9067
-68.6702
-68.9323
-68.6297
-67.5782
-66.9877
-66.495
-65.7447
-65.3739
-64.8107
-73.4445
-73.579
-73.9029
-74.0622
-73.5959
-73.3066
-73.0332
-72.314
-71.3718
-70.9773
-70.026
-69.5834
-69.0034
-68.1207
-67.8589
-67.4199
-74.744
-75.1538
-75.8434
-75.9009
-75.7003
-74.9226
-74.6218
-74.6006
-74.6161
-73.9628
-73.256
-72.6646
-72.0317
-71.3959
-70.8105
-70.0668
-69.2841
-74.7728
-74.9295
-75.621
-76.8037
-77.6611
-76.4514
-76.173
-75.4227
-74.7181
-74.1599
-73.9942
-74.0344
-74.1702
-73.2239
-72.866
-71.6913
-71.4226
-70.5233
-74.0904
-74.2595
-74.6144
-75.2933
-75.8405
-76.4947
-76.5244
-76.5123
-76.3661
-75.492
-74.3615
-73.1259
-72.0196
-72.4221
-72.6406
-72.1598
-71.2951
-71.6934
-71.2826
-73.7145
-74.0038
-73.909
-73.8323
-73.934
-74.6161
-74.8044
-75.3072
-75.3227
-75.251
-74.8161
-74.0928
-73.4844
-72.9411
-72.6835
-72.2595
-72.2759
-71.8962
-71.1716
-71.719
-55.0183
-55.1675
-55.1809
-55.3117
-55.3439
-55.2942
-55.4736
-55.5021
-55.4519
-55.2984
-55.7196
-55.7004
-55.759
-55.8049
-55.6974
-56.0854
-55.9806
-55.9662
-55.9429
-55.9918
-55.9412
-56.4771
-56.4163
-56.323
-56.2802
-56.2773
-56.1193
-56.2545
-56.9541
-56.8388
-56.7371
-56.6592
-56.7351
-56.6306
-56.5177
-56.7593
-57.5888
-57.4949
-57.324
-57.1904
-57.1234
-57.0336
-56.9803
-57.0059
-56.8895
-58.4011
-58.1969
-58.0158
-57.8451
-57.798
-57.6734
-57.5793
-57.5166
-57.5362
-57.4263
-59.1412
-59.0359
-58.9234
-58.6761
-58.5152
-58.3823
-58.1246
-58.1981
-58.0741
-58.1202
-58.0899
-60.7196
-60.3687
-60.0463
-59.8834
-59.5097
-59.3391
-59.1974
-58.9978
-58.9115
-58.8317
-58.823
-58.7543
-62.4987
-61.9774
-61.5528
-61.1936
-60.989
-60.4569
-60.237
-59.8064
-59.8526
-59.6343
-59.3944
-59.7186
-59.683
-64.8611
-64.45
-63.7551
-63.0969
-62.7842
-62.4304
-61.9409
-61.9194
-61.8711
-61.5724
-61.0216
-60.7367
-60.8381
-60.6744
-67.1906
-66.7133
-66.2957
-65.9563
-65.4589
-64.941
-65.0497
-65.2247
-64.7692
-64.2191
-64.1495
-63.7201
-63.02
-62.8267
-62.9126
-70.4394
-70.2087
-70.0472
-69.6626
-69.1267
-68.8021
-68.3648
-68.4879
-68.3064
-68.1742
-67.0204
-66.7857
-66.1973
-65.4164
-65.0499
-64.7287
-72.8526
-73.2435
-73.3702
-73.4037
-73.5132
-73.2221
-73.1043
-72.7166
-72.0121
-71.0879
-70.4851
-69.5773
-69.0947
-68.7007
-67.8313
-67.709
-67.3274
-74.3139
-74.5304
-74.8821
-75.5072
-75.5554
-75.2373
-74.6985
-74.3469
-74.337
-74.2338
-73.4591
-72.7128
-72.1736
-71.4986
-70.8662
-70.1606
-69.7056
-69.069
-74.0672
-74.5683
-74.7255
-75.2947
-76.5206
-77.408
-76.3032
-75.8745
-75.3908
-74.7167
-74.0641
-73.731
-73.6815
-73.7413
-72.7238
-72.2241
-70.9901
-70.8501
-70.076
-74.1089
-74.027
-74.1937
-74.4755
-75.2429
-75.753
-76.4034
-76.4677
-76.4918
-76.3897
-75.563
-74.3416
-73.048
-71.8781
-72.1458
-72.3798
-71.8376
-70.757
-71.2374
-70.9598
-73.612
-73.7116
-73.9922
-73.8812
-73.8132
-73.8918
-74.5893
-74.7938
-75.3035
-75.323
-75.254
-74.8283
-74.0902
-73.4723
-72.9102
-72.6542
-72.1885
-72.1853
-71.918
-71.0628
-71.6185
-54.887
-55.0185
-55.0007
-55.183
-55.188
-55.0992
-55.3573
-55.3242
-55.303
-55.2935
-55.5346
-55.4982
-55.502
-55.3705
-55.3717
-55.7797
-55.718
-55.7494
-55.7646
-55.7955
-55.7204
-56.0933
-56.0519
-55.9656
-55.9423
-55.9461
-55.9522
-55.9504
-56.5211
-56.4604
-56.3353
-56.2813
-56.2741
-56.2494
-56.1888
-56.2273
-57.0172
-56.9796
-56.7496
-56.7326
-56.6232
-56.6842
-56.5824
-56.7313
-56.674
-57.7036
-57.532
-57.4457
-57.2652
-57.2929
-57.0002
-57.1125
-56.9783
-56.8952
-56.9054
-58.5749
-58.3327
-58.1399
-58.0365
-57.8548
-57.8577
-57.5991
-57.6677
-57.5385
-57.3507
-57.4348
-59.4558
-59.2167
-59.0484
-58.8562
-58.703
-58.5772
-58.3227
-58.1837
-58.2743
-58.0019
-58.0782
-58.0886
-60.9049
-60.6601
-60.3408
-60.0038
-59.7994
-59.5217
-59.2423
-59.1572
-59
-58.816
-58.8438
-58.8056
-58.7386
-62.741
-62.2075
-61.8536
-61.5029
-61.1646
-60.7727
-60.5266
-60.233
-59.7545
-59.7739
-59.6908
-59.5656
-59.7296
-59.6294
-65.3045
-64.8671
-64.1606
-63.5427
-63.0099
-62.8081
-62.2392
-61.8384
-61.9672
-61.7495
-61.4451
-61.1953
-61.1313
-60.7566
-60.7547
-67.2424
-67.0125
-66.5384
-66.0245
-65.6823
-65.3045
-65.251
-64.9858
-64.8056
-64.485
-63.8953
-63.9083
-63.6579
-63.3605
-62.8582
-62.9583
-70.315
-70.2433
-70.1038
-69.7773
-69.1591
-69.0694
-68.4905
-68.3805
-68.0992
-67.8993
-67.4154
-66.7081
-66.3193
-66.2757
-65.6161
-64.9708
-64.7182
-72.7539
-72.6824
-73.0957
-73.0407
-73.0659
-72.9892
-72.997
-72.8889
-72.3809
-71.4864
-70.6583
-69.9051
-69.2319
-68.7267
-68.4338
-67.7294
-67.2859
-67.0778
-73.4033
-73.9967
-74.3474
-74.6042
-75.1848
-75.2211
-74.8559
-74.4222
-74.0888
-74.077
-73.9264
-72.9842
-72.3454
-71.8114
-71.0082
-70.3607
-69.6138
-69.2264
-68.7084
-73.9882
-73.9076
-74.3879
-74.5309
-74.9566
-76.2117
-77.1356
-76.1496
-75.7279
-75.3524
-74.8729
-73.9126
-73.522
-73.3509
-73.2987
-72.2988
-71.5917
-70.3941
-70.3139
-69.518
-73.6432
-74.0711
-73.9644
-74.1249
-74.3359
-75.161
-75.6484
-76.2853
-76.4165
-76.4693
-76.3911
-75.5801
-74.3334
-72.9817
-71.7218
-71.873
-72.1507
-71.5283
-70.2839
-70.8275
-70.6459
-73.6782
-73.6127
-73.7069
-73.9783
-73.8463
-73.7958
-73.8509
-74.5581
-74.7679
-75.3003
-75.3253
-75.2535
-74.837
-74.0863
-73.4583
-72.8846
-72.6207
-72.1231
-72.096
-71.9261
-71.0027
-71.5557
-54.769
-54.8925
-54.8916
-55.0055
-55.0152
-54.9971
-55.2236
-55.1705
-55.129
-55.1242
-55.37
-55.3851
-55.3312
-55.297
-55.2754
-55.5806
-55.4987
-55.4784
-55.4797
-55.3953
-55.4009
-55.8991
-55.7483
-55.6797
-55.7426
-55.7397
-55.7349
-55.7698
-56.213
-56.0602
-55.9688
-55.931
-55.9295
-55.9218
-55.9068
-55.9837
-56.6078
-56.5117
-56.4036
-56.3459
-56.2644
-56.2148
-56.1163
-56.2206
-56.1917
-57.1382
-57.0042
-56.9231
-56.774
-56.7426
-56.6015
-56.6644
-56.6916
-56.6518
-56.5844
-57.8913
-57.6509
-57.5408
-57.3385
-57.2993
-57.1984
-57.1807
-57.1476
-56.9792
-56.8568
-56.9095
-58.6464
-58.5157
-58.237
-58.1457
-57.9925
-57.8563
-57.7677
-57.7241
-57.5538
-57.409
-57.4581
-57.437
-59.6543
-59.4906
-59.2294
-59.0277
-58.8497
-58.73
-58.4595
-58.4059
-58.2529
-58.0188
-57.8552
-58.1114
-58.0687
-61.0878
-60.7931
-60.5815
-60.2257
-59.8939
-59.6904
-59.4471
-59.2486
-59.228
-58.9241
-58.6937
-58.8391
-58.8008
-58.7145
-63.0663
-62.4188
-61.9992
-61.711
-61.4328
-61.0452
-60.594
-60.4404
-60.178
-59.7367
-59.7669
-59.8095
-59.7793
-59.6763
-59.6766
-65.5996
-65.093
-64.5119
-63.7875
-63.3897
-62.8963
-62.6158
-61.9732
-61.8246
-61.8501
-61.6375
-61.5219
-61.221
-61.1353
-60.8658
-60.9066
-67.2583
-67.0064
-66.5774
-66.3177
-65.7071
-65.53
-65.3127
-64.7883
-64.5309
-64.4563
-64.0144
-63.9678
-63.6167
-63.2449
-63.2387
-63.045
-62.9961
-70.2665
-70.1213
-70.0186
-69.8291
-69.4391
-69.0695
-68.9553
-68.3547
-68.0028
-67.5643
-67.3496
-66.8325
-66.5802
-65.9183
-65.904
-65.6636
-64.6906
-64.6011
-72.7109
-72.5812
-72.4521
-72.5594
-72.6774
-72.7341
-72.7509
-72.8091
-72.5398
-71.9186
-71.1574
-70.2525
-69.5726
-68.8176
-68.4632
-68.2011
-67.5855
-67.0615
-66.8771
-73.4274
-73.2063
-73.7809
-74.114
-74.3011
-74.8562
-74.9088
-74.5599
-74.1461
-73.838
-73.7784
-73.6533
-72.5539
-71.9756
-71.4138
-70.6009
-69.8892
-69.2803
-68.8913
-68.3475
-73.5108
-73.8644
-73.7604
-74.2084
-74.3598
-74.659
-75.8559
-76.817
-75.9899
-75.6524
-75.3343
-74.9547
-74.0769
-73.1609
-73.0351
-72.8359
-71.8686
-71.0457
-69.8792
-69.8504
-69.1817
-73.7421
-73.6188
-74.0265
-73.8953
-74.0478
-74.2017
-75.0904
-75.537
-76.1662
-76.3696
-76.4442
-76.4127
-75.581
-74.3244
-72.9221
-71.562
-71.5691
-71.9379
-71.2413
-69.8837
-70.4719
-70.3543
-73.9704
-73.685
-73.6136
-73.7029
-73.963
-73.8078
-73.7798
-73.8119
-74.5268
-74.7358
-75.2956
-75.3293
-75.2465
-74.8433
-74.0846
-73.4443
-72.8622
-72.5821
-72.0644
-72.0074
-71.9025
-70.9996
-71.4946
-54.676
-54.7769
-54.7716
-54.8767
-54.8896
-54.8982
-55.0839
-55.0331
-55.0025
-55.0321
-55.239
-55.2482
-55.1513
-55.163
-55.1317
-55.4114
-55.3435
-55.4747
-55.277
-55.2771
-55.2307
-55.6171
-55.5085
-55.4598
-55.4854
-55.4711
-55.394
-55.3712
-55.8935
-55.8455
-55.7215
-55.6308
-55.7494
-55.7319
-55.7764
-55.6761
-56.2744
-56.1462
-56.0512
-55.9626
-55.9193
-55.9467
-55.8882
-55.9949
-56.0411
-56.7744
-56.5796
-56.4685
-56.3319
-56.2887
-56.229
-56.2455
-56.1776
-56.2398
-56.4417
-57.2566
-57.1001
-56.9903
-56.8887
-56.7427
-56.6826
-56.735
-56.7327
-56.7032
-56.7184
-56.7328
-57.9109
-57.8357
-57.6282
-57.55
-57.4003
-57.2833
-57.2111
-57.2277
-57.0686
-56.9275
-57.026
-56.8968
-58.8783
-58.6046
-58.4524
-58.2439
-58.1414
-57.9609
-57.8817
-57.7913
-57.6154
-57.3379
-57.4833
-57.5574
-57.4395
-59.927
-59.6855
-59.3597
-59.177
-59.0113
-58.8494
-58.6196
-58.5465
-58.4236
-58.179
-57.9483
-57.975
-58.1296
-58.0608
-61.4421
-61.1076
-60.8325
-60.4205
-60.0817
-59.8555
-59.5412
-59.368
-59.3307
-59.1023
-58.9627
-58.8696
-58.771
-58.79
-58.7997
-63.284
-62.9006
-62.524
-62.0048
-61.6605
-61.1948
-60.8765
-60.5901
-60.4006
-60.1777
-59.8444
-60.0577
-59.8431
-59.7581
-59.67
-59.7252
-65.797
-65.3121
-64.9513
-64.4192
-63.8365
-63.3676
-62.6885
-62.3596
-61.9657
-61.8764
-61.708
-61.7163
-61.5558
-61.1203
-61.1379
-61.0483
-60.9698
-67.6974
-67.1482
-66.5941
-66.5142
-66.1427
-65.7913
-65.3541
-64.8374
-64.5478
-64.6781
-64.2209
-63.9544
-63.8505
-63.4674
-63.2143
-63.3466
-62.903
-62.8373
-70.5228
-70.1609
-69.9375
-69.7037
-69.5521
-69.3362
-69.0047
-68.2358
-68.0042
-67.8815
-67.4762
-67.0451
-66.7235
-66.1581
-65.9851
-65.74
-65.39
-64.8317
-64.5174
-72.024
-72.4865
-72.6409
-72.0997
-72.2887
-72.3305
-72.4861
-72.3668
-72.2425
-72.1906
-71.6887
-70.8184
-69.8983
-69.2134
-68.5487
-68.1147
-67.9727
-67.3214
-67.0703
-66.5545
-73.3172
-73.3406
-73.0546
-73.6337
-73.8706
-74.07
-74.4668
-74.5881
-74.2704
-73.8969
-73.6315
-73.6674
-73.2917
-72.3131
-71.6005
-71.0105
-70.2498
-69.5503
-68.9846
-68.773
-68.3284
-73.3828
-73.4553
-73.7341
-73.5979
-74.0222
-74.2031
-74.3456
-75.4638
-76.4995
-75.8836
-75.4787
-75.3471
-74.7578
-74.1276
-73.0136
-72.7769
-72.3806
-71.4348
-70.5418
-69.4622
-69.5101
-69.1303
-73.8543
-73.727
-73.5974
-73.9717
-73.8253
-73.9654
-74.0768
-75.0422
-75.4164
-76.0582
-76.2713
-76.4102
-76.4663
-75.6476
-74.3244
-72.8683
-71.422
-71.3263
-71.7582
-71.0251
-69.5317
-70.184
-70.1642
-74.4538
-73.9979
-73.6973
-73.6147
-73.6979
-73.9463
-73.7739
-73.7649
-73.7841
-74.4914
-74.7007
-75.2909
-75.3354
-75.2296
-74.8505
-74.0854
-73.4369
-72.8427
-72.55
-72.0109
-71.9279
-71.7775
-71.0429
-71.4402
-54.5868
-54.6684
-54.7029
-54.7867
-54.7746
-54.7979
-54.8739
-54.893
-54.8885
-54.9249
-55.0046
-55.0804
-55.0141
-55.0429
-55.0263
-55.2373
-55.2208
-55.176
-55.1728
-55.1362
-55.1294
-55.3992
-55.43
-55.3448
-55.294
-55.3135
-55.2499
-55.2533
-55.6358
-55.62
-55.5651
-55.4366
-55.4971
-55.4817
-55.408
-55.428
-56.0551
-55.9152
-55.8183
-55.7267
-55.6857
-55.7554
-55.681
-55.8237
-55.7117
-56.394
-56.26
-56.1191
-56.01
-55.9501
-55.9151
-56.0125
-55.9216
-56.0533
-55.982
-56.8455
-56.6675
-56.5726
-56.4218
-56.3532
-56.2596
-56.2987
-56.2159
-56.1908
-56.3741
-56.6195
-57.3691
-57.2836
-57.175
-56.9636
-56.8987
-56.7063
-56.7182
-56.8235
-56.6581
-56.678
-56.8119
-56.901
-58.114
-57.8841
-57.8353
-57.6229
-57.5911
-57.344
-57.2259
-57.3189
-57.2185
-57.0755
-57.0936
-57.0318
-56.952
-59.0997
-58.8586
-58.5513
-58.4673
-58.282
-58.1273
-58.0496
-57.8752
-57.8024
-57.5383
-57.6716
-57.5743
-57.5703
-57.4879
-60.3423
-59.9086
-59.7266
-59.44
-59.2058
-59.0342
-58.7864
-58.7526
-58.5073
-58.3224
-58.1668
-58.2063
-57.9772
-58.0882
-58.051
-61.6727
-61.2799
-61.062
-60.696
-60.4005
-60.0384
-59.7809
-59.6603
-59.4618
-59.2693
-59.0516
-59.055
-58.9401
-58.8303
-58.8131
-58.8127
-63.5828
-63.1888
-62.6655
-62.2963
-61.9624
-61.5802
-61.0223
-60.9075
-60.6679
-60.3428
-60.1801
-60.0072
-59.9308
-59.8988
-59.6946
-59.709
-59.7848
-65.9863
-65.5545
-65.1117
-64.7058
-64.1733
-63.5105
-63.0004
-62.5753
-62.2986
-62.0152
-61.9228
-61.6278
-61.7262
-61.4842
-61.5003
-61.206
-61.1647
-61.0557
-67.7179
-67.4895
-66.8629
-66.7476
-66.2232
-65.943
-65.3205
-64.5289
-64.8075
-64.653
-64.3997
-64.1536
-63.8874
-63.7588
-63.5005
-63.4976
-63.2192
-62.9775
-62.6631
-70.7397
-70.4103
-69.8593
-69.8071
-69.5515
-69.2306
-69.0256
-68.439
-67.8547
-67.8468
-67.5567
-67.0835
-66.9191
-66.5014
-65.9634
-65.808
-65.6474
-65.285
-64.9444
-64.3659
-72.2168
-72.3962
-72.065
-72.3736
-71.8783
-72.0341
-72.1099
-72.1509
-72.0192
-71.9602
-71.8979
-71.3645
-70.5644
-69.6829
-68.8865
-68.3926
-67.7445
-67.6267
-67.3097
-66.8378
-66.3277
-72.5003
-73.218
-73.2629
-72.9088
-73.4056
-73.6333
-73.7328
-74.1225
-74.2518
-74.0061
-73.638
-73.4091
-73.5121
-72.983
-72.0394
-71.3107
-70.6405
-69.9628
-69.1763
-68.6426
-68.568
-68.2489
-73.283
-73.3156
-73.4021
-73.618
-73.4634
-73.8315
-74.0396
-73.9782
-75.0797
-76.2042
-75.7672
-75.3198
-75.3947
-74.8559
-73.8318
-72.8872
-72.5605
-71.8944
-71.0702
-70.0283
-69.0489
-69.1783
-68.8651
-74.4918
-73.8979
-73.714
-73.5744
-73.9011
-73.7601
-73.867
-73.9554
-74.9813
-75.2802
-75.9411
-76.2058
-76.3711
-76.4545
-75.7109
-74.336
-72.8204
-71.2954
-71.1529
-71.6195
-70.9017
-69.2803
-69.9503
-70.0065
-74.9328
-74.4917
-74.0248
-73.7109
-73.6162
-73.694
-73.9281
-73.748
-73.7517
-73.7595
-74.4611
-74.6471
-75.2851
-75.3419
-75.2226
-74.8529
-74.0863
-73.4298
-72.8275
-72.5232
-71.9644
-71.8676
-71.6108
-71.1496
-71.396
-54.5687
-54.583
-54.6836
-54.6946
-54.7201
-54.8093
-54.7937
-54.8042
-54.8189
-54.8527
-54.9084
-54.9164
-54.9283
-54.9093
-55.0535
-55.0032
-54.9946
-55.0357
-55.0282
-55.0072
-55.2592
-55.2943
-55.2186
-55.1814
-55.1496
-55.1485
-55.136
-55.4802
-55.4239
-55.482
-55.3049
-55.3693
-55.2947
-55.2654
-55.2773
-55.8157
-55.685
-55.6067
-55.5659
-55.4842
-55.4988
-55.4541
-55.4216
-55.4642
-56.1102
-56.0441
-55.8989
-55.8045
-55.7574
-55.7085
-55.6933
-55.7832
-55.7662
-55.7841
-56.4828
-56.3848
-56.183
-56.1108
-56.0325
-55.9781
-55.9521
-55.8745
-55.9231
-55.9344
-55.8374
-56.9208
-56.8905
-56.6574
-56.5419
-56.4327
-56.3273
-56.2815
-56.2739
-56.2147
-56.2509
-56.4369
-56.4884
-57.5463
-57.3802
-57.3045
-57.1292
-56.9614
-56.7896
-56.7386
-56.8373
-56.795
-56.7463
-56.7543
-56.8177
-56.9745
-58.3451
-58.126
-57.9198
-57.825
-57.6244
-57.5233
-57.3626
-57.3955
-57.2954
-57.249
-57.1681
-57.0248
-57.1309
-57.0858
-59.3258
-58.9877
-58.8738
-58.5488
-58.5074
-58.2707
-58.0714
-58.1081
-57.8773
-57.7655
-57.7308
-57.6293
-57.5121
-57.5598
-57.4983
-60.5773
-60.1697
-59.9136
-59.6299
-59.4272
-59.1442
-59.076
-58.7893
-58.7309
-58.4218
-58.2453
-58.2551
-58.15
-58.0277
-58.0762
-58.0743
-61.7908
-61.5573
-61.1942
-60.8388
-60.5048
-60.3177
-60.0634
-59.7782
-59.6029
-59.3446
-59.2947
-59
-58.9861
-58.8987
-58.8269
-58.8465
-58.8189
-63.8858
-63.429
-62.9905
-62.4789
-62.0264
-61.734
-61.3087
-61.2543
-60.8725
-60.5051
-60.356
-60.1541
-60.0763
-59.9572
-59.9085
-59.8075
-59.6707
-59.8179
-66.2007
-65.6644
-65.2449
-64.7517
-64.3318
-63.8348
-63.0662
-62.6609
-62.6349
-62.1027
-61.9532
-61.8279
-61.7354
-61.7225
-61.5723
-61.4492
-61.2366
-61.1798
-61.054
-68.5163
-67.436
-67.2399
-66.6656
-66.5152
-66.0728
-65.6134
-65.0051
-65.1254
-64.6946
-64.187
-64.0485
-63.7622
-63.8728
-63.6147
-63.3771
-63.1994
-63.379
-62.9373
-62.6884
-70.6971
-70.3566
-70.2366
-69.6244
-69.7319
-69.2122
-69.1219
-68.6578
-68.1055
-67.9572
-67.5987
-67.1692
-66.9961
-66.4586
-66.2577
-65.8437
-65.5313
-65.3314
-65.3376
-64.766
-64.4304
-72.2682
-72.094
-72.3199
-71.9007
-72.1421
-71.7591
-71.5923
-71.7767
-71.8326
-71.7148
-71.7878
-71.4809
-71.1851
-70.2723
-69.3716
-68.7518
-68.033
-67.493
-67.3162
-67.0403
-66.7581
-66.0244
-72.1774
-72.3501
-73.0972
-73.1448
-72.7272
-73.1845
-73.385
-73.4123
-73.7493
-73.9295
-73.8764
-73.3554
-73.0476
-73.2353
-72.7562
-71.7564
-71.0135
-70.2249
-69.6185
-68.8638
-68.346
-68.5255
-68.2018
-73.7648
-73.2822
-73.2443
-73.3384
-73.4648
-73.3418
-73.6342
-73.927
-73.6109
-74.6725
-75.9225
-75.3979
-75.2166
-75.4305
-75.0454
-73.9833
-72.7922
-72.394
-71.3858
-70.7266
-69.5693
-68.7102
-69.0018
-68.682
-75.6911
-74.5765
-73.9466
-73.7067
-73.5525
-73.8304
-73.6967
-73.7689
-73.8402
-74.8865
-75.1362
-75.8242
-76.1436
-76.3165
-76.4702
-75.7287
-74.3522
-72.7821
-71.1949
-70.9948
-71.5127
-70.7997
-69.156
-69.7487
-69.8288
-74.9924
-75.4714
-74.5248
-74.0527
-73.7236
-73.6176
-73.6913
-73.9097
-73.724
-73.7416
-73.7321
-74.4246
-74.5917
-75.2812
-75.3499
-75.2237
-74.8517
-74.0873
-73.417
-72.8177
-72.4999
-71.9345
-71.8122
-71.4917
-71.2497
-54.5548
-54.5709
-54.6044
-54.6842
-54.7069
-54.7218
-54.7263
-54.8183
-54.804
-54.795
-54.8236
-54.8083
-54.9619
-54.9237
-54.9492
-54.9299
-54.9203
-54.9235
-55.0911
-55.0544
-55.0133
-55.1253
-55.0374
-55.0218