/*--------------------------------*- C++ -*----------------------------------*\
  =========                 |
  \\      /  F ield         | OpenFOAM: The Open Source CFD Toolbox
   \\    /   O peration     | Website:  https://openfoam.org
    \\  /    A nd           | Version:  7
     \\/     M anipulation  |
\*---------------------------------------------------------------------------*/
FoamFile
{
    version     2.0;
    format      ascii;
    class       surfaceScalarField;
    location    "6.5";
    object      phi;
}
// * * * * * * * * * * * * * * * * * * * * * * * * * * * * * * * * * * * * * //

dimensions      [0 3 -1 0 0 0 0];

internalField   nonuniform List<scalar> 
54125
(
-2.00102e-05
-2.81228e-05
-0.00363464
-0.000171084
3.38872e-05
-0.00127203
-3.81139e-05
-4.00179e-05
-0.00362728
-5.61813e-05
-2.7034e-05
-0.00355142
-0.000328118
-9.47536e-06
0.00271796
-0.000281986
9.7511e-05
-0.00161321
-0.000267691
4.13423e-05
-0.00110187
-0.000104361
-3.16016e-05
-0.0027901
-6.63465e-05
-3.73594e-05
-0.00355061
-7.72045e-05
-2.35104e-05
-0.00345071
-0.000403571
0.000170122
0.00531635
-0.000115312
-3.68806e-05
0.00219847
-0.000418715
-1.02297e-05
0.00287922
-0.000255691
0.000123335
-0.00147097
-0.000344262
0.000101561
-0.00139551
-0.000328545
5.27987e-05
-0.000903325
-6.66412e-05
-4.31843e-05
-0.00193674
-0.00011233
-2.83309e-05
-0.0026868
-7.65552e-05
-3.41755e-05
-0.00346339
-0.000107963
-2.51167e-05
-0.00331763
-0.000996177
0.000523846
0.00517188
0.00030256
1.75608e-05
0.00590983
-0.000664716
8.29962e-05
0.00547936
-0.000184054
-0.000107504
0.00166734
-0.000245302
-5.62594e-05
0.00214554
-0.000532394
1.39378e-05
0.00306913
-0.000182006
0.000130992
-0.00144303
-0.000288698
0.000128651
-0.00132169
-0.000420204
0.000127023
-0.00112609
-0.000408692
5.42404e-05
-0.000656836
-4.86626e-05
-3.2882e-05
-0.00123761
-7.49987e-05
-3.90353e-05
-0.00185104
-0.000131707
-2.77914e-05
-0.00256148
-0.000105448
-3.58655e-05
-0.00334719
-0.000130214
-2.31465e-05
-0.00316427
-0.00148527
0.000525465
0.0066591
0.000400393
0.000157542
0.00620046
-0.0013065
0.000491131
0.00532253
0.000101052
-0.000236497
0.00508921
-2.73552e-05
-0.00015777
0.00593265
-0.000883748
5.07487e-05
0.00577996
-0.000283231
-4.81288e-05
0.000955865
-0.000296922
-0.000106482
0.00172579
-0.00034703
-1.90117e-05
0.00210532
-0.000643204
4.97033e-05
0.00325394
-9.92986e-05
8.59837e-05
-0.00114311
-0.000214074
0.000145637
-0.00132094
-0.000366488
0.000153719
-0.00111361
-0.000478763
0.000127735
-0.000826266
-0.00049572
6.36967e-05
-0.000355027
-1.06312e-05
-2.49456e-05
-0.000572524
-5.23118e-05
-2.86997e-05
-0.00119563
-8.74518e-05
-3.69643e-05
-0.00175442
-0.000148024
-2.82523e-05
-0.00242106
-0.000117469
-3.43233e-05
-0.00321854
-0.000159685
-2.38448e-05
-0.00298074
-0.00172826
5.34125e-05
0.00668206
0.0001611
0.000260716
0.00801252
-0.00139702
0.000575558
0.00617406
0.000380836
8.81896e-05
0.00651491
-0.000177364
0.000316371
0.00652523
-0.00157306
0.000267708
0.00574413
-0.000384734
-0.0004072
0.00439955
-0.00019636
-0.000278466
0.00510935
0.000215483
-0.000279612
0.00570049
-0.00100824
0.000104286
0.00604071
-0.000272415
0.000102564
0.000667228
-0.00036332
-2.50066e-05
0.00102363
-0.000390013
-9.982e-05
0.00183012
-0.000428414
3.60013e-05
0.00206867
-0.00082082
8.28276e-05
0.00349621
5.30419e-05
-5.0782e-06
-0.00110149
-0.000132161
9.8588e-05
-0.00101621
-0.000277654
0.000172202
-0.00114923
-0.000421958
0.000153831
-0.000865767
-0.000524176
0.000140616
-0.000496478
-0.000551073
7.75602e-05
-4.11996e-05
-6.52878e-06
-3.64494e-05
-0.000261645
-2.14682e-05
-2.08845e-05
-0.000558871
-6.27959e-05
-2.60201e-05
-0.00114378
-0.000106034
-3.71007e-05
-0.00163953
-0.000163697
-2.82342e-05
-0.00226346
-0.000138835
-3.47349e-05
-0.00306882
-0.000176651
-2.38937e-05
-0.00278019
-0.00191137
3.05525e-05
0.00350472
-0.00104889
0.000749667
0.0077057
-0.0014859
0.000131838
0.0066391
0.00064154
0.000490227
0.00600436
-0.0003019
0.000734096
0.00797852
-0.00157923
0.000448142
0.00573208
-0.000120412
8.6947e-05
0.00505102
-6.23884e-05
0.000297649
0.00639966
0.000162993
0.000379439
0.00646598
-0.00158191
0.00045956
0.00585825
-0.000477876
-0.00030622
0.00311168
-0.000419209
-0.000330027
0.004507
2.56002e-05
-0.000418276
0.0048324
-0.000301818
-8.25084e-05
0.00576069
-0.00128048
0.000213057
0.00628731
-5.94787e-05
0.00017312
0.000691113
-0.000363525
9.33881e-05
0.000780196
-0.000463918
-1.33954e-05
0.00112347
-0.000493721
2.21795e-06
0.00193567
-0.000592923
5.63013e-05
0.00216394
-0.00092049
0.000165429
0.00370019
0.000118276
-5.30045e-05
-0.00088718
-1.3955e-05
8.44099e-06
-0.00101885
-0.000166991
0.000125
-0.000864815
-0.000346332
0.000188257
-0.000943352
-0.000481587
0.000165622
-0.000572884
-0.000567657
0.000157979
-0.000148074
-0.000609497
8.30219e-05
0.000308625
2.31362e-05
-4.01722e-05
2.62373e-05
-1.22422e-05
-3.26878e-05
-0.000237599
-3.40394e-05
-1.92549e-05
-0.000531597
-7.22897e-05
-2.5864e-05
-0.00108273
-0.000116706
-3.62847e-05
-0.00151478
-0.000175913
-2.73691e-05
-0.00209491
-0.000152294
-3.47929e-05
-0.00290563
-0.0001933
-2.34653e-05
-0.00256343
-0.0019919
0.00017736
0.00313766
-0.00164454
0.00031575
0.0050584
-0.00175546
-0.00017545
0.00394974
0.000270635
0.000841723
0.00736704
-0.00114579
0.000837508
0.00784392
-0.00151735
0.000245528
0.0063317
0.000244211
0.00058754
0.00558384
7.0748e-05
0.00077744
0.00582788
-0.000662985
0.0011376
0.00811504
-0.001652
0.000504029
0.00529814
-0.000373713
-9.56517e-06
0.00435549
-0.000203758
0.000319746
0.00481348
0.000161553
0.00065116
0.00599199
-0.000451356
0.000979253
0.00609583
-0.00175535
0.000681245
0.00565188
-0.000241262
-0.000121165
0.00310549
-0.000537385
-0.000220012
0.00317553
-0.000329256
-0.000400571
0.00435464
-0.000274796
-0.000151459
0.00468242
-0.000483843
9.39928e-05
0.00577068
-0.00132793
0.000279606
0.00641515
0.000114354
0.000137963
0.000231212
-0.000182382
0.000148773
0.000804155
-0.00042803
0.00010075
0.000927089
-0.000534109
2.37038e-05
0.00128976
-0.000597129
2.59218e-05
0.00208159
-0.000668205
0.000155722
0.0022742
-0.001037
0.000210475
0.00391722
0.000111275
-6.75497e-05
8.47631e-05
7.03287e-05
-4.50695e-05
-0.000916241
-5.88024e-05
2.38472e-05
-0.000892939
-0.000214795
0.000142326
-0.000676379
-0.000395332
0.000202149
-0.000701253
-0.000522046
0.00018742
-0.000256192
-0.000611195
0.000157074
0.000236774
-0.000651642
9.04804e-05
0.000676486
5.00303e-05
-4.04684e-05
-2.01544e-05
1.92804e-05
-3.75836e-05
1.18529e-05
-1.86111e-05
-3.22973e-05
-0.000205946
-4.16249e-05
-1.81066e-05
-0.000497729
-8.26185e-05
-2.55331e-05
-0.00101086
-0.000127176
-3.52441e-05
-0.00137973
-0.000187246
-2.78911e-05
-0.00191457
-0.000166161
-3.46328e-05
-0.0027283
-0.000202768
-2.38355e-05
-0.00233682
-0.00195942
0.0001188
0.00286066
-0.00127467
0.000210361
0.00380755
-0.00183904
0.000293521
0.00292771
-0.000769245
0.00100523
0.0071133
-0.00146312
7.05328e-05
0.00512975
-0.00171012
-0.000279394
0.0044219
2.48384e-05
0.0010695
0.00666239
-0.000235274
0.000961385
0.00754918
-0.00148222
0.000877989
0.00803069
-0.00157321
0.000248179
0.00600473
-8.53759e-05
0.000585129
0.00552742
6.93358e-06
0.000763829
0.00538676
-0.00027997
0.00110852
0.00629848
-0.000810886
0.0015679
0.0074107
-0.00181656
0.000659993
0.00469936
2.15833e-05
8.65804e-05
0.0044501
-0.000358987
0.00022718
0.00426966
-0.000155917
0.000721772
0.00456952
-0.000153094
0.0011764
0.00567314
-0.000486994
0.001189
0.00559123
-0.00169209
0.000545322
0.00547072
-0.000186579
9.88188e-05
0.00263668
-0.000374494
-0.000114069
0.00319166
-0.000469665
-0.000222533
0.00303912
-0.000418083
-0.0001204
0.00420755
-0.000513156
5.2748e-05
0.0046397
-0.000753589
0.000288085
0.00584758
-0.00144106
0.000375357
0.00644385
0.000192259
0.000110798
-0.000150855
-9.05771e-06
0.000135577
0.000323794
-0.000266703
0.000146791
0.000966014
-0.000485336
6.80629e-05
0.00115327
-0.000622899
0.000111402
0.00143185
-0.000726812
0.000112808
0.00232927
-0.00089565
0.000182212
0.00258692
-0.00109093
0.000248188
0.00410832
7.13731e-05
-5.48633e-05
0.000126726
7.73322e-05
-6.09398e-05
4.25816e-05
4.32115e-05
-4.06931e-05
-0.000913523
-8.63267e-05
3.19128e-05
-0.000737824
-0.000226935
0.000152266
-0.000482178
-0.000416304
0.000211933
-0.000436637
-0.000557434
0.000197469
7.36014e-05
-0.000622535
0.000160341
0.000623287
-0.000690162
9.53322e-05
0.00106855
7.99063e-05
-3.8416e-05
-2.29751e-05
4.51045e-05
-3.84962e-05
-6.43465e-05
1.57043e-05
-3.85421e-05
2.39338e-06
-2.49874e-05
-3.16048e-05
-0.00016746
-5.3118e-05
-1.74438e-05
-0.0004527
-9.48547e-05
-2.74099e-05
-0.000923843
-0.00013766
-3.55295e-05
-0.00123443
-0.000197185
-2.79337e-05
-0.00172408
-0.000175948
-3.51682e-05
-0.00254102
-0.000216039
-2.3914e-05
-0.00209687
-0.00160199
7.69239e-06
0.00337362
-0.00127101
0.000305075
0.00437127
-0.00196192
0.000155515
0.00282803
-0.000881353
0.000261166
0.00509988
-0.00127924
0.000198329
0.00371886
-0.00188942
0.000294174
0.00281285
-0.00045856
0.00135333
0.00692002
-0.00073101
0.000894139
0.00678543
-0.0017099
2.8201e-05
0.00504984
-0.00164977
-0.000254735
0.00475319
4.39368e-05
0.00117241
0.00673591
-0.000108252
0.00108969
0.00664927
-0.000608593
0.00109845
0.00765735
-0.00169448
0.000742141
0.00842033
-0.00165271
0.00037778
0.0054631
0.000291689
0.000732124
0.00626698
-8.82642e-05
0.000724181
0.00529634
-0.000309467
0.000877839
0.00577099
-0.000403216
0.00143492
0.00668158
-0.000691539
0.00171119
0.00656406
-0.00187878
0.000586091
0.00429995
-2.12725e-05
0.000173411
0.00462299
-0.000287583
0.000249509
0.00434086
-0.00031774
0.00048911
0.0043504
-0.000415166
0.00112708
0.00461592
-0.00038559
0.001252
0.00548257
-0.000991253
0.000920751
0.00545346
-0.00162264
0.000606153
0.00504614
-0.000101493
0.000269017
0.00224984
-0.000300827
5.78702e-05
0.00275651
-0.000432647
-7.61109e-05
0.00321118
-0.000509575
-8.38953e-05
0.00302686
-0.000696783
1.94577e-05
0.00431473
-0.000862912
0.000303105
0.00476078
-0.000946364
0.000460823
0.00581283
-0.00146284
0.000445596
0.00637016
0.000114411
0.000104214
0.000169199
6.32346e-05
0.000123021
-0.000124202
-9.76411e-05
0.000150718
0.00046072
-0.000349249
0.000138137
0.00115886
-0.000508595
0.000173182
0.00137315
-0.000671787
6.71812e-05
0.00173296
-0.000819152
0.000135965
0.00263724
-0.000967003
0.000238263
0.00294131
-0.0011648
0.000263798
0.00431917
8.11105e-05
-4.09119e-05
-1.64042e-05
5.51802e-05
-4.53566e-05
0.000101067
6.06776e-05
-6.1495e-05
1.84103e-05
1.66048e-05
-3.50397e-05
-0.000888163
-0.000111878
4.03802e-05
-0.000567177
-0.00028871
0.000154186
-0.000230576
-0.000441806
0.000225039
-0.000160062
-0.000575639
0.000212528
0.000399868
-0.000644023
0.000160439
0.00102626
-0.000715244
9.37969e-05
0.00147396
6.92679e-05
-3.29761e-05
-0.000361797
7.23951e-05
-3.61826e-05
-9.76841e-05
4.57046e-05
-3.92181e-05
-0.000109375
1.21274e-05
-3.92231e-05
-2.11571e-06
-3.16684e-05
-3.09183e-05
-0.000122317
-6.37183e-05
-1.87804e-05
-0.000397612
-0.000101277
-3.09473e-05
-0.000827148
-0.000144521
-3.53778e-05
-0.00108246
-0.000203844
-2.78415e-05
-0.00152756
-0.000187236
-3.55296e-05
-0.00234216
-0.000226384
-2.4363e-05
-0.00184612
-0.00116983
-0.000270616
0.00369933
-0.0012698
0.000135468
0.0044475
-0.00172603
7.66611e-05
0.00306108
-0.000849185
0.000376208
0.00450699
-0.00135711
0.000261527
0.00434313
-0.00195377
0.000162504
0.00272988
-0.000815465
0.000545586
0.00567261
-0.00082459
0.000269698
0.0051221
-0.00146304
0.000153732
0.00361244
-0.0018705
0.000267791
0.00276578
-0.000172333
0.00156561
0.00687747
-0.000286274
0.00123381
0.00675837
-0.000777579
0.000708564
0.00627406
-0.00180177
-0.000172905
0.00507529
-0.00155707
-0.000268747
0.0049263
-2.66475e-07
0.00129766
0.00719512
9.48511e-05
0.00114277
0.00649972
-0.000384184
0.00109222
0.00673021
-0.000807509
0.00109533
0.00770845
-0.00116658
0.000857766
0.00841539
-0.00179501
0.000327729
0.0050516
0.000126832
0.00108675
0.0068838
0.000120182
0.000757243
0.00582616
-0.000570028
0.000881726
0.00554475
-0.000463164
0.00108483
0.00616908
-0.000192586
0.00156142
0.00663834
-0.000786766
0.00120027
0.00574539
-0.00178664
0.000325649
0.00413831
-0.000232754
0.000247159
0.00540673
-0.000225215
0.000228211
0.00456867
-0.000461479
0.000367109
0.00449169
-0.000433146
0.000757075
0.00464397
-0.000798972
0.00106346
0.00490665
-0.00082283
0.00106874
0.0052945
-0.0011796
0.000856681
0.00543617
-0.00165619
0.00045218
0.00478732
-7.57625e-05
0.000310198
0.00190739
-0.000276263
0.000240856
0.00240636
-0.000443416
4.69188e-05
0.00297926
-0.000503699
-1.88959e-05
0.00330063
-0.000740621
-3.82977e-05
0.00331664
-0.000820951
0.000189446
0.00457755
-0.000930907
0.000464657
0.0048687
-0.0011089
0.000555561
0.00584476
-0.00149787
0.000411981
0.00629125
3.21571e-05
0.000139318
0.000861162
5.05025e-05
0.00011308
0.000183817
-2.12742e-05
0.000154564
-4.60958e-05
-0.000141582
0.000178202
0.000578843
-0.00039419
0.000174023
0.00144033
-0.000588014
0.000107514
0.00163212
-0.000749734
6.70705e-05
0.00210978
-0.000904354
0.000215439
0.00298877
-0.00104307
0.000232067
0.00337209
-0.00117142
0.000247585
0.00452776
6.08041e-05
-6.02018e-05
0.000422138
5.9283e-05
-3.45168e-05
-1.41318e-05
5.38301e-05
-4.50812e-05
7.65279e-05
4.70972e-05
-5.94547e-05
7.85562e-06
-1.44118e-05
-2.72291e-05
-0.00083781
-0.000132928
5.19263e-05
-0.000395708
-0.000316745
0.000172884
3.70469e-05
-0.000455137
0.00024061
0.000122472
-0.000590741
0.000217724
0.00072948
-0.000662503
0.000161315
0.001434
-0.000750596
9.07419e-05
0.00190743
4.66211e-05
-3.18645e-05
-0.000723808
5.51609e-05
-3.05144e-05
-0.000422626
7.05213e-05
-3.67124e-05
-0.000170711
4.70409e-05
-3.90788e-05
-0.00015656
8.39182e-06
-3.9829e-05
-1.59682e-06
-3.89783e-05
-3.01591e-05
-7.19602e-05
-7.21198e-05
-2.09697e-05
-0.000335469
-0.000106908
-3.58688e-05
-0.000719748
-0.000152132
-3.55113e-05
-0.000922661
-0.000208691
-2.92265e-05
-0.00132517
-0.000195264
-3.7087e-05
-0.00213418
-0.000229254
-2.44507e-05
-0.00159242
-0.00132145
0.000248279
0.00352916
-0.00128896
-0.000181833
0.00404404
-0.00129489
-5.90846e-05
0.00332727
-0.000868149
0.000293721
0.00430429
-0.00136931
6.47804e-05
0.00447158
-0.00188037
8.74076e-05
0.00290026
-0.000683935
0.000395453
0.00451062
-0.000870702
0.000332558
0.00448207
-0.00131559
0.000222239
0.00413595
-0.00189746
0.000135325
0.00262151
-0.000347101
0.000738152
0.00602717
-0.000542625
0.000515193
0.00568346
-0.000756943
0.000301366
0.00495383
-0.00149982
0.000210894
0.00336739
-0.00184801
0.000160795
0.00289593
-2.59055e-05
0.00161755
0.00662749
-6.07045e-05
0.00137282
0.00689402
-0.000247689
0.000951791
0.00637865
-0.00101524
0.000305258
0.00600362
-0.00136966
-0.000249027
0.00525865
-0.00159626
-0.000107553
0.0048351
-0.000228305
0.00135831
0.00752176
0.000203129
0.00113697
0.00711797
-0.00034891
0.0010904
0.00628042
-0.000494431
0.00104511
0.00681171
-0.000409412
0.00110461
0.00767843
-0.000968597
0.000755551
0.0081694
-0.00179566
0.000296535
0.00476408
-0.000273563
0.00120873
0.00745303
-1.52843e-05
0.000900946
0.00653017
-0.000297968
0.000891187
0.00565318
-0.000729937
0.00101663
0.00590974
-0.000535075
0.00105711
0.0064095
-0.000450897
0.00123551
0.00623116
-0.00100406
0.000433799
0.0054617
-0.00183399
0.000309879
0.00400623
-0.000419413
0.000427365
0.00572634
-0.000354313
0.000281737
0.00543125
-0.000446073
0.000286306
0.00465213
-0.000443712
0.000498174
0.0046906
-0.000803698
0.000705529
0.00506498
-0.000920259
0.000863465
0.00521124
-0.00101395
0.000925445
0.00530878
-0.00129861
0.000570528
0.00550754
-0.00164393
0.000246767
0.00468661
-0.000142025
0.000431164
0.00184207
-0.000151264
0.000280037
0.00206997
-0.000411299
0.00018818
0.00265512
-0.000503654
8.46291e-05
0.0032378
-0.000552519
4.79944e-05
0.00337267
-0.000851959
0.000116465
0.00365356
-0.000901118
0.000391452
0.00480214
-0.0010712
0.000518311
0.00507279
-0.00119494
0.000467997
0.00594061
-0.00147319
0.000343543
0.00624947
-0.000119868
0.000174685
0.00171337
-9.97074e-06
0.000136023
0.000907473
-3.05398e-06
0.000130173
0.000265091
-7.54627e-05
0.000184535
7.01313e-05
-0.000191811
0.000209076
0.000721189
-0.000441146
0.000181191
0.00167487
-0.00059878
9.36611e-05
0.00188757
-0.000818362
0.000138072
0.00255038
-0.000955223
0.00023352
0.0033518
-0.00107088
0.000235194
0.00379286
-0.00122876
0.000210222
0.0047957
5.54865e-05
-0.000120906
0.000564371
3.61722e-05
-5.0501e-05
0.000457111
4.31081e-05
-3.51982e-05
3.3984e-06
5.63799e-05
-4.4988e-05
5.27223e-05
1.40884e-05
-5.45369e-05
2.94669e-05
-4.47168e-05
-1.61418e-05
-0.000764003
-0.00014866
7.11309e-05
-0.000217414
-0.000336617
0.00020261
0.000304756
-0.000471229
0.000250647
0.000408646
-0.000600047
0.000224146
0.00105801
-0.000682696
0.000158582
0.0018536
-0.000735188
8.84305e-05
0.00232493
1.69602e-05
-4.27632e-05
-0.00101648
3.25879e-05
-2.95651e-05
-0.000757346
5.06438e-05
-3.10534e-05
-0.000478929
6.79904e-05
-3.65735e-05
-0.000241207
4.69832e-05
-3.89659e-05
-0.000204407
5.84996e-06
-4.06322e-05
3.02627e-06
-4.50719e-05
-2.93598e-05
-1.84981e-05
-7.96318e-05
-2.46899e-05
-0.000267016
-0.000110539
-3.89663e-05
-0.000605755
-0.00015865
-3.6484e-05
-0.000756754
-0.000215164
-3.12392e-05
-0.00111586
-0.000200402
-3.7699e-05
-0.00192053
-0.000229976
-2.50528e-05
-0.00133739
-0.00170725
0.000157816
0.00271664
-0.00132884
0.000247937
0.00390984
-0.00132837
0.000374952
0.00318769
-0.00100638
2.62421e-05
0.00429308
-0.00136115
-4.08717e-05
0.00401766
-0.00171287
-2.37287e-05
0.0031835
-0.000580042
0.000283416
0.00447641
-0.000911413
0.000152729
0.00425705
-0.00123242
8.62568e-05
0.00438956
-0.00178266
-1.63975e-06
0.00278711
-0.000298802
0.000472594
0.0050185
-0.000694364
0.000347183
0.00464774
-0.000787901
0.000234467
0.0045008
-0.00125723
0.000235593
0.00379309
-0.00200736
0.000140198
0.00264066
-3.47482e-05
0.000912674
0.00613882
-6.78033e-05
0.000679029
0.00587044
-0.000255126
0.000535199
0.00545707
-0.000915435
0.000284017
0.0047809
-0.00169113
0.000168746
0.00368092
-0.00184746
0.000132692
0.00301444
-0.000175606
0.00143394
0.00663048
-2.50431e-05
0.0013381
0.00689039
-9.91213e-05
0.00113047
0.00646555
-0.000469738
0.000526762
0.00613245
-0.000668903
0.000179889
0.0058342
-0.00123382
2.93934e-05
0.00538692
-0.00159709
-8.39061e-05
0.00472044
-0.000289477
0.00134497
0.00742722
-0.000162633
0.00118309
0.00762299
-0.000144048
0.00105721
0.00699724
-0.000789316
0.000978389
0.00640652
-0.00059848
0.00102103
0.00695868
-0.000679139
0.00093035
0.00773188
-0.000883897
0.00074386
0.00760191
-0.00184036
8.2757e-05
0.00468769
-0.000571731
0.00116312
0.00773569
-0.000305714
0.00104627
0.0072591
-0.000337326
0.000972542
0.00634006
-0.000521039
0.000982894
0.00576425
-0.000870719
0.00093654
0.00609733
-0.000610518
0.000950514
0.00638475
-0.000724993
0.000572874
0.00580313
-0.00141067
0.000293701
0.00558993
-0.00182034
0.000190372
0.00399227
-0.000416401
0.000659558
0.00561465
-0.000387406
0.000413085
0.00583113
-0.000500813
0.000293489
0.00551358
-0.000532755
0.000375466
0.00480394
-0.000582938
0.000567074
0.00485948
-0.000921969
0.000817504
0.00518095
-0.00100911
0.000879701
0.00536497
-0.00122647
0.000572823
0.00546176
-0.00135663
0.000305227
0.00561076
-0.0016243
0.000174968
0.00466275
-0.000297022
0.000599777
0.00216006
-0.000239767
0.000390235
0.00196166
-0.000251621
0.000264053
0.00224266
-0.000468021
0.000207956
0.00292435
-0.000525701
0.000159358
0.00346033
-0.000625281
0.000145132
0.00352813
-0.000756548
0.000236531
0.00396625
-0.000985934
0.00042725
0.00506077
-0.00103462
0.000480716
0.00513947
-0.00120202
0.000404775
0.00601052
-0.00147752
0.000281116
0.00621713
-0.000100188
0.000206115
0.00213104
-0.000152868
0.000166769
0.00187166
1.11501e-05
0.00014244
0.000927164
-3.57784e-05
0.000151321
0.000390464
-0.000127909
0.000211931
0.000209274
-0.000271689
0.000235317
0.000894036
-0.000455429
0.000194711
0.00188059
-0.000635567
0.00013725
0.00218734
-0.000817434
0.000212348
0.00291775
-0.000974743
0.000232375
0.00372932
-0.0011038
0.000218238
0.00420594
-0.00117867
0.000190463
0.00504872
5.59109e-06
-0.000178604
0.000422687
2.94461e-05
-0.000106328
0.000623339
4.42409e-05
-4.86847e-05
0.000477
3.83636e-05
-3.56797e-05
2.37169e-05
4.47387e-05
-4.435e-05
4.478e-05
8.82336e-06
-4.91221e-05
5.94738e-05
-7.8867e-05
-6.32811e-06
-0.000652749
-0.000172245
0.000100069
-2.22606e-05
-0.000348831
0.000220814
0.00057288
-0.000489753
0.000256773
0.000707122
-0.000609989
0.000229147
0.00138227
-0.00068859
0.000156352
0.00227386
-0.000699761
8.74597e-05
0.00270726
-5.01916e-06
-4.71908e-05
-0.00117058
9.49141e-06
-3.98636e-05
-0.00101567
2.44574e-05
-2.99023e-05
-0.000782954
4.76956e-05
-3.17071e-05
-0.000531491
6.53496e-05
-3.62823e-05
-0.00030924
4.39215e-05
-3.92845e-05
-0.000249676
2.97975e-06
-4.15278e-05
1.22145e-05
-5.09766e-05
-2.8445e-05
3.62336e-05
-8.56867e-05
-2.69687e-05
-0.000193327
-0.000114988
-4.14379e-05
-0.000485813
-0.000163413
-3.79967e-05
-0.000586584
-0.000216299
-3.2614e-05
-0.000904645
-0.000202175
-4.12154e-05
-0.00170219
-0.000228092
-2.56648e-05
-0.00108363
-0.00168141
-2.99492e-05
0.0028954
-0.00142066
0.000191341
0.00341172
-0.00153479
0.000125619
0.00279745
-0.00089037
0.00015885
0.00415862
-0.00125971
0.000263174
0.00392018
-0.00172018
0.000181462
0.00301353
-0.000685786
0.000143368
0.00450951
-0.00101315
7.95514e-05
0.00427439
-0.00121586
9.99736e-06
0.00396738
-0.0016224
2.34955e-05
0.00299975
-0.000223435
0.000352927
0.00455375
-0.000661506
0.000249298
0.00434698
-0.000888497
0.000163302
0.0042806
-0.00123961
0.000192602
0.0041777
-0.00190908
0.00012344
0.00256539
-0.000292839
0.000705868
0.00523668
-0.000175397
0.000455157
0.00501812
-0.000561703
0.000346637
0.00484214
-0.00083255
0.000283965
0.00436955
-0.00169521
0.000236893
0.00370047
-0.00201733
0.000176271
0.00263426
-0.000132183
0.00102716
0.00616082
-1.09774e-05
0.000837408
0.00596638
-0.000214138
0.000668271
0.00585238
-0.000344837
0.000510443
0.00510574
-0.000746496
0.0002553
0.00477194
-0.00150294
0.000287312
0.00379542
-0.00183251
0.000103988
0.00314587
6.87329e-06
0.00121542
0.00640801
-0.00012998
0.00116889
0.00676704
-0.000165311
0.00113018
0.00691193
-0.000480804
0.000749145
0.00593466
-0.000902015
0.00035513
0.00626075
-0.00105575
0.000316905
0.00592329
-0.00132062
7.7649e-05
0.00566209
-0.00159925
1.72542e-05
0.00446208
-0.000521626
0.00127393
0.00752826
-0.000381712
0.00113855
0.00754775
-0.000239219
0.00110749
0.00747461
-0.000588699
0.00111417
0.00692912
-0.00102661
0.00106747
0.00651597
-0.00073701
0.000930835
0.00708469
-0.000800662
0.000828673
0.00772273
-0.00123773
0.000351458
0.00716027
-0.00194506
7.75477e-05
0.00473486
-0.000582269
0.00115284
0.00763123
-0.000416091
0.00106369
0.00774696
-0.000436594
0.00102246
0.00714497
-0.000396752
0.000980275
0.00620668
-0.000661923
0.00101361
0.00576616
-0.000821604
0.000800447
0.00614703
-0.000708638
0.00063569
0.00602146
-0.000987002
0.00021824
0.00563912
-0.00147736
0.000166404
0.00573463
-0.00166901
0.000103372
0.00393361
-0.000315642
0.000657043
0.00592212
-0.000476876
0.00058523
0.00567961
-0.000484449
0.000419187
0.00593826
-0.000389151
0.000321713
0.00548846
-0.000546318
0.000442796
0.00494884
-0.000794244
0.00083286
0.00501308
-0.000951559
0.000645033
0.00561063
-0.00113428
0.000555101
0.00553104
-0.00100706
0.000349396
0.00539003
-0.00127851
0.000205006
0.00565721
-0.00159169
0.000190313
0.00458661
-0.000307782
0.000718676
0.00283623
-0.000267103
0.000555556
0.00210898
-0.00016817
0.000378657
0.00202638
-0.000328136
0.000307627
0.00243535
-0.000566969
0.000267481
0.00325529
-0.000633233
0.000221173
0.00374583
-0.000656902
0.000142432
0.00382371
-0.000790979
0.000309645
0.00423927
-0.00100212
0.000405248
0.00532093
-0.00118389
0.000417211
0.00533618
-0.00123513
0.000348468
0.0060745
-0.00145416
0.000236897
0.00625572
-8.5094e-05
0.000271362
0.00192156
-7.43241e-05
0.000197385
0.00220419
-0.000126201
0.000181141
0.0020034
2.5569e-05
0.000134113
0.000957166
-5.61532e-05
0.000166342
0.000536944
-0.00012106
0.00024706
0.000327414
-0.000318378
0.000263409
0.00106485
-0.000503069
0.000213286
0.00213538
-0.000726059
0.000187782
0.00258913
-0.000844602
0.000225493
0.00327948
-0.000990155
0.000229866
0.00409786
-0.00110068
0.000201411
0.00460709
-0.00108994
0.000188906
0.00524998
-5.52003e-05
-0.00017662
-0.000518996
3.24395e-06
-0.000161734
0.000484341
7.88531e-06
-0.000103977
0.000695203
3.35191e-05
-4.74084e-05
0.000502905
3.2572e-05
-3.94494e-05
5.15939e-05
3.99672e-05
-4.31025e-05
4.27146e-05
-2.13123e-05
-4.25697e-05
0.000120007
-8.3716e-05
4.236e-06
-0.000524177
-0.000189101
0.000118699
0.000183269
-0.000348461
0.000229383
0.000833744
-0.000503315
0.000264944
0.00101123
-0.000602978
0.000235541
0.00168976
-0.000666974
0.00015769
0.00266843
-0.000678549
8.41026e-05
0.00307361
-8.77568e-05
-3.8248e-05
-0.000913951
-1.4333e-05
-4.34016e-05
-0.00115271
7.61023e-06
-3.99983e-05
-0.00101319
1.7294e-05
-3.05268e-05
-0.000801428
4.16252e-05
-3.22228e-05
-0.000577175
6.20658e-05
-3.61542e-05
-0.000374436
3.8409e-05
-3.97517e-05
-0.000289861
-1.03525e-06
-4.20301e-05
2.68348e-05
-5.73887e-05
-2.75478e-05
9.42015e-05
-9.0521e-05
-2.92876e-05
-0.000114957
-0.000116358
-4.45738e-05
-0.000362878
-0.000162541
-3.97911e-05
-0.000416867
-0.000215071
-3.69938e-05
-0.000693795
-0.000201288
-4.17187e-05
-0.00148485
-0.000224068
-2.64227e-05
-0.000833142
-0.00163171
-1.16861e-05
0.00244475
-0.00142834
-2.87532e-05
0.00336427
-0.00151703
-9.71067e-05
0.00297474
-0.000885073
0.00014951
0.00392358
-0.00135147
0.000155767
0.00347334
-0.00156526
3.28518e-05
0.00260968
-0.000677381
0.000122337
0.00423001
-0.000919811
0.000152277
0.00417618
-0.00126164
0.000239543
0.00390788
-0.00171482
0.000114369
0.00299158
-0.000587366
0.000417035
0.00452924
-0.000704519
0.000209328
0.00442275
-0.00100468
0.00011335
0.00428722
-0.00133686
0.000189212
0.00389891
-0.0016955
0.000104994
0.00268117
-0.000431388
0.000530171
0.00456461
-0.000381675
0.000401539
0.00460779
-0.000733094
0.000300915
0.00438076
-0.000852533
0.000289415
0.00420377
-0.0016597
0.000207029
0.0040586
-0.00205508
0.000144116
0.00245902
-0.000243982
0.000799909
0.00539318
-0.000152651
0.00064438
0.00518913
-0.000337252
0.000559256
0.00492862
-0.000567146
0.000413332
0.00493509
-0.000960817
0.000355395
0.00446537
-0.00140706
0.000252641
0.00352822
-0.00196032
0.000141072
0.002621
4.45542e-05
0.00113864
0.00593873
6.86561e-05
0.000896211
0.00590338
-8.00172e-05
0.000830629
0.00571873
-0.000277736
0.000638046
0.00552171
-0.000701759
0.000488676
0.00467211
-0.00101442
0.000420915
0.00459701
-0.00161663
0.000373797
0.00382162
-0.00185365
6.7634e-05
0.00333263
-0.000331855
0.00102624
0.00646303
-0.00025528
0.00097619
0.00647428
-0.000119583
0.000928966
0.00684863
-0.000372553
0.000791835
0.0066531
-0.000849062
0.000276319
0.00583592
-0.000955553
0.000451707
0.00634449
-0.0011526
0.000324996
0.00602788
-0.00128945
0.000103726
0.00562734
-0.00165491
-0.000146929
0.00431885
-0.000580081
0.00119254
0.0075321
-0.000410473
0.00108547
0.00757573
-0.000388156
0.00115177
0.00745503
-9.48101e-05
0.00123918
0.00704765
-0.000589703
0.00120847
0.0067159
-0.000981167
0.00100335
0.00660302
-0.000593002
0.000859895
0.00693783
-0.000865247
0.000498212
0.00745422
-0.00131958
0.000230291
0.00684975
-0.00161232
4.43687e-05
0.0046338
-0.00057391
0.00116207
0.0074418
-0.000411607
0.0010259
0.00760374
-0.000506605
0.00105191
0.00773967
-0.000346681
0.00100556
0.00707721
-0.000615618
0.00101275
0.00627685
-0.000956411
0.000832351
0.00589642
-0.00101258
0.000634069
0.00620967
-0.00106865
0.000321576
0.00585249
-0.000974064
0.000148001
0.00562453
-0.00135336
0.000163776
0.00574908
-0.0017847
7.64668e-05
0.00405015
-0.000396399
0.000684009
0.00580404
-0.000283494
0.000581461
0.00594228
-0.000455527
0.000559416
0.00582674
-0.000500773
0.00042126
0.00601135
-0.000618537
0.000358886
0.00562394
-0.000657254
0.000590388
0.00521533
-0.000853199
0.00058501
0.0052694
-0.00102245
0.000725826
0.00567138
-0.00118852
0.000371214
0.00569561
-0.00128363
0.000277933
0.00541684
-0.00130074
0.000281881
0.00563124
-0.00166142
9.38898e-05
0.00469998
-0.000215218
0.000797151
0.00299379
-0.000224495
0.000663596
0.00287836
-0.000369597
0.000594541
0.00213649
-0.000147192
0.000410477
0.00209629
-0.000352707
0.000352218
0.00264717
-0.000460885
0.000317212
0.00349907
-0.000584581
0.000208743
0.00394572
-0.000702916
0.000189776
0.00414342
-0.00093756
0.000249832
0.00460619
-0.00101883
0.000400248
0.00551212
-0.00112219
0.000369808
0.00544688
-0.00123202
0.000297703
0.00614503
-0.00132164
0.000241309
0.00624611
-0.000205468
0.000287281
0.00175221
-0.00012717
0.000273168
0.00197619
-7.48314e-05
0.000209458
0.00225859
-0.000104768
0.000187942
0.00208786
-3.33714e-05
0.000144393
0.00104506
-5.7956e-05
0.000195819
0.000686108
-0.000184883
0.000260361
0.000494033
-0.00033397
0.000285935
0.00124245
-0.000517038
0.000220762
0.00243034
-0.000635305
0.000264329
0.00283714
-0.000886111
0.000279789
0.00361236
-0.000985655
0.000220835
0.00446111
-0.00104095
0.000198651
0.00497133
-0.00106322
0.000169144
0.00546551
-0.000214459
-0.000149128
-0.000587313
-8.78114e-05
-0.000165778
-0.000441475
-8.83454e-06
-0.000159567
0.000556375
-2.05262e-06
-0.000101538
0.00076868
2.97e-05
-4.95723e-05
0.000524953
2.99741e-05
-4.07183e-05
8.13014e-05
2.45755e-05
-4.08792e-05
5.48575e-05
-2.45423e-05
-3.64079e-05
0.000184158
-0.000108749
1.6579e-05
-0.000370698
-0.00017468
0.000126966
0.000369845
-0.000314691
0.000232388
0.00106463
-0.000491102
0.000270713
0.00130462
-0.000595427
0.000240016
0.00198779
-0.00062637
0.000158428
0.00301919
-0.000641481
7.97307e-05
0.00341129
-8.63143e-05
-3.39026e-05
-0.00125602
-8.75055e-05
-3.44836e-05
-0.000835364
-2.47739e-05
-4.41148e-05
-0.00112382
7.9667e-07
-4.0664e-05
-0.00100385
8.6438e-06
-3.0724e-05
-0.000811571
3.73416e-05
-3.27225e-05
-0.000617949
5.75938e-05
-3.61447e-05
-0.000435637
3.20403e-05
-4.04784e-05
-0.000323453
-4.11323e-06
-4.2151e-05
4.55512e-05
-6.36414e-05
-2.73863e-05
0.000155942
-9.53887e-05
-3.28405e-05
-3.13014e-05
-0.000121319
-4.73958e-05
-0.000233954
-0.000161783
-4.21787e-05
-0.000249898
-0.000215584
-3.88647e-05
-0.000481065
-0.000197368