/*--------------------------------*- C++ -*----------------------------------*\
  =========                 |
  \\      /  F ield         | OpenFOAM: The Open Source CFD Toolbox
   \\    /   O peration     | Website:  https://openfoam.org
    \\  /    A nd           | Version:  7
     \\/     M anipulation  |
\*---------------------------------------------------------------------------*/
FoamFile
{
    version     2.0;
    format      ascii;
    class       surfaceScalarField;
    location    "6.5";
    object      phi_0;
}
// * * * * * * * * * * * * * * * * * * * * * * * * * * * * * * * * * * * * * //

dimensions      [0 3 -1 0 0 0 0];

internalField   nonuniform List<scalar> 
54125
(
-2.2123e-05
-2.70742e-05
-0.00364063
-0.000175682
3.45796e-05
-0.00128403
-3.43061e-05
-3.93104e-05
-0.00362539
-5.72184e-05
-2.82676e-05
-0.00355515
-0.000338825
-7.06096e-06
0.00268663
-0.000287832
9.92438e-05
-0.00161408
-0.000270624
4.17593e-05
-0.00111238
-0.00010513
-3.2342e-05
-0.00277685
-6.73073e-05
-3.84543e-05
-0.00354789
-7.37617e-05
-2.35742e-05
-0.00345781
-0.000425016
0.000159979
0.00531747
-0.000119617
-3.26954e-05
0.00214274
-0.000427194
-5.78762e-06
0.00284899
-0.000260454
0.000126923
-0.001484
-0.000349392
0.000103122
-0.00139336
-0.000331569
5.34982e-05
-0.000908073
-6.78778e-05
-4.37379e-05
-0.00192797
-0.00011116
-2.87658e-05
-0.00267538
-7.7197e-05
-3.47022e-05
-0.00345957
-0.000109542
-2.51901e-05
-0.00332308
-0.00103036
0.000528489
0.0051802
0.000287305
-6.74708e-06
0.00588483
-0.000684471
7.7111e-05
0.00549763
-0.000195839
-0.000102622
0.00163827
-0.000255232
-5.07552e-05
0.00209354
-0.000538761
2.14247e-05
0.00303476
-0.000184609
0.000132041
-0.00144505
-0.000293966
0.000131522
-0.00132959
-0.00042528
0.000127768
-0.00111955
-0.000412249
5.51349e-05
-0.000660502
-4.97463e-05
-3.30409e-05
-0.00122572
-7.563e-05
-3.98165e-05
-0.00184128
-0.000131757
-2.83752e-05
-0.00254995
-0.000104719
-3.62845e-05
-0.00334375
-0.000130986
-2.37402e-05
-0.00316835
-0.00148276
0.000518987
0.00661157
0.00034581
0.000176369
0.0062261
-0.00133423
0.000470755
0.0053592
8.60127e-05
-0.000246984
0.00505244
-1.17895e-05
-0.000176152
0.00589465
-0.000890782
4.8814e-05
0.00580084
-0.000292637
-4.11325e-05
0.000935857
-0.00030929
-0.000101074
0.00170391
-0.000359977
-6.51165e-06
0.00205618
-0.000655093
5.6939e-05
0.00322066
-0.00010127
8.54135e-05
-0.00114271
-0.000217514
0.000146848
-0.00131849
-0.000372953
0.000156858
-0.00111749
-0.00048159
0.000129536
-0.000817078
-0.000499636
6.47238e-05
-0.000356576
-1.15406e-05
-2.51759e-05
-0.000563305
-5.3322e-05
-2.90662e-05
-0.00118315
-8.8249e-05
-3.79588e-05
-0.00174345
-0.00014775
-2.8944e-05
-0.00240954
-0.000117628
-3.53594e-05
-0.0032145
-0.000159051
-2.39295e-05
-0.00298537
-0.00170813
6.49016e-05
0.00670391
0.000155678
0.000294141
0.00799699
-0.00140932
0.000568179
0.00611848
0.000355236
0.000111879
0.0064766
-0.000167543
0.000319556
0.00653306
-0.00158959
0.000288302
0.00576971
-0.000391674
-0.000408604
0.00439587
-0.000214422
-0.000297358
0.00507878
0.000180335
-0.000277749
0.0056809
-0.00102704
0.000116477
0.00605631
-0.000281537
0.000108942
0.000662885
-0.000372682
-1.73069e-05
0.00100726
-0.000398954
-8.75723e-05
0.00181097
-0.000449125
4.48971e-05
0.00203575
-0.000833437
9.10119e-05
0.00346345
4.93007e-05
-5.01047e-06
-0.0010958
-0.000133961
9.80069e-05
-0.00101323
-0.000280991
0.000175563
-0.00114446
-0.000426011
0.000156207
-0.000865898
-0.00052559
0.000142623
-0.000487016
-0.000555322
7.81715e-05
-3.84754e-05
-7.42442e-06
-3.65519e-05
-0.000258865
-2.2217e-05
-2.10224e-05
-0.000549131
-6.3503e-05
-2.65355e-05
-0.00113107
-0.000106429
-3.81188e-05
-0.00162785
-0.000163431
-2.9018e-05
-0.00225245
-0.000138605
-3.53455e-05
-0.00306448
-0.000176443
-2.43385e-05
-0.00278459
-0.00190532
1.83034e-05
0.00355833
-0.00103213
0.000758614
0.00775358
-0.00148988
0.000154376
0.0066301
0.000646733
0.000530036
0.00593225
-0.000336182
0.0007658
0.00796801
-0.00159281
0.000445031
0.00567667
-0.000127986
0.000105458
0.00500477
-7.60231e-05
0.000320866
0.00633689
0.000101527
0.00046069
0.00643948
-0.00159016
0.000475444
0.00585738
-0.000487822
-0.00030461
0.0031063
-0.000420199
-0.000333023
0.00447905
2.45305e-05
-0.000414392
0.00479194
-0.000320475
-5.66626e-05
0.00572539
-0.00129025
0.000217998
0.00629512
-6.34724e-05
0.000177643
0.000689632
-0.000370502
9.86346e-05
0.000783485
-0.000467806
-4.96588e-06
0.00111147
-0.0005029
1.53867e-05
0.00191737
-0.000604869
6.55661e-05
0.00214048
-0.000930423
0.000174407
0.00366415
0.000114696
-5.30606e-05
-0.000875766
-1.67533e-05
8.1118e-06
-0.00101137
-0.000168507
0.000125113
-0.000857778
-0.000349921
0.000190634
-0.000935391
-0.000485529
0.000168783
-0.00056996
-0.000569296
0.000159311
-0.000137465
-0.000613451
8.30423e-05
0.000315491
2.23573e-05
-4.03146e-05
2.87705e-05
-1.3073e-05
-3.27845e-05
-0.00023403
-3.49384e-05
-1.92908e-05
-0.000521438
-7.2553e-05
-2.62867e-05
-0.00107035
-0.000117474
-3.73636e-05
-0.00150203
-0.000175914
-2.84531e-05
-0.00208343
-0.000151866
-3.56062e-05
-0.00290135
-0.000193645
-2.39718e-05
-0.00256697
-0.00199098
0.000182926
0.00313328
-0.0016492
0.000297571
0.00511242
-0.00175063
-0.000189101
0.00400818
0.000296771
0.000847496
0.00739034
-0.00117436
0.000860029
0.0078861
-0.00151347
0.000247215
0.00630354
0.000224604
0.000611939
0.00554475
-6.08319e-06
0.000801666
0.00582645
-0.000688927
0.0011927
0.00801079
-0.00166184
0.000522311
0.00522604
-0.00039358
2.34173e-05
0.00433822
-0.000193102
0.000342428
0.00475612
0.000153188
0.00072661
0.00594232
-0.000447573
0.000996125
0.00604589
-0.00175274
0.000691047
0.00562883
-0.000257649
-0.000121759
0.00310956
-0.000540048
-0.000215789
0.00315862
-0.000321254
-0.000391433
0.00430954
-0.000293119
-0.000118762
0.00464426
-0.000507246
0.000113106
0.00573266
-0.00133457
0.000289986
0.00640929
0.000107599
0.000141209
0.000233338
-0.000189915
0.00015165
0.000809778
-0.000428364
0.000105987
0.000932389
-0.000540906
3.27397e-05
0.0012851
-0.000612658
3.69247e-05
0.00207314
-0.000688391
0.000164939
0.00226904
-0.00104836
0.000215463
0.0038836
0.00010853
-6.79722e-05
9.06934e-05
6.69673e-05
-4.51968e-05
-0.000902498
-6.21077e-05
2.363e-05
-0.000882718
-0.000216163
0.000143252
-0.000666786
-0.000396853
0.000203781
-0.00069101
-0.000527997
0.000190243
-0.000248809
-0.000611212
0.000157614
0.00024731
-0.000654835
9.00266e-05
0.000686654
4.93151e-05
-4.06152e-05
-2.28903e-05
1.85396e-05
-3.76983e-05
1.51449e-05
-1.94388e-05
-3.23957e-05
-0.000201486
-4.23725e-05
-1.80944e-05
-0.000487257
-8.34043e-05
-2.60379e-05
-0.000998268
-0.000127194
-3.64704e-05
-0.00136682
-0.000186058
-2.86872e-05
-0.00190429
-0.000165481
-3.54623e-05
-0.00272438
-0.000202853
-2.4293e-05
-0.00233983
-0.00196608
0.000120381
0.00285136
-0.00128942
0.000210998
0.00379778
-0.0018381
0.000296296
0.00292446
-0.000770645
0.00100851
0.00715572
-0.00147196
6.0284e-05
0.00516063
-0.00170203
-0.000284984
0.00448172
2.36728e-05
0.00107708
0.00664004
-0.000303025
0.00098589
0.00756142
-0.00150473
0.000881428
0.00806769
-0.001579
0.000268572
0.00595213
-0.00010431
0.000595156
0.00551045
-6.99689e-06
0.000776778
0.00538354
-0.000310191
0.00114873
0.0063338
-0.000797694
0.00160949
0.00727373
-0.00183087
0.000679162
0.004625
-8.77434e-06
0.000112768
0.00442423
-0.0003588
0.000241133
0.00425826
-0.000159794
0.000760549
0.00456072
-0.000171825
0.00119765
0.0056195
-0.000498804
0.00118315
0.00554535
-0.00168687
0.000534556
0.00544658
-0.000199781
0.000102139
0.00263965
-0.000376451
-0.000111525
0.00319183
-0.000462222
-0.000215948
0.00301699
-0.000438932
-9.0693e-05
0.00417949
-0.000571467
7.27459e-05
0.00464343
-0.000801451
0.000312438
0.00582327
-0.00144989
0.000382301
0.00642851
0.000186995
0.000113455
-0.000150223
-1.63684e-05
0.000138324
0.000329999
-0.000272498
0.000149779
0.000976376
-0.000487103
7.36224e-05
0.00116245
-0.000627585
0.000119569
0.00143319
-0.000744512
0.000121339
0.00233326
-0.000915939
0.000191206
0.00259802
-0.00109989
0.000249363
0.00407929
6.96663e-05
-5.55165e-05
0.000125738
7.48605e-05
-6.15062e-05
5.06819e-05
4.03741e-05
-4.09188e-05
-0.000897762
-8.8218e-05
3.15756e-05
-0.000725195
-0.000228324
0.000152002
-0.000470087
-0.000416577
0.000212789
-0.000424172
-0.000558093
0.000199894
8.09462e-05
-0.000624361
0.000160516
0.000635701
-0.00069196
9.42739e-05
0.00108149
7.93538e-05
-3.85037e-05
-2.79413e-05
4.44158e-05
-3.86256e-05
-6.6379e-05
1.49621e-05
-3.86513e-05
6.4384e-06
-2.57762e-05
-3.17267e-05
-0.000162078
-5.39154e-05
-1.74487e-05
-0.000441931
-9.57302e-05
-2.7911e-05
-0.000911097
-0.000137723
-3.65696e-05
-0.00122121
-0.000196564
-2.88626e-05
-0.00171432
-0.00017522
-3.61597e-05
-0.00253729
-0.000215002
-2.43067e-05
-0.00210052
-0.00161209
8.23634e-06
0.00335456
-0.00128104
0.000304966
0.0043554
-0.00196653
0.000158217
0.00282157
-0.000881913
0.000261936
0.00511478
-0.00128946
0.000196615
0.00371496
-0.00188863
0.000293285
0.00281778
-0.000442354
0.00135879
0.00693131
-0.000726303
0.000885161
0.00675412
-0.00171717
1.64398e-05
0.00507165
-0.00163983
-0.00025942
0.00480197
5.39544e-05
0.00118066
0.00671463
-0.000128772
0.00110071
0.006647
-0.000641771
0.00110867
0.00766576
-0.0016839
0.000762841
0.00845962
-0.00167061
0.000383485
0.00540839
0.000292897
0.00073507
0.0062193
-0.000110086
0.000748654
0.00528986
-0.00032888
0.000892965
0.00580838
-0.000390522
0.00146077
0.00670121
-0.000688249
0.00169654
0.0064458
-0.00187819
0.000552891
0.00426343
-3.92331e-05
0.000175395
0.00461166
-0.000312409
0.000252885
0.00434843
-0.000316989
0.000510926
0.00436265
-0.000452216
0.00113868
0.00463296
-0.000446736
0.00123103
0.00544689
-0.00105549
0.000891548
0.00544239
-0.00162316
0.000608473
0.00501138
-0.000112993
0.000275779
0.00224981
-0.000314049
5.79677e-05
0.00276784
-0.000436349
-7.10268e-05
0.00321076
-0.000521133
-7.3471e-05
0.0030338
-0.000720412
2.59875e-05
0.00431908
-0.000877457
0.000326141
0.00476267
-0.000971992
0.000471654
0.00578997
-0.00146961
0.000448279
0.00634996
0.000110425
0.000105866
0.000173608
5.60058e-05
0.000125316
-0.00011836
-0.000101897
0.00015358
0.000468469
-0.00035244
0.000141723
0.0011725
-0.000510257
0.000180144
0.00138381
-0.000677592
7.17874e-05
0.00174375
-0.000832535
0.000145148
0.00265376
-0.000978998
0.000240025
0.002962
-0.00116944
0.000261841
0.00429492
8.05649e-05
-4.14197e-05
-2.28029e-05
5.35195e-05
-4.60471e-05
0.000101176
5.84147e-05
-6.21033e-05
2.84139e-05
1.31132e-05
-3.5343e-05
-0.000869732
-0.000113347
4.04733e-05
-0.000554235
-0.000291557
0.000153218
-0.000214689
-0.000442798
0.000226385
-0.000145587
-0.000577076
0.000214401
0.000407574
-0.000645721
0.000160566
0.00103991
-0.000716794
9.21894e-05
0.00149109
6.88881e-05
-3.30252e-05
-0.000363903
7.19208e-05
-3.62566e-05
-0.000102231
4.50383e-05
-3.9348e-05
-0.000110721
1.14019e-05
-3.93267e-05
2.63659e-06
-3.24714e-05
-3.10415e-05
-0.000116014
-6.43081e-05
-1.87531e-05
-0.000386781
-0.000101747
-3.12806e-05
-0.000814639
-0.000144378
-3.63956e-05
-0.0010693
-0.000203817
-2.90249e-05
-0.00151764
-0.000186268
-3.65207e-05
-0.00233881
-0.00022548
-2.48545e-05
-0.00185018
-0.00117281
-0.000265946
0.00368299
-0.00127861
0.000131905
0.00444606
-0.00173794
7.89757e-05
0.003047
-0.000851616
0.000375436
0.00450567
-0.00136499
0.000262631
0.00432652
-0.00195242
0.000162933
0.00272242
-0.000807241
0.0005455
0.00568912
-0.000818363
0.000273079
0.00513038
-0.00146886
0.000151564
0.00360836
-0.00186717
0.000261914
0.0027832
-0.000161087
0.00157245
0.00688506
-0.000283884
0.00122654
0.00674504
-0.000789772
0.00068029
0.00623827
-0.00180211
-0.000190897
0.00512135
-0.00155421
-0.000264289
0.00494986
3.09046e-05
0.00128705
0.00720525
8.1516e-05
0.00114634
0.00647739
-0.000399951
0.00108992
0.00673682
-0.000779389
0.00109977
0.0077177
-0.00112368
0.000870887
0.00840766
-0.00180534
0.000330354
0.00500518
0.000128602
0.00107323
0.00683863
8.95826e-05
0.000777059
0.00578891
-0.000595179
0.000891111
0.00556991
-0.000479957
0.00109362
0.00620328
-0.000178488
0.00154627
0.00658323
-0.000814645
0.00109642
0.00566143
-0.00178892
0.000325559
0.00410363
-0.000227066
0.000246356
0.00539702
-0.000265603
0.000233657
0.00458244
-0.000456947
0.000374923
0.00450503
-0.000458975
0.000760951
0.00467823
-0.000828301
0.00103261
0.00493927
-0.000862852
0.0010504
0.00527343
-0.00118191
0.000839024
0.00542176
-0.00165564
0.000428531
0.00476887
-8.11588e-05
0.000313662
0.00190941
-0.000289659
0.000241075
0.00241237
-0.00045162
4.9549e-05
0.00299698
-0.000506906
-1.31612e-05
0.00330492
-0.00075745
-2.94738e-05
0.00333645
-0.000829933
0.000207249
0.00459031
-0.000950841
0.000470283
0.00488235
-0.00113024
0.000555405
0.00583409
-0.00150019
0.000402907
0.0062778
2.64081e-05
0.000139844
0.000869371
4.53262e-05
0.000114068
0.000193049
-2.66464e-05
0.000157
-3.67189e-05
-0.000143689
0.000181564
0.000585431
-0.000396042
0.000178163
0.00145717
-0.000587606
0.000109706
0.00164194
-0.000759192
7.43953e-05
0.0021309
-0.000915174
0.000221137
0.00301074
-0.00105298
0.000231827
0.00339927
-0.00117682
0.000242451
0.0045125
5.92499e-05
-6.00881e-05
0.000415537
5.77669e-05
-3.50826e-05
-1.96135e-05
5.23187e-05
-4.581e-05
7.76021e-05
4.53371e-05
-6.01596e-05
1.92953e-05
-1.69767e-05
-2.74905e-05
-0.000817263
-0.000134135
5.14235e-05
-0.000382613
-0.000318548
0.000172403
5.60944e-05
-0.000455347
0.000241977
0.000137805
-0.000591597
0.000219251
0.000736669
-0.000664171
0.00016119
0.00144881
-0.000749351
8.90122e-05
0.00192595
4.58696e-05
-3.1776e-05
-0.000723026
5.48119e-05
-3.0517e-05
-0.000424455
7.00549e-05
-3.6791e-05
-0.000174843
4.64007e-05
-3.92125e-05
-0.000157236
7.72145e-06
-3.99097e-05
3.78338e-06
-3.9549e-05
-3.02941e-05
-6.49236e-05
-7.26916e-05
-2.09312e-05
-0.000324439
-0.000107183
-3.61425e-05
-0.000707709
-0.000152014
-3.66062e-05
-0.000909705
-0.000208673
-3.04476e-05
-0.00131504
-0.000193961
-3.80559e-05
-0.00213165
-0.000227501
-2.49269e-05
-0.00159776
-0.00131738
0.000251245
0.00352832
-0.00129649
-0.000176913
0.00404306
-0.0013127
-5.76084e-05
0.00331536
-0.000873395
0.00028977
0.00430146
-0.00137208
6.47958e-05
0.00446733
-0.00188222
8.81149e-05
0.00288868
-0.000685591
0.000397061
0.00451533
-0.000868558
0.000331912
0.00448658
-0.00131501
0.00022127
0.00411433
-0.00189904
0.00013723
0.00261706
-0.000334086
0.000738301
0.00603302
-0.000526191
0.000516449
0.00568805
-0.000757463
0.000303376
0.00494626
-0.00151132
0.000210073
0.00336942
-0.00184254
0.000155696
0.00291583
-1.89121e-05
0.00162259
0.00664817
-5.66784e-05
0.00136159
0.00688822
-0.000257039
0.000917261
0.00636515
-0.00101243
0.000283202
0.00599721
-0.00133975
-0.00023585
0.00530898
-0.0015959
-0.000102974
0.00484339
-0.000216841
0.0013406
0.00754986
0.00020215
0.00113298
0.00710605
-0.000384093
0.00107728
0.00627895
-0.000496792
0.00103672
0.0068167
-0.000390287
0.00110633
0.00769407
-0.0009413
0.000757567
0.0081071
-0.00179978
0.000274548
0.00474149
-0.000254462
0.00119245
0.00743555
-6.52535e-05
0.000904794
0.00651055
-0.000339407
0.000897263
0.00566522
-0.000751246
0.00101971
0.00593609
-0.000540246
0.00104851
0.00641298
-0.000487872
0.00115897
0.0061457
-0.00105042
0.000397448
0.00545805
-0.00183414
0.000299722
0.00398241
-0.000410765
0.000426142
0.00571882
-0.00038698
0.00028442
0.00544358
-0.000451275
0.000290618
0.0046664
-0.000448279
0.000500584
0.00470677
-0.000821034
0.000695456
0.00507897
-0.000924595
0.000854387
0.00522994
-0.00104455
0.000894178
0.00531198
-0.0013153
0.000532806
0.00550254
-0.00164518
0.000232865
0.004681
-0.000153238
0.00043334
0.00184197
-0.000158494
0.000281417
0.00207289
-0.000418071
0.000187943
0.0026654
-0.000505023
9.08881e-05
0.00325427
-0.000555274
5.56678e-05
0.00337901
-0.000845458
0.000127728
0.00367382
-0.00091436
0.000398609
0.00481715
-0.00107952
0.000517348
0.00508475
-0.00120392
0.000454813
0.00593312
-0.00147512
0.000334927
0.00624118
-0.000126254
0.000174006
0.00173218
-1.1941e-05
0.000135813
0.000917334
-6.67263e-06
0.000130831
0.000278209
-7.87346e-05
0.000186947
8.19697e-05
-0.000194614
0.000212232
0.000729
-0.000441566
0.000183799
0.00169051
-0.000598558
9.86581e-05
0.00189768
-0.000822019
0.000148617
0.00257009
-0.000962601
0.00023559
0.00337799
-0.0010765
0.000234866
0.00381918
-0.00123247
0.000205659
0.00478996
5.40231e-05
-0.000120486
0.000561628
3.53518e-05
-5.04826e-05
0.000450397
4.20633e-05
-3.57792e-05
-1.65274e-06
5.49375e-05
-4.57444e-05
5.46502e-05
1.23668e-05
-5.53297e-05
4.24892e-05
-4.69008e-05
-1.68378e-05
-0.00074165
-0.000150283
7.03239e-05
-0.000202943
-0.000337005
0.000202254
0.000325639
-0.000472013
0.000251521
0.000425533
-0.000600595
0.00022561
0.00106417
-0.000683775
0.000158234
0.0018694
-0.000729667
8.73267e-05
0.00234079
1.64027e-05
-4.25252e-05
-0.00101928
3.19207e-05
-2.93765e-05
-0.000756087
5.04431e-05
-3.10444e-05
-0.000480645
6.76181e-05
-3.66685e-05
-0.000245005
4.64313e-05
-3.90817e-05
-0.000204495
5.26737e-06
-4.0724e-05
8.94583e-06
-4.56322e-05
-2.95048e-05
-1.07179e-05
-8.01392e-05
-2.46665e-05
-0.000255775
-0.000110666
-3.92472e-05
-0.000594402
-0.000158305
-3.76026e-05
-0.000744245
-0.000214532
-3.24358e-05
-0.00110613
-0.000198594
-3.86564e-05
-0.00191932
-0.000228013
-2.55025e-05
-0.00134424
-0.00170597
0.00015799
0.00272268
-0.00133169
0.000249153
0.00391093
-0.00133831
0.000372462
0.00318147
-0.00101353
3.03485e-05
0.00428887
-0.00136393
-4.06408e-05
0.00401794
-0.00171684
-2.43012e-05
0.00317428
-0.000585659
0.000280543
0.00447286
-0.000909226
0.000150898
0.00425603
-0.00122932
9.003e-05
0.00437973
-0.00178608
-8.76971e-07
0.00277661
-0.000289075
0.00047517
0.00502247
-0.000689419
0.000348547
0.00466192
-0.000786936
0.000232354
0.00450497
-0.0012701
0.000235678
0.00377467
-0.00200651
0.000140469
0.00264056
-3.01122e-05
0.000916771
0.00613586
-6.27123e-05
0.000679812
0.00587569
-0.000246028
0.000537381
0.00544304
-0.00091934
0.000282615
0.00478063
-0.00168593
0.000172097
0.0036992
-0.00184381
0.000129324
0.00303442
-0.000180735
0.00143132
0.00665607
-3.46422e-05
0.00132229
0.00692426
-0.000114121
0.00110654
0.00642896
-0.000487655
0.000497355
0.00614186
-0.000672839
0.000187874
0.00585604
-0.00122298
4.08584e-05
0.00544683
-0.00159788
-7.47331e-05
0.00471622
-0.000295508
0.00133236
0.0074494
-0.000167593
0.00117745
0.00760772
-0.000210572
0.00105654
0.00699795
-0.000838826
0.000978511
0.00642474
-0.000608601
0.00101995
0.00697142
-0.000682502
0.000918183
0.00772808
-0.000927316
0.000709483
0.00754906
-0.00184826
8.18693e-05
0.00467374
-0.000557373
0.0011552
0.00774022
-0.000337663
0.00104225
0.00724877
-0.000347893
0.000975317
0.00632911
-0.000516295
0.000989506
0.00576344
-0.000868094
0.000926764
0.00610489
-0.000618755
0.000919177
0.00634693
-0.000766699
0.00050504
0.00576027
-0.00142488
0.000281861
0.0055855
-0.00181769
0.000181945
0.00397298
-0.000416253
0.000661101
0.00560476
-0.000398439
0.000414346
0.00582884
-0.000492478
0.000293106
0.0055155
-0.000539092
0.00037826
0.00482279
-0.000600779
0.000577616
0.00487012
-0.000922419
0.000802721
0.0052076
-0.00103235
0.000853397
0.00538872
-0.00121807
0.000530337
0.00545301
-0.00135635
0.000286504
0.00560133
-0.00162668
0.000176297
0.00465626
-0.000304501
0.000602063
0.00215349
-0.000242466
0.000391756
0.00196215
-0.000257174
0.000266576
0.00224476
-0.000473011
0.000212535
0.00293803
-0.000529076
0.000166916
0.00347748
-0.000632073
0.00014697
0.00355027
-0.00074855
0.000242484
0.00397994
-0.000993588
0.000426637
0.00507944
-0.00105194
0.000473813
0.00515509
-0.00120879
0.000398496
0.00600185
-0.00148228
0.000272769
0.00621822
-9.80684e-05
0.000205309
0.00214174
-0.000153923
0.000166284
0.00189098
1.19807e-05
0.000140961
0.000937287
-3.8003e-05
0.000152046
0.000406051
-0.000128278
0.000213752
0.000221095
-0.000273932
0.000238712
0.000901119
-0.000455387
0.000198146
0.00189613
-0.000640487
0.000144751
0.00220503
-0.000819599
0.000220381
0.00293289
-0.000978233
0.000233943
0.00375655
-0.00111151
0.000216229
0.00423635
-0.00116747
0.000188667
0.00503909
3.69376e-06
-0.000178478
0.000428086
2.71783e-05
-0.000105904
0.000621791
4.32297e-05
-4.88157e-05
0.000470647
3.76768e-05
-3.63633e-05
1.89074e-05
4.34889e-05
-4.51639e-05
4.74269e-05
7.74767e-06
-5.00152e-05
7.31863e-05
-8.041e-05
-7.09095e-06
-0.000629457
-0.000173991
9.90936e-05
-5.93066e-06
-0.000347361
0.000220152
0.000593703
-0.000490398
0.000257488
0.000725749
-0.00061013
0.000230395
0.00138761
-0.000685484
0.000156523
0.0022871
-0.000695089
8.60319e-05
0.00272183
-5.38911e-06
-4.69907e-05
-0.00116908
8.78061e-06
-3.95352e-05
-0.0010179
2.41683e-05
-2.97074e-05
-0.000781593
4.74814e-05
-3.17049e-05
-0.00053309
6.50331e-05
-3.63863e-05
-0.000312734
4.34304e-05
-3.94266e-05
-0.000249223
2.50238e-06
-4.15872e-05
1.85258e-05
-5.14713e-05
-2.86182e-05
4.47052e-05
-8.60532e-05
-2.69375e-05
-0.000182032
-0.000114936
-4.16936e-05
-0.000475375
-0.000162669
-3.91502e-05
-0.000574862
-0.000215341
-3.38299e-05
-0.000895616
-0.000200044
-4.20965e-05
-0.00170268
-0.000226005
-2.61136e-05
-0.00109212
-0.00168287
-3.05599e-05
0.00289709
-0.00142279
0.000190945
0.00341373
-0.00153567
0.000125719
0.00279433
-0.000892526
0.000158335
0.00415637
-0.00126195
0.000261473
0.00391994
-0.001723
0.000176325
0.0030113
-0.000690506
0.000147453
0.00450645
-0.00101492
7.88841e-05
0.00427503
-0.00121498
1.16408e-05
0.00396766
-0.00162268
2.44238e-05
0.00298645
-0.000216926
0.000352426
0.00455287
-0.000660716
0.000250099
0.00434496
-0.000887438
0.000166508
0.00428005
-0.00125047
0.000195039
0.00416418
-0.0019156
0.000125685
0.00256001
-0.000284195
0.000707971
0.00524262
-0.000173889
0.00045981
0.00502238
-0.000557687
0.000348741
0.00485719
-0.000833626
0.000286266
0.00436867
-0.00169843
0.000238984
0.00368865
-0.00201484
0.000176557
0.00263504
-0.000130886
0.00103031
0.0061508
-1.37332e-05
0.000837438
0.00595733
-0.000219786
0.000666701
0.00585203
-0.000361228
0.0005101
0.00508912
-0.000747734
0.000259921
0.0047677
-0.00149803
0.000290832
0.00381274
-0.00183084
9.99364e-05
0.00316744
-8.99671e-06
0.00120667
0.00641806
-0.000130233
0.00115362
0.00678738
-0.000179428
0.0011019
0.00689775
-0.000528378
0.000700626
0.00591524
-0.000924843
0.00036188
0.0062841
-0.00106605
0.000325063
0.00595538
-0.0013196
8.4905e-05
0.00567948
-0.00160065
1.60611e-05
0.00445255
-0.000518116
0.00126576
0.00754102
-0.000381775
0.00113434
0.00753662
-0.000243712
0.00111546
0.00744461
-0.00058635
0.00112882
0.0069177
-0.00102223
0.00107029
0.00652854
-0.000734918
0.00092689
0.00707888
-0.000815277
0.000802158
0.00768398
-0.00124256
0.000328566
0.00712005
-0.00194648
7.77323e-05
0.0047248
-0.000573015
0.00115073
0.0076253
-0.000420083
0.00106207
0.00774206
-0.000427009
0.00101885
0.00713976
-0.000407548
0.00098118
0.00620589
-0.000681693
0.00100373
0.00576739
-0.000819563
0.000781368
0.00613984
-0.000749832
0.000590552
0.0059789
-0.000995295
0.000206552
0.0056128
-0.00147951
0.000159503
0.0057311
-0.00166988
9.43521e-05
0.00392183
-0.00032232
0.000658695
0.00591065
-0.000479036
0.000583468
0.00567221
-0.000490525
0.000417312
0.00593799
-0.000391695
0.000321085
0.00549136
-0.000545292
0.000447904
0.00496872
-0.000809543
0.000820403
0.0050299
-0.000953698
0.00063906
0.00562708
-0.00114244
0.00052374
0.00554416
-0.00102612
0.000342399
0.00537129
-0.00128541
0.000209537
0.00564471
-0.00159836
0.000182412
0.00458993
-0.000304819
0.000720388
0.0028398
-0.000266209
0.000558416
0.00209912
-0.000164336
0.000380823
0.00202422
-0.000330748
0.000313107
0.00243694
-0.000567136
0.000274283
0.00326952
-0.000634984
0.000223106
0.0037624
-0.000653953
0.000142495
0.00384883
-0.000795941
0.000305954
0.00425608
-0.0010008
0.000403461
0.00533099
-0.00118364
0.000411318
0.00534768
-0.00124346
0.000338995
0.00606757
-0.00143949
0.000236066
0.00625418
-9.07317e-05
0.000270932
0.00192764
-7.38959e-05
0.000196704
0.00221239
-0.000126685
0.000180404
0.00202146
2.37051e-05
0.000133175
0.000970129
-5.66376e-05
0.00016683
0.0005531
-0.0001207
0.000249164
0.000339091
-0.000318466
0.00026662
0.0010707
-0.000503073
0.000216915
0.00215304
-0.000723368
0.000198006
0.00260341
-0.000850306
0.000233039
0.0032937
-0.00099504
0.000230415
0.00412727
-0.00109805
0.00020051
0.00463708
-0.00108633
0.000187198
0.00524313
-5.71759e-05
-0.000176439
-0.000514
1.23601e-06
-0.00016156
0.000491287
6.43379e-06
-0.000103684
0.000694394
3.28382e-05
-4.75619e-05
0.000496489
3.1924e-05
-4.01392e-05
4.69918e-05
3.88138e-05
-4.39677e-05
4.59959e-05
-2.24938e-05
-4.356e-05
0.000134651
-8.44681e-05
3.1936e-06
-0.000500561
-0.000188918
0.000117721
0.000199365
-0.000344996
0.000228052
0.000853199
-0.000502602
0.000265439
0.00103064
-0.000601471
0.000236791
0.00169347
-0.000661216
0.000157956
0.00267634
-0.000673518
8.23643e-05
0.00308698
-8.81927e-05
-3.79612e-05
-0.000907711
-1.46274e-05
-4.32222e-05
-0.00115077
6.73296e-06
-3.97295e-05
-0.00101461
1.68061e-05
-3.03602e-05
-0.000799743
4.14797e-05
-3.22327e-05
-0.000578723
6.18382e-05
-3.62648e-05
-0.000377734
3.81561e-05
-3.98659e-05
-0.0002891
-1.57478e-06
-4.21289e-05
3.36112e-05
-5.78211e-05
-2.77349e-05
0.000103324
-9.08889e-05
-2.92411e-05
-0.000103596
-0.000116359
-4.48217e-05
-0.000353344
-0.000161543
-4.10064e-05
-0.000406143
-0.000213851
-3.81963e-05
-0.000685665
-0.000199076
-4.27503e-05
-0.00148697
-0.000221584
-2.68491e-05
-0.000843689
-0.00163027
-1.09759e-05
0.00244331
-0.00143236
-2.97676e-05
0.00336592
-0.00151754
-9.88542e-05
0.00297781
-0.000884732
0.000148044
0.00392516
-0.00135228
0.000155127
0.00347465
-0.0015654
3.20694e-05
0.00260466
-0.000679586
0.000121475
0.00423076
-0.000925972
0.000153268
0.00417563
-0.00126166
0.000237037
0.0039059
-0.0017149
0.000114706
0.00298882
-0.000581354
0.000419172
0.00453075
-0.000707339
0.000210259
0.00442169
-0.00100267
0.000115569
0.00428633
-0.00134461
0.000193013
0.00389321
-0.00170342
0.000103789
0.00267048
-0.000427981
0.000531358
0.00456715
-0.000382304
0.000403865
0.00460752
-0.000733817
0.000303825
0.00438377
-0.000851289
0.000292365
0.00420039
-0.00166319
0.000207342
0.00404727
-0.00205627
0.000145448
0.00245599
-0.000236126
0.000799641
0.00540092
-0.00014991
0.000647587
0.00519102
-0.000343947
0.000564064
0.00493122
-0.000567046
0.000414336
0.00493494
-0.000966861
0.000358685
0.0044681
-0.00140813
0.000256381
0.00351892
-0.00195967
0.000140435
0.00262343
3.46386e-05
0.00113733
0.00592095
7.19805e-05
0.000898401
0.00588762
-8.69103e-05
0.000828853
0.00570266
-0.000287358
0.000634544
0.00548657
-0.0007202
0.000485669
0.00465873
-0.00102346
0.000424615
0.00459133
-0.00162004
0.000374107
0.003839
-0.00184814
6.82958e-05
0.00334663
-0.000336351
0.00101882
0.00647344
-0.0002656
0.000961147
0.00649436
-0.000129465
0.000904979
0.00687006
-0.000389294
0.000746488
0.00665483
-0.000860263
0.000262809
0.00585235
-0.000950085
0.000461487
0.00636284
-0.00115475
0.000322032
0.00605773
-0.00128145
0.000101454
0.00563297
-0.00165502
-0.000161221
0.00432231
-0.000570234
0.00117787
0.00753356
-0.000402969
0.00108531
0.00757294
-0.000382692
0.00115446
0.0074533
-0.00010016
0.00124825
0.00701779
-0.000586284
0.00120287
0.00668971
-0.000959958
0.000991627
0.0066042
-0.000603887
0.000838901
0.00689619
-0.000869973
0.000469878
0.00741735
-0.00132861
0.000218512
0.00682837
-0.00160557
4.74556e-05
0.00461304
-0.000584633
0.0011568
0.00745766
-0.00040119
0.00102225
0.00758726
-0.000514236
0.00104838
0.00773624
-0.000349796
0.00100618
0.00707287
-0.000629044
0.00101086
0.00628251
-0.000981012
0.000819957
0.00590027
-0.00103284
0.000621874
0.00618766
-0.00110008
0.000309759
0.00583334
-0.000996895
0.000145167
0.00559791
-0.00135271
0.000167604
0.00572514
-0.0017945
7.4689e-05
0.00404328
-0.000400987
0.000682139
0.00579969
-0.000282837
0.000580404
0.00593035
-0.000451017
0.000554792
0.00582141
-0.000504204
0.000419946
0.00601258
-0.000632706
0.000364001
0.00564083
-0.000664474
0.000593009
0.00522561
-0.000844932
0.000592495
0.00526745
-0.00103271
0.000724265
0.00566333
-0.00119829
0.000370949
0.00571311
-0.00128725
0.000278747
0.00540569
-0.00130828
0.000284365
0.00560758
-0.00165871
9.64038e-05
0.00471274
-0.000215271
0.000797977
0.00299292
-0.000223568
0.000665679
0.00288221
-0.000382802
0.000598568
0.00213749
-0.000149506
0.000414559
0.00209598
-0.000351142
0.000357207
0.00264852
-0.000462954
0.000319781
0.0035151
-0.000585538
0.000206147
0.00396582
-0.000706578
0.000186835
0.00417145
-0.000936444
0.000245569
0.00462705
-0.00102159
0.000397647
0.00551594
-0.00113302
0.000361085
0.00546357
-0.00123158
0.000297693
0.00613946
-0.00131828
0.000238408
0.00624772
-0.000209525
0.000286441
0.00175233
-0.000131487
0.000272104
0.00198497
-7.78076e-05
0.000209515
0.00226752
-0.00010417
0.000187497
0.00210414
-3.67512e-05
0.000143745
0.00106189
-5.84381e-05
0.000196518
0.000702998
-0.000184835
0.000261361
0.000506692
-0.000332966
0.000288739
0.00124738
-0.000512432
0.000226784
0.00244778
-0.000630468
0.000273257
0.00284866
-0.000889454
0.000280999
0.00362997
-0.000982982
0.000221689
0.0044876
-0.00103181
0.000199512
0.00499536
-0.00105542
0.000165795
0.00545923
-0.000215497
-0.000148863
-0.000577396
-8.90563e-05
-0.000165548
-0.000435585
-1.06452e-05
-0.00015952
0.000564501
-4.7333e-06
-0.000101069
0.000769441
2.92567e-05
-4.97489e-05
0.000518321
2.95406e-05
-4.13945e-05
7.67162e-05
2.37421e-05
-4.18088e-05
5.86585e-05
-2.50302e-05
-3.74561e-05
0.000198757
-0.000109641
1.55981e-05
-0.000346618
-0.000174569
0.000125473
0.000385624
-0.000313441
0.000230429
0.00108529
-0.000487886
0.000271166
0.00132261
-0.000591245
0.000241383
0.00198743
-0.000619832
0.000158492
0.00302097
-0.000633582
7.83246e-05
0.00342065
-8.67582e-05
-3.3872e-05
-0.00125026
-8.7857e-05
-3.44042e-05
-0.000828673
-2.50706e-05
-4.39449e-05
-0.00112148
1.66888e-08
-4.04124e-05
-0.00100458
8.14583e-06
-3.05849e-05
-0.000809537
3.71072e-05
-3.27428e-05
-0.000619352
5.74592e-05
-3.62383e-05
-0.000438821
3.17266e-05
-4.06048e-05
-0.000322351
-4.47199e-06
-4.22832e-05
5.26315e-05
-6.3914e-05
-2.75991e-05
0.000165596
-9.5635e-05
-3.27815e-05
-2.00008e-05
-0.000121345
-4.77043e-05
-0.000225301
-0.000160839
-4.34682e-05
-0.000240032
-0.000213857
-4.02368e-05
-0.000474321
-0.000195047