/*--------------------------------*- C++ -*----------------------------------*\
  =========                 |
  \\      /  F ield         | OpenFOAM: The Open Source CFD Toolbox
   \\    /   O peration     | Website:  https://openfoam.org
    \\  /    A nd           | Version:  7
     \\/     M anipulation  |
\*---------------------------------------------------------------------------*/
FoamFile
{
    version     2.0;
    format      ascii;
    class       volVectorField;
    location    "6.5";
    object      U;
}
// * * * * * * * * * * * * * * * * * * * * * * * * * * * * * * * * * * * * * //

dimensions      [0 1 -1 0 0 0 0];

internalField   nonuniform List<vector> 
18750
(
(2.58726 -0.205539 -0.168693)
(1.04464 -0.520694 -0.203495)
(2.62141 0.148108 -1.01044)
(2.56691 -0.292471 -0.147157)
(-1.81584 -1.60048 -0.408345)
(1.20478 -1.5822 0.713867)
(0.7746 -1.32748 -0.229731)
(1.93322 -0.906559 -0.636837)
(2.53085 -0.0457724 -1.07293)
(2.49527 -0.275644 -0.151715)
(-3.63472 -0.111546 0.331033)
(-1.6024 -1.66467 0.320807)
(-1.80281 -2.15332 -0.33221)
(0.879689 -1.65269 0.679151)
(1.10864 -2.01235 0.882889)
(0.877044 -1.62887 -0.183721)
(1.35316 -0.614527 -0.694299)
(1.95516 -0.966263 -0.61168)
(2.53541 0.142244 -0.925689)
(2.46006 -0.408071 -0.159685)
(-3.64729 -1.63032 1.40966)
(-3.79272 1.37052 0.555515)
(-3.60284 -0.793603 0.492762)
(-1.14125 -1.16481 -0.585853)
(-1.45164 -2.25026 0.242188)
(-1.80244 -2.6321 -0.242429)
(0.946632 -1.03931 1.00671)
(1.05308 -1.83774 0.72329)
(1.05794 -2.3271 1.01708)
(0.916802 -2.1123 -0.14188)
(0.854162 -0.579058 -1.10219)
(1.33497 -0.665427 -0.701878)
(1.94165 -1.00802 -0.609082)
(2.45664 -0.095423 -0.990434)
(2.44947 -0.31878 -0.143941)
(-4.61721 -2.58272 1.31831)
(-4.14836 0.650335 0.840426)
(-3.43986 -3.06717 0.915691)
(-3.45329 0.185665 -0.444836)
(-3.97768 0.624195 -0.0477595)
(-3.68939 -1.49137 0.568161)
(-0.683764 -1.03219 -0.3536)
(-1.12561 -1.67887 -0.732028)
(-1.14869 -2.82002 0.379074)
(-1.69043 -3.11807 -0.0490111)
(0.749859 -0.47742 0.877164)
(0.965877 -1.17831 1.21292)
(1.10178 -2.13529 0.9514)
(1.05457 -2.53167 1.01254)
(0.878275 -2.68689 -0.0798555)
(0.38936 -0.466917 -0.277709)
(0.860778 -0.584876 -1.08683)
(1.36669 -0.680854 -0.68454)
(1.91413 -1.01103 -0.618408)
(2.45001 -0.0359367 -0.909937)
(2.37088 -0.523549 -0.144111)
(-4.651 -2.16883 -0.809206)
(-5.45873 1.11523 0.419709)
(-4.26122 -3.50615 0.0804046)
(-4.43558 0.700577 -0.088136)
(-4.03276 -1.04775 1.36492)
(-3.33601 -3.97956 0.143147)
(-2.87619 -0.763648 -0.958905)
(-3.41854 -0.543603 -0.876786)
(-4.02371 0.0911679 -0.319791)
(-3.82543 -2.19296 0.524535)
(-0.531997 -0.69909 -0.00568436)
(-0.60334 -1.45548 -0.272957)
(-1.01453 -2.31551 -0.549098)
(-0.906823 -3.33621 0.488442)
(-1.58346 -3.63579 0.127746)
(0.776814 0.465205 0.275962)
(0.7723 -0.567326 1.06702)
(1.02233 -1.35965 1.37299)
(1.01619 -2.34501 0.917507)
(1.0729 -2.71022 1.10102)
(0.976116 -2.94018 0.0297387)
(0.180478 -0.230596 -0.75241)
(0.40818 -0.522226 -0.235887)
(0.873298 -0.600354 -0.997235)
(1.32137 -0.760639 -0.688479)
(1.89762 -1.03648 -0.617085)
(2.38748 -0.144579 -0.935213)
(2.3927 -0.546778 -0.141828)
(-2.37381 -2.63698 0.618608)
(-5.0648 -0.128993 1.01982)
(-4.41433 -1.96054 -0.625572)
(-4.24676 1.02321 0.669566)
(-5.46874 -0.193931 2.00148)
(-3.64405 -4.21104 -1.08942)
(-3.52806 -0.844898 0.417782)
(-4.20594 -0.646713 0.29831)
(-4.97435 0.541928 1.02574)
(-3.54122 -4.3663 -0.415144)
(-2.02012 -1.17702 -1.32528)
(-3.00621 -1.40136 -0.958816)
(-3.36251 -0.834814 -1.39157)
(-3.95056 -0.230363 0.0285007)
(-3.5048 -3.34326 0.560656)
(-0.308177 -0.0854531 0.779444)
(-0.411856 -1.10605 0.0680222)
(-0.620772 -2.01887 -0.364892)
(-0.891446 -2.74331 -0.121027)
(-0.639347 -3.69426 0.582184)
(-1.46558 -4.08781 0.380553)
(0.588791 0.215246 -0.334019)
(0.722179 0.300871 0.400068)
(0.681609 -0.731126 1.30019)
(0.967193 -1.62459 1.40324)
(1.05901 -2.54646 1.00724)
(1.03708 -2.90124 1.19821)
(1.01677 -3.20586 0.154429)
(-0.00946309 0.336574 -0.796746)
(0.181346 -0.276929 -0.713406)
(0.436617 -0.584394 -0.198957)
(0.884858 -0.619741 -0.98903)
(1.31608 -0.738393 -0.682046)
(1.89048 -1.05493 -0.608798)
(2.33578 -0.12528 -0.931965)
(2.34539 -0.654342 -0.127097)
(-2.24284 -2.1992 -0.0803358)
(-3.33935 -2.86661 -0.52911)
(-2.30025 -2.92255 0.618021)
(-4.88063 1.63152 1.16301)
(-5.23828 -1.0581 1.13145)
(-4.13395 -2.4664 -0.101269)
(-3.85421 0.59179 1.03826)
(-3.99087 0.0731344 1.26892)
(-5.34157 -0.905275 2.67973)
(-3.15786 -4.36566 -1.91513)
(-2.98355 -0.923435 0.0448814)
(-3.19123 -0.960028 1.08894)
(-4.42897 0.385879 0.978964)
(-3.73267 -2.44697 2.46663)
(-2.73611 -5.07521 0.213918)
(-2.05924 -0.270576 -0.514326)
(-2.11074 -1.83415 -1.06632)
(-2.80945 -1.79807 -1.35356)
(-2.99382 -1.38858 -0.543161)
(-3.56033 -1.30665 0.659668)
(-3.4954 -4.02242 0.701133)
(-0.0841098 0.900495 0.697472)
(-0.55568 -0.594763 0.699105)
(-0.482366 -1.33744 0.254315)
(-0.345644 -2.55039 0.110738)
(-0.594459 -3.23482 -0.0175902)
(-0.447048 -4.07775 1.01916)
(-1.16508 -4.52465 0.588343)
(-0.0753952 0.105079 -0.438753)
(0.607569 0.173387 -0.255315)
(0.631042 0.114195 0.563749)
(0.676637 -0.859094 1.50519)
(0.939989 -1.76287 1.4836)
(1.05033 -2.69604 1.17265)
(1.05473 -3.08724 1.14966)
(1.06885 -3.40909 0.300605)
(0.015399 0.602831 -0.871867)
(-0.0194415 0.34032 -0.812146)
(0.182475 -0.318704 -0.67145)
(0.459175 -0.631314 -0.197137)
(0.896679 -0.645776 -0.953106)
(1.29172 -0.794581 -0.651868)
(1.88947 -1.0745 -0.612334)
(2.29381 -0.197471 -0.912824)
(2.3078 -0.607353 -0.121902)
(-2.02181 -2.29313 -0.113525)
(-2.54183 -1.28225 0.455907)
(-1.91768 -2.29421 0.199046)
(-4.65639 -0.631105 1.28655)
(-3.30078 -3.07287 -1.0792)
(-2.65072 -2.88226 0.270434)
(-4.42298 0.581685 1.52729)
(-4.98904 -0.0643755 1.60331)
(-5.09321 -2.27852 1.0039)
(-3.83455 -3.02172 0.167839)
(-3.66525 -0.431897 1.21869)
(-3.54706 -0.19475 1.70929)
(-3.82398 -0.503957 2.2718)
(-5.1695 -1.25091 3.67098)
(-2.38771 -4.52066 -1.3779)
(-3.09256 -0.674062 -0.0596429)
(-2.78983 -1.10987 0.625)
(-3.1432 -0.386794 2.1233)
(-3.71576 -0.974874 2.50483)
(-3.55688 -2.69491 2.94705)
(-2.60411 -5.12374 0.473797)
(-1.74235 -0.128666 -0.200865)
(-2.03764 -0.888704 -0.378243)
(-1.86682 -2.23712 -1.12007)
(-2.66061 -1.81989 -0.452808)
(-2.84147 -1.77481 0.00956272)
(-3.81266 -1.74237 0.931845)
(-3.04274 -4.64859 0.834446)
(0.118928 1.0392 0.486847)
(-0.225613 0.554515 0.703522)
(-0.499533 -0.971014 0.577569)
(-0.356074 -1.77658 0.157697)
(-0.300913 -3.03484 0.200552)
(-0.540546 -3.63019 0.493707)
(-0.12045 -4.44218 1.16742)
(-0.966516 -4.86542 0.793901)
(-0.0840599 0.313407 -0.486612)
(-0.0387064 0.0435167 -0.467685)
(0.614463 0.118348 -0.173317)
(0.575701 0.0474415 0.614598)
(0.641419 -1.02771 1.60902)
(0.936474 -1.82936 1.62764)
(1.03759 -2.82074 1.20939)
(1.02766 -3.20552 1.10072)
(1.12151 -3.59048 0.354595)
(0.01491 0.924097 -0.838185)
(0.00663643 0.632779 -0.907772)
(-0.0322498 0.326269 -0.828235)
(0.187047 -0.3636 -0.617543)
(0.489085 -0.67581 -0.215234)
(0.906834 -0.675843 -0.924086)
(1.24735 -0.828506 -0.661376)
(1.85654 -1.10829 -0.621778)
(2.24064 -0.209727 -0.926884)
(2.28387 -0.672396 -0.127147)
(-2.47309 -1.58823 -0.0180466)
(-3.04204 -1.39271 0.347754)
(-1.80627 -2.47771 -0.0270277)
(-3.37369 -0.985559 0.0929194)
(-2.54218 -1.37557 0.511736)
(-1.6729 -2.50336 0.251197)
(-4.59012 -0.242656 1.52677)
(-4.68712 -1.04543 1.25612)
(-3.10738 -3.42021 -1.10979)
(-2.64631 -2.87341 0.204454)
(-4.54161 0.495529 1.76124)
(-4.47168 -0.00240809 1.77214)
(-5.00036 -1.31449 1.86636)
(-5.01656 -3.06919 0.669096)
(-3.13548 -3.65921 0.197332)
(-4.26767 1.05364 0.880808)
(-3.61326 -0.756178 1.49866)
(-3.63871 -1.00831 1.96073)
(-4.28894 -1.04628 3.0702)
(-4.57288 -1.5873 3.7319)
(-1.91364 -4.35504 -0.372749)
(-3.11438 -0.641457 0.383539)
(-2.83059 -1.20567 0.557211)
(-2.82183 -0.569574 1.6368)
(-2.91185 -1.16699 3.1954)
(-3.39852 -2.26835 3.00574)
(-2.59941 -4.15855 2.07057)
(-1.98105 -5.15505 0.663484)
(-1.40207 0.159941 0.764186)
(-1.78678 -0.770435 -0.374377)
(-2.09581 -1.31722 -0.326434)
(-1.73163 -2.29837 -0.281051)
(-2.43443 -2.04046 0.283593)
(-2.54975 -2.47326 0.972801)
(-3.07689 -3.06064 1.41036)
(-2.72705 -4.99137 0.929107)
(-0.0990828 0.470079 0.458884)
(0.0977597 0.826656 0.573197)
(-0.284662 0.336038 0.740045)
(-0.48862 -1.25113 0.390242)
(-0.570419 -1.78746 0.915606)
(-0.177123 -3.2285 0.411285)
(-0.448396 -4.01761 0.619852)
(-0.230756 -4.54282 1.28939)
(-0.663064 -5.14338 0.92227)
(0.0189408 0.530985 -0.294711)
(-0.0872371 0.246218 -0.453996)
(-0.0129526 -0.0473437 -0.47925)
(0.609073 0.064688 -0.0966241)
(0.482303 -0.159417 0.673092)
(0.618039 -1.25942 1.58765)
(0.900037 -1.96257 1.71577)
(1.05808 -2.9132 1.30807)
(1.03402 -3.33125 1.10179)
(1.1596 -3.74256 0.348624)
(0.223235 0.72062 -0.767895)
(0.00711721 0.928633 -0.880217)
(-0.00484726 0.656617 -0.930328)
(-0.0453007 0.309015 -0.842298)
(0.190277 -0.40692 -0.567334)
(0.517404 -0.752733 -0.325237)
(0.901439 -0.690772 -0.927851)
(1.24741 -0.831699 -0.65048)
(1.84812 -1.09912 -0.627749)
(2.18482 -0.262014 -0.918648)
(2.19371 -0.735599 -0.125162)
(-2.62154 -1.26435 -0.0930732)
(-2.96691 -1.02785 0.0318754)
(-1.97757 -2.09856 0.0979438)
(-3.03961 -0.918119 0.314568)
(-2.78222 -1.96069 0.366293)
(-1.66419 -2.53455 -0.039567)
(-3.72179 -0.715826 0.45788)
(-3.36988 -1.16672 0.0523197)
(-2.2144 -1.98401 0.45946)
(-1.49117 -2.58983 0.154116)
(-4.57039 -0.0880742 1.98961)
(-4.57237 -0.586763 1.49281)
(-4.29528 -1.46358 1.18637)
(-2.70887 -3.72866 -1.01127)
(-2.74699 -2.77676 0.147718)
(-4.6688 0.310214 1.89897)
(-4.47121 0.27516 1.93528)
(-4.39224 -0.759787 1.9537)
(-4.88705 -1.8112 1.81762)
(-5.25395 -2.90135 1.03714)
(-2.46795 -4.18737 -0.00995053)
(-4.70113 0.89411 1.84043)
(-4.03242 -0.376145 1.36918)
(-3.40575 -1.52399 1.75563)
(-3.76831 -1.88772 2.45328)
(-4.48281 -1.31542 3.49481)
(-3.513 -2.56407 2.48689)
(-1.61553 -4.17163 -0.0995539)
(-3.60235 -0.520186 0.442503)
(-2.98521 -0.979776 0.605648)
(-2.81013 -1.35916 0.85383)
(-2.80422 -1.01285 2.55495)
(-2.68953 -2.82125 3.10453)
(-2.68954 -3.74738 2.50693)
(-2.49411 -4.18317 2.1485)
(-1.36176 -5.14605 0.377494)
(-1.16358 0.239929 0.852833)
(-1.56436 -0.525433 0.737364)
(-1.75031 -1.37305 -0.180662)
(-1.92566 -1.76821 -0.255176)
(-1.51626 -2.59708 -0.122332)
(-2.52638 -2.35637 0.901387)
(-2.53859 -2.98582 1.53538)
(-2.69091 -3.81743 1.76935)
(-2.05675 -5.38895 0.88582)
(-0.523969 0.346538 0.37083)
(-0.129688 0.41673 0.579069)
(-0.048729 0.731791 0.682955)
(-0.370273 0.12482 0.836306)
(-0.582665 -1.38405 0.533998)
(-0.34014 -2.27137 0.284833)
(-0.13997 -3.42389 0.468213)
(-0.30131 -4.14295 0.980664)
(-0.100506 -4.66111 1.31875)
(-0.492177 -5.34232 0.879068)
(-0.244902 0.541396 -0.290993)
(-0.000791191 0.515282 -0.254507)
(-0.0784239 0.213765 -0.449843)
(0.0149386 -0.129888 -0.466472)
(0.605645 0.00208028 -0.0208807)
(0.424361 -0.297683 0.728575)
(0.529212 -1.36136 1.68075)
(0.870997 -2.07211 1.82321)
(1.05339 -3.0032 1.31187)
(1.03699 -3.47587 1.06411)
(1.17985 -3.87663 0.329996)
(0.46677 0.448733 -0.622138)
(0.227339 0.66998 -0.784603)
(-0.000630502 0.921391 -0.886058)
(-0.0170051 0.67433 -0.94194)
(-0.0600923 0.291594 -0.85381)
(0.196024 -0.451024 -0.515764)
(0.555097 -0.823648 -0.474412)
(0.883968 -0.716774 -0.926051)
(1.2375 -0.86707 -0.645819)
(1.84592 -1.09126 -0.650107)
(2.12808 -0.283869 -0.934212)
(2.13345 -0.730118 -0.122643)
(-2.43711 -0.52138 0.249725)
(-2.79046 -1.12045 -0.356461)
(-2.26731 -1.5493 0.0599388)
(-2.89992 -0.597174 0.222867)
(-2.88978 -1.28475 0.0547892)
(-1.75544 -2.27317 0.0398069)
(-3.04248 -0.928402 0.462993)
(-2.90113 -1.18917 0.254636)
(-2.66761 -2.13197 0.378685)
(-1.40381 -2.5779 -0.045802)
(-3.97029 -0.046599 0.857378)
(-3.74108 -0.51939 0.582789)
(-3.30463 -1.33471 -0.0159395)
(-2.04381 -2.15521 0.482662)
(-1.36217 -2.65756 0.0236733)
(-4.33753 -0.0436097 2.26434)
(-4.53563 -0.26256 2.03454)
(-4.30102 -1.17638 1.0064)
(-3.65942 -2.05784 0.533585)
(-3.15274 -2.66425 -0.967199)
(-2.62194 -2.94374 0.0281202)
(-4.9383 -0.123819 2.14088)
(-4.76722 0.617673 1.91466)
(-4.08154 -1.17206 1.76262)
(-4.4087 -0.937952 1.94393)
(-5.04329 -1.38645 1.92606)
(-5.14531 -2.57527 1.10574)
(-2.0828 -4.22196 -0.120254)
(-5.05233 -0.0432272 2.25073)
(-4.44198 -0.182964 1.70526)
(-3.5846 -1.40625 1.70202)
(-3.53647 -2.01524 2.07087)
(-3.82756 -2.36477 2.58737)
(-3.84479 -2.04039 2.57332)
(-2.66268 -3.51813 1.21846)
(-1.13029 -4.24863 0.150578)
(-3.74237 -0.535899 0.655531)
(-3.52363 -1.132 0.565188)
(-2.9652 -1.39468 0.884352)
(-2.80461 -1.57704 1.26642)
(-2.87722 -2.31607 2.25903)
(-2.55599 -3.61782 2.72713)
(-2.41264 -3.95522 2.1046)
(-1.98763 -4.54639 1.69659)
(-1.06728 -5.09601 0.156541)
(-1.24288 -0.143524 0.986829)
(-1.30505 -0.17794 0.838566)
(-1.58664 -1.18659 0.484347)
(-1.85782 -1.64867 0.129449)
(-1.8212 -2.10723 -0.11733)
(-1.65236 -2.8232 0.386837)
(-2.33675 -2.92744 1.37374)
(-2.02135 -3.62595 1.77565)
(-2.22327 -4.50316 1.62238)
(-1.77039 -5.58635 0.758163)
(-1.06723 0.119869 0.759292)
(-0.584446 0.143992 0.411221)
(-0.185444 0.423726 0.730571)
(-0.0461841 0.672281 0.837301)
(-0.370198 -0.176384 0.99177)
(-0.645639 -1.55105 0.592879)
(-0.371345 -2.58606 0.229754)
(-0.309367 -3.59738 0.802607)
(-0.300041 -4.31469 0.851292)
(-0.0632404 -4.81739 1.23109)
(-0.0903526 -5.56018 0.751035)
(-0.343277 0.384259 -0.539259)
(-0.319244 0.411347 -0.291812)
(-0.0399845 0.45979 -0.249115)
(-0.0736354 0.218239 -0.430983)
(0.0393709 -0.22118 -0.421841)
(0.596301 -0.0829455 0.101051)
(0.356658 -0.391159 0.909243)
(0.479747 -1.44246 1.78992)
(0.899582 -2.18749 1.87256)
(1.07758 -3.07091 1.3667)
(1.05443 -3.60319 1.01375)
(1.1315 -3.91175 0.306343)
(0.65973 0.0876774 -0.705088)
(0.476645 0.413441 -0.625173)
(0.229972 0.617523 -0.797727)
(-0.00883003 0.905233 -0.863129)
(-0.0276631 0.682953 -0.95274)
(-0.0747917 0.272962 -0.86403)
(0.203587 -0.49555 -0.463032)
(0.602582 -0.895471 -0.691134)
(0.884475 -0.71615 -0.916201)
(1.21215 -0.887586 -0.683946)
(1.78508 -1.13278 -0.703059)
(2.0846 -0.312605 -0.937996)
(2.06818 -0.770439 -0.127868)
(-1.77234 -1.44211 0.00720933)
(-2.54644 -0.849659 0.144608)
(-2.23326 -0.939607 0.358188)
(-2.85994 -0.845566 0.0279262)
(-2.52706 -1.62635 -0.158555)
(-1.945 -1.8316 -0.0105753)
(-2.97859 -0.280335 0.332679)
(-2.75556 -0.92589 0.0789014)
(-2.85177 -1.32977 0.135381)
(-1.64736 -2.24168 -0.128971)
(-3.35404 -0.543759 0.337604)
(-2.91977 -1.02685 0.503759)
(-2.89924 -1.20565 0.16221)
(-2.38793 -2.25585 0.329904)
(-1.16689 -2.6635 0.118109)
(-4.08818 0.271964 0.905078)
(-3.94326 -0.163234 0.774891)
(-3.7164 -0.297216 0.724467)
(-2.85801 -1.79476 0.110405)
(-1.78161 -2.43391 0.351784)
(-1.2263 -2.81929 -0.0275382)
(-4.21781 -0.240255 2.063)
(-4.41799 -0.238422 2.08877)
(-4.455 -0.653768 1.65864)
(-3.85564 -1.84315 0.420591)
(-3.72692 -1.82181 0.227193)
(-2.84286 -2.74428 -0.31732)
(-2.337 -3.07711 0.00701816)
(-4.86989 -0.496037 2.13481)
(-4.96479 -0.0961808 2.03099)
(-4.65504 -0.345401 1.86191)
(-3.92914 -1.74135 1.59925)
(-4.39228 -1.27465 1.77417)
(-4.73419 -1.95026 1.47977)
(-4.71763 -2.584 1.16513)
(-1.55707 -4.31923 0.0227762)
(-5.04486 -0.730521 2.18888)
(-4.80266 -0.558568 2.04438)
(-4.12203 -1.2365 1.91843)
(-3.64395 -1.46957 1.95951)
(-3.51323 -2.75719 1.74089)
(-3.83882 -2.49162 2.24815)
(-3.32552 -2.97484 0.67881)
(-2.44417 -3.83597 0.948303)
(-0.955078 -4.24956 0.177085)
(-3.71866 -0.473763 1.35826)
(-3.80333 -0.879992 0.798482)
(-3.51179 -1.46323 0.57498)
(-2.90162 -1.73247 1.13982)
(-2.99396 -1.83756 1.33305)
(-2.81807 -3.10479 1.58297)
(-2.38543 -3.82119 2.3887)
(-2.02798 -4.21744 1.14629)
(-1.98262 -4.68677 0.939855)
(-0.786334 -5.00207 0.0789959)
(-1.47274 -0.969778 1.53763)
(-1.25133 -0.329549 0.99996)
(-1.41341 -0.673373 0.736614)
(-1.57704 -1.67721 0.437683)
(-1.90174 -1.86702 0.389192)
(-1.67123 -2.41275 0.347108)
(-1.83462 -2.71462 1.1989)
(-2.01025 -3.54585 1.42734)
(-1.7903 -4.18675 1.31251)
(-1.84272 -4.90338 1.34019)
(-1.14047 -5.86928 0.575252)
(-1.35665 0.219414 0.634616)
(-1.16372 -0.0554109 0.806557)
(-0.630263 -0.0376089 0.405196)
(-0.245368 0.426972 0.843161)
(-0.266238 0.363918 0.983799)
(-0.485362 -0.523528 1.00307)
(-0.716212 -1.73498 0.522014)
(-0.331682 -2.82931 0.55312)
(-0.228763 -3.68949 1.10506)
(-0.231045 -4.42403 0.941492)
(0.0414503 -5.02384 1.04839)
(-0.0523622 -5.57622 0.68288)
(-0.244497 0.210194 -1.16177)
(-0.399588 0.190511 -0.471095)
(-0.346801 0.367424 -0.307522)
(-0.0697764 0.402417 -0.25983)
(-0.0753681 0.199029 -0.401309)
(0.0497144 -0.27514 -0.372553)
(0.563123 -0.15195 0.208378)
(0.282332 -0.457019 1.2372)
(0.434297 -1.52688 1.87751)
(0.876625 -2.3076 1.89168)
(1.08315 -3.13524 1.37781)
(0.996755 -3.67971 0.985897)
(1.08388 -3.90143 0.278533)
(0.787338 -0.0609473 -1.03785)
(0.649736 0.0551139 -0.735277)
(0.482463 0.377427 -0.628174)
(0.238428 0.563471 -0.810007)
(-0.0116609 0.886627 -0.839443)
(-0.0313432 0.667345 -0.973762)
(-0.0879901 0.246844 -0.87335)
(0.217368 -0.537254 -0.409431)
(0.640064 -0.930688 -0.83684)
(0.886857 -0.741886 -0.911107)
(1.18937 -0.913864 -0.710031)
(1.77491 -1.10838 -0.722214)
(2.03697 -0.337508 -0.951714)
(2.00378 -0.780279 -0.133871)
(-1.89124 -0.937613 -0.0393698)
(-2.21073 -1.13392 0.207166)
(-1.77146 -1.53157 -0.0740082)
(-2.73127 -0.629889 0.233697)
(-2.51169 -1.08177 0.25443)
(-1.77164 -1.66112 0.0705378)
(-2.94168 -0.584987 0.0250137)
(-2.7582 -1.10469 0.0699973)
(-2.53338 -1.63481 -0.0378785)
(-1.79545 -1.91175 0.0389151)
(-3.03271 0.161521 0.195137)
(-2.8205 -0.737438 0.228155)
(-2.71923 -1.06719 0.0517937)
(-2.72591 -1.40297 0.126774)
(-1.21451 -2.44216 0.0593197)
(-3.42044 -0.119936 0.682037)
(-3.3164 -0.236144 0.312443)
(-3.06232 -0.93673 0.357665)
(-2.74112 -1.41351 0.229221)
(-1.82864 -2.64974 0.199761)
(-1.0751 -2.67779 0.140464)
(-4.03605 0.0506961 1.20094)
(-3.96947 -0.095081 1.01335)
(-3.82715 -0.370808 0.700059)
(-3.46468 -0.664514 0.565855)
(-3.03089 -1.51932 0.124447)
(-1.99787 -2.32681 0.334474)
(-1.16604 -2.9263 -0.133959)
(-4.15237 -0.0229488 1.80749)
(-4.38839 -0.683051 1.81126)
(-4.52064 -0.869313 1.73468)
(-3.85018 -1.87961 1.02775)
(-3.63908 -2.30005 0.362202)
(-3.27001 -2.47957 0.387628)
(-2.80731 -2.92048 -0.218936)
(-2.00745 -3.20802 0.0506063)
(-4.94868 -0.800857 2.0125)
(-4.84976 -0.78419 2.0405)
(-4.94586 -0.741354 1.82486)
(-4.40398 -1.68149 1.6263)
(-3.96392 -2.02603 1.68239)
(-4.3064 -2.009 1.60766)
(-4.58324 -2.48553 1.26669)
(-3.53722 -4.02605 0.289238)
(-1.24688 -4.4384 0.0324013)
(-4.97552 -0.789065 2.11214)
(-5.05299 -0.952658 2.18126)
(-4.5453 -1.39705 2.05283)
(-3.8945 -1.72098 1.9747)
(-3.43301 -2.2547 2.01252)
(-3.52181 -2.82792 1.61329)
(-3.37233 -2.96021 1.50808)
(-2.46379 -3.65598 0.319236)
(-2.1499 -4.22127 0.496175)
(-0.661983 -4.25719 0.0245168)
(-3.85301 -0.431386 1.55438)
(-3.67919 -1.22455 1.34359)
(-3.78359 -1.1943 0.835328)
(-3.47982 -1.55146 0.758055)
(-2.85971 -1.93587 1.40531)
(-2.53285 -2.13009 2.50269)
(-2.64773 -3.0676 1.99273)
(-2.34632 -3.95069 1.61079)
(-2.48552 -3.87841 0.63336)
(-1.78756 -4.57478 0.681072)
(-0.724366 -4.77381 -0.0179229)
(-1.84391 -0.849438 1.94865)
(-1.3448 -1.28312 1.52236)
(-1.26531 -0.0799363 0.965306)
(-1.354 -1.07608 0.886627)
(-1.68458 -1.96237 0.665961)
(-1.78085 -2.28561 0.532776)
(-1.73324 -2.56645 0.280541)
(-1.7491 -2.92048 1.37028)
(-2.0545 -3.77853 1.67051)
(-1.49328 -4.51466 1.18517)
(-1.46224 -5.23254 1.13773)
(-1.03408 -5.84866 0.44192)
(-1.22968 -0.143451 1.14339)
(-1.43644 0.0839018 0.657584)
(-1.28785 -0.00824157 0.857442)
(-0.60017 -0.0674687 0.476888)
(-0.423977 0.246956 0.890042)
(-0.16167 0.387493 1.19542)
(-0.3067 -0.862376 1.17344)
(-0.550765 -2.00469 0.570894)
(-0.276356 -2.97567 0.910559)
(-0.170039 -3.88359 1.00923)
(-0.119011 -4.56835 0.9563)
(0.117033 -5.14592 0.955193)
(-0.0162644 -5.43369 0.61756)
(0.35835 -0.122035 -1.27916)
(-0.295764 0.158132 -1.16929)
(-0.443108 0.0413187 -0.42275)
(-0.37501 0.368771 -0.307641)
(-0.10065 0.352591 -0.274816)
(-0.0672948 0.141841 -0.366738)
(0.0567316 -0.333694 -0.323239)
(0.532385 -0.228419 0.314008)
(0.209755 -0.551765 1.41514)
(0.374822 -1.60542 1.92967)
(0.897288 -2.36953 1.92891)
(1.07289 -3.15576 1.36188)
(0.943834 -3.68675 0.987032)
(1.02888 -3.89853 0.230623)
(0.604595 -0.921027 -0.979087)
(0.778928 -0.0628242 -1.04448)
(0.665203 0.09339 -0.748716)
(0.487404 0.332118 -0.634445)
(0.250307 0.517456 -0.816719)
(-0.01444 0.854472 -0.823856)
(-0.0282039 0.622123 -0.999014)
(-0.0988021 0.211578 -0.878665)
(0.238536 -0.577856 -0.360169)
(0.671844 -0.948217 -0.950891)
(0.874296 -0.768159 -0.949148)
(1.16286 -0.936304 -0.75009)
(1.71728 -1.09167 -0.867239)
(1.97838 -0.378724 -0.966574)
(1.93499 -0.799594 -0.139376)
(-1.67762 -1.22545 -0.0162392)
(-2.17949 -0.738263 -0.00200845)
(-1.85505 -1.02255 -0.052071)
(-2.56826 -0.601015 0.0801816)
(-2.21752 -1.25562 0.252362)
(-1.64204 -1.70099 -0.104871)
(-2.74912 -0.380527 0.0113631)
(-2.68 -0.907046 0.217323)
(-2.51598 -1.09092 0.215593)
(-1.78372 -1.63613 0.0939376)
(-2.90955 -0.378946 0.222182)
(-2.89751 -0.752019 0.0895551)
(-2.70416 -1.23227 0.0542335)
(-2.3474 -1.86481 0.0127922)
(-1.48162 -2.05774 0.123885)
(-2.9592 -0.277953 0.474836)
(-2.93489 -0.367897 0.303744)
(-2.78346 -0.895433 0.270676)
(-2.65326 -1.27051 0.264763)
(-2.14299 -2.11654 0.181833)
(-0.989081 -2.57127 -0.00114266)
(-3.52196 -0.0986367 0.769341)
(-3.39722 -0.15972 0.709713)
(-3.13935 -0.826506 0.459788)
(-3.06959 -1.20879 0.416386)
(-2.58705 -1.65017 0.346529)
(-1.82696 -2.60878 0.267135)
(-0.977845 -2.67318 0.122697)
(-3.86518 0.305758 1.25609)
(-3.98233 0.0523376 1.10129)
(-3.81116 -0.37862 1.03368)
(-3.70018 -0.639455 0.722653)
(-2.8453 -1.77626 0.487132)
(-2.54101 -2.20422 0.454022)
(-1.75327 -2.64478 0.388061)
(-1.08904 -2.96332 -0.195919)
(-4.22675 -0.332911 1.41425)
(-4.13523 -0.655061 1.68096)
(-4.4184 -0.807147 1.58398)
(-4.30452 -1.39321 1.1929)
(-3.28205 -2.75064 0.585206)
(-3.62013 -2.52103 0.568404)
(-3.23936 -2.8167 0.41253)
(-3.0208 -2.84205 -0.0105149)
(-1.43185 -3.45542 -0.0640149)
(-4.90959 -0.750007 1.9408)
(-4.91657 -0.801052 1.8612)
(-4.87595 -0.992139 1.97232)
(-4.73267 -0.99262 2.22046)
(-4.2428 -1.85908 1.83443)
(-3.89888 -2.31241 1.53779)
(-4.19013 -2.29779 1.53859)
(-4.31422 -3.04984 0.813095)
(-3.14866 -4.29054 0.231121)
(-1.49433 -4.18415 0.252797)
(-4.70876 -0.415336 2.12817)
(-4.93351 -1.01194 2.15302)
(-4.94536 -1.61251 2.09848)
(-4.60296 -1.33185 2.0231)
(-3.74345 -2.0039 1.99983)
(-3.1442 -3.05929 1.58576)
(-3.14272 -3.3232 1.08158)
(-2.72549 -3.63095 0.496469)
(-2.52916 -3.68938 0.218992)
(-2.0681 -4.25929 0.335448)
(-0.23588 -4.46384 -0.0870488)
(-3.71373 -0.575537 1.45924)
(-3.93 -0.39918 1.51716)
(-3.61501 -1.36047 1.30619)
(-3.75751 -1.47673 0.787174)
(-3.22592 -2.09697 0.832935)
(-2.77651 -2.39759 1.60027)
(-3.0237 -2.74882 1.13968)
(-2.68392 -3.47502 1.14494)
(-2.10621 -4.21317 0.976666)
(-1.42875 -4.3267 0.396233)
(-1.44629 -4.60662 0.847254)
(-0.157992 -4.77864 -0.379207)
(-1.95504 -0.357016 2.21997)
(-1.8482 -0.775346 2.01618)
(-1.29816 -1.2732 1.51375)
(-1.37237 -0.0760363 1.06543)
(-1.46154 -1.22064 1.01282)
(-1.74811 -2.04822 0.911573)
(-1.93909 -2.45266 0.576264)
(-1.67362 -2.79664 0.538849)
(-1.33411 -3.59939 0.962182)
(-1.95457 -4.1077 1.40921)
(-1.23641 -4.76651 1.0372)
(-1.11673 -5.42012 0.986964)
(-0.882093 -5.53971 0.313136)
(-1.11779 -0.524447 0.970182)
(-1.25595 -0.198374 1.21729)
(-1.45205 -0.127271 0.736646)
(-1.35579 -0.266027 0.702216)
(-0.634639 -0.135765 0.56586)
(-0.423568 0.228885 1.0058)
(-0.387621 -0.0278916 1.27883)
(-0.491816 -0.92216 1.3068)
(-0.581952 -2.26032 0.638535)
(-0.324259 -3.07739 1.10274)
(-0.126302 -4.09491 0.976588)
(-0.136138 -4.69608 0.889393)
(0.123417 -5.13668 0.986767)
(0.153277 -5.35826 0.446138)
(0.386429 -0.936047 -1.189)
(0.334552 -0.326005 -1.26957)
(-0.353726 0.0931885 -1.16852)
(-0.474249 -0.0607301 -0.39323)
(-0.420049 0.268903 -0.35215)
(-0.133081 0.30701 -0.288305)
(-0.054769 0.0646125 -0.314931)
(0.0676682 -0.411267 -0.26382)
(0.507305 -0.323643 0.415899)
(0.161682 -0.64258 1.48501)
(0.316414 -1.63433 1.99469)
(0.797111 -2.35543 2.0207)
(1.05387 -3.14115 1.37435)
(0.859188 -3.66975 0.972501)
(0.963395 -3.86825 0.201378)
(0.834436 -0.66932 -0.583088)
(0.610117 -0.955238 -0.998485)
(0.765036 -0.0770125 -1.04288)
(0.656763 0.0782557 -0.772116)
(0.492543 0.28727 -0.639018)
(0.263952 0.477265 -0.822865)
(-0.00844873 0.816325 -0.812415)
(-0.0194721 0.572359 -1.00979)
(-0.107608 0.173344 -0.881565)
(0.265248 -0.623807 -0.344485)
(0.693049 -0.962314 -1.0421)
(0.871472 -0.79209 -0.981813)
(1.14306 -0.955015 -0.800263)
(1.71834 -1.13778 -0.872447)
(1.92897 -0.39042 -0.986541)
(1.86671 -0.815177 -0.146627)
(-1.76936 -0.754844 -0.0890131)
(-1.99274 -1.04907 0.00117364)
(-1.51699 -1.32529 -0.00395567)
(-2.35065 -0.542163 -0.0401626)
(-2.14426 -0.990195 -0.0962858)
(-1.90728 -1.06257 -0.0591428)
(-2.58367 -0.503139 0.129642)
(-2.5216 -0.847724 0.0130231)
(-2.11293 -1.53298 0.151485)
(-1.41142 -1.87683 -0.142331)
(-2.7828 -0.436297 0.180145)
(-2.75601 -0.702811 0.0356491)
(-2.63165 -1.0932 0.215061)
(-2.31939 -1.35835 0.0955053)
(-1.60573 -1.75309 0.0599243)
(-2.86109 -0.334515 0.470073)
(-2.9115 -0.581509 0.29733)
(-2.78483 -1.05994 0.164155)
(-2.65057 -1.27781 0.316012)
(-1.98859 -2.16601 0.0559374)
(-1.11301 -2.25348 0.0187278)
(-3.03346 -0.194963 0.508173)
(-2.96753 -0.391079 0.514594)
(-2.9538 -0.513757 0.343985)
(-2.78475 -0.981298 0.323401)
(-2.45593 -1.5732 0.252983)
(-2.35454 -1.84564 0.271397)
(-0.850383 -2.59688 -0.0570521)
(-3.62343 0.0368687 0.930485)
(-3.51453 -0.0946997 0.792697)
(-3.33497 -0.483689 0.783316)
(-3.07998 -1.11706 0.529663)
(-3.04323 -1.27841 0.439653)
(-2.5281 -1.89513 0.284762)
(-1.4718 -2.74031 0.206399)
(-0.686632 -2.75193 0.154251)
(-3.75134 -0.291984 1.37708)
(-3.76137 -0.339254 1.22327)
(-3.74873 -0.290412 1.0725)
(-3.55612 -0.87295 0.946456)
(-3.35869 -1.12621 0.718722)
(-2.55295 -2.05126 0.566706)
(-2.26914 -2.54384 0.549631)
(-1.53271 -2.97647 0.371439)
(-1.1018 -2.94112 -0.207402)
(-4.22057 -0.611629 1.29954)
(-4.14681 -0.748652 1.16057)
(-4.24513 -1.00186 1.16726)
(-4.44763 -0.633682 1.18462)
(-4.06602 -1.69 0.250652)
(-3.25137 -2.78959 0.69023)
(-3.71513 -2.28244 0.576)
(-3.18687 -2.88714 0.331099)
(-2.64012 -3.00787 -0.339409)
(-1.75857 -3.19547 -0.0661153)
(-4.77966 -1.13288 1.80002)
(-4.90271 -0.728131 1.81451)
(-4.7623 -1.02629 1.95644)
(-4.72065 -1.29957 2.01105)
(-4.18515 -1.91211 2.32713)
(-3.79679 -2.5085 1.77115)
(-3.56605 -2.89893 1.3175)
(-3.65642 -3.15482 0.919352)
(-3.86267 -3.31315 0.552472)
(-2.89453 -4.12852 -0.0861757)
(-0.820622 -4.14836 0.434057)
(-4.70439 -0.611914 2.17525)
(-4.89634 -1.02312 1.98686)
(-4.83568 -1.3205 2.14466)
(-4.81637 -1.929 2.02815)
(-4.1566 -2.23829 2.11929)
(-3.66638 -2.47238 1.66802)
(-3.06021 -3.2476 1.4427)
(-2.91999 -3.66751 0.801595)
(-2.48961 -3.83711 0.333787)
(-1.86875 -4.10442 0.361914)
(-1.73741 -4.33674 0.342811)
(-0.0616152 -4.55949 -0.13501)
(-3.75888 -0.605131 1.59813)
(-3.77867 -0.695485 1.37867)
(-3.7008 -1.30564 1.465)
(-3.6403 -1.59346 1.30578)
(-3.66554 -1.77962 0.883999)
(-3.40085 -1.80789 1.34362)
(-2.93714 -2.41339 1.75995)
(-2.30559 -2.85334 2.36625)
(-2.46071 -3.7405 0.902449)
(-1.91151 -4.41121 0.874326)
(-1.74576 -4.24933 0.594061)
(-1.36202 -4.66898 0.762378)
(-0.227701 -4.80407 -0.427433)
(-1.94227 -0.630658 2.40362)
(-1.90312 -0.902256 2.21515)
(-1.78506 -0.735563 2.22886)
(-1.24256 -0.963461 1.63495)
(-1.31941 -0.602002 1.23321)
(-1.51415 -1.36038 1.0672)
(-1.76424 -2.36129 0.795124)
(-1.8097 -2.72036 0.64814)
(-1.79207 -2.92387 0.579974)
(-2.10736 -3.37133 1.17837)
(-1.51785 -4.42712 1.24733)
(-0.973547 -4.9365 0.887177)
(-0.923385 -5.33055 1.12208)
(-0.39987 -5.52457 0.166864)
(-0.573516 -1.34333 1.5033)
(-1.13737 -0.800207 1.12232)
(-1.28079 -0.363757 1.2383)
(-1.45964 -0.248325 0.954763)
(-1.35108 -0.31346 0.702094)
(-0.71416 -0.189746 0.706249)
(-0.579943 0.0407496 1.02583)
(-0.360419 0.00817646 1.34536)
(-0.410743 -1.15575 1.3459)
(-0.764916 -2.19408 1.10574)
(-0.563502 -2.90842 1.58386)
(-0.0959089 -4.12205 0.954674)
(-0.0470427 -4.74424 0.819959)
(0.0481733 -5.06718 0.968723)
(0.185549 -5.28131 0.431219)
(0.729206 -1.319 -0.872857)
(0.382298 -1.01296 -1.25562)
(0.300416 -0.525745 -1.23596)
(-0.40033 -0.0129345 -1.15198)
(-0.505308 -0.206221 -0.371421)
(-0.42895 0.225304 -0.355829)
(-0.155269 0.246002 -0.304723)
(-0.0366602 -0.0248503 -0.278352)
(0.0640764 -0.453412 -0.198836)
(0.465045 -0.426766 0.468647)
(0.129451 -0.770719 1.45701)
(0.330691 -1.76324 1.96661)
(0.734628 -2.34459 2.05974)
(0.998316 -3.08862 1.40554)
(0.773579 -3.61964 0.928486)
(0.846014 -3.79151 0.198631)
(0.379792 -0.312359 -0.840567)
(0.820503 -0.716156 -0.555687)
(0.621665 -0.978354 -1.02061)
(0.779415 -0.12073 -1.03336)
(0.662025 0.0903498 -0.777769)
(0.493695 0.238497 -0.644938)
(0.27508 0.449469 -0.828652)
(0.00859007 0.75382 -0.827585)
(-0.0139119 0.538839 -1.00508)
(-0.114442 0.131287 -0.883096)
(0.285648 -0.653026 -0.406928)
(0.714826 -0.965521 -1.12768)
(0.857263 -0.809453 -1.03075)
(1.11822 -0.97681 -0.859155)
(1.70424 -1.17971 -0.956659)
(1.88239 -0.410481 -1.00328)
(1.8039 -0.827235 -0.157992)
(-1.40465 -0.986594 -0.0051664)
(-1.95577 -0.726257 -0.208011)
(-1.84531 -0.756163 -0.139285)
(-2.12437 -0.771835 0.0295398)
(-1.93261 -1.17706 -0.0096634)
(-1.36844 -1.48818 0.0327643)
(-2.35594 -0.581025 0.251065)
(-2.32328 -0.811143 -0.0855903)
(-2.19448 -0.892076 -0.107681)
(-1.82888 -1.17039 -0.0388133)
(-2.59547 -0.628937 0.278048)
(-2.57251 -0.814236 0.245151)
(-2.45935 -1.06813 -0.031337)
(-2.10435 -1.62338 0.0253283)
(-1.33388 -1.92174 -0.117392)
(-2.75848 -0.225162 0.283033)
(-2.72945 -0.562048 0.208819)
(-2.69486 -1.05115 0.222795)
(-2.51223 -1.24944 0.263885)
(-2.14521 -1.56154 0.270916)
(-1.2321 -2.01218 -0.0764847)
(-2.90449 -0.230288 0.388186)
(-2.7878 -0.431773 0.451253)
(-2.90122 -0.502596 0.220625)
(-2.7843 -1.12308 0.198319)
(-2.48895 -1.58773 0.285391)
(-2.15966 -1.82433 -0.0255348)
(-0.950453 -2.28852 0.00214026)
(-3.06028 -0.256682 0.74187)
(-3.03748 -0.414625 0.561242)
(-2.98755 -0.337942 0.503484)
(-2.7434 -0.852362 0.325394)