/*--------------------------------*- C++ -*----------------------------------*\
  =========                 |
  \\      /  F ield         | OpenFOAM: The Open Source CFD Toolbox
   \\    /   O peration     | Website:  https://openfoam.org
    \\  /    A nd           | Version:  7
     \\/     M anipulation  |
\*---------------------------------------------------------------------------*/
FoamFile
{
    version     2.0;
    format      ascii;
    class       volVectorField;
    location    "6.5";
    object      U_0;
}
// * * * * * * * * * * * * * * * * * * * * * * * * * * * * * * * * * * * * * //

dimensions      [0 1 -1 0 0 0 0];

internalField   nonuniform List<vector> 
18750
(
(2.59926 -0.227643 -0.170729)
(1.05482 -0.535397 -0.196871)
(2.67219 0.207922 -0.965855)
(2.58876 -0.306608 -0.151536)
(-1.79278 -1.64111 -0.402536)
(1.20915 -1.58973 0.713065)
(0.785014 -1.33211 -0.221857)
(1.93125 -0.914988 -0.642968)
(2.55293 -0.0589775 -1.12291)
(2.49915 -0.216503 -0.141379)
(-3.62625 -0.139095 0.345315)
(-1.56815 -1.73027 0.337694)
(-1.78145 -2.18961 -0.323352)
(0.890739 -1.6671 0.706329)
(1.10422 -2.0203 0.879875)
(0.883046 -1.63544 -0.177208)
(1.34418 -0.626429 -0.718131)
(1.96753 -0.950725 -0.608168)
(2.53295 0.138325 -0.93886)
(2.46431 -0.434674 -0.15769)
(-3.65572 -1.70849 1.38691)
(-3.7668 1.41337 0.489893)
(-3.60574 -0.818519 0.493489)
(-1.12008 -1.20481 -0.57081)
(-1.40981 -2.30788 0.271643)
(-1.77789 -2.66549 -0.224825)
(0.951118 -1.04371 1.02961)
(1.07574 -1.84637 0.748739)
(1.05558 -2.33594 1.02147)
(0.921058 -2.11809 -0.136268)
(0.84751 -0.592006 -1.10214)
(1.32998 -0.664879 -0.724849)
(1.94852 -1.01875 -0.615994)
(2.45514 -0.0709287 -0.996914)
(2.46257 -0.313245 -0.143105)
(-4.59093 -2.64198 1.20294)
(-4.14879 0.512242 0.885166)
(-3.43842 -3.14869 0.838958)
(-3.43435 0.127337 -0.490985)
(-3.96427 0.613649 -0.0825072)
(-3.71216 -1.50492 0.553332)
(-0.670014 -1.05943 -0.326941)
(-1.11741 -1.73472 -0.712732)
(-1.10152 -2.87821 0.422963)
(-1.66017 -3.15599 -0.0241113)
(0.752699 -0.482059 0.869118)
(0.961366 -1.18977 1.23419)
(1.09229 -2.15177 0.954343)
(1.05276 -2.53817 1.02088)
(0.882274 -2.69338 -0.0750728)
(0.383035 -0.470849 -0.284975)
(0.8542 -0.596863 -1.10044)
(1.35195 -0.692701 -0.705676)
(1.91605 -1.00359 -0.628247)
(2.44116 -0.0309064 -0.938722)
(2.36572 -0.508402 -0.142178)
(-4.68643 -2.1117 -0.789899)
(-5.49586 1.04529 0.507945)
(-4.22928 -3.54547 -0.0280612)
(-4.40691 0.676749 -0.0417292)
(-4.07832 -0.958332 1.34193)
(-3.37428 -4.00576 0.0761146)
(-2.88813 -0.811507 -0.968991)
(-3.39195 -0.592292 -0.962457)
(-4.01178 0.066722 -0.31884)
(-3.82612 -2.24184 0.519379)
(-0.529909 -0.71812 0.0213612)
(-0.589193 -1.4857 -0.243981)
(-0.977712 -2.3754 -0.473623)
(-0.875083 -3.36948 0.522276)
(-1.5557 -3.67622 0.153896)
(0.773298 0.449813 0.276173)
(0.771015 -0.575166 1.06393)
(1.03177 -1.35659 1.41946)
(1.02062 -2.35561 0.935781)
(1.06918 -2.71767 1.11126)
(0.977722 -2.94975 0.0331033)
(0.178903 -0.232667 -0.754464)
(0.401735 -0.526468 -0.239403)
(0.86601 -0.608162 -1.02236)
(1.31384 -0.75795 -0.711059)
(1.89813 -1.0322 -0.630886)
(2.38687 -0.133115 -0.941283)
(2.39069 -0.534629 -0.141895)
(-2.39619 -2.63193 0.628433)
(-5.11082 -0.0714913 1.03595)
(-4.39868 -1.97968 -0.566104)
(-4.20178 0.93762 0.723328)
(-5.44434 -0.240811 2.08289)
(-3.58452 -4.2537 -1.23528)
(-3.4931 -0.826725 0.469204)
(-4.18246 -0.688038 0.344099)
(-4.91883 0.350623 1.18817)
(-3.5281 -4.41165 -0.370617)
(-2.02259 -1.22645 -1.32189)
(-2.98728 -1.45027 -0.993915)
(-3.34262 -0.842679 -1.38606)
(-3.90565 -0.343101 0.108678)
(-3.50221 -3.39391 0.566837)
(-0.303159 -0.105468 0.802309)
(-0.408882 -1.1202 0.10193)
(-0.610295 -2.06453 -0.326671)
(-0.87688 -2.77899 -0.0680917)
(-0.622271 -3.70744 0.623707)
(-1.42974 -4.12532 0.406385)
(0.58101 0.196504 -0.33356)
(0.719258 0.287307 0.394721)
(0.677766 -0.737333 1.30577)
(0.953923 -1.63318 1.41945)
(1.06268 -2.55671 1.02865)
(1.03098 -2.90678 1.2025)
(1.01636 -3.21376 0.155817)
(-0.0112109 0.32978 -0.79925)
(0.179153 -0.279773 -0.715946)
(0.429875 -0.587042 -0.197479)
(0.879809 -0.625284 -1.01338)
(1.30092 -0.749834 -0.705059)
(1.88169 -1.0511 -0.629604)
(2.32689 -0.115789 -0.95288)
(2.36069 -0.646464 -0.13258)
(-2.23622 -2.19127 -0.0685521)
(-3.3738 -2.86919 -0.573772)
(-2.33997 -2.91537 0.608012)
(-4.90567 1.73566 1.17118)
(-5.26151 -1.13106 1.14404)
(-4.13411 -2.47416 -0.104472)
(-3.80501 0.535352 1.12395)
(-3.96367 0.0520926 1.33237)
(-5.30106 -0.936581 2.80996)
(-3.13302 -4.35495 -1.91939)
(-2.97408 -0.918256 0.0858831)
(-3.15767 -0.910356 1.14972)
(-4.37421 0.39197 1.22811)
(-3.71526 -2.42184 2.49248)
(-2.73219 -5.07365 0.254061)
(-2.05967 -0.277436 -0.508449)
(-2.09557 -1.87698 -1.05389)
(-2.79552 -1.78376 -1.33171)
(-2.95836 -1.41437 -0.464045)
(-3.52127 -1.37657 0.685198)
(-3.4994 -4.05174 0.722515)
(-0.0835902 0.886087 0.712336)
(-0.560102 -0.619043 0.71014)
(-0.483453 -1.35111 0.291003)
(-0.324656 -2.58426 0.165993)
(-0.589845 -3.27374 0.0313766)
(-0.426362 -4.09872 1.07037)
(-1.12788 -4.55788 0.607269)
(-0.0789777 0.0940215 -0.439862)
(0.599776 0.154277 -0.255414)
(0.625726 0.0924956 0.560971)
(0.677673 -0.857173 1.52568)
(0.937043 -1.76336 1.50755)
(1.04844 -2.70292 1.19073)
(1.04784 -3.09016 1.14637)
(1.0654 -3.41482 0.295218)
(0.0172092 0.594596 -0.875032)
(-0.0209414 0.333314 -0.814311)
(0.180152 -0.321741 -0.674336)
(0.45285 -0.635404 -0.19218)
(0.889335 -0.653978 -0.980173)
(1.28136 -0.793411 -0.680003)
(1.88711 -1.05557 -0.626233)
(2.28528 -0.182883 -0.930001)
(2.29269 -0.612066 -0.122125)
(-2.01429 -2.29702 -0.112049)
(-2.52881 -1.29804 0.456793)
(-1.91734 -2.2889 0.210701)
(-4.68979 -0.648345 1.28776)
(-3.325 -3.08755 -1.10666)
(-2.69585 -2.86358 0.257736)
(-4.41668 0.562056 1.53652)
(-4.99859 -0.289559 1.66887)
(-5.10763 -2.33841 1.00551)
(-3.80606 -3.06255 0.167538)
(-3.64936 -0.52223 1.22932)
(-3.53768 -0.199847 1.73212)
(-3.82978 -0.540759 2.38386)
(-5.09875 -1.24031 3.75417)
(-2.3316 -4.49808 -1.25733)
(-3.05169 -0.762694 0.0515121)
(-2.77686 -1.07749 0.686134)
(-3.12098 -0.348953 2.244)
(-3.68361 -1.03235 2.56297)
(-3.52729 -2.71335 2.95412)
(-2.59012 -5.12131 0.51567)
(-1.74709 -0.162848 -0.210511)
(-2.03962 -0.924933 -0.362717)
(-1.86007 -2.2261 -1.08666)
(-2.62016 -1.82882 -0.319729)
(-2.8031 -1.84441 0.109351)
(-3.77733 -1.85357 0.980417)
(-3.01102 -4.68519 0.844324)
(0.119881 1.02544 0.500398)
(-0.229313 0.538765 0.718611)
(-0.501701 -0.989291 0.586779)
(-0.360549 -1.79958 0.191366)
(-0.298695 -3.05661 0.241313)
(-0.494688 -3.69981 0.530602)
(-0.1374 -4.44899 1.19546)
(-0.931041 -4.89065 0.808254)
(-0.0829617 0.307185 -0.49044)
(-0.0429552 0.0311943 -0.469731)
(0.606358 0.0987134 -0.174244)
(0.571839 0.0324422 0.610615)
(0.631986 -1.03899 1.60906)
(0.929162 -1.83019 1.64881)
(1.03328 -2.82181 1.22326)
(1.02217 -3.21023 1.0969)
(1.11339 -3.59297 0.3418)
(0.0179964 0.917073 -0.841418)
(0.00831377 0.624312 -0.910659)
(-0.0337645 0.31916 -0.830118)
(0.183951 -0.366407 -0.621766)
(0.482336 -0.680868 -0.210862)
(0.896512 -0.682568 -0.953057)
(1.23861 -0.832677 -0.685002)
(1.85194 -1.1017 -0.640848)
(2.23032 -0.196648 -0.946649)
(2.26962 -0.646879 -0.125864)
(-2.45853 -1.60072 -0.0150724)
(-3.03161 -1.40819 0.349215)
(-1.79905 -2.48084 -0.0254242)
(-3.38377 -0.979577 0.0930288)
(-2.54101 -1.38666 0.506459)
(-1.67037 -2.50718 0.257171)
(-4.60897 -0.221328 1.52932)
(-4.69324 -1.0351 1.25561)
(-3.12704 -3.42816 -1.11682)
(-2.68828 -2.85294 0.194812)
(-4.54217 0.523685 1.77865)
(-4.46313 -0.0396548 1.79676)
(-4.99138 -1.39825 1.88914)
(-5.06088 -3.03316 0.729735)
(-3.07083 -3.71733 0.171693)
(-4.25278 0.982073 0.902158)
(-3.60411 -0.793024 1.53635)
(-3.65163 -1.07032 1.99777)
(-4.3182 -1.07888 3.149)
(-4.46488 -1.63314 3.69136)
(-1.88742 -4.32349 -0.298342)
(-3.09812 -0.67012 0.392738)
(-2.83374 -1.18222 0.558335)
(-2.82368 -0.537797 1.71385)
(-2.90399 -1.27182 3.24336)
(-3.30537 -2.50485 2.96517)
(-2.52746 -4.28359 1.97545)
(-1.95461 -5.14484 0.673789)
(-1.40304 0.136977 0.792335)
(-1.78896 -0.81435 -0.373051)
(-2.09279 -1.34519 -0.317213)
(-1.72672 -2.28912 -0.22781)
(-2.42671 -2.05319 0.308482)
(-2.56304 -2.51303 1.07267)
(-2.98509 -3.1924 1.45149)
(-2.69844 -5.01758 0.933577)
(-0.100941 0.45887 0.466366)
(0.0966652 0.814057 0.58501)
(-0.287647 0.326961 0.756029)
(-0.494515 -1.26217 0.403456)
(-0.576743 -1.79406 0.954689)
(-0.183293 -3.23517 0.447177)
(-0.468083 -4.04021 0.668414)
(-0.226148 -4.55731 1.29132)
(-0.637 -5.15803 0.92005)
(0.0227147 0.527851 -0.299813)
(-0.0868924 0.239414 -0.459495)
(-0.0177229 -0.0601474 -0.482034)
(0.600641 0.0446222 -0.0980404)
(0.47557 -0.175943 0.672983)
(0.610552 -1.27511 1.58006)
(0.890063 -1.96489 1.73523)
(1.05355 -2.91484 1.31692)
(1.0256 -3.33663 1.09632)
(1.14924 -3.74175 0.331414)
(0.224808 0.718547 -0.768111)
(0.0101615 0.922338 -0.883373)
(-0.00299105 0.647989 -0.933272)
(-0.0464731 0.302183 -0.843927)
(0.186896 -0.410061 -0.571776)
(0.511253 -0.757781 -0.318543)
(0.895252 -0.695515 -0.95085)
(1.23971 -0.83355 -0.674774)
(1.83475 -1.09873 -0.653526)
(2.17384 -0.246985 -0.938869)
(2.18834 -0.726746 -0.126494)
(-2.61496 -1.27317 -0.0925265)
(-2.96476 -1.03522 0.0292007)
(-1.96554 -2.10721 0.097796)
(-3.03597 -0.924151 0.312814)
(-2.76967 -1.976 0.37017)
(-1.66245 -2.53091 -0.041115)
(-3.72931 -0.698111 0.459971)
(-3.38269 -1.1572 0.0538216)
(-2.2109 -1.99768 0.450739)
(-1.49946 -2.58581 0.148628)
(-4.57923 -0.080578 1.99983)
(-4.57191 -0.610389 1.47207)
(-4.25805 -1.48311 1.16174)
(-2.72863 -3.7242 -1.01666)
(-2.77203 -2.77205 0.141313)
(-4.6846 0.385132 1.90386)
(-4.45288 0.236401 1.94522)
(-4.39067 -0.767393 1.96054)
(-4.90539 -1.74138 1.8389)
(-5.28637 -2.82712 1.07737)
(-2.42893 -4.20945 -0.0234959)
(-4.6727 0.853955 1.83199)
(-3.97999 -0.510708 1.42827)
(-3.40991 -1.55757 1.78374)
(-3.78557 -1.9544 2.48797)
(-4.47103 -1.33036 3.46527)
(-3.37762 -2.69792 2.28504)
(-1.58468 -4.16463 -0.0699991)
(-3.60097 -0.552819 0.43914)
(-2.98423 -1.00306 0.627336)
(-2.8159 -1.35083 0.881463)
(-2.81468 -1.08788 2.56532)
(-2.68158 -2.94653 3.04632)
(-2.66829 -3.78752 2.45747)
(-2.50181 -4.17147 2.14912)
(-1.34485 -5.13913 0.346246)
(-1.16273 0.225818 0.865503)
(-1.567 -0.566021 0.73586)
(-1.75662 -1.39907 -0.156065)
(-1.92505 -1.78393 -0.244357)
(-1.51828 -2.60815 -0.095779)
(-2.52723 -2.39813 0.949581)
(-2.50548 -3.06108 1.56001)
(-2.66401 -3.88712 1.78681)
(-2.04146 -5.40114 0.879017)
(-0.526366 0.344114 0.376171)
(-0.13432 0.404638 0.586754)
(-0.0548511 0.721482 0.695294)
(-0.373427 0.112055 0.854995)
(-0.591309 -1.38955 0.554148)
(-0.33639 -2.28952 0.293109)
(-0.14621 -3.4381 0.504758)
(-0.302039 -4.16316 0.9871)
(-0.10789 -4.68064 1.30946)
(-0.464875 -5.35712 0.858893)
(-0.240306 0.53485 -0.293551)
(0.0030825 0.513197 -0.259381)
(-0.078225 0.208156 -0.455076)
(0.00983157 -0.142928 -0.470126)
(0.596337 -0.0196663 -0.0203317)
(0.419108 -0.308935 0.723937)
(0.520085 -1.36936 1.683)
(0.860866 -2.07265 1.83943)
(1.04728 -3.00288 1.32132)
(1.02853 -3.47938 1.05523)
(1.15315 -3.86861 0.31124)
(0.466449 0.444082 -0.624)
(0.22854 0.667714 -0.784643)
(0.00297016 0.915864 -0.889152)
(-0.0150805 0.665882 -0.944898)
(-0.0611384 0.285229 -0.855177)
(0.192036 -0.453959 -0.521027)
(0.54878 -0.828384 -0.466607)
(0.878625 -0.72353 -0.947029)
(1.22836 -0.869342 -0.67226)
(1.82791 -1.09277 -0.675368)
(2.11498 -0.269289 -0.954248)
(2.12484 -0.714488 -0.123359)
(-2.44237 -0.516776 0.251673)
(-2.78778 -1.12908 -0.349331)
(-2.25334 -1.56412 0.0607197)
(-2.89681 -0.597722 0.219564)
(-2.88853 -1.28782 0.0589488)
(-1.74986 -2.27395 0.0366386)
(-3.04005 -0.927827 0.46451)
(-2.90358 -1.18802 0.253926)
(-2.65936 -2.13331 0.380011)
(-1.39676 -2.57593 -0.0381564)
(-3.97461 -0.0272706 0.852957)
(-3.75147 -0.489228 0.588805)
(-3.30196 -1.34003 -0.012822)
(-2.03632 -2.16719 0.473268)
(-1.37727 -2.65289 0.0198826)
(-4.33749 -0.0254357 2.27522)
(-4.53864 -0.262023 2.02925)
(-4.27911 -1.21626 0.950973)
(-3.65401 -2.04236 0.487605)
(-3.20585 -2.60658 -0.944213)
(-2.63444 -2.94597 0.0240948)
(-4.96525 -0.0797819 2.10491)
(-4.77013 0.63378 1.91679)
(-4.06514 -1.23148 1.74676)
(-4.41427 -0.942141 1.93155)
(-5.06744 -1.3177 1.93507)
(-5.14618 -2.49892 1.13287)
(-2.05942 -4.21905 -0.115134)
(-5.05828 0.0159836 2.21199)
(-4.40353 -0.346059 1.7275)
(-3.589 -1.3903 1.71421)
(-3.55485 -2.06024 2.06618)
(-3.83599 -2.37508 2.56351)
(-3.75637 -2.15559 2.34978)
(-2.6514 -3.53319 1.19082)
(-1.12174 -4.23874 0.155656)
(-3.74673 -0.550723 0.654464)
(-3.5218 -1.16145 0.567873)
(-2.97475 -1.41281 0.899204)
(-2.82188 -1.58221 1.27195)
(-2.88229 -2.40236 2.1617)
(-2.5728 -3.62638 2.68645)
(-2.3859 -3.97091 2.02234)
(-1.95857 -4.57374 1.61402)
(-1.0636 -5.09219 0.141425)
(-1.24556 -0.175866 0.995019)
(-1.3077 -0.201813 0.841816)
(-1.58733 -1.22282 0.476357)
(-1.87138 -1.65537 0.157959)
(-1.8195 -2.11998 -0.0885938)
(-1.67426 -2.80759 0.452726)
(-2.31991 -2.98845 1.38361)
(-2.00445 -3.68863 1.7559)
(-2.18354 -4.56146 1.57959)
(-1.75083 -5.60203 0.739041)
(-1.07774 0.110226 0.758127)
(-0.591436 0.127278 0.411673)
(-0.191633 0.41158 0.73765)
(-0.0528307 0.666667 0.850684)
(-0.371788 -0.189453 1.01013)
(-0.657082 -1.55868 0.60303)
(-0.375156 -2.60471 0.261367)
(-0.322429 -3.60721 0.8511)
(-0.30904 -4.33413 0.852677)
(-0.0722783 -4.84217 1.21046)
(-0.0769784 -5.56186 0.736439)
(-0.34145 0.372894 -0.534772)
(-0.31508 0.405912 -0.295911)
(-0.0367644 0.457202 -0.254719)
(-0.0738917 0.21312 -0.436623)
(0.0339667 -0.234172 -0.426647)
(0.58587 -0.100344 0.0958875)
(0.35109 -0.404012 0.901098)
(0.466761 -1.44479 1.79588)
(0.888426 -2.18823 1.88333)
(1.0702 -3.06811 1.37532)
(1.03726 -3.60144 1.00493)
(1.105 -3.89218 0.290973)
(0.661316 0.081933 -0.698999)
(0.476465 0.410457 -0.625526)
(0.231357 0.61587 -0.797996)
(-0.00561381 0.900378 -0.866542)
(-0.0258182 0.675583 -0.954941)
(-0.0763848 0.267209 -0.865079)
(0.199185 -0.498655 -0.468921)
(0.595914 -0.899321 -0.682717)
(0.877819 -0.723036 -0.938333)
(1.20302 -0.889808 -0.711417)
(1.77312 -1.1289 -0.726697)
(2.07062 -0.2978 -0.958142)
(2.05882 -0.755256 -0.127929)
(-1.77631 -1.4391 0.00778593)
(-2.54806 -0.853914 0.146427)
(-2.22573 -0.956191 0.355351)
(-2.85384 -0.855346 0.0291279)
(-2.52738 -1.6284 -0.155981)
(-1.94037 -1.83463 -0.0119248)
(-2.97417 -0.284967 0.328531)
(-2.75445 -0.924185 0.0754385)
(-2.85069 -1.32669 0.140311)
(-1.63756 -2.24444 -0.129517)
(-3.35611 -0.532752 0.339353)
(-2.92689 -1.0167 0.503263)
(-2.90337 -1.20394 0.159255)
(-2.36659 -2.26687 0.326844)
(-1.1686 -2.65854 0.118845)
(-4.08728 0.269304 0.910924)
(-3.94733 -0.155734 0.770744)
(-3.71639 -0.281863 0.726387)
(-2.85039 -1.80204 0.118125)
(-1.79531 -2.42234 0.34445)
(-1.24052 -2.81944 -0.0344501)
(-4.22397 -0.246979 2.065)
(-4.44288 -0.260696 2.06088)
(-4.44212 -0.697266 1.61523)
(-3.85516 -1.85061 0.399349)
(-3.72282 -1.83765 0.243536)
(-2.87626 -2.73545 -0.297623)
(-2.33445 -3.0829 0.0116983)
(-4.87679 -0.495438 2.11707)
(-4.96803 -0.0987061 2.01586)
(-4.62815 -0.52664 1.83254)
(-3.92887 -1.77892 1.58268)
(-4.39279 -1.28556 1.77116)
(-4.73476 -1.95237 1.45239)
(-4.60383 -2.71113 1.08688)
(-1.54056 -4.32129 0.030631)
(-5.05796 -0.67549 2.16268)
(-4.76755 -0.679731 2.03338)
(-4.1202 -1.24344 1.92656)
(-3.64915 -1.48456 1.98075)
(-3.5258 -2.74786 1.72944)
(-3.83447 -2.51158 2.16768)
(-3.22858 -3.06027 0.556323)
(-2.42408 -3.87029 0.906927)
(-0.944493 -4.24262 0.17009)
(-3.72104 -0.498618 1.35706)
(-3.79682 -0.893899 0.808865)
(-3.51767 -1.46137 0.57846)
(-2.91336 -1.73523 1.15106)
(-2.98817 -1.8391 1.3784)
(-2.81982 -3.08994 1.5773)
(-2.39392 -3.82623 2.3149)
(-2.05984 -4.20033 1.04842)
(-2.00173 -4.67627 0.88971)
(-0.794674 -4.99131 0.0720709)
(-1.46647 -1.00407 1.54159)
(-1.2488 -0.328468 1.00521)
(-1.41295 -0.696825 0.744116)
(-1.58134 -1.69999 0.449938)
(-1.90816 -1.8788 0.40803)
(-1.68132 -2.41704 0.353404)
(-1.85711 -2.70015 1.23491)
(-2.01019 -3.57532 1.44083)
(-1.77697 -4.23415 1.27022)
(-1.82505 -4.93324 1.31022)
(-1.12183 -5.88277 0.560948)
(-1.366 0.216562 0.630049)
(-1.17602 -0.0599727 0.803945)
(-0.635661 -0.0482557 0.403657)
(-0.253362 0.414454 0.849678)
(-0.276569 0.357764 0.995839)
(-0.489601 -0.536457 1.01816)
(-0.723434 -1.74623 0.533418)
(-0.336908 -2.84044 0.600007)
(-0.231394 -3.70309 1.12627)
(-0.237882 -4.44362 0.954861)
(0.038179 -5.04687 1.02506)
(-0.0734685 -5.55612 0.667089)
(-0.247535 0.202702 -1.16106)
(-0.398462 0.176618 -0.466374)
(-0.341362 0.365701 -0.31108)
(-0.0665528 0.400808 -0.265467)
(-0.0760069 0.194568 -0.406947)
(0.0440566 -0.287448 -0.378213)
(0.552962 -0.170184 0.202467)
(0.277245 -0.47045 1.22725)
(0.418474 -1.52649 1.88115)
(0.860827 -2.30491 1.90259)
(1.07044 -3.12662 1.38082)
(0.978442 -3.66611 0.983971)
(1.05298 -3.88386 0.258251)
(0.784427 -0.063325 -1.03488)
(0.651799 0.0473832 -0.725553)
(0.48228 0.375838 -0.627829)
(0.239738 0.562284 -0.810699)
(-0.00843142 0.883071 -0.842854)
(-0.029969 0.661147 -0.976846)
(-0.0901527 0.241854 -0.874166)
(0.212521 -0.53986 -0.416558)
(0.633304 -0.933492 -0.827542)
(0.881354 -0.746446 -0.933571)
(1.1801 -0.916231 -0.738777)
(1.76118 -1.10558 -0.745409)
(2.02361 -0.323383 -0.971217)
(1.99447 -0.764289 -0.13394)
(-1.88979 -0.940121 -0.0401675)
(-2.21202 -1.13378 0.206704)
(-1.77213 -1.53251 -0.0742977)
(-2.73049 -0.632736 0.234242)
(-2.51218 -1.08354 0.252924)
(-1.76954 -1.66411 0.0670582)
(-2.93895 -0.59113 0.0315375)
(-2.75835 -1.10167 0.0674799)
(-2.53586 -1.63206 -0.0374248)
(-1.789 -1.91389 0.0392269)
(-3.0311 0.168977 0.193853)
(-2.81861 -0.738114 0.227419)
(-2.71891 -1.06871 0.0545954)
(-2.71088 -1.41807 0.128731)
(-1.20879 -2.44437 0.0609422)
(-3.42583 -0.105703 0.685582)
(-3.31949 -0.229905 0.316693)
(-3.07533 -0.930692 0.356171)
(-2.74129 -1.41481 0.231785)
(-1.82022 -2.65067 0.199996)
(-1.07774 -2.67353 0.140839)
(-4.03024 0.0418577 1.20489)
(-3.96553 -0.102125 1.01887)
(-3.82959 -0.371338 0.700707)
(-3.44446 -0.707129 0.556303)
(-3.03526 -1.51483 0.138967)
(-2.01339 -2.31987 0.333414)
(-1.18019 -2.92483 -0.141536)
(-4.15509 -0.0395558 1.79688)
(-4.40666 -0.690027 1.79224)
(-4.52624 -0.890582 1.6996)
(-3.79027 -1.99121 0.962933)
(-3.64304 -2.32668 0.371829)
(-3.28719 -2.48878 0.396742)
(-2.84451 -2.91105 -0.199793)
(-1.99449 -3.21714 0.0508987)
(-4.95371 -0.804711 1.99324)
(-4.85394 -0.782915 2.03412)
(-4.92631 -0.775659 1.8492)
(-4.40823 -1.65649 1.64378)
(-3.97668 -2.03599 1.67849)
(-4.31399 -2.01979 1.59838)
(-4.55569 -2.52871 1.22465)
(-3.51428 -4.04258 0.274378)
(-1.24286 -4.43259 0.0418183)
(-4.97076 -0.764579 2.11268)
(-5.04722 -0.98607 2.17608)
(-4.55576 -1.36859 2.05314)
(-3.88061 -1.748 1.97723)
(-3.41465 -2.32377 1.98781)
(-3.51727 -2.84627 1.56909)
(-3.28891 -3.04142 1.36767)
(-2.46134 -3.64574 0.30735)
(-2.14627 -4.23231 0.471913)
(-0.635484 -4.26877 0.0010929)
(-3.84572 -0.435873 1.56074)
(-3.67154 -1.24144 1.3409)
(-3.78204 -1.19979 0.832046)
(-3.47864 -1.55633 0.758573)
(-2.86868 -1.94528 1.41661)
(-2.55427 -2.17553 2.43252)
(-2.67776 -3.057 1.9342)
(-2.34823 -3.97638 1.49844)
(-2.42496 -3.90752 0.591502)
(-1.75768 -4.57179 0.695051)
(-0.70705 -4.76718 -0.0534085)
(-1.84722 -0.828407 1.95784)
(-1.34142 -1.28534 1.52699)
(-1.26575 -0.0628786 0.971423)
(-1.35235 -1.08243 0.904356)
(-1.69423 -1.96456 0.695589)
(-1.78992 -2.29633 0.538149)
(-1.74808 -2.56701 0.281058)
(-1.73364 -2.94676 1.35232)
(-2.06417 -3.79455 1.67149)
(-1.49502 -4.53678 1.17423)
(-1.41995 -5.27383 1.10253)
(-1.08955 -5.81872 0.430008)
(-1.23201 -0.154485 1.14145)
(-1.4421 0.0720531 0.656152)
(-1.3019 -0.0209757 0.845497)
(-0.606061 -0.0748098 0.476292)
(-0.432168 0.235101 0.893453)
(-0.163532 0.388792 1.21121)
(-0.306883 -0.864553 1.19372)
(-0.554537 -2.01648 0.588943)
(-0.288777 -2.97205 0.95938)
(-0.171859 -3.9055 1.0129)
(-0.131491 -4.59013 0.958639)
(0.0954016 -5.15089 0.954202)
(-0.0156435 -5.40887 0.595585)
(0.355725 -0.127148 -1.2759)
(-0.299575 0.150114 -1.16829)
(-0.440319 0.0356987 -0.420798)
(-0.371005 0.365286 -0.312988)
(-0.0970561 0.351064 -0.281261)
(-0.0681673 0.137654 -0.372926)
(0.0508732 -0.345482 -0.329682)
(0.522709 -0.246888 0.307529)
(0.20467 -0.563002 1.40366)
(0.357878 -1.60259 1.93058)
(0.875568 -2.35812 1.94371)
(1.05725 -3.13937 1.3673)
(0.917405 -3.66779 0.985388)
(0.996097 -3.87856 0.214174)
(0.600507 -0.926988 -0.972388)
(0.778105 -0.064842 -1.04053)
(0.667479 0.0839556 -0.739618)
(0.486997 0.331068 -0.633921)
(0.251654 0.516291 -0.817855)
(-0.0114265 0.852088 -0.827341)
(-0.0275487 0.620146 -1.0009)
(-0.101431 0.207045 -0.879495)
(0.23335 -0.580116 -0.367639)
(0.663911 -0.951247 -0.940167)
(0.868733 -0.773215 -0.971809)
(1.15445 -0.938657 -0.779838)
(1.70389 -1.08752 -0.887931)
(1.96576 -0.366023 -0.985911)
(1.92535 -0.783667 -0.13924)
(-1.6775 -1.22474 -0.0154174)
(-2.17929 -0.741686 -0.00190206)
(-1.85715 -1.02281 -0.053145)
(-2.56967 -0.60047 0.0800893)
(-2.21822 -1.25821 0.25247)
(-1.63965 -1.70313 -0.104299)
(-2.75049 -0.382282 0.009922)
(-2.67894 -0.913859 0.216129)
(-2.51637 -1.09064 0.210438)
(-1.78507 -1.63298 0.0944638)
(-2.91055 -0.373842 0.223012)
(-2.89714 -0.749547 0.0902383)
(-2.7044 -1.22893 0.0565824)
(-2.34278 -1.86809 0.0144614)
(-1.46813 -2.06487 0.122679)
(-2.95907 -0.2747 0.47517)
(-2.9347 -0.371608 0.30689)
(-2.78432 -0.895316 0.274311)
(-2.65229 -1.27177 0.268675)
(-2.13565 -2.12021 0.184448)
(-0.986793 -2.57082 -0.00176316)
(-3.52897 -0.086303 0.770004)
(-3.39927 -0.158358 0.714848)
(-3.13968 -0.838811 0.465979)
(-3.07556 -1.20696 0.419303)
(-2.58575 -1.65834 0.351283)
(-1.82017 -2.60849 0.267696)
(-0.975827 -2.67215 0.122814)
(-3.85542 0.27195 1.25819)
(-3.97715 0.0566792 1.09692)
(-3.80235 -0.392542 1.03079)
(-3.68936 -0.650234 0.72482)
(-2.82306 -1.81219 0.485078)
(-2.53043 -2.22148 0.464228)
(-1.7578 -2.65643 0.386513)
(-1.10608 -2.9588 -0.199247)
(-4.23043 -0.321447 1.40252)
(-4.1465 -0.652508 1.65513)
(-4.43414 -0.785144 1.54295)
(-4.29069 -1.40961 1.11715)
(-3.29387 -2.73698 0.589808)
(-3.64373 -2.50951 0.581189)
(-3.26686 -2.81338 0.415756)
(-3.03878 -2.83138 -0.0140274)
(-1.42757 -3.45947 -0.0644941)
(-4.91112 -0.746832 1.93222)
(-4.92253 -0.778341 1.85748)
(-4.87401 -0.983709 1.97551)
(-4.70873 -0.999416 2.25184)
(-4.22901 -1.85921 1.85294)
(-3.91247 -2.28638 1.53212)
(-4.1631 -2.33783 1.49891)
(-4.28276 -3.07722 0.760571)
(-3.13104 -4.28279 0.222246)
(-1.49842 -4.16762 0.279558)
(-4.72031 -0.433438 2.11701)
(-4.9259 -1.00377 2.15175)
(-4.94311 -1.63511 2.08639)
(-4.60136 -1.33558 2.02676)
(-3.75472 -1.99278 1.98363)
(-3.13556 -3.08891 1.55605)
(-3.12404 -3.34807 1.03979)
(-2.72529 -3.63104 0.468713)
(-2.50413 -3.70039 0.216659)
(-2.05576 -4.26024 0.326343)
(-0.22247 -4.47669 -0.104893)
(-3.70691 -0.583796 1.45722)
(-3.92845 -0.392838 1.5113)
(-3.60813 -1.35679 1.2981)
(-3.75631 -1.48472 0.784596)
(-3.22947 -2.09736 0.846784)
(-2.78821 -2.40223 1.60918)
(-3.01949 -2.73373 1.17354)
(-2.68584 -3.47167 1.10452)
(-2.12103 -4.20766 0.98602)
(-1.44911 -4.3215 0.404183)
(-1.44819 -4.6082 0.847834)
(-0.184043 -4.77493 -0.382321)
(-1.95506 -0.385065 2.22317)
(-1.84995 -0.756853 2.02936)
(-1.29543 -1.25921 1.52458)
(-1.37411 -0.0815511 1.08149)
(-1.46494 -1.21423 1.02695)
(-1.75727 -2.05045 0.918516)
(-1.95091 -2.46037 0.577268)
(-1.69474 -2.7978 0.532381)
(-1.3611 -3.60197 0.948464)
(-1.94278 -4.1324 1.38585)
(-1.21792 -4.79745 1.01268)
(-1.12055 -5.42067 0.99233)
(-0.848267 -5.52155 0.287845)
(-1.1176 -0.54167 0.969082)
(-1.26074 -0.212291 1.21252)
(-1.4548 -0.139895 0.742935)
(-1.36451 -0.272082 0.694171)
(-0.643083 -0.143484 0.566406)
(-0.43187 0.217044 1.00901)
(-0.398428 -0.0351091 1.28696)
(-0.499561 -0.917399 1.3238)
(-0.599098 -2.25617 0.678663)
(-0.345905 -3.05667 1.1635)
(-0.132768 -4.10223 0.98518)
(-0.146557 -4.70843 0.883803)
(0.0904888 -5.12791 0.992803)
(0.142209 -5.34216 0.437054)
(0.380191 -0.936819 -1.19144)
(0.330729 -0.328513 -1.26538)
(-0.357564 0.0855761 -1.16711)
(-0.473226 -0.0725234 -0.389556)
(-0.4149 0.268176 -0.356744)
(-0.129649 0.306246 -0.294966)
(-0.0557956 0.0603052 -0.321717)
(0.0620191 -0.423058 -0.270345)
(0.498152 -0.342344 0.410632)
(0.156288 -0.655832 1.46661)
(0.300171 -1.63558 1.98866)
(0.768022 -2.34092 2.03346)
(1.03319 -3.11997 1.38314)
(0.830346 -3.64402 0.963523)
(0.922276 -3.84269 0.187746)
(0.827155 -0.672264 -0.579759)
(0.605961 -0.960393 -0.992918)
(0.762231 -0.0790759 -1.03993)
(0.659006 0.0700105 -0.764615)
(0.491637 0.286731 -0.638531)
(0.265565 0.475613 -0.824248)
(-0.00592098 0.815088 -0.81568)
(-0.0189388 0.568632 -1.01346)
(-0.110632 0.16941 -0.882727)
(0.259162 -0.625411 -0.352612)
(0.684625 -0.965554 -1.03059)
(0.8665 -0.796592 -1.00618)
(1.13521 -0.9572 -0.831596)
(1.70552 -1.13283 -0.899302)
(1.91679 -0.379224 -1.00521)
(1.8577 -0.798893 -0.146508)
(-1.77154 -0.752943 -0.0890857)
(-1.9923 -1.05107 0.00124363)
(-1.51605 -1.32454 -0.00371224)
(-2.35204 -0.542352 -0.0417628)
(-2.1459 -0.989224 -0.0976184)
(-1.91078 -1.06067 -0.0604735)
(-2.58535 -0.504354 0.127634)
(-2.52156 -0.851687 0.0121332)
(-2.11439 -1.53433 0.150042)
(-1.40693 -1.88028 -0.141564)
(-2.78329 -0.431469 0.180572)
(-2.75616 -0.710482 0.038641)
(-2.63112 -1.09258 0.21568)
(-2.31359 -1.36645 0.09537)
(-1.59872 -1.75652 0.0573562)
(-2.85978 -0.331611 0.472351)
(-2.91263 -0.578804 0.298607)
(-2.78386 -1.06128 0.166174)
(-2.65062 -1.27429 0.321617)
(-1.98441 -2.16588 0.0545878)
(-1.10871 -2.25485 0.0184815)
(-3.03484 -0.191135 0.509589)
(-2.97057 -0.386628 0.515895)
(-2.95343 -0.517234 0.34643)
(-2.78622 -0.983607 0.325085)
(-2.45264 -1.57753 0.251647)
(-2.34959 -1.84514 0.27416)
(-0.849168 -2.59549 -0.0564016)
(-3.63024 0.0494482 0.929515)
(-3.51906 -0.0910296 0.795702)
(-3.33566 -0.488695 0.787748)
(-3.08269 -1.12521 0.529405)
(-3.03728 -1.28425 0.441322)
(-2.52899 -1.89974 0.291696)
(-1.46546 -2.74004 0.205172)
(-0.693518 -2.74919 0.153012)
(-3.73946 -0.314741 1.37348)
(-3.75116 -0.371801 1.23151)
(-3.72996 -0.342393 1.07077)
(-3.53754 -0.900642 0.940209)
(-3.32333 -1.16355 0.713082)
(-2.55415 -2.05305 0.566792)
(-2.26081 -2.55928 0.550319)
(-1.54827 -2.97906 0.376937)
(-1.11086 -2.93965 -0.210111)
(-4.22525 -0.587769 1.29154)
(-4.15463 -0.749836 1.14161)
(-4.26138 -0.99646 1.13558)
(-4.45613 -0.638319 1.1262)
(-4.07666 -1.67331 0.210079)
(-3.2833 -2.75876 0.710359)
(-3.72644 -2.26482 0.56452)
(-3.21028 -2.87564 0.328103)
(-2.61571 -3.02806 -0.378707)
(-1.7706 -3.19157 -0.0599508)
(-4.79018 -1.14431 1.76398)
(-4.90207 -0.695361 1.81761)
(-4.75523 -1.02916 1.96165)
(-4.71688 -1.30368 2.00791)
(-4.15638 -1.97062 2.29103)
(-3.76355 -2.55869 1.73918)
(-3.54283 -2.93988 1.28232)
(-3.5681 -3.2556 0.869417)
(-3.79454 -3.35409 0.524709)
(-2.88101 -4.11276 -0.102466)
(-0.795717 -4.14859 0.440152)
(-4.70661 -0.6187 2.16944)
(-4.90957 -1.02382 1.97405)
(-4.83153 -1.30104 2.14163)
(-4.80887 -1.9345 2.02624)
(-4.13278 -2.29921 2.12897)
(-3.65696 -2.50339 1.648)
(-3.07246 -3.23159 1.43756)
(-2.88286 -3.70527 0.778358)
(-2.44083 -3.86783 0.322833)
(-1.84095 -4.10959 0.389416)
(-1.71414 -4.34108 0.355218)
(-0.0651775 -4.55799 -0.148859)
(-3.76631 -0.573335 1.59572)
(-3.78027 -0.711265 1.37397)
(-3.67874 -1.39853 1.45421)
(-3.638 -1.60176 1.29988)
(-3.66477 -1.77914 0.893284)
(-3.41794 -1.82354 1.34765)
(-2.94851 -2.41757 1.76204)
(-2.28227 -2.87143 2.39621)
(-2.45651 -3.73975 0.892898)
(-1.92674 -4.40688 0.868646)
(-1.70488 -4.26397 0.601682)
(-1.35195 -4.66074 0.779359)
(-0.253604 -4.7897 -0.433197)
(-1.94293 -0.639391 2.4045)
(-1.9025 -0.920647 2.21748)
(-1.79038 -0.742248 2.24003)
(-1.24556 -0.948796 1.64747)
(-1.31172 -0.622591 1.25108)
(-1.51652 -1.3546 1.07659)
(-1.78256 -2.36289 0.777944)
(-1.81863 -2.73105 0.640304)
(-1.81748 -2.91493 0.56508)
(-2.1185 -3.36993 1.1834)
(-1.49298 -4.4557 1.22025)
(-1.00032 -4.93418 0.882304)
(-0.936999 -5.29754 1.13209)
(-0.437289 -5.52762 0.175272)
(-0.570906 -1.35261 1.49789)
(-1.13727 -0.813522 1.11817)
(-1.28637 -0.376459 1.23296)
(-1.46635 -0.266169 0.960073)
(-1.36027 -0.31925 0.695218)
(-0.724852 -0.196431 0.70866)
(-0.588179 0.0321385 1.02765)
(-0.36918 0.01057 1.35358)
(-0.41569 -1.15234 1.36132)
(-0.781523 -2.19033 1.12462)
(-0.575542 -2.90564 1.57676)
(-0.112758 -4.11273 0.973041)
(-0.0644983 -4.74833 0.826152)
(0.0166411 -5.05218 0.950363)
(0.15926 -5.25552 0.428972)
(0.725355 -1.31856 -0.868506)
(0.375877 -1.01415 -1.2585)
(0.296331 -0.527146 -1.23364)
(-0.405111 -0.0222 -1.14983)
(-0.503632 -0.218463 -0.368871)
(-0.423746 0.223238 -0.360083)
(-0.15197 0.24617 -0.311727)
(-0.037836 -0.0292077 -0.285979)
(0.0582299 -0.463752 -0.207264)
(0.455834 -0.444319 0.4622)
(0.125069 -0.781782 1.43627)
(0.317502 -1.76572 1.96196)
(0.71046 -2.33106 2.06737)
(0.972996 -3.05925 1.41735)
(0.74117 -3.58828 0.921778)
(0.802131 -3.76002 0.186184)
(0.377906 -0.318263 -0.842119)
(0.815766 -0.706684 -0.559768)
(0.617693 -0.984026 -1.01475)
(0.773884 -0.114957 -1.03192)
(0.663528 0.0827011 -0.771383)
(0.492575 0.239116 -0.644386)
(0.27664 0.447812 -0.82962)
(0.0108225 0.754028 -0.829798)
(-0.0128922 0.534717 -1.00988)
(-0.117817 0.127451 -0.884715)
(0.278034 -0.653588 -0.415404)
(0.706738 -0.968366 -1.11697)
(0.852629 -0.813494 -1.0566)
(1.11067 -0.979497 -0.891742)
(1.69204 -1.17712 -0.981744)
(1.87225 -0.399415 -1.02092)
(1.79609 -0.810022 -0.15784)
(-1.40618 -0.984992 -0.00507134)
(-1.95696 -0.72589 -0.209098)
(-1.84493 -0.758111 -0.138921)
(-2.12598 -0.770601 0.0287985)
(-1.93281 -1.17664 -0.00830757)
(-1.3661 -1.48987 0.0337551)
(-2.35787 -0.581529 0.25109)
(-2.3237 -0.814786 -0.0892298)
(-2.19638 -0.889394 -0.106421)
(-1.83008 -1.17104 -0.0400864)
(-2.59656 -0.625596 0.277823)
(-2.57389 -0.814279 0.246648)
(-2.45939 -1.06847 -0.0348457)
(-2.10411 -1.62361 0.0246296)
(-1.33348 -1.921 -0.116554)
(-2.75886 -0.219077 0.284258)
(-2.72862 -0.563173 0.20832)
(-2.69564 -1.05031 0.224164)
(-2.51173 -1.24865 0.266189)
(-2.14283 -1.56257 0.272187)
(-1.22808 -2.01355 -0.0770061)
(-2.90443 -0.22406 0.386682)
(-2.78762 -0.427141 0.451229)
(-2.90193 -0.497601 0.218172)
(-2.78525 -1.11991 0.199937)
(-2.48523 -1.59303 0.282245)
(-2.15701 -1.82306 -0.0298125)
(-0.946982 -2.28806 0.00397243)
(-3.06436 -0.25636 0.744297)
(-3.04013 -0.41378 0.564259)
(-2.98672 -0.339422 0.503107)
(-2.7324 -0.871391 0.329813)