/*--------------------------------*- C++ -*----------------------------------*\
  =========                 |
  \\      /  F ield         | OpenFOAM: The Open Source CFD Toolbox
   \\    /   O peration     | Website:  https://openfoam.org
    \\  /    A nd           | Version:  7
     \\/     M anipulation  |
\*---------------------------------------------------------------------------*/
FoamFile
{
    version     2.0;
    format      ascii;
    class       volScalarField;
    location    "5.5";
    object      nut;
}
// * * * * * * * * * * * * * * * * * * * * * * * * * * * * * * * * * * * * * //

dimensions      [0 2 -1 0 0 0 0];

internalField   nonuniform List<scalar> 
18630
(
0.000315046
0.000735275
0.000694593
9.49255e-05
0.00057627
0.000932227
0.000399185
0.00079057
8.99903e-05
0.00012869
0.000445161
0.000738252
0.000756861
0.000981639
0.000371043
0.000637214
0.000514531
0.000179085
0.000159091
0.000263682
0.000600987
0.00082472
0.000321553
0.00109993
0.000581122
0.00112724
0.000744748
0.000385205
0.000323261
0.000647766
0.000326069
0.000220075
0.000143196
0.000177994
0.000298697
0.000581627
0.000827878
0.000528182
0.000826138
0.000576775
0.00207409
0.000902605
0.000271772
0.000215732
0.00124212
0.000433525
0.000418617
0.000347144
0.000387315
0.000445951
0.000253891
0.000294453
0.000133048
0.000130256
0.000259585
0.000141167
0.000763833
0.000606327
0.0014271
0.000794288
0.000776836
0.00135342
0.000771137
0.000528378
0.00080269
0.0008021
0.00059125
0.000255999
0.000433239
0.000555299
0.000669248
0.000372216
0.000502726
0.000341511
0.000453663
0.000394137
0.000265397
0.00025614
0.000165564
0.000181418
0.000178026
0.000206334
0.000146139
0.000128751
0.000629208
0.000741852
0.00162328
0.00064299
0.000674373
0.000840239
0.000840568
0.000594406
0.00103764
0.000951075
0.00140307
0.000290094
0.000709521
0.000359569
0.000623869
0.000367949
0.000284324
0.000142851
0.000306734
0.000615492
0.000491187
0.000446821
0.000683817
0.000406334
0.000390035
0.000351827
0.00027494
0.000444944
0.00024774
0.000370405
0.000219027
0.00013374
0.000191439
0.000160631
0.000109121
0.000116683
0.000472547
0.000373551
0.00102447
0.00057544
0.000862498
0.00106739
0.000483708
0.000452911
0.00124256
0.000787677
0.000724275
0.000521228
0.00105489
0.00134524
0.000552516
0.000854828
0.000476917
0.000512966
0.00098509
0.000478366
0.000825583
0.000611445
0.000226993
0.000305822
0.000344033
0.000591414
0.000540185
0.000610481
0.000451584
0.000871433
0.000450675
0.000394852
0.000317009
0.000288758
0.000438735
0.000523686
0.000244863
0.000382676
9.25391e-05
6.99858e-05
0.000289265
0.00020088
0.000114702
0.000133583
7.53472e-05
0.000509355
0.000318372
0.000468093
0.000259092
0.000376967
0.000531686
0.000463255
0.000665074
0.00107599
0.000580875
0.000317434
0.000677125
0.00121599
0.000454986
0.000806566
0.000958791
0.000494004
0.000833905
0.00146929
0.000662183
0.000664196
0.00102933
0.000464574
0.000404412
0.000756003
0.000524314
0.000920174
0.000459711
0.000569654
0.000379341
0.000415392
0.000519685
0.00061467
0.000551037
0.000699739
0.000533694
0.000451742
0.000699256
0.00037721
0.000451604
0.000295882
0.000409525
0.00042874
0.000450729
0.000443037
0.000269996
0.000182494
0.000106875
7.89794e-05
0.000139758
0.000172394
0.00012501
7.89765e-05
6.07607e-05
0.000198925
0.000825496
0.000190979
0.000213915
0.000259264
0.000434603
0.000804887
0.000308492
0.00056505
0.000481216
0.000569954
0.000411527
0.000510217
0.000568611
0.000281479
0.000356298
0.000248258
0.000450875
0.000552392
0.000530578
0.000593652
0.000868223
0.000666036
0.000470892
0.000488002
0.00133573
0.000708811
0.000467737
0.000725234
0.00129825
0.000663902
0.000405119
0.000726474
0.000591871
0.000511826
0.000447613
0.000801826
0.000182977
0.000323805
0.000434628
0.000664555
0.000649485
0.000580213
0.000696368
0.000542648
0.000606558
0.000486842
0.000494536
0.000331163
0.000494406
0.000308651
0.000332073
0.000375202
0.000505392
0.000551571
0.000323234
0.000312376
0.000168164
9.49877e-05
0.000244348
0.000225985
0.000180466
0.000152787
7.54273e-05
8.19792e-05
0.000268211
0.000221425
0.000680991
0.000434535
0.000910778
0.00054409
0.000495452
0.000363867
0.000573185
0.00076948
0.000734862
0.000389911
0.000524848
0.000674317
0.00029787
0.000739425
0.000656272
0.000248704
0.000607199
0.000522564
0.000396606
0.00070512
0.000521635
0.000429876
0.000124024
0.000212727
0.000448298
0.000633651
0.00096696
0.000934689
0.000692367
0.000448928
0.000405014
0.00116046
0.000694904
0.000382425
0.00037403
0.000635139
0.00046241
0.000900344
0.000418608
0.000686879
0.000467289
0.000829182
0.000473676
0.000600597
0.000454365
0.000335844
0.000429107
0.000355234
0.000566057
0.00072352
0.000536486
0.000738874
0.000529371
0.000685469
0.000365799
0.000466577
0.000394787
0.000332044
0.000581836
0.000345714
0.000255889
0.000381432
0.000383021
0.00058623
0.00037033
0.00040185
0.000282007
0.000172961
0.000100333
9.59714e-05
0.000147832
0.000139953
0.000125088
4.75456e-05
9.54432e-05
0.000301637
0.000202621
0.000247325
0.000489986
0.000477292
0.000666125
0.00107905
0.000367558
0.000432761
0.000879318
0.000389065
0.000809839
0.000698125
0.000659907
0.000643012
0.000838606
0.000918801
0.000596127
0.000551431
0.000405427
0.000332999
0.000220906
0.000368741
0.000895884
0.000580064
0.000372873
0.000345538
0.000457179
0.000470925
0.000384289
0.000770503
0.000353677
0.000476749
0.00023354
0.000403483
0.000447926
0.000549027
0.000562557
0.000622872
0.000683203
0.000482855
0.00063699
0.00041703
0.00096978
0.000643676
0.000533129
0.000925333
0.000801608
0.000601443
0.00066659
0.000798199
0.000379022
0.000658913
0.000562349
0.00085954
0.000632532
0.00048181
0.000463777
0.000610889
0.000446755
0.000393645
0.000325621
0.000411262
0.000665317
0.000432719
0.000755426
0.000733129
0.000806473
0.000412741
0.000775573
0.000454348
0.000554658
0.000323214
0.000663729
0.00037887
0.000247622
0.000352247
0.00042751
0.000515965
0.00050209
0.00045369
0.000271962
0.000219094
0.000194725
0.00010543
0.000101249
0.000216627
0.000159014
0.000100378
4.12621e-05
9.14128e-05
0.000241458
0.000209595
0.000225664
0.000172396
0.000436976
0.000372598
0.000650776
0.000381062
0.000522875
0.000396773
0.0007775
0.000833733
0.000155562
0.000534289
0.000308239
0.000534355
0.000344124
0.000847527
0.000570577
0.000675358
0.000460732
0.000539023
0.000412806
0.000406987
0.000537552
0.000838367
0.000649981
0.00068638
0.000643219
0.000485876
0.000514109
0.000706255
0.000728581
0.000364313
0.00060506
0.000322927
0.000840529
0.000549232
0.00036728
0.000682538
0.000383566
0.000743804
0.000234251
0.00031181
0.000346061
0.000284729
0.000569024
0.000554818
0.000596097
0.000549104
0.000349346
0.000428765
0.000731967
0.000391736
0.000650412
0.000790856
0.000370277
0.000724788
0.000347059
0.000495745
0.00073751
0.000907679
0.00043655
0.000430155
0.000412509
0.000575945
0.00064517
0.000553687
0.000467678
0.000525551
0.000668115
0.000716297
0.000252226
0.000374625
0.000235652
0.000360812
0.000851855
0.000785833
0.00065863
0.000699036
0.000871154
0.000302248
0.000553243
0.000505103
0.000445094
0.000583745
0.000390928
0.00067065
0.000397309
0.000195522
0.000319185
0.00037226
0.000319613
0.000501973
0.000399318
0.00019647
0.000555986
0.000220678
0.00022511
0.000146373
0.000205294
0.00024396
0.000104177
0.000218812
4.36316e-05
9.09759e-05
0.000155077
0.000272256
0.000218186
0.000185622
0.000166794
0.000365087
0.000385895
0.00025945
0.000448392
0.000346712
0.000389766
0.000458766
0.000512946
0.000579538
0.000619695
0.000322036
0.000421108
0.000480159
0.000555449
0.00042444
0.000167385
0.000282506
0.000529707
0.00063987
0.000988363
0.000892148
0.000972974
0.000653268
0.000532925
0.000343215
0.000845575
0.000908812
0.00027833
0.000661017
0.000473957
0.000610685
0.000638263
0.000794976
0.00061309
0.00071946
0.000605527
0.000589015
0.000589094
0.000410579
0.000360172
0.000425757
0.000485348
0.000749712
0.000744866
0.000505269
0.000227815
0.00037187
0.000478549
0.000792261
0.000338291
0.000191761
0.000365903
0.000483279
0.000544968
0.000373516
0.000548506
0.000350509
0.000519252
0.000391283
0.000441297
0.000476883
0.000538821
0.000783513
0.000852301
0.000348064
0.000256717
0.000608946
0.000440748
0.000509483
0.000902537
0.000632641
0.00122546
0.000452199
0.00040212
0.00061236
0.000676816
0.000403934
0.000568242
0.000634276
0.000722369
0.000705524
0.000775177
0.00047827
0.00114714
0.00040338
0.000349756
0.000750791
0.00057652
0.000861306
0.000791907
0.000801297
0.000303314
0.0009682
0.000520653
0.000532162
0.000454133
0.000384365
0.000417211
0.000486828
0.000493549
0.000266606
0.000290455
0.000449397
0.000255434
0.000320086
0.000393559
0.000232092
0.000577308
0.000333589
0.000225645
0.000261552
0.000218015
0.000120603
0.000239401
0.000108213
0.000145738
4.92367e-05
7.88677e-05
0.000169053
0.00034574
0.000218975
0.000191029
0.000179747
0.000194404
0.000338944
0.000394625
0.00025564
0.000272337
0.000178564
0.000375943
0.00036007
0.000320061
0.00037118
0.000512211
0.000522127
0.000450006
0.000364402
0.00059482
0.000704914
0.000733973
0.000272032
0.000268024
0.000455341
0.000375585
0.000528485
0.000558919
0.000748616
0.0005893
0.000499533
0.000634793
0.000474617
0.000803799
0.000791714
0.000950074
0.000484304
0.000366777
0.00047102
0.000668519
0.000754384
0.000656299
0.000268961
0.000456105
0.000532001
0.000551209
0.000658509
0.000416529
0.000381681
0.000441239
0.000727995
0.00075521
0.00051681
0.000518764
0.000674721
0.000778613
0.000557043
0.000471805
0.000472877
0.000406993
0.000592502
0.000453341
0.000336118
0.000407177
0.000487726
0.000465773
0.000625363
0.000332368
0.000317638
0.000401284
0.000469886
0.000596476
0.000629956
0.000511553
0.000665644
0.000344087
0.000813773
0.000359689
0.000528664
0.000534325
0.000252613
0.00079432
0.0005909
0.000574507
0.000478915
0.000659842
0.000508191
0.000770427
0.000694842
0.000680686
0.00094038
0.000482524
0.000489653
0.000307095
0.000477115
0.000628403
0.000584993
0.000588322
0.000747118
0.000753582
0.000549794
0.000770259
0.000563006
0.000420384
0.000278875
0.000371499
0.000424825
0.000967737
0.000567159
0.000781256
0.000935055
0.000670407
0.000299196
0.000435184
0.000532492
0.000509705
0.000920498
0.000468587
0.000434311
0.000331084
0.000520986
0.000418451
0.000166887
0.000294111
0.000572755
0.000254374
0.000351779
0.00038778
0.000262585
0.000622501
0.000353237
0.000253572
0.000232326
0.000253813
0.000170212
0.000152106
0.000137987
0.000174867
7.78104e-05
5.12557e-05
9.85649e-05
0.000133036
0.000391976
0.000221025
0.000194555
0.000239115
0.000172965
0.000123958
0.000308021
0.00016673
0.000180638
0.000394
0.000531267
0.000445591
0.000436295
0.000470113
0.000338848
0.000463734
0.0005403
0.000539537
0.000321029
0.000333905
0.000439719
0.000554717
0.000593513
0.000503335
0.00018441
0.000338317
0.000311288
0.000511075
0.000706576
0.000100492
0.000264044
0.000241779
0.000402669
0.000549139
0.000325554
0.000646785
0.000678617
0.000521599
0.000437952
0.000342765
0.000646826
0.000322518
0.000441335
0.000271935
0.000490933
0.000406148
0.000578456
0.000698217
0.000582696
0.000889797
0.000897702
0.000558522
0.000740245
0.000619813
0.000739422
0.000604131
0.000345629
0.000469104
0.00053889
0.000849979
0.000389804
0.000598252
0.00105295
0.000531739
0.000472743
0.000550162
0.000762984
0.000834954
0.000418322
0.000492669
0.000312851
0.00048539
0.000475977
0.000724504
0.00026656
0.000420625
0.000334459
0.000414193
0.00067866
0.000410527
0.000275194
0.000801801
0.000600914
0.000300915
0.000412239
0.000547929
0.000337987
0.000480887
0.00067798
0.000440711
0.000482879
0.000602541
0.00043777
0.000429864
0.000550889
0.000447021
0.000689649
0.00057849
0.000744376
0.000707152
0.000654473
0.000740495
0.000859232
0.000811502
0.000961035
0.000517216
0.000536561
0.00042308
0.000384161
0.000391223
0.000643685
0.000535049
0.000691857
0.000838269
0.000789319
0.000544303
0.00099465
0.00075426
0.00112998
0.000334407
0.000913363
0.000160278
0.000350414
0.000796942
0.000631351
0.000815791
0.000896612
0.00064798
0.000707115
0.000416722
0.000766873
0.000596579
0.000871461
0.000540166
0.000494741
0.000499747
0.00062063
0.000475451
0.00116567
0.000246024
0.000303515
0.000383368
0.000405889
0.00089399
0.000413724
0.000478131
0.000673669
0.00037477
0.000225838
0.000305684
0.000247157
0.000243333
0.000126349
0.000259871
0.000225423
8.12362e-05
0.000104343
0.000135128
5.73112e-05
0.000224893
0.000424875
0.000212646
0.00020309
0.000320515
0.000281495
0.000181099
9.40413e-05
0.00054291
0.000262314
0.000352327
0.000291462
0.000301231
0.000371714
0.000441437
0.000700287
0.000417726
0.000306545
0.000333784
0.000376215
0.000421436
0.000372829
0.000356208
0.000429227
0.0003871
0.000461982
0.000390771
0.000301099
0.000340644
0.000319165
0.000429024
0.000420945
0.000349629
0.000158012
0.000201643
0.000327752
0.000339748
0.00057698
0.0004767
0.000373599
0.00025576
0.000391826
0.000621851
0.000297961
0.000224393
0.000319947
0.000810514
0.000521729
0.000585279
0.00046384
0.000400265
0.0006504
0.000472329
0.000340745
0.00066592
0.000778355
0.000307502
0.000359081
0.000684793
0.000668486
0.00062823
0.000588217
0.000620497
0.000685366
0.000792002
0.000498252
0.00053508
0.000369518
0.00082337
0.000434324
0.000159058
0.00049272
0.000347695
0.000445064
0.00045207
0.000386435
0.000483315
0.000224346
0.000461263
0.00034437
0.000512274
0.000694177
0.000474833
0.000611196
0.000657685
0.000977384
0.000656446
0.000599004
0.000378425
0.000435636
0.000453669
0.000593547
0.000317753
0.000511345
0.00059867
0.000836566
0.000481731
0.000866308
0.000663714
0.000263793
0.000388969
0.00076922
0.000649748
0.000272322
0.000467585
0.00032577
0.00118177
0.000737042
0.000588999
0.000552009
0.000459955
0.000354086
0.000624026
0.000675709
0.000458097
0.000622616
0.000812985
0.000912617
0.000953037
0.00106489
0.000446971
0.000898145
0.000935398
0.000272563
0.00111763
0.000531426
0.0004398
0.000558066
0.00081732
0.000694444
0.000697094
0.00103648
0.000865915
0.000448201
0.000506975
0.000869877
0.000765398
0.000690462
0.000330095
0.00020187
0.000327843
0.000458129
0.000837996
0.000513424
0.000779174
0.000855648
0.000495751
0.000720679
0.000468536
0.0009106
0.000458188
0.00108124
0.000556961
0.000429423
0.000523242
0.000431602
0.000344101
0.00043215
0.000568526
0.000138289
0.000349967
0.000252059
0.000636051
0.000967014
0.000645298
0.00052964
0.000667639
0.00038518
0.000231225
0.000286297
0.000259063
0.000284843
0.000236361
0.000120356
0.000112285
0.000401753
0.000119283
0.000131935
0.000255872
5.70193e-05
0.000311321
0.000345267
0.000127131
0.000184068
0.000364676
0.000266277
0.000233634
0.00018907
0.000364399
0.00060986
0.000480036
0.000412685
0.000217382
0.000214582
0.000282088
0.00024826
0.000223877
0.000325213
0.000412898
0.000396747
0.000426238
0.000674632
0.000448603
0.000285771
0.000424378
0.000315697
0.000310554
0.000393015
0.000610423
0.000386116
0.000399918
0.000238956
0.000326632
0.000477942
0.000328066
0.000257895
0.000372921
0.000294673
0.000313997
0.000269515
0.000302975
0.000399676
0.000365803
0.000247414
0.000473179
0.000405337
0.000423003
0.000510726
0.000595675
0.000707106
0.000579247
0.000678736
0.000421251
0.000401185
0.000221815
0.000362573
0.000242078
0.000341534
0.000318863
0.000483585
0.000527812
0.00054287
0.000490117
0.000409221
0.000376487
0.000392875
0.000593599
0.00045299
0.000335093
0.000242276
0.000628754
0.000292686
0.000464525
0.000380921
0.000627234
0.000443409
0.000408319
0.000616133
0.00069088
0.00069796
0.000573877
0.000478995
0.000453587
0.000443283
0.00023978
0.000421368
0.000567906
0.000358334
0.00101918
0.000319704
0.000476173
0.000508307
0.000313969
0.000321755
0.000504752
0.000510356
0.000661476
0.000620511
0.000391545
0.000574565
0.00112022
0.000810702
0.000725887
0.00060727
0.000484398
0.000379459
0.000263621
0.000237724
0.00046903
0.000506492
0.000185466
0.000538637
0.000564638
0.000267527
0.000328466
0.000442258
0.000660006
0.000573534
0.000693016
0.000884122
0.000491953
0.000837295
0.000543479
0.000484513
0.000949106
0.00120421
0.00047335
0.000331026
0.00050485
0.000581432
0.000444046
0.00039645
0.000780651
0.000813411
0.000556906
0.0012578
0.000993113
0.000635502
0.00118961
0.00108554
0.000401175
0.000594513
0.000396928
0.00051722
0.000297081
0.000435758
0.000863138
0.000721007
0.000650401
0.00124118
0.00082295
0.00041569
0.000441659
0.00102672
0.000785159
0.00054907
0.000636441
0.000375951
0.000288457
0.000456478
0.000448929
0.00146424
0.000669108
0.000671618
0.000853786
0.000453986
0.000647517
0.000396737
0.000658331
0.000831229
0.00120001
0.000656388
0.000527601
0.000357216
0.00055227
0.000318451
0.000397485
0.00043408
0.000551829
0.000232133
0.00033794
0.000291723
0.000529635
0.000948122
0.000657462
0.000306749
0.000614798
0.000416736
0.000264592
0.000310935
0.000225454
0.00043536
0.000349011
0.000233623
0.000162731
0.000104483
8.79791e-05
0.000155176
7.29516e-05
0.000260207
8.92958e-05
0.000292067
0.000358392
0.000130016
0.000223901
0.000365254
0.000219139
0.000128221
0.000172808
0.000365079
0.000226426
0.000964045
0.000566036
0.000752743
0.000406025
0.000420266
0.000394432
0.000206242
0.000250121
0.00025158
0.000411561
0.000344706
0.000333074
0.000219939
0.000419497
0.00060822
0.000502364
0.000527802
0.000626491
0.000538833
0.000515614
0.000487188
0.000464368
0.000373092
0.000392474
0.000390619
0.00050406
0.00037699
0.000385048
0.000282041
0.000236846
0.000320701
0.00041126
0.00034221
0.000394167
0.000303245
0.000300578
0.000219986
0.00029403
0.000397139
0.000527364
0.000516976
0.000334789
0.000215776
0.000341578
0.00028995
0.000421431
0.000323917
0.000464741
0.000396695
0.000325434
0.000706292
0.000498816
0.000489364
0.000431573
0.000266097
0.000426671
0.000320551
0.000336497
0.000270881
0.00032416
0.000467482
0.000306756
0.000447054
0.000496309
0.000422175
0.000563214
0.000537313
0.000291709
0.000272943
0.000543383
0.000409535
0.00038887
0.000483686
0.000347941
0.000363227
0.000284403
0.000577193
0.000298868
0.000464768
0.000710196
0.000600067
0.000373555
0.000611963
0.000930428
0.000606728
0.000333463
0.000424655
0.000585663
0.000456305
0.000437648
0.00055514
0.000581198
0.00101835
0.00080254
0.000456733
0.000818239
0.00037482
0.0004065
0.000568151
0.000270895
0.000391179
0.000443556
0.000390204
0.000429387
0.000425662
0.000222207
0.000531968
0.00130377
0.000198108
0.000412904
0.000483561
0.000929724
0.000599964
0.00026022
0.000402643
0.00023066
0.000502588
0.000435106
0.00103499
0.000605258
0.000391637
0.000344492
0.000752461
0.000887999
0.000577544
0.000989845
0.000526479
0.0006806
0.0007371
0.00071139
0.000845116
0.000499889
0.0015457
0.000725424
0.000261858
0.000366507
0.000546921
0.000473471
0.000411279
0.000559911
0.000531038
0.000596172
0.000646277
0.000933773
0.000816512
0.000583943
0.000999815
0.000793966
0.000783147
0.000554943
0.000582993
0.000330724
0.000611147
0.000426402
0.000696278
0.00067815
0.000713148
0.000824571
0.000802154
0.000680089
0.000495337
0.000626907
0.00138047
0.000420369
0.000746378
0.000575709
0.000488071
0.000323938
0.000288499
0.000221517
0.00044227
0.00066879
0.000671257
0.000704618
0.000698254
0.000690428
0.000911444
0.000585924
0.00128591
0.000969341
0.00103563
0.00083501
0.000450308
0.00037565
0.000603476
0.000590839
0.0004299
0.000424044
0.000386787
0.000599351
0.000338055
0.000303358
0.000269357
0.000338888
0.0010245
0.000524508
0.00033129
0.000508677
0.000589446
0.000326095
0.000321983
0.000273099
0.000631408
0.000476618
0.000340734
0.000288685
0.000161779
0.000175213
0.00019254
6.93976e-05
0.000121511
0.000134457
0.000203979
0.000260175
0.000359183
0.000175267
0.000215273
0.000326463
0.000117312
8.7919e-05
0.000175185
0.000346659
0.000224833
0.000231844
0.00132631
0.000913223
0.000936034
0.000751425
0.000535072
0.000588244
0.000421198
0.000400284
0.000398115
0.000437577
0.000353111
0.000281216
0.000407181
0.000436989
0.000469162
0.000233814
0.00020874
0.000469638
0.000328548
0.000647609
0.000335261
0.000340723
0.00043647
0.000604976
0.000486286
0.000456877
0.000500218
0.000404834
0.000376882
0.000447127
0.000466211
0.000331527
0.000302406
0.000593367
0.000283523
0.000351756
0.00026609
0.000334618
0.000280414
0.000441301
0.000446755
0.000285733
0.00039663
0.000314676
0.000398205
0.000330288
0.000265568
0.000388172
0.000382143
0.000464227
0.000394999
0.000361103
0.000406516
0.000298631
0.000263661
0.000373844
0.000229794
0.00050049
0.000443037
0.000470599
0.000365654
0.000456328
0.000480416
0.000400671
0.000436895
0.000313882
0.00048576
0.0004894
0.000393302
0.000322457
0.000401063
0.000351354
0.000387878
0.000295026
0.000228907
0.000323134
0.000305253
0.000349463
0.000412274
0.000432525
0.000197759
0.000276827
0.000612894
0.000500161
0.000432281
0.00057177
0.00033702
0.000587653
0.000222278
0.000417278
0.000365511
0.000543559
0.000309521
0.000590638
0.000782021
0.000433716
0.000298842
0.000398503
0.0004972
0.00059456
0.000429977
0.00040855
0.000644067
0.000502044
0.000376486
0.000413927
0.000499102
0.000728029
0.000720035
0.000680132
0.000350696
0.000764574
0.000744304
0.000228402
0.000218878
0.000350338
0.000413628
0.000279621
0.000524731
0.000421942
0.000493162
0.000284327
0.000660106
0.000490372
0.000348845
0.000697851
0.000415313
0.000441288
0.000267811
0.000397662
0.000427409
0.000498579
0.000500514
0.000416282
0.000480252
0.000479821
0.000558652
0.000333147
0.000309976
0.00080277
0.000463891
0.000397509
0.00030286
0.000478647
0.000600099
0.000653548
0.000918301
0.000774424
0.000982131
0.000915454
0.000753857
0.000763462
0.000349224
0.00030519
0.000584153
0.000497293
0.000398274
0.000271578
0.000423537
0.000306891
0.000573936
0.000834449
0.000753965
0.000736681
0.000725442
0.000690984
0.00101947
0.000895769
0.000766988
0.000461597
0.000522026
0.00057151
0.000489104
0.0008634
0.000535513
0.000793699
0.000866365
0.000908078
0.000811541
0.000441473
0.000728869
0.00147894
0.000540201
0.00092982
0.000734214
0.000506729
0.000660595
0.000297532
0.000178462
0.000366078
0.000768388
0.000875249
0.000917276
0.000566244
0.000653616
0.000805747
0.00103647
0.000670803
0.00104357
0.000737254
0.000916106
0.00085347
0.000425347
0.000403442
0.000687303
0.000368081
0.00053014
0.00034332
0.000385924
0.000410326
0.000545102
0.000179369
0.000284295
0.00019409
0.000406103
0.000953717
0.000721234
0.000295365
0.000497872
0.000685927
0.000368715
0.000355032
0.000363213
0.000523602
0.000464393
0.000477616
0.000348662
0.000390118
0.000138342
0.000109024
0.000442336
7.56395e-05
0.000209315
9.92548e-05
3.54445e-05
0.000118135
0.000344187
0.000195891
0.000195733
0.000280741
4.70991e-05
0.000141469
0.000210927
0.000294061
0.000252879
0.000389395
0.000170571
0.000889254
0.00131548
0.00142558
0.000816067
0.000792523
0.00111222
0.000653519
0.000598172
0.000523026
0.000799013
0.000330224
0.000345618
0.000444339
0.000397748
0.000532195
0.000444704
0.000319022
0.000360955
0.000355645
0.000401364
0.00038177
0.000310731
0.000331727
0.000512982
0.000513732
0.000482714
0.000348255
0.000499813
0.000379863
0.000444494
0.000633759
0.00043302
0.000548559
0.000547951
0.000299421
0.000432435
0.000381952
0.000426151
0.000492
0.000279794
0.000355856
0.000439045
0.000311811
0.000402762
0.000386269
0.000342074
0.000387748
0.000290441
0.00027527
0.000139006
0.000373281
0.000335602
0.000373008
0.000455054
0.000276179
0.000377485
0.000245558
0.000252818
0.000341245
0.000295939
0.000275044
0.000137692
0.000415608
0.000761823
0.00050901
0.000377872
0.000330756
0.000290426
0.000385993
0.000442026
0.000297075
0.00021641
0.000476129
0.000334093
0.000415691
0.000207885
0.000474451
0.000460603
0.00029049
0.000445293
0.000358623
0.000393886
0.000455353
0.000475973
0.000564689
0.000173835
0.000273279
0.000359457
0.000536229
0.00024825
0.00019046
0.000403054
0.000356663
0.000454291
0.00042745
0.00028153
0.000709394
0.000535359
0.00042281
0.000630201
0.000766031
0.000481989
0.000325709
0.000418232
0.000502937
0.000540588
0.000547874
0.000464809
0.000439272
0.000403511
0.000813761
0.000584806
0.000285116
0.000585566
0.000217767
0.000454709
0.000313869
0.000311696
0.000411817
0.000491646
0.00030318
0.00038454
0.000248252
0.000259238
0.00087861
0.00095351
0.000633625
0.000400541
0.000205577
0.000396092
0.00051405
0.000300822
0.000319065
0.000422381
0.000319742
0.000392533
0.000217137
0.000539408
0.000529003
0.000720295
0.000435883
0.000640521
0.000622959
0.000427973
0.000393694
0.000692827
0.000562836
0.000462469
0.000388647
0.000633217
0.000561617
0.000670423
0.000494314
0.000530185
0.000817194
0.000306545
0.000709827
0.000496835
0.000470229
0.000381996
0.000781753
0.00105597
0.000520081
0.000564241
0.000869406
0.000989612
0.000861752
0.000318739
0.000922161
0.000630682
0.000603615
0.000406573
0.000349433
0.000444033
0.000585715
0.000534732
0.000423788
0.000514166
0.000797939
0.000947687
0.000882963
0.000948059
0.000929254
0.000927342
0.00103102
0.000706145
0.000736483
0.000859749
0.000583218
0.000505029
0.000373422
0.000472568
0.000425055
0.000460244
0.000553121
0.000842771
0.000860503
0.000848295
0.000681829
0.000426314
0.000882715
0.00102466
0.000778758
0.00102409
0.000614759
0.00059737
0.000786598
0.000767497
0.000330546
0.000204773
0.000356836
0.00035287
0.00074542
0.000678697
0.000529379
0.000697004
0.000630822
0.00116196
0.000636052
0.00116664
0.000600165
0.000708623
0.000723582
0.000540637
0.000587095
0.000595403
0.000486167
0.000603314
0.000580064
0.000316961
0.000428918
0.000346005
0.000593921
0.000324875
0.000224955
0.000189159
0.000297778
0.00131085
0.00125615
0.000275934
0.00048476
0.000588112
0.000388296
0.000386783
0.00038977
0.000300967
0.000465096
0.000516476
0.00027401
0.000388932
0.000529614
0.000182078
0.000122213
0.000297066
0.000148692
0.000119157
0.000218159
6.73836e-05
9.46008e-05
0.000316449
0.00019751
0.000185363
0.000248801
0.000126117
0.000148723
0.000186839
0.000287955
0.000198472
0.000149972
0.00010148
0.000164286
0.00037901
0.00239886
0.00111852
0.000883259
0.00142988
0.00127696
0.00133724
0.000757032
0.000803603
0.00102482
0.00101277
0.00074653
0.000581418
0.000482556
0.000598201
0.000665635
0.000478825
0.000446282
0.000488534
0.000370362
0.000495772
0.000486807
0.000310045
0.0002279
0.000366167
0.00047354
0.000463634
0.000376453
0.000346637
0.000274586
0.000361046
0.000332739
0.00055355
0.000567326
0.000498973
0.000370285
0.000488506
0.000345411
0.000453963
0.000506272
0.000423962
0.000419746
0.000528688
0.000463728
0.000419775
0.000289055
0.000345617
0.000401487
0.000365336
0.000291675
0.000335236
0.000360551
0.000552199
0.00030355
0.000389024
0.000370414
0.000353159
0.000328979
0.000286197
0.000305257
0.000190586
0.000403761
0.000292712
0.000347857
0.000316484
0.000369308
0.000401287
0.000224706
0.000265445
0.000268068
0.000343382
0.000294351
0.000334327
0.000132146
0.000537866
0.000211645
0.000548606
0.000574186
0.000324184
0.000490649
0.000384734
0.000426506
0.000410305
0.000424124
0.00031509
0.000523219
0.000444358
0.000297702
0.000209987
0.000216846
0.000373913
0.000352611
0.000299413
0.000356969
0.000531349
0.000307526
0.000519577
0.000541922
0.000341929
0.000338152
0.000298546
0.000264626
0.000425429
0.0004422
0.000208516
0.000333702
0.000375505
0.0002838
0.000481635
0.000560524
0.000387707
0.000267068
0.000350607
0.000511397
0.000357712
0.000347898
0.000649004
0.000339568
0.000646267
0.000446034
0.000410275
0.000397381
0.000569858
0.000390861
0.000387712
0.000261309
0.000651571
0.000671948
0.000371524
0.000334732
0.000538099
0.000260151
0.00044182
0.000264835
6.29071e-05
0.000225198
0.000359719
0.00022568
0.000314347
0.000409306
0.000379683
0.000586004
0.000578094
0.000689679
0.000374583
0.000526874
0.000502314
0.000392291
0.000446716
0.000373973
0.000264469
0.000364797
0.00057188
0.000430581
0.000533873
0.000405033
0.000353493
0.000649539
0.000525021
0.000420407
0.000557127
0.000337129
0.000583899
0.000586926
0.000529792
0.000781618
0.000663212
0.000423383
0.00030527
0.000704853
0.000602562
0.00032884
0.000329404
0.00051647
0.000490618
0.000390831
0.000605316
0.00038979
0.000449912
0.000329884
0.000955226
0.000809512
0.000734369
0.000418763
0.000711893
0.000937497
0.000644706
0.000770247
0.00106256
0.000409237
0.000664011
0.000562657
0.000368948
0.00054257
0.00045706
0.000622409
0.000456161
0.000277443
0.000643157
0.000820948
0.00122099
0.000907506
0.000959562
0.000862914
0.000859334
0.00145198
0.000771387
0.00053593
0.000532924
0.00122506
0.000808406
0.000503705
0.000367691
0.000382759
0.000483898
0.000402137
0.000802719
0.000782362
0.000734433
0.000708495
0.000692976
0.000444372
0.00128918
0.00119148
0.000697043
0.00120023
0.00080101
0.000836186
0.000627729
0.000680655
0.00138232
0.000251491
0.000205647
0.000366488
0.000570103
0.000790348
0.000913349
0.000398031
0.000617923
0.000499887
0.000782059
0.000756288
0.00115646
0.000661286
0.000743493
0.000737109
0.000717264
0.000846153
0.000543351
0.000435779
0.000758298
0.000193123
0.000515549
0.000671465
0.000472217
0.000341335
0.000508073
0.000380364
0.000206102
0.000185026
0.000226684
0.00132277
0.00150236
0.000268401
0.00049251
0.00048677
0.000420316
0.000379002
0.000299724
0.000186284
0.000452693
0.000394205
0.000238379
0.000231419
0.000464618
0.000357288
0.000628437
0.000224221
0.000320938
0.000191224
7.12303e-05
0.000268707
0.000377395
4.75976e-05
0.000100484
0.00020811
0.000203734
0.00020608
0.000203378
0.00018713
5.93215e-05
0.000243282
0.000275473
0.00032598
0.000149868
0.000142837
0.00041291
0.0001873
0.000609624
0.00241032
0.00244702
0.000980631
0.00114441
0.00103881
0.000992682
0.00106257
0.00129697
0.00124635
0.000978874
0.000575714
0.000725915
0.000995038
0.0010128
0.000829151
0.000711139
0.000629994
0.000621795
0.000716406
0.000624191
0.000433146
0.000457555
0.000564264
0.000513798
0.000514934
0.000489922
0.00035327
0.000287152
0.000263488
0.000232882
0.000320202
0.000517136
0.000378361
0.000265899
0.00023854
0.000338287
0.000488568
0.000430456
0.000400104
0.000500993
0.000420687
0.000395944
0.000604646
0.000327434
0.000459461
0.000456392
0.000553684
0.000528554
0.00032036
0.000449915
0.000424639
0.000503839
0.000314345
0.000379639
0.000380971
0.000264246
0.000431341
0.000402335
0.000355451