/*--------------------------------*- C++ -*----------------------------------*\
  =========                 |
  \\      /  F ield         | OpenFOAM: The Open Source CFD Toolbox
   \\    /   O peration     | Website:  https://openfoam.org
    \\  /    A nd           | Version:  7
     \\/     M anipulation  |
\*---------------------------------------------------------------------------*/
FoamFile
{
    version     2.0;
    format      ascii;
    class       volScalarField;
    location    "5.5";
    object      p;
}
// * * * * * * * * * * * * * * * * * * * * * * * * * * * * * * * * * * * * * //

dimensions      [0 2 -2 0 0 0 0];

internalField   nonuniform List<scalar> 
18630
(
-68.9304
-69.7876
-68.8353
-68.2517
-69.7843
-69.6317
-68.1663
-68.7589
-68.2013
-66.9127
-68.0798
-69.5579
-68.0348
-69.4487
-68.0381
-66.927
-68.7247
-68.1161
-66.8607
-65.6759
-67.0491
-67.8583
-67.5068
-69.2312
-67.7842
-66.9612
-69.2379
-67.9134
-66.7686
-65.7601
-68.6984
-68.0356
-66.8106
-65.6078
-64.7188
-65.3509
-66.8027
-66.3411
-67.691
-67.1722
-65.5247
-68.9759
-67.6083
-66.7049
-65.5245
-69.0338
-67.7791
-66.6091
-65.585
-64.4844
-68.6801
-67.9765
-66.7612
-65.5561
-64.6438
-64.198
-62.8628
-65.0752
-64.7778
-66.3294
-66.0345
-65.1435
-67.4756
-66.8386
-65.2806
-64.8085
-68.8052
-67.5076
-66.4976
-65.2985
-63.9265
-68.8406
-67.6424
-66.4548
-65.4555
-64.4035
-63.8042
-68.6673
-67.9083
-66.7046
-65.5153
-64.5716
-64.1376
-63.6619
-61.3141
-62.6779
-62.6017
-64.8078
-64.314
-64.5433
-65.9009
-65.5591
-64.9596
-63.3264
-67.1504
-66.4736
-65.0867
-64.5238
-64.0189
-68.6176
-67.3328
-66.2981
-64.9982
-63.685
-63.7133
-68.6613
-67.5101
-66.2969
-65.2976
-64.3223
-63.7095
-63.2831
-68.6585
-67.8297
-66.6579
-65.4804
-64.5056
-64.0814
-63.6216
-63.0529
-59.9593
-61.0506
-60.7824
-62.5517
-62.154
-61.8187
-64.3811
-63.797
-64.016
-63.1841
-65.6169
-65.12
-64.7017
-63.1528
-62.5073
-66.8477
-66.1007
-64.8969
-64.3115
-63.8561
-63.1479
-68.3965
-67.1716
-66.0972
-64.6994
-63.4593
-63.5368
-63.2529
-68.5098
-67.3658
-66.1351
-65.1288
-64.2406
-63.6208
-63.187
-62.6875
-68.6404
-67.7761
-66.6315
-65.4472
-64.4496
-64.0245
-63.5783
-63.0305
-62.9655
-58.6136
-59.798
-59.7425
-60.9315
-60.6088
-60.8665
-62.3906
-62.0417
-61.6612
-61.8561
-64.0642
-63.4883
-63.4172
-62.7866
-61.8331
-65.2599
-64.7326
-64.358
-62.981
-62.2281
-62.0507
-66.5313
-65.7239
-64.7016
-64.0904
-63.7084
-62.9012
-62.6239
-68.1493
-67.0286
-65.9333
-64.4435
-63.237
-63.3767
-63.0518
-62.2001
-68.3624
-67.2206
-65.9715
-64.952
-64.1611
-63.5407
-63.096
-62.5866
-62.4039
-68.6044
-67.7519
-66.5962
-65.392
-64.4108
-63.9698
-63.532
-62.9964
-62.9161
-62.2343
-57.6015
-58.5645
-58.5242
-59.7604
-59.6312
-59.6152
-60.8816
-60.5314
-60.4127
-60.1953
-62.1978
-61.9745
-61.415
-61.5433
-60.8055
-63.7269
-63.1354
-62.9325
-62.3519
-61.5631
-61.1035
-64.9591
-64.4173
-63.9772
-62.7733
-61.9339
-61.8536
-61.6667
-66.1252
-65.4739
-64.4986
-63.8455
-63.5463
-62.9181
-62.3908
-62.3146
-67.9078
-66.8651
-65.7464
-64.2529
-63.0028
-63.2124
-62.8499
-62.0028
-61.648
-68.2111
-67.0705
-65.8187
-64.7784
-64.0832
-63.4666
-63.0092
-62.4868
-62.3414
-61.3387
-68.5706
-67.7325
-66.5466
-65.2984
-64.3675
-63.9169
-63.4845
-62.9521
-62.8656
-62.1726
-61.5957
-56.9079
-57.6135
-57.5704
-58.3705
-58.4601
-58.4129
-59.5263
-59.4221
-59.3681
-59.1379
-60.6847
-60.2017
-60.1551
-60.0698
-59.8331
-62.0095
-61.598
-61.2874
-61.1543
-60.5429
-60.1099
-63.5349
-62.7867
-62.5356
-61.9962
-61.2827
-60.8836
-60.5307
-64.7246
-64.149
-63.6485
-62.5315
-61.6701
-61.7117
-61.4201
-61.413
-65.8231
-65.175
-64.2747
-63.5043
-63.3721
-62.7044
-62.1993
-62.0072
-61.2495
-67.6576
-66.6902
-65.5026
-64.0456
-62.764
-63.046
-62.6625
-61.8419
-61.4919
-60.8286
-68.0708
-66.9314
-65.6513
-64.5888
-64.0074
-63.3968
-62.9296
-62.4083
-62.2854
-61.2676
-61.1941
-68.5584
-67.7085
-66.4892
-65.2228
-64.2897
-63.8689
-63.4404
-62.9199
-62.8282
-62.1091
-61.5843
-61.4805
-55.6878
-56.1035
-56.8104
-56.7605
-57.4912
-57.3762
-57.3773
-58.3023
-58.098
-58.1125
-57.9918
-59.2438
-58.9235
-58.8748
-58.945
-58.8172
-60.606
-60.0637
-59.8946
-59.8686
-59.5825
-59.2252
-61.7447
-61.3083
-61.1543
-60.8449
-60.3049
-59.777
-59.4201
-63.2867
-62.5825
-62.1673
-61.6097
-60.977
-60.6594
-60.3239
-60.1537
-64.4659
-63.8754
-63.3167
-62.274
-61.4294
-61.5751
-61.2421
-61.0958
-61.0028
-65.5643
-64.8869
-64.0604
-63.194
-63.1814
-62.4772
-61.9829
-61.769
-61.0554
-60.1242
-67.3724
-66.5054
-65.3975
-63.835
-62.5455
-62.8904
-62.4533
-61.6289
-61.3858
-60.6736
-59.9725
-67.951
-66.7862
-65.4853
-64.4211
-63.925
-63.3338
-62.8538
-62.3402
-62.2082
-61.1958
-61.1713
-61.4773
-68.5611
-67.6845
-66.4235
-65.1564
-64.2018
-63.823
-63.3961
-62.9002
-62.8033
-62.052
-61.581
-61.4538
-61.0287
-55.2531
-55.682
-55.6728
-56.1734
-56.0877
-56.7478
-56.7247
-56.6551
-57.4831
-57.2224
-57.3366
-57.1615
-58.2146
-57.9265
-57.9258
-57.7501
-57.5352
-59.1581
-58.8831
-58.7069
-58.7098
-58.5813
-58.3749
-60.2944
-60.0247
-59.7143
-59.5786
-59.2145
-59.0391
-58.595
-61.5412
-61.1916
-60.847
-60.6484
-60.0895
-59.5756
-59.2169
-59.0213
-62.9669
-62.3352
-61.9234
-61.206
-60.7741
-60.3965
-60.1642
-59.8512
-59.8814
-64.1835
-63.578
-62.9478
-62.1462
-61.2189
-61.3914
-60.9689
-60.832
-60.689
-59.7403
-65.2649
-64.6583
-63.8317
-62.9784
-63
-62.3503
-61.7455
-61.5043
-60.8631
-59.9662
-59.4378
-67.1538
-66.2875
-65.3433
-63.6865
-62.3504
-62.738
-62.2673
-61.4549
-61.2741
-60.6445
-60.0703
-60.796
-67.8453
-66.6444
-65.3428
-64.2713
-63.8471
-63.2764
-62.7919
-62.2643
-62.1165
-61.1336
-61.169
-61.4614
-60.5826
-68.5671
-67.6538
-66.3519
-65.0684
-64.1602
-63.789
-63.347
-62.8735
-62.7776
-62.0232
-61.5824
-61.4286
-61.0203
-61.085
-54.8142
-55.0783
-55.3465
-55.4486
-55.6719
-55.7112
-55.6711
-56.1465
-56.1867
-56.115
-56.6733
-56.7362
-56.6015
-56.5697
-57.4006
-57.457
-57.2893
-57.1298
-57.1068
-57.9556
-57.9024
-58.0392
-57.6367
-57.3711
-57.4165
-58.8267
-58.6146
-58.6276
-58.4913
-58.4862
-58.2301
-57.8264
-59.8977
-59.8256
-59.5442
-59.324
-59.0508
-58.8227
-58.4837
-58.4656
-61.2663
-60.9519
-60.5489
-60.3518
-59.9196
-59.494
-59.1262
-58.8667
-58.7642
-62.6831
-62.1167
-61.5956
-60.9928
-60.6169
-60.1925
-60.0145
-59.7438
-59.6296
-59.3209
-63.919
-63.3845
-62.5938
-61.9304
-61.0753
-61.2679
-60.7921
-60.5909
-60.3624
-59.5744
-58.9419
-65.0787
-64.3698
-63.6177
-62.7865
-62.78
-62.1583
-61.6313
-61.1613
-60.6664
-59.8402
-59.495
-59.2813
-66.9184
-66.0816
-65.2103
-63.5589
-62.177
-62.5827
-62.0845
-61.2871
-61.1442
-60.6373
-60.1294
-60.7915
-60.6824
-67.7409
-66.5147
-65.1977
-64.1392
-63.7722
-63.22
-62.7409
-62.2125
-62.0379
-61.062
-61.1408
-61.4302
-60.5454
-60.7151
-68.5723
-67.6199
-66.2781
-64.9836
-64.1364
-63.7586
-63.3082
-62.8361
-62.7465
-61.9801
-61.5872
-61.4037
-61.0137
-61.0958
-61.203
-54.7267
-54.9725
-55.0379
-55.0751
-55.195
-55.3219
-55.4224
-55.444
-55.6374
-55.705
-55.6534
-55.7304
-56.1193
-56.1374
-56.0639
-56.0913
-56.6072
-56.5358
-56.5678
-56.5448
-56.4008
-57.1974
-57.2306
-57.1648
-57.1076
-57.0255
-56.785
-57.6355
-57.7927
-57.7178
-57.6308
-57.331
-57.3026
-57.1771
-58.6357
-58.4949
-58.3656
-58.3559
-58.3949
-58.0875
-57.728
-57.431
-59.8276
-59.4465
-59.2802
-59.1398
-58.8532
-58.5633
-58.4138
-58.2991
-57.9567
-60.9834
-60.6197
-60.3068
-60.0633
-59.7607
-59.3439
-59.0085
-58.7415
-58.6046
-58.3761
-62.3997
-61.9485
-61.3791
-60.6894
-60.4406
-60.0694
-59.9563
-59.7426
-59.4735
-59.0572
-58.7321
-63.5916
-63.1847
-62.3594
-61.6942
-60.9824
-61.1801
-60.7908
-60.3589
-60.0779
-59.3645
-58.9143
-58.5844
-64.8714
-64.1342
-63.3914
-62.5947
-62.5489
-61.9957
-61.4553
-60.8995
-60.5175
-59.7734
-59.5319
-59.4847
-60.1442
-66.6314
-65.952
-65.0252
-63.4292
-62.0512
-62.4239
-61.9071
-61.1244
-61.051
-60.5575
-60.049
-60.7257
-60.627
-60.2405
-67.6363
-66.3623
-65.0633
-63.9965
-63.6986
-63.1683
-62.6881
-62.1771
-61.956
-61.0038
-61.1056
-61.3793
-60.5016
-60.7517
-60.9374
-68.5615
-67.5869
-66.2207
-64.9028
-64.0998
-63.7128
-63.2768
-62.8098
-62.7245
-61.9086
-61.5949
-61.3796
-61.0095
-61.1122
-61.229
-61.1115
-54.7241
-54.7898
-54.7542
-54.9579
-54.9235
-55.0668
-54.9847
-55.0988
-55.2535
-55.3038
-55.3609
-55.3513
-55.3649
-55.6035
-55.6075
-55.6191
-55.6034
-55.5537
-56.1052
-56.1123
-56.0453
-55.9671
-56.0095
-56.554
-56.4846
-56.5461
-56.442
-56.3313
-56.2643
-57.1009
-57.1321
-57.0359
-57.0435
-56.9138
-56.7221
-56.5999
-57.6949
-57.671
-57.5399
-57.5591
-57.2304
-57.06
-57.0866
-56.8963
-58.5844
-58.3174
-58.2383
-58.1999
-58.1293
-57.921
-57.612
-57.3082
-57.3105
-59.5911
-59.2146
-59.1924
-58.7295
-58.521
-58.4415
-58.2333
-58.1131
-57.8391
-57.6985
-60.7136
-60.4632
-60.0993
-59.7699
-59.5301
-59.1523
-58.8859
-58.5689
-58.4554
-58.2434
-58.0741
-62.2126
-61.5578
-61.1444
-60.504
-60.2545
-59.8415
-59.9081
-59.4466
-59.2725
-58.9278
-58.7371
-58.2455
-63.403
-62.8031
-62.1281
-61.4892
-60.9387
-60.9311
-60.5556
-60.0299
-59.834
-59.2202
-58.8646
-58.582
-58.2957
-64.6118
-64.003
-63.1819
-62.3145
-62.33
-61.8191
-61.2865
-60.732
-60.3725
-59.6887
-59.5063
-59.6461
-60.1458
-60.5291
-66.434
-65.7489
-64.8459
-63.3345
-61.9143
-62.2712
-61.7621
-60.9837
-60.9704
-60.4947
-60.0476
-60.6322
-60.5638
-60.3849
-60.8399
-67.5373
-66.2363
-64.9183
-63.8589
-63.6407
-63.125
-62.6466
-62.142
-61.8687
-60.9574
-61.0793
-61.3136
-60.4917
-60.7923
-61.0141
-60.9984
-68.5218
-67.5501
-66.1729
-64.8328
-64.0556
-63.6773
-63.234
-62.7842
-62.711
-61.8439
-61.6015
-61.3541
-61.0083
-61.1319
-61.2589
-61.1441
-60.7631
-54.5459
-54.7351
-54.7619
-54.7829
-54.7618
-54.8809
-54.9455
-54.887
-55.0039
-54.9945
-55.0107
-55.0147
-55.1321
-55.1447
-55.3136
-55.3229
-55.3141
-55.2918
-55.3707
-55.6365
-55.6404
-55.6622
-55.566
-55.4948
-55.5209
-56.0531
-56.1391
-56.0779
-56.0029
-55.9538
-55.858
-56.4709
-56.488
-56.4981
-56.4169
-56.3251
-56.1428
-56.1191
-56.9937
-56.9985
-56.9945
-56.9362
-56.8481
-56.7286
-56.5728
-56.4315
-57.5582
-57.5696
-57.5231
-57.4184
-57.1701
-57.0086
-56.9485
-56.7837
-56.7337
-58.32
-58.1789
-58.2226
-57.9705
-57.945
-57.7087
-57.591
-57.3608
-57.157
-57.1101
-59.3416
-59.216
-59.0081
-58.5694
-58.5296
-58.2643
-58.109
-58.0629
-57.7611
-57.6084
-57.401
-60.4396
-60.1247
-59.9573
-59.5742
-59.4054
-59.0806
-58.8233
-58.4039
-58.3373
-58.1057
-57.9645
-57.5823
-61.9814
-61.2717
-60.8122
-60.3718
-60.1251
-59.7096
-59.7752
-59.3141
-59.0184
-58.8453
-58.4702
-58.258
-58.2475
-63.2612
-62.5539
-61.8556
-61.2858
-60.8356
-60.752
-60.4395
-59.8646
-59.5866
-59.0789
-58.5787
-58.7718
-58.4707
-59.3221
-64.3806
-63.7616
-63.0205
-62.1617
-62.0882
-61.6737
-61.1489
-60.5201
-60.1882
-59.6891
-59.5418
-59.7354
-60.0774
-60.5798
-60.4965
-66.252
-65.5234
-64.7056
-63.1523
-61.8863
-62.1173
-61.621
-60.8741
-60.8931
-60.4935
-60.1099
-60.6124
-60.4996
-60.4477
-60.9631
-61.0358
-67.4366
-66.1246
-64.789
-63.7374
-63.5842
-63.0731
-62.6004
-62.1158
-61.7847
-60.9562
-61.0558
-61.2523
-60.491
-60.8394
-61.0919
-61.0984
-61.4613
-68.4682
-67.5043
-66.107
-64.7845
-64.0152
-63.6486
-63.185
-62.7524
-62.6973
-61.7862
-61.6106
-61.3294
-61.0121
-61.1508
-61.2862
-61.165
-60.8005
-60.5499
-54.4777
-54.5574
-54.6364
-54.7373
-54.823
-54.7939
-54.7537
-54.7939
-54.8265
-54.8983
-54.908
-54.9162
-54.9231
-54.9784
-54.9163
-55.0596
-55.1171
-55.045
-55.0914
-55.0804
-55.3468
-55.3467
-55.3379
-55.3629
-55.2607
-55.3107
-55.5954
-55.6628
-55.6795
-55.6552
-55.5838
-55.5361
-55.3947
-56.0201
-56.0434
-56.056
-55.9433
-55.9548
-55.7998
-55.6896
-56.3522
-56.407
-56.3394
-56.3563
-56.2497
-56.2444
-56.0065
-55.9861
-56.8117
-56.8834
-56.8491
-56.826
-56.8306
-56.7044
-56.5492
-56.4367
-56.1481
-57.4972
-57.4128
-57.4223
-57.2948
-57.174
-56.9924
-56.8898
-56.7553
-56.6504
-56.5168
-58.186
-58.0886
-58.0242
-58.0218
-57.8995
-57.6715
-57.5578
-57.398
-57.1772
-57.0164
-56.8845
-59.2706
-59.0089
-58.8319
-58.6647
-58.2967
-58.2071
-58.0877
-57.9783
-57.7585
-57.5653
-57.3609
-57.1781
-60.2375
-59.8158
-59.7322
-59.3871
-59.2798
-59.0126
-58.7059
-58.5538
-58.2414
-58.0372
-57.8737
-57.7055
-57.7031
-61.751
-61.1674
-60.6925
-60.2719
-60.0316
-59.6925
-59.659
-59.3746
-58.8473
-58.5525
-58.5027
-58.2887
-58.4019
-58.2859
-62.9842
-62.266
-61.5757
-61.1117
-60.7549
-60.7413
-60.3998
-59.7486
-59.439
-58.9164
-58.5848
-58.8667
-58.6194
-59.5852
-60.5257
-64.0675
-63.5905
-62.8694
-62.0139
-61.8724
-61.5305
-60.9871
-60.4469
-60.0547
-59.6628
-59.5797
-59.8627
-60.1388
-60.7008
-60.5858
-60.8411
-66.0672
-65.3834
-64.5192
-63.0211
-61.8317
-62.0012
-61.528
-60.8195
-60.821
-60.4835
-60.1718
-60.6886
-60.4749
-60.4313
-61.0818
-61.2094
-61.7085
-67.3355
-66.0143
-64.6625
-63.6372
-63.5304
-63.0445
-62.5545
-62.084
-61.7284
-60.9786
-61.0389
-61.2123
-60.4597
-60.891
-61.1705
-61.1941
-61.5833
-61.6678
-68.4179
-67.4527
-66.0209
-64.7448
-63.9858
-63.6092
-63.1509
-62.7219
-62.6665
-61.7338
-61.6058
-61.3037
-61.0158
-61.1712
-61.3173
-61.2039
-60.851
-60.5909
-60.6994
-54.3565
-54.5302
-54.537
-54.6387
-54.706
-54.7353
-54.7467
-54.8412
-54.8054
-54.8027
-54.765
-54.8431
-54.8461
-54.7968
-54.7777
-54.8628
-55.0005
-54.9081
-54.905
-54.7648
-54.7826
-55.0048
-55.1054
-55.1299
-55.1197
-55.0593
-55.0848
-55.2991
-55.342
-55.3435
-55.3433
-55.2773
-55.2868
-55.0848
-55.5894
-55.6579
-55.6497
-55.6468
-55.5944
-55.4823
-55.3441
-55.357
-55.922
-55.9682
-55.97
-55.9545
-55.8991
-55.6805
-55.6521
-55.6131
-56.3708
-56.3883
-56.3074
-56.2698
-56.2157
-56.1721
-56.0105
-55.9511
-55.9062
-56.8315
-56.8724
-56.7621
-56.775
-56.7242
-56.6293
-56.5476
-56.4281
-56.2243
-56.0213
-57.4688
-57.3743
-57.3789
-57.2234
-57.086
-57.0771
-56.8652
-56.6294
-56.6872
-56.5451
-56.3285
-58.2388
-57.9582
-57.8636
-57.8094
-57.7294
-57.6477
-57.4693
-57.3435
-57.2028
-56.9809
-56.8095
-56.8269
-59.0596
-58.8473
-58.6607
-58.4924
-58.1802
-58.0639
-57.9324
-57.8252
-57.7311
-57.5023
-57.3593
-57.273
-57.238
-60.0334
-59.7563
-59.5196
-59.217
-59.1675
-58.9235
-58.5395
-58.4439
-58.2698
-58.0423
-57.8576
-57.7668
-57.8151
-57.6737
-61.565
-60.968
-60.4652
-60.1489
-59.7786
-59.5844
-59.5288
-59.2804
-58.7904
-58.3731
-58.5927
-58.3022
-58.5218
-58.443
-58.9763
-62.7157
-62.0495
-61.3837
-60.9015
-60.6283
-60.6018
-60.1764
-59.6244
-59.3209
-58.7986
-58.6759
-58.8817
-58.7991
-59.8773
-60.8452
-60.7818
-63.8471
-63.5068
-62.7214
-61.92
-61.6543
-61.4143
-60.8617
-60.3622
-59.9427
-59.5733
-59.6406
-59.9649
-60.1942
-60.7874
-60.6757
-60.9419
-61.9919
-65.8809
-65.1959
-64.2909
-62.8811
-61.7366
-61.8868
-61.4418
-60.7814
-60.75
-60.5179
-60.163
-60.7196
-60.4375
-60.4594
-61.2024
-61.3597
-61.8419
-62.0578
-67.2398
-65.9208
-64.5057
-63.5233
-63.458
-63.0062
-62.5149
-62.0486
-61.7206
-61.0164
-61.0426
-61.1546
-60.4655
-60.9562
-61.2479
-61.288
-61.7011
-61.8267
-61.7589
-68.383
-67.3937
-65.9566
-64.6836
-63.965
-63.5759
-63.1103
-62.6833
-62.6345
-61.6835
-61.5863
-61.2813
-61.0165
-61.1936
-61.3532
-61.2429
-60.8902
-60.6354
-60.7478
-61.0052
-54.2162
-54.5059
-54.5936
-54.4975
-54.639
-54.6164
-54.6917
-54.7734
-54.7884
-54.7704
-54.7745
-54.8478
-54.7931
-54.739
-54.6312
-54.7868
-54.861
-54.8917
-54.8096
-54.6974
-54.693
-54.8964
-54.9653
-54.9316
-54.9096
-54.8211
-54.7168
-54.7121
-55.014
-55.1012
-55.094
-55.1153
-55.083
-54.9554
-54.8879
-55.2688
-55.354
-55.3187
-55.3699
-55.2714
-55.1562
-55.1144
-54.9971
-55.5529
-55.6226
-55.695
-55.5821
-55.5976
-55.4496
-55.3592
-55.315
-55.2381
-55.9747
-55.9919
-55.9871
-55.9151
-55.7772
-55.7018
-55.6505
-55.5621
-55.4788
-56.3798
-56.3526
-56.3119
-56.2791
-56.2392
-56.1299
-55.9692
-55.9032
-55.8664
-55.7265
-56.7582
-56.7753
-56.7598
-56.7371
-56.6481
-56.5804
-56.4191
-56.3192
-56.2342
-56.1207
-55.9974
-57.3375
-57.2659
-57.3208
-57.1871
-57.0868
-56.996
-56.887
-56.6838
-56.6086
-56.5132
-56.3713
-56.3092
-57.9206
-57.9375
-57.8877
-57.6569
-57.6258
-57.5396
-57.4186
-57.3026
-57.1493
-56.9954
-56.8971
-56.8255
-56.7821
-58.8577
-58.7219
-58.5862
-58.3978
-57.9977
-57.9389
-57.9172
-57.8054
-57.6855
-57.4099
-57.3833
-57.2185
-57.2519
-57.3868
-59.9898
-59.6236
-59.3507
-59.1412
-59.0362
-58.881
-58.3665
-58.4139
-58.1514
-58.0377
-57.7195
-57.8581
-57.7934
-58.0632
-58.2475
-61.3787
-60.793
-60.2907
-60.0608
-59.606
-59.4731
-59.4635
-59.3214
-58.7688
-58.41
-58.3907
-58.2955
-58.6655
-58.7951
-59.2471
-59.9698
-62.4374
-61.9405
-61.1923
-60.7413
-60.5293
-60.5533
-60.1852
-59.5863
-59.1943
-58.8475
-58.712
-58.9416
-59.0957
-60.0748
-61.0986
-61.0112
-61.614
-63.7784
-63.2238
-62.5574
-61.8053
-61.5025
-61.3258
-60.7399
-60.1607
-59.9015
-59.6293
-59.6844
-60.0224
-60.2385
-60.844
-60.7343
-61.0513
-62.1947
-62.5683
-65.731
-65.0135
-64.2359
-62.7292
-61.7391
-61.7783
-61.3735
-60.7709
-60.704
-60.5674
-60.1965
-60.7257
-60.3934
-60.526
-61.3288
-61.4302
-61.954
-62.1702
-62.495
-67.1524
-65.8287
-64.4197
-63.4384
-63.397
-62.9804
-62.4655
-62.0313
-61.7096
-61.0633
-61.0627
-61.0941
-60.4748
-61.0084
-61.318
-61.376
-61.8212
-61.9528
-61.8841
-62.3884
-68.3617
-67.3304
-65.936
-64.6322
-63.9486
-63.5465
-63.0661
-62.645
-62.6337
-61.6512
-61.5684
-61.2619
-61.0243
-61.218
-61.391
-61.2703
-60.9304
-60.6835
-60.7825
-61.0276
-63.2438
-54.1733
-54.2659
-54.4225
-54.4668
-54.6717
-54.6879
-54.5702
-54.5932
-54.6574
-54.6558
-54.7106
-54.8897
-54.7926
-54.7046
-54.595
-54.8174
-54.807
-54.7885
-54.756
-54.6615
-54.5496
-54.7824
-54.844
-54.9061
-54.7949
-54.7039
-54.6439
-54.5193
-54.9027
-54.9201
-54.8896
-54.9286
-54.8553
-54.727
-54.7617
-54.6
-55.0457
-55.0944
-55.093
-55.0892
-55.0187
-54.9761
-54.9536
-54.7788
-55.2769
-55.3521
-55.3287
-55.3696
-55.2605
-55.2331
-55.1252
-55.0248
-54.9767
-55.5353
-55.5183
-55.658
-55.5896
-55.6432
-55.4358
-55.3767
-55.2774
-55.1847
-55.0963
-55.9251
-55.902
-55.9155
-55.8584
-55.8076
-55.757
-55.6166
-55.5689
-55.4659
-55.3576
-56.2611
-56.2962
-56.2607
-56.2527
-56.2275
-56.1294
-55.9857
-55.8999
-55.8059
-55.6618
-55.5668
-56.6154
-56.7275
-56.6794
-56.5813
-56.5834
-56.5457
-56.4544
-56.288
-56.159
-56.1251
-55.9826
-55.9083
-57.3251
-57.2111
-57.1994
-57.1641
-57.057
-56.9117
-56.8474
-56.7482
-56.5372
-56.4322
-56.433
-56.4212
-56.2388
-57.9872
-57.6998
-57.6025
-57.6961
-57.3652
-57.4959
-57.3387
-57.304
-57.1439
-57.0146
-56.8935
-56.8738
-56.8301
-56.8687
-58.7514
-58.4741
-58.4834
-58.2876
-58.1045
-58.1466
-57.8504
-57.8511
-57.6661
-57.4372
-57.4558
-57.3063
-57.3336
-57.5715
-57.6972
-59.8672
-59.4119
-59.1833
-59.0171
-58.9691
-58.7683
-58.6053
-58.3556
-58.1129
-58.0274
-57.6764
-57.8797
-57.9671
-58.2964
-58.4899
-58.7576
-61.1741
-60.6276
-60.2241
-59.8723
-59.5784
-59.4391
-59.4542
-59.0975
-58.7514
-58.3697
-58.1868
-58.589
-58.7162
-59.022
-59.4986
-60.2425
-60.8629
-62.3299
-61.829
-61.0977
-60.6758
-60.4352
-60.471
-60.0992
-59.4121
-59.1444
-58.8766
-58.7483
-59.0444
-59.3105
-60.0964
-61.2111
-61.1827
-61.8605
-62.297
-63.7119
-63.0915
-62.4445
-61.8001
-61.3991
-61.2311
-60.6368
-60.0753
-59.9114
-59.7403
-59.7735
-60.0889
-60.2955
-60.8515
-60.8143
-61.1561
-62.3506
-62.8383
-62.4287
-65.5811
-64.8809
-64.1617
-62.716
-61.7479
-61.8156
-61.3201
-60.7807
-60.7034
-60.653
-60.3208
-60.7111
-60.3709
-60.7091
-61.3982
-61.4788
-62.1148
-62.3234
-62.662
-63.4289
-67.0417
-65.7383
-64.3281
-63.4176
-63.3381
-62.9444
-62.4211
-62.0231
-61.7166
-61.1029
-61.0886
-61.0339
-60.4737
-61.029
-61.3846
-61.4649
-61.9336
-62.0579
-62.0081
-62.5355
-63.5983
-68.3256
-67.2605
-65.9256
-64.5941
-63.937
-63.5023
-63.0362
-62.6016
-62.6346
-61.6379
-61.5491
-61.2433
-61.0345
-61.2423
-61.4253
-61.3039
-60.9718
-60.7318
-60.8143
-61.113
-63.2685
-64.2948
-68.2236
-54.0599
-54.1707
-54.2839
-54.2117
-54.4224
-54.5418
-54.4823
-54.6959
-54.6712
-54.7011
-54.5691
-54.6003
-54.6602
-54.6442
-54.5587
-54.7349
-54.84
-54.7734
-54.7346
-54.5861
-54.4646
-54.7695
-54.7646
-54.755
-54.7117
-54.6503
-54.5582
-54.4401
-54.7949
-54.8701
-54.8416
-54.7757
-54.5974
-54.6099
-54.5784
-54.4894
-54.8806
-54.9385
-54.9152
-54.874
-54.7777
-54.806
-54.7296
-54.61
-54.5323
-55.0342
-55.0752
-55.082
-55.1337
-55.064
-54.9843
-54.9107
-54.7692
-54.703
-55.2439
-55.3451
-55.3516
-55.3541
-55.3316
-55.2512
-55.1695
-55.0637
-54.9638
-54.835
-55.5303
-55.5324
-55.6175
-55.5398
-55.5601
-55.4846
-55.3401
-55.2506
-55.198
-55.0826
-54.9929
-55.8728
-55.8731
-55.8964
-55.8576
-55.8181
-55.7631
-55.6333
-55.6064
-55.4571
-55.4103
-55.2735
-56.2408
-56.2882
-56.2169
-56.1663
-56.173
-56.11
-56.0095
-55.8669
-55.8418
-55.6011
-55.6038
-55.6001
-56.755
-56.6973
-56.6224
-56.5685
-56.4906
-56.4634
-56.4183
-56.3624
-56.2241
-56.1404
-55.9642
-55.968
-55.8897
-57.2581
-57.1859
-57.0766
-57.1057
-56.9766
-56.9131
-56.815
-56.7459
-56.6603
-56.4739
-56.4172
-56.4467
-56.3307
-56.3782
-58.056
-57.621
-57.4715
-57.5516
-57.3582
-57.4937
-57.3313
-57.2545
-57.1704
-56.9977
-56.9612
-56.9158
-56.9421
-56.9658
-57.0446
-58.6002
-58.4028
-58.3528
-58.1259
-58.0737
-58.0363
-57.8432
-57.6762
-57.5433
-57.4833
-57.4165
-57.2968
-57.4215
-57.5376
-57.739
-58.1039
-59.7639
-59.2824
-59.0901
-58.9629
-58.8367
-58.6102
-58.5388
-58.292
-58.1679
-57.9825
-57.6994
-58.026
-58.1326
-58.2438
-58.6965
-59.0102
-59.5344
-61.0016
-60.5003
-60.1166
-59.6737
-59.6188
-59.4773
-59.2066
-58.8639
-58.6799
-58.4172
-58.2497
-58.8015
-58.7535
-59.1355
-59.7463
-60.4499
-61.0275
-61.5524
-62.1812
-61.6703
-61.0193
-60.4268
-60.3774
-60.3589
-59.8952
-59.2392
-59.1028
-58.9174
-58.8951
-59.1696
-59.4938
-60.1093
-61.2085
-61.2803
-61.997
-62.4233
-62.8839
-63.5856
-63.0208
-62.3181
-61.7478
-61.3168
-61.1194
-60.5088
-60.0414
-59.8602
-59.8534
-59.8651
-60.1361
-60.3424
-60.7848
-60.8881
-61.2409
-62.4762
-63.1648
-62.8063
-64.0323
-65.4143
-64.7494
-63.9986
-62.6412
-61.7818
-61.7933
-61.2781
-60.8017
-60.7697
-60.8312
-60.4315
-60.6784
-60.361
-60.8284
-61.4308
-61.5502
-62.3715
-62.5435
-62.7983
-63.6435
-64.9244
-66.9299
-65.6295
-64.1914
-63.3985
-63.2667
-62.9094
-62.3849
-62.0118
-61.7334
-61.1594
-61.0677
-60.9842
-60.4787
-61.0508
-61.4524
-61.5535
-62.0572
-62.1449
-62.1296
-62.6697
-63.6897
-64.7133
-66.7077
-68.2737
-67.2001
-65.8968
-64.5472
-63.9502
-63.4659
-63.0023
-62.5642
-62.6029
-61.6418
-61.5362
-61.2236
-61.0442
-61.2703
-61.458
-61.3468
-61.0137
-60.7799
-60.8609
-61.2002
-63.2771
-64.2324
-64.4185
-67.1079
-54.0064
-54.0971
-54.234
-54.3479
-54.4684
-54.318
-54.4904
-54.5024
-54.5727
-54.4684
-54.6412
-54.7121
-54.7221
-54.5621
-54.5235
-54.6091
-54.6524
-54.5765
-54.496
-54.3748
-54.7982
-54.8607
-54.7467
-54.6922
-54.542
-54.4592
-54.3875
-54.7503
-54.8304
-54.7851
-54.7111
-54.5601
-54.4905
-54.4146
-54.2923
-54.7498
-54.8817
-54.8204
-54.7764
-54.6503
-54.6583
-54.5623
-54.4214
-54.3185
-54.8225
-54.9496
-54.9344
-54.8614
-54.8425
-54.8038
-54.7165
-54.5902
-54.5212
-54.3852
-54.9924
-55.078
-55.111
-55.0629
-55.0477
-54.9873
-54.8845
-54.7916
-54.7066
-54.624
-55.2284
-55.2959
-55.3796
-55.3137
-55.2823
-55.2718
-55.143
-55.0527
-54.9562
-54.8611
-54.714
-55.5916
-55.6054
-55.5713
-55.5643
-55.5138
-55.4339
-55.3593
-55.2665
-55.2206
-55.0952
-55.0216
-54.9451
-55.8732
-55.8562
-55.9102
-55.8697
-55.8049
-55.7388
-55.6462
-55.5379
-55.5309
-55.4259
-55.3194
-55.2019
-56.1918
-56.2712
-56.2225
-56.1647
-56.1783
-56.0723
-56.0057
-55.9302
-55.8318
-55.7107
-55.6243
-55.6058
-55.5323
-56.7485
-56.6937
-56.5727
-56.5831
-56.5212
-56.4705
-56.3299
-56.3466
-56.2373
-56.155
-56.0163
-56.0086
-55.9445
-56.0168
-57.053
-57.201
-57.06
-57.0274
-56.8529
-56.8378
-56.7892
-56.6703
-56.6674
-56.528
-56.4289
-56.4538
-56.4455
-56.541
-56.5717
-57.825
-57.6191
-57.5275
-57.524
-57.3254
-57.2746
-57.3818
-57.1902
-57.2298
-57.0513
-57.0044
-57.0094
-56.9225
-57.0895
-57.1253
-57.3916
-58.5458
-58.3766
-58.284
-58.1501
-58.0374
-57.9167
-57.8005
-57.6359
-57.5708
-57.4423
-57.3171
-57.3939
-57.525
-57.6264
-57.8429
-58.3
-58.4783
-59.6065
-59.1321
-59.0112
-58.8182
-58.6388
-58.5899
-58.4332
-58.3497
-58.1157
-57.9063
-57.771
-58.0934
-58.1834
-58.3961
-58.8493
-59.1776
-59.6372
-60.2717
-60.819
-60.4241
-60.0046
-59.5927
-59.454
-59.4422
-59.1282
-58.9029
-58.5627
-58.406
-58.3173
-58.6426
-59.0316
-59.2425
-59.9145
-60.5566
-61.2706
-61.7071
-61.9519
-62.0029
-61.4745
-60.8647
-60.2999
-60.3789
-60.255
-59.8086
-59.2305
-59.1589
-58.9994
-59.0641
-59.3619
-59.6415
-60.1544
-61.1684
-61.2819
-62.1026
-62.7064
-63.1997
-63.7182
-63.3822
-62.88
-62.1753
-61.6895
-61.2619
-61.0844
-60.3953
-60.0067
-59.8087
-59.8746
-59.9169
-60.1263
-60.3097
-60.747
-60.9881
-61.3836
-62.633
-63.3542
-63.1022
-64.3396
-64.9488
-65.3071
-64.64
-63.7475
-62.5096
-61.7316
-61.623
-61.2244
-60.8344
-60.8651
-61.0171
-60.5614
-60.633
-60.3527
-60.8634
-61.4923
-61.6516
-62.5851
-62.8592
-62.9427
-63.816
-64.9994
-65.4072
-65.09
-66.8156
-65.5379
-64.1269
-63.3066
-63.2437
-62.8868
-62.363
-62.0115
-61.7331
-61.1989
-61.0436
-60.9426
-60.4935
-61.0816
-61.5278
-61.6364
-62.1954
-62.2099
-62.2496
-62.7587
-63.7791
-64.7967
-65.4165
-65.4317
-67.1507
-65.8496
-64.4974
-63.9672
-63.4433
-62.963
-62.5416
-62.5755
-61.6574
-61.5336
-61.204
-61.0554
-61.299
-61.4933
-61.3898
-61.0502
-60.8331
-60.9177
-61.2513
-63.2833
-64.1657
-64.4412
-64.6069
-65.8136
-54.0387
-54.1693
-54.2406
-54.2939
-54.4129
-54.4786
-54.4913
-54.3391
-54.4664
-54.5626
-54.5085
-54.4502
-54.4844
-54.5358
-54.5881
-54.6153
-54.5533
-54.3503
-54.5531
-54.6598
-54.625
-54.552
-54.4482
-54.3358
-54.1698
-54.7404
-54.8413
-54.8238
-54.7131
-54.571
-54.4204
-54.3086
-54.1103
-54.7141
-54.8533
-54.7842
-54.7305
-54.6075
-54.4977
-54.4184
-54.3122
-54.1772
-54.7462
-54.7931
-54.7997
-54.7575
-54.7104
-54.668
-54.5557
-54.3882
-54.3057
-54.2198
-54.8661
-54.9323
-54.8611
-54.8826
-54.8512
-54.7672
-54.7257
-54.5825
-54.4921
-54.4159
-54.2994
-54.9468
-55.0201
-55.1391
-55.0627
-55.0655
-54.9701
-54.913
-54.8133
-54.713
-54.5873
-54.4736
-55.2016
-55.2476
-55.301
-55.2614
-55.2825
-55.2584
-55.1618
-55.0293
-54.9547
-54.8258
-54.747
-54.6781
-55.5945
-55.5711
-55.576
-55.589
-55.4912
-55.412
-55.3284
-55.2909
-55.214
-55.1067
-55.0801
-54.98
-54.8775
-55.7781
-55.842
-55.8773
-55.8365
-55.7724
-55.7247
-55.6532
-55.5856
-55.5376
-55.4394
-55.3038
-55.2545
-55.2214
-56.1757
-56.2104
-56.1868
-56.1405
-56.109
-56.0559
-55.978
-55.9601
-55.822
-55.7428
-55.661
-55.6302
-55.5907
-55.6044
-56.5715
-56.5877
-56.5324
-56.5042
-56.4442
-56.3638
-56.4008
-56.3095
-56.2461
-56.2008
-56.0513
-56.0526
-55.9832
-56.1058
-56.1373
-57.1348
-57.0502
-56.974
-56.9267
-56.7753
-56.885
-56.7303
-56.7178
-56.6503
-56.5797
-56.4914
-56.53
-56.5049
-56.6285
-56.6336
-56.763
-57.7159
-57.6061
-57.5433
-57.4384
-57.2729
-57.3019
-57.2284
-57.1762
-57.1343
-57.0869
-57.0335
-57.0297
-56.9529
-57.2013
-57.2826
-57.4983
-57.7505
-58.4881
-58.3465
-58.1768
-58.051
-57.8879
-57.8468
-57.78
-57.6267
-57.6737
-57.4533
-57.3024
-57.4286
-57.6382
-57.8085
-57.9963
-58.3889
-58.7464
-59.0547
-59.5976
-58.9619
-58.9432
-58.8517
-58.5885
-58.5684
-58.5583
-58.3196
-58.137
-57.9151
-57.8534
-58.1451
-58.3257
-58.5626
-59.0795
-59.3247
-59.8375
-60.4661
-60.7447
-60.5297
-60.317
-59.9287
-59.5398
-59.365
-59.4434
-59.1877
-58.8606
-58.6346
-58.463
-58.3961
-58.6389
-59.1496
-59.4066
-60.0072
-60.6191
-61.3829
-61.8997
-62.204
-62.7322
-61.7842
-61.2347
-60.7196
-60.2616
-60.3525
-60.2065
-59.7097
-59.2438
-59.1889
-59.0466
-59.1399
-59.5129
-59.7123
-60.2058
-61.1397
-61.2985
-62.225
-62.9816
-63.6268
-64.04
-64.3544
-63.2933
-62.758
-62.1023
-61.5884
-61.2154
-60.9797
-60.3338
-59.9538
-59.8574
-59.9738
-60.0245
-60.1108
-60.2358
-60.7647
-61.0486
-61.5584
-62.9011
-63.4501
-63.3043
-64.6096
-65.1471
-65.2159
-62.8127
-65.2143
-64.5298
-63.5156
-62.4303
-61.6505
-61.5724
-61.2127
-60.8625
-60.9622
-61.1444
-60.676
-60.5815
-60.3619
-61.0527
-61.5569
-61.7727
-62.695
-63.1069
-63.1349
-63.9806
-65.0853
-65.5807
-66.1693
-64.2381
-65.4982
-64.07
-63.2609
-63.1971
-62.8567
-62.3478
-62.0117
-61.7333
-61.2133
-61.0478
-60.9075
-60.5272
-61.112
-61.6156
-61.7164
-62.3284
-62.2668
-62.3301
-62.8661
-63.8582
-64.855
-65.4615
-65.6166
-63.8562
-65.8177
-64.4267
-63.9532
-63.4194
-62.9284
-62.5342
-62.5683
-61.6839
-61.5352
-61.1857
-61.072
-61.3255
-61.5306
-61.4273
-61.075
-60.8823
-60.9858
-61.3141
-63.2993
-64.1365
-64.4384
-64.6215
-65.0944
-64.2793
-54.0808
-54.1982
-54.2915
-54.295
-54.2821
-54.4452
-54.416
-54.4504
-54.4047
-54.3063
-54.4581
-54.4396
-54.432
-54.4638
-54.2262
-54.5164
-54.6607
-54.549
-54.5931
-54.4496
-54.3133
-54.1313
-54.5798
-54.7443
-54.6584
-54.5697
-54.4265
-54.3615
-54.1753
-53.954
-54.6718
-54.8855
-54.8258
-54.6847
-54.5882
-54.3986
-54.2589
-54.1186
-53.9948
-54.7611
-54.8015
-54.7698
-54.7291
-54.6084
-54.4983
-54.4454
-54.3139
-54.1689
-54.0415
-54.7227
-54.7658
-54.8277
-54.8183
-54.7281
-54.6422
-54.5788
-54.4382
-54.3193
-54.2038
-54.0983
-54.7919
-54.9186
-54.8682
-54.9026
-54.8671
-54.8179
-54.7596
-54.6182
-54.4853
-54.4383
-54.3157
-54.1831
-55.0671
-55.0522
-55.0963
-55.0301
-55.0074
-55.0049
-54.9168
-54.8314
-54.7302
-54.5674
-54.4849
-54.4106
-55.1963
-55.2622
-55.2973
-55.3051
-55.3058
-55.2594
-55.1748
-55.0931
-54.9884
-54.8819
-54.7542
-54.7237
-54.6246
-55.5473
-55.5288
-55.5516
-55.5836
-55.4897
-55.4208
-55.3585
-55.2814
-55.2314
-55.0954
-55.0231
-54.9993
-54.92
-54.8864
-55.7359
-55.775
-55.8372
-55.7917
-55.787
-55.6988
-55.6856
-55.6272
-55.5622
-55.4229
-55.347
-55.2964
-55.2632
-55.2704
-56.1851
-56.1391
-56.1517
-56.1216
-56.0666
-55.9891
-55.9606
-55.9418
-55.8844
-55.7968
-55.7099
-55.6811
-55.6598
-55.6743
-55.6857
-56.5467
-56.6045
-56.5189
-56.4721
-56.3846
-56.3498
-56.3127
-56.2662
-56.2905
-56.2013
-56.1266
-56.1431
-56.1257
-56.1701
-56.2144
-56.2082
-57.1614
-57.0384
-56.8541
-56.8216
-56.8015
-56.8233
-56.753
-56.7454
-56.6066
-56.6023
-56.5641
-56.5923
-56.5263
-56.6946
-56.7929
-56.9064
-56.9382
-57.7127
-57.6158
-57.4956
-57.3837
-57.3404
-57.3373
-57.2151
-57.1562
-57.1334
-57.0919
-57.0292
-57.0727
-57.0691
-57.2924
-57.4195
-57.6351
-57.8829
-58.0002
-58.3776
-58.2685
-58.1749
-57.988
-57.8687
-57.8435
-57.6834
-57.5819
-57.7111
-57.549
-57.4256
-57.3013
-57.7526
-57.9519
-58.13
-58.5205
-58.9648
-59.2099
-59.4087
-59.3055
-58.8635
-58.9218