/*--------------------------------*- C++ -*----------------------------------*\
  =========                 |
  \\      /  F ield         | OpenFOAM: The Open Source CFD Toolbox
   \\    /   O peration     | Website:  https://openfoam.org
    \\  /    A nd           | Version:  7
     \\/     M anipulation  |
\*---------------------------------------------------------------------------*/
FoamFile
{
    version     2.0;
    format      ascii;
    class       surfaceScalarField;
    location    "5.5";
    object      phi;
}
// * * * * * * * * * * * * * * * * * * * * * * * * * * * * * * * * * * * * * //

dimensions      [0 3 -1 0 0 0 0];

internalField   nonuniform List<scalar> 
53739
(
-0.000165096
-4.20554e-05
-4.91105e-05
-0.000369
0.000895446
-7.62337e-05
-0.000168841
0.000118151
-5.10068e-05
-0.000194185
0.00102669
-3.54626e-05
-0.000432929
0.00296852
3.88429e-05
-0.000389288
0.00111755
-5.85355e-05
-0.000376592
0.00142452
-3.54878e-06
-0.000170584
0.000280233
-5.54904e-05
-0.000194571
0.00120485
-3.45973e-05
-0.000245072
0.000701592
-1.73709e-05
-0.00045811
0.00406242
0.000133176
-0.000414492
0.00288522
5.31132e-05
-0.000632891
0.00362263
0.000235824
-0.000428616
0.00137614
-3.13057e-05
-0.000362845
0.00153533
-1.07938e-06
-0.00047751
0.00128829
4.57218e-05
-0.000170896
0.000443407
-5.84603e-05
-0.000192957
0.00137554
-3.32201e-05
-0.000244957
0.000930206
-1.82537e-05
-0.000252719
0.000321418
-1.90648e-05
-0.000694044
0.00469536
0.000776819
-0.000438899
0.00414788
8.59081e-05
-0.00103311
0.00464251
0.00031286
-0.000510582
0.00290865
8.53246e-05
-0.000577319
0.00364285
0.000247369
-0.000732367
0.00387901
0.000196377
-0.000460309
0.00166242
-5.6929e-06
-0.000362464
0.00167282
7.12534e-07
-0.000470136
0.00147159
4.08045e-05
-0.000459063
0.00138545
-1.89107e-05
-0.000170499
0.000606098
-6.02041e-05
-0.000190134
0.00154016
-3.29431e-05
-0.000245955
0.00116006
-1.7122e-05
-0.000259732
0.000581587
-1.86898e-05
-0.000168239
0.000516432
-3.7034e-05
-0.00089803
0.00608676
0.00117935
-0.000753892
0.00468526
0.000907534
-0.00120236
0.00409589
0.000802853
-0.000583614
0.00430747
0.000152357
-0.000922388
0.00476021
0.000313276
-0.00102986
0.00411654
0.0003084
-0.000538353
0.00299263
0.000112359
-0.000551511
0.00369383
0.000223399
-0.000709391
0.00409933
0.000266312
-0.000593
0.00258813
8.62512e-05
-0.000466012
0.00194369
1.39294e-05
-0.000351117
0.00182311
4.9986e-06
-0.000471398
0.00165049
4.72531e-05
-0.000460488
0.00164665
-1.96443e-05
-0.000322941
0.00146993
-0.000103694
-0.00017156
0.000767191
-5.87879e-05
-0.000187345
0.00170045
-3.31498e-05
-0.000243989
0.00138915
-1.80422e-05
-0.000263407
0.000845302
-1.74306e-05
-0.000166468
0.000699574
-3.53636e-05
-0.000147293
0.000203083
-5.06755e-05
-0.00100587
0.00664269
0.00158581
-0.000925071
0.00601319
0.00123763
-0.000816316
0.00584748
0.000988359
-0.000841008
0.00465445
0.000955556
-0.00122325
0.00434039
0.000963898
-0.000894665
0.00376509
0.000466868
-0.000551004
0.00443748
0.000144494
-0.00079569
0.00488232
0.00027442
-0.00103808
0.00439673
0.000361776
-0.00061509
0.00395864
0.000149696
-0.000593394
0.00314567
0.000148878
-0.000509382
0.00376531
0.000199138
-0.000742215
0.00434148
0.00025206
-0.000556922
0.00279707
0.000153809
-0.000398462
0.00139547
-3.12674e-05
-0.000474241
0.00222282
2.81074e-05
-0.000350053
0.00198488
1.48733e-05
-0.000470527
0.00182911
5.291e-05
-0.000473269
0.00191061
-6.84558e-06
-0.000319125
0.00169925
-9.63067e-05
-0.000259839
0.00146493
-0.000173331
-0.000169167
0.000926023
-6.04843e-05
-0.000186657
0.00185926
-3.09399e-05
-0.000238284
0.00161367
-1.93877e-05
-0.000263591
0.00110854
-1.7691e-05
-0.000162866
0.00087901
-3.40004e-05
-0.000146384
0.000364432
-5.03291e-05
-0.000134468
0.000258562
-4.9335e-05
-0.000944319
0.00626257
0.00209626
-0.00101353
0.00652762
0.00176289
-0.000768246
0.00695922
0.00162302
-0.000995123
0.00576565
0.00129334
-0.00114844
0.00578694
0.00122336
-0.000703506
0.00624085
0.00084451
-0.0008008
0.0046362
0.000967271
-0.00113824
0.00458994
0.00104855
-0.000853763
0.00396468
0.000579997
-0.000703876
0.00464935
0.000447223
-0.00057444
0.00452869
0.000211559
-0.000703478
0.00493571
0.000285201
-0.00108893
0.00475952
0.000258345
-0.000656025
0.0042301
0.000189415
-0.000652166
0.0042886
0.000273131
-0.000626152
0.00331048
0.00016265
-0.000497185
0.00385324
0.000208078
-0.000733725
0.00456794
0.000235879
-0.000607728
0.00302119
0.0001624
-0.000374669
0.00162686
-2.20303e-05
-0.000369044
0.00207065
3.23165e-05
-0.000477246
0.0024862
5.28294e-05
-0.000350132
0.0021487
2.77582e-05
-0.000456623
0.00200454
5.77878e-05
-0.000489718
0.00218759
2.05427e-06
-0.000310651
0.00193226
-9.20738e-05
-0.0002581
0.00165484
-0.000174501
-0.000295057
0.00101232
-0.00015885
-0.000166313
0.00108326
-6.26503e-05
-0.000186177
0.00201743
-3.24781e-05
-0.000233662
0.00183619
-1.97914e-05
-0.000261977
0.00136974
-1.86103e-05
-0.000157827
0.00105185
-3.27076e-05
-0.000143468
0.000523809
-4.99095e-05
-0.000132084
0.000390507
-5.019e-05
-0.000130509
0.00172003
-5.27778e-05
-0.00114958
0.00675331
0.00245251
-0.00104855
0.00634587
0.00215494
-0.00106473
0.00681982
0.00211257
-0.0010227
0.00639419
0.00180546
-0.00102704
0.00684536
0.00175535
-0.00101382
0.00606423
0.00179884
-0.000812354
0.00568415
0.00132605
-0.00119401
0.00579508
0.00134097
-0.000651539
0.00615611
0.00110588
-0.00100138
0.00460408
0.00105699
-0.000738229
0.00461284
0.000965895
-0.00101611
0.00476748
0.00110236
-0.00101551
0.00421397
0.00072584
-0.000811325
0.00489313
0.000491511
-0.000989055
0.00503516
0.000589281
-0.000577336
0.00457457
0.000265246
-0.000633975
0.00497046
0.000313598
-0.00103123
0.00508122
0.000261001
-0.000723325
0.00446933
0.000134711
-0.00059455
0.004404
0.000293895
-0.000593888
0.00427896
0.000439947
-0.000643492
0.00347696
0.000178001
-0.000501492
0.00394772
0.000219533
-0.000689684
0.00473925
0.000269823
-0.000698016
0.0032934
0.000171966
-0.000348252
0.00184886
-2.2001e-05
-0.000418125
0.00217675
3.18927e-05
-0.000459793
0.0032616
0.000141479
-0.000461453
0.00272407
7.27419e-05
-0.00036008
0.00232695
4.84896e-05
-0.000428462
0.00216479
6.2307e-05
-0.000473154
0.00245227
4.29214e-06
-0.000298524
0.00215961
-8.45949e-05
-0.000246805
0.00184277
-0.000176666
-0.000289937
0.00115982
-0.000164148
-0.000322834
0.00142071
-0.000130625
-0.000162097
0.00123715
-6.36912e-05
-0.000186962
0.00217604
-3.42973e-05
-0.000226314
0.00205071
-2.06827e-05
-0.000260094
0.00162637
-1.63224e-05
-0.000148997
0.00121441
-3.21694e-05
-0.000141374
0.000681562
-4.90868e-05
-0.000128313
0.000519517
-5.06056e-05
-0.000121892
0.00184575
-5.40163e-05
-9.4846e-05
0.00188616
-6.66321e-05
-0.00136099
0.00687536
0.00244453
-0.00116749
0.00689298
0.00240132
-0.00118183
0.00689619
0.00233532
-0.000946522
0.00645251
0.00206573
-0.00104953
0.0069695
0.00202774
-0.001239
0.00629723
0.00205206
-0.000757265
0.0062653
0.00181022
-0.000994448
0.00671965
0.00173161
-0.00116439
0.00653964
0.00179279
-0.00106283
0.00630907
0.00176816
-0.00082825
0.00568074
0.00133424
-0.00115608
0.00588577
0.00137534
-0.000879844
0.00609536
0.00126605
-0.00120176
0.00495713
0.00114327
-0.00109006
0.00528297
0.00107009
-0.000667236
0.00454508
0.000983169
-0.000878745
0.00489107
0.00108707
-0.00112038
0.00448954
0.000915951
-0.0007892
0.00510324
0.000581607
-0.000905764
0.00521971
0.000618176
-0.000791171
0.00611466
0.00056283
-0.000540574
0.00456276
0.000341682
-0.000653491
0.00506339
0.000324318
-0.00094336
0.00530785
0.000340649
-0.000783878
0.00466057
0.000155623
-0.000571128
0.00448139
0.000280196
-0.000604075
0.0042568
0.000502004
-0.000587854
0.00422213
0.000509772
-0.000701963
0.00369335
0.00023605
-0.000501076
0.00403717
0.000229544
-0.000635784
0.00486049
0.000305616
-0.000667263
0.00355979
0.000197539
-0.000336372
0.00206089
-2.21801e-06
-0.00038735
0.00227396
2.13387e-05
-0.000435407
0.00327767
0.000161299
-0.000462105
0.00192494
0.000123979
-0.00044134
0.00293263
8.50066e-05
-0.00035945
0.00250593
6.62491e-05
-0.000408323
0.00232994
6.53446e-05
-0.000454494
0.00269922
9.75109e-06
-0.000279651
0.0023704
-7.58431e-05
-0.000243513
0.00203404
-0.000173728
-0.000283897
0.00131408
-0.000175341
-0.000318436
0.00158318
-0.000130075
-0.000272082
0.00261195
-6.86834e-05
-0.000155197
0.00138412
-6.43182e-05
-0.000186544
0.00233392
-3.50297e-05
-0.000219042
0.00225603
-2.05798e-05
-0.000257421
0.00188119
-1.80884e-05
-0.000148777
0.00137641
-2.95446e-05
-0.00013987
0.000837467
-4.82047e-05
-0.000124131
0.000645831
-5.12696e-05
-0.000111658
0.00196147
-5.46645e-05
-8.95784e-05
0.00198788
-6.61603e-05
-0.000117597
0.0015158
-6.21097e-05
-0.0010645
0.00633866
0.00277065
-0.00113947
0.00684899
0.0024188
-0.00125583
0.00686625
0.00236925
-0.000938467
0.00699342
0.00231214
-0.000984942
0.00704775
0.00218517
-0.00117829
0.00690865
0.0021826
-0.000701581
0.00660375
0.00206612
-0.000875061
0.00697642
0.00193942
-0.00130939
0.00651702
0.00195295
-0.00114401
0.00652521
0.0019985
-0.000822465
0.00628641
0.00180269
-0.00101243
0.00666285
0.00172337
-0.00121978
0.00689742
0.00171376
-0.00124767
0.00646748
0.0016803
-0.00105344
0.00601509
0.00171264
-0.000762225
0.00576592
0.00137814
-0.000991554
0.00595429
0.00137853
-0.0010468
0.00603266
0.00136446
-0.00100826
0.00523601
0.00120623
-0.00106808
0.0054837
0.00110485
-0.000751467
0.00620885
0.00104711
-0.000694859
0.00456421
0.00109964
-0.000847176
0.00501353
0.00105439
-0.00109395
0.00476111
0.000966092
-0.000767635
0.00528526
0.000717692
-0.000845088
0.00541512
0.000660158
-0.000744786
0.00624945
0.000624103
-0.000744719
0.00584344
0.000510646
-0.000701292
0.00462063
0.000393866
-0.000539375
0.00506664
0.000376737
-0.000888453
0.00549943
0.0003854
-0.000772614
0.00487798
0.000228592
-0.000518662
0.00453121
0.000288093
-0.000570807
0.00423594
0.000484519
-0.000543044
0.00427497
0.000556803
-0.000380754
0.00354846
0.000499072
-0.0007109
0.00394018
0.000231711
-0.000513149
0.004168
0.000258917
-0.000562803
0.00491758
0.000326936
-0.000643019
0.00383433
0.0002196
-0.000319374
0.00228853
9.61723e-06
-0.000360027
0.00235518
3.30787e-05
-0.000410291
0.00328625
0.000139153
-0.000452266
0.00207725
0.000142817
-0.000470357
0.0026788
6.63301e-05
-0.000411952
0.00311579
8.6957e-05
-0.000382126
0.002707
7.95192e-05
-0.000385133
0.00249244
6.98486e-05
-0.000412039
0.00291462
4.56602e-06
-0.000265393
0.00256989
-7.31291e-05
-0.000240039
0.00221883
-0.000160468
-0.000274154
0.00147434
-0.000183973
-0.000305678
0.00173201
-0.000130155
-0.000265191
0.00272423
-6.6737e-05
-0.000258573
0.00344998
-2.90192e-05
-0.000148602
0.00152495
-6.43089e-05
-0.000183802
0.00248975
-3.63466e-05
-0.000214428
0.00245517
-1.97454e-05
-0.000251952
0.00213112
-1.85523e-05
-0.000140991
0.00152916
-2.98476e-05
-0.000133947
0.000989165
-4.72962e-05
-0.000121505
0.000770879
-5.17479e-05
-0.000102164
0.00206747
-5.51063e-05
-8.55329e-05
0.00208433
-6.55808e-05
-0.000109948
0.00162135
-6.17618e-05
-4.8384e-05
0.00108784
-6.01849e-05
-0.00082388
0.00633085
0.00293214
-0.00105527
0.00616574
0.00277132
-0.000943459
0.00586486
0.00284391
-0.000852326
0.0069629
0.00219623
-0.00112152
0.00715837
0.00226326
-0.0011237
0.0070896
0.00221099
-0.000692724
0.00716328
0.00215199
-0.000578646
0.00694496
0.00211851
-0.00105178
0.00673219
0.00210403
-0.00116283
0.00645334
0.00217085
-0.000793955
0.00671849
0.00209961
-0.00083501
0.00687094
0.00199418
-0.00123295
0.00652313
0.00194647
-0.00108422
0.00644662
0.00186809
-0.000844349
0.00628784
0.00194508
-0.00087629
0.00646103
0.00177383
-0.000864004
0.00665329
0.00168471
-0.00110776
0.00695273
0.00172902
-0.0010931
0.00654566
0.00172043
-0.00114031
0.00613928
0.00162834
-0.000634941
0.00643199
0.00163414
-0.000821075
0.00591459
0.0013756
-0.00103243
0.0061371
0.00138058
-0.00118508
0.00618048
0.00132183
-0.000978376
0.005522
0.00128921
-0.000943038
0.00564868
0.0011392
-0.000550513
0.00604602
0.0010734
-0.000706268
0.00686212
0.000949199
-0.000891013
0.00470635
0.00105895
-0.00076456
0.00524019
0.00109816
-0.00104004
0.0049727
0.000994383
-0.000740022
0.00547599
0.000742769
-0.00074667
0.00568671
0.000674102
-0.000738418
0.0064204
0.000656812
-0.000624618
0.00592314
0.000625981
-0.000275023
0.00557247
0.000534639
-0.000774351
0.00472079
0.00045628
-0.000602319
0.0051328
0.000416876
-0.000755653
0.00561403
0.000454992
-0.00084117
0.00517942
0.000282107
-0.000500931
0.00461941
0.000321945
-0.000453672
0.00415087
0.0004668
-0.000462117
0.00426984
0.000541471
-0.000410517
0.00352812
0.000535398
-0.000514465
0.00275026
0.000370958
-0.000669594
0.00412174
0.000288823
-0.000572385
0.00434873
0.000241246
-0.000512824
0.00496645
0.000337741
-0.000500693
0.00401855
0.000231367
-0.000306598
0.00255966
-1.03227e-05
-0.000354832
0.0024607
1.88899e-05
-0.000369461
0.00328578
0.000128853
-0.000448971
0.00226235
9.73486e-05
-0.000457197
0.0029513
6.23206e-05
-0.000457932
0.00345856
1.01451e-06
-0.000381641
0.00327854
8.59419e-05
-0.000352984
0.00287871
8.44298e-05
-0.000387022
0.00266425
8.02973e-05
-0.000394242
0.00311955
7.21117e-06
-0.000246691
0.00275666
-7.65031e-05
-0.000209487
0.00237825
-0.000157006
-0.000271401
0.00164916
-0.000185392
-0.000286977
0.00186091
-0.000128052
-0.000255318
0.00282615
-6.22916e-05
-0.000228949
0.00352907
-2.68298e-05
-5.27916e-05
0.00357244
-0.000112701
-0.000142631
0.00165858
-6.37242e-05
-0.000180939
0.00264405
-3.76713e-05
-0.000206014
0.00264423
-1.93914e-05
-0.000244444
0.002374
-1.81809e-05
-0.00013339
0.00167446
-3.04587e-05
-0.000131404
0.00113679
-4.60684e-05
-0.000121115
0.000896213
-5.15158e-05
-9.17275e-05
0.00216304
-5.55938e-05
-8.13911e-05
0.00217506
-6.44497e-05
-0.000103591
0.00172123
-6.18636e-05
-4.14636e-05
0.00112752
-5.99794e-05
-8.39484e-06
0.000340085
-7.47951e-05
-0.000765449
0.00555697
0.00338132
-0.000828444
0.005862
0.0033303
-0.000829556
0.00615563
0.0028574
-0.000596504
0.00632012
0.00286068
-0.000925714
0.00612578
0.00284291
-0.00124105
0.0058638
0.00289191
-0.00106229
0.00591898
0.00290595
-0.000715512
0.0070454
0.00224747
-0.000553736
0.00711803
0.00221167
-0.000905546
0.00700705
0.00219958
-0.000957093
0.00643483
0.00218855
-0.000677658
0.00722329
0.00207892
-0.000852321
0.00707311
0.00204115
-0.000930849
0.00651483
0.00203377
-0.000925898
0.00628003
0.00211902
-0.000593278
0.00653816
0.00203903
-0.000817517
0.00680335
0.00203575
-0.000807484
0.00688432
0.00202972
-0.0011407
0.00665153
0.00189873
-0.00116108
0.00650113
0.00195993
-0.00088059
0.00614379
0.00175242
-0.00036234
0.00661214
0.00174284
-0.000846206
0.00656749
0.00177154
-0.00101123
0.00671176
0.00169416
-0.00106679
0.00689619
0.00162295
-0.000891101
0.00653089
0.00165652
-0.000914874
0.00620305
0.00162849
-0.000321226
0.00627299
0.00155805
-0.00063937
0.00638024
0.00157577
-0.000988303
0.00604694
0.00138125
-0.000981842
0.00638291
0.00134706
-0.000945489
0.00612874
0.00133777
-0.000976227
0.00583875
0.00124129
-0.000789522
0.00584481
0.00113593
-0.000801902
0.00613839
0.00111031
-0.000511605
0.00680696
0.00101555
-0.000497658
0.00676744
0.000890058
-0.000947235
0.00487345
0.00106611
-0.000686917
0.00533974
0.001044
-0.00100507
0.00530483
0.00101545
-0.000835709
0.00567722
0.000787686
-0.000620285
0.00588148
0.000667357
-0.000567898
0.0065883
0.000620433
-0.000617795
0.00604603
0.000689599
-0.00033911
0.0054763
0.000650744
-0.00055338
0.00401608
0.000650771
-0.000726339
0.00485816
0.000433356
-0.000709155
0.00528354
0.000442301
-0.000694139
0.00574313
0.000469093
-0.000703959
0.00548677
0.000350912
-0.000518315
0.0047607
0.000352539
-0.000403241
0.00402161
0.000499618
-0.000257698
0.00408061
0.000544272
-0.000407199
0.00350127
0.000526539
-0.000490147
0.00295374
0.000364868
-0.000515999
0.00308287
0.000176639
-0.000633397
0.00437845
0.000227041
-0.000547505
0.00453637
0.0002957
-0.000507837
0.00499999
0.000328515
-0.000486222
0.0042191
0.000229175
-0.00026344
0.00280541
2.36677e-06
-0.000297777
0.0025572
-1.85392e-05
-0.000390016
0.00332842
9.48654e-05
-0.000425288
0.00246812
6.13851e-05
-0.000426642
0.00318683
3.31415e-05
-0.000415134
0.00373711
-3.00384e-05
-0.000104333
0.0044584
-0.000104434
-0.000375513
0.00342519
0.000100802
-0.000418742
0.0031146
8.78489e-05
-0.000369425
0.00282095
9.11433e-05
-0.000376796
0.00330311
2.90832e-05
-0.000235343
0.00294668
-8.08563e-05
-0.000206252
0.00253071
-0.00015411
-0.00026586
0.00182155
-0.000184648
-0.000266576
0.00198077
-0.000130408
-0.000239742
0.00291835
-6.18991e-05
-0.000199808
0.00358634
-2.33402e-05
-8.83448e-05
0.00369758
-0.000105092
5.33244e-05
0.00168968
-0.000157466
-0.000135999
0.00178486
-6.35422e-05
-0.000170135
0.00278811
-3.76521e-05
-0.00019724
0.00282396
-2.01546e-05
-0.000231525
0.00260483
-1.87027e-05
-0.000130497
0.00181644
-2.967e-05
-0.000124517
0.00127703
-4.61845e-05
-0.000116465
0.00101802
-5.14063e-05
-8.29486e-05
0.00225015
-5.56734e-05
-7.70222e-05
0.00226044
-6.39502e-05
-8.66134e-05
0.00180549
-6.20983e-05
-3.36712e-05
0.00115931
-5.99782e-05
-8.18406e-06
0.000361893
-7.36028e-05
4.53055e-05
0.00111603
-9.11281e-05
-0.000875597
0.00527306
0.00375321
-0.000725824
0.00553605
0.0033662
-0.000725992
0.0055694
0.00341954
-0.000727523
0.00572361
0.00336855
-0.000508151
0.00578476
0.00331933
-0.000781655
0.00602685
0.00286683
-0.000870357
0.0059775
0.00282932
-0.000721086
0.00607954
0.00283558
-0.000741375
0.00607276
0.00288231
-0.000992895
0.00623049
0.00291538
-0.00100714
0.00602261
0.00288988
-0.000657645
0.00608228
0.00282037
-0.000438052
0.00690428
0.00219247
-0.000610564
0.006795
0.00232874
-0.000670133
0.00664102
0.00231699
-0.00068678
0.00617494
0.00222035
-0.000677751
0.00628112
0.00225582
-0.000526469
0.00711827
0.00188505
-0.000759358
0.00703709
0.00206681
-0.00102643
0.00639698
0.00204473
-0.000991959
0.00609374
0.00205095
-0.000511466
0.00640407
0.00188399
-0.000437827
0.00657768
0.00187287
-0.000698039
0.00676054
0.00196131
-0.000762596
0.00667024
0.00200119
-0.000876164
0.00661738
0.00187324
-0.000926592
0.00670244
0.00173292
-0.000775808
0.00624154
0.00172311
-0.000352866
0.00674457
0.00165163
-0.000486579
0.00666255
0.00169583
-0.00101962
0.0067076
0.00174569
-0.000932109
0.00682671
0.00160686
-0.000817488
0.00684236
0.00162
-0.00101652
0.00661188
0.00158225
-0.00071005
0.00625117
0.00152892
-0.00069159
0.00626118
0.00153
-0.000469052
0.00638899
0.00150674
-0.00031262
0.0066362
0.00140671
-0.00102205
0.00616108
0.00142211
-0.000819177
0.00654522
0.0013512
-0.00122001
0.00641571
0.00127504
-0.000955577
0.00601154
0.00128485
-0.000701533
0.00602441
0.00114294
-0.000583568
0.00624199
0.00104801
-0.000607484
0.00684633
0.00106063
-0.000434545
0.00689782
0.000980607
-0.000515183
0.00636
0.000779079
-0.00085526
0.00503137
0.00108548
-0.000807861
0.00547733
0.00102723
-0.000756665
0.00543073
0.000980626
-0.000787381
0.00594935
0.000826739
-0.000560412
0.00602418
0.00068709
-0.000462301
0.00665
0.000664712
-0.000334142
0.0060653
0.000677606
-0.000358815
0.00538707
0.000730443
-0.00050321
0.00400001
0.000679872
-0.000512569
0.00364476
0.000481177
-0.000703163
0.00498284
0.000506459
-0.000761371
0.00550433
0.000426431
-0.000722358
0.0059093
0.000490646
-0.000701485
0.00577246
0.00039866
-0.000373951
0.00484689
0.000375233
-0.000356028
0.003926
0.000506404
-0.000345728
0.00400872
0.000527225
-0.000350786
0.00343143
0.000539616
-0.000454041
0.00315028
0.000357404
-0.000466457
0.00332389
0.000175169
-0.00023826
0.00453538
5.48591e-05
-0.000639164
0.00455243
0.000333538
-0.000614027
0.00474823
0.000210469
-0.000480594
0.00507342
0.000333439
-0.000447644
0.00439271
0.00022575
-0.000252028
0.0031097
-5.84335e-05
-0.000295031
0.00266928
-2.09302e-05
-0.000370895
0.00334274
7.21714e-05
-0.000410338
0.00268869
1.80577e-05
-0.000378401
0.00339234
-5.46715e-06
-0.000376213
0.0039388
7.8515e-06
-0.000181029
0.00463351
-0.000112469
0.000111395
0.00382966
-7.78982e-05
-0.000354377
0.00355951
0.0001038
-0.000348088
0.0032806
0.000112759
-0.000356629
0.00296906
9.91293e-05
-0.000352339
0.00349837
1.66986e-05
-0.00022376
0.00313654
-6.75126e-05
-0.000175698
0.00265536
-0.00015433
-0.000248754
0.00198869
-0.000188958
-0.000244031
0.00209179
-0.000134585
-0.00021754
0.00298537
-5.69071e-05
-0.00014559
0.00361136
-2.79465e-05
6.0427e-06
0.00372782
-9.32963e-05
5.87412e-05
0.001666
-0.00014834
4.17259e-05
0.00107393
-0.000207401
-0.000129687
0.00190351
-6.33013e-05
-0.000162681
0.00292502
-3.77669e-05
-0.000187329
0.00299319
-1.95552e-05
-0.000221536
0.00282561
-1.93927e-05
-0.000114331
0.00194201
-2.99423e-05
-0.000122781
0.00141587
-4.5727e-05
-0.000111611
0.0011349
-5.14579e-05
-7.29076e-05
0.00232742
-5.57682e-05
-6.9177e-05
0.00233735
-6.34107e-05
-7.52474e-05
0.00187949
-6.27013e-05
-2.77401e-05
0.00118506
-6.01072e-05
-6.65752e-06
0.000380994
-7.24216e-05
4.76417e-05
0.00108522
-9.04341e-05
9.18845e-05
0.000395678
-0.000101951
-0.00067722
0.00476915
0.00419975
-0.000869762
0.00490938
0.003935
-0.000785559
0.00529193
0.00370056
-0.000653043
0.00509714
0.00377071
-0.000576582
0.00550502
0.00335301
-0.000581056
0.00559169
0.00341681
-0.000489194
0.00543335
0.00344745
-0.000647585
0.00559547
0.0033078
-0.000539697
0.00558826
0.00323438
-0.000518483
0.0057412
0.00330125
-0.000672267
0.00596944
0.00289672
-0.000844742
0.00581665
0.00287953
-0.000776891
0.00587097
0.00280765
-0.00044343
0.00595439
0.0027406
-0.000417446
0.00611847
0.00275771
-0.000571689
0.00627962
0.0027943
-0.000742899
0.00618277
0.00282799
-0.000564237
0.00614072
0.00270889
-0.000494197
0.0059356
0.00266401
-0.000251842
0.00651116
0.00234707
-0.000352455
0.0062678
0.00231276
-0.000641093
0.00620832
0.0023761
-0.000680399
0.00596402
0.00221635
-0.000674122
0.00649826
0.00216586
-0.00037001
0.00658292
0.00216147
-0.000526674
0.00702881
0.00198934
-0.000734597
0.00701159
0.00188255
-0.00106559
0.00654324
0.00210998
-0.00085032
0.00611172
0.00195048
-0.000635963
0.00645539
0.00185977
-0.000352834
0.00670306
0.00175857
-0.000209501
0.00613369
0.00164806
-0.000881001
0.00677042
0.00188935
-0.000849967
0.00673267
0.00181674
-0.000806595
0.00684161
0.00176607
-0.000898542
0.00685377
0.00160393
-0.000676069
0.00640432
0.00153616
-0.000475303
0.00673677
0.00151462
-0.00046352
0.00660394
0.0017047
-5.22759e-05
0.00644585
0.00167859
-0.00103555
0.00681785
0.00170262
-0.000752539
0.00692415
0.0015816
-0.00100624
0.00673644
0.00149901
-0.000678807
0.00652189
0.00143321
-0.000662719
0.00636083
0.00143378
-0.000574764
0.00631333
0.00146797
-0.000486814
0.0062883
0.00151001
-0.000282124
0.00656102
0.0014295
-0.000357734
0.00646452
0.0012765
-0.000936743
0.00632062
0.00140664
-0.000847348
0.00661308
0.00139373
-0.00082205
0.00655043
0.00128187
-0.000924015
0.00624686
0.00117635
-0.000384478
0.00601665
0.00111667
-0.000557505
0.00635674
0.00112339
-0.000405777
0.00696809
0.000997882
-0.000440585
0.00702806
0.00101217
-0.000443961
0.00642468
0.000856679
-0.000383526
0.0055127
0.000782423
-0.000794083
0.00518464
0.00108273
-0.000756689
0.00553733
0.0010208
-0.000856248
0.00561039
0.000981453
-0.000693184
0.00608798
0.000833699
-0.000413829
0.00624573
0.00064506
-0.000376521
0.00670499
0.000652595
-0.000310652
0.00597462
0.000720314
-0.00022161
0.00519859
0.000736912
-0.000473824
0.00404031
0.000709925
-0.000466204
0.00370021
0.00062417
-0.000284526
0.00391454
0.000305871
-0.000712626
0.0050915
0.000592028
-0.000722712
0.00564918
0.000470293
-0.000679456
0.00604866
0.000485932
-0.000686887
0.0060404
0.000461955
-0.000319048
0.0048904
0.000422166
-0.000349837
0.00385002
0.000506017
-0.000286821
0.00389074
0.000540303
-0.000347452
0.00339773
0.000498034
-0.00039984
0.0033784
0.00033293
-0.000409895
0.0035933
0.000121674
-0.000208229
0.00471722
2.05283e-05
7.33857e-05
0.00547875
-0.000106272
-0.000679054
0.00480411
0.000344259
-0.000584879
0.00499555
0.000323012
-0.00047017
0.00507926
0.000318178
-0.000392577
0.0045193
0.000247095
-0.000217667
0.00336172
-3.23615e-05
-0.000214635
0.00276758
-0.000117796
-0.000352298
0.00339004
3.53189e-05
-0.000381448
0.00291029
-1.20054e-05
-0.000325509
0.0035578
-3.94257e-05
-0.000317558
0.00410225
3.05325e-06
-1.42325e-05
0.00469765
-3.60128e-05
0.000115106
0.00369883
-3.80134e-05
0.000112383
0.00206918
-0.00011372
-0.000343182
0.00369247
0.000110231
-0.000320594
0.0034216
0.000120709
-0.00034039
0.00312722
0.000107657
-0.000332837
0.00364976
5.90441e-05
-0.00018986
0.00331386
-8.50943e-05
-0.000186262
0.00280204
-0.000150715
-0.000235784
0.00215159
-0.000193066
-0.000216397
0.00218552
-0.000139195
-0.000184343
0.00302055
-5.4606e-05
-0.000114547
0.0036183
-2.45416e-05
4.20114e-05
0.00371683
-8.67048e-05
4.80929e-05
0.00165669
-0.000138735
2.93435e-05
0.00114224
-0.000198345
0.000252568
0.00165268
-0.000288055
-0.00012298
0.0020119
-6.29116e-05
-0.000156121
0.0030562
-3.83571e-05
-0.000177739
0.00315248
-1.9319e-05
-0.000207084
0.00303255
-1.94159e-05
-0.000119547
0.00207298
-3.08102e-05
-0.000119502
0.00155014
-4.47071e-05
-0.00010641
0.00124727
-5.16915e-05
-5.58821e-05
0.00238742
-5.55829e-05
-6.12119e-05
0.00240571
-6.29119e-05
-7.10564e-05
0.00195087
-6.37409e-05
-2.27593e-05
0.00120562
-6.05074e-05
-1.07214e-05
0.000402745
-7.11372e-05
5.04279e-05
0.00105298
-9.06159e-05
9.51367e-05
0.000311869
-0.000101762
0.000111461
0.000245913
-0.00010688
-0.000810846
0.00455994
0.00430729
-0.000708829
0.00472176
0.00407668
-0.000343054
0.00486015
0.00406187
-0.000729012
0.00488283
0.00382916
-0.00047075
0.00488115
0.00384508
-0.000552849
0.00525255
0.0036536
-0.000518952
0.00503431
0.00370128
-0.000377249
0.00498119
0.00377324
-0.000549214
0.00552981
0.00336928
-0.00056309
0.00555614
0.00341195
-0.000404056
0.00529372
0.00344201
-0.000199283
0.00532877
0.00348577
-0.00058953
0.00550119
0.00330881
-0.000592348
0.00545807
0.00318559
-0.000615387
0.00561789
0.00319618
-0.000245076
0.00551489
0.00323669
-0.000489726
0.00602674
0.00293188
-0.000701508
0.00588909
0.0029541
-0.000699111
0.00585113
0.00285557
-0.000521077
0.00592499
0.00279389
-0.000229452
0.00574902
0.0027085
-0.000262665
0.00615827
0.00264471
-0.000207279
0.00624685
0.00264531
-0.000558814
0.00626855
0.00262624
-0.00043578
0.00616127
0.00256282
-0.000597612
0.00599134
0.00257664
-0.000216026
0.00569364
0.00260951
-0.000353908
0.00623134
0.00245117
-0.000638851
0.00599295
0.00252618
-0.000745238
0.00580226
0.00239847
-0.000535752
0.00583417
0.00219139
-0.000535939
0.00652368
0.0020909
-0.00023907
0.00654083
0.00209419
2.88758e-06
0.00643472
0.00200189
-0.000478538
0.0067877
0.00187588
-0.000560299
0.00666292
0.00204835
-0.000860475
0.00652077
0.0019589
-0.000724719
0.00612001
0.00192787
-0.00035163
0.00638731
0.00169412
-0.000169549
0.00650673
0.00175035
-0.000301428
0.00605859
0.00167158
4.48445e-05
0.0062673
0.00161664
-0.000872481
0.00666868
0.00183109
-0.000586995
0.00672667
0.0017298
-0.000639141
0.00681469
0.00147656
-0.000494771
0.00697105
0.00146475
-0.000586249
0.006428
0.00150379
-0.000402204
0.00657613
0.00152423
-0.000415071
0.00636559
0.00168123
-8.16712e-05
0.00626925
0.00168085
-5.77183e-05
0.00620281
0.00166559
-0.000865261
0.00679797
0.00172178
-0.000799639
0.00699739
0.00158168
-0.000881015
0.00697093
0.00140608
-0.000787637
0.00648249
0.00140203
-0.000325922
0.00634929
0.0013862
-0.000535441
0.00637218
0.00135286
-0.000411097
0.0063313
0.00143029
-0.00034407
0.00652132
0.0014532
-0.000280718
0.00640175
0.00132903
-0.000183689
0.00609774
0.0011242
-0.000887037
0.00652815
0.00139812
-0.000804168
0.00679713
0.00127008
-0.000759435
0.00654358
0.00130377
-0.000754628
0.00643789
0.00115228
-0.000466198
0.00619895
0.00104642
-0.000371741
0.00650992
0.000958709
-0.000273631
0.00708338
0.000971082
-0.000247035
0.0070922
0.00095916
-0.000413817
0.00638053
0.000996315
-0.000351228
0.00546156
0.000792843
-0.000325338
0.00445398
0.000841883
-0.000859347
0.0054268
0.00110596
-0.000720074
0.00560833
0.00100909
-0.000802162
0.00579475
0.000959145
-0.000682528
0.00623966
0.000825416
-0.000315494
0.00644743
0.000628446
-0.000214165
0.00661107
0.000603313
-0.000162127
0.00582017
0.00068235
-9.07211e-05
0.00490065
0.000761515
-0.000340438
0.004019
0.000698822
-0.000331664
0.0038207
0.000511207
-0.000216157
0.0040987
0.000447932
-8.51526e-05
0.00497911
0.000369838
-0.000837763
0.00533976
0.000584659
-0.000833185
0.00595346
0.000536056
-0.00065422
0.00619639
0.000506617
-0.000576272
0.00622792
0.000482103
-0.000317086
0.0050036
0.000448171
-0.000281641
0.0038336
0.000505586
-0.000276744
0.00385376
0.000467442
-0.000326186
0.00338878
0.000493997
-0.000358592
0.00361848
0.000291041
-0.000347212
0.00386897
8.69116e-05
-7.97538e-05
0.00484063
6.37836e-05
8.36609e-05
0.00565012
-0.000119399
0.000175973
0.00505814
-8.88399e-05
-0.000664131
0.00509525
0.000336284
-0.000450797
0.00515109
0.000318916
-0.000432601
0.00516126
0.000333222
-0.000387475
0.00465521
0.000236897
-0.000209972
0.00363717
-8.23894e-06
-0.000251203
0.0029112
-0.000111043
-0.000325573
0.0033951
-3.30675e-05
-0.000342082
0.00311745
-4.61582e-05
-0.000266243
0.00369614
-6.84541e-05
-0.000243286
0.00419295
-1.39238e-06
4.82523e-05
0.00472451
-3.00468e-05
0.000138967
0.00354167
3.02804e-05
0.000113769
0.00203971
-9.2972e-05
0.000328857
0.00188765
-0.000294634
-0.000325973
0.00382354
0.000117323
-0.000360979
0.00361156
0.000125135
-0.000322184
0.00327898
0.000113398
-0.000298719
0.00381857
3.04765e-05
-0.000170555
0.00347432
-5.04011e-05
-0.000182882
0.00292289
-0.000142556
-0.000214641
0.00230325
-0.000194137
-0.000163313
0.00224556
-0.00014568
-0.000151262
0.00303347
-6.2063e-05
-8.56524e-05
0.00360012
-2.18358e-05
7.50781e-05
0.00367155
-7.71018e-05
3.79361e-05
0.00165304
-0.000131711
4.78824e-06
0.00124048
-0.000191338
0.000260955
0.00157362
-0.00028511
0.000302086
0.00101486
-0.000322359
-0.000115346
0.00210932
-6.27689e-05
-0.000147526
0.003179
-3.81894e-05
-0.000167017
0.00330135
-2.0213e-05
-0.000193611
0.00322605
-1.92035e-05
-0.000103062
0.00218757
-3.09475e-05
-0.00011039
0.00167427
-4.45551e-05
-0.000103816
0.00135761
-5.12262e-05
-4.10724e-05
0.00243233
-5.55211e-05
-5.20928e-05
0.00246559
-6.33723e-05
-5.75238e-05
0.0020098
-6.43162e-05
-2.01858e-05
0.00122308
-6.10142e-05
-1.40433e-05
0.000426582
-7.03009e-05
5.47468e-05
0.0010185