/*--------------------------------*- C++ -*----------------------------------*\
  =========                 |
  \\      /  F ield         | OpenFOAM: The Open Source CFD Toolbox
   \\    /   O peration     | Website:  https://openfoam.org
    \\  /    A nd           | Version:  7
     \\/     M anipulation  |
\*---------------------------------------------------------------------------*/
FoamFile
{
    version     2.0;
    format      ascii;
    class       volVectorField;
    location    "5.5";
    object      U;
}
// * * * * * * * * * * * * * * * * * * * * * * * * * * * * * * * * * * * * * //

dimensions      [0 1 -1 0 0 0 0];

internalField   nonuniform List<vector> 
18630
(
(0.338067 -1.23241 -1.25323)
(-0.0420706 -1.67516 -0.575502)
(0.317365 -1.20462 -1.35472)
(-0.0938361 -1.65584 -0.992813)
(-1.13371 -1.78062 -0.639321)
(-0.0127512 -1.80706 -0.312247)
(-0.312194 -1.78121 -0.53727)
(0.305874 -1.13867 -1.5614)
(-0.0960548 -1.68891 -0.965094)
(0.125347 -1.89266 -0.596315)
(-1.79157 -1.15759 0.224588)
(-1.03151 -1.89074 -0.512691)
(-1.48063 -1.83294 1.03354)
(0.0306874 -1.98512 0.0363744)
(-0.266808 -1.78767 -0.540045)
(-0.0975463 -2.28909 0.485254)
(0.280047 -1.12008 -1.70335)
(-0.0901253 -1.6953 -0.951674)
(0.143168 -1.89745 -0.58616)
(0.358088 -2.08734 -0.171492)
(-2.05724 -1.70517 1.47639)
(-1.87722 -1.13898 -0.024814)
(-1.7996 -2.48601 0.574688)
(-0.81266 -2.0939 -0.195507)
(-1.37275 -1.81144 1.04094)
(-1.47247 -2.23938 1.0066)
(0.0417071 -2.0885 0.340568)
(-0.216633 -1.80807 -0.486403)
(-0.0719894 -2.29593 0.52675)
(-0.17113 -2.16619 0.204665)
(0.270843 -1.12636 -1.79322)
(-0.0599859 -1.69008 -0.936054)
(0.135576 -1.91236 -0.53628)
(0.377984 -2.11604 -0.212428)
(0.110234 -1.41827 -0.700972)
(-2.76119 -1.68119 2.31678)
(-1.89802 -1.9016 1.75015)
(-1.54325 -2.61711 2.28301)
(-1.58463 -1.55999 0.337089)
(-1.83914 -2.39986 0.531908)
(-1.53594 -2.34369 1.53374)
(-0.596179 -2.34634 0.0764929)
(-1.25839 -1.89795 1.008)
(-1.4303 -2.25936 1.1164)
(-0.838917 -1.87615 0.795061)
(0.0460768 -2.13276 0.507413)
(-0.18937 -1.8201 -0.421832)
(-0.0130613 -2.31704 0.498942)
(-0.132463 -2.2958 0.0837032)
(-0.369858 -1.49418 -0.480897)
(0.268211 -1.15247 -1.82291)
(-0.047944 -1.69192 -0.910558)
(0.152725 -1.90972 -0.538254)
(0.39234 -2.1398 -0.200672)
(0.1065 -1.41995 -0.642651)
(0.216423 -1.25379 -0.991745)
(-2.95306 -1.99632 2.75583)
(-2.6045 -1.9362 2.37369)
(-2.47413 -2.21575 2.46131)
(-1.73257 -2.19895 1.87289)
(-1.46662 -2.4612 2.66405)
(-1.22866 -2.68051 1.73555)
(-1.80873 -1.65156 0.317966)
(-1.70375 -2.30772 0.591877)
(-1.48526 -2.47132 1.54613)
(-1.45431 -2.01071 0.357493)
(-0.482573 -2.46385 0.416087)
(-1.24079 -1.93785 0.972097)
(-1.40045 -2.38531 0.948925)
(-0.868194 -1.81063 1.30591)
(-0.381944 -1.28699 0.0367102)
(0.0469371 -2.18073 0.552735)
(-0.153629 -1.84342 -0.302817)
(0.0347197 -2.32225 0.503895)
(-0.107459 -2.36934 0.201707)
(-0.384633 -1.52681 -0.369156)
(-0.440994 -1.1975 -1.09175)
(0.269956 -1.17033 -1.83649)
(-0.0326704 -1.7283 -0.79992)
(0.129732 -1.90555 -0.571744)
(0.401433 -2.14789 -0.231432)
(0.102822 -1.41727 -0.597384)
(0.222462 -1.25286 -0.970053)
(0.157607 -1.12329 -1.31052)
(-2.79603 -1.67809 3.08508)
(-2.80047 -2.14065 2.97966)
(-3.27126 -1.27389 2.56895)
(-2.35884 -2.15709 2.53236)
(-2.22966 -2.71156 2.57692)
(-2.94053 -1.2965 1.38115)
(-1.55454 -2.25548 1.97111)
(-1.57561 -2.27442 2.76399)
(-1.18667 -2.78217 2.07311)
(-2.10673 -1.19292 0.630753)
(-1.5285 -1.92354 0.715966)
(-1.72982 -2.27081 0.566242)
(-1.46652 -2.79048 1.2221)
(-1.52093 -2.10035 0.699603)
(-1.78639 -1.54347 0.605309)
(-0.383508 -2.62712 0.539997)
(-1.11666 -2.02029 0.942214)
(-1.36499 -2.51753 0.767768)
(-0.910483 -1.96975 1.34746)
(-0.396001 -1.28921 0.140383)
(-0.764281 -1.27692 -0.351619)
(0.00790856 -2.18813 0.625122)
(-0.1213 -1.87836 -0.15046)
(0.0653716 -2.3061 0.536394)
(-0.0910032 -2.41735 0.280596)
(-0.419354 -1.54991 -0.298612)
(-0.454013 -1.22439 -1.0812)
(-0.228825 -1.10279 -1.55082)
(0.276682 -1.19308 -1.83435)
(-0.0208213 -1.72426 -0.846785)
(0.146602 -1.88394 -0.584226)
(0.406198 -2.14991 -0.256333)
(0.0958955 -1.40566 -0.576356)
(0.218455 -1.24676 -0.949419)
(0.161504 -1.11609 -1.30632)
(-0.570576 -1.11551 -0.923364)
(-3.04046 -1.57635 3.0672)
(-2.71528 -1.86258 3.23106)
(-3.01475 -1.92111 3.01797)
(-2.56765 -2.36555 3.10594)
(-2.97757 -1.99135 2.92617)
(-2.61581 -1.73128 2.97595)
(-2.17813 -2.14671 2.65351)
(-2.03688 -2.90283 2.63188)
(-2.89898 -1.25736 2.21636)
(-1.7656 -2.14873 2.11747)
(-1.49509 -2.23608 2.04922)
(-1.58718 -2.22117 2.70648)
(-1.19304 -2.92046 2.36317)
(-1.99327 -1.5389 0.854171)
(-2.0674 -1.88044 1.56886)
(-1.39326 -2.08691 1.03205)
(-1.64793 -2.28356 0.578451)
(-1.47387 -2.85991 1.30395)
(-1.50114 -2.49427 0.367284)
(-1.79223 -1.57178 0.495002)
(-2.04052 -1.42146 1.15527)
(-0.247972 -2.79468 0.649116)
(-1.03695 -2.1318 0.916462)
(-1.31884 -2.57205 0.869619)
(-0.774576 -2.16088 1.38779)
(-0.465745 -1.30119 0.170865)
(-0.712107 -1.31829 -0.366766)
(-1.27216 -1.74575 0.641758)
(0.00514225 -2.17878 0.653225)
(-0.0562965 -1.96518 0.133301)
(0.10368 -2.27936 0.581105)
(-0.0845083 -2.45358 0.320812)
(-0.443217 -1.57194 -0.247716)
(-0.489883 -1.24063 -1.07795)
(-0.244139 -1.09717 -1.56825)
(-0.376004 -1.28665 -0.793936)
(0.278009 -1.21923 -1.82586)
(0.00240372 -1.70094 -0.934833)
(0.130183 -1.87092 -0.612129)
(0.412508 -2.15225 -0.255319)
(0.081013 -1.37864 -0.591881)
(0.217872 -1.24895 -0.907597)
(0.16492 -1.10727 -1.29902)
(-0.5752 -1.08622 -0.958869)
(-0.701922 -0.931208 -1.51222)
(-3.02985 -1.8522 2.69)
(-2.92293 -1.96776 3.0883)
(-2.99167 -1.6224 3.18257)
(-2.64361 -1.95257 3.26636)
(-2.92654 -2.11701 3.03302)
(-2.67129 -1.91267 3.11223)
(-2.52744 -2.13955 3.17854)
(-2.80844 -2.22095 2.95611)
(-2.63748 -2.04651 3.03651)
(-2.8376 -1.62455 3.00458)
(-2.0596 -2.20063 2.60074)
(-1.98 -2.81259 2.63477)
(-2.56361 -1.81504 2.64122)
(-1.73641 -2.39473 2.31554)
(-2.02708 -2.44813 2.07443)
(-1.37216 -2.23845 2.22328)
(-1.62071 -2.19387 2.60088)
(-1.13458 -2.84848 2.67589)
(-2.02342 -1.69367 1.27709)
(-2.12151 -1.90921 1.54389)
(-2.57842 -2.00742 1.28392)
(-1.42944 -2.18509 1.33344)
(-1.51131 -2.35585 0.598075)
(-1.49612 -2.83423 1.45231)
(-1.16383 -2.90525 0.346101)
(-1.78874 -1.61201 0.461552)
(-1.55795 -1.72222 1.40621)
(-1.82742 -1.46836 1.65925)
(-0.135155 -2.78407 0.958659)
(-0.917691 -2.25966 0.915637)
(-1.34009 -2.54161 0.999798)
(-0.825385 -2.15824 1.58539)
(-0.51817 -1.30192 0.207806)
(-0.715069 -1.30653 -0.397315)
(-1.17983 -1.78996 0.65324)
(-0.639041 -1.57609 0.668444)
(-0.0194583 -2.17824 0.656845)
(0.0381183 -2.05793 0.388288)
(0.147939 -2.25196 0.606279)
(-0.0553425 -2.49995 0.343118)
(-0.483526 -1.57978 -0.259751)
(-0.502936 -1.27216 -1.00852)
(-0.262809 -1.07441 -1.5919)
(-0.43801 -1.26161 -0.845246)
(-1.06681 -1.00891 -1.23322)
(0.277472 -1.23088 -1.81396)
(0.0107021 -1.69669 -0.98194)
(0.125902 -1.89076 -0.604198)
(0.39528 -2.18071 -0.273506)
(0.126264 -1.41089 -0.487043)
(0.2201 -1.24695 -0.867135)
(0.164314 -1.09382 -1.29374)
(-0.591845 -1.07515 -0.975071)
(-0.707235 -0.936483 -1.52586)
(-0.492241 -1.06932 -1.48652)
(-2.81046 -1.70241 2.79573)
(-2.9825 -1.85484 2.76897)
(-2.94338 -1.84334 2.84732)
(-2.92181 -2.03938 3.057)
(-3.11135 -1.82151 3.02203)
(-3.02884 -1.90849 2.77093)
(-2.69868 -1.9576 3.18988)
(-2.97066 -2.16492 2.75459)
(-2.64423 -2.27161 2.82863)
(-2.81162 -2.06077 2.88711)
(-2.26617 -2.36758 3.11521)
(-2.51526 -2.50612 2.88341)
(-2.63966 -2.50542 2.8551)
(-2.6194 -2.21143 2.9155)
(-2.65206 -1.52209 3.03994)
(-1.98487 -2.19623 2.73374)
(-1.91009 -2.68428 2.68284)
(-2.20412 -2.44255 2.74404)
(-1.89548 -2.48625 2.48807)
(-2.085 -2.45986 2.21898)
(-2.7771 -1.74576 2.24358)
(-1.18404 -2.22647 2.54051)
(-1.4652 -2.40029 2.48266)
(-1.18139 -2.80541 2.68416)
(-2.06205 -1.70461 1.84698)
(-2.04065 -2.04655 1.57778)
(-2.61929 -1.94955 1.43402)
(-2.48774 -1.8982 1.52696)
(-0.97341 -2.49689 1.42375)
(-1.48563 -2.41544 0.747852)
(-1.47473 -2.8618 1.49)
(-1.18712 -2.99933 0.71215)
(-1.67492 -1.73072 0.590731)
(-1.61785 -1.77561 1.32882)
(-1.73331 -1.47051 1.77226)
(-1.51846 -1.57024 1.51323)
(-0.0929272 -2.81769 1.03751)
(-0.850665 -2.27373 1.093)
(-1.25899 -2.52605 1.09008)
(-0.876839 -2.1362 1.76981)
(-0.561127 -1.2927 0.232296)
(-0.674131 -1.35458 -0.2369)
(-1.06793 -1.85379 0.591823)
(-0.484309 -1.64985 0.838814)
(-0.920405 -1.70452 0.415586)
(-0.0360656 -2.15554 0.628256)
(0.107146 -2.14897 0.554958)
(0.170348 -2.2446 0.6133)
(-0.00244403 -2.54246 0.36219)
(-0.486996 -1.62022 -0.207117)
(-0.52239 -1.34678 -0.858284)
(-0.293602 -1.07492 -1.6028)
(-0.41984 -1.19333 -0.976524)
(-1.06022 -1.04875 -1.16554)
(-1.44304 -1.24673 0.249031)
(0.288342 -1.24815 -1.78021)
(-0.0051953 -1.70109 -1.01199)
(0.132347 -1.90568 -0.576567)
(0.397994 -2.17464 -0.272644)
(0.0715474 -1.3946 -0.535836)
(0.210816 -1.23624 -0.848668)
(0.166117 -1.08337 -1.28314)
(-0.612432 -1.07582 -1.00131)
(-0.720179 -0.946158 -1.5191)
(-0.487146 -1.09084 -1.4395)
(-0.402729 -0.583303 -1.33152)
(-2.96061 -1.16508 2.79258)
(-2.72554 -1.69582 2.75501)
(-2.7026 -1.45851 2.86699)
(-2.95344 -1.74274 2.65896)
(-3.08503 -1.74223 2.69065)
(-3.24997 -1.59887 2.52355)
(-2.97158 -1.91118 2.91738)
(-3.02408 -1.83112 2.82442)
(-2.98229 -2.07597 2.5438)
(-2.90401 -1.60197 2.79008)
(-2.60604 -2.15778 3.1448)
(-2.74102 -2.1508 2.8115)
(-2.59315 -2.28637 2.78907)
(-2.72085 -2.24136 2.83208)
(-2.70333 -2.14054 2.90118)
(-2.2032 -2.50162 3.04405)
(-2.48605 -2.47156 2.88851)
(-2.67736 -2.64152 2.86024)
(-2.71856 -2.01097 2.88869)
(-2.6605 -1.79798 2.80913)
(-2.88708 -1.55877 2.72053)
(-1.88673 -2.50768 2.73024)
(-1.94766 -2.66431 2.71546)
(-2.04077 -2.68343 2.70683)
(-1.72306 -2.61111 2.75298)
(-2.09287 -2.38918 2.29296)
(-2.544 -1.9891 2.20908)
(-2.98501 -1.73387 1.93925)
(-1.00207 -2.648 2.45241)
(-1.57584 -2.18294 2.68758)
(-1.16874 -2.82455 2.62906)
(-2.07461 -1.90902 2.05517)
(-2.13073 -1.98406 1.68005)
(-2.54792 -2.06216 1.57294)
(-2.42355 -1.97507 1.65985)
(-2.69219 -0.801769 0.975473)
(-0.757415 -2.63169 1.63106)
(-1.22646 -2.58956 0.959404)
(-1.51202 -2.76016 1.64909)
(-1.05263 -3.12276 0.976767)
(-1.61813 -1.8524 0.665095)
(-1.58975 -1.74373 1.25614)
(-1.73523 -1.45624 1.75115)
(-1.32492 -1.4982 1.71802)
(-1.04104 -1.30451 1.74245)
(-0.143415 -2.81937 1.08795)
(-0.669569 -2.50202 0.958688)
(-1.21821 -2.51087 1.16461)
(-1.06696 -1.98649 1.84943)
(-0.632658 -1.30248 0.251531)
(-0.649391 -1.37096 -0.16676)
(-0.972594 -1.87449 0.539808)
(-0.561302 -1.74566 0.689525)
(-0.927785 -1.75852 0.402919)
(-1.38853 -1.57351 0.189907)
(-0.0512996 -2.13311 0.574821)
(0.225485 -2.23123 0.609677)
(0.239012 -2.26007 0.639161)
(0.0266799 -2.55121 0.422366)
(-0.509882 -1.63611 -0.302138)
(-0.542072 -1.346 -0.862424)
(-0.315488 -1.10911 -1.5453)
(-0.478939 -1.17176 -1.09006)
(-1.05262 -1.12666 -1.03878)
(-1.44362 -1.20585 0.217663)
(-1.64024 -0.597698 -0.698327)
(0.302281 -1.24387 -1.75689)
(0.00158081 -1.70487 -1.03559)
(0.122146 -1.9278 -0.584552)
(0.419816 -2.1555 -0.259798)
(0.0548562 -1.37659 -0.557083)
(0.224655 -1.24447 -0.802461)
(0.180999 -1.09156 -1.25616)
(-0.612791 -1.07178 -1.02329)
(-0.724775 -0.964025 -1.4954)
(-0.461949 -1.09804 -1.40776)
(-0.398694 -0.576513 -1.3538)
(-0.110842 -0.193487 -1.42462)
(-2.5844 -0.860321 2.67607)
(-2.65588 -1.17073 2.78211)
(-2.73724 -1.43556 2.67821)
(-2.96795 -1.20458 2.64911)
(-2.55337 -1.66714 2.83768)
(-2.39887 -1.68191 2.89367)
(-2.56286 -1.52551 2.93931)
(-2.88329 -1.88886 2.50443)
(-3.30572 -1.40897 2.32358)
(-3.12606 -1.55518 2.40929)
(-2.89938 -1.73794 2.49518)
(-2.80953 -2.24886 2.70321)
(-2.85275 -2.01827 2.57273)
(-2.63525 -2.13743 2.53928)
(-2.7511 -1.60071 2.77388)
(-3.08164 -0.867923 2.72961)
(-2.39968 -2.47946 3.06625)
(-2.6472 -2.22182 2.87442)
(-2.52867 -2.26743 2.87434)
(-2.41254 -2.40412 2.84821)
(-2.55229 -2.39807 2.58267)
(-3.01795 -1.1922 2.7617)
(-2.12295 -2.6844 3.0083)
(-2.10543 -2.86491 2.81579)
(-2.31101 -3.00296 2.7148)
(-2.59025 -2.07542 2.92887)
(-2.42827 -1.8423 2.87693)
(-2.98641 -1.06044 2.62666)
(-2.80961 -1.39694 2.82864)
(-1.5695 -2.87946 2.72326)
(-1.75351 -2.9351 2.66018)
(-1.94346 -2.7902 2.67116)
(-1.85319 -2.69238 2.58424)
(-1.986 -2.4568 2.31871)
(-2.37562 -2.15582 2.2408)
(-3.04428 -1.62147 2.05908)
(-3.13917 -1.36645 1.86723)
(-0.693808 -2.83058 2.47188)
(-1.51918 -2.50528 2.53859)
(-1.26336 -2.71453 2.64657)
(-1.82515 -2.26631 2.22178)
(-2.18746 -2.099 1.58591)
(-2.6773 -1.96881 1.51793)
(-2.43467 -1.94881 1.68765)
(-2.45483 -1.18474 1.41934)
(-1.70986 -1.48728 1.61483)
(-0.776166 -2.77984 1.5673)
(-1.02816 -2.7987 1.12338)
(-1.44577 -2.79096 1.65676)
(-1.32988 -2.91132 1.24686)
(-1.53045 -1.99838 0.718573)
(-1.32949 -1.77145 1.38835)
(-1.69131 -1.38552 1.69787)
(-1.32497 -1.54263 1.65061)
(-1.07244 -1.3423 1.72553)
(-1.1944 -1.44424 0.671822)
(-0.126439 -2.76145 1.23308)
(-0.819475 -2.36208 1.39048)
(-1.04445 -2.59841 1.13671)
(-1.01696 -2.01696 1.84733)
(-0.717478 -1.34597 0.263618)
(-0.703965 -1.25961 -0.368925)
(-0.868039 -1.91355 0.333118)
(-0.543605 -1.73828 0.643345)
(-0.986196 -1.76717 0.156057)
(-1.38511 -1.56863 0.168081)
(-2.04764 -0.583665 -0.174435)
(-0.0364185 -2.13611 0.50185)
(0.318369 -2.32774 0.645699)
(0.274009 -2.26172 0.649633)
(0.044243 -2.53022 0.55352)
(-0.527452 -1.67342 -0.334227)
(-0.550891 -1.3874 -0.808081)
(-0.326383 -1.16241 -1.47863)
(-0.519907 -1.12793 -1.16201)
(-1.03852 -1.19696 -0.896435)
(-1.4231 -1.19572 0.170418)
(-1.66578 -0.614307 -0.637284)
(-0.831296 -0.100051 -1.05774)
(0.310804 -1.25719 -1.73555)
(0.00362403 -1.72814 -1.02163)
(0.130552 -1.95052 -0.605548)
(0.383358 -2.18565 -0.248089)
(0.0479603 -1.37755 -0.55076)
(0.20255 -1.22885 -0.803686)
(0.175344 -1.08998 -1.24228)
(-0.619416 -1.07093 -1.03002)
(-0.726942 -0.965008 -1.48832)
(-0.460666 -1.07061 -1.37362)
(-0.392021 -0.584012 -1.38287)
(-0.11462 -0.187475 -1.3807)
(-0.627592 0.335791 -1.94513)
(-2.40294 -0.792303 2.6736)
(-2.5043 -1.01254 2.65532)
(-2.53944 -0.813125 2.65249)
(-2.57836 -1.22862 2.82996)
(-2.69418 -0.836197 2.86268)
(-2.59079 -1.54756 2.66022)
(-2.61221 -1.6379 2.61155)
(-2.77767 -1.21162 2.64917)
(-2.5336 -1.66067 2.9366)
(-2.55414 -1.6003 2.9243)
(-2.53428 -1.59289 2.9621)
(-2.81551 -1.11157 2.97163)
(-2.92531 -1.93622 2.43205)
(-2.74012 -1.97174 2.59077)
(-2.94744 -1.60026 2.57714)
(-2.72454 -1.59452 2.59385)
(-2.75301 -1.42267 2.54599)
(-2.80007 -2.34386 2.53456)
(-2.72962 -2.23131 2.54575)
(-2.43335 -2.28904 2.53548)
(-2.58649 -1.84669 2.59507)
(-2.98233 -1.01812 2.58083)
(-3.01082 -0.861362 2.50887)
(-2.42198 -2.62151 2.82525)
(-2.5505 -2.43754 2.77117)
(-2.66209 -2.1173 2.90673)
(-2.62165 -2.26593 2.61135)
(-2.31522 -1.97858 2.82655)
(-2.96687 -1.37275 2.45421)
(-3.01772 -1.41712 2.3252)
(-1.89438 -2.94097 2.99852)
(-2.19469 -2.80426 2.81539)
(-2.47146 -2.592 2.82313)
(-2.43599 -2.38365 2.68287)
(-2.66887 -1.75587 2.5955)
(-2.46587 -1.80546 2.54055)
(-2.87634 -1.41098 2.62423)
(-2.98892 -1.26895 2.46929)
(-1.43708 -2.99327 2.78255)
(-1.96905 -2.83258 2.65907)
(-1.63615 -3.05428 2.59703)
(-1.69098 -2.84072 2.64817)
(-2.13324 -2.34763 2.28179)
(-2.42348 -2.10741 2.17651)
(-2.79306 -1.9662 2.16699)
(-3.01918 -1.47162 2.01059)
(-2.95575 -1.29544 1.64444)
(-0.709736 -2.81616 2.54547)
(-1.12377 -2.7798 2.53523)
(-1.33146 -2.76674 2.52543)
(-1.84655 -2.44796 2.26354)
(-2.06851 -2.27689 1.62004)
(-2.66367 -1.94738 1.57188)
(-2.62401 -1.47446 1.57778)
(-2.31408 -1.37502 1.68516)
(-1.59201 -1.50977 1.73263)
(-1.48742 -1.27612 1.66267)
(-0.52106 -2.73733 1.82344)
(-0.769464 -3.0973 1.03797)
(-1.35354 -2.87871 1.63966)
(-1.20519 -2.98272 1.31019)
(-1.55755 -1.99105 0.868331)
(-1.25445 -1.7446 1.50278)
(-1.39369 -1.53249 1.7551)
(-1.16857 -1.51379 1.73118)
(-1.10221 -1.36297 1.69638)
(-1.21649 -1.43374 0.640694)
(-1.99379 -0.908137 0.443093)
(0.00862638 -2.86492 1.2897)
(-0.367191 -2.86497 0.701246)
(-0.981147 -2.61069 1.16707)
(-1.0117 -2.15063 1.7793)
(-0.748931 -1.434 0.225238)
(-0.694519 -1.35173 -0.250038)
(-0.80106 -1.93198 0.226563)
(-0.527982 -1.74847 0.54385)
(-1.03187 -1.74406 -0.116526)
(-1.42885 -1.57109 0.148096)
(-1.95643 -1.12915 -0.414348)
(-1.90907 -0.011951 -0.83208)
(-0.0236099 -2.13735 0.488107)
(0.305012 -2.2943 0.935756)
(0.310183 -2.24994 0.662661)
(0.0484215 -2.4903 0.693593)
(-0.469217 -1.76279 -0.156566)
(-0.535909 -1.41652 -0.833177)
(-0.340648 -1.1738 -1.48151)
(-0.501449 -1.10235 -1.21146)
(-0.985961 -1.26865 -0.839688)
(-1.48316 -1.05057 0.0562153)
(-1.7207 -0.60577 -0.539551)
(-0.778119 -0.160729 -1.00329)
(-0.545463 0.147831 -1.22112)
(0.314488 -1.26719 -1.72544)
(0.017117 -1.74196 -1.02118)
(0.124531 -1.95388 -0.613402)
(0.400562 -2.16474 -0.254441)
(0.0600109 -1.35599 -0.577626)
(0.238039 -1.23474 -0.772042)
(0.171518 -1.08048 -1.23394)
(-0.627822 -1.07974 -1.02968)
(-0.732896 -0.991531 -1.46794)
(-0.469431 -1.05702 -1.34343)
(-0.373502 -0.607707 -1.42078)
(-0.114925 -0.186523 -1.33751)
(-0.641472 0.332161 -1.92127)
(-0.335894 0.507629 -2.21996)
(-2.25763 -0.466106 2.62862)
(-2.23244 -0.885741 2.63216)
(-2.41121 -0.914148 2.63524)
(-2.34507 -0.806395 2.74803)
(-2.46709 -1.11167 2.66517)
(-2.5468 -0.933376 2.61706)
(-2.53175 -0.676274 2.67675)
(-2.45392 -1.32668 2.80038)
(-2.56843 -1.0418 2.84207)
(-2.7006 -0.980496 2.76522)
(-2.49547 -1.58033 2.65491)
(-2.43282 -1.6746 2.6285)
(-2.62351 -1.35683 2.60172)
(-2.74596 -1.05219 2.59379)
(-2.54438 -1.53203 2.89468)
(-2.74173 -1.41429 2.86876)
(-2.63362 -1.4735 2.98177)
(-2.72906 -1.1204 2.92857)
(-2.7373 -0.937984 2.79191)
(-2.80363 -1.89123 2.37518)
(-2.76638 -1.96394 2.49793)
(-2.68703 -1.85301 2.61743)
(-2.48254 -1.72746 2.69235)
(-2.7676 -1.48092 2.47268)
(-2.97575 -1.206 2.49335)
(-2.61513 -2.30702 2.50469)
(-2.78657 -2.307 2.23523)
(-2.33864 -2.31394 2.62999)
(-2.42199 -1.87693 2.65737)
(-2.70875 -1.47384 2.55088)
(-3.07993 -1.0689 2.23545)
(-2.92672 -0.826849 2.28981)
(-1.9223 -2.799 2.86993)
(-2.15586 -2.55784 2.77898)
(-2.34818 -2.32723 2.89888)
(-2.4122 -2.52724 2.47794)
(-2.51087 -2.1256 2.35634)
(-2.91704 -1.70394 2.08795)
(-2.9638 -1.37871 2.37245)
(-3.09898 -0.802786 2.5373)
(-1.72232 -3.19102 2.85431)
(-2.0604 -2.90742 2.71368)
(-1.85664 -3.1263 2.48615)
(-2.37012 -2.44856 2.51586)
(-2.40342 -1.95781 2.57933)
(-2.60309 -1.70445 2.4727)
(-2.68952 -1.61188 2.59815)
(-2.95345 -1.37667 2.44119)
(-2.9191 -1.33634 2.24385)
(-1.40536 -3.02926 2.81746)
(-1.6703 -2.97846 2.749)
(-2.00206 -2.76459 2.6107)
(-1.78125 -2.91408 2.44691)
(-2.09923 -2.25407 2.36928)
(-2.34879 -2.13832 2.22955)
(-2.85575 -2.00108 1.97749)
(-3.00534 -1.69477 2.06659)
(-2.81734 -1.35649 1.87519)
(-2.48888 -1.28913 1.52013)
(-0.684587 -2.8458 2.63292)
(-1.04287 -2.88749 2.55305)
(-1.04838 -2.94167 2.42024)
(-1.81041 -2.68319 2.20465)
(-2.21442 -2.10941 1.7426)
(-2.60012 -2.04501 1.6207)
(-2.32597 -1.79226 1.70196)
(-2.27825 -1.3639 1.72977)
(-1.5425 -1.50837 1.85911)
(-1.48895 -1.28486 1.67013)
(-1.80646 -0.841486 0.732104)
(-0.493094 -2.89438 2.01401)
(-0.868078 -3.10177 1.22898)
(-1.27517 -2.98849 1.6049)
(-1.2797 -3.00882 1.46512)
(-1.46601 -2.06226 1.08901)
(-1.1395 -1.78936 1.48173)
(-1.36454 -1.58573 1.67237)
(-1.14688 -1.59285 1.5768)
(-1.15654 -1.34277 1.67132)
(-1.26294 -1.43658 0.61353)
(-2.05423 -1.03624 0.453772)
(-2.56387 -0.285209 -0.0777006)
(0.0150427 -2.95667 1.38078)
(-0.546218 -2.55175 1.53626)
(-0.864173 -2.68538 1.10945)
(-0.957026 -2.20406 1.78466)
(-0.856183 -1.48633 0.261333)
(-0.716525 -1.18195 -0.798118)
(-0.743143 -1.89426 0.0928886)
(-0.592567 -1.74854 0.435462)
(-1.08173 -1.66774 -0.392621)
(-1.50471 -1.5526 0.0782894)
(-2.22911 -0.679104 -0.0664852)
(-1.90936 -0.0452118 -0.661084)
(-0.993311 -0.190759 0.15113)
(0.0223314 -2.15581 0.493158)
(0.35212 -2.3203 0.993878)
(0.351431 -2.23062 0.725081)
(0.0489592 -2.46833 0.789621)
(-0.612592 -1.70771 -0.472098)
(-0.528888 -1.47261 -0.807934)
(-0.369947 -1.2194 -1.4499)
(-0.560322 -1.08482 -1.26103)
(-0.980884 -1.27289 -0.831078)
(-1.46555 -1.03068 0.0674863)
(-1.73369 -0.60088 -0.498228)
(-0.802058 -0.202912 -0.90898)
(-0.589615 0.0995917 -1.12644)
(-1.02362 0.8633 -1.96005)
(0.31692 -1.26651 -1.72204)
(0.0358959 -1.76039 -1.00836)
(0.140833 -1.94681 -0.612208)
(0.383764 -2.15881 -0.223439)
(0.024978 -1.34375 -0.608013)
(0.212622 -1.24841 -0.754975)
(0.186076 -1.05098 -1.23442)
(-0.635282 -1.07356 -1.0294)
(-0.737397 -1.00768 -1.45961)
(-0.434932 -1.09373 -1.33382)
(-0.338559 -0.644839 -1.46861)
(-0.113036 -0.196941 -1.29092)
(-0.655514 0.320135 -1.89686)
(-0.333568 0.528025 -2.19205)
(-0.322733 0.766394 -2.4253)
(-2.09257 -0.573795 2.55571)
(-2.17976 -0.689597 2.66153)
(-2.24685 -0.457877 2.64373)
(-2.21444 -0.933582 2.59227)
(-2.29411 -0.623172 2.65045)
(-2.38554 -0.948942 2.60034)
(-2.33515 -0.819206 2.71125)
(-2.33451 -0.641966 2.74366)
(-2.39277 -1.1865 2.65483)
(-2.51141 -1.05172 2.57185)
(-2.48724 -0.785743 2.69193)
(-2.51099 -0.539265 2.72465)
(-2.2857 -1.40989 2.79002)
(-2.40378 -1.21291 2.746)
(-2.50249 -1.16215 2.65456)
(-2.57089 -0.707007 2.81035)
(-2.45166 -1.58206 2.6547)
(-2.36803 -1.58202 2.66758)
(-2.46973 -1.43007 2.65688)
(-2.60581 -1.20936 2.57824)
(-2.72516 -0.936703 2.4952)
(-2.53221 -1.63153 2.64853)
(-2.75312 -1.37055 2.67103)
(-2.6797 -1.47925 2.79391)
(-2.68704 -1.25958 2.71958)
(-2.61715 -1.21866 2.56645)
(-2.70486 -0.626241 2.6721)
(-2.29205 -2.01382 2.656)
(-2.10721 -2.03642 2.8287)
(-2.22464 -2.02396 2.68515)
(-2.35996 -1.72919 2.70385)
(-2.80515 -1.5685 2.31835)
(-2.9786 -1.24823 2.36292)
(-2.99827 -0.814011 2.43912)
(-2.32361 -2.5721 2.4202)
(-2.31277 -2.36151 2.47335)
(-2.48937 -2.27881 2.42219)
(-2.37496 -1.84114 2.67564)
(-2.81764 -1.6131 2.19654)
(-2.91461 -1.35501 2.19145)
(-2.69919 -1.14181 2.24829)
(-3.02334 -0.589874 1.9086)
(-1.90057 -3.00803 2.55042)
(-2.3426 -2.49517 2.4752)
(-2.53527 -2.47596 2.32241)
(-2.71653 -2.15267 2.18072)
(-2.52761 -2.10176 2.13711)
(-2.72194 -1.88913 2.07373)
(-2.80335 -1.49246 2.30774)
(-2.95195 -0.970185 2.50407)
(-2.99247 -0.758242 2.40119)
(-1.59177 -3.25533 2.86223)
(-1.93165 -3.02764 2.69033)
(-1.96753 -2.95574 2.46513)
(-2.03233 -2.58752 2.46771)
(-2.72894 -1.63652 2.21827)
(-2.59393 -1.95894 2.18182)
(-2.70156 -1.44432 2.45881)
(-2.80977 -1.52873 2.47352)
(-2.82208 -1.42436 2.34242)
(-2.84743 -0.853234 2.11672)
(-1.29715 -3.09297 2.90248)
(-1.69438 -3.08343 2.64056)
(-1.61607 -2.95162 2.65064)
(-1.82421 -2.75382 2.44411)
(-2.05839 -2.35284 2.11755)
(-2.43306 -2.17269 2.03298)
(-2.78916 -1.83701 2.18957)
(-3.04309 -1.63504 1.98829)
(-2.73001 -1.5673 1.94334)
(-2.40348 -1.36498 1.5836)
(-2.0294 -0.968394 1.62097)
(-0.532697 -2.96539 2.72734)
(-0.798374 -3.04972 2.4554)
(-1.05675 -2.997 2.34708)
(-1.51685 -2.85023 2.29318)
(-2.27103 -2.15677 1.78402)
(-2.5316 -2.2285 1.28263)
(-2.37488 -1.8178 1.55999)
(-2.02176 -1.42203 1.82705)
(-1.52097 -1.51549 1.83342)
(-1.50498 -1.24573 1.68178)
(-1.60474 -0.80407 1.40802)
(-2.37712 -0.486885 0.730237)
(-0.0977943 -3.15609 2.05792)
(-0.268585 -3.2572 1.54075)
(-1.16648 -3.06705 1.64615)
(-1.41583 -3.01735 1.46033)
(-1.40212 -2.10763 1.30508)
(-1.08873 -1.667 1.5325)
(-1.18597 -1.62621 1.68269)
(-0.953811 -1.53611 1.73931)
(-1.21993 -1.38229 1.5335)
(-1.36872 -1.42942 0.468019)
(-2.15146 -0.936689 0.14038)
(-2.68587 -0.567297 -0.314297)
(-2.60129 0.0617982 -0.634304)
(0.138391 -2.96696 1.48821)
(-0.71453 -2.74027 1.5109)
(-0.727308 -2.65116 1.25109)
(-0.891521 -2.29134 1.70564)
(-0.846887 -1.60529 0.435445)
(-0.684916 -1.41979 -0.584049)
(-0.681197 -1.87712 -0.1808)
(-0.639953 -1.73546 0.230638)
(-1.12987 -1.60543 -0.5663)
(-1.51943 -1.53515 0.060983)
(-2.21945 -0.628428 -0.0435836)
(-1.802 -0.237912 -0.289403)
(-0.942306 -0.340316 0.335341)
(-1.08087 0.808064 -1.13052)
(0.0780134 -2.18147 0.513263)
(0.437235 -2.31737 1.07963)
(0.360533 -2.21558 0.771878)
(0.057544 -2.44534 0.844797)
(-0.331929 -1.94072 0.0324264)
(-0.479295 -1.54675 -0.742703)
(-0.375008 -1.25328 -1.41299)
(-0.664533 -0.959228 -1.33978)
(-0.943478 -1.2719 -0.839828)
(-1.44327 -1.06272 0.0762133)
(-1.73141 -0.574809 -0.458299)
(-0.718677 -0.322176 -0.843659)
(-0.627242 0.06921 -1.07536)
(-1.04283 0.810036 -1.9096)
(-0.736773 0.910247 -2.39849)
(0.317092 -1.26895 -1.71914)
(0.0663795 -1.78546 -0.984405)
(0.137434 -1.9315 -0.639954)
(0.363267 -2.17812 -0.213822)
(-0.00866467 -1.34215 -0.628363)
(0.200375 -1.23639 -0.752776)
(0.189523 -1.07418 -1.20585)
(-0.646856 -1.06506 -1.02861)
(-0.738265 -1.00287 -1.45195)
(-0.424646 -1.0963 -1.31671)
(-0.289714 -0.691173 -1.51852)
(-0.104274 -0.218414 -1.24651)
(-0.671685 0.312474 -1.87201)
(-0.333281 0.548267 -2.2059)
(-0.324692 0.786155 -2.42267)
(-0.153687 1.15331 -2.43539)
(-2.27412 -0.580525 2.29431)
(-2.13301 -0.631013 2.51461)
(-2.18555 -0.245509 2.53785)
(-2.11345 -0.766556 2.62304)
(-2.33401 -0.545634 2.4836)
(-2.27806 -0.469725 2.52497)
(-2.16905 -0.916699 2.53656)
(-2.25532 -0.721011 2.57099)
(-2.42434 -0.502287 2.54584)
(-2.26145 -1.10586 2.60745)
(-2.20276 -0.955818 2.67038)
(-2.28934 -0.708615 2.65843)
(-2.32718 -0.42737 2.70377)
(-2.36223 -1.29184 2.58045)
(-2.38174 -1.19197 2.58074)
(-2.31566 -0.975689 2.71315)
(-2.45013 -0.665825 2.69352)
(-2.47449 -0.454115 2.74086)
(-2.25059 -1.47466 2.73784)
(-2.23232 -1.38491 2.74265)
(-2.3794 -1.24304 2.62727)
(-2.45956 -0.936095 2.69608)
(-2.59598 -0.531324 2.69448)
(-2.43931 -1.6425 2.72381)
(-2.48288 -1.52189 2.70071)
(-2.41714 -1.54386 2.7181)
(-2.60037 -1.21999 2.58664)
(-2.47545 -1.06651 2.59942)
(-2.5188 -0.813085 2.52599)
(-2.4 -1.76426 2.54734)
(-2.40709 -1.7274 2.62175)
(-2.54101 -1.65951 2.63013)
(-2.73196 -1.34188 2.47647)
(-2.5984 -1.2553 2.49023)
(-2.56078 -0.70641 2.68198)
(-2.68682 -0.392258 2.62592)
(-2.3156 -1.95239 2.73081)
(-2.29888 -1.88133 2.75093)
(-1.99727 -2.03347 2.80886)
(-2.24425 -1.85142 2.63797)
(-2.85268 -1.35982 2.26715)
(-2.94962 -0.947229 2.36808)
(-2.89408 -0.963406 2.35999)
(-2.9323 -0.612319 2.13485)
(-2.11222 -2.63455 2.32652)
(-2.31933 -2.42735 2.28292)
(-2.28445 -2.1722 2.59778)
(-2.40999 -1.92798 2.50201)
(-2.56716 -1.73807 2.16852)
(-2.84557 -1.3227 2.10529)
(-2.64141 -1.27355 2.24548)
(-2.85414 -0.788767 1.99658)
(-2.86055 -0.614434 2.17784)
(-1.85343 -2.80285 2.60081)
(-1.97743 -2.65862 2.6312)
(-2.13638 -2.56953 2.39918)
(-2.47187 -2.39066 1.95367)
(-2.39687 -2.10166 2.01142)
(-2.57348 -1.89922 2.14211)
(-2.54166 -1.77739 2.29749)
(-2.6733 -1.22866 2.49903)
(-2.79588 -0.793262 2.42781)
(-2.71003 -0.767531 2.40961)
(-1.41033 -3.24791 2.85813)
(-1.74421 -3.18516 2.71108)
(-2.16655 -2.85962 2.47896)
(-2.03381 -2.68431 2.19418)
(-2.36187 -2.00562 2.13228)
(-2.45787 -1.75589 2.36234)
(-2.64596 -1.58815 2.31078)
(-2.80665 -1.47185 2.31303)
(-2.76609 -1.46487 2.36948)
(-2.72939 -0.999978 2.15338)
(-2.85286 -0.928025 1.67302)
(-1.05362 -3.42163 2.71076)
(-1.72915 -3.0696 2.52989)
(-1.64292 -3.18373 2.26378)
(-1.77704 -2.80699 2.45498)
(-2.0536 -2.38478 2.00728)
(-2.55714 -1.85147 1.99014)
(-3.05917 -1.87343 1.69446)
(-3.15887 -1.43885 1.67414)
(-2.80477 -1.44394 1.81856)
(-2.23524 -1.20571 2.0031)
(-1.94571 -0.935737 1.60608)
(-1.96544 -0.754047 1.77432)
(-0.248603 -3.19395 2.71184)
(-0.633248 -3.10572 2.47333)
(-0.966472 -3.0839 2.37261)
(-1.53139 -2.92184 2.23177)
(-2.20385 -2.45652 1.62491)
(-2.33918 -2.22602 1.17636)
(-2.14281 -1.81844 1.64086)
(-1.87721 -1.48243 1.7876)
(-1.42551 -1.50175 1.82792)
(-1.5289 -1.23968 1.63419)
(-2.00362 -0.817383 0.814727)
(-2.3638 -0.471979 0.754611)
(-2.88282 -0.449391 1.17057)
(0.0465747 -3.21765 2.00141)
(-0.836991 -3.37097 1.42753)
(-1.09948 -3.10176 1.74767)
(-1.21986 -3.0762 1.52743)
(-1.34846 -2.21133 1.4291)
(-0.972834 -1.80278 1.44241)
(-1.12418 -1.63758 1.62981)
(-1.04463 -1.59499 1.25457)
(-1.3218 -1.40129 1.3279)
(-1.52025 -1.34845 0.333186)
(-2.15902 -0.965032 0.0712191)
(-2.74061 -0.526949 0.258415)
(-2.47786 0.057898 -0.459886)
(-1.65968 0.262304 0.0625281)
(0.165635 -3.0541 1.48897)
(-0.213368 -2.96939 1.34639)
(-0.652561 -2.73705 1.23087)
(-0.898105 -2.28403 1.67882)
(-1.21516 -1.4362 0.405918)
(-0.648238 -1.45952 -0.530149)
(-0.667724 -1.82317 -0.340603)
(-0.724535 -1.67307 -0.0770759)
(-1.19596 -1.54153 -0.674223)
(-1.54198 -1.47438 -0.0150303)
(-2.24085 -0.63931 -0.066055)
(-1.6735 -0.273704 -0.258292)
(-0.839853 -0.596269 0.583458)
(-1.13586 0.807765 -1.13394)
(-1.29877 1.1329 -1.58295)
(0.133807 -2.20312 0.55579)
(0.450723 -2.33406 1.15811)
(0.377731 -2.21106 0.743572)
(0.0688273 -2.43091 0.874463)
(-0.475714 -1.92774 -0.429259)
(-0.486266 -1.56741 -0.740398)
(-0.374342 -1.29367 -1.3462)
(-0.704887 -0.868525 -1.385)
(-0.924585 -1.26252 -0.846606)
(-1.45532 -0.98193 -0.0197621)
(-1.72029 -0.571847 -0.4203)
(-0.710871 -0.430053 -0.743004)
(-0.701181 0.0430039 -1.0327)
(-1.05091 0.752343 -1.84632)
(-0.727669 0.910533 -2.38589)
(-0.621301 1.05252 -2.43155)
(0.323774 -1.26494 -1.71964)
(0.080257 -1.80186 -0.97134)
(0.124602 -1.93056 -0.64912)
(0.364794 -2.14487 -0.206587)
(-0.00202109 -1.34639 -0.62261)
(0.236069 -1.2356 -0.729996)
(0.172349 -1.08104 -1.19657)
(-0.65132 -1.05834 -1.02448)
(-0.731442 -1.0123 -1.44123)
(-0.420121 -1.09562 -1.32348)
(-0.216914 -0.771481 -1.54759)
(-0.0896576 -0.250752 -1.20424)
(-0.672016 0.268733 -1.86215)
(-0.343826 0.576628 -2.25038)
(-0.319296 0.791236 -2.4752)
(-0.167093 1.1565 -2.46884)
(0.390832 1.56652 -2.19297)
(-2.16935 -0.500709 2.01358)
(-2.18749 -0.761034 2.32025)
(-2.23496 -0.496182 2.31134)
(-2.04395 -0.624603 2.53464)
(-2.17374 -0.309782 2.51127)
(-2.11927 -0.376874 2.56144)
(-1.99465 -0.911058 2.58232)
(-2.0873 -0.668769 2.56285)
(-2.37614 -0.531072 2.33361)
(-2.156 -0.221017 2.61393)
(-2.11233 -1.02469 2.54501)
(-2.14825 -0.81449 2.57281)
(-2.2871 -0.81359 2.43129)
(-2.25769 -0.432666 2.61953)
(-2.18477 -1.24177 2.60835)
(-2.13117 -1.11201 2.65858)
(-2.21847 -1.00357 2.57846)
(-2.28053 -0.589832 2.63547)
(-2.29414 -0.450201 2.68328)
(-2.23142 -1.38233 2.58071)
(-2.3032 -1.21018 2.6217)
(-2.19787 -1.13024 2.75313)
(-2.28495 -0.974197 2.73897)
(-2.47068 -0.588592 2.7132)
(-2.44624 -0.443585 2.72625)
(-2.25301 -1.43097 2.73598)
(-2.25171 -1.38773 2.69528)
(-2.40074 -1.16039 2.64461)
(-2.42792 -1.05539 2.67564)
(-2.46657 -0.898679 2.65297)
(-2.56833 -0.526523 2.53482)
(-2.533 -1.43556 2.72493)