/*--------------------------------*- C++ -*----------------------------------*\
  =========                 |
  \\      /  F ield         | OpenFOAM: The Open Source CFD Toolbox
   \\    /   O peration     | Website:  https://openfoam.org
    \\  /    A nd           | Version:  7
     \\/     M anipulation  |
\*---------------------------------------------------------------------------*/
FoamFile
{
    version     2.0;
    format      ascii;
    class       volVectorField;
    location    "5.5";
    object      U_0;
}
// * * * * * * * * * * * * * * * * * * * * * * * * * * * * * * * * * * * * * //

dimensions      [0 1 -1 0 0 0 0];

internalField   nonuniform List<vector> 
18630
(
(0.333845 -1.23252 -1.25997)
(-0.044211 -1.68639 -0.556328)
(0.314874 -1.20341 -1.36454)
(-0.0969511 -1.65599 -0.999611)
(-1.12723 -1.78895 -0.635468)
(-0.0160912 -1.82264 -0.284162)
(-0.309913 -1.78149 -0.54439)
(0.301677 -1.14186 -1.56619)
(-0.0984715 -1.68989 -0.969256)
(0.108476 -1.89268 -0.598909)
(-1.80186 -1.1489 0.21179)
(-1.01796 -1.91137 -0.48638)
(-1.48327 -1.81214 1.05433)
(0.0281723 -1.99633 0.0591285)
(-0.267642 -1.78957 -0.541745)
(-0.0926937 -2.28972 0.483519)
(0.278417 -1.12374 -1.70553)
(-0.0916387 -1.69352 -0.958633)
(0.127389 -1.89889 -0.585198)
(0.353151 -2.0933 -0.173711)
(-2.05493 -1.70502 1.48748)
(-1.88762 -1.14021 -0.0319021)
(-1.81577 -2.47662 0.564492)
(-0.798845 -2.11708 -0.162227)
(-1.36067 -1.81839 1.04305)
(-1.47294 -2.23296 1.01621)
(0.0322511 -2.08978 0.354421)
(-0.217248 -1.81145 -0.485091)
(-0.0673206 -2.29825 0.517817)
(-0.171467 -2.18406 0.189051)
(0.270101 -1.13361 -1.78496)
(-0.0634719 -1.68971 -0.942004)
(0.117863 -1.91489 -0.535428)
(0.373005 -2.12185 -0.211731)
(0.104396 -1.42062 -0.696397)
(-2.75011 -1.67893 2.32787)
(-1.88798 -1.91877 1.77579)
(-1.54295 -2.61258 2.30542)
(-1.58871 -1.57258 0.348594)
(-1.85197 -2.37964 0.527171)
(-1.55161 -2.33357 1.54816)
(-0.592822 -2.36143 0.123179)
(-1.26191 -1.89481 1.01245)
(-1.42949 -2.26294 1.11277)
(-0.842316 -1.86791 0.848849)
(0.0359688 -2.12884 0.501198)
(-0.19019 -1.82455 -0.412557)
(-0.00780847 -2.31863 0.490245)
(-0.142998 -2.30718 0.0901392)
(-0.38158 -1.49849 -0.473792)
(0.267645 -1.16014 -1.80768)
(-0.0508909 -1.69441 -0.908183)
(0.13567 -1.90945 -0.543658)
(0.388135 -2.14454 -0.201031)
(0.100665 -1.42242 -0.637656)
(0.213432 -1.25812 -0.980834)
(-2.94981 -2.00591 2.77456)
(-2.58554 -1.95384 2.39053)
(-2.45158 -2.2461 2.47577)
(-1.7276 -2.20628 1.88706)
(-1.47844 -2.43752 2.68333)
(-1.22743 -2.68562 1.75859)
(-1.81403 -1.66911 0.32753)
(-1.71552 -2.29421 0.587667)
(-1.4972 -2.48195 1.52999)
(-1.44931 -2.0256 0.377815)
(-0.4802 -2.47254 0.446216)
(-1.2358 -1.94206 0.970658)
(-1.3998 -2.39437 0.928781)
(-0.866343 -1.81321 1.33503)
(-0.388749 -1.28635 0.0435794)
(0.0340908 -2.17347 0.541448)
(-0.15651 -1.84719 -0.297686)
(0.0379535 -2.3224 0.500006)
(-0.113936 -2.37863 0.212584)
(-0.3958 -1.53129 -0.361758)
(-0.448871 -1.20074 -1.09028)
(0.269821 -1.17686 -1.81922)
(-0.0341944 -1.73064 -0.796685)
(0.116894 -1.90089 -0.576885)
(0.396783 -2.15098 -0.236613)
(0.0973071 -1.41905 -0.594007)
(0.218192 -1.25697 -0.958959)
(0.153082 -1.12321 -1.30694)
(-2.79582 -1.67943 3.10251)
(-2.79105 -2.14694 3.00261)
(-3.25021 -1.33606 2.61884)
(-2.34188 -2.16518 2.55024)
(-2.2036 -2.74096 2.58815)
(-2.91958 -1.3328 1.44085)
(-1.56305 -2.24508 1.97785)
(-1.58734 -2.26451 2.75841)
(-1.19389 -2.78742 2.08702)
(-2.12291 -1.18706 0.64276)
(-1.52292 -1.93911 0.738068)
(-1.74088 -2.26735 0.564366)
(-1.47989 -2.80472 1.19698)
(-1.52773 -2.11788 0.705337)
(-1.78829 -1.53817 0.580795)
(-0.379883 -2.64162 0.557992)
(-1.11193 -2.02742 0.945166)
(-1.3609 -2.52431 0.764015)
(-0.906121 -1.98218 1.36055)
(-0.404394 -1.28917 0.146589)
(-0.768633 -1.27612 -0.357419)
(-0.00483453 -2.1777 0.61093)
(-0.121007 -1.8874 -0.128395)
(0.0684726 -2.30465 0.534616)
(-0.0992489 -2.42484 0.283384)
(-0.431525 -1.55392 -0.292426)
(-0.463554 -1.22847 -1.0789)
(-0.233945 -1.09915 -1.56039)
(0.275026 -1.20018 -1.81495)
(-0.023815 -1.72291 -0.8595)
(0.125986 -1.88704 -0.593094)
(0.400912 -2.1532 -0.258981)
(0.0903119 -1.40593 -0.576593)
(0.214332 -1.25066 -0.937573)
(0.157659 -1.11668 -1.30194)
(-0.5855 -1.11129 -0.924275)
(-3.04099 -1.58472 3.07475)
(-2.71547 -1.85997 3.2408)
(-3.0162 -1.95321 3.01425)
(-2.56786 -2.3485 3.11707)
(-2.95734 -2.02482 2.94534)
(-2.62053 -1.7489 2.98636)
(-2.16875 -2.1438 2.65858)
(-2.03797 -2.89447 2.63615)
(-2.87275 -1.28004 2.27238)
(-1.75914 -2.16618 2.12951)
(-1.50357 -2.22514 2.0635)
(-1.60012 -2.21073 2.69969)
(-1.20436 -2.91504 2.3833)
(-2.00573 -1.54296 0.873375)
(-2.08399 -1.87748 1.56956)
(-1.39587 -2.09734 1.05774)
(-1.64813 -2.28739 0.579628)
(-1.49122 -2.85702 1.30692)
(-1.4953 -2.52377 0.354087)
(-1.79275 -1.56271 0.49208)
(-2.02984 -1.40875 1.17083)
(-0.250042 -2.80011 0.685653)
(-1.03317 -2.1415 0.921556)
(-1.31819 -2.56508 0.8943)
(-0.77489 -2.16105 1.41479)
(-0.47619 -1.30066 0.174049)
(-0.715921 -1.31817 -0.377635)
(-1.26711 -1.74567 0.629201)
(-0.0107157 -2.16585 0.635107)
(-0.0526926 -1.97842 0.159461)
(0.106363 -2.27788 0.57786)
(-0.0914461 -2.46211 0.315854)
(-0.455436 -1.57489 -0.246613)
(-0.498476 -1.2441 -1.07369)
(-0.250045 -1.09375 -1.57463)
(-0.386805 -1.28032 -0.804276)
(0.27654 -1.22168 -1.80773)
(0.000484528 -1.70086 -0.949647)
(0.110779 -1.87998 -0.610262)
(0.405536 -2.15668 -0.257627)
(0.0770052 -1.3853 -0.5777)
(0.214375 -1.25349 -0.893585)
(0.161129 -1.1085 -1.29389)
(-0.587719 -1.0834 -0.95973)
(-0.71054 -0.930058 -1.51409)
(-3.03328 -1.84831 2.69129)
(-2.92513 -1.96883 3.09233)
(-2.9987 -1.63689 3.17532)
(-2.65022 -1.94246 3.26484)
(-2.93444 -2.11288 3.02269)
(-2.67431 -1.92533 3.10685)
(-2.51624 -2.13154 3.1862)
(-2.80273 -2.22214 2.95411)
(-2.64451 -2.0627 3.03101)
(-2.83 -1.65373 3.002)
(-2.05705 -2.19485 2.60508)
(-1.98058 -2.79834 2.6405)
(-2.53573 -1.85868 2.66252)
(-1.74875 -2.40051 2.32348)
(-2.03157 -2.46116 2.08449)
(-1.37453 -2.2322 2.24402)
(-1.62148 -2.20521 2.58762)
(-1.14656 -2.84423 2.67904)
(-2.03713 -1.6906 1.30325)
(-2.13684 -1.90481 1.54221)
(-2.5902 -1.99465 1.29977)
(-1.41345 -2.21511 1.34054)
(-1.52111 -2.35694 0.603238)
(-1.51061 -2.83052 1.45559)
(-1.15857 -2.92102 0.375108)
(-1.78583 -1.60797 0.46166)
(-1.55194 -1.71254 1.40862)
(-1.82646 -1.46096 1.66606)
(-0.147301 -2.78264 0.983981)
(-0.916212 -2.26237 0.9348)
(-1.34051 -2.53278 1.01341)
(-0.832419 -2.1436 1.61986)
(-0.529735 -1.30007 0.209316)
(-0.720513 -1.30545 -0.401383)
(-1.17258 -1.7924 0.63289)
(-0.639216 -1.58187 0.651112)
(-0.032964 -2.16449 0.632285)
(0.0426217 -2.07254 0.406006)
(0.149087 -2.25067 0.600277)
(-0.0585345 -2.51174 0.335713)
(-0.495006 -1.58361 -0.257353)
(-0.511393 -1.28062 -0.992009)
(-0.269781 -1.07078 -1.59583)
(-0.451372 -1.25371 -0.855039)
(-1.07345 -1.00727 -1.22318)
(0.276608 -1.23339 -1.79297)
(0.00357019 -1.69719 -0.996807)
(0.114936 -1.90167 -0.593841)
(0.391083 -2.18214 -0.275953)
(0.12022 -1.41249 -0.486705)
(0.216019 -1.25022 -0.855333)
(0.16049 -1.09558 -1.28781)
(-0.603611 -1.07444 -0.976058)
(-0.711456 -0.933212 -1.52814)
(-0.492001 -1.06812 -1.499)
(-2.80468 -1.70206 2.79542)
(-2.98597 -1.84337 2.77324)
(-2.94654 -1.8404 2.85305)
(-2.93159 -2.02832 3.05333)
(-3.11473 -1.81865 3.01319)
(-3.0269 -1.92993 2.75037)
(-2.71324 -1.9496 3.18428)
(-2.97432 -2.16283 2.74071)
(-2.64886 -2.28089 2.81818)
(-2.81738 -2.07502 2.8759)
(-2.2581 -2.38744 3.10569)
(-2.50829 -2.51876 2.87725)
(-2.6471 -2.5152 2.84994)
(-2.62201 -2.20817 2.91293)
(-2.65464 -1.52044 3.04001)
(-1.9891 -2.1924 2.74587)
(-1.91736 -2.67399 2.6899)
(-2.17608 -2.47565 2.7491)
(-1.90001 -2.49336 2.50026)
(-2.10291 -2.44619 2.22468)
(-2.78422 -1.73977 2.24302)
(-1.18281 -2.23151 2.55643)
(-1.47929 -2.39033 2.48615)
(-1.19721 -2.80157 2.67992)
(-2.0744 -1.70716 1.85947)
(-2.05555 -2.04309 1.57969)
(-2.62505 -1.94284 1.44546)
(-2.48951 -1.88526 1.54455)
(-0.950638 -2.52454 1.4294)
(-1.48314 -2.42562 0.771722)
(-1.49315 -2.84903 1.50802)
(-1.19099 -3.00051 0.749564)
(-1.66825 -1.73179 0.599216)
(-1.61399 -1.76476 1.32454)
(-1.73262 -1.46158 1.77598)
(-1.50421 -1.55857 1.53248)
(-0.109292 -2.81596 1.05259)
(-0.84964 -2.27993 1.10496)
(-1.24863 -2.51798 1.11287)
(-0.902439 -2.10308 1.79819)
(-0.574262 -1.29135 0.23126)
(-0.678864 -1.35583 -0.231459)
(-1.06154 -1.855 0.567309)
(-0.484024 -1.65456 0.824828)
(-0.938039 -1.69697 0.384985)
(-0.0491258 -2.14286 0.600668)
(0.112077 -2.1627 0.564446)
(0.170395 -2.24755 0.606623)
(-0.0038115 -2.55379 0.362432)
(-0.496325 -1.62481 -0.208241)
(-0.53043 -1.35161 -0.848654)
(-0.301323 -1.07314 -1.60182)
(-0.42946 -1.18232 -0.992737)
(-1.06515 -1.04943 -1.15154)
(-1.45405 -1.23112 0.24574)
(0.287275 -1.25132 -1.75571)
(-0.0125142 -1.70064 -1.02829)
(0.113604 -1.91647 -0.576434)
(0.393997 -2.17228 -0.270392)
(0.0633625 -1.39358 -0.541978)
(0.207707 -1.24055 -0.835825)
(0.163589 -1.08623 -1.27577)
(-0.626413 -1.07843 -1.00484)
(-0.725285 -0.946978 -1.51411)
(-0.489947 -1.09345 -1.44171)
(-0.403017 -0.583251 -1.3346)
(-2.95309 -1.17055 2.78768)
(-2.7164 -1.68863 2.76059)
(-2.68746 -1.46334 2.87057)
(-2.9623 -1.73136 2.64714)
(-3.10972 -1.71632 2.67248)
(-3.2641 -1.58063 2.50935)
(-2.97538 -1.90971 2.90725)
(-3.02243 -1.83235 2.80581)
(-2.97331 -2.07728 2.53828)
(-2.90572 -1.58616 2.78988)
(-2.60292 -2.16988 3.14049)
(-2.7381 -2.14613 2.81551)
(-2.59297 -2.28375 2.79437)
(-2.71587 -2.24443 2.83273)
(-2.70077 -2.14341 2.89508)
(-2.20803 -2.50177 3.0431)
(-2.46531 -2.4986 2.88387)
(-2.67875 -2.64049 2.86119)
(-2.72457 -1.98601 2.89201)
(-2.66746 -1.78924 2.80135)
(-2.89458 -1.53336 2.72367)
(-1.88005 -2.52842 2.73092)
(-1.95209 -2.66804 2.71833)
(-2.03537 -2.68193 2.70731)
(-1.73433 -2.61901 2.74665)
(-2.10112 -2.38611 2.29137)
(-2.5399 -1.99843 2.20543)
(-2.9887 -1.73095 1.95688)
(-0.993248 -2.6695 2.44781)
(-1.59524 -2.17562 2.69252)
(-1.18373 -2.81762 2.62542)
(-2.0781 -1.93209 2.04797)
(-2.15505 -1.97692 1.67241)
(-2.56652 -2.04786 1.57153)
(-2.42155 -1.96728 1.66947)
(-2.68012 -0.823601 1.01503)
(-0.757539 -2.64912 1.63174)
(-1.21758 -2.60871 0.976281)
(-1.52245 -2.76129 1.65067)
(-1.05893 -3.12195 0.991624)
(-1.61461 -1.85447 0.669802)
(-1.57189 -1.73419 1.26475)
(-1.73556 -1.44631 1.74711)
(-1.32328 -1.49794 1.71778)
(-1.04897 -1.30459 1.74244)
(-0.157759 -2.81615 1.10013)
(-0.677817 -2.50145 0.98166)
(-1.20336 -2.51489 1.16223)
(-1.06754 -1.97775 1.85543)
(-0.648723 -1.30273 0.24868)
(-0.659456 -1.36564 -0.177467)
(-0.96741 -1.87453 0.509191)
(-0.567552 -1.74709 0.670531)
(-0.940285 -1.75616 0.384222)
(-1.4005 -1.56908 0.188201)
(-0.0617747 -2.12219 0.538872)
(0.233129 -2.24716 0.608328)
(0.242935 -2.2633 0.635782)
(0.020339 -2.55524 0.435732)
(-0.520782 -1.63923 -0.31257)
(-0.551153 -1.34928 -0.856852)
(-0.324078 -1.11246 -1.53519)
(-0.492671 -1.16182 -1.10423)
(-1.05821 -1.13151 -1.01552)
(-1.45173 -1.19233 0.211236)
(-1.6548 -0.591521 -0.676455)
(0.300517 -1.24817 -1.73339)
(-0.00506455 -1.7081 -1.04545)
(0.107301 -1.94026 -0.591207)
(0.414419 -2.15491 -0.258026)
(0.0538117 -1.37822 -0.557117)
(0.221436 -1.2479 -0.792169)
(0.17916 -1.09541 -1.24803)
(-0.627902 -1.07582 -1.01846)
(-0.735191 -0.965987 -1.49214)
(-0.462998 -1.09378 -1.41277)
(-0.397384 -0.579085 -1.35807)
(-0.11353 -0.199473 -1.41619)
(-2.58298 -0.861607 2.67386)
(-2.65603 -1.16664 2.78411)
(-2.72907 -1.44134 2.67517)
(-2.95358 -1.22244 2.64352)
(-2.55378 -1.65985 2.84356)
(-2.4003 -1.67665 2.8984)
(-2.56037 -1.52293 2.94279)
(-2.88901 -1.88775 2.49761)
(-3.29075 -1.42124 2.32842)
(-3.11517 -1.54773 2.41774)
(-2.88975 -1.73851 2.49454)
(-2.80839 -2.26361 2.68941)
(-2.85156 -2.02136 2.56447)
(-2.61495 -2.14482 2.54092)
(-2.74847 -1.58962 2.77291)
(-3.08178 -0.859546 2.72652)
(-2.39807 -2.49112 3.05622)
(-2.64304 -2.21934 2.88015)
(-2.53966 -2.25208 2.88364)
(-2.41708 -2.39286 2.84692)
(-2.54946 -2.38884 2.57659)
(-3.02367 -1.17117 2.74855)
(-2.12269 -2.69677 3.00509)
(-2.11969 -2.85594 2.81719)
(-2.29996 -3.0057 2.70889)
(-2.58835 -2.06773 2.92347)
(-2.43271 -1.83166 2.86988)
(-2.98287 -1.05585 2.62079)
(-2.81169 -1.38694 2.82474)
(-1.56115 -2.8947 2.72642)
(-1.76266 -2.93821 2.66147)
(-1.93628 -2.79264 2.67229)
(-1.85888 -2.69015 2.5853)
(-2.00154 -2.45018 2.31319)
(-2.37992 -2.15751 2.24007)
(-3.04162 -1.62861 2.06927)
(-3.14179 -1.35684 1.86987)
(-0.698068 -2.83193 2.47486)
(-1.51103 -2.52977 2.52832)
(-1.28593 -2.71089 2.63829)
(-1.82826 -2.28361 2.21404)
(-2.19787 -2.10346 1.57794)
(-2.68824 -1.95672 1.51824)
(-2.44863 -1.91189 1.68812)
(-2.43562 -1.20398 1.45905)
(-1.70032 -1.48128 1.63013)
(-0.778127 -2.78883 1.56823)
(-1.01747 -2.8259 1.12151)
(-1.4554 -2.79205 1.65938)
(-1.37005 -2.88641 1.27362)
(-1.53308 -1.99273 0.727798)
(-1.32094 -1.76361 1.39775)
(-1.6765 -1.38684 1.6996)
(-1.31962 -1.54316 1.6491)
(-1.08291 -1.34464 1.71885)
(-1.20369 -1.4415 0.666364)
(-0.13815 -2.76137 1.24918)
(-0.820037 -2.37465 1.38717)
(-1.03722 -2.59405 1.14206)
(-1.01254 -2.01687 1.85289)
(-0.731629 -1.35099 0.257763)
(-0.7159 -1.25404 -0.384476)
(-0.864345 -1.91229 0.295204)
(-0.550447 -1.7369 0.619301)
(-1.00493 -1.76014 0.0962183)
(-1.39838 -1.564 0.165186)
(-2.05436 -0.591808 -0.168099)
(-0.0461988 -2.12598 0.482022)
(0.314612 -2.3318 0.674575)
(0.269153 -2.26261 0.643741)
(0.0351974 -2.53311 0.557679)
(-0.533566 -1.68168 -0.324712)
(-0.557092 -1.39259 -0.802623)
(-0.333931 -1.16306 -1.47144)
(-0.529306 -1.12062 -1.16714)
(-1.03741 -1.20816 -0.87908)
(-1.43383 -1.17619 0.155583)
(-1.67844 -0.606588 -0.623029)
(-0.8376 -0.103472 -1.04418)
(0.305984 -1.26037 -1.71785)
(-0.00215578 -1.73152 -1.03022)
(0.11026 -1.95185 -0.604611)
(0.373575 -2.18734 -0.245678)
(0.0494327 -1.37893 -0.549988)
(0.199534 -1.23478 -0.792312)
(0.172143 -1.09373 -1.23526)
(-0.633671 -1.07507 -1.02462)
(-0.736774 -0.965442 -1.48758)
(-0.463502 -1.06224 -1.37148)
(-0.38917 -0.589423 -1.38876)
(-0.117087 -0.193706 -1.37235)
(-0.63214 0.335186 -1.93287)
(-2.40363 -0.79094 2.67143)
(-2.50531 -1.01062 2.65433)
(-2.53912 -0.811247 2.65197)
(-2.57354 -1.22787 2.83149)
(-2.6938 -0.831887 2.86377)
(-2.58827 -1.54631 2.66034)
(-2.60124 -1.64233 2.612)
(-2.7651 -1.22115 2.64781)
(-2.53691 -1.65269 2.93939)
(-2.57092 -1.5815 2.92546)
(-2.5453 -1.58278 2.96327)
(-2.81756 -1.10013 2.9721)
(-2.92952 -1.93045 2.42982)
(-2.7409 -1.96659 2.5914)
(-2.93863 -1.60301 2.58044)
(-2.71472 -1.59021 2.60165)
(-2.75771 -1.41203 2.5463)
(-2.80448 -2.33919 2.52879)
(-2.72304 -2.24175 2.53929)
(-2.43457 -2.28189 2.53936)
(-2.58284 -1.84271 2.59416)
(-2.97835 -1.02822 2.57225)
(-3.02054 -0.861762 2.48759)
(-2.41951 -2.62509 2.81772)
(-2.53632 -2.44534 2.77083)
(-2.66675 -2.11441 2.90658)
(-2.63199 -2.26214 2.59669)
(-2.32846 -1.95639 2.81475)
(-2.97321 -1.37688 2.4306)
(-3.01628 -1.41841 2.3237)
(-1.88537 -2.96254 2.98519)
(-2.20476 -2.80026 2.81171)
(-2.47249 -2.58477 2.81553)
(-2.43565 -2.38267 2.6669)
(-2.67333 -1.74879 2.5829)
(-2.46335 -1.81865 2.53115)
(-2.87506 -1.41929 2.61654)
(-2.98577 -1.27591 2.46494)
(-1.4406 -2.99536 2.78806)
(-1.98047 -2.82471 2.66817)
(-1.63973 -3.05092 2.59886)
(-1.69641 -2.84015 2.64987)
(-2.15265 -2.32892 2.27923)
(-2.43319 -2.10053 2.17531)
(-2.79908 -1.97042 2.16201)
(-3.01925 -1.47449 2.01843)
(-2.95595 -1.28683 1.64452)
(-0.723825 -2.81137 2.55172)
(-1.11433 -2.79386 2.53053)
(-1.3327 -2.7774 2.51562)
(-1.86275 -2.4568 2.25518)
(-2.08298 -2.26955 1.62035)
(-2.67072 -1.93791 1.57589)
(-2.61464 -1.46434 1.58616)
(-2.30692 -1.37255 1.7005)
(-1.58339 -1.50731 1.74967)
(-1.49146 -1.26789 1.66523)
(-0.523247 -2.74369 1.83978)
(-0.779215 -3.1112 1.04391)
(-1.36056 -2.88608 1.63835)
(-1.20625 -2.98654 1.31824)
(-1.55938 -1.98216 0.888927)
(-1.24254 -1.73349 1.51742)
(-1.38576 -1.53512 1.75199)
(-1.16405 -1.51692 1.72837)
(-1.11249 -1.36237 1.68985)
(-1.22748 -1.43107 0.634289)
(-2.00464 -0.910925 0.450234)
(0.00701256 -2.87667 1.29991)
(-0.360525 -2.87562 0.718925)
(-0.968496 -2.60935 1.17597)
(-1.0057 -2.15585 1.78152)
(-0.763608 -1.44103 0.220686)
(-0.705603 -1.35238 -0.267191)
(-0.803156 -1.92727 0.20079)
(-0.540281 -1.74477 0.518756)
(-1.04395 -1.73774 -0.140886)
(-1.44349 -1.56359 0.140831)
(-1.97921 -1.10564 -0.391308)
(-1.91493 0.00293439 -0.818027)
(-0.0270989 -2.13045 0.472161)
(0.298411 -2.29505 0.958065)
(0.310418 -2.25214 0.662425)
(0.0386941 -2.49007 0.706456)
(-0.48222 -1.76462 -0.163968)
(-0.539768 -1.4241 -0.825051)
(-0.350099 -1.17601 -1.47293)
(-0.511132 -1.09475 -1.21472)
(-0.993377 -1.26496 -0.839662)
(-1.49654 -1.02609 0.0480484)
(-1.73336 -0.595972 -0.529102)
(-0.784457 -0.16559 -0.991808)
(-0.54951 0.140075 -1.20486)
(0.309726 -1.26802 -1.71004)
(0.0148904 -1.74623 -1.027)
(0.102253 -1.9478 -0.611732)
(0.39376 -2.16098 -0.252341)
(0.0473106 -1.35471 -0.587149)
(0.233588 -1.24026 -0.762206)
(0.170633 -1.08217 -1.22767)
(-0.637758 -1.0797 -1.02444)
(-0.73965 -0.98916 -1.46587)
(-0.475613 -1.05194 -1.33646)
(-0.368807 -0.615782 -1.42829)
(-0.116832 -0.193038 -1.32915)
(-0.645832 0.330539 -1.90873)
(-0.33928 0.5083 -2.21239)
(-2.25629 -0.468159 2.62879)
(-2.23376 -0.881849 2.6301)
(-2.41114 -0.914353 2.6337)
(-2.34401 -0.805294 2.74794)
(-2.46731 -1.11189 2.66452)
(-2.54776 -0.933924 2.6164)
(-2.53285 -0.672684 2.67706)
(-2.44875 -1.32685 2.79905)
(-2.56246 -1.04592 2.8384)
(-2.69611 -0.9867 2.75959)
(-2.49545 -1.57599 2.65555)
(-2.42964 -1.66852 2.6311)
(-2.61881 -1.35223 2.60384)
(-2.74173 -1.05038 2.59156)
(-2.55042 -1.52071 2.88772)
(-2.75087 -1.40306 2.86274)
(-2.64113 -1.46249 2.97899)
(-2.73091 -1.11018 2.92103)
(-2.73563 -0.940133 2.77943)
(-2.78224 -1.88945 2.38994)
(-2.74931 -1.96102 2.5067)
(-2.66659 -1.85873 2.62196)
(-2.47937 -1.72196 2.6923)
(-2.77748 -1.47037 2.46862)
(-2.98259 -1.19422 2.4912)
(-2.60906 -2.30849 2.50044)
(-2.7826 -2.3053 2.23127)
(-2.34162 -2.30387 2.63493)
(-2.4297 -1.86381 2.65612)
(-2.71044 -1.47769 2.53998)
(-3.07972 -1.07517 2.22818)
(-2.92606 -0.827558 2.28145)
(-1.91617 -2.80187 2.862)
(-2.16073 -2.55415 2.76855)
(-2.3503 -2.33315 2.88066)
(-2.42187 -2.52 2.46013)
(-2.52209 -2.11919 2.33478)
(-2.91369 -1.71474 2.079)
(-2.96319 -1.37228 2.37652)
(-3.09462 -0.807428 2.53981)
(-1.72785 -3.1877 2.85578)
(-2.06864 -2.9069 2.70805)
(-1.83856 -3.13965 2.47038)
(-2.35871 -2.4482 2.50761)
(-2.41277 -1.94396 2.56571)
(-2.60881 -1.70107 2.46634)
(-2.69055 -1.60242 2.59699)
(-2.95273 -1.38602 2.43757)
(-2.91406 -1.34387 2.24896)
(-1.41297 -3.02626 2.82385)
(-1.66648 -2.98424 2.74841)
(-2.01964 -2.74567 2.6189)
(-1.80579 -2.90321 2.4331)
(-2.1132 -2.24128 2.35749)
(-2.36081 -2.13262 2.22539)
(-2.86963 -1.98466 1.97549)
(-3.01167 -1.69322 2.06545)
(-2.80874 -1.3581 1.88638)
(-2.47894 -1.28615 1.53254)
(-0.688496 -2.84921 2.64117)
(-1.04785 -2.89106 2.54956)
(-1.05223 -2.94764 2.41551)
(-1.81005 -2.69897 2.20138)
(-2.23923 -2.08987 1.74652)
(-2.60097 -2.04753 1.60717)
(-2.32409 -1.782 1.69928)
(-2.26383 -1.35896 1.74083)
(-1.54059 -1.50303 1.86783)
(-1.49311 -1.2796 1.67326)
(-1.80921 -0.835006 0.742464)
(-0.479059 -2.92254 2.02189)
(-0.863798 -3.11244 1.24984)
(-1.28296 -2.99462 1.60849)
(-1.30597 -3.00216 1.47297)
(-1.46306 -2.05793 1.11447)
(-1.13298 -1.78114 1.48244)
(-1.35724 -1.58561 1.66868)
(-1.13941 -1.59295 1.5776)
(-1.17013 -1.34174 1.66013)
(-1.27704 -1.43318 0.601254)
(-2.07154 -1.02524 0.416749)
(-2.57532 -0.295808 -0.0696338)
(0.00471911 -2.9651 1.39411)
(-0.589947 -2.52652 1.59436)
(-0.850488 -2.68399 1.12088)
(-0.954097 -2.19732 1.79565)
(-0.871303 -1.49215 0.266513)
(-0.727351 -1.17971 -0.826909)
(-0.743295 -1.88686 0.0458046)
(-0.605284 -1.74387 0.409445)
(-1.09834 -1.652 -0.439363)
(-1.51498 -1.54546 0.0756445)
(-2.23504 -0.66642 -0.0630938)
(-1.91205 -0.050193 -0.632128)
(-0.998938 -0.193694 0.160356)
(0.0200829 -2.15084 0.481094)
(0.356924 -2.32599 1.00198)
(0.351187 -2.23461 0.726644)
(0.0387839 -2.46913 0.797801)
(-0.619587 -1.71346 -0.477174)
(-0.530186 -1.48315 -0.794212)
(-0.377986 -1.2216 -1.44024)
(-0.577181 -1.06821 -1.26884)
(-0.986711 -1.26708 -0.831082)
(-1.46888 -1.02614 0.0688251)
(-1.74447 -0.589656 -0.488851)
(-0.808116 -0.207613 -0.898314)
(-0.595215 0.0910568 -1.1096)
(-1.02484 0.862138 -1.94513)
(0.30951 -1.26659 -1.70961)
(0.0356008 -1.76744 -1.00922)
(0.127421 -1.93868 -0.607462)
(0.372156 -2.15508 -0.218302)
(0.0146543 -1.34254 -0.613163)
(0.207727 -1.2504 -0.747377)
(0.186544 -1.05705 -1.22509)
(-0.647763 -1.07121 -1.02306)
(-0.745119 -1.0053 -1.45701)
(-0.42707 -1.09774 -1.33183)
(-0.331718 -0.654963 -1.47733)
(-0.114467 -0.204148 -1.28253)
(-0.659773 0.317955 -1.88385)
(-0.336492 0.528742 -2.18575)
(-0.321936 0.766625 -2.41813)
(-2.09256 -0.57009 2.55527)
(-2.17913 -0.690582 2.65981)
(-2.24651 -0.463391 2.64178)
(-2.2147 -0.93124 2.59039)
(-2.29499 -0.624343 2.64858)
(-2.38381 -0.948181 2.60009)
(-2.33353 -0.816794 2.71078)
(-2.33371 -0.639055 2.74208)
(-2.39313 -1.18659 2.65223)
(-2.50937 -1.0515 2.57207)
(-2.48446 -0.785719 2.69395)
(-2.5118 -0.537686 2.72517)
(-2.28197 -1.40887 2.78882)
(-2.39792 -1.21532 2.74241)
(-2.49648 -1.16225 2.65064)
(-2.56577 -0.708489 2.80585)
(-2.45539 -1.57674 2.65681)
(-2.37263 -1.57445 2.66984)
(-2.47192 -1.42317 2.65979)
(-2.60514 -1.20441 2.57937)
(-2.71878 -0.931907 2.49738)
(-2.5312 -1.63431 2.63946)
(-2.75046 -1.37501 2.66272)
(-2.68303 -1.4787 2.78133)
(-2.68841 -1.25926 2.70335)
(-2.61489 -1.216 2.55711)
(-2.70419 -0.614038 2.67104)
(-2.29104 -2.0082 2.66432)
(-2.09974 -2.02757 2.83807)
(-2.20252 -2.02497 2.69611)
(-2.35818 -1.72159 2.70199)
(-2.81356 -1.5531 2.31281)
(-2.98296 -1.23458 2.35864)
(-2.99701 -0.807694 2.43436)
(-2.32023 -2.57139 2.41382)
(-2.30071 -2.35704 2.48045)
(-2.49776 -2.26567 2.42227)
(-2.384 -1.83187 2.66871)
(-2.82327 -1.61016 2.18121)
(-2.9119 -1.35544 2.18777)
(-2.69398 -1.14301 2.24839)
(-3.02415 -0.58986 1.90487)
(-1.90394 -3.00163 2.54469)
(-2.33613 -2.49772 2.47459)
(-2.53654 -2.48072 2.29877)
(-2.73314 -2.1409 2.15329)
(-2.53428 -2.0898 2.12697)
(-2.71565 -1.8875 2.08198)
(-2.7904 -1.50111 2.31046)
(-2.94052 -0.97538 2.50594)
(-2.98074 -0.758902 2.40539)
(-1.59991 -3.24932 2.86434)
(-1.92962 -3.03451 2.69006)
(-1.98224 -2.94276 2.46478)
(-2.03057 -2.58286 2.45769)
(-2.73455 -1.62809 2.20431)
(-2.59791 -1.95263 2.179)
(-2.70643 -1.43739 2.44722)
(-2.81064 -1.52721 2.4691)
(-2.82345 -1.41781 2.34463)
(-2.8473 -0.843952 2.11487)
(-1.29314 -3.10323 2.89833)
(-1.7117 -3.07929 2.63411)
(-1.59925 -2.96487 2.63904)
(-1.83707 -2.7398 2.4459)
(-2.07567 -2.3457 2.095)
(-2.45797 -2.15396 2.01966)
(-2.80929 -1.81976 2.17457)
(-3.05907 -1.60514 1.96729)
(-2.72666 -1.56377 1.94327)
(-2.3922 -1.36043 1.60047)
(-2.0263 -0.966294 1.6248)
(-0.526062 -2.98304 2.72926)
(-0.785164 -3.06849 2.44187)
(-1.06752 -3.00497 2.34118)
(-1.52459 -2.85825 2.28905)
(-2.28216 -2.16331 1.77135)
(-2.52655 -2.23493 1.24611)
(-2.36477 -1.80885 1.56077)
(-2.00227 -1.42266 1.83401)
(-1.51813 -1.51163 1.83498)
(-1.51372 -1.23876 1.67557)
(-1.62498 -0.797338 1.39827)
(-2.38308 -0.479745 0.729993)
(-0.0773044 -3.18388 2.04892)
(-0.284901 -3.26928 1.55562)
(-1.17449 -3.06966 1.65786)
(-1.4182 -3.01759 1.46445)
(-1.40095 -2.10518 1.32406)
(-1.08267 -1.66567 1.52805)
(-1.1804 -1.62453 1.67956)
(-0.96195 -1.5362 1.7236)
(-1.23612 -1.38211 1.51243)
(-1.38537 -1.4214 0.45144)
(-2.15724 -0.930458 0.134702)
(-2.69605 -0.571768 -0.272109)
(-2.60482 0.0546501 -0.598662)
(0.125962 -2.97581 1.49494)
(-0.688965 -2.77197 1.49281)
(-0.717938 -2.64693 1.27025)
(-0.887077 -2.293 1.70422)
(-0.877495 -1.5997 0.441109)
(-0.691946 -1.4336 -0.574632)
(-0.687025 -1.87 -0.211046)
(-0.655744 -1.72761 0.193528)
(-1.1446 -1.5922 -0.590252)
(-1.5297 -1.52523 0.0574535)
(-2.227 -0.617074 -0.0412818)
(-1.79866 -0.24798 -0.2607)
(-0.944449 -0.355427 0.354965)
(-1.08871 0.796714 -1.10513)
(0.0760364 -2.17671 0.506893)
(0.43534 -2.32026 1.09445)
(0.357191 -2.21762 0.77293)
(0.0485439 -2.44739 0.852551)
(-0.318497 -1.96279 0.0396308)
(-0.4831 -1.55333 -0.732167)
(-0.381797 -1.25727 -1.39898)
(-0.681893 -0.941666 -1.34386)
(-0.948388 -1.26678 -0.840696)
(-1.44748 -1.05815 0.0750984)
(-1.7401 -0.56486 -0.450582)
(-0.723147 -0.333102 -0.831604)
(-0.629802 0.0624256 -1.06405)
(-1.04493 0.807593 -1.89326)
(-0.73746 0.912747 -2.3915)
(0.309872 -1.26528 -1.70954)
(0.0653311 -1.79269 -0.984967)
(0.117832 -1.92398 -0.647604)
(0.350109 -2.17455 -0.20832)
(-0.01323 -1.34206 -0.628167)
(0.19947 -1.24129 -0.742707)
(0.18705 -1.08106 -1.1995)
(-0.65976 -1.06805 -1.02216)
(-0.745999 -1.00153 -1.44801)
(-0.425357 -1.09042 -1.31575)
(-0.280646 -0.704826 -1.52601)
(-0.10523 -0.226231 -1.23877)
(-0.675228 0.308026 -1.8592)
(-0.3372 0.549355 -2.19902)
(-0.323602 0.786037 -2.4169)
(-0.156969 1.14747 -2.43357)
(-2.27406 -0.582978 2.29298)
(-2.13316 -0.629527 2.51391)
(-2.18574 -0.244357 2.53796)
(-2.1121 -0.76745 2.62116)
(-2.33637 -0.544597 2.47863)
(-2.27692 -0.46968 2.5228)
(-2.16983 -0.913287 2.53594)
(-2.25587 -0.720211 2.56846)
(-2.42379 -0.502947 2.54328)
(-2.25779 -1.10876 2.60787)
(-2.19918 -0.959702 2.66949)
(-2.2887 -0.710133 2.65585)
(-2.32765 -0.425289 2.70113)
(-2.36112 -1.29136 2.57851)
(-2.3765 -1.19017 2.58465)
(-2.3114 -0.975221 2.71616)
(-2.44568 -0.672897 2.69524)
(-2.47506 -0.453697 2.74045)
(-2.25205 -1.46942 2.73696)
(-2.23417 -1.3799 2.73982)
(-2.38018 -1.23735 2.62679)
(-2.4587 -0.937844 2.69343)
(-2.59387 -0.53639 2.68954)
(-2.44307 -1.63845 2.72617)
(-2.49004 -1.51292 2.70479)
(-2.41975 -1.53936 2.72202)
(-2.60128 -1.21585 2.58769)
(-2.47197 -1.06087 2.60248)
(-2.51894 -0.805709 2.52388)
(-2.39096 -1.76783 2.54396)
(-2.39641 -1.73592 2.61914)
(-2.53418 -1.66303 2.62375)
(-2.73114 -1.3404 2.46706)
(-2.59878 -1.24665 2.48919)
(-2.55914 -0.706618 2.6809)
(-2.68741 -0.387174 2.62409)
(-2.31937 -1.94062 2.73703)
(-2.29631 -1.88012 2.75334)
(-2.00273 -2.02952 2.80804)
(-2.25004 -1.84464 2.63634)
(-2.85107 -1.35033 2.2712)
(-2.94303 -0.943856 2.37278)
(-2.88514 -0.96448 2.36163)
(-2.92449 -0.614371 2.13852)
(-2.10931 -2.62647 2.31963)
(-2.32069 -2.42049 2.27792)
(-2.28425 -2.16659 2.59899)
(-2.41883 -1.92174 2.49617)
(-2.56486 -1.73473 2.16802)
(-2.83846 -1.31673 2.11006)
(-2.64015 -1.26828 2.24801)
(-2.85492 -0.784242 2.00066)
(-2.84973 -0.616548 2.18787)
(-1.85563 -2.78539 2.60973)
(-1.99279 -2.64643 2.63034)
(-2.13178 -2.566 2.39676)
(-2.44175 -2.40608 1.96437)
(-2.39882 -2.09675 2.00843)
(-2.57145 -1.89155 2.15076)
(-2.5331 -1.77366 2.31066)
(-2.65782 -1.23887 2.50362)
(-2.78313 -0.798084 2.42914)
(-2.71691 -0.747382 2.39994)
(-1.42301 -3.236 2.85295)
(-1.75505 -3.18107 2.70663)
(-2.18358 -2.8481 2.4756)
(-2.04519 -2.67633 2.1781)
(-2.36068 -2.00766 2.13055)
(-2.4616 -1.75104 2.36249)
(-2.65132 -1.59 2.30525)
(-2.81539 -1.46406 2.30525)
(-2.76819 -1.45744 2.37034)
(-2.72592 -1.00043 2.14947)
(-2.84804 -0.930163 1.6671)
(-1.05962 -3.42618 2.7034)
(-1.69672 -3.09208 2.51381)
(-1.63036 -3.19717 2.24863)
(-1.78282 -2.80539 2.45599)
(-2.07152 -2.3751 2.00385)
(-2.56356 -1.84276 1.98817)
(-3.06504 -1.8741 1.68146)
(-3.14285 -1.44979 1.67675)
(-2.80452 -1.42646 1.81574)
(-2.2324 -1.20524 2.00176)
(-1.95074 -0.935882 1.58817)
(-1.97271 -0.739461 1.77463)
(-0.246558 -3.202 2.70878)
(-0.632676 -3.11884 2.46544)
(-0.960526 -3.10661 2.35162)
(-1.55084 -2.92007 2.2278)
(-2.2019 -2.47287 1.61463)
(-2.32823 -2.21878 1.18195)
(-2.1196 -1.80722 1.66013)
(-1.86198 -1.4773 1.79555)
(-1.42865 -1.49119 1.82934)
(-1.53886 -1.23919 1.62066)
(-2.01457 -0.810506 0.808105)
(-2.36906 -0.460955 0.756599)
(-2.89279 -0.443004 1.17424)
(0.0308291 -3.22975 1.9897)
(-0.873609 -3.379 1.43037)
(-1.11719 -3.10854 1.74458)
(-1.22353 -3.07985 1.52349)
(-1.35004 -2.21007 1.43837)
(-0.979626 -1.78758 1.44636)
(-1.12444 -1.63507 1.62224)
(-1.05117 -1.58733 1.23403)
(-1.3394 -1.40142 1.30219)
(-1.53554 -1.34167 0.320941)
(-2.16857 -0.953571 0.0505773)
(-2.74562 -0.513674 0.279203)
(-2.47588 0.0748521 -0.453866)
(-1.65758 0.265552 0.110002)
(0.141908 -3.06306 1.49541)
(-0.189225 -2.98537 1.33899)
(-0.639057 -2.74025 1.24523)
(-0.89492 -2.28258 1.67702)
(-1.23079 -1.43771 0.419774)
(-0.658736 -1.46156 -0.536922)
(-0.673148 -1.81167 -0.381046)
(-0.737929 -1.66567 -0.101872)
(-1.20969 -1.53043 -0.688922)
(-1.55721 -1.44754 -0.0299532)
(-2.25213 -0.627954 -0.0725421)
(-1.67718 -0.253055 -0.271694)
(-0.837624 -0.614157 0.601016)
(-1.14511 0.799046 -1.10345)
(-1.29592 1.12757 -1.56917)
(0.132651 -2.19863 0.554747)
(0.428481 -2.3293 1.18432)
(0.370769 -2.21215 0.746845)
(0.0564928 -2.43724 0.871605)
(-0.504757 -1.91969 -0.484878)
(-0.491973 -1.57182 -0.732476)
(-0.382939 -1.29617 -1.33011)
(-0.715808 -0.859073 -1.38522)
(-0.936437 -1.24828 -0.852079)
(-1.47873 -0.928465 -0.0579536)
(-1.72883 -0.560623 -0.407796)
(-0.705459 -0.451355 -0.734078)
(-0.710436 0.0341805 -1.01717)
(-1.05249 0.748366 -1.82959)
(-0.728647 0.911636 -2.37688)
(-0.623836 1.05292 -2.43047)
(0.316927 -1.26183 -1.71357)
(0.0781642 -1.80729 -0.977531)
(0.10817 -1.9372 -0.650778)
(0.349901 -2.14303 -0.198921)
(-0.00712932 -1.34772 -0.624093)
(0.230471 -1.24035 -0.720858)
(0.17309 -1.08596 -1.18974)
(-0.663442 -1.05694 -1.02248)
(-0.737034 -1.01257 -1.4381)
(-0.422088 -1.09027 -1.32391)
(-0.200197 -0.792454 -1.55075)
(-0.0900933 -0.259225 -1.19742)
(-0.675785 0.265644 -1.8489)
(-0.347713 0.577691 -2.24293)
(-0.318194 0.790807 -2.47064)
(-0.168667 1.1571 -2.46185)
(0.392604 1.56094 -2.1952)
(-2.1734 -0.498514 2.01157)
(-2.18501 -0.76133 2.32161)
(-2.23092 -0.496978 2.31239)
(-2.04139 -0.620624 2.53683)
(-2.17192 -0.306679 2.51205)
(-2.11672 -0.379735 2.56057)
(-1.99411 -0.911143 2.58059)
(-2.08482 -0.669209 2.56199)
(-2.37524 -0.528253 2.33201)
(-2.15547 -0.216448 2.61322)
(-2.11096 -1.02515 2.54487)
(-2.14705 -0.816359 2.5722)
(-2.28181 -0.813221 2.43427)
(-2.25295 -0.428923 2.62135)
(-2.18342 -1.23981 2.60867)
(-2.1306 -1.11144 2.65801)
(-2.21806 -1.00423 2.57731)
(-2.27953 -0.591061 2.63377)
(-2.29334 -0.449641 2.6809)
(-2.22992 -1.38017 2.57953)
(-2.29909 -1.20777 2.62401)
(-2.19584 -1.13095 2.75362)
(-2.28684 -0.969732 2.73907)
(-2.47112 -0.589942 2.71312)
(-2.4465 -0.4405 2.726)
(-2.25634 -1.42418 2.73468)
(-2.25504 -1.38118 2.69388)
(-2.40205 -1.15415 2.64543)
(-2.42885 -1.04834 2.67626)
(-2.46406 -0.901149 2.65079)
(-2.56373 -0.527091 2.53352)
(-2.53749 -1.4221 2.72322)