/*--------------------------------*- C++ -*----------------------------------*\
  =========                 |
  \\      /  F ield         | OpenFOAM: The Open Source CFD Toolbox
   \\    /   O peration     | Website:  https://openfoam.org
    \\  /    A nd           | Version:  7
     \\/     M anipulation  |
\*---------------------------------------------------------------------------*/
FoamFile
{
    version     2.0;
    format      ascii;
    class       volScalarField;
    location    "6.5";
    object      p;
}
// * * * * * * * * * * * * * * * * * * * * * * * * * * * * * * * * * * * * * //

dimensions      [0 2 -2 0 0 0 0];

internalField   nonuniform List<scalar> 
18870
(
-72.1439
-72.4093
-72.1809
-72.0048
-72.6094
-72.5037
-72.5326
-72.2183
-72.0171
-72.3964
-72.7475
-72.7869
-72.7059
-72.5981
-72.5806
-72.9827
-72.2558
-72.0282
-72.3914
-72.5761
-72.341
-73.0366
-72.6087
-72.9504
-72.8343
-73.1639
-72.6918
-72.6361
-73.0038
-73.2128
-72.2911
-72.0386
-72.3842
-72.5766
-72.5192
-71.1049
-72.8169
-72.4774
-73.3243
-72.9721
-73.0426
-73.1091
-72.965
-73.2736
-73.487
-72.7866
-72.7068
-73.0221
-73.2392
-73.3398
-72.3243
-72.0499
-72.3748
-72.5688
-72.5098
-72.6473
-69.8482
-71.5731
-71.2418
-73.3221
-73.2523
-72.7604
-73.5928
-73.2889
-73.3057
-73.7494
-73.2555
-73.0746
-73.3828
-73.6246
-73.6671
-72.8844
-72.7628
-73.0338
-73.2572
-73.359
-73.681
-72.3559
-72.0612
-72.363
-72.5614
-72.4995
-72.6386
-72.1541
-68.4982
-70.3523
-70.111
-72.0947
-72.0957
-72.2741
-73.8255
-73.8334
-73.2927
-73.6994
-73.8325
-73.565
-73.5226
-74.0271
-74.0954
-73.3957
-73.1751
-73.4868
-73.7621
-73.7689
-74.1421
-72.9822
-72.8006
-73.0436
-73.2589
-73.3692
-73.6857
-73.7446
-72.3847
-72.0685
-72.3489
-72.5643
-72.4877
-72.627
-72.1489
-71.115
-67.1504
-68.7371
-68.9592
-70.8527
-70.722
-71.08
-72.9515
-73.2651
-73.0729
-73.5663
-74.2057
-74.3383
-73.7624
-74.1999
-74.2374
-74.0282
-73.7908
-73.7521
-74.2734
-74.283
-74.5836
-73.5351
-73.2602
-73.5681
-73.8662
-73.851
-74.2156
-74.7912
-73.0802
-72.8337
-73.0447
-73.2619
-73.3767
-73.6922
-73.78
-72.8318
-72.4109
-72.0706
-72.3337
-72.5673
-72.4734
-72.6124
-72.1412
-71.1089
-70.1482
-65.5103
-67.2858
-67.5138
-68.8852
-69.4216
-70.1566
-71.3286
-71.3924
-71.9084
-72.8418
-73.8085
-74.2747
-73.8961
-74.1746
-74.0555
-74.485
-74.6948
-74.1306
-74.6157
-74.5525
-74.7119
-74.1705
-73.9619
-73.9132
-74.4843
-74.4371
-74.7408
-75.3286
-73.6738
-73.3198
-73.6161
-73.9474
-73.9017
-74.266
-74.8996
-74.586
-73.1733
-72.8576
-73.0308
-73.266
-73.3786
-73.6945
-73.7956
-72.8655
-72.0593
-72.4349
-72.0706
-72.3156
-72.551
-72.4565
-72.5928
-72.1302
-71.0989
-70.1817
-69.7223
-64.556
-65.6686
-66.3005
-67.5694
-68.0007
-68.8627
-69.3908
-69.9377
-70.8384
-72.0325
-71.785
-72.0361
-72.9004
-73.4618
-73.5344
-74.4638
-74.9499
-74.5974
-74.7255
-74.4515
-74.3736
-74.609
-74.8141
-74.3223
-74.8382
-74.8103
-74.9645
-75.1213
-74.3111
-74.0704
-73.994
-74.5882
-74.5593
-74.839
-75.4662
-75.8448
-73.8081
-73.3782
-73.6513
-73.996
-73.9328
-74.2737
-74.9852
-74.6428
-73.7336
-73.2514
-72.874
-73.0095
-73.2576
-73.3774
-73.6867
-73.7984
-72.8804
-72.0735
-71.2833
-72.4557
-72.0695
-72.2939
-72.5377
-72.4384
-72.5713
-72.1101
-71.0845
-70.2014
-69.7036
-68.6119
-63.6768
-64.5846
-65.1737
-66.0853
-66.3823
-67.4774
-67.6809
-68.3456
-69.696
-70.9743
-70.1098
-70.496
-71.5464
-72.6925
-72.8298
-72.3273
-72.9486
-73.7495
-73.9134
-73.8662
-73.7733
-74.9653
-75.4383
-74.821
-74.9744
-74.7306
-74.6827
-74.4203
-74.734
-74.8928
-74.4322
-74.8803
-74.9994
-75.1668
-75.3098
-75.6855
-74.4381
-74.1391
-74.0416
-74.597
-74.6221
-74.9193
-75.5789
-75.8999
-75.2741
-73.9392
-73.4174
-73.6781
-74.0099
-73.952
-74.2587
-75.021
-74.6692
-73.7679
-73.1045
-73.3337
-72.8833
-72.9775
-73.2353
-73.3646
-73.6633
-73.7879
-72.8766
-72.0648
-71.2791
-70.6775
-72.4726
-72.0671
-72.2717
-72.5196
-72.4181
-72.5477
-72.0896
-71.068
-70.1929
-69.6825
-68.5937
-68.1503
-62.5969
-63.5774
-64.1046
-64.7637
-65.2171
-65.8531
-66.3254
-66.8171
-68.2754
-70.236
-68.0144
-68.8481
-70.2836
-71.9823
-72.8911
-70.3533
-71.023
-72.4265
-73.1221
-73.1771
-73.0507
-72.8749
-73.8247
-74.3165
-74.2158
-74.0985
-74.041
-73.433
-75.3091
-75.6638
-75.0065
-75.1276
-74.913
-74.7879
-74.5671
-74.6838
-74.866
-74.9084
-74.4654
-74.8982
-75.0959
-75.2424
-75.4328
-75.8163
-75.3989
-74.5558
-74.1871
-74.0294
-74.5487
-74.6408
-74.9622
-75.6807
-75.9101
-75.3337
-74.5337
-74.0748
-73.4436
-73.6717
-73.9698
-73.9227
-74.2109
-74.9866
-74.6294
-73.7644
-73.0768
-72.3733
-73.4286
-72.8828
-72.9374
-73.2026
-73.3288
-73.6173
-73.7568
-72.8516
-72.0426
-71.2657
-70.6486
-69.318
-72.4857
-72.0621
-72.2507
-72.4936
-72.3844
-72.5235
-72.0759
-71.0462
-70.2173
-69.6463
-68.5921
-68.0204
-67.6013
-61.8461
-62.7104
-63.4623
-63.4854
-64.3647
-64.0845
-64.7681
-65.179
-66.081
-68.9461
-66.4876
-67.4344
-69.3914
-71.1159
-72.7084
-68.2643
-69.576
-71.1881
-72.7411
-73.1489
-72.9079
-70.6996
-71.4583
-73.2094
-73.7359
-73.2768
-73.3552
-71.9287
-73.2817
-74.2762
-74.4355
-74.4319
-74.2843
-74.1023
-73.1719
-73.099
-75.2978
-75.8061
-74.9882
-75.0182
-75.0221
-74.8848
-74.5005
-74.7648
-74.6209
-74.9977
-74.9288
-74.4278
-74.7352
-75.0693
-75.1706
-75.5642
-75.8486
-75.5519
-75.0802
-74.6734
-74.211
-73.9944
-74.4748
-74.6051
-74.9088
-75.7593
-75.8429
-75.4207
-74.5702
-73.6858
-74.1943
-73.4512
-73.6372
-73.9168
-73.8544
-74.1286
-74.908
-74.5229
-73.7181
-73.0135
-72.293
-71.4393
-73.5187
-72.8711
-72.8904
-73.153
-73.2738
-73.5599
-73.6994
-72.8007
-71.9961
-71.2161
-70.5977
-69.2166
-68.6307
-72.494
-72.0554
-72.2268
-72.4584
-72.333
-72.4976
-72.0423
-71.0053
-70.2167
-69.6105
-68.6026
-67.9149
-67.5338
-68.1926
-61.1534
-62.0532
-62.652
-62.807
-63.6621
-63.4882
-63.7216
-64.3973
-64.5651
-66.7621
-64.9982
-65.4576
-67.6096
-69.9177
-72.1516
-66.6238
-67.8099
-69.8739
-72.5208
-73.3799
-73.1261
-68.6522
-70.3179
-72.0012
-73.3714
-73.2563
-73.0685
-71.4172
-71.25
-72.1168
-73.5794
-74.0554
-73.3843
-73.4009
-71.8082
-71.5115
-73.6489
-74.7089
-74.6594
-74.3917
-74.2623
-73.942
-72.9891
-72.9228
-72.7474
-75.4596
-75.8783
-74.92
-74.7615
-74.9167
-74.562
-74.4024
-74.7018
-74.652
-74.768
-75.1782
-74.9698
-74.3694
-74.4751
-74.9034
-74.9668
-75.5902
-75.7233
-75.7753
-75.1233
-74.7261
-74.7776
-74.2195
-73.9345
-74.2871
-74.5034
-74.7259
-75.7739
-75.8488
-75.3383
-74.5934
-73.5032
-72.3768
-74.2931
-73.4318
-73.603
-73.867
-73.7864
-74.0325
-74.7928
-74.3666
-73.6313
-72.9302
-72.2125
-71.2545
-69.9749
-73.6053
-72.8546
-72.8379
-73.0919
-73.2108
-73.4971
-73.6395
-72.7465
-71.9156
-71.1552
-70.5223
-69.1185
-68.5339
-68.5828
-72.4985
-72.0479
-72.1993
-72.4193
-72.2878
-72.4576
-71.9746
-70.9529
-70.1568
-69.582
-68.6178
-67.8626
-67.4473
-68.1368
-68.8275
-60.7154
-61.2095
-61.7948
-62.0467
-62.9897
-63.192
-62.847
-63.9223
-64.7823
-65.483
-63.8485
-64.7299
-65.58
-67.3075
-70.6756
-65.2189
-66.0749
-68.5924
-70.7805
-73.0399
-72.9703
-66.8569
-68.1686
-71.1496
-73.3889
-73.5759
-73.1211
-71.6885
-69.087
-71.151
-72.969
-74.0053
-72.9943
-73.2402
-71.6066
-70.387
-71.8017
-72.6627
-74.0016
-74.2483
-73.4338
-73.0954
-71.7148
-71.0828
-70.4213
-73.9166
-75.1537
-74.89
-74.3112
-74.1029
-73.5575
-72.7081
-72.6329
-72.5543
-72.9352
-75.5503
-76.0349
-74.8364
-74.4174
-74.6061
-74.1591
-74.1049
-74.4248
-74.7068
-74.6606
-74.9821
-75.3867
-75.0193
-74.2728
-74.1868
-74.6259
-74.6196
-75.4617
-75.4431
-75.8502
-75.1441
-74.7787
-73.9383
-74.873
-74.2087
-73.8344
-74.0626
-74.3172
-74.4402
-75.7229
-75.3957
-75.3727
-74.3442
-73.3094
-72.1463
-71.1402
-74.3707
-73.3981
-73.5627
-73.7635
-73.7027
-73.9288
-74.6249
-74.2042
-73.4261
-72.8094
-72.0671
-71.0555
-69.6776
-69.4
-73.6854
-72.8462
-72.7796
-73.0298
-73.1456
-73.4148
-73.5548
-72.6815
-71.814
-71.0886
-70.449
-69.0543
-68.4287
-68.4914
-68.926
-72.5012
-72.0393
-72.1648
-72.3783
-72.2506
-72.4091
-71.9299
-70.9192
-70.136
-69.5186
-68.6312
-67.7671
-67.3863
-68.0836
-68.8142
-67.1149
-60.304
-60.7182
-60.9333
-61.3871
-62.036
-62.2509
-62.1963
-63.3479
-63.2372
-64.1929
-62.9424
-64.3121
-65.2392
-65.3963
-67.0854
-64.1025
-65.0512
-66.539
-67.7441
-71.1352
-72.2308
-65.1075
-66.1016
-68.286
-72.0229
-73.3619
-72.7918
-71.3921
-67.1196
-69.0834
-72.4866
-73.9238
-73.3933
-72.7997
-71.6037
-70.1184
-69.6974
-72.3242
-73.6439
-74.2222
-73.1495
-73.0852
-71.3427
-70.0986
-68.9725
-72.348
-73.2986
-74.2637
-74.2538
-73.5017
-72.959
-71.6515
-70.6776
-70.4152
-70.6364
-74.2972
-75.5045
-75.1597
-74.2159
-73.818
-73.2394
-72.0559
-72.1774
-72.5378
-72.7831
-72.9929
-75.7957
-76.1238
-74.7528
-74.0945
-74.1154
-73.6214
-73.915
-73.9882
-74.7813
-74.528
-74.7936
-74.8019
-75.5418
-75.0144
-74.1318
-73.8783
-74.2931
-74.1522
-75.3446
-75.0932
-75.5992
-75.1632
-74.8264
-73.8093
-72.7452
-74.9736
-74.1448
-73.7124
-73.856
-74.0394
-74.1193
-75.4431
-75.1061
-75.3699
-74.0759
-73.0989
-71.922
-70.9386
-70.524
-74.4295
-73.3386
-73.4882
-73.6197
-73.5653
-73.8082
-74.4125
-73.9942
-73.1242
-72.6137
-71.8215
-70.9173
-69.3413
-69.1696
-69.1543
-73.7482
-72.7983
-72.7168
-72.9652
-73.0663
-73.3176
-73.4429
-72.5901
-71.6899
-70.9777
-70.3544
-68.9404
-68.3432
-68.392
-68.8284
-67.9202
-72.5004
-72.0301
-72.1249
-72.3301
-72.205
-72.3481
-71.8855
-70.8859
-70.143
-69.4341
-68.6229
-67.6361
-67.3164
-68.0258
-68.789
-67.1074
-65.6614
-60.0398
-60.3429
-60.5384
-60.8045
-61.0243
-61.4376
-61.7681
-61.8203
-62.0929
-62.5565
-62.3027
-62.9818
-63.4548
-64.0749
-64.6081
-63.0747
-63.9091
-64.3315
-65.7731
-67.2122
-68.2894
-64.129
-65.226
-66.4197
-68.6238
-71.1455
-71.7253
-70.5178
-65.2887
-67.106
-68.822
-72.5517
-74.0347
-72.2281
-71.1758
-69.4204
-67.4879
-70.0957
-73.6771
-74.466
-73.6651
-72.3471
-71.5186
-69.6987
-68.7248
-70.2184
-73.2663
-74.2088
-74.1312
-73.2257
-72.8998
-71.1374
-69.7887
-68.6533
-68.7122
-73.1948
-73.8702
-74.5859
-74.3726
-73.2477
-72.8723
-71.2077
-70.2878
-70.4092
-70.3862
-70.5981
-74.6415
-75.7379
-75.4574
-74.0632
-73.5588
-72.6558
-71.7755
-71.6067
-72.2839
-72.6813
-72.812
-73.0234
-75.9956
-76.0438
-74.6648
-73.8172
-73.7167
-73.2698
-73.2461
-73.4693
-74.4588
-74.3562
-74.4982
-74.2816
-72.9095
-75.7412
-74.9333
-73.9646
-73.5772
-73.9297
-73.6662
-74.8009
-74.6916
-75.4262
-75.2112
-74.6461
-73.5275
-72.5179
-71.3578
-75.0419
-74.0187
-73.5711
-73.6053
-73.7762
-73.7792
-75.0638
-74.8742
-75.144
-73.9003
-73.0192
-71.738
-70.8134
-70.4039
-69.5747
-74.4925
-73.2353
-73.3927
-73.4558
-73.4281
-73.6489
-74.1658
-73.705
-72.9017
-72.3553
-71.4792
-70.6078
-69.2214
-68.8661
-68.9903
-68.1106
-73.791
-72.7424
-72.6483
-72.8985
-72.9722
-73.2118
-73.3266
-72.4875
-71.5859
-70.8373
-70.2492
-68.7984
-68.2185
-68.2936
-68.7183
-67.8616
-66.3021
-72.4954
-72.0199
-72.092
-72.2704
-72.1554
-72.2684
-71.8201
-70.8463
-70.1509
-69.3828
-68.5906
-67.6187
-67.2271
-67.9795
-68.7676
-67.098
-65.6304
-64.9992
-59.7606
-60.0927
-60.2023
-60.3971
-60.5301
-60.7254
-60.7751
-61.1061
-61.3353
-61.3765
-61.6755
-61.766
-62.3182
-62.6423
-63.02
-62.3748
-62.8855
-63.5067
-63.6252
-64.5937
-65.2423
-63.2203
-64.1942
-64.701
-65.4501
-67.3852
-68.3134
-68.6302
-64.4914
-65.6995
-66.3382
-68.8872
-71.1703
-70.977
-69.8525
-68.3942
-66.0057
-67.7521
-69.3896
-72.9935
-73.3605
-71.618
-70.6045
-68.809
-67.8159
-67.9369
-70.8083
-74.5328
-74.9688
-73.364
-71.9293
-71.1881
-69.3752
-68.2644
-67.5574
-70.9877
-74.0373
-74.581
-74.0927
-73.0622
-72.7121
-70.9275
-69.6966
-68.2638
-68.6229
-68.5434
-73.8871
-74.4181
-74.8407
-74.4687
-73.1305
-72.7204
-70.8614
-70.0887
-69.8627
-70.2441
-70.2485
-70.9501
-75.157
-75.8654
-75.3957
-73.9473
-73.4501
-71.9679
-71.681
-71.1753
-71.9721
-72.509
-72.5266
-72.5911
-71.8962
-76.1328
-75.9604
-74.4981
-73.4567
-73.3321
-72.9612
-72.47
-72.7305
-74.0087
-74.0001
-74.119
-73.7972
-72.3354
-71.4841
-75.8503
-74.794
-73.7346
-73.2499
-73.5231
-73.1932
-74.2915
-74.4105
-74.8711
-74.9745
-74.2489
-73.1926
-72.2111
-71.1307
-70.5157
-75.0779
-73.8567
-73.4024
-73.3685
-73.4584
-73.4097
-74.5987
-74.5561
-74.981
-73.9065
-73.0197
-71.6077
-70.519
-70.3144
-69.4269
-68.6079
-74.5286
-73.1009
-73.2816
-73.2887
-73.3076
-73.465
-73.8873
-73.4113
-72.7736
-72.0039
-71.212
-70.192
-69.133
-68.7359
-68.7779
-67.9203
-66.645
-73.8213
-72.6677
-72.5755
-72.8262
-72.8657
-73.0982
-73.2029
-72.3698
-71.4964
-70.7025
-70.1173
-68.674
-68.0539
-68.1667
-68.8133
-67.8161
-66.2291
-65.4811
-72.4876
-72.0082
-72.0574
-72.1985
-72.0993
-72.1663
-71.747
-70.7868
-70.1859
-69.3474
-68.5736
-67.582
-67.1675
-67.9274
-68.7347
-67.0851
-65.5953
-64.9559
-64.629
-59.5811
-59.8328
-59.8708
-60.1175
-60.1498
-60.228
-60.3423
-60.5242
-60.6636
-60.6188
-60.9454
-61.1057
-61.3633
-61.2505
-61.717
-61.6584
-61.8099
-62.1454
-62.4995
-62.6856
-63.213
-62.4141
-62.9355
-63.266
-63.959
-64.5505
-65.1897
-65.6184
-63.3597
-64.2929
-65.0568
-65.886
-66.7828
-67.8108
-67.6862
-66.8244
-64.8343
-66.0576
-66.4584
-68.7177
-70.5247
-70.0309
-68.9571
-67.8056
-67.1801
-66.4836
-67.5108
-69.6133
-73.0885
-72.6261
-71.0695
-70.1275
-68.2893
-67.4322
-66.3556
-68.3743
-70.8739
-74.8035
-75.0895
-73.048
-71.4643
-70.6278
-69.0134
-68.1079
-67.2316
-67.0092
-71.7218
-74.8499
-74.8841
-74.0726
-72.9203
-72.3644
-70.6736
-69.4687
-68.0972
-68.1762
-68.3339
-68.1664
-74.5366
-74.7708
-74.8677
-74.3552
-72.8775
-72.3033
-70.2864
-69.8708
-69.4508
-69.9757
-69.976
-70.6017
-70.3773
-75.7073
-75.8487
-75.21
-73.8559
-72.9943
-71.622
-71.2686
-70.7802
-71.4783
-72.1324
-72.2172
-72.1907
-71.2461
-70.9498
-76.327
-75.9469
-74.3004
-73.0952
-72.9354
-72.462
-72.3468
-72.1918
-73.4588
-73.5629
-73.5856
-73.2931
-71.7896
-70.8907
-70.154
-75.934
-74.6251
-73.4501
-72.9863
-73.1106
-72.7915
-73.6994
-73.9954
-74.298
-74.1899
-73.7585
-72.7562
-71.6656
-70.7389
-70.2798
-70.0838
-75.0792
-73.6485
-73.2144
-73.1619
-73.0834
-73.0546
-74.0584
-74.2038
-74.3031
-73.8243
-72.8272
-71.355
-70.0849
-69.9179
-69.213
-68.2422
-66.9411
-74.5732
-72.973
-73.16
-73.1328
-73.086
-73.2733
-73.5811
-73.1308
-72.3474
-71.6026
-70.9959
-69.7568
-68.9924
-68.6968
-68.4517
-67.7136
-66.4518
-65.9272
-73.8551
-72.562
-72.4964
-72.7431
-72.761
-72.9752
-73.0727
-72.23
-71.3492
-70.5699
-69.964
-68.5154
-67.9161
-68.0068
-68.8928
-67.7812
-66.157
-65.4195
-64.8833
-72.4699
-71.9951
-72.018
-72.116
-72.0344
-72.0769
-71.6728
-70.7178
-70.1814
-69.2557
-68.564
-67.5005
-67.0974
-67.8624
-68.6893
-67.0882
-65.5601
-64.9035
-64.593
-64.3774
-59.4093
-59.6585
-59.627
-59.8045
-59.9134
-59.8475
-60.1649
-60.1864
-60.1851
-60.1465
-60.4003
-60.5729
-60.6507
-60.5337
-60.4768
-60.8309
-61.1373
-61.2492
-61.5115
-61.6161
-62.1162
-61.7354
-61.8704
-62.001
-62.4267
-62.456
-63.4064
-63.6481
-62.2233
-62.7366
-63.3252
-63.8588
-64.506
-65.1358
-65.0787
-64.7204
-63.2569
-63.7404
-65.3246
-65.9221
-66.5738
-67.3955
-67.0531
-66.2395
-65.4981
-64.7147
-65.8885
-66.9401
-68.1605
-69.9568
-69.1868
-68.1609
-67.3563
-66.7968
-65.3064
-66.5918
-67.6958
-69.963
-72.6877
-72.0786
-70.5129
-69.4658
-67.9458
-66.8458
-66.1332
-65.821
-68.7467
-71.1173
-74.8538
-74.1291
-72.5903
-70.9576
-69.9462
-68.2697
-67.604
-67.0037
-67.05
-66.4954
-71.9508
-75.2012
-75.1046
-73.7897
-72.604
-71.851
-70.3117
-69.0937
-68.0323
-67.6774
-67.9146
-67.9719
-67.8959
-75.0409
-75.0972
-74.8884
-73.907
-72.4324
-71.9735
-70.1141
-69.6225
-68.9741
-69.5331
-69.7681
-69.984
-69.7629
-69.0805
-75.9818
-75.7991
-74.9711
-73.6199
-72.5407
-71.3945
-70.4906
-70.3817
-70.9245
-71.6919
-71.7598
-71.6372
-70.5193
-70.1655
-69.4081
-76.4246
-75.8788
-74.0837
-72.709
-72.5349
-71.8274
-71.8867
-72.0382
-72.7787
-72.8496
-72.9468
-72.6463
-71.3176
-70.2741
-69.4827
-68.9686
-76.0272
-74.3976
-73.1592
-72.6759
-72.7346
-72.3465
-73.0705
-73.2841
-73.8206
-73.4913
-73.1146
-72.2462
-71.0447
-70.3012
-70.0386
-69.6861
-67.8469
-75.0309
-73.4631
-73.0117
-72.9743
-72.7071
-72.7517
-73.5547
-73.7763
-73.8176
-73.5272
-72.4769
-71.4613
-69.7368
-69.337
-68.9569
-67.8799
-66.6198
-65.59
-74.5837
-72.846
-73.0261
-72.9703
-72.8463
-73.0701
-73.2709
-72.8089
-71.9408
-71.2005
-70.7482
-69.5295
-68.812
-68.6055
-68.0374
-67.5022
-66.2627
-65.7639
-65.2504
-73.8639
-72.5079
-72.4151
-72.6482
-72.6659
-72.8315
-72.9317
-72.0743
-71.1692
-70.4323
-69.7918
-68.2905
-67.8945
-67.8821
-68.7897
-67.7414
-66.105
-65.3592
-64.8115
-64.1506
-72.4496
-71.9797
-71.9822
-72.0279
-71.964
-72.018
-71.5831
-70.6533
-70.1333
-69.1431
-68.5419
-67.4229
-67.0018
-67.7886
-68.6353
-67.0748
-65.5276
-64.865
-64.5616
-64.3592
-64.1824
-59.2863
-59.4564
-59.4055
-59.6285
-59.6796
-59.6163
-59.7879
-59.8995
-59.909
-59.8669
-60.0468
-60.2134
-60.1983
-60.1516
-60.3875
-60.4261
-60.62
-60.6387
-60.6433
-60.8717
-61.3179
-61.0173
-61.062
-61.2039
-61.3393
-61.9525
-62.0896
-62.2306
-61.7209
-61.8677
-62.075
-62.3086
-62.8463
-63.3675
-63.332
-63.3919
-62.2376
-62.5556
-63.4137
-63.8649
-64.36
-65.0203
-64.6904
-64.284
-64.201
-63.348
-64.0814
-65.8588
-65.538
-66.2658
-66.9697
-66.1796
-65.5652
-64.8913
-64.4372
-64.8062
-65.8234
-67.0002
-67.3818
-69.5233
-68.5048
-67.1576
-66.7138
-66.0038
-65.1543
-64.8501
-66.5173
-68.0098
-70.0342
-71.5574
-71.2999
-69.9116
-69.0031
-67.1994
-66.358
-65.8122
-65.6139
-65.6214
-69.0781
-71.0046
-74.4788
-73.2109
-71.7965
-70.4612
-69.2582
-67.9897
-67.3166
-66.7058
-66.5576
-66.154
-66.2532
-72.2305
-75.1539
-74.8371
-73.2801
-71.9737
-71.0694
-69.5643
-68.7483
-67.7535
-67.5165
-67.6875
-67.3953
-67.5505
-67.4882
-75.2808
-75.0682
-74.5592
-73.5293
-71.9777
-71.3901
-69.7083
-69.2894
-68.5124
-69.0887
-69.211
-69.3321
-68.9985
-68.3612
-68.0553
-76.0942
-75.6228
-74.5892
-73.3277
-72.0443
-71.0036
-69.9377
-70.2462
-70.247
-70.9978
-71.1357
-71.1314
-69.9805
-69.4608
-68.9234
-68.1785
-76.4915
-75.8909
-73.7986
-72.4925
-72.0682
-71.3773
-71.28
-71.4358
-72.0154
-72.2665
-72.2294
-71.9037
-70.7384
-69.6713
-68.9083
-68.2625
-67.5899
-76.067
-74.3352
-72.8569
-72.3637
-72.3361
-71.7845
-72.4623
-72.7425
-73.1385
-72.8961
-72.3886
-71.6558
-70.4086
-69.8455
-69.7446
-69.2241
-67.3503
-65.8772
-74.9257
-73.1995
-72.7795
-72.7695
-72.54
-72.4026
-73.0566
-73.3036
-73.3836
-73.2696
-72.0566
-71.0214
-69.3936
-68.8236
-68.7223
-67.5432
-66.3194
-65.3151
-64.9388
-74.557
-72.719
-72.8809
-72.7883
-72.6285
-72.844
-72.9891
-72.4678
-71.8727
-70.7081
-70.4951
-69.4578
-68.5997
-68.4667
-67.782
-67.2872
-66.0831
-65.6012
-65.1593
-64.2776
-73.848
-72.4882
-72.3304
-72.5483
-72.5712
-72.6769
-72.7834
-71.9032
-71.0148
-70.2789
-69.603
-68.1221
-67.7152
-67.7289
-68.6008
-67.7045
-66.0355
-65.3047
-64.7332
-64.074
-63.8514
-72.4151
-71.9622
-71.9445
-71.9263
-71.8793
-71.972
-71.4909
-70.5933
-70.0717
-69.0821
-68.5395
-67.3965
-66.9465
-67.7213
-68.5696
-67.0573
-65.4986
-64.8113
-64.5338
-64.3406
-64.1605
-63.9076
-59.1705
-59.2899
-59.3202
-59.4328
-59.4465
-59.4147
-59.614
-59.6388
-59.6605
-59.6678
-59.8
-59.903
-59.9125
-59.9077
-59.952
-60.1216
-60.2149
-60.0811
-60.1632
-60.5605
-60.6949
-60.4987
-60.5252
-60.6088
-60.7009
-60.9938
-61.153
-61.2776
-60.9515
-61.164
-61.1657
-61.4001
-61.8166
-61.9715
-62.1226
-62.2886
-61.6751
-61.7295
-62.1226
-62.3484
-62.7626
-63.18
-63.1094
-63.0709
-63.099
-62.3721
-62.6167
-63.3182
-63.838
-64.1143
-64.6744
-64.2531
-64.0145
-63.8728
-63.7442
-63.4
-64.166
-65.1336
-65.3743
-65.696
-66.5045
-65.6334
-65.1774
-64.5515
-64.1981
-63.9544
-64.7962
-65.9251
-66.9085
-67.6182
-68.7154
-67.9955
-66.875
-66.0594
-65.662
-64.8936
-64.7369
-64.45
-66.8088
-68.1015
-69.2128
-70.7332
-70.1788
-69.08
-68.3711
-66.7612
-66.0597
-65.5196
-65.5495
-65.2401
-65.1977
-69.1644
-70.8327
-73.1131
-72.5003
-71.0111
-69.768
-68.6416
-67.6112
-67.0953
-66.4264
-66.1722
-66.1022
-65.8065
-65.7208
-72.455
-75.0055
-74.2828
-72.6664
-71.3114
-70.2764
-69.1692
-68.2754
-67.3382
-67.1595
-67.3088
-67.1087
-67.0877
-66.6903
-66.4816
-75.5445
-74.9987
-74.0286
-73.0197
-71.4324
-70.5557
-69.2317
-68.8098
-68.1804
-68.6118
-68.6886
-68.7819
-68.1459
-67.7373
-67.3847
-67.0596
-76.2844
-75.2105
-74.0517
-72.9054
-71.5618
-70.5984
-69.5866
-69.7296
-69.6084
-70.4784
-70.4976
-70.1685
-69.3846
-68.7725
-68.4385
-67.6669
-66.8421
-76.4445
-75.7734
-73.4883
-72.1869
-71.6216
-71.0369
-70.6622
-70.9687
-71.4668
-71.546
-71.5119
-71.0561
-69.9781
-69.0482
-68.3847
-67.6901
-66.9855
-65.8717
-76.0091
-73.998
-72.5035
-71.967
-72.0015
-71.3564
-71.8929
-72.1576
-72.4039
-72.5959
-71.7014
-71.0169
-69.7401
-69.2773
-69.3369
-68.7676
-66.8808
-65.4977
-64.8968
-74.6897
-73.0955
-72.526
-72.5134
-72.313
-72.0254
-72.572
-72.8175
-72.6888
-72.9892
-71.5292
-70.2909
-69.0736
-68.5315
-68.4689
-67.2101
-66.0185
-65.0558
-64.7807
-64.109
-74.5175
-72.5859
-72.7257
-72.5842
-72.4139
-72.5686
-72.746
-72.2536
-71.7552
-70.3672
-70.1951
-69.1643
-68.3671
-68.2653
-67.6255
-67.0672
-65.9169
-65.4769
-65.0849
-64.2691
-63.7009
-73.8258
-72.4692
-72.2414
-72.4412
-72.4793
-72.5367
-72.6309
-71.7211
-70.8534
-70.1179
-69.3989
-68.0766
-67.5069
-67.5667
-68.4231
-67.6437
-65.9715
-65.2439
-64.6566
-64.0189
-63.8197
-63.5254
-72.3668
-71.9423
-71.9052
-71.8106
-71.7796
-71.933
-71.4395
-70.5365
-69.992
-69.0615
-68.5783
-67.3858
-66.8918
-67.6704
-68.4964
-67.039
-65.4659
-64.7576
-64.5144
-64.3265
-64.136
-63.8964
-63.6836
-59.0517
-59.1643
-59.2226
-59.3264
-59.3211
-59.3341
-59.4842
-59.4907
-59.4557
-59.3612
-59.6748
-59.6994
-59.6592
-59.6386
-59.6705
-59.8445
-59.901
-59.8263
-59.8028
-59.9627
-60.0631
-60.1496
-60.216
-60.1959
-60.1104
-60.5072
-60.4979
-60.6812
-60.4314
-60.5408
-60.639
-60.6807
-60.9527
-61.0398
-61.1948
-61.3997
-60.8359
-61.0436
-61.2246
-61.2691
-61.8178
-61.9495
-62.0659
-62.2474
-62.1382
-61.6095
-61.5941
-62.0224
-62.244
-62.7081
-62.9057
-62.9083
-62.8952
-63.0317
-62.8375
-62.4097
-62.7685
-63.2931
-63.377
-63.8349
-64.267
-64.2526
-63.8773
-63.7159
-63.3613
-63.2301
-63.4237
-63.9428
-64.5748
-65.3427
-65.3837
-65.6093
-65.4787
-64.8028
-64.4072
-64.0022
-63.7814
-63.611
-64.7188
-65.8802
-66.4255
-67.5856
-67.9057
-67.0196
-66.3471
-65.6476
-65.1883
-64.6803
-64.3201
-64.164
-63.9668
-66.8087
-68.0083
-68.7758
-69.9357
-69.2252
-68.3311
-67.592
-66.4906
-65.7033
-65.314
-64.8796
-65.1182
-64.8263
-64.8825
-69.3156
-70.7146
-72.1413
-71.6419
-70.3458
-69.0683
-67.9751
-66.9399
-66.601
-66.0936
-65.7283
-65.5305
-65.5325
-65.2134
-65.1743
-72.3611
-74.5211
-73.3668
-71.9501
-70.6505
-69.6658
-68.5886
-67.7626
-67.022
-66.8518
-66.6382
-66.4517
-66.4614
-66.189
-65.9003
-66.0981
-75.1378
-74.6348
-73.4752
-72.3874
-70.8052
-70.006
-69.0154
-68.4028
-67.8594
-68.1533
-68.243
-68.0435
-67.1016
-67.5544
-66.6752
-66.5357
-66.0273
-76.1171
-74.9233
-73.4932
-72.3331
-70.9843
-70.1228
-69.2753
-69.2571
-69.2605
-69.7679
-69.8425
-69.1452
-68.8709
-68.2009
-67.906
-67.2787
-66.2559
-65.4181
-76.1914
-75.42
-73.1193
-71.83
-71.0736
-70.4778
-70.2801
-70.3894
-70.8562
-71.0705
-70.786
-70.3271
-69.2406
-68.4986
-67.8654
-67.2309
-66.4122
-65.4168
-64.4659
-75.9598
-74.1596
-72.2044
-71.6407
-71.5797
-71.0633
-71.377
-71.5236
-71.8472
-72.1354
-71.0567
-70.3178
-69.0913
-68.6906
-68.873
-68.259
-66.4698
-65.1331
-64.5793
-63.5942
-74.4629
-72.8649
-72.2587
-72.2492
-71.936
-71.6472
-72.0772
-72.282
-71.9791
-72.4233
-71.072
-69.9183
-68.7536
-68.3039
-68.1778
-66.8859
-65.7308
-64.8405
-64.6214
-64.0599
-63.507
-74.4636
-72.4441
-72.5715
-72.3605
-72.2188
-72.2655
-72.5196
-72.1133
-71.5843
-70.3018
-69.8553
-68.8052
-68.0948
-68.0572
-67.4873
-66.8555
-65.7741
-65.3545
-65.018
-64.2527
-63.6523
-63.2031
-73.7595
-72.4359
-72.1528
-72.3496
-72.3974
-72.3961
-72.4439
-71.544
-70.6968
-69.9696
-69.1339
-67.9284
-67.3712
-67.4342
-68.282
-67.5992
-65.9167
-65.1783
-64.5802
-63.9903
-63.785
-63.4889
-63.2806
-72.3326
-71.919
-71.8725
-71.7338
-71.7121
-71.8998
-71.3634
-70.4819
-69.89
-69.0254
-68.6132
-67.3547
-66.828
-67.6291
-68.4147
-67.0162
-65.4349
-64.7035
-64.4903
-64.3108
-64.1231
-63.8833
-63.6577
-63.4201
-58.933
-59.0617
-59.1078
-59.1869
-59.1998
-59.1454
-59.3461
-59.3487
-59.2942
-59.3015
-59.4614
-59.4828
-59.445
-59.3918
-59.369
-59.653
-59.6816
-59.6849
-59.6448
-59.7403
-59.7387
-59.8373
-59.874
-59.8803
-59.908
-60.0436
-60.0563
-60.1803
-60.1709
-60.2168
-60.2739
-60.1945
-60.5479
-60.5277
-60.7027
-60.8828
-60.3613
-60.5293
-60.6305
-60.7777
-61.0737
-61.0223
-61.1527
-61.3316
-61.593
-60.9418
-60.9705
-61.2366
-61.3705
-61.9014
-61.892
-62.0077
-62.0878
-62.0727
-61.9478
-61.5248
-61.4539
-62.0341
-62.2206
-62.7469
-62.6533
-62.7425
-62.7579
-62.9183
-62.843
-62.5202
-62.1287
-62.5382
-62.9572
-63.1941
-63.738
-63.7998
-63.882
-63.6743
-63.464
-63.1761
-62.9886
-62.9541
-63.3625
-64.0357
-64.3418
-65.2104
-65.3826
-65.1859
-65.0262
-64.4565
-64.2164
-63.8222
-63.5422
-63.4063
-63.2569
-64.8805
-65.4871
-66.1762
-67.0345
-67.108
-66.533
-65.7717
-65.2896
-64.7331
-64.488
-64.1329
-63.8676
-63.7838
-63.6621
-66.7311
-67.912
-68.6147
-69.1053
-68.3535
-67.5564
-66.893
-66.0116
-65.3358
-65.2319
-64.6034
-64.6837
-64.5308
-64.4958
-64.2015
-69.2887
-70.0836
-71.3124
-70.6688
-69.6508
-68.3592
-67.3295
-66.3038
-66.4358
-65.6888
-65.5772
-65.0961
-65.2569
-65.1893
-64.8816
-64.7118
-72.0935
-73.5833
-72.6864
-71.2549
-69.9361
-69.0393
-67.9905
-67.3523
-66.6398
-66.5734
-66.3221
-66.0002
-66.0494
-65.9362
-65.4239
-65.4191
-64.8576
-74.5988
-74.0553
-72.8238
-71.7504
-70.1724
-69.4576
-68.4432
-67.9938
-67.4989
-67.4633
-67.6687
-67.626
-67.185
-66.7104
-66.1396
-65.9088
-65.1641
-64.7779
-75.6107
-74.6134
-72.8658
-71.6587
-70.4023
-69.7293
-68.9297
-68.7008
-68.9107
-68.9953
-69.0824
-68.7027
-68.2768
-67.7128
-67.3966
-66.8925
-65.7064
-64.9365
-64.0641
-75.9458
-74.9471
-72.6282
-71.4724
-70.6808
-70.0325
-69.8366
-69.8925
-70.1955
-70.304
-70.2282
-69.5274
-68.6162
-68.0319
-67.3481
-66.7591
-65.8642
-65.0012
-64.1151
-63.0011
-75.7151
-73.746
-71.8378
-71.3624
-71.2322
-70.7776
-70.9164
-70.8979
-71.1747
-71.5867
-70.4011
-69.5931
-68.4296
-68.2083
-68.4159
-67.7666
-66.0601
-64.7954
-64.2872
-63.5058
-63.013
-74.2499
-72.5415
-71.9856
-71.9195
-71.7218
-71.3616
-71.5961
-71.7546
-71.4345
-71.6545
-70.5861
-69.4585
-68.4483
-68.0786
-67.9452
-66.6518
-65.4869
-64.6594
-64.4755
-64.0698
-63.4513
-62.9059
-74.4471
-72.3319
-72.4034
-72.1388
-72.0313
-71.9882
-72.264
-71.9575
-71.262
-70.0661
-69.5274
-68.4664
-67.8257
-67.8559
-67.377
-66.6599
-65.6719
-65.2293
-64.924
-64.208
-63.5992
-63.1485
-62.9406
-73.755
-72.4023
-72.0655
-72.2432
-72.2824
-72.2564
-72.2785
-71.3689
-70.5419
-69.8196
-68.8636
-67.7352
-67.2047
-67.2943
-68.1334
-67.56
-65.873
-65.1117
-64.4996
-63.9575
-63.7415
-63.4611
-63.2443
-62.9165
-72.3009
-71.8942
-71.8407
-71.7103
-71.6865
-71.8679
-71.2706
-70.4518
-69.8047
-68.9871
-68.5831
-67.3105
-66.7859
-67.5753
-68.328
-66.9808
-65.4027
-64.6479
-64.4516
-64.2941
-64.1179
-63.872
-63.6297
-63.4109
-63.4445
-58.9418
-58.9782
-59.103
-59.1285
-59.0718
-59.1773
-59.2315
-59.1339
-59.0899
-59.348
-59.3618
-59.3389
-59.3022
-59.3072
-59.5013
-59.4985
-59.4939
-59.431
-59.4641
-59.5055
-59.7026
-59.6723
-59.6302
-59.6719
-59.7598
-59.8699
-59.9445
-59.7945
-59.8627
-59.8769
-59.9567
-60.1171
-60.132
-60.2636
-60.4054
-60.1589
-60.2297
-60.2319
-60.3906
-60.5677
-60.6303
-60.7526
-60.8641
-60.9561
-60.4274
-60.5202
-60.7293
-60.7945
-61.0298
-61.1035
-61.1687
-61.3357
-61.4862
-61.4501
-60.7903
-60.8824
-61.0668
-61.4266
-61.7849
-61.8397
-61.8778
-61.9265
-61.7974
-61.9123
-61.9169
-61.4598
-61.5564
-61.8532
-62.247
-62.4693
-62.6146
-62.5731
-62.6372
-62.6604
-62.6996
-62.443
-62.2779
-62.2439
-62.5184
-62.7675
-63.208
-63.5883
-63.8777
-63.5809
-63.3998
-63.2792
-62.8942
-62.903
-62.7716
-62.652
-63.3003
-63.832
-64.1011
-64.8571
-65.0602
-64.8702
-64.5964
-64.2688
-63.9668
-63.6802
-63.5242
-63.2005
-63.0914
-62.9966
-64.6703
-65.35
-66.005
-66.5379
-66.5151
-65.8728
-65.2204
-64.7449
-64.3809
-64.2438
-64.2551
-63.8435
-63.6714
-63.5134
-63.2229
-66.6989
-67.5993
-68.1523
-68.2913
-67.5841
-66.8283
-66.1803
-65.4909
-65.3401
-64.8243
-64.673
-64.3677
-64.3905
-64.3559
-63.872
-63.6434
-69.3306
-69.3698
-70.3197
-69.8086
-68.804
-67.9028
-66.8154
-66.0031
-65.6792
-65.4836
-65.2933
-65.1741
-64.8959
-64.5936
-64.6139
-64.2864
-63.8812
-71.9234
-72.4949
-71.8323
-70.42
-69.3364
-68.5196
-67.5095
-66.8747
-66.0719
-66.1819
-66.1302
-65.758
-65.9689
-65.0578
-65.196
-64.8071
-64.3899
-63.7884
-73.9542
-73.4187
-72.0625
-71.0604
-69.6261
-68.785
-67.8618
-67.6757
-67.3384
-66.934
-67.0452
-66.8083
-66.4206
-66.1016
-65.7309
-65.1808
-64.6526
-64.3341
-63.571
-74.8805
-74.1236
-72.2441
-71.049
-69.82
-69.2437
-68.5665
-68.3012
-68.2492
-68.361
-68.476
-67.8443
-67.617
-67.0544
-66.7997
-66.3755
-65.2318
-64.4687
-63.7332
-63.048
-75.4909
-74.4562
-72.1519
-71.0484
-70.2053
-69.6817
-69.3654
-69.4344
-69.5398
-69.3917
-69.5755
-68.768
-68.0434
-67.4993
-66.8935
-66.2966
-65.4221
-64.6177
-63.8133
-62.8115
-62.3778
-75.3068
-73.1873
-71.3854
-70.9447
-70.9004
-70.4577
-70.4052
-70.4109
-70.5895
-70.7592
-69.7608
-68.9381
-67.7958
-67.7516
-67.9663
-67.3029
-65.6919
-64.5121
-64.0524
-63.4325
-62.9532
-62.5509
-74.0036
-72.4227
-71.6868
-71.6175
-71.4156
-70.9569
-71.1901
-71.2372
-71.0239
-70.953
-70.0665
-68.9511
-68.1332
-67.9576
-67.763
-66.5851
-65.3386
-64.4859
-64.328
-64.0665
-63.3992
-62.8183
-62.6136
-74.3707
-72.2174
-72.223
-71.8987
-71.8496
-71.7229
-71.9543
-71.7919
-70.8933
-69.7374
-69.1874
-68.162
-67.5433
-67.6624
-67.2224
-66.4342
-65.613
-65.128
-64.8373
-64.1547
-63.5401
-63.0928
-62.8861
-62.4703
-73.7971
-72.3685
-71.9767
-72.1162
-72.1257
-72.1069
-72.1216
-71.1931
-70.3824
-69.6536
-68.6374
-67.5661
-67.0723
-67.162
-67.9859
-67.4996
-65.8176
-65.0488
-64.422
-63.9332
-63.7052
-63.4308
-63.2057
-62.8972
-62.8457
-72.2688
-71.8708
-71.8072
-71.6888
-71.6711
-71.831
-71.2328
-70.4218
-69.7544
-68.9542
-68.4848
-67.2665
-66.7468
-67.5226
-68.2358
-66.9364
-65.391
-64.5859
-64.4201
-64.2815
-64.1044
-63.8645
-63.6099
-63.4066
-63.445
-63.4385
-58.9815
-59.0011
-58.9729
-59.1199
-59.1632
-59.1464
-59.0653
-59.2212
-59.252
-59.19
-59.1089
-59.0759
-59.4261
-59.3892
-59.3465
-59.344
-59.3037
-59.3637
-59.4838
-59.5779
-59.4859
-59.4364
-59.4605
-59.511