/*--------------------------------*- C++ -*----------------------------------*\
  =========                 |
  \\      /  F ield         | OpenFOAM: The Open Source CFD Toolbox
   \\    /   O peration     | Website:  https://openfoam.org
    \\  /    A nd           | Version:  7
     \\/     M anipulation  |
\*---------------------------------------------------------------------------*/
FoamFile
{
    version     2.0;
    format      ascii;
    class       surfaceScalarField;
    location    "5.5";
    object      phi;
}
// * * * * * * * * * * * * * * * * * * * * * * * * * * * * * * * * * * * * * //

dimensions      [0 3 -1 0 0 0 0];

internalField   nonuniform List<scalar> 
54006
(
6.84685e-05
-0.0016501
0.00158668
-7.7617e-05
0.000161622
-8.12209e-05
-1.72422e-05
-0.000283877
6.41056e-05
-7.69694e-05
8.30538e-05
0.00150949
-8.61206e-05
3.88907e-05
-0.00157353
0.00151757
-6.05491e-05
0.000261644
0.00146193
-0.0015472
-0.000502536
0.000144411
-0.000277483
0.000201617
-0.000144879
-0.000316806
8.93742e-05
-0.00067
0.000590494
-0.000254854
3.175e-05
-6.00412e-05
8.53286e-05
0.00143024
-8.68368e-05
5.44336e-05
0.00144524
-6.82256e-05
1.05547e-05
-0.00297708
0.00294326
-3.72807e-05
0.000476549
0.00290461
-0.00312697
-0.000524672
0.000223036
-0.000504528
0.000349714
-0.00166971
-0.000541408
0.000169539
0.00040744
-0.000501342
-0.000488799
7.45142e-05
-0.000250125
0.000226347
-0.000293931
-0.000320742
0.000139036
0.000473657
-0.000284571
9.53707e-05
-0.00198035
0.00187522
-0.00023454
-1.71072e-06
-3.75822e-05
8.47267e-05
0.00135186
-8.75875e-05
5.77922e-05
0.00136974
-6.91233e-05
2.55154e-05
0.00289112
-4.16014e-05
4.35672e-05
-0.00367201
0.00363141
-4.02505e-05
0.000429123
0.00476029
-0.00475001
-0.000394944
0.000425928
-0.000546378
0.000259468
-0.00304688
-0.000548205
0.000427979
0.00157208
-0.00180244
-0.000552755
0.000196415
-0.000484176
0.000390733
-0.00179699
-0.000518906
0.000234935
-0.000604665
-0.000533984
0.000205063
-0.00132015
0.00114401
-0.000422357
8.59055e-05
-0.000230795
0.000233113
-0.000447917
-0.000326185
0.000157286
0.000340967
-0.000287546
0.000133015
0.0017441
-0.000260947
8.68286e-05
-0.0025473
0.00247707
-0.000207567
3.01922e-05
-4.00984e-05
9.67241e-05
0.0012618
-8.82219e-05
5.56697e-05
0.00129636
-6.98745e-05
3.83566e-05
0.00282586
-4.22174e-05
6.11547e-05
0.00357306
-4.44025e-05
3.73843e-05
-0.00285861
0.00283012
-4.9142e-05
1.48983e-05
0.00691056
-0.00657445
-2.18004e-05
0.000358371
-0.000403136
8.97408e-05
-0.00460055
-0.000599631
0.000175669
0.00380378
-0.00361099
-0.000335424
0.000405025
-0.000597799
0.000430073
-0.00312542
-0.000549666
0.000532722
-0.00203804
-0.000610391
0.000323507
-7.97964e-05
-1.37156e-05
-0.000577687
0.000202754
-0.000422375
0.000393462
-0.0019163
-0.000497662
0.000267889
-0.000708824
-0.000525349
0.000262473
0.00093771
-0.000457141
0.00021187
-0.00150462
0.00132351
-0.000366288
7.02322e-05
-0.000205083
0.000235507
-0.000587772
-0.000324186
0.000177042
0.000183109
-0.000289699
0.0001316
0.00162383
-0.000260516
0.000123065
0.00238369
-0.000229476
9.22495e-05
-0.00218698
0.00212075
-0.000196194
2.4264e-05
-4.97708e-05
0.000105948
0.00116245
-8.86537e-05
5.04646e-05
0.00122847
-7.08037e-05
4.89819e-05
0.0027496
-4.25998e-05
7.99137e-05
0.00349518
-4.42506e-05
5.31532e-05
0.00278628
-5.37121e-05
3.86588e-05
-0.00263127
0.00259855
-5.50799e-05
3.5063e-05
0.00719853
-0.00712863
6.15448e-06
0.000159091
-0.000143375
1.96573e-05
-0.00633604
-0.000444036
4.38764e-05
0.00626681
-0.00595404
-0.000202772
0.000597301
-0.000363174
0.000721833
-0.00488249
-0.000755034
0.000868455
-0.00410391
-0.000442445
0.000653828
0.00171982
-0.00194292
-0.000442638
0.000302051
-0.000588489
0.000313752
-0.0030857
-0.000524213
0.000527854
-0.00225758
-0.000590086
0.000442429
-0.000202161
-0.000601901
0.00033485
-0.000423018
0.000227893
-0.00050554
0.000165688
-0.00036089
0.00033512
-0.00197204
-0.000492026
0.00033284
-0.00085787
-0.000504414
0.000266362
0.000726478
-0.000448879
0.000278355
0.00110854
-0.000397468
0.000217329
-0.00163886
0.00147024
-0.000322744
6.5962e-05
-0.00019469
0.000243683
-0.000716069
-0.000326645
0.000163031
3.67923e-05
-0.000290436
0.000124623
0.00151704
-0.000258557
0.000124279
0.00230894
-0.000230129
0.000130815
0.00202982
-0.000216211
9.55606e-05
-0.00207466
0.00202864
-0.000207075
2.8843e-05
-5.56765e-05
0.000112433
0.00105624
-8.90365e-05
4.44898e-05
0.00116714
-7.18125e-05
5.68343e-05
0.00266547
-4.35098e-05
9.28308e-05
0.00340435
-4.46014e-05
6.64775e-05
0.00272958
-5.40291e-05
5.69827e-05
0.0025489
-6.1047e-05
6.48512e-06
-0.00245962
0.00245503
-5.69793e-05
0.000487264
0.00772917
-0.00761794
0.000292269
0.000313025
2.24207e-05
1.10744e-05
-0.00714116
-8.20272e-05
0.000167132
0.00711239
-0.00741887
0.000189377
0.000723515
-0.000261214
0.000452907
-0.00599723
-0.000665797
0.000853386
-0.00587969
-0.000503318
0.000790636
0.00565484
-0.00539795
-0.000596467
0.000553548
-0.00049699
-3.58207e-05
-0.00442553
-0.000811589
0.000608329
-0.00424395
-0.000695464
0.000757441
-0.00224017
-0.000460206
0.000463766
0.000128386
-0.000312385
-0.000387556
0.000189282
-0.000505682
0.000463657
-0.00328812
-0.000517168
0.000520562
-0.00242294
-0.00054658
0.000469921
-0.00044719
-0.000548617
0.00044468
-5.33734e-06
-0.000534995
0.000343544
-0.0012016
0.00104327
-0.000473429
0.000166865
-0.000312157
0.000341422
-0.00203705
-0.000466496
0.000356624
-0.0010558
-0.000487686
0.000289737
0.000478186
-0.000421235
0.000249693
0.000926441
-0.000392192
0.000290351
0.00127389
-0.000360657
0.000176395
-0.00157041
0.00149482
-0.000327989
7.06485e-05
-0.000204035
0.00024472
-0.000842932
-0.000319784
0.000151464
-0.000107982
-0.000288845
0.000121021
0.0014161
-0.000253683
0.000174656
0.00219861
-0.000230051
0.000160125
0.00192329
-0.00021725
0.000150961
0.00194911
-0.000230662
3.49676e-05
-0.00181706
0.00178043
-0.000198932
1.20451e-06
-5.74713e-05
0.000116284
0.000946069
-8.978e-05
5.93806e-05
0.00109131
-7.25828e-05
6.70561e-05
0.0025705
-4.39019e-05
0.00010508
0.00330164
-4.58746e-05
8.02654e-05
0.00265859
-5.38825e-05
7.23906e-05
0.00248276
-6.02832e-05
2.11833e-05
0.00243562
-6.28217e-05
-4.36522e-05
-0.00203603
0.00208768
-6.49769e-05
0.000815341
0.00780493
-0.00754934
0.00102918
0.000650295
0.000272073
0.00035578
-0.00739076
0.000360265
0.000109674
0.00785861
-0.00791207
0.000403184
0.000361365
0.000248456
-0.000132338
-0.00662863
-0.000114409
0.000215359
-0.00705291
0.000190039
0.000846037
0.0069748
-0.00706281
0.000221978
0.000530422
-0.000438048
-0.000407887
-0.00569164
-0.000270367
0.00067179
-0.00621945
-0.000389497
0.000857455
-0.00552683
-0.00047446
0.00023586
0.00385017
-0.00370441
-0.000514318
0.000270504
-0.000437248
0.000652101
-0.00462834
-0.0008081
0.00058131
-0.0043533
-0.000762987
0.000658891
-0.00256582
-0.000558787
0.000604003
-0.000561662
-0.000370252
0.000318844
0.000559506
-0.000616777
-0.000305585
0.000214559
-0.000456876
0.00021856
-0.00325815
-0.000531616
0.000480336
-0.00255634
-0.000507475
0.00061489
-0.000824245
-0.000494678
0.000547266
-0.000354959
-0.000496569
0.000504495
0.000822556
-0.000528423
0.000263821
-0.000830259
0.000741293
-0.000471889
0.00012789
-0.000314912
0.000338189
-0.00211076
-0.000438264
0.000376249
-0.00128112
-0.000465966
0.00029621
0.000218947
-0.000403636
0.000323526
0.000736527
-0.00038019
0.00033208
0.00107446
-0.000364711
0.000257908
0.0014033
-0.000376088
4.54556e-05
-0.00154024
0.00154047
-0.000338699
1.23091e-05
-0.000193075
0.000244685
-0.000966546
-0.00031401
0.000189928
-0.000279369
-0.000278945
0.000137461
0.00130278
-0.000245926
0.000204036
0.00207474
-0.000228773
0.000191306
0.00179923
-0.000217028
0.000191533
0.00184571
-0.00023299
5.65916e-05
0.00174087
-0.000226505
1.24356e-05
-0.00210899
0.00207396
-0.000219988
-5.24534e-05
-6.45877e-05
0.00011528
0.000837126
-9.10204e-05
7.13487e-05
0.0010037
-7.35177e-05
7.02777e-05
0.00247212
-4.4476e-05
0.000116105
0.00318727
-4.564e-05
8.99102e-05
0.00257534
-5.25344e-05
8.26813e-05
0.00240603
-5.98296e-05
3.46227e-05
0.00240365
-6.29293e-05
-3.91157e-05
0.00213578
-7.18032e-05
-3.89505e-05
-0.00152342
0.00156673
-6.93404e-05
0.00127829
0.00738164
-0.0076415
0.00229414
0.00088821
0.00119406
0.000949551
-0.00741847
0.000983582
0.000464104
0.00729521
-0.00740201
0.000781542
0.000162155
0.000580868
0.000143494
-0.00708974
0.000394266
0.000102516
-0.00788411
0.000445151
0.000466716
0.00776758
-0.00757504
0.000589963
0.000295477
0.000204041
-0.000400465
-0.00671206
-0.000195231
0.000459376
-0.00700091
4.60101e-05
0.000732264
-0.00693206
0.000184488
8.45185e-05
0.00609512
-0.00583098
0.000109181
0.000489527
-0.000512493
0.000212282
-0.0054664
-0.000491859
0.000556137
-0.00605342
-0.000411224
0.000970882
-0.0058255
-0.000402815
0.000431125
-0.00360907
-0.000396931
6.8697e-05
0.00187978
-0.00193892
-0.000205037
0.000143183
-0.000288986
-2.35314e-05
-0.00453523
-0.000644532
0.000454747
-0.00448566
-0.000650152
0.000833203
-0.0030028
-0.000544315
0.000765807
-0.00100816
-0.000330825
0.000668067
-0.00079645
-0.000354151
0.000334673
0.000649104
-0.000647642
-0.0003779
0.000228799
-0.000460937
0.000277814
-0.00330579
-0.000554207
0.000476384
-0.00269745
-0.000490649
0.000631491
-0.00120409
-0.00046291
0.000592173
-0.000659204
-0.00045908
0.000589962
0.000589691
-0.000521587
0.000339915
0.000656943
-0.000526079
-1.89121e-06
-0.000763677
0.000825811
-0.000486676
1.09761e-05
-0.00032461
0.000303811
-0.0021652
-0.000412864
0.000377662
-0.00146503
-0.000442089
0.00028685
3.55143e-06
-0.00039996
0.000367874
0.000553001
-0.000383948
0.000375303
0.000885709
-0.00037544
0.000335735
0.00128685
-0.00039246
9.19958e-05
0.00152341
-0.000394434
5.89532e-05
-0.00194015
0.00192463
-0.00036969
-1.43329e-05
-0.000213822
0.000234402
-0.0010736
-0.000307762
0.000229256
-0.000475796
-0.000275491
0.000142878
0.00119131
-0.000240076
0.000231467
0.00193847
-0.000225013
0.00020198
0.00167363
-0.000215243
0.000222017
0.00172311
-0.00023376
7.99921e-05
0.00169531
-0.000232801
4.68396e-05
0.00201106
-0.000249564
-2.83021e-05
-0.00104125
0.00105771
-0.000247105
-4.83576e-05
-6.92446e-05
0.000114536
0.000729349
-9.18781e-05
7.71022e-05
0.000910093
-7.45184e-05
7.64168e-05
0.00236711
-4.49222e-05
0.000122588
0.00306591
-4.57054e-05
9.91936e-05
0.00248334
-5.28355e-05
9.77389e-05
0.00231491
-5.9155e-05
4.51811e-05
0.00236159
-6.29495e-05
-2.82702e-05
0.00217277
-7.16508e-05
-3.09829e-05
0.00160281
-7.69007e-05
-5.14322e-05
-0.00190642
0.00195618
-6.76591e-05
0.00121261
0.00674064
-0.00688308
0.00304478
0.000587184
0.00247545
0.00110381
-0.00746713
0.00216609
0.000492909
0.00771173
-0.00758055
0.00213416
0.000321418
0.0010433
0.000755125
-0.00727749
0.000979808
0.000503747
-0.00750574
0.00068608
0.000154208
0.00732855
-0.00713108
0.000896577
-1.16405e-05
0.000759065
-0.000149656
-0.00671213
0.000356364
8.06318e-05
-0.00747174
0.000360637
0.000371692
-0.00748637
0.000717052
0.000143979
0.00675466
-0.00687353
0.000649368
0.000382778
1.46425e-05
-0.000399176
-0.00632747
-0.00013738
0.000269638
-0.00687566
-3.3982e-05
0.000892838
-0.00684127
3.32569e-05
0.000412165
-0.0056731
4.55609e-05
6.71407e-05
0.00488308
-0.00472255
-4.97834e-05
-7.19329e-05
-0.000239279
-0.000368501
-0.00506054
-0.000582916
0.000310997
-0.00598176
-0.000419771
0.000912709
-0.00585327
-0.00046296
0.000722248
-0.00360278
-0.000365543
0.000494693
-0.00198181
-0.00018066
0.000244997
0.00191378
-0.0018368
-0.000192332
0.000304402
-0.000359965
4.31696e-05
-0.00437198
-0.000709079
0.000603585
-0.00464202
-0.00061537
0.000879917
-0.00342179
-0.000479587
0.000959203
-0.00155108
-0.00036843
0.000815755
-0.000957722
-0.000395345
0.000397095
-0.000598819
-0.000460154
0.000148346
0.000704317
-0.000727864
-0.00050459
-7.7922e-05
-0.000476653
0.000171557
-0.003294
-0.000579856
0.000449735
-0.00279268
-0.000531047
0.000580172
-0.00150409
-0.000483972
0.000544284
-0.0008471
-0.000451424
0.000634075
0.000367448
-0.00049561
0.000393397
0.000610534
-0.00053284
7.29941e-05
0.000870778
-0.000552044
-2.37205e-05
-0.000795794
0.00090843
-0.000516639
1.1318e-05
-0.000358811
0.000316781
-0.00224094
-0.000407875
0.000407703
-0.0016425
-0.000413843
0.000274572
-0.000186922
-0.00038331
0.000412998
0.000354933
-0.000383422
0.000402647
0.000702059
-0.000400964
0.00040211
0.00114484
-0.000413521
0.000147386
0.00146478
-0.00040123
0.000134251
0.00186984
-0.000427057
-2.54639e-05
-0.00103679
0.00106489
-0.000400627
-5.74448e-05
-0.000243354
0.000225611
-0.00117122
-0.000296504
0.000237016
-0.000670317
-0.000273154
0.000160274
0.00106778
-0.000235818
0.00024627
0.00178834
-0.000213635
0.000222855
0.00153879
-0.000213836
0.000225608
0.00161242
-0.000232428
0.000112855
0.00163107
-0.000237191
7.67276e-05
0.00192851
-0.000255245
-3.98479e-06
0.00105833
-0.000277176
-9.87044e-05
-0.00153903
0.00159545
-0.000256251
-5.82733e-05
-6.78134e-05
0.000119489
0.000616885
-9.20023e-05
8.2144e-05
0.000811331
-7.52605e-05
8.35324e-05
0.00225453
-4.54697e-05
0.000131956
0.00293473
-4.56952e-05
0.00011223
0.0023784
-5.29948e-05
0.000106143
0.00221535
-5.94185e-05
5.83512e-05
0.00230736
-6.32797e-05
-2.02886e-05
0.00220182
-7.17089e-05
-2.13126e-05
0.00163003
-7.75547e-05
-4.8197e-05
0.00200243
-7.49532e-05
-2.72904e-05
-0.00154444
0.00158265
-7.85791e-05
0.000508538
0.00719779
-0.00684454
0.0036258
0.000243517
0.00343343
0.000803734
-0.00671172
0.00330601
0.000276082
0.00699135
-0.00700622
0.00327647
0.000366785
0.0025609
0.00140264
-0.00740162
0.00178416
0.000881901
-0.00766392
0.0018713
0.000377499
0.00707818
-0.00731876
0.00215144
4.42293e-06
0.00104333
0.000396215
-0.00675019
0.00107473
0.000582084
-0.00760081
0.000573426
0.000429136
-0.00723309
0.000730648
-0.000107945
0.00743289
-0.00721678
0.000932392
-0.000109048
0.000787408
-0.000271476
-0.00616279
0.000246226
0.000116411
-0.0072185
0.000256351
0.000445362
-0.00703656
0.000358297
0.000463235
-0.00678971
0.00058216
0.000190578
0.00611712
-0.00613323
0.000542041
-2.56231e-05
-1.50917e-05
-0.000722629
-0.00621991
-0.000106158
0.000126878
-0.00687124
4.23132e-05
0.000836191
-0.00679366
-5.06959e-06
0.00142308
-0.00627115
-6.95221e-05
0.000345308
-0.00448509
-4.25145e-05
5.79012e-06
0.00406302
-0.00390537
3.17747e-05
5.74985e-05
-0.000135778
-0.00044028
-0.0048705
-0.000358686
0.000451852
-0.00576692
-0.000646028
0.00100858
-0.00589072
-0.000510982
0.00108755
-0.0038051
-0.000388978
0.000681484
-0.00203877
-0.000174318
0.000231587
-0.00166643
-0.000185532
0.000113807
0.00217986
-0.00203616
-0.000301492
-8.40135e-05
-0.000531377
-0.000121812
-0.00422368
-0.000712047
0.000190377
-0.00450581
-0.000585935
0.000711475
-0.00372709
-0.000441376
0.000950614
-0.00207129
-0.000365712
0.000825355
-0.00106494
-0.000452492
0.000420137
-0.000572262
-0.000448642
8.25123e-06
-0.000548958
-0.000574317
-0.000222668
0.00104959
-0.000805212
-0.000550019
-8.13195e-05
-0.000501899
0.000187673
-0.0032768
-0.000599974
0.000420974
-0.00282727
-0.000558538
0.000507215
-0.00171105
-0.000556731
0.00053915
-0.000960149
-0.000497076
0.000663739
0.000109642
-0.00045471
0.00044555
0.000589037
-0.000517553
0.000214831
0.000842132
-0.000571639
0.000122903
0.000961077
-0.000593342
-0.000124769
-0.000622112
0.000705215
-0.000500436
-7.52543e-05
-0.00039188
0.000308247
-0.00231805
-0.000400516
0.000421534
-0.00183413
-0.000400761
0.000301688
-0.000375553
-0.000366626
0.000434881
0.000166296
-0.000383284
0.000459658
0.000478237
-0.000396403
0.000399756
0.00100876
-0.00043903
0.000196252
0.00139134
-0.00042347
0.000196436
0.00177235
-0.00042345
3.02232e-05
0.00106153
-0.000457905
-0.000112353
-0.00185256
0.00188068
-0.000415099
-0.000122006
-0.000254997
0.000222747
-0.00126336
-0.000284345
0.000257036
-0.000874149
-0.000267564
0.000186138
0.000914183
-0.000222163
0.000253849
0.00163587
-0.000205238
0.000248838
0.00139378
-0.000205232
0.000257603
0.00147785
-0.000230717
0.000142727
0.00155412
-0.000239856
9.9795e-05
0.00183054
-0.000259306
1.63757e-05
0.00104636
-0.00028096
-7.6392e-05
0.0016315
-0.000285025
-5.33498e-05
-0.000763308
0.000811311
-0.000278195
-2.84071e-05
-7.88181e-05
0.000121566
0.000501681
-9.25093e-05
8.16428e-05
0.000713798
-7.61126e-05
8.81667e-05
0.00213751
-4.64061e-05
0.000151274
0.00278304
-4.50559e-05
0.000123851
0.002261
-5.21456e-05
0.000116852
0.00210445
-5.89462e-05
7.03154e-05
0.00224136
-6.37389e-05
-9.71164e-06
0.00222071
-7.24535e-05
-9.4694e-06
0.00164585
-7.80564e-05
-3.38955e-05
0.00203423
-7.54622e-05
-1.28518e-05
0.00160796
-8.7409e-05
-1.66548e-05
-0.000758931
0.000790909
-9.39025e-05
0.000413387
0.00651469
-0.00662828
0.00380986
0.000329194
0.00363308
0.000560533
-0.00692445
0.00391188
0.000233697
0.00696543
-0.00700812
0.00371087
0.000362793
0.00340528
0.00148985
-0.00683966
0.00293127
0.000673257
-0.00695389
0.00346233
0.000221074
0.00757479
-0.00749392
0.00335203
4.97008e-05
0.00256399
0.00103652
-0.00724293
0.00178619
0.00127857
-0.00794038
0.00136414
0.000234396
-0.00705799
0.00180528
-0.000199313
0.00698581
-0.00679817
0.00205518
-0.000324675
0.00113125
0.000310504
-0.00646969
0.000930013
0.000624743
-0.00754224
0.000507826
0.00047102
-0.00712884
0.000443516
0.000461353
-0.00720887
0.000724618
0.000177951
0.00708038
-0.00721317
0.00107782
-0.000118977
0.000636619
-0.000521781
-0.00568085
0.000259649
0.000185054
-0.00699893
-3.15126e-05
0.000562871
-0.00683326
0.000326377
0.00145862
-0.00672248
0.000255527
0.000600332
-0.00631022
0.000504128
-0.000307131
0.00562138
-0.00536936
0.000602938
-0.000206641
7.62057e-05
-0.00106862
-0.0059637
-0.000215428
4.12866e-05
-0.00642749
-0.000139342
0.00116254
-0.00687519
-3.01214e-05
0.000943496
-0.00596632
-0.000165851
0.000631892
-0.00447234
-3.26795e-05
-1.36367e-05
-0.00376388
6.12174e-05
-0.000304338
0.00388074
-0.00360312
0.000172308
-0.000245655
-0.000253808
-0.000511269
-0.00458117
-0.000560246
2.87424e-05
-0.00555347
-0.000410493
0.00081511
-0.00611098
-0.000529402
0.00122953
-0.00420834
-0.000386661
0.000965271
-0.00235695
-0.000210718
0.000268833
-0.00147315
-0.000216285
-9.75519e-05
-0.00180106
-0.00031483
-0.000292618
0.00262127
-0.00235689
-0.000495926
-0.000315692
-0.000514705
-0.000220316
-0.00390574
-0.000804172
0.000289977
-0.00450774
-0.000579119
0.000718744
-0.00414959
-0.000374966
0.000925128
-0.00259258
-0.000306064
0.000897348
-0.00120291
-0.000461349
0.000426464
-0.000587397
-0.000418272
0.000142073
-0.000402779
-0.000522063
-9.41856e-05
-0.000548731
-0.00061371
-0.000267549
0.00112587
-0.000987248
-0.000545857
-0.000200566
-0.000480743
0.00021282
-0.00328765
-0.000621252
0.000432481
-0.0028995
-0.00053869
0.000522689
-0.00194244
-0.000548149
0.000604156
-0.00114405
-0.000542109
0.000718767
-0.000188886
-0.000457657
0.000497644
0.000509768
-0.000473329
0.000228767
0.000860131
-0.000568067
0.000240258
0.000953219
-0.000607604
-8.44573e-05
0.000798524
-0.000571971
-0.000254723
-0.000778311
0.000941061
-0.000520816
-0.000159865
-0.00040834
0.000285641
-0.0023754
-0.000390176
0.00040945
-0.00199398
-0.000393074
0.000356667
-0.000593653
-0.00035319
0.00046114
-3.75446e-05
-0.000370076
0.000460463
0.000283052
-0.000399724
0.000439697
0.000862315
-0.000432055
0.000261646
0.0012645
-0.000431113
0.000198213
0.00167812
-0.000427654
7.32175e-05
0.00104567
-0.000464428
-5.76284e-05
0.00187065
-0.000466644
-7.59739e-05
-0.00113707
0.00113653
-0.000391935
-7.12639e-05
-0.000275568
0.000225356
-0.00135249
-0.00027804
0.000265134
-0.00107988
-0.000262101
0.000202329
0.000752213
-0.000219757
0.000292544
0.00146347
-0.000191031
0.000276712
0.001233
-0.000197318
0.000279749
0.00133899
-0.000229276
0.000193784
0.00144098
-0.000241045
0.000120545
0.00172178
-0.000261353
5.01445e-05
0.00101174
-0.000284301
-4.34875e-05
0.00164791
-0.000287783
-3.78204e-05
0.000860389
-0.000309134
-7.93426e-05
-1.42349e-05
7.66635e-05
-0.000277936
-2.02516e-05
-9.36284e-05
0.000120424
0.000386232
-9.36578e-05
7.80042e-05
0.000620406
-7.71212e-05
9.57716e-05
0.00201253
-4.6912e-05
0.000161232
0.00262059
-4.51887e-05
0.000132443
0.00213486
-5.13587e-05
0.000129441
0.0019812
-5.83388e-05
8.10446e-05
0.00216524
-6.38641e-05
1.52053e-07
0.00223031
-7.34931e-05
-3.44326e-06
0.00165542
-7.8582e-05
-2.47978e-05
0.00205631
-7.53421e-05
-5.9252e-07
0.00162058
-8.74872e-05
-1.4332e-05
0.000821809
-0.000103976
-4.76238e-05
0.000307381
-0.00024661
-0.00010705
0.000185848
0.00583069
-0.00582655
0.00403623
0.00028416
0.00388114
0.000475403
-0.0068012
0.00415797
0.000130398
0.00659131
-0.00659632
0.00391817
0.000205829
0.00373647
0.000880886
-0.00662979
0.00378492
0.000385154
-0.00693264
0.0041245
7.17188e-05
0.00707
-0.00695137
0.0037416
-2.39995e-05
0.00343685
0.00109359
-0.00673915
0.00279892
0.00115132
-0.00703006
0.00313468
-3.50474e-05
-0.00728079
0.00351864
-0.000154662
0.0074931
-0.00758275
0.00339703
-0.000392136
0.0023894
0.000876189
-0.00703161
0.00176411
0.00109716
-0.0077227
0.00109609
0.000590541
-0.00713508
0.00132171
0.000209256
-0.00662667
0.00188587
0.000150705
0.00728133
-0.00715525
0.00195634
-0.000353001
0.00125285
-2.04823e-05
-0.00614593
0.00108311
0.000624179
-0.00735249
0.000301141
0.000401465
-0.00693704
0.000477433
0.000723483
-0.00674719
0.000716977
0.000359581
-0.00714369
0.00089589
-0.000380586
0.00697034
-0.00696118
0.00114212
-0.00044315
0.000627566
-0.000828166
-0.00519399
0.000245977
-9.27302e-05
-0.00668769
8.24273e-05
0.0010094
-0.00665199
-5.9636e-05
0.000575486
-0.00640748
0.000379384
0.00054663
-0.00635991
0.000390475
0.0002495
-0.00568025
0.000551887
-0.000267589
0.00570753
-0.00557877
0.000437432
-0.000388169
0.000210981
-0.0008774
-0.00580922
-0.000213974
4.63449e-05
-0.00641416
-0.000246358
0.000636271
-0.00663033
-0.000205365
0.00151907
-0.00621159
-7.43961e-05
0.000999302
-0.00471774
4.55121e-05
0.000252938
-0.00371071
-6.99591e-05
-0.000219874
-0.00358963
0.000170047
-0.00025892
0.0042644
-0.00407844
-4.73502e-05
-0.000387079
-0.000496423
-0.000611935
-0.0044338
-0.000533165
-7.30203e-06
-0.00516356
-0.000652877
0.000897636
-0.0060177
-0.000682667
0.00114883
-0.0045202
-0.000441237
0.00102492
-0.00262508
-0.000246093
0.000563034
-0.00160476
-0.000215682
0.000178207
-0.00155484
-0.000498638
-0.000304253
-0.00191501
-0.000546638
-0.000375309
0.00261813
-0.00249863
-0.000507661
-0.000352895
-0.000503072
-5.1497e-05
-0.00371761
-0.000851324
0.000107806
-0.00427641
-0.000710829
0.000693026
-0.00446489
-0.000434152
0.000957553
-0.00304712
-0.000273819
0.000989632
-0.00143422
-0.000345617
0.000585685
-0.000706124
-0.000430663
0.000278621
-0.000402408
-0.000468496
0.000306585
-0.000546804
-0.000590317
-0.000227094
-0.000825545
-0.000632777
-0.000573253
0.00119417
-0.000975726
-0.000445768
-0.000283641
-0.000506366
0.000189455
-0.00324802
-0.00067735
0.000464501
-0.00303547
-0.000540328
0.00049108
-0.00211382
-0.000501725
0.000731936
-0.00144782
-0.000515171
0.000758362
-0.00056196
-0.000466935
0.000601856
0.000367439
-0.000477488
0.000356654
0.000809223
-0.000517429
0.0002276
0.000966193
-0.000610427
2.25504e-05
0.000835879
-0.000594292
-0.000211567
0.00111585
-0.000592825
-0.00018525
-0.00105331
0.00107302
-0.000431247
-9.35994e-05
-0.000378017
0.000285384
-0.00242711
-0.000381901
0.00041572
-0.00212945
-0.000405295
0.00037954
-0.000820967
-0.00034297
0.000486502
-0.00023228
-0.000352411
0.000471134
0.000112584
-0.00039403
0.000450048
0.000719079
-0.000426788
0.000346662
0.00111043
-0.000430865
0.000300444
0.00149917
-0.000432065
0.000145535
0.00098493
-0.000462304
2.15253e-05
0.00181662
-0.000475402
-4.19336e-05
0.00111555
-0.000441549
-0.000187106
-0.000124383
0.00017946
-0.000339249
-9.51309e-05
-0.000274553
0.000221968
-0.00143599
-0.000275469
0.000253232
-0.00127507
-0.000258087
0.000206409
0.000597974
-0.000218499
0.000310388
0.0012818
-0.000187246
0.000298559
0.00107282
-0.000196964
0.000291306
0.00120557
-0.000225758
0.000194535
0.00134027
-0.000242056
0.00013934
0.0016056
-0.000264046
6.32671e-05
0.000969834
-0.00028616
-1.12265e-05
0.00164148
-0.000291443
-7.99839e-06
0.000890506
-0.000310494
-7.50221e-05
0.000139205
-0.000310986
-0.000159984
0.000289848
-0.000178907
-0.000276517
-4.95069e-05
-0.000106616
0.000122322
0.000267756
-9.59571e-05
8.26589e-05
0.000521468
-7.73789e-05
0.000107544
0.00187655
-4.86819e-05
0.00017147
0.00244726
-4.50522e-05
0.000141006
0.00199992
-5.12477e-05
0.000140127
0.00184752
-5.78025e-05
9.17941e-05
0.00207955
-6.44443e-05
1.04571e-05
0.00222992
-7.39318e-05
4.56996e-06
0.00165583
-7.8479e-05
-8.46625e-06
0.00206173
-7.55283e-05
1.25701e-05
0.00161961
-8.69411e-05
-1.12748e-05
0.00084981
-0.000104214
-4.95624e-05
-0.000182363
-0.00011866
-3.55552e-05
0.000690126
-0.000644768
-0.000116852
2.56226e-06
0.00559279
-0.00564927
0.00438129
8.7753e-05
0.00414279
0.000386603
-0.00596032
0.00431942
-2.55054e-05
0.0059265
-0.00593507
0.0042007
0.000177101
0.00396118
0.000523261
-0.00669421
0.00412701
0.000320802
-0.00669232
0.00431831
0.000219196
0.00661134
-0.00676472
0.00392407
-3.51416e-05
0.00375529
0.000536903
-0.00634618
0.00367002
0.000646811
-0.00672126
0.00407805
0.000254936
-0.0072386
0.00412174
-5.00785e-05
0.00697757
-0.00711649
0.00377593
-0.000350232
0.00351605
0.00104723
-0.00666407
0.00270345
0.00112338
-0.00717514
0.00291778
0.000547501
-0.0072604
0.00315733
6.72709e-05
-0.00742129
0.00349917
-4.67486e-05
0.00720052
-0.00696534
0.0033593
-0.000278677
0.00228691
0.000474442
-0.0067382
0.00189507
0.00102181
-0.00759668
0.00124046
0.000462627
-0.00697037
0.000870219
0.000337771
-0.00639307
0.00147382
-1.45211e-05
-0.00679599
0.00190072
-0.000381106
0.00768092
-0.00766478
0.00194072
-0.000520401
0.00126455
-0.000145376
-0.00604643
0.00107623
0.000383814
-0.00704644
0.000300517
0.000470959
-0.00647437
0.000376904
0.000502118
-0.00681566
0.000619268
0.000231953
-0.00697464
0.000862595
0.000290328
-0.00711886
0.00101274
-0.000278411
0.0068545
-0.00672079
0.00101923
-0.000286857
0.000519014
-0.000687022
-0.00479501
-0.000219089
-0.000108325
-0.00617217
-0.000114879
0.000351451
-0.0062592
-2.55508e-05
0.00116506
-0.00636871
0.000255609
0.000790429
-0.00609355
0.000321896
0.00037058
-0.00577431
0.000366891
-9.36554e-05
-0.00560165
0.000448541
-0.000259375
0.0057619
-0.00579606
0.000472052
-0.000274715
-9.61029e-07
-0.000994592
-0.00556567
-0.00030442
-0.000228517
-0.00621342
-0.0001935
0.000817605
-0.00646758
-0.000329076
0.00138207
-0.00636789
-0.00028231
0.00124206
-0.00512657
0.000117301
0.000835493
-0.00402332
8.56634e-05
0.000205787
-0.00362336
-6.38086e-05
-0.000180252
-0.0037883
-0.00024409
-0.000464394
0.00509343
-0.00474089
-0.000310807
-0.000471214
-0.00062407
-0.000387271
-0.00419311
-0.000672399
-0.000201439
-0.00467759
-0.000709889
0.000603433
-0.00577594
-0.000805038
0.00119059
-0.00489633
-0.000539573
0.00120677
-0.00297936
-0.000304101
0.000806145
-0.00186656
-0.000204749
0.000304449
-0.00161419
-0.000182162
0.00021324
-0.00177312
-0.000547188
-0.000288578
-0.0024371
-0.00054669
-0.000684504
0.00341823
-0.0035148
-0.000299838
-0.000455159
-0.000480014
2.11554e-05
-0.00359968
-0.000912731
0.000270364
-0.0041654
-0.000768198
0.000498567
-0.0046375
-0.000545706
0.00105256
-0.00336122
-0.000440666
0.0010486
-0.00167833
-0.000319959
0.000856368
-0.000973731
-0.000332521
0.000349711
-0.000319734
-0.000506395
0.000172257
-0.000374849
-0.000585109
-6.4654e-05
-0.000665555
-0.000663103
-0.000548971
-0.000730489
-0.00054061
-0.000651994
0.00149625
-0.00127189
-0.000203389
-0.000164491
-0.000413031
0.00014906
-0.00313866
-0.000710023
0.000444231
-0.00313432
-0.000607012
0.000463513
-0.00226523
-0.000472891
0.00077212
-0.00172709
-0.000508078
0.000781946
-0.000938825
-0.000449118
0.000646263
0.000176658
-0.000472368
0.000453291
0.000753509
-0.000528402
0.000434094
0.000908466
-0.000593351
9.65951e-05
0.000874232
-0.00059984
3.58641e-05
0.00110063
-0.000593408
-0.000136318
0.00104644
-0.000471861
-0.00033977
-0.000664975
0.000691361
-0.000304969
-0.000208231
-0.000326717
0.000321419
-0.00253407
-0.000373746
0.000351808
-0.00219533
-0.0004146
0.000360029
-0.00100059
-0.000379288
0.000491172
-0.000423794
-0.00033224
0.000490722
-4.99703e-05
-0.000382019
0.000459682
0.000572097
-0.000415424
0.000347688
0.000957292
-0.000426802
0.000323932
0.00131847
-0.00043476
0.00018583
0.000904452
-0.00047415
7.51475e-05
0.00175264
-0.000484702
-1.42594e-05
0.00109122
-0.000444814
-0.000215102
0.000270043
-0.000392052
-0.00036317
0.000492734
-0.000298268
-0.000330529
-0.000168984
-0.000270413
0.000227506
-0.00151679
-0.000281776
0.000246158
-0.0014607
-0.00025333
0.000226298
0.00043532
-0.000214186
0.000309005
0.00111163
-0.000185865
0.000319906
0.000906252
-0.000199581
0.000297624
0.00107752
-0.000226417
0.000210249
0.00123979
-0.000243738
0.000142235
0.00149456
-0.000262802
7.33117e-05
0.000924888
-0.000287842
2.45246e-05
0.00161804
-0.000295706
1.22977e-05
0.000911111
-0.000311776
-6.0602e-05
0.000192601
-0.000314563
-0.000156907
-6.89793e-05
-0.000313569
-0.000178642
0.000857665
-0.000686565
-0.000304531
-3.75975e-05
-0.00011643
0.00012538
0.000145345
-9.95141e-05
8.76903e-05
0.000416336
-7.85148e-05
0.00012067
0.00172804
-4.95362e-05
0.000177054
0.00226741
-4.58877e-05
0.000149717
0.00185591
-5.07618e-05
0.000143711
0.0017095
-5.69435e-05
9.90351e-05
0.0019877
-6.49899e-05
1.90969e-05
0.00222064
-7.42656e-05
2.04973e-05
0.00163986
-7.8452e-05
5.54407e-06
0.00205317
-7.54683e-05
2.56651e-05
0.00160504
-8.66221e-05
-8.79798e-06
0.000876098
-0.000104431
-4.61633e-05
-0.000121342
-0.000119071
-3.71713e-05
-0.000596907
-0.000129349
-2.76538e-05
0.00102496
-0.000996928
-0.000117233
-0.000131865
0.00535318
-0.00542409
0.00469128
-6.57302e-05
0.00441098
-3.38462e-05
-0.00564434
0.00481948
-0.00015595
0.00518849
-0.00522356
0.00454681
0.000201507
0.0042328
0.000416282
-0.00603325
0.00426457
0.000178469
-0.00606069
0.00458737
0.000131062
0.0059746
-0.00604299
0.00435722
3.77016e-05
0.00397016
0.0002885
-0.00662934
0.00406279
0.000420265
-0.00666978
0.00433102
0.000210433
-0.00672502
0.00432311
-1.88395e-06
0.00671606
-0.00692764
0.00408746
-0.000359106
0.00377751
0.00122541
-0.00655879
0.0034111
0.000833932
-0.00670815
0.00394636
0.000596656
-0.0072714
0.0040617
0.000167751
-0.00723077
0.00413554