/*--------------------------------*- C++ -*----------------------------------*\
  =========                 |
  \\      /  F ield         | OpenFOAM: The Open Source CFD Toolbox
   \\    /   O peration     | Website:  https://openfoam.org
    \\  /    A nd           | Version:  7
     \\/     M anipulation  |
\*---------------------------------------------------------------------------*/
FoamFile
{
    version     2.0;
    format      ascii;
    class       surfaceScalarField;
    location    "5.5";
    object      phi_0;
}
// * * * * * * * * * * * * * * * * * * * * * * * * * * * * * * * * * * * * * //

dimensions      [0 3 -1 0 0 0 0];

internalField   nonuniform List<scalar> 
54006
(
6.82339e-05
-0.00165823
0.00159509
-7.77251e-05
0.000161882
-9.25566e-05
-6.38773e-06
-0.000283873
6.35757e-05
-7.71209e-05
8.3066e-05
0.00151794
-8.62112e-05
3.85428e-05
-0.00156821
0.00151278
-6.08359e-05
0.000260411
0.00145805
-0.00154272
-0.000502536
0.000143914
-0.000277528
0.00020085
-0.000133281
-0.000316719
8.90081e-05
-0.000673128
0.000593738
-0.000254949
3.09759e-05
-6.04408e-05
8.52992e-05
0.00143877
-8.69524e-05
5.43941e-05
0.00144064
-6.84704e-05
1.00943e-05
-0.00295719
0.00292343
-3.71715e-05
0.000486717
0.00288847
-0.00312215
-0.000525888
0.000221263
-0.000504697
0.000347814
-0.00166448
-0.000542022
0.000169134
0.000397626
-0.00049196
-0.000488328
7.37815e-05
-0.000250334
0.000226317
-0.00028243
-0.000320512
0.000138347
0.0004777
-0.000284634
9.40036e-05
-0.00198158
0.00187731
-0.000234596
-2.12762e-06
-3.75311e-05
8.47933e-05
0.00136038
-8.76866e-05
5.77036e-05
0.00136527
-6.92805e-05
2.485e-05
0.00287175
-4.16442e-05
4.27007e-05
-0.00368183
0.0036419
-3.99405e-05
0.000444012
0.00475616
-0.0047485
-0.000391597
0.000421719
-0.000546501
0.000261675
-0.00304711
-0.000547994
0.000425228
0.00156586
-0.00179628
-0.000551564
0.000195001
-0.000483727
0.000390386
-0.00179196
-0.00051907
0.000234418
-0.000596582
-0.000533471
0.000202121
-0.00132221
0.0011482
-0.000422434
8.38423e-05
-0.000230923
0.000234578
-0.000437722
-0.000326027
0.000156733
0.000345635
-0.000287477
0.000132302
0.00174614
-0.00026091
8.49022e-05
-0.0025524
0.00248292
-0.000207314
2.86184e-05
-3.96026e-05
9.69231e-05
0.00127015
-8.82891e-05
5.55722e-05
0.00129225
-7.02394e-05
3.74451e-05
0.0028074
-4.238e-05
6.03316e-05
0.0035842
-4.42778e-05
3.60071e-05
-0.00286798
0.00284104
-4.90066e-05
2.1313e-05
0.00692607
-0.0065937
-7.10518e-06
0.000351602
-0.000406318
9.55087e-05
-0.00460096
-0.000590702
0.000156323
0.00380924
-0.00359801
-0.000333926
0.00040394
-0.000598086
0.00042974
-0.00312519
-0.000550577
0.000531396
-0.00203333
-0.000607925
0.000321413
-8.62562e-05
-8.17765e-06
-0.000576423
0.000198816
-0.000422313
0.000396001
-0.00191252
-0.000496821
0.000268615
-0.00070288
-0.000524654
0.000260511
0.00094341
-0.000456893
0.000209227
-0.0015079
0.00132714
-0.000366001
6.87667e-05
-0.000204903
0.000236029
-0.000577844
-0.000324272
0.000177101
0.000187522
-0.000289441
0.000130342
0.00162617
-0.000260409
0.000121409
0.00239004
-0.000229112
9.05134e-05
-0.00218988
0.00212384
-0.000195776
2.34035e-05
-4.94698e-05
0.000106278
0.00117048
-8.87106e-05
5.0297e-05
0.00122471
-7.1047e-05
4.78247e-05
0.00273251
-4.31718e-05
7.89808e-05
0.00350721
-4.43718e-05
5.21011e-05
0.00279794
-5.32779e-05
3.7818e-05
-0.00263803
0.00260617
-5.4963e-05
5.21158e-05
0.00719137
-0.00712484
-1.03674e-06
0.000169693
-0.000147577
1.83824e-05
-0.00634709
-0.00043701
2.69186e-05
0.00627262
-0.00596286
-0.000187455
0.00061988
-0.000364421
0.000714581
-0.00487807
-0.000749699
0.00086442
-0.00408878
-0.000432951
0.000644401
0.00171666
-0.00193227
-0.000441302
0.00029964
-0.000587833
0.000316218
-0.00308437
-0.000525259
0.000529442
-0.00225529
-0.000589436
0.000440534
-0.000195165
-0.00060096
0.000330623
-0.000432131
0.000238735
-0.000504423
0.000164095
-0.00036046
0.000336809
-0.00196956
-0.000491354
0.00033357
-0.000852714
-0.000503456
0.000264147
0.000733322
-0.000448371
0.000275728
0.00111267
-0.000396735
0.000214756
-0.00164008
0.00147233
-0.000322492
6.43815e-05
-0.000194472
0.000244545
-0.000706563
-0.000326548
0.000163865
3.97079e-05
-0.000290026
0.000123233
0.00151952
-0.000258201
0.000122415
0.00231605
-0.00022985
0.000128968
0.00203357
-0.000215709
9.49848e-05
-0.00207943
0.00203344
-0.000206957
2.82041e-05
-5.5441e-05
0.000112352
0.00106435
-8.90965e-05
4.44877e-05
0.00116355
-7.20346e-05
5.56458e-05
0.00264958
-4.37592e-05
9.19436e-05
0.00341695
-4.48609e-05
6.55733e-05
0.00274169
-5.36918e-05
5.63579e-05
0.00255737
-6.08339e-05
6.04762e-06
-0.00246757
0.00246325
-5.6689e-05
0.000499232
0.00771789
-0.00762096
0.000285673
0.000334717
1.91708e-05
1.54187e-05
-0.00713718
-7.65676e-05
0.000167823
0.00709058
-0.007422
0.000189474
0.000754118
-0.000267759
0.000451688
-0.00600597
-0.000663427
0.000837562
-0.00587019
-0.000502827
0.000772865
0.00567912
-0.00539899
-0.00059605
0.000550563
-0.000496341
-2.18788e-05
-0.00443223
-0.000811546
0.000621624
-0.00424314
-0.000687522
0.000764698
-0.00223357
-0.000455813
0.000461756
0.000108622
-0.000294595
-0.000386463
0.000184247
-0.00050503
0.000460034
-0.00328074
-0.000516358
0.000521306
-0.00242114
-0.00054715
0.000466515
-0.000439106
-0.000547863
0.000440138
6.60246e-06
-0.000533239
0.000340285
-0.00120716
0.00104953
-0.000472327
0.000164536
-0.00031198
0.000341386
-0.00203325
-0.000466599
0.000359041
-0.00105243
-0.000486817
0.000288688
0.000484797
-0.000420387
0.00024769
0.000930216
-0.000391196
0.000287455
0.00127713
-0.000360024
0.00017511
-0.00157242
0.00149776
-0.000327965
6.90843e-05
-0.000204063
0.000245049
-0.000833709
-0.000319733
0.000151926
-0.000105777
-0.000288502
0.000119878
0.00141835
-0.000253086
0.000173042
0.00220645
-0.000229702
0.000158635
0.0019275
-0.00021684
0.00015078
0.00195373
-0.00023042
3.2819e-05
-0.00181359
0.00177893
-0.000199065
3.51948e-08
-5.7284e-05
0.000116167
0.000954328
-8.98735e-05
5.98187e-05
0.00108758
-7.29505e-05
6.58602e-05
0.00255571
-4.40304e-05
0.00010385
0.00331531
-4.59714e-05
7.94268e-05
0.00267089
-5.34952e-05
7.20219e-05
0.00249177
-6.01178e-05
2.1186e-05
0.00244387
-6.26389e-05
-4.50545e-05
-0.0020277
0.00208093
-6.48643e-05
0.000820316
0.00781168
-0.00755754
0.00102919
0.000655762
0.000270441
0.000373887
-0.00740566
0.000347315
0.000107828
0.00782896
-0.00789457
0.000411281
0.00037432
0.00024844
-0.000119503
-0.0066359
-0.000110097
0.000203882
-0.0070572
0.000192314
0.000808994
0.00698524
-0.0070553
0.000223405
0.00052655
-0.000429157
-0.000389617
-0.00569473
-0.000279243
0.000682639
-0.00619801
-0.000396621
0.000859814
-0.00551571
-0.00048122
0.000237051
0.00385317
-0.00370687
-0.000517648
0.000262367
-0.000436312
0.000635035
-0.00461464
-0.000812276
0.000586713
-0.00435425
-0.000765849
0.000657301
-0.00255438
-0.000557495
0.000601558
-0.000543827
-0.000368
0.000311823
0.000552007
-0.000608073
-0.000301936
0.000211104
-0.000456051
0.00022406
-0.00325552
-0.000530649
0.000483001
-0.00255452
-0.000506938
0.000613127
-0.000815661
-0.000495034
0.000543796
-0.000343318
-0.000494048
0.000501066
0.000829502
-0.000526819
0.000263054
-0.000835728
0.0007462
-0.000470742
0.000125942
-0.000314722
0.00033893
-0.00210728
-0.000437988
0.000376644
-0.00127794
-0.000465801
0.000297385
0.000223414
-0.000402941
0.000322278
0.000739763
-0.000379169
0.000329393
0.0010792
-0.000364027
0.000257034
0.0014075
-0.000376009
4.18255e-05
-0.00154018
0.00154177
-0.00033856
1.11217e-05
-0.000193191
0.000245548
-0.000958315
-0.000313862
0.000190509
-0.000277411
-0.000278789
0.000136163
0.00130484
-0.000245295
0.000202036
0.00208354
-0.000228359
0.000189387
0.00180439
-0.00021656
0.000191011
0.00185061
-0.000232714
5.41188e-05
0.00174211
-0.000226532
1.04498e-05
-0.00210887
0.00207423
-0.000219933
-5.36459e-05
-6.45722e-05
0.000115246
0.000845491
-9.11075e-05
7.18563e-05
0.000999784
-7.39326e-05
6.89556e-05
0.00245849
-4.46791e-05
0.000114648
0.00320224
-4.5606e-05
8.92539e-05
0.00258784
-5.21681e-05
8.2451e-05
0.00241548
-5.96556e-05
3.47449e-05
0.00241177
-6.27621e-05
-4.06371e-05
0.00213062
-7.1693e-05
-3.92275e-05
-0.00151707
0.00156068
-6.9253e-05
0.00125431
0.00739462
-0.00763512
0.00230699
0.00088039
0.00120676
0.000955311
-0.007427
0.000985557
0.000457594
0.00727244
-0.00738076
0.000787744
0.000161351
0.000578528
0.000161371
-0.00711292
0.000385664
0.00010348
-0.00788774
0.000440892
0.000429972
0.00776558
-0.00757365
0.000598375
0.000296141
0.000205921
-0.000386823
-0.00671086
-0.000193658
0.000457415
-0.00699386
5.17879e-05
0.00073623
-0.00692793
0.000188526
6.62947e-05
0.00611285
-0.00582674
0.000108048
0.000499374
-0.00050535
0.000201089
-0.00547051
-0.0004844
0.000567763
-0.00604968
-0.000408629
0.000971966
-0.00582303
-0.000403966
0.000428967
-0.00361646
-0.000399032
5.82737e-05
0.00187649
-0.00193772
-0.000202869
0.000137239
-0.000285767
-5.91974e-06
-0.00453104
-0.0006477
0.000457348
-0.00448316
-0.000657707
0.000822983
-0.00298272
-0.000547366
0.000756277
-0.000984665
-0.000329138
0.000661572
-0.000786705
-0.000349872
0.000333885
0.000652974
-0.000651289
-0.000374451
0.000225703
-0.000459864
0.000280627
-0.00330487
-0.000553023
0.00047516
-0.00269468
-0.000489007
0.000634943
-0.00119747
-0.000462688
0.000591508
-0.00065047
-0.000457112
0.000587656
0.000596799
-0.000519607
0.000339088
0.000662094
-0.000524768
-5.46758e-06
-0.000764409
0.000826802
-0.000485842
7.75445e-06
-0.000324036
0.00030337
-0.00216097
-0.000412125
0.000378433
-0.00146203
-0.000441826
0.000287739
5.28425e-06
-0.000399248
0.000365552
0.000556278
-0.000382972
0.000372836
0.000891624
-0.000375038
0.000335242
0.00129177
-0.000392533
8.80835e-05
0.00152579
-0.000393995
5.59156e-05
-0.00194241
0.00192775
-0.000369369
-1.6616e-05
-0.000213705
0.000235013
-0.00106637
-0.000307817
0.000230573
-0.000474613
-0.000275376
0.000141194
0.00119351
-0.000239691
0.000230164
0.00194692
-0.000224189
0.000199653
0.00168052
-0.000214888
0.000220709
0.0017292
-0.000233409
7.82026e-05
0.00169866
-0.000232723
4.47257e-05
0.00201177
-0.000249435
-2.96489e-05
-0.00103197
0.00104922
-0.000246761
-4.90025e-05
-6.91462e-05
0.000115326
0.000736992
-9.18283e-05
7.73934e-05
0.00090594
-7.46574e-05
7.53502e-05
0.00235438
-4.51708e-05
0.000121454
0.00308166
-4.55552e-05
9.85386e-05
0.00249645
-5.27581e-05
9.72085e-05
0.00232513
-5.90293e-05
4.52928e-05
0.00236969
-6.28712e-05
-2.99267e-05
0.00216933
-7.15444e-05
-3.14663e-05
0.00159743
-7.69782e-05
-5.33185e-05
-0.00190249
0.00195393
-6.73827e-05
0.00117853
0.0067381
-0.00687799
0.00306496
0.000580076
0.00248779
0.00110603
-0.00747497
0.00218474
0.000473009
0.00770508
-0.0075742
0.0021607
0.000307439
0.00105779
0.000779832
-0.00729737
0.000967891
0.000495306
-0.00748159
0.000694559
0.000132296
0.00731083
-0.00713265
0.000907238
-1.03213e-05
0.000756095
-0.000133809
-0.0067374
0.000353788
7.74396e-05
-0.00748558
0.000363477
0.000375836
-0.00748404
0.000711679
0.000114054
0.00675801
-0.0068582
0.000650805
0.000406205
1.44412e-05
-0.000384805
-0.00634097
-0.000147246
0.000281579
-0.006868
-3.33317e-05
0.000890438
-0.0068328
3.81804e-05
0.00041167
-0.00566766
4.67426e-05
6.3337e-05
0.00488177
-0.00473033
-4.84574e-05
-7.35279e-05
-0.000238902
-0.000349006
-0.00507142
-0.000577393
0.000321638
-0.00597701
-0.000421358
0.00090137
-0.00585304
-0.00045701
0.000706588
-0.00360431
-0.000366427
0.000489281
-0.00198602
-0.00017845
0.000243141
0.00191721
-0.00184022
-0.000189123
0.000300679
-0.00035645
5.11268e-05
-0.0043693
-0.000708046
0.000603471
-0.00464103
-0.000618144
0.000891783
-0.00341377
-0.000483503
0.000953978
-0.00152797
-0.000366529
0.000813052
-0.000950108
-0.000391131
0.00039509
-0.000600023
-0.000457141
0.000145351
0.000705851
-0.000727695
-0.000503425
-8.02423e-05
-0.000475704
0.000172465
-0.00329477
-0.000578855
0.000453383
-0.00279422
-0.000528429
0.000584086
-0.0015015
-0.000481328
0.00054422
-0.000842587
-0.00044924
0.000632631
0.000373476
-0.000493585
0.000392089
0.000616717
-0.000531077
6.80456e-05
0.000873201
-0.000551129
-2.70207e-05
-0.000794718
0.000908183
-0.000516371
7.16907e-06
-0.000358148
0.000314197
-0.00223424
-0.000406996
0.000408838
-0.00163901
-0.000413414
0.000274881
-0.000187455
-0.000382773
0.000411427
0.000358385
-0.000382618
0.000400748
0.000707556
-0.000399999
0.000399696
0.00115163
-0.000413887
0.000143985
0.00146857
-0.000401093
0.000131118
0.00187383
-0.000426465
-2.77394e-05
-0.00102799
0.00105698
-0.000400262
-5.88845e-05
-0.000242979
0.000226446
-0.00116407
-0.000296636
0.000238178
-0.000669889
-0.000273325
0.000159729
0.00106888
-0.000235131
0.000244539
0.0017967
-0.000212562
0.000221482
0.00154655
-0.000213155
0.000224013
0.00161957
-0.000232057
0.000111711
0.00163581
-0.000236975
7.4476e-05
0.00192971
-0.000255061
-5.97426e-06
0.00105113
-0.000276838
-0.000101448
-0.00152867
0.0015854
-0.000255364
-5.95306e-05
-6.76177e-05
0.000120094
0.000623963
-9.18964e-05
8.21289e-05
0.000807344
-7.53615e-05
8.249e-05
0.00224278
-4.55555e-05
0.000131638
0.0029503
-4.54433e-05
0.000111568
0.00239218
-5.28492e-05
0.000105078
0.00222668
-5.93846e-05
5.87754e-05
0.00231527
-6.33832e-05
-2.14742e-05
0.00219961
-7.16754e-05
-2.18666e-05
0.00162532
-7.75628e-05
-4.90679e-05
0.00200093
-7.49043e-05
-2.80231e-05
-0.00154877
0.0015877
-7.82931e-05
0.000495363
0.0071864
-0.00685056
0.00363069
0.000248563
0.00343795
0.000804808
-0.00671214
0.0033222
0.000260967
0.00700522
-0.00701168
0.00328347
0.000355421
0.00257835
0.00141179
-0.00741553
0.00179071
0.000851685
-0.00764147
0.00189563
0.000365486
0.00705305
-0.00730485
0.0021793
-3.01309e-06
0.0010501
0.000414679
-0.00677806
0.00106349
0.000576263
-0.00758442
0.000571904
0.000416815
-0.00722139
0.000742317
-0.000132862
0.00743493
-0.00722903
0.000948258
-0.000108756
0.000784511
-0.000252346
-0.00619192
0.000243561
0.000113317
-0.00722043
0.000256905
0.000441334
-0.00704413
0.000372663
0.000461782
-0.00678093
0.000584293
0.000174209
0.00611088
-0.00611453
0.000543585
-2.11279e-05
-1.32507e-05
-0.000698908
-0.00623549
-0.000104767
0.000137627
-0.00686953
3.8294e-05
0.000833944
-0.00679423
-4.46798e-06
0.00140098
-0.00626035
-6.35226e-05
0.000340296
-0.00449021
-4.4384e-05
9.33242e-06
0.00407595
-0.00392399
3.33977e-05
5.60982e-05
-0.00013413
-0.000427682
-0.00488037
-0.000358455
0.000454391
-0.00576997
-0.000635353
0.00102405
-0.00589314
-0.000513526
0.00107573
-0.00379376
-0.000389317
0.000667283
-0.00203484
-0.000171838
0.000232017
-0.00167237
-0.000183217
0.000110733
0.00219065
-0.00204641
-0.000298751
-8.45591e-05
-0.000529949
-0.000112936
-0.00422903
-0.000708563
0.000200719
-0.00450647
-0.000589935
0.00071435
-0.00371824
-0.000443937
0.000953119
-0.00205502
-0.000365356
0.000824522
-0.00105912
-0.000449409
0.000418882
-0.000572169
-0.000445779
7.29125e-06
-0.000550638
-0.000573444
-0.000225749
0.00105932
-0.000814202
-0.000549813
-8.43891e-05
-0.000501354
0.000184933
-0.00327762
-0.00059955
0.000423361
-0.00282997
-0.000557631
0.000508296
-0.00171062
-0.000552723
0.000537612
-0.000956083
-0.000494018
0.000662612
0.000114926
-0.000452553
0.0004428
0.000595467
-0.000515439
0.000210132
0.000846394
-0.000570418
0.00011899
0.000962303
-0.000593121
-0.000127875
-0.000614074
0.000697728
-0.000499889
-7.78271e-05
-0.000391495
0.000308248
-0.00231077
-0.000399854
0.000421747
-0.00182968
-0.000399891
0.000301308
-0.000376228
-0.000366222
0.000433647
0.00016935
-0.000382847
0.00045802
0.000483823
-0.000395424
0.000397344
0.00101694
-0.000438642
0.000193605
0.00139637
-0.000423579
0.000192323
0.00177759
-0.000422695
2.64997e-05
0.0010556
-0.000457566
-0.000115143
-0.0018388
0.00186663
-0.000414396
-0.000124879
-0.000254147
0.000222246
-0.00125545
-0.00028418
0.000257694
-0.000874307
-0.000267784
0.000185688
0.000913964
-0.000221605
0.000253728
0.0016438
-0.000204319
0.000248436
0.00140126
-0.000204143
0.000256432
0.00148536
-0.000230307
0.000142461
0.00155958
-0.000239518
9.73204e-05
0.00183289
-0.000258956
1.47008e-05
0.00104018
-0.000280681
-7.94675e-05
0.00162311
-0.000284143
-5.5789e-05
-0.000758443
0.000808498
-0.000277653
-2.74681e-05
-7.85591e-05
0.000121919
0.000508424
-9.23788e-05
8.17039e-05
0.000710088
-7.63441e-05
8.71127e-05
0.00212692
-4.66154e-05
0.000150846
0.00279884
-4.4946e-05
0.000123172
0.00227532
-5.17565e-05
0.000116535
0.00211602
-5.87169e-05
7.06017e-05
0.00224904
-6.37608e-05
-1.01444e-05
0.00221891
-7.25374e-05
-1.00779e-05
0.00164171
-7.79898e-05
-3.50776e-05
0.00203384
-7.53976e-05
-1.31311e-05
0.00161303
-8.71014e-05
-1.74095e-05
-0.000766598
0.000799258
-9.3544e-05
0.000404939
0.00650771
-0.00662291
0.00381294
0.000331407
0.00363666
0.000556283
-0.00692645
0.00391975
0.000227585
0.00696237
-0.00700721
0.00370891
0.000352678
0.00340616
0.00148436
-0.00683959
0.00295019
0.000644657
-0.00695705
0.0034746
0.000219039
0.00758162
-0.00750997
0.00335826
2.72792e-05
0.00257424
0.00105641
-0.00726121
0.00177864
0.00126333
-0.00792431
0.00138647
0.000229611
-0.00705729
0.00183527
-0.000221645
0.00699844
-0.00680248
0.00207212
-0.000329033
0.00113922
0.000334739
-0.00649701
0.000917986
0.000619412
-0.00753677
0.000509744
0.000475132
-0.00713067
0.000447394
0.000447005
-0.00720041
0.000728471
0.000157622
0.00708053
-0.00720557
0.00108988
-0.000126252
0.000638172
-0.00049918
-0.00571233
0.000257105
0.000192619
-0.00700738
-2.44907e-05
0.000554776
-0.00683848
0.00033042
0.00144238
-0.00671718
0.000267518
0.000611477
-0.00631067
0.000509257
-0.000297138
0.00562524
-0.00538006
0.000604876
-0.000205446
7.78175e-05
-0.00105606
-0.00597215
-0.000216901
4.35222e-05
-0.0064326
-0.000130826
0.00116446
-0.00687002
-2.63285e-05
0.000933542
-0.00595777
-0.000164862
0.000614683
-0.00446943
-3.17099e-05
-1.96065e-05
-0.00377589
5.91389e-05
-0.000303364
0.00388699
-0.00361321
0.000173715
-0.000253429
-0.000252451
-0.000504746
-0.00459414
-0.000553498
4.28785e-05
-0.00555933
-0.00041125
0.000815548
-0.00610566
-0.000524029
0.0012283
-0.00419657
-0.000385894
0.000961913
-0.00235334
-0.000208207
0.000264368
-0.0014758
-0.000213903
-9.30979e-05
-0.00181595
-0.000313286
-0.000294935
0.00264112
-0.00237511
-0.000495575
-0.000318905
-0.000513372
-0.000220718
-0.00391249
-0.000802565
0.000293282
-0.0045099
-0.000575055
0.000718446
-0.00413862
-0.000379701
0.000925563
-0.00258033
-0.000306571
0.000895185
-0.00119733
-0.000459717
0.000423528
-0.00058627
-0.000416035
0.000137404
-0.000402555
-0.000521133
-9.73532e-05
-0.000558103
-0.0006132
-0.000270414
0.00114089
-0.00100327
-0.000544893
-0.000204164
-0.000479769
0.000209356
-0.00328673
-0.000619656
0.000429876
-0.00289887
-0.000538778
0.000523821
-0.00194264
-0.000548124
0.000600212
-0.00113674
-0.000538629
0.00071691
-0.000182491
-0.000455491
0.000494494
0.000516552
-0.000470788
0.00022447
0.000866438
-0.000566348
0.000236659
0.000954665
-0.000607116
-8.90394e-05
0.000791448
-0.000571302
-0.000258576
-0.000769464
0.000933695
-0.000520688
-0.000163242
-0.000407722
0.000284212
-0.00236788
-0.00039001
0.000410116
-0.00198963
-0.000392329
0.000357142
-0.000594706
-0.000352867
0.000459773
-3.34717e-05
-0.000369445
0.000459352
0.000288997
-0.000398936
0.000437635
0.000871456
-0.000431138
0.000259592
0.00127133
-0.000430742
0.000192403
0.00168584
-0.000426909
6.92022e-05
0.00104217
-0.000463768
-6.09699e-05
0.00185646
-0.000465888
-8.00152e-05
-0.00113042
0.0011321
-0.000391849
-7.34896e-05
-0.000275098
0.000225729
-0.00134542
-0.000277164
0.000266579
-0.00108173
-0.000261633
0.000201935
0.000750897
-0.00021954
0.000292918
0.0014702
-0.000190075
0.00027543
0.00124145
-0.000196765
0.000279229
0.00134735
-0.000228821
0.000193598
0.00144696
-0.000240679
0.000117923
0.00172626
-0.000260952
4.84681e-05
0.00100672
-0.000284041
-4.66288e-05
0.00164101
-0.000287036
-4.04236e-05
0.000860147
-0.0003085
-8.07149e-05
-3.72499e-06
6.69884e-05
-0.000277612
-2.10341e-05
-9.32668e-05
0.000120522
0.000392908
-9.35204e-05
7.87378e-05
0.000616317
-7.73454e-05
9.50631e-05
0.00200267
-4.7152e-05
0.000160657
0.00263672
-4.51506e-05
0.000132196
0.00214922
-5.10473e-05
0.000129524
0.00199272
-5.79828e-05
8.12211e-05
0.00217297
-6.38655e-05
-2.69538e-07
0.00222896
-7.35479e-05
-4.47685e-06
0.00165217
-7.85244e-05
-2.55994e-05
0.00205663
-7.51859e-05
-7.58268e-07
0.00162556
-8.71715e-05
-1.50921e-05
0.000830824
-0.000103576
-4.82364e-05
0.000310438
-0.000249034
-0.000106712
0.000178682
0.00583139
-0.00582937
0.00404183
0.000281479
0.00388392
0.000480656
-0.00680223
0.00415892
0.000128509
0.00659094
-0.00659604
0.00391711
0.000194883
0.00373567
0.000882131
-0.0066398
0.00379571
0.000374669
-0.00694122
0.00412374
6.26595e-05
0.00707291
-0.00694731
0.00373968
-4.411e-05
0.00343656
0.00110844
-0.00674395
0.00280087
0.00112746
-0.00702604
0.00315506
-4.32891e-05
-0.00729152
0.00352904
-0.00017259
0.00748005
-0.00757632
0.00340547
-0.000383183
0.00239539
0.000900902
-0.0070451
0.00174335
0.00110229
-0.00772168
0.00109314
0.000576258
-0.00711793
0.00134599
0.000200308
-0.00662725
0.00190674
0.000149269
0.00729079
-0.00718027
0.00196995
-0.000371879
0.00126066
1.15379e-06
-0.00616177
0.00107132
0.00063185
-0.0073621
0.00030409
0.00039536
-0.00693701
0.000475493
0.000717786
-0.00675262
0.000724197
0.000380219
-0.00714926
0.00090342
-0.000378814
0.00697266
-0.00694864
0.00114752
-0.000442743
0.000626079
-0.000819899
-0.00522107
0.000259097
-8.20756e-05
-0.00670934
8.46646e-05
0.0010049
-0.00665554
-4.78639e-05
0.000574117
-0.00640667
0.000379335
0.000534484
-0.00635579
0.000392834
0.00021545
-0.00566702
0.000561169
-0.000265671
0.00571783
-0.00559012
0.000439473
-0.000389465
0.000211123
-0.000875014
-0.00582245
-0.000207842
5.70809e-05
-0.00641812
-0.000245587
0.000641226
-0.00663048
-0.000196038
0.00151178
-0.00619719
-7.03865e-05
0.00099172
-0.00470611
4.20105e-05
0.000237406
-0.00371463
-6.60131e-05
-0.000221205
-0.00359704
0.000171074
-0.000257914
0.00428411
-0.00410251
-4.49041e-05
-0.000387525
-0.000496943
-0.000614947
-0.00444204
-0.000526836
-1.08098e-06
-0.00517988
-0.00063859
0.000904182
-0.00602514
-0.000677506
0.00115277
-0.00451006
-0.000437739
0.0010238
-0.00262403
-0.00024381
0.000555561
-0.00160164
-0.000214399
0.00016856
-0.00156124
-0.000499773
-0.000308601
-0.00192873
-0.000548424
-0.000378687
0.00263433
-0.00251265
-0.000508982
-0.000357659
-0.000500814
-6.24713e-05
-0.00371698
-0.000846728
0.000104926
-0.00428147
-0.000706048
0.000697823
-0.00445723
-0.000430449
0.000954222
-0.00304221
-0.000271836
0.000988696
-0.00143023
-0.000345456
0.000580223
-0.000703563
-0.000428153
0.000272749
-0.000400308
-0.000466561
0.000298813
-0.000552302
-0.000589089
-0.000233917
-0.000839512
-0.000632082
-0.000578907
0.00121202
-0.000990523
-0.000446055
-0.0002882
-0.000505911
0.000191244
-0.00325214
-0.00067541
0.000462841
-0.00303269
-0.000538559
0.000493687
-0.00211591
-0.000502048
0.000729135
-0.00143953
-0.000514693
0.000756971
-0.000554054
-0.000464683
0.000599771
0.000373724
-0.000474798
0.000351977
0.000817891
-0.000514627
0.000220127
0.000970554
-0.000609961
1.60794e-05
0.000830938
-0.000593482
-0.000216551
0.00111061
-0.00059264
-0.000189197
-0.00103653
0.00105756
-0.000432529
-9.77283e-05
-0.00037801
0.000282519
-0.00241628
-0.000381729
0.000417942
-0.00212665
-0.000404355
0.00038004
-0.000823036
-0.000342104
0.000486245
-0.000227969
-0.000351696
0.000471062
0.000116967
-0.000393046
0.00044795
0.000729595
-0.000425796
0.000344816
0.0011191
-0.000430119
0.000297309
0.00150698
-0.000431275
0.000142376
0.000982737
-0.00046138
1.66119e-05
0.00180424
-0.000474796
-4.61602e-05
0.00111336
-0.000441411
-0.000188693
-0.000108599
0.000163693
-0.000338965
-9.63367e-05
-0.000274272
0.000221933
-0.00142927
-0.000274477
0.000254617
-0.00127737
-0.000257405
0.000207539
0.000595216
-0.000218428
0.000310203
0.00128776
-0.000186647
0.000297953
0.00108234
-0.000196724
0.000290769
0.00121464
-0.0002253
0.000192947
0.00134827
-0.000241864
0.00013703
0.00161179
-0.000263507
6.10397e-05
0.000966089
-0.000285837
-1.40752e-05
0.00163627
-0.000290826
-1.06908e-05
0.00089289
-0.000309846
-7.67051e-05
0.000130635
-0.000310533
-0.00016116
0.000303482
-0.000192434
-0.000275736
-5.00651e-05
-0.000106283
0.000122463
0.000274345
-9.58431e-05
8.36902e-05
0.00051653
-7.74237e-05
0.000106972
0.0018675
-4.91512e-05
0.000170394
0.00246418
-4.50016e-05
0.000140791
0.0020143
-5.10195e-05
0.000140033
0.00185928
-5.76435e-05
9.19556e-05
0.00208752
-6.44856e-05
9.63419e-06
0.00222943
-7.39623e-05
3.99644e-06
0.00165302
-7.83896e-05
-9.29847e-06
0.00206274
-7.53282e-05
1.24243e-05
0.00162455
-8.65953e-05
-1.21171e-05
0.000859583
-0.000103813
-5.02938e-05
-0.00018403
-0.000118289
-3.59972e-05
0.000698037
-0.000652168
-0.000116584
1.9294e-08
0.00558236
-0.00564212
0.0043836
8.84276e-05
0.00414803
0.000381063
-0.00595725
0.00432608
-2.54862e-05
0.0059241
-0.00593209
0.00420383
0.000171044
0.0039602
0.00052568
-0.00669678
0.00413072
0.000305836
-0.00668496
0.00431667
0.000213653
0.00660597
-0.00676345
0.0039236
-4.56704e-05
0.00375305
0.00054411
-0.00635424
0.00368298
0.000633199
-0.00673293
0.00408169
0.000250043
-0.00723575
0.00411886
-6.26914e-05
0.00696584
-0.00711201
0.00377595
-0.00034265
0.00351755
0.00105504
-0.00666714
0.0027114
0.00111525
-0.00716912
0.00293099
0.000528347
-0.00726631
0.00317776
6.95089e-05
-0.00742899
0.00351251
-5.49209e-05
0.00720103
-0.00695782
0.00336645
-0.00029503
0.00229478
0.000504724
-0.00675654
0.00188787
0.00101492
-0.00760516
0.00124376
0.000452485
-0.00695917
0.000877255
0.000329875
-0.00638975
0.00149641
-1.15703e-05
-0.00679989
0.00191815
-0.000388229
0.00769053
-0.00766716
0.00195599
-0.000517518
0.00126311
-0.000129828
-0.00606479
0.0010758
0.000382396
-0.00704968
0.000294419
0.000466069
-0.0064758
0.000381708
0.000503641
-0.00682281
0.000616161
0.000219147
-0.0069785
0.000868778
0.000260349
-0.00711632
0.0010262
-0.00028716
0.00686814
-0.0067248
0.00102567
-0.000277055
0.000518437
-0.000675425
-0.00481568
-0.000206234
-0.00010067
-0.00618306
-0.000109431
0.000364528
-0.00626997
-2.42032e-05
0.00115801
-0.00635774
0.000256985
0.00078722
-0.00609125
0.00031929
0.000360909
-0.00577013
0.000372435
-9.38344e-05
-0.00560719
0.000450866
-0.000249727
0.00577423
-0.00581482
0.000471882
-0.000271066
-3.45873e-06
-0.000997021
-0.00558032
-0.000297012
-0.000217556
-0.0062139
-0.000195585
0.000820912
-0.00646366
-0.000329144
0.00138507
-0.00636199
-0.000263543
0.00123884
-0.00511536
0.00012383
0.000822257
-0.00402286
8.35491e-05
0.000200123
-0.00363779
-5.6828e-05
-0.000184536
-0.00381475
-0.000240756
-0.000463647
0.00512704
-0.00477476
-0.000312218
-0.000465978
-0.00062831
-0.000400123
-0.00420193
-0.000664002
-0.000201436
-0.00468629
-0.000714059
0.000612925
-0.00578112
-0.000797715
0.00118934
-0.00488532
-0.000537359
0.00120532
-0.00297307
-0.000305318
0.000798431
-0.00185981
-0.000203848
0.000298871
-0.00161809
-0.000183666
0.000204754
-0.00178327
-0.000551169
-0.000295318
-0.00245121
-0.000548469
-0.000684677
0.00340844
-0.00351867
-0.000292985
-0.000457965
-0.00047914
1.96e-05
-0.00359477
-0.000911646
0.000262771
-0.00416301
-0.00076512
0.000512105
-0.004641
-0.000540698
0.00105197
-0.003359
-0.000436495
0.00104702
-0.001675
-0.00031712
0.000851408
-0.000969354
-0.000331302
0.000342391
-0.000314822
-0.000504053
0.000166122
-0.000381875
-0.000582982
-7.17746e-05
-0.000678065
-0.000662682
-0.000554642
-0.000744193
-0.000540321
-0.000661464
0.00150216
-0.0012764
-0.000199553
-0.000169183
-0.000412759
0.000146492
-0.00314304
-0.000710161
0.000447567
-0.0031337
-0.000604026
0.000463751
-0.00226552
-0.000472663
0.000773607
-0.00172156
-0.00050738
0.000780357
-0.000930739
-0.000447303
0.000645035
0.000181702
-0.000469746
0.000448965
0.000764956
-0.000526012
0.000430568
0.000914613
-0.000591944
9.02093e-05
0.000872177
-0.000599033
3.02707e-05
0.00109646
-0.00059299
-0.000141422
0.00103261
-0.000472432
-0.000345486
-0.000656892
0.000685314
-0.000304159
-0.00020987
-0.000326593
0.000320846
-0.00252193
-0.000373736
0.000352301
-0.00219125
-0.000414812
0.000360239
-0.00100177
-0.000378323
0.000491596
-0.000420197
-0.000331269
0.000491431
-4.73488e-05
-0.000380859
0.000457646
0.000583932
-0.000414261
0.000344467
0.000967382
-0.000425602
0.000320092
0.00132756
-0.000433755
0.000182585
0.000903361
-0.000473445
7.04457e-05
0.00174254
-0.000484196
-1.81658e-05
0.00109056
-0.000444526
-0.000218765
0.000255928
-0.000391586
-0.00036684
0.000512989
-0.000317012
-0.000329264
-0.000169889
-0.000269686
0.000227439
-0.00151032
-0.000280325
0.000247105
-0.00146248
-0.000252778
0.000226754
0.000432242
-0.000214212
0.000307397
0.0011181
-0.000185772
0.00031928
0.000916345
-0.000199144
0.000296591
0.00108767
-0.000226315
0.000209206
0.0012492
-0.000243475
0.000140428
0.00150132
-0.000262185
7.1804e-05
0.000922301
-0.000287527
2.23419e-05
0.0016139
-0.000295107
9.83816e-06
0.000915758
-0.000311108
-6.24105e-05
0.000185103
-0.000314021
-0.000158394
-8.21815e-05
-0.000312685
-0.000179707
0.000876485
-0.000705015
-0.000303497
-3.80346e-05
-0.000116214
0.000125753
0.000151694
-9.94128e-05
8.87508e-05
0.000410546
-7.86094e-05
0.000120386
0.00171953
-4.98418e-05
0.000175278
0.00228587
-4.61246e-05
0.000149363
0.00187043
-5.04926e-05
0.000143478
0.00172148
-5.66974e-05
9.83015e-05
0.0019965
-6.49332e-05
1.86724e-05
0.00222062
-7.43481e-05
2.02559e-05
0.00163717
-7.83649e-05
4.03567e-06
0.00205553
-7.52156e-05
2.434e-05
0.00161123
-8.63479e-05
-9.55161e-06
0.000886574
-0.000104035
-4.69735e-05
-0.00012216
-0.000118709
-3.7681e-05
-0.000603683
-0.000129097
-2.76648e-05
0.00102162
-0.000993345
-0.000117197
-0.000132705
0.00534694
-0.00541674
0.00468995
-6.93158e-05
0.00441398
-3.92782e-05
-0.00563558
0.00482735
-0.000157971
0.00518474
-0.00521555
0.00454689
0.000204944
0.00423278
0.000416139
-0.00603038
0.0042667
0.000167245
-0.00605968
0.00459226
0.000130911
0.0059714
-0.00604269
0.00435785
2.79068e-05
0.00396849
0.000295814
-0.006633
0.00406598
0.000420403
-0.00667028
0.00432884
0.000210127
-0.00672768
0.00432082
-1.4662e-05
0.00670851
-0.00692225
0.00408931
-0.000363496
0.00378082
0.00121365
-0.00655983
0.00342408
0.000822858
-0.00671327
0.00395571
0.000587083
-0.00727607
0.00406326
0.000165252