/*--------------------------------*- C++ -*----------------------------------*\
  =========                 |
  \\      /  F ield         | OpenFOAM: The Open Source CFD Toolbox
   \\    /   O peration     | Website:  https://openfoam.org
    \\  /    A nd           | Version:  7
     \\/     M anipulation  |
\*---------------------------------------------------------------------------*/
FoamFile
{
    version     2.0;
    format      ascii;
    class       volVectorField;
    location    "5.5";
    object      U;
}
// * * * * * * * * * * * * * * * * * * * * * * * * * * * * * * * * * * * * * //

dimensions      [0 1 -1 0 0 0 0];

internalField   nonuniform List<vector> 
18720
(
(0.480074 -0.766561 -1.74493)
(0.693135 0.00349882 -2.22918)
(0.488178 -0.777498 -1.71885)
(0.508508 -0.773774 -1.75344)
(0.190093 -0.749421 -1.78796)
(0.687058 0.759683 -2.31115)
(0.65596 0.000668297 -2.16176)
(0.725935 0.0174606 -2.28422)
(0.549642 -0.28718 -2.05738)
(0.213828 -0.768833 -1.76603)
(0.522232 -0.766443 -1.77093)
(0.188643 -0.733426 -1.80936)
(0.0305426 -1.49488 -1.00323)
(0.667414 1.48345 -1.71735)
(0.508047 0.779871 -2.3428)
(0.894477 0.800955 -2.21953)
(0.132702 0.226401 -2.32269)
(0.449229 -0.310031 -2.01489)
(0.691803 0.0426579 -2.33593)
(0.689787 -0.286202 -2.06552)
(0.267101 -0.958595 -1.81662)
(0.0234238 -1.50854 -0.991391)
(0.525449 -0.768304 -1.7885)
(0.194102 -0.707613 -1.83576)
(0.0526386 -1.44499 -1.04778)
(0.436763 -1.81719 -0.702389)
(1.24784 2.23623 -1.11149)
(0.536732 1.56828 -1.61054)
(0.927337 1.5811 -1.56335)
(0.872423 0.979347 -1.62264)
(0.132014 0.183247 -2.29004)
(1.20643 0.761575 -2.0769)
(0.306336 0.291005 -2.31202)
(0.63975 -0.58015 -2.03686)
(0.226722 -0.988936 -1.77392)
(0.631298 0.0659966 -2.38933)
(0.666784 -0.267427 -2.09579)
(0.292133 -0.909194 -1.86115)
(0.323823 -1.24529 -1.7437)
(0.433203 -1.82411 -0.721627)
(0.547639 -0.773617 -1.79952)
(0.200671 -0.690261 -1.86266)
(0.0667277 -1.44732 -1.0679)
(0.436559 -1.83542 -0.685487)
(0.314839 -1.42134 -1.11828)
(0.0321309 3.37041 -0.267454)
(0.859439 2.52111 -1.07744)
(0.228471 2.44378 -1.59543)
(0.731201 1.84675 -0.878291)
(0.997365 0.670854 -1.8773)
(0.977314 1.42083 -1.59752)
(1.00019 0.908104 -1.65747)
(0.528444 -0.0226541 -1.98853)
(0.712346 -0.640854 -2.00913)
(1.39376 0.723175 -1.98002)
(0.498322 0.277852 -2.27487)
(0.736716 -0.561417 -2.02269)
(0.473346 -0.689658 -1.82714)
(0.302037 -1.26537 -1.71048)
(0.817967 0.102183 -2.31367)
(0.546921 -0.224635 -2.14486)
(0.326137 -0.880742 -1.8825)
(0.305982 -1.22915 -1.74765)
(0.341227 -1.06322 -1.40917)
(0.316738 -1.40052 -1.10929)
(0.571305 -0.786295 -1.80918)
(0.201858 -0.677563 -1.88994)
(0.0725869 -1.42268 -1.08216)
(0.440507 -1.83319 -0.699762)
(0.300982 -1.43139 -1.12303)
(0.357183 -1.29324 -1.1789)
(-0.216425 3.59162 0.0486509)
(-0.162235 3.40434 -0.198728)
(0.18944 3.46206 -0.499395)
(-0.286834 3.26663 0.183518)
(0.351037 1.92295 -0.913352)
(1.08337 2.19433 -1.79407)
(1.0384 1.85157 -1.20745)
(0.736189 0.892021 -0.854216)
(0.48772 0.0145744 -2.00239)
(0.976229 1.40739 -1.56064)
(1.04736 0.975712 -1.65576)
(0.575871 0.0356634 -1.93037)
(0.768304 -0.127541 -1.6907)
(0.489101 -0.743376 -1.81319)
(1.273 0.746723 -1.95181)
(0.839889 0.277885 -2.20336)
(0.58963 -0.464709 -2.00668)
(0.585085 -0.626868 -1.79244)
(0.530347 -0.753986 -1.45029)
(0.283339 -1.08075 -1.39369)
(0.932096 0.0802332 -2.26889)
(0.387885 -0.135716 -2.21455)
(0.335118 -0.837727 -1.87729)
(0.379837 -1.19516 -1.74668)
(0.394331 -1.0452 -1.42035)
(0.321551 -1.01782 -1.60874)
(0.350268 -1.2933 -1.18224)
(0.578693 -0.788628 -1.83048)
(0.192869 -0.656931 -1.91879)
(0.0805835 -1.3971 -1.10089)
(0.438468 -1.82888 -0.71345)
(0.309338 -1.41887 -1.12674)
(0.312983 -1.28636 -1.18636)
(0.0122189 -1.23449 -1.34117)
(0.108539 3.79492 0.305399)
(-0.010077 3.57534 0.0956738)
(0.108184 3.53597 -0.271569)
(0.223974 3.69484 -0.0255871)
(1.22761 2.89202 -0.397132)
(1.57134 2.51851 -1.75981)
(1.89183 2.7585 -1.06415)
(1.27552 2.69041 -1.06533)
(0.637134 0.849572 -0.965796)
(0.853657 2.46819 -1.72135)
(1.23451 2.0727 -1.64663)
(1.06212 1.06466 -0.8556)
(0.618127 0.0991059 -1.2978)
(0.527483 -0.215137 -1.72419)
(0.976647 1.44375 -1.59494)
(1.11489 1.00874 -1.57124)
(0.769041 0.0773236 -1.80697)
(0.822811 -0.10944 -1.57229)
(0.681668 -0.544809 -1.55884)
(0.487517 -0.817228 -1.39568)
(1.28071 0.647919 -1.86824)
(0.951153 0.215173 -2.17652)
(0.450667 -0.398611 -1.92418)
(0.38639 -0.554386 -1.76514)
(0.584845 -0.696152 -1.4516)
(0.53618 -0.728579 -1.52638)
(0.306864 -1.011 -1.59298)
(1.02265 0.0364495 -2.24551)
(0.241737 -0.0758234 -2.29482)
(0.294569 -0.81937 -1.83305)
(0.396157 -1.2045 -1.74678)
(0.455417 -1.03007 -1.43953)
(0.456119 -1.00141 -1.59888)
(0.18591 -0.891753 -1.57264)
(0.098745 -1.22663 -1.359)
(0.558376 -0.782974 -1.86116)
(0.197185 -0.659514 -1.93618)
(0.0846315 -1.38321 -1.12182)
(0.456421 -1.81605 -0.750848)
(0.312099 -1.41275 -1.12942)
(0.348278 -1.28481 -1.16715)
(0.0711563 -1.21022 -1.34922)
(-0.506899 -1.04488 -1.27265)
(0.689553 3.73273 1.49046)
(0.079352 3.83869 0.264956)
(0.162832 3.69444 0.45599)
(-0.061479 3.89497 0.53628)
(0.298777 3.55832 -0.010227)
(0.21599 3.36508 -0.357823)
(0.466332 3.59069 0.0219345)
(0.851864 3.52834 0.645262)
(0.770418 2.99826 -0.738579)
(-0.0602071 3.17432 -0.42183)
(1.18172 2.95391 -0.684419)
(1.3378 2.55762 -0.867946)
(0.732328 1.89573 -1.41945)
(0.302924 0.102797 -1.42022)
(1.62992 1.62585 -2.06531)
(1.35409 1.85943 -1.97728)
(1.0558 1.08738 -1.60253)
(0.891284 0.18351 -1.1598)
(0.750822 0.312059 -0.591934)
(0.523974 -0.583019 -1.51848)
(1.12753 1.38868 -1.71997)
(1.18595 1.00622 -1.51046)
(1.04815 0.156278 -1.64334)
(0.866511 0.00330279 -1.40867)
(0.821074 -0.478353 -1.56433)
(0.423565 -0.371329 -1.55164)
(0.450564 -0.759703 -1.47474)
(1.2965 0.625903 -1.76837)
(1.10926 0.330941 -2.04261)
(0.42523 -0.256253 -1.83303)
(0.685702 -0.501541 -1.63815)
(0.648269 -0.658256 -1.44463)
(0.628326 -0.754926 -1.56525)
(0.134176 -0.748565 -1.47858)
(0.12395 -0.90009 -1.52986)
(1.11435 0.00508652 -2.2158)
(0.518492 -0.0682888 -2.23006)
(0.327911 -0.796018 -1.75918)
(0.371019 -1.18732 -1.73669)
(0.513004 -1.02705 -1.44923)
(0.528477 -0.996632 -1.60011)
(0.172381 -0.876027 -1.62018)
(-0.0722799 -1.04165 -1.42077)
(-0.496431 -1.05959 -1.26282)
(0.517787 -0.755681 -1.90391)
(0.215433 -0.651949 -1.95618)
(0.0877023 -1.36927 -1.14614)
(0.453262 -1.82158 -0.755429)
(0.315229 -1.40812 -1.12642)
(0.359372 -1.28496 -1.16359)
(0.0861244 -1.21149 -1.34526)
(-0.515003 -1.04307 -1.27173)
(-0.425759 -0.799387 -1.73535)
(0.53797 3.62691 2.75798)
(0.549724 3.95438 1.56807)
(0.723029 3.68426 1.35748)
(0.0817747 3.56805 1.17319)
(-0.174795 3.8128 0.530296)
(0.185923 3.59843 0.614802)
(0.247078 3.93804 0.473322)
(0.897561 3.88659 0.63797)
(0.252304 3.49987 0.827428)
(0.104388 3.36773 -0.372901)
(1.17461 3.31138 -0.0315375)
(1.11274 3.4489 0.546239)
(-0.14935 2.84457 0.126112)
(0.304357 1.86868 -1.10463)
(1.44643 2.432 -1.50987)
(1.29645 2.78138 -0.561201)
(1.38141 2.72725 -0.783739)
(0.84603 1.70762 -0.97319)
(0.188194 0.942371 -0.56538)
(0.395146 0.297034 -0.731187)
(0.904421 2.29049 -1.52691)
(1.42165 1.96723 -1.63815)
(1.46137 1.11937 -1.61561)
(1.30044 0.265532 -0.862496)
(1.06519 0.312344 -0.53689)
(0.692765 0.329677 -0.953365)
(0.316714 -0.397518 -1.47114)
(1.23912 1.27433 -1.83648)
(1.267 0.968958 -1.499)
(1.17315 0.20795 -1.46553)
(0.932239 0.103042 -1.27082)
(0.913847 -0.433941 -1.51337)
(0.581504 -0.367412 -1.58093)
(0.142818 -0.378807 -1.44239)
(0.11833 -0.760056 -1.39953)
(1.29615 0.595447 -1.72549)
(1.16864 0.293725 -1.93213)
(0.476083 -0.214009 -1.81032)
(0.856369 -0.549245 -1.59693)
(0.740883 -0.605874 -1.48014)
(0.768211 -0.734616 -1.61847)
(0.182999 -0.768088 -1.56652)
(0.266041 -0.95725 -1.54692)
(-0.121366 -1.06251 -1.3637)
(1.15842 -0.0139598 -2.15963)
(0.712288 -0.110812 -2.1939)
(0.231886 -0.759951 -1.72116)
(0.385922 -1.15839 -1.7018)
(0.49508 -1.00766 -1.45499)
(0.548901 -0.9946 -1.59518)
(0.217263 -0.869041 -1.65813)
(-0.0590355 -1.01085 -1.48104)
(-0.146499 -0.532048 -1.98272)
(-0.438817 -0.803188 -1.72272)
(0.529203 -0.758346 -1.9212)
(0.219309 -0.638116 -1.9824)
(0.0947703 -1.35658 -1.17869)
(0.451038 -1.82621 -0.763217)
(0.343409 -1.40231 -1.12764)
(0.393026 -1.28661 -1.14034)
(0.0798032 -1.20832 -1.34643)
(-0.531803 -1.04276 -1.28221)
(-0.372081 -0.786427 -1.75939)
(-0.414367 -0.962554 -1.42824)
(1.46945 3.43141 2.89887)
(0.422689 3.86479 2.64247)
(1.13283 3.68902 2.21671)
(0.521985 3.72571 2.52925)
(-0.124201 3.56321 1.54451)
(0.781706 3.61844 1.42504)
(0.211379 3.64625 0.965742)
(-0.131361 3.52064 0.921455)
(-0.288044 3.88137 1.14519)
(0.176423 3.41077 0.558315)
(0.52845 3.74352 0.381659)
(0.681039 3.61513 0.763923)
(0.151543 3.40407 1.10184)
(0.774697 3.03639 -0.181769)
(0.372209 3.22846 -0.506335)
(1.10913 3.2919 -0.287001)
(1.79149 3.09459 0.203772)
(0.501141 2.82164 0.0397912)
(-0.0954208 2.3819 0.214972)
(-0.0883182 0.925429 -0.844274)
(0.489497 2.60435 -0.794367)
(1.19 2.98784 -0.339708)
(1.81173 2.71295 -1.01353)
(1.07999 1.74702 -0.809988)
(0.910054 0.95468 -0.404244)
(0.321606 0.928278 -0.273782)
(0.662983 0.39459 -0.72591)
(1.1468 1.89457 -1.77547)
(1.57156 1.89346 -1.49269)
(1.5948 1.2892 -1.42929)
(1.50549 0.363831 -0.796297)
(1.30072 0.315112 -0.675554)
(0.713958 0.28581 -1.04728)
(-0.168957 0.334645 -0.951841)
(0.0391638 -0.358337 -1.43763)
(1.23095 1.29531 -1.94042)
(1.36284 1.00933 -1.53463)
(1.15277 0.405583 -1.36921)
(0.968418 0.207703 -1.30822)
(1.00644 -0.417139 -1.43286)
(0.774318 -0.380628 -1.59329)
(0.224037 -0.42333 -1.46345)
(0.055174 -0.402696 -1.75236)
(0.220179 -0.953641 -1.48845)
(1.26832 0.586351 -1.72056)
(1.34208 0.25351 -1.78396)
(0.612217 -0.162084 -1.74573)
(0.9918 -0.536494 -1.6016)
(0.755091 -0.581023 -1.56597)
(0.890702 -0.758532 -1.69305)
(0.205337 -0.767257 -1.66353)
(0.393226 -0.902748 -1.63699)
(-0.0355767 -0.54678 -1.87256)
(-0.220939 -0.526143 -1.93145)
(1.12753 -0.0152523 -2.09686)
(0.830459 -0.109867 -2.17074)
(0.217289 -0.706489 -1.72432)
(0.335793 -1.12197 -1.6573)
(0.459498 -0.95921 -1.45749)
(0.606259 -0.983672 -1.57702)
(0.242356 -0.88272 -1.68222)
(0.000434413 -0.97994 -1.54169)
(-0.111016 -0.515533 -2.02909)
(-0.417853 -0.794107 -1.77357)
(-0.403167 -0.968958 -1.42643)
(0.588395 -0.801532 -1.90626)
(0.194971 -0.605754 -2.0161)
(0.0950533 -1.34571 -1.20979)
(0.480838 -1.81657 -0.763252)
(0.323167 -1.4 -1.14051)
(0.377276 -1.26204 -1.16189)
(0.0986857 -1.20312 -1.35007)
(-0.563415 -1.03935 -1.28472)
(-0.38609 -0.778753 -1.77023)
(-0.43331 -0.990917 -1.42866)
(-0.273419 -0.798144 -1.68443)
(0.162419 3.42747 3.22687)
(-0.0773767 3.31715 3.42696)
(0.781493 3.22176 2.96124)
(0.117282 3.43954 3.43753)
(0.0218238 3.75786 2.90409)
(1.24737 3.57169 2.0395)
(0.836621 3.68529 2.21876)
(0.178903 3.57336 2.43839)
(-0.404083 3.56519 1.19647)
(0.643517 3.31138 1.86152)
(0.366511 3.73314 0.848053)
(0.266843 3.47119 0.69137)
(-0.0672669 3.65228 1.30149)
(-0.406516 3.27692 1.1436)
(0.265595 3.16759 0.382211)
(0.639329 3.52528 0.33335)
(0.7975 3.46925 0.647056)
(0.518307 3.51345 1.05172)
(0.12156 2.98573 0.777008)
(-0.396612 2.40114 0.238543)
(0.208926 3.19592 -0.200408)
(1.09397 3.2587 0.0385292)
(1.60078 3.16844 0.202757)
(1.3273 2.88257 -0.133546)
(0.449201 2.19965 0.0807007)
(0.246231 1.94406 -0.361834)
(0.163937 0.986647 -0.1503)
(0.590777 2.38757 -0.953871)
(1.69914 2.33194 -1.43691)
(2.12679 2.3809 -1.216)
(1.61285 1.53196 -0.797199)
(1.21588 0.803111 -0.451339)
(0.466416 0.853161 -0.252675)
(0.633405 0.965885 -0.521367)
(-0.399186 0.349839 -1.06545)
(0.997876 1.96124 -1.79036)
(1.63515 1.83367 -1.52492)
(1.6688 1.32814 -1.37978)
(1.44531 0.598333 -0.718152)
(1.38995 0.285025 -0.925514)
(0.695768 0.223274 -1.0959)
(0.0246837 0.350071 -1.06523)
(-0.146825 0.457146 -1.52066)
(-0.0618472 -0.376641 -1.68649)
(1.43991 1.06591 -2.05198)
(1.45113 0.901354 -1.60597)
(1.01359 0.47338 -1.59003)
(1.04965 0.149652 -1.57159)
(1.1352 -0.397842 -1.32376)
(0.926616 -0.45816 -1.53349)
(0.405448 -0.482556 -1.51824)
(0.173384 -0.470602 -1.82339)
(-0.0983701 -0.344199 -1.5456)
(-0.150324 -0.491478 -1.81591)
(1.336 0.540337 -1.69464)
(1.36687 0.274061 -1.76412)
(0.759609 -0.181651 -1.68081)
(1.10061 -0.535777 -1.54082)
(0.908355 -0.578465 -1.57225)
(0.757541 -0.724514 -1.83277)
(0.336697 -0.761047 -1.779)
(0.430801 -1.01358 -1.60525)
(0.0697597 -0.513647 -1.95299)
(-0.299397 -0.939293 -1.78436)
(-0.439966 -0.784894 -1.74857)
(1.12639 -0.0302169 -2.02419)
(0.990557 -0.147089 -2.08823)
(0.24455 -0.675393 -1.73558)
(0.310028 -1.07554 -1.60446)
(0.569961 -0.982226 -1.36579)
(0.633914 -0.993282 -1.56867)
(0.326304 -0.879815 -1.69524)
(0.0372333 -0.951584 -1.59121)
(-0.0137869 -0.527986 -2.06401)
(-0.387363 -0.785944 -1.80662)
(-0.14232 -0.397128 -2.10128)
(-0.192277 -0.791648 -1.68268)
(0.592634 -0.819971 -1.92197)
(0.151123 -0.552571 -2.05182)
(0.0917913 -1.33734 -1.2243)
(0.469234 -1.82753 -0.762217)
(0.344721 -1.39419 -1.14694)
(0.377899 -1.26619 -1.15394)
(0.107454 -1.20316 -1.35321)
(-0.544645 -1.01052 -1.31824)
(-0.343918 -0.779468 -1.78845)
(-0.388719 -0.974156 -1.46172)
(-0.145288 -0.796267 -1.70271)
(-0.130887 -0.400906 -1.96765)
(0.311205 3.19144 3.15422)
(-0.190902 3.40859 3.29571)
(0.515042 3.39193 3.17103)
(0.0827451 3.39223 3.49897)
(-0.00563682 3.37744 3.6582)
(1.57557 3.19892 2.61344)
(0.790017 3.39679 3.21201)
(0.265723 3.63952 3.36035)
(-0.210305 3.3484 3.07783)
(1.15226 3.38165 2.29121)
(1.32624 3.75651 1.59924)
(0.6662 3.48477 1.78883)
(-0.317497 3.33574 2.48774)
(-0.480725 3.67946 1.42296)
(0.675652 3.16942 1.77688)
(0.788257 3.62997 0.616631)
(0.706949 3.53384 0.490148)
(0.650037 3.4328 0.957865)
(0.0730627 3.47498 1.15861)
(-0.124141 2.88824 1.08338)
(0.115247 3.10982 0.460241)
(0.751195 3.42513 0.218966)
(1.26694 3.3773 0.378873)
(2.3177 2.8156 0.233497)
(0.51263 3.09442 0.569844)
(-0.37534 2.61409 0.865235)
(-0.291131 2.014 -0.280117)
(0.172472 3.12932 -0.348382)
(1.14866 3.08379 -0.147572)
(1.83682 3.10881 0.0997259)
(2.02744 2.66503 -0.229853)
(0.812275 2.10894 -0.0568021)
(0.185216 1.8201 -0.192459)
(-0.426849 1.77873 0.480809)
(-0.0194975 1.21198 -0.412931)
(0.502044 2.3393 -0.958656)
(0.726888 2.90397 -0.442801)
(1.85634 2.56985 -0.956915)
(1.91317 1.59366 -0.790819)
(1.25916 0.915887 -0.55863)
(0.624723 0.677288 -0.189554)
(0.0423187 0.960315 -0.412357)
(-0.694565 1.22563 -0.726804)
(-0.269341 0.545169 -1.5353)
(0.925596 1.78452 -1.96467)
(1.61865 1.77124 -1.56042)
(1.77367 1.39159 -1.22157)
(1.46609 0.696896 -0.613055)
(1.38813 0.205354 -0.996503)
(0.723884 0.169561 -1.10994)
(0.352792 0.169383 -0.971485)
(0.315752 0.328787 -1.50182)
(-0.470344 0.512846 -1.29705)
(-0.222328 -0.271814 -1.49643)
(1.49082 1.04364 -2.12814)
(1.59567 0.687156 -1.62865)
(1.09372 0.510303 -1.69414)
(1.09428 0.10894 -1.80257)
(1.27936 -0.350228 -1.33452)
(1.01298 -0.499633 -1.42205)
(0.443853 -0.478365 -1.50311)
(0.350152 -0.538956 -1.8782)
(0.035942 -0.359322 -1.62209)
(-0.320328 -0.432161 -1.75923)
(-0.372694 -0.932675 -1.74504)
(1.40755 0.464568 -1.65294)
(1.43808 0.248846 -1.74085)
(0.939822 -0.229391 -1.61294)
(1.12728 -0.538536 -1.47077)
(0.919227 -0.550618 -1.64072)
(0.898506 -0.761214 -1.79029)
(0.383443 -0.775392 -1.86313)
(0.481201 -0.874393 -1.69294)
(0.0454621 -0.513819 -1.97265)
(-0.190082 -0.910279 -1.83521)
(-0.262577 -0.552582 -1.92201)
(-0.18844 -0.386259 -2.08752)
(1.16145 -0.0792419 -1.96274)
(1.10568 -0.149037 -2.00948)
(0.228614 -0.650169 -1.76071)
(0.546985 -1.12903 -1.41167)
(0.637463 -0.999447 -1.3173)
(0.705428 -1.00227 -1.54343)
(0.390065 -0.896724 -1.69444)
(0.0708208 -0.918056 -1.63401)
(0.0464018 -0.519359 -2.08147)
(-0.348281 -0.785294 -1.84471)
(-0.101894 -0.410002 -2.11306)
(-0.157888 -0.029148 -2.17854)
(-0.123816 -0.39546 -1.95761)
(0.5812 -0.814169 -1.97065)
(0.141317 -0.514703 -2.0772)
(0.0974868 -1.31629 -1.23955)
(0.46191 -1.84284 -0.786376)
(0.368526 -1.41408 -1.14103)
(0.3863 -1.25958 -1.12602)
(0.121802 -1.20287 -1.35553)
(-0.51904 -1.00008 -1.35089)
(-0.340813 -0.775429 -1.79716)
(-0.397142 -0.961467 -1.47152)
(-0.0909182 -0.788663 -1.70329)
(-0.136544 -0.411058 -1.97648)
(-0.400142 0.111845 -2.32369)
(0.0447461 2.81975 3.05291)
(0.0927718 3.10909 3.23986)
(0.421799 3.27583 3.10395)
(0.0329997 3.19293 3.36265)
(-0.0845565 3.37277 3.50294)
(1.13799 3.16416 3.00846)
(0.333196 3.39145 3.49476)
(-0.138242 3.36003 3.4986)
(-0.345327 3.74006 3.3894)
(1.52504 3.10891 2.62687)
(1.39195 3.24573 2.87673)
(-0.0990216 3.5384 3.35142)
(-0.252076 3.64887 3.51988)
(-0.714694 3.3999 2.74766)
(1.3734 3.35481 2.1812)
(1.44749 3.58526 1.40139)
(0.749032 3.38808 1.32146)
(0.359991 3.24312 1.92971)
(0.062674 3.57448 2.17224)
(-0.672671 3.40635 1.51703)
(0.683542 3.05985 2.01362)
(1.25975 3.43048 0.358947)
(0.935113 3.365 0.547534)
(1.15594 3.25992 0.607661)
(0.867727 3.52393 0.790267)
(-0.456383 3.38142 1.58256)
(-0.59877 2.74766 0.849093)
(-0.332988 2.90963 0.631069)
(0.857531 3.26222 0.177874)
(2.14701 2.86402 -0.29891)
(1.06217 3.15932 0.496425)
(1.09901 2.97781 0.489656)
(-0.0662387 2.68137 0.796953)
(-0.442895 2.73516 0.869812)
(-0.939508 1.85394 0.551629)
(0.388224 3.07774 -0.507612)
(1.52618 2.79765 -0.353121)
(1.97117 2.85522 -0.306158)
(2.41631 2.40156 -0.2058)
(1.74405 1.94676 -0.250694)
(0.257444 1.80579 -0.0440619)
(-0.221083 1.77033 0.392563)
(-0.220685 2.06306 0.0804155)
(-0.96735 1.19957 -0.606882)
(0.431174 2.3791 -0.922914)
(1.19537 2.29096 -1.21604)
(2.10432 2.46835 -1.0702)
(2.06939 1.60222 -1.11321)
(1.58644 0.903956 -0.578165)
(0.669695 0.640373 -0.245245)
(0.143954 0.820458 -0.600328)
(-0.619184 1.16722 -0.808664)
(-0.413653 1.18511 -1.29241)
(-0.688904 0.536461 -1.08776)
(1.12131 1.54574 -2.10757)
(1.59406 1.58888 -1.82385)
(2.03947 1.47112 -1.14234)
(1.86928 0.933787 -0.488174)
(1.52714 0.242291 -0.836716)
(0.853068 0.0892875 -1.08878)
(0.348401 0.152895 -0.827702)
(0.550517 0.175327 -1.37936)
(-0.396186 0.421375 -1.35046)
(-0.764488 0.56476 -1.38373)
(-0.434682 -0.370006 -1.66658)
(1.42089 1.01061 -2.24203)
(1.68503 0.791306 -1.68288)
(1.2985 0.471758 -1.57248)
(1.3066 0.141332 -1.65378)
(1.30168 -0.327107 -1.38441)
(1.01742 -0.548155 -1.44508)
(0.646123 -0.582967 -1.36312)
(0.245582 -0.457443 -1.88371)
(0.214442 -0.436418 -1.68399)
(-0.177453 -0.482673 -1.81314)
(-0.0929457 -0.496706 -1.50715)
(-0.308159 -0.588439 -1.87471)
(1.44804 0.376963 -1.60336)
(1.5024 0.216565 -1.70505)
(1.10058 -0.251801 -1.58546)
(1.1313 -0.535376 -1.41569)
(1.0216 -0.534382 -1.61636)
(0.920796 -0.755731 -1.76441)
(0.646214 -0.794464 -1.85893)
(0.484512 -0.958415 -1.69148)
(0.181787 -0.578331 -1.92402)
(-0.0951434 -0.896909 -1.88427)
(-0.202851 -0.555309 -1.96409)
(-0.519737 -0.092409 -1.71296)
(-0.211626 -0.00924391 -2.14058)
(1.17927 -0.112011 -1.95597)
(1.0926 -0.134556 -2.0058)
(0.306986 -0.6127 -1.77393)
(0.57108 -1.20837 -1.35755)
(0.65639 -0.991315 -1.3199)
(0.781046 -1.05526 -1.4844)
(0.44066 -0.892088 -1.71234)
(0.0943205 -0.879222 -1.67475)
(0.0500599 -0.528921 -2.07661)
(-0.299559 -0.772147 -1.89609)
(-0.0416408 -0.435973 -2.12801)
(-0.111775 -0.0480287 -2.20807)
(-0.41711 0.0921409 -2.03567)
(-0.409176 0.116575 -2.30665)
(0.576921 -0.817293 -2.05202)
(0.189045 -0.536635 -2.0986)
(0.0945534 -1.29744 -1.27517)
(0.47112 -1.83965 -0.801985)
(0.386295 -1.42392 -1.138)
(0.421838 -1.24555 -1.09751)
(0.1438 -1.21219 -1.36288)
(-0.509987 -1.00967 -1.36579)
(-0.339507 -0.764409 -1.8061)
(-0.337127 -0.966156 -1.49479)
(-0.0321044 -0.810497 -1.70292)
(-0.152575 -0.410285 -1.98477)
(-0.39118 0.107692 -2.34065)
(-0.0947807 0.307205 -2.6047)
(-0.00172873 2.72805 3.06716)
(-0.266283 2.79365 3.20138)
(0.335317 2.81241 2.96761)
(-0.0417986 2.84412 3.29678)
(-0.228794 3.1593 3.39)
(0.58909 3.20915 3.09103)
(0.347189 3.20075 3.37427)
(0.0341231 3.24829 3.37016)
(-0.340401 3.40431 3.47629)
(1.0592 2.99241 2.94448)
(0.802852 3.24603 3.46034)
(0.295861 3.40749 3.52427)
(-0.167687 3.41759 3.49061)
(-0.590005 3.55487 3.6328)
(1.51987 2.98157 2.71465)
(1.41404 3.25353 2.64703)
(0.844905 3.56992 3.03717)
(0.152875 3.64708 3.20779)
(-0.0586222 3.4256 3.49568)
(-0.591021 3.51694 2.65816)
(1.16132 3.11064 2.6369)
(1.40534 3.526 1.47626)
(0.857916 3.38452 0.915757)
(0.610634 3.07485 1.45622)
(-0.0221477 3.25576 2.02369)
(-0.394476 3.70027 2.36011)
(-0.833656 3.30861 1.68646)
(0.762974 2.91856 2.00239)
(1.00392 3.4272 0.486282)
(1.24585 2.97573 0.372086)
(1.10107 3.24445 0.627876)
(0.585354 3.33827 1.02266)
(0.7572 3.43335 1.26112)
(-0.240346 3.26089 1.40643)
(-0.378706 2.74355 0.94783)
(0.163302 2.64849 -0.381675)
(0.767483 3.07081 -0.0282044)
(1.26515 2.87585 0.065046)
(2.21926 2.7018 0.135566)
(1.30468 2.85419 0.502588)
(0.779041 2.77316 0.576826)
(-0.0991278 2.68614 0.659037)
(-0.499297 2.79577 0.464033)
(-0.406321 2.08604 0.153801)
(0.523638 2.92627 -0.681879)
(1.10605 2.88456 -0.164416)
(2.22902 2.52483 -0.437788)
(2.4152 2.55926 -0.351581)
(1.85184 2.07574 -0.0202194)
(1.1212 1.75273 0.381001)
(0.552934 1.72338 -0.157669)
(0.0130066 1.90609 0.11445)
(-0.775388 2.40181 -0.228614)
(-0.575018 1.31567 -1.42933)
(0.813025 1.99456 -1.2606)
(0.833156 2.33121 -1.12696)
(2.08786 2.32834 -1.21973)
(2.15164 1.67793 -1.58495)
(1.87185 0.844768 -0.478018)
(1.08044 0.655472 -0.370882)
(0.610319 0.626361 -0.538881)
(0.401842 0.643751 -1.30178)
(-0.191997 1.19183 -1.14354)
(-1.13214 1.67433 -0.815921)
(-0.782014 0.543447 -1.36326)
(1.21627 1.36314 -2.26971)
(1.8378 1.32263 -1.88892)
(1.93838 1.59173 -1.51766)
(2.22779 0.705029 -0.892518)
(1.69709 0.15855 -0.806561)
(1.26017 0.0734356 -0.727547)
(0.586716 0.0453087 -0.910484)
(0.608782 0.192233 -1.28339)
(-0.154308 0.431123 -1.37243)
(-0.633896 0.361174 -1.47907)
(-0.770853 0.703136 -0.85566)
(-0.05594 -0.530844 -1.49285)
(1.46883 0.910141 -2.24613)
(1.74288 0.610945 -1.89679)
(1.35109 0.426702 -1.555)
(1.50372 0.0902187 -1.49878)
(1.36532 -0.194702 -1.3888)
(1.04875 -0.557956 -1.45449)
(0.747743 -0.620236 -1.37903)
(0.646365 -0.690807 -1.72819)
(0.362759 -0.462413 -1.72286)
(0.0487557 -0.583156 -1.88433)
(-0.0292273 -0.538758 -1.57712)
(-0.443785 -0.374904 -1.34675)
(-0.574731 -0.0958626 -1.61731)
(1.50532 0.330648 -1.54177)
(1.53171 0.181204 -1.69917)
(1.11287 -0.200775 -1.74935)
(1.18403 -0.49645 -1.38)
(1.1143 -0.63259 -1.54773)
(0.844438 -0.718648 -1.75623)
(0.522215 -0.748675 -1.85666)
(0.541683 -0.872165 -1.71124)
(0.236881 -0.467824 -1.98182)
(-0.0165456 -0.882546 -1.94427)
(-0.108907 -0.542084 -2.00211)
(-0.496866 -0.0855936 -1.75709)
(-0.90318 0.173302 -1.32976)
(-0.462232 0.125154 -2.00714)
(1.22714 -0.185144 -1.97113)
(1.16618 -0.0991392 -1.98948)
(0.461301 -0.687439 -1.72826)
(0.665805 -1.17244 -1.33398)
(0.669504 -0.984969 -1.33654)
(0.830002 -1.06035 -1.48984)
(0.468936 -0.900708 -1.73548)
(0.100737 -0.860402 -1.68451)
(0.104789 -0.507811 -2.08623)
(-0.20138 -0.771272 -1.94968)
(-0.0206005 -0.449627 -2.14209)
(-0.0751417 -0.0779215 -2.22774)
(-0.36087 0.0728412 -2.07937)
(-0.637796 0.35348 -2.14072)
(-0.117218 0.322783 -2.58143)
(0.584446 -0.834635 -2.16094)
(0.257977 -0.582901 -2.13613)
(0.0939698 -1.29557 -1.28214)
(0.446205 -1.83333 -0.848115)
(0.407694 -1.4337 -1.1257)
(0.416599 -1.2829 -1.09238)
(0.13628 -1.19197 -1.37687)
(-0.500397 -0.992992 -1.394)
(-0.294236 -0.758507 -1.819)
(-0.307845 -0.969829 -1.49605)
(0.0015467 -0.837436 -1.70253)
(-0.177929 -0.416772 -1.99126)
(-0.380168 0.103815 -2.35858)
(-0.0761433 0.289149 -2.62754)
(-0.0910874 0.473619 -2.78151)
(-0.157407 2.59158 3.12784)
(-0.13229 2.65721 3.11792)
(0.245136 2.67611 3.05093)
(-0.155518 2.51166 3.30434)
(-0.0833396 2.85275 3.30393)
(0.616677 2.85803 2.97161)
(0.241011 2.87716 3.21032)
(0.0758874 2.89736 3.37218)
(-0.304804 3.12912 3.3939)
(0.615956 3.19284 3.07546)
(0.638156 3.1962 3.36563)
(0.244586 3.26944 3.36588)
(-0.111897 3.27849 3.36637)
(-0.525517 3.26793 3.52811)
(1.32665 2.91438 2.8636)
(1.20187 3.11766 3.28067)
(0.627167 3.47982 3.51693)
(0.186866 3.45 3.5013)
(-0.197973 3.28273 3.58428)
(-0.505776 3.45303 3.59399)
(1.44085 2.91898 2.85549)
(1.80427 3.25619 2.37013)
(0.975477 3.29571 2.85128)
(0.521709 3.51515 2.89984)
(0.214195 3.33552 3.31994)
(-0.427411 3.28138 3.50363)
(-0.705815 3.69093 2.60426)
(1.21974 3.01464 2.55151)
(1.71934 3.4287 1.28457)
(0.950305 3.12826 1.14604)
(0.777171 3.06181 0.929076)
(0.483703 3.28062 1.63728)
(-0.017695 3.58798 1.95168)
(-0.49695 3.79413 2.06037)
(-0.718123 3.23696 1.57381)
(0.769935 2.78509 1.81773)
(1.37575 3.13398 0.516362)
(1.21907 2.95933 0.209877)
(1.394 2.96528 0.522873)
(1.2356 3.25538 0.793281)
(0.518488 3.36847 1.01788)
(0.145911 3.28276 1.1658)
(-0.18896 3.30977 1.20208)
(-0.63673 2.71183 0.625933)
(-0.0567182 2.57356 -0.385948)
(0.912718 2.90032 -0.275491)
(1.65758 2.54806 -0.277999)
(2.29411 2.5291 -0.143811)
(2.09662 2.58746 0.534171)
(1.50595 2.63992 0.366299)
(0.332058 2.63449 0.42455)
(-0.229894 2.77278 0.575255)
(-0.436718 2.90504 0.878973)
(-1.11281 2.40931 -0.153173)
(0.849364 2.61773 -0.889212)
(1.29801 2.82831 -0.291177)
(1.91345 2.67231 -0.478604)
(2.74343 2.3047 -0.623714)
(2.28882 1.97651 -0.548475)
(1.54042 1.69412 0.363161)
(0.539518 1.65289 -0.0859272)
(0.373531 1.67702 -0.0493176)
(-0.464324 2.24728 -0.856398)
(-0.947618 2.74547 -0.901482)
(-0.824317 1.57426 -1.09375)
(1.03033 1.74874 -1.36633)
(1.13874 2.00466 -1.33505)
(1.81072 2.00369 -1.52024)
(2.33643 1.64322 -1.8953)
(2.04368 0.889902 -0.398734)
(1.57903 0.506069 -0.690076)
(0.637244 0.724578 -0.363893)
(0.0610457 0.978201 -0.155754)
(0.124349 1.25799 -0.740597)
(-0.908737 1.73876 -0.945273)
(-1.3373 1.7094 -0.346047)
(-0.728779 0.63579 -1.08253)
(1.16551 1.38471 -2.26171)
(1.81195 1.3028 -2.05032)
(1.94808 1.51176 -1.73851)
(2.34659 0.73911 -1.05324)
(1.88545 0.181748 -1.16262)
(1.36174 0.0683563 -0.672132)
(0.806854 -0.0840837 -0.828488)
(0.884502 -0.0910796 -1.3836)
(-0.0687589 0.263052 -1.45116)
(0.062486 0.337595 -1.60102)
(-0.553742 0.570428 -0.949822)
(-1.08449 0.949009 -0.203883)
(-0.521649 -0.358333 -1.2479)
(1.60217 0.589075 -2.21502)
(1.61143 0.757585 -2.08309)
(1.39958 0.48369 -1.78432)
(1.6462 0.0611405 -1.34128)
(1.41004 -0.0971855 -1.52241)
(1.22631 -0.5731 -1.34727)
(0.834905 -0.685973 -1.38087)
(0.679742 -0.623281 -1.76381)
(0.464152 -0.560762 -1.82813)
(0.140264 -0.559245 -1.86885)
(-0.0760481 -0.485696 -1.53482)
(-0.540749 -0.282893 -1.25123)
(-1.12946 0.137885 -0.636746)
(-0.95496 0.19764 -1.30992)
(1.56731 0.255483 -1.4835)
(1.526 0.11178 -1.70033)
(1.10257 -0.20238 -1.85502)
(1.06182 -0.463816 -1.53633)
(1.26145 -0.679577 -1.40808)
(0.78394 -0.710239 -1.73055)
(0.562397 -0.719535 -1.78161)
(0.477089 -0.858297 -1.6764)
(0.183234 -0.538323 -2.00959)
(0.0472347 -0.885916 -1.9855)
(-0.0413053 -0.515202 -2.0323)
(-0.440178 -0.112864 -1.76682)
(-0.802632 0.113004 -1.43573)
(-0.864877 0.340466 -1.64387)
(-0.698275 0.389345 -2.06138)
(1.26947 -0.264271 -1.98277)
(1.17475 -0.0872003 -2.08435)
(0.619635 -0.796898 -1.68451)
(0.676606 -1.17965 -1.32828)
(0.703067 -0.98588 -1.35615)
(0.794431 -1.07674 -1.5239)
(0.486654 -0.917975 -1.74956)
(0.109892 -0.824001 -1.69142)
(0.210646 -0.544944 -2.07263)
(-0.122835 -0.80657 -1.97693)
(0.0427268 -0.477673 -2.15719)
(-0.0395022 -0.102654 -2.24762)
(-0.307049 0.0402408 -2.12608)
(-0.584251 0.291488 -2.22815)
(-0.462191 0.278592 -2.5589)
(-0.0926291 0.483049 -2.76335)
(0.589498 -0.849025 -2.28387)
(0.311974 -0.623972 -2.20268)
(0.103828 -1.25464 -1.30873)
(0.432094 -1.83049 -0.881027)
(0.421657 -1.44816 -1.12525)
(0.427684 -1.27622 -1.09229)
(0.120237 -1.18104 -1.35985)
(-0.467563 -0.995125 -1.41831)
(-0.259683 -0.76345 -1.82457)
(-0.316744 -0.949405 -1.49594)
(-0.0225488 -0.82379 -1.71157)
(-0.171602 -0.422775 -2.00111)
(-0.373087 0.100228 -2.37663)
(-0.0585103 0.272494 -2.6474)
(-0.103658 0.463917 -2.79318)
(-0.0250534 0.979112 -2.61349)
(-0.127906 2.52495 2.9127)
(-0.398588 2.49828 3.07286)
(-0.110599 2.58861 3.19297)
(-0.16026 2.48138 3.22739)
(-0.170923 2.49467 3.28946)
(0.383213 2.70347 2.96649)
(0.112545 2.45424 3.32217)
(-0.100614 2.49282 3.36608)
(-0.177396 2.79504 3.37894)
(0.733943 2.8984 2.98614)
(0.459969 2.89528 3.15229)
(0.193431 2.92932 3.38571)
(-0.0681807 2.88855 3.48793)
(-0.554537 3.11274 3.37459)
(1.64749 2.90596 2.94534)
(0.909527 3.07078 3.35468)
(0.760788 3.12245 3.42431)
(0.232424 3.36896 3.37049)
(-0.0504376 3.13203 3.59589)
(-0.340562 3.31456 3.53521)
(1.62564 2.80068 2.83199)
(1.50256 3.00735 3.02966)
(0.694796 3.48715 3.49335)
(0.49037 3.44933 3.45991)
(0.257174 3.40934 3.54871)
(-0.160966 3.29647 3.77571)
(-0.716842 3.33564 3.53629)
(1.47328 2.90465 2.88898)
(2.36342 2.94757 1.9787)
(1.60819 3.11604 2.44644)
(0.784674 3.36627 2.40871)
(0.283732 3.35856 2.90225)
(0.17281 3.44952 3.09494)
(-0.0918846 3.51984 3.14102)
(-0.611968 3.69258 2.56887)
(1.29551 2.75874 2.79375)
(1.90196 2.99021 1.34932)
(1.29939 3.24603 0.632023)
(1.14135 2.84638 0.78145)
(0.778183 3.21517 1.23099)
(0.556824 3.45579 1.56919)
(0.209366 3.58772 1.88892)
(-0.360365 3.6503 1.94535)
(-0.567233 3.20977 1.60562)
(0.824701 2.66791 1.8016)
(1.29807 3.01194 0.200948)
(1.40358 2.8484 0.137403)
(1.53471 2.80433 0.388928)
(1.67531 2.85212 0.793643)
(1.14958 3.15629 0.868256)
(0.189441 3.33953 1.03457)
(-0.293216 3.25355 1.22565)
(-0.630357 3.53406 1.24053)
(-0.723166 2.77019 1.15234)
(0.175312 2.53697 -0.816588)
(0.967429 2.81415 -0.500552)
(1.76201 2.45215 -0.429645)
(2.44125 2.36386 -0.175541)
(2.23244 2.48669 0.739543)
(1.87698 2.49525 0.383615)
(0.816726 2.58675 0.574013)
(0.00166947 2.72743 0.560542)
(-0.107541 3.00664 0.661442)
(-0.641209 3.62074 0.768479)
(-1.23522 2.66593 -0.756788)
(1.23681 2.33828 -0.881224)
(1.38426 2.80301 -0.284149)
(1.93207 2.46546 -0.223942)
(2.98614 2.07859 -0.323178)
(2.47245 1.93135 -1.26815)
(2.04368 1.61157 -0.266042)
(1.1706 1.57365 -0.23754)
(0.767328 1.62404 0.0205954)
(-0.408227 2.07369 -0.477456)
(-0.934802 2.71028 -0.64743)
(-1.27413 2.52211 -0.459765)
(-0.841187 1.89877 -0.630039)
(1.53615 1.43816 -1.4908)
(1.30924 1.62691 -1.50809)
(1.44048 2.49341 -0.369721)
(2.55135 1.82317 -1.80503)
(2.33153 0.961179 -0.644533)
(2.01623 0.534862 -0.555542)
(1.2193 0.525192 -0.314373)
(0.75826 0.604716 -0.655733)
(0.332493 0.970554 -0.789117)