/*--------------------------------*- C++ -*----------------------------------*\
  =========                 |
  \\      /  F ield         | OpenFOAM: The Open Source CFD Toolbox
   \\    /   O peration     | Website:  https://openfoam.org
    \\  /    A nd           | Version:  7
     \\/     M anipulation  |
\*---------------------------------------------------------------------------*/
FoamFile
{
    version     2.0;
    format      ascii;
    class       volScalarField;
    location    "1.5";
    object      nut;
}
// * * * * * * * * * * * * * * * * * * * * * * * * * * * * * * * * * * * * * //

dimensions      [0 2 -1 0 0 0 0];

internalField   nonuniform List<scalar> 
150000
(
0.00134686
0.00107541
0.00129767
0.000865465
0.00140659
0.00112144
0.00104756
0.000662329
0.00121651
0.00118479
0.000543945
0.000382501
0.00105472
0.0012766
0.00204523
0.00108179
0.00320067
0.00147592
0.000983563
0.000742302
0.000781602
0.000938964
0.00132235
0.00101273
0.000394686
0.00016657
0.000155323
0.000373848
0.00103795
0.0010645
0.00230457
0.00217976
0.00163514
0.00275988
0.00120547
0.000278936
0.000605202
0.000821467
0.0016172
0.000986654
0.00082417
0.000524927
0.000540689
0.00105764
0.000683904
0.00140353
0.00078562
0.000563774
0.000136157
0.00018222
0.000175311
0.000347674
0.000471334
0.000894028
0.000912647
0.00218027
0.00235261
0.000802163
0.00225929
0.00156372
0.00200174
0.00121676
0.0011908
0.00207144
0.00121573
0.00113729
0.000960954
0.00129364
0.000697541
0.00248537
0.00144593
0.00108779
0.000663246
0.000440368
0.000408594
0.000359169
0.000585483
0.00115142
0.00083136
0.00134948
0.000557994
0.000551759
0.00023548
0.000337307
0.000215576
0.000157283
0.000159504
0.000280192
0.000781836
0.000725233
0.00100732
0.00246583
0.00219022
0.000840132
0.00247865
0.00225656
0.00122523
0.00135391
0.000950317
0.00330743
0.00182548
0.00185367
0.00118555
0.00117213
0.00099257
0.00123083
0.00240999
0.00161439
0.00230985
0.00113205
0.00210442
0.00054883
0.00069336
0.000788282
0.000938028
0.00160471
0.000976925
0.000205551
0.000448328
0.000326305
0.000288974
9.80115e-05
0.000449776
0.000523983
0.000446701
0.00103056
0.00146816
0.000397541
0.000459133
0.000403745
0.000309729
0.000156865
0.000154938
0.000106959
0.000179868
0.000205927
0.00014336
0.000646019
0.000735445
0.00110544
0.0025193
0.00254194
0.000988962
0.00266699
0.00237481
0.000994693
0.000794397
0.000775559
0.00252587
0.00273874
0.00130066
0.00123385
0.00110951
0.000555657
0.00105729
0.0034812
0.00223019
0.00162253
0.00132675
0.00145779
0.000677075
0.00113178
0.000810657
0.00119763
0.00280419
0.00147512
0.00264789
0.00103958
0.00179917
0.000348183
0.000281565
0.000660953
0.000657231
0.00133698
0.00231123
0.00175046
0.000787159
0.00085079
0.000419149
0.000658423
0.000196868
0.000111314
0.000289501
0.00012286
0.000520166
0.00043167
0.0012392
0.00114622
0.0013328
0.000296446
0.000275442
0.000620539
0.000214342
0.000199266
0.000130422
0.000259436
9.76686e-05
0.000140787
0.000188434
0.000197679
0.000160377
0.000428431
0.000769838
0.00113228
0.00226271
0.00252495
0.000835355
0.00269667
0.00263965
0.000854363
0.000575282
0.000880327
0.00295824
0.00254587
0.000874638
0.000841928
0.00116405
0.0013253
0.00108299
0.00285556
0.00294882
0.00163287
0.00126793
0.0009194
0.000671699
0.00232232
0.000777541
0.00268346
0.00344807
0.00260726
0.00117059
0.00111797
0.000687789
0.000760174
0.00111006
0.000966751
0.000825825
0.000614823
0.00123391
0.00255816
0.00144356
0.00226666
0.00128264
0.00121406
0.000590014
0.000214486
0.000378522
0.000299866
0.000614986
0.000429738
0.00108912
0.000813627
0.00168591
0.000743181
0.00128355
0.000492532
0.000735569
0.00018239
0.000151143
0.000310636
0.000275284
0.000309194
0.000132235
0.000546563
0.000310804
0.00120988
0.000758154
0.00127823
0.000247068
0.000191085
0.000532277
0.000222111
0.000225439
0.000155526
0.000279197
0.000236157
0.000132294
0.00011637
0.000121109
0.000193233
0.000211261
0.000156097
0.000373814
0.000688651
0.00108046
0.00240488
0.00230202
0.00070068
0.00241487
0.00252815
0.000821854
0.00035913
0.000690399
0.00261193
0.00256377
0.00100851
0.000722011
0.000838209
0.00117753
0.00107462
0.00291889
0.00253826
0.000838168
0.000800939
0.000542427
0.00134221
0.000561891
0.0010581
0.00135396
0.00320193
0.00312222
0.001852
0.0015367
0.00178838
0.000839436
0.000611176
0.00154566
0.000617593
0.00130545
0.00226815
0.00352665
0.00279114
0.00135947
0.000779279
0.000897038
0.000796142
0.00104632
0.00106876
0.00102774
0.000473412
0.000942537
0.000541005
0.00127324
0.00172386
0.00137479
0.000810281
0.00111567
0.00108013
0.000858326
0.000376891
0.000327556
0.000289825
0.000544328
0.00045085
0.000554789
0.0012038
0.000984145
0.00156975
0.00149073
0.000871722
0.00125161
0.00065899
0.000743594
0.000244594
0.000253513
0.000371053
0.000269353
0.000237095
0.000261588
0.000271113
0.00013079
0.000543501
0.000308495
0.000935478
0.000738968
0.0011861
0.000241968
0.00011613
0.00045397
0.000172728
0.000160352
0.000194855
0.00021733
0.000112582
0.000152358
0.000234638
0.000272014
0.000316992
0.000272926
0.000241767
0.000221434
0.000153767
0.000533658
0.000551378
0.000956568
0.00216554
0.0023805
0.000497778
0.00238732
0.00223665
0.000825502
0.000617653
0.000628653
0.00241527
0.00271598
0.00113993
0.000942673
0.000603314
0.00061168
0.000985101
0.00258245
0.00246119
0.00120803
0.000941429
0.000734794
0.000568747
0.000630152
0.00121134
0.00116253
0.00277041
0.00249492
0.000648649
0.00108967
0.000922684
0.000484046
0.00122453
0.000973973
0.0007867
0.0012356
0.00118986
0.00291784
0.002994
0.00157466
0.00145864
0.00104784
0.000634433
0.00124438
0.000571239
0.00145375
0.000613189
0.000772455
0.00141348
0.00178523
0.00275625
0.00337389
0.00177336
0.000945775
0.000840631
0.00109636
0.000968341
0.000638582
0.000494765
0.00108494
0.00063189
0.000843789
0.000777337
0.000794763
0.000821985
0.00172114
0.00135816
0.00148646
0.000489559
0.000700642
0.000814169
0.000407999
0.000501923
0.000494963
0.000377457
0.000339019
0.000584044
0.00050885
0.00044554
0.00155506
0.00132538
0.00133269
0.0010519
0.000862301
0.000715818
0.000442173
0.000881692
0.000413103
0.000151315
0.000490968
0.000376146
0.000209684
0.000383594
0.000252734
0.000304754
0.000256547
0.000203259
0.000558451
0.000351144
0.000598407
0.000973985
0.00111589
0.000250693
0.000171035
0.000453255
0.000115023
0.000230111
0.000150213
0.000277192
0.000136034
8.96634e-05
0.00010423
0.000134859
0.000186426
0.000244209
0.000345152
0.000393688
0.000191243
0.000244864
0.000176542
0.000845416
0.000370895
0.000793045
0.00235279
0.00208592
0.000373763
0.0022363
0.00228775
0.000867475
0.000750687
0.000675631
0.00246642
0.00231572
0.000725046
0.00074405
0.000494118
0.00108749
0.00077756
0.00245695
0.00284014
0.000938362
0.000924908
0.000617441
0.000827444
0.000672995
0.000932168
0.000715223
0.00259553
0.00248616
0.0006822
0.000605622
0.00100777
0.000812642
0.00063308
0.000562753
0.000979228
0.000893411
0.00172735
0.00279011
0.00279232
0.00107728
0.000994762
0.00125239
0.00099617
0.000590437
0.000467377
0.000879913
0.000882084
0.000756027
0.00157513
0.000888418
0.00280308
0.00266771
0.0019484
0.00150938
0.00149835
0.001279
0.000782136
0.000628414
0.000729176
0.000555015
0.000892819
0.000967118
0.000650803
0.00107294
0.00208533
0.00288283
0.00340437
0.00129499
0.00233701
0.00137973
0.00150005
0.000964108
0.000819139
0.000664802
0.000386037
0.000835791
0.000822429
0.00133597
0.00048717
0.000717164
0.000724282
0.000817368
0.00178576
0.00132255
0.00213592
0.000515027
0.000439041
0.000712363
0.000460953
0.000366851
0.000433324
0.000336941
0.00025894
0.00028668
0.000419596
0.000497513
0.00016822
0.000362998
0.000935391
0.00148004
0.0013866
0.000808629
0.000954506
0.000584359
0.000316336
0.000940048
0.000491602
0.000142354
0.000630185
0.000536873
0.000338407
0.000354379
0.000396232
0.000365555
0.000272321
0.000290177
0.000280026
0.000178712
0.000486498
0.000339728
0.000348901
0.00103311
0.000999817
0.000277187
0.000215208
0.000359219
0.000114117
0.000271975
0.000152583
0.000168402
0.000501317
9.785e-05
0.000128341
0.000121247
0.000144603
0.000109891
7.11528e-05
0.00015027
0.000153356
0.000184408
0.000203974
0.000256186
0.000185116
0.00102991
0.000328445
0.00062429
0.00220963
0.00232249
0.000460467
0.00235762
0.00215191
0.000733
0.000583662
0.000478972
0.0022449
0.00235765
0.000742179
0.000567068
0.000630386
0.00054173
0.000684931
0.00251321
0.00227707
0.000495068
0.000875609
0.000611179
0.000390234
0.000582563
0.000683776
0.000877983
0.00239931
0.00281269
0.000962489
0.000977554
0.000787411
0.00072183
0.000756557
0.000824311
0.000808808
0.000723595
0.000631434
0.00243334
0.00290492
0.000818833
0.000547641
0.000787749
0.00103269
0.000940205
0.000918858
0.000563802
0.00121078
0.000754537
0.00203226
0.000958233
0.00280738
0.00341994
0.00159135
0.00132084
0.00104714
0.00101362
0.000575233
0.000502294
0.000466378
0.000984698
0.000809474
0.000791107
0.000760903
0.000854207
0.00140695
0.00329849
0.00282279
0.00197999
0.00153179
0.00116051
0.000947497
0.000922866
0.000634678
0.000588698
0.000452533
0.000532118
0.000787701
0.000743851
0.00038215
0.00090834
0.00114379
0.00173493
0.00338236
0.00256307
0.00136998
0.00168859
0.00112113
0.000849004
0.00114695
0.00116336
0.000512945
0.000668238
0.000337542
0.000321906
0.000601219
0.00157355
0.000243515
0.000589798
0.000672874
0.000872736
0.000386195
0.00221234
0.00119207
0.00189958
0.000587631
0.000362403
0.000635124
0.000648465
0.000481544
0.000285581
0.000229951
0.000264257
0.000297447
0.000239419
0.000324556
0.000445019
0.000484965
0.000501182
0.00041815
0.00076202
0.00131242
0.0011562
0.000887173
0.000826727
0.000574678
0.000355117
0.000923699
0.000463596
0.000136337
0.000805006
0.000443509
0.000370596
0.000369873
0.000387769
0.000152885
0.0003958
0.000337098
0.000265423
0.000287909
0.000300275
0.000216526
0.000464916
0.000285843
0.0005536
0.00111341
0.000870218
0.000298801
0.00027019
0.000310722
0.000145453
0.00020231
0.000175139
0.0001529
0.000150238
0.000243623
0.000174709
0.000135745
0.00013512
0.000141374
0.000203794
0.000187364
9.53986e-05
0.000142242
0.000192724
9.29392e-05
0.00024765
0.000266506
0.00019666
0.00119607
0.000419032
0.00052311
0.002373
0.00221058
0.000533109
0.00236267
0.00225318
0.000348684
0.000375297
0.000558861
0.00240007
0.00220336
0.000503934
0.000446564
0.00100611
0.000823613
0.000681726
0.00229456
0.00247547
0.00078585
0.000650808
0.000574237
0.000384978
0.000428208
0.000972056
0.000927142
0.00234359
0.00247388
0.00063681
0.00089947
0.00040949
0.000537823
0.000509791
0.00065661
0.000583505
0.000482227
0.000909616
0.00246573
0.00300015
0.00129867
0.00093724
0.000585299
0.000932135
0.000508234
0.000564071
0.00110386
0.000593375
0.000931784
0.000428408
0.000741084
0.00253681
0.00273228
0.000900209
0.000728555
0.000564068
0.000864065
0.000830409
0.000974366
0.000835648
0.000429591
0.000482146
0.000355339
0.000730861
0.00190064
0.00117921
0.00272313
0.00344839
0.0023079
0.00119988
0.00124199
0.000760096
0.000878527
0.00043875
0.000354878
0.000236797
0.000531608
0.00068252
0.000483825
0.000811591
0.000977986
0.00108952
0.00148718
0.00342446
0.00310802
0.0027606
0.00113946
0.000665476
0.000504752
0.00112348
0.000464832
0.000613117
0.000600262
0.000465474
0.000451912
0.000841066
0.000747615
0.000864001
0.0012661
0.00082297
0.000776259
0.00133775
0.00343605
0.00248198
0.00100959
0.000823835
0.000653868
0.000694514
0.000892942
0.000903519
0.00036949
0.000619428
0.000320636
0.000569121
0.000424783
0.00032998
0.000604648
0.000851385
0.00136246
0.000846857
0.000575755
0.000781885
0.00175852
0.00232507
0.000954251
0.00121492
0.000668082
0.000812632
0.000672175
0.000560344
0.000517977
0.000457139
0.000244845
0.000246837
0.000343188
0.000719544
0.000344926
0.000200009
0.000291192
0.000391846
0.000444944
0.000374767
0.00074901
0.000538565
0.00130562
0.000905726
0.000761758
0.000968982
0.000623193
0.00049938
0.000739807
0.000384888
0.000179074
0.000737531
0.000417101
0.000393321
0.000460694
0.000367135
0.000272272
0.0001883
0.000171703
0.000318803
0.000319484
0.000340039
0.000316434
0.000325356
0.00022978
0.000429621
0.000852725
0.000344384
0.00101708
0.000771773
0.000378781
0.000242561
0.000336604
0.000160503
0.000172351
5.25564e-05
0.000244934
0.000363302
0.000131895
0.000102888
9.90497e-05
0.000203668
0.000193359
0.000162746
0.000156023
0.000143544
8.94873e-05
0.000123256
0.00020207
0.000186892
0.000157337
0.000185536
0.000283165
0.000257411
0.0012981
0.000462149
0.000500247
0.00205546
0.00238726
0.000587504
0.00248757
0.0021905
0.000484505
0.000415021
0.000727307
0.00244032
0.00219198
0.000278015
0.000719022
0.000151225
0.000595406
0.000626996
0.0023807
0.00216303
0.000963571
0.000662997
0.000104197
0.000540398
0.000455628
0.000589726
0.000476829
0.00234188
0.00261626
0.000996818
0.000698806
0.000438487
0.000592676
0.000514152
0.000583742
0.000584422
0.000733169
0.000567856
0.00244422
0.00238933
0.00062876
0.000527381
0.000561588
0.00044231
0.000548411
0.000701039
0.000400264
0.000484275
0.000496812
0.000487768
0.000690924
0.00261681
0.00278186
0.000865744
0.000897719
0.000729858
0.000672791
0.000587579
0.000589241
0.000737693
0.00057264
0.000691003
0.000809167
0.000797168
0.00117246
0.000926212
0.00250326
0.0023596
0.000576114
0.00104097
0.00110296
0.000724893
0.000800435
0.000858675
0.000767553
0.000614302
0.000796121
0.000673075
0.000485199
0.000610675
0.000598878
0.00109975
0.000944474
0.00262737
0.00378904
0.00125153
0.00110371
0.00121916
0.000520067
0.000973515
0.000522077
0.000324151
0.000204607
0.000800779
0.000321017
0.000606639
0.000256996
0.000653386
0.00059945
0.0011893
0.00136161
0.00215758
0.00275679
0.0028308
0.00221026
0.00132585
0.000646288
0.00049905
0.00108421
0.00043283
0.000861011
0.000995596
0.000458568
0.000566491
0.000893361
0.000626144
0.000856924
0.000749768
0.000947974
0.000367718
0.000987903
0.000659653
0.00141366
0.00348043
0.00259101
0.00105002
0.00116618
0.00061192
0.00079965
0.000665197
0.000773543
0.00043353
0.000430168
0.000496042
0.000557982
0.000572333
0.00036977
0.000326177
0.000434141
0.000749895
0.000983229
0.000745901
0.000808599
0.000893146
0.000674582
0.000396531
0.00156764
0.00085355
0.00133273
0.000845124
0.000964394
0.000661374
0.000521055
0.000463975
0.00103212
0.000664404
0.000239301
0.000183609
0.00104039
0.000877402
0.000565962
0.000113279
0.000217864
0.00018041
0.000282159
0.000211047
0.000406412
0.000751652
0.0012488
0.00130453
0.00125568
0.000980717
0.000885589
0.000739129
0.000688719
0.000598848
0.000441234
0.000373976
0.000393885
0.000396794
0.000497222
0.000503408
0.00038813
0.000322184
6.26805e-05
0.000111494
0.000168721
0.000230422
0.000310293
0.000310763
0.000284465
0.000334668
0.000276609
0.000205042
0.000380562
0.00113089
0.00054976
0.00058775
0.000661324
0.000425745
0.000207961
0.000290686
0.00017906
0.000221088
0.000176529
0.000289608
0.000237528
9.91048e-05
0.00015561
7.90935e-05
0.000217411
0.000109645
0.000167165
0.000191982
0.000179533
0.000163721
8.87056e-05
0.000167781
0.000140203
0.000105813
0.000140732
0.000212302
9.76319e-05
0.000320962
0.000225376
0.00131422
0.000528565
0.000513693
0.00211566
0.00206612
0.000550993
0.00217557
0.00236271
0.000711056
0.000608533
0.000771085
0.00255779
0.00221767
0.000469569
0.000353377
0.000380035
0.000515942
0.000776241
0.00247608
0.0021756
0.000525102
0.000422675
0.00017368
0.000472284
0.00074659
0.000392018
0.000824554
0.00244587
0.00226807
0.000291561
0.000441744
0.000699214
0.000553554
0.000501876
0.000557625
0.000442058
0.000610013
0.000824256
0.00224776
0.00242796
0.000614884
0.000807159
0.000881118
0.000680846
0.000576294
0.000691144
0.000506305
0.000485962
0.000619344
0.000825966
0.00071618
0.00243427
0.00246818
0.000860904
0.000553279
0.000737055
0.000619189
0.000623589
0.000616782
0.000496035
0.00046031
0.000735949
0.000788954
0.000562511
0.00076566
0.00075297
0.00268788
0.00274733
0.000955983
0.00080761
0.000813302
0.000603774
0.00078389
0.000687149
0.00050831
0.000283895
0.000559133
0.000655016
0.000413011
0.000514986
0.000647731
0.000706452
0.000881074
0.00248215
0.00232561
0.000626136
0.000922243
0.00111077
0.000870415
0.000774712
0.000972031
0.000650303
0.000515541
0.000749689
0.00067827
0.000627988
0.000564762
0.000444622
0.000676672
0.000988681
0.00122691
0.00100979
0.00258493
0.00362871
0.00118584
0.00148638
0.00120401
0.000943839
0.000631449
0.000523739
0.000257315
0.000371834
0.000379793
0.000661523
0.000408249
0.000329082
0.000440449
0.0006589
0.000456526
0.000717695
0.000923014
0.00137854
0.00207119
0.00266379
0.00311462
0.00258024
0.00168234
0.000603835
0.000473074
0.000592706
0.000516082
0.00044741
0.000845474
0.000548722
0.000444261
0.000573835
0.000806334
0.00102825
0.000876816
0.00093639
0.000615682
0.000683362
0.000843719
0.00108119
0.00109742
0.00170732
0.00299151
0.00249632
0.00122482
0.00107469
0.000771428
0.000466379
0.000878932
0.000921681
0.000433581
0.000481054
0.000571057
0.000647103
0.000270611
0.000353209
0.000478616
0.000426973
0.000330758
0.000276415
0.00041593
0.000602292
0.000642554
0.00109539
0.000765699
0.000831719
0.00209218
0.00233767
0.00121567
0.00138644
0.00117309
0.000763897
0.000597617
0.000399058
0.000435183
0.000387953
0.000371112
0.000237476
0.000135589
0.000216773
0.000718948
0.000400868
0.000445564
0.00098083
0.000947103
0.000305091
0.000326278
0.000239842
0.000227767
0.00055967
0.000762079
0.000987172
0.00115165
0.00116137
0.00115197
0.00100346
0.000802571
0.0006831
0.000551574
0.000482415
0.000603376
0.000359858
0.000379575
0.000465629
0.000537339
0.000373177
0.000289113
0.000138432
0.000145984
0.000197458
0.000105222
0.000142681
0.000259346
0.000452386
0.000311712
0.000253308
0.000334007
0.00023911
0.000225538
0.000297386
0.000642865
0.000388371
0.000598097
0.000683869
0.000401298
0.000242487
0.000321215
0.000186604
0.000160301
0.000153922
0.000394517
0.000323037
0.00030508
0.00021206
0.000152354
8.78943e-05
0.000121501
0.000169845
0.000117745
0.000201509
0.000124822
0.000132528
0.000117793
0.00012187
9.54063e-05
0.000130098
0.000109519
0.000179412
0.000186784
0.000129189
0.000358394
0.000216289
0.00128053
0.000712654
0.000532504
0.00220219
0.00213873
0.000321217
0.0023306
0.00223557
0.000441825
0.000411743
0.000421907
0.00230808
0.00237309
0.000593798
0.000541813
0.000511769
0.000472567
0.00075727
0.00250609
0.00230142
0.000531648
0.000390732
0.000705515
0.000375592
0.000478917
0.000499972
0.000769204
0.00247985
0.00241675
0.000707557
0.000584813
0.000717661
0.000398737
0.000299702
0.000471431
0.000337518
0.000643231
0.000921352
0.00242338
0.0023299
0.000932631
0.000600561
0.000720029
0.000501659
0.000330678
0.000527682
0.000487615
0.000536626
0.000481981
0.000511251
0.000756726
0.00245686
0.00246806
0.000999758
0.000656795
0.000677679
0.000536189
0.000555296
0.00051482
0.000667497
0.000617814
0.000579152
0.00039419
0.000670796
0.000570448
0.000871242
0.00246327
0.00263452
0.000656012
0.000553192
0.000615781
0.000656392
0.000676429
0.000370657
0.0003427
0.000444496
0.000569451
0.000532314
0.00028166
0.000636811
0.00105073
0.000850051
0.000874393
0.00256221
0.00307322
0.00118686
0.00055586
0.000926932
0.000697757
0.000770162
0.000571352
0.000366865
0.000300217
0.00041326
0.000590337
0.000554093
0.000578018
0.000766738
0.00061216
0.000540903
0.00102579
0.000876922
0.00247823
0.00269362
0.00138208
0.00103015
0.000982204
0.00098846
0.00102457
0.000830607
0.000846207
0.000979083
0.000599536
0.00073558
0.000847671
0.000684167
0.000655412
0.000553603
0.000582776
0.000699458
0.000999479
0.00109851
0.00120436
0.00260098
0.00263515
0.00178971
0.00165477
0.00157045
0.00140145
0.000666958
0.000333585
0.000355779
0.000684275
0.000511778
0.000325213
0.000859263
0.000843037
0.000174978
0.000501968
0.000429152
0.000329749
0.000376219
0.000915091
0.00103712
0.00150972
0.00169977
0.00272212
0.00384433
0.00213274
0.00149187
0.000902557
0.00030755
0.000398592
0.000351014
0.000585367
0.00046108
0.000637806
0.000660868
0.000303701
0.000601673
0.000868088
0.000877144
0.000745034
0.000774777
0.00121087
0.000840981
0.00104003
0.000678423
0.000355293
0.00117475
0.00185557
0.00272614
0.00245708
0.00176448
0.00127824
0.00106627
0.000586516
0.00113586
0.000967876
0.000516533
0.000765931
0.000822007
0.000517415
0.000562289
0.000701716
0.000502256
0.000468041
0.000386037
0.000833259
0.000360719
0.00057196
0.000575356
0.000721214
0.000922778
0.001119
0.000769889
0.000964792
0.00268361
0.00273086
0.00100359
0.00153258
0.00135713
0.000928535
0.000487885
0.000300402
0.000312343
0.000471611
0.00040937
0.000307421
0.000318278
0.000288107
0.000387442
0.00082708
0.000621184
0.000432745
0.000460988
0.000626417
0.000349088
0.00034818
0.000153444
0.000318722
0.00031767
0.000895245
0.000782803
0.00088142
0.00102655
0.00100187
0.000923519
0.0010674
0.000894434
0.000614393
0.000545992
0.000576763
0.000673855
0.000535248
0.000354393
0.00040002
0.000449345
0.000352486
0.000316192
0.000164689
0.000282996
0.00023173
0.000191821
0.000210403
0.00010102
0.000244191
0.000180029
0.000309328
0.000323242
0.000282908
0.000337049
0.00023366
0.000258378
0.000315335
0.00043992
0.000413235
0.000591117
0.000563427
0.000386793
0.000276448
0.000303285
0.000191485
6.75387e-05
0.00022449
0.000198956
0.000246818
0.000340932
0.000269574
0.000125936
7.77703e-05
0.000119058
0.000117015
5.88815e-05
0.000223152
0.0004463
0.00019738
6.47957e-05
0.00030561
0.00018286
0.000129964
8.65456e-05
0.000147797
0.000113134
0.000163902
0.000155842
0.00014836
0.000368992
0.000431881
0.00116919
0.000892974
0.000563338
0.00208489
0.00219128
0.000578405
0.00230738
0.00210452
0.000586505
0.0004531
0.00059585
0.00225848
0.00216274
0.000517814
0.000302195
0.000327421
0.000396857
0.000583914
0.00233834
0.00212796
0.000576354
0.000620639
0.00023157
0.00038156
0.000504607
0.000672227
0.000498494
0.00249241
0.00224042
0.000727203
0.000439848
0.000196155
0.000517619
0.000372436
0.00040025
0.00048349
0.000293683
0.000618126
0.0024528
0.00265352
0.000636729
0.000609164
0.000451109
0.000498349
0.000470421
0.00037075
0.000443323
0.000564102
0.000580844
0.000439015
0.000823135
0.00242013
0.00230375
0.00150112
0.000507644
0.00040689
0.000491519
0.000573765
0.000503673
0.000812035
0.000731774
0.000393829
0.000392429
0.0004493
0.000563618
0.00069713
0.00237976
0.00216006
0.000683511
0.000790166
0.000564015
0.000636417
0.000583582
0.000592621
0.000574169
0.000467045
0.000537857
0.000454746
0.000502627
0.000717016
0.00057536
0.00090705
0.00081467
0.00261411
0.00207987
0.000590134
0.000693584
0.000682885
0.000965038
0.00057421
0.000509067
0.000468999
0.000527189
0.000549522
0.000359437
0.000480289
0.00029832
0.000531044
0.000349646
0.000790315
0.000692873
0.00107817
0.00278622
0.00275668
0.00114551
0.000838004
0.000961781
0.000741013
0.000693419
0.000517249
0.000352765
0.000642318
0.000479627
0.000407152
0.000631071
0.000673403
0.000469783
0.000724108
0.000712802
0.000654199
0.000634737
0.0010214
0.00145864
0.00259722
0.00350501
0.0013118
0.0015097
0.0004548
0.000374466
0.00105717
0.000662878
0.000710233
0.000842918
0.000637512
0.000762132
0.000766746
0.00108801
0.000591185
0.000871686
0.00070969
0.000537302
0.000689328
0.000810091
0.00105123
0.00110258
0.00118423
0.00257714
0.0024905
0.0012697
0.00141261
0.00113313
0.000912268
0.000813466
0.000412362
0.000637549
0.000804234
0.000789095
0.000454758
0.000385097
0.000395637
0.00096717
0.000442879
0.000284722
0.000376142
0.000148544
0.000306039
0.000545842
0.000955198
0.00113495
0.000984886
0.00172662
0.00248349
0.00281269
0.000950218
0.000910226
0.00100431
0.000302042
0.000312273
0.000167086
0.000404941
0.000527756
0.000330418
0.000480021
0.000480265
0.000320224
0.000357327
0.000472953
0.00070608
0.00078607
0.00098092
0.00139257
0.00114241
0.000902076
0.000813199
0.000861932
0.00052584
0.000809072
0.00116062
0.00259968
0.00219339
0.00102873
0.0008791
0.000895803
0.000403892
0.000906999
0.000741376
0.000509419
0.000580727
0.000611682
0.000397283
0.000503008
0.000377169
0.000615081
0.000830621
0.000587631
0.000476863
0.000292315
0.000786648
0.000235216
0.000329587
0.000628416
0.000695369
0.00121778
0.000917708
0.000523995
0.000834102
0.00189992
0.00250253
0.00109184
0.000964972
0.0014677
0.00106051
0.000584103
0.000427524
0.00035601
0.000732958
0.000527585
0.000334481
0.000323536
0.000178721
0.000932507
0.00061314
0.00073053
0.000470944
0.000529502
0.000515598
0.000521046
7.1164e-05
0.000218703
0.000278393
0.000795474
0.000491525
0.000550017
0.000946727
0.00141059
0.00103872
0.00086913
0.000780466
0.000984218
0.000999399
0.000739189
0.000732944
0.000578051
0.000618953
0.000549138
0.000648168
0.000338491
0.000322647
0.000433262
0.000380539
0.000235048
0.00025994
0.000245506
0.000257496
0.00020665
0.000555361
0.000354526
0.000217528
0.0001632
0.000105818
0.000325046
0.00028296
0.000292622
0.000152355
0.000334673
0.000181744
0.000265173
0.000285293
0.000403784
0.000382382
0.000610369
0.000537788
0.000375328
0.000295509
0.000267486
0.000185256
0.00015382
0.000220905
0.000172871
0.00027841
0.000308847
0.000289084
0.000100051
0.000100344
0.000122802
0.000113266
0.000139338
0.000185715
0.000456091
0.000189786
0.000443055
0.000221558
0.000153852
0.000144508
0.000245558
0.000125999
8.35694e-05
0.000123696
0.000194405
0.000256305
0.000139096
0.000163756
0.000348706
0.000574786
0.000957724
0.00078215
0.000608669
0.00205167
0.00208447
0.000499583
0.0022367
0.00205222
0.000503046
0.000384968
0.000600378
0.002339
0.00213419
0.000297083
0.000439835
0.000397815
0.000547586
0.000424717
0.0022788
0.00211391
0.00062956
0.000425863
0.00045801
0.000356631
0.000363931
0.000382306
0.000699385
0.00217349
0.00221328
0.000444534
0.000697075
0.00038888
0.000297564
0.000262934
0.000442198
0.000408174
0.000482251
0.000520461
0.00242411
0.00227984
0.000428536
0.000463372
0.000515214
0.00033757
0.000356158
0.000558737
0.00039084
0.000456082
0.000608972
0.000410847
0.000485474
0.00247253
0.0025194
0.000658807
0.000554152
0.000652968
0.000497933
0.000611651
0.0007543
0.000214964
0.000387493
0.000436783
0.000497
0.000310299
0.000279999
0.000570299
0.00270887
0.00225523
0.000570281
0.000676947
0.000348998
0.000794281
0.000626194
0.000697974
0.000467871
0.00054178
0.00085249
0.000455222
0.000492908
0.000434696
0.000551918
0.000498589
0.000724021
0.00238404
0.00228223
0.000885781
0.000555331
0.000723466
0.000817198
0.000540116
0.000714389
0.000623531
0.000437599
0.00046199
0.000461624
0.000535022
0.000685047
0.000446822
0.000576437
0.000620337
0.000706198
0.000803626
0.00236497
0.00252272
0.000687263
0.000492538
0.000738125
0.000339618
0.000515137
0.000688566
0.000564552
0.00058346
0.000287963
0.000466165
0.00047142
0.000476817
0.000348491
0.000422736
0.000922689
0.000619165
0.000663571
0.000951479
0.000935179
0.00274732
0.00285571
0.000596599
0.000796557
0.000650489
0.000446963
0.000660932
0.000475415
0.000478694
0.000575391
0.000462884
0.000748328
0.000941772
0.000518671
0.000763833
0.000677241
0.000917142
0.000424993
0.0005937
0.000682138
0.000594939
0.000488796
0.000933408
0.00254043
0.00356878
0.000734917
0.00147378
0.000813123
0.0007999
0.000599423
0.000809043
0.000701494
0.000512163
0.000431649
0.000532573
0.00089381
0.00138082
0.00127765
0.000819035
0.000955476
0.00093079
0.000492863
0.000974691
0.000623789
0.0012084
0.00115887
0.00122166
0.00112588
0.00268043
0.00271348
0.0017187
0.00108448
0.000874496
0.000758301
0.000505783
0.0010549
0.0012402
0.000774127
0.000525969
0.000344635
0.000442068
0.000327154
0.000480193
0.00117646
0.000506797
0.000385282
0.000429676
0.000296511
0.00036564
0.000276761
0.00052875
0.000691065
0.00109467
0.00102119
0.00202825
0.00263025
0.00320164
0.00206878
0.000406385
0.00052525
0.00027606
0.000523882
0.000971151
0.00081355
0.000456575
0.000304945
0.000501806
0.000456915
0.000531596
0.000609045
0.000622292
0.000441354
0.000738839
0.000851323
0.000979606
0.000941506
0.000635646
0.000717103
0.000802626
0.000495818
0.00076558
0.000579902
0.000840337
0.00165968
0.00218289
0.00238684
0.00103292
0.000903587
0.000766719
0.00061344
0.000626212
0.000869791
0.000418249
0.000329458
0.000627342
0.000561048
0.000359282
0.000536379
0.000434395
0.000713968
0.000600915
0.000774212
0.000522427
0.000423882
0.000468691
0.000395466
0.00071546
0.000254035
0.000304898
0.000872603
0.000502314
0.000476924
0.000634238
0.000527154
0.00126982
0.0017926
0.00091811
0.000920809
0.000936082
0.00138116
0.000495042
0.00023843
0.000461561
0.000583729
0.000128474
0.000575322
0.000375124
0.000348244
0.000383291
0.000597152
0.000844095
0.000479635
0.000458434
0.000605222
0.000622243
0.000451644
0.000191599
0.00113366
0.000479201
0.000182688
0.000371858
0.000511143
0.000654877
0.000923414
0.00137786
0.00102671
0.000751858
0.00059449
0.00112142
0.00109496
0.000690622
0.000669095
0.000644533
0.000619754
0.000493777
0.000510599
0.000303955
0.000377192
0.00047441
0.000321909
0.000498839
0.000271464
0.000231978
0.000257067
0.000436084
0.000469878
0.000450175
0.000826902
0.000441242
0.000226817
0.000102435
0.00018355
0.000257855
0.000376327
0.000248516
0.0003769
0.000305447
0.000152693
0.00033521
0.000273815
0.000357326
0.000383748
0.000661506
0.000613418
0.000406163
0.000314386
0.000283675
0.000171436
0.000137373
0.000199995
0.000451504
0.000277896
0.000315475
0.000277573
0.000108195
0.00011534
0.000103253
0.00016239
2.97436e-05
0.000217593
0.00044343
0.000176657
0.000188174
0.000216983
0.000418705
0.000246011
0.000209956
0.000119487
0.00011025
9.99697e-05
0.000136911
0.000116315
0.000155882
0.000263863
0.000119407
0.000128162
0.000302647
0.000615683
0.000538684
0.000581018
0.000716956
0.00207073
0.00209247
0.000326862
0.00219805
0.00209741
0.000374068
0.000330373
0.000483166
0.00223044
0.00211787
0.000539869
0.000415861
0.000337011
0.00047521
0.000475723
0.00229039
0.00230978
0.000434316
0.0003606
0.000393512
0.000301752
0.000399643
0.000363881
0.000365758
0.00222682
0.00206417
0.000740925
0.000305698
0.000454167
0.000450642
0.000382303
0.000330835
0.00050322
0.000444888
0.000623288
0.00216601
0.00230502
0.000528597
0.000304033
0.000330547
0.000224708
0.000393247
0.000236124
0.000348647
0.000408027
0.000581156
0.000483993
0.000489707
0.00246334