/*--------------------------------*- C++ -*----------------------------------*\
  =========                 |
  \\      /  F ield         | OpenFOAM: The Open Source CFD Toolbox
   \\    /   O peration     | Website:  https://openfoam.org
    \\  /    A nd           | Version:  7
     \\/     M anipulation  |
\*---------------------------------------------------------------------------*/
FoamFile
{
    version     2.0;
    format      ascii;
    class       volScalarField;
    location    "1.5";
    object      p;
}
// * * * * * * * * * * * * * * * * * * * * * * * * * * * * * * * * * * * * * //

dimensions      [0 2 -2 0 0 0 0];

internalField   nonuniform List<scalar> 
150000
(
-66.0607
-62.3987
-66.4798
-66.0809
-65.6308
-58.0771
-62.7858
-63.9265
-61.9641
-66.8701
-66.2938
-65.2194
-65.8316
-65.2301
-57.4721
-58.6846
-57.6386
-57.5498
-63.1981
-64.3996
-66.0529
-63.4738
-61.55
-67.2352
-66.4804
-65.3284
-65.049
-65.0867
-65.5969
-64.8838
-55.3132
-57.1133
-59.2245
-58.3415
-59.2
-60.3252
-65.9392
-57.8989
-57.5964
-63.5908
-64.8649
-66.0962
-65.3086
-65.9726
-63.1816
-61.4132
-67.5512
-66.6804
-65.415
-65.086
-64.8501
-65.0043
-64.8901
-65.4035
-64.6396
-53.4194
-54.988
-57.6743
-55.453
-56.8216
-58.9201
-61.4288
-59.8929
-58.6518
-59.8219
-62.3379
-66.2576
-64.299
-65.7801
-51.767
-58.0405
-63.9875
-65.3374
-66.1463
-65.2962
-65.4705
-65.3337
-65.7606
-63.0368
-61.1639
-67.7774
-66.8944
-65.4853
-65.0987
-64.8664
-65.6226
-64.8321
-64.9975
-64.6665
-65.2938
-64.4316
-50.7415
-53.3845
-54.4926
-53.4458
-55.0793
-57.3321
-58.7793
-58.096
-55.2096
-56.3177
-59.3465
-61.848
-61.5292
-61.4579
-61.1326
-58.5971
-60.4503
-63.5774
-66.5094
-64.3997
-64.5719
-64.2171
-65.6385
-57.7554
-58.6926
-64.3689
-65.7928
-66.1839
-65.3089
-65.5667
-67.0672
-65.368
-65.3824
-65.4053
-62.8446
-60.9266
-67.9405
-67.087
-65.5405
-65.1026
-64.8807
-65.6162
-65.1413
-65.6301
-64.8038
-65.0066
-64.4483
-65.1918
-64.2637
-48.853
-50.8069
-50.7799
-50.6983
-53.4193
-54.4282
-55.3016
-54.8174
-53.6257
-55.0354
-57.206
-58.5269
-58.834
-59.1662
-58.5335
-55.6835
-56.0713
-60.4779
-62.4806
-62.1086
-62.3235
-61.5695
-61.8389
-62.7207
-59.0187
-61.0938
-65.065
-66.8639
-64.6646
-64.7423
-65.052
-64.3911
-64.1981
-65.3356
-58.4656
-59.5223
-64.6617
-66.311
-66.199
-65.3198
-65.6587
-67.0777
-67.1276
-67.0416
-65.2742
-65.4571
-65.0783
-62.7109
-60.9249
-68.0729
-67.2461
-65.6142
-65.0927
-64.8869
-65.6107
-65.0901
-64.6121
-65.1949
-65.6347
-64.7791
-64.9915
-64.2553
-65.1202
-64.1885
-47.6021
-48.7489
-49.0161
-49.0102
-50.7428
-50.9074
-51.0887
-50.9034
-50.5912
-53.5234
-54.6084
-54.98
-55.578
-55.6664
-54.7956
-53.5451
-54.7852
-57.701
-58.8709
-59.1498
-59.3539
-58.6657
-59.4847
-59.2011
-55.2375
-56.0425
-61.8865
-63.2584
-62.5567
-62.6177
-62.7711
-61.8047
-61.6277
-62.2995
-63.9593
-59.1861
-61.9239
-66.5816
-67.2394
-65.0506
-65.0509
-65.1231
-65.3554
-65.0164
-64.2424
-64.2126
-65.059
-60.6252
-60.6521
-64.9606
-66.9075
-66.2664
-65.3772
-65.7393
-67.088
-67.1408
-67.4727
-67.1243
-67.0009
-65.1999
-65.5242
-64.9121
-62.7431
-60.9766
-68.2049
-67.3897
-65.6906
-65.061
-64.8932
-65.6041
-65.0493
-64.5624
-64.3642
-64.6636
-65.2448
-65.6324
-64.7611
-64.9743
-64.1171
-65.0789
-64.1956
-46.4182
-47.449
-47.7154
-47.7387
-48.5651
-48.9615
-49.5379
-49.1505
-48.9916
-50.7364
-50.8118
-51.3058
-51.5247
-50.4843
-50.8783
-50.4432
-53.5462
-54.4092
-54.8401
-55.2669
-55.4709
-55.0385
-55.8958
-54.1135
-53.5388
-54.5336
-58.2451
-59.4557
-59.6792
-60.3634
-59.7776
-58.9618
-58.803
-59.5876
-60.0429
-55.3742
-56.1593
-63.8324
-64.135
-63.4985
-63.0756
-62.5003
-62.494
-62.5093
-61.7291
-61.8249
-62.5674
-65.0998
-59.7222
-62.8684
-67.974
-67.7672
-65.3707
-65.3085
-65.2053
-65.2797
-65.356
-65.4312
-64.8974
-64.1099
-64.1731
-64.743
-61.5644
-61.6013
-65.3976
-67.4981
-66.4251
-65.46
-65.8148
-67.086
-67.146
-67.4952
-66.8732
-67.4483
-67.1073
-66.9536
-65.1421
-65.5524
-64.8004
-62.8264
-61.0965
-68.3509
-67.5157
-65.6887
-65.0287
-64.8969
-65.5996
-64.9946
-64.5694
-64.3163
-63.9623
-64.3924
-64.7212
-65.2912
-65.6243
-64.749
-64.9686
-64.0071
-65.0559
-64.2613
-45.6604
-46.2812
-46.5897
-46.6994
-47.4071
-47.6247
-47.9268
-47.7095
-47.6408
-48.3748
-48.7353
-49.4552
-49.7357
-49.3892
-49.2106
-48.8941
-50.7542
-50.7114
-51.2388
-51.5024
-51.9746
-51.4858
-50.5541
-50.8775
-50.2509
-53.6648
-54.1556
-54.6761
-55.5611
-55.4886
-55.2859
-56.0501
-55.2076
-55.5862
-54.0114
-53.4951
-54.1787
-58.5281
-60.3155
-60.3187
-61.0203
-60.3148
-59.3292
-58.8047
-59.3893
-58.9823
-59.8975
-59.8949
-55.8242
-56.5166
-65.6628
-65.2922
-64.3455
-63.3801
-62.6062
-62.4617
-62.9331
-62.5249
-62.3015
-61.7068
-62.0892
-62.9393
-65.6645
-60.9804
-63.9736
-69.333
-68.4363
-65.8033
-65.6179
-65.2756
-65.2425
-65.3056
-65.3329
-65.4141
-65.4788
-64.8195
-64.0374
-64.1021
-64.1299
-62.2452
-62.5141
-65.9019
-68.0854
-66.6022
-65.5365
-65.8811
-67.0731
-67.1302
-67.4727
-66.8076
-65.8564
-66.9293
-67.4232
-67.0802
-66.8996
-65.1057
-65.543
-64.6945
-62.7824
-61.2639
-68.5041
-67.6135
-65.7024
-64.9993
-64.8933
-65.5939
-64.9355
-64.5852
-64.2501
-63.9314
-63.597
-63.9936
-64.4259
-64.7953
-65.3373
-65.6122
-64.7393
-64.9622
-63.9069
-65.0309
-64.354
-45.1416
-45.6914
-45.8485
-45.8795
-46.3862
-46.4435
-46.6316
-46.678
-46.6635
-47.3934
-47.487
-47.8243
-48.1411
-47.9187
-47.6798
-47.5754
-48.2514
-48.76
-49.3411
-49.5957
-49.9386
-49.7752
-49.3343
-49.0387
-49.024
-50.7582
-51.0284
-51.3312
-51.6098
-51.8573
-52.0941
-51.9046
-51.2728
-50.3082
-50.8564
-50.0762
-53.5103
-53.9819
-54.5622
-55.2043
-55.4423
-55.6267
-55.7371
-55.6807
-56.1642
-55.3111
-55.4125
-54.1263
-53.2388
-53.7338
-59.1982
-61.1613
-61.0308
-61.1442
-59.9132
-59.5234
-59.0132
-59.1214
-58.9758
-59.2838
-59.2404
-59.8451
-60.3466
-56.0663
-57.1337
-67.2441
-66.2438
-65.0903
-63.9658
-62.9113
-62.3894
-62.8232
-62.8798
-62.9601
-62.5989
-62.6265
-61.8381
-62.3957
-63.254
-65.9361
-62.1554
-64.9605
-70.2511
-68.9998
-66.1659
-66.0105
-65.3587
-65.2551
-65.2384
-65.1965
-65.0653
-65.4773
-65.485
-65.5021
-64.8347
-63.9826
-63.9744
-63.6451
-63.012
-63.5733
-66.3953
-68.5911
-66.7565
-65.6079
-65.9363
-67.0552
-67.1195
-67.3454
-66.7181
-65.7853
-64.9306
-65.9222
-66.9655
-67.411
-67.0676
-66.8379
-65.0791
-65.5075
-64.6153
-62.591
-61.4763
-68.6619
-67.6876
-65.781
-64.9715
-64.8843
-65.5594
-64.9357
-64.636
-64.163
-63.8851
-63.5636
-63.0583
-63.6249
-64.0424
-64.4763
-64.85
-65.3824
-65.5976
-64.7294
-64.9556
-63.8504
-64.9948
-64.4494
-44.7545
-45.1663
-45.3006
-45.2787
-45.7664
-45.7125
-45.8631
-45.9208
-45.8658
-46.2842
-46.3865
-46.6266
-46.8273
-46.6743
-46.6219
-46.5758
-47.3592
-47.4396
-47.7048
-48.08
-48.2209
-47.999
-47.8893
-47.7704
-47.6655
-48.1538
-48.646
-49.2859
-49.429
-49.7794
-50.0623
-49.9956
-49.8331
-49.5679
-49.0564
-49.1351
-50.5639
-51.0679
-51.4356
-51.5609
-51.9299
-52.104
-52.2299
-52.0167
-51.6646
-51.0078
-49.7938
-50.8801
-49.7683
-52.9384
-53.7832
-54.3663
-55.4391
-55.5732
-55.6082
-55.6079
-55.8123
-55.9537
-55.992
-55.7438
-55.1376
-55.1715
-53.8136
-52.9613
-53.7871
-59.6756
-61.6734
-61.1935
-61.2192
-60.0147
-59.5805
-59.2078
-58.9826
-58.8823
-58.9442
-58.9024
-59.259
-59.5725
-60.0538
-61.2904
-56.325
-58.4716
-67.976
-66.8469
-65.5334
-64.4305
-63.2263
-62.3352
-62.6342
-62.8268
-62.1223
-62.8276
-63.019
-62.7674
-62.485
-61.7485
-62.8266
-63.6839
-66.2962
-62.884
-65.8648
-71.0185
-69.4917
-66.5984
-66.3105
-65.3678
-65.1875
-65.1972
-65.0338
-64.9073
-64.8937
-65.2298
-65.6028
-65.5911
-65.6242
-64.6233
-63.8759
-63.837
-63.374
-63.6838
-64.355
-66.8802
-68.9941
-66.8831
-65.656
-65.9996
-67.0305
-67.079
-67.1982
-66.6381
-65.7075
-64.8453
-64.7883
-65.0272
-65.9741
-66.9955
-67.3921
-67.0838
-66.7737
-65.0448
-65.466
-64.5141
-62.3581
-61.6637
-68.8271
-67.743
-65.8903
-64.9531
-64.869
-65.5033
-64.9953
-64.7128
-64.0473
-63.8293
-63.5198
-62.9635
-62.7839
-63.1275
-63.6465
-64.0791
-64.5137
-64.9046
-65.4129
-65.5788
-64.7202
-64.947
-63.8462
-64.9489
-64.5336
-44.2071
-44.7661
-44.7969
-44.7112
-45.1753
-45.2805
-45.3333
-45.3449
-45.2667
-45.6532
-45.7143
-45.838
-45.8495
-45.9094
-45.8954
-45.7875
-46.0864
-46.3051
-46.6228
-46.7818
-46.9061
-46.8714
-46.7945
-46.5455
-46.6629
-47.2815
-47.4538
-47.599
-47.9848
-48.156
-48.2229
-48.0682
-48.0315
-47.8488
-47.8153
-47.6412
-48.1747
-48.4924
-49.1949
-49.4958
-49.6734
-49.9154
-50.1266
-50.1495
-50.0301
-49.8968
-49.4106
-49.2946
-48.7508
-50.5622
-50.9867
-51.4284
-51.7698
-51.9628
-52.055
-52.2011
-52.3245
-52.207
-51.8742
-51.6622
-50.9962
-50.1985
-50.6683
-49.5437
-52.8758
-52.944
-54.1931
-55.2382
-55.3074
-55.6888
-55.5391
-55.5826
-55.7473
-56.0959
-56.0936
-55.7912
-55.5637
-55.0757
-54.8722
-53.5882
-52.9295
-54.1112
-59.9894
-62.511
-61.489
-61.313
-60.4897
-59.5821
-59.4498
-58.9438
-59.0588
-58.9779
-58.9115
-58.7571
-58.31
-59.0768
-60.1562
-59.8963
-61.7037
-56.3375
-59.0593
-67.8683
-67.6807
-65.8238
-64.8059
-63.3115
-62.1945
-62.5445
-62.7038
-62.0886
-61.6374
-62.1798
-62.795
-62.7197
-62.5106
-62.1219
-61.8724
-63.1346
-63.9993
-66.5635
-63.8893
-66.6633
-71.507
-69.9026
-66.9546
-66.555
-65.3978
-65.1164
-65.1276
-64.8898
-64.7537
-64.6792
-64.4494
-65.0385
-65.3888
-65.6839
-65.6548
-65.6165
-64.5264
-63.7643
-63.6772
-63.0935
-63.6377
-64.5312
-67.3647
-69.3361
-66.9619
-65.6857
-66.0807
-67.043
-67.0076
-67.0071
-66.5847
-65.5833
-64.7653
-64.7128
-64.3382
-64.7683
-65.0882
-66.0032
-67.0253
-67.3781
-67.1176
-66.706
-65.0146
-65.4385
-64.4112
-62.2837
-61.7899
-69.0298
-67.7882
-65.9766
-64.9412
-64.8395
-65.4425
-65.038
-64.7486
-64.0347
-63.8289
-63.4545
-62.8518
-62.7149
-62.7316
-62.839
-63.1806
-63.6542
-64.1056
-64.5419
-64.9587
-65.4297
-65.5569
-64.7107
-64.9301
-63.8927
-64.9076
-64.6048
-43.9483
-44.2159
-44.2656
-44.2261
-44.7706
-44.7073
-44.7421
-44.8403
-44.7355
-45.1371
-45.3244
-45.2298
-45.3346
-45.2284
-45.3768
-45.2831
-45.5931
-45.6707
-45.7829
-46.0129
-46.0249
-46.062
-45.9133
-45.8619
-45.8124
-46.0639
-46.2706
-46.61
-46.7623
-46.8829
-47.0638
-46.9559
-46.8981
-46.762
-46.6101
-46.5421
-47.3084
-47.4885
-47.5683
-48.01
-47.9619
-48.217
-48.4473
-48.2549
-48.2318
-47.9782
-47.8771
-47.7769
-47.6105
-48.1187
-48.4651
-49.1623
-49.433
-49.6713
-49.8904
-50.0771
-50.3393
-50.2355
-50.1782
-50.1162
-49.9162
-49.2783
-49.1331
-48.7828
-51.0279
-51.2651
-51.4128
-51.8023
-52.089
-52.0148
-52.1927
-52.2955
-52.7425
-52.4028
-52.0933
-51.98
-51.4522
-51.0515
-50.5976
-50.5744
-49.5112
-52.7704
-53.1278
-54.2543
-55.0589
-55.2383
-55.448
-55.4263
-55.3941
-55.5313
-55.927
-55.9699
-56.1928
-56.0836
-55.7889
-55.6385
-54.9764
-54.293
-53.3486
-52.9004
-54.5213
-60.4362
-62.6354
-61.7907
-61.2753
-60.7361
-59.6455
-59.4355
-58.9479
-58.8715
-58.5994
-59.0269
-58.986
-58.6764
-58.3814
-58.4586
-59.2555
-60.5719
-59.7637
-61.268
-55.9699
-59.0892
-68.0565
-67.7881
-66.3375
-65.1007
-63.6339
-62.188
-62.2844
-62.5426
-61.9692
-61.5414
-61.347
-61.7902
-62.2677
-62.6618
-62.431
-62.1641
-62.0955
-61.9489
-63.3889
-64.2809
-66.1376
-64.4444
-67.3762
-71.7962
-70.2149
-67.1799
-66.7945
-65.4596
-65.2027
-64.9972
-64.6729
-64.5897
-64.4953
-64.2748
-63.5674
-64.5319
-65.089
-65.5254
-65.7501
-65.6764
-65.6575
-64.3549
-63.6685
-63.5
-62.8546
-63.0358
-64.4038
-67.949
-69.6059
-67.0146
-65.6898
-66.1638
-67.0367
-66.9599
-66.804
-66.4403
-65.3858
-64.6591
-64.6323
-64.3559
-64.2119
-64.3581
-64.7569
-65.1061
-66.0081
-67.0576
-67.3718
-67.1516
-66.6307
-64.9927
-65.418
-64.3245
-62.393
-61.8053
-69.2076
-67.8206
-66.0638
-64.9301
-64.8082
-65.3791
-65.0618
-64.7694
-64.0871
-63.8725
-63.3787
-62.7668
-62.6629
-62.7198
-62.9753
-62.7443
-62.8775
-63.2135
-63.6472
-64.1224
-64.558
-64.9931
-65.4412
-65.5342
-64.6989
-64.9011
-63.9611
-64.8916
-64.6647
-43.6119
-43.9545
-43.8268
-43.9751
-44.2324
-44.2643
-44.3185
-44.3346
-44.1958
-44.7117
-44.6746
-44.7265
-44.8475
-44.7276
-44.7809
-44.7577
-45.0941
-45.2563
-45.2034
-45.3318
-45.3232
-45.2777
-45.3475
-45.3048
-45.2787
-45.598
-45.6938
-45.7353
-45.8448
-45.9713
-46.1178
-46.032
-46.0137
-45.8982
-45.891
-45.8423
-46.1183
-46.3939
-46.5765
-46.6571
-46.8894
-47.0001
-47.1478
-47.0769
-47.0947
-46.9195
-46.7364
-46.4635
-46.4985
-47.4239
-47.5906
-47.6288
-47.8797
-48.1543
-48.2141
-48.4227
-48.665
-48.5328
-48.4371
-48.2215
-47.9468
-47.83
-47.9551
-47.5408
-48.2393
-48.6063
-49.0559
-49.3177
-49.754
-49.8697
-50.0564
-50.3251
-50.5124
-50.429
-50.3563
-50.3367
-50.1974
-49.8352
-49.6425
-49.071
-48.8752
-51.645
-51.932
-51.3928
-51.7323
-52.2977
-52.312
-52.1635
-52.3479
-52.7632
-52.929
-52.8805
-52.3949
-52.353
-52.1516
-51.7388
-51.2355
-50.673
-50.1622
-49.6871
-53.733
-53.2268
-54.3218
-54.777
-55.3344
-55.5021
-55.3307
-55.1185
-55.3584
-55.6038
-55.7738
-56.0332
-56.0338
-56.4907
-56.3051
-55.8677
-55.7244
-55.2471
-53.9893
-53.0626
-52.3677
-54.4997
-60.5373
-62.8336
-62.1808
-61.394
-60.1737
-59.6764
-59.3351
-58.9111
-58.6817
-58.4868
-58.6195
-58.8288
-59.1181
-58.9056
-58.4387
-58.5101
-58.5727
-59.6007
-60.7469
-59.6294
-60.3737
-56.0971
-59.6827
-67.7507
-67.8603
-66.577
-65.3335
-63.8766
-62.2315
-62.1946
-62.4136
-61.8162
-61.3605
-61.3332
-60.9106
-61.4701
-61.8193
-62.2845
-62.5763
-62.3883
-61.9599
-61.9088
-62.0327
-63.5127
-64.2981
-65.0136
-64.6403
-67.9974
-72.0516
-70.3173
-67.3244
-67.0098
-65.4842
-65.2696
-64.8893
-64.5014
-64.392
-64.3071
-64.0635
-63.4731
-62.9839
-63.6524
-64.5824
-65.2057
-65.6364
-65.869
-65.6915
-65.6244
-64.1964
-63.577
-63.2991
-62.6579
-62.6721
-64.4312
-68.4083
-69.8416
-67.2058
-65.6836
-66.2227
-67.0347
-66.9304
-66.6109
-66.1885
-65.1337
-64.5388
-64.5583
-64.3503
-64.1495
-64.3103
-64.2576
-64.3538
-64.7873
-65.1612
-66.0075
-67.065
-67.3601
-67.1877
-66.5439
-64.9734
-65.3555
-64.247
-62.4155
-61.7476
-69.3872
-67.8355
-66.1058
-64.9139
-64.7888
-65.3448
-65.0808
-64.7632
-64.1342
-63.9058
-63.2958
-62.6884
-62.6366
-62.7079
-62.9318
-63.0648
-63.0149
-62.7661
-62.9304
-63.2358
-63.6359
-64.1132
-64.5494
-64.9951
-65.4492
-65.5136
-64.6857
-64.8629
-64.0272
-64.9102
-64.7245
-43.4018
-43.5765
-43.6288
-43.6044
-43.8841
-43.8801
-43.8912
-43.8603
-43.9171
-44.1616
-44.2713
-44.2951
-44.283
-44.3301
-44.2681
-44.2433
-44.6956
-44.6037
-44.7484
-44.6908
-44.8329
-44.69
-44.8259
-44.8159
-44.7865
-44.9771
-45.176
-45.192
-45.2242
-45.3617
-45.4144
-45.3813
-45.366
-45.2782
-45.2821
-45.3108
-45.6207
-45.6761
-45.8131
-45.7462
-45.9914
-46.0928
-46.2097
-46.1245
-46.0445
-45.9854
-45.9766
-45.8909
-45.6763
-46.1918
-46.3127
-46.6156
-46.6367
-46.9792
-46.9815
-47.167
-47.1508
-47.2347
-47.1945
-47.0616
-46.8376
-46.7613
-46.3397
-46.5202
-47.5596
-47.6831
-47.592
-47.7969
-48.1811
-48.2812
-48.4306
-48.754
-48.9737
-48.7233
-48.5639
-48.4499
-48.2961
-48.0142
-47.7754
-47.8195
-47.5858
-48.0156
-48.5821
-49.2113
-49.2699
-49.6831
-49.8232
-50.064
-50.3011
-50.4792
-50.5995
-50.5511
-50.4769
-50.4418
-50.1978
-50.0984
-49.6563
-49.3283
-49.0569
-48.9118
-51.5651
-51.7765
-51.3245
-51.8571
-52.1893
-52.2511
-52.2363
-52.3256
-52.5736
-52.9604
-53.228
-53.0108
-52.7908
-52.4979
-52.5028
-52.3278
-52.0009
-51.4194
-51.0265
-50.137
-49.9963
-54.9469
-52.272
-54.6754
-54.5466
-55.151
-55.3672
-55.332
-55.1144
-55.1692
-55.4102
-55.5684
-56.1984
-56.1763
-56.0806
-56.18
-56.5797
-56.3868
-56.0022
-55.7154
-55.0501
-53.6901
-52.694
-52.4207
-54.0397
-60.6333
-62.7572
-62.1382
-61.5013
-60.2396
-59.5835
-59.2673
-58.9003
-58.4625
-58.3108
-58.3603
-58.4948
-58.8508
-58.9698
-59.2162
-58.8462
-58.6031
-58.5723
-58.763
-59.5226
-60.8076
-59.5307
-59.2275
-56.0073
-60.4514
-67.1702
-67.2365
-66.585
-65.3655
-63.8551
-62.2165
-62.0689
-62.107
-61.6093
-61.1412
-61.1026
-60.7161
-60.4487
-61.1087
-61.6822
-61.8451
-62.3444
-62.5434
-62.4237
-61.8043
-61.8392
-62.1995
-63.5759
-64.3043
-64.4706
-64.3748
-68.502
-71.8661
-70.08
-67.3792
-67.1591
-65.5022
-65.3601
-64.7398
-64.2931
-64.1648
-64.1017
-63.8958
-63.4686
-62.8242
-62.5911
-63.0696
-63.7831
-64.8227
-65.3865
-65.7326
-65.9383
-65.7252
-65.6217
-64.039
-63.5082
-63.0796
-62.6153
-62.7729
-64.4832
-68.654
-70.0436
-67.5236
-65.6647
-66.2786
-67.0215
-66.8777
-66.4277
-65.8934
-64.9223
-64.4034
-64.4776
-64.2806
-64.0739
-64.3226
-65.065
-64.2938
-64.2545
-64.3556
-64.8534
-65.2339
-66.0025
-67.0413
-67.3392
-67.2098
-66.4452
-64.9457
-65.2748
-64.1956
-62.4071
-61.7318
-69.5481
-67.8426
-66.1099
-64.8898
-64.7488
-65.3237
-65.0944
-64.7486
-64.1557
-63.9292
-63.2487
-62.6049
-62.6193
-62.6932
-62.8827
-63.0428
-63.156
-63.0956
-63.0455
-62.7896
-62.9677
-63.2589
-63.6179
-64.0979
-64.5271
-64.9769
-65.4467
-65.4857
-64.6723
-64.8199
-64.0706
-64.958
-64.797
-43.2159
-43.3829
-43.506
-43.4144
-43.5981
-43.6025
-43.7331
-43.6763
-43.619
-43.936
-43.9309
-43.9368
-44.0007
-43.9819
-43.8939
-43.8979
-44.2656
-44.3173
-44.3169
-44.3063
-44.3411
-44.2733
-44.2463
-44.2478
-44.2832
-44.7282
-44.6221
-44.7456
-44.7693
-44.7703
-44.8599
-44.8118
-44.7857
-44.8898
-44.7166
-44.7653
-45.0064
-45.1695
-45.1977
-45.2462
-45.2919
-45.4379
-45.5189
-45.4191
-45.312
-45.3268
-45.282
-45.3326
-45.2568
-45.7374
-45.6506
-45.8629
-45.8472
-45.9645
-46.0605
-46.1868
-46.3471
-46.2256
-46.1036
-46.1272
-45.9881
-45.9691
-45.7949
-45.7
-46.3822
-46.4143
-46.5899
-46.6385
-46.7306
-46.9652
-47.1436
-47.2915
-47.4205
-47.4009
-47.3203
-47.2105
-46.9706
-46.7378
-46.6355
-46.4091
-46.5119
-47.8246
-47.6671
-47.6995
-47.876
-47.7946
-48.2188
-48.4637
-48.6993
-48.9326
-49.0069
-48.8835
-48.7479
-48.6345
-48.4089
-48.2809
-47.9718
-47.6735
-47.7538
-47.3131
-47.6964
-48.4278
-49.2093
-49.5218
-49.5798
-49.874
-50.1449
-50.2977
-50.3884
-50.64
-50.8919
-50.8065
-50.6827
-50.5232
-50.4376
-50.2559
-50.0385
-49.581
-49.4452
-49.0027
-49.0429
-50.507
-51.8778
-51.3028
-51.9143
-52.0126
-52.2038
-52.2316
-52.3779
-52.3605
-52.771
-53.1188
-53.5131
-53.238
-53.1485
-52.8664
-52.8713
-52.591
-52.5064
-51.848
-51.4749
-51.1785
-50.3299
-50.2037
-54.8015
-52.9505
-54.5104
-54.636
-55.0081
-55.2515
-55.281
-55.0228
-55.2039
-55.2803
-55.3686
-55.8661
-56.1819
-56.5106
-56.3943
-56.3291
-56.3505
-56.4883
-56.3593
-56.1193
-55.7313
-54.8335
-53.6913
-52.5542
-52.7289
-54.5696
-60.8813
-62.7819
-62.1506
-61.6149
-60.2358
-59.4906
-59.1488
-58.7566
-58.3387
-58.0893
-58.1175
-58.2696
-58.159
-58.8816
-59.0311
-59.0206
-59.173
-58.8431
-58.6824
-58.6852
-58.8691
-59.5251
-60.6803
-59.4327
-58.4363
-55.8979
-60.7967
-66.5016
-66.3349
-66.3888
-65.2706
-63.7334
-62.1657
-61.9249
-61.8003
-61.4256
-60.9496
-60.833
-60.4872
-60.1988
-60.1889
-60.6999
-61.4777
-61.9169
-61.9597
-62.3569
-62.7085
-62.3441
-61.7218
-61.7677
-62.2367
-63.5964
-64.258
-64.5108
-63.9519
-68.5879
-71.4299
-69.4219
-67.3134
-67.23
-65.3986
-65.4332
-64.5611
-64.0893
-63.9797
-63.9023
-63.674
-63.33
-62.801
-62.5168
-63.019
-62.605
-63.1813
-64.1204
-64.9374
-65.4234
-65.8043
-65.9976
-65.7273
-65.6911
-63.9575
-63.4238
-62.9345
-62.6372
-63.104
-64.529
-69.2353
-70.1986
-67.7588
-65.6235
-66.3362
-66.9904
-66.7884
-66.2505
-65.6185
-64.718
-64.2443
-64.4173
-64.1751
-64.0093
-64.3339
-65.1641
-63.8842
-64.9664
-64.2746
-64.2403
-64.3786
-64.7279
-65.2575
-65.9755
-66.9617
-67.2827
-67.2166
-66.3335
-64.9046
-65.1911
-64.1504
-62.4655
-61.6894
-69.7165
-67.8506
-66.1497
-64.8602
-64.6992
-65.2893
-65.1031
-64.7267
-64.1438
-63.9435
-63.203
-62.5047
-62.6096
-62.6731
-62.8368
-63.0289
-63.1188
-62.6361
-63.19
-63.1269
-63.0725
-62.8107
-62.9825
-63.2708
-63.5974
-64.081
-64.5037
-64.952
-65.4337
-65.4486
-64.6593
-64.7733
-64.0628
-65.0255
-64.8995
-43.0432
-43.2129
-43.1988
-43.2217
-43.4267
-43.4854
-43.4587
-43.5228
-43.3919
-43.6589
-43.742
-43.6884
-43.6652
-43.6991
-43.6468
-43.5795
-43.9474
-44.0556
-43.9911
-43.9069
-43.9784
-43.9483
-43.9865
-43.8779
-44.0113
-44.3254
-44.361
-44.3242
-44.2662
-44.333
-44.37
-44.3347
-44.2869
-44.2887
-44.2615
-44.2754
-44.8027
-44.6997
-44.8026
-44.7238
-44.7842
-44.8268
-44.8893
-44.8706
-44.8259
-44.6974
-44.7533
-44.7455
-44.8008
-45.1029
-45.193
-45.1578
-45.2327
-45.256
-45.3614
-45.3783
-45.7273
-45.4635
-45.4141
-45.3353
-45.3683
-45.3064
-45.2779
-45.0421
-45.8067
-45.8541
-45.9457
-45.8876
-45.7228
-46.0332
-46.0815
-46.3239
-46.4905
-46.3008
-46.2819
-46.1363
-46.1009
-45.948
-45.9372
-45.766
-45.742
-46.3548
-46.5174
-46.5711
-46.6709
-46.7955
-46.9516
-47.1494
-47.3618
-47.5396
-47.6584
-47.5825
-47.4956
-47.3045
-47.1778
-46.9783
-46.8638
-46.7173
-46.3644
-46.5095
-47.6678
-47.5748
-47.8181
-47.7598
-48.1107
-48.2774
-48.4531
-48.6062
-48.8261
-48.9972
-49.1266
-49.0663
-48.9223
-48.8051
-48.5994
-48.3163
-48.1613
-47.8215
-47.5016
-47.6156
-47.2813
-47.6944
-48.8849
-49.0879
-49.3702
-49.8073
-49.9128
-50.0766
-50.274
-50.466
-50.6436
-50.9025
-50.9583
-50.8085
-50.8876
-50.6707
-50.541
-50.5089
-50.3069
-49.8817
-49.6971
-49.5204
-48.9964
-49.0705
-50.1652
-52.3038
-51.2872
-52.1399
-52.1532
-52.1966
-52.1698
-52.2769
-52.3631
-52.6922
-52.9031
-53.0734
-53.5394
-53.4934
-53.6082
-53.2005
-53.011
-52.9168
-52.6097
-52.6932
-52.1396
-51.6343
-51.2257
-50.566
-50.3405
-54.2245
-53.1221
-54.8609
-54.4636
-55.0757
-55.3068
-55.2122
-55.1036
-55.0269
-55.174
-55.2818
-55.4388
-55.8052
-55.9631
-56.5202
-56.8089
-56.5957
-56.5038
-56.4558
-56.1781
-56.4349
-56.0569
-55.9398
-54.7556
-53.832
-52.6694
-52.5519
-53.8822
-59.287
-62.5734
-62.2286
-61.6182
-60.0584
-59.399
-59.004
-58.7207
-58.2341
-57.858
-57.8805
-57.921
-57.8591
-57.5013
-58.4246
-59.0693
-59.1454
-59.1324
-59.2668
-58.9108
-58.6407
-58.8117
-58.7983
-59.4814
-60.5703
-59.1598
-57.8762
-55.2757
-60.9693
-65.8432
-65.732
-66.1398
-65.0493
-63.5108
-61.9976
-61.8584
-61.6066
-61.1816
-60.6707
-60.5736
-60.3319
-59.9557
-59.9995
-60.2061
-60.4202
-60.9181
-61.6715
-61.8138
-62.0878
-62.3789
-62.5366
-62.2248
-61.536
-61.5462
-62.3441
-63.3725
-64.026
-64.7292
-64.0842
-68.7136
-70.5965
-68.9384
-67.0352
-67.3142
-65.2617
-65.433
-64.4121
-63.9078
-63.8011
-63.6873
-63.4056
-63.1802
-62.7643
-62.4095
-63.0481
-62.9172
-63.0712
-62.7373
-63.4006
-64.2199
-64.9314
-65.5469
-65.872
-65.9633
-65.7816
-65.7051
-63.8479
-63.3726
-62.9349
-62.7001
-63.4195
-64.568
-69.6766
-70.3401
-67.8344
-65.5461
-66.4122
-66.9796
-66.6456
-66.1004
-65.361
-64.4842
-64.1095
-64.3698
-64.044
-63.9495
-64.3493
-65.2356
-63.891
-63.4456
-63.9106
-64.8814
-64.2448
-64.2363
-64.3394
-64.7758
-65.2599
-65.9377
-66.8237
-67.1959
-67.1835
-66.2081
-64.8586
-65.1019
-64.1057
-62.497
-61.6094
-69.9391
-67.8675
-66.1121
-64.8262
-64.6529
-65.247
-65.0491
-64.7145
-64.1253
-63.9515
-63.129
-62.4496
-62.614
-62.6511
-62.8175
-63.0162
-63.0812
-62.5872
-62.0392
-62.687
-63.2204
-63.1451
-63.0979
-62.8328
-63.0157
-63.2759
-63.5791
-64.0549
-64.4808
-64.9172
-65.4148
-65.4146
-64.6471
-64.7237
-64.0111
-65.0957
-65.0316
-42.9006
-43.0436
-43.0714
-43.0581
-43.2234
-43.2169
-43.2579
-43.2124
-43.241
-43.4019
-43.4805
-43.429
-43.4997
-43.4159
-43.4991
-43.4009
-43.6559
-43.6562
-43.7034
-43.6391
-43.7157
-43.6286
-43.7149
-43.6649
-43.5967
-43.9347
-43.968
-44.0081
-43.9264
-43.9978
-44.0178
-44.0068
-43.951
-43.9675
-43.9178
-43.9911
-44.2445
-44.3254
-44.3205
-44.3279
-44.3384
-44.3999
-44.4684
-44.4122
-44.4
-44.2426
-44.2704
-44.2857
-44.2476
-44.7687
-44.7035
-44.8373
-44.7514
-44.7792
-44.8305
-44.8043
-45.018
-44.92
-44.8113
-44.7243
-44.7386
-44.8452
-44.764
-44.7765
-45.3349
-45.2108
-45.2023
-45.2325
-45.2619
-45.3532
-45.419
-45.603
-45.7758
-45.4281
-45.4926
-45.4327
-45.3905
-45.3212
-45.2732
-45.1527
-45.0665
-45.9013
-45.9046
-46.0161
-45.8226
-46.1607
-45.9627
-46.1045
-46.2721
-46.4266
-46.5769
-46.4613
-46.3318
-46.2067
-46.1974
-46.0732
-46.0184
-45.8924
-45.787
-45.6876
-46.3207
-46.5004
-46.5637
-46.6527
-46.8478
-47.0439
-47.131
-47.3135
-47.5614
-47.6894
-47.8809
-47.6469
-47.5753
-47.474
-47.253
-47.126
-46.9238
-46.7616
-46.5876
-46.2924
-46.2607
-47.5399
-47.6125
-47.9356
-47.9766
-48.1208
-48.2788
-48.5132
-48.6121
-48.8632
-49.0473
-49.0384
-48.9266
-49.187
-48.9533
-48.9285
-48.7237
-48.6774
-48.3104
-48.0874
-47.7757
-47.6518
-47.5889
-47.4936
-47.9632
-48.8588
-49.1207
-49.4441
-49.7213
-49.9505
-50.1115
-50.2356
-50.4639
-50.5954
-50.805
-50.8284
-51.1623
-51.0502
-50.8966
-50.8128
-50.6296
-50.6526
-50.4473
-50.2154
-49.9767
-49.7643
-49.2811
-49.0567
-49.0166
-50.2057
-51.4272
-51.3551
-52.1637
-52.2399
-52.1704
-52.1135
-52.0917
-52.3298
-52.6331
-52.8209
-52.8785
-53.1671
-53.3577
-53.7156
-53.6803
-53.7229
-53.3635
-53.1516
-52.8211
-53.0808
-52.6967
-52.0874
-51.8159
-51.3125
-50.5557
-50.2585
-54.2175
-52.7322
-54.7754
-54.3207
-54.9877
-54.9539
-55.1613
-55.0989
-54.6908
-55.0914
-55.0901
-55.232
-55.5122
-55.6185
-55.7901
-56.4249
-56.872
-56.9258
-56.8381
-56.6819
-56.4277
-56.3396
-56.2607
-56.2013
-55.9213
-54.4827
-53.8168
-52.8301
-51.9786
-53.8294
-58.0417
-61.8915
-61.9637
-61.549
-60.0441
-59.1316
-58.7192
-58.6154
-58.0105
-57.6163
-57.668
-57.6138
-57.5149
-57.4282
-57.3283
-57.8365
-58.7403
-59.1711
-59.1859
-59.1936
-59.2282
-58.7174
-58.5411
-58.6993
-58.6402
-59.4432
-60.4833
-58.6192
-57.7275
-55.7619
-61.3938
-65.3258
-64.584
-65.478
-64.8041
-63.1821
-61.8828
-61.8586
-61.3017
-60.8683
-60.4406
-60.3334
-60.1048
-59.741
-59.7612
-60.0228
-60.3566
-60.41
-60.6478
-61.0768
-61.6875
-61.9554
-62.1882
-62.5047
-62.2944
-62.0735
-61.4757
-61.4975
-62.4414
-63.3349
-63.7602
-64.8687
-64.1514
-68.8808
-69.62
-68.1725
-66.7562
-67.3056
-65.135
-65.3547
-64.2572
-63.7548
-63.6519
-63.4983
-63.1875
-63.0238
-62.5737
-62.3665
-63.0852
-62.8077
-62.8373
-63.0242
-63.1087
-63.0964
-63.4916
-64.2213
-65.0226
-65.7877
-65.936
-65.8873
-65.7436
-65.6703
-63.7532
-63.3237
-63.3099
-62.7624
-63.5607
-64.569
-69.8204
-70.5206
-67.7205
-65.4532
-66.5084
-66.9904
-66.5135
-65.9488
-65.1193
-64.2309
-63.9644
-64.2433
-63.894
-63.8716
-64.3232
-65.2856
-63.9192
-63.2954
-62.3956
-63.6335
-63.9803
-64.7843
-64.2128
-64.1979
-64.3203
-64.7253
-65.2262
-65.8883
-66.7386
-67.0882
-67.1059
-66.0656
-64.8194
-64.9968
-64.0477
-62.5294
-61.524
-70.1513
-67.8926
-66.005
-64.7859
-64.5859
-65.2021
-64.927
-64.7292
-64.1108
-63.9362
-63.0424
-62.4593
-62.6189
-62.6343
-62.8093
-62.9991
-63.0472
-62.5379
-61.9748
-61.6003
-62.1016
-62.752
-63.2484
-63.1539
-63.1111
-62.8457
-63.0378
-63.2683
-63.5589
-64.0296
-64.4623
-64.8968
-65.3809
-65.3851
-64.6342
-64.6754
-63.9551
-65.1153
-65.0947
-42.7796
-42.9025
-42.9191
-42.9177
-43.0344
-43.0716
-43.0785
-43.0727
-43.0306
-43.2125
-43.1947
-43.2599
-43.2453
-43.2701
-43.2112
-43.2319
-43.4061
-43.3985
-43.4065
-43.5683
-43.4578
-43.5123
-43.3984
-43.5004
-43.5218
-43.6625
-43.5462
-43.684
-43.6318
-43.725
-43.697
-43.7234
-43.6302
-43.656
-43.6748
-43.6025
-43.989
-43.9427
-44.0125
-43.9741
-43.9988
-44.0152
-44.0805
-44.0566
-44.0478
-43.9992
-44.0048
-43.946
-43.9626
-44.2058
-44.3064
-44.3333
-44.3645
-44.3636
-44.3803
-44.395
-44.5173
-44.4389
-44.4071
-44.3315
-44.3155
-44.2576
-44.3106
-44.2366
-44.7643
-44.8175
-44.7711
-44.8301
-44.8331
-44.7612
-44.8762
-44.9434
-45.0686
-44.9556
-44.8741
-44.8235
-44.7859
-44.6972
-44.7878
-44.7177
-44.6487
-45.4522
-45.3012
-45.2054
-45.2526
-45.3237
-45.3856
-45.4494
-45.547
-45.6554
-45.7568
-45.599
-45.5507
-45.4949
-45.4671
-45.3346
-45.3178
-45.223
-45.2341
-45.1901
-45.901
-45.8011
-46.0038
-45.9365
-46.0708
-46.1083
-46.1652
-46.2914
-46.443
-46.5342
-46.7027
-46.5954
-46.4843
-46.3417
-46.2465
-46.1384
-46.1057
-45.9059
-45.8662
-45.719
-45.6298
-46.3292
-46.4842
-46.4541
-46.6469
-46.9001
-46.995
-47.1998
-47.3589
-47.5892
-47.7103
-47.7844
-48.0528
-47.8888
-47.6848
-47.5967
-47.3405
-47.2698
-47.016
-46.8977
-46.7256
-46.6559
-46.3537
-46.3483
-47.7339
-47.4493
-47.7904
-48.0045
-48.137
-48.2406
-48.5015
-48.6362
-48.7921
-48.9704
-49.0968
-49.1661
-49.0382
-49.0561
-49.0295
-48.9303
-49.0141
-48.7778
-48.5558
-48.2929
-48.0559
-47.7745
-47.7169
-47.4124
-47.3925
-48.2554
-48.8753
-48.9816
-49.4054
-49.7415
-49.9059
-50.031
-50.1634
-50.4148
-50.5207
-50.7333
-51.0087
-51.0685
-51.3046
-51.4174
-51.0194
-50.9598
-50.7988
-50.6494
-50.6828
-50.4952
-50.201
-49.8348
-49.4947
-49.2381
-49.1126
-49.0419
-49.7545
-51.1527
-51.3462
-52.2111
-52.3201
-52.2205
-52.1818
-52.1278
-52.25
-52.3883
-52.6523
-52.9046
-53.2122
-53.3633
-53.6475
-53.7874
-53.838
-53.9656
-53.5469
-53.3213
-53.2959
-53.541
-53.1902
-52.8501
-52.3306
-52.0063
-51.2925
-50.7041
-50.21
-53.6922
-53.672
-54.4506
-54.3877
-54.9174
-54.8361
-55.0424
-55.1109
-54.708
-54.8072
-54.9154
-55.1238
-55.4159
-55.6132
-55.541
-55.7052
-56.1071
-56.8104
-57.018
-56.8973
-56.9953
-56.8851
-56.5513
-56.7577
-56.0232
-56.2325
-55.9514
-54.8072
-53.8949
-52.9155
-51.3487
-54.6144
-58.2434
-61.3993
-61.5516
-61.2998
-59.6917
-58.7905
-58.5156
-58.4473
-57.6554
-57.4967
-57.4076
-57.3387
-57.3369
-57.1993
-57.1958
-56.9428
-57.4995
-58.077
-59.0196
-59.3434
-59.2908
-59.2018
-59.1691
-58.6767
-59.1763
-58.7594
-58.6244
-59.3715
-60.1056
-58.1748
-57.3518
-55.9395
-61.7612
-64.7645
-63.9191
-65.0176
-64.3913
-62.8169
-61.7421
-61.8537
-60.9835
-60.5296
-60.2239
-60.0419
-59.8524
-59.5491
-59.5424
-59.848
-60.1817
-60.7447
-60.5116
-60.6121
-60.784
-61.2146
-61.8265
-62.0693
-62.1992
-62.4567
-62.2202
-62.0187
-61.3392
-61.3238
-62.4238
-63.2363
-63.6471
-64.63
-64.5248
-68.869
-68.9247
-67.219
-66.2908
-67.2016
-64.9411
-65.0961
-64.0476
-63.5602
-63.5685
-63.3301
-62.9484
-62.7353
-62.519
-62.3488
-63.1187
-62.6674
-62.633
-61.7364
-62.9757
-63.1409
-63.1002
-63.0249
-63.5547
-64.3043
-65.1469
-65.7259
-65.9006
-65.8624
-65.6899
-65.5949
-63.5888
-63.3292
-63.2991
-62.894
-63.5412
-64.408
-70.2185
-70.7525
-67.4995
-65.3699
-66.5868
-67.0246
-66.3931
-65.7186
-64.9132
-63.9641
-63.8031
-64.028
-63.7299
-63.7851
-64.2948
-65.3223
-63.9623
-63.1557
-62.2181
-61.5095
-62.6221
-63.8065
-64.1001
-64.7243
-64.1963
-64.1545
-64.2664
-64.6962
-65.1098
-65.8275
-66.6096
-66.961
-66.9705
-65.9068
-64.7822
-64.8808
-63.9807
-62.5882
-61.433
-70.3421
-67.9178
-65.9051
-64.7399
-64.515
-65.1584
-64.8616
-64.7616
-64.1001
-63.8357
-62.9584
-62.4769
-62.6228
-62.6216
-62.8076
-62.9824
-63.0177
-62.5012
-61.9093
-61.5761
-61.2494
-61.6354
-62.1566
-62.8211