/*--------------------------------*- C++ -*----------------------------------*\
  =========                 |
  \\      /  F ield         | OpenFOAM: The Open Source CFD Toolbox
   \\    /   O peration     | Website:  https://openfoam.org
    \\  /    A nd           | Version:  7
     \\/     M anipulation  |
\*---------------------------------------------------------------------------*/
FoamFile
{
    version     2.0;
    format      ascii;
    class       volScalarField;
    location    "1";
    object      nut;
}
// * * * * * * * * * * * * * * * * * * * * * * * * * * * * * * * * * * * * * //

dimensions      [0 2 -1 0 0 0 0];

internalField   nonuniform List<scalar> 
18870
(
6.47255e-05
5.54025e-05
5.11267e-05
6.37108e-05
3.67221e-05
4.52251e-05
4.78022e-05
3.83252e-05
5.1944e-05
6.39214e-05
6.52448e-05
2.69373e-05
3.15891e-05
3.67915e-05
3.94475e-05
4.34877e-05
2.84407e-05
4.04236e-05
5.44201e-05
6.223e-05
8.54967e-05
7.76602e-05
6.883e-05
3.15201e-05
2.57203e-05
3.00916e-05
3.05841e-05
3.30034e-05
3.67193e-05
4.11616e-05
2.22296e-05
3.0727e-05
4.41123e-05
5.55579e-05
5.67132e-05
2.92609e-05
4.87185e-05
9.95164e-05
5.90229e-05
7.585e-05
7.76155e-05
3.58079e-05
3.33665e-05
3.03254e-05
2.90415e-05
2.63241e-05
2.94258e-05
3.24459e-05
3.61425e-05
3.83492e-05
1.81017e-05
2.37371e-05
3.42487e-05
4.73816e-05
5.32907e-05
4.58024e-05
8.01371e-05
5.6449e-05
5.00697e-05
3.35871e-05
6.09486e-05
0.000100999
4.49645e-05
5.48186e-05
7.71955e-05
7.2241e-05
4.00044e-05
3.57529e-05
3.81846e-05
3.65149e-05
2.77507e-05
2.49384e-05
2.64973e-05
2.98172e-05
3.41921e-05
3.50474e-05
3.4859e-05
1.48557e-05
1.89609e-05
2.60769e-05
3.82208e-05
4.80591e-05
4.48562e-05
3.2142e-05
6.35805e-05
9.92253e-05
3.84466e-05
7.68687e-05
5.16941e-05
8.08396e-05
3.57484e-05
3.33213e-05
6.72052e-05
8.83275e-05
4.52567e-05
3.83344e-05
4.9121e-05
7.22027e-05
5.52763e-05
3.0281e-05
3.67962e-05
3.83845e-05
3.64207e-05
3.85255e-05
2.5377e-05
2.55526e-05
2.52977e-05
2.79801e-05
3.07663e-05
3.49539e-05
3.32431e-05
2.86906e-05
1.25879e-05
1.55832e-05
2.00564e-05
2.8832e-05
4.14029e-05
4.22584e-05
3.23428e-05
2.17911e-05
8.40208e-05
0.00016643
0.00010777
0.000184064
5.40096e-05
3.20633e-05
7.39933e-05
6.2188e-05
6.71507e-05
0.00010956
3.54015e-05
2.89853e-05
4.21117e-05
7.11778e-05
7.17369e-05
5.514e-05
3.83637e-05
3.70594e-05
4.58041e-05
5.98972e-05
4.10427e-05
2.59809e-05
3.35183e-05
3.17317e-05
3.23757e-05
3.45831e-05
3.21484e-05
2.30398e-05
2.64464e-05
2.63045e-05
2.62287e-05
2.86276e-05
3.16957e-05
3.35947e-05
2.80488e-05
2.5553e-05
1.14633e-05
1.34249e-05
1.66275e-05
2.07721e-05
3.36314e-05
3.84885e-05
3.14382e-05
2.21648e-05
1.59296e-05
0.000570154
0.000196138
7.44106e-05
0.000202383
0.000191853
0.000127841
0.000146351
0.000110476
4.70897e-05
5.50023e-05
6.95073e-05
3.15918e-05
5.6326e-05
7.26908e-05
0.000103005
3.69106e-05
2.9686e-05
3.16912e-05
4.65503e-05
6.54938e-05
5.9608e-05
6.18729e-05
5.09057e-05
5.06662e-05
4.26715e-05
4.4676e-05
4.38566e-05
3.00819e-05
3.11858e-05
2.78918e-05
2.78452e-05
2.75723e-05
2.75336e-05
3.16176e-05
2.39559e-05
2.27708e-05
2.7806e-05
2.7317e-05
2.72758e-05
2.6282e-05
2.87965e-05
3.1606e-05
2.78888e-05
2.51725e-05
2.38269e-05
1.13709e-05
1.23925e-05
1.48342e-05
1.56778e-05
2.57598e-05
3.36857e-05
2.99589e-05
2.20726e-05
1.6156e-05
1.33889e-05
0.00116373
0.000553669
0.000361377
0.000320613
0.000155033
9.87872e-05
0.000148441
0.000172535
0.000154417
9.45473e-05
0.000162057
0.000105319
7.4282e-05
5.53533e-05
7.89656e-05
0.000108001
4.58498e-05
3.7906e-05
4.51883e-05
6.66063e-05
6.42198e-05
2.75508e-05
3.4242e-05
3.12305e-05
3.49543e-05
4.76842e-05
5.76122e-05
4.90283e-05
6.43344e-05
6.66876e-05
5.16953e-05
6.53536e-05
4.53701e-05
3.91341e-05
3.14014e-05
3.02734e-05
4.1118e-05
3.2174e-05
2.87547e-05
2.4475e-05
2.84665e-05
2.58546e-05
2.54762e-05
2.30476e-05
2.25248e-05
2.854e-05
2.65796e-05
2.84244e-05
2.68345e-05
2.63424e-05
2.90133e-05
2.73183e-05
2.50269e-05
2.33185e-05
2.14967e-05
1.17879e-05
1.18814e-05
1.39942e-05
1.41369e-05
1.92548e-05
2.83948e-05
2.79103e-05
2.18304e-05
1.60892e-05
1.33337e-05
1.26085e-05
0.000857367
0.00113075
0.00108438
0.0006532
0.000353689
0.000249205
0.000288536
0.000200605
0.000162944
0.000111588
0.000216555
7.56187e-05
0.000161985
9.43626e-05
9.86629e-05
0.000271515
0.000161149
7.61273e-05
5.53435e-05
6.03424e-05
5.86063e-05
0.000147914
8.74835e-05
4.12768e-05
4.62625e-05
5.06503e-05
5.50087e-05
4.33826e-05
5.97654e-05
4.0874e-05
4.76747e-05
3.48467e-05
3.90519e-05
4.94949e-05
4.92733e-05
4.07551e-05
4.72909e-05
6.15473e-05
5.02868e-05
5.1195e-05
6.14926e-05
3.7121e-05
3.36372e-05
3.09272e-05
2.78099e-05
4.69619e-05
2.96113e-05
3.32846e-05
2.57329e-05
2.56604e-05
3.04273e-05
2.27744e-05
2.4261e-05
2.28698e-05
2.25845e-05
2.95386e-05
2.55767e-05
2.66988e-05
2.70969e-05
2.60254e-05
2.7346e-05
2.58317e-05
2.48794e-05
2.32923e-05
2.11563e-05
2.08191e-05
1.24778e-05
1.21094e-05
1.37357e-05
1.41547e-05
1.59807e-05
2.3304e-05
2.54961e-05
2.14083e-05
1.62062e-05
1.32804e-05
1.2589e-05
1.14317e-05
0.000404468
0.000696099
0.00101355
0.00109387
0.00104144
0.000945611
0.000722663
0.000448593
0.00026892
0.000173916
0.000327573
0.000197634
0.000130332
0.000107114
9.10481e-05
0.000338429
0.000127735
6.65928e-05
0.000121213
8.27887e-05
6.98356e-05
0.000258043
0.000221295
0.000150268
6.01729e-05
5.24162e-05
4.95318e-05
5.54116e-05
0.000110693
0.000126116
8.24052e-05
3.77615e-05
5.46163e-05
4.87306e-05
4.38774e-05
4.42905e-05
6.73593e-05
7.20603e-05
5.41653e-05
5.53735e-05
3.70157e-05
4.21317e-05
4.03282e-05
3.81911e-05
3.52303e-05
5.0322e-05
2.7022e-05
5.79303e-05
3.85612e-05
4.70116e-05
3.86706e-05
3.3557e-05
3.12841e-05
2.86002e-05
2.63502e-05
4.31628e-05
2.58555e-05
2.47657e-05
3.0618e-05
2.43929e-05
2.77582e-05
2.63625e-05
2.4691e-05
2.35885e-05
2.28972e-05
2.2405e-05
2.98167e-05
2.59304e-05
2.41702e-05
2.51651e-05
2.57472e-05
2.65004e-05
2.49963e-05
2.43285e-05
2.32005e-05
2.12041e-05
2.06883e-05
1.9139e-05
1.33331e-05
1.22244e-05
1.35224e-05
1.45139e-05
1.50475e-05
1.93857e-05
2.29576e-05
2.08651e-05
1.63607e-05
1.29261e-05
1.25348e-05
1.15109e-05
1.01217e-05
0.000524447
0.000413441
0.000283742
0.000774483
0.00100257
0.00115291
0.00110673
0.000955179
0.000939255
0.000774775
0.00075993
0.000555425
0.000325146
0.000172514
0.000105062
0.0004909
0.000296671
0.000158477
7.35328e-05
7.25405e-05
8.75753e-05
0.000306558
0.000251202
0.000109077
6.66886e-05
9.13559e-05
6.58381e-05
6.86751e-05
0.000268636
0.000195517
0.000203756
0.000111689
6.65086e-05
4.6223e-05
5.40611e-05
4.37558e-05
0.000101936
0.000103023
0.000113387
7.18328e-05
4.24159e-05
4.54945e-05
4.99387e-05
4.06567e-05
3.84398e-05
4.91738e-05
6.61909e-05
7.6863e-05
5.85175e-05
5.0352e-05
3.92347e-05
3.71293e-05
3.98777e-05
3.3285e-05
3.27597e-05
5.02226e-05
4.23945e-05
2.51639e-05
4.14973e-05
3.74329e-05
4.07073e-05
3.4395e-05
3.14895e-05
2.83498e-05
2.69267e-05
2.643e-05
3.54546e-05
2.94881e-05
2.17528e-05
2.46525e-05
2.81195e-05
2.42211e-05
2.863e-05
2.42563e-05
2.56927e-05
2.29951e-05
2.25658e-05
2.12884e-05
2.53154e-05
2.73264e-05
2.30997e-05
2.22585e-05
2.43561e-05
2.63099e-05
2.43874e-05
2.4039e-05
2.29203e-05
2.11092e-05
2.06921e-05
1.91923e-05
1.70674e-05
1.22206e-05
1.17641e-05
1.33531e-05
1.48807e-05
1.47904e-05
1.71068e-05
2.05031e-05
2.01728e-05
1.64176e-05
1.28602e-05
1.23635e-05
1.15215e-05
1.02175e-05
9.10754e-06
0.000352701
0.000581744
0.00046317
0.000425034
8.53428e-05
0.000354176
0.000780342
0.000988688
0.00117701
0.00125332
0.00119416
0.00112219
0.000955397
0.000771599
0.000517622
0.000774496
0.000580371
0.000351113
0.000185055
0.000101291
7.66474e-05
0.000470106
0.000398549
0.000242135
7.6962e-05
7.78098e-05
7.41327e-05
7.51485e-05
0.000307061
0.00025255
0.000192632
0.000107798
6.61428e-05
6.36855e-05
7.42243e-05
5.2093e-05
0.000237386
0.000188738
0.000149439
0.00016791
9.35204e-05
6.15094e-05
3.63719e-05
5.82408e-05
4.75271e-05
0.00011503
7.39946e-05
8.79582e-05
0.000102545
6.30882e-05
4.06365e-05
4.20753e-05
4.68699e-05
3.56855e-05
4.14049e-05
4.33683e-05
4.63622e-05
6.8193e-05
6.88296e-05
5.22602e-05
4.32989e-05
3.58626e-05
4.0155e-05
3.70919e-05
3.31462e-05
3.26362e-05
5.1001e-05
3.95603e-05
4.11918e-05
2.9282e-05
4.50215e-05
4.28194e-05
3.16428e-05
3.43344e-05
2.84622e-05
2.68513e-05
2.69197e-05
2.47668e-05
2.84713e-05
2.83207e-05
2.79444e-05
2.37593e-05
2.5786e-05
2.7494e-05
2.47563e-05
2.74642e-05
2.36542e-05
2.49835e-05
2.27211e-05
2.09329e-05
1.8532e-05
1.85377e-05
2.46108e-05
2.47418e-05
2.06898e-05
2.20007e-05
2.5786e-05
2.44929e-05
2.36706e-05
2.30092e-05
2.07689e-05
2.05922e-05
1.91375e-05
1.7221e-05
1.57784e-05
1.17826e-05
1.14653e-05
1.28312e-05
1.40055e-05
1.47274e-05
1.59635e-05
1.85447e-05
1.92998e-05
1.64359e-05
1.30334e-05
1.21166e-05
1.14603e-05
1.03592e-05
9.23181e-06
8.76284e-06
0.000557112
0.000344801
0.000439766
0.000553023
0.000531673
0.000430912
0.000408864
0.000169682
0.000374718
0.000684692
0.000785314
0.000984116
0.00114143
0.00119329
0.00106895
0.00107516
0.00107807
0.000992899
0.000719687
0.000461764
0.000259819
0.000841019
0.000663753
0.000387048
0.000264536
0.000124497
9.20616e-05
8.66504e-05
0.00039523
0.000353685
0.000283654
0.000144163
8.74218e-05
8.10185e-05
7.36884e-05
7.44504e-05
0.000322555
0.000280707
0.000162532
0.000156196
7.33371e-05
5.79389e-05
8.68629e-05
7.22494e-05
6.74111e-05
0.000159094
0.000160074
0.000183695
0.000108442
0.000137996
6.94241e-05
4.38635e-05
4.37157e-05
5.43915e-05
6.95174e-05
0.000133296
0.000111601
6.03256e-05
8.24036e-05
8.74332e-05
5.04285e-05
4.31206e-05
4.16192e-05
3.72211e-05
4.16525e-05
4.66771e-05
3.47433e-05
3.21426e-05
5.45319e-05
6.1367e-05
5.5796e-05
4.3479e-05
3.50877e-05
3.8697e-05
3.8704e-05
3.50823e-05
3.39222e-05
3.04722e-05
5.04082e-05
4.16297e-05
2.9651e-05
3.53948e-05
3.95237e-05
5.62554e-05
4.87109e-05
3.14383e-05
2.8834e-05
2.85362e-05
2.6649e-05
2.51867e-05
2.28784e-05
1.77351e-05
2.39234e-05
2.84167e-05
2.65121e-05
2.44923e-05
2.64428e-05
2.70759e-05
2.62031e-05
2.53437e-05
2.34339e-05
2.35294e-05
2.1057e-05
1.82237e-05
1.61563e-05
2.04837e-05
2.03477e-05
2.39518e-05
2.21228e-05
2.07409e-05
2.41258e-05
2.45726e-05
2.39278e-05
2.27265e-05
2.1141e-05
2.03739e-05
1.91896e-05
1.72168e-05
1.59097e-05
1.51941e-05
1.20275e-05
1.13228e-05
1.23755e-05
1.41748e-05
1.43915e-05
1.53613e-05
1.71865e-05
1.84479e-05
1.60637e-05
1.31575e-05
1.21768e-05
1.13748e-05
1.04677e-05
9.41637e-06
8.87537e-06
8.55302e-06
0.000456749
0.000578255
0.000363874
0.000419745
0.000719876
0.000604476
0.00053776
0.000767856
0.000484725
0.000505089
0.00043001
0.000203242
0.00049827
0.00077328
0.00105163
0.000585028
0.000881307
0.00111848
0.00113075
0.00105008
0.000845632
0.00109102
0.00109154
0.00101532
0.000713632
0.00052109
0.000334237
0.000102131
0.000861312
0.000805952
0.000474944
0.000305522
0.000134827
0.000123196
9.11195e-05
5.20456e-05
0.000568948
0.000327815
0.000272036
0.000211124
0.000127945
6.68444e-05
7.47413e-05
7.07592e-05
6.39247e-05
0.000298277
0.000346097
0.000274914
0.000116096
0.000130437
4.95798e-05
6.59852e-05
9.76711e-05
4.29544e-05
7.36443e-05
0.000217579
0.000161557
0.000117226
0.000166779
8.86878e-05
0.000106095
4.62463e-05
4.42788e-05
5.30267e-05
5.52642e-05
6.6039e-05
0.000124937
0.000138134
9.2117e-05
5.22707e-05
7.69798e-05
7.36573e-05
4.6691e-05
4.05575e-05
3.58657e-05
4.25483e-05
3.90029e-05
4.90691e-05
7.35216e-05
4.30144e-05
3.55235e-05
5.9956e-05
5.02701e-05
4.48833e-05
3.56666e-05
3.75163e-05
3.86855e-05
3.63925e-05
3.4435e-05
3.00928e-05
2.76902e-05
0.00011772
4.15973e-05
4.42327e-05
2.69541e-05
3.71561e-05
4.92363e-05
5.79157e-05
4.45659e-05
2.91708e-05
2.92045e-05
2.90267e-05
2.50486e-05
2.32081e-05
2.089e-05
5.8408e-05
1.97789e-05
2.2957e-05
3.16002e-05
2.76444e-05
2.53685e-05
2.63834e-05
2.7643e-05
2.56599e-05
2.39165e-05
2.28737e-05
2.07762e-05
1.84591e-05
1.61231e-05
1.55557e-05
2.39335e-05
2.27825e-05
2.23051e-05
2.22134e-05
2.1434e-05
2.32069e-05
2.38732e-05
2.40366e-05
2.27978e-05
2.11407e-05
2.08395e-05
1.90455e-05
1.73741e-05
1.59549e-05
1.52833e-05
1.49672e-05
1.23344e-05
1.13267e-05
1.22553e-05
1.45102e-05
1.42467e-05
1.50475e-05
1.62466e-05
1.76611e-05
1.56994e-05
1.35672e-05
1.2306e-05
1.12986e-05
1.05774e-05
9.60213e-06
8.99118e-06
8.65386e-06
8.54628e-06
0.00034932
0.000307492
0.000255392
0.000357513
0.000319325
0.000297252
0.000457096
0.000587109
0.00077812
0.000560882
0.000559709
0.000543031
0.000636042
0.000327811
0.000296796
0.000384886
0.000178386
0.000473473
0.000615323
0.000898376
0.00107684
0.000733725
0.000972407
0.00096659
0.001133
0.00107578
0.000906636
0.000700441
0.000994672
0.0011761
0.00102227
0.000787119
0.00070204
0.00028725
0.000123936
8.17664e-05
0.000826218
0.000653082
0.0005296
0.000386572
0.000214686
0.000121051
0.000139737
6.51726e-05
5.47053e-05
0.000533036
0.000434981
0.000260674
0.000179876
0.000205975
8.68198e-05
6.62794e-05
8.56868e-05
6.59948e-05
5.49057e-05
0.000282232
0.000371863
0.000323546
0.000228875
0.000130951
9.47748e-05
5.8914e-05
6.02707e-05
7.79208e-05
4.76208e-05
5.23546e-05
0.000214159
0.000158873
0.000164419
0.000100229
0.000135025
7.52808e-05
7.02807e-05
4.48425e-05
4.59682e-05
4.77347e-05
5.2351e-05
4.70697e-05
0.000167873
0.000118563
0.000137292
6.43024e-05
5.89787e-05
7.07663e-05
6.34492e-05
4.22534e-05
3.53636e-05
3.83573e-05
4.03717e-05
3.55606e-05
4.94598e-05
0.000153038
7.5941e-05
4.28851e-05
4.56354e-05
6.32696e-05
4.50942e-05
3.85682e-05
3.70848e-05
3.77326e-05
3.75711e-05
3.64552e-05
3.00432e-05
2.69115e-05
2.57672e-05
0.000160619
8.23657e-05
3.49929e-05
4.40961e-05
3.09459e-05
3.59294e-05
4.3853e-05
5.2378e-05
3.24872e-05
2.8147e-05
2.93532e-05
2.7017e-05
2.29716e-05
2.07973e-05
2.00583e-05
9.35235e-05
5.54876e-05
2.28779e-05
2.36856e-05
3.51837e-05
2.8656e-05
2.57906e-05
2.73254e-05
2.62184e-05
2.43028e-05
2.28176e-05
2.09279e-05
1.80951e-05
1.63597e-05
1.56108e-05
1.53761e-05
2.48603e-05
2.68931e-05
2.43013e-05
2.14013e-05
2.14163e-05
2.36472e-05
2.35205e-05
2.38716e-05
2.2941e-05
2.1112e-05
2.09035e-05
1.94834e-05
1.73308e-05
1.61251e-05
1.53558e-05
1.50789e-05
1.52625e-05
1.21281e-05
1.18778e-05
1.2317e-05
1.39714e-05
1.43756e-05
1.4772e-05
1.56816e-05
1.69635e-05
1.54543e-05
1.39567e-05
1.23786e-05
1.12797e-05
1.06021e-05
9.77847e-06
9.07909e-06
8.76644e-06
8.55785e-06
8.64757e-06
0.000372714
0.000259756
0.000416117
0.000373607
0.000373522
0.000322983
0.000544615
0.000415959
0.000262086
0.000207934
0.000474417
0.000530806
0.000597502
0.000491197
0.000357134
0.000618832
0.000527109
0.00044511
0.000636777
0.000278748
0.000675983
0.000364626
0.000198782
0.000483835
0.000859814
0.000956873
0.00110912
0.00126092
0.000813232
0.00135111
0.0012626
0.00105237
0.00112574
0.00094484
0.000617967
0.000283921
0.00105248
0.000939045
0.000966945
0.000846832
0.000655269
0.000237984
0.000121034
8.18491e-05
7.34455e-05
0.000783396
0.000789641
0.000559038
0.000396726
0.000218916
0.0001193
0.000109984
9.89046e-05
6.79329e-05
6.85364e-05
0.000468977
0.000444997
0.000277124
0.000218872
0.000182113
0.000173858
7.37139e-05
9.62485e-05
8.11703e-05
5.80229e-05
4.23551e-05
0.000235731
0.00025841
0.000276688
0.000295632
0.000201896
0.00014757
9.77907e-05
5.22937e-05
6.67034e-05
8.12021e-05
4.40534e-05
4.49398e-05
0.000210424
0.000224997
0.000132023
0.00014068
8.40322e-05
0.000116443
6.75093e-05
5.42101e-05
4.35329e-05
4.9388e-05
4.41438e-05
3.82613e-05
4.27583e-05
0.000216534
0.000117688
0.000134111
0.000106316
6.12486e-05
5.29556e-05
6.70684e-05
5.53799e-05
3.61302e-05
3.73705e-05
3.69665e-05
3.55587e-05
3.34109e-05
4.13643e-05
0.000213504
0.000135952
7.20899e-05
4.37644e-05
5.92163e-05
5.9246e-05
3.90916e-05
3.78597e-05
3.56029e-05
3.78006e-05
3.79888e-05
3.12685e-05
2.66535e-05
2.48126e-05
2.38682e-05
0.00012905
0.000130925
6.33847e-05
3.1653e-05
4.03086e-05
3.24326e-05
3.30716e-05
3.88125e-05
3.7618e-05
2.82467e-05
2.81076e-05
2.64304e-05
2.43795e-05
2.07608e-05
1.99501e-05
1.94958e-05
7.53157e-05
8.31605e-05
5.26118e-05
2.45443e-05
2.56442e-05
3.45168e-05
2.68263e-05
2.68856e-05
2.65617e-05
2.45397e-05
2.30785e-05
2.1116e-05
1.83954e-05
1.63079e-05
1.56498e-05
1.5314e-05
1.58287e-05
2.05085e-05
3.00492e-05
2.78633e-05
2.29075e-05
2.10309e-05
2.33403e-05
2.37039e-05
2.38743e-05
2.30204e-05
2.11932e-05
2.08534e-05
1.96004e-05
1.75981e-05
1.61623e-05
1.54766e-05
1.5136e-05
1.53504e-05
1.60375e-05
1.21267e-05
1.22708e-05
1.26481e-05
1.36596e-05
1.44106e-05
1.46759e-05
1.51983e-05
1.64464e-05
1.52799e-05
1.40666e-05
1.25742e-05
1.12875e-05
1.06076e-05
9.93784e-06
9.19253e-06
8.82498e-06
8.66883e-06
8.66294e-06
8.874e-06
0.000412604
0.000297032
0.000385772
0.000351954
0.00047818
0.000495583
0.000509296
0.000439892
0.000369346
0.000319169
0.000543522
0.00045656
0.000288405
0.000217311
0.000299455
0.000517419
0.000640181
0.000635693
0.000656203
0.00056187
0.000285185
0.00061651
0.000574837
0.000558215
0.000439874
0.000252489
0.000541291
0.00100454
0.000619648
0.000395403
0.000427883
0.00068991
0.00113658
0.00119607
0.00108251
0.00100978
0.000501768
0.000593506
0.00101745
0.00129238
0.00122918
0.000813787
0.000650593
0.000376649
0.000169211
0.00107625
0.00134686
0.000888271
0.000764481
0.000586042
0.000419005
0.000197332
0.000126266
9.78414e-05
5.8397e-05
0.000691271
0.000978972
0.000750253
0.000531183
0.000236191
0.000197628
0.000104629
6.65715e-05
0.000103049
6.00693e-05
6.13292e-05
0.000510136
0.000411141
0.000292815
0.000279368
0.000234585
0.000176013
0.000131437
7.8583e-05
7.64375e-05
6.54162e-05
4.56884e-05
3.7199e-05
0.000244052
0.000168167
0.000254121
0.000207129
0.000269249
0.000184657
0.000126824
7.18771e-05
6.53799e-05
5.92276e-05
5.7318e-05
4.48312e-05
3.91457e-05
0.000196838
0.000282781
0.000159108
0.000131584
0.000120082
8.52251e-05
9.05761e-05
6.75771e-05
4.30859e-05
4.40486e-05
4.64712e-05
3.75762e-05
3.42044e-05
3.46957e-05
0.000197961
0.00017074
0.000109897
0.000119201
9.08981e-05
4.93874e-05
4.37683e-05
6.68585e-05
4.2482e-05
3.87054e-05
3.65805e-05
3.5365e-05
3.34957e-05
2.77677e-05
3.61607e-05
0.000169743
0.000195257
0.00011054
5.02147e-05
5.38397e-05
5.91387e-05
5.10893e-05
3.7769e-05
3.47345e-05
3.54727e-05
3.78742e-05
3.24001e-05
2.71891e-05
2.46772e-05
2.30435e-05
2.1717e-05
0.000103033
0.000127549
0.000102197
4.12146e-05
3.33566e-05
3.63068e-05
3.10392e-05
3.24297e-05
3.07859e-05
3.02542e-05
2.85591e-05
2.67695e-05
2.35473e-05
2.14053e-05
2.00035e-05
1.94197e-05
1.93784e-05
5.13907e-05
7.30931e-05
7.01815e-05
3.90721e-05
2.54605e-05
2.65846e-05
3.0252e-05
2.63449e-05
2.59564e-05
2.53582e-05
2.29773e-05
2.08969e-05
1.86415e-05
1.65778e-05
1.57113e-05
1.54277e-05
1.57656e-05
1.75957e-05
1.89604e-05
2.65175e-05
3.21273e-05
2.47299e-05
2.18754e-05
2.26599e-05
2.35096e-05
2.39617e-05
2.32221e-05
2.1169e-05
2.09137e-05
1.96475e-05
1.77386e-05
1.64383e-05
1.55965e-05
1.52592e-05
1.54501e-05
1.61552e-05
1.69304e-05
1.21073e-05
1.24186e-05
1.34175e-05
1.34397e-05
1.43313e-05
1.4495e-05
1.49006e-05
1.59732e-05
1.51241e-05
1.40215e-05
1.27826e-05
1.13265e-05
1.05733e-05
1.01153e-05
9.40479e-06
8.93971e-06
8.73345e-06
8.74103e-06
8.90249e-06
9.51759e-06
0.000586097
0.000408886
0.000354981
0.000340417
0.000430452
0.00033912
0.000285102
0.00034593
0.000400964
0.000381193
0.000394028
0.000324062
0.000361918
0.000367039
0.000290953
0.000437794
0.000383713
0.000238299
0.000365206
0.000435654
0.000283455
0.0003349
0.000628054
0.000530755
0.000473857
0.000669695
0.000252315
0.000186496
0.000446894
0.000534544
0.000498001
0.000640949
0.000388018
0.000579091
0.000868425
0.00110957
0.000494771
0.000524129
0.000338928
0.000590066
0.000916971
0.00104685
0.0011995
0.0010334
0.000785459
0.000769521
0.00100103
0.000948445
0.00112353
0.00117615
0.000887061
0.000732358
0.000430793
0.000175659
0.000123047
0.00106542
0.00081465
0.00129742
0.00104981
0.000666089
0.000533258
0.000154926
7.90142e-05
9.09239e-05
0.00010707
9.33811e-05
0.000588959
0.000781883
0.000910924
0.000597106
0.000335477
0.000219327
0.000179211
5.46055e-05
6.69958e-05
7.49637e-05
6.5373e-05
7.40535e-05
0.000636936
0.000435849
0.000327385
0.000269258
0.000326775
0.000203715
0.000206189
9.28337e-05
5.007e-05
7.30454e-05
5.06395e-05
4.52198e-05
3.86342e-05
0.0002547
0.000195484
0.000220867
0.000206374
0.000162633
0.000229625
0.000168571
7.3645e-05
5.93006e-05
6.09461e-05
4.959e-05
4.87959e-05
3.5483e-05
3.01472e-05
0.000213768
0.000231677
0.000259784
0.000123234
0.000134842
9.25924e-05
8.1171e-05
8.02439e-05
5.09225e-05
4.23975e-05
4.33259e-05
3.6816e-05
3.32751e-05
3.14332e-05
2.97978e-05
0.000114104
0.000163955
0.000143669
0.000113513
9.83414e-05
7.28654e-05
4.16614e-05
5.2857e-05
5.27487e-05
4.28132e-05
3.93263e-05
3.52664e-05
3.28165e-05
2.92952e-05
2.7603e-05
2.93339e-05
8.00494e-05
0.000164904
0.000160712
7.65982e-05
4.63401e-05
5.6997e-05
5.39505e-05
4.44558e-05
3.4757e-05
3.37116e-05
3.52301e-05
3.16889e-05
2.77768e-05
2.46277e-05
2.30615e-05
2.16962e-05
2.16208e-05
0.000102988
0.0001092
0.000115589
7.5877e-05
3.78125e-05
3.45816e-05
3.08598e-05
3.22878e-05
2.90536e-05
2.85947e-05
2.95013e-05
2.70693e-05
2.44775e-05
2.03767e-05
2.01406e-05
1.93353e-05
1.94016e-05
2.04226e-05
4.7992e-05
5.56768e-05
7.20288e-05
5.80792e-05
3.35286e-05
2.57718e-05
2.66646e-05
2.77892e-05
2.53394e-05
2.50685e-05
2.36648e-05
2.10331e-05
1.82916e-05
1.6754e-05
1.6162e-05
1.54341e-05
1.59438e-05
1.76112e-05
1.94308e-05
1.96291e-05
2.23472e-05
3.07866e-05
2.88198e-05
2.24213e-05
2.30548e-05
2.28462e-05
2.41132e-05
2.3431e-05
2.14097e-05
2.09662e-05
1.96759e-05
1.78179e-05
1.65586e-05
1.58425e-05
1.5406e-05
1.55533e-05
1.62162e-05
1.69896e-05
1.84748e-05
1.20504e-05
1.20282e-05
1.34491e-05
1.40338e-05
1.4164e-05
1.43965e-05
1.45278e-05
1.56478e-05
1.49767e-05
1.39806e-05
1.29376e-05
1.14208e-05
1.05559e-05
1.02251e-05
9.63476e-06
9.01577e-06
8.76519e-06
8.82302e-06
8.94949e-06
9.54159e-06
1.05141e-05
0.00090993
0.000487818
0.000467594
0.000345952
0.000299318
0.000264224
0.000360919
0.000437313
0.000293577
0.000279776
0.000355904
0.000378766
0.000388361
0.000304926
0.000304051
0.00033991
0.000278281
0.000299512
0.000298015
0.000339514
0.000365537
0.000377227
0.000424076
0.000232433
0.000403688
0.000392829
0.000498678
0.00036653
0.000370338
0.000564427
0.00054516
0.000586895
0.000383107
0.000400777
0.000346216
0.00051229
0.000598007
0.000597391
0.000529857
0.000444005
0.000324876
0.000597543
0.000845307
0.00120048
0.00146805
0.000731867
0.000474969
0.00031458
0.0007414
0.000990903
0.00105929
0.00122048
0.00106324
0.000705095
0.000304169
0.000680058
0.00134612
0.001485
0.00136335
0.00109042
0.0010282
0.000888664
0.000430946
0.00017608
0.000129578
0.000135941
0.000716894
0.0010643
0.000948563
0.00100011
0.000798807
0.000523368
0.00023119
0.00015703
8.1481e-05
8.85915e-05
5.8912e-05
6.91354e-05
0.00072747
0.000694205
0.000753223
0.000451239
0.000341504
0.000241489
0.000206328
0.000136415
7.05404e-05
7.20599e-05
7.1538e-05
6.55301e-05
4.80284e-05
0.000728821
0.000523369
0.000337764
0.000233397
0.000273789
0.000269706
0.000191375
0.000192285
4.65732e-05
5.36112e-05
6.70879e-05
5.39859e-05
4.66552e-05
3.36399e-05
0.000303234
0.000175313
0.000213076
0.000243298
0.00016834
0.000124733
0.000187131
0.000125418
6.17995e-05
5.16084e-05
5.22672e-05
5.29792e-05
4.33689e-05
2.93576e-05
2.73558e-05
0.000246089
0.000190625
0.000250459
0.000186325
0.000124375
0.000100757
7.11641e-05
8.67485e-05
6.31179e-05
4.61011e-05
4.30288e-05
3.82207e-05
3.51905e-05
2.92609e-05
2.54593e-05
2.47256e-05
0.000143595
0.000116484
0.000156614
0.00012333
0.0001107
7.46626e-05
5.65275e-05
4.74333e-05
4.16202e-05
4.9569e-05
4.17759e-05
3.84778e-05
3.30818e-05
2.71422e-05
2.71104e-05
2.4213e-05
2.43166e-05
7.12372e-05
8.46416e-05
0.000164691
0.000119539
5.66091e-05
4.78635e-05
4.93902e-05
4.54796e-05
3.74087e-05
3.4751e-05
3.31687e-05
3.0779e-05
2.67998e-05
2.45542e-05
2.32423e-05
2.19628e-05
2.19993e-05
2.33639e-05
9.59787e-05
9.16431e-05
0.000124879
9.63372e-05
5.73217e-05
3.91799e-05
3.18157e-05
3.23853e-05
2.91973e-05
2.81962e-05
2.94708e-05
2.72869e-05
2.43649e-05
2.13788e-05
1.92156e-05
1.93285e-05
1.93994e-05
2.05781e-05
2.28027e-05
4.60724e-05
4.72378e-05
5.8677e-05
6.67885e-05
4.72151e-05
3.07128e-05
2.584e-05
2.71442e-05
2.59266e-05
2.47867e-05
2.37091e-05
2.13929e-05
1.84066e-05
1.63712e-05
1.62228e-05
1.58153e-05
1.60589e-05
1.77413e-05
1.95486e-05
2.21678e-05
2.15822e-05
2.11268e-05
2.54899e-05
2.8645e-05
2.4643e-05
2.33442e-05
2.3065e-05
2.36049e-05
2.38893e-05
2.17613e-05
2.11045e-05
1.96987e-05
1.78397e-05
1.67245e-05
1.58978e-05
1.56259e-05
1.57176e-05
1.63797e-05
1.7245e-05
1.85873e-05
2.07441e-05
1.20038e-05
1.21579e-05
1.28442e-05
1.40824e-05
1.46525e-05
1.41627e-05
1.43392e-05
1.52696e-05
1.49124e-05
1.41039e-05
1.3049e-05
1.15069e-05
1.05777e-05
1.0294e-05
9.81288e-06
9.18658e-06
8.74791e-06
8.87867e-06
9.01131e-06
9.58176e-06
1.05561e-05
1.19556e-05
0.00123617
0.000802527
0.000788228
0.000686789
0.000442276
0.00048979
0.000427016
0.000300231
0.000372751
0.000409741
0.000404469
0.000403486
0.000434001
0.000494362
0.000390462
0.000323112
0.000464203
0.000481011
0.000432556
0.000418904
0.000477014
0.000383747
0.000399257
0.000326893
0.000210215
0.000236782
0.000439206
0.000572716
0.000468178
0.000348976
0.000373765
0.000294927
0.000366432
0.000505978
0.000351409
0.000337195
0.000512104
0.000650587
0.000676853
0.000625931
0.000456303
0.000443382
0.000225419
0.000616514
0.00087747
0.000786637
0.00082161
0.000592209
0.000436464
0.000323954
0.000523534
0.00103766
0.00133514
0.00123596
0.00111136
0.000700464
0.000748373
0.000677774
0.00085508
0.00100934
0.00124835
0.00116606
0.00105279
0.000636851
0.000300167
9.54328e-05
0.000553459
0.000466049
0.000858352
0.00122012
0.00120744
0.000978738
0.000821723
0.000271935
0.000236514
0.000130077
0.000151722
0.000164386
0.00078259
0.000910269
0.00129652
0.000802771
0.000748003
0.000604084
0.000233691
0.000155003
7.73777e-05
7.53467e-05
5.91296e-05
0.00013036
6.70708e-05
0.000657494
0.000996548
0.000794497
0.000490121
0.000360339
0.000226096
0.000175063
0.000138544
0.000139965
7.23614e-05
5.12693e-05
6.28733e-05
5.41136e-05
3.93113e-05
0.000676758
0.000520849
0.000246304
0.000243904
0.000193896
0.000216443
0.000231528
0.000169034
0.000102541
5.75161e-05
5.06393e-05
6.09096e-05
5.0155e-05
3.57647e-05
3.07742e-05
0.000376365
0.000211699
0.000173495
0.000220344
0.000231378
0.000104319
0.000100705
0.000128537
7.63098e-05
6.75687e-05
4.65583e-05
5.21644e-05
4.82196e-05
2.99021e-05
2.87323e-05
2.11734e-05
0.000337249
0.000184823
0.000201603
0.000205858
0.000117221
0.00011912
6.91038e-05
7.06765e-05
7.57208e-05
4.96487e-05
4.36048e-05
3.78978e-05
3.67508e-05
3.24714e-05
2.55078e-05
2.38098e-05
2.27772e-05
0.000173956
0.000124862
0.000138732
0.000129147
0.000133109
8.90395e-05
5.95202e-05
4.78307e-05
3.68819e-05
4.19342e-05
4.37154e-05
4.02464e-05
3.56215e-05
2.7205e-05
2.53993e-05
2.33619e-05
2.17932e-05
2.55517e-05
9.42441e-05
6.55856e-05
0.000113205
0.000141343
9.42115e-05
4.73154e-05
4.42316e-05
3.95971e-05
3.69012e-05
3.54863e-05
3.37669e-05
3.07113e-05
2.63617e-05
2.38409e-05
2.28766e-05
2.20454e-05
2.23002e-05
2.34433e-05
2.56713e-05
7.96361e-05
8.46323e-05
9.38207e-05
0.000109734
7.33217e-05
4.87137e-05
3.60054e-05
3.50084e-05
2.97497e-05
2.82994e-05
2.90977e-05
2.75278e-05
2.45496e-05
2.06776e-05
1.98918e-05
1.91099e-05
1.93475e-05
2.06878e-05
2.29324e-05
2.63043e-05
3.94749e-05
4.0321e-05
5.03156e-05
5.11176e-05
5.71006e-05
3.76974e-05
2.87216e-05
2.72421e-05
2.59535e-05
2.52006e-05
2.38508e-05
2.15942e-05
1.87038e-05
1.63866e-05
1.60704e-05
1.59823e-05
1.6268e-05
1.7856e-05
1.95651e-05
2.24359e-05
2.56756e-05
2.13595e-05
2.15176e-05
2.3281e-05
2.5628e-05
2.53134e-05
2.44139e-05
2.32969e-05
2.35781e-05
2.35179e-05
2.24018e-05
2.12124e-05
1.98148e-05
1.78047e-05
1.67328e-05
1.60303e-05
1.56724e-05
1.58148e-05
1.65022e-05
1.72918e-05
1.87769e-05
2.09581e-05
2.35242e-05
1.11196e-05
1.15275e-05
1.31052e-05
1.34822e-05
1.45078e-05
1.43686e-05
1.4081e-05
1.49474e-05
1.47491e-05
1.42504e-05
1.33139e-05
1.15585e-05
1.0579e-05
1.03239e-05
1.00055e-05
9.31256e-06
8.84404e-06
8.90312e-06
9.07953e-06
9.63547e-06
1.05966e-05
1.19609e-05
1.36499e-05
0.00115462
0.00122737
0.00103177
0.00082491
0.000804673
0.000920042
0.000621906
0.000589764
0.000561742
0.000563165
0.00026824
0.000299001
0.00038153
0.000411595
0.00041079
0.000331152
0.000410235
0.000350159
0.000493752
0.00046805
0.000431704
0.000303783
0.000488835
0.000425468
0.000454016
0.000394894
0.000308363
0.000352202
0.000295999
0.000286067
0.00035697
0.000276743
0.000210842
0.000269672
0.000407927
0.000526468
0.00049847
0.000417481
0.000346909
0.000323095
0.000437084
0.000438736
0.000385422
0.000316078
0.000254104
0.000520103
0.000603877
0.000598273
0.000583404
0.000498143
0.00034949
0.00029949
0.000612201
0.00102271
0.00121422
0.000585622
0.000580876
0.00048971
0.000502633
0.000299459
0.00058707
0.0010877
0.00126432
0.000996781
0.000887446
0.000592371
0.000732297
0.00061707
0.000654718
0.00103282
0.000988275
0.0011295
0.00121402
0.00122321
0.000792997
0.000419304
0.000133599
0.000125919
0.000471458
0.0007784
0.00110059
0.001087
0.00122671
0.00106954
0.000822103
0.000354039
0.000287923
0.000116125
6.8468e-05
7.66596e-05
5.59321e-05
0.000742479
0.000824829
0.000916874
0.000873345
0.00074248
0.000573638
0.000280393
0.000111101
9.81883e-05
0.000120961
7.91333e-05
6.43884e-05
7.50425e-05
5.47584e-05
0.00064727
0.000910357
0.000676911
0.000558639
0.000384703
0.000216855
0.000185342
0.000110082
0.000127245
9.00101e-05
4.50881e-05
6.99411e-05
5.29236e-05
4.18046e-05
4.60606e-05
0.000837017
0.000544075
0.000255656
0.000189485
0.000175981
0.000153597
0.000186866
0.000196995
0.000118248
6.58845e-05
4.93708e-05
5.1538e-05
5.24783e-05
3.10413e-05
3.31479e-05
2.9347e-05
0.000447043
0.000304669
0.000207877
0.000201073
0.000240194
0.000133418
0.000104422
9.42832e-05
7.61836e-05
5.57369e-05
4.64542e-05
5.69104e-05
4.14557e-05
3.50834e-05
3.0094e-05
2.58267e-05
1.96835e-05
0.000274153
0.000264356
0.000172298
0.000215405
0.000118656
8.52586e-05
9.30325e-05
5.86194e-05
6.23171e-05
5.6578e-05
4.30603e-05
4.0384e-05
3.53951e-05
2.95586e-05
2.6952e-05
2.36043e-05
2.51618e-05
2.35247e-05
0.00014843
0.000127083
0.000118383