/*--------------------------------*- C++ -*----------------------------------*\
  =========                 |
  \\      /  F ield         | OpenFOAM: The Open Source CFD Toolbox
   \\    /   O peration     | Website:  https://openfoam.org
    \\  /    A nd           | Version:  7
     \\/     M anipulation  |
\*---------------------------------------------------------------------------*/
FoamFile
{
    version     2.0;
    format      ascii;
    class       volScalarField;
    location    "1";
    object      p;
}
// * * * * * * * * * * * * * * * * * * * * * * * * * * * * * * * * * * * * * //

dimensions      [0 2 -2 0 0 0 0];

internalField   nonuniform List<scalar> 
18870
(
-77.4199
-77.4494
-77.4196
-77.3224
-77.4827
-77.4495
-77.3469
-77.4194
-77.3221
-77.207
-77.5215
-77.4844
-77.3756
-77.4494
-77.3469
-77.2281
-77.4191
-77.3219
-77.2068
-77.0801
-77.5571
-77.526
-77.4097
-77.4858
-77.3769
-77.2512
-77.4492
-77.3468
-77.228
-77.098
-77.4188
-77.3216
-77.2066
-77.0799
-76.9487
-77.5852
-77.5661
-77.4391
-77.5305
-77.4135
-77.2791
-77.4867
-77.378
-77.2522
-77.1169
-77.4488
-77.3466
-77.2278
-77.0978
-76.9633
-77.4186
-77.3213
-77.2063
-77.0797
-76.9485
-76.8085
-77.6084
-77.598
-77.464
-77.5768
-77.4464
-77.3047
-77.535
-77.4173
-77.2821
-77.1396
-77.4872
-77.3789
-77.253
-77.1176
-76.9781
-77.4483
-77.3461
-77.2275
-77.0976
-76.9632
-76.8204
-77.4183
-77.321
-77.2061
-77.0794
-76.9483
-76.8084
-76.6683
-77.6129
-77.6217
-77.4796
-77.6134
-77.4756
-77.3253
-77.5885
-77.4547
-77.3109
-77.1607
-77.539
-77.421
-77.285
-77.1419
-76.9969
-77.4872
-77.3793
-77.2535
-77.1182
-76.9787
-76.8319
-77.4475
-77.3456
-77.227
-77.0972
-76.963
-76.8203
-76.6781
-77.4179
-77.3207
-77.2058
-77.0792
-76.9481
-76.8082
-76.6682
-76.5278
-77.6104
-77.6239
-77.4876
-77.6373
-77.4938
-77.3414
-77.6327
-77.4885
-77.3355
-77.1809
-77.6009
-77.4635
-77.3171
-77.1664
-77.0131
-77.5424
-77.4242
-77.2878
-77.1441
-76.9986
-76.8464
-77.4868
-77.3793
-77.2538
-77.1186
-76.9792
-76.8323
-76.6868
-77.4464
-77.3448
-77.2264
-77.0968
-76.9627
-76.8201
-76.678
-76.536
-77.4176
-77.3204
-77.2055
-77.079
-76.9479
-76.8081
-76.6681
-76.5277
-76.3864
-77.5455
-77.6145
-77.4868
-77.6443
-77.4988
-77.344
-77.6679
-77.5068
-77.3534
-77.1938
-77.6577
-77.5036
-77.3463
-77.1903
-77.0298
-77.614
-77.4729
-77.3242
-77.1707
-77.0181
-76.86
-77.545
-77.4272
-77.2901
-77.1461
-77.0002
-76.8478
-76.6994
-77.4858
-77.3788
-77.2536
-77.1187
-76.9794
-76.8327
-76.6871
-76.5428
-77.445
-77.3439
-77.2256
-77.0963
-76.9623
-76.8198
-76.6779
-76.536
-76.393
-77.4171
-77.3201
-77.2052
-77.0787
-76.9477
-76.8079
-76.668
-76.5277
-76.3864
-76.2492
-77.5743
-77.5414
-77.4273
-77.6246
-77.4926
-77.3399
-77.6825
-77.5235
-77.3591
-77.2071
-77.7045
-77.5365
-77.3624
-77.208
-77.041
-77.6807
-77.5215
-77.3585
-77.1995
-77.0369
-76.873
-77.6262
-77.4825
-77.3309
-77.1763
-77.0213
-76.8639
-76.7097
-77.547
-77.4294
-77.2921
-77.1478
-77.0016
-76.849
-76.7006
-76.5516
-77.4839
-77.3778
-77.253
-77.1185
-76.9794
-76.8328
-76.6874
-76.5431
-76.3987
-77.4434
-77.3427
-77.2246
-77.0956
-76.9619
-76.8195
-76.6777
-76.536
-76.393
-76.255
-77.4167
-77.3197
-77.2048
-77.0784
-76.9474
-76.8078
-76.6679
-76.5276
-76.3863
-76.2492
-76.1142
-77.3098
-77.6391
-77.4833
-77.5231
-77.4292
-77.3184
-77.6601
-77.507
-77.347
-77.1889
-77.7284
-77.5558
-77.3814
-77.218
-77.0487
-77.7404
-77.5676
-77.3877
-77.2136
-77.0537
-76.8808
-77.7055
-77.5418
-77.3717
-77.2092
-77.0443
-76.8786
-76.7219
-77.6362
-77.4917
-77.338
-77.1815
-77.0255
-76.8662
-76.7122
-76.5607
-77.5477
-77.4306
-77.2937
-77.1492
-77.0027
-76.8501
-76.7017
-76.5526
-76.405
-77.481
-77.3764
-77.252
-77.1179
-76.9791
-76.8328
-76.6876
-76.5433
-76.399
-76.2594
-77.4416
-77.3413
-77.2235
-77.0948
-76.9614
-76.8191
-76.6775
-76.5358
-76.393
-76.2551
-76.1192
-77.4162
-77.3193
-77.2045
-77.0782
-76.9472
-76.8076
-76.6677
-76.5275
-76.3863
-76.2492
-76.1142
-75.9815
-76.6364
-77.3227
-77.2664
-77.5745
-77.4624
-77.3073
-77.5497
-77.446
-77.3215
-77.1761
-77.7216
-77.533
-77.3663
-77.2035
-77.0387
-77.7875
-77.5868
-77.4094
-77.2334
-77.0588
-76.8914
-77.8028
-77.5957
-77.4126
-77.2325
-77.0603
-76.8892
-76.7276
-77.7338
-77.5636
-77.3861
-77.2198
-77.0516
-76.8848
-76.7261
-76.5664
-77.644
-77.4992
-77.3443
-77.1865
-77.0294
-76.8692
-76.7144
-76.5626
-76.4126
-77.5469
-77.4306
-77.2944
-77.1503
-77.0036
-76.8509
-76.7026
-76.5535
-76.4059
-76.2649
-77.4772
-77.3742
-77.2505
-77.1169
-76.9785
-76.8324
-76.6876
-76.5435
-76.3993
-76.2597
-76.1232
-77.4394
-77.3397
-77.2222
-77.0939
-76.9607
-76.8186
-76.6772
-76.5357
-76.393
-76.2552
-76.1193
-75.986
-77.4156
-77.3189
-77.2041
-77.0779
-76.9469
-76.8074
-76.6676
-76.5274
-76.3862
-76.2491
-76.1142
-75.9815
-75.8515
-76.1692
-76.5939
-76.7507
-77.257
-77.2803
-77.2606
-77.5684
-77.4798
-77.2799
-77.1232
-77.6127
-77.474
-77.3406
-77.1877
-77.0364
-77.8072
-77.5886
-77.3905
-77.2249
-77.0506
-76.8827
-77.8922
-77.6382
-77.4344
-77.2542
-77.0719
-76.8996
-76.7311
-77.8568
-77.6416
-77.4356
-77.2534
-77.0739
-76.8966
-76.7332
-76.5741
-77.7603
-77.587
-77.4025
-77.2308
-77.0596
-76.8903
-76.7305
-76.5697
-76.4173
-77.6493
-77.505
-77.3493
-77.1908
-77.0328
-76.8722
-76.7167
-76.5643
-76.4142
-76.2703
-77.5437
-77.4294
-77.2943
-77.1507
-77.0041
-76.8514
-76.7034
-76.5542
-76.4067
-76.2657
-76.1272
-77.4727
-77.3711
-77.2485
-77.1156
-76.9776
-76.8319
-76.6874
-76.5435
-76.3995
-76.2601
-76.1235
-75.9898
-77.437
-77.3379
-77.2208
-77.0928
-76.96
-76.8181
-76.6768
-76.5354
-76.3928
-76.2552
-76.1195
-75.9862
-75.8562
-77.4151
-77.3184
-77.2037
-77.0776
-76.9466
-76.8072
-76.6674
-76.5273
-76.3862
-76.2491
-76.1142
-75.9816
-75.8516
-75.7245
-75.8634
-76.1293
-76.3038
-76.6707
-76.8122
-76.9044
-77.2363
-77.3038
-77.2279
-77.1169
-77.5545
-77.4338
-77.3111
-77.1351
-76.9789
-77.7173
-77.5292
-77.3682
-77.2126
-77.0458
-76.8872
-77.9968
-77.6638
-77.432
-77.2479
-77.0652
-76.8928
-76.7339
-78.0053
-77.7064
-77.4733
-77.2718
-77.0892
-76.9123
-76.7384
-76.5719
-77.9171
-77.6824
-77.4677
-77.271
-77.0911
-76.9065
-76.7407
-76.5786
-76.4215
-77.7844
-77.6088
-77.4186
-77.2425
-77.0676
-76.8965
-76.7348
-76.5732
-76.4202
-76.2737
-77.6497
-77.5085
-77.3532
-77.1941
-77.0355
-76.8748
-76.7188
-76.5661
-76.4157
-76.2719
-76.1312
-77.5377
-77.4264
-77.2929
-77.1503
-77.0042
-76.8516
-76.7038
-76.5547
-76.4074
-76.2665
-76.1279
-75.9936
-77.4671
-77.3672
-77.2457
-77.1139
-76.9764
-76.8311
-76.687
-76.5433
-76.3996
-76.2603
-76.1239
-75.9903
-75.8598
-77.4344
-77.3358
-77.2191
-77.0916
-76.9591
-76.8174
-76.6764
-76.5352
-76.3927
-76.2551
-76.1196
-75.9864
-75.8565
-75.7292
-77.4146
-77.318
-77.2033
-77.0774
-76.9464
-76.8069
-76.6673
-76.5272
-76.3861
-76.2491
-76.1142
-75.9816
-75.8516
-75.7246
-75.5991
-75.5619
-75.8274
-75.9522
-76.1589
-76.2244
-76.3628
-76.6099
-76.8385
-76.9511
-76.8394
-77.2753
-77.2578
-77.2018
-77.1281
-77.043
-77.6394
-77.4299
-77.3253
-77.1666
-77.0002
-76.8613
-77.887
-77.6024
-77.3999
-77.2212
-77.0518
-76.8906
-76.7177
-78.2166
-77.7789
-77.4924
-77.2827
-77.0826
-76.9055
-76.7434
-76.574
-78.1379
-77.7902
-77.5259
-77.3031
-77.1058
-76.925
-76.7478
-76.578
-76.4262
-77.976
-77.7252
-77.504
-77.2954
-77.1039
-76.9198
-76.7478
-76.5847
-76.4252
-76.2767
-77.7934
-77.6256
-77.4347
-77.2532
-77.0766
-76.902
-76.7393
-76.5766
-76.4231
-76.2763
-76.1334
-77.6449
-77.5081
-77.3553
-77.1966
-77.0379
-76.8767
-76.7208
-76.5675
-76.4171
-76.2732
-76.1326
-75.9962
-77.5293
-77.4211
-77.29
-77.149
-77.0035
-76.8513
-76.7038
-76.555
-76.4079
-76.2671
-76.1285
-75.9943
-75.8637
-77.4606
-77.3625
-77.2424
-77.1116
-76.9748
-76.8302
-76.6865
-76.543
-76.3996
-76.2605
-76.1242
-75.9907
-75.8603
-75.7331
-77.4315
-77.3336
-77.2173
-77.0901
-76.9581
-76.8167
-76.6759
-76.5348
-76.3925
-76.2551
-76.1196
-75.9865
-75.8567
-75.7295
-75.6041
-77.4141
-77.3175
-77.2029
-77.0771
-76.9461
-76.8067
-76.6671
-76.5271
-76.386
-76.2491
-76.1142
-75.9816
-75.8517
-75.7247
-75.5992
-75.4735
-75.3438
-75.5294
-75.668
-75.8499
-75.9324
-75.9886
-76.1448
-76.1911
-76.4335
-76.3135
-76.6253
-76.7407
-76.7403
-76.8934
-76.8518
-77.3123
-77.2733
-77.2596
-77.1725
-77.0852
-76.8953
-77.7551
-77.5459
-77.311
-77.1842
-77.0075
-76.8497
-76.7191
-78.1116
-77.6988
-77.4649
-77.2522
-77.067
-76.911
-76.7237
-76.5618
-78.3692
-77.9387
-77.5735
-77.3285
-77.1083
-76.9238
-76.755
-76.5813
-76.4162
-78.2649
-77.8869
-77.5856
-77.3448
-77.1277
-76.939
-76.7573
-76.5837
-76.4309
-76.2771
-78.0211
-77.7724
-77.537
-77.3202
-77.1213
-76.9301
-76.7571
-76.5899
-76.4299
-76.28
-76.1356
-77.7936
-77.6339
-77.4462
-77.263
-77.0842
-76.9079
-76.7434
-76.5801
-76.426
-76.2788
-76.1357
-76.0006
-77.6339
-77.504
-77.3541
-77.1972
-77.039
-76.8785
-76.7225
-76.5688
-76.4184
-76.2744
-76.1337
-75.9976
-75.8669
-77.5184
-77.4138
-77.2853
-77.1462
-77.0022
-76.8504
-76.7035
-76.555
-76.4082
-76.2675
-76.1291
-75.995
-75.8645
-75.7372
-77.4532
-77.3572
-77.2384
-77.1088
-76.9729
-76.829
-76.6858
-76.5425
-76.3994
-76.2605
-76.1243
-75.991
-75.8607
-75.7337
-75.6085
-77.4285
-77.3311
-77.2153
-77.0886
-76.9569
-76.8159
-76.6753
-76.5344
-76.3922
-76.255
-76.1196
-75.9866
-75.8569
-75.7297
-75.6044
-75.4792
-77.4135
-77.317
-77.2025
-77.0768
-76.9458
-76.8065
-76.6669
-76.5269
-76.3859
-76.249
-76.1142
-75.9816
-75.8518
-75.7248
-75.5993
-75.4736
-75.3476
-75.2692
-75.3362
-75.4967
-75.5525
-75.6956
-75.7789
-75.894
-75.8368
-75.9279
-76.0285
-76.0967
-76.2299
-76.47
-76.2656
-76.4859
-76.6274
-76.7619
-76.7932
-77.0412
-76.9027
-76.794
-77.414
-77.3152
-77.24
-77.1462
-77.0849
-76.8351
-76.6934
-77.9524
-77.6441
-77.4109
-77.2074
-77.0236
-76.858
-76.7271
-76.547
-78.3465
-77.9048
-77.5576
-77.309
-77.1362
-76.9246
-76.7291
-76.5711
-76.4122
-78.5794
-78.0712
-77.6831
-77.3897
-77.1423
-76.9442
-76.7706
-76.5904
-76.4238
-76.2711
-78.3861
-77.9932
-77.6587
-77.3821
-77.1574
-76.955
-76.769
-76.5938
-76.4362
-76.2795
-76.1357
-78.0459
-77.8057
-77.5692
-77.3436
-77.1386
-76.9424
-76.7642
-76.5969
-76.4345
-76.2841
-76.1387
-76.0018
-77.78
-77.6335
-77.4524
-77.2701
-77.089
-76.9129
-76.7471
-76.5832
-76.4289
-76.2811
-76.138
-76.0027
-75.8701
-77.6172
-77.4948
-77.3493
-77.1954
-77.0388
-76.8791
-76.7233
-76.5698
-76.4194
-76.2755
-76.1348
-75.9988
-75.8682
-75.7409
-77.5052
-77.4044
-77.2789
-77.1421
-76.9999
-76.849
-76.7028
-76.5547
-76.4082
-76.2678
-76.1296
-75.9956
-75.8652
-75.738
-75.6134
-77.4458
-77.351
-77.2339
-77.1057
-76.9706
-76.8274
-76.6848
-76.542
-76.3991
-76.2604
-76.1244
-75.9913
-75.8611
-75.7341
-75.6091
-75.4841
-77.4252
-77.3286
-77.2131
-77.0869
-76.9557
-76.8149
-76.6747
-76.534
-76.3919
-76.2548
-76.1196
-75.9867
-75.857
-75.73
-75.6048
-75.4796
-75.3538
-77.4129
-77.3164
-77.202
-77.0764
-76.9456
-76.8062
-76.6667
-76.5268
-76.3858
-76.249
-76.1142
-75.9817
-75.8518
-75.7248
-75.5994
-75.4738
-75.3478
-75.2192
-75.1682
-75.2719
-75.3537
-75.3938
-75.5138
-75.5979
-75.6449
-75.636
-75.7537
-75.852
-75.7977
-75.8963
-76.0638
-75.9936
-76.1253
-76.153
-76.2213
-76.3615
-76.463
-76.4365
-76.4972
-76.6787
-76.7915
-76.9666
-76.8798
-76.9597
-76.8132
-76.674
-77.4653
-77.3185
-77.2828
-77.195
-76.9824
-76.8367
-76.7139
-76.5365
-78.1842
-77.9991
-77.5517
-77.2973
-77.0267
-76.9051
-76.7436
-76.5614
-76.3912
-78.6013
-78.1107
-77.6857
-77.4083
-77.1481
-76.9451
-76.7443
-76.5787
-76.4202
-76.2557
-78.838
-78.3098
-77.8125
-77.4576
-77.192
-76.9729
-76.7888
-76.601
-76.4335
-76.2796
-76.1299
-78.4729
-78.1044
-77.731
-77.439
-77.1807
-76.9757
-76.7803
-76.6028
-76.4433
-76.2841
-76.1404
-76.002
-78.0439
-77.8231
-77.5908
-77.3639
-77.156
-76.9548
-76.7713
-76.6023
-76.4396
-76.2881
-76.142
-76.0047
-75.8732
-77.7524
-77.622
-77.4518
-77.2715
-77.0927
-76.9157
-76.7503
-76.5859
-76.4314
-76.2835
-76.1399
-76.0046
-75.8719
-75.7453
-77.595
-77.4814
-77.3408
-77.1906
-77.0365
-76.8785
-76.7234
-76.5701
-76.4203
-76.2763
-76.1358
-76.0001
-75.8693
-75.7423
-75.618
-77.4889
-77.3928
-77.271
-77.1368
-76.9966
-76.8471
-76.7017
-76.554
-76.408
-76.268
-76.1299
-75.9961
-75.8658
-75.7388
-75.6143
-75.49
-77.4381
-77.3446
-77.2288
-77.1021
-76.968
-76.8255
-76.6835
-76.5411
-76.3986
-76.2602
-76.1244
-75.9915
-75.8615
-75.7346
-75.6096
-75.4847
-75.3598
-77.422
-77.326
-77.2108
-77.0851
-76.9543
-76.8139
-76.6739
-76.5334
-76.3916
-76.2546
-76.1195
-75.9868
-75.8572
-75.7302
-75.605
-75.48
-75.3543
-75.2262
-77.4123
-77.3159
-77.2015
-77.076
-76.9453
-76.806
-76.6665
-76.5266
-76.3857
-76.2489
-76.1142
-75.9817
-75.8518
-75.7249
-75.5995
-75.4739
-75.3479
-75.2194
-75.0875
-75.0729
-75.194
-75.1961
-75.2725
-75.3223
-75.3427
-75.3564
-75.4497
-75.5625
-75.6388
-75.6152
-75.6607
-75.7688
-75.8466
-75.8577
-75.8057
-75.951
-75.9865
-75.9016
-76.1013
-76.1211
-76.1661
-76.2668
-76.3909
-76.5083
-76.5198
-76.5881
-76.4872
-76.6446
-76.779
-76.9374
-76.9459
-76.8251
-76.8072
-76.7463
-76.5986
-77.6037
-77.6721
-77.3725
-77.2866
-77.0264
-76.9188
-76.6883
-76.5278
-76.3519
-78.2921
-78.0019
-77.7941
-77.4113
-77.0622
-76.941
-76.7408
-76.5724
-76.4088
-76.2472
-78.8922
-78.3765
-77.877
-77.5326
-77.2288
-76.9832
-76.7638
-76.5937
-76.4309
-76.2642
-76.1241
-78.9752
-78.4974
-77.9495
-77.5362
-77.2299
-77.0043
-76.8091
-76.6142
-76.4439
-76.2871
-76.1345
-76.0001
-78.4945
-78.1753
-77.7979
-77.4909
-77.2159
-76.9912
-76.7958
-76.614
-76.4511
-76.2895
-76.1435
-76.0059
-75.8722
-78.0108
-77.8173
-77.6019
-77.3772
-77.1681
-76.9668
-76.7813
-76.6072
-76.4443
-76.292
-76.1452
-76.0076
-75.8758
-75.7478
-77.7154
-77.5997
-77.443
-77.2691
-77.093
-76.9182
-76.7529
-76.5876
-76.4333
-76.2854
-76.1418
-76.0064
-75.8735
-75.747
-75.6235
-77.5649
-77.463
-77.3287
-77.1829
-77.0322
-76.8764
-76.7224
-76.5699
-76.4206
-76.2769
-76.1365
-76.001
-75.8705
-75.7432
-75.6192
-75.4962
-77.4719
-77.3792
-77.2609
-77.13
-76.9922
-76.8444
-76.7003
-76.5531
-76.4076
-76.268
-76.1301
-75.9965
-75.8663
-75.7394
-75.6151
-75.4909
-75.3665
-77.4299
-77.3382
-77.2236
-77.0981
-76.9651
-76.8235
-76.682
-76.5401
-76.398
-76.2599
-76.1243
-75.9916
-75.8617
-75.735
-75.6101
-75.4853
-75.3605
-75.2333
-77.4187
-77.3233
-77.2085
-77.0832
-76.9528
-76.8128
-76.6731
-76.5328
-76.3912
-76.2544
-76.1194
-75.9868
-75.8572
-75.7304
-75.6053
-75.4803
-75.3547
-75.2267
-75.0953
-77.4117
-77.3153
-77.201
-77.0757
-76.9449
-76.8057
-76.6663
-76.5264
-76.3856
-76.2488
-76.1141
-75.9817
-75.8519
-75.725
-75.5996
-75.474
-75.348
-75.2195
-75.0876
-74.9513
-75.0112
-75.1039
-75.1726
-75.148
-75.2063
-75.2427
-75.2154
-75.3536
-75.3661
-75.4284
-75.4041
-75.5213
-75.5739
-75.5891
-75.6547
-75.5888
-75.7147
-75.7178
-75.7657
-75.8704
-75.9071
-75.8601
-75.9373
-75.9813
-76.0874
-76.0103
-76.128
-76.147
-76.2215
-76.3215
-76.378
-76.456
-76.5245
-76.5678
-76.5561
-76.4196
-76.6992
-76.7341
-76.9295
-76.9882
-76.8969
-76.7972
-76.7172
-76.5815
-76.3115
-77.6782
-77.8127
-77.5266
-77.3526
-77.0749
-76.932
-76.6531
-76.5443
-76.3636
-76.2086
-78.4619
-78.233
-77.9318
-77.4765
-77.1707
-76.9968
-76.7661
-76.5911
-76.4247
-76.2565
-76.1074
-79.2519
-78.8696
-78.0956
-77.627
-77.2963
-77.0331
-76.8021
-76.614
-76.443
-76.274
-76.1331
-75.9913
-78.9694
-78.6092
-78.0782
-77.6321
-77.3053
-77.0302
-76.829
-76.63
-76.4551
-76.2958
-76.1432
-76.0069
-75.8721
-78.4554
-78.1986
-77.8501
-77.5318
-77.2574
-77.0147
-76.8105
-76.623
-76.4595
-76.2955
-76.1492
-76.0096
-75.8752
-75.7505
-77.9497
-77.7919
-77.5962
-77.3785
-77.1745
-76.9745
-76.7853
-76.6123
-76.4482
-76.2959
-76.1482
-76.0102
-75.8783
-75.7499
-75.6279
-77.6685
-77.5692
-77.4257
-77.2606
-77.0897
-76.9176
-76.7542
-76.5891
-76.4347
-76.287
-76.1434
-76.008
-75.8749
-75.7485
-75.625
-75.5023
-77.5312
-77.4395
-77.3133
-77.172
-77.0262
-76.8727
-76.7203
-76.5689
-76.4205
-76.277
-76.1371
-76.0019
-75.8713
-75.7444
-75.6204
-75.4976
-75.3745
-77.4541
-77.3656
-77.2499
-77.1224
-76.9868
-76.841
-76.6981
-76.5518
-76.4068
-76.2677
-76.1301
-75.9968
-75.8667
-75.74
-75.6158
-75.4918
-75.3675
-75.2416
-77.4221
-77.3315
-77.2182
-77.094
-76.9619
-76.8212
-76.6804
-76.5389
-76.3973
-76.2595
-76.1242
-75.9916
-75.8619
-75.7353
-75.6105
-75.4859
-75.3612
-75.2341
-75.1035
-77.4153
-77.3206
-77.2062
-77.0813
-76.9513
-76.8116
-76.6722
-76.5322
-76.3907
-76.2541
-76.1193
-75.9867
-75.8573
-75.7305
-75.6055
-75.4806
-75.355
-75.2271
-75.0958
-74.9603
-77.4111
-77.3148
-77.2005
-77.0752
-76.9446
-76.8054
-76.6661
-76.5263
-76.3855
-76.2487
-76.1141
-75.9817
-75.8519
-75.725
-75.5997
-75.4741
-75.3481
-75.2197
-75.0878
-74.9515
-74.8098
-74.911
-75.0219
-75.1191
-75.094
-75.2008
-75.2427
-75.1632
-75.2434
-75.3191
-75.3037
-75.2835
-75.3756
-75.3432
-75.3986
-75.4342
-75.4058
-75.5785
-75.5826
-75.5802
-75.6589
-75.6454
-75.6309
-75.7114
-75.7467
-75.8319
-75.8042
-75.8755
-75.9048
-75.8753
-75.9202
-75.9947
-76.0752
-76.1922
-76.1195
-76.155
-76.1426
-76.1875
-76.3158
-76.4242
-76.4234
-76.4283
-76.5663
-76.5371
-76.4529
-76.1834
-76.7516
-77.145
-77.0862
-77.0117
-76.9216
-76.8599
-76.689
-76.4979
-76.3659
-76.1733
-77.7622
-77.6198
-77.5822
-77.3847
-77.1523
-76.9277
-76.697
-76.5198
-76.4048
-76.2311
-76.0896
-78.6566
-78.6898
-78.2789
-77.5867
-77.2903
-77.049
-76.8188
-76.6064
-76.4404
-76.2693
-76.1158
-75.985
-79.4013
-79.2186
-78.33
-77.9086
-77.3975
-77.0839
-76.8307
-76.6393
-76.4579
-76.2834
-76.1396
-75.997
-75.8666
-78.9505
-78.6517
-78.1993
-77.7349
-77.3755
-77.0747
-76.8449
-76.6474
-76.4678
-76.3046
-76.1471
-76.0114
-75.8765
-75.7497
-78.356
-78.1839
-77.8747
-77.5611
-77.2819
-77.0442
-76.8264
-76.6359
-76.4651
-76.3016
-76.1534
-76.014
-75.8784
-75.7539
-75.6309
-77.8552
-77.7426
-77.575
-77.3714
-77.1727
-76.9778
-76.7922
-76.6168
-76.4518
-76.2988
-76.1511
-76.0127
-75.8806
-75.7523
-75.6302
-75.51
-77.6092
-77.5288
-77.3997
-77.246
-77.0816
-76.9141
-76.7537
-76.5894
-76.4353
-76.2882
-76.1446
-76.0093
-75.8764
-75.7498
-75.6264
-75.5039
-75.3824
-77.4961
-77.4134
-77.2942
-77.1583
-77.0171
-76.8674
-76.7172
-76.567
-76.4197
-76.2769
-76.1373
-76.0024
-75.872
-75.7453
-75.6215
-75.4987
-75.3758
-75.2508
-77.4357
-77.3514
-77.2389
-77.1137
-76.9807
-76.8369
-76.6954
-76.55
-76.4058
-76.2672
-76.13
-75.9969
-75.8671
-75.7405
-75.6165
-75.4926
-75.3685
-75.2427
-75.1133
-77.4144
-77.325
-77.2127
-77.0896
-76.9586
-76.8187
-76.6785
-76.5376
-76.3964
-76.2589
-76.1239
-75.9916
-75.862
-75.7356
-75.6109
-75.4864
-75.3618
-75.2348
-75.1044
-74.9694
-77.412
-77.3179
-77.2039
-77.0794
-76.9498
-76.8104
-76.6713
-76.5315
-76.3902
-76.2537
-76.1191
-75.9867
-75.8573
-75.7306
-75.6057
-75.4809
-75.3554
-75.2275
-75.0963
-74.9609
-74.8198
-77.4105
-77.3142
-77.2
-77.0748
-76.9443
-76.8051
-76.6659
-76.5261
-76.3853
-76.2487
-76.1141
-75.9816
-75.8519
-75.725
-75.5997
-75.4742
-75.3482
-75.2198
-75.088
-74.9517
-74.81
-74.6626
-74.8358
-74.9058
-75.0084
-74.9992
-75.1374
-75.1556
-75.105
-75.1576
-75.2114
-75.2175
-75.1524
-75.2119
-75.2756
-75.31
-75.2936
-75.2898
-75.3126
-75.42
-75.3908
-75.4444
-75.4016
-75.4095
-75.4801
-75.5383
-75.6342
-75.6378
-75.6288
-75.611
-75.6024
-75.7135
-75.7647
-75.8653
-75.887
-75.8311
-75.9077
-75.8701
-75.8401
-75.947
-76.0134
-76.053
-76.1525
-76.1797
-76.1997
-76.1809
-76.1875
-76.2896
-76.322
-76.477
-76.5075
-76.5088
-76.6235
-76.4899
-76.3932
-76.2584
-76.1284
-76.7376
-76.8488
-77.0874
-77.0334
-76.9256
-76.8882
-76.6886
-76.493
-76.4838
-76.2338
-76.0605
-77.8057
-78.0257
-77.9448
-77.5155
-77.2909
-76.9981
-76.7691
-76.5603
-76.4238
-76.2491
-76.0948
-75.965
-78.7562
-78.9185
-78.305
-77.8946
-77.4798
-77.05
-76.8607
-76.6224
-76.4577
-76.2811
-76.1286
-76.0056
-75.857
-79.3558
-79.1965
-78.5544
-78.0469
-77.5455
-77.1507
-76.8748
-76.6689
-76.4721
-76.295
-76.1508
-76.0047
-75.8706
-75.7499
-78.9182
-78.6704
-78.2767
-77.807
-77.4428
-77.1211
-76.8819
-76.6652
-76.4802
-76.3158
-76.1564
-76.018
-75.8807
-75.7525
-75.6362
-78.2009
-78.1086
-77.865
-77.5704
-77.2969
-77.0602
-76.8451
-76.6402
-76.4739
-76.3059
-76.1587
-76.0178
-75.8815
-75.7565
-75.6343
-75.515
-77.7444
-77.6739
-77.5336
-77.3521
-77.1634
-76.9756
-76.7941
-76.6205
-76.4546
-76.3012
-76.1534
-76.015
-75.8826
-75.7542
-75.6322
-75.5121
-75.3911
-77.5456
-77.4786
-77.3657
-77.2237
-77.069
-76.9069
-76.7506
-76.5885
-76.4351
-76.2886
-76.1452
-76.0102
-75.8775
-75.7511
-75.6279
-75.5054
-75.384
-75.2613
-77.4598
-77.3865
-77.274
-77.1443
-77.0055
-76.8608
-76.7131
-76.5645
-76.4182
-76.2762
-76.1372
-76.0028
-75.8725
-75.7462
-75.6225
-75.4998
-75.377
-75.2522
-75.1246
-77.4191
-77.3364
-77.2274
-77.1042
-76.9742
-76.8322
-76.6923
-76.5478
-76.4044
-76.2665
-76.1296
-75.9969
-75.8673
-75.7409
-75.6171
-75.4933
-75.3694
-75.2437
-75.1144
-74.9809
-77.4068
-77.3186
-77.2073
-77.085
-76.9551
-76.8161
-76.6765
-76.5361
-76.3954
-76.2583
-76.1235
-75.9914
-75.862
-75.7357
-75.6112
-75.4868
-75.3624
-75.2354
-75.1052
-74.9703
-74.8303
-77.409
-77.3152
-77.2015
-77.0775
-76.9482
-76.8091
-76.6703
-76.5308
-76.3897
-76.2534
-76.1189
-75.9866
-75.8573
-75.7307
-75.6059
-75.4811
-75.3557
-75.2279
-75.0968
-74.9614
-74.8204
-74.674
-77.4099
-77.3137
-77.1995
-77.0744
-76.944
-76.8048
-76.6656
-76.5259
-76.3852
-76.2486
-76.114
-75.9816
-75.8519
-75.7251
-75.5998
-75.4743
-75.3483
-75.2199
-75.0882
-74.9519
-74.8103
-74.6629
-74.5103
-74.7488
-74.8346
-74.9255
-74.9361
-74.985
-75.0356
-75.0002
-75.0872
-75.1198
-75.1099
-75.11
-75.1748
-75.1882
-75.2208
-75.1979
-75.1829
-75.1547
-75.2536
-75.2841
-75.3085
-75.3496
-75.3083
-75.3413
-75.3889
-75.4063
-75.4741
-75.4207
-75.4064
-75.4548
-75.4943
-75.5257
-75.6156
-75.6456
-75.6568
-75.6127
-75.6353
-75.6107
-75.7156
-75.834
-75.8164
-75.869
-75.8625
-75.9136
-75.8672
-75.9057
-75.8826
-75.9146
-75.9877
-76.0636
-76.1164
-76.1251
-76.2304
-76.1777
-76.1474
-76.0769
-76.2957
-76.353
-76.46
-76.485
-76.538
-76.6427
-76.4683
-76.3426
-76.4048
-76.2123
-76.0091
-76.7433
-76.7941
-76.9618
-77.0183
-77.0588
-76.9475
-76.7172
-76.567
-76.4352
-76.2193
-76.0888
-75.935
-77.7873
-78.2705
-78.3342
-77.8465
-77.3643
-77.0838
-76.811
-76.6359
-76.4424
-76.2761
-76.1114
-75.9795
-75.8485
-78.5452
-78.8057
-78.6051
-78.2369
-77.728
-77.138
-76.9094
-76.6822
-76.4793
-76.2941
-76.1365
-76.0033
-75.8576
-75.746
-79.1086
-79.1179
-78.9156
-78.07
-77.655
-77.2367
-76.9301
-76.6936
-76.4933
-76.3095
-76.1577
-76.0097
-75.8777
-75.7557
-75.6343
-78.627
-78.5774
-78.2617
-77.84
-77.4896
-77.1688
-76.9099
-76.6875
-76.4929
-76.3248
-76.163
-76.0223
-75.8843
-75.7576
-75.6408
-75.5221
-78.0177
-77.969
-77.7995
-77.5541
-77.2945
-77.0682
-76.8537
-76.6537
-76.479
-76.3112
-76.1624
-76.022
-75.8848
-75.7597
-75.6364
-75.5176
-75.4002
-77.6308
-77.5822
-77.4778
-77.319
-77.146
-76.9682
-76.7915
-76.6205
-76.4564
-76.3026
-76.155
-76.0169
-75.8845
-75.756
-75.634
-75.5139
-75.3931
-75.2722
-77.4788
-77.4251
-77.3266
-77.1969
-77.0514
-76.8961
-76.7453
-76.5853
-76.4338
-76.2885
-76.1454
-76.0107
-75.8784
-75.7519
-75.6292
-75.5069
-75.3856
-75.263
-75.1367
-77.4252
-77.3589
-77.2529
-77.1284
-76.9942
-76.8518
-76.7081
-76.5611
-76.4163
-76.2751
-76.1367
-76.0028
-75.8728
-75.7468
-75.6233
-75.5008
-75.3782
-75.2534
-75.1261
-74.9935
-77.4029
-77.3228
-77.2163
-77.0953
-76.9672
-76.8272
-76.6887
-76.5453
-76.4027
-76.2655
-76.1291
-75.9967
-75.8673
-75.7412
-75.6176
-75.494
-75.3702
-75.2446
-75.1155
-74.9821
-74.8429
-77.4022
-77.3125
-77.202
-77.0805
-76.9517
-76.8133
-76.6744
-76.5345
-76.3943
-76.2575
-76.1231
-75.9912
-75.862
-75.7359
-75.6115
-75.4872
-75.3629
-75.2361
-75.1059
-74.9712
-74.8313
-74.6856
-77.406
-77.3126
-77.2
-77.0755
-76.9466
-76.8079
-76.6693
-76.53
-76.3891
-76.253
-76.1186
-75.9864
-75.8572
-75.7307
-75.606
-75.4813
-75.3559
-75.2283
-75.0972
-74.9619
-74.821
-74.6746
-74.5228
-77.4093
-77.3132
-77.199
-77.074
-76.9436
-76.8045
-76.6654
-76.5257
-76.3851
-76.2485
-76.1139
-75.9816
-75.8519
-75.7251
-75.5998
-75.4744
-75.3484
-75.2201
-75.0883
-74.9521
-74.8105
-74.6631
-74.5106
-74.3534
-74.6514
-74.7843
-74.8435
-74.8882
-74.9495
-74.936
-74.957
-75.0126
-74.9843
-75.0381
-75.0637
-75.0981
-75.1261
-75.1137
-75.1114
-75.1318
-75.195
-75.2291
-75.1569
-75.1801
-75.2081
-75.2008
-75.2695
-75.2574
-75.2998
-75.3423
-75.3361
-75.2853
-75.2977
-75.3199
-75.3819
-75.422
-75.4567
-75.4554
-75.4416
-75.3835
-75.4223
-75.5175
-75.5815
-75.6288
-75.6628
-75.635
-75.6529
-75.6371
-75.6159
-75.6142
-75.7393
-75.806
-75.8593
-75.8499
-75.8531
-75.9237
-75.8413
-75.9125
-75.9145
-75.9137
-75.9748
-76.0579
-76.0892
-76.1824
-76.1824
-76.1876
-76.1886
-76.2208
-76.1958
-75.9376
-76.2189
-76.2882
-76.4014
-76.5523
-76.5137
-76.5847
-76.5641
-76.4504
-76.3603
-76.2537
-75.9865
-75.8572
-76.6805
-76.9185
-77.3564
-77.2811
-77.1423
-77.0244
-76.8168
-76.6178
-76.4137
-76.2071
-76.1169
-75.9414
-75.8403
-77.6947
-77.9582
-77.8204
-77.9458
-77.7914
-77.2348
-76.8819
-76.7302
-76.4499
-76.2707
-76.1171
-75.9929
-75.859
-75.7375
-78.3297
-78.6487
-78.7463
-78.4487
-77.8422
-77.2599
-76.9777
-76.7162
-76.5117
-76.3113
-76.1545
-76.022
-75.8712
-75.7527
-75.6361
-78.7444
-79.0636
-79.0524
-78.2198
-77.7266
-77.3179
-76.9909
-76.7376
-76.513
-76.3232
-76.1728
-76.021
-75.8777
-75.7589
-75.6388
-75.527
-78.2915
-78.3204
-78.1511
-77.8141
-77.5065
-77.1965
-76.9339
-76.7056
-76.5054
-76.333
-76.1706
-76.0282
-75.8898
-75.7601
-75.6432
-75.5254
-75.4079
-77.7752
-77.7897
-77.6871
-77.5054
-77.2725
-77.0618
-76.8577
-76.6568
-76.4852
-76.3158
-76.1658
-76.0252
-75.8875
-75.7618
-75.6392
-75.52
-75.4026
-75.2838
-77.513
-77.4801
-77.4076
-77.2736
-77.1187
-76.9543
-76.7834
-76.6175
-76.4561
-76.3028
-76.1559
-76.0181
-75.886
-75.7576
-75.6357
-75.5158
-75.3949
-75.2742
-75.1508
-77.416
-77.3705
-77.284
-77.1672
-77.0304
-76.8826
-76.7372
-76.5806
-76.4313
-76.2873
-76.145
-76.0108
-75.879
-75.7527
-75.6302
-75.5082
-75.387
-75.2645
-75.1385
-75.008
-77.3935
-77.3312
-77.2317
-77.1115
-76.9821
-76.8428
-76.7014
-76.5569
-76.4137
-76.2735
-76.1359
-76.0026
-75.8729
-75.7473
-75.624
-75.5016
-75.3792
-75.2547
-75.1275
-74.9951
-74.8576
-77.39
-77.3102
-77.2045
-77.0865
-76.96
-76.8217
-76.6848
-76.5425
-76.4007
-76.2642
-76.1283
-75.9963
-75.8673
-75.7414
-75.6179
-75.4946
-75.371
-75.2455
-75.1166
-74.9833
-74.8442
-74.6997
-77.3958
-77.3068
-77.1971
-77.0761
-76.9483
-76.8106
-76.6721
-76.5328
-76.3931
-76.2567
-76.1225
-75.9909
-75.8619
-75.7359
-75.6117
-75.4876
-75.3634
-75.2367
-75.1066
-74.972
-74.8322
-74.6866
-74.5358
-77.4034
-77.3102
-77.1978
-77.0744
-76.9451
-76.8066
-76.6683
-76.5292
-76.3885
-76.2525
-76.1183
-75.9862
-75.8572
-75.7307
-75.606
-75.4815
-75.3562
-75.2286
-75.0976
-74.9624
-74.8215
-74.6752
-74.5235
-74.3678
-77.4088
-77.3127
-77.1985
-77.0735
-76.9433
-76.8042
-76.6651
-76.5255
-76.3849
-76.2483
-76.1138
-75.9815
-75.8518
-75.7251
-75.5999
-75.4744
-75.3485
-75.2202
-75.0885
-74.9522
-74.8107
-74.6633
-74.5108
-74.3537
-74.1942
-74.6306
-74.7215
-74.7952
-74.8641
-74.8439
-74.882
-74.9622
-74.9915
-75.0186
-74.9446
-75.0462
-75.0226
-75.0075
-75.0294
-75.0666
-75.0837
-75.1337
-75.1061
-75.1332
-75.0909
-75.1513
-75.1571
-75.2399
-75.2013
-75.1791
-75.2146
-75.1776
-75.159
-75.2476
-75.2735
-75.2979
-75.3012
-75.3192
-75.3095
-75.243
-75.2329
-75.3442
-75.342
-75.4267
-75.4822
-75.4244
-75.4543
-75.4047
-75.3692
-75.3891
-75.5202
-75.559
-75.6473
-75.6375
-75.6506
-75.5747
-75.6229
-75.6336
-75.5701
-75.6083
-75.6755
-75.7787
-75.8437
-75.8752
-75.8682
-75.9049
-75.9107
-75.9655
-76.0005
-75.8199
-75.8695
-75.9398
-76.0158
-76.088
-76.1495
-76.234
-76.2673
-76.1843
-76.2417
-76.1324
-75.9878
-75.8713
-76.2699
-76.4124
-76.402
-76.6027
-76.5473
-76.6109
-76.6158
-76.5119
-76.2971
-76.1598
-76.1223
-75.9181
-75.8446
-76.7969
-77.1055
-77.3399
-77.4235
-77.4592
-77.0877
-76.8912
-76.7164
-76.4214
-76.2377
-76.1275
-75.9855
-75.8576
-75.726
-77.521
-77.7652
-77.8746
-77.878
-77.7306
-77.4913
-76.9933
-76.7514
-76.4801
-76.3354
-76.1502
-76.007
-75.8642
-75.7431
-75.6318
-77.9404
-78.4831
-78.7758
-78.5631
-78.0541
-77.3397
-77.0551
-76.7801
-76.5248
-76.3377
-76.1659
-76.0251
-75.8718
-75.7578
-75.6442
-75.5307
-78.3337
-78.7498
-78.805
-78.3221
-77.7947
-77.3781
-77.0406
-76.7655
-76.5373
-76.3379
-76.1842
-76.0266
-75.8914
-75.7672
-75.6427
-75.5294
-75.4186
-77.9431
-78.0547
-77.963
-77.7227
-77.4746
-77.2047
-76.944
-76.718
-76.5144
-76.3405
-76.1768
-76.0329
-75.8936
-75.7645
-75.6477
-75.5278
-75.41
-75.2966
-77.5281
-77.5856
-77.5469
-77.4277
-77.2343
-77.0435
-76.8514
-76.6561
-76.4861
-76.3191
-76.1683
-76.0277
-75.8901
-75.7642
-75.6408
-75.5221
-75.405
-75.2862
-75.1651
-77.3856
-77.3797
-77.3281
-77.2221
-77.0819
-76.9331
-76.7717
-76.6101
-76.4533
-76.3017
-76.1559
-76.0187
-75.887
-75.7589
-75.6371
-75.5173
-75.3967
-75.2761
-75.1528
-75.0239
-77.3586
-77.3177
-77.242
-77.1346
-77.0076
-76.8659
-76.7267
-76.5745
-76.4272
-76.2853
-76.144
-76.0105
-75.8793
-75.7533
-75.6311
-75.5093
-75.3884
-75.266
-75.1402
-75.0099
-74.8738
-77.3669
-77.3075
-77.2103
-77.095
-76.9692
-76.8331
-76.6945
-76.5519
-76.4105
-76.2714
-76.1347
-76.0021
-75.8728
-75.7476
-75.6246
-75.5023
-75.3801
-75.2558
-75.1288
-74.9967
-74.8593
-74.7156
-77.378
-77.2988
-77.1943
-77.0776
-76.9533
-76.8159
-76.6808
-76.5395
-76.3985
-76.2628
-76.1274
-75.9958
-75.8671
-75.7415
-75.6182
-75.495
-75.3717
-75.2463
-75.1175
-74.9845
-74.8455
-74.7011
-74.5508
-77.3903
-77.3016
-77.1925
-77.0732
-76.945
-76.8078
-76.6699
-76.531
-76.3918
-76.2558
-76.1219
-75.9906
-75.8617
-75.7359
-75.6118
-75.4879
-75.3638
-75.2372
-75.1072
-74.9727
-74.8331
-74.6876
-74.5369
-74.3816
-77.401
-77.3081
-77.1957
-77.0726
-76.9436
-76.8053
-76.6672
-76.5284
-76.3879
-76.2521
-76.118
-75.986
-75.857
-75.7307
-75.6061
-75.4816
-75.3564
-75.2288
-75.0979
-74.9628
-74.822
-74.6758
-74.5242
-74.3686
-74.2102
-77.4083
-77.3122
-77.1981
-77.0731
-76.943
-76.8039
-76.6648
-76.5253
-76.3848
-76.2482
-76.1138
-75.9815
-75.8518
-75.7251
-75.5999
-75.4745
-75.3486
-75.2203
-75.0886
-74.9524
-74.8108
-74.6636
-74.5111
-74.354
-74.1945
-74.0089
-74.6295
-74.7003
-74.7331
-74.7851
-74.87
-74.8438
-74.9331
-74.8918
-74.963
-74.9841
-75.016
-74.9735
-74.9768
-75.0213
-75.0342
-75.0629
-75.037
-74.9737
-75.0233
-75.0275
-75.1493
-75.0943
-75.1239
-75.1368