/*--------------------------------*- C++ -*----------------------------------*\
  =========                 |
  \\      /  F ield         | OpenFOAM: The Open Source CFD Toolbox
   \\    /   O peration     | Website:  https://openfoam.org
    \\  /    A nd           | Version:  7
     \\/     M anipulation  |
\*---------------------------------------------------------------------------*/
FoamFile
{
    version     2.0;
    format      ascii;
    class       surfaceScalarField;
    location    "1";
    object      phi_0;
}
// * * * * * * * * * * * * * * * * * * * * * * * * * * * * * * * * * * * * * //

dimensions      [0 3 -1 0 0 0 0];

internalField   nonuniform List<scalar> 
54451
(
1.35198e-05
-0.000158396
8.90389e-05
1.94685e-05
-0.000149428
0.000273228
1.20821e-05
-0.000169491
8.99302e-05
1.28832e-05
-0.000149526
8.74933e-05
2.4285e-05
-9.51459e-05
0.000467685
1.62833e-05
-0.00015138
0.000275639
2.03776e-05
-0.000135381
0.000269795
1.07683e-05
-0.000179241
9.0691e-05
1.15779e-05
-0.000159562
8.83888e-05
1.19179e-05
-0.000142588
8.55869e-05
4.83008e-05
-7.75429e-05
0.000660986
2.81431e-05
-0.000102732
0.000471106
2.67598e-05
-8.78854e-05
0.000462401
1.37487e-05
-0.000151991
0.000277768
1.75585e-05
-0.000137807
0.000272085
2.06402e-05
-0.000123053
0.00026563
9.58185e-06
-0.000187792
9.13354e-05
1.0366e-05
-0.000168411
8.91738e-05
1.07649e-05
-0.000151454
8.64901e-05
1.10277e-05
-0.000128477
8.34993e-05
9.09186e-05
-9.16954e-05
0.000852424
6.33478e-05
-0.000106804
0.000664798
4.27198e-05
-5.96131e-05
0.000653051
3.00193e-05
-0.000114409
0.000474095
3.10255e-05
-9.55599e-05
0.000465313
2.85572e-05
-9.05671e-05
0.000456333
1.19388e-05
-0.000151891
0.00027965
1.49684e-05
-0.000138767
0.000274125
1.79928e-05
-0.000126025
0.000267828
1.98839e-05
-0.000106022
0.000260776
8.43983e-06
-0.000195209
9.18903e-05
9.25656e-06
-0.000176183
8.98508e-05
9.68471e-06
-0.000159274
8.73087e-05
1.00125e-05
-0.000136377
8.43775e-05
1.07968e-05
-0.000112462
8.12373e-05
0.000123296
-7.91114e-05
0.00104384
9.47246e-05
-0.000115398
0.000857965
8.01644e-05
-6.97383e-05
0.000841836
6.72865e-05
-0.000138116
0.00066842
6.20272e-05
-8.26122e-05
0.000656795
3.89196e-05
-6.04673e-05
0.000643993
3.12313e-05
-0.000129028
0.000476869
3.26017e-05
-0.000107009
0.00046791
3.28475e-05
-9.89859e-05
0.000458877
2.93798e-05
-8.42021e-05
0.000448695
1.11631e-05
-0.000152092
0.000281366
1.24882e-05
-0.000138299
0.000275951
1.4987e-05
-0.000127029
0.000269827
1.74328e-05
-0.000108462
0.000262848
1.96946e-05
-8.67079e-05
0.000255132
7.25526e-06
-0.000201459
9.23961e-05
8.19816e-06
-0.000182924
9.04326e-05
8.67057e-06
-0.000166127
8.80341e-05
9.05017e-06
-0.00014332
8.5201e-05
9.9097e-06
-0.000120031
8.20366e-05
1.0188e-05
-9.65584e-05
7.91863e-05
0.000120908
8.39235e-05
0.00123548
0.000106004
-7.90205e-05
0.00104966
0.000127655
-4.52031e-05
0.0010313
9.94298e-05
-0.000139915
0.000862517
9.42587e-05
-9.16011e-05
0.000847596
7.11721e-05
-6.0662e-05
0.000829077
7.13892e-05
-0.000172148
0.000671491
6.74329e-05
-0.000109505
0.000660482
6.09265e-05
-7.92085e-05
0.000647458
3.97715e-05
-5.49161e-05
0.000632227
3.08817e-05
-0.000143985
0.00047944
3.26259e-05
-0.000120716
0.000470439
3.30977e-05
-0.000110098
0.000460911
3.29883e-05
-9.19413e-05
0.000451061
3.06945e-05
-6.80886e-05
0.00043934
1.04435e-05
-0.000152708
0.000283003
1.11797e-05
-0.000137542
0.000277628
1.22767e-05
-0.00012632
0.000271635
1.39991e-05
-0.00010837
0.000264786
1.76911e-05
-8.86626e-05
0.000257022
1.82739e-05
-7.10916e-05
0.000250043
6.02475e-06
-0.000206503
9.28725e-05
7.14107e-06
-0.00018862
9.0951e-05
7.71069e-06
-0.000172065
8.86594e-05
8.11473e-06
-0.000149356
8.59555e-05
9.05716e-06
-0.000126694
8.28069e-05
9.47072e-06
-0.000103854
7.98612e-05
9.20482e-06
-7.69671e-05
7.71883e-05
0.00013954
0.000271273
0.00142785
0.000121399
8.265e-05
0.0012377
0.000138815
4.94773e-05
0.00122134
0.000139014
-0.000106491
0.00105526
0.000120041
-5.82146e-05
0.00103689
0.000132835
-5.89691e-05
0.00101833
0.000104308
-0.000165261
0.000866599
0.000102029
-0.000115855
0.000852175
9.36329e-05
-8.07809e-05
0.000835009
6.88394e-05
-3.38724e-05
0.000812637
6.64229e-05
-0.000201268
0.000674388
6.95878e-05
-0.000138577
0.000663601
6.60223e-05
-0.000102644
0.000650993
6.11776e-05
-7.10997e-05
0.000635452
4.3541e-05
-4.75646e-05
0.000618418
2.86077e-05
-0.000157399
0.000481831
3.16139e-05
-0.000134617
0.000472907
3.13121e-05
-0.000121674
0.000462979
3.18889e-05
-0.000101595
0.000452675
3.30013e-05
-7.3934e-05
0.000441596
2.92745e-05
-5.47156e-05
0.000430279
8.47299e-06
-0.000152556
0.000284619
1.03993e-05
-0.000137025
0.000279227
1.04291e-05
-0.000124716
0.000273306
1.20527e-05
-0.00010724
0.000266567
1.41847e-05
-8.78459e-05
0.000258842
1.67804e-05
-7.30914e-05
0.000251712
1.74432e-05
-5.08582e-05
0.000244469
4.81235e-06
-0.000210357
9.33337e-05
6.01013e-06
-0.000193185
9.14278e-05
6.77404e-06
-0.000177088
8.91998e-05
7.24326e-06
-0.000154561
8.6621e-05
8.20288e-06
-0.000132477
8.35358e-05
8.7427e-06
-0.000110314
8.05245e-05
8.67959e-06
-8.35135e-05
7.7728e-05
8.03302e-06
-6.62854e-05
7.53048e-05
0.000168082
0.000422627
0.00165747
0.000147331
0.000272177
0.00143376
0.000120818
0.000248126
0.00140527
0.000194797
4.07716e-05
0.00124627
0.000143703
4.08022e-05
0.00122271
0.000167281
2.07351e-05
0.00120585
0.000161914
-0.000152124
0.00105956
0.000134406
-7.70891e-05
0.00104175
0.000126476
-7.79455e-05
0.00102302
0.000147249
-5.80898e-05
0.000997486
9.81614e-05
-0.0001892
0.00087144
0.000102637
-0.000138329
0.000856023
0.000102935
-0.000105212
0.000839692
9.40551e-05
-5.04755e-05
0.000818734
7.47844e-05
-2.24841e-05
0.000793628
6.45887e-05
-0.000230625
0.000677391
6.66732e-05
-0.000165637
0.000666388
6.6836e-05
-0.000128725
0.000654157
6.68705e-05
-9.38275e-05
0.000638739
6.01976e-05
-6.07615e-05
0.000621452
4.26136e-05
-4.10473e-05
0.00060568
2.37064e-05
-0.000167882
0.000484219
2.91942e-05
-0.000146949
0.000475367
2.83948e-05
-0.000132166
0.000465434
2.98753e-05
-0.000110746
0.000454308
3.1252e-05
-8.15515e-05
0.000443226
3.03932e-05
-5.91044e-05
0.000432372
2.92351e-05
-4.35487e-05
0.000420343
5.99614e-06
-0.000151141
0.000286218
8.82952e-06
-0.000136041
0.000280816
9.79674e-06
-0.000123408
0.000274896
1.04467e-05
-0.000105366
0.000268228
1.28158e-05
-8.64507e-05
0.000260559
1.41125e-05
-7.29702e-05
0.000253351
1.65003e-05
-5.28871e-05
0.00024592
1.56587e-05
-4.16064e-05
0.00023908
3.58505e-06
-0.00021301
9.37765e-05
4.88019e-06
-0.000196615
9.18837e-05
5.75705e-06
-0.000181091
8.96736e-05
6.39536e-06
-0.000158951
8.7195e-05
7.40907e-06
-0.000137467
8.42018e-05
7.99596e-06
-0.000115944
8.11699e-05
8.12161e-06
-8.93736e-05
7.82631e-05
7.61276e-06
-7.19108e-05
7.57407e-05
6.71133e-06
-5.6046e-05
7.36096e-05
0.000144921
0.000860544
0.0018825
0.000154681
0.000448295
0.00164949
0.000175745
0.00039573
0.00161009
0.000246083
0.0002527
0.00143859
0.000132596
0.000281344
0.00141165
0.0001255
0.000207372
0.00139197
0.000240382
-1.9799e-05
0.00125054
0.000201836
-5.64211e-06
0.00122528
0.000144965
1.8085e-05
0.00120687
0.000207234
-4.79329e-06
0.00118101
0.000160972
-0.000204453
0.00106611
0.000140152
-0.000100467
0.00104542
0.00013346
-9.45777e-05
0.00102786
0.000133952
-7.61916e-05
0.00100123
0.000149663
-6.04491e-05
0.000974636
9.36738e-05
-0.000210763
0.000876464
9.58619e-05
-0.000156434
0.000860357
0.000101308
-0.000127108
0.000843448
0.00010673
-7.40046e-05
0.000823362
9.13688e-05
-3.4585e-05
0.000799664
7.29561e-05
-2.57107e-05
0.000776744
5.85889e-05
-0.000259072
0.00068076
6.2141e-05
-0.000190556
0.000669363
6.21444e-05
-0.000153242
0.000657156
6.62972e-05
-0.0001179
0.000641807
6.65654e-05
-8.19052e-05
0.00062457
5.35552e-05
-5.12485e-05
0.000608492
4.55179e-05
-2.9549e-05
0.000590866
1.81316e-05
-0.000175383
0.00048654
2.41994e-05
-0.000155889
0.000477789
2.39818e-05
-0.00013888
0.000467896
2.57951e-05
-0.000117465
0.000456804
2.95411e-05
-8.86717e-05
0.000444703
2.90153e-05
-6.49846e-05
0.000434203
2.95029e-05
-4.64543e-05
0.000422275
2.71229e-05
-4.47831e-05
0.000410602
2.93035e-06
-0.000147886
0.000287781
5.86864e-06
-0.000133217
0.000282406
8.20763e-06
-0.000121515
0.000276472
1.01129e-05
-0.000103997
0.00026981
1.20255e-05
-8.50208e-05
0.000262182
1.27791e-05
-7.21413e-05
0.000254947
1.50954e-05
-5.38628e-05
0.000247353
1.50058e-05
-4.34535e-05
0.000240374
1.36528e-05
-3.57213e-05
0.000233927
2.35483e-06
-0.000214455
9.42039e-05
3.76554e-06
-0.000198926
9.23216e-05
4.71447e-06
-0.000184035
9.01133e-05
5.50387e-06
-0.000162466
8.76841e-05
6.62916e-06
-0.000141701
8.47994e-05
7.28392e-06
-0.000120807
8.17814e-05
7.54268e-06
-9.45398e-05
7.87934e-05
7.16123e-06
-7.69855e-05
7.61765e-05
6.37453e-06
-6.06647e-05
7.39848e-05
5.93073e-06
-4.53689e-05
7.18947e-05
0.000248378
0.00276
0.00213324
0.000155612
0.000917543
0.00188783
0.000179193
0.000624387
0.00184588
0.000226591
0.000491411
0.00165007
0.00019243
0.000374659
0.00161072
0.000150135
0.000394261
0.00157838
0.000324856
0.000200888
0.00143599
0.000248001
0.000262059
0.00141171
0.000133704
0.000233938
0.00139634
0.000187233
0.000200458
0.00136495
0.000247043
-8.45863e-05
0.00125256
0.000208655
-4.9685e-05
0.00122608
0.000190388
-1.84411e-05
0.00120488
0.000160241
-6.95267e-06
0.00118274
0.000210439
-1.01561e-05
0.00115272
0.000173773
-0.000275143
0.00107351
0.000137684
-0.000128157
0.00105197
0.000123618
-0.000102477
0.00103101
0.000140753
-8.93526e-05
0.001007
0.000126379
-7.20529e-05
0.000977822
0.000128331
-5.08449e-05
0.000952737
8.89204e-05
-0.0002332
0.000880862
9.58232e-05
-0.00017873
0.000865078
8.96865e-05
-0.000141901
0.000847608
0.000101971
-9.37251e-05
0.000827495
0.000107087
-5.5869e-05
0.000804124
8.233e-05
-3.69776e-05
0.000782156
7.52894e-05
-2.52335e-05
0.000759582
5.24018e-05
-0.000286813
0.000684109
5.29475e-05
-0.000211102
0.000672558
5.2343e-05
-0.000172539
0.000660298
5.97945e-05
-0.000139589
0.000644846
6.49041e-05
-0.000102978
0.000627517
5.86561e-05
-6.76945e-05
0.000611375
5.2683e-05
-3.77336e-05
0.000593496
4.32324e-05
-3.88956e-05
0.00057697
1.23977e-05
-0.000180303
0.000488842
1.52949e-05
-0.000158969
0.000480194
2.09117e-05
-0.000144031
0.000470236
2.00088e-05
-0.000118647
0.000459183
2.67382e-05
-9.36423e-05
0.000447062
2.75721e-05
-7.07872e-05
0.000435712
2.88616e-05
-5.01881e-05
0.000424171
2.70373e-05
-4.68925e-05
0.000412353
2.50816e-05
-4.37993e-05
0.000400711
-6.37899e-07
-0.000142272
0.000289292
3.1976e-06
-0.00012882
0.000283952
5.31284e-06
-0.000117756
0.000278049
8.63576e-06
-0.000102027
0.00027137
1.19357e-05
-8.42505e-05
0.000263733
1.23835e-05
-7.15429e-05
0.000256484
1.38377e-05
-5.39953e-05
0.000248784
1.41078e-05
-4.4696e-05
0.000241649
1.31956e-05
-3.72841e-05
0.000235116
1.2886e-05
-2.85286e-05
0.000228574
1.10373e-06
-0.000214676
9.46286e-05
2.69267e-06
-0.000200161
9.27469e-05
3.6729e-06
-0.00018592
9.05336e-05
4.56673e-06
-0.000165038
8.81188e-05
5.82666e-06
-0.000145166
8.5323e-05
6.56524e-06
-0.000124929
8.23561e-05
6.96442e-06
-9.90339e-05
7.9311e-05
6.70335e-06
-8.15097e-05
7.66142e-05
6.01587e-06
-6.48617e-05
7.43576e-05
5.67606e-06
-4.92988e-05
7.22387e-05
5.22175e-06
-3.74522e-05
7.02064e-05
0.000366991
0.00569194
0.00275859
0.000198477
0.00272326
0.00215474
0.000260249
0.00163914
0.0020834
0.000174082
0.00102348
0.00190168
0.000245832
0.000614762
0.00184406
0.00018092
0.000407684
0.00180159
0.00032681
0.000519522
0.00164114
0.000282043
0.000377941
0.00161274
0.000204352
0.000348433
0.0015859
0.000209964
0.000328072
0.0015411
0.000349889
0.000138379
0.00143595
0.000278147
0.000221076
0.00140748
0.00023103
0.000212936
0.00139207
0.000188649
0.00020142
0.00136697
0.000203021
0.000144438
0.00133994
0.000320242
-0.000210173
0.00126348
0.000201035
-8.91344e-05
0.00122866
0.00018161
-5.68621e-05
0.00120651
0.000187633
-2.81133e-05
0.00117916
0.00016637
-2.27574e-05
0.00115535
0.000176391
-1.62706e-05
0.00112747
0.000185602
-0.000362459
0.00107905
0.000168623
-0.000187194
0.00105975
0.000115686
-0.000113321
0.00103682
0.000129535
-9.59951e-05
0.00101009
0.000137589
-8.02699e-05
0.000984714
0.000115042
-6.05576e-05
0.000954822
0.000115335
-3.31079e-05
0.000928293
9.40478e-05
-0.000266276
0.000884287
9.1004e-05
-0.000204955
0.00086903
9.17678e-05
-0.000168106
0.000851858
9.20775e-05
-0.000110081
0.000831681
0.000101482
-7.35103e-05
0.000808558
9.73229e-05
-5.75981e-05
0.000786078
7.98945e-05
-3.43917e-05
0.000764103
7.05808e-05
-2.30398e-05
0.000743322
4.05872e-05
-0.000308314
0.000687733
4.13637e-05
-0.000228745
0.000675684
4.4721e-05
-0.000187139
0.000663349
4.76321e-05
-0.000154843
0.000647929
5.96897e-05
-0.000121506
0.000630423
5.76272e-05
-8.43973e-05
0.000614165
5.56601e-05
-4.93091e-05
0.000596152
4.68726e-05
-4.46541e-05
0.000579419
4.27031e-05
-4.08407e-05
0.000562981
9.74728e-06
-0.000186152
0.000491111
9.59416e-06
-0.000159046
0.000482522
1.30673e-05
-0.000144232
0.000472641
1.89196e-05
-0.000120032
0.000461337
2.23431e-05
-9.41547e-05
0.000449288
2.74198e-05
-7.63441e-05
0.000437582
2.76864e-05
-5.38749e-05
0.00042555
2.65507e-05
-4.93294e-05
0.000414165
2.49449e-05
-4.55343e-05
0.000402339
2.44222e-05
-3.95706e-05
0.000390477
-4.04867e-06
-0.000134454
0.000290764
7.4149e-07
-0.000123002
0.000285425
3.03385e-06
-0.000112749
0.000279584
6.36535e-06
-9.8699e-05
0.000272923
1.07977e-05
-8.311e-05
0.000265259
1.22147e-05
-7.1421e-05
0.000257961
1.33221e-05
-5.40603e-05
0.000250191
1.30763e-05
-4.52201e-05
0.000242935
1.25598e-05
-3.84592e-05
0.00023628
1.25706e-05
-2.99983e-05
0.000229691
1.18572e-05
-2.49012e-05
0.00022337
-1.78766e-07
-0.000213623
9.50387e-05
1.60087e-06
-0.000200309
9.31757e-05
2.70155e-06
-0.000186822
9.09483e-05
3.65006e-06
-0.00016668
8.85262e-05
5.00252e-06
-0.000147837
8.57875e-05
5.82567e-06
-0.000128319
8.28868e-05
6.36796e-06
-0.000102862
7.98164e-05
6.22385e-06
-8.5471e-05
7.70484e-05
5.65997e-06
-6.86396e-05
7.47322e-05
5.40742e-06
-5.29273e-05
7.25786e-05
5.02456e-06
-4.07716e-05
7.05336e-05
4.47885e-06
-2.68447e-05
6.86201e-05
0.000344865
0.00626771
0.00336102
0.000351376
0.00567472
0.00279193
0.000522877
0.00483865
0.0026202
0.000179058
0.00276204
0.00220562
0.000216463
0.00172889
0.00209436
0.000216655
0.00119965
0.00203118
0.000241497
0.00114348
0.00187585
0.000254287
0.000691868
0.00185233
0.000251169
0.000403417
0.00180151
0.000232114
0.000330134
0.00176002
0.000380775
0.000520657
0.00163541
0.000354862
0.000334944
0.00160742
0.000292895
0.000315319
0.00158399
0.000270069
0.000282738
0.00154982
0.000221037
0.000267551
0.00151358
0.000460856
3.81849e-05
0.00144546
0.000290727
0.000161313
0.00140602
0.000240612
0.000175368
0.00138605
0.000245533
0.000171017
0.00136457
0.000209928
0.000128102
0.00133975
0.000199885
7.96988e-05
0.00130264
0.00038619
-0.000392314
0.00127206
0.000263173
-0.000161727
0.00124152
0.000169143
-9.3021e-05
0.00121136
0.000180462
-5.44267e-05
0.00118189
0.000176711
-3.67558e-05
0.00115404
0.000160705
-3.74954e-05
0.00113091
0.000145318
-2.87122e-05
0.0011014
0.000175354
-0.000430324
0.00108644
0.000185903
-0.000268876
0.00106583
0.000155916
-0.000161049
0.00104333
0.00012479
-0.000106478
0.00101459
0.000127576
-8.44996e-05
0.000988222
0.000130647
-7.12902e-05
0.000962123
0.000116174
-4.4921e-05
0.000930356
9.56266e-05
-5.54196e-05
0.000907822
7.77963e-05
-0.000294432
0.000888482
8.50619e-05
-0.000236395
0.000872029
8.5782e-05
-0.000196099
0.000855962
9.37013e-05
-0.000139816
0.000835524
9.41729e-05
-8.90622e-05
0.00081275
9.34218e-05
-7.53293e-05
0.000790495
9.13056e-05
-5.13922e-05
0.000767433
7.24089e-05
-3.16137e-05
0.000747141
6.59532e-05
-1.5729e-05
0.000726297
3.85614e-05
-0.000330358
0.000691817
2.88109e-05
-0.000239161
0.000678933
3.37973e-05
-0.000198713
0.000666528
4.34207e-05
-0.0001668
0.000650805
4.96733e-05
-0.000134222
0.000633315
5.61747e-05
-9.95448e-05
0.000616816
5.48313e-05
-6.10374e-05
0.000598748
4.76645e-05
-5.16049e-05
0.000581989
4.40007e-05
-4.57666e-05
0.000565289
4.22609e-05
-3.33276e-05
0.000549326
5.0482e-06
-0.000190691
0.000493382
1.00619e-05
-0.00016205
0.000484794
7.39889e-06
-0.000141098
0.000475024
1.32918e-05
-0.000117972
0.000463654
2.19564e-05
-9.53793e-05
0.000451403
2.63309e-05
-8.08446e-05
0.000439672
2.89044e-05
-5.85176e-05
0.000426643
2.5184e-05
-5.12536e-05
0.000415367
2.46613e-05
-4.75778e-05
0.000404107
2.41687e-05
-4.0868e-05
0.000392038
2.33167e-05
-3.58325e-05
0.000380567
-6.79511e-06
-0.000125119
0.000292202
-9.61704e-07
-0.000116527
0.000286852
1.5554e-06
-0.000107223
0.000281045
4.513e-06
-9.44095e-05
0.000274432
9.03054e-06
-8.0987e-05
0.000266772
1.1504e-05
-7.12451e-05
0.000259404
1.30431e-05
-5.43207e-05
0.000251547
1.22854e-05
-4.53079e-05
0.000244217
1.16613e-05
-3.89833e-05
0.000237458
1.21485e-05
-3.12427e-05
0.000230783
1.1611e-05
-2.62182e-05
0.000224421
1.09535e-05
-1.75069e-05
0.000218207
-1.44514e-06
-0.000211327
9.54553e-05
3.98101e-07
-0.000199254
9.35848e-05
1.71049e-06
-0.000186724
9.13663e-05
2.73172e-06
-0.000167392
8.89279e-05
4.18824e-06
-0.000149712
8.62123e-05
5.10585e-06
-0.000131016
8.33793e-05
5.75017e-06
-0.00010603
8.03049e-05
5.71513e-06
-8.88523e-05
7.74827e-05
5.28141e-06
-7.19736e-05
7.51009e-05
5.14745e-06
-5.62608e-05
7.29183e-05
4.82622e-06
-4.3878e-05
7.08588e-05
4.34811e-06
-2.9589e-05
6.89298e-05
3.72413e-06
-2.02556e-05
6.72714e-05
0.000434987
0.00536206
0.00348955
0.000366296
0.00626045
0.00339273
0.000461054
0.0062497
0.00335592
0.00036905
0.00559606
0.00282863
0.000432517
0.00478078
0.00263374
0.000471827
0.00403386
0.0024248
0.000243942
0.00287448
0.00219066
0.000257991
0.0018594
0.0020714
0.000275223
0.00124974
0.00202022
0.000297224
0.000732769
0.0019455
0.000270416
0.001309
0.00183032
0.000287499
0.000802527
0.00183255
0.000295122
0.00045012
0.0018034
0.000319409
0.000321361
0.00176094
0.000274639
0.000205621
0.00170889
0.000528992
0.000510408
0.00163561
0.000427487
0.000238365
0.00159523
0.000330507
0.000253839
0.001579
0.000314538
0.000256999
0.00154073
0.000269081
0.000238561
0.00151965
0.000232941
0.000165037
0.00148492
0.000596186
-0.00013952
0.00145043
0.000395845
5.75488e-05
0.00141656
0.000253167
0.000115176
0.00138219
0.000245798
0.000132384
0.00135934
0.000208366
0.000118413
0.00134261
0.000212888
6.45737e-05
0.00130269
0.00017649
1.09059e-05
0.00127155
0.000354539
-0.000550097
0.00127737
0.000336233
-0.000291173
0.00125118
0.000233487
-0.00015162
0.00122255
0.000171315
-7.81473e-05
0.00118856
0.000172662
-5.78701e-05
0.00115792
0.00016642
-5.22481e-05
0.00113302
0.000154398
-4.10406e-05
0.00110502
0.000118241
-5.75148e-05
0.00107674
0.000121641
-0.000459083
0.00109634
0.000158696
-0.000326154
0.00107008
0.000174897
-0.000233071
0.00104874
0.000155192
-0.00014402
0.00101938
0.00012695
-9.48291e-05
0.00099214
0.000122798
-7.81836e-05
0.000965739
0.000132508
-6.17862e-05
0.000937786
9.87216e-05
-6.16473e-05
0.000910271
9.47977e-05
-5.86162e-05
0.000886069
6.99639e-05
-0.00031655
0.000894605
7.14763e-05
-0.00026649
0.000875911
7.57452e-05
-0.00022554
0.000859522
8.81362e-05
-0.000168283
0.000839713
9.41538e-05
-0.000114477
0.000816458
8.91462e-05
-8.98825e-05
0.000794331
8.87721e-05
-6.67018e-05
0.000771864
7.95316e-05
-4.61515e-05
0.000750104
6.93692e-05
-2.3546e-05
0.000729589
6.28408e-05
-1.20099e-05
0.000708226
3.17141e-05
-0.000350342
0.000695975
3.31233e-05
-0.000252945
0.00068254
2.04411e-05
-0.000202514
0.000669691
3.50779e-05
-0.000175739
0.00065368
4.69498e-05
-0.000144476
0.000636066
5.17584e-05
-0.000111107
0.00061945
5.61605e-05
-7.27675e-05
0.00060129
4.61417e-05
-5.82483e-05
0.000584434
4.36441e-05
-5.04787e-05
0.000567718
4.21847e-05
-3.76269e-05
0.000551573
3.99224e-05
-2.84062e-05
0.000536481
8.40483e-07
-0.000193743
0.000495637
1.04608e-05
-0.000167112
0.000487021
9.43288e-06
-0.000141472
0.000477291
1.03848e-05
-0.000114797
0.000465977
1.81436e-05
-9.44479e-05
0.000453609
2.47174e-05
-8.46988e-05
0.000442044
3.02552e-05
-6.46905e-05
0.000428633
2.52738e-05
-5.36157e-05
0.000416017
2.29293e-05
-4.87002e-05
0.000405221
2.39002e-05
-4.22934e-05
0.00039378
2.30486e-05
-3.73466e-05
0.000382115
2.20513e-05
-2.64483e-05
0.000371077
-9.16342e-06
-0.000114644
0.000293594
-2.97424e-06
-0.000109206
0.000288252
1.01818e-06
-0.000102137
0.000282459
3.53239e-06
-9.00348e-05
0.000275869
7.51798e-06
-7.8129e-05
0.000268244
9.96573e-06
-7.01821e-05
0.000260849
1.26691e-05
-5.46946e-05
0.000252859
1.19238e-05
-4.54328e-05
0.000245463
1.08325e-05
-3.89565e-05
0.00023864
1.13906e-05
-3.19114e-05
0.000231884
1.13073e-05
-2.73736e-05
0.000225458
1.07746e-05
-1.87052e-05
0.000219193
9.35881e-06
-1.30138e-05
0.000213689
-2.52721e-06
-0.000207956
9.58696e-05
-7.71498e-07
-0.000197039
9.40119e-05
6.36335e-07
-0.000185551
9.17764e-05
1.88119e-06
-0.000167239
8.93327e-05
3.37445e-06
-0.000150772
8.66134e-05
4.37639e-06
-0.000133017
8.38363e-05
5.17432e-06
-0.000108603
8.07778e-05
5.17823e-06
-9.16396e-05
7.79139e-05
4.87173e-06
-7.48333e-05
7.54707e-05
4.86686e-06
-5.92732e-05
7.32465e-05
4.63175e-06
-4.67755e-05
7.11841e-05
4.21591e-06
-3.21867e-05
6.92405e-05
3.63917e-06
-2.25244e-05
6.75594e-05
3.13225e-06
-1.24736e-05
6.60257e-05
0.000365319
0.00513531
0.00371426
0.000396079
0.005341
0.00344214
0.000478759
0.00614898
0.00341678
0.000496303
0.00618724
0.0033671
0.00058646
0.00615532
0.00333317
0.000565642
0.00606858
0.00322082
0.00033171
0.00561588
0.00286837
0.000409925
0.00479017
0.00266731
0.000447893
0.00403476
0.00246017
0.000472275
0.00311657
0.00230359
0.0002922
0.00296609
0.00218609
0.000232825
0.00204489
0.00205984
0.000267061
0.00137667
0.00197254
0.000386412
0.000770635
0.00191535
0.000314547
0.000376597
0.00189357
0.000424284
0.00149375
0.00177694
0.000400652
0.000874494
0.00178519
0.000349664
0.00048687
0.00177665
0.000381687
0.000302155
0.00175546
0.000323779
0.000198856
0.00171301
0.00030682
0.000193134
0.00164358
0.000640392
0.000531732
0.0016434
0.000529761
0.00013825
0.00160181
0.000380246
0.000149394
0.0015726
0.000317175
0.000231895
0.00153273
0.000251321
0.000226383
0.00150995
0.000249266
0.000162946
0.00148537
0.000226667
0.000107434
0.00144306
0.000583539
-0.000331231
0.00147284
0.000502706
-8.38397e-05
0.00142534
0.000338471
3.2261e-05
0.00139449
0.000247028
7.93799e-05
0.00135948
0.000218507
9.3022e-05
0.00133889
0.000194704
7.04115e-05
0.00130848
0.000182804
1.1764e-05
0.00127343
0.000147934
-4.37055e-05
0.00124474
0.000269975
-0.000673529
0.00129175
0.00030224
-0.000412575
0.00125523
0.000291733
-0.000247832
0.00123055
0.000228872
-0.000127196
0.00119792
0.000170202
-7.72335e-05
0.00116467
0.000159633
-6.79343e-05
0.00113677
0.000164704
-5.00581e-05
0.00110984
0.000118534
-5.36887e-05
0.00108138
0.000130535
-8.16297e-05
0.00105056
0.000142506
-0.000517147
0.00110889
0.000124914
-0.000359659
0.00107641
0.000143563
-0.000282658
0.00105185
0.000172573
-0.00020285
0.00102313
0.000146554
-0.000123914
0.000996068
0.000125335
-9.15531e-05
0.000969321
0.000124598
-7.3412e-05
0.000941539
0.00011239
-7.37436e-05
0.000917023
9.17365e-05
-5.98632e-05
0.00088915
9.19137e-05
-6.11991e-05
0.00086648
5.76375e-05
-0.000332762
0.000902029
6.78757e-05
-0.000288721
0.000882084
6.15953e-05
-0.000254178
0.000863396
8.18301e-05
-0.000199017
0.000843504
8.9853e-05
-0.000138132
0.000820466
8.80207e-05
-0.000107688
0.000798001
8.64078e-05
-7.79473e-05
0.000775329
7.77904e-05
-6.03675e-05
0.000754431
7.30717e-05
-3.51092e-05
0.000732239
6.66858e-05
-1.82198e-05
0.000711298
6.02467e-05
-1.03733e-05
0.000691047
2.91898e-05
-0.000371915
0.000699595
3.66829e-05
-0.000269694
0.000686502
2.48127e-05
-0.000208445
0.000673091
2.68974e-05
-0.0001791
0.000656539
4.1407e-05
-0.000152855
0.000638795
4.85453e-05
-0.000121142
0.000622272
5.6325e-05
-8.32396e-05
0.000603852
4.67817e-05
-6.54748e-05
0.000587008
4.17803e-05
-5.4965e-05
0.000570069
4.15088e-05
-4.14332e-05
0.000553916
3.92492e-05
-3.16887e-05
0.000538655
3.8696e-05
-1.66227e-05
0.000523634
1.14056e-06
-0.000199409
0.000497636
6.28999e-06
-0.000169977
0.000489238
1.27459e-05
-0.000145709
0.00047953
1.0872e-05
-0.000112966
0.000468121
1.42338e-05
-9.10171e-05
0.00045583
2.05529e-05
-8.57728e-05
0.000444096
2.87966e-05
-7.02287e-05
0.000431454
2.66291e-05
-5.76661e-05
0.000417978
2.16458e-05
-4.92419e-05
0.000405745
2.24665e-05
-4.31025e-05
0.000394955
2.27157e-05
-3.87269e-05
0.000383752
2.19734e-05
-2.81663e-05
0.000372634
1.8872e-05
-1.99655e-05
0.000362889
-8.7234e-06
-0.000105684
0.000294955
-5.15799e-06
-0.000100857
0.000289632
-6.84595e-07
-9.64127e-05
0.000283849
3.23401e-06
-8.61997e-05
0.000277271
6.71877e-06
-7.52602e-05
0.000269656
8.47581e-06
-6.83e-05
0.000262262
1.13844e-05
-5.42544e-05
0.000254198
1.17021e-05
-4.5755e-05
0.000246658
1.03748e-05
-3.87874e-05
0.000239791
1.07125e-05
-3.21053e-05
0.000232988
1.07469e-05
-2.80992e-05
0.000226494
1.05826e-05
-1.97871e-05
0.000220173
9.21782e-06
-1.40203e-05
0.000214621
8.09894e-06
-7.74748e-06
0.00020956
-3.52452e-06
-0.000203536
9.6276e-05
-1.72284e-06
-0.000193889
9.44429e-05
-4.40525e-07
-0.000183311
9.22122e-05
9.15562e-07
-0.000166107
8.97291e-05
2.62726e-06
-0.000151081
8.70149e-05
3.65652e-06
-0.000134323
8.42626e-05
4.58053e-06
-0.000110579
8.12311e-05
4.68945e-06
-9.38945e-05
7.83432e-05
4.43361e-06
-7.71966e-05
7.58436e-05
4.57272e-06
-6.19457e-05
7.35704e-05
4.42173e-06
-4.94496e-05
7.14988e-05
4.08509e-06
-3.46408e-05
6.95531e-05
3.54481e-06
-2.46795e-05
6.78509e-05
3.07924e-06
-1.42863e-05
6.62928e-05
2.81949e-06
-6.57155e-06
6.48141e-05
8.53924e-05
0.00499825
0.00400371
0.000344558
0.00510014
0.00370544
0.000478377
0.00519714
0.00370814
0.000470645
0.00539454
0.00345594
0.000584322
0.00617621
0.00341705
0.000427077
0.00601028
0.0034694
0.000376998
0.00618043
0.00339515
0.000427916
0.00616906
0.00333537
0.000708167
0.00593555
0.00320592
0.000627458
0.00550662
0.00306369
0.000407969
0.00563075
0.0028491
0.000368691
0.00483805
0.00268462
0.00049746
0.00399322
0.00247845
0.000582499
0.00305486
0.00232579
0.000472748
0.00204609
0.00213731
0.000415293
0.00312611
0.0021648
0.000346531
0.00222699
0.00205811
0.000381014
0.00145599
0.00194918
0.000388329
0.000871382
0.00186515
0.000343628
0.00039588
0.00187621
0.000350179
0.000139443
0.00183143
0.00046853
0.00174287
0.0017581
0.000457782
0.00097417
0.00174925
0.000448507
0.000474983
0.00172882
0.000390815
0.000269735
0.00173543
0.000279301
0.000222051
0.00170428
0.000303263
0.000202097
0.00165004
0.000260912
0.000155337
0.00160701
0.000644998
0.000535134
0.0016787
0.000598788
8.16091e-05
0.00160396
0.000470323
4.31464e-05
0.0015762
0.000374391
0.000148184
0.00152895
0.000267513
0.000205502
0.0015046
0.000215417
0.000171536
0.00148065
0.000217346
0.000118083
0.00144018
0.000200055
8.09104e-05
0.00140221
0.000514698
-0.000523284
0.0015022
0.000528363
-0.000277315
0.00144019
0.000419654
-7.18678e-05
0.00140155
0.00031878
1.3292e-05
0.00137067
0.000212439
6.76902e-05
0.00134258
0.000207462
5.39779e-05
0.00130749
0.000176893
2.80212e-05
0.00128004
0.000136063
-3.52504e-05
0.00124744
0.000165555
-9.74827e-06
0.00121138
0.00026267
-0.00076787
0.00131386
0.000233006
-0.000491515
0.0012626
0.000252992
-0.000338615
0.00123658
0.000271121
-0.000199815
0.00120462
0.000203678
-0.000109071
0.00117263
0.000162584
-8.31892e-05
0.00114267
0.000155618
-5.70596e-05
0.00111276
0.000138485
-5.77991e-05
0.00108785
0.000103863
-6.83166e-05
0.00105594
0.000132452
-7.40176e-05
0.00102466
0.000105946
-0.000552312
0.0011189
0.000135351
-0.000407295
0.00108905
9.52129e-05
-0.000297144
0.00105728
0.000151952
-0.000246726
0.0010256
0.000162359
-0.000171343
0.000998052
0.000133018
-0.000113417
0.000972934
0.000128361
-9.08037e-05
0.00094476
0.000106943
-8.24449e-05
0.000921088
9.97203e-05
-6.4126e-05
0.000894638
8.14048e-05
-5.69823e-05
0.000870215
8.79228e-05
-5.39586e-05
0.000845317
4.78558e-05
-0.000342036
0.0009094
5.95068e-05
-0.000298965
0.000889449
5.82904e-05
-0.000274675
0.000869102
6.37193e-05
-0.000219785
0.000847341
8.6097e-05
-0.000163336
0.000824017
8.551e-05
-0.000125453
0.000801267
8.56359e-05
-8.82862e-05
0.000779029
7.68474e-05
-7.27064e-05
0.000757603
7.21065e-05
-4.73122e-05
0.000736308
6.80408e-05
-2.63456e-05
0.000713833
6.32725e-05
-1.71064e-05
0.000694008
5.66241e-05
-7.74528e-06
0.000674885
2.71673e-05
-0.000391678
0.000701625
3.10289e-05
-0.000285105
0.000690267
2.98806e-05
-0.000215805
0.000676727
2.56057e-05
-0.000180805
0.000660063
3.42267e-05
-0.000158003
0.000641694
4.31965e-05
-0.000130065
0.000625075
5.38661e-05
-9.27986e-05
0.000606762
4.76788e-05
-7.22908e-05
0.000589618
4.06449e-05
-5.95768e-05
0.000572621
3.98843e-05
-4.50093e-05
0.000556227
3.88307e-05
-3.48227e-05
0.000540935
3.82255e-05
-1.99481e-05
0.000525728
3.35334e-05
-1.19042e-05
0.000512253
-3.57243e-06
-0.00019994
0.000499724
4.34291e-06
-0.000173138
0.000491296
8.4829e-06
-0.000147393
0.000481755
1.55959e-05
-0.000116063
0.000470265
1.41572e-05
-8.82086e-05
0.000457874
1.48044e-05
-8.2473e-05
0.000446202
2.31749e-05
-7.13721e-05
0.000433449
2.62624e-05
-6.16776e-05
0.000420905
2.16189e-05
-5.01959e-05
0.000407688
2.03375e-05
-4.26281e-05
0.000395646
2.14562e-05
-3.95266e-05
0.000385045
2.1725e-05
-2.97209e-05
0.000374164
1.88959e-05
-2.1433e-05
0.000364423
1.6766e-05
-1.12064e-05
0.000355466
-1.05174e-05
-9.59238e-05
0.000296239
-4.82328e-06
-9.37746e-05
0.000290973
-2.70869e-06
-8.97282e-05
0.000285215
1.43708e-06
-8.15501e-05
0.000278678
6.23061e-06
-7.26449e-05
0.000271053
7.65582e-06
-6.62768e-05
0.000263634
1.00688e-05
-5.29975e-05
0.000255517
1.05263e-05
-4.52777e-05
0.000247884
1.02701e-05
-3.88619e-05
0.000240896
1.01724e-05
-3.19825e-05
0.000234068
1.01712e-05
-2.83949e-05
0.000227534
1.0252e-05
-2.06106e-05
0.000221151
9.11435e-06
-1.49677e-05
0.000215551
8.02182e-06
-8.51578e-06
0.000210447
7.63001e-06
-2.9582e-06
0.000205577
-4.64788e-06
-0.000197957
9.66844e-05
-2.77051e-06
-0.000189694
9.48509e-05
-1.37172e-06
-0.000180144
9.26478e-05
3.7645e-08
-0.000164088
9.01548e-05
1.85192e-06
-0.000150607
8.74029e-05
2.97955e-06
-0.000134968
8.46808e-05
3.99239e-06
-0.00011197
8.16612e-05
4.1907e-06
-9.56155e-05
7.87615e-05
4.0397e-06
-7.91128e-05
7.62197e-05
4.22537e-06
-6.42225e-05
7.3895e-05
4.19737e-06
-5.18853e-05