/*--------------------------------*- C++ -*----------------------------------*\
  =========                 |
  \\      /  F ield         | OpenFOAM: The Open Source CFD Toolbox
   \\    /   O peration     | Website:  https://openfoam.org
    \\  /    A nd           | Version:  7
     \\/     M anipulation  |
\*---------------------------------------------------------------------------*/
FoamFile
{
    version     2.0;
    format      ascii;
    class       volScalarField;
    location    "2.5";
    object      nut;
}
// * * * * * * * * * * * * * * * * * * * * * * * * * * * * * * * * * * * * * //

dimensions      [0 2 -1 0 0 0 0];

internalField   nonuniform List<scalar> 
18720
(
0.000252428
0.000671813
0.000291973
0.000270522
0.000414393
0.000803995
0.000634236
0.000728733
0.000336784
0.000463075
0.00030613
0.000349966
0.000570163
0.000768029
0.000840303
0.000779531
0.000983773
0.000369112
0.000764783
0.000373806
0.000540519
0.000608015
0.000316055
0.000373784
0.000543901
0.000329142
0.000701515
0.000707697
0.000667819
0.00105338
0.00108148
0.000772975
0.00160089
0.000438865
0.000266088
0.000812185
0.000359466
0.000601638
0.000918432
0.000308023
0.000334726
0.000421185
0.00046725
0.000270408
0.000239559
0.000766917
0.000841218
0.00100573
0.000868145
0.00107366
0.000655632
0.000974703
0.00155246
0.000651523
0.00085623
0.00114523
0.0006394
0.000889202
0.000720178
0.0008518
0.000467525
0.000393086
0.000727982
0.00142495
0.000250326
0.000330965
0.00040811
0.000368022
0.0001688
0.000117824
0.000232426
0.000688998
0.00106835
0.000933194
0.00139323
0.000617521
0.00113366
0.00129457
0.000725195
0.00148912
0.000833355
0.000736807
0.00162005
0.000967121
0.00063878
0.000838629
0.00108808
0.00103895
0.000931244
0.000874133
0.000885598
0.000886407
0.000729199
0.000628761
0.00121779
0.00121327
0.000496161
0.000270368
0.000317762
0.0003501
0.000252841
0.000392773
0.000176119
0.00036664
0.000638053
0.00039332
0.000873288
0.000672439
0.000716839
0.00151246
0.000940938
0.00125119
0.000989516
0.000605633
0.00111741
0.00137005
0.00079194
0.00159283
0.000953565
0.000724024
0.000638041
0.00175396
0.00103872
0.000830902
0.000826082
0.000953919
0.00113069
0.00112902
0.00116135
0.00141861
0.000496756
0.000207765
0.000822914
0.000820279
0.000645495
0.00132425
0.000782028
0.00054701
0.000339451
0.0008088
0.000290017
0.000300842
0.000213784
0.000442172
0.000459692
0.00030329
0.000317906
0.000595712
0.000808293
0.000415595
0.000235556
0.000589552
0.0011892
0.000634488
0.00069052
0.00141725
0.000748542
0.00112179
0.00150205
0.00125742
0.000903253
0.00124131
0.000736931
0.00069156
0.000817707
0.00152312
0.0011019
0.000833862
0.000535553
0.000631673
0.00149809
0.00135028
0.000554306
0.00105366
0.000213627
0.000776155
0.000932451
0.00117788
0.0012746
0.00165652
0.000708143
0.000608056
0.000289055
0.000694357
0.000894785
0.000662752
0.00110582
0.00149594
0.00109729
0.000464932
0.000371446
0.000626731
0.000256109
0.000314532
0.000174611
0.000284987
0.000366543
0.000225745
0.000284392
0.000212885
0.000227802
0.000679672
0.000332152
0.000848715
0.000356361
0.000399939
0.000801585
0.000430279
0.000478538
0.00176075
0.000659517
0.000658484
0.00146004
0.00129734
0.000606809
0.00130766
0.00152773
0.00134911
0.00125418
0.00166641
0.00119376
0.000712737
0.00073865
0.000763727
0.00169559
0.00126073
0.00109892
0.00149257
0.000624968
0.000612862
0.00130904
0.0019698
0.000761324
0.000977644
0.000236822
0.000425549
0.000635967
0.000840113
0.00101424
0.00124262
0.00152984
0.0005983
0.000479314
0.000387444
0.000379576
0.000584459
0.000813729
0.000709691
0.001
0.00109484
0.00162592
0.000454172
0.000317332
0.00018118
0.000260787
0.000239721
0.000266139
0.000128561
0.000296443
0.000244454
0.000229973
0.000359157
0.000532723
0.000234072
0.000337493
0.000287676
0.000368554
0.000538407
0.000392727
0.000564191
0.000339019
0.00042882
0.000475836
0.000494992
0.000190141
0.000363956
0.00061359
0.000676483
0.00145998
0.000692743
0.000559005
0.000959712
0.00134645
0.00146219
0.00115369
0.00123544
0.00126695
0.00141675
0.00164065
0.00220553
0.00129759
0.00239844
0.000750739
0.00067915
0.000862266
0.00128458
0.00145113
0.000920822
0.00103675
0.000631812
0.000571131
0.000533598
0.00108867
0.00147174
0.00136771
0.000849496
0.000787124
0.000670813
0.00034422
0.000565281
0.000683613
0.000944723
0.00114852
0.00116396
0.000511715
0.000600481
0.000490019
0.000308663
0.000422056
0.000506317
0.000720833
0.000628353
0.000861378
0.000778171
0.00121865
0.000496361
0.000229154
0.000254995
0.00017615
0.000202034
0.000219051
0.000255007
0.000266971
0.000237969
0.000178932
0.00023994
0.000317564
0.000880353
0.000304074
0.0002932
8.762e-05
0.000296417
0.000230047
0.000823746
0.000294782
0.000363765
0.000511751
0.000424464
0.000405441
0.00034629
0.000586919
0.000501498
0.000230245
0.000241147
0.000902671
0.000278755
0.000666499
0.000370679
0.000569193
0.000535897
0.00161816
0.000432504
0.000505628
0.000774155
0.001571
0.00183761
0.00189867
0.00098126
0.00117947
0.0010777
0.00158074
0.00150527
0.0013704
0.00186007
0.00066483
0.00112511
0.000653279
0.00054741
0.000988062
0.000619425
0.00183521
0.000887487
0.00122407
0.00114522
0.000544768
0.000360662
0.000540393
0.000703068
0.00150044
0.0011304
0.00111297
0.000741106
0.000740525
0.00038951
0.000297572
0.000509219
0.000529639
0.00076979
0.000987539
0.00127683
0.000921639
0.000758533
0.000585473
0.000375256
0.000328527
0.000158723
0.000430763
0.000646259
0.000528124
0.000750829
0.000724079
0.000936802
0.000711871
0.000205224
0.000330784
9.32333e-05
0.00018786
0.000118114
0.000201275
0.000223016
7.46698e-05
0.000207558
0.000273038
0.000181232
0.000311851
0.000829201
0.000287431
0.000190559
0.000166193
0.000279569
0.000426764
0.000403029
0.000426651
0.000273916
0.000331121
0.000259487
0.000227627
0.000417396
0.000442639
0.000538565
0.000347868
0.000473563
0.000359558
0.000217605
0.000386644
0.00084691
0.000472818
0.000295869
0.000484672
0.000966089
0.000701566
0.000609675
0.00082593
0.000522405
0.00119083
0.00136957
0.00123737
0.00083217
0.000815762
0.000600352
0.0011564
0.00256014
0.00206448
0.0011865
0.000558438
0.000923162
0.0011982
0.00135329
0.00145414
0.00159284
0.00054236
0.00065657
0.000582022
0.000824847
0.000737752
0.000760783
0.000998711
0.00113696
0.00142614
0.00114054
0.00109705
0.00132184
0.000952839
0.000328203
0.000449897
0.000570654
0.000677094
0.00101894
0.0011049
0.00102103
0.00100124
0.000753286
0.000514755
0.000573427
0.000279995
0.000435269
0.000484729
0.000542762
0.000797865
0.000939936
0.00131298
0.00182819
0.000348081
0.000349135
0.000339252
0.000367664
0.000160457
0.000387834
0.000571338
0.000441391
0.000581041
0.000600934
0.00143043
0.0011659
0.000399508
0.000330851
0.000337553
0.000180502
0.000134514
0.000206856
0.000185455
0.000162841
0.000147355
0.000224951
0.000243398
2.37973e-05
0.000215048
0.00064078
0.00031139
0.00013636
0.000254955
0.000274149
0.000214205
0.000351197
0.000435447
0.000460334
0.00027063
0.000218855
0.000344787
0.000358933
0.000564057
0.00057658
0.000483618
0.000394738
0.000447869
0.000391548
0.000287578
0.000460251
0.000432928
0.000440909
0.000308289
0.000193377
0.000593515
0.000628718
0.000649324
0.000343976
0.000368424
0.000719847
0.000951086
0.00119192
0.000579862
0.000184658
0.000343129
0.000686275
0.00105905
0.00110886
0.00166447
0.000887075
0.00109849
0.0007883
0.000552545
0.0010574
0.00116213
0.00132701
0.00113276
0.000921243
0.00102008
0.0011229
0.0010147
0.0013462
0.00172833
0.00116578
0.00224556
0.000846609
0.000457463
0.000577237
0.000722766
0.000628017
0.000778966
0.00111993
0.000864131
0.00100177
0.00127673
0.00106441
0.00170564
0.000867793
0.000604457
0.000568603
0.000487278
0.000444358
0.000647231
0.000730597
0.000945567
0.00101299
0.000940425
0.000912084
0.000580038
0.000605002
0.000430918
0.000346634
0.000445701
0.000397715
0.000450883
0.000506023
0.000971493
0.00128262
0.00204159
0.000135583
0.000343565
0.000235911
0.000446358
0.00023629
0.000161705
0.000347378
0.000511082
0.000350582
0.00049444
0.000487559
0.0013823
0.00133603
0.000634083
0.000359039
0.00065864
0.000178197
0.000157255
0.000283943
6.90236e-05
0.000165708
0.000201055
0.000335098
0.000156163
0.000272996
0.000137402
0.000125381
0.000354637
0.000361481
0.000157947
0.000119793
0.000322688
0.00014512
0.000222986
0.00031703
0.000331523
0.000557019
0.000538115
0.000426136
0.000456774
0.000357763
0.000231215
0.000447999
0.000254338
0.000355846
0.0003526
0.000483535
0.000339291
0.000420562
0.000409179
0.000503362
0.000332303
0.000282054
0.000227282
0.000705114
0.000598826
0.000521836
0.00042828
0.000265718
0.000627188
0.000958894
0.00047479
0.000106839
0.000689248
0.00040734
0.000224782
0.00156824
0.000957553
0.00132446
0.000608633
0.000515553
0.000493909
0.000408836
0.000610609
0.00279673
0.000805856
0.00122826
0.000399677
0.000610768
0.00071952
0.000747885
0.000933374
0.00137475
0.00292248
0.00140185
0.000897909
0.000997873
0.00113154
0.00116874
0.0010395
0.00121656
0.00121375
0.0011556
0.00143131
0.00101589
0.000951937
0.00136849
0.000732679
0.000784825
0.000563825
0.000808178
0.00113772
0.00061275
0.00091904
0.00139336
0.000930745
0.00110955
0.00103775
0.000517058
0.00104265
0.000413736
0.000541326
0.000387749
0.000646268
0.000654267
0.000951062
0.00114289
0.00142096
0.000921166
0.000514256
0.000663755
0.000399868
0.00045387
0.000226435
0.000512105
0.00035063
0.000408526
0.000368245
0.000672869
0.00133167
0.00102472
0.000800779
0.000337634
0.000295792
0.000427961
0.000277349
0.000253185
0.000269695
0.000337705
0.000443804
0.000288137
0.000323054
0.000561624
0.00125893
0.00132576
0.00103518
0.000359062
0.000325649
0.000304024
0.00014852
0.000387352
0.000360586
0.000163557
0.000142493
0.000167651
0.000225138
0.000130416
0.000216013
0.000208924
0.000163361
0.000262542
0.000522285
0.000106899
0.000164547
0.000288824
0.000229932
0.000211805
0.000330567
0.000366433
0.000421318
0.000431364
0.00028681
0.000292945
0.000542785
0.000277379
0.000296237
0.000325507
0.000425398
0.000546289
0.000639601
0.000555106
0.000485925
0.000250252
0.000319519
0.000272509
0.00027824
0.000332627
0.000243806
0.000644276
0.000200077
0.000513197
0.000429302
0.000358129
0.000438646
0.000448068
0.000473865
0.000454816
0.000435093
0.00040001
0.00031746
0.000674894
0.000806043
0.00157131
0.000316657
0.000641764
0.000505259
0.000546831
0.000132567
0.000706988
0.0010363
0.00139378
0.00123817
0.000557082
0.000587538
0.000400627
0.00047676
0.000450841
0.000545971
0.00175933
0.00109269
0.000520758
0.000877201
0.000687189
0.000946908
0.000785212
0.000806338
0.00126751
0.00148238
0.00209429
0.00115806
0.00114056
0.000609636
0.00077762
0.00123563
0.0012129
0.000966666
0.00160249
0.00106919
0.00143699
0.00126894
0.00129342
0.000632838
0.0011275
0.00114222
0.000134859
0.00094072
0.00108957
0.00111426
0.000937689
0.000861301
0.00162227
0.00123787
0.000755079
0.00190636
0.00125899
0.00133726
0.000347884
0.000343487
0.000552421
0.000502263
0.00072275
0.000452305
0.000748193
0.00131941
0.00135765
0.000226132
0.000354254
0.000609301
0.000578149
0.000651885
0.000589089
0.000268987
0.000454425
0.000274632
0.000327658
0.000368591
0.000444733
0.00114291
0.00154651
0.00198832
0.000267695
0.00028844
0.000440449
0.000372296
0.00026233
0.000266205
0.000341384
0.000279893
0.000362753
0.000333153
0.000326573
0.000449141
0.000808222
0.00108656
0.00140267
0.00050154
0.00057978
0.000283981
0.000186024
0.000286003
0.000423598
0.000443989
0.000333115
0.000134971
0.000142192
0.000286278
0.00028882
0.000110726
0.000139085
0.000174183
0.000278267
0.000738487
0.000139139
0.000527763
0.000320699
0.000229012
0.000227832
0.000378177
0.000455996
0.000463023
0.000492921
0.000560416
0.000468896
0.000337183
0.000393621
0.000415119
0.000318656
0.00041124
0.000557086
0.000335116
0.000303736
0.000422514
0.00041217
0.000413185
0.000340923
0.000428786
0.000453298
0.000401264
0.00042364
0.000585362
0.000255301
0.000282143
0.00042397
0.000311954
0.000513833
0.00041187
0.000431605
0.000319037
0.000473198
0.000501149
0.000547969
0.000404141
0.000472756
0.000805982
0.000332187
0.000439269
0.000518801
0.000432988
0.000200112
0.000176642
0.000894401
0.000768187
0.00123055
0.000532756
0.000488194
0.0005834
0.000726517
0.000500275
0.00067173
0.000823093
0.000793016
0.0017722
0.000566064
0.000602736
0.00040168
0.000493744
0.000632116
0.000592867
0.000704834
0.00121644
0.00152259
0.000976262
0.000764156
0.00129943
0.000806386
0.00100931
0.000773146
0.000672515
0.000733414
0.00121495
0.00171203
0.00130897
0.000799639
0.00109979
0.000955351
0.00118682
0.00123256
0.00125916
0.000928787
0.00136947
0.00121489
0.00114078
0.00180496
0.000608523
0.00182249
0.00110693
0.000624885
0.00110847
0.000250856
0.00104398
0.00113068
0.00104007
0.000751992
0.000924524
0.00146373
0.0013172
0.00133986
0.00196664
0.0018967
0.00075804
0.00135508
0.000813883
0.000284237
0.000517325
0.000568672
0.000662944
0.000428248
0.000896288
0.00135218
0.00154805
0.000386733
0.000682009
0.000674257
0.000695391
0.000492079
0.000606934
0.000580269
0.000253504
0.0004161
0.000285064
0.000316352
0.000364094
0.000556426
0.000987021
0.00164591
0.00221076
0.00080016
0.000901709
0.00109272
0.000366026
0.000355151
0.000663929
0.000526498
0.000350899
0.000265981
0.00028917
0.000379898
0.000233521
0.000321536
0.000674232
0.00105205
0.001254
0.000847626
0.00100369
0.000461297
0.000199511
0.000291909
0.000402247
0.000587407
0.0003709
0.000393238
0.000122236
0.000121613
0.000215678
0.000228847
9.3762e-05
0.000316226
8.71363e-05
0.000377294
0.000801447
0.000225845
0.000412521
0.000269529
0.000272985
0.000257228
0.000336513
0.000279607
0.00014424
0.000287853
0.00048675
0.000502941
0.000450352
0.000655246
0.00057383
0.000477263
0.000417016
0.000254187
0.000436748
0.000302723
0.000371097
0.00034857
0.000253211
0.000402555
0.000429352
0.000522808
0.000526149
0.000555096
0.000536644
0.000399131
0.000328147
0.000262856
0.000188399
0.000217499
0.000728278
0.000560163
0.000440587
0.000254872
0.000483303
0.000374558
0.000554125
0.000319292
0.000455196
0.000638187
0.000270075
0.000384273
0.000511713
0.000404655
0.000524646
0.000447533
0.000557867
0.000836081
0.000858094
0.000564933
0.000613375
0.000393249
0.000457365
0.000370107
0.000291311
0.000376445
0.000712498
0.0012813
0.00150305
0.000386881
0.00029328
0.000503247
0.000512044
0.000407074
0.000362132
0.000770222
0.00120544
0.00125883
0.00113153
0.000762546
0.000371164
0.000355442
0.000245641
0.000369786
0.000481823
0.00112501
0.00133823
0.00168827
0.00103064
0.00085915
0.000749425
0.0012157
0.000844553
0.000805715
0.000750789
0.000589204
0.000753442
0.00102513
0.000938008
0.00101816
0.00102311
0.00136652
0.000781116
0.000852257
0.000673375
0.00132478
0.00107728
0.000886284
0.00122852
0.00130543
0.000819933
0.00115404
0.00100749
0.000706893
0.00122683
0.00108116
0.00114259
0.000864142
0.00071882
0.000814112
0.0010089
0.00104481
0.00108197
0.00112275
0.000946463
0.00138855
0.00103301
0.000993911
0.00169373
0.00144443
0.00135075
0.00121798
0.00077947
0.000828303
0.000497289
0.000584526
0.000655451
0.000393502
0.000817367
0.00106397
0.00145853
0.00140062
0.000680868
0.000611494
0.000414741
0.000520672
0.000334521
0.0007809
0.00101614
0.000175278
0.000363448
0.000287691
0.000317997
0.000245797
0.000628876
0.000840312
0.00262365
0.000764036
0.00117743
0.00144281
0.00149192
0.000748819
0.000561927
0.000716592
0.000519313
0.000675558
0.000606035
0.00029165
0.00023595
0.000247494
0.000298932
0.000393888
0.000755772
0.000818212
0.0011685
0.00106334
0.00114154
0.000591737
0.000227588
0.000334932
0.000352401
0.000871975
0.000439996
0.000313382
0.000226498
0.000104951
0.000109517
0.000117908
0.000226637
0.000116441
0.000643387
8.06898e-05
0.000272068
0.000699133
0.000306255
8.498e-05
0.00031956
0.000258522
0.000254723
0.000368781
0.000212393
0.000371017
0.00010728
0.000256782
0.000196134
0.000300944
0.0003426
0.000474518
0.000506958
0.000509653
0.000430014
0.000416291
0.000486213
0.000373975
0.000357926
0.000277414
0.000305255
0.000401828
0.000364505
0.000341582
0.000430703
0.000467036
0.000275206
0.00051474
0.000322754
0.000484285
0.000314247
0.000520276
0.000521421
0.000708562
0.00054747
0.000411303
0.000246991
0.000418088
0.000401695
0.000279536
0.00051125
0.000434175
0.000215039
0.000217442
0.000401392
0.000320614
0.000420405
0.000548108
0.000518118
0.000502782
0.000737719
0.00029021
0.000389303
0.00057657
0.000422472
0.000286505
0.000478338
0.000537484
0.00118694
0.000576263
0.000881363
0.000544523
0.000301399
0.000323989
0.00035798
0.000334892
0.00069436
0.000748404
0.000948142
0.00133489
0.00126535
0.00129824
0.000334174
0.000440415
0.000603163
0.000397142
0.000369882
0.000565456
0.00112897
0.00114205
0.00106991
0.00077962
0.000921028
0.00107145
0.000676851
0.000233349
0.000414445
0.000402323
0.000531027
0.000490442
0.000589691
0.00131833
0.00140816
0.00121976
0.000948995
0.000733203
0.000754136
0.000926736
0.000725817
0.000746086
0.000740762
0.000764218
0.000919656
0.00102006
0.000910615
0.000908417
0.000835682
0.00107754
0.00093221
0.000694622
0.00103382
0.001152
0.00111459
0.000698024
0.0010675
0.00110059
0.000710111
0.00135623
0.00194352
0.000400865
0.0011707
0.00142462
0.00108069
0.000543204
0.000699574
0.000592299
0.000930399
0.00102811
0.00106057
0.0011798
0.00108577
0.00113767
0.00149148
0.0017505
0.000825507
0.0010781
0.000936632
0.000636034
0.00144667
0.000783526
0.000576326
0.000618681
0.000461294
0.00060161
0.00066485
0.000470443
0.000628575
0.000907697
0.000988433
0.00149683
0.000875034
0.00128858
0.000937084
0.000870305
0.00121431
0.00104249
0.000545221
0.000662665
0.000279807
0.000288594
0.000243511
0.00031045
0.000245588
0.000471688
0.000661408
0.00180746
0.00204509
0.00148316
0.00111891
0.00135814
0.0012073
0.000831127
0.000427297
0.000493228
0.000995434
0.00025475
0.000639122
0.00022791
0.000223136
0.000262967
0.000395552
0.000447817
0.000395294
0.000513549
0.00100929
0.00142276
0.000914807
0.000729431
0.00035526
0.000244617
0.000529476
0.000884066
0.000662908
0.000401319
0.000354044
0.000162871
0.000100141
0.000119645
0.000294052
0.000394243
6.7253e-05
0.000266303
8.975e-05
0.000170871
0.000582339
0.000548566
0.000145404
0.000359418
0.000250052
0.000282518
0.000236958
0.000160898
0.000280802
0.000177809
0.000170353
0.000339416
0.00026709
0.000442727
0.00042719
0.000381761
0.000279893
0.000342637
0.000223124
0.000550519
0.000440742
0.000399667
0.00041943
0.000322527
0.000483689
0.000476213
0.000499741
0.000477148
0.00067645
0.000852672
0.000347894
0.000288285
0.000300603
0.000369847
0.000265744
0.000352185
0.000518393
0.00040522
0.000347736
0.000422954
0.000338312
0.000344387
0.000453181
0.000504728
0.000701683
0.000891488
0.000374522
0.000446543
0.000298808
0.000303078
0.000463276
0.000586466
0.000305765
0.000497961
0.000445632
0.000423611
0.000242078
0.000393757
0.000392812
0.000441659
0.000533202
0.000417415
0.000775182
0.000426635
0.000316125
0.000490953
0.000421858
0.00027445
0.000321925
0.00025801
0.000441049
0.000516318
0.0010174
0.00109617
0.000489655
0.000920013
0.000500117
0.000332802
0.000213764
0.000323174
0.000353046
0.000531988
0.000475439
0.000623212
0.000984387
0.00112529
0.000916566
0.0010762
0.000548547
0.000586246
0.000364889
0.000402445
0.000374212
0.000248202
0.000313736
0.00103732
0.000972654
0.000877302
0.000794208
0.000687447
0.000634391
0.000708602
0.000570454
0.000494005
0.000332566
0.000376269
0.000877403
0.000717136
0.00172211
0.00185861
0.00112646
0.000763779
0.00120243
0.00100662
0.000891007
0.000723005
0.000788254
0.000776777
0.000858799
0.000518401
0.00104918
0.000587327
0.00122689
0.000659705
0.00110702
0.00118584
0.000720839
0.00132767
0.000692159
0.00116298
0.000944313
0.00114013
0.000901229
0.00101826
0.00127661
0.00121909
0.000714145
0.00130096
0.000482644
0.00049018
0.00105189
0.00119925
0.001075
0.000595035
0.00048309
0.00101975
0.000816267
0.0010249
0.00111906
0.00100902
0.00104434
0.000634829
0.00127852
0.00174369
0.000888411
0.000928498
0.000679508
0.00118841
0.000514818
0.000448936
0.00044777
0.000428467
0.000712704
0.00046634
0.000637042
0.000698276
0.000532094
0.000793966
0.000889242
0.00100415
0.00124114
0.00069816
0.00106145
0.00133946
0.00102204
0.00103379
0.00096143
0.000786691
0.000681942
0.000476289
0.000239689
0.000277867
0.000255369
0.00029411
0.000375743
0.000425812
0.00101643
0.00134964
0.00160503
0.00177387
0.000484559
0.000916102
0.0011527
0.000966739
0.000240057
0.000600853
0.000200191
0.000321659
0.000382072
0.000280359
0.000215425
0.000224233
0.000296703
0.000277097
0.000422871
0.000298768
0.000489467
0.000576305
0.00139223
0.000864866
0.000703911
0.000435607
0.000285124
0.000980761
0.000852411
0.000684334
0.000801887
0.00028163
0.000216358
0.000264081
9.70627e-05
7.89312e-05
0.000461446
0.000420576
0.000164959
7.99688e-05
0.000121152
0.000178258
0.000705866
0.00070115
0.00022767
0.000355558
0.000236389
0.000372169
0.000160494
0.000213913
0.000163807
0.000199005
0.000107802
0.00031587
0.000375975
0.000326745
0.000427241
0.000250619
0.000310496
0.000417807
0.000399789
0.000282199
0.000349927
0.000258758
0.000341878
0.000268698
0.000370023
0.000972121
0.00042884
0.000366986
0.000358105
0.000430178
0.000341023
0.000250465
0.000387228
0.000498197
0.000503015
0.000562287
0.000410611
0.000402439
0.000195364
0.000355589
0.000324188
0.000331837
0.000347762
0.000389502
0.000389087
0.000594868
0.000501549
0.00031416
0.000389324
0.000314632
0.000358108
0.000398578
0.000228091
0.000329648
0.000314978
0.000364124
0.000438643
0.000381124
0.000349607
0.000243067
0.000183255
0.0004237
0.000940504
0.00076644
0.000786558
0.000454218
0.000377717
0.000373027
0.00032145
0.00044369
0.000392806
0.000451899
0.000650052
0.000569053
0.000467255
0.000542589
0.000466724
0.000271773
0.000523821
0.000344
0.000299288
0.000472973
0.000369604
0.000412004
0.000996488
0.00109826
0.000806997
0.000772431
0.00101229
0.00052168
0.000502615
0.000234653
0.000153454
0.000282373
0.000486999
0.000397679
0.00206939
0.000570972
0.00101337
0.000897021
0.000921866
0.00077748
0.00047057
0.000331761
0.000296004
0.000461486
0.000296741
0.000634226
0.000866719
0.00193167
0.000887393
0.00100511
0.000668037
0.00102212
0.00119469
0.00133116
0.000478571
0.000654898
0.000528989
0.000409481
0.000403299
0.000593595
0.000800259
0.0010996
0.00154375
0.000729638
0.000908377
0.00113395
0.000667002
0.000970261
0.000952377
0.000482236
0.000669516
0.000717949
0.00050402
0.000433777
0.00075644
0.000529053
0.000377914
0.00107867
0.00110305
0.0011704
0.00122174
0.00112332
0.000917506
0.00072735
0.00046466
0.000742934
0.00106268
0.00088112
0.000906859
0.00102222
0.00101106
0.00113189
0.00205332
0.000933803
0.000404715
0.000756956
0.000991164
0.00166165
0.00111774
0.000585686
0.000541552
0.000739963
0.000811711
0.00103169
0.00114314
0.0010086
0.000919809
0.000724916
0.0011595
0.000941372
0.0011271
0.000484074
0.000652994
0.00104806
0.000846917
0.00122816
0.000618979
0.000512854
0.000656529
0.00047499
0.000501226
0.000595759
0.000778494
0.000534075
0.000747085
0.000800437
0.00112029
0.00147477
0.00120606
0.00101458
0.00108234
0.000924549
0.000688118
0.000921422
0.000319086
0.000566006
0.000674712
0.000487444
0.000387628
0.000248862
0.000253235
0.000290341
0.000484588
0.000538181
0.00113668
0.00113568
0.00149174
0.0010239
0.000592462
0.000612943
0.000940581
0.000688929
0.000284686
0.000272138
0.000515584
0.000333151
0.000482658
0.000319521
0.000189643
0.000255964
0.000281888
0.00025332
0.000385921
0.000309755
0.00059183
0.000539855
0.000691213
0.00135192
0.000369417
0.000567533
0.000517644
0.000411033
0.000723488
0.000947094
0.00068427
0.000690306
0.000499727
0.0002289
9.63148e-05
0.000222872
9.69178e-05
7.68583e-05
0.000251796
0.00026669
0.000165918
0.000102976
0.000275087
0.000102702
0.000717527
0.000674704
0.000221946
0.000143058
0.000230394
0.000447986
0.000297858
0.000330795
0.000249223
0.000183153
0.00020278
0.000410859
0.000277122
0.000667787
0.000411411
0.00045968
0.000419628
0.00029696
0.000343339
0.000447906
0.000247016
0.000343381
0.000320103
0.000374167
0.000334744
0.000358516
0.00058351
0.000355372
0.000339799
0.000274395
0.000325263
0.00031377
0.000402814
0.000397998
0.000387029
0.000401165
0.000408198
0.000463025
0.000757892
0.000267773
0.00040209
0.000388045
0.000484239
0.000399605
0.000337447
0.000498323
0.000419175
0.000453553
0.000274661
0.000361001
0.00031673
0.000321465
0.000511066
0.00031889
0.000283289
0.000351837
0.000555842
0.000439357
0.000340417
0.000249355
0.000258194
0.000251634
0.000418072
0.000445468
0.000397386
0.000441268
0.000582309
0.000350263
0.000416051
0.000342018
0.000353157
0.000379657
0.000407326
0.000540518
0.000512491
0.00078636
0.000865056
0.000682264
0.000215612
0.000279521
0.000236345
0.000257733
0.000327806
0.00031259
0.000639622
0.00094237
0.00102696
0.000461149
0.000211765
0.000997866
0.000224454
0.00039711
0.000306731
0.000387065
0.000277982
0.000542231
0.00023138
0.000750187
0.000801747
0.000891838
0.000842448
0.00143652
0.000792368
0.00035112
0.000469839
0.000194941
0.000253407
0.000206739
0.000675377
0.000617869
0.00034687
0.000737571
0.0012362
0.00104202
0.000788432
0.00117152
0.00114087
0.000369445
0.000684727
0.000518187
0.000261402
0.000306319
0.000247255
0.000509939
0.00168085
0.00254142
0.00121869
0.000837944
0.00135611
0.00122483
0.00108806
0.00115135
0.000603124
0.000476563
0.000323985
0.000289355
0.000303254
0.000393987
0.000965326
0.000741615
0.00161968
0.00158392
0.000584095
0.000634013
0.00101075
0.00112185
0.00110332
0.000780457
0.000381466
0.00072449
0.000743288
0.000747177
0.000408326
0.000800878
0.000788803
0.00117126
0.00114365
0.000995843
0.00111703
0.00134722
0.000773051
0.000935296
0.000449379
0.0010443
0.000717944
0.000602049
0.000828109
0.00067151
0.000721
0.000929687
0.00104069
0.000665763
0.00140081
0.000836097
0.000647249
0.000699527
0.000955047
0.000801307
0.00100782
0.000566666
0.000761519
0.000532064
0.000888648
0.000744065
0.000891712
0.000989558
0.000846857
0.000968647
0.000835066
0.000697625
0.00147695
0.00140895
0.00106439
0.000406457
0.0012357
0.000881
0.00103814
0.000574589
0.000537883
0.000427903
0.000448669
0.000436478
0.000505949
0.000469837
0.000832383
0.000538194
0.000704859
0.000553185
0.000766537
0.00146726
0.00184299
0.0011805
0.00093173
0.00114263
0.00087019
0.000248613
0.00077042
0.000483371
0.000573509
0.000448134
0.000232656
0.000330901
0.000256192
0.000303897
0.000316747
0.000285551
0.000390498
0.000546154
0.00087549
0.00270146
0.00189832
0.00129274
0.00174439
0.000837461
0.000815948
0.000375041
0.000346277
0.000543482
0.000786353
0.000327394
0.000723741
0.000208175
0.000252183
0.000271419
0.00030213
0.000230317
0.000365758
0.000325931
0.000506443
0.000453924
0.000517305
0.0011687
0.000793031
0.000323672
0.000522033
0.000512548
0.000780852
0.000990283
0.00064838
0.000305333
0.000505081
0.000359512
0.000218178
0.000587879
0.000272118
9.90179e-05
5.56871e-05
0.000196645
0.000154481
5.4478e-05
0.000207081
0.000126406
0.000105297
0.000639609
0.000279673
0.000272183
0.000455145
0.000246894
0.000279063
0.000170743
0.00028478
0.000284968
0.000269166
0.000239278
0.000360284
0.000274607
8.45132e-05
0.0010904
0.000666791
0.000664325
0.000597726
0.00050761
0.000412506
0.000414714
0.000581365
0.000560268
0.000344746
0.000419059
0.000441061
0.000546863
0.000571147
0.000343285
0.000382415
0.000201206
0.000299198
0.000343422
0.000486148
0.000270879
0.000360941
0.0004484
0.000455269
0.000263238
0.000365856
0.000253819
0.000408721
0.000267014
0.000381344
0.000192475
0.000655563
0.000700903
0.000276409
0.000561261
0.000349523
0.000505075
0.000385413
0.000426568
0.000476203
0.000371823
0.000638451
0.000627735
0.000524884
0.000374406
0.000272502
0.000226528
0.00021145
0.000108056
0.000596853
0.000342025
0.000304594
0.00028049
0.000590141
0.00048364
0.000351099
0.000290003
0.000410579
0.000304854
0.000227974
0.000232722
0.00119289
0.000439586
0.000508092
0.000846222
0.000295583
0.00043331
0.000326522
0.000310218
0.000306927
0.000410142
0.000380939
0.000658612
0.000423359
0.00114502
0.000582851
0.000843755
0.000251414
0.000340505
0.000131916
0.00017648
0.000531029
0.000612095
0.000734361
0.000580471
0.00106059
0.000764351
0.000656024
0.000795483
0.00134125
0.000446611
0.000338517
0.00022273
0.000245875
0.000306557
0.000531603
0.000348506
0.000350766
0.000728395
0.000809421
0.000633805
0.000929185
0.00109886
0.00100837
0.000462647
0.000371675
0.00028278
0.00021468
0.000185643
0.000275093
0.000354735
0.00151779
0.00103778
0.000903408
0.000589827
0.00108005
0.00165713
0.00168446
0.00174214
0.000681005
0.000567183
0.000339954
0.000377412
0.00034341
0.000503616
0.000489719
0.00106137
0.00057904
0.00174055
0.000936789
0.00110628
0.000699934
0.0013108
0.000782169
0.00101313
0.000577925
0.000426416
0.000488847
0.000378425
0.00025405
0.000432158
0.000456848
0.00149901
0.00122864
0.00135498
0.000863944
0.000862124
0.00114709
0.000807496
0.000849817
0.00100447
0.00117634
0.00032958
0.000598752
0.000636973
0.000690964
0.000462903
0.000548428
0.000693938
0.00121904
0.000500869
0.000606417
0.000971673
0.000855104
0.00109
0.000793386
0.000684619
0.00113638
0.00111334
0.000870449
0.000550659
0.000762352
0.000724954
0.00098013
0.000905753
0.00091965
0.0007256
0.00110934
0.000894113
0.000877923
0.000603856
0.000753697
0.000944454
0.00063478
0.000808665
0.000649874
0.000699823
0.000639182
0.000430439
0.00062786
0.000860986
0.000900146
0.00071904
0.00107671
0.000881449
0.000745139
0.00120751
0.00137484
0.00120747
0.000831055
0.000792355
0.000721506
0.00048608
0.00102119
0.000700597
0.000885659
0.000544802
0.000745104
0.000246544
0.000461911
0.000400103
0.000744215
0.000518324
0.000792142
0.000810146
0.000685511
0.00108565
0.00116459
0.0010613
0.000793127
0.000939579
0.000621484
0.000526501
0.000599421
0.000409941
0.000577602
0.000469891
0.000161794
0.000454736
0.000418618
0.000253967
0.000293476
0.000313029
0.000376523
0.000396608
0.000641941
0.000738594
0.001782
0.00257571
0.00146419
0.00201992
0.00182915
0.000798443
0.000160084
0.000144838
0.000192356
0.000628052
0.000497835
0.00031779
0.000506582
0.00065854
0.000244043
0.000153067
0.000310899
0.000200464