/*--------------------------------*- C++ -*----------------------------------*\
  =========                 |
  \\      /  F ield         | OpenFOAM: The Open Source CFD Toolbox
   \\    /   O peration     | Website:  https://openfoam.org
    \\  /    A nd           | Version:  7
     \\/     M anipulation  |
\*---------------------------------------------------------------------------*/
FoamFile
{
    version     2.0;
    format      ascii;
    class       volScalarField;
    location    "2.5";
    object      p;
}
// * * * * * * * * * * * * * * * * * * * * * * * * * * * * * * * * * * * * * //

dimensions      [0 2 -2 0 0 0 0];

internalField   nonuniform List<scalar> 
18720
(
-68.7964
-67.4045
-68.7848
-68.8123
-68.7933
-66.5819
-67.4094
-67.4207
-67.7272
-68.7849
-68.8322
-68.8128
-68.589
-66.1827
-66.5416
-66.6277
-66.5028
-67.7772
-67.46
-67.6992
-67.876
-68.5727
-68.8543
-68.8395
-68.6079
-67.5117
-65.8273
-66.0523
-66.3427
-65.3192
-66.7357
-66.7177
-66.1376
-66.7626
-67.9466
-67.5236
-67.6898
-67.947
-67.1925
-67.4917
-68.8742
-68.8735
-68.6289
-67.5493
-66.5405
-64.7103
-65.7109
-65.9939
-65.0765
-65.3352
-66.5056
-65.3555
-65.4504
-66.9567
-66.8305
-66.1897
-66.625
-67.0317
-67.2513
-67.6094
-67.6851
-67.9633
-67.0432
-66.1225
-66.5178
-68.8979
-68.9161
-68.6548
-67.5956
-66.5761
-66.0773
-64.0993
-64.5869
-64.7984
-64.2475
-65.1156
-66.1907
-65.1682
-64.4358
-65.544
-66.692
-65.4713
-65.2922
-66.4323
-67.2066
-66.9508
-66.2347
-66.5467
-66.7205
-66.2933
-66.2042
-67.7162
-67.703
-67.912
-66.9987
-66.0549
-66.2279
-66.0368
-68.9228
-68.9576
-68.685
-67.6727
-66.5849
-66.1233
-66.1095
-63.8727
-63.8365
-64.2763
-63.6792
-64.3003
-64.8382
-64.1805
-63.9602
-64.5812
-66.3761
-65.279
-64.2642
-64.5233
-66.9426
-66.8506
-65.6224
-65.1754
-66.1785
-66.5757
-66.5617
-67.1086
-66.3358
-66.5609
-66.4347
-65.9835
-66.8978
-66.484
-67.8439
-67.7561
-67.9022
-66.991
-65.9133
-65.9544
-66.7352
-66.1011
-68.9486
-68.9966
-68.7163
-67.719
-66.5996
-66.1715
-66.1243
-66.415
-62.8977
-63.7354
-63.9088
-63.4213
-63.6256
-64.3602
-63.8643
-62.9773
-64.1764
-64.8154
-64.2163
-63.8369
-63.9957
-64.7603
-66.511
-65.4667
-64.2795
-64.2287
-65.5312
-67.1096
-66.987
-65.7931
-65.245
-65.7907
-66.1929
-67.5239
-67.1931
-67.3391
-66.5144
-66.6197
-66.3124
-65.7044
-66.571
-67.6573
-66.8905
-67.9853
-67.836
-67.9147
-66.9543
-65.735
-65.7379
-66.5513
-67.2916
-66.4457
-68.9751
-69.0401
-68.7471
-67.7479
-66.6482
-66.2033
-66.1324
-66.3977
-67.3934
-62.4982
-62.8712
-63.1499
-62.8381
-63.3283
-63.9094
-63.502
-63.0098
-62.9374
-64.645
-64.0775
-63.1501
-63.0731
-64.2724
-65.1383
-64.503
-63.8271
-63.6305
-64.1883
-65.9591
-66.6401
-65.605
-64.3216
-63.9051
-65.1269
-66.8764
-67.963
-67.1481
-65.9815
-65.412
-65.3968
-65.7949
-66.9631
-68.8175
-67.819
-67.5779
-66.7196
-66.703
-66.3095
-65.4601
-66.2646
-67.4626
-68.8224
-67.4019
-68.1325
-67.9313
-67.9398
-66.9462
-65.6045
-65.5797
-66.3483
-67.1754
-68.1388
-67.4123
-69.0051
-69.0859
-68.7735
-67.8089
-66.6645
-66.225
-66.1533
-66.3924
-67.368
-67.9203
-62.0701
-62.4911
-62.4382
-62.2511
-62.8003
-63.2105
-62.8071
-62.6153
-63.1099
-64.065
-63.5569
-63.1486
-62.8378
-62.9998
-64.9237
-64.1456
-63.1676
-62.7885
-63.564
-65.1999
-65.2034
-64.7551
-63.8342
-63.3622
-63.4336
-65.8685
-67.651
-66.7952
-65.7853
-64.3361
-63.9086
-64.4547
-66.1197
-68.9842
-69.0886
-67.3682
-66.2247
-65.5348
-65.2916
-65.488
-66.2796
-68.4217
-69.4706
-68.9494
-67.7506
-66.9615
-66.806
-66.3519
-65.2039
-65.9476
-67.1873
-68.6854
-69.8022
-68.229
-68.2806
-68.0321
-67.9755
-66.9538
-65.5374
-65.4409
-66.149
-67.0142
-68.0269
-69.1976
-67.9222
-69.044
-69.1144
-68.8024
-67.8853
-66.6453
-66.2392
-66.1775
-66.3834
-67.3333
-67.8941
-68.656
-61.5216
-62.074
-61.9407
-61.881
-62.3547
-62.4392
-62.2756
-62.1811
-62.8239
-63.1905
-62.7023
-62.5793
-62.5208
-62.8534
-63.9669
-63.6745
-63.1881
-62.9143
-63.024
-64.0321
-65.1313
-64.2791
-63.2395
-62.5601
-62.9268
-63.9325
-66.8111
-65.3089
-64.8492
-63.8336
-63.1559
-63.1269
-65.1119
-67.9834
-69.3811
-66.9316
-66.0226
-64.4755
-63.9004
-63.9786
-65.6382
-68.3122
-70.0034
-69.5982
-67.6123
-66.4747
-65.6645
-65.2555
-65.2971
-65.6579
-67.902
-69.3423
-70.399
-69.9039
-67.8859
-67.2234
-66.9243
-66.3585
-64.9749
-65.4301
-66.8683
-68.5416
-69.6811
-70.7976
-69.2934
-68.4268
-68.1322
-68.0147
-66.9836
-65.4878
-65.2645
-65.9125
-66.8176
-67.8836
-69.0713
-70.091
-68.6454
-69.0891
-69.1471
-68.8424
-67.9405
-66.6726
-66.2459
-66.1898
-66.3741
-67.2926
-67.9125
-68.6531
-69.3125
-61.1076
-61.5582
-61.4994
-61.4349
-61.9261
-62.0058
-61.8024
-61.7827
-62.2157
-62.5052
-62.241
-62.0839
-62.2408
-62.7038
-63.2693
-62.677
-62.488
-62.5004
-62.6677
-63.0983
-63.9747
-63.6369
-63.1236
-62.8494
-62.5963
-63.5641
-64.6515
-65.1609
-64.3928
-63.4073
-62.7324
-62.4053
-64.2742
-65.8682
-68.7455
-65.5411
-65.1109
-64.0091
-63.0356
-62.8721
-64.8978
-67.1605
-69.5793
-70.1998
-67.1346
-66.3135
-64.6896
-63.8575
-63.9421
-65.0883
-67.5302
-69.678
-71.1816
-70.4365
-67.8741
-66.6879
-65.8244
-65.2928
-65.0684
-65.3608
-67.219
-69.1555
-70.2831
-71.3186
-70.7797
-68.0252
-67.4542
-67.0251
-66.323
-64.9158
-64.8757
-66.6095
-68.3456
-69.5526
-70.7772
-71.4968
-70.0803
-68.5668
-68.2337
-68.053
-67.0356
-65.442
-65.1085
-65.6937
-66.6374
-67.738
-68.893
-70.0875
-70.9149
-69.2946
-69.1366
-69.2069
-68.8644
-68.0026
-66.7185
-66.2522
-66.1954
-66.3609
-67.2353
-67.922
-68.6226
-69.3214
-69.9963
-60.7663
-61.1389
-61.0918
-61.0909
-61.4734
-61.5383
-61.4768
-61.4675
-61.7885
-61.9189
-61.8622
-61.8525
-61.7601
-62.3146
-62.5278
-62.3715
-62.0185
-62.0425
-62.2371
-62.8179
-63.1883
-62.8147
-62.4897
-62.391
-62.4222
-62.7741
-63.8488
-64.2443
-63.8179
-63.2453
-62.7433
-62.3502
-63.1382
-63.9496
-66.4864
-65.4897
-64.5344
-63.5557
-62.8035
-62.514
-63.5681
-65.4283
-67.2536
-69.9324
-65.9033
-65.3468
-64.2466
-63.0803
-62.7185
-64.0831
-66.5007
-68.6569
-70.506
-71.2944
-67.3828
-66.5941
-64.9277
-63.9392
-63.819
-64.6093
-66.7893
-69.2514
-70.9665
-72.3727
-71.282
-68.1201
-66.9208
-66.0268
-65.3288
-64.9023
-65.0868
-66.3127
-68.7758
-70.1286
-71.3558
-71.9037
-71.433
-68.1673
-67.6498
-67.1166
-66.3516
-64.9329
-64.5532
-66.2009
-68.0891
-69.3969
-70.7234
-71.5386
-71.8667
-70.8483
-68.6995
-68.3398
-68.0875
-67.1068
-65.4038
-65.0189
-65.5166
-66.4919
-67.5872
-68.7454
-70.0582
-70.9763
-71.5072
-69.8976
-69.1853
-69.2543
-68.8641
-68.0803
-66.7336
-66.2784
-66.199
-66.3351
-67.1666
-67.8923
-68.6146
-69.3237
-70.0453
-70.7461
-60.4666
-60.7681
-60.7239
-60.7629
-61.0921
-61.1155
-61.112
-61.1018
-61.3437
-61.4866
-61.5525
-61.4045
-61.3886
-61.8464
-61.8957
-61.9111
-61.68
-61.6393
-61.7532
-62.3995
-62.6146
-62.3283
-61.9987
-62.0212
-62.0854
-62.4266
-63.3448
-63.3857
-62.8052
-62.4778
-62.31
-62.3581
-62.2828
-63.1968
-64.4918
-64.2622
-63.7764
-63.3601
-62.782
-62.4279
-62.5615
-64.124
-65.4877
-67.6802
-65.8894
-64.6141
-63.6733
-62.7936
-62.322
-62.5713
-64.7182
-66.7263
-68.11
-70.774
-66.3362
-65.5334
-64.3879
-63.2262
-62.7499
-63.7115
-65.9528
-67.583
-70.0959
-70.7514
-72.3264
-67.666
-66.8702
-65.1999
-64.0386
-63.7397
-64.1726
-66.0468
-68.6685
-70.6689
-72.2167
-72.272
-71.7612
-68.3468
-67.1883
-66.2486
-65.3917
-64.7961
-64.6513
-65.5969
-68.2402
-69.9871
-71.3774
-71.9964
-71.9726
-71.7174
-68.3456
-67.8051
-67.2245
-66.3829
-65.003
-64.2851
-65.5433
-67.7027
-69.2087
-70.6522
-71.5635
-72.0055
-72.4575
-71.4204
-68.832
-68.4525
-68.1004
-67.1762
-65.4129
-64.9551
-65.3793
-66.3309
-67.4204
-68.6786
-70.0128
-71.022
-71.5897
-71.7408
-70.7379
-69.2346
-69.2984
-68.8662
-68.1608
-66.7482
-66.3368
-66.201
-66.2997
-67.1008
-67.86
-68.6124
-69.3173
-70.0651
-70.7515
-71.2389
-60.2678
-60.5122
-60.483
-60.4848
-60.8567
-60.6926
-60.7867
-60.6894
-61.1348
-61.1044
-61.0982
-60.9117
-61.0424
-61.3771
-61.5489
-61.342
-61.3427
-61.2937
-61.3391
-61.8916
-61.9002
-61.8299
-61.6839
-61.5461
-61.6435
-61.8226
-62.7248
-62.668
-62.3566
-62.1278
-61.9001
-62.0017
-62.1263
-62.4845
-63.5635
-63.4748
-62.8074
-62.533
-62.1525
-62.2058
-62.2948
-62.9931
-63.8006
-65.8362
-64.4088
-63.8136
-63.299
-62.789
-62.4208
-63.1922
-63.5595
-64.794
-66.3795
-68.4789
-65.8922
-64.7579
-63.7765
-62.8956
-62.53
-62.6663
-63.9829
-66.0069
-67.6341
-68.3489
-71.0087
-66.6192
-65.754
-64.5497
-63.4141
-62.8361
-63.4354
-65.2995
-67.0711
-69.5771
-70.5391
-70.4256
-72.0496
-67.8868
-67.1329
-65.5214
-64.1391
-63.7017
-63.7336
-65.3275
-67.6919
-70.4017
-72.0433
-72.3047
-71.3019
-71.7074
-68.5162
-67.43
-66.483
-65.4534
-64.7262
-64.2703
-65.2618
-67.6111
-69.7421
-71.2957
-72.0154
-72.2803
-71.9013
-72.2924
-68.5926
-67.9831
-67.348
-66.4094
-65.0286
-64.0471
-65.1114
-67.1083
-68.9903
-70.4037
-71.5674
-72.1245
-72.5922
-72.8168
-71.6785
-68.9819
-68.5639
-68.1575
-67.2872
-65.4396
-64.9065
-65.2724
-66.1161
-67.2602
-68.5922
-69.9539
-71.0399
-71.6542
-71.7965
-72.3727
-71.229
-69.2824
-69.3414
-68.8645
-68.2287
-66.7791
-66.3716
-66.1845
-66.2565
-67.0419
-67.8205
-68.5752
-69.3018
-70.0673
-70.7577
-71.2377
-71.6826
-60.0777
-60.2584
-60.1886
-60.2479
-60.5188
-60.3696
-60.4835
-60.3946
-60.7459
-60.6805
-60.7276
-60.6997
-60.5703
-61.0816
-61.1192
-61.0369
-60.9538
-60.8823
-60.9869
-61.4442
-61.5221
-61.404
-61.3733
-61.2013
-61.2443
-61.3891
-61.9345
-62.1344
-61.8249
-61.631
-61.5426
-61.528
-61.6846
-62.004
-62.8703
-62.7271
-62.3988
-62.1193
-61.8442
-61.9277
-62.0791
-62.2857
-62.9228
-64.3403
-63.4927
-63.1539
-62.5506
-62.1838
-62.1608
-62.1487
-62.9664
-63.5621
-64.4875
-66.6988
-64.704
-63.9005
-63.3248
-62.8265
-62.3918
-62.5746
-63.1092
-63.7176
-66.0338
-66.8807
-68.3952
-65.8622
-64.9197
-63.8759
-63.0111
-62.6829
-62.7521
-63.7256
-65.5245
-67.1424
-68.0159
-67.757
-70.1826
-66.9366
-66.0334
-64.7465
-63.6396
-62.9479
-63.2329
-64.5907
-66.6494
-68.8012
-70.2404
-70.2733
-69.0568
-70.9577
-68.1744
-67.4521
-65.8488
-64.2179
-63.6601
-63.5767
-64.7543
-66.8432
-69.9358
-71.7093
-72.1016
-71.5885
-70.175
-71.688
-68.672
-67.6389
-66.6969
-65.5601
-64.6525
-64.0699
-64.7677
-66.8151
-69.3028
-71.1072
-71.9992
-72.4374
-72.1527
-71.4249
-72.7237
-68.8305
-68.1688
-67.4857
-66.4638
-65.0155
-63.9581
-64.6372
-66.8081
-68.7333
-70.1019
-71.5119
-72.2341
-72.6789
-72.9471
-72.5732
-72.3486
-69.1064
-68.6832
-68.2747
-67.3626
-65.4799
-64.8274
-65.2156
-65.9083
-67.1017
-68.5013
-69.8976
-71.0654
-71.7076
-71.855
-72.3806
-72.5099
-71.6752
-69.3285
-69.3848
-68.8587
-68.3011
-66.8015
-66.3161
-66.1583
-66.2096
-66.9701
-67.759
-68.5487
-69.2854
-70.0638
-70.7565
-71.2226
-71.6796
-71.8084
-60.0163
-60.0388
-60.0359
-60.0436
-60.1544
-60.2172
-60.1648
-60.16
-60.4531
-60.4326
-60.4107
-60.4145
-60.3262
-60.7798
-60.7041
-60.6665
-60.6024
-60.5398
-60.6569
-61.0433
-61.1619
-61.0013
-60.9614
-60.8496
-60.8926
-60.9686
-61.448
-61.5229
-61.3864
-61.1653
-61.2117
-61.1493
-61.329
-61.4427
-62.1952
-62.1706
-61.8712
-61.5091
-61.5002
-61.4758
-61.5589
-61.8195
-62.2414
-63.4151
-62.8429
-62.4418
-62.1467
-61.8609
-61.913
-61.9897
-62.1934
-62.5805
-63.1503
-65.0403
-63.7704
-63.2027
-62.6052
-62.2986
-62.1643
-62.1598
-62.3222
-63.0582
-64.1219
-65.202
-66.8834
-64.744
-64.1072
-63.4465
-62.9032
-62.5028
-62.6411
-62.8913
-63.3936
-65.0276
-66.3018
-66.3885
-67.8178
-66.223
-65.1026
-63.9784
-63.1497
-62.5778
-62.8207
-63.4658
-65.055
-66.5124
-67.4987
-67.5337
-66.7625
-68.9365
-67.3321
-66.2707
-65.0018
-63.7623
-63.0556
-63.0583
-63.9811
-65.837
-68.1186
-69.6991
-69.8062
-69.1717
-67.8679
-70.0384
-68.4559
-67.8234
-66.1642
-64.3905
-63.5846
-63.3549
-64.2773
-66.1871
-69.2335
-71.4104
-71.7837
-71.6255
-70.4373
-68.8164
-71.1778
-68.893
-67.8208
-66.8753
-65.6412
-64.7322
-63.9471
-64.4374
-66.0315
-68.7551
-70.9359
-71.9094
-72.3793
-72.2869
-71.5049
-70.4162
-72.5076
-69.0319
-68.4033
-67.6332
-66.5351
-65.0663
-63.9218
-64.0111
-66.3522
-68.4666
-69.8158
-71.4864
-72.2951
-72.7724
-73.0728
-72.5411
-72.2632
-72.5818
-69.2008
-68.8009
-68.3807
-67.3708
-65.5179
-64.8129
-65.1855
-65.7311
-66.9405
-68.3519
-69.8462
-71.114
-71.7502
-71.907
-72.3684
-72.4134
-72.8129
-71.8329
-69.3718
-69.4267
-68.8483
-68.358
-66.8435
-66.2716
-66.1493
-66.1742
-66.8953
-67.6789
-68.5083
-69.2691
-70.0519
-70.7468
-71.168
-71.6419
-71.7711
-70.9798
-59.9073
-60.0567
-59.9828
-59.9322
-60.0382
-60.038
-59.988
-60.0087
-60.2295
-60.2247
-60.1567
-60.1175
-60.1155
-60.4267
-60.4883
-60.3605
-60.3321
-60.2903
-60.3606
-60.7952
-60.6792
-60.6534
-60.5966
-60.5359
-60.5185
-60.6815
-61.1316
-60.9615
-60.9839
-60.9124
-60.8494
-60.8106
-60.8643
-61.0941
-61.6398
-61.5696
-61.4582
-61.2108
-61.0859
-61.01
-61.136
-61.3056
-61.5377
-62.3776
-62.195
-61.7387
-61.5772
-61.4519
-61.4263
-61.4159
-61.624
-61.9998
-62.4957
-63.666
-62.9026
-62.5258
-62.202
-61.8854
-61.866
-61.933
-61.826
-62.4263
-62.938
-63.6713
-65.6344
-63.9331
-63.2385
-62.7548
-62.3217
-62.1208
-62.1714
-62.14
-62.8922
-63.586
-64.7188
-65.2873
-66.606
-64.9793
-64.2898
-63.424
-62.9471
-62.4384
-62.4253
-62.9634
-64.1667
-64.178
-65.5897
-66.0367
-65.514
-66.9017
-66.661
-65.3277
-64.1531
-63.2524
-62.7708
-62.7757
-63.2762
-64.7458
-66.1523
-66.9436
-67.123
-66.6855
-65.9091
-67.7554
-67.7701
-66.61
-65.2307
-63.8948
-63.1393
-62.9542
-63.5657
-65.2975
-67.4388
-69.1733
-69.3275
-69.1375
-67.8706
-66.9659
-68.81
-68.7026
-68.2584
-66.446
-64.6199
-63.5767
-63.202
-63.8947
-65.2524
-68.4429
-70.9348
-71.5684
-71.4307
-70.7292
-68.8622
-68.0526
-70.4471
-69.1401
-68.0537
-67.0279
-65.7152
-64.7242
-63.9784
-64.2316
-65.5765
-68.1474
-70.6297
-71.8159
-72.3837
-72.1667
-71.6401
-70.3982
-69.5978
-72.2373
-69.2217
-68.6501
-67.784
-66.5975
-65.1719
-63.9412
-63.7464
-65.5934
-68.2093
-69.5668
-71.4965
-72.344
-72.8592
-72.9986
-72.4703
-72.3376
-71.5172
-72.8441
-69.3179
-68.9216
-68.4699
-67.4115
-65.5701
-64.8518
-65.156
-65.5874
-66.7908
-68.1572
-69.8062
-71.14
-71.7801
-71.9365
-72.3107
-72.353
-72.7369
-71.7193
-70.9995
-69.413
-69.467
-68.8468
-68.4158
-66.8894
-66.2994
-66.1488
-66.1448
-66.8179
-67.576
-68.4305
-69.2372
-70.0343
-70.7261
-71.0829
-71.609
-71.7623
-70.9455
-69.6767
-59.8278
-59.9456
-59.8311
-59.8064
-59.9693
-59.9194
-59.9192
-59.899
-60.0535
-59.9959
-59.9559
-59.9727
-59.9912
-60.1497
-60.1979
-60.1063
-60.1227
-60.1422
-60.058
-60.4439
-60.4376
-60.3792
-60.289
-60.3272
-60.3038
-60.3723
-60.8446
-60.7607
-60.6779
-60.5685
-60.4396
-60.4283
-60.579
-60.733
-61.0756
-61.0477
-60.9665
-60.8505
-60.798
-60.7259
-60.7723
-60.9809
-60.9565
-61.8858
-61.5966
-61.4755
-61.153
-61.0933
-60.9908
-61.047
-61.1632
-61.1684
-61.7665
-62.8861
-62.2371
-61.9017
-61.5976
-61.4329
-61.3829
-61.3664
-61.3924
-61.7448
-62.2274
-62.7176
-64.1455
-62.9834
-62.5896
-62.2143
-61.9152
-61.8455
-61.7582
-61.8135
-62.0502
-62.7878
-63.483
-64.088
-65.3611
-63.9636
-63.4549
-62.8726
-62.2827
-62.0676
-61.993
-62.4406
-62.9748
-63.3909
-64.2322
-64.925
-64.4671
-65.6568
-65.2751
-64.2036
-63.4953
-62.9425
-62.5291
-62.2271
-62.5584
-63.3583
-64.6087
-65.3425
-65.7487
-65.4297
-64.7367
-66.0016
-67.0922
-65.6304
-64.3603
-63.4643
-62.943
-62.7716
-63.2441
-65.0012
-65.9487
-66.5506
-66.9255
-66.6656
-65.8888
-65.4889
-66.9692
-68.2812
-67.0086
-65.4558
-64.0281
-63.1382
-62.8931
-63.3412
-64.9023
-66.7148
-68.4174
-68.9055
-68.9156
-67.7385
-66.895
-66.5532
-68.1887
-68.9855
-68.6741
-66.7449
-64.7921
-63.6747
-63.22
-63.6794
-64.5733
-67.5295
-70.3855
-71.2184
-71.124
-70.6675
-68.9126
-68.0211
-67.4427
-69.819
-69.3892
-68.3892
-67.1606
-65.8637
-64.7465
-64.0067
-63.9354
-65.2724
-67.4842
-70.2508
-71.8307
-72.3044
-72.2454
-71.7909
-70.3149
-69.4015
-68.9555
-71.5684
-69.3908
-68.8685
-67.9347
-66.6985
-65.1982
-63.919
-63.5689
-65.1893
-67.8925
-69.3151
-71.3693
-72.3681
-72.8543
-72.9521
-72.4468
-72.2699
-71.4667
-70.4273
-71.8606
-69.4317
-69.048
-68.5638
-67.4961
-65.6325
-64.8548
-65.125
-65.4961
-66.6228
-68.0043
-69.7692
-71.1753
-71.7856
-71.9265
-72.2345
-72.2665
-72.6294
-71.5817
-69.9739
-69.7632
-69.4532
-69.5036
-68.8785
-68.4747
-66.8997
-66.3247
-66.13
-66.1276
-66.7273
-67.4551
-68.3451
-69.2026
-70.0133
-70.6824
-71.0114
-71.5789
-71.7471
-70.8996
-69.5891
-68.0803
-59.7658
-59.8535
-59.8091
-59.7633
-59.8436
-59.8425
-59.787
-59.7896
-59.9195
-59.9215
-59.8365
-59.8488
-59.8957
-59.9219
-59.9916
-59.9384
-59.968
-59.9701
-59.9145
-60.2582
-60.2061
-60.0984
-60.0855
-60.1478
-60.1463
-60.117
-60.5788
-60.499
-60.3786
-60.3312
-60.1968
-60.2454
-60.3134
-60.3247
-60.924
-60.7476
-60.6678
-60.5666
-60.4255
-60.4965
-60.506
-60.5177
-60.7353
-61.257
-61.1001
-60.9866
-60.8104
-60.7287
-60.6823
-60.718
-60.706
-60.9134
-61.1872
-61.9881
-61.6754
-61.5028
-61.1963
-61.0643
-60.9562
-61.0063
-61.0098
-61.3807
-61.5708
-62.0054
-63.078
-62.2801
-61.9854
-61.6505
-61.5133
-61.3438
-61.3074
-61.3059
-61.5277
-62.0478
-62.5738
-63.0494
-64.2351
-63.0949
-62.6311
-62.2657
-61.9366
-61.7945
-61.5669
-61.7963
-61.7081
-62.5307
-63.1629
-63.8476
-63.5552
-64.5421
-64.1592
-63.5127
-62.9186
-62.3126
-61.992
-61.8647
-62.0627
-62.6983
-63.3237
-63.9594
-64.5646
-64.3102
-63.7471
-64.772
-65.5512
-64.5056
-63.6492
-62.9691
-62.6349
-62.4636
-62.6747
-62.9407
-63.6093
-64.7544
-65.3545
-65.4005
-64.582
-64.3442
-65.5496
-67.5516
-65.9919
-64.6787
-63.6523
-63.0015
-62.7671
-63.0108
-64.4555
-65.1933
-65.9492
-66.5584
-66.5613
-65.8786
-65.3245
-65.3874
-66.6882
-68.8123
-67.4386
-65.8293
-64.1679
-63.1838
-62.8779
-63.1283
-64.213
-66.1242
-67.6533
-68.3978
-68.6002
-67.7403
-66.8308
-66.4041
-66.2202
-67.6209
-69.2812
-69.0208
-67.0728
-65.0302
-63.7655
-63.2186
-63.6023
-64.2104
-66.6654
-69.4976
-70.9559
-70.7606
-70.3455
-68.9121
-67.9626
-67.2578
-67.1953
-69.1569
-69.606
-68.7469
-67.3494
-66.07
-64.8148
-64.0171
-63.7525
-64.8912
-66.7985
-69.828
-71.879
-72.1893
-72.343
-71.7642
-70.2588
-69.3037
-68.7071
-68.4071
-70.6617
-69.5466
-69.1101
-68.114
-66.8139
-65.2253
-64.0294
-63.5296
-64.7702
-67.4489
-69.04
-71.1366
-72.3107
-72.6295
-72.879
-72.3885
-72.1415
-71.3548
-70.2147
-69.2762
-70.1262
-69.5279
-69.1777
-68.6633
-67.5921
-65.6833
-64.9141
-65.1216
-65.4388
-66.4704
-67.8679
-69.7238
-71.2197
-71.7487
-71.8818
-72.1489
-72.1617
-72.5271
-71.4236
-69.8154
-68.4262
-68.1568
-69.4922
-69.5361
-68.94
-68.5176
-66.9306
-66.329
-66.0989
-66.118
-66.6203
-67.3244
-68.2674
-69.1519
-69.9883
-70.6177
-70.9573
-71.5302
-71.673
-70.8448
-69.49
-68.0013
-66.4181
-59.7512
-59.8035
-59.6926
-59.6333
-59.7829
-59.8491
-59.6937
-59.6742
-59.8001
-59.8377
-59.7528
-59.7239
-59.659
-59.8701
-59.8762
-59.8863
-59.7903
-59.7864
-59.8557
-60.0021
-60.047
-59.9842
-59.9461
-59.9032
-59.8783
-59.8544
-60.2614
-60.2139
-60.1499
-60.0721
-60.0327
-60.0466
-60.0973
-60.2184
-60.5358
-60.4996
-60.3784
-60.3108
-60.2145
-60.2101
-60.1909
-60.2436
-60.4037
-60.8357
-60.7746
-60.6482
-60.5777
-60.4005
-60.4202
-60.3831
-60.3771
-60.67
-60.7411
-61.342
-61.1537
-60.9682
-60.8743
-60.6781
-60.5911
-60.6119
-60.66
-60.8614
-60.9398
-61.3102
-62.0067
-61.7117
-61.5339
-61.251
-61.081
-60.8871
-60.8724
-60.8918
-61.0636
-61.4543
-61.9115
-62.161
-63.4056
-62.3386
-62.0933
-61.7089
-61.5196
-61.351
-61.131
-61.3892
-61.4277
-61.7837
-62.5073
-63.0047
-62.6132
-63.5713
-63.2424
-62.7327
-62.28
-61.9576
-61.8129
-61.5133
-61.8843
-62.0178
-62.605
-62.9665
-63.6655
-63.5018
-62.9124
-63.8975
-64.3354
-63.5111
-63.0375
-62.4005
-62.0014
-61.9138
-62.1502
-62.0599
-62.5906
-63.2536
-64.2083
-64.123
-63.5281
-63.7205
-64.4165
-65.9692
-64.9258
-63.9118
-63.1358
-62.7134
-62.4307
-62.6111
-63.0441
-62.7848
-63.6362
-64.9056
-65.1193
-64.597
-64.1482
-64.765
-65.557
-68.0612
-66.4468
-64.8963
-63.7257
-63.0526
-62.6445
-62.8756
-63.591
-64.9327
-65.5301
-66.0384
-66.287
-65.6191
-65.2033
-65.2927
-65.1807
-66.3976
-69.2563
-67.933
-66.1237
-64.3581
-63.2405
-62.8496
-63.0462
-63.8678
-65.6726
-66.9827
-67.9134
-68.2461
-67.6285
-66.7128
-66.2547
-66.0735
-65.9163
-67.3957
-69.581
-69.4012
-67.4407
-65.2803
-63.8483
-63.2416
-63.5734
-63.808
-65.9693
-68.5001
-70.3861
-70.3589
-70.0236
-68.8641
-67.8995
-67.1847
-66.9108
-66.9819
-68.6988
-69.7912
-69.0883
-67.5988
-66.2383
-64.9064
-64.111
-63.6806
-64.5539
-66.2866
-69.3778
-71.9473
-72.1052
-72.2963
-71.716
-70.2612
-69.2342
-68.504
-68.1671
-67.9313
-69.5451
-69.6969
-69.3564
-68.3107
-66.9194
-65.2547
-64.2067
-63.5548
-64.2632
-66.8003
-68.6929
-70.8936
-72.1024
-72.5135
-72.6939
-72.2489
-71.9206
-71.1781
-69.9959
-68.8979
-67.9772
-68.5984
-69.6144
-69.3179
-68.7728
-67.666
-65.7327
-64.9983
-65.1296
-65.3923
-66.3293
-67.7197
-69.6536
-71.246
-71.6847
-71.7968
-72.0206
-72.0278
-72.3531
-71.2554
-69.678
-68.2372
-66.9402
-66.487
-69.5289
-69.564
-68.9966
-68.5369
-66.9825
-66.3263
-66.0847
-66.0909
-66.5153
-67.2072
-68.1854
-69.0349
-69.9662
-70.5541
-70.9185
-71.5031
-71.5545
-70.778
-69.3961
-67.9156
-66.3489
-65.4503
-59.5849
-59.7882
-59.6679
-59.5343
-59.6914
-59.7538
-59.6001
-59.5129
-59.664
-59.7757
-59.7265
-59.6113
-59.558
-59.709
-59.7748
-59.714
-59.6528
-59.6652
-59.6486
-59.8739
-59.9654
-59.9123
-59.7807
-59.7526
-59.7124
-59.7696
-60.0485
-60.0323
-60.0079
-59.856
-59.8755
-59.7996
-59.8868
-59.9448
-60.1474
-60.288
-60.1066
-60.0898
-59.9922
-59.9105
-60.0136
-60.0202
-60.117
-60.484
-60.4756
-60.3858
-60.3206
-60.1752
-60.1747
-60.1224
-60.2366
-60.3036
-60.5703
-60.9617
-60.8128
-60.6821
-60.5374
-60.3797
-60.3494
-60.3518
-60.4669
-60.2761
-60.8187
-60.6988
-61.5565
-61.2361
-61.0377
-60.8868
-60.7175
-60.6282
-60.5019
-60.6016
-60.6297
-60.8759
-61.0028
-61.3117
-62.6114
-61.7703
-61.557
-61.293
-61.128
-60.9278
-60.8118
-60.7901
-60.9816
-61.3126
-61.7893
-61.9805
-62.0533
-62.7275
-62.4679
-62.1298
-61.7393
-61.5355
-61.2863
-61.1845
-61.2724
-61.3285
-61.8793
-62.2041
-62.7144
-62.5816
-62.1746
-63.2134
-63.3418
-62.795
-62.3334
-62.0203
-61.7969
-61.6906
-61.7466
-61.775
-62.6115
-62.6114
-63.5807
-63.2954
-62.5764
-63.2736
-64.0006
-64.5653
-63.8239
-63.0956
-62.475
-62.0535
-61.779
-61.9801
-62.1044
-62.93
-63.0731
-63.86
-63.8663
-63.4497
-63.4674
-64.2951
-64.9659
-66.4207
-65.1616
-64.0653
-63.2339
-62.7624
-62.4055
-62.447
-62.6491
-63.4747
-64.4659
-64.531
-64.6229
-64.454
-64.0368
-64.5465
-65.226
-65.3633
-68.5494
-66.9124
-65.1647
-63.9521
-63.22
-62.6318
-62.7655
-63.3996
-64.8525
-65.6825
-65.6616
-65.9887
-65.4837
-65.1441
-65.1212
-65.0108
-65.1436
-66.1536
-69.6195
-68.3282
-66.4229
-64.6006
-63.3479
-62.8779
-62.951
-63.6006
-65.1779
-66.7201
-67.4335
-67.7475
-67.3698
-66.6527
-66.11
-65.9135
-65.6165
-65.9998
-67.1481
-69.8225
-69.7528
-67.7938
-65.4708
-64.0252
-63.333
-63.499
-63.5586
-65.5525
-67.5814
-69.7004
-69.9202
-69.4878
-68.7678
-67.7875
-67.1713
-66.5983
-66.7421
-66.3764
-68.2325
-69.955
-69.4486
-67.8727
-66.3952
-65.0275
-64.1144
-63.6857
-64.2621
-66.1456
-68.8061
-71.8172
-72.0973
-71.9531
-71.5814
-70.1685
-69.1327
-68.2656
-67.9276
-67.6994
-67.1403
-68.297
-69.8376
-69.591
-68.5127
-67.0298
-65.2904
-64.3484
-63.6552
-64.1148
-66.0627
-68.2285
-70.6697
-71.8885
-72.4623
-72.3597
-72.0441
-71.7375
-70.9794
-69.7062
-68.6141
-67.6271
-66.4788
-67.0752
-69.7019
-69.4487
-68.8941
-67.7545
-65.8094
-65.0762
-65.149
-65.3476
-66.1623
-67.5583
-69.5659
-71.2387
-71.6154
-71.7056
-71.8834
-71.8945
-72.1478
-71.046
-69.514
-68.0273
-66.793
-65.4979
-65.5119
-69.5637
-69.5849
-69.047
-68.5571
-67.0333
-66.3195
-66.0785
-66.0514
-66.4339
-67.1198
-68.0989
-68.9406
-69.9418
-70.5201
-70.8781
-71.4831
-71.4538
-70.7
-69.305
-67.8135
-66.276
-65.3829
-64.2967
-59.5554
-59.6635
-59.5802
-59.4019
-59.5879
-59.6206
-59.5064
-59.3717
-59.5402
-59.7428
-59.6117
-59.4708
-59.4188
-59.5672
-59.8141
-59.6417
-59.5957
-59.4963
-59.5641
-59.7296
-59.7571
-59.6614
-59.6066
-59.5668
-59.5414
-59.6345
-59.8607
-59.9375
-59.8809
-59.8192
-59.7694
-59.7067
-59.741
-59.7112
-60.0437
-60.145
-59.9405
-59.89
-59.8348
-59.7734
-59.8893
-59.8378
-59.9056
-60.1191
-60.2903
-60.1716
-60.0392
-60.0178
-59.8447
-59.903
-60.0038
-60.0081
-60.1805
-60.6479
-60.5317
-60.406
-60.2924
-60.2
-60.1022
-60.0954
-60.1582
-60.2002
-60.476
-60.545
-61.0663
-60.8823
-60.6895
-60.5553
-60.4304
-60.3891
-60.3083
-60.3231
-60.4228
-60.7274
-60.6531
-61.0502
-61.4622
-61.2929
-61.0269
-60.9116
-60.76
-60.5982
-60.4483
-60.4751
-60.4617
-60.6786
-60.996
-61.2491
-61.5422
-62.1904
-61.85
-61.6379
-61.3479
-61.1668
-60.8903
-60.8867
-60.714
-60.857
-61.1042
-61.5292
-61.8759
-61.9923
-61.9069
-62.5769
-62.5245
-62.2311
-61.7951
-61.5255
-61.3423
-61.1592
-61.0064
-61.4122
-61.7582
-62.0184
-62.574
-62.5183
-62.1683
-62.7648
-63.5841
-63.4665
-62.8105
-62.4308
-61.9946
-61.8259
-61.6567
-61.5176
-61.8945
-61.8534
-62.7752
-63.0828
-63.0895
-62.6183
-62.782
-64.0703
-64.6354
-64.8168
-63.9058
-63.1628
-62.5115
-62.0118
-61.7571
-61.8844
-62.0117
-62.5467
-63.4961
-63.3382
-63.6102
-63.3959
-63.2107
-63.9448
-65.5381
-65.6214
-66.7292
-65.422
-64.215
-63.3443
-62.8404
-62.4765
-62.4107
-62.5294
-63.3056
-64.2769
-64.2529
-64.3663
-64.2913
-63.985
-64.1098
-64.7482
-65.6359
-65.5061
-68.8431
-67.4049
-65.4557
-64.2081
-63.3702
-62.641
-62.7432
-63.1387
-64.3546
-65.1145
-65.3887
-65.5584
-65.2956
-64.9943
-64.9318
-64.7481
-64.8293
-65.5365
-66.2808
-69.8536
-68.7015
-66.8469
-64.8084
-63.4373
-62.9705
-62.9794
-63.3988
-64.8563
-66.4404
-66.9391
-67.2973
-67.0945
-66.546
-65.8901
-65.6066
-65.3151
-65.5388
-65.5309
-66.695
-70.0068
-70.052
-68.0927
-65.563
-64.1905
-63.437
-63.4893
-63.4063
-64.9522
-66.8943
-69.0849
-69.3861
-69.0351
-68.5152
-67.7318
-67.1
-66.3521
-66.4158
-66.0515
-65.7143
-67.414
-70.0961
-69.7872
-68.156
-66.5563
-65.1243
-64.1758
-63.7764
-63.8897
-65.6874
-67.9557
-71.4057
-71.934
-71.7255
-71.4142
-70.0168
-68.9556
-68.0969
-67.7011
-67.3935
-66.8499
-66.091
-66.7757
-69.9741
-69.8135
-68.7215
-67.1958
-65.3886
-64.5234
-63.7986
-64.0059
-65.4879
-67.6834
-70.3426
-71.7465
-72.1699
-72.0083
-71.7949
-71.5896
-70.7564
-69.4499
-68.3731
-67.3908
-66.266
-65.4533
-65.6098
-69.7744
-69.5718
-69.016
-67.8563
-65.8953
-65.1732
-65.17
-65.2885
-66.0035
-67.3834
-69.443
-71.1086
-71.5519
-71.6061
-71.7536
-71.7723
-71.9063
-70.7922
-69.3509
-67.8029
-66.5767
-65.3926
-64.297
-64.3465
-69.5999
-69.6043
-69.0966
-68.5847
-67.1106
-66.3256
-66.0817
-66.0284
-66.3807
-67.0221
-68.009
-68.8728
-69.9052
-70.4611
-70.8439
-71.4352
-71.3735
-70.6166
-69.197
-67.7081
-66.2045
-65.3001
-64.2532
-63.252
-59.3068
-59.5906
-59.4534
-59.349
-59.413
-59.4742
-59.3906
-59.2211
-59.4423
-59.7459
-59.4677
-59.382
-59.2619
-59.5118
-59.7149
-59.5975
-59.4718
-59.3304
-59.3366
-59.6332
-59.7856
-59.6143
-59.538
-59.3725
-59.4239
-59.3497
-59.7045
-59.8239
-59.7722
-59.6279
-59.5409
-59.4263
-59.5322
-59.4963
-59.8716
-59.9639
-59.8955
-59.7511
-59.7005
-59.631
-59.6858
-59.6425
-59.6288
-60.002
-60.129
-59.9745
-59.8894
-59.8367
-59.6773
-59.7542
-59.7875
-59.7951
-59.9651
-60.3377
-60.3115
-60.151
-60.1183
-59.9538
-59.8774
-59.799
-59.7183
-59.8199
-60.0718
-60.2818
-60.6781
-60.5423
-60.3857
-60.3103
-60.1972
-60.1396
-59.9962
-60.0218
-60.0992
-60.1213
-60.5161
-60.7369
-61.0981
-60.9269
-60.6773
-60.6042
-60.3966
-60.3361
-60.2581
-60.2041
-60.3037
-60.3686
-60.6556
-60.7837
-61.2882
-61.5337
-61.3122
-61.1516
-60.9497
-60.7188
-60.5611
-60.5388
-60.3715
-60.5154
-60.4943
-60.9005
-61.239
-61.4608
-61.5088
-62.024
-61.8984
-61.619
-61.4372
-61.1584
-60.9109
-60.6234
-60.6687
-60.7152
-60.8386
-61.3801
-61.8658
-61.9178
-61.8573
-62.6477
-63.2769
-62.6155
-62.2501
-61.8941
-61.5845
-61.3459
-61.149
-61.1576
-61.282
-61.2496
-62.0484
-62.1974
-62.483
-62.1346
-62.2418
-64.2505
-64.625
-63.6142
-63.0888
-62.4172
-61.9925
-61.7464
-61.6353
-61.5607
-61.6199
-61.8431
-62.5071
-62.6541
-63.0052
-62.5549
-62.2391
-63.7508
-65.8523
-65.8034
-65.0724
-64.0424
-63.2207
-62.5555
-61.9821
-61.8524
-61.761
-61.7777
-62.2741
-62.656
-63.0471
-63.3204
-63.333
-63.0119
-63.516
-65.2445
-66.3183
-66.0305
-67.0715
-65.7322
-64.3948
-63.3468
-62.9095
-62.5699
-62.3456
-62.4355
-62.9063
-63.3411
-63.9377
-63.961
-64.0038
-63.8264
-63.8379
-64.4285
-65.2306
-66.0075
-65.9213
-69.0883
-67.6681
-65.739
-64.2773
-63.3177
-62.7065
-62.7655
-62.9515
-64.0837
-64.6605
-65.0646
-65.2103
-65.0835
-64.8395
-64.7308
-64.4744
-64.5609
-65.3398
-65.5323
-65.8475
-70.059
-69.073
-67.3248
-64.9587
-63.6245
-63.0767
-62.9972
-63.2777
-64.3601
-65.9169
-66.5567
-66.8774
-66.793
-66.3714
-65.7449
-65.2364
-65.0749
-65.2796
-65.1763
-65.2229
-65.9961
-70.1793
-70.3181
-68.3492
-65.8457
-64.2019
-63.5299
-63.4865
-63.262
-64.4868
-66.2497
-68.3641
-68.8792
-68.5728
-68.3249
-67.6629
-66.946
-66.1336
-66.1265
-65.7071
-65.4655
-65.1001
-66.3361
-70.2256
-70.0911
-68.4696
-66.723
-65.2351
-64.31
-63.8721
-63.7937
-65.2043
-67.0531
-70.6415
-71.5408
-71.5452
-71.1485
-69.9382
-68.767
-67.9372
-67.4448
-67.129
-66.4854
-65.8326
-65.049
-65.6855
-70.1219
-70.0188
-68.9419
-67.3747
-65.4804
-64.6679
-63.9436
-63.9203
-65.066
-67.0943
-69.9163
-71.6106
-71.9835
-71.7368
-71.5776
-71.3044
-70.6317
-69.2488
-68.1184
-67.175
-66.1064
-65.2231
-64.1971
-64.3801
-69.8439
-69.7058
-69.1351
-67.9544
-65.9952
-65.2783
-65.1959
-65.2435
-65.848
-67.2024
-69.2517
-70.9124
-71.4961
-71.5037
-71.6137
-71.6544
-71.6078
-70.4887
-69.1949
-67.6024
-66.4015
-65.3134
-64.2084
-63.3768
-63.2832
-69.6379
-69.6285
-69.1396
-68.6135
-67.1888
-66.3425
-66.0854
-66.017
-66.3498
-66.8936
-67.9179
-68.7767
-69.8477
-70.3952
-70.821
-71.3853
-71.2913
-70.5275
-69.0612
-67.6464
-66.1436
-65.2237
-64.2149
-63.2356
-62.6074
-59.3164
-59.2903
-59.1242
-59.4038
-59.4447
-59.2954
-59.0989
-59.254
-59.5384
-59.3522
-59.1356
-59.1105
-59.3585
-59.6502
-59.5033
-59.3179
-59.2674
-59.1628
-59.4379
-59.6908
-59.5637
-59.4473
-59.2752
-59.2782
-59.2594
-59.4305
-59.7586
-59.6689
-59.4929
-59.4765
-59.3422
-59.3418
-59.3446
-59.6225
-59.8044
-59.7694
-59.594
-59.4902
-59.4246
-59.449
-59.3539
-59.5177
-59.8517
-59.946
-59.8569
-59.7653
-59.6495
-59.5946
-59.5858
-59.5385
-59.5717
-59.6249
-59.9942
-60.1239
-59.9019
-59.9311
-59.7748
-59.6894
-59.659
-59.7259
-59.6603
-59.8013
-60.0426
-60.3433
-60.3238
-60.1719
-60.0975
-59.9147
-59.8549
-59.7544
-59.8515
-59.5729
-59.9539
-60.1997