/*--------------------------------*- C++ -*----------------------------------*\
  =========                 |
  \\      /  F ield         | OpenFOAM: The Open Source CFD Toolbox
   \\    /   O peration     | Website:  https://openfoam.org
    \\  /    A nd           | Version:  7
     \\/     M anipulation  |
\*---------------------------------------------------------------------------*/
FoamFile
{
    version     2.0;
    format      ascii;
    class       volVectorField;
    location    "2.5";
    object      U;
}
// * * * * * * * * * * * * * * * * * * * * * * * * * * * * * * * * * * * * * //

dimensions      [0 1 -1 0 0 0 0];

internalField   nonuniform List<vector> 
18720
(
(-0.297261 0.0935303 -3.38331)
(0.0869205 0.665658 -2.89031)
(-0.244118 0.0987275 -3.37478)
(-0.338812 0.0907666 -3.38112)
(-0.311807 0.219342 -3.25071)
(-0.509296 1.10852 -1.0039)
(0.109944 0.74462 -2.94575)
(0.0667462 0.582825 -2.83601)
(0.304076 0.384568 -3.48145)
(-0.213092 0.210875 -3.24555)
(-0.397299 0.0918822 -3.35861)
(-0.401422 0.23818 -3.24843)
(0.390312 0.499394 -3.02006)
(-0.777004 1.01792 -0.559442)
(-0.374537 1.26008 -1.01367)
(-0.52515 0.958141 -0.940161)
(0.388112 1.35629 -2.26943)
(0.307594 0.379491 -3.45348)
(0.0456467 0.489143 -2.7716)
(0.298086 0.397973 -3.49637)
(0.693045 -0.0753823 -3.56418)
(0.547539 0.497687 -3.02956)
(-0.448791 0.0978364 -3.31962)
(-0.464349 0.256436 -3.2386)
(0.243893 0.513918 -3.01093)
(0.110283 1.26724 -2.47101)
(-0.381444 1.84877 0.869706)
(-0.811974 1.03562 -0.770927)
(-0.728213 0.970291 -0.417841)
(-0.0773228 1.52226 -0.987305)
(0.311856 1.83153 -1.94684)
(-0.520053 0.887198 -0.867826)
(0.192631 1.29076 -1.90183)
(1.34925 0.978082 -3.12898)
(0.69546 -0.10673 -3.51283)
(-0.00884899 0.398789 -2.67992)
(0.325563 0.370502 -3.52331)
(0.645139 0.0508868 -3.62559)
(1.06885 0.605405 -3.40956)
(0.112232 1.22159 -2.49505)
(-0.496839 0.104525 -3.2665)
(-0.557138 0.294109 -3.20891)
(0.110087 0.53853 -2.99791)
(0.0938998 1.30773 -2.4658)
(0.963211 1.66265 -1.45193)
(0.0382773 2.4971 0.735749)
(-0.341157 1.85085 0.801689)
(-0.199308 1.87786 0.395347)
(-0.09418 1.95149 -0.212293)
(-0.0433892 1.66545 -0.985891)
(-0.717205 0.953736 -0.397183)
(-0.082694 1.33645 -1.04601)
(1.23261 1.52189 -2.00106)
(1.1945 0.876062 -3.10427)
(-0.476284 0.764844 -0.971067)
(0.142521 1.24686 -1.6747)
(1.45067 0.795553 -3.24966)
(1.60118 0.505324 -2.99293)
(1.35628 0.529895 -3.24707)
(-0.0966275 0.32904 -2.52948)
(0.363915 0.333205 -3.50398)
(0.474843 0.0453734 -3.74198)
(0.728421 0.632798 -3.54592)
(1.32266 0.601424 -2.65257)
(0.947398 1.67331 -1.40957)
(-0.544589 0.111938 -3.2019)
(-0.616813 0.333679 -3.17)
(0.00303844 0.570917 -2.97714)
(0.059499 1.33841 -2.45014)
(0.99888 1.70683 -1.39416)
(0.766049 0.950346 -1.04398)
(-0.0446005 2.51915 2.04369)
(-0.0108556 2.55765 0.565492)
(0.0676217 2.50391 0.747032)
(0.221272 2.62885 0.550042)
(-0.380084 1.98206 0.0963526)
(0.124677 1.81678 -0.152422)
(0.0292952 1.9067 -0.429876)
(-0.0331926 2.17879 -0.125851)
(1.15166 1.81252 -1.90582)
(-0.877715 1.01032 -0.241785)
(-0.179174 1.24265 -0.956521)
(1.12951 1.31393 -2.01677)
(2.35687 1.47642 -2.36768)
(1.45108 0.296218 -3.1387)
(-0.467734 0.593054 -1.02004)
(0.127799 0.923034 -1.71661)
(1.46932 0.829577 -3.08735)
(1.78615 0.659471 -3.1921)
(2.0174 0.605113 -2.25576)
(1.61813 0.504402 -2.41915)
(-0.201252 0.270535 -2.3401)
(0.406528 0.308277 -3.32945)
(0.535631 0.151844 -3.73642)
(0.785413 0.847408 -3.38457)
(0.844494 0.743676 -2.96549)
(1.92403 -0.267838 -1.80717)
(0.790921 0.937636 -1.04001)
(-0.581588 0.113044 -3.1308)
(-0.690339 0.378148 -3.11839)
(-0.0638513 0.607807 -2.9517)
(0.0164421 1.35543 -2.42707)
(0.971919 1.63815 -1.5057)
(0.773205 0.993142 -1.05978)
(1.09081 0.807597 -0.879128)
(-0.0551212 2.85731 2.39285)
(-0.109782 2.41285 2.20674)
(0.202978 2.36227 2.17481)
(-0.00795266 2.3787 2.00611)
(0.501698 2.73859 -0.146937)
(0.170503 2.33132 0.969139)
(0.134714 2.41385 0.669197)
(0.941388 2.88856 -0.556753)
(-0.165818 2.18911 -0.00843758)
(0.45188 1.69671 -0.625903)
(0.534173 1.8029 -1.203)
(0.232718 2.07278 -0.382974)
(0.795083 2.24239 -0.69263)
(2.02275 1.71908 -2.3385)
(-0.970971 1.14795 -0.0377001)
(-0.226225 1.20795 -0.897585)
(1.05019 1.0106 -1.93091)
(2.53373 1.54854 -2.32226)
(2.70236 1.27426 -2.12476)
(2.26203 0.478232 -2.21751)
(-0.637043 0.554544 -0.827917)
(-0.0835337 0.913502 -1.45312)
(1.24964 0.752792 -2.83592)
(2.00911 0.876449 -3.00564)
(2.32137 0.840329 -2.00208)
(2.01847 0.0391025 -1.96051)
(1.95794 -0.354903 -1.83352)
(-0.331351 0.23068 -2.16189)
(0.397782 0.277111 -3.11055)
(0.766357 0.182757 -3.56181)
(1.1436 0.871039 -2.97084)
(0.671019 0.882355 -3.06002)
(1.99522 -0.191234 -1.733)
(2.13082 -0.426297 -1.53576)
(1.29146 0.799097 -0.865461)
(-0.607752 0.115207 -3.05932)
(-0.692696 0.411154 -3.06189)
(-0.0821561 0.641932 -2.92748)
(-0.0486406 1.44799 -2.40745)
(0.937586 1.70851 -1.47667)
(0.798957 1.02652 -1.07036)
(0.9449 0.838673 -0.889909)
(2.14281 -0.0492352 -0.907168)
(0.15101 2.96787 2.46589)
(-0.298501 2.71151 2.29966)
(-0.153709 2.86654 2.46542)
(-0.126745 2.7228 2.47074)
(0.0489331 2.47647 1.89385)
(0.243227 2.30678 2.10067)
(0.015329 2.29973 2.15878)
(-0.0167835 2.45789 2.08875)
(1.02513 2.98391 -0.636444)
(0.170683 2.2611 0.97105)
(0.104497 2.23334 0.686552)
(0.856183 2.73356 -0.524154)
(1.15419 3.16862 0.0348422)
(0.529893 2.37543 -0.128243)
(0.735125 1.57937 -1.05675)
(0.772333 1.75203 -1.60312)
(0.308116 2.05009 -0.452294)
(0.982013 2.06436 -0.910852)
(2.31698 1.90063 -0.895718)
(2.21254 1.17496 -2.02592)
(-0.889197 1.26899 -0.0197401)
(-0.265348 1.15206 -0.855357)
(0.783028 0.926821 -1.69307)
(2.36334 0.980055 -2.50541)
(3.11059 1.35555 -2.05812)
(2.10846 1.25708 -1.9074)
(2.01301 0.00269117 -1.92115)
(-0.749397 0.512189 -0.755227)
(-0.191222 0.738893 -1.39088)
(0.919674 0.751219 -2.58416)
(1.85746 1.07256 -2.59729)
(2.56311 1.08399 -1.73372)
(1.99514 0.136183 -1.87292)
(1.87839 -0.549751 -1.54402)
(2.08285 -0.430683 -1.5739)
(-0.455112 0.204995 -2.02363)
(0.246441 0.296391 -2.87257)
(0.778305 0.225033 -3.32628)
(1.2158 1.00708 -2.56386)
(0.992246 0.996725 -2.76488)
(1.81858 -0.0550605 -1.82637)
(2.16511 -0.361885 -1.5536)
(1.94129 -0.762841 -1.45961)
(2.01913 -0.0473553 -0.93628)
(-0.623636 0.108115 -2.99417)
(-0.682117 0.429333 -2.99727)
(-0.0794988 0.670982 -2.90468)
(-0.00328889 1.47632 -2.41587)
(0.910083 1.74633 -1.51874)
(0.816399 1.05308 -1.07984)
(0.909622 0.858663 -0.894725)
(2.25656 -0.0548412 -0.878392)
(1.62078 -0.63138 -1.02661)
(-0.0193656 2.90036 2.75913)
(0.114948 2.89669 2.52212)
(0.609436 3.15681 2.48241)
(0.627995 2.677 2.6346)
(-0.117659 2.60449 2.45909)
(0.104426 2.96965 2.28413)
(-0.104688 2.91025 2.41964)
(0.205992 2.64933 2.45966)
(0.184129 2.77909 1.63529)
(0.292756 2.43482 2.02847)
(0.172544 2.16616 2.2462)
(0.110618 2.24967 1.99311)
(0.550977 2.78872 1.27601)
(1.40116 3.17017 -0.0842265)
(0.205014 2.23294 1.18198)
(0.000361338 2.13347 0.926885)
(0.598741 2.67843 -0.0984753)
(1.05801 3.01386 -0.0587537)
(1.87265 2.75072 -0.260285)
(2.11831 1.93985 -0.934358)
(0.711059 1.56232 -1.05527)
(0.682838 1.73244 -1.50999)
(0.506813 1.97643 -0.757927)
(0.97293 1.71434 -0.919047)
(2.47171 1.90718 -0.958747)
(3.20714 1.88799 -0.00764404)
(1.76645 1.07582 -1.13882)
(-0.703568 1.34237 -0.0810874)
(-0.290291 1.07367 -0.781861)
(0.466177 0.773992 -1.65949)
(1.87671 1.25919 -1.94993)
(3.23764 1.31162 -1.81997)
(2.53701 1.46599 -1.88961)
(1.23177 0.551376 -0.928222)
(1.6182 -0.54147 -1.61599)
(-0.833719 0.454081 -0.772884)
(-0.30478 0.646859 -1.31838)
(0.664576 0.725633 -2.32741)
(1.41422 1.20917 -2.28918)
(2.25423 1.50756 -1.60454)
(2.23435 0.246607 -1.77325)
(2.07895 -0.519675 -1.44227)
(1.78054 -0.489145 -1.06307)
(1.86109 -0.820928 -1.4569)
(-0.564132 0.185788 -1.93271)
(0.0832707 0.330573 -2.66269)
(0.6536 0.312128 -3.09778)
(0.957987 1.15986 -2.33685)
(1.28127 1.04535 -2.40674)
(1.4622 0.13234 -2.0593)
(2.22384 -0.306888 -1.53904)
(2.01338 -0.793892 -1.46707)
(1.12043 -1.15159 -1.41696)
(1.59653 -0.622894 -1.03028)
(-0.638056 0.0995754 -2.93376)
(-0.683467 0.456806 -2.92722)
(-0.0824705 0.693077 -2.88551)
(-0.0295583 1.52541 -2.37007)
(0.958275 1.79281 -1.48446)
(0.818586 1.0722 -1.09565)
(0.903212 0.913181 -0.916881)
(2.19527 -0.0559327 -0.918084)
(1.64114 -0.647418 -1.02979)
(1.17113 -1.36368 -1.43774)
(-0.0671506 2.93401 2.73387)
(-0.174729 2.8928 2.75415)
(0.730121 2.80181 2.71244)
(0.0658907 2.7301 2.87752)
(0.219723 2.86973 2.38378)
(0.747202 3.33263 2.40546)
(0.495356 2.92997 2.5242)
(0.440877 2.82324 2.53947)
(-0.0666506 2.59231 2.45506)
(0.706292 3.20358 1.98156)
(0.163019 2.92789 2.37592)
(0.150838 2.76646 2.53371)
(0.328636 2.6214 2.2799)
(0.690483 2.91946 1.14673)
(0.425926 2.47948 2.15942)
(0.205273 2.14093 2.17936)
(0.40282 2.16046 1.80325)
(0.192057 2.61382 1.84548)
(0.63055 3.35013 1.83777)
(1.80262 3.10773 -0.460805)
(0.0960298 2.07721 1.41585)
(-0.129743 1.96401 1.23479)
(0.474476 2.52769 0.422336)
(1.122 2.82593 -0.203831)
(1.72369 2.49125 -0.304869)
(2.62406 2.77152 0.243156)
(2.69666 1.77125 -1.02879)
(0.658654 1.54517 -0.968548)
(0.573007 1.71263 -1.25537)
(0.598993 1.94077 -0.89666)
(0.726782 1.7352 -0.898466)
(2.63121 1.42935 -0.897336)
(3.29652 2.11626 -0.739779)
(1.88011 1.53466 -1.00827)
(1.26885 0.568474 -0.967312)
(-0.32999 1.36104 -0.274302)
(-0.268767 1.02026 -0.712972)
(0.0464643 0.80772 -1.53596)
(1.37643 1.08065 -1.56005)
(2.93568 1.41236 -1.25396)
(2.93724 1.60975 -1.51461)
(1.61371 0.672247 -1.00338)
(0.823314 0.473224 -1.19872)
(1.68628 -0.458963 -1.06205)
(-0.844765 0.38844 -0.869831)
(-0.376096 0.554968 -1.31467)
(0.391102 0.655851 -2.11801)
(1.06883 1.39492 -2.01416)
(1.88134 1.60677 -1.49655)
(2.48665 0.332784 -2.01897)
(2.25251 -0.616294 -1.31114)
(1.88005 -0.60607 -1.03968)
(1.28472 -0.384324 -1.01415)
(1.09606 -1.14324 -1.42783)
(-0.665749 0.175491 -1.85584)
(-0.0666057 0.372076 -2.47359)
(0.496065 0.398197 -2.91774)
(0.747823 1.31131 -2.17732)
(1.20284 1.12235 -2.18391)
(1.01133 0.375879 -2.39578)
(2.25763 -0.238807 -1.53756)
(2.09772 -0.799718 -1.45621)
(1.19996 -1.15039 -1.36658)
(0.49445 -1.01515 -1.21628)
(1.13103 -1.3393 -1.47866)
(-0.647582 0.0905713 -2.87979)
(-0.698083 0.461839 -2.8587)
(-0.0994651 0.715781 -2.86713)
(-0.0451284 1.56163 -2.32879)
(0.973634 1.77567 -1.47695)
(0.82608 1.09559 -1.11187)
(0.939067 0.935658 -0.929994)
(1.97665 -0.0322255 -1.00748)
(1.6728 -0.66785 -1.02312)
(1.23321 -1.34641 -1.42336)
(0.619204 -1.63211 -1.51089)
(-0.0562087 2.85322 2.50848)
(-0.142656 2.94236 2.70366)
(0.276235 2.80045 2.7796)
(0.288538 2.84741 2.7504)
(0.0657032 2.91983 2.74389)
(0.356304 2.82027 2.65795)
(0.349511 2.67304 2.85936)
(0.269714 2.91726 2.66501)
(0.460637 2.66544 2.64793)
(0.716548 3.2924 2.50417)
(0.366129 2.88075 2.70704)
(0.620419 2.843 2.5001)
(0.370059 2.84287 2.50832)
(0.354703 2.65848 2.22968)
(0.549955 2.91938 2.44807)
(0.460774 2.94744 2.27433)
(0.309189 2.93383 2.37488)
(0.421791 2.58007 2.56559)
(0.722404 2.9202 2.4083)
(1.02175 3.57817 1.33146)
(0.529824 2.46247 2.19519)
(0.362209 2.14419 2.18096)
(0.430571 2.16436 1.74936)
(-0.0277394 2.3844 2.31222)
(0.393731 2.94006 1.82606)
(1.43168 3.19784 1.42156)
(2.46497 2.98999 0.169983)
(-0.126988 1.81867 1.46381)
(-0.141817 1.85591 1.03006)
(0.26008 2.29828 0.681283)
(1.17837 2.59373 -0.334565)
(1.60437 2.31561 -0.315242)
(2.80259 2.33227 0.110583)
(2.90739 2.37437 -0.141366)
(1.53122 1.27196 -0.687286)
(0.617557 1.55353 -0.961195)
(0.57466 1.69506 -1.15362)
(0.577982 1.91301 -1.04229)
(0.64857 1.69131 -0.99269)
(2.03141 1.50309 -0.714236)
(3.42426 2.04704 -0.520296)
(2.63541 1.59062 -0.816068)
(1.18798 1.28987 -0.820203)
(0.765003 0.501655 -1.38503)
(-0.129186 1.304 -0.411903)
(-0.235657 0.968832 -0.801057)
(-0.115718 0.804415 -1.43407)
(0.781268 1.26177 -1.11907)
(2.36445 1.54507 -1.06362)
(3.06091 1.64593 -1.28405)
(2.03401 0.836697 -1.3679)
(0.871815 0.428643 -0.989878)
(0.530616 0.472397 -1.33188)
(1.12373 -0.308971 -1.07924)
(-0.879503 0.352617 -0.905103)
(-0.419148 0.488031 -1.35121)
(0.116305 0.71653 -1.9213)
(0.627115 1.53 -1.82968)
(1.70066 1.74092 -1.08613)
(2.64103 0.36295 -2.23832)
(2.36834 -0.49006 -1.12276)
(2.07627 -0.674976 -0.977279)
(1.47002 -0.441492 -0.95137)
(0.930894 -0.114445 -1.07909)
(0.52353 -1.06538 -1.20571)
(-0.747001 0.162986 -1.80464)
(-0.205388 0.42263 -2.30632)
(0.352083 0.478851 -2.77932)
(0.555729 1.44879 -2.07028)
(1.11344 1.13814 -1.96177)
(0.831442 0.509746 -2.46889)
(2.2037 -0.12035 -1.54284)
(2.06823 -0.758495 -1.54604)
(1.25276 -1.12451 -1.34385)
(0.619622 -1.02391 -1.12355)
(0.199483 -0.825578 -1.03915)
(0.598896 -1.63421 -1.51515)
(-0.660226 0.0801689 -2.83182)
(-0.651615 0.467452 -2.8029)
(-0.0820494 0.763055 -2.84161)
(-0.0695476 1.59798 -2.29856)
(1.02227 1.79189 -1.45157)
(0.874888 1.08342 -1.11231)
(0.957271 0.969026 -0.935045)
(1.76601 0.0240875 -1.07847)
(1.72312 -0.679232 -1.004)
(1.23331 -1.35013 -1.44998)
(0.625697 -1.64399 -1.49845)
(-0.0571297 -1.62334 -1.21517)
(-0.0800347 2.83772 2.47775)
(-0.297232 2.8901 2.48792)
(0.0651328 2.78856 2.53886)
(0.14806 2.78226 2.48573)
(0.0139661 2.8351 2.71477)
(0.385336 2.68882 2.82692)
(0.379189 2.73083 2.80814)
(0.575997 2.88525 2.49248)
(0.0820399 2.93159 2.61924)
(0.567944 2.89867 2.53771)
(0.438236 2.66022 2.8476)
(0.410779 2.81043 2.66818)
(0.677093 2.9227 2.40432)
(0.408695 2.73612 2.56977)
(0.835853 3.2635 2.52972)
(0.94111 2.94446 2.5453)
(0.723814 2.8767 2.43267)
(0.589406 2.83155 2.55266)
(0.768431 2.81455 2.44124)
(0.961898 3.04417 2.28443)
(1.06448 3.18959 1.98496)
(1.06319 3.14562 1.98663)
(0.437018 2.86926 2.37149)
(0.537071 2.69901 2.64119)
(0.724393 2.79217 2.3886)
(1.44934 3.33385 1.86539)
(1.38914 3.34521 1.3544)
(0.646153 2.48104 2.06802)
(0.740112 2.18453 2.12325)
(0.549444 2.14902 1.88433)
(0.187982 2.37599 2.10498)
(1.29018 2.76454 1.08776)
(1.40683 3.17164 1.56041)
(2.19139 3.09785 0.621026)
(2.09076 2.36579 0.325861)
(0.343473 1.93844 0.987595)
(-0.000893551 1.75413 1.19003)
(0.10061 2.13253 0.842463)
(1.29493 2.224 -0.488099)
(1.58419 2.08222 -0.360624)
(2.41656 2.45965 0.427028)
(3.12344 2.54716 0.117385)
(2.45039 2.25567 0.766289)
(0.84915 1.01829 -0.783755)
(0.583415 1.50492 -1.0242)
(0.532738 1.66169 -1.28236)
(0.463474 2.04128 -0.904021)
(0.520966 1.63916 -0.919046)
(1.50063 1.50472 -0.582411)
(3.06287 1.97678 -0.401022)
(3.31928 1.69988 -0.39379)
(1.78393 1.45823 -0.98757)
(1.16148 1.27913 -1.4147)
(0.396979 0.496375 -1.41465)
(-0.0663952 1.28179 -0.490112)
(-0.175183 0.860205 -1.11903)
(-0.177116 0.756135 -1.43494)
(0.391333 1.40944 -0.86176)
(1.85681 1.521 -0.933964)
(2.97689 1.8265 -0.987214)
(2.69728 0.836199 -1.16104)
(0.886557 0.498728 -0.824234)
(0.509119 0.503016 -1.23872)
(0.286568 0.606209 -1.42587)
(0.776291 -0.0704884 -1.16131)
(-0.862231 0.310497 -0.958382)
(-0.560289 0.491951 -1.31541)
(-0.0957352 0.735183 -1.81221)
(0.38179 1.66544 -1.48457)
(1.49639 1.88702 -0.870795)
(2.63939 0.599747 -2.02788)
(2.16143 -0.347141 -1.41577)
(2.23171 -0.907334 -0.944574)
(1.61277 -0.528293 -0.937466)
(1.11383 -0.185025 -0.959364)
(0.449952 0.0565659 -1.45985)
(0.136126 -0.828506 -1.08259)
(-0.813288 0.151218 -1.76552)
(-0.336666 0.47583 -2.17746)
(0.21868 0.552422 -2.67385)
(0.401167 1.57988 -1.98075)
(1.10986 1.18767 -1.75158)
(0.866952 0.701226 -2.13277)
(1.91645 0.0361673 -1.43352)
(2.06443 -0.729528 -1.59235)
(1.32968 -1.09727 -1.29778)
(0.540747 -1.05554 -1.10891)
(0.338678 -0.832494 -0.96412)
(-0.0510478 -0.964369 -1.31063)
(-0.0163333 -1.63585 -1.23149)
(-0.675413 0.0724223 -2.78874)
(-0.659373 0.45794 -2.7504)
(-0.108571 0.743368 -2.82732)
(-0.0910025 1.62741 -2.26806)
(0.964571 1.85377 -1.48842)
(0.90195 1.06116 -1.11265)
(0.969254 0.999851 -0.932022)
(1.58052 0.085 -1.12852)
(1.76748 -0.717747 -1.01138)
(1.21713 -1.37346 -1.46271)
(0.687742 -1.6224 -1.48893)
(-0.0775141 -1.60569 -1.19136)
(-0.295333 -1.58668 -0.884014)
(-0.0636683 2.68239 2.52948)
(-0.203483 2.84907 2.45185)
(0.140192 2.75855 2.52497)
(0.21338 2.72802 2.41813)
(0.065832 2.82348 2.45082)
(0.364834 2.75054 2.6214)
(0.271804 2.70516 2.51777)
(0.284696 2.82837 2.37044)
(0.41066 2.89385 2.4782)
(0.602295 2.68329 2.76511)
(0.377545 2.68081 2.80031)
(0.528216 2.79483 2.59126)
(0.859495 2.86809 2.28933)
(0.567081 2.92058 2.35891)
(0.537638 2.91851 2.46459)
(0.661002 2.69003 2.79183)
(0.401471 2.74634 2.73685)
(0.721706 2.9815 2.37997)
(0.944683 2.93345 2.29111)
(0.530715 2.83932 2.57594)
(1.13804 3.09422 2.48081)
(1.05712 2.9816 2.54812)
(0.753276 2.85016 2.44182)
(0.764279 2.96071 2.42009)
(0.853631 2.7804 2.4095)
(1.49515 3.16706 2.12175)
(1.33856 3.50988 1.94131)
(0.914351 3.20456 2.14808)
(1.10816 2.985 2.28223)
(0.806866 3.16715 1.95918)
(0.916795 2.77346 2.42752)
(1.05715 2.59071 2.32212)
(2.20759 2.92369 1.08456)
(1.88706 3.16409 1.13239)
(1.52016 3.34321 0.68261)
(0.9339 2.60328 1.84005)
(0.948967 2.27537 2.00725)
(0.745017 2.20285 1.95265)
(0.386972 2.19334 1.95415)
(0.769122 2.43277 1.80939)
(3.1294 2.00783 0.100823)
(2.50695 2.85872 0.720753)
(2.09889 3.13008 0.978456)
(1.89259 1.97336 0.711426)
(0.246824 1.72034 1.37218)
(-0.126813 1.90373 1.3839)
(0.127142 2.08238 1.03533)
(1.04451 2.16083 -0.0566526)
(1.41294 1.96236 -0.242171)
(2.57985 2.00024 -0.0454299)
(3.50522 2.36294 0.0802906)
(3.10327 2.20979 0.712117)
(1.68533 2.35333 0.576526)
(0.523506 1.2669 -1.30972)
(0.575599 1.42212 -1.18943)
(0.50114 1.62423 -1.48317)
(0.29439 2.09975 -0.765051)
(0.296078 2.00577 -0.39755)
(0.914905 1.64116 -0.460491)
(2.70233 2.11306 -0.141237)
(3.64701 1.83462 -0.334681)
(2.33699 1.7111 -0.752652)
(1.36992 1.3249 -1.5195)
(0.949702 1.32853 -2.39251)
(0.297191 0.625903 -1.57858)
(-0.0431082 1.24863 -0.628272)
(-0.116003 0.791367 -1.30563)
(-0.289878 0.815862 -1.3922)
(0.156587 1.48167 -0.828192)
(1.39414 1.57316 -0.796699)
(2.73077 1.62632 -1.172)
(3.27194 0.780055 -0.799068)
(1.64352 0.466201 -0.493262)
(0.702256 0.473272 -1.02386)
(0.508352 0.627512 -1.19614)
(0.250458 0.744885 -1.70766)
(0.318586 0.0910296 -1.58364)
(-0.881499 0.268197 -0.969057)
(-0.658646 0.508925 -1.32558)
(-0.265192 0.764913 -1.75277)
(0.257392 1.75069 -1.24256)
(1.23655 1.973 -1.00534)
(2.45574 0.602791 -1.87237)
(1.87062 -0.0594288 -2.39588)
(2.41254 -0.835691 -1.01317)
(1.76441 -0.614996 -0.896184)
(1.30446 -0.254413 -0.883007)
(0.545597 0.0443611 -1.35359)
(-0.0205342 0.235079 -1.61766)
(-0.116601 -0.959449 -1.29499)
(-0.884126 0.145804 -1.72081)
(-0.458938 0.532639 -2.07002)
(0.110893 0.618241 -2.59333)
(0.313412 1.66607 -1.90905)
(0.993083 1.25887 -1.70829)
(0.962892 0.741951 -1.69731)
(1.49056 0.270886 -1.47778)
(2.13877 -0.642818 -1.58185)
(1.39613 -1.07583 -1.25119)
(0.807407 -0.957641 -0.998438)
(0.36061 -0.82501 -0.951229)
(0.0264163 -0.963553 -1.33238)
(-0.234274 -1.04813 -1.32435)
(-0.263328 -1.58073 -0.88798)
(-0.692657 0.0649012 -2.75096)
(-0.683938 0.47625 -2.7005)
(-0.0196504 0.742445 -2.8144)
(-0.0970431 1.66643 -2.24215)
(0.998578 1.86843 -1.46129)
(0.857371 1.09127 -1.12326)
(0.984503 1.00747 -0.933369)
(1.46541 0.147141 -1.15586)
(1.8387 -0.739183 -1.04812)
(1.23636 -1.37841 -1.46653)
(0.741884 -1.6372 -1.5046)
(-0.0972559 -1.5858 -1.16494)
(-0.324916 -1.55858 -0.895037)
(-0.0491971 -1.59684 -0.545109)
(0.0725153 2.52069 2.49548)
(-0.0354328 2.69099 2.53715)
(0.0382757 2.70312 2.52425)
(0.300641 2.6425 2.47765)
(0.145818 2.74942 2.3954)
(0.412982 2.72723 2.51401)
(0.317536 2.71577 2.45561)
(0.360188 2.76524 2.33064)
(0.173561 2.84558 2.34533)
(0.534473 2.72677 2.61595)
(0.527389 2.74716 2.524)
(0.698765 2.62772 2.50147)
(0.788889 2.69422 2.36807)
(0.646671 2.88664 2.27187)
(0.660826 2.65583 2.73224)
(0.952372 2.54793 2.77898)
(0.882279 2.62141 2.61649)
(0.908752 2.88915 2.268)
(0.90853 2.92811 2.2723)
(0.845112 2.89627 2.37964)
(0.767154 2.81845 2.44421)
(0.789479 2.69462 2.6974)
(0.593921 2.67661 2.79071)
(0.892499 2.91708 2.40066)
(1.04435 2.88868 2.31861)
(1.09125 3.168 2.257)
(1.00054 3.60048 2.06361)
(1.12275 3.08662 2.4999)
(1.04148 2.95776 2.56383)
(0.948408 2.78712 2.49979)
(0.931293 2.92077 2.29551)
(1.15977 2.81371 2.29319)
(1.61461 2.95738 1.84462)
(1.80711 3.27624 1.88442)
(2.02981 3.37799 0.893974)
(0.766228 3.15005 2.32038)
(1.29775 2.98 2.22387)
(0.767444 2.95219 2.40717)
(1.12493 2.86449 2.22594)
(1.30959 2.57264 2.29459)
(1.50124 2.49913 2.10078)
(2.24753 3.1119 0.665634)
(2.65605 3.26121 0.168144)
(1.46804 3.17579 0.931648)
(0.441895 2.53752 2.35775)
(1.00124 2.37122 1.9727)
(0.990072 2.07224 2.09503)
(0.448126 2.03499 1.97771)
(1.02699 2.25897 1.68564)
(0.582937 2.69254 1.68615)
(2.68644 2.66722 0.604517)
(2.45046 3.21104 0.794176)
(1.64279 3.14777 -0.291645)
(1.2471 2.51437 0.120765)
(0.178042 1.88248 0.918308)
(0.0536336 1.86819 1.56487)
(0.0675633 2.17434 1.42693)
(0.902592 2.13702 0.294811)
(1.39398 2.0131 -0.0956479)
(2.07873 1.91267 -0.0558905)
(3.64188 2.27604 0.0489984)
(3.33431 2.29802 0.339959)
(2.12684 2.27564 0.250089)
(1.10331 2.83744 -0.618106)
(0.265256 1.37108 -2.12619)
(0.616237 1.33024 -1.20323)
(0.524009 1.62404 -1.49357)
(0.25516 2.15806 -0.491235)
(0.441471 1.93222 -0.741989)
(0.75589 1.61742 -0.419744)
(2.24689 2.16303 -0.321893)
(3.63446 2.04542 0.0790908)
(3.20778 1.66942 -0.0350438)
(1.33027 1.31889 -1.55282)
(1.25603 1.39533 -2.47472)
(-0.119866 1.72062 -2.10024)
(0.109704 0.816462 -1.73294)
(-0.0539149 1.25129 -0.670427)
(-0.0421572 0.734659 -1.41338)
(-0.329577 0.823724 -1.3908)
(-0.0902243 1.69333 -0.652939)
(1.02252 1.64885 -0.822973)
(2.54872 1.60558 -0.814878)
(3.49101 0.946523 -0.852844)
(2.23116 0.491788 -0.706566)
(0.921901 0.406008 -0.82573)
(0.720879 0.604433 -1.08962)
(0.414785 0.731414 -1.66288)
(-0.253315 1.05763 -1.71262)
(-0.215133 0.260922 -1.67471)
(-0.9065 0.275738 -0.92822)
(-0.745442 0.544845 -1.3201)
(-0.373492 0.819077 -1.68956)
(0.155425 1.80792 -1.16869)
(0.918553 2.1079 -1.07055)
(2.45169 0.555158 -1.44296)
(1.78006 0.00980687 -3.14904)
(2.361 -0.996719 -1.01757)
(1.93764 -0.730196 -0.832085)
(1.45268 -0.301172 -0.793325)
(0.77418 -0.055625 -1.18802)
(0.151869 0.189517 -1.59632)
(-0.00528922 0.331234 -1.94096)
(-0.279494 -1.06222 -1.26208)
(-0.933029 0.131298 -1.69754)
(-0.560764 0.584116 -1.9807)
(0.0235658 0.662171 -2.53438)
(0.221621 1.77042 -1.82639)
(0.911913 1.32356 -1.70329)
(1.03129 0.820644 -1.27391)
(1.11622 0.507011 -1.55449)
(2.24863 -0.644749 -1.42159)
(1.47753 -1.03989 -1.20225)
(0.929159 -0.976418 -0.941707)
(0.512545 -0.871881 -0.84001)
(0.0981155 -0.977666 -1.34476)
(-0.134985 -1.02384 -1.40648)
(0.00602813 -0.87128 -1.24711)
(-0.0286199 -1.61365 -0.522592)
(-0.705925 0.0604692 -2.72096)
(-0.706311 0.492416 -2.65783)
(0.00162732 0.71748 -2.8094)
(-0.10826 1.67511 -2.23118)
(1.02788 1.86662 -1.42113)
(0.915612 1.09086 -1.11233)
(1.00674 0.994396 -0.930306)
(1.45197 0.182977 -1.16125)
(1.86184 -0.774508 -1.16985)
(1.25765 -1.3931 -1.46614)
(0.768359 -1.65008 -1.52017)
(-0.143291 -1.55714 -1.14636)
(-0.255378 -1.55824 -0.891321)
(-0.0522802 -1.57919 -0.548791)
(0.251455 -1.6614 -0.271352)
(0.0526564 2.47885 2.49251)
(-0.0300692 2.56004 2.49745)
(0.215773 2.56568 2.45767)
(0.116358 2.49007 2.49377)
(-0.0463206 2.67166 2.49801)
(0.445396 2.63756 2.47517)
(0.312849 2.63304 2.48437)
(0.381237 2.66474 2.44187)
(0.239037 2.7611 2.36584)
(0.701621 2.65989 2.54886)
(0.581463 2.66465 2.49861)
(0.413967 2.7016 2.38829)
(0.626408 2.64844 2.40389)
(0.635704 2.7755 2.31842)
(0.752794 2.6622 2.61748)
(0.70516 2.71685 2.59352)
(0.514053 2.65041 2.52008)
(0.857463 2.66048 2.38044)
(0.862385 2.74982 2.39153)
(0.773213 2.94683 2.20955)
(0.904641 2.67106 2.67353)
(0.895628 2.51713 2.73181)
(0.761876 2.68744 2.57193)
(0.933065 2.82902 2.27807)
(0.919581 2.89777 2.334)
(1.07286 3.01319 2.23411)
(0.823994 3.24345 2.25357)
(1.03712 2.74342 2.45618)
(1.02885 2.71529 2.50177)
(0.730809 2.67629 2.74475)
(0.933807 2.86578 2.43956)
(1.25757 2.79706 2.30237)
(1.35341 2.92913 2.21015)
(1.38955 3.25934 2.29838)
(1.48099 3.39028 2.19053)
(1.24073 3.16231 2.51072)
(1.05122 2.91591 2.48395)
(0.979688 2.76966 2.58524)
(1.13088 2.87322 2.20028)
(1.22436 2.80251 2.29526)
(1.15633 2.78933 2.46766)
(2.08495 3.1449 1.60694)
(1.6772 3.19483 2.12491)
(2.14866 3.61468 0.270733)
(1.60309 3.07519 2.12403)
(0.90737 3.06644 2.36142)
(1.16295 2.99484 2.36392)
(1.37197 2.84486 2.14594)
(1.44265 2.70996 2.057)
(1.41193 2.63626 2.21684)
(1.61769 2.77287 2.06852)
(2.24338 3.23217 1.03242)
(1.8488 3.61972 -0.129686)
(1.33773 3.25086 0.306182)
(0.937834 2.53248 2.07)
(0.945442 2.36977 2.02646)
(1.39082 2.24719 1.88809)
(0.909934 2.10527 1.85664)
(0.949158 2.22302 1.78076)
(1.53218 1.99949 1.03234)
(2.26912 2.27677 1.04332)
(3.00359 2.69198 1.12321)
(2.10115 3.04282 0.456348)
(1.19661 3.27084 -0.566632)
(0.359746 2.94181 -0.904708)
(0.197206 1.77508 1.17637)
(0.116849 1.90536 1.5904)
(0.0810085 2.19851 1.67654)
(0.737104 2.12439 0.615735)
(1.38218 2.15267 0.125926)
(1.47382 1.89471 0.464895)
(3.56042 1.86281 0.197218)
(3.57736 2.4415 1.0605)
(2.505 2.30231 -0.424439)
(1.39178 2.70735 -0.673211)
(0.725556 3.11782 -0.755676)
(-0.421987 1.62773 -2.16863)
(0.556324 1.23669 -1.01645)
(0.515496 1.64432 -1.24484)
(0.330052 2.23638 -0.124941)
(0.263538 2.15986 -0.369355)
(0.542338 1.8107 -0.468316)
(1.8527 2.01403 -0.437374)
(3.49336 1.83272 0.373902)
(3.51297 1.60383 0.0814529)
(1.7184 1.39489 -1.04202)
(1.31198 1.45056 -2.40087)
(1.21397 1.88007 -1.90222)
(-0.465862 1.91451 -1.98455)
(-0.392222 1.08482 -1.69806)
(-0.119941 1.259 -0.631386)
(-0.0476069 0.700167 -1.45614)
(-0.37233 0.89495 -1.3433)
(-0.148815 1.69936 -0.759887)
(0.656001 1.72028 -0.971565)
(2.30092 1.54457 -0.826122)
(3.55712 1.14098 -0.5181)
(2.76704 0.491845 -0.836494)
(1.0404 0.387437 -0.76964)
(1.22422 0.467414 -1.06062)
(0.550639 0.775089 -1.65431)
(0.0212564 0.993854 -1.87417)
(-0.254561 1.2876 -2.05544)
(-0.146053 0.354337 -1.95148)
(-0.942874 0.285866 -0.90119)
(-0.79946 0.585335 -1.29479)
(-0.48999 0.866356 -1.64496)
(0.0747196 1.86263 -1.11143)
(0.911769 2.07898 -1.00382)
(2.29906 0.614419 -1.12979)
(2.3486 0.209709 -2.59407)
(2.10529 -0.571489 -1.20938)
(2.05548 -0.799907 -0.78695)
(1.63816 -0.410204 -0.614347)
(0.838704 -0.0875666 -1.11556)
(0.35822 0.149479 -1.60637)
(0.213649 0.270655 -1.95681)
(0.137959 0.494293 -2.43593)
(-0.0597341 -0.874944 -1.19424)
(-0.918188 0.102448 -1.7246)
(-0.645401 0.627451 -1.90433)
(-0.0710607 0.67902 -2.47218)
(0.240387 1.78257 -1.82039)
(0.764658 1.45558 -1.69236)
(1.07633 0.900848 -0.957588)
(0.832566 0.80913 -1.47594)
(2.31993 -0.619118 -1.00441)
(1.55904 -1.01432 -1.22555)
(1.09653 -0.980308 -0.856134)
(0.609208 -0.894662 -0.789414)
(0.160292 -1.00209 -1.35608)
(-0.031725 -0.988394 -1.50297)
(0.0858782 -0.870595 -1.32814)
(0.60885 -0.349902 -1.83925)
(0.182107 -1.67999 -0.333958)
(-0.721194 0.0570367 -2.69328)
(-0.726195 0.501409 -2.62059)
(0.0596114 0.669995 -2.81164)
(-0.0855955 1.69262 -2.23957)
(1.04272 1.87614 -1.40214)
(0.927301 1.08911 -1.11829)
(1.03538 0.983394 -0.926831)
(1.48828 0.190775 -1.14855)
(1.80188 -0.758339 -1.3455)
(1.26792 -1.41288 -1.47992)
(0.729298 -1.62132 -1.52349)
(-0.13593 -1.53658 -1.11716)
(-0.248546 -1.52134 -0.904614)
(-0.0655011 -1.56029 -0.560231)
(0.236104 -1.63175 -0.254948)
(0.703245 -1.32861 -0.919388)
(0.133683 2.2107 2.62147)
(-0.0172534 2.54131 2.39724)
(0.239487 2.47903 2.4558)
(0.162586 2.43516 2.45663)
(0.230534 2.6595 2.376)
(0.440767 2.57031 2.43766)
(0.3146 2.56064 2.42052)
(0.349925 2.49196 2.50428)
(0.27385 2.66106 2.47466)
(0.657188 2.48036 2.48056)
(0.473719 2.61669 2.47174)
(0.405338 2.63771 2.47968)
(0.471961 2.59366 2.47888)
(0.45256 2.74711 2.33767)
(0.768055 2.66497 2.52875)
(0.883229 2.58727 2.52439)
(0.861383 2.57363 2.44302)
(0.865553 2.54753 2.39217)
(0.866283 2.54678 2.41132)
(0.780075 2.77885 2.29484)
(0.829936 2.65781 2.61706)
(0.898239 2.64696 2.54405)
(0.848204 2.64149 2.54752)
(0.847122 2.62888 2.40613)
(0.823208 2.75026 2.41804)
(1.09748 2.81779 2.31977)
(1.07397 2.84699 2.34656)
(1.14926 2.67027 2.64586)
(1.03636 2.41017 2.72977)
(1.34374 2.42859 2.56985)
(1.03414 2.77508 2.2926)
(1.0818 2.80042 2.27309)
(1.18993 2.96071 2.28638)
(1.31414 3.03874 2.30424)
(1.10341 3.36427 2.44451)
(1.11309 2.78322 2.4065)
(0.882286 2.84501 2.36399)
(0.887474 2.72409 2.61016)
(0.980948 2.68845 2.55441)
(1.30451 2.74609 2.3172)
(1.31872 2.91096 2.2409)
(1.63531 3.09041 2.17754)
(1.87694 3.16948 2.36475)
(1.56636 3.41539 2.32127)
(1.20994 3.12012 2.56838)
(1.26431 2.92578 2.56778)
(1.37223 2.58518 2.56169)
(1.27099 2.69824 2.29551)
(1.26972 2.81143 2.22966)
(1.18905 2.93821 2.35123)
(1.55246 2.9156 2.37884)
(2.02317 2.97841 1.76297)
(1.77031 3.37253 1.46798)
(1.72007 3.61569 -0.185186)
(1.36137 3.14105 2.30123)
(1.13234 3.15856 2.25948)
(1.02812 3.04242 2.4702)
(1.27319 2.91613 2.18017)
(1.55001 2.48397 2.23525)
(1.92195 1.82173 2.39878)
(1.87916 2.30729 1.65266)
(2.24726 2.66191 1.47382)
(1.89863 3.58431 0.388737)
(1.15676 3.67105 -0.216473)
(0.751673 3.19226 -0.646677)
(0.819292 2.46367 2.15773)
(0.864037 2.533 2.16408)
(1.08126 2.34728 2.10496)
(0.786611 2.07509 2.14589)
(0.93161 2.21945 2.03745)
(1.2391 2.12891 1.25063)
(2.17675 2.0045 0.805042)
(3.19892 2.53373 1.03005)
(2.50043 2.85009 0.432682)
(1.4876 3.27429 -0.306549)
(0.835296 3.3121 -0.629184)
(-0.278746 2.85639 -1.02845)
(0.240938 1.89292 1.2303)
(0.279328 1.93764 1.95118)
(0.222855 2.18801 1.87619)
(0.573311 2.14146 1.18707)
(1.3326 2.16293 0.345296)
(0.976764 2.03316 0.789036)
(2.64437 2.24924 0.686575)
(3.73231 2.5848 1.20851)
(3.02324 2.19103 0.690989)
(2.50473 2.58667 -0.264051)
(1.25581 3.06222 -1.04212)
(-0.199052 2.76451 -1.2684)
(-0.720139 1.88218 -1.92791)
(0.543585 1.3372 -0.435427)
(0.467969 1.73139 -0.845121)
(0.394626 2.27734 -0.00222115)
(0.357653 2.16291 -0.40704)
(0.406836 1.94742 -0.53407)
(1.3051 2.24156 0.0343527)
(3.14846 1.95243 -0.106591)
(3.5185 1.76244 0.131759)
(2.76691 1.32382 -0.12577)
(1.86662 1.60052 -1.16328)
(1.70425 1.95145 -1.58674)
(-0.0191799 2.02057 -1.93367)
(-0.472505 2.24783 -1.66606)
(-0.492406 1.29354 -2.00183)
(-0.131863 1.22032 -0.616119)
(-0.0887137 0.681856 -1.48876)
(-0.429642 0.965262 -1.37013)
(-0.155915 1.78271 -0.759153)
(0.539144 1.73761 -1.00823)
(2.05487 1.45875 -0.726601)