/*--------------------------------*- C++ -*----------------------------------*\
  =========                 |
  \\      /  F ield         | OpenFOAM: The Open Source CFD Toolbox
   \\    /   O peration     | Website:  https://openfoam.org
    \\  /    A nd           | Version:  7
     \\/     M anipulation  |
\*---------------------------------------------------------------------------*/
FoamFile
{
    version     2.0;
    format      ascii;
    class       volVectorField;
    location    "2.5";
    object      U_0;
}
// * * * * * * * * * * * * * * * * * * * * * * * * * * * * * * * * * * * * * //

dimensions      [0 1 -1 0 0 0 0];

internalField   nonuniform List<vector> 
18720
(
(-0.284091 0.0963902 -3.38147)
(0.0919604 0.676047 -2.88057)
(-0.231399 0.101907 -3.37258)
(-0.32535 0.0933155 -3.37958)
(-0.303868 0.216883 -3.2545)
(-0.502312 1.11971 -1.00076)
(0.114693 0.755327 -2.93618)
(0.0714973 0.593144 -2.82579)
(0.308936 0.392655 -3.47354)
(-0.204557 0.208499 -3.24841)
(-0.384397 0.0940114 -3.35733)
(-0.394277 0.23558 -3.253)
(0.413051 0.486291 -3.02714)
(-0.778691 1.02409 -0.567184)
(-0.360403 1.26806 -1.01299)
(-0.520577 0.967429 -0.941306)
(0.39028 1.38016 -2.24735)
(0.31087 0.388035 -3.44578)
(0.0505312 0.499345 -2.76147)
(0.30396 0.40512 -3.48732)
(0.693832 -0.0882371 -3.56519)
(0.572864 0.485805 -3.03671)
(-0.436607 0.0991663 -3.31851)
(-0.457539 0.253641 -3.2436)
(0.263923 0.500533 -3.01811)
(0.118685 1.238 -2.48769)
(-0.381867 1.84965 0.889481)
(-0.814018 1.04 -0.77762)
(-0.729431 0.976746 -0.416528)
(-0.0807979 1.53255 -0.972751)
(0.314675 1.84481 -1.92082)
(-0.515547 0.896097 -0.864753)
(0.193382 1.29278 -1.90171)
(1.3509 0.99028 -3.10764)
(0.701616 -0.113201 -3.51225)
(-0.00400276 0.40849 -2.67104)
(0.33388 0.377294 -3.51235)
(0.652574 0.04298 -3.62347)
(1.09443 0.584532 -3.40257)
(0.119235 1.20834 -2.50262)
(-0.486042 0.105844 -3.26535)
(-0.55084 0.291397 -3.21461)
(0.127336 0.524726 -3.00586)
(0.100903 1.29935 -2.47523)
(0.950533 1.65154 -1.46824)
(0.0480814 2.49933 0.732084)
(-0.33597 1.85145 0.783644)
(-0.213364 1.88173 0.439951)
(-0.106734 1.9589 -0.179455)
(-0.049977 1.67449 -0.967341)
(-0.713588 0.958487 -0.393677)
(-0.0836594 1.34731 -1.03547)
(1.22102 1.54022 -1.97506)
(1.18536 0.893525 -3.08428)
(-0.473882 0.778014 -0.960203)
(0.136075 1.26658 -1.65518)
(1.45037 0.805512 -3.23551)
(1.59835 0.498542 -2.98276)
(1.35562 0.50341 -3.24998)
(-0.0926055 0.3387 -2.52307)
(0.368145 0.338903 -3.49765)
(0.479556 0.0343872 -3.7424)
(0.743503 0.611215 -3.54868)
(1.37189 0.582769 -2.63875)
(0.939534 1.6683 -1.41166)
(-0.535782 0.113985 -3.20067)
(-0.609967 0.330929 -3.17639)
(0.0155172 0.557278 -2.98584)
(0.0855702 1.31209 -2.46764)
(0.984288 1.69788 -1.40303)
(0.772643 0.946223 -1.04834)
(-0.0413263 2.51925 2.04874)
(0.000371966 2.56702 0.562791)
(0.0771106 2.50903 0.735306)
(0.245559 2.64176 0.517479)
(-0.390128 1.98288 0.11603)
(0.122839 1.82177 -0.129517)
(0.0186666 1.91413 -0.397109)
(-0.0516737 2.18183 -0.0963162)
(1.13982 1.82829 -1.88147)
(-0.869303 1.01006 -0.248105)
(-0.17847 1.25176 -0.94824)
(1.11972 1.3287 -1.99647)
(2.33737 1.48152 -2.35576)
(1.44211 0.275769 -3.14476)
(-0.458271 0.602898 -1.02015)
(0.132502 0.93608 -1.70876)
(1.47595 0.837193 -3.08423)
(1.78274 0.643926 -3.19104)
(2.00763 0.588054 -2.2708)
(1.64233 0.486209 -2.42173)
(-0.196658 0.279722 -2.33549)
(0.408674 0.313524 -3.32832)
(0.532852 0.139063 -3.74736)
(0.774096 0.816864 -3.42131)
(0.877792 0.724096 -2.96164)
(1.9225 -0.286607 -1.82459)
(0.811412 0.93453 -1.04586)
(-0.573186 0.114249 -3.12974)
(-0.681043 0.374511 -3.12517)
(-0.0570372 0.595184 -2.95981)
(0.0407454 1.32932 -2.43111)
(0.976824 1.63672 -1.49501)
(0.777917 0.989497 -1.06211)
(1.12501 0.798764 -0.882952)
(-0.0505705 2.85365 2.39057)
(-0.104618 2.41858 2.20676)
(0.191971 2.36974 2.17369)
(-0.00494097 2.38564 2.00632)
(0.527431 2.74506 -0.183052)
(0.178986 2.33728 0.960732)
(0.146023 2.42848 0.667906)
(0.954727 2.89319 -0.548441)
(-0.157841 2.18642 -0.00611047)
(0.427212 1.71137 -0.567771)
(0.514203 1.81312 -1.15184)
(0.223214 2.07864 -0.360179)
(0.777213 2.2484 -0.657988)
(2.00914 1.73547 -2.31423)
(-0.973194 1.14451 -0.035873)
(-0.225547 1.2175 -0.888809)
(1.04517 1.02779 -1.91383)
(2.52218 1.54941 -2.31155)
(2.68834 1.26118 -2.11907)
(2.26184 0.457999 -2.22752)
(-0.626693 0.563417 -0.828199)
(-0.0767978 0.92524 -1.44655)
(1.26693 0.753853 -2.83834)
(2.01886 0.854642 -3.02741)
(2.30473 0.810827 -2.03477)
(2.01482 0.0387449 -1.97317)
(1.95857 -0.372105 -1.84686)
(-0.326452 0.239681 -2.15793)
(0.402806 0.280291 -3.11174)
(0.770106 0.168824 -3.57971)
(1.14318 0.847427 -3.01239)
(0.667624 0.865328 -3.08153)
(1.99495 -0.212989 -1.74965)
(2.13341 -0.452571 -1.54274)
(1.33428 0.791848 -0.869536)
(-0.599292 0.116096 -3.05842)
(-0.684051 0.407976 -3.06796)
(-0.0806485 0.630721 -2.93418)
(-0.0444477 1.42655 -2.40626)
(0.956613 1.69096 -1.48234)
(0.804855 1.02431 -1.07418)
(0.96675 0.828606 -0.892926)
(2.14847 -0.0564267 -0.912785)
(0.14912 2.9529 2.47118)
(-0.296069 2.70625 2.29954)
(-0.160257 2.86029 2.47644)
(-0.11771 2.7113 2.47691)
(0.0539112 2.49265 1.89215)
(0.246972 2.30268 2.10833)
(0.0154986 2.30748 2.15734)
(-0.0114339 2.47388 2.08703)
(1.02612 2.97764 -0.615806)
(0.17942 2.2658 0.961604)
(0.116782 2.24835 0.677944)
(0.876925 2.74112 -0.534015)
(1.18378 3.17169 0.0381747)
(0.51549 2.38349 -0.0904223)
(0.735706 1.58311 -1.03517)
(0.777518 1.75705 -1.59213)
(0.30716 2.05461 -0.433951)
(0.958688 2.08616 -0.881883)
(2.30171 1.90152 -0.880566)
(2.18944 1.17293 -2.01648)
(-0.892131 1.26916 -0.0131461)
(-0.262723 1.16414 -0.848497)
(0.791697 0.936277 -1.68387)
(2.37948 0.978993 -2.50749)
(3.11114 1.34941 -2.06064)
(2.11183 1.24719 -1.88742)
(2.01092 -0.000441199 -1.92601)
(-0.742422 0.521139 -0.752146)
(-0.184256 0.750455 -1.38414)
(0.937526 0.751125 -2.58973)
(1.89063 1.04867 -2.63052)
(2.58541 1.05387 -1.75057)
(1.99343 0.136256 -1.88352)
(1.87001 -0.551374 -1.54861)
(2.08062 -0.453787 -1.5853)
(-0.449653 0.213674 -2.02063)
(0.25314 0.297955 -2.87466)
(0.791903 0.207819 -3.34549)
(1.24396 0.97538 -2.59763)
(0.973362 0.984871 -2.80253)
(1.83475 -0.0813791 -1.83134)
(2.1658 -0.387729 -1.56386)
(1.93727 -0.775836 -1.46841)
(2.02321 -0.0545484 -0.941975)
(-0.614926 0.1091 -2.99352)
(-0.674137 0.426343 -3.00277)
(-0.0792398 0.660514 -2.91006)
(0.000746322 1.46605 -2.42266)
(0.904425 1.73012 -1.52849)
(0.823812 1.05126 -1.08316)
(0.915899 0.84988 -0.896384)
(2.26483 -0.0631587 -0.884515)
(1.61896 -0.639857 -1.03207)
(-0.0260972 2.90025 2.76318)
(0.122893 2.89188 2.51956)
(0.601475 3.13985 2.4857)
(0.624852 2.67554 2.63208)
(-0.117376 2.60024 2.46196)
(0.0849688 2.96056 2.29951)
(-0.101514 2.90479 2.42477)
(0.203626 2.64344 2.45811)
(0.207342 2.80572 1.60093)
(0.289302 2.42368 2.03346)
(0.170957 2.17441 2.24752)
(0.101034 2.26088 2.00594)
(0.571245 2.79641 1.26059)
(1.42149 3.16672 -0.0932854)
(0.212945 2.23589 1.17821)
(0.0105269 2.14422 0.92319)
(0.618893 2.68621 -0.125923)
(1.06687 3.02718 -0.0397886)
(1.87187 2.77074 -0.24883)
(2.11293 1.94569 -0.925746)
(0.721675 1.56409 -1.04947)
(0.699401 1.7359 -1.5218)
(0.501469 1.98485 -0.732518)
(0.974647 1.72709 -0.902048)
(2.4442 1.91639 -0.931905)
(3.19685 1.89249 0.0254357)
(1.75463 1.0688 -1.11055)
(-0.719986 1.34245 -0.0666938)
(-0.288175 1.08592 -0.774292)
(0.485628 0.778585 -1.65522)
(1.90195 1.24902 -1.97347)
(3.25339 1.29481 -1.85631)
(2.53793 1.45341 -1.90565)
(1.22259 0.551563 -0.931631)
(1.61118 -0.542809 -1.62558)
(-0.827761 0.463386 -0.768097)
(-0.29766 0.657707 -1.3123)
(0.68372 0.725458 -2.33363)
(1.45043 1.1844 -2.3176)
(2.29839 1.47843 -1.61141)
(2.23391 0.251049 -1.77317)
(2.06854 -0.520486 -1.44675)
(1.767 -0.491659 -1.07025)
(1.85706 -0.83427 -1.46348)
(-0.557882 0.193855 -1.93094)
(0.0906435 0.331115 -2.66479)
(0.670439 0.294228 -3.11417)
(0.993964 1.12786 -2.35998)
(1.28821 1.03206 -2.43827)
(1.48426 0.108079 -2.05969)
(2.22341 -0.333878 -1.54899)
(2.0078 -0.809883 -1.47628)
(1.11865 -1.16285 -1.42153)
(1.59794 -0.632056 -1.03311)
(-0.628177 0.0991568 -2.93366)
(-0.675718 0.45326 -2.93216)
(-0.0813667 0.682649 -2.89036)
(-0.013873 1.50193 -2.39772)
(0.944144 1.7828 -1.49696)
(0.826277 1.07011 -1.09587)
(0.904898 0.903848 -0.915979)
(2.22371 -0.0651046 -0.917137)
(1.63976 -0.655815 -1.03464)
(1.18065 -1.36377 -1.43504)
(-0.0675881 2.93529 2.73333)
(-0.177191 2.8939 2.7555)
(0.724664 2.79986 2.72111)
(0.0671288 2.73692 2.87427)
(0.205155 2.86061 2.39097)
(0.752807 3.32188 2.40845)
(0.509974 2.919 2.52443)
(0.436982 2.82033 2.54327)
(-0.0574904 2.59483 2.45009)
(0.697952 3.2006 1.98491)
(0.144504 2.92519 2.38869)
(0.154444 2.75439 2.5429)
(0.331644 2.62547 2.27552)
(0.696602 2.93263 1.16122)
(0.425899 2.47245 2.15829)
(0.209837 2.14252 2.18163)
(0.399642 2.16501 1.81592)
(0.217276 2.62782 1.8121)
(0.67268 3.37446 1.80994)
(1.79766 3.11414 -0.454735)
(0.113106 2.09176 1.39582)
(-0.117146 1.97705 1.23051)
(0.495933 2.54391 0.395296)
(1.12135 2.84599 -0.179297)
(1.7402 2.49732 -0.301191)
(2.61172 2.78442 0.232991)
(2.67723 1.75791 -1.11189)
(0.669632 1.54592 -0.964974)
(0.586772 1.71632 -1.26769)
(0.606436 1.947 -0.880221)
(0.73358 1.73782 -0.890463)
(2.61795 1.44583 -0.887347)
(3.29932 2.10599 -0.730261)
(1.87734 1.52871 -1.00841)
(1.26258 0.569792 -0.968765)
(-0.343163 1.36713 -0.257999)
(-0.265429 1.03133 -0.701402)
(0.0659599 0.809463 -1.53407)
(1.41126 1.06591 -1.58452)
(2.97823 1.38644 -1.2797)
(2.94261 1.60097 -1.53555)
(1.60399 0.670244 -1.0008)
(0.815081 0.476489 -1.20744)
(1.67389 -0.461232 -1.06987)
(-0.838578 0.396537 -0.864895)
(-0.368801 0.563934 -1.30909)
(0.41349 0.649569 -2.12388)
(1.10788 1.36882 -2.03877)
(1.91147 1.59427 -1.51054)
(2.48932 0.331368 -2.00605)
(2.24362 -0.62186 -1.31988)
(1.86664 -0.608899 -1.04385)
(1.27678 -0.383337 -1.01931)
(1.09669 -1.15264 -1.43183)
(-0.658869 0.182819 -1.85497)
(-0.059327 0.371759 -2.47516)
(0.512895 0.380496 -2.93097)
(0.782689 1.28067 -2.19421)
(1.22212 1.10828 -2.21284)
(1.03067 0.350981 -2.40601)
(2.25532 -0.268131 -1.54869)
(2.09028 -0.815158 -1.46878)
(1.20065 -1.16009 -1.37099)
(0.48857 -1.01925 -1.21916)
(1.14245 -1.35018 -1.46622)
(-0.636301 0.0887319 -2.88017)
(-0.692091 0.458937 -2.86276)
(-0.0973375 0.704748 -2.87233)
(-0.0330102 1.55178 -2.34547)
(0.965521 1.77114 -1.48632)
(0.823726 1.09673 -1.11468)
(0.941224 0.929048 -0.931157)
(2.00362 -0.0427535 -1.00955)
(1.67374 -0.675908 -1.02589)
(1.23143 -1.35236 -1.42673)
(0.624024 -1.64109 -1.51087)
(-0.0581484 2.85529 2.50674)
(-0.140336 2.94358 2.70034)
(0.271456 2.80545 2.77881)
(0.295618 2.84731 2.74697)
(0.0669121 2.92253 2.74402)
(0.368915 2.81535 2.66627)
(0.339676 2.67345 2.8619)
(0.270779 2.92004 2.66286)
(0.454839 2.65855 2.65168)
(0.722804 3.29131 2.50106)
(0.36006 2.87256 2.7096)
(0.616679 2.83876 2.50613)
(0.375026 2.83851 2.50739)
(0.363745 2.66342 2.23163)
(0.558205 2.92431 2.43555)
(0.445602 2.93653 2.29348)
(0.308242 2.93121 2.38422)
(0.422378 2.57678 2.55801)
(0.749186 2.92466 2.40246)
(1.03744 3.57794 1.33153)
(0.531771 2.45199 2.20369)
(0.350967 2.14161 2.18385)
(0.433044 2.16872 1.751)
(-0.0348886 2.38991 2.32392)
(0.36625 2.95422 1.86843)
(1.43415 3.21168 1.41811)
(2.43431 2.99089 0.214978)
(-0.129909 1.81659 1.47594)
(-0.144018 1.86444 1.02586)
(0.281328 2.31654 0.668977)
(1.17479 2.61719 -0.311788)
(1.61287 2.32648 -0.311737)
(2.80567 2.33703 0.109926)
(2.8823 2.37273 -0.119246)
(1.52856 1.26627 -0.665252)
(0.630203 1.55657 -0.950615)
(0.587095 1.69904 -1.1565)
(0.595959 1.91354 -1.03737)
(0.669235 1.6925 -0.987037)
(2.06094 1.49302 -0.722144)
(3.44409 2.03747 -0.519361)
(2.61957 1.58497 -0.833842)
(1.17726 1.28474 -0.805907)
(0.756081 0.505551 -1.38931)
(-0.135439 1.30823 -0.39939)
(-0.232734 0.980416 -0.781262)
(-0.101745 0.805642 -1.43038)
(0.814057 1.23999 -1.14135)
(2.40928 1.5244 -1.07386)
(3.07453 1.63723 -1.2925)
(2.02474 0.837861 -1.37336)
(0.866722 0.43271 -1.00064)
(0.522632 0.473085 -1.34201)
(1.11433 -0.305123 -1.08529)
(-0.873752 0.359372 -0.900798)
(-0.410625 0.494455 -1.34567)
(0.136575 0.709759 -1.92544)
(0.669583 1.50273 -1.85605)
(1.72522 1.72688 -1.10182)
(2.65665 0.372089 -2.21664)
(2.37153 -0.494189 -1.1219)
(2.06385 -0.678679 -0.978392)
(1.46217 -0.441577 -0.956694)
(0.925051 -0.113854 -1.08264)
(0.518671 -1.07114 -1.20636)
(-0.739415 0.169335 -1.80457)
(-0.198187 0.421817 -2.30677)
(0.367933 0.461656 -2.79024)
(0.586989 1.42021 -2.08408)
(1.12362 1.1266 -1.98706)
(0.833691 0.489797 -2.50673)
(2.2109 -0.149909 -1.56165)
(2.06007 -0.775062 -1.55971)
(1.25135 -1.13529 -1.34964)
(0.612623 -1.03109 -1.12383)
(0.194794 -0.824247 -1.03768)
(0.599378 -1.63774 -1.51553)
(-0.648453 0.0785238 -2.83235)
(-0.647915 0.465612 -2.80607)
(-0.082603 0.753169 -2.84657)
(-0.0517236 1.58007 -2.32083)
(1.02358 1.77937 -1.45825)
(0.8693 1.08684 -1.11653)
(0.96365 0.960065 -0.937793)
(1.79036 0.0132357 -1.08172)
(1.72538 -0.687987 -1.00554)
(1.21592 -1.3594 -1.46055)
(0.647629 -1.64868 -1.49858)
(-0.0829131 -1.62135 -1.21186)
(-0.0765321 2.83898 2.47504)
(-0.300006 2.89048 2.4861)
(0.0639041 2.78962 2.53628)
(0.15209 2.78427 2.48276)
(0.0166378 2.83792 2.70795)
(0.383997 2.69036 2.82798)
(0.383781 2.73429 2.80509)
(0.583905 2.88573 2.4868)
(0.0824052 2.93267 2.61355)
(0.569724 2.89151 2.54949)
(0.431809 2.65872 2.85259)
(0.417614 2.81794 2.6605)
(0.685526 2.91827 2.39864)
(0.408611 2.7342 2.56631)
(0.837592 3.26464 2.53184)
(0.927602 2.93749 2.55233)
(0.729872 2.876 2.43261)
(0.582817 2.82519 2.55727)
(0.770235 2.81451 2.44344)
(0.988325 3.05229 2.27802)
(1.06017 3.17853 1.99956)
(1.04957 3.14564 1.98847)
(0.434436 2.86245 2.38674)
(0.526049 2.68996 2.65142)
(0.727647 2.80177 2.38242)
(1.43346 3.34685 1.89532)
(1.3978 3.35438 1.3423)
(0.654912 2.47079 2.07451)
(0.731098 2.18143 2.12931)
(0.543921 2.15135 1.88136)
(0.172572 2.3865 2.12672)
(1.3052 2.78828 1.07903)
(1.40825 3.18158 1.56576)
(2.16918 3.10779 0.612828)
(2.05862 2.36153 0.345404)
(0.349246 1.95289 0.968724)
(0.0125102 1.75312 1.18587)
(0.113033 2.14264 0.836562)
(1.30887 2.23937 -0.492699)
(1.58892 2.09746 -0.355819)
(2.42104 2.45893 0.434339)
(3.1205 2.54008 0.110969)
(2.42749 2.24978 0.778688)
(0.848981 1.01426 -0.778344)
(0.595138 1.51066 -1.00897)
(0.547191 1.66788 -1.26185)
(0.482387 2.04093 -0.905192)
(0.541328 1.62376 -0.940717)
(1.53573 1.49248 -0.592363)
(3.09197 1.96173 -0.403062)
(3.31334 1.69095 -0.396833)
(1.78823 1.4542 -0.976045)
(1.15135 1.28408 -1.39133)
(0.387116 0.496482 -1.42193)
(-0.0666452 1.28597 -0.477034)
(-0.170829 0.871853 -1.09763)
(-0.16355 0.755004 -1.43126)
(0.411045 1.39541 -0.870634)
(1.89497 1.50346 -0.943454)
(2.99486 1.81665 -0.990278)
(2.67561 0.83653 -1.18589)
(0.870934 0.504056 -0.837181)
(0.498669 0.504 -1.25253)
(0.27462 0.610666 -1.43969)
(0.770677 -0.0684705 -1.16407)
(-0.856241 0.316971 -0.954011)
(-0.549003 0.498105 -1.3088)
(-0.0788295 0.727716 -1.81463)
(0.405391 1.64173 -1.51665)
(1.52077 1.87802 -0.860525)
(2.66213 0.603182 -2.01807)
(2.17202 -0.359166 -1.40224)
(2.22511 -0.912135 -0.940259)
(1.60444 -0.528773 -0.942415)
(1.10488 -0.18196 -0.963768)
(0.444391 0.0624347 -1.46345)
(0.129277 -0.826116 -1.08246)
(-0.805075 0.156772 -1.766)
(-0.329562 0.474724 -2.17701)
(0.233416 0.535769 -2.68293)
(0.427233 1.55387 -1.99447)
(1.12592 1.17435 -1.76236)
(0.867403 0.686103 -2.18983)
(1.94073 -0.000569709 -1.44997)
(2.0651 -0.751375 -1.58878)
(1.32761 -1.10788 -1.303)
(0.544182 -1.059 -1.10713)
(0.332136 -0.831735 -0.963696)
(-0.0542691 -0.956712 -1.31689)
(-0.0344803 -1.63395 -1.22964)
(-0.663178 0.0698156 -2.78953)
(-0.656694 0.457092 -2.75294)
(-0.11287 0.736569 -2.83046)
(-0.0759225 1.61709 -2.28473)
(0.974017 1.8384 -1.4929)
(0.907168 1.06335 -1.11314)
(0.974321 0.993777 -0.934456)
(1.59923 0.0755218 -1.13175)
(1.76824 -0.725604 -1.01409)
(1.2131 -1.37821 -1.46408)
(0.706502 -1.62756 -1.49565)
(-0.0985679 -1.60477 -1.18513)
(-0.327846 -1.58377 -0.888696)
(-0.0593554 2.68196 2.52801)
(-0.20085 2.84772 2.44917)
(0.135695 2.76057 2.52309)
(0.218829 2.72823 2.41433)
(0.0663782 2.82442 2.44748)
(0.363022 2.75149 2.62017)
(0.280205 2.70327 2.51676)
(0.290408 2.82888 2.36803)
(0.407639 2.89701 2.46953)
(0.603541 2.68036 2.7685)
(0.385258 2.68194 2.79945)
(0.532323 2.80262 2.57972)
(0.861025 2.86494 2.28833)
(0.573627 2.91658 2.35499)
(0.542847 2.91862 2.47026)
(0.662116 2.68683 2.79866)
(0.40439 2.75156 2.73065)
(0.725447 2.97977 2.37777)
(0.948649 2.93482 2.28746)
(0.531028 2.8449 2.57277)
(1.14557 3.09702 2.48281)
(1.0635 2.97591 2.55101)
(0.752458 2.84943 2.44156)
(0.764132 2.95845 2.42535)
(0.853798 2.77815 2.40995)
(1.48906 3.18464 2.1222)
(1.33444 3.52811 1.93632)
(0.939045 3.20048 2.14207)
(1.10632 2.98411 2.28271)
(0.801436 3.15837 1.97061)
(0.917697 2.76818 2.43761)
(1.05517 2.5927 2.32428)
(2.2343 2.94605 1.05362)
(1.88308 3.17587 1.15041)
(1.49035 3.34467 0.699307)
(0.957139 2.59564 1.83482)
(0.947029 2.26559 2.01822)
(0.736355 2.20462 1.9521)
(0.381739 2.20401 1.96516)
(0.779404 2.45159 1.80386)
(3.13479 2.02251 0.126619)
(2.50194 2.85681 0.723791)
(2.08282 3.12643 0.967961)
(1.87074 1.97568 0.704305)
(0.256883 1.71756 1.37988)
(-0.122274 1.90179 1.36708)
(0.140178 2.0889 1.00532)
(1.06653 2.16708 -0.0784088)
(1.42372 1.96692 -0.241993)
(2.57187 2.01482 -0.0100919)
(3.49447 2.3663 0.0835221)
(3.08783 2.21284 0.73855)
(1.67524 2.36606 0.57041)
(0.502623 1.27032 -1.29812)
(0.586892 1.4259 -1.17949)
(0.511374 1.62851 -1.47109)
(0.313019 2.09663 -0.784018)
(0.307786 1.99824 -0.4004)
(0.942329 1.63048 -0.464458)
(2.73461 2.08885 -0.137816)
(3.65339 1.81642 -0.360598)
(2.32599 1.70858 -0.782343)
(1.38104 1.328 -1.50264)
(0.94613 1.33981 -2.37226)
(0.288003 0.631781 -1.58819)
(-0.0433783 1.25281 -0.612164)
(-0.11304 0.799437 -1.29109)
(-0.276503 0.811018 -1.39252)
(0.183171 1.45852 -0.83927)
(1.42661 1.5555 -0.796605)
(2.74096 1.62692 -1.18099)
(3.26369 0.783047 -0.794116)
(1.62637 0.472438 -0.495163)
(0.686668 0.478508 -1.03983)
(0.493668 0.631938 -1.21063)
(0.237958 0.753037 -1.71094)
(0.31283 0.0981961 -1.5865)
(-0.875795 0.273575 -0.965216)
(-0.648981 0.512692 -1.32015)
(-0.251026 0.756184 -1.75534)
(0.276566 1.73111 -1.26026)
(1.24907 1.9726 -0.989948)
(2.47494 0.604058 -1.87774)
(1.88421 -0.0721064 -2.37987)
(2.40366 -0.841745 -1.02065)
(1.75603 -0.616733 -0.8999)
(1.29571 -0.25522 -0.888705)
(0.537369 0.0519049 -1.35983)
(-0.0250174 0.242699 -1.61883)
(-0.121522 -0.951998 -1.30101)
(-0.87464 0.149892 -1.72251)
(-0.452278 0.531567 -2.06853)
(0.122957 0.602412 -2.60023)
(0.333131 1.64385 -1.92143)
(1.01336 1.24257 -1.70667)
(0.969008 0.72391 -1.75198)
(1.517 0.236877 -1.49168)
(2.13814 -0.666143 -1.58052)
(1.39117 -1.08697 -1.25764)
(0.801454 -0.963537 -1.0011)
(0.346928 -0.824635 -0.953374)
(0.0229189 -0.955526 -1.33827)
(-0.242522 -1.03995 -1.33624)
(-0.278939 -1.59257 -0.892258)
(-0.679842 0.061324 -2.75209)
(-0.681907 0.476534 -2.70234)
(-0.0244365 0.735046 -2.81635)
(-0.0858649 1.64806 -2.25872)
(0.991596 1.86629 -1.47868)
(0.87075 1.0914 -1.12272)
(0.98575 1.00232 -0.936175)
(1.47604 0.139795 -1.15745)
(1.83958 -0.74785 -1.04811)
(1.23449 -1.38438 -1.46521)
(0.752548 -1.64742 -1.51697)
(-0.124126 -1.58224 -1.16142)
(-0.317266 -1.55316 -0.903642)
(-0.0622127 -1.59156 -0.555824)
(0.0736793 2.52011 2.49576)
(-0.0348431 2.69082 2.53559)
(0.0388973 2.70317 2.52378)
(0.304045 2.64244 2.4768)
(0.152298 2.74871 2.39409)
(0.413549 2.7277 2.51231)
(0.31749 2.7161 2.45328)
(0.363595 2.76394 2.33101)
(0.178399 2.84562 2.34394)
(0.538144 2.72827 2.61606)
(0.523757 2.74496 2.52102)
(0.698667 2.63203 2.49586)
(0.794613 2.69249 2.36902)
(0.649156 2.88573 2.26704)
(0.669052 2.65316 2.73199)
(0.938194 2.55229 2.77956)
(0.888952 2.62304 2.61176)
(0.915582 2.8881 2.26625)
(0.911707 2.92922 2.26765)
(0.849689 2.89363 2.37867)
(0.76655 2.82028 2.44648)
(0.78652 2.6896 2.70919)
(0.595744 2.67956 2.7896)
(0.899422 2.91746 2.39649)
(1.04777 2.8888 2.31672)
(1.08735 3.17206 2.2594)
(1.00488 3.60594 2.05658)
(1.12824 3.0816 2.50129)
(1.0471 2.95358 2.57012)
(0.94823 2.7892 2.49309)
(0.929962 2.92098 2.30063)
(1.15718 2.80937 2.29502)
(1.63099 2.96467 1.83711)
(1.78537 3.28186 1.92045)
(2.04419 3.39088 0.900435)
(0.757676 3.15105 2.32235)
(1.30812 2.97432 2.22712)
(0.75973 2.95552 2.39584)
(1.1145 2.85817 2.24008)
(1.30615 2.56839 2.30285)
(1.49606 2.5157 2.10725)
(2.25278 3.11456 0.66596)
(2.63517 3.27843 0.178824)
(1.45112 3.1805 0.913739)
(0.439307 2.53226 2.36057)
(1.01106 2.36324 1.97655)
(0.973001 2.07217 2.10078)
(0.43925 2.03624 1.98581)
(1.03275 2.2699 1.68934)
(0.624821 2.69781 1.66159)
(2.66554 2.68356 0.625582)
(2.42932 3.21984 0.775172)
(1.6215 3.16369 -0.293691)
(1.2279 2.52523 0.0815831)
(0.189158 1.87921 0.913226)
(0.058785 1.86968 1.55035)
(0.0772248 2.17367 1.40424)
(0.924956 2.1417 0.269244)
(1.40293 2.00812 -0.106903)
(2.11219 1.9036 -0.0720288)
(3.64503 2.26965 0.0466489)
(3.33009 2.28974 0.353823)
(2.1162 2.28044 0.295674)
(1.08184 2.84837 -0.617376)
(0.23233 1.38097 -2.10745)
(0.626205 1.33849 -1.20044)
(0.534931 1.6254 -1.49572)
(0.265727 2.15417 -0.51227)
(0.452203 1.9237 -0.741895)
(0.772041 1.60522 -0.416356)
(2.28272 2.15223 -0.297352)
(3.64612 2.04426 0.0624489)
(3.20205 1.67061 -0.0472702)
(1.34974 1.3208 -1.5474)
(1.25873 1.3984 -2.47192)
(-0.154095 1.72097 -2.10284)
(0.0987718 0.826286 -1.73449)
(-0.0527635 1.2536 -0.659602)
(-0.0387249 0.742379 -1.40231)
(-0.318094 0.817914 -1.39272)
(-0.073601 1.67775 -0.654262)
(1.05143 1.63394 -0.809111)
(2.5602 1.61251 -0.812581)
(3.49896 0.937649 -0.848363)
(2.22128 0.497414 -0.700199)
(0.911018 0.410497 -0.835182)
(0.705573 0.612449 -1.09968)
(0.415657 0.738633 -1.66461)
(-0.248459 1.06624 -1.70653)
(-0.218282 0.267136 -1.67672)
(-0.901488 0.281524 -0.923515)
(-0.735948 0.547912 -1.31522)
(-0.362073 0.810761 -1.69189)
(0.164805 1.79485 -1.17463)
(0.967207 2.08771 -1.06019)
(2.46153 0.563789 -1.45163)
(1.7959 0.00261408 -3.14138)
(2.35318 -1.01003 -1.03292)
(1.92864 -0.733159 -0.836464)
(1.44922 -0.304755 -0.797602)
(0.768922 -0.0486274 -1.19332)
(0.146932 0.197346 -1.59659)
(-0.0103524 0.338265 -1.93704)
(-0.288198 -1.05362 -1.2723)
(-0.923335 0.133885 -1.70001)
(-0.554563 0.58338 -1.97867)
(0.0356969 0.652134 -2.53852)
(0.239155 1.75203 -1.83962)
(0.927491 1.3099 -1.70086)
(1.03985 0.799191 -1.32072)
(1.14375 0.471294 -1.57687)
(2.24133 -0.664527 -1.44596)
(1.47184 -1.04966 -1.20923)
(0.923148 -0.981069 -0.94347)
(0.508389 -0.87451 -0.833926)
(0.0933937 -0.96982 -1.3502)
(-0.139847 -1.01469 -1.42017)
(-0.00347416 -0.867344 -1.25377)
(-0.0425879 -1.60851 -0.529206)
(-0.693267 0.0569641 -2.72209)
(-0.705224 0.493728 -2.65892)
(-0.00553141 0.713545 -2.80868)
(-0.103068 1.66348 -2.23467)
(1.01733 1.86653 -1.44317)
(0.908253 1.09223 -1.11477)
(0.997262 0.993654 -0.934259)
(1.45233 0.179659 -1.16155)
(1.86958 -0.783749 -1.16366)
(1.25162 -1.4015 -1.46613)
(0.753202 -1.64855 -1.52367)
(-0.164592 -1.55595 -1.14281)
(-0.254676 -1.55184 -0.900219)
(-0.0649187 -1.57452 -0.558097)
(0.256051 -1.65979 -0.261501)
(0.0547776 2.47893 2.49218)
(-0.0244157 2.56373 2.49373)
(0.213249 2.56409 2.45789)
(0.121801 2.4913 2.4927)
(-0.0444578 2.67194 2.49774)
(0.439599 2.64145 2.47463)
(0.3176 2.63205 2.48402)
(0.383701 2.6644 2.44255)
(0.241521 2.76058 2.36653)
(0.708062 2.65881 2.54735)
(0.578652 2.66465 2.4971)
(0.416912 2.70088 2.38806)
(0.620186 2.65133 2.40281)
(0.632349 2.77841 2.31639)
(0.754278 2.66206 2.6164)
(0.704654 2.71659 2.59361)
(0.514341 2.64853 2.51899)
(0.860931 2.66068 2.37911)
(0.869331 2.74845 2.38893)
(0.781128 2.94385 2.20591)
(0.896452 2.66807 2.67559)
(0.903778 2.51677 2.73164)
(0.766679 2.68894 2.56778)
(0.934811 2.83122 2.27544)
(0.921276 2.89783 2.33614)
(1.07587 3.0099 2.23403)
(0.825117 3.24082 2.25217)
(1.02935 2.74481 2.45784)
(1.03536 2.70773 2.51408)
(0.731916 2.67515 2.74767)
(0.940386 2.87112 2.43087)
(1.25989 2.79777 2.30024)
(1.35332 2.93567 2.2116)
(1.38647 3.26224 2.30641)
(1.45195 3.39079 2.22905)
(1.25026 3.15691 2.50914)
(1.05614 2.91206 2.4869)
(0.97617 2.7709 2.584)
(1.12686 2.87764 2.20127)
(1.22847 2.79903 2.29752)
(1.17668 2.79564 2.44877)
(2.09002 3.15046 1.61722)
(1.67491 3.20276 2.14092)
(2.15074 3.6141 0.303097)
(1.58567 3.0753 2.13074)
(0.925211 3.05973 2.36103)
(1.16137 2.99005 2.36497)
(1.37501 2.84065 2.15044)
(1.44242 2.71127 2.05907)
(1.40823 2.65376 2.20683)
(1.66466 2.79517 1.98586)
(2.2684 3.2308 0.98523)
(1.85902 3.61343 -0.142717)
(1.34135 3.25624 0.285469)
(0.935418 2.52622 2.07547)
(0.963489 2.35994 2.02099)
(1.39012 2.23736 1.89407)
(0.900174 2.10843 1.85709)
(0.959499 2.23103 1.77432)
(1.52803 2.01077 1.04057)
(2.29016 2.28323 1.0395)
(2.98784 2.70422 1.11571)
(2.09033 3.05384 0.42523)
(1.19118 3.26915 -0.573928)
(0.336008 2.94971 -0.918091)
(0.206429 1.77541 1.15167)
(0.120361 1.90119 1.56904)
(0.0850271 2.20026 1.66119)
(0.753055 2.1271 0.595334)
(1.38924 2.15124 0.124151)
(1.50481 1.8793 0.440887)
(3.59733 1.83759 0.168192)
(3.57596 2.42672 1.02671)
(2.49818 2.29945 -0.427708)
(1.36399 2.71047 -0.682734)
(0.682534 3.11582 -0.740406)
(-0.432528 1.63267 -2.16935)
(0.568811 1.23513 -1.03786)
(0.529696 1.63868 -1.27613)
(0.336156 2.22914 -0.158612)
(0.272028 2.15089 -0.375659)
(0.561235 1.79245 -0.462605)
(1.89189 1.99684 -0.456936)
(3.5121 1.82544 0.389363)
(3.52811 1.60394 0.0953913)
(1.68764 1.39513 -1.09575)
(1.30879 1.44799 -2.44339)
(1.17803 1.87616 -1.91916)
(-0.464632 1.91862 -1.9788)
(-0.391279 1.09393 -1.69559)
(-0.114428 1.26243 -0.622979)
(-0.0429759 0.706719 -1.44601)
(-0.359001 0.885413 -1.34615)
(-0.139079 1.6874 -0.754304)
(0.678841 1.70903 -0.958941)
(2.31571 1.54971 -0.826211)
(3.57455 1.13244 -0.5272)
(2.75782 0.504283 -0.831501)
(1.02573 0.390721 -0.776409)
(1.20308 0.480344 -1.06267)
(0.539244 0.781151 -1.65222)
(0.00959877 1.00335 -1.86014)
(-0.276353 1.29595 -2.04524)
(-0.153013 0.361211 -1.94876)
(-0.938436 0.288978 -0.897863)
(-0.789336 0.588943 -1.28965)
(-0.480875 0.858706 -1.64639)
(0.0919564 1.8436 -1.12267)
(0.914477 2.0905 -0.995496)
(2.3166 0.612289 -1.13728)
(2.3376 0.187038 -2.63892)
(2.10217 -0.585994 -1.21552)
(2.04897 -0.803801 -0.791036)
(1.63606 -0.41516 -0.620066)
(0.834676 -0.080133 -1.12161)
(0.35206 0.157494 -1.6068)
(0.205808 0.277857 -1.95306)
(0.129098 0.50289 -2.42844)
(-0.0697942 -0.871737 -1.19903)
(-0.909594 0.104606 -1.72592)
(-0.63912 0.626648 -1.90274)
(-0.059195 0.65804 -2.48593)
(0.247761 1.7629 -1.83271)
(0.772354 1.44656 -1.69448)
(1.08471 0.877647 -0.987556)
(0.844552 0.781479 -1.52018)
(2.30697 -0.634793 -1.0564)
(1.54551 -1.02534 -1.23915)
(1.09137 -0.982603 -0.857891)
(0.600001 -0.895719 -0.786786)
(0.158208 -0.991737 -1.36189)
(-0.035677 -0.979859 -1.5159)
(0.0771812 -0.866362 -1.33696)
(0.602013 -0.34666 -1.844)
(0.1712 -1.67885 -0.31814)
(-0.708847 0.0535847 -2.69436)
(-0.725176 0.502915 -2.62126)
(0.0497943 0.668999 -2.81007)
(-0.089912 1.68415 -2.23889)
(1.03842 1.86748 -1.41519)
(0.93742 1.08485 -1.1133)
(1.02367 0.986314 -0.928085)
(1.48641 0.190274 -1.14794)
(1.81416 -0.772429 -1.33986)
(1.26276 -1.41896 -1.48523)
(0.688173 -1.60466 -1.52009)
(-0.145142 -1.53452 -1.11409)
(-0.2604 -1.5164 -0.906805)
(-0.0756106 -1.55541 -0.570433)
(0.220826 -1.63296 -0.253904)
(0.67045 -1.33058 -0.93922)
(0.136825 2.21026 2.62282)
(-0.0185858 2.53946 2.39801)
(0.235845 2.47944 2.4568)
(0.162098 2.43318 2.45758)
(0.225057 2.65822 2.37892)
(0.44369 2.57107 2.43667)
(0.31093 2.55737 2.42249)
(0.35357 2.49204 2.50647)
(0.271903 2.66004 2.47694)
(0.658938 2.48194 2.47919)
(0.469425 2.61736 2.4727)
(0.41112 2.63669 2.48035)
(0.472515 2.59331 2.48038)
(0.457998 2.74507 2.33906)
(0.765659 2.66632 2.52765)
(0.886372 2.58606 2.52262)
(0.855288 2.57496 2.44222)
(0.869588 2.54554 2.39245)
(0.869701 2.54465 2.4128)
(0.784798 2.7773 2.2938)
(0.83289 2.65661 2.61611)
(0.898566 2.64806 2.54546)
(0.850861 2.63799 2.54642)
(0.849403 2.62908 2.40543)
(0.825644 2.75173 2.41797)
(1.09573 2.81536 2.32382)
(1.07506 2.84184 2.34953)
(1.14918 2.66759 2.64454)
(1.04009 2.40952 2.72929)
(1.33452 2.43365 2.56953)
(1.04168 2.77349 2.28988)
(1.07801 2.80274 2.27714)
(1.19647 2.96224 2.2847)
(1.3158 3.03243 2.3077)
(1.10348 3.3583 2.45275)
(1.11698 2.77938 2.40908)
(0.889049 2.84111 2.36956)
(0.877682 2.72059 2.6239)
(0.989233 2.6916 2.54991)
(1.31181 2.74611 2.31404)
(1.32364 2.9075 2.24098)
(1.64487 3.09615 2.17444)
(1.86476 3.17466 2.3803)
(1.56023 3.42835 2.3342)
(1.2223 3.12086 2.56334)
(1.26399 2.91623 2.5695)
(1.36338 2.58887 2.56233)
(1.26779 2.70752 2.29218)
(1.27553 2.81076 2.2316)
(1.1577 2.95159 2.36231)
(1.57785 2.92482 2.34774)
(2.02282 2.97499 1.77575)
(1.76702 3.37874 1.48607)
(1.71079 3.62159 -0.167866)
(1.38376 3.13381 2.29039)
(1.12768 3.15593 2.26285)
(1.04154 3.03954 2.47207)
(1.28474 2.90722 2.17786)
(1.55966 2.47483 2.24098)
(1.91601 1.81518 2.42787)
(1.87702 2.32096 1.67314)
(2.24661 2.68162 1.46682)
(1.89647 3.58837 0.369153)
(1.14559 3.66273 -0.231356)
(0.713542 3.19131 -0.643421)
(0.827389 2.45566 2.161)
(0.877666 2.51776 2.16006)
(1.09496 2.33521 2.10424)
(0.778703 2.07202 2.14571)
(0.93693 2.23577 2.02191)
(1.26794 2.11768 1.22078)
(2.20038 2.00701 0.791752)
(3.20101 2.52613 1.02328)
(2.48052 2.86267 0.432413)
(1.45835 3.28459 -0.336767)
(0.824776 3.30653 -0.639381)
(-0.320343 2.84646 -1.04587)
(0.25229 1.88401 1.21624)
(0.289291 1.93574 1.93583)
(0.224924 2.1862 1.86196)
(0.590961 2.14105 1.14829)
(1.34578 2.16071 0.322999)
(0.98246 2.02638 0.806561)
(2.68506 2.241 0.661038)
(3.75861 2.5619 1.19861)
(3.01646 2.184 0.612051)
(2.49722 2.58395 -0.268563)
(1.23503 3.06991 -1.01824)
(-0.215211 2.75839 -1.27116)
(-0.714364 1.88654 -1.92607)
(0.552928 1.33888 -0.461026)
(0.483772 1.72699 -0.875424)
(0.39836 2.27586 -0.0161781)
(0.359729 2.1603 -0.40821)
(0.422546 1.92484 -0.553715)
(1.33915 2.22391 0.0160265)
(3.1686 1.95191 -0.0892267)
(3.52003 1.76039 0.126559)
(2.74078 1.32611 -0.166499)
(1.84858 1.60366 -1.2352)
(1.70244 1.94523 -1.61627)
(-0.0715744 2.01694 -1.93628)
(-0.456965 2.24569 -1.66687)
(-0.488385 1.29847 -1.99911)
(-0.133045 1.22929 -0.610986)
(-0.0844204 0.689447 -1.47591)
(-0.420335 0.957161 -1.36978)
(-0.14797 1.76891 -0.755247)
(0.561807 1.72375 -0.999735)
(2.07236 1.46669 -0.732019)