/*--------------------------------*- C++ -*----------------------------------*\
  =========                 |
  \\      /  F ield         | OpenFOAM: The Open Source CFD Toolbox
   \\    /   O peration     | Website:  https://openfoam.org
    \\  /    A nd           | Version:  7
     \\/     M anipulation  |
\*---------------------------------------------------------------------------*/
FoamFile
{
    version     2.0;
    format      ascii;
    class       surfaceScalarField;
    location    "3.5";
    object      phi_0;
}
// * * * * * * * * * * * * * * * * * * * * * * * * * * * * * * * * * * * * * //

dimensions      [0 3 -1 0 0 0 0];

internalField   nonuniform List<scalar> 
54125
(
6.29552e-05
-5.26275e-05
-0.0019434
9.33244e-05
-0.00014139
4.38233e-05
1.70664e-05
-6.77383e-05
-0.000851729
4.88823e-05
-4.80435e-05
-0.00194424
-0.000252063
-6.1072e-05
0.00389271
7.51096e-05
-0.000196108
-0.000423625
5.94845e-05
-0.000125024
0.000158245
3.83212e-05
-7.40858e-05
0.000138083
1.28594e-05
-5.96228e-05
-0.000853009
3.88603e-05
-4.64553e-05
-0.00193664
-0.000878622
0.000106964
0.00651434
-0.000192405
-0.000183056
0.00279204
-0.000242261
-5.49097e-05
0.00424936
6.44119e-05
-0.00011681
0.000385859
7.09508e-05
-0.000186117
-0.000420624
3.8826e-05
-0.000122075
0.000280355
-4.61965e-07
-8.81955e-05
0.000727917
2.95933e-05
-6.59188e-05
0.000114786
9.80743e-06
-5.82804e-05
-0.000850991
2.76881e-05
-4.56372e-05
-0.00191869
-0.00144218
0.000367925
0.00681737
-0.000624596
-0.000184095
0.00590823
-0.000776416
2.94921e-05
0.007019
-0.000215376
-0.00013634
0.00126768
-9.33843e-05
-0.000149183
0.00305065
-0.000235622
-2.05327e-05
0.00454434
5.13522e-07
-0.000116323
0.00119342
4.35324e-05
-0.000118191
0.000303994
6.73473e-05
-0.000195323
-0.000404916
6.78014e-06
-0.000116527
0.00041779
1.72929e-05
-0.000109256
0.000440782
1.26164e-06
-8.08428e-05
0.000741579
2.77859e-05
-6.5243e-05
9.39628e-05
5.91655e-06
-5.82786e-05
-0.000844266
1.64587e-05
-4.4876e-05
-0.00189027
-0.00150981
0.00038488
0.0056605
-0.00100895
0.000679796
0.00717147
-0.0013152
0.000294233
0.00706192
-0.000429314
-0.000275116
0.00515295
-0.000471385
-0.000175437
0.00649116
-0.000738527
5.56238e-05
0.00746629
-0.000272482
-8.34238e-05
0.00152095
-0.000205103
-0.000100865
0.00146799
-6.55225e-05
-0.000122808
0.00328579
-0.000238388
-2.54538e-06
0.00479206
4.86119e-05
-0.000171106
0.00177849
1.59726e-05
-0.000116458
0.00117697
3.96967e-05
-0.000131961
0.000228721
6.51019e-05
-0.000202501
-0.000378127
-2.00123e-05
-0.000107932
0.000562193
4.63168e-05
-0.00010144
-8.92181e-05
1.57947e-05
-9.86662e-05
0.000442811
3.22285e-07
-8.18064e-05
0.00075782
2.94223e-05
-6.60298e-05
7.22917e-05
2.23108e-06
-5.98012e-05
-0.000831572
6.11516e-07
-4.58168e-05
-0.00184507
-0.00153025
0.000134223
0.00452238
-0.0010779
0.000431092
0.00722027
-0.00146903
0.000346296
0.00546803
-0.000523368
0.000981752
0.00810126
-0.000879113
0.000553311
0.00732012
-0.0013419
0.000350092
0.0073152
-0.000508302
-0.000109392
0.00365394
-0.000415842
-0.000229085
0.00541734
-0.000350814
-9.8975e-05
0.00693106
-0.000700501
7.61306e-05
0.00785227
9.22659e-05
-6.88206e-05
0.00148568
-0.000151734
-7.33036e-05
0.0016611
-0.000190109
-8.75644e-05
0.00166256
-6.89608e-05
-9.52815e-05
0.00351259
-0.000250831
3.30508e-05
0.00498982
5.91703e-05
-0.00021662
0.0015584
6.65937e-05
-0.00016237
0.00177361
1.56106e-05
-0.000127917
0.00115764
4.01879e-05
-0.000145495
0.000160949
6.35427e-05
-0.000206502
-0.000340868
-4.5441e-05
-9.91529e-05
0.000707398
2.81019e-05
-8.39751e-05
-0.000344984
3.45842e-05
-8.96055e-05
-0.000132863
1.86459e-05
-9.83107e-05
0.000440669
2.59643e-06
-8.2484e-05
0.000771678
3.09723e-05
-6.80494e-05
4.95676e-05
-2.14884e-07
-6.19012e-05
-0.000815273
-8.83693e-06
-4.5058e-05
-0.00179117
-0.0015163
4.63668e-06
0.00455665
-0.00115829
0.000298741
0.00579187
-0.00139146
0.000117167
0.00432765
-0.000698938
0.000622522
0.00727182
-0.000886225
0.000476271
0.0070974
-0.00163705
0.000325143
0.00543803
5.7611e-05
0.00117451
0.00724578
-0.00045168
0.000244289
0.00844612
-0.000743025
0.000700189
0.00736223
-0.00130385
0.000304648
0.0076139
-1.10917e-05
-1.03489e-05
0.00278367
7.29313e-05
-0.000128525
0.00332872
-0.000290284
-0.000251358
0.0056699
-0.00035458
-3.39825e-05
0.00732679
-0.000616326
0.000197788
0.00801997
4.98665e-05
-2.28626e-05
0.0011309
0.000167848
-6.66877e-05
0.00137781
-3.75773e-05
-5.95942e-05
0.00168632
-0.000164906
-7.47819e-05
0.00184715
-0.000120982
-5.35058e-05
0.00378367
-0.000273438
6.70121e-05
0.00515081
2.67118e-06
-0.0002157
0.000312776
5.25348e-05
-0.000193475
0.00157156
8.66874e-05
-0.00016718
0.00174483
3.54424e-05
-0.000139857
0.00111916
3.38037e-05
-0.000157309
0.000108925
4.43522e-05
-0.000205976
-0.000278613
-7.86299e-05
-8.61689e-05
0.00086336
8.37768e-05
-7.1233e-05
-0.00046479
1.96644e-05
-7.40266e-05
-0.000380227
2.25653e-05
-8.74847e-05
-0.000166254
1.38659e-05
-9.7627e-05
0.000441946
8.59679e-06
-8.28028e-05
0.000777835
2.80794e-05
-6.99513e-05
2.95383e-05
-6.39098e-06
-6.32167e-05
-0.000790723
-2.08325e-05
-4.42886e-05
-0.00172605
-0.0019845
0.000192152
0.00432752
-0.0014824
0.000449526
0.00536341
-0.0012725
7.4799e-05
0.00436289
-0.000554143
0.000432125
0.0061089
-0.00107981
0.000262175
0.00584046
-0.00162128
0.000164881
0.004147
0.000156518
0.000840673
0.00691256
-0.000605051
0.000608183
0.00729328
-0.000889225
0.000527548
0.0070412
-0.00164543
0.000344563
0.00543504
0.00040684
0.000969137
0.00673435
0.000457525
0.000254032
0.00685145
-0.000240393
0.000510526
0.00858589
-0.000713167
0.000583804
0.00744166
-0.0012016
0.000205387
0.00799379
0.000307921
2.51165e-05
0.0026713
0.000173827
-8.90223e-06
0.00265807
8.94352e-05
-0.000179984
0.00313033
-0.000273663
-0.00015613
0.0059008
-0.000496303
5.49241e-05
0.00784497
-0.000558642
0.000102132
0.00820305
0.00014274
-0.000115823
0.00139641
6.99422e-05
-5.78473e-06
0.00105258
0.00017953
-4.98514e-05
0.00127522
-5.05406e-05
-3.19713e-05
0.00172949
-0.000163467
-5.82122e-05
0.00204913
-1.40646e-05
3.07169e-06
0.00390603
-0.000310658
0.000129698
0.00525314
2.0317e-05
-0.000158883
-6.72202e-07
-2.1305e-05
-0.0001918
0.00035207
3.51587e-05
-0.000194359
0.00158614
7.55818e-05
-0.000171252
0.00171451
6.48005e-05
-0.000150104
0.00105575
1.55771e-05
-0.000169952
8.54036e-05
4.65948e-05
-0.000202121
-0.000215646
-0.000120829
-7.0835e-05
0.00103419
9.49877e-05
-5.81558e-05
-0.00061749
6.8068e-05
-6.42954e-05
-0.000542589
1.32104e-05
-7.20896e-05
-0.000408832
1.3888e-05
-8.57481e-05
-0.000192021
1.51142e-05
-9.6576e-05
0.000440605
1.12364e-05
-8.31388e-05
0.000779786
2.37589e-05
-7.19714e-05
1.45341e-05
-1.32123e-05
-6.42208e-05
-0.000757578
-3.32101e-05
-4.45877e-05
-0.00164826
-0.0021045
4.47322e-05
0.00254156
-0.00140661
0.000220928
0.00468226
-0.00167517
0.000187812
0.00454238
-0.000625072
0.000592741
0.00614414
-0.00139809
0.000407261
0.00534922
-0.00125308
-1.99478e-05
0.00401464
-0.000279471
0.00068425
0.00613501
-0.00037931
0.000379516
0.00576581
-0.00112387
0.000291127
0.00594885
-0.00176063
9.67617e-05
0.00416544
0.000492416
0.00101944
0.00707937
-0.00013564
0.000799942
0.00731397
-0.000541344
0.000613013
0.00750877
-0.000692382
0.000652237
0.00671274
-0.00159074
0.000269446
0.00555474
0.000840866
0.000679708
0.0058997
0.000462719
0.000588539
0.00611095
0.00055406
0.000368352
0.006529
-0.000197716
0.000518882
0.00857487
-0.000993743
0.000440345
0.00770415
-0.00106434
0.000159262
0.00834022
0.000328371
-7.47291e-05
0.00256717
0.000315558
2.9271e-05
0.00238751
0.000129912
-1.78046e-06
0.00252949
6.28498e-05
-0.000151748
0.00301256
-0.000151154
-0.000142823
0.00608624
-0.000343676
-4.3232e-05
0.00831995
-0.00061583
0.000141055
0.00836716
9.25744e-06
-0.000151622
0.0016976
4.70631e-05
-8.87612e-05
0.00141102
6.17207e-05
-1.46579e-06
0.000977637
0.000140089
-1.22576e-05
0.001191
-1.92427e-05
6.23621e-06
0.00174908
-0.00018037
8.35884e-06
0.00223979
-4.47038e-05
6.71002e-05
0.00405993
-0.000370658
0.000153206
0.00534976
7.18013e-05
-8.95606e-05
-0.000426764
1.50541e-05
-0.000147252
7.79372e-06
-1.58419e-05
-0.000194327
0.000381091
3.1417e-05
-0.000190647
0.00158801
7.56173e-05
-0.000174388
0.00167829
6.99438e-05
-0.000161087
0.000988177
1.005e-05
-0.000179658
7.66496e-05
9.61542e-06
-0.000192999
-0.00011631
-0.000166988
-5.37376e-05
0.00122171
5.86296e-05
-5.51462e-05
-0.000526599
8.44704e-05
-5.26901e-05
-0.000713566
6.18077e-05
-6.36308e-05
-0.000612855
7.65128e-06
-7.05269e-05
-0.000431705
3.24063e-06
-8.42311e-05
-0.000207607
2.27777e-05
-9.50971e-05
0.000429786
8.6846e-06
-8.39628e-05
0.000783093
1.87317e-05
-7.34335e-05
5.01503e-06
-1.96092e-05
-6.49133e-05
-0.000717644
-4.91116e-05
-4.4549e-05
-0.0015546
-0.00166451
-9.63149e-05
0.00396015
-0.00141768
0.000196137
0.00438959
-0.00187067
1.0712e-05
0.00272635
-0.000860626
0.000384839
0.00518103
-0.0012755
0.000175362
0.00457212
-0.00151251
0.00026826
0.00453354
-0.000437421
0.000667518
0.00611004
-0.000441142
0.00054618
0.00606705
-0.00145795
0.000179583
0.00548378
-0.00137184
-0.000105493
0.00373135
2.32937e-06
0.000897524
0.00625265
-0.000316639
0.000590816
0.00610471
-0.000750731
0.000379932
0.0058864
-0.000782076
0.000223773
0.00591153
-0.00183708
0.000177326
0.00423446
0.000418244
0.00123322
0.00698645
0.000280427
0.000873212
0.00718839
0.000251369
0.000792451
0.00743722
-0.000423893
0.00073665
0.00765053
-0.00104486
0.000575221
0.00645808
-0.00142434
0.000121314
0.00579342
0.00037537
0.000572697
0.00567677
0.000695492
0.000449394
0.00565891
0.000449168
0.000478463
0.00568158
0.000414872
0.000368422
0.00632743
1.36088e-05
0.000539949
0.0083105
-0.00115719
0.000416348
0.00826058
-0.00103834
0.000255212
0.00850752
3.53301e-05
-3.55925e-06
0.00382612
0.000134341
-1.47835e-05
0.00252395
0.000201173
1.95558e-05
0.00222672
-4.04142e-05
-2.56823e-05
0.00258392
-7.54982e-07
-0.000115627
0.00296687
5.13991e-05
-0.000133704
0.00594494
-0.000318003
8.22126e-05
0.00865209
-0.000632701
0.000238674
0.00839053
-6.68726e-05
-0.00010702
0.00205519
-1.03971e-06
-0.000120794
0.00174572
5.9891e-05
-8.54164e-05
0.00141924
2.25483e-05
6.44031e-06
0.000967808
0.000182027
2.50813e-05
0.00106575
3.87317e-05
6.70842e-05
0.00172157
-0.000163716
6.2104e-05
0.00241855
-8.45084e-05
0.000124385
0.00418287
-0.000436938
0.000225385
0.00539433
7.2537e-05
-2.74167e-05
-8.93961e-05
5.84607e-05
-8.51457e-05
-0.000462861
1.02693e-05
-0.000149434
1.44391e-05
-3.48185e-05
-0.000192838
0.000425751
2.71126e-05
-0.000185891
0.00157564
7.46365e-05
-0.000173644
0.00163899
4.69125e-05
-0.000169719
0.00094001
-5.03787e-07
-0.000179468
8.23546e-05
-1.79753e-05
-0.000180497
8.81551e-06
-0.000220502
-2.97655e-05
0.00142286
5.40677e-05
-5.75521e-05
-0.00057354
5.42507e-05
-4.90782e-05
-0.000584461
8.10449e-05
-5.25817e-05
-0.00080566
5.64228e-05
-6.31213e-05
-0.000676684
4.98399e-06
-6.93873e-05
-0.000451533
-5.69071e-06
-8.30293e-05
-0.000213984
1.58268e-05
-9.34706e-05
0.000423467
1.04012e-05
-8.4382e-05
0.00078364
1.38747e-05
-7.42803e-05
5.07295e-07
-2.63257e-05
-6.52163e-05
-0.000670651
-6.76577e-05
-4.29036e-05
-0.00144403
-0.00179546
8.43434e-05
0.00348292
-0.00139417
4.70821e-05
0.00436686
-0.00145482
-0.000167259
0.00371155
-0.00103108
0.000316809
0.00452167
-0.00124705
0.000141112
0.00423074
-0.0018962
8.82673e-05
0.00302177
-0.000516336
0.000477064
0.00547211
-0.000839623
0.000330772
0.0054241
-0.0013549
0.00021183
0.00452551
-0.00142426
0.000222797
0.00436317
-0.000240204
0.000792759
0.00604414
-0.00040699
0.000593968
0.0061526
-0.000879547
0.000410098
0.00596536
-0.00116038
8.58607e-05
0.00567073
-0.0015321
-0.000139735
0.0035661
-8.79615e-05
0.00109237
0.00650174
-0.000152101
0.000738892
0.0065371
-0.000378769
0.000549331
0.00656545
-0.000610533
0.000390824
0.00590598
-0.000868797
0.000231188
0.0056816
-0.00182803
0.000399621
0.00423853
-0.000167639
0.00139984
0.00736112
0.000197156
0.00104766
0.00731034
0.000260275
0.000960164
0.00720957
-3.87346e-05
0.000989656
0.00763782
-0.00044256
0.000773823
0.0079081
-0.00118633
0.000367673
0.00624086
-0.00122982
-8.20356e-05
0.00606693
3.3903e-05
0.000687459
0.00595851
0.000237728
0.000472132
0.00555065
0.000434903
0.0004016
0.00550205
8.07965e-05
0.000380144
0.00554865
0.000114023
0.000457244
0.00629536
0.000252984
0.000568779
0.00795648
-0.00121122
0.000646251
0.00876276
-0.000842219
0.000297452
0.00841959
-0.000212007
6.01816e-05
0.00458138
-9.64098e-05
3.88974e-05
0.00386781
-2.90968e-05
6.54803e-06
0.00262595
-0.00010607
2.88367e-05
0.00230082
3.5789e-05
3.48021e-05
0.00257973
9.87486e-05
-8.17272e-05
0.00285488
3.33902e-05
-3.46219e-06
0.00583351
-0.000139073
0.000205835
0.00873949
-0.000662016
0.000376066
0.00823954
-4.3442e-06
-6.84304e-05
0.0020141
-2.41038e-05
-7.97269e-05
0.00209668
-3.93521e-06
-0.00011066
0.00178517
1.26359e-05
-7.21413e-05
0.00145037
1.19626e-05
1.34024e-05
0.000994637
9.1865e-05
6.96183e-05
0.00104598
-4.75621e-06
0.000105616
0.00172973
-0.000148464
0.000146958
0.00254394
-0.000131994
0.000168187
0.00435409
-0.000522575
0.000295818
0.00540058
0.000103955
-3.27485e-05
-1.85849e-06
7.37972e-05
-3.0213e-05
-0.000163875
5.68636e-05
-8.91785e-05
-0.000498936
4.9194e-06
-0.000151891
2.49955e-05
-4.16006e-05
-0.000189069
0.000475513
1.89632e-05
-0.000179103
0.00155645
5.47748e-05
-0.00017454
0.00160486
2.88487e-05
-0.000170982
0.000913076
-1.122e-05
-0.000172189
9.91419e-05
9.65041e-06
-0.00016757
0.000110644
-0.000282724
-3.74164e-06
0.00164167
2.91412e-05
-6.28684e-05
-0.00106201
4.82086e-05
-5.23309e-05
-0.000618496
5.36539e-05
-4.84319e-05
-0.000642265
7.42286e-05
-5.29621e-05
-0.000890047
5.19772e-05
-6.22116e-05
-0.000735837
3.37319e-06
-6.89944e-05
-0.000468941
-1.25385e-05
-8.19385e-05
-0.000212977
1.26495e-05
-9.19084e-05
0.000418344
1.10513e-05
-8.43686e-05
0.000782677
9.28881e-06
-7.50799e-05
1.08207e-06
-3.40613e-05
-6.53307e-05
-0.000614162
-8.51648e-05
-4.14851e-05
-0.00131738
-0.0017018
-7.96883e-05
0.00295103
-0.0013638
0.000130506
0.00414836
-0.00158095
0.000206461
0.0034026
-0.00115624
0.000109972
0.00457585
-0.00132634
-6.13109e-05
0.00434021
-0.00166632
-7.40806e-05
0.00355576
-0.000532455
0.000380929
0.00481063
-0.000982617
0.000264455
0.00454132
-0.00134347
0.000163219
0.00414435
-0.00162782
0.000115762
0.00310957
-0.000445263
0.000535107
0.0057446
-0.000602923
0.000405934
0.00559288
-0.000897974
0.000294473
0.00535988
-0.00116265
0.0001677
0.00458287
-0.00154901
0.000145091
0.00423498
-0.000266022
0.0009064
0.00587077
-0.000341175
0.000750382
0.0060768
-0.000491061
0.000574566
0.00610043
-0.000762807
0.000361737
0.00584175
-0.00117048
0.000177172
0.0056555
-0.00162219
-0.000175709
0.00353596
-0.000376682
0.00123174
0.0064851
-0.000216323
0.000956817
0.00669729
-0.000251138
0.000769157
0.00682869
-0.000420273
0.000603486
0.00673433
-0.000681568
0.000414412
0.00596177
-0.000869728
0.000274159
0.00549046
-0.00166329
0.000455852
0.00421616
-0.000277834
0.00139501
0.00717037
-3.75225e-05
0.00117671
0.00750732
0.000161224
0.00109738
0.0074468
5.63562e-05
0.000978474
0.0072452
-0.000243452
0.00106457
0.00770455
-0.000460467
0.000783417
0.00820581
-0.00150836
0.000281387
0.00617457
-0.00108149
-9.28104e-05
0.00639901
-0.000439419
0.000727982
0.00637085
-0.000201854
0.000611958
0.00592413
4.07162e-05
0.000464068
0.00541837
4.17918e-05
0.000454768
0.00527956
1.59031e-05
0.000421435
0.00560435
7.41097e-05
0.000486394
0.00640238
0.000127499
0.000702048
0.00780658
-0.000993509
0.000725026
0.00918962
-0.000676208
0.000418029
0.00801575
-0.000207463
0.000165843
0.00499954
-0.000177492
0.000101875
0.00467179
-7.10957e-05
5.40061e-05
0.00388751
-0.000177926
3.43298e-05
0.00281101
-0.000163903
6.13361e-05
0.00245015
-1.57191e-05
9.65217e-05
0.00250907
3.58045e-05
-1.5422e-05
0.00282628
-7.1383e-06
9.27975e-05
0.00580522
-0.000218406
0.000315663
0.00888631
-0.000741464
0.000411375
0.00804706
2.09968e-05
2.57525e-05
0.00205993
-2.28459e-05
-4.70009e-05
0.00207802
-2.34283e-05
-7.2869e-05
0.00213919
-4.58218e-05
-9.62139e-05
0.00185999
-2.01815e-05
-6.31074e-05
0.00150546
-7.93236e-05
3.27188e-05
0.00112982
1.99265e-05
9.72779e-05
0.00108917
-1.28387e-06
0.000151695
0.00175512
-0.000166794
0.000173917
0.00269378
-0.000113058
0.000272408
0.00450021
-0.000551469
0.00035921
0.00531012
0.000109307
-0.000105515
-0.000272384
9.27533e-05
-3.72537e-05
-3.93626e-05
7.37271e-05
-3.57476e-05
-0.00023738
4.73736e-05
-9.12887e-05
-0.000532683
-1.29888e-06
-0.000154309
4.35118e-05
-5.32247e-05
-0.000184004
0.000537012
1.1089e-05
-0.000172142
0.00153042
3.57043e-05
-0.000174106
0.00158493
8.19059e-07
-0.000166214
0.000917334
-1.30959e-06
-0.000160552
0.000102722
-4.92054e-05
-0.000149828
0.000271874
-0.000350929
1.41837e-05
0.00189325
-2.37938e-05
-7.06982e-05
-0.0011703
2.06267e-05
-5.78313e-05
-0.00107714
4.72531e-05
-5.21516e-05
-0.00066203
5.18068e-05
-4.79701e-05
-0.000699064
6.72316e-05
-5.31809e-05
-0.00096631
4.56943e-05
-6.24304e-05
-0.000788095
1.32435e-07
-6.94961e-05
-0.000481516
-1.71363e-05
-8.04521e-05
-0.000207297
1.10417e-05
-9.01319e-05
0.000413065
1.10986e-05
-8.43714e-05
0.00078087
4.24123e-06
-7.55209e-05
7.03099e-06
-4.24099e-05
-6.51275e-05
-0.00054811
-0.000100322
-4.06215e-05
-0.00117644
-0.00165607
-5.03872e-05
0.00292221
-0.00163026
2.03149e-05
0.00365214
-0.00155061
-5.22466e-06
0.00292591
-0.00111971
0.00020383
0.00445747
-0.00137465
0.000312671
0.00409046
-0.00171788
0.000216767
0.00323739
-0.000697027
0.000257764
0.00459185
-0.00107203
9.85875e-05
0.00450537
-0.00141132
6.55199e-06
0.00432742
-0.00149722
-1.84139e-05
0.00344358
-0.000674383
0.000519015
0.0051994
-0.000692706
0.000375985
0.00478888
-0.00101406
0.000257424
0.00456319
-0.00123027
0.000199202
0.00412853
-0.0017156
0.000195277
0.00308088
-0.00048938
0.000686967
0.00590091
-0.000481816
0.000438515
0.00585266
-0.000521452
0.000339499
0.00557825
-0.000783593
0.000270467
0.0052779
-0.00127241
0.000129008
0.00470089
-0.0015006
0.000116762
0.00399664
-0.000280323
0.000952411
0.00564351
-0.000303188
0.000893197
0.00581482
-0.00035336
0.00076328
0.00599031
-0.000447296
0.000570831
0.00591836
-0.000669044
0.000345755
0.00566065
-0.0011654
0.000257206
0.00551826
-0.00176966
-7.67645e-06
0.00365
-0.000382698
0.00132145
0.00630885
-0.000206972
0.00112121
0.00649016
-0.000187536
0.00105551
0.0067597
-0.000115338
0.000787351
0.00681652
-0.00045611
0.000633342
0.00672805
-0.000741241
0.000446007
0.0060707
-0.00110163
0.000257287
0.0052823
-0.00166613
0.000676731
0.00412406
-0.000624646
0.00128887
0.00697054
-0.000335525
0.0011635
0.00731724
-5.41059e-05
0.0011344
0.00756512
0.000102609
0.00100253
0.00736193
3.60836e-05
0.00108311
0.00720648
-0.000277943
0.00112706
0.00771295
-0.000559742
0.00090642
0.00826802
-0.00138576
0.000340381
0.00613363
-0.000860853
-6.11826e-05
0.00664484
-0.000519026
0.000747396
0.00636381
-0.000458559
0.000707756
0.00655612
-0.000177485
0.000586585
0.005908
-3.31793e-05
0.000523759
0.00520463
-7.08931e-05
0.000511345
0.00509664
-2.73132e-05
0.000458749
0.00564359
-1.82561e-05
0.000521872
0.00663662
-4.1707e-05
0.000676255
0.00788992
-0.00101702
0.000931198
0.00947507
-0.00059422
0.000341678
0.00752683
-0.000199016
0.000349835
0.0053621
-0.000319937
0.000190154
0.00520835
-0.000113177
0.000117987
0.00469756
-0.000145695
9.61713e-05
0.00392554
-0.000228015
8.93813e-05
0.0029908
-0.000297608
9.53245e-05
0.00266963
-0.000148592
0.000113463
0.0025487
2.52253e-05
-3.60314e-05
0.0029286
-5.56596e-05
0.000155356
0.00585439
-0.000286846
0.000409751
0.00906172
-0.000689937
0.000591704
0.00759382
-2.0564e-05
0.000132051
0.00208
-3.75695e-06
2.82931e-05
0.00208115
-9.78371e-06
-3.79012e-05
0.00212656
-4.75144e-05
-6.00986e-05
0.00219796
-7.46421e-05
-7.96065e-05
0.00194983
-6.0661e-05
-5.21384e-05
0.00159775
-3.04523e-05
3.88736e-05
0.00122977
-7.82734e-05
0.000128161
0.00122668
-6.23758e-05
0.000195078
0.00179716
-0.000138097
0.000288523
0.00281445
-0.000125734
0.000301637
0.00463431
-0.000757476
0.000395244
0.00532142
-8.20154e-06
-0.000172579
-0.000387079
9.03114e-05
-0.000104854
-0.000274469
9.4975e-05
-4.53343e-05
-7.74979e-05
7.04586e-05
-4.15082e-05
-0.000305812
3.42857e-05
-9.25947e-05
-0.000561451
-6.44468e-06
-0.00015622
6.7867e-05
-6.02064e-05
-0.000177452
0.00060266
2.51702e-06
-0.000162321
0.00149898
2.47961e-05
-0.000171419
0.00157638
-1.46519e-05
-0.000155408
0.000937941
-6.86384e-06
-0.000145829
0.000109828
-7.7451e-05
-0.000131726
0.000452825
-0.000417086
2.70252e-05
0.00218299
-4.86292e-05
-7.63364e-05
-0.000703515
-3.14168e-05
-6.45294e-05
-0.00113218
1.6433e-05
-5.84391e-05
-0.00108728
4.55792e-05
-5.19238e-05
-0.000703655
4.81925e-05
-4.77306e-05
-0.000752707
5.67078e-05
-5.45003e-05
-0.00103095
3.95372e-05
-6.16007e-05
-0.000835528
6.53232e-09
-6.97072e-05
-0.000492267
-2.29558e-05
-7.87283e-05
-0.000195745
8.42779e-06
-8.8024e-05
0.00040829
1.11801e-05
-8.41965e-05
0.000778365
-1.75894e-06
-7.5956e-05
1.96184e-05
-4.90639e-05
-6.51925e-05
-0.000474475
-0.000112291
-4.00649e-05
-0.00102408
-0.0017147
6.72846e-05
0.00257572
-0.00161664
9.32715e-05
0.00333753
-0.00150629
-2.07323e-05
0.00289863
-0.00120376
6.70255e-05
0.00426465
-0.00143617
2.04004e-05
0.00368802
-0.0016361
-1.5864e-05
0.00285999
-0.00075417
0.00022537
0.0046167
-0.000929645
0.000231297
0.00439645
-0.001421
0.000283733
0.00403318
-0.00153104
0.000154075
0.00311713
-0.000771097
0.000409148
0.00473288
-0.000685032
0.000221721
0.00446104
-0.00109783
0.000123999
0.0044717
-0.00131661
5.20235e-05
0.00434333
-0.00163315
1.841e-05
0.00334272
-0.000586968
0.00067799
0.00528248
-0.000617302
0.000477353
0.00523351
-0.000659621
0.000398314
0.00478616
-0.000834306
0.000293936
0.00451917
-0.00130665
0.000271703
0.00408634
-0.0017481
0.000117972
0.00321041
-0.000439275
0.000806208
0.00594811
-0.000506103
0.000560309
0.00598203
-0.000328073
0.000381847
0.00578503
-0.000439528
0.000317372
0.00552358
-0.000948736
0.000211456
0.00547515
-0.00110663
8.19436e-05
0.00467694
-0.00163926
6.67663e-05
0.00379947
-0.000220895
0.00097927
0.00561556
-0.000271893
0.00091818
0.00568345
-0.000312962
0.000915586
0.00578794
-0.000261637
0.000770041
0.0059374
-0.000530271
0.000519494
0.00581878
-0.000657898
0.000335759
0.00549875
-0.00125376
0.000321066
0.00534165
-0.00171031
2.19252e-05
0.00367226
-0.000380076
0.00128458
0.00600812
-0.000404181
0.00119214
0.00630658
-0.000274507
0.00123072
0.00653534
-0.000182002
0.0010304
0.00680126
-0.000146656
0.000815206
0.0068174
-0.000391253
0.00068331
0.00660406
-0.000756425
0.000462727
0.00606194
-0.000804766
0.000468462
0.00490957
-0.0014795
0.000494054
0.00424866
-0.000523469
0.00116856
0.00691127
-0.000542742
0.00113428
0.00708394
-0.000167509
0.00112261
0.00731905
0.000114027
0.0010871
0.00733335
0.000194621
0.000985805
0.00719372
-3.5945e-05
0.0010166
0.00732558
-0.000359787
0.00117489
0.00778601
-0.000615039
0.000965945
0.00821578
-0.00155612
0.000350866
0.00626068
-0.000764333
4.5252e-05
0.0067697
-0.000555519
0.000810443
0.00659367
-0.000602688
0.000718321
0.006636
-0.000306416
0.000695928
0.00664002
-0.000165648
0.000617601
0.00583411
-0.000124988
0.0005572
0.00505575
-0.000268161
0.000557226
0.00496871
-0.000280915
0.000531378
0.0057664
-0.000181734
0.000613355
0.00690648
-6.55232e-05
0.000765474
0.0080655
-0.000812862
0.000743901
0.00959886
-0.000568434
0.000105336
0.00729999
-9.01715e-05
0.000370435
0.00562078
-0.000179711
0.000333081
0.00539513
-6.13749e-05
0.00020487
0.00517306
-0.000170894
0.000157262
0.00475984
-0.000201924
0.00016198
0.00398022
-0.000267988
0.000148333
0.00314512
-0.000228478
0.000107733
0.00287339
-0.000268612
5.52882e-05
0.00264772
1.91192e-06
4.85062e-05
0.00297116
-0.000134664
0.000252511
0.0060082
-6.50503e-05
0.000604967
0.00898777
-0.000873307
0.000528447
0.00718121
-1.2318e-05
8.61658e-05
0.00254992
-1.1516e-05
0.000128505
0.00208161
-6.80675e-06
3.25919e-05
0.00211244
-1.96134e-05
-2.68749e-05
0.00218341
-6.40932e-05
-4.55564e-05
0.00226229
-8.85948e-05
-7.42883e-05
0.00205413
-8.57043e-05
-5.02727e-05
0.0017124
-2.275e-05
6.83359e-05
0.00131486
-3.9635e-05
0.000160127
0.00132606
-8.81244e-05
0.000251873
0.00190728
-7.23857e-05
0.000300093
0.00288152
-4.14437e-05
0.000337256
0.00465629
-0.000874782
0.000407967
0.00537115
-6.09173e-05
-0.00023185
-4.64897e-05
-3.6136e-05
-0.000165033
-0.000322181
8.00463e-05
-0.000114686
-0.00026873
9.48246e-05
-5.37161e-05
-0.000114535
6.1824e-05
-4.73464e-05
-0.000364692
2.24942e-05
-9.33923e-05
-0.000590065
-1.59397e-05
-0.000158558
0.00010445
-6.95398e-05
-0.000167401
0.000677286
-1.8618e-05
-0.000159886
0.00148311
1.16137e-05
-0.000162842
0.00158063
-3.99657e-05
-0.000141983
0.00098524
-3.44976e-05
-0.000129328
0.000140169
-0.000103555
-0.000116971
0.000651312
-0.000475273
3.6046e-05
0.00250993
-6.64426e-05
-8.53532e-05
-7.4199e-05
-4.82222e-05
-6.96345e-05
-0.000650188
-3.68257e-05
-6.52208e-05
-0.00108857
1.03808e-05
-5.90242e-05
-0.00109056
4.23026e-05
-5.22176e-05
-0.000741471
4.42842e-05
-4.74526e-05
-0.000804038
5.44849e-05
-5.3634e-05
-0.0010934
3.02399e-05
-6.16255e-05
-0.000873849
-3.25917e-06
-7.00461e-05
-0.00049769
-2.61632e-05
-7.68604e-05
-0.000180745
4.88117e-06
-8.59869e-05
0.000405199
1.09583e-05
-8.43932e-05
0.000775844
-6.96262e-06
-7.63035e-05
3.7692e-05
-5.68466e-05
-6.50742e-05
-0.000392619
-0.00012021
-4.01798e-05
-0.000863694
-0.00169689
-4.84155e-06
0.00242347
-0.00165053
0.00011701
0.00313489
-0.0015606
0.000120148
0.00250988
-0.00157801
0.000382735
0.00363554
-0.00140066
-2.55284e-05
0.00330682
-0.00149098
-2.83955e-05
0.0027819
-0.000845878
0.000162907
0.00426162
-0.000906288
2.26284e-05
0.00423906
-0.00136745
4.67242e-06
0.00361395
-0.00151588
-6.5476e-05
0.00291031
-0.00101658
0.000446779
0.00456494
-0.000558726
0.000226219
0.00449547
-0.00101813
0.000193354
0.00440712
-0.00140418
0.00017681
0.00409801
-0.00169773
0.000118114
0.0030636
-0.000717125
0.000538191
0.00476452
-0.000631236
0.000347667
0.00462087
-0.000759959
0.00020993
0.00447545
-0.00106183
0.000134271
0.00461698
-0.00103867
7.9904e-05
0.00401385
-0.0016841
3.21921e-05
0.00324653
-0.000389378
0.000700031
0.00530007
-0.000504994
0.000590753
0.00516797
-0.000205864
0.000435914
0.00507371
-0.00047073
0.000419307
0.00469199
-0.000935927
0.000284727
0.00449334
-0.00127188
0.000210781
0.00415878
-0.00172725
4.93057e-05
0.00324909
-0.000300419
0.000839224
0.00601554
-0.000461284
0.000620393
0.00607741
-0.000366448
0.000461691
0.00595567
-0.000342957
0.000378332
0.00580539
-0.000530505
0.000269862
0.00546541
-0.000685569
0.000225001
0.00535976
-0.00112805
4.96947e-05
0.0045683
-0.00163958
0.000135957
0.00359279
-0.000246779
0.000947548
0.00591557
-0.000295834
0.000777491
0.0056479
-0.000256035
0.000928289
0.00565227
-0.000251832
0.000907763
0.00572005
-0.000302472
0.000721428
0.00589128
-0.000607588
0.00050893
0.00586194
-0.000698525
0.000323863
0.00543805
-0.00120751
0.000331039
0.00543529
-0.00162408
8.66055e-05
0.00373024
-0.000234491
0.00107581
0.00620107
-0.00042518
0.00109808
0.00598461
-0.000123122
0.00130059
0.00619232
-0.00015857
0.00127989
0.00655845
-2.90628e-05
0.00104412
0.00679604
-0.000179139
0.000918017
0.00672588
-0.000438271
0.000771598
0.00637367
-0.000705399
0.000514953
0.00610581
-0.0011923
0.000365404
0.0046744
-0.00143552
0.000429006
0.00449084
-0.000534314
0.00107335
0.00690355
-0.000496168
0.00103433
0.0069047
-0.000438338
0.00110326
0.00723521
-0.000192554
0.00110073
0.00733233
8.71764e-05
0.000895224
0.00721177
-3.42256e-05
0.000920106
0.00705627
-0.00026362
0.000986211
0.00749697
-0.000458439
0.00112303
0.00790563
-0.000534206
0.000948461
0.00808687
-0.00132694
0.000348717
0.00647129
-0.000720851
0.000124765
0.00679735
-0.000277124
0.00084092
0.00682342
-0.000482374
0.000755751
0.0068589
-0.00025907
0.000733088
0.00679653
-0.000243674
0.000756119
0.00657428
-0.000206539
0.000655032
0.00574089
-0.000276728
0.000599595
0.00502212
-0.000417355
0.000676083
0.00501288
-0.000299581
0.000769157
0.00564157
-0.000178809
0.000656507
0.00719617
-0.000214253
0.000623936
0.00826506
-0.000603079
0.000685904
0.00955632
-0.000543241
-2.75018e-05
0.00699743
-7.16488e-05
0.000329997
0.00562741
-5.39452e-05
0.000309575
0.00568672
-0.000125736
0.000336453
0.00538247
-5.38189e-05
0.000241622
0.00512291
-0.000165913
0.000203912
0.00481973
-0.000268917
0.000233998
0.00407488
-0.000287638
0.000144149
0.00331064
-0.000217371
0.000132391
0.0029909
-0.000279037
0.000138746
0.00279688
-8.65982e-05
8.01654e-05
0.00314198
-3.73276e-05
0.000417832
0.00616028
9.95484e-05
0.00064447
0.00873076
-0.00100612
0.00048725
0.00682529
-0.000126252
7.33882e-05
0.00273656
-1.73452e-05
0.000100829
0.00255881
-5.86083e-06
0.000127744
0.00207237
2.54006e-05
3.6471e-05
0.00211851
-3.21314e-05
-1.52951e-05
0.00224711
-6.59902e-05
-3.54416e-05
0.00231192
-0.000118314
-6.26499e-05
0.00216888
-0.000105679
-1.96807e-05
0.00183655
-0.000141121
8.28774e-05
0.00151461
-4.38475e-05
0.000189706
0.00144369
-0.000167588
0.000272943
0.00206205
-0.000132271
0.000347355
0.00296919
-0.000218223
0.000376751
0.00480217
-0.000998366
0.000378084
0.00551616
-0.000108273
-0.00027983
0.000347122
-5.23118e-05
-0.000215321
7.88748e-06
-4.55943e-05
-0.000174288
-0.000253811
6.82341e-05
-0.000122962
-0.000257338
9.42761e-05
-6.14667e-05
-0.000152389
5.33272e-05
-5.19867e-05
-0.00041514
9.87137e-06
-9.42242e-05
-0.000609785
-3.68345e-05
-0.00015703
0.000161154
-7.33593e-05
-0.000165972
0.000753472
-1.68477e-05
-0.000155701
0.00146666
-2.49501e-06
-0.00016028
0.0016063
-2.46242e-05
-0.000125849
0.00101734
-3.00381e-05
-0.000111561
0.000157834
-8.70341e-05
-0.000103525
0.000821071
-0.000491055
5.20232e-05
0.00282875
-5.88714e-05
-8.87923e-05
-9.85199e-05
-5.92985e-05
-7.78841e-05
-6.65085e-06
-5.19361e-05
-7.02222e-05
-0.00059325
-4.4422e-05
-6.52588e-05
-0.00103792
3.74828e-06
-5.97918e-05
-0.00108674
3.77499e-05
-5.25077e-05
-0.000774165
3.97225e-05
-4.72971e-05
-0.000850098
4.62556e-05
-5.33329e-05
-0.00114795
2.18728e-05
-6.25997e-05
-0.000903169
-9.87848e-06
-7.04434e-05
-0.000494229
-3.28688e-05
-7.48456e-05
-0.000159018
1.90918e-06
-8.43891e-05
0.000403286
7.74586e-06
-8.45737e-05
0.000776369
-9.94397e-06
-7.65596e-05
5.91213e-05
-6.76503e-05
-6.53042e-05