/*--------------------------------*- C++ -*----------------------------------*\
  =========                 |
  \\      /  F ield         | OpenFOAM: The Open Source CFD Toolbox
   \\    /   O peration     | Website:  https://openfoam.org
    \\  /    A nd           | Version:  7
     \\/     M anipulation  |
\*---------------------------------------------------------------------------*/
FoamFile
{
    version     2.0;
    format      ascii;
    class       volVectorField;
    location    "3.5";
    object      U_0;
}
// * * * * * * * * * * * * * * * * * * * * * * * * * * * * * * * * * * * * * //

dimensions      [0 1 -1 0 0 0 0];

internalField   nonuniform List<vector> 
18750
(
(1.38868 0.440683 -0.934527)
(0.0339902 0.856609 -0.323177)
(0.601224 -0.0918953 -1.29625)
(1.33916 0.444356 -0.96107)
(-2.52075 -0.0175951 0.0292039)
(0.306197 0.554903 -1.58465)
(-0.0921227 0.697839 -0.258068)
(-0.096392 0.221805 -1.50405)
(0.609252 -0.100146 -1.27699)
(1.35156 0.444569 -0.900411)
(-4.27707 -1.4298 0.47533)
(-1.77302 0.12237 -0.500937)
(-2.76794 -0.294412 -0.0159504)
(-0.268628 0.702712 -1.11549)
(0.276263 0.573175 -1.59116)
(-0.200761 0.51801 -0.193439)
(-0.486007 -0.0243313 -1.59142)
(-0.0855101 0.19395 -1.43263)
(0.608866 -0.110878 -1.25391)
(1.31946 0.455615 -0.883431)
(-4.60405 -2.78291 0.26402)
(-3.71422 -1.26555 0.132699)
(-4.55621 -1.6737 0.485516)
(-0.786612 -0.158078 -0.989889)
(-1.98023 0.0279861 -0.467034)
(-2.96671 -0.519103 0.100197)
(-0.805868 0.0862028 -0.508122)
(-0.250152 0.569659 -1.22085)
(0.227741 0.578147 -1.59801)
(-0.29445 0.28957 -0.115886)
(-0.300035 0.406786 -2.11998)
(-0.490579 -0.0424725 -1.59633)
(-0.0796771 0.196937 -1.37996)
(0.622019 -0.128458 -1.23109)
(1.32527 0.455705 -0.888549)
(-3.93173 -2.76279 0.543154)
(-4.87739 -1.62113 1.3186)
(-4.59986 -2.96851 0.388057)
(-3.35421 -1.3309 -1.26144)
(-4.18168 -0.905029 -0.311276)
(-4.79665 -1.86519 0.413297)
(-0.958251 -0.0472951 -0.127975)
(-0.93369 -0.252156 -0.85311)
(-2.1628 -0.148917 -0.282768)
(-3.10806 -0.811145 0.168147)
(-1.20597 -0.113435 -1.06313)
(-0.793608 0.0639144 -0.589415)
(-0.226801 0.498857 -1.33532)
(0.192783 0.56917 -1.58246)
(-0.358544 0.0526273 -0.0247001)
(0.0542648 0.634041 -2.44476)
(-0.328074 0.368337 -2.14773)
(-0.49117 -0.0548325 -1.60337)
(-0.0801722 0.212174 -1.39367)
(0.639792 -0.123482 -1.21248)
(1.31182 0.401249 -0.918351)
(-3.17434 -2.37679 0.0990836)
(-4.93041 -2.14783 0.782252)
(-3.67153 -3.20787 0.378542)
(-5.55421 -0.444465 1.73715)
(-4.83713 -1.99183 1.03631)
(-4.61301 -3.13053 0.278571)
(-2.49263 -1.86069 -0.233133)
(-3.54347 -1.57696 -0.827032)
(-4.51468 -0.923228 -0.106465)
(-4.96161 -2.09302 0.332179)
(-0.989076 0.712345 -0.580275)
(-1.07414 0.0241449 -0.0544997)
(-1.02464 -0.295701 -0.783138)
(-2.28479 -0.308347 -0.201724)
(-3.166 -1.17788 0.224946)
(-1.00967 0.232879 -1.379)
(-1.19332 -0.15275 -1.14949)
(-0.787447 -0.0419772 -0.684177)
(-0.213936 0.517762 -1.44458)
(0.132292 0.528551 -1.53929)
(-0.402184 -0.175248 0.0367985)
(0.224526 0.643327 -1.79326)
(0.0521481 0.460136 -2.38504)
(-0.345517 0.320969 -2.17525)
(-0.499827 -0.0859375 -1.61109)
(-0.0934 0.233527 -1.46899)
(0.624985 -0.0875204 -1.21517)
(1.2534 0.38407 -0.882285)
(-3.15125 -2.00231 -0.109033)
(-3.82466 -1.32872 0.33234)
(-2.92303 -2.68605 0.0983767)
(-4.95086 -1.27098 0.854691)
(-4.77775 -2.28073 0.973059)
(-3.30988 -3.66054 0.184379)
(-5.25837 -0.398814 2.79349)
(-5.50103 -0.880022 1.69965)
(-4.80603 -1.82512 1.47508)
(-4.57466 -3.32092 0.269328)
(-1.83886 -0.104111 -0.435024)
(-2.29266 -1.39295 -0.548989)
(-3.5721 -1.66377 -0.525896)
(-4.70339 -1.24954 0.0823245)
(-5.05191 -2.33558 0.596888)
(-0.759126 0.493022 0.0367419)
(-0.98626 0.881882 -0.641806)
(-1.13585 0.0219665 -0.00596148)
(-1.12999 -0.40795 -0.610112)
(-2.43406 -0.449396 0.0295631)
(-3.17496 -1.52398 0.348355)
(-0.191987 -0.342797 -1.66575)
(-1.04732 0.235671 -1.39172)
(-1.18887 -0.0878155 -1.22283)
(-0.777467 -0.0107548 -0.777867)
(-0.187749 0.520744 -1.53857)
(0.094019 0.46283 -1.46156)
(-0.416036 -0.43101 0.13705)
(0.306596 1.17502 -1.71381)
(0.216515 0.553918 -1.73232)
(0.065473 0.291127 -2.32163)
(-0.349361 0.264485 -2.19004)
(-0.498206 -0.112479 -1.61244)
(-0.078365 0.203633 -1.55039)
(0.643002 -0.103473 -1.19349)
(1.21633 0.350509 -0.851259)
(-2.97217 -1.56572 0.186205)
(-3.70038 -1.84963 0.132175)
(-3.02328 -2.05453 0.0244055)
(-4.23305 -0.921433 0.53443)
(-3.90682 -1.39165 0.290274)
(-2.52394 -3.21347 0.0802633)
(-4.74184 1.07096 1.41735)
(-4.81204 -1.41352 0.957185)
(-4.51267 -2.41687 1.12638)
(-3.1595 -3.75995 0.0742089)
(-4.44674 0.291499 2.54335)
(-4.26271 1.8236 -0.436269)
(-5.58266 -0.671467 1.92217)
(-4.70512 -2.07516 1.27318)
(-4.65378 -3.30117 0.433639)
(-1.88517 -0.161344 0.370437)
(-1.79717 0.174525 -0.318009)
(-2.07588 -0.654466 -1.0146)
(-3.69067 -1.67019 -0.304672)
(-4.71437 -2.04887 0.550288)
(-4.99365 -2.679 0.743803)
(-0.909995 0.488994 -0.249281)
(-0.746095 0.354894 0.065721)
(-0.968852 0.913442 -0.559853)
(-1.16713 0.0891101 -0.0607109)
(-1.23426 -0.584908 -0.48172)
(-2.51557 -0.773 0.176896)
(-3.10353 -1.92315 0.471263)
(0.0122467 0.264345 -1.28413)
(-0.239519 -0.358663 -1.58078)
(-1.09902 0.0951008 -1.37433)
(-1.14416 -0.237371 -1.2968)
(-0.776289 0.130158 -0.85394)
(-0.200685 0.474829 -1.59718)
(0.0562694 0.378201 -1.36278)
(-0.401023 -0.706448 0.245473)
(0.399151 1.09187 -1.27197)
(0.294676 1.07513 -1.66819)
(0.209659 0.479117 -1.68211)
(0.088607 0.123213 -2.25587)
(-0.365017 0.195246 -2.20008)
(-0.499684 -0.137224 -1.60295)
(-0.0597062 0.151933 -1.62398)
(0.652807 -0.128603 -1.17445)
(1.17275 0.307736 -0.88126)
(-1.64292 -2.93504 -0.0784682)
(-3.09284 -1.68958 0.236669)
(-2.85481 -1.62237 0.218884)
(-4.12279 -0.439277 0.996252)
(-3.47659 -2.33559 0.192703)
(-2.55287 -2.4849 -0.0299709)
(-4.07317 -0.321263 0.833114)
(-3.94342 -1.18516 0.569661)
(-3.75947 -1.77456 0.465129)
(-2.27389 -3.48054 0.0400943)
(-4.70556 1.72425 1.66846)
(-4.63718 0.026607 1.54825)
(-4.83142 -1.3207 0.990363)
(-4.42153 -2.56311 1.36564)
(-2.95331 -3.78573 0.0916724)
(-3.8158 1.9944 1.7327)
(-4.30276 0.704498 1.73314)
(-4.65864 0.664364 0.672629)
(-5.78353 -1.19078 1.52286)
(-4.59597 -2.6043 0.640697)
(-4.84775 -3.37012 0.421043)
(-1.75207 0.482301 -0.248112)
(-1.67214 0.00411396 0.252164)
(-1.73983 0.0626808 -0.182378)
(-1.92606 -1.04359 -0.655792)
(-3.75565 -1.84627 -0.173315)
(-5.32847 -1.5059 -0.185752)
(-4.89767 -3.06217 0.571201)
(-1.11444 -0.0539666 -0.687655)
(-0.958113 0.157699 -0.130966)
(-0.691276 0.184782 0.134313)
(-0.963476 0.819491 -0.244979)
(-1.23569 0.139272 -0.0329131)
(-1.25696 -0.836893 -0.113454)
(-2.56916 -0.833739 0.577465)
(-2.93036 -2.37492 0.617522)
(0.287564 0.698683 -0.896445)
(-0.00891452 0.222233 -1.30722)
(-0.185943 -0.415078 -1.59583)
(-1.08319 0.0635072 -1.36554)
(-1.13616 -0.184005 -1.36242)
(-0.7561 0.162366 -0.974815)
(-0.20224 0.432834 -1.62492)
(0.00677091 0.270346 -1.24106)
(-0.340897 -1.00019 0.354879)
(0.339086 0.604102 -1.14292)
(0.398903 1.08719 -1.29577)
(0.288263 0.99126 -1.61562)
(0.209031 0.426554 -1.65235)
(0.141145 -0.0434954 -2.18042)
(-0.372879 0.170122 -2.2091)
(-0.50031 -0.154194 -1.60602)
(-0.0425234 0.0817476 -1.67695)
(0.657113 -0.140945 -1.15759)
(1.18163 0.275212 -0.895494)
(-2.77681 -1.26432 -0.241701)
(-3.03282 -1.37829 0.175091)
(-1.6868 -2.8612 -0.111409)
(-3.41519 -0.849327 0.312133)
(-3.0921 -1.76275 0.22462)
(-2.95496 -1.49087 0.360523)
(-4.02026 -0.236163 0.651285)
(-4.11294 -0.300999 0.97585)
(-3.34472 -2.54602 -0.039314)
(-2.17871 -2.86911 -0.0819137)
(-4.06481 0.262414 1.31048)
(-4.12989 -0.833935 0.763949)
(-3.6679 -1.51241 0.51601)
(-3.94376 -1.40762 0.30114)
(-2.09529 -3.57425 0.150925)
(-4.43363 1.81355 2.11646)
(-4.73047 1.15996 1.63253)
(-4.98278 1.10753 1.47719)
(-4.91257 -1.28809 1.18061)
(-3.65058 -3.7484 1.05738)
(-2.93713 -3.64408 0.207794)
(-3.71109 1.36807 1.27341)
(-3.86336 1.65391 1.1037)
(-3.98443 0.198485 1.26101)
(-4.55096 0.555361 1.1223)
(-5.60936 -0.918137 1.41401)
(-4.70697 -3.13701 0.45047)
(-4.67977 -3.97337 0.171977)
(-2.5461 0.236758 -0.188933)
(-1.67805 0.0650533 -0.0816484)
(-1.53517 -0.000275336 0.168648)
(-1.70438 -0.301736 -0.33002)
(-1.81716 -1.02832 -0.716791)
(-3.68455 -2.07309 -0.069892)
(-5.34389 -2.32154 0.158191)
(-4.73906 -3.53067 0.670879)
(-1.33869 -0.0625761 -0.550513)
(-1.13624 -0.122652 -0.655777)
(-0.940471 0.219801 -0.154884)
(-0.660571 0.0581007 0.14236)
(-0.908932 0.62887 0.072327)
(-1.22226 0.0478854 0.1694)
(-1.37517 -0.986258 0.123103)
(-2.53904 -1.28129 0.617329)
(-2.71229 -2.8101 0.829247)
(0.0502622 0.527726 -0.342469)
(0.272483 0.70815 -0.917349)
(-0.0286415 0.200491 -1.31366)
(-0.202885 -0.482445 -1.53829)
(-1.07406 -0.0155667 -1.34586)
(-1.15384 -0.0102887 -1.39491)
(-0.690202 0.0281259 -1.07931)
(-0.215309 0.390751 -1.59826)
(-0.0342616 0.139155 -1.09939)
(-0.255625 -1.38876 0.561072)
(0.361599 0.38404 -1.16038)
(0.344096 0.599458 -1.10929)
(0.40463 1.08197 -1.30537)
(0.286365 0.923255 -1.56024)
(0.207567 0.400851 -1.64079)
(0.18404 -0.178347 -2.09227)
(-0.336165 0.0807419 -2.2178)
(-0.499028 -0.146682 -1.60118)
(-0.00955136 0.0258347 -1.70966)
(0.665557 -0.160334 -1.14211)
(1.15804 0.195381 -0.833247)
(-2.34052 -1.57191 0.204468)
(-2.91721 -1.34717 0.0644736)
(-2.54355 -1.46665 -0.143707)
(-2.98478 -0.983977 0.244313)
(-2.81696 -1.6429 0.144271)
(-1.65892 -2.78033 -0.0396117)
(-3.59865 -0.612103 0.554184)
(-3.47675 -1.09834 0.276127)
(-2.78945 -2.04782 0.303299)
(-2.75395 -1.73856 0.414625)
(-3.92569 -0.000955632 1.10312)
(-4.06465 -0.475033 0.656951)
(-3.766 -1.67097 0.568995)
(-3.50682 -2.28695 -0.229332)
(-1.8309 -3.20564 -0.506955)
(-4.22471 -0.121803 1.54753)
(-4.29653 -0.348361 1.22206)
(-4.03986 -0.965723 0.802251)
(-3.77694 -1.59294 0.465753)
(-3.49336 -1.86493 0.441675)
(-2.04588 -3.4567 0.657394)
(-4.68332 0.511816 2.44053)
(-4.74411 1.29373 1.93302)
(-4.88495 1.04856 1.68557)
(-5.14035 -0.14275 1.79859)
(-5.06075 -1.28457 1.12889)
(-3.23669 -4.47187 0.291505)
(-3.02157 -3.47194 0.166147)
(-3.9922 0.164015 1.44348)
(-3.82678 0.519351 1.10125)
(-3.89778 0.674762 0.982371)
(-3.6881 -0.702705 0.742174)
(-4.20088 -0.193993 1.31985)
(-5.60311 -0.00618468 1.44154)
(-5.09399 -2.9256 1.1579)
(-4.53145 -4.1973 0.114998)
(-2.98511 -0.265754 0.176002)
(-2.52026 0.00871537 -0.011616)
(-1.66761 -0.0725613 -0.0502723)
(-1.48288 -0.265973 0.158277)
(-1.7258 0.0686894 -0.0210146)
(-1.83834 -0.693826 -0.768391)
(-3.46535 -2.11525 0.472141)
(-5.29913 -2.71758 0.603298)
(-4.38778 -3.9964 1.10658)
(-1.29663 0.145643 -0.325139)
(-1.3736 -0.22221 -0.439982)
(-1.15804 -0.23087 -0.595642)
(-0.97633 -0.0165656 -0.0995986)
(-0.657975 -0.0219594 0.178784)
(-0.816992 0.29465 0.415858)
(-1.17442 -0.161242 0.388707)
(-1.28759 -1.13667 0.622841)
(-2.3488 -1.67889 1.00637)
(-2.45047 -3.20573 1.11076)
(0.0128792 0.756956 -0.0329601)
(0.0638364 0.601922 -0.381066)
(0.256776 0.6694 -0.937434)
(-0.0407116 0.182481 -1.32954)
(-0.208638 -0.508061 -1.45162)
(-1.07873 -0.0978561 -1.30646)
(-1.09894 -0.160382 -1.43025)
(-0.66389 -0.011653 -1.09114)
(-0.231024 0.335929 -1.54008)
(-0.0451479 0.00686097 -0.9641)
(-0.0861282 -1.75953 0.729856)
(0.665738 -0.0420054 -1.26438)
(0.370183 0.371875 -1.14573)
(0.347477 0.591191 -1.08529)
(0.396705 1.04264 -1.32654)
(0.280624 0.876005 -1.50633)
(0.19673 0.388177 -1.65354)
(0.233642 -0.270516 -1.99735)
(-0.310196 -0.00433775 -2.22658)
(-0.509025 -0.14947 -1.59053)
(0.017618 -0.028046 -1.72691)
(0.674306 -0.176785 -1.12636)
(1.15624 0.108123 -0.790602)
(-1.96793 -1.42101 -0.0932448)
(-2.84089 -0.971669 -0.05872)
(-2.27634 -1.60496 0.164821)
(-2.97939 -0.89922 0.0313651)
(-2.87499 -1.36648 -0.202248)
(-2.13353 -1.88153 -0.0577822)
(-3.19709 -0.364817 0.406639)
(-2.97502 -1.29062 0.182509)
(-2.56668 -1.87115 0.224868)
(-1.74418 -2.52274 -0.0764379)
(-3.68751 -0.352071 0.583334)
(-3.61532 -0.83995 0.529834)
(-3.47776 -1.35596 0.266271)
(-2.81893 -1.89455 0.137968)
(-2.44439 -2.10915 0.350236)
(-3.84171 0.10734 1.06075)
(-3.98219 -0.447243 1.05246)
(-3.97782 -1.07565 0.652054)
(-3.78782 -1.6446 0.465106)
(-3.29429 -2.42707 0.0806861)
(-1.40285 -3.53345 -0.860274)
(-4.28479 -0.773993 1.80979)
(-4.39462 -0.823563 1.39703)
(-4.32551 -0.876515 1.01826)
(-4.2485 -1.40437 0.820951)
(-3.58061 -2.20282 0.369966)
(-3.35823 -2.04353 0.634399)
(-1.96547 -3.24388 0.726633)
(-4.60024 0.26987 2.76801)
(-4.90361 0.361291 2.35281)
(-4.97838 0.505373 2.19789)
(-4.85637 -0.211119 2.14622)
(-5.01885 -1.28728 2.03484)
(-5.05535 -1.84012 1.08543)
(-2.41424 -5.42815 -0.445739)
(-3.31194 -3.01422 0.189195)
(-4.14374 -0.574848 1.70376)
(-3.86998 -0.742227 1.35971)
(-3.67314 -0.590985 1.05373)
(-3.50155 -1.13091 1.06567)
(-3.51858 -0.981517 0.914618)
(-4.20907 -0.301078 1.37066)
(-5.40727 -0.609525 1.86811)
(-5.59525 -2.43321 1.36559)
(-4.12641 -4.29999 0.352752)
(-3.25522 -0.0370518 0.158159)
(-3.04143 -0.0769954 0.296225)
(-2.57307 -0.136901 0.0966422)
(-1.77857 -0.337917 0.0128599)
(-1.52612 -0.390337 0.261431)
(-1.71044 -0.385409 0.248162)
(-1.69803 -0.923995 -0.474091)
(-3.3278 -2.10254 0.833494)
(-5.12246 -3.09416 1.00553)
(-3.76223 -4.49538 1.10593)
(-1.35729 0.195635 -0.222945)
(-1.34745 0.0685234 -0.276585)
(-1.37775 -0.261877 -0.411981)
(-1.16886 -0.350127 -0.525262)
(-0.98202 -0.166252 -0.0806349)
(-0.690389 -0.162424 0.242774)
(-0.780695 0.12971 0.554907)
(-1.09676 -0.425864 0.624416)
(-1.35822 -1.41226 0.638265)
(-2.67136 -1.47004 1.29941)
(-2.02994 -3.59501 1.39423)
(0.205815 0.789602 -0.439715)
(-0.0108336 0.788635 -0.0742561)
(0.075411 0.634877 -0.419245)
(0.251531 0.592103 -0.953657)
(-0.0532263 0.157364 -1.34726)
(-0.192105 -0.522383 -1.36032)
(-1.03962 -0.168001 -1.27578)
(-1.07732 -0.208034 -1.44495)
(-0.644847 -0.078662 -1.03132)
(-0.235194 0.284453 -1.46601)
(-0.0466539 -0.162791 -0.779957)
(0.0683457 -2.0954 0.848802)
(0.801243 -0.25769 -1.38495)
(0.689139 -0.0575412 -1.2794)
(0.378237 0.369925 -1.13227)
(0.354185 0.587354 -1.06957)
(0.419771 1.01866 -1.33057)
(0.285489 0.848216 -1.4628)
(0.191677 0.395224 -1.68053)
(0.283898 -0.334116 -1.9021)
(-0.292982 -0.0614608 -2.22538)
(-0.506809 -0.157594 -1.59596)
(0.0512114 -0.0771672 -1.73122)
(0.695079 -0.212113 -1.10484)
(1.14873 0.0290613 -0.739631)
(-1.95957 -1.13116 -0.010428)
(-2.34344 -1.21155 -0.0157431)
(-1.91989 -1.54367 -0.0334112)
(-2.94216 -1.04553 0.265704)
(-2.63705 -1.4437 0.234753)
(-1.95857 -1.84069 0.159929)
(-3.00576 -0.506141 0.175298)
(-2.97089 -1.09659 0.0685815)
(-2.68159 -1.62815 -0.0991022)
(-2.14443 -1.82881 -0.0713527)
(-3.36278 -0.449193 0.377328)
(-3.11047 -0.919144 0.422184)
(-2.825 -1.50295 0.157846)
(-2.54599 -1.87788 0.312176)
(-1.48798 -2.63768 -0.0221945)
(-3.84823 -0.525652 0.673441)
(-3.80331 -0.698709 0.51389)
(-3.65559 -0.911429 0.488576)
(-3.34201 -1.50449 0.288594)
(-2.64327 -2.10703 0.0142798)
(-2.34537 -2.17853 0.417299)
(-3.72181 -0.113942 1.29853)
(-3.84413 -0.193614 1.21784)
(-3.94816 -0.76747 0.99018)
(-3.86118 -1.29803 0.61859)
(-3.5673 -1.67367 0.452183)
(-3.19727 -2.63135 0.330132)
(-1.34378 -3.55878 -0.533871)
(-4.22804 -0.867952 2.00848)
(-4.24336 -0.782457 1.8306)
(-4.36118 -0.685715 1.68999)
(-4.43637 -0.945044 1.24192)
(-4.35549 -1.56819 0.95792)
(-3.51907 -2.26295 0.346468)
(-2.89084 -2.50921 0.676411)
(-1.46104 -3.45516 0.80989)
(-4.57337 -0.811809 2.4074)
(-4.70982 -0.328702 2.46089)
(-5.03526 0.0227615 2.28586)
(-5.048 0.0881631 1.83637)
(-4.77129 -0.695326 2.17393)
(-4.80906 -1.8869 2.12783)
(-5.04055 -2.46136 1.46558)
(-2.2329 -5.71237 -0.533329)
(-3.54336 -2.7273 0.227275)
(-4.13432 -0.731483 1.61391)
(-4.20797 -1.15194 1.71683)
(-3.84898 -0.83868 1.32035)
(-3.28267 -1.43982 1.22273)
(-3.14701 -1.58348 1.20026)
(-3.52735 -1.16017 1.03424)
(-4.37622 -0.880998 1.52296)
(-5.1316 -1.36202 2.0805)
(-5.37051 -3.14328 1.63421)
(-3.5402 -4.41691 0.0212424)
(-3.50235 0.11026 0.827359)
(-3.34417 -0.38796 0.336918)
(-3.09829 -0.305745 0.28828)
(-2.53595 -0.589582 0.220107)
(-1.85622 -0.638527 0.101092)
(-1.40954 -1.15023 0.394573)
(-1.51242 -0.842492 0.379529)
(-1.72514 -0.778236 -0.220345)
(-3.23855 -2.34331 1.13323)
(-4.82865 -3.83565 1.18747)
(-3.62584 -4.59122 1.23258)
(-1.33611 0.169595 0.418526)
(-1.366 0.0559469 -0.134981)
(-1.38963 -0.0535279 -0.242214)
(-1.3942 -0.353797 -0.357564)
(-1.18171 -0.479957 -0.460101)
(-0.942965 -0.383677 0.0144017)
(-0.72289 -0.311581 0.346431)
(-0.767474 -0.168537 0.739855)
(-0.964318 -0.753345 0.838876)
(-1.29444 -1.2796 1.30677)
(-2.25566 -2.20385 1.52982)
(-1.51075 -4.03343 1.5636)
(0.266938 -0.237658 -1.02414)
(0.153897 0.733321 -0.514025)
(-0.0358395 0.798412 -0.118135)
(0.084041 0.630151 -0.430925)
(0.259842 0.496721 -0.962891)
(-0.0674125 0.0513806 -1.35866)
(-0.217748 -0.624297 -1.2591)
(-1.01721 -0.214344 -1.22043)
(-1.06278 -0.254556 -1.43544)
(-0.625776 -0.154487 -0.919821)
(-0.222181 0.218257 -1.37365)
(-0.0540092 -0.329941 -0.623566)
(0.217809 -2.37589 0.872119)
(0.485811 -0.495721 -1.53584)
(0.781201 -0.30588 -1.395)
(0.695986 -0.0345171 -1.28146)
(0.386843 0.37292 -1.12018)
(0.36111 0.581386 -1.06084)
(0.437583 0.934982 -1.37974)
(0.286447 0.802897 -1.44861)
(0.186558 0.389636 -1.69293)
(0.330549 -0.377431 -1.80707)
(-0.256031 -0.128766 -2.20951)
(-0.515037 -0.180426 -1.5984)
(0.0878453 -0.123032 -1.72629)
(0.705432 -0.236764 -1.10723)
(1.14915 -0.0415526 -0.708952)
(-1.73654 -1.14219 0.0397289)
(-2.19183 -1.194 -0.0541471)
(-1.86037 -1.23678 -0.00352033)
(-2.79231 -0.640603 0.0381568)
(-2.36151 -1.32739 0.0244362)
(-1.67015 -1.76755 -0.0304167)
(-3.01812 -0.59646 0.097662)
(-2.86832 -1.23287 0.322553)
(-2.50527 -1.72113 0.238735)
(-1.91946 -1.81013 0.090322)
(-3.12612 -0.711385 0.296867)
(-2.96054 -0.803269 0.147669)
(-2.83113 -1.29203 0.107995)
(-2.62628 -1.69625 0.0288692)
(-1.82486 -2.05341 -0.00303261)
(-3.48389 -0.342403 0.719423)
(-3.38113 -0.747639 0.423931)
(-3.06476 -1.03895 0.434747)
(-2.91942 -1.42211 0.169119)
(-2.18771 -2.22689 0.430387)
(-1.40492 -2.71088 -0.0412015)
(-3.8829 -0.30079 0.91891)
(-3.82853 -0.837497 0.620941)
(-3.83355 -0.852311 0.390617)
(-3.54163 -0.999883 0.415852)
(-3.25881 -1.59382 0.317666)
(-2.59984 -2.31346 -0.132017)
(-1.75202 -2.64012 0.407702)
(-3.75728 -0.0375596 1.29513)
(-3.68727 -0.16423 1.34538)
(-3.76306 -0.752885 1.30255)
(-3.86537 -0.736377 1.00385)
(-3.57045 -1.71587 0.55624)
(-3.18264 -2.17949 0.450128)
(-2.71656 -3.03399 0.513966)
(-1.20548 -3.43847 -0.44559)
(-4.01656 -0.91657 2.09269)
(-4.06958 -1.11167 1.9979)
(-4.17812 -1.04632 1.8752)
(-4.36784 -1.08018 1.47807)
(-4.40998 -1.10129 1.23043)
(-4.1487 -1.62313 1.07213)
(-3.38626 -2.55508 0.290053)
(-2.93785 -2.14745 1.28395)
(-1.50444 -3.38463 0.692744)
(-4.50691 -1.01789 2.33331)
(-4.54998 -1.04933 2.30648)
(-4.7872 -0.681004 2.33003)
(-5.01796 0.111435 2.20912)
(-4.73641 -0.328795 2.25209)
(-4.67045 -1.19604 2.29151)
(-4.61924 -2.30778 2.25348)
(-4.77421 -2.99965 1.80087)
(-1.86818 -5.452 -0.469634)
(-3.70879 -2.67648 0.355062)
(-4.18349 -0.834117 1.7522)
(-4.1445 -1.58762 1.79345)
(-4.29766 -0.988548 1.63212)
(-3.73688 -1.15204 1.41208)
(-3.10357 -1.73097 1.31968)
(-3.00754 -1.75099 1.28711)
(-3.51425 -1.77347 1.09557)
(-4.31442 -1.5284 1.15601)
(-4.92235 -1.80264 2.87624)
(-5.46287 -3.60618 1.56852)
(-3.01189 -4.42435 -1.15793)
(-3.62037 -0.131363 1.17618)
(-3.52122 -0.234083 0.899335)
(-3.39851 -0.456995 0.437271)
(-3.05149 -0.653872 0.436405)
(-2.47185 -0.900715 0.498094)
(-1.8751 -0.921748 0.171714)
(-1.7241 -0.823145 0.334664)
(-1.25658 -1.43717 0.0128389)
(-1.64692 -1.13349 -0.130855)
(-3.13594 -2.53835 1.58649)
(-4.92705 -3.61184 2.11605)
(-2.14693 -5.27948 0.85437)
(-1.67505 0.195059 0.607137)
(-1.35699 0.0535049 0.369674)
(-1.37263 -0.0173188 -0.084973)
(-1.41308 -0.168215 -0.17742)
(-1.41414 -0.463627 -0.2737)
(-1.23038 -0.525529 -0.454746)
(-1.00365 -0.48834 -0.0399553)
(-0.723028 -0.506649 0.431047)
(-0.778396 -0.394611 0.915639)
(-0.854227 -0.974698 1.15197)
(-1.45666 -1.54558 1.34657)
(-2.05155 -2.54917 1.64181)
(-1.01539 -4.46315 1.52304)
(0.0341177 -0.541844 -1.40791)
(0.2384 -0.361047 -1.08572)
(0.119016 0.650964 -0.591473)
(-0.0576117 0.783771 -0.192682)
(0.0971936 0.585595 -0.435375)
(0.281292 0.397402 -0.970452)
(-0.0279478 -0.00544258 -1.37465)
(-0.201254 -0.609293 -1.15919)
(-0.95102 -0.312835 -1.17083)
(-1.04791 -0.29842 -1.3926)
(-0.624956 -0.228891 -0.781319)
(-0.197119 0.130881 -1.24937)
(-0.0583807 -0.499916 -0.484428)
(0.324775 -2.61841 0.820586)
(0.0611699 -0.668565 -1.68581)
(0.483981 -0.507578 -1.54273)
(0.780213 -0.299549 -1.4042)
(0.706607 -0.034284 -1.28004)
(0.396267 0.368255 -1.11271)
(0.375322 0.581951 -1.04929)
(0.392382 0.994804 -1.3404)
(0.287235 0.77118 -1.43646)
(0.184915 0.348703 -1.69415)
(0.374855 -0.40477 -1.71291)
(-0.211564 -0.190269 -2.18864)
(-0.485529 -0.211636 -1.61213)
(0.119532 -0.159867 -1.7146)
(0.725208 -0.2746 -1.10556)
(1.13873 -0.103317 -0.694721)
(-1.62776 -1.09482 -0.0714586)
(-2.09132 -1.04541 0.0412908)
(-1.62452 -1.25865 0.070383)
(-2.33327 -1.08027 0.17625)
(-2.13344 -1.25966 -0.0270654)
(-1.78337 -1.3117 -0.0200407)
(-2.78244 -0.487159 0.0786425)
(-2.79397 -0.654581 0.00738281)
(-2.31013 -1.37969 0.00403188)
(-1.7708 -1.62055 -0.0953566)
(-2.9831 -0.50249 0.279369)
(-2.99832 -0.764029 0.131346)
(-2.77427 -1.4135 0.280535)
(-2.41665 -1.75317 0.181761)
(-1.60974 -2.01147 0.067518)
(-3.11661 -0.643104 0.487703)
(-3.00503 -0.812112 0.29514)
(-2.80153 -0.95131 0.163224)
(-2.79199 -1.35548 0.0759611)
(-2.55746 -1.73352 0.0432022)
(-1.62389 -2.22406 -0.00298887)
(-3.52003 -0.456773 0.685979)
(-3.36205 -0.637703 0.693632)
(-3.4071 -0.651253 0.464598)
(-3.00954 -1.14106 0.484487)
(-2.51144 -2.04484 0.217418)
(-2.42543 -1.91905 0.289042)
(-1.33282 -2.72821 -0.20269)
(-3.88183 -0.219789 0.994348)
(-3.87852 -0.785943 0.831224)
(-3.88709 -0.756189 0.562136)
(-3.64227 -1.07838 0.414228)
(-3.43037 -1.21254 0.223877)
(-3.36275 -1.46971 0.330791)
(-2.51947 -2.37497 -0.233433)
(-1.53768 -2.77557 0.333739)
(-3.86739 0.0421533 1.30203)
(-3.60655 -0.459266 1.39043)
(-3.66419 -0.621006 1.3447)
(-3.70886 -0.815602 1.28662)
(-3.70371 -1.18677 0.912152)
(-3.47693 -1.88738 0.519716)
(-3.01526 -2.34203 0.443283)
(-2.77212 -2.85855 0.505056)
(-1.23957 -3.2226 -0.318012)
(-4.08217 -0.367715 1.90211)
(-3.88151 -1.14161 2.05694)
(-4.02441 -0.669472 2.28094)
(-4.21234 -1.03657 2.00467)
(-4.39199 -0.788057 1.52613)
(-4.27939 -1.38191 1.28365)
(-3.82903 -2.02917 1.15321)
(-3.27431 -2.73758 0.416689)
(-1.93116 -2.98439 0.838348)
(-1.3874 -3.46704 0.594267)
(-4.45569 -1.0498 1.98411)
(-4.4673 -1.24398 2.26236)
(-4.56773 -1.11319 2.23963)
(-4.77915 -0.814082 2.24487)
(-4.81198 -0.439058 1.78059)
(-4.59044 -1.53569 1.81988)
(-4.44483 -2.18301 2.30698)
(-4.49631 -2.9284 2.11851)
(-4.56024 -3.1522 1.79573)
(-2.11937 -4.8159 -0.174167)
(-3.63263 -2.83639 0.567085)
(-4.35503 -0.00225245 1.89423)
(-4.34125 -0.967675 1.7856)
(-4.45497 -0.571045 1.77516)
(-4.15799 -1.36777 1.68839)
(-3.59162 -1.51293 1.46806)
(-2.90922 -1.94413 1.41839)
(-2.77155 -2.04415 1.59897)
(-3.31478 -2.05803 1.90475)
(-4.39806 -1.75348 0.777455)
(-4.95485 -2.73583 2.10468)
(-5.43708 -3.50225 1.61894)
(-2.76487 -4.47628 -1.34028)
(-3.57378 -0.0918025 0.986991)
(-3.65943 -0.28069 1.20302)
(-3.49815 -0.480686 0.897538)
(-3.32552 -0.694051 0.536664)
(-3.00531 -0.940703 0.560389)
(-2.42927 -1.2147 0.808095)
(-1.82542 -1.21255 0.307505)
(-1.82226 -0.758175 0.323877)
(-1.48701 -1.10805 0.486499)
(-1.69512 -1.31501 0.0311118)
(-3.41536 -2.35032 1.90954)
(-5.21582 -3.17742 2.11721)
(-1.4264 -5.70204 0.494489)
(-1.7396 -0.0447698 0.16366)
(-1.65603 -0.13525 0.74055)
(-1.36289 -0.0469246 0.351359)
(-1.38739 -0.101111 -0.0518965)
(-1.4305 -0.299675 -0.130341)
(-1.41864 -0.543909 -0.228923)
(-1.25785 -0.672148 -0.379655)
(-0.961349 -0.719116 0.122781)
(-0.668926 -0.735483 0.5322)
(-0.712107 -0.622915 1.10521)
(-0.738671 -1.34471 1.20495)
(-1.09946 -1.78062 1.54201)
(-1.79825 -2.83351 1.76054)
(-0.474415 -4.83514 1.02408)
(-0.214729 -0.681757 -1.76694)
(0.0294395 -0.596341 -1.47207)
(0.229277 -0.449716 -1.15483)
(0.0875855 0.55239 -0.640662)
(-0.0704201 0.738789 -0.280222)
(0.114483 0.537135 -0.430606)
(0.308254 0.303572 -0.975692)
(-0.0520249 -0.2 -1.34053)
(-0.208117 -0.647417 -1.15501)
(-0.953336 -0.383307 -1.07932)
(-1.02192 -0.37594 -1.33521)
(-0.630086 -0.272231 -0.657592)
(-0.181525 0.0658508 -1.15857)
(-0.0257175 -0.676405 -0.325572)
(0.382038 -2.80256 0.814928)
(0.0792428 -0.419025 -1.86643)
(0.0470809 -0.66104 -1.69063)
(0.460693 -0.512194 -1.55652)
(0.770939 -0.313883 -1.41172)
(0.728527 -0.0374351 -1.29083)
(0.405452 0.363186 -1.10727)
(0.383413 0.582348 -1.0407)
(0.422673 0.966633 -1.33494)
(0.302962 0.719736 -1.43858)
(0.20954 0.284184 -1.69071)
(0.403716 -0.416949 -1.62553)
(-0.163796 -0.246878 -2.16664)
(-0.455118 -0.258677 -1.62456)
(0.143728 -0.183607 -1.70222)
(0.742637 -0.318997 -1.11215)
(1.11892 -0.162412 -0.689892)
(-1.62644 -0.936497 -0.0135609)
(-1.91365 -1.02244 0.0673837)
(-1.52416 -1.19602 -0.0333775)
(-2.13607 -1.03528 0.121875)
(-2.02557 -1.09932 0.101202)
(-1.49186 -1.36631 0.0425649)
(-2.43747 -0.644627 0.3948)
(-2.41248 -1.06348 -0.017846)
(-2.0441 -1.34682 -0.024485)
(-1.55502 -1.52447 -0.00784198)
(-2.72089 -1.02244 0.173638)
(-2.76323 -0.451978 0.0337222)
(-2.62798 -0.995913 0.00331632)
(-2.12482 -1.54395 -0.0199264)
(-1.4348 -1.88884 -0.0298772)
(-2.88907 -0.480154 0.479993)
(-2.93123 -0.640341 0.277752)
(-2.77728 -1.09031 0.0902799)
(-2.60271 -1.60299 0.150488)
(-2.51 -1.47676 0.139219)
(-1.48844 -2.11462 0.0617039)
(-3.21107 -0.118873 0.506714)
(-3.0407 -0.695102 0.441899)
(-2.97748 -0.375262 0.250338)
(-2.8802 -0.798743 0.215828)
(-2.8174 -1.26829 0.104751)
(-1.98231 -2.26289 0.0780153)
(-1.48127 -2.31776 0.0174336)
(-3.50907 -0.230561 0.781734)
(-3.40218 -0.555087 0.666486)
(-3.29701 -0.802886 0.548917)
(-3.13962 -0.844935 0.481229)
(-2.81563 -1.47213 0.41913)
(-2.64544 -1.91426 0.21415)
(-2.11588 -2.18594 0.320246)
(-1.2291 -2.73949 -0.286399)
(-3.90864 -0.367439 0.985)
(-3.91194 -0.545958 0.774467)
(-3.93251 -0.727302 0.648506)
(-3.77487 -0.962994 0.523095)
(-3.61781 -1.1697 0.449074)
(-3.22868 -1.67588 0.267488)
(-3.12688 -1.75417 0.346248)
(-2.04856 -2.71701 0.0351507)
(-1.22846 -2.91322 0.354031)
(-3.92552 -0.0743651 1.25294)
(-3.85226 -0.495824 0.882958)
(-3.64781 -0.45913 1.38667)
(-3.63123 -0.724783 1.35449)
(-3.59457 -1.04555 1.22598)
(-3.61082 -1.49404 0.908575)
(-3.39706 -2.02773 0.484882)
(-2.93714 -2.38574 0.466246)
(-2.36668 -3.17756 0.544458)
(-0.964096 -3.20135 -0.0900304)
(-4.11562 -0.353949 1.46959)
(-3.98123 -0.746873 1.70902)
(-3.76326 -1.18118 2.14831)
(-3.95415 -1.15148 2.30782)
(-4.14808 -1.13777 2.019)
(-4.29837 -0.98439 1.76918)
(-4.05071 -1.64855 1.46183)
(-3.56059 -2.27776 1.18979)
(-3.16344 -2.83038 0.487165)
(-1.82009 -3.21166 0.713853)
(-1.36933 -3.56118 0.411356)
(-4.54091 -0.782173 1.97231)
(-4.48768 -1.36232 1.96135)
(-4.43661 -1.34269 2.18656)
(-4.65789 -0.98442 2.14891)
(-4.63948 -1.11061 1.93511)
(-4.39966 -1.28983 1.87721)
(-4.16152 -2.2238 1.70688)
(-4.40142 -2.47984 2.2213)
(-4.29017 -3.31645 2.02794)
(-4.15184 -3.47003 1.49317)
(-2.26944 -4.68854 -0.0598101)
(-3.46224 -3.02705 0.59476)
(-4.26542 0.0152152 1.8999)
(-4.4689 -0.221437 1.95716)
(-4.51123 -0.897211 1.88529)
(-4.40003 -0.726455 2.00819)
(-4.08912 -1.47179 1.78693)
(-3.38014 -1.89085 1.56816)
(-2.80498 -2.02511 1.64665)
(-2.59786 -2.3833 1.94288)
(-2.73388 -2.74613 2.43625)
(-4.12798 -2.47832 0.804232)
(-4.70268 -3.11556 1.79519)
(-5.16978 -3.84774 1.17822)
(-2.18661 -4.62765 -1.27917)
(-3.52024 -0.574697 0.978996)
(-3.73894 -0.092212 0.812967)
(-3.70595 -0.439566 1.2117)
(-3.47693 -0.428913 1.03236)
(-3.2195 -0.93576 0.707352)
(-3.01296 -1.16961 0.686692)
(-2.38552 -1.53094 0.646586)
(-1.9064 -1.31727 0.469651)
(-1.45406 -1.56403 0.342188)
(-1.55072 -1.07647 0.527311)
(-1.44347 -1.65559 0.708597)
(-3.1897 -2.72785 2.16736)
(-4.04588 -4.20076 2.19959)
(-0.548162 -5.96296 0.0674674)
(-1.81084 -0.389568 0.464744)
(-1.80257 -0.0469393 0.240264)
(-1.65095 -0.228235 0.765842)
(-1.35452 -0.12945 0.353078)
(-1.40282 -0.149324 0.00122106)
(-1.4248 -0.41614 -0.0911258)
(-1.41774 -0.633973 -0.198403)
(-1.25912 -0.834301 -0.279548)
(-1.00377 -0.87263 0.142758)
(-0.763635 -0.834729 0.585173)
(-0.661708 -0.834604 1.23289)
(-0.834952 -1.29055 1.41588)
(-1.09721 -1.77089 1.75131)
(-1.96752 -2.76219 1.9728)
(-0.196896 -4.98289 0.683084)
(-0.167785 -0.863226 -2.05936)
(-0.226608 -0.661735 -1.76199)
(0.0384902 -0.659311 -1.53749)
(0.225454 -0.566795 -1.22928)
(0.0713826 0.449702 -0.662001)
(-0.0762932 0.661009 -0.358275)
(0.140552 0.475921 -0.427904)
(0.348745 0.228075 -0.977314)
(0.0136824 -0.284107 -1.32318)
(-0.190232 -0.72213 -1.16243)
(-0.814376 -0.529533 -1.08607)
(-1.03684 -0.47138 -1.21848)
(-0.615176 -0.391685 -0.482895)
(-0.176635 0.0297003 -1.10616)
(0.0728427 -0.922918 -0.109613)
(0.409138 -2.93886 0.858763)
(-0.0841149 -0.269267 -1.84732)
(0.0632941 -0.38317 -1.87353)
(0.0447966 -0.656078 -1.6955)
(0.491121 -0.536375 -1.55097)
(0.751217 -0.32398 -1.41954)
(0.738027 -0.0265508 -1.3011)
(0.419265 0.354777 -1.10547)
(0.390162 0.574363 -1.03866)
(0.467133 0.87175 -1.37043)
(0.324548 0.64976 -1.44763)
(0.254517 0.216156 -1.67723)
(0.407948 -0.358561 -1.55861)
(-0.111954 -0.292674 -2.15033)
(-0.462143 -0.277638 -1.63033)
(0.145066 -0.18095 -1.70262)
(0.752688 -0.350168 -1.15282)
(1.09167 -0.219739 -0.69018)
(-1.42737 -1.00459 -0.011873)
(-1.83783 -0.948993 0.0513917)
(-1.46981 -1.08451 -0.0186527)
(-1.95854 -1.21551 -0.125196)
(-1.89731 -1.04835 0.0596941)
(-1.46648 -1.25655 -0.0831877)
(-2.2449 -0.531628 0.19048)
(-2.19647 -0.911727 0.0394496)
(-1.8684 -1.23866 0.0856673)
(-1.43534 -1.36943 0.0289742)
(-2.44115 -0.657209 0.288803)
(-2.37389 -0.781427 0.236164)
(-2.3049 -1.08556 -0.0325014)
(-1.99892 -1.38421 -0.104823)
(-1.68796 -1.42091 -0.0504283)
(-2.68124 -0.84517 0.206829)
(-2.76873 -0.737237 0.0823011)
(-2.73828 -0.516727 0.00810329)
(-2.63386 -0.805609 -0.121161)
(-2.02787 -1.62228 0.000934049)
(-1.26087 -2.03462 -0.0100055)
(-2.84676 -0.438998 0.527683)
(-2.87729 -0.59291 0.426361)
(-2.79688 -0.852315 0.271796)
(-2.59846 -1.38221 0.0217203)
(-2.64539 -1.34101 0.13512)