/*--------------------------------*- C++ -*----------------------------------*\
  =========                 |
  \\      /  F ield         | OpenFOAM: The Open Source CFD Toolbox
   \\    /   O peration     | Website:  https://openfoam.org
    \\  /    A nd           | Version:  7
     \\/     M anipulation  |
\*---------------------------------------------------------------------------*/
FoamFile
{
    version     2.0;
    format      ascii;
    class       volScalarField;
    location    "6.5";
    object      nut;
}
// * * * * * * * * * * * * * * * * * * * * * * * * * * * * * * * * * * * * * //

dimensions      [0 2 -1 0 0 0 0];

internalField   nonuniform List<scalar> 
18750
(
0.00134472
0.00185094
0.0011192
0.00116223
0.00219106
0.00171736
0.00199173
0.000837163
0.00116839
0.000955015
0.00212742
0.00116062
0.00202966
0.000731289
0.00149302
0.0021165
0.000468566
0.000931584
0.00126463
0.000841619
0.00230974
0.000790365
0.00255192
0.00229927
0.00301221
0.00143885
0.00104575
0.000898261
0.000948151
0.00189171
0.00051779
0.000436227
0.000931533
0.00133257
0.00084457
0.00234819
0.00102216
0.0027444
0.00159212
0.000565535
0.00205215
0.00107446
0.000727756
0.00104042
0.00110014
0.00083459
0.0011479
0.000749863
0.00101585
0.0017017
0.000448084
0.000476668
0.000376744
0.000811645
0.00133525
0.000855608
0.00234197
0.00144652
0.00227652
0.000560535
0.00161015
0.0030323
0.000761985
0.00116588
0.000979306
0.00212174
0.0010639
0.00112001
0.00181858
0.00468985
0.000834005
0.00061771
0.000772334
0.00102934
0.000672926
0.00110831
0.00135847
0.000146002
0.000399007
0.000554465
0.00026425
0.00041624
0.00121231
0.000878651
0.00275272
0.00156144
0.00234355
0.000747575
0.00131405
0.00234041
0.000325604
0.0010898
0.0016869
0.00243781
0.000686414
0.000864048
0.000692667
0.00197724
0.00227958
0.00131902
0.0010475
0.00124769
0.00162624
0.00187124
0.000746866
0.000594113
0.000528801
0.00071721
0.000906234
0.000814263
0.00111552
0.00106664
0.000197386
0.000147092
0.000347745
0.000578267
0.000311478
0.000439956
0.00105856
0.00090832
0.00307561
0.00108629
0.00271464
0.00119264
0.00165352
0.00265681
0.000807151
0.000726449
0.00135961
0.00254693
0.000565145
0.000625286
0.00117448
0.00194569
0.00263263
0.000928365
0.000954174
0.000754729
0.0006317
0.00147268
0.00305676
0.000732924
0.00137726
0.00188648
0.00139226
0.00100997
0.00235904
0.00174413
0.000177829
0.000423318
0.000493495
0.000393302
0.000903798
0.000935675
0.00123515
0.000795166
0.000158678
0.000180624
0.000178818
0.00031289
0.000588639
0.000390193
0.000575698
0.000811966
0.000945631
0.00275184
0.00113007
0.00317409
0.00087597
0.00162201
0.00289508
0.000728671
0.000936125
0.00121149
0.0030031
0.000907328
0.000885643
0.000982072
0.00123718
0.00269103
0.000473351
0.000876957
0.000878925
0.000621667
0.00169201
0.00264532
0.000791195
0.000872804
0.000961053
0.000414088
0.000631046
0.00241364
0.00314505
0.000493897
0.00081761
0.00108055
0.000734623
0.00114928
0.000878359
0.00279625
0.00167998
0.000230642
0.000288155
0.000256177
0.000476579
0.000471817
0.000886581
0.000561687
0.001148
0.000700231
0.000114281
0.000234453
0.000101605
0.00015176
0.000285345
0.000584516
0.000438346
0.000721143
0.000569783
0.000919219
0.00290702
0.00140948
0.00258991
0.000493107
0.000640201
0.00312807
0.000988641
0.000982288
0.00100938
0.0029607
0.000522472
0.00108502
0.00162404
0.00186137
0.00300439
0.000873124
0.000484718
0.000214597
0.000698391
0.0013704
0.00270591
0.000336466
0.000673729
0.00100743
0.000645814
0.000988686
0.00114676
0.0024657
0.00042635
0.00120757
0.00126127
0.000791465
0.000425897
0.00158141
0.00050271
0.0023331
0.000403825
0.000440909
0.000876406
0.000641609
0.000896839
0.00045237
0.0018248
0.0020709
0.00087652
0.00051793
0.000269404
0.000295253
0.000260631
0.000445417
0.000584005
0.000847711
0.000996032
0.00117828
0.000747865
7.69996e-05
0.000137816
0.000103115
0.000135927
0.000122447
0.000254642
0.000555209
0.000445967
0.000778978
0.000446169
0.000863657
0.000993809
0.00248954
0.000920585
0.00108137
0.00267058
0.000987816
0.000582885
0.0012925
0.0028096
0.000572333
0.000449129
0.000713442
0.000680498
0.00276065
0.00107363
0.000361276
0.000365098
0.00112051
0.00121312
0.0029209
0.00126143
0.000391939
0.000437499
0.000664809
0.000493371
0.00127177
0.00256525
0.000846891
0.000310065
0.000519968
0.0011606
0.000435409
0.00119079
0.00145328
0.00258472
0.000589997
0.000585244
0.000992208
0.000824108
0.000775691
0.000511956
0.00145647
0.00178766
0.00175468
0.000238678
0.00052363
0.000554078
0.000821074
0.000569935
0.00106211
0.00115352
0.0017547
0.00191916
0.00180333
0.000296154
0.000700482
0.000639799
0.000375544
0.000265855
0.000490425
0.000663903
0.000888477
0.00101416
0.00111382
0.000858722
0.000208851
0.000164771
0.00014337
6.64782e-05
0.000108311
9.97747e-05
0.000190117
0.000505909
0.00042505
0.000783191
0.000469033
0.000810873
0.00261599
0.000695522
0.00152353
0.00257702
0.000577939
0.000698871
0.000866553
0.00253963
0.00133219
0.000808136
0.000609639
0.00088384
0.0030135
0.000931472
0.00083236
0.00064257
0.000774814
0.000921718
0.00251322
0.000814636
0.000509654
0.000596105
0.000630854
0.000593496
0.00121362
0.00281894
0.00102203
0.00173484
0.00094429
0.000302427
0.000510611
0.00081869
0.000673082
0.00261395
0.00110293
0.00059295
0.000962735
0.00112742
0.000629462
0.000209692
0.000917116
0.00127594
0.00252391
0.000484921
0.000583699
0.000743276
0.0010254
0.000868793
0.000829219
0.000416834
0.00140516
0.00138925
0.00215213
0.00025099
0.000190453
0.000528292
0.000633944
0.00089209
0.000586289
0.00081334
0.00131987
0.00148435
0.00159214
0.00198028
0.000310565
0.000365333
0.000448628
0.000753758
0.000417359
0.000211184
0.000819859
0.000755362
0.000834304
0.000692857
0.000966843
0.000633167
0.000414148
0.000136361
0.000181448
0.000189182
8.45301e-05
7.52534e-05
0.000103227
0.000142069
0.000449674
0.000388039
0.000728773
0.000501
0.000770908
0.00255351
0.00149749
0.00240412
0.000379341
0.00079326
0.000769186
0.00249493
0.000612008
0.000851327
0.000841756
0.000986537
0.00272565
0.00116704
0.000948939
0.000789592
0.000450106
0.000951548
0.00275433
0.000710623
0.000431483
0.00107403
0.000488483
0.000868769
0.000827604
0.00256745
0.000750031
0.00104237
0.00100083
0.000481876
0.00101257
0.000459317
0.000795724
0.00273905
0.000778893
0.00115646
0.000885891
0.00104181
0.000595114
0.000697639
0.000587011
0.000455262
0.00253549
0.000830347
0.000930973
0.000730652
0.00116188
0.00170407
0.00063115
0.000439804
0.000776594
0.00110949
0.00261224
0.00069325
0.000556406
0.000719076
0.00111429
0.00113961
0.000665738
0.000546256
0.000607373
0.000753371
0.000756207
0.00178376
0.000317955
0.000165203
0.000404283
0.00122901
0.00121832
0.000629985
0.000984764
0.00107778
0.00101523
0.00169638
0.001059
0.00167802
0.000450626
0.000351222
0.000331468
0.000395546
0.000600836
0.000380378
0.000354606
0.00073601
0.000635632
0.000662534
0.000576311
0.000711137
0.000525647
0.000319032
0.000356499
0.000194745
0.000191794
0.000278315
0.000112889
0.000108037
0.000140969
0.0001479
0.000393906
0.00032183
0.000626261
0.000502685
0.0006881
0.0023467
0.000565092
0.00236185
0.000756446
0.000679075
0.00241134
0.000772635
0.000757961
0.000673474
0.00111316
0.00227407
0.000745099
0.000463129
0.000510749
0.000641504
0.000673351
0.00262046
0.00104492
0.00108769
0.00128898
0.0007617
0.00060684
0.00101669
0.00268893
0.000726391
0.000403935
0.000641273
0.00077897
0.000966622
0.000665641
0.000671971
0.00248242
0.000810467
0.00125313
0.00075439
0.000560043
0.000367795
0.000465469
0.000810623
0.000605927
0.00268626
0.000818123
0.000552942
0.0011816
0.000910049
0.000318153
0.000655249
0.000917905
0.000492881
0.000659446
0.00280505
0.000744246
0.000736923
0.000838895
0.000895026
0.000676856
0.000996819
0.000728245
0.000621539
0.0009091
0.000868678
0.00233714
0.000852526
0.000756641
0.00054493
0.00106155
0.0016613
0.00106448
0.000625673
0.000465517
0.000918379
0.000710616
0.000856268
0.0019209
0.00046628
0.000533184
0.000496873
0.000587208
0.00143515
0.00142753
0.000620395
0.0010024
0.00103044
0.00135752
0.00160838
0.00127181
0.00124513
0.000153799
0.000300603
0.000380953
0.000303747
0.00035408
0.000450158
0.000359834
0.000599625
0.000345855
0.000617273
0.000471889
0.000576125
0.000545086
0.000435858
0.000309466
0.000345871
0.000283034
0.000259479
0.000218696
0.000320035
0.000118189
0.000173598
0.000207878
0.000126168
0.000336122
0.000270765
0.000513106
0.000501174
0.000581454
0.000907162
0.00225174
0.000462423
0.00132972
0.00231362
0.000510166
0.000454243
0.000433137
0.00236188
0.000507937
0.000488981
0.000439382
0.000870113
0.000444715
0.00242786
0.00110413
0.000740477
0.000520476
0.00053216
0.000329027
0.000746654
0.00226151
0.000801799
0.00123841
0.00115521
0.00102007
0.00101127
0.000808118
0.00108833
0.00257758
0.0014207
0.000732846
0.000843848
0.000658719
0.000730111
0.000699641
0.00043846
0.000500158
0.00254965
0.000568352
0.00100479
0.000411019
0.000473852
0.000466023
0.000700449
0.000582122
0.000709392
0.000376038
0.00268296
0.000760721
0.000584025
0.00172967
0.00114848
0.000858626
0.000501323
0.000536283
0.000554892
0.000989896
0.000685193
0.00290827
0.00150708
0.000863693
0.000693819
0.000777655
0.000561601
0.00124337
0.000737186
0.000405459
0.00071586
0.00122813
0.00102359
0.00256882
0.000607221
0.00115801
0.000674999
0.000743051
0.00227214
0.00116335
0.00168475
0.000952498
0.000491737
0.000611905
0.00076928
0.00209174
0.00175489
0.00060683
0.000897999
0.00057963
0.000641125
0.000684796
0.00099275
0.000793796
0.000708178
0.000825399
0.00102121
0.00187553
0.00170374
0.00116301
0.0013216
0.000219167
0.000210098
0.000301002
0.000368508
0.000310609
0.000346292
0.000423152
0.000297207
0.0003171
0.000294679
0.000632563
0.000421951
0.000370963
0.000538189
0.000530498
0.000149707
0.000145412
0.000331355
0.000234199
0.000169927
0.000212955
0.000342622
0.00014088
0.000173908
9.88376e-05
0.000109553
0.000286415
0.000287469
0.000428778
0.000479743
0.000500631
0.00259836
0.000651373
0.000473432
0.00224208
0.000309486
0.000666227
0.000599919
0.00232383
0.000308459
0.000633824
0.000619079
0.000931517
0.00232272
0.00111959
0.000515577
0.000481267
0.000486208
0.00053693
0.000686677
0.00228366
0.00129946
0.000902592
0.00098446
0.00104418
0.0010278
0.000667962
0.000772427
0.00232481
0.00121215
0.00111924
0.000809402
0.00103168
0.000813782
0.000703175
0.000535343
0.000691857
0.00262301
0.000395528
0.000714329
0.000601006
0.000533981
0.000647647
0.000706248
0.000542836
0.000550576
0.00049861
0.00241968
0.000343657
0.000548282
0.000552304
0.000490613
0.000553362
0.000341523
0.000395734
0.000787803
0.0005832
0.000710983
0.00291089
0.000949761
0.000615087
0.000909853
0.00153655
0.000745244
0.000153422
0.000269967
0.000791743
0.000625224
0.000763719
0.000493719
0.00287247
0.00123006
0.000738982
0.00072301
0.000610989
0.00089134
0.000777877
0.001055
0.000581966
0.000294433
0.000657618
0.00134071
0.000754719
0.00261464
0.000577959
0.00142273
0.00144019
0.00146488
0.00207363
0.00151248
0.00142558
0.00173056
0.00103561
0.000318808
0.00121502
0.001304
0.0019791
0.00197373
0.000964833
0.000586687
0.000755939
0.000491645
0.000590825
0.00135046
0.000649032
0.000583805
0.000749618
0.000780136
0.00106451
0.00149376
0.00122935
0.000891385
0.00162216
0.000311835
0.000150094
0.000284491
0.00031101
0.000364452
0.000349418
0.00040025
0.000422264
0.000517047
0.000301972
0.000392742
0.000483888
0.000362246
0.000371183
0.000476496
0.00034355
0.000126754
0.000199949
0.000235873
0.000314303
0.000207017
0.000239092
0.000173231
0.000351083
0.000149946
5.95332e-05
8.09253e-05
0.000189265
0.000246449
0.000321107
0.000434438
0.000460529
0.00044226
0.00226795
0.000827341
0.00229204
0.000435335
0.00031975
0.000381128
0.0022476
0.000277886
0.000667911
0.000600238
0.000780304
0.00245268
0.000285945
0.000799688
0.000194467
0.000461481
0.000444457
0.00237159
0.000869188
0.000598479
0.000482582
0.000396918
0.000813187
0.000597543
0.000734996
0.00217691
0.000556294
0.000680498
0.000954962
0.00112725
0.000639348
0.000778008
0.000638278
0.000583913
0.00227445
0.000953977
0.00125222
0.00118613
0.000742365
0.000604602
0.000920522
0.00050881
0.00052761
0.000640337
0.00251984
0.000724955
0.00078663
0.000514378
0.000616079
0.00101539
0.000301188
0.000723495
0.000579679
0.000352891
0.000536658
0.00240679
0.000922598
0.000443484
0.000677331
0.000650259
0.00047191
0.00016173
0.000517819
0.000340119
0.000553533
0.000560607
0.000670363
0.00254288
0.000796149
0.00064199
0.00103607
0.00116389
0.000328465
0.000286013
0.000526377
0.000502166
0.000490693
0.00088049
0.000731566
0.000519244
0.00278616
0.00111342
0.000889398
0.000491633
0.000665649
0.000516875
0.000609742
0.00109759
0.000742465
0.000400613
0.000816079
0.000709923
0.0010391
0.000553068
0.00268566
0.000388876
0.000569539
0.00125088
0.000723499
0.00184058
0.0025189
0.00124966
0.00172797
0.00124027
0.000581934
0.000760846
0.00131808
0.00161032
0.00173891
0.00262613
0.00107219
0.000870876
0.000446154
0.000751044
0.000560161
0.000734607
0.000982827
0.00059245
0.000961365
0.000753269
0.00091958
0.00124018
0.00158586
0.000543592
0.00141539
0.00124802
0.00039347
0.000173369
0.000320758
0.000325174
0.000332471
0.0003664
0.000402033
0.000452091
0.000430151
0.000391343
0.000259055
0.000447264
0.000314891
0.000254564
0.000396501
0.000366881
0.000301573
0.000198613
0.00014309
0.00024214
0.000406181
0.000390354
0.000244764
0.000200554
0.000136041
0.000339676
0.00015878
0.000133996
0.000147994
0.000234976
0.000215361
0.00031093
0.000446006
0.00045572
0.000413161
0.0023297
0.000703525
0.00228644
0.000504193
0.000693359
0.0023135
0.000537264
0.000501745
0.00043992
0.000377899
0.00228248
0.00031213
0.000159168
0.000309757
0.000437629
0.000457925
0.00232541
0.000814166
0.000727971
0.000621358
0.000732382
0.000571263
0.000669717
0.00222486
0.000823177
0.00115077
0.000791929
0.000937299
0.000904376
0.000533857
0.000591248
0.000466863
0.00223293
0.00155536
0.000690929
0.000815339
0.000981598
0.00070693
0.000929294
0.000597719
0.000654714
0.000581492
0.00222815
0.000895464
0.000923392
0.000694705
0.000524148
0.000894418
0.000867735
0.000697657
0.000683793
0.000266133
0.000506969
0.00247331
0.00114086
0.00100085
0.000843869
0.000812929
0.000568228
0.00023382
0.00049057
0.000541201
0.000611145
0.000645225
0.000503641
0.00245754
0.001016
0.000389052
0.000475076
0.000494048
0.000351548
0.000144655
0.000139917
0.000400106
0.000536379
0.000694115
0.000350391
0.000715135
0.00260399
0.000806567
0.000594268
0.000360253
0.00090767
0.000558832
0.000324892
0.000427949
0.000339281
0.00059987
0.00080337
0.000387829
0.000683125
0.00105153
0.00274535
0.000978501
0.00100222
0.000568921
0.000655283
0.000859687
0.000733231
0.000995182
0.000546225
0.000571861
0.000691445
0.000990882
0.000511998
0.00105841
0.000422059
0.00260458
0.000347436
0.000594367
0.000760954
0.000781076
0.000474636
0.00141217
0.00105805
0.00134277
0.00113992
0.00155981
0.00123162
0.00115061
0.00064283
0.00175463
0.00211774
0.00280063
0.000878603
0.00104109
0.000576334
0.000437469
0.0006246
0.000568467
0.000725542
0.000465219
0.000570697
0.00103192
0.00094427
0.000879862
0.00144127
0.00155568
0.000520076
0.0015323
0.00118836
0.000351252
0.000414564
0.000210966
0.000373423
0.000379724
0.000338266
0.000359639
0.000472519
0.000433651
0.000516542
0.000513463
0.000259522
0.000432985
0.000369524
0.000308258
0.000418051
0.000334826
0.000298728
0.000287931
0.000184341
0.000166783
0.000304036
0.000449257
0.00040819
0.00025068
0.000162982
0.000130848
0.000315273
0.000157012
0.000236302
0.000183868
0.000221808
0.000182591
0.000242276
0.000439672
0.000429796
0.000375319
0.00225763
0.000533583
0.00230595
0.000223104
0.000563533
0.0021497
0.000232431
0.00047496
0.000651936
0.00224872
0.000417487
0.000366064
0.000145769
0.000422343
0.000423541
0.00229602
0.0005684
0.000596593
0.000756065
0.000665856
0.0004834
0.000669842
0.00222492
0.00128473
0.000439226
0.000678131
0.000455036
0.000619284
0.000726178
0.000545099
0.00222156
0.000950666
0.00116955
0.000519554
0.000984474
0.000769003
0.000616219
0.000608177
0.000308005
0.000372507
0.00223514
0.000921767
0.000708457
0.000370045
0.000775609
0.000590519
0.000602642
0.000827923
0.000484661
0.000384532
0.000531659
0.0022827
0.000887363
0.000477527
0.000511989
0.000592518
0.000865564
0.000791122
0.000608104
0.000736523
0.000613181
0.000423213
0.000880699
0.00241856
0.00111403
0.000383464
0.000594149
0.00103945
0.00086396
0.000424005
0.000411676
0.000907427
0.000582561
0.000881294
0.000659258
0.00032437
0.00255017
0.000293616
0.000537693
0.00070916
0.000493156
0.000256787
0.000330325
0.00038165
0.000442925
0.000406807
0.000371447
0.000523928
0.000769977
0.000957261
0.00254285
0.00065537
0.000516127
0.000294201
0.000258548
0.00066611
0.000165878
0.000419623
0.000396379
0.000438738
0.000418439
0.000359673
0.000443192
0.000323002
0.00145022
0.00272591
0.000669038
0.00116964
0.00069065
0.000564344
0.000512601
0.000941737
0.000784334
0.000421352
0.000338324
0.000373589
0.000362182
0.00090866
0.000602284
0.00107437
0.000662135
0.00338136
0.000523703
0.000420717
0.000679218
0.00076179
0.000765421
0.000759313
0.000713337
0.00167672
0.00132364
0.000702333
0.000768644
0.00108362
0.00117808
0.00055013
0.00178328
0.00146188
0.0029646
0.000936881
0.00112223
0.000893001
0.000776422
0.000508388
0.000613445
0.000609022
0.000590176
0.000441085
0.000512906
0.000734543
0.00120025
0.000811833
0.00131586
0.000710522
0.000760628
0.00139585
0.00106105
0.000417846
0.00038
0.000462758
0.000513247
0.000308957
0.000397251
0.000338008
0.000368654
0.000509221
0.000396959
0.000534689
0.000678577
0.000456156
0.000396118
0.000247285
0.000228754
0.000439234
0.000465486
0.000199398
0.000373958
0.000260042
0.000173111
0.000192845
0.000364798
0.000461024
0.000373644
0.000163616
0.000129024
0.000137269
0.000303525
0.000166986
0.00019676
0.000328578
0.000199258
0.00011298
0.000199583
0.000448228
0.000393636
0.000318501
0.00216305
0.000785006
0.00224477
0.000649998
0.000543963
0.00222804
0.000297092
0.000181833
0.000366607
0.00223816
0.00040374
0.000460653
0.000504982
0.000510519
0.00226983
0.000589285
0.000399686
0.000206211
0.000475296
0.000416886
0.000511585
0.00218873
0.000722584
0.000570561
0.000515573
0.000690308
0.000176869
0.000241879
0.000311096
0.00222724
0.00129376
0.000660052
0.000847079
0.000681294
0.000627722
0.000631237
0.000452941
0.000330301
0.00230309
0.000728
0.000706991
0.00038484
0.00109116
0.000830827
0.000689085
0.000592974
0.00059351
0.000510937
0.000344793
0.00234446
0.00116812
0.000734863
0.00088477
0.000764862
0.000434686
0.00103818
0.000703538
0.000780577
0.000530618
0.000327568
0.000663617
0.00227871
0.000752916
0.000711668
0.000975859
0.000703455
0.000716857
0.000645994
0.000325474
0.000655423
0.000706482
0.000655158
0.000491526
0.000547147
0.00238684
0.00081821
0.000918034
0.00108472
0.000720779
0.000659119
0.000602117
0.00114394
0.000661577
0.000409741
0.000417596
0.000985147
0.000623689
0.000785315
0.00236042
0.000230721
0.000506292
0.000309192
0.000391035
0.000606095
0.000482881
0.000407266
0.000356456
0.000245252
0.000331458
0.00030899
0.00045808
0.000951598
0.00151593
0.00219266
0.000768421
0.000472891
0.000226344
0.000230877
0.000425285
0.000454644
0.000326486
0.000254657
0.000461384
0.000438439
0.000505617
0.0002301
0.000416729
0.000710362
0.000923622
0.0027256
0.000829871
0.000934062
0.00106108
0.000485973
0.000424777
0.000575466
0.000557517
0.000634325
0.0004343
0.000518723
0.000410764
0.000697083
0.000607539
0.00057585
0.00073413
0.00268118
0.00415184
0.000441113
0.000628033
0.000472898
0.000854019
0.000856871
0.000779827
0.000540096
0.00122659
0.00123695
0.000698759
0.000599654
0.000750526
0.000829267
0.00052156
0.000748239
0.00184029
0.0012625
0.00257241
0.000290487
0.000998737
0.00114322
0.000722687
0.000389974
0.000571802
0.000668162
0.000505081
0.000516877
0.000491351
0.000624468
0.00102812
0.00105492
0.000807901
0.00140419
0.000414091
0.00100064
0.00121459
0.00089826
0.000571319
0.000414833
0.000302412
0.000511186
0.000779407
0.000257387
0.000390934
0.000364973
0.000380996
0.000448096
0.000427157
0.000513894
0.000579832
0.000684711
0.000376943
0.000227304
0.000216872
0.000437618
0.000513677
0.000302325
0.000387102
0.000346539
0.000216298
0.000173693
0.00021066
0.000381291
0.000420599
0.000387102
0.000170314
0.000125546
0.000133904
0.00030434
0.00019991
0.000142947
0.000371948
0.000181533
0.000180645
0.000162569
0.000430183
0.000355878
0.00029949
0.00228581
0.000465071
0.00209812
0.000313727
0.000727479
0.00213071
0.000526071
0.000702458
0.000417649
0.00215207
0.000349136
0.000253638
0.000468554
0.00038703
0.00225212
0.000450801
0.000345772
0.000239477
0.000202431
0.000327748
0.00223302
0.000510017
0.000299367
0.000580889
0.000443455
0.000478746
0.000532833
0.000520704
0.00208044
0.00102134
0.000890885
0.000456154
0.000525991
0.000545707
0.000512014
0.000601161
0.000337548
0.00224143
0.000996117
0.000667471
0.000805681
0.00109253
0.000600102
0.00029702
0.00057415
0.000172812
0.000439911
0.00230635
0.000706107
0.000623617
0.000614223
0.000635943
0.000927036
0.00094505
0.000810096
0.0009727
0.000517462
0.000323701
0.000334626
0.00230159
0.00112586
0.000812761
0.000861535
0.000579894
0.000623543
0.000858932
0.0003328
0.00074445
0.00073015
0.000781979
0.000483999
0.000519975
0.00232045
0.00097327
0.000802661
0.00103405
0.001214
0.0013412
0.000811473
0.000273811
0.000506505
0.000583247
0.000712731
0.000697441
0.000583226
0.000668817
0.00245627
0.000514751
0.000380398
0.000328755
0.000996687
0.000526941
0.00107595
0.00081205
0.000291394
0.00059325
0.000199464
0.000416734
0.000579112
0.000715206
0.000631277
0.00218466
0.000444015
0.000305547
0.00037967
0.00101238
0.00036611
0.000536395
0.000341571
0.000719246
0.000718342
0.000444048
0.000423218
0.000308575
0.000604972
0.000580748
0.00114395
0.00239305
0.000558841
0.000547561
0.000421194
0.000391296
0.000547408
0.000105623
0.000446698
0.000306272
0.000403908
0.000564508
0.000265977
0.000592764
0.000535588
0.00099963
0.000832503
0.00113898
0.00246639
0.000564551
0.000579825
0.00111864
0.000877783
0.000309709
0.000367176
0.000733315
0.00079889
0.000650549
0.000643404
0.000894403
0.000379962
0.000635352
0.000166004
0.000414674
0.000839818
0.00358839
0.00332331
0.000764093
0.000477742
0.000368579
0.000885828
0.000895736
0.00071499
0.000676692
0.000799562
0.000953597
0.000881219
0.000426646
0.00032543
0.00073135
0.000620026
0.000247348
0.000966571
0.00121968
0.00152154
0.00173042
0.000425421
0.000468131
0.00100765
0.00137733
0.000653142
0.000629384
0.000457707
0.000529532
0.00055712
0.00044734
0.000275658
0.000554591
0.000486622
0.000730479
0.00104266
0.00152196
0.00053555
0.0010073
0.0010194
0.000827036
0.000285038
0.0004092
0.000840942
0.000222393
0.000501274
0.00076458
0.000267812
0.00035663
0.000384881
0.000399479
0.000411357
0.000429122
0.000551062
0.000526347
0.000635664
0.00032959
0.000289389
0.000186349
0.000454646
0.000460468
0.000333376
0.000553586
0.000493539
0.00035411
0.00018363
0.000169773
0.000210001
0.000370658
0.000363062
0.000344517
0.000188553
0.000143924
0.000140171
0.000310125
0.000185829
0.000118103
0.000267025
0.000178876
0.00024512
0.000163784
0.000358876
0.000361851
0.000304147
0.00222562
0.000538088
0.0022041
0.000391109
0.000401399
0.00206785
0.000494038
0.000402103
0.000459922
0.00210652
0.000395597
0.000570797
0.000350964
0.00025133
0.002113
0.000467537
0.000321678
0.000318169
0.000425816
0.000276333
0.00203914
0.000400638
0.000554455
0.000515089
0.000604452
0.000476062
0.000559007
0.00214419
0.00045184
0.000317899
0.000262596
0.000225766
0.000389699
0.000437562
0.000484425
0.000455113
0.00213526
0.000760326
0.000926594
0.000584524
0.000551083
0.000538569
0.000600988
0.000933274
0.000337058
0.000283856
0.00223537
0.000666577
0.000850999
0.000633262
0.00132133
0.00078027
0.000553929
0.00076478
0.000395017
0.000396393
0.000455482
0.00232788
0.000823921
0.000955102
0.000769291
0.000434863
0.000896369
0.000507019
0.0010568
0.00109121
0.000898486
0.00049687
0.000518395
0.000348555
0.00229969
0.00125308
0.000746257
0.000575408
0.000787721
0.000967173
0.000826194
0.000488253
0.000555201
0.000533914
0.000554357
0.000667762
0.000420636
0.000649242
0.00226507
0.000687603
0.000571804
0.000813264
0.00150606
0.000377216
0.00062734
0.000860405
0.00106112
0.000412754
0.00036262
0.000559399
0.000879347
0.000768371
0.000717561
0.00236679
0.000401415
0.000762079
0.000950497
0.0004894
0.000537528
0.00169882
0.000354913
0.000473638
0.000311117
0.00015846
0.000924802
0.00082209
0.000568962
0.000758345
0.000703121
0.0023977
0.000363701
0.000390702
0.000825538
0.000729061
0.000338878
0.000421597
0.000313156
0.000846705
0.00028473
0.000112891
0.000547137
0.000272951
0.000480324
0.000470042
0.000839076
0.00098166
0.00248613
0.000703365
0.000421091
0.000622847
0.000245874
0.000410696
0.000157244
0.000306398
0.000453966
0.000252544
0.000359222
0.0010442
0.000593213
0.000308195
0.000373483
0.000675162
0.000159822
0.00109255
0.00240931
0.00180197
0.000884406
0.00102133
0.00112121
0.000542837
0.000431735
0.000398489
0.000477359
0.000500456
0.000599323
0.00046582
0.000430583
0.000703053
0.00045135
0.000427219
0.00108199
0.00189531
0.00249291
0.00213645
0.000959537
0.000837181
0.000998406
0.000819623
0.00149229
0.000689606
0.000640655
0.000648736
0.000767312
0.00102684
0.000739401
0.000445101
0.000640763
0.000592067
0.000641661
0.00054734
0.00107383
0.00113267
0.00128666
0.00176237
0.000450558
0.000373196
0.000728499
0.000711432
0.00111316
0.000688371
0.000808468
0.000509018
0.000791155
0.000575151
0.000279911
0.000315172
0.00104106
0.000593482
0.00093284
0.00111357
0.00102314
0.000502948
0.000911134
0.000719504
0.000797747
0.000224617
0.000488213
0.000209129
0.000402031
0.000121086
0.00046747
0.000767319
0.000318095
0.000391727
0.000397831
0.000398047
0.000436909
0.000375481
0.00048238
0.000509604
0.000497908
0.000350429
0.000326989
0.000213198
0.000458499
0.000370663
0.000339846
0.000400703
0.000595043
0.000559713
0.000312459
0.000114636
0.000168367
0.000189957
0.00034848
0.00031462
0.000302231
0.00021823
0.000208074
0.000154972
0.000307881
0.000164144
0.000138298
0.000167553
0.000172415
0.000270467
0.000205952
0.000254031
0.000341277
0.000342459
0.00226628
0.000471151
0.002197
0.00048322
0.000334457
0.00213168
0.0003708
0.000372649
0.000376544
0.00218181
0.000386516
0.00076854
0.0006101
0.000453594
0.00221391
0.000501735
0.000348608
0.000106501
0.000275251
0.00046023
0.00210913
0.000339562
0.000309768
0.000381766
0.000340828
0.000353212
0.000297662
0.0020862
0.000363007
0.000371029
0.000314321
0.00043791
0.000352601
0.000516814
0.000585865
0.00218193
0.000768166
0.000995799
0.0005429
0.000355416
0.000460075
0.000448396
0.000278817
0.000303757
0.0003863
0.002264
0.000648319
0.000947267
0.000504986
0.000689988
0.000639491
0.000457327
0.000363182
0.000608276
0.000265805
0.000509314
0.00221842
0.000874121
0.000928735
0.000680342
0.000896265
0.000815567
0.00108572
0.000675837
0.000641018
0.000372643
0.000326536
0.000443768
0.00233732
0.000346545
0.000924122
0.00119587
0.000788003
0.000474483
0.000351592
0.000752221
0.000814383
0.000709428
0.000484516
0.000546873
0.000573377
0.000410197
0.00226422
0.000716238
0.000965387
0.000618301
0.00138624
0.00096625
0.000708765
0.000731611
0.000427428
0.000214552
0.000661222
0.000942968
0.000459731
0.000453377
0.000719792
0.00220474
0.000804476
0.0005267
0.00191104
0.000586194
0.000523402
0.00115129
0.00160239
0.000418194
0.000306968
0.00039152
0.000328404
0.000413127
0.00087507
0.000664519
0.000740838
0.00232122
0.000679163
0.000510526
0.00130475
0.000264529
0.000987307
0.00056798
0.000498896
0.000627295
0.000960666
0.000946233
0.000805777
0.000559419
0.000798288
0.000634545
0.000662284
0.000570445
0.00237316
0.000549999
0.000468058
0.000537964
0.000881722
0.000844169
0.000929977
0.000732426
0.000494298
0.000337206
0.000369289
0.000220668
0.000391755
0.00027316
0.000639709
0.000709017
0.000980176
0.000829938
0.00230422
0.000635897
0.00057376
0.000493108
0.000435546
0.000318559
0.000284845
0.000413042
0.000441372
0.000340844
0.000224766
0.000436068
0.000673631
0.000540404
0.000338453
0.000562728
0.000274842
0.000469846
0.00180486
0.00235146
0.00102404
0.000767575
0.000650508
0.000981655
0.000887352
0.000370462
0.000395135
0.000295698
0.000178576
0.000446168
0.000295833
0.000371037
0.000665925
0.000598466
0.000835472
0.000730977
0.00100588
0.00273674
0.00237055
0.00216869
0.000898674
0.00130626
0.00106656
0.000989089
0.000866375
0.00109101
0.00078839
0.000609217
0.000332008
0.000725043
0.000934133
0.000431154
0.000396882
0.000544969
0.000746501
0.000680311
0.000853088
0.000873795
0.00109843
0.00103407
0.00205422
0.000598142
9.11312e-05
0.000536105
0.000803931
0.000775693
0.000668917
0.000501046
0.000804757
0.00047732
0.000627594
0.000507903
0.000532498
0.000342758
0.000720284
0.000747979
0.00116754
0.00117859
0.000649257
0.000380384
0.00083179
0.000459241
0.000878112
0.000142843
0.000282259
0.000325887
0.000342747
0.000465152
8.44753e-05
0.000679233
0.00064554
0.000330274
0.000404595
0.000465085
0.000407623
0.000381004
0.000396623
0.000442287
0.000473937
0.000517586
0.000345926
0.000274085
0.000228431
0.000463912
0.000514049
0.000542943
0.000292991
0.00038931
0.000603485
0.000542047
0.000229677
5.9309e-05
0.000166183
0.00019199
0.000323262
0.000248143
0.000272846
0.000206427
0.000263853
0.000178871
0.000298747
0.000170337
0.000154297
0.000202259
0.000175571
0.000286358
0.000269756
0.000166272
0.000333918
0.000372511
0.00203897
0.000375773
0.00220048
0.000524363
0.000419665
0.0020873
0.000484588
0.000255257
0.000345749
0.00221197
0.000589506
0.000571585
0.000317265
0.000601398
0.00213382
0.000381351
0.000355821
0.000344164
0.000590012
0.000567099
0.0022705
0.000232002
0.000439842
0.000355243
0.000566032
0.000508933
0.000478503
0.00215424
0.000654546
0.000361008
0.000447989
0.00045143
0.000444059
0.0003995
0.000330481
0.00210881
0.000444121
0.00043019
0.000249838
0.000342673
0.000308659
0.00035285
0.000447591
0.000510947
0.00221357
0.000627027
0.00077824
0.000451535
0.0003846
0.000433187
0.000452085
0.000396061