/*--------------------------------*- C++ -*----------------------------------*\
  =========                 |
  \\      /  F ield         | OpenFOAM: The Open Source CFD Toolbox
   \\    /   O peration     | Website:  https://openfoam.org
    \\  /    A nd           | Version:  7
     \\/     M anipulation  |
\*---------------------------------------------------------------------------*/
FoamFile
{
    version     2.0;
    format      ascii;
    class       surfaceScalarField;
    location    "6.5";
    object      phi;
}
// * * * * * * * * * * * * * * * * * * * * * * * * * * * * * * * * * * * * * //

dimensions      [0 3 -1 0 0 0 0];

internalField   nonuniform List<scalar> 
54095
(
0.000356668
-6.57207e-05
-0.000650839
0.000360002
-0.00018096
-0.000596616
0.000365358
-9.83232e-05
-0.000409909
0.000335124
-7.9325e-05
-0.000906637
0.000130575
2.60023e-05
-0.00286612
0.000365052
-0.000242043
-0.000680849
0.000256878
-0.000177813
-0.000340558
0.000173741
-0.000105399
0.00054876
0.000337248
-0.000111367
-0.000715115
0.000303851
-8.95113e-05
-0.00112098
-0.000247954
0.000713125
-0.00632846
0.000322079
0.000413711
-0.00329819
-5.77919e-05
-3.79918e-05
-0.00251345
0.000131928
-0.000285488
0.000156465
0.00022999
-0.000250983
-0.000500421
0.000157264
-0.000173427
-2.05447e-05
0.000108342
-0.000117525
0.000525716
0.000182328
-0.000114097
0.000369162
0.000300465
-0.000123124
-0.000981968
0.000274939
-8.93288e-05
-0.00130659
-0.000693238
0.000334853
-0.00609041
0.000136596
0.000938956
-0.00416633
-0.000450456
0.000577009
-0.0065128
5.65308e-05
0.000584569
6.63097e-05
0.000269872
0.000565939
0.00347938
-0.000160859
6.4576e-05
-0.00225991
7.92782e-05
-0.000309247
0.000456172
0.00013978
-0.000277215
0.000225244
0.000254426
-0.000250595
-0.000377214
9.13099e-05
-0.000153802
0.000316886
4.87993e-05
-9.42995e-05
0.000249835
0.000100698
-0.0001206
0.000431521
0.000190789
-0.000123124
0.000178374
0.000261306
-0.000129316
-0.00120329
0.000254421
-8.46016e-05
-0.00147641
-0.000774858
0.000176113
-0.00607522
-0.000167097
0.000789898
-0.00574109
-0.00086923
0.000371974
-0.00604361
1.3094e-05
0.00104493
-0.00390628
0.000236374
0.000861184
-0.004417
-0.000576552
0.000557726
-0.00665483
-3.53728e-05
0.00044003
-0.00057738
-3.47272e-05
0.000736755
7.0002e-05
0.000302005
0.000511933
0.00298444
-0.000193403
9.39245e-05
-0.00206912
-7.79716e-05
-0.000238242
-0.000337724
5.63253e-05
-0.000280199
0.00050353
0.000205429
-0.000256113
0.000216122
0.0002283
-0.000246366
-0.000251644
3.68825e-05
-0.000140518
0.000674942
6.87777e-06
-6.18622e-05
-0.000256457
3.67431e-05
-9.18069e-05
0.000184299
8.29848e-05
-0.000121757
0.000347168
0.000190022
-0.000129742
-1.12217e-05
0.000224854
-0.000131585
-0.00138116
0.000236721
-7.92377e-05
-0.00163389
-0.00100979
0.000280021
-0.00408909
-0.000533107
0.000657806
-0.00687548
-0.00131507
0.00026992
-0.0058993
-4.74711e-05
0.000928441
-0.00572442
0.000121919
0.0008599
-0.00611456
-0.00105164
0.000352985
-0.0059215
-6.1861e-05
0.000963476
-0.00388873
-5.07911e-05
0.000955605
-0.00398464
0.0003333
0.000856946
-0.00474752
-0.000737077
0.000502241
-0.0066134
-0.000150418
0.000133539
-0.00150407
-7.97278e-05
0.000570927
-0.000275499
7.1376e-05
0.000646888
6.91004e-05
0.000303987
0.000501699
0.00250098
-0.000267096
0.000126062
-0.0018912
-0.000128323
-0.000168594
-0.000718647
1.72417e-06
-0.000223504
-0.0003594
4.74505e-05
-0.000245221
0.000528172
0.000264504
-0.000246423
0.000141697
0.000219146
-0.00025562
-0.000130833
6.13027e-05
-0.000111249
0.000961609
-1.27479e-05
-4.77618e-05
-0.000604212
-4.178e-06
-5.79223e-05
-0.000286163
2.34184e-05
-8.85432e-05
0.000127667
6.97816e-05
-0.000120296
0.000267941
0.000179336
-0.000132755
-0.000189387
0.000187023
-0.000127234
-0.00152018
0.000224637
-7.20199e-05
-0.00178651
-0.00169968
0.00054793
-0.0040632
-0.000777018
0.000792303
-0.00551
-0.0016963
0.000350513
-0.00405836
-5.51902e-05
0.000962974
-0.00685831
-0.000233615
0.000782223
-0.00703225
-0.0014826
0.000303145
-0.00577148
-4.77518e-06
0.000841075
-0.00544628
0.000124974
0.000972789
-0.00601307
0.000285254
0.000986947
-0.00670048
-0.00114964
0.000401092
-0.00591003
-4.92317e-05
0.000822104
-0.00416388
-0.000133209
0.000917531
-0.00379718
0.000102672
0.000973981
-0.00413297
0.000348939
0.000804058
-0.00509429
-0.000747473
0.000580478
-0.0067135
-0.000123591
-9.88881e-05
-0.00179348
-8.17043e-08
0.000260967
-0.00119231
-3.65404e-05
0.000409299
4.60802e-05
0.000182052
0.000576469
7.67819e-05
8.43748e-05
0.000459311
0.0023025
-0.000122014
0.000204784
-0.00191267
-2.14692e-05
-0.000128172
-0.00129705
-0.000154307
-0.000159384
-0.000632638
-7.67649e-05
-0.000204014
-0.000300424
7.45565e-05
-0.000219404
0.000496379
0.000340904
-0.000255904
-1.95871e-05
0.000188673
-0.000255431
1.16986e-05
9.14179e-05
-0.000106234
0.00120106
-1.31097e-05
-3.91917e-05
-0.00101619
-2.17825e-05
-4.69851e-05
-0.000593367
-1.02942e-05
-5.45753e-05
-0.000309837
1.32204e-05
-8.51012e-05
7.92512e-05
5.48352e-05
-0.000116598
0.000196948
0.000169624
-0.000129186
-0.000357059
0.000155744
-0.000120994
-0.00162695
0.000214833
-6.43573e-05
-0.00193698
-0.00201913
0.000335504
-0.00410383
-0.000680494
0.000804395
-0.00578218
-0.00186581
0.000423407
-0.0043171
-0.000261615
0.00120204
-0.00642827
-0.000465382
0.000743221
-0.00567094
-0.0015734
0.00041293
-0.00438049
0.000286043
0.000940693
-0.00669797
3.12046e-05
0.000890089
-0.00687241
-0.000238403
0.000753187
-0.00695863
-0.00135366
0.000329273
-0.00589673
0.000107049
0.000766618
-0.00533181
1.53459e-05
0.000840613
-0.00546266
0.000353822
0.00107083
-0.0063481
0.000359068
0.00110486
-0.00741437
-0.000946237
0.000338677
-0.00604995
0.000164591
0.000457582
-0.0038934
-3.33335e-05
0.000803737
-0.00401683
-7.96285e-05
0.000955703
-0.00373581
0.000145347
0.000957908
-0.00425011
8.91455e-05
0.00075417
-0.00527275
-0.000585877
0.000564906
-0.00681455
3.74095e-05
-0.00022474
-0.0014743
-0.000115449
-4.61292e-05
-0.00152524
-0.000165813
0.000207731
-0.00090169
3.85024e-05
0.000404944
0.00025366
0.00045501
0.000463701
-4.17141e-05
0.000413953
0.000521024
0.00176098
-2.12044e-05
0.000289393
-0.00208944
-5.14334e-06
-0.000113566
-0.00146981
-7.22679e-05
-0.000117494
-0.00128846
-0.000169167
-0.000156603
-0.000521176
-6.80543e-05
-0.00019463
-0.000243923
0.00011699
-0.000207375
0.000385695
0.00033299
-0.000274968
-0.000163416
0.000103624
-0.000265989
0.000223574
0.00021909
-9.46551e-05
0.00129146
-2.51322e-06
-3.82967e-05
-0.00102825
-2.4766e-05
-3.87734e-05
-0.000999638
-2.92604e-05
-4.61883e-05
-0.000572494
-1.65889e-05
-5.20461e-05
-0.000326303
3.29666e-06
-8.15095e-05
4.08664e-05
4.28898e-05
-0.000111704
0.000136576
0.000151902
-0.000124886
-0.00050507
0.000128758
-0.000115413
-0.00170466
0.000200466
-5.66416e-05
-0.00208081
-0.00190921
6.5755e-05
-0.00364581
-0.000549031
0.000271783
-0.0060208
-0.00175494
0.000259961
-0.00447467
-0.000283304
0.000812316
-0.00572883
-0.000535069
0.000697145
-0.00598623
-0.00136932
0.000305738
-0.00482692
0.000413461
0.00124246
-0.00639324
-0.000168858
0.00101964
-0.00650463
-0.000265422
0.000794717
-0.00602571
-0.00134599
0.000411381
-0.00479955
0.000574977
0.000752317
-0.00685803
0.000372434
0.000882648
-0.00704761
0.000140572
0.000847939
-0.00675391
1.9186e-05
0.00070055
-0.00699003
-0.00109523
0.000285631
-0.00603337
0.000380553
0.000741991
-0.00453498
0.000248742
0.000710536
-0.0054838
0.000112547
0.000923728
-0.00550773
0.000395471
0.00116048
-0.00665385
0.000323054
0.000983815
-0.00829342
-0.000731751
0.000355594
-0.00625967
0.000125505
0.000226384
-0.00276914
0.000153949
0.000489811
-0.00384887
-4.90173e-05
0.000743058
-0.00392099
1.53768e-06
0.000934739
-0.00367568
0.000353365
0.000870453
-0.00426475
0.000508055
0.000717829
-0.00551978
-0.000456226
0.000536346
-0.00691587
-9.51544e-05
-0.000187415
-0.00150764
-7.00417e-05
-0.000207189
-0.00131547
-0.000194559
4.16041e-05
-0.00133372
-0.000169757
0.000240708
-0.000635752
0.000171715
0.000389835
0.000272801
0.000409895
0.000480818
-7.8412e-05
0.000456338
0.000660942
0.00103672
0.000417543
0.000297466
-0.00258536
4.87588e-05
-8.66527e-05
-0.000944205
-2.82146e-05
-0.000115548
-0.00146831
-0.000103705
-0.00010493
-0.00126568
-0.000172805
-0.000153255
-0.000406335
-3.05461e-05
-0.000190662
-0.000226794
0.00014394
-0.000210453
0.00022013
0.000310493
-0.000280964
-0.000307032
0.000116123
-0.000237156
0.00037871
0.000243506
-6.92519e-05
0.00131767
2.95993e-06
-5.09105e-05
-0.00100947
-1.03672e-05
-3.81525e-05
-0.0010185
-3.3996e-05
-3.86916e-05
-0.000973138
-3.57273e-05
-4.53995e-05
-0.000543413
-2.27201e-05
-5.01539e-05
-0.000334939
-7.1022e-06
-7.7644e-05
1.39088e-05
3.46007e-05
-0.000106281
8.33699e-05
0.000138021
-0.000120541
-0.000637963
0.000106465
-0.000109888
-0.00175787
0.000187542
-4.90445e-05
-0.0022193
-0.000204145
-0.00376496
-0.000871756
0.000339043
-0.0051374
-0.00171823
0.000126514
-0.00380903
-0.00017137
0.000314187
-0.00593594
-0.000534449
0.000224184
-0.00598564
-0.00134127
0.000157433
-0.00466015
0.000157612
0.000841481
-0.00624025
-0.000116737
0.00072275
-0.00580656
-0.000295635
0.000521999
-0.00617228
-0.00116867
0.00019165
-0.00519589
0.000998604
0.00102129
-0.00677472
0.000409209
0.00113075
-0.00654113
-3.64407e-05
0.000917497
-0.0064504
-0.000129961
0.000726872
-0.00619205
-0.00106088
0.000397532
-0.00523143
0.000738591
0.000958672
-0.00633695
0.000491896
0.000697376
-0.00691591
0.000250799
0.000872964
-0.00721089
0.000471123
0.000815919
-0.00694493
0.000120315
0.00063244
-0.0071341
-0.000880221
0.00027261
-0.00615751
0.000271427
0.000668184
-0.00324854
0.000356232
0.000686803
-0.00471353
0.000263298
0.000718992
-0.00559138
0.000233473
0.00104355
-0.00562274
0.000438276
0.0011421
-0.00689704
0.000340307
0.000732925
-0.008503
-0.000493554
0.000377728
-0.00660007
-0.000103389
0.00018033
-0.00236099
4.58544e-05
0.000234245
-0.00262947
2.02795e-05
0.000441151
-0.0037618
2.03938e-05
0.000680849
-0.00385725
2.24488e-05
0.000901697
-0.00355766
0.000406812
0.000716984
-0.00426083
0.000712707
0.000757863
-0.00599766
-7.32365e-05
0.000364123
-0.00678921
1.15569e-06
-0.00011642
-0.00168314
-8.43819e-05
-0.000187989
-0.00147067
-0.000171171
-0.000179731
-0.00102667
-0.000211843
7.4798e-05
-0.00112877
-5.79727e-05
0.000288165
-0.000506655
0.000309191
0.000437123
0.000151244
0.000375074
0.000564487
-4.65377e-05
0.00042909
0.000723369
0.000297848
0.000478129
0.00030193
-0.00312191
5.5929e-05
-3.89621e-05
-0.0016003
2.8829e-05
-7.76094e-05
-0.00102134
-5.96335e-05
-0.000109196
-0.00143841
-0.000127915
-9.82759e-05
-0.00122848
-0.000163016
-0.000146053
-0.000310648
-3.46997e-07
-0.000191644
-0.000252358
0.000132073
-0.000200968
4.26609e-05
0.00021007
-0.000245156
-0.000371081
0.000100979
-0.000192963
0.000507906
0.000216367
-4.51357e-05
0.00133398
7.21082e-06
-5.73594e-05
-0.00102476
-9.55449e-06
-5.15386e-05
-0.000986532
-2.43023e-05
-3.79663e-05
-0.000994923
-4.29786e-05
-3.90523e-05
-0.000936507
-4.27323e-05
-4.49637e-05
-0.000505871
-2.95192e-05
-4.88077e-05
-0.000334256
-1.47681e-05
-7.34668e-05
-4.13692e-06
3.18415e-05
-0.000100718
3.17054e-05
0.000126271
-0.000115521
-0.000758601
8.97339e-05
-0.00010424
-0.00179241
0.000167005
-4.26298e-05
-0.00234368
-2.21879e-05
-0.00456924
-0.00169179
-0.000118706
-0.00367269
-0.000287319
0.000292896
-0.00544208
-0.00061046
0.000175503
-0.00511038
-0.00153689
0.000147218
-0.00376063
-0.000310921
0.000496949
-0.00610977
-0.000110126
0.000291999
-0.00601036
-0.000651744
0.00023468
-0.00570678
-0.00132717
0.000205742
-0.00470739
0.000731404
0.00101183
-0.00644249
0.00019827
0.000847013
-0.00615357
1.88224e-05
0.000633314
-0.00597313
-0.000296134
0.000384883
-0.00619934
-0.000958344
7.65566e-05
-0.00537499
0.000991216
0.00137213
-0.00626071
0.000546432
0.00104038
-0.00673889
0.000308079
0.00104909
-0.00673
0.000374736
0.000855965
-0.0064831
9.26327e-05
0.00073778
-0.00650462
-0.000923142
0.000309177
-0.00549768
0.000712372
0.00132267
-0.00440826
0.00056943
0.000699936
-0.00655271
0.00034924
0.000761458
-0.00689035
4.03929e-05
0.000823859
-0.00702575
0.000348133
0.000813797
-0.00703614
0.000211686
0.000635019
-0.00736789
-0.000611545
0.000263699
-0.00630322
0.000175604
0.000558778
-0.00313416
0.000101823
0.000715759
-0.00333347
0.000344395
0.000648982
-0.00496763
0.000400479
0.000662194
-0.00559011
0.000234689
0.00105833
-0.00575122
0.000549815
0.000998217
-0.00730534
0.000343117
0.000576666
-0.00833235
-0.000329448
0.00032072
-0.00666457
-2.52189e-05
8.8535e-05
-0.00186944
-2.12997e-05
0.000138299
-0.00232812
-2.11594e-05
0.000212668
-0.002551
0.000107498
0.000417362
-0.00381766
0.000119505
0.000656722
-0.00378975
9.99284e-05
0.000785394
-0.0034168
0.000180901
0.000679211
-0.003988
0.000547683
0.000738015
-0.00649015
-4.64688e-05
0.000461044
-0.00672566
2.68476e-05
-6.38367e-05
-0.00176331
-1.40902e-06
-0.000118239
-0.00172265
-0.000105574
-0.000172419
-0.00143204
-0.000195317
-0.000143583
-0.000740883
-0.000192701
0.000108826
-0.000919747
1.03135e-05
0.000351905
-0.000432097
0.000322798
0.000515601
9.40523e-06
0.000377653
0.000659055
-0.000149807
0.00034949
0.000625909
-0.000274642
0.000472065
0.000253425
-0.00363103
8.73877e-05
-4.55554e-05
-0.00262339
9.65388e-06
-2.19319e-05
-0.00167519
-1.41679e-05
-7.58157e-05
-0.00106485
-9.99838e-05
-0.000100192
-0.00137949
-0.000152944
-8.73455e-05
-0.00117697
-0.000150799
-0.000134149
-0.000246864
4.30428e-05
-0.000175504
-0.000335633
9.12431e-05
-0.000175099
-8.67977e-05
0.000198916
-0.000204287
-0.000432401
6.72825e-05
-0.000144281
0.000629504
0.000139372
-1.54434e-05
0.00137706
1.2618e-05
-5.81711e-05
-0.00087401
1.55309e-06
-5.75758e-05
-0.00102028
-2.00156e-05
-5.27026e-05
-0.00095178
-3.92368e-05
-3.81903e-05
-0.000956549
-5.56028e-05
-3.95746e-05
-0.000886293
-4.78448e-05
-4.53475e-05
-0.000461486
-3.46904e-05
-4.77332e-05
-0.000325299
-1.87223e-05
-6.92322e-05
-1.69008e-05
3.26771e-05
-9.53965e-05
-2.1096e-05
0.000114052
-0.000109865
-0.000867027
7.84563e-05
-9.86806e-05
-0.00181482
0.000148305
-3.83363e-05
-0.00245365
-0.00169627
-3.21979e-05
-0.00336554
0.000135207
-0.00505238
-0.00100126
7.55666e-05
-0.00437271
-0.00146988
-5.86311e-06
-0.00373385
-0.000338218
0.000407513
-0.00549259
-0.00029434
0.000221114
-0.00530348
-0.000537266
6.60806e-05
-0.00514372
-0.00143297
0.000127498
-0.00378233
3.47825e-05
0.000980461
-0.00599591
3.07139e-06
0.000312821
-0.0059354
-7.95059e-05
0.000268215
-0.00594557
-0.000407685
0.000295755
-0.00568524
-0.00125144
0.000120416
-0.00453471
0.000671244
0.00120932
-0.00611094
0.000205219
0.00112168
-0.00637594
9.74335e-05
0.000763488
-0.0060731
5.80559e-05
0.000609971
-0.00588154
-0.000240257
0.00027776
-0.00606765
-0.000966612
7.80738e-05
-0.00540959
0.000857065
0.00165448
-0.00531345
0.000641885
0.00122347
-0.00651625
0.000249322
0.00112593
-0.00671581
-6.26234e-05
0.00094409
-0.00671511
0.000174486
0.000793565
-0.00636524
1.6559e-05
0.000623008
-0.00662332
-0.000744703
0.000235092
-0.00559962
0.00070811
0.00138199
-0.00398286
0.00048725
0.00114138
-0.00523513
0.000579562
0.000586358
-0.00661277
0.000397831
0.000921834
-0.00698568
0.00020476
0.000825457
-0.00700748
0.000231761
0.000853329
-0.0069364
0.000233954
0.000522645
-0.00751767
-0.000498714
0.00033562
-0.00646957
0.000256329
0.000654652
-0.00343579
0.000105917
0.000733874
-0.0032795
0.000289531
0.000747164
-0.00374234
0.000419814
0.000576725
-0.00519448
0.000456375
0.000844025
-0.00571267
0.000221273
0.00103745
-0.0059118
0.000279229
0.00083791
-0.00766491
0.000224104
0.000423475
-0.00811152
-0.000195982
0.000279146
-0.00679421
1.82986e-05
7.50789e-05
-0.00171377
7.13879e-05
8.60389e-05
-0.00188998
2.28794e-05
5.93468e-05
-0.00230325
-1.43664e-05
0.000229084
-0.00254367
0.000174456
0.000463058
-0.00399115
0.000140674
0.000543412
-0.00367813
0.00017773
0.000747707
-0.00334023
0.000388369
0.000631638
-0.00389234
0.000304893
0.000671767
-0.00665627
0.000180343
0.000350392
-0.00678433
6.73639e-05
-7.33288e-06
-0.00266301
1.2221e-05
-5.59414e-05
-0.00182818
-2.95833e-05
-0.000108606
-0.00177105
-0.00016004
-0.000122516
-0.00139305
-0.000239138
-9.32159e-05
-0.000452646
-0.000111513
0.000156634
-0.000763763
0.000129656
0.000381933
-0.000385043
0.000267576
0.000589279
-9.71517e-05
0.000435354
0.000602006
-0.000362343
0.000322616
0.000452639
-0.00072919
0.000401611
0.000188306
-0.00408158
0.000111562
-9.22341e-05
-0.00271842
5.2401e-05
-3.53061e-05
-0.00266086
-2.84417e-05
-1.02953e-05
-0.00173228
-6.84391e-05
-6.84805e-05
-0.00106736
-0.000136648
-8.48339e-05
-0.00130095
-0.000176187
-8.08067e-05
-0.00110197
-0.000163787
-0.000113329
-0.000179942
2.25307e-05
-0.000133807
-0.000418177
7.72573e-05
-0.000152966
-0.000182699
0.000207471
-0.000166212
-0.000503889
6.57591e-05
-0.00011505
0.000741807
8.98387e-05
6.87181e-06
0.00142865
3.50592e-05
-4.6202e-05
-0.000488803
5.37573e-06
-5.78694e-05
-0.000879092
-3.60113e-06
-5.8274e-05
-0.0010111
-2.8058e-05
-5.36276e-05
-0.000908285
-5.04886e-05
-3.93174e-05
-0.000906317
-6.12258e-05
-4.0359e-05
-0.000830056
-5.16859e-05
-4.50524e-05
-0.000412481
-3.67346e-05
-4.64618e-05
-0.000311335
-1.89364e-05
-6.56346e-05
-2.77263e-05
3.44108e-05
-9.05232e-05
-7.4849e-05
0.000101325
-0.000103901
-0.000963132
7.02921e-05
-9.35784e-05
-0.00182987
0.000129042
-3.62275e-05
-0.00254646
-0.00157327
-1.85976e-05
-0.00312139
-0.00125757
0.000191154
-0.00410728
-0.00146324
-7.72027e-05
-0.00329497
0.000228816
-0.00498238
-0.000558436
0.000134206
-0.00484692
-0.000124386
-0.000109159
-0.0046823
-0.00144836
-0.000105853
-0.0036126
-0.000214211
0.000800422
-0.0051278
-0.000326685
0.000389607
-0.00533133
-0.000253246
0.000255779
-0.00531943
-0.000544239
6.73236e-05
-0.00494699
-0.00143274
0.000166386
-0.00376741
0.000180396
0.00144333
-0.0055255
-0.00034233
0.000678203
-0.00581374
-0.000145489
0.00020981
-0.00563407
6.27491e-05
0.000232275
-0.00588678
-0.000606926
0.000191464
-0.00538962
-0.00109715
2.72213e-05
-0.00443139
0.000709989
0.00134175
-0.00615858
0.000510278
0.0013011
-0.00615875
-0.000215006
0.00109089
-0.00623901
-0.000144616
0.000738533
-0.00611967
-3.46455e-05
0.000552023
-0.00594667
-0.000327806
0.000315744
-0.00596096
-0.000909636
6.80083e-05
-0.00531267
0.000990994
0.00164165
-0.00513182
0.000862019
0.00136798
-0.00583273
0.000621623
0.000907476
-0.00633986
0.000365249
0.000921823
-0.00666097
0.000167448
0.000917884
-0.00680212
0.000223414
0.000741115
-0.006475
5.6538e-05
0.000455304
-0.00666612
-0.000702658
0.000203295
-0.00559897
0.000757161
0.00137479
-0.00437751
0.000531985
0.00132684
-0.00459439
0.000686189
0.000880017
-0.00592545
0.000511527
0.000773829
-0.00655648
0.000235327
0.000973693
-0.00691286
0.000112254
0.000838103
-0.00688323
0.000140546
0.00078682
-0.00706189
-2.36772e-06
0.000512628
-0.00746821
-0.000378304
0.00040292
-0.00669017
0.000260306
0.000674926
-0.00371213
0.000242732
0.000829108
-0.00370236
0.000279417
0.000808288
-0.00359716
0.000349697
0.000779208
-0.00430889
0.000509491
0.00071489
-0.00540038
0.000500497
0.00102854
-0.00606359
0.000323472
0.000962718
-0.00618235
9.96491e-05
0.000681237
-0.00763395
-4.17681e-05
0.000279189
-0.00776491
-9.36303e-06
0.000318514
-0.00692302
7.99882e-05
-2.3259e-05
-0.0021522
1.60372e-05
7.03912e-05
-0.00170194
1.06817e-05
5.32456e-05
-0.00192414
-1.194e-05
6.42837e-06
-0.0022287
-8.56729e-05
0.000436304
-0.00267039
0.000100366
0.000406783
-0.0040664
0.000119195
0.000570146
-0.0034901
0.000222658
0.000692371
-0.00335605
0.000538458
0.000570436
-0.00389411
0.00023841
0.000507939
-0.00672961
0.00024326
0.00027357
-0.00689955
0.000242645
2.42436e-05
-0.00324031
6.68046e-05
9.12697e-06
-0.00274248
7.16992e-06
-3.34225e-05
-0.00193897
-2.94076e-06
-8.11025e-05
-0.00187796
-0.000178695
1.56209e-05
-0.00145984
-0.000277783
5.26437e-05
-0.00024706
-0.000117173
0.000140882
-0.000569325
0.000154027
0.000367307
-0.000294568
0.00023508
0.000586803
-0.000239772
0.000480601
0.000459648
-0.000642482
0.000365609
0.000297133
-0.00113787
0.000265248
0.000121925
-0.00437891
0.000132729
-0.00012184
-0.00243314
0.000101626
-7.93374e-05
-0.00277064
2.19826e-05
-1.70162e-05
-0.00267972
-7.90699e-05
-8.12583e-06
-0.00174163
-0.000134991
-6.03775e-05
-0.00100732
-0.00017389
-8.04721e-05
-0.00118862
-0.000182572
-6.95245e-05
-0.00101489
-0.000147274
-9.49287e-05
-0.000108281
8.72499e-06
-0.0001146
-0.000484205
7.16679e-05
-0.000139958
-0.000246209
0.000214
-0.000148456
-0.000583158
9.25584e-05
-7.91224e-05
0.000805535
5.10011e-05
2.24856e-05
0.00148421
7.15341e-05
-3.04653e-05
-0.000299412
2.56064e-05
-4.51897e-05
-0.000527089
-3.56499e-07
-5.71914e-05
-0.000879818
-1.21775e-05
-5.98245e-05
-0.00099273
-3.29252e-05
-5.55299e-05
-0.000859147
-5.9173e-05
-4.05207e-05
-0.000846983
-6.80914e-05
-4.07338e-05
-0.000766283
-4.93988e-05
-4.40996e-05
-0.000365445
-3.65695e-05
-4.47773e-05
-0.000295622
-1.74306e-05
-6.21401e-05
-3.86788e-05
3.65004e-05
-8.61611e-05
-0.000129089
9.1185e-05
-9.83177e-05
-0.00104958
6.58031e-05
-8.91178e-05
-0.00184278
0.00011116
-3.53989e-05
-0.00262222
-0.00011426
-0.00296426
-0.00128017
0.000155227
-0.00366524
-0.00144784
-9.72623e-05
-0.00303953
-0.000787558
0.000295753
-0.00430365
-0.000469622
0.000110933
-0.00395018
-0.00157307
1.2808e-05
-0.00318307
0.000540842
-0.00485777
-0.000674885
0.000210791
-0.00471077
-0.000507566
1.66816e-05
-0.00471844
-0.00100871
-1.27098e-05
-0.00431097
-0.00147189
-4.10272e-05
-0.00353242
-0.000147429
0.00120407
-0.00511625
-0.00053193
0.000678988
-0.00522758
-0.000456171
0.000422629
-0.00518749
-6.12824e-05
0.000166838
-0.00529492
-0.000674594
4.62556e-05
-0.00475919
-0.00125266
8.81551e-05
-0.00370005
0.000242975
0.00185305
-0.0054361
5.00453e-05
0.00127268
-0.00565974
-0.000676449
0.00053375
-0.00567624
-0.000482948
0.000710701
-0.00577416
-0.000212338
0.000222109
-0.00573974
-0.000648255
0.000155945
-0.00519789
-0.00110933
6.26511e-05
-0.00429435
0.000801478
0.0015566
-0.00612312
0.000797057
0.00132124
-0.00611376
0.000398832
0.00124368
-0.00608875
0.000146187
0.000917373
-0.00619879
-6.58542e-05
0.000704715
-0.00603906
0.000183878
0.000464006
-0.0060554
-0.000276353
0.000256772
-0.00581683
-0.000970606
0.000149031
-0.00519375
0.00106222
0.00149754
-0.00545979
0.00109257
0.00132194
-0.00564637
0.000887859
0.000910244
-0.00603717
0.000617527
0.00101257
-0.00653661
0.000175199
0.000976096
-0.00665905
0.000106193
0.000796759
-0.0068517
6.1566e-05
0.000639631
-0.00658035
-0.000247204
0.000322739
-0.00654073
-0.000732939
0.000183702
-0.00542804
0.000663238
0.00133643
-0.00488199
0.000574779
0.00133686
-0.00471958
0.000645546
0.00119451
-0.00527501
0.000670269
0.000649339
-0.00612153
0.000490795
0.0010392
-0.0066033
0.000265817
0.000900363
-0.00674044
0.000145741
0.000846935
-0.00676562
-4.74526e-05
0.000830383
-0.00723255
-0.000273399
0.000492106
-0.00732576
-0.000450829
0.000392248
-0.00664095
0.000307565
0.000654883
-0.00379352
0.000216381
0.000798622
-0.00388198
0.000190183
0.00086164
-0.00393522
0.000362864
0.000814033
-0.00400679
0.000206571
0.000810197
-0.00469644
0.000324671
0.000930257
-0.0055264
0.000368459
0.000932447
-0.00628258
0.000365107
0.000881051
-0.00652461
0.000160008
0.000498285
-0.0074746
-0.000105867
0.000313755
-0.00741587
1.54766e-05
0.000340141
-0.00703537
0.00028804
-0.000179372
-0.0032869
6.06065e-05
1.3025e-06
-0.00207691
1.11932e-05
6.03717e-05
-0.00171308
8.59684e-05
2.78988e-06
-0.00200941
-3.07663e-05
0.000345409
-0.00228573
4.51324e-05
0.000544774
-0.00313129
0.000111679
0.000383607
-0.00410871
0.000148396
0.000585496
-0.0033776
0.000231279
0.000644931
-0.00342674
0.000521351
0.000422642
-0.00384957
0.000267114
0.000347222
-0.00670477
0.000114203
0.000292027
-0.00704053
0.000358053
1.69435e-05
-0.00293272
0.00023108
2.90982e-05
-0.00338974
3.82813e-05
6.95257e-05
-0.00286173
-4.7841e-05
1.72391e-05
-0.00206854
-9.28136e-05
2.14731e-05
-0.00192599
-0.000213649
0.000190426
-0.00155787
-0.000264068
0.00011727
-0.000141952
-8.59813e-05
9.71529e-05
-0.000360464
0.000145412
0.000357177
-0.000201629
0.00029774
0.000542283
-0.000548479
0.000529531
0.000272343
-0.000933222
0.000324243
0.000135194
-0.00138282
3.94189e-05
1.52966e-05
-0.00438263
0.000153176
-0.00011761
-0.00204248
0.000102535
-0.000113083
-0.00247632
8.996e-05
-7.12757e-05
-0.0028067
-6.58924e-06
-1.02748e-05
-0.00268316
-0.000117196
-1.01535e-05
-0.00170758
-0.000155055
-6.08762e-05
-0.000931032
-0.000173111
-7.87572e-05
-0.00107437
-0.000183719
-7.79868e-05
-0.000897512
-0.000139939
-9.0436e-05
-2.90753e-05
-2.99134e-06
-0.000108053
-0.000530549
7.53025e-05
-0.000139464
-0.000294003
0.000206875
-0.000129309
-0.000648662
0.000122125
-5.78295e-05
0.000829528
4.80933e-05
3.90024e-05
0.00150827
8.31356e-05
-1.99475e-05
-7.1601e-05
6.51472e-05
-2.86903e-05
-0.000381058
1.71113e-05
-4.41524e-05
-0.000557239
2.5248e-07
-5.74353e-05
-0.00088246
-1.50915e-05
-6.21947e-05
-0.000970974
-3.54804e-05
-5.75334e-05
-0.000806654
-6.47109e-05
-4.20359e-05
-0.00078097
-7.41499e-05
-4.01476e-05
-0.000696085
-5.0389e-05
-4.19857e-05
-0.000317847
-3.78422e-05
-4.29867e-05
-0.000276934
-1.44168e-05
-5.96393e-05
-5.07837e-05
4.30197e-05
-8.24611e-05
-0.000187965
8.39212e-05
-9.38826e-05
-0.00112873
5.92493e-05
-8.55423e-05
-0.00185189
9.66103e-05
-3.51221e-05
-0.00268371
4.30709e-05
-0.00334381
-0.00160455
-1.7687e-05
-0.00278986
-0.000926808
0.0003216
-0.00404981
-0.00100471
0.000197724
-0.00342514
-0.0016515
2.45e-06
-0.00296356
-0.000912774
0.000364835
-0.00439813
-0.0006383
0.000235604
-0.00429758
-0.00121679
0.000119586
-0.00384889
-0.00147925
-2.30318e-05
-0.00315268
0.000628893
-0.00507228
-0.000840606
0.000440684
-0.00477899
-0.000645967
0.00025329
-0.00475758
-0.0004636
0.000162904
-0.00449174
-0.000627777
-0.000104914
-0.00429389
-0.00145547
2.21103e-05
-0.00335173
-0.00022218
0.00175229
-0.00531217
-0.000365479
0.00114802
-0.00516976
-0.000797433
0.000609446
-0.00529341
-0.0007481
0.000363848
-0.00511935
-0.000306918
0.000116963
-0.00527104
-0.000841637
0.00011391
-0.00459157
-0.00131847
8.03014e-05
-0.00357121
0.00053421
0.00220757
-0.00526743
0.000382978
0.00168104
-0.00543038
-0.000211768
0.00116875
-0.00568414
-0.000176632
0.00103141
-0.00567413
-0.000341166
0.000374345
-0.00565109
-0.000103339
0.000295699
-0.00559227
-0.000512385
0.000195271
-0.00509448
-0.00114419
6.97958e-05
-0.00419057
0.000615106
0.00174272
-0.00586455
0.000928443
0.00137683
-0.00601459
0.000703422
0.0013027
-0.00598834
0.000415789
0.00108136
-0.00605101
-0.000113955
0.000888569
-0.00609349
1.19482e-05
0.000654712
-0.00613552
6.31813e-05
0.000383766
-0.00618401
-0.00045481
0.00022108
-0.00568127
-0.00104133
0.000154192
-0.00503955
0.000909738
0.00136508
-0.00568109
0.0010323
0.00126753
-0.00586289
0.000896443
0.00111991
-0.00610693
0.000825893
0.0010136
-0.00619382
0.000544752
0.00097856
-0.00659303
0.000210364
0.000922247
-0.00672909
2.28418e-05
0.000774294
-0.00686347
1.91323e-05
0.00048009
-0.00680428
-0.000435084
0.000324207
-0.00651955
-0.00078841
0.000218758
-0.00530921
0.000504699
0.00111504
-0.005047
0.000548262
0.0012159
-0.0050929
0.000651986
0.00128886
-0.00527573
0.000759822
0.000711489
-0.00573412
0.000580996
0.000885089
-0.00634184
0.000437595
0.000941696
-0.00675755
0.00021684
0.000906574
-0.00664846
0.000177082
0.000968196
-0.00671541
-9.06113e-05
0.000689927
-0.00717975
-0.000324492
0.000545647
-0.00726054
-0.000356503
0.000364303
-0.00663327
0.000429996
0.000638301
-0.00394883
0.000227397
0.000764528
-0.00392622
0.000205963
0.000799463
-0.00401458
0.00030843
0.000840103
-0.00418375
0.000252076
0.000728597
-0.00420803
0.000374653
0.000761035
-0.00485674
0.000266332
0.000968566
-0.00571717
0.000232952
0.000847093
-0.00633318
0.000161487
0.000754394
-0.00671093
0.000135569
0.000448749
-0.00722381
-0.000150989
0.000404695
-0.00706232
-0.000223254
0.000390143
-0.00708806
0.000520633
-0.000192905
-0.00384376
0.000290105
-5.26247e-05
-0.003292
4.06692e-05
0.000173297
-0.00219222
-7.37214e-06
0.000132851
-0.00188361
0.000174436
0.000229226
-0.00216048
0.000176489
0.000623583
-0.00275468
0.000182509
0.000480304
-0.00367457
0.000222594
0.000242904
-0.00407469
0.000209652
0.00062339
-0.0034203
0.000360225
0.000567582
-0.00363417
0.000540665
0.000372548
-0.00388603
8.4997e-05
0.000425721
-0.00659922
-0.000148032
0.000376477
-0.00722956
0.000399991
-2.92223e-05
-0.00279502
0.000314143
3.88744e-05
-0.0031541
0.0002466
7.24787e-05
-0.00354933
4.78683e-05
0.000137291
-0.00303624
1.01982e-05
2.99483e-05
-0.00220441
-0.000143058
0.000155808
-0.00190337
-0.000201206
0.000285747
-0.00169825
-0.000139341
0.000141809
-0.000230986
-8.38913e-05
7.673e-05
-0.000136065
0.000194672
0.000359446
-0.000216455
0.000274021
0.000420315
-0.000895169
0.000495395
8.64327e-05
-0.00117298
0.000194911
-6.86459e-05
-0.00137166
-8.84473e-06
-1.64817e-05
-0.00430921
0.000142193
-8.94228e-05
-0.00158927
0.000132148
-0.000117601
-0.00210496
3.9818e-05
-0.00011007
-0.00246023
6.79442e-05
-6.79924e-05
-0.00281667
-3.05659e-05
-1.18545e-05
-0.00266599
-0.000136205
-8.55039e-06
-0.00165918
-0.000157294
-6.48049e-05
-0.0008524
-0.000172243
-7.49076e-05
-0.000979356
-0.000187089
-9.17185e-05
-0.00075953
-0.000126702
-8.05707e-05
3.23018e-05
-1.411e-05
-0.000116405
-0.000553915
8.01925e-05
-0.000152245
-0.00030824
0.000188337
-0.000130209
-0.000680699
0.000123188
-3.69956e-05
0.000841587
1.96869e-06
5.31908e-05
0.00154972
0.00010633
-2.7034e-05
0.000259094
8.77072e-05
-1.88495e-05
-0.000169149
5.62936e-05
-2.8157e-05
-0.000453347
9.87945e-06
-4.37677e-05
-0.000580786
-4.16886e-06
-5.84271e-05
-0.000882059
-1.8654e-05
-6.39427e-05
-0.000945911
-3.5489e-05
-5.92894e-05
-0.000753912
-7.16332e-05
-4.30794e-05
-0.000706404
-7.97589e-05
-3.92107e-05
-0.000619101
-5.53114e-05
-4.0343e-05
-0.00026518
-3.51604e-05
-4.31194e-05
-0.000258293
-1.29284e-05
-5.83777e-05
-6.19387e-05
4.82306e-05
-7.96524e-05
-0.000250426
8.01777e-05
-9.05709e-05
-0.00120388
5.29732e-05
-8.27748e-05
-0.00185721
8.31896e-05
-3.53501e-05
-0.00273155
-0.00186323
9.78641e-05
-0.00246197
0.0001684
-0.00363671
-0.00112373
0.000118126
-0.0033606
-0.00164905
-3.34741e-05
-0.00275884
-0.00113269
0.000508065
-0.0040494
-0.00088209
0.000368342
-0.00397664