/*--------------------------------*- C++ -*----------------------------------*\
  =========                 |
  \\      /  F ield         | OpenFOAM: The Open Source CFD Toolbox
   \\    /   O peration     | Website:  https://openfoam.org
    \\  /    A nd           | Version:  7
     \\/     M anipulation  |
\*---------------------------------------------------------------------------*/
FoamFile
{
    version     2.0;
    format      ascii;
    class       surfaceScalarField;
    location    "6.5";
    object      phi_0;
}
// * * * * * * * * * * * * * * * * * * * * * * * * * * * * * * * * * * * * * //

dimensions      [0 3 -1 0 0 0 0];

internalField   nonuniform List<scalar> 
54095
(
0.000354456
-6.44866e-05
-0.000637063
0.000363259
-0.000179595
-0.000602475
0.000365175
-9.74387e-05
-0.000382496
0.000332638
-7.84854e-05
-0.000891215
0.000151025
2.36294e-05
-0.00288793
0.000364489
-0.000240437
-0.00068941
0.000259047
-0.000176411
-0.000352473
0.000172726
-0.000105398
0.000561387
0.000337622
-0.000110865
-0.000687738
0.000300784
-8.90675e-05
-0.00110293
-0.000229372
0.000719931
-0.00631181
0.000324831
0.000414697
-0.00332976
-4.42325e-05
-4.42606e-05
-0.00254039
0.000130149
-0.000283858
0.000161685
0.000228991
-0.000249194
-0.000507996
0.000153116
-0.000171465
-3.33403e-05
0.000107602
-0.000117871
0.000530499
0.000181372
-0.000114058
0.000383207
0.000301271
-0.000122965
-0.000955112
0.000271842
-8.91644e-05
-0.00128561
-0.000684223
0.000338283
-0.00607591
0.000138551
0.000948219
-0.00420382
-0.000434791
0.000585376
-0.00650663
6.77974e-05
0.000586246
4.23821e-05
0.000259845
0.00056824
0.00344831
-0.000155892
6.46152e-05
-0.002296
7.71891e-05
-0.000308842
0.00046352
0.000137762
-0.000275556
0.000231658
0.000252715
-0.000249356
-0.000381548
8.75516e-05
-0.000151877
0.000302827
4.86058e-05
-9.46879e-05
0.000249481
9.97144e-05
-0.00012087
0.000437597
0.000189731
-0.000122909
0.00019342
0.000262283
-0.000129338
-0.00117722
0.000250755
-8.46555e-05
-0.00145171
-0.000730122
0.000165643
-0.00607888
-0.00018364
0.000789596
-0.00570239
-0.000849945
0.000369587
-0.00603035
3.57507e-05
0.00105754
-0.00394031
0.000209174
0.000864099
-0.00443187
-0.000554013
0.000558743
-0.00666725
-3.16813e-05
0.000438776
-0.000592206
-3.27259e-05
0.000739247
4.18621e-05
0.000291488
0.000516427
0.00295773
-0.00018693
9.59368e-05
-0.00211746
-7.82265e-05
-0.000238411
-0.000344285
5.40857e-05
-0.00027997
0.000513562
0.000202299
-0.000255238
0.000224972
0.000225864
-0.000244833
-0.000252173
2.94872e-05
-0.000138599
0.000662693
7.42655e-06
-6.23358e-05
-0.00025349
3.64287e-05
-9.21808e-05
0.000184363
8.25173e-05
-0.000121873
0.000354045
0.000189289
-0.00012957
4.36377e-06
0.000226194
-0.000131582
-0.00135649
0.000232635
-7.95411e-05
-0.0016048
-0.000944532
0.000275012
-0.00408906
-0.000546225
0.000646803
-0.00685428
-0.00127951
0.00026628
-0.0059156
-4.70949e-05
0.000925412
-0.00569719
8.63335e-05
0.000840527
-0.00605049
-0.00102523
0.000351978
-0.00591111
-4.80819e-05
0.00096651
-0.00391938
-6.62851e-05
0.000958012
-0.00400067
0.000313199
0.000858421
-0.00475326
-0.000722046
0.000498747
-0.00663088
-0.000145731
0.000129015
-0.0015286
-7.48601e-05
0.000572216
-0.000296229
6.45453e-05
0.000650323
4.57199e-05
0.000297912
0.000508214
0.0024734
-0.000276814
0.000125356
-0.00193651
-0.000127373
-0.000169155
-0.000726386
-5.97197e-07
-0.000223652
-0.000363577
4.58464e-05
-0.000244951
0.000539947
0.000262367
-0.000245621
0.000152682
0.000215586
-0.000254109
-0.000126054
4.92597e-05
-0.000109216
0.000955284
-1.21858e-05
-4.78771e-05
-0.000602669
-3.6263e-06
-5.83494e-05
-0.000283695
2.29834e-05
-8.88981e-05
0.000128404
6.88308e-05
-0.000120417
0.000276061
0.000178955
-0.000132729
-0.000173443
0.000188238
-0.000127316
-0.00149695
0.000221105
-7.27653e-05
-0.00175314
-0.00167105
0.000553661
-0.00405315
-0.000786342
0.000797523
-0.00549604
-0.00166971
0.000345784
-0.00404464
-6.17986e-05
0.000970786
-0.00683476
-0.00024801
0.000778651
-0.00703231
-0.00147508
0.000298225
-0.00576397
8.12438e-06
0.000840473
-0.00544541
8.82005e-05
0.00095388
-0.00596502
0.000261392
0.000960656
-0.00660736
-0.00115253
0.000402452
-0.00588308
-3.89428e-05
0.000819421
-0.00418999
-0.000132882
0.00091934
-0.00382269
8.72711e-05
0.000972194
-0.00413717
0.000342799
0.000811645
-0.00511105
-0.000769019
0.000585053
-0.00672373
-0.000122878
-0.000102133
-0.00180826
3.7005e-07
0.000257282
-0.00121464
-3.64409e-05
0.00041017
2.62112e-05
0.000173927
0.000582727
5.96468e-05
6.96922e-05
0.000465775
0.00227888
-0.00013739
0.000207715
-0.00195758
-1.8088e-05
-0.000129022
-0.00129536
-0.000152661
-0.000159807
-0.000641197
-7.71993e-05
-0.000203969
-0.000304376
7.2247e-05
-0.000218976
0.000509886
0.000341367
-0.000255465
-8.37485e-06
0.000185402
-0.000254474
2.2039e-05
7.83403e-05
-0.00010421
0.00120226
-1.24082e-05
-3.92356e-05
-0.00101631
-2.13159e-05
-4.7181e-05
-0.000592522
-9.96816e-06
-5.49803e-05
-0.000307645
1.26043e-05
-8.54299e-05
8.08125e-05
5.42831e-05
-0.00011672
0.00020577
0.000169476
-0.000129245
-0.000340991
0.000156971
-0.000120991
-0.0016057
0.000211166
-6.56221e-05
-0.00189869
-0.00202121
0.00033991
-0.00408694
-0.000687381
0.000807503
-0.00574752
-0.00187202
0.000435388
-0.00428622
-0.00026528
0.00121031
-0.00641322
-0.0004994
0.000741585
-0.00564045
-0.00158923
0.00041266
-0.00434315
0.000285837
0.000942986
-0.00666277
2.22743e-05
0.000893891
-0.00688408
-0.000257532
0.000752489
-0.00696765
-0.00137322
0.000323881
-0.00586715
0.000105958
0.000770261
-0.0053164
2.84842e-06
0.00083062
-0.00545788
0.000339473
0.00105011
-0.00630668
0.000354135
0.00109604
-0.00731228
-0.000980151
0.000340501
-0.00601245
0.000168665
0.000454906
-0.00390502
-3.45337e-05
0.000806864
-0.00404261
-8.77071e-05
0.000957199
-0.00375643
0.000134516
0.000966122
-0.00425223
7.9773e-05
0.000762071
-0.00529815
-0.000604868
0.000566976
-0.00682323
4.36919e-05
-0.000225581
-0.00148042
-0.000111775
-5.09002e-05
-0.00154097
-0.000160476
0.00020357
-0.000924762
3.74613e-05
0.000406314
0.000237409
0.000446373
0.000468734
-4.83176e-05
0.000359282
0.00053089
0.00178182
-3.50705e-05
0.000294911
-0.00213908
-3.68694e-06
-0.000113622
-0.00146708
-6.92061e-05
-0.000118643
-0.00128863
-0.000168985
-0.00015661
-0.000529539
-6.94652e-05
-0.000194373
-0.00024691
0.000115803
-0.000206867
0.000399768
0.000333506
-0.000275227
-0.000151651
0.000103029
-0.00026486
0.000236633
0.000202869
-9.29174e-05
0.00130347
-1.96991e-06
-3.84128e-05
-0.00102771
-2.37618e-05
-3.90201e-05
-0.00100071
-2.88173e-05
-4.63981e-05
-0.000572287
-1.63386e-05
-5.23943e-05
-0.000324342
2.45322e-06
-8.18164e-05
4.34552e-05
4.29202e-05
-0.000111798
0.000145403
0.000152
-0.000124918
-0.000489064
0.000129728
-0.000115393
-0.00168566
0.000197816
-5.8439e-05
-0.00203806
-0.00192218
6.65671e-05
-0.00363257
-0.000550834
0.000278665
-0.00600967
-0.00177068
0.000264208
-0.00445249
-0.000290503
0.000818286
-0.00572216
-0.000567613
0.000712397
-0.00595632
-0.00139884
0.000310325
-0.00478695
0.000398032
0.00124228
-0.00637387
-0.000174094
0.00103159
-0.00650685
-0.000279704
0.000797029
-0.00600265
-0.00136691
0.000411796
-0.00476126
0.000582179
0.000768103
-0.00683868
0.000375548
0.000883548
-0.00702513
0.000109173
0.000844993
-0.00674628
-4.68265e-06
0.000699065
-0.00698402
-0.00111547
0.000287822
-0.00601966
0.000382985
0.00074727
-0.00451308
0.000240925
0.000712098
-0.00547334
9.85199e-05
0.000905364
-0.00549935
0.000381756
0.00114876
-0.00660665
0.000319312
0.000995664
-0.00820698
-0.000756685
0.000350114
-0.00621075
0.000130086
0.00022418
-0.00277138
0.00016148
0.00048974
-0.00386115
-5.26583e-05
0.00074941
-0.00394264
-1.92645e-06
0.000938476
-0.00368939
0.000337761
0.000887976
-0.00426953
0.000441517
0.000708777
-0.00552218
-0.00047275
0.000542136
-0.00692769
-9.46244e-05
-0.00018754
-0.00151221
-6.19012e-05
-0.000209192
-0.00132943
-0.000190435
3.68069e-05
-0.00135275
-0.000170878
0.000237855
-0.00065489
0.000167041
0.000389931
0.000264974
0.000416229
0.000486968
-8.71194e-05
0.000447085
0.000667196
0.00106548
0.000352103
0.000300271
-0.00258858
4.99556e-05
-8.72754e-05
-0.000938806
-2.5707e-05
-0.000116249
-0.00146753
-0.000101624
-0.00010573
-0.00126671
-0.000173331
-0.000153244
-0.000413676
-3.38715e-05
-0.000190104
-0.000227348
0.0001434
-0.000210222
0.000234284
0.000310568
-0.000281235
-0.000293844
0.000115336
-0.000236343
0.000394451
0.000237691
-6.73299e-05
0.00133093
3.32029e-06
-5.0824e-05
-0.00101142
-8.58106e-06
-3.84374e-05
-0.00101971
-3.32978e-05
-3.88359e-05
-0.000974975
-3.53378e-05
-4.55932e-05
-0.00054375
-2.24728e-05
-5.04407e-05
-0.000333245
-7.79218e-06
-7.79316e-05
1.73807e-05
3.44716e-05
-0.000106349
9.23625e-05
0.000138179
-0.00012062
-0.000622016
0.00010676
-0.000109895
-0.00174096
0.000186681
-5.10537e-05
-0.00217369
-0.000203056
-0.00376388
-0.000879832
0.000341085
-0.00513699
-0.00172526
0.000128973
-0.00380697
-0.000180891
0.000317796
-0.00592067
-0.00053807
0.000221303
-0.00599631
-0.00135315
0.000158111
-0.00465628
0.000146841
0.00084382
-0.00625115
-0.000123908
0.000727081
-0.00578703
-0.000294251
0.000530124
-0.00616157
-0.00118442
0.000202154
-0.00517159
0.00101297
0.00102207
-0.00676539
0.000417563
0.00113576
-0.00652006
-7.51332e-05
0.000923557
-0.00644907
-0.00015325
0.000721214
-0.0061635
-0.00107146
0.000402977
-0.00520824
0.000751994
0.000990009
-0.0062842
0.000504216
0.000695172
-0.00691359
0.000260599
0.000869989
-0.0072122
0.000460806
0.000810285
-0.00693655
9.77825e-05
0.000631473
-0.00710614
-0.000904718
0.000270948
-0.00614257
0.000270814
0.000673371
-0.00323256
0.000355348
0.000690476
-0.00468533
0.000254897
0.000713871
-0.0055894
0.000228508
0.00102827
-0.0056093
0.00044115
0.00113529
-0.00684966
0.000334383
0.000771116
-0.00852085
-0.000519084
0.000382032
-0.00654645
-0.000108538
0.00018108
-0.00235037
5.4797e-05
0.000233009
-0.00263135
3.12103e-05
0.000444067
-0.00377745
9.92095e-06
0.000684513
-0.00386948
1.77266e-05
0.000910969
-0.00356307
0.000401394
0.000728057
-0.00427397
0.000693452
0.000746798
-0.00597321
-0.000146038
0.00037485
-0.0068044
2.22512e-06
-0.00011645
-0.00168292
-8.26151e-05
-0.0001886
-0.0014759
-0.000165762
-0.000181834
-0.00104665
-0.000212018
7.15782e-05
-0.00114779
-6.31046e-05
0.000285092
-0.000520818
0.00030381
0.000438884
0.000152648
0.000366471
0.000568741
-4.45677e-05
0.000444954
0.000725194
0.000310939
0.000470054
0.000302254
-0.0031232
5.84459e-05
-4.01671e-05
-0.00158757
3.1733e-05
-7.91362e-05
-0.00101623
-5.74221e-05
-0.000110067
-0.00143906
-0.000125832
-9.88609e-05
-0.0012306
-0.000164286
-0.000146095
-0.000315872
-3.0274e-06
-0.000191468
-0.000250867
0.000133127
-0.000201015
5.54088e-05
0.000210685
-0.000245764
-0.00035693
9.8651e-05
-0.000192181
0.000527411
0.000218471
-4.38707e-05
0.00134301
8.15533e-06
-5.72923e-05
-0.00102722
-7.82113e-06
-5.13205e-05
-0.000990719
-2.29975e-05
-3.79996e-05
-0.000997547
-4.20233e-05
-3.91337e-05
-0.000939411
-4.24991e-05
-4.50522e-05
-0.000506639
-2.93896e-05
-4.90215e-05
-0.000332765
-1.55087e-05
-7.37333e-05
2.73571e-07
3.15307e-05
-0.000100771
4.09834e-05
0.000126419
-0.000115674
-0.000742656
8.90147e-05
-0.000104273
-0.00177675
0.000168185
-4.4243e-05
-0.00229763
-2.17075e-05
-0.00457552
-0.00169521
-0.000122994
-0.00367094
-0.000292203
0.000293953
-0.00545029
-0.000618871
0.000182649
-0.00510987
-0.00154322
0.000146803
-0.00376371
-0.000311881
0.000511732
-0.00612447
-0.000110126
0.000291304
-0.00600445
-0.000653908
0.000231351
-0.0057099
-0.00132986
0.000202388
-0.00471324
0.000741824
0.00101084
-0.0064457
0.000199913
0.000847718
-0.00615414
1.19745e-05
0.000634021
-0.00597804
-0.000308755
0.000394822
-0.00619874
-0.000960304
8.0494e-05
-0.00536324
0.0010172
0.0013914
-0.0062114
0.000578153
0.00103138
-0.00673495
0.000324737
0.00105606
-0.0067167
0.000373063
0.000853313
-0.00649343
7.68477e-05
0.000740866
-0.00648045
-0.000946063
0.00031186
-0.00547875
0.000710229
0.00133368
-0.00432402
0.000572302
0.000725104
-0.00653109
0.000355601
0.000736411
-0.00688072
3.7195e-05
0.000827272
-0.00703788
0.000358201
0.000805148
-0.00702728
0.000196722
0.00064273
-0.00734026
-0.000622281
0.00025706
-0.00629643
0.000180562
0.000560209
-0.00312506
0.000106365
0.000712109
-0.00330576
0.000351217
0.000649705
-0.00494117
0.000381485
0.000657433
-0.00559012
0.000236999
0.00105221
-0.0057455
0.000537862
0.00103002
-0.00724503
0.000338395
0.000607167
-0.00839093
-0.000356265
0.000323127
-0.00665935
-3.26483e-05
8.88163e-05
-0.00186672
-2.32862e-05
0.000140964
-0.00231765
-1.94843e-05
0.000211976
-0.00254553
8.99445e-05
0.000415668
-0.00381057
0.000113349
0.000662206
-0.00379717
9.18702e-05
0.000794051
-0.00341712
0.000176459
0.00068178
-0.00401894
0.000574191
0.000738857
-0.00646646
-6.01072e-05
0.000464261
-0.00673849
2.93172e-05
-6.44948e-05
-0.00176032
2.15791e-06
-0.00011862
-0.00172332
-0.000102604
-0.000174966
-0.00143759
-0.000192106
-0.000148334
-0.000760462
-0.000196245
0.000105143
-0.000935882
5.58245e-06
0.000350038
-0.000440582
0.000320369
0.000516789
1.73583e-05
0.000354793
0.000664069
-0.00012755
0.000351784
0.000631811
-0.000271751
0.000459886
0.00025558
-0.00362019
9.06983e-05
-4.62397e-05
-0.00261573
1.54777e-05
-2.40522e-05
-0.00166595
-9.53794e-06
-7.67982e-05
-0.00106296
-9.6466e-05
-0.000101362
-0.00138212
-0.000151628
-8.81009e-05
-0.00117946
-0.000152635
-0.00013482
-0.000249275
3.99861e-05
-0.000175862
-0.000331515
9.19884e-05
-0.000175337
-7.54759e-05
0.000198098
-0.000204912
-0.000415878
6.39316e-05
-0.000143021
0.000651645
0.000144179
-1.33122e-05
0.00138033
1.34664e-05
-5.81413e-05
-0.000875159
1.6415e-06
-5.73043e-05
-0.00102288
-1.92015e-05
-5.24595e-05
-0.000957057
-3.83026e-05
-3.81805e-05
-0.000960197
-5.48774e-05
-3.95997e-05
-0.000889986
-4.76693e-05
-4.54687e-05
-0.000462523
-3.47743e-05
-4.78847e-05
-0.00032384
-1.95051e-05
-6.94727e-05
-1.15197e-05
3.22188e-05
-9.54489e-05
-1.14606e-05
0.000114173
-0.000110101
-0.000851001
7.69963e-05
-9.87155e-05
-0.00179928
0.000151838
-3.911e-05
-0.00241036
-0.00170315
-3.05824e-05
-0.00336762
0.000131583
-0.00505938
-0.00103216
7.70976e-05
-0.00436232
-0.00147733
-4.22141e-06
-0.00373261
-0.000333272
0.000410135
-0.00549053
-0.000295372
0.000220438
-0.00530284
-0.000541033
6.76535e-05
-0.00514359
-0.0014354
0.000129027
-0.00378719
5.22274e-05
0.00100408
-0.00600521
-7.10509e-06
0.000321638
-0.00594779
-8.84458e-05
0.000266153
-0.00593883
-0.000414586
0.000292061
-0.00569374
-0.00124959
0.000123509
-0.00454746
0.000676695
0.00121583
-0.00611136
0.000240747
0.00111949
-0.00638007
0.000107074
0.000767119
-0.00606957
5.12439e-05
0.000615281
-0.00587668
-0.000244672
0.000278493
-0.00607521
-0.00097401
7.72944e-05
-0.00541258
0.000850705
0.00167379
-0.00527557
0.0006576
0.00123128
-0.0064966
0.00025515
0.00113421
-0.00671265
-6.3603e-05
0.000945531
-0.00670812
0.00017549
0.000795281
-0.00636513
1.77144e-05
0.000631431
-0.00662102
-0.000752943
0.000240967
-0.00558906
0.000721747
0.00138135
-0.00394586
0.000495916
0.00116493
-0.0051534
0.000577989
0.000579744
-0.0066012
0.000399259
0.00091066
-0.00698188
0.000202683
0.000822428
-0.00702084
0.000233891
0.000853607
-0.00693418
0.000238973
0.000524207
-0.00750798
-0.000526685
0.000323584
-0.0064496
0.000251318
0.000648803
-0.00342502
0.000109201
0.000725602
-0.00327104
0.000277449
0.000744929
-0.00369792
0.000397311
0.000579553
-0.00517066
0.000452206
0.00081587
-0.00569264
0.000214719
0.00104081
-0.00587914
0.000310612
0.000866119
-0.00763814
0.000239436
0.000437463
-0.00817051
-0.000209463
0.000274542
-0.00678453
1.65334e-05
7.51952e-05
-0.00171196
7.53112e-05
8.55997e-05
-0.00188451
2.43326e-05
6.22294e-05
-0.00229484
-1.14082e-05
0.000220465
-0.00253103
0.000176875
0.000462972
-0.00398445
0.000142261
0.000549123
-0.00368892
0.000171534
0.000753019
-0.00333953
0.000353449
0.000634008
-0.00391275
0.000321005
0.000682558
-0.00665397
0.00012973
0.000361246
-0.00676958
6.95246e-05
-7.83605e-06
-0.00265404
1.46797e-05
-5.62402e-05
-0.0018219
-2.58358e-05
-0.000110752
-0.00177124
-0.000153794
-0.000130039
-0.00139855
-0.00023566
-9.9538e-05
-0.00047175
-0.000118397
0.000152942
-0.000773023
0.000121493
0.000381241
-0.00038654
0.000266151
0.00059077
-8.35055e-05
0.000427819
0.000608561
-0.000334022
0.000314093
0.000457959
-0.000724291
0.000413428
0.000190942
-0.00408038
0.000112925
-9.35828e-05
-0.00271325
5.54403e-05
-3.65955e-05
-0.00265698
-2.39143e-05
-1.30381e-05
-0.001725
-6.34872e-05
-6.96381e-05
-0.0010695
-0.000133206
-8.64665e-05
-0.00130543
-0.00017528
-8.17646e-05
-0.00110491
-0.000165471
-0.000113144
-0.000181297
2.03437e-05
-0.000134497
-0.000412203
7.78488e-05
-0.000152978
-0.00017304
0.000206959
-0.000166327
-0.000485358
6.21083e-05
-0.000112663
0.000765884
9.50771e-05
8.61447e-06
0.00142847
3.52282e-05
-4.62035e-05
-0.000484082
5.98047e-06
-5.7809e-05
-0.000880635
-2.62877e-06
-5.79467e-05
-0.00101476
-2.73664e-05
-5.3414e-05
-0.000914457
-4.98039e-05
-3.91481e-05
-0.000910845
-6.07386e-05
-4.04231e-05
-0.000834293
-5.21361e-05
-4.52026e-05
-0.000413069
-3.70682e-05
-4.6719e-05
-0.000309525
-1.96884e-05
-6.58476e-05
-2.14326e-05
3.38813e-05
-9.05833e-05
-6.48597e-05
0.000101385
-0.000104194
-0.000946907
6.87216e-05
-9.36032e-05
-0.00181351
0.000133499
-3.62516e-05
-0.00250761
-0.00157973
-1.84646e-05
-0.00312095
-0.00128917
0.000192789
-0.00411312
-0.00146526
-8.03237e-05
-0.00329937
0.000227113
-0.00498632
-0.000559354
0.000134579
-0.00485288
-0.000106505
-0.000108911
-0.00469216
-0.00144703
-0.000103339
-0.00361764
-0.000204571
0.000806487
-0.00511899
-0.000327279
0.000387221
-0.00533714
-0.000262848
0.00025434
-0.00531512
-0.000534954
6.67978e-05
-0.004961
-0.00143434
0.000167115
-0.00376956
0.000182692
0.00145672
-0.00551571
-0.000318008
0.000694348
-0.00581916
-0.000132459
0.000183317
-0.00562542
6.35738e-05
0.000233083
-0.00589218
-0.000602102
0.000195418
-0.00540822
-0.00110073
2.60933e-05
-0.00444684
0.000707453
0.00135334
-0.00616075
0.000522945
0.00130001
-0.00615721
-0.000218284
0.00110129
-0.00624081
-0.000138848
0.000740517
-0.00611956
-4.08699e-05
0.000553226
-0.00593505
-0.000326595
0.000315857
-0.00596947
-0.00090648
6.49706e-05
-0.00532402
0.000989787
0.001653
-0.00510718
0.000871845
0.00138205
-0.00580227
0.000618478
0.000923514
-0.00632639
0.000372093
0.000920796
-0.00666074
0.000166231
0.000923735
-0.00680012
0.000226799
0.000745809
-0.00647242
5.95426e-05
0.000467265
-0.00666788
-0.000705329
0.000201898
-0.00561231
0.000755988
0.00137029
-0.00435961
0.00054493
0.00133247
-0.00454913
0.000676959
0.000907894
-0.00588106
0.000519619
0.00074646
-0.00655931
0.000240646
0.000982019
-0.00692992
0.000109929
0.00083354
-0.00689598
0.000157442
0.000786496
-0.0070433
1.87181e-05
0.000518311
-0.00748199
-0.000380093
0.000397547
-0.00667652
0.000264107
0.000664448
-0.00370573
0.00024785
0.000823752
-0.00369571
0.00026903
0.000806418
-0.00357723
0.000354728
0.000776194
-0.0042607
0.000511018
0.000691124
-0.00538005
0.000504459
0.0010293
-0.00604332
0.000324402
0.000973156
-0.00613905
0.000104587
0.000695439
-0.00764725
-2.84304e-05
0.000281706
-0.00782824
-4.03633e-05
0.000305064
-0.0069195
8.02889e-05
-2.65159e-05
-0.00216046
1.811e-05
7.03172e-05
-0.0017001
1.47981e-05
5.38523e-05
-0.00191676
-6.82651e-06
3.12451e-06
-0.00222447
-8.69125e-05
0.000420066
-0.00263687
9.85051e-05
0.000412048
-0.00406428
0.000119885
0.000566932
-0.00350122
0.000221435
0.00069989
-0.00336069
0.000526587
0.000580384
-0.00390934
0.000232232
0.000528102
-0.00673897
0.000242526
0.000279152
-0.00687783
0.000244568
2.44139e-05
-0.00322347
6.86766e-05
5.56554e-06
-0.00272908
1.16348e-05
-3.82592e-05
-0.00192994
1.0167e-07
-8.56084e-05
-0.00187926
-0.000175297
4.75868e-06
-0.00146076
-0.000276389
4.50518e-05
-0.000262751
-0.000120389
0.000138969
-0.000575833
0.000147966
0.000366638
-0.000290032
0.000230518
0.000588998
-0.000216611
0.000475643
0.000467974
-0.000612721
0.00036338
0.000302821
-0.00113744
0.000294131
0.000123772
-0.00440321
0.000135953
-0.000122698
-0.00242438
0.000101598
-8.04685e-05
-0.00276499
2.5617e-05
-2.00326e-05
-0.00267823
-7.44855e-05
-8.30584e-06
-0.00173921
-0.000131727
-6.14379e-05
-0.00101261
-0.000172613
-8.13778e-05
-0.00119394
-0.000182671
-6.97974e-05
-0.00101772
-0.000149049
-9.46729e-05
-0.000109141
6.65645e-06
-0.000114975
-0.000476552
7.20422e-05
-0.000139793
-0.000237735
0.000214671
-0.000147435
-0.000563872
9.1936e-05
-7.76985e-05
0.000828983
4.9122e-05
2.37717e-05
0.00148908
7.14095e-05
-3.0471e-05
-0.000288644
2.63148e-05
-4.51891e-05
-0.000523016
-1.11653e-07
-5.70931e-05
-0.000881376
-1.17477e-05
-5.93456e-05
-0.000997082
-3.28656e-05
-5.51162e-05
-0.000865624
-5.86734e-05
-4.0397e-05
-0.000852198
-6.747e-05
-4.08182e-05
-0.000771207
-4.94316e-05
-4.43719e-05
-0.000365984
-3.67548e-05
-4.49847e-05
-0.000293633
-1.80905e-05
-6.23366e-05
-3.15888e-05
3.59378e-05
-8.62243e-05
-0.000118767
9.09559e-05
-9.86064e-05
-0.00103286
6.45896e-05
-8.91245e-05
-0.00182522
0.000115555
-3.50247e-05
-0.00258814
-0.000115418
-0.00296908
-0.00129474
0.000149801
-0.00367492
-0.00144573
-9.95744e-05
-0.00304091
-0.000788713
0.000295621
-0.00430596
-0.000448425
0.000110426
-0.00396195
-0.00157192
1.11221e-05
-0.0031856
0.000542329
-0.00485901
-0.000672271
0.000207649
-0.0047144
-0.000511259
1.52773e-05
-0.00472866
-0.000993603
-1.34841e-05
-0.00432337
-0.00147246
-4.25008e-05
-0.00353702
-0.00014634
0.00121036
-0.00511288
-0.000517059
0.000684385
-0.0052171
-0.000448517
0.000422297
-0.00518904
-5.76449e-05
0.000170429
-0.00529753
-0.000672086
4.57125e-05
-0.00476961
-0.00125399
9.02265e-05
-0.00370652
0.000238959
0.00186861
-0.00543216
6.65665e-05
0.00128488
-0.00564986
-0.000695227
0.000512827
-0.00567173
-0.000476235
0.000720031
-0.00577498
-0.000207345
0.000218276
-0.00574857
-0.00065296
0.000151818
-0.00520757
-0.0011072
6.00575e-05
-0.00430618
0.000800913
0.00157376
-0.00612652
0.00079895
0.00132349
-0.00611134
0.000406079
0.00124877
-0.00609229
0.000151172
0.000923499
-0.00620287
-7.07456e-05
0.000704962
-0.00603432
0.000178063
0.000473087
-0.00604354
-0.000273176
0.000259604
-0.00583138
-0.000966633
0.000145119
-0.00520783
0.00104339
0.00149963
-0.00544539
0.00110171
0.00133995
-0.00562186
0.000890069
0.000929322
-0.00602119
0.000626621
0.00101339
-0.00652599
0.000178803
0.000974706
-0.00664987
0.000105705
0.000798862
-0.00684895
6.57742e-05
0.000649767
-0.00656325
-0.000227869
0.000326213
-0.00654561
-0.000726775
0.000180571
-0.0054462
0.000668846
0.00132596
-0.00487086
0.000578669
0.0013398
-0.00469775
0.000634664
0.00122323
-0.0052301
0.000674181
0.000646076
-0.00610013
0.000489667
0.00103435
-0.00659029
0.000268217
0.000899376
-0.00675951
0.00014733
0.000841219
-0.00677363
-4.07896e-05
0.000832587
-0.0072122
-0.000263666
0.000486052
-0.00733526
-0.00045779
0.000393711
-0.0066528
0.000314939
0.000639879
-0.00378849
0.000219426
0.00079505
-0.00387834
0.000191564
0.000864093
-0.00393015
0.000366858
0.000813925
-0.00398864
0.000206307
0.000810374
-0.00467317
0.000336548
0.000918737
-0.00550753
0.000383449
0.000938689
-0.00627242
0.000369191
0.000892071
-0.00648343
0.000155324
0.000519128
-0.00751341
-0.00010751
0.000297125
-0.00748056
2.92741e-05
0.000329346
-0.0070356
0.000296179
-0.000191592
-0.00329576
6.42512e-05
-4.03391e-06
-0.00208168
1.49299e-05
5.91397e-05
-0.00170869
8.45132e-05
1.64915e-06
-0.0019997
-3.30131e-05
0.000314062
-0.00226075
2.91189e-05
0.000545973
-0.0030763
0.000109498
0.000390216
-0.00411745
0.000144757
0.00058342
-0.00338154
0.000222527
0.0006511
-0.00342342
0.000516874
0.00043621
-0.00385868
0.00026723
0.000353671
-0.00671734
0.000142598
0.000280178
-0.00700648
0.000361964
1.58759e-05
-0.00290914
0.000229816
2.53842e-05
-0.00337151
4.22827e-05
6.10975e-05
-0.0028451
-4.23087e-05
1.3943e-05
-0.00206167
-8.62759e-05
1.45402e-05
-0.00193449
-0.000211463
0.000180311
-0.00155717
-0.000268758
0.000114704
-0.000152399
-8.67338e-05
9.61423e-05
-0.000367652
0.000140492
0.000355363
-0.000190232
0.000296807
0.000547122
-0.000520524
0.00053298
0.000281247
-0.000909457
0.000349243
0.00013831
-0.00140929
5.31015e-05
2.12721e-05
-0.00442846
0.000154155
-0.000117363
-0.00202978
0.000106955
-0.000113316
-0.00247217
9.08721e-05
-7.1808e-05
-0.0028042
-4.07119e-06
-1.03033e-05
-0.00268391
-0.000114364
-1.03482e-05
-0.0017088
-0.000154117
-6.149e-05
-0.00093705
-0.000172326
-8.01552e-05
-0.00107872
-0.000183768
-7.7618e-05
-0.000900436
-0.000141303
-9.05731e-05
-2.8994e-05
-4.13646e-06
-0.000108228
-0.000522071
7.55629e-05
-0.000139157
-0.000285638
0.000208059
-0.000128777
-0.000629896
0.000120029
-5.76092e-05
0.000854924
5.09354e-05
4.09998e-05
0.0015127
8.28221e-05
-1.98711e-05
-6.7629e-05
6.53979e-05
-2.86418e-05
-0.000370589
1.7588e-05
-4.40841e-05
-0.000553613
-2.96499e-07
-5.71703e-05
-0.000883255
-1.50392e-05
-6.17461e-05
-0.000975413
-3.5535e-05
-5.71735e-05
-0.000813312
-6.43399e-05
-4.18825e-05
-0.000786793
-7.37328e-05
-4.03322e-05
-0.000701514
-5.04992e-05
-4.21956e-05
-0.000318274
-3.81305e-05
-4.31619e-05
-0.000274677
-1.50365e-05
-5.97713e-05
-4.30054e-05
4.22387e-05
-8.25112e-05
-0.000177101
8.32285e-05
-9.40964e-05
-0.00111112
5.79995e-05
-8.5514e-05
-0.00183273
0.000100331
-3.46439e-05
-0.00265382
4.1953e-05
-0.00334667
-0.00160106
-1.97239e-05
-0.00279402
-0.00093413
0.00032002
-0.00405218
-0.00100283
0.000200658
-0.00342075
-0.0016502
1.90334e-06
-0.00296453
-0.000911112
0.000363034
-0.00440311
-0.000641145
0.000234653
-0.0043003
-0.00121239
0.000118791
-0.00385083
-0.00148009
-2.29519e-05
-0.00315501
0.000627453
-0.00507281
-0.00083207
0.000444052
-0.0047804
-0.000640914
0.000253416
-0.00476014
-0.000464398
0.000161819
-0.00449721
-0.000634682
-0.000105488
-0.00429778
-0.00145424
1.92321e-05
-0.003356
-0.00023424
0.0017634
-0.0053057
-0.000350899
0.00115527
-0.0051663
-0.000797069
0.000608344
-0.0053013
-0.000740476
0.00036645
-0.00512082
-0.000299335
0.000116787
-0.00527662
-0.000843583
0.000110611
-0.00459937
-0.00131886
8.00021e-05
-0.00357486
0.000542216
0.00222585
-0.00525542
0.000378447
0.00169774
-0.00542451
-0.000210271
0.00117472
-0.00569541
-0.000166886
0.00104074
-0.00567438
-0.000350404
0.000373488
-0.00565053
-0.000111198
0.000292474
-0.00559996
-0.000515688
0.000194383
-0.00509939
-0.00113956
7.08949e-05
-0.00420415
0.000610378
0.00175778
-0.00587238
0.000924294
0.00138703
-0.00601264
0.000711862
0.00130602
-0.00599038
0.000417929
0.0010906
-0.0060507
-0.000111704
0.000889086
-0.00609648
9.50112e-06
0.000663819
-0.00612885
7.10173e-05
0.000387672
-0.00617686
-0.000445576
0.00022221
-0.00569077
-0.00103687
0.000153439
-0.00505118
0.000899987
0.00136618
-0.00568078
0.00103412
0.00128696
-0.00584785
0.000905041
0.00113333
-0.00609624
0.000824037
0.00101465
-0.0061723
0.000554491
0.000973519
-0.00658963
0.000211884
0.000929824
-0.0067245
2.90755e-05
0.000775402
-0.00685633
2.34097e-05
0.000486078
-0.00678731
-0.000421679
0.000320793
-0.00652782
-0.000789268
0.000217024
-0.00533175
0.000511216
0.00109531
-0.00504807
0.000552366
0.00122182
-0.00508582
0.000648094
0.00130387
-0.00523493
0.000763213
0.000727627
-0.005708
0.00059164
0.000867385
-0.0063185
0.000453023
0.000948178
-0.00675556
0.000224213
0.000898861
-0.00665792
0.000178283
0.000958472
-0.00670861
-9.07544e-05
0.000692203
-0.00717227
-0.00032348
0.000541869
-0.00726745
-0.00033921
0.000372136
-0.00665645
0.000450663
0.000620601
-0.00395355
0.000230395
0.000763234
-0.00392282
0.000213882
0.000802858
-0.00401606
0.000304808
0.000840092
-0.00417661
0.000254723
0.000731794
-0.0041978
0.000348644
0.000754127
-0.00482808
0.00027136
0.000959441
-0.00569015
0.00024038
0.000857704
-0.00633368
0.000163536
0.000780108
-0.00668542
0.000131309
0.000442679
-0.0072734
-0.000147834
0.000377206
-0.00711336
-0.00020814
0.000388341
-0.0070732
0.000524089
-0.000203652
-0.00383275
0.000290619
-7.00594e-05
-0.00329054
4.5013e-05
0.000156958
-0.00218223
-5.10417e-06
0.000122792
-0.00186703
0.000165334
0.000195405
-0.00213265
0.000164386
0.000617372
-0.002708
0.000181789
0.000495163
-0.0036318
0.00021596
0.00025361
-0.00409034
0.000202939
0.000614972
-0.00340786
0.00036305
0.000572798
-0.00362625
0.00054499
0.000368385
-0.00388541
0.000129366
0.000418861
-0.00663615
-0.000118923
0.000366801
-0.00720126
0.000401407
-3.38962e-05
-0.00277365
0.000319875
3.52243e-05
-0.00313191
0.000245528
6.66945e-05
-0.00353176
4.90938e-05
0.000133461
-0.00301778
1.29074e-05
2.68743e-05
-0.00220128
-0.000141768
0.000139881
-0.00190641
-0.000199604
0.000281892
-0.00169708
-0.000148951
0.000141698
-0.000232772
-9.67045e-05
7.49065e-05
-0.000131794
0.000187999
0.000358333
-0.000193579
0.000282781
0.000427848
-0.000874343
0.00050053
9.44497e-05
-0.00115807
0.000207964
-5.92568e-05
-0.00141669
7.06556e-06
-1.85044e-05
-0.00436609
0.000144054
-8.90034e-05
-0.001578
0.000133522
-0.000117215
-0.002094
4.24124e-05
-0.000109689
-0.00245911
6.96279e-05
-6.78088e-05
-0.00281662
-2.88712e-05
-1.2006e-05
-0.00266842
-0.000134332
-9.20682e-06
-0.00166229
-0.000157396
-6.59405e-05
-0.000858208
-0.000172128
-7.60467e-05
-0.000981901
-0.0001867
-9.09043e-05
-0.000763903
-0.000127532
-8.02848e-05
3.24649e-05
-1.44616e-05
-0.000115686
-0.000546117
8.06645e-05
-0.000151831
-0.000301009
0.000189469
-0.000129927
-0.000663819
0.000124086
-3.61181e-05
0.000865956
5.68241e-06
5.46929e-05
0.00155265
0.000106383
-2.69691e-05
0.000267402
8.73959e-05
-1.87066e-05
-0.00016496
5.67598e-05
-2.79737e-05
-0.000443459
1.04973e-05
-4.36412e-05
-0.00057764
-3.61319e-06
-5.82071e-05
-0.000883181
-1.8513e-05
-6.35438e-05
-0.000950529
-3.57725e-05
-5.89674e-05
-0.000760455
-7.11988e-05
-4.2976e-05
-0.000712951
-7.94923e-05
-3.93847e-05
-0.000624833
-5.55094e-05
-4.04879e-05
-0.000265439
-3.5503e-05
-4.32529e-05
-0.000255693
-1.3361e-05
-5.84299e-05
-5.37257e-05
4.75232e-05
-7.96756e-05
-0.000239045
7.91941e-05
-9.07225e-05
-0.0011851
5.18612e-05
-8.27427e-05
-0.0018365
8.61172e-05
-3.46654e-05
-0.00270527
-0.00186265
9.9156e-05
-0.002465
0.000167356
-0.00363817
-0.00112712
0.000118014
-0.00336012
-0.00164794
-3.37451e-05
-0.00276254
-0.00113002
0.000508247
-0.00405568
-0.000883523
0.000369999
-0.00397914