/*--------------------------------*- C++ -*----------------------------------*\
  =========                 |
  \\      /  F ield         | OpenFOAM: The Open Source CFD Toolbox
   \\    /   O peration     | Website:  https://openfoam.org
    \\  /    A nd           | Version:  7
     \\/     M anipulation  |
\*---------------------------------------------------------------------------*/
FoamFile
{
    version     2.0;
    format      ascii;
    class       volVectorField;
    location    "6.5";
    object      U_0;
}
// * * * * * * * * * * * * * * * * * * * * * * * * * * * * * * * * * * * * * //

dimensions      [0 1 -1 0 0 0 0];

internalField   nonuniform List<vector> 
18750
(
(4.13035 0.234145 -0.682332)
(3.06009 0.375295 -0.518675)
(4.13234 0.0269584 -2.02097)
(4.11252 0.156682 -0.964056)
(0.794176 1.99129 -0.0661181)
(3.17181 0.318348 -1.95432)
(2.58003 0.0569324 -0.452968)
(2.17688 -0.486207 -2.05692)
(4.04203 -0.00529175 -2.33688)
(3.97399 0.056146 -1.1945)
(0.270998 4.20477 1.87091)
(0.95078 3.16121 0.363299)
(0.269862 1.78675 -0.318245)
(1.08854 -0.116348 -1.52481)
(2.47316 0.195269 -1.99292)
(2.00236 -0.200206 -0.328531)
(1.15558 -0.426725 -2.36904)
(2.25072 -0.525927 -2.32138)
(3.69825 -0.0352659 -2.56545)
(3.85518 -0.0443613 -1.20224)
(-1.22463 4.21412 0.11031)
(1.16539 2.85151 2.34796)
(-0.0381272 4.44469 1.11202)
(0.0666343 -0.0553144 2.59934)
(0.253873 -0.0473459 0.178797)
(-0.228228 1.79223 -0.0324135)
(0.921962 -0.331078 -2.3788)
(1.17369 -0.255608 -1.61849)
(2.25583 -0.0434436 -2.08221)
(1.41072 -0.420572 -0.19969)
(0.791587 -0.223914 -2.51614)
(1.13843 -0.439046 -2.48968)
(2.26675 -0.55922 -2.6208)
(3.30813 -0.0287156 -2.57859)
(3.76661 -0.15182 -1.13295)
(-1.45579 4.20659 -0.146875)
(-0.156178 3.81824 1.44808)
(-1.33785 4.16001 -0.00948166)
(0.566534 2.55482 3.03081)
(1.36964 2.85885 2.25239)
(0.000555152 4.43355 0.882891)
(-0.307882 0.498175 2.5612)
(0.0329152 0.0104987 3.77205)
(0.115212 -3.33478 0.73056)
(-0.318918 1.55355 -0.214537)
(-0.0525722 0.246209 -1.81517)
(0.659384 -0.393142 -2.19811)
(1.34732 -0.380598 -1.53833)
(1.89193 -0.277091 -1.93833)
(0.939907 -0.641037 -0.126495)
(0.260051 0.142295 -1.45751)
(0.680025 -0.223985 -2.53823)
(1.06063 -0.442362 -2.58566)
(2.19687 -0.561324 -2.89499)
(2.91082 0.0196265 -2.47735)
(3.69936 -0.25955 -1.05944)
(-0.654038 2.77712 -0.259608)
(-0.303622 4.60062 0.815)
(-1.5443 4.23635 -0.0416415)
(-0.172863 3.80832 2.04491)
(0.582772 3.89188 1.68289)
(-1.41251 4.38727 -0.511385)
(0.254781 2.6518 3.10749)
(0.0138041 2.73623 2.74425)
(1.49455 2.94951 2.19186)
(0.24646 4.60134 0.649102)
(-0.850162 1.52299 1.12402)
(-0.24136 0.31303 2.89238)
(0.50597 -0.148072 3.05619)
(0.301644 -1.66419 1.19506)
(-0.484042 1.57638 -0.4339)
(-0.239196 0.519061 -1.43561)
(-0.200202 0.245137 -1.61337)
(0.254667 -0.416363 -2.04696)
(1.4444 -0.485864 -1.62124)
(1.71268 -0.371499 -1.81578)
(0.491275 -0.80892 -0.0468581)
(-0.163856 0.404557 -1.13379)
(0.214772 0.153269 -1.34301)
(0.539493 -0.206641 -2.50283)
(0.974798 -0.443128 -2.61907)
(2.03688 -0.567119 -3.10484)
(2.5295 0.0670442 -2.35394)
(3.64329 -0.365345 -0.964149)
(-2.04677 2.79639 0.229129)
(-1.24376 3.51774 1.14638)
(-2.04738 2.88223 0.0848095)
(0.257767 4.61857 1.47387)
(0.624919 4.70549 1.08993)
(-1.64198 4.19317 -0.0120922)
(-0.303469 3.66269 2.08619)
(0.359385 3.86968 2.0717)
(1.58711 4.09977 2.07542)
(-1.95312 4.53498 -0.794018)
(0.151222 2.8112 2.77869)
(0.0312794 2.57748 2.83999)
(0.331963 2.74593 2.82598)
(1.7194 2.88231 2.04373)
(0.142596 4.70968 1.00695)
(-1.02458 1.33358 0.0471685)
(0.310545 0.609383 1.8953)
(0.114339 0.0636529 2.70768)
(1.02637 -0.206455 2.58895)
(0.198675 -1.55973 1.60978)
(0.207542 1.4033 -0.365505)
(-0.0197216 0.860257 -0.931458)
(-0.405824 0.510143 -1.43707)
(-0.325807 0.296603 -1.29083)
(-0.00404895 -0.377806 -1.8594)
(1.42909 -0.498758 -1.88718)
(1.39324 -0.482249 -1.48131)
(0.210414 -0.907747 -0.00621185)
(-0.146425 0.659821 -0.895751)
(-0.159702 0.406822 -1.08951)
(0.161193 0.166921 -1.25419)
(0.407344 -0.174801 -2.43289)
(0.925411 -0.446245 -2.58035)
(2.00434 -0.531497 -3.05788)
(2.23077 0.139792 -2.18034)
(3.58929 -0.468412 -0.82635)
(-2.10191 2.79446 0.482431)
(-0.939404 3.75282 1.17026)
(-2.46563 2.95911 0.11859)
(-0.155547 4.21944 1.30239)
(-0.59489 3.91296 1.04028)
(-2.16072 3.1764 0.109235)
(0.639283 4.23763 2.07022)
(0.854819 4.57685 1.70783)
(0.898638 4.61269 1.1848)
(-1.03687 4.26475 0.203152)
(-0.159358 3.49392 1.81626)
(-0.061232 3.6688 2.17125)
(1.34279 3.97562 2.25296)
(2.10363 4.23442 2.60803)
(-1.45321 4.61876 -0.841441)
(0.374768 2.72019 2.12556)
(0.00680258 2.82023 2.76487)
(0.0182238 2.60133 2.87703)
(0.743867 2.88731 2.75183)
(0.667371 3.48756 2.20239)
(0.836078 4.67341 0.401019)
(-0.127346 1.01743 -0.969642)
(-0.995886 1.21569 0.383407)
(-0.322082 0.873665 0.770695)
(0.640295 -0.242003 2.5987)
(1.8276 -0.626212 1.95117)
(-0.0789959 -1.65387 2.16442)
(0.799776 1.10813 -0.396674)
(-0.00348849 0.981057 -0.86457)
(-0.184023 0.892575 -0.809213)
(-0.461033 0.46508 -1.5024)
(-0.373287 0.270686 -1.134)
(-0.328345 -0.251158 -1.75077)
(1.27665 -0.409633 -2.22156)
(1.08139 -0.586253 -1.44731)
(-0.0386652 -0.976721 0.0170441)
(-0.0958785 0.686859 -0.705964)
(-0.215965 0.679727 -0.918494)
(-0.176988 0.416098 -1.04505)
(0.102215 0.185995 -1.19053)
(0.278995 -0.133822 -2.33876)
(0.876738 -0.452604 -2.50663)
(1.87373 -0.535746 -2.97516)
(1.98641 0.204054 -2.03322)
(3.52318 -0.555979 -0.649827)
(-2.37468 2.37734 -0.319154)
(-0.475297 4.1206 0.286779)
(-1.78757 2.95343 0.270658)
(-0.421008 3.82449 1.06011)
(-0.214845 3.91309 0.996103)
(-1.66489 3.38973 0.117949)
(0.564729 4.12512 2.33213)
(0.0906251 4.37393 1.22557)
(-0.361341 3.99556 1.1832)
(-1.87564 3.53067 -0.000219218)
(0.90442 4.56484 1.45047)
(0.929258 4.57678 1.6078)
(1.43051 4.33831 1.54668)
(1.33515 4.47464 1.07492)
(-0.23866 4.26846 0.257146)
(0.706383 2.92694 1.69599)
(0.474808 3.59856 1.72771)
(0.643241 3.65739 2.40227)
(1.74198 4.10766 2.37152)
(2.49381 4.8283 2.3336)
(-0.588855 4.64497 -0.563563)
(0.60558 1.87092 0.503087)
(0.657249 2.45839 2.15513)
(-0.207586 2.67184 2.92242)
(0.090892 2.66829 2.92132)
(1.8743 2.35461 2.41813)
(3.08991 2.92749 2.72213)
(1.32264 4.58433 -0.198952)
(0.0292404 1.02204 -0.860043)
(-0.396886 0.986927 -0.865701)
(-1.04874 1.15438 1.01527)
(-0.173176 0.611055 0.876974)
(1.42325 -0.610921 2.20898)
(1.97878 -0.625116 2.05128)
(-0.62256 -0.912613 2.93545)
(2.46555 0.60213 -0.423325)
(0.164653 0.599204 -0.727837)
(-0.0545631 0.988417 -0.850148)
(-0.267589 0.910186 -0.705622)
(-0.506097 0.436222 -1.5275)
(-0.399956 0.274949 -1.09205)
(-0.531142 -0.0389549 -1.71106)
(1.04561 -0.303392 -2.41764)
(0.762833 -0.656718 -1.31767)
(-0.30596 -0.897737 0.0785916)
(-0.00543694 0.671765 -0.942581)
(-0.142715 0.693579 -0.691048)
(-0.2128 0.689211 -0.938462)
(-0.201966 0.422478 -1.00823)
(0.0437441 0.209517 -1.1444)
(0.16536 -0.0876173 -2.22521)
(0.811006 -0.450931 -2.42227)
(1.70632 -0.48495 -2.89576)
(1.80806 0.250415 -1.92075)
(3.42895 -0.619451 -0.431834)
(-1.37847 2.6456 -0.180168)
(-0.553319 3.41553 0.440753)
(-1.71848 2.70954 -0.0107878)
(-0.0542814 3.86451 0.373868)
(-0.434931 4.05106 0.315206)
(-0.815207 3.33571 0.155217)
(0.898245 4.18544 1.07042)
(0.152348 3.82193 0.961447)
(0.799947 4.07583 0.671035)
(-0.78291 3.57896 0.0965067)
(1.35597 4.38672 1.59599)
(1.23103 4.12337 1.91348)
(0.379018 4.32818 1.32209)
(0.634456 4.00559 1.27415)
(-1.21106 3.9274 -0.0684659)
(1.04923 4.00663 1.3097)
(1.33908 4.49016 1.67127)
(1.16807 4.69428 1.53755)
(1.7818 4.28709 1.44463)
(1.62119 4.46351 0.86412)
(0.381267 4.20608 0.157417)
(0.111791 2.16799 1.69941)
(0.725314 3.00947 1.5401)
(1.03775 3.59263 1.86764)
(1.38549 3.41618 2.75453)
(2.07965 4.06118 2.29641)
(2.64126 5.17279 2.08685)
(0.299488 4.62138 -0.0880979)
(-0.554103 1.61392 0.794)
(0.318246 1.75209 0.689192)
(0.397343 2.5187 1.64145)
(-0.274224 2.81895 2.81871)
(0.167628 2.41388 2.78164)
(1.68303 2.33665 1.76629)
(4.56642 2.21541 3.17803)
(2.53251 3.91891 -0.960493)
(0.43483 1.072 -0.642212)
(-0.0416845 0.996568 -0.853856)
(-0.556124 0.899574 -0.735768)
(-0.990701 1.10891 1.21205)
(0.248006 0.322796 1.1548)
(1.93189 -0.936958 2.20563)
(1.957 -0.890909 2.46226)
(0.0239848 -0.529122 3.06732)
(3.16464 0.310734 0.0217996)
(0.187175 0.995268 -0.457479)
(0.181743 0.633814 -0.785673)
(-0.17649 1.01521 -0.777142)
(-0.312148 0.923104 -0.644814)
(-0.545426 0.417623 -1.51036)
(-0.481637 0.341278 -1.20647)
(-0.602888 0.163915 -1.61538)
(1.01168 -0.279571 -2.13527)
(0.456712 -0.66507 -1.0348)
(-0.460031 -0.86134 0.026169)
(-0.090694 0.687435 -1.16425)
(0.0423795 0.660191 -0.955657)
(-0.228602 0.711366 -0.665198)
(-0.241335 0.694386 -0.947862)
(-0.228144 0.42512 -0.980417)
(-0.00934459 0.235378 -1.10515)
(0.0757781 -0.0427568 -2.09777)
(0.735453 -0.439783 -2.33482)
(1.53494 -0.410075 -2.78493)
(1.70948 0.261713 -1.83684)
(3.28654 -0.644359 -0.208415)
(-0.997486 3.07118 -0.184953)
(-1.38289 2.54126 -0.241639)
(-0.0868985 3.65227 0.300224)
(-0.0454937 3.44903 0.259579)
(-1.35712 2.78944 0.20713)
(-0.271934 4.21556 0.345982)
(0.333154 3.95317 0.222428)
(-0.195987 3.89399 0.216895)
(-0.69496 3.33432 0.0700771)
(1.88702 4.22155 1.13577)
(0.753199 4.00995 0.947436)
(0.719842 3.86891 0.802037)
(0.70939 4.07827 0.414279)
(0.068129 3.78086 0.0851052)
(1.76921 3.90357 1.60844)
(1.28214 4.35888 1.67575)
(1.27762 4.32062 1.48695)
(1.86713 4.02141 1.00298)
(1.3092 4.02592 1.28157)
(-0.534864 4.04727 -0.0769482)
(1.18257 2.36685 2.43791)
(1.42487 4.18147 0.853272)
(1.39486 4.36057 1.77502)
(1.44944 4.51499 1.55092)
(2.26421 4.25461 1.42023)
(2.32955 4.28461 0.873438)
(1.12499 4.14943 0.235097)
(0.102506 2.0667 1.35016)
(0.296243 2.07363 1.6426)
(0.692639 3.08794 1.45049)
(1.88036 3.42615 2.10647)
(1.80143 3.50225 2.71108)
(3.07724 3.81459 1.60586)
(2.954 4.95725 1.76758)
(1.18034 4.49087 0.247557)
(-0.383557 1.28015 0.263624)
(-0.216998 1.57985 0.654125)
(-0.0610313 1.75382 0.935863)
(0.384797 2.48958 1.325)
(0.111322 2.62349 2.85764)
(0.710476 2.26537 2.43763)
(1.44194 2.46148 1.57981)
(4.32175 2.38358 3.01512)
(2.91816 3.60088 0.0125051)
(0.488232 1.13632 -0.359282)
(0.335303 1.09854 -0.660515)
(-0.130357 0.994804 -0.79352)
(-0.705232 0.776657 -0.652868)
(-0.822309 0.979933 1.34763)
(0.71574 0.0948961 1.60048)
(1.9755 -0.937899 2.43576)
(1.00089 -0.480261 2.87905)
(0.321948 -0.201817 2.69424)
(3.26037 0.454407 0.189997)
(0.484165 1.69211 -0.123531)
(-0.0496994 1.10146 -0.294472)
(0.0590143 0.687588 -0.781422)
(-0.231071 1.02215 -0.742229)
(-0.369454 0.966983 -0.572)
(-0.611703 0.424675 -1.42189)
(-0.503903 0.430333 -1.201)
(-0.498058 0.284283 -1.41533)
(1.04572 -0.327225 -1.77129)
(0.166886 -0.623264 -0.678513)
(-0.666014 -0.698097 0.156068)
(-0.152351 0.582347 -1.22781)
(-0.0528168 0.672464 -1.18451)
(0.0686041 0.640805 -0.968187)
(-0.224072 0.712685 -0.671943)
(-0.268142 0.709382 -0.956811)
(-0.24096 0.428552 -0.968307)
(-0.047788 0.258473 -1.0656)
(0.0159722 -0.00528045 -1.96444)
(0.660908 -0.419002 -2.24955)
(1.38163 -0.327111 -2.64086)
(1.6755 0.233486 -1.7775)
(3.09231 -0.603917 -0.0339733)
(-1.27842 2.34001 -0.135298)
(-0.271847 3.34143 0.14162)
(-0.550944 2.92653 0.035706)
(-1.01126 2.67803 -0.101093)
(-0.161943 3.5894 0.279269)
(0.156297 3.51204 0.138511)
(-0.168455 3.41594 0.0826494)
(-1.06878 2.83754 0.173099)
(0.301621 4.01114 0.900815)
(0.568296 3.91239 0.452819)
(0.59914 3.90799 0.299893)
(0.404176 3.87962 0.419976)
(-0.411819 3.39575 -0.00478289)
(1.479 3.94197 1.64783)
(1.21245 4.03408 1.34145)
(0.980359 3.94638 0.868877)
(1.0104 3.78953 0.711201)
(1.30595 3.86697 0.123733)
(0.268361 3.73682 0.0883284)
(1.32676 3.32528 2.6296)
(1.41393 4.16543 1.53091)
(1.27122 4.3079 1.84047)
(0.741294 4.38792 1.60772)
(1.57636 3.94464 1.11578)
(1.5687 4.15799 1.00396)
(0.259789 4.00164 0.036004)
(0.774202 2.22105 2.44911)
(0.660408 3.18087 1.92737)
(1.92296 4.09838 0.899464)
(1.59141 4.37395 1.5941)
(1.67191 4.39937 1.55386)
(2.2214 4.10676 1.50477)
(2.6809 4.30351 0.718551)
(1.50663 4.02967 0.376032)
(0.354096 2.24166 1.20709)
(0.457601 2.08591 1.54195)
(0.621193 2.18124 1.57454)
(1.43618 3.08655 1.00467)
(2.40831 3.18127 2.32369)
(2.02133 3.41774 2.91627)
(2.75769 4.37008 1.1067)
(3.14839 4.64868 1.18567)
(1.61565 4.32556 0.361759)
(-0.256063 1.14278 0.238065)
(-0.104592 1.24364 0.16454)
(-0.086924 1.53754 0.304492)
(0.0473255 1.70559 1.1124)
(0.501277 2.52229 1.17586)
(0.259669 2.62608 2.47738)
(0.886955 2.00662 2.34055)
(2.47584 1.75764 1.66293)
(3.94814 2.75579 2.61478)
(3.25381 3.34127 -0.0931662)
(0.594798 1.70658 -0.154327)
(0.483064 1.13978 -0.361791)
(0.144918 1.13891 -0.613478)
(-0.387997 1.04651 -0.61979)
(-0.867052 0.69706 -0.508276)
(-0.606316 0.837619 1.45776)
(1.20736 -0.257873 2.0588)
(1.47539 -0.764758 2.75247)
(0.871817 -0.372915 2.45078)
(0.432466 0.188477 2.11644)
(3.02919 0.949107 0.0964971)
(0.720123 1.74361 -0.505977)
(0.424839 1.71085 -0.0623042)
(-0.250762 1.1797 -0.281518)
(-0.241797 0.782611 -0.703231)
(-0.403359 1.05747 -0.659367)
(-0.40165 0.981797 -0.513305)
(-0.657663 0.443948 -1.22141)
(-0.447924 0.525009 -1.05668)
(-0.310491 0.298928 -1.21143)
(1.05293 -0.358726 -1.4034)
(-0.0934959 -0.577795 -0.364927)
(-0.717107 -0.634232 0.232825)
(0.265153 0.306145 -1.20373)
(-0.15704 0.60067 -1.21898)
(0.016502 0.675419 -1.22802)
(0.073568 0.622653 -0.976953)
(-0.211241 0.704439 -0.691473)
(-0.234263 0.694961 -0.989917)
(-0.249365 0.428792 -0.967844)
(-0.0638856 0.265129 -1.02834)
(-0.0155789 0.0218379 -1.83679)
(0.599452 -0.391632 -2.16874)
(1.26379 -0.249243 -2.47676)
(1.668 0.179972 -1.73624)
(2.86805 -0.509956 0.0529187)
(-1.19125 2.14869 -0.113325)
(-0.895773 2.70888 0.0890102)
(-0.907376 2.42177 -0.115354)
(-0.276117 3.30152 0.0905851)
(-0.0979777 3.30621 0.0915065)
(0.110591 3.10149 0.0953363)
(-0.687792 2.693 -0.17243)
(0.0394427 3.28381 0.616844)
(0.150298 3.57664 0.322727)
(0.398734 3.45746 0.0694029)
(0.268899 3.44857 0.0904178)
(-0.833242 2.8221 0.275053)
(0.490784 3.54574 1.52)
(0.206683 3.8975 0.318928)
(0.589675 3.69339 0.362808)
(0.915585 3.82126 0.248608)
(0.386181 3.77661 0.286087)
(-0.234131 3.28304 -0.060267)
(1.45071 4.04081 1.52486)
(1.33077 4.0018 1.7048)
(0.877287 4.05716 1.25517)
(0.985647 3.89455 0.900115)
(1.22534 3.69907 0.645778)
(1.43317 3.74061 0.134772)
(0.577987 3.71967 0.0904002)
(1.81544 3.02317 2.65241)
(1.70728 3.38263 2.28432)
(1.50375 3.97431 1.74149)
(1.81327 4.12283 1.37764)
(1.67157 4.18712 1.33241)
(1.68453 3.94675 1.05221)
(1.987 4.00445 0.668697)
(0.686334 3.90968 0.0723735)
(0.793212 2.60197 2.64563)
(0.492061 2.85266 2.35387)
(1.46069 3.51255 1.30426)
(1.865 4.02903 1.76605)
(1.84692 4.31094 1.59059)
(1.88066 4.25511 1.61985)
(2.47784 4.00923 1.24873)
(2.65032 4.34747 0.816631)
(2.30401 3.85858 0.533514)
(0.472887 2.28365 1.68769)
(0.825026 2.21308 1.80241)
(0.813119 2.08302 1.77102)
(0.900592 2.53 1.69895)
(2.21525 3.03297 1.48181)
(2.85016 3.08122 2.10788)
(2.54833 3.21752 2.78911)
(2.92688 4.31449 0.836079)
(2.80265 4.60635 0.874228)
(2.68122 3.81121 0.665401)
(-0.103614 1.45193 0.215639)
(-0.201213 1.14605 0.325047)
(0.0905926 1.25617 0.0434765)
(0.02829 1.5367 0.201588)
(0.0244695 1.71741 1.5771)
(1.01743 2.56086 0.874781)
(0.554711 2.38861 2.32324)
(1.24708 1.87938 2.06923)
(3.17249 1.19172 1.66999)
(4.17058 2.74919 2.10515)
(3.81148 2.83564 0.0143753)
(0.574844 2.05911 0.0903678)
(0.532767 1.72582 -0.083127)
(0.462 1.14885 -0.347862)
(0.0446143 1.20234 -0.42246)
(-0.47381 1.11292 -0.365058)
(-1.07447 0.623877 -0.220017)
(-0.690044 0.813471 1.27227)
(0.984338 -0.266783 2.4082)
(1.17425 -0.598745 2.68971)
(1.03738 -0.359163 1.59231)
(0.77198 0.230217 1.62372)
(2.82963 1.30003 0.115084)
(0.576748 1.55597 -0.763114)
(0.711223 1.74433 -0.43334)
(0.37762 1.72183 0.0867013)
(-0.330627 1.25888 -0.27423)
(-0.462192 0.865444 -0.587034)
(-0.508599 1.08012 -0.623283)
(-0.445131 0.950432 -0.408831)
(-0.659543 0.472429 -0.793082)
(-0.333727 0.569094 -0.960182)
(-0.122482 0.277898 -1.03968)
(1.00059 -0.363063 -1.24743)
(-0.290452 -0.491668 -0.126589)
(-0.779537 -0.622092 0.291473)
(0.755907 0.14987 -0.720517)
(0.198477 0.3252 -1.20664)
(-0.155658 0.603436 -1.21276)
(7.65005e-05 0.667065 -1.27233)
(0.108802 0.581069 -1.01188)
(-0.214944 0.697254 -0.703278)
(-0.249792 0.690206 -0.986118)
(-0.269283 0.423859 -0.960522)
(-0.0475219 0.264314 -1.01146)
(-0.0300228 0.0425581 -1.72207)
(0.561486 -0.368021 -2.09153)
(1.18899 -0.191392 -2.31446)
(1.66379 0.113662 -1.70283)
(2.65478 -0.390192 0.0728907)
(-0.930279 2.06943 -0.00187914)
(-0.851439 2.4878 0.0910158)
(-0.874613 2.23238 -0.154431)
(-0.304168 2.88983 0.227558)
(0.671414 2.8012 -0.0274515)
(-0.898311 2.36166 -0.00364006)
(-0.255184 3.20835 0.360635)
(-0.154881 3.15518 0.176531)
(0.155971 3.18127 -0.284578)
(0.115946 2.99336 -0.0248319)
(-0.646408 2.64215 -0.0337289)
(0.114002 3.31985 1.053)
(-0.208173 3.46727 0.492216)
(0.268672 3.45205 0.448158)
(0.907289 3.39722 0.0561123)
(0.23812 3.29208 0.0693509)
(-0.302203 2.87291 0.0075013)
(0.62009 3.46856 1.835)
(0.79514 3.65135 1.33517)
(-0.171004 3.82151 0.0598042)
(0.449561 3.77935 0.309068)
(0.936607 3.73812 0.156278)
(0.42881 3.5455 0.113646)
(0.0375421 3.18628 -0.137869)
(1.29129 3.98857 2.08452)
(1.5681 3.7661 1.76149)
(1.57456 3.76324 1.65658)
(1.19262 3.97671 1.15571)
(1.22627 3.81116 0.85013)
(1.81554 3.59233 0.689644)
(1.61551 3.62929 0.0955974)
(0.737824 3.59007 0.160429)
(1.93482 3.25421 2.49461)
(2.00705 3.33821 2.07756)
(2.18633 3.67127 1.14672)
(1.88281 3.86027 1.56555)
(1.56303 4.06653 1.60761)
(1.68974 4.23566 1.24837)
(1.71567 3.94806 0.886188)
(1.86274 4.01629 0.52758)
(0.921404 3.88611 0.0949342)
(0.743434 2.98017 2.48014)
(0.705856 2.97367 2.60425)
(1.21094 2.98496 2.09972)
(2.07731 3.54376 1.0536)
(2.07338 3.84974 2.06909)
(2.09427 4.03433 1.61709)
(2.27531 4.02446 1.62848)
(2.16293 4.27307 1.13736)
(2.51602 4.29667 0.935561)
(2.38967 3.76369 0.588532)
(0.672876 2.3569 1.32557)
(0.664299 2.44454 1.91339)
(0.59061 2.49071 1.9584)
(0.873523 2.41196 1.80362)
(0.878903 2.84217 1.72729)
(1.75713 3.20511 2.6507)
(2.82427 3.26272 1.89317)
(2.83317 3.30521 2.34291)
(3.37222 3.91885 0.363024)
(2.60192 4.47209 0.723457)
(3.12595 3.60614 0.773839)
(1.14166 2.13054 -0.367192)
(0.17572 1.37384 0.0938556)
(-0.0378689 1.13934 0.264098)
(0.556475 1.20081 -0.186506)
(0.140517 1.45258 0.940421)
(0.151899 1.97256 1.62122)
(1.23509 2.45578 1.087)
(1.02979 2.0134 2.23145)
(1.4836 1.69724 1.8695)
(3.40357 0.848692 1.23626)
(4.4844 2.38476 1.50968)
(3.85496 2.74096 0.132379)
(0.968907 1.80924 0.123308)
(0.741352 2.10056 0.130208)
(0.510982 1.74073 0.0531902)
(0.212529 1.29573 -0.333073)
(-0.269719 1.43041 0.421493)
(-0.638765 1.31377 0.590746)
(-1.08396 0.651314 -0.149469)
(-0.539306 0.629186 0.773114)
(0.744429 -0.271287 2.50607)
(0.964172 -0.476891 2.36378)
(1.2797 -0.372996 0.830025)
(1.35847 -0.0302552 1.02032)
(2.69767 1.66447 0.0626205)
(0.65263 1.28537 -0.970084)
(0.601255 1.56793 -0.660948)
(0.716726 1.74578 -0.353272)
(0.35566 1.73727 0.150546)
(-0.402689 1.31863 -0.284894)
(-0.600287 0.921281 -0.563057)
(-0.567869 1.08151 -0.562364)
(-0.273645 0.886746 -0.569017)
(-0.661821 0.460583 -0.623094)
(-0.215958 0.557992 -0.954032)
(0.012005 0.21906 -0.945331)
(0.972407 -0.33279 -0.967857)
(-0.384182 -0.434643 0.0294909)
(-0.854468 -0.642495 0.343735)
(0.972907 -0.0112828 -0.555301)
(0.701039 0.163843 -0.681441)
(0.14471 0.349562 -1.18997)
(-0.037166 0.613864 -1.24055)
(0.02724 0.655636 -1.3203)
(0.158437 0.530608 -1.06079)
(-0.202174 0.677944 -0.728352)
(-0.275444 0.686839 -0.969024)
(-0.29546 0.437164 -0.909941)
(-0.0869451 0.292539 -0.984404)
(-0.0335048 0.0602014 -1.62433)
(0.559762 -0.369528 -2.02389)
(1.15977 -0.164987 -2.17098)
(1.65475 0.0413574 -1.67276)
(2.47671 -0.275529 0.0625268)
(-0.650701 2.24604 -0.146019)
(-0.77745 2.07463 0.0157769)
(-0.540898 2.7022 0.132311)
(-0.565075 2.38894 0.015097)
(-0.842063 2.17859 -0.0262563)
(-0.522825 2.91062 0.262194)
(-0.111946 2.86945 0.230957)
(-0.763357 2.58923 0.0227656)
(-0.676999 2.42941 -0.030276)
(-0.213094 3.3134 0.621266)
(-0.188535 3.16094 0.226747)
(-0.0986701 3.18591 0.306464)
(0.451012 2.95591 0.000572019)
(0.190797 2.93272 -0.0570572)
(-0.441358 2.61885 0.0771853)
(0.0918929 3.42736 1.44392)
(0.0223479 3.38664 0.964713)
(-0.232398 3.52475 0.445711)
(0.0863578 3.44505 0.291949)
(0.707238 3.42712 0.0211531)
(0.408989 3.12911 0.181122)
(-0.313977 2.72911 -0.060604)
(0.992176 3.3196 2.49196)
(1.23198 3.43063 1.68037)
(0.70156 3.65165 1.18401)
(0.985887 3.5866 1.38844)
(0.861111 3.65875 0.390725)
(1.38014 3.50591 0.256427)
(0.787644 3.37299 0.272566)
(0.0701328 3.1563 -0.126226)
(1.35746 3.80963 2.23728)
(1.91638 3.69692 1.78374)
(1.64973 3.80558 1.7434)
(1.70916 3.6751 1.3537)
(1.36152 3.84401 1.04598)
(1.60752 3.71306 0.634853)
(1.88044 3.60786 0.576653)
(1.36091 3.62481 0.234866)
(0.890068 3.48743 0.155925)
(1.77515 3.51349 2.18059)
(1.91977 3.53226 2.10426)
(2.04918 3.61614 1.73941)
(2.02424 3.58094 1.57995)
(2.08757 3.92636 1.50171)
(1.91832 4.04356 1.33223)
(1.94166 4.10269 1.1179)
(2.0509 3.99601 0.556541)
(1.59349 4.15276 0.444643)
(0.923672 3.69808 0.200306)
(0.70561 3.13219 2.35514)
(0.801352 3.25886 2.36212)
(1.18276 2.86173 2.52816)
(2.11685 3.2168 1.42694)
(2.03501 3.675 1.79964)
(2.42118 3.81411 1.73978)
(2.18275 3.87751 1.663)
(2.69739 3.59232 1.94639)
(2.41577 4.18655 0.924519)
(2.79556 4.03708 0.869602)
(2.8202 3.60692 0.634097)
(0.524311 2.50837 1.63065)
(0.560968 2.47472 1.72118)
(0.723906 2.51472 1.94511)
(0.671054 2.48237 1.9985)
(0.865063 2.54574 1.92573)
(1.82136 2.69214 1.64244)
(2.00967 3.12871 2.4514)
(2.74599 3.27114 1.95656)
(2.96543 3.35572 2.03187)
(3.35218 3.75202 0.586331)
(2.71129 4.10886 0.753555)
(3.04903 3.6113 0.705945)
(1.52489 2.38392 -0.754943)
(1.15105 2.01974 -0.109759)
(0.228791 1.33981 0.0804491)
(0.0582365 1.14979 0.19597)
(0.554235 1.19151 0.900526)
(0.355475 1.58818 1.6732)
(0.506697 2.17996 1.35803)
(1.43385 2.37796 1.21579)
(1.32997 1.84256 2.10076)
(2.39147 1.349 1.49012)
(3.59445 0.438311 0.752594)
(3.97315 2.42479 1.45024)
(3.29009 3.55807 0.759704)
(1.06324 1.69254 -0.000617791)
(0.887686 1.84681 0.0936492)
(0.91418 2.1446 0.444327)
(0.453859 1.85877 0.455855)
(0.0877292 1.44554 -0.304609)
(-0.21783 1.43555 0.95949)
(-0.414103 1.37072 1.10316)
(-1.24979 0.759059 -0.000579897)
(-0.505072 0.508697 0.542852)
(0.505634 -0.224407 2.49353)
(1.04341 -0.221333 1.536)
(1.3831 -0.327581 0.0695739)
(1.69041 -0.352304 0.168776)
(2.67039 1.40932 0.189275)
(0.540094 1.00048 -0.665701)
(0.710809 1.28902 -0.943671)
(0.611752 1.54726 -0.625564)
(0.709566 1.74033 -0.284444)
(0.405046 1.72536 0.133073)
(-0.445861 1.35209 -0.311906)
(-0.695595 0.961826 -0.614601)
(-0.60435 1.08282 -0.521671)
(-0.235108 0.787355 -0.676498)
(-0.608381 0.417797 -0.539518)
(-0.0697688 0.530176 -1.0409)
(0.185831 0.113819 -0.970448)
(0.924847 -0.313601 -0.838672)
(-0.52568 -0.326266 0.226275)
(-0.849722 -0.640492 0.394538)
(0.937623 -0.220025 -0.267611)
(1.06419 -0.0192852 -0.524648)
(0.63864 0.183154 -0.657089)
(0.118951 0.36535 -1.17034)
(0.0194332 0.585647 -1.30594)
(0.0623966 0.645733 -1.37003)
(0.209704 0.475588 -1.10524)
(-0.222766 0.671945 -0.733448)
(-0.322964 0.706363 -0.93283)
(-0.312453 0.459864 -0.867686)
(-0.0900491 0.299503 -0.981383)
(-0.0335866 0.077839 -1.54485)
(0.604369 -0.409864 -1.98059)
(1.16733 -0.174621 -2.06197)
(1.63457 -0.0303327 -1.64896)
(2.33868 -0.177343 0.0388854)
(-0.899797 1.7743 0.0430933)
(-0.374348 2.4974 0.197427)
(-0.329384 2.26934 -0.0408092)
(-0.890436 1.99609 -0.00913687)
(-0.46413 2.71122 0.38927)
(-0.10884 2.67115 0.272471)
(-0.172513 2.47716 0.0270414)
(-0.606816 2.26551 -0.0336578)
(-0.773554 2.94078 0.372295)
(-0.0706316 2.91495 0.146435)
(-0.011842 2.85125 0.197144)
(0.284193 2.67667 -0.00936378)
(-0.606867 2.40832 0.093179)
(-0.325141 3.4129 0.598645)
(-0.10294 3.29049 0.593184)
(-0.284349 3.15654 0.208826)
(-0.111285 3.17513 0.289498)
(0.576273 2.90729 -0.130072)
(0.00322434 2.91458 -0.0406824)
(-0.346804 2.53679 0.00696112)
(0.374028 3.20533 2.19918)
(0.241558 3.51784 1.40214)
(-0.0320369 3.40525 0.873343)
(0.23798 3.46044 0.496502)
(0.385023 3.33844 0.247674)
(0.885925 3.35835 0.0506954)
(0.707437 2.96831 0.2333)
(-0.0774802 2.7166 -0.0400949)
(0.349755 3.47362 2.86742)
(1.15717 3.25613 2.29798)
(1.39883 3.45261 1.5949)
(1.07753 3.44702 1.1314)
(0.624784 3.68975 0.503889)
(1.1403 3.55112 0.45029)
(1.47731 3.33061 0.209834)
(1.04182 3.32392 0.278509)
(0.117505 3.19347 -0.136207)
(1.03788 3.92993 2.33758)
(1.82049 3.68022 1.97094)
(1.85949 3.65635 1.77893)
(2.06281 3.57584 1.56775)
(1.86581 3.61613 1.36628)
(1.61099 3.66106 1.14904)
(1.64721 3.6935 0.531496)
(2.03156 3.57335 0.36078)
(1.56319 3.48387 0.253275)
(0.994195 3.38352 0.120859)
(1.29756 3.73274 2.04042)
(1.79522 3.62214 1.9313)
(2.06391 3.68119 1.82629)
(2.11934 3.58434 1.62608)
(2.39353 3.6124 1.54338)
(2.15199 3.88422 1.59226)
(2.15971 3.92026 1.37658)
(2.02928 4.04839 0.970123)
(2.21875 4.01781 0.616631)
(1.58809 4.16022 0.451885)
(1.34774 3.45705 0.125195)
(1.38127 3.45143 1.73134)
(0.918736 3.28162 2.14577)
(1.14533 3.16424 2.24537)
(2.11197 3.43019 1.28762)
(2.17367 3.46076 1.53102)
(2.16333 3.76474 1.8054)
(2.41867 3.94851 1.65083)
(2.21316 3.89503 1.78393)
(2.32424 3.84024 1.65755)
(2.77587 3.9255 1.20912)
(2.87112 3.89636 0.759232)
(2.44903 3.77646 0.277608)
(1.29991 2.57111 1.1519)
(0.80022 2.53631 1.8038)
(0.680757 2.52028 1.76384)
(0.79372 2.55836 1.78004)
(1.42228 2.63606 1.51657)
(1.96989 2.27281 1.73706)
(2.59624 2.40653 2.02794)
(2.81829 2.91715 2.01173)
(3.10347 3.15362 1.74384)
(3.16964 3.28929 1.48607)
(3.43481 3.43014 0.951466)
(2.76521 3.81453 1.0906)
(3.2407 3.62436 0.597689)
(1.65471 2.52778 -0.43816)
(1.62697 2.37966 -0.289272)
(1.38075 2.00189 0.861072)
(0.612984 1.38933 0.518423)
(0.834554 1.14522 0.246164)
(0.390697 1.48409 1.98515)
(0.554364 1.87275 1.65771)
(1.78407 1.95906 0.451487)
(1.40966 2.32819 1.50285)
(2.01492 1.4593 2.01561)
(2.47941 1.16785 1.56968)
(3.42601 0.348532 1.17634)
(3.03908 3.12363 1.37652)
(3.32723 3.65936 1.04464)
(1.06863 1.51201 -0.298269)
(1.00421 1.78374 0.185214)
(0.439607 2.10218 0.134332)
(0.98961 2.19583 0.64241)
(0.454883 2.02829 0.543244)
(0.141293 1.53665 0.197302)
(-0.0216104 1.41046 1.32261)
(-0.207432 1.45811 1.19411)
(-1.22934 0.962682 0.0696573)
(-0.505171 0.409016 0.539978)
(0.307498 -0.071545 2.29618)
(1.04719 -0.0244848 0.693479)
(1.40197 -0.20856 -0.7361)
(1.75882 -0.631621 -0.313831)
(2.3632 1.70283 0.233013)
(1.15882 0.215998 -0.563164)
(0.591919 1.00834 -0.70209)
(0.720351 1.28745 -0.929934)
(0.6086 1.50761 -0.648121)
(0.699648 1.71995 -0.290844)
(0.428216 1.7116 0.176716)
(-0.438514 1.37961 -0.325732)
(-0.764346 1.01121 -0.609645)
(-0.587719 1.09431 -0.616961)
(-0.298397 0.766528 -0.607033)
(-0.522495 0.376407 -0.565155)
(0.021177 0.491213 -1.20192)
(0.245784 0.0541085 -1.13046)
(0.875627 -0.33206 -0.731495)
(-0.603305 -0.200967 0.387932)
(-0.889015 -0.630641 0.420749)
(0.454908 -0.12182 -0.87224)
(0.903801 -0.216071 -0.251617)
(1.07358 -0.0229538 -0.527475)
(0.572602 0.200259 -0.664745)
(0.0945534 0.384275 -1.15766)
(0.0278838 0.604769 -1.34374)
(0.0821386 0.629684 -1.41523)
(0.262098 0.408853 -1.14899)
(-0.239921 0.663774 -0.739259)
(-0.351237 0.711398 -0.911843)
(-0.329231 0.452487 -0.879642)
(-0.0934345 0.310557 -1.01208)
(-0.0340631 0.0974151 -1.48162)
(0.646827 -0.459753 -1.95392)
(1.19874 -0.213933 -1.98316)
(1.60565 -0.0918772 -1.63042)
(2.23585 -0.0998549 0.00758154)
(-1.208 1.53685 -0.109133)
(-0.569047 2.14513 0.0814262)
(-0.672594 1.88509 -0.0582935)
(-0.825596 2.39314 0.0395619)
(-0.458682 2.39486 0.203811)
(-0.150188 2.34377 -0.0470049)
(-0.470213 2.10862 0.188018)
(-0.410352 2.7196 0.386322)
(-0.61981 2.64585 0.341668)
(0.0725028 2.60677 0.0738896)
(-0.0109316 2.5696 -0.0174424)
(-0.615778 2.22424 -0.0538727)
(-0.419299 3.007 0.274355)
(-0.62504 2.91548 0.510372)
(-0.287563 2.88398 0.10363)
(0.20847 2.77251 0.144212)
(0.0645904 2.60139 0.0284854)
(-0.408242 2.39287 0.0366907)
(-0.509353 3.31219 1.01046)
(0.140363 3.48628 0.71695)
(-0.206122 3.35558 0.414042)
(-0.156549 3.17035 0.155102)
(-0.0667463 3.07723 0.232823)
(0.692002 2.88579 -0.0787943)
(0.435121 2.72142 0.139345)
(-0.0218442 2.53255 0.0298735)
(0.654544 3.46366 2.2824)
(0.720644 3.21658 2.10913)
(0.605398 3.33166 1.31429)
(0.749617 3.29551 1.09079)
(0.292278 3.4468 0.541075)
(0.734806 3.23791 0.314277)
(1.04192 3.0949 0.0543783)
(0.885888 2.93104 0.244689)
(0.171063 2.7825 -0.0367985)
(2.36319 3.35754 2.6675)
(1.56935 3.3731 2.46299)
(1.58587 3.22227 2.15885)
(1.67284 3.21367 1.43155)
(1.25367 3.48225 1.02238)
(1.14534 3.42479 0.886589)
(1.16466 3.55958 0.486742)
(1.37746 3.34364 0.114414)
(1.02055 3.33923 0.160778)
(0.119523 3.1844 -0.165703)
(1.07109 3.80479 2.70225)
(1.45797 3.86317 2.12035)
(2.09764 3.76531 1.78121)
(2.0925 3.65486 1.74732)
(2.28511 3.29057 1.47055)
(2.06264 3.40647 1.21344)
(1.8743 3.58259 1.02252)
(1.70763 3.70764 0.589131)
(2.03709 3.58581 0.315994)
(1.51365 3.46746 0.278372)
(0.941904 3.30153 0.186199)
(1.33423 3.844 1.97402)
(1.62239 3.82667 1.88123)
(1.94087 3.62127 1.73009)
(2.42656 3.57821 1.33406)
(2.40894 3.50461 1.51688)
(2.54131 3.63016 1.59258)
(2.31568 3.75834 1.25654)
(2.22702 3.9092 1.38878)
(2.18081 4.03788 0.921638)
(2.55332 3.84766 0.651658)
(1.64612 4.10791 0.500523)
(1.14328 3.5514 0.0469667)
(1.76266 3.44014 1.58058)
(1.28761 3.53031 1.9233)
(1.19686 3.26385 1.9914)
(1.76465 3.25164 1.74843)
(2.32169 3.45863 1.49581)
(2.20358 3.52379 1.78711)
(2.64311 3.36117 1.62297)
(2.31893 3.70183 1.92388)
(2.58017 3.36791 2.20531)
(2.70485 3.6125 1.68401)
(2.97197 3.84869 1.17691)
(2.69824 3.99898 0.742545)
(2.42591 3.6191 0.184701)
(1.59161 2.84122 0.945977)
(1.38766 2.54195 1.44253)
(1.01379 2.47875 1.74575)
(0.789935 2.61388 1.6362)
(1.36656 2.54652 1.6444)
(2.24202 2.26262 1.86079)
(2.37637 2.28765 2.01706)
(2.08286 2.81864 2.57966)
(2.93126 2.95793 2.12283)
(3.19217 3.17618 1.73411)
(3.0493 3.30048 1.49969)
(3.31092 3.0863 1.50964)
(2.52003 3.96147 1.03114)
(3.25237 3.89782 0.485352)
(1.84899 2.39007 -0.734063)
(1.85741 2.48586 -0.283817)