/*--------------------------------*- C++ -*----------------------------------*\
  =========                 |
  \\      /  F ield         | OpenFOAM: The Open Source CFD Toolbox
   \\    /   O peration     | Website:  https://openfoam.org
    \\  /    A nd           | Version:  7
     \\/     M anipulation  |
\*---------------------------------------------------------------------------*/
FoamFile
{
    version     2.0;
    format      ascii;
    class       volScalarField;
    location    "8";
    object      nut;
}
// * * * * * * * * * * * * * * * * * * * * * * * * * * * * * * * * * * * * * //

dimensions      [0 2 -1 0 0 0 0];

internalField   nonuniform List<scalar> 
18750
(
0.000335225
0.00073285
0.000276096
0.000325473
0.00129316
0.00100434
0.000811146
0.000184369
0.000286791
0.000290699
0.00217687
0.000661398
0.00184007
0.000665161
0.000912283
0.000738895
0.000249679
0.000162851
0.00026806
0.000295987
0.00321377
0.0015031
0.00234164
0.000459778
0.000617641
0.0011298
0.0003536
0.000725829
0.000631053
0.00111886
0.000112296
0.000237554
0.000177995
0.000246481
0.000297854
0.00402629
0.00119053
0.00336669
0.00120883
0.00123016
0.00178781
0.000355284
0.000492133
0.000638681
0.00112651
0.000256858
0.000384485
0.0006741
0.000497704
0.00175996
0.000261123
0.000114506
0.000268637
0.000160792
0.000200639
0.000423282
0.00282682
0.00313282
0.00301704
0.00113323
0.0025425
0.00355062
0.00119274
0.000764724
0.000878539
0.00227227
0.000565072
0.000409262
0.000797526
0.000899496
0.00166971
0.000302243
0.000250785
0.00037481
0.000586483
0.000893277
0.00132835
0.000151888
0.00024777
0.000120234
0.000224005
0.000156463
0.000286745
0.000458502
0.00287192
0.00109627
0.00285401
0.000947646
0.00241641
0.00285384
0.00173358
0.00161776
0.00212634
0.00315974
0.00121933
0.00229678
0.00158216
0.00207096
0.00220538
0.000545204
0.000595464
0.000461955
0.00138769
0.000819017
0.000970298
9.47024e-05
0.00021617
0.000253522
0.000351846
0.000519159
0.00101652
0.000997297
0.000197423
0.000125991
0.000234109
0.000129508
0.00021417
0.000169957
0.000319276
0.000461086
0.00264884
0.00149966
0.00272339
0.00198494
0.00172579
0.00310482
0.000544448
0.0011977
0.00260162
0.00274599
0.000907367
0.00138453
0.0012188
0.000964858
0.00312266
0.00083245
0.000974497
0.00195954
0.00145608
0.00234505
0.00267267
0.000674591
0.000538455
0.00127782
0.000540182
0.000799087
0.00101717
0.00130606
0.000337983
9.32861e-05
0.000222126
0.000350468
0.000397444
0.000512577
0.000818298
0.00065877
0.000134623
0.000213552
0.000139746
0.000186252
0.00010201
0.000200415
0.000124128
0.000404826
0.00036302
0.00260445
0.000787425
0.00258655
0.00120847
0.00128469
0.00275924
0.00174137
0.00140595
0.00172358
0.00280152
0.00064696
0.00147063
0.00151387
0.00217119
0.00321967
0.000474074
0.00163056
0.0015337
0.00107795
0.00126394
0.00304592
0.000524068
0.000866139
0.000937668
0.000633809
0.00138659
0.00126479
0.00328738
0.000424741
0.00073027
0.000957304
0.00112034
0.000354052
0.000838973
0.00115255
0.00174011
0.000382807
0.00034083
6.41499e-05
0.000233529
0.000466303
0.000423101
0.000732415
0.000863981
0.00116256
0.000103672
0.000158916
0.000199784
0.000164097
0.000226843
0.000117575
0.000135618
0.000147607
0.000466967
0.000302018
0.00231977
0.000964392
0.00246279
0.000797294
0.000544467
0.00257676
0.00111158
0.00134648
0.00123813
0.00273069
0.00140377
0.00137341
0.00132831
0.0018032
0.0025632
0.000821913
0.000990264
0.00120536
0.0012861
0.00167964
0.00307192
0.000531526
0.000398656
0.000492859
0.00200824
0.00121134
0.000858668
0.003642
0.0010414
0.000879789
0.000710806
0.00123133
0.00148127
0.00179153
0.00131451
0.00213053
0.000422975
0.000498815
0.000843081
0.00094446
0.000196296
0.000967678
0.00129121
0.00159177
0.00148205
0.000315047
0.00040285
0.0003884
0.000108546
0.000348566
0.000521241
0.000467462
0.000769056
0.00111654
0.00124806
0.000177845
0.000152232
0.000141309
0.000202544
0.000179547
0.0001805
0.000159815
0.000165426
0.000212236
0.000401266
0.00033336
0.00205721
0.000705666
0.00227902
0.000673911
0.000678227
0.00250728
0.000824794
0.000920169
0.000790056
0.00255509
0.00105105
0.000934383
0.00133987
0.00113137
0.00260669
0.00111673
0.00134227
0.00108452
0.00156562
0.00147968
0.00271389
0.000789728
0.000559575
0.00140905
0.000976873
0.00134312
0.00180419
0.0033158
0.000608358
0.000702605
0.000625806
0.000721046
0.000464714
0.000355172
0.00041077
0.00376447
0.000675064
0.000570458
0.00105223
0.000629301
0.00108737
0.00149004
0.00155507
0.00146611
0.00185885
0.000349085
0.000421218
0.00047178
0.000628206
0.000411772
0.0005504
0.00142882
0.0019825
0.00188746
0.00189074
0.000485535
0.000367224
0.000542993
0.000378213
0.000183128
0.000406457
0.00051491
0.000568706
0.000523291
0.000904591
0.00106695
0.000216323
0.000171838
0.000104514
0.000174805
0.00020491
0.000193278
0.000165218
0.000152039
0.000169906
0.000184843
0.00044473
0.000330856
0.00216061
0.000761391
0.00209928
0.000809357
0.000728961
0.00224201
0.00071657
0.000698589
0.000850975
0.00247109
0.000797564
0.000715466
0.00072712
0.00066684
0.00260274
0.000749677
0.000774033
0.000852131
0.00118845
0.00125623
0.00282593
0.0011279
0.00131023
0.00102062
0.0013765
0.00176393
0.00212834
0.00225546
0.00101681
0.000906521
0.000855932
0.00127345
0.000803059
0.00053809
0.00116144
0.00342999
0.000794138
0.0005564
0.000611363
0.000675485
0.000508484
0.000510264
0.000629949
0.000793562
0.00320977
0.000678905
0.000738466
0.000888277
0.00084898
0.000723993
0.000732043
0.0012376
0.000994952
0.00109975
0.00217914
0.000369184
0.000376131
0.000475856
0.000353472
0.000398683
0.000151793
0.00104218
0.000818111
0.001952
0.00123192
0.00211142
0.00050241
0.000507202
0.000377372
0.000577775
0.000338263
0.000149302
0.000392757
0.000719819
0.000671862
0.000598091
0.000635762
0.00123204
0.000288463
0.000196872
0.000199147
0.000180106
0.000158805
0.000210308
0.000176167
0.000161787
0.000169802
0.000127121
0.00019008
0.000487962
0.000346548
0.00221986
0.000370039
0.00220988
0.000755276
0.000689576
0.00201957
0.000802172
0.000724275
0.000667722
0.00227496
0.000535541
0.000576315
0.000760018
0.000836289
0.0024104
0.000894781
0.00076453
0.000574523
0.000656817
0.00100362
0.00255073
0.000351326
0.000852245
0.00053879
0.00087718
0.00125515
0.000762588
0.00258061
0.00115968
0.00128503
0.00106891
0.000973
0.00144082
0.00150535
0.00171086
0.00228953
0.000494984
0.000810431
0.000647084
0.00143497
0.000991599
0.00118249
0.00148906
0.00109467
0.00364608
0.000760466
0.000503559
0.000409677
0.000537671
0.000619751
0.000605429
0.000448539
0.000680193
0.00117575
0.00328413
0.000555565
0.000570687
0.000767519
0.00112497
0.000954061
0.000880598
0.000942406
0.00120662
0.00102129
0.00125151
0.0022059
0.000508133
0.000429951
0.000188543
0.000460604
0.000542029
0.000336968
0.00029782
0.000986137
0.0010285
0.00213821
0.00207934
0.00131417
0.000598402
0.000439587
0.000581229
0.000403412
0.000682478
0.000289653
0.000102555
0.000442289
0.00120775
0.000717104
0.00065837
0.000807047
0.00128745
0.000135372
0.000251685
0.000244729
0.000143013
0.000169532
0.000169753
0.00020935
0.000177208
0.000158728
0.000273483
9.04525e-05
0.000170339
0.000447623
0.000363085
0.00237838
0.0005827
0.00218608
0.000352279
0.000501294
0.00221481
0.000511213
0.000687315
0.000502358
0.00208973
0.000748782
0.000701896
0.000704311
0.000728158
0.00224204
0.000544594
0.000822984
0.000439064
0.000671356
0.00072341
0.00243942
0.00068616
0.000707694
0.000389333
0.000789863
0.000579594
0.000820607
0.00233636
0.000600494
0.000771519
0.000730872
0.000588595
0.000840343
0.00121272
0.00126846
0.00236385
0.000733761
0.000822498
0.000878843
0.00100448
0.00109442
0.00121291
0.00172415
0.000894051
0.00249388
0.000766485
0.00056878
0.000842478
0.000713576
0.000778373
0.0017586
0.00145955
0.00126721
0.00114337
0.00313263
0.00118223
0.000808064
0.000322062
0.000785248
0.000537824
0.00102659
0.00111527
0.000692968
0.000780961
0.00231349
0.00321743
0.000740072
0.00048304
0.000531229
0.000679619
0.000560678
0.000914946
0.000711308
0.00129305
0.00129693
0.00121576
0.00146629
0.00232195
0.000646912
0.00042821
0.000752899
0.000317219
0.000463519
0.000400011
0.000492016
0.00043664
0.000947014
0.00107812
0.0023418
0.0010322
0.00192406
0.000274795
0.000535076
0.000409289
0.000576131
0.00041909
0.000751568
0.000221804
9.46714e-05
0.000492724
0.00099276
0.000773175
0.000704132
0.000946692
0.000849574
0.000183475
0.000126045
0.000225273
0.000113152
0.000182115
0.00014622
0.000173406
0.000202464
0.000175417
0.00019011
0.000337756
0.000161436
0.000160313
0.000414225
0.000351378
0.00221402
0.00055447
0.00221736
0.00038549
0.000313932
0.00220301
0.00045381
0.000433962
0.000504209
0.00209934
0.00041941
0.000669752
0.000694548
0.000559457
0.00204845
0.000732107
0.000582594
0.000459108
0.000562512
0.000752974
0.0023596
0.000381316
0.000683362
0.000399415
0.00050317
0.000531311
0.000630636
0.00243285
0.00067526
0.000756368
0.000476116
0.000750284
0.000626328
0.000769501
0.000616704
0.00229713
0.000517604
0.000886598
0.000534176
0.000662532
0.000881704
0.000830416
0.0010505
0.000910446
0.0022853
0.000735311
0.000659534
0.000708994
0.00102316
0.00131997
0.00106937
0.0014484
0.00123271
0.000951202
0.00249501
0.000842392
0.000560469
0.00047705
0.000680138
0.000702673
0.00101895
0.00231534
0.00101096
0.00101287
0.00133567
0.00265581
0.000552017
0.000940826
0.00101097
0.00037323
0.000445308
0.000980125
0.00109182
0.000703769
0.00036015
0.000881503
0.00142074
0.00311963
0.00102813
0.000732902
0.000655112
0.00071257
0.00091081
0.000977605
0.000845807
0.000635692
0.00132952
0.00129132
0.00172796
0.000737397
0.00261991
0.000868276
0.000563488
0.000709629
0.000608883
0.000278564
0.000470272
0.00074504
0.00036201
0.000457855
0.000864684
0.000954506
0.00115678
0.000805079
0.00247985
0.00046601
0.000380942
0.000625495
0.000404685
0.000532327
0.000396334
0.000566439
0.00024687
0.000127077
0.000497747
0.000478822
0.000850496
0.000794189
0.0010063
0.000633777
0.000164503
0.000141273
0.000139976
0.000199461
0.000129703
0.000182946
0.000283074
0.000204678
0.000243178
0.000194083
0.000221631
0.00032421
0.00024537
0.00020977
0.000358407
0.000322488
0.00221505
0.00034578
0.002128
0.000269383
0.000358455
0.00216815
0.000252695
0.000252511
0.000702393
0.00214048
0.000486039
0.00041204
0.000633388
0.000497534
0.00221115
0.000740095
0.000522255
0.000612739
0.000478062
0.000415654
0.00197459
0.000559587
0.00021989
0.000401753
0.000436219
0.000621227
0.000713014
0.00218787
0.000575501
0.000674451
0.000845875
0.000464257
0.000747076
0.00059107
0.000745983
0.00233611
0.000472134
0.0012378
0.000621944
0.00056155
0.00064243
0.000612239
0.000683802
0.000561519
0.00255137
0.000533562
0.000560544
0.000684524
0.000605231
0.000510616
0.000569789
0.000466959
0.00127022
0.000637683
0.00232123
0.000659712
0.000973991
0.000894381
0.00104582
0.000850731
0.000979835
0.00112724
0.00132775
0.00111417
0.000576344
0.00248018
0.000763367
0.000665398
0.00059996
0.000621845
0.000878017
0.000940442
0.0021721
0.000653742
0.000893254
0.00141129
0.00217976
0.00237492
0.00125768
0.00083748
0.000789395
0.000638887
0.000343193
0.00061348
0.000400643
0.000324193
0.00103346
0.00116086
0.00144115
0.0016089
0.0028455
0.00132355
0.00113682
0.000828432
0.000798999
0.00072156
0.000877007
0.000625529
0.000684185
0.000439635
0.00116989
0.00129248
0.00204726
0.000783375
0.00308492
0.000242519
0.000824352
0.000478962
0.000622448
0.000437588
0.000273948
0.00045375
0.000540958
0.000266499
0.000473921
0.000610524
0.0011045
0.000727906
0.00215605
0.00222498
0.000232018
0.000460027
0.000437714
0.00060355
0.000374472
0.000558762
0.000288488
0.000591784
0.00023829
0.000197924
0.000484673
0.000308108
0.000700007
0.000851495
0.00106089
0.000664993
0.000229253
0.000269258
0.000136754
0.000159689
0.000222843
0.000175846
0.000179541
0.000112597
0.000159265
0.000262482
0.000174183
0.000277711
0.000329751
0.000257461
0.000187673
0.000231119
0.000301769
0.00223838
0.000510175
0.00228188
0.000374475
0.000744564
0.00220131
0.000277629
0.000225557
0.000167384
0.00221251
0.000392221
0.000366075
0.000306364
0.00036279
0.00204026
0.000609193
0.000385525
0.000485533
0.000439631
0.00038698
0.00207463
0.000717481
0.00052526
0.000652531
0.000539979
0.000405342
0.000391405
0.00208721
0.000856064
0.00027956
0.000486897
0.000399041
0.000592681
0.000842326
0.000565354
0.00218156
0.00091481
0.000259823
0.000591384
0.000536068
0.000576477
0.000636816
0.000682155
0.000880806
0.00215939
0.000521844
0.000489196
0.000105538
0.000514185
0.000548562
0.000313173
0.000646328
0.000834055
0.00099474
0.00242612
0.000638775
0.000714864
0.000573699
0.000882229
0.000710036
0.000544329
0.000713866
0.000974682
0.000682696
0.000635336
0.00256961
0.000393871
0.000866238
0.000762942
0.000638962
0.000669474
0.000784517
0.00107927
0.00183563
0.00140932
0.00149966
0.000849838
0.00244399
0.000579876
0.000686702
0.000274991
0.000755412
0.000750955
0.000881293
0.000869414
0.00170084
0.00150601
0.00142185
0.00182892
0.00152821
0.00214224
0.00127957
0.000909188
0.000898087
0.000802241
0.000465675
0.000732491
0.000695859
0.00106907
0.000562103
0.000431856
0.00131533
0.00156298
0.00197451
0.00275111
0.00111378
0.000738434
0.0014609
0.000635167
0.000648287
0.000772032
0.000981948
0.000957448
0.000688913
0.000664037
0.000978124
0.00109838
0.00234477
0.0013842
0.0030513
0.000322714
0.000312234
0.000759411
0.000424056
0.000427607
0.000701152
0.000252208
0.000440719
0.000522992
0.000350258
0.000670936
0.000646915
0.00153913
0.000811241
0.0025583
0.00348124
0.00043216
0.000323978
0.000426929
0.000645671
0.00065726
0.000333257
0.00057311
0.000286428
0.000621323
5.6877e-05
0.000277183
0.000505844
0.0004861
0.000814577
0.000803753
0.00109764
0.000909871
0.000212805
0.000288391
0.000164934
0.000145434
0.000235304
0.000244753
0.000158175
0.000205275
0.000133213
0.000141382
0.000196198
0.000151337
0.000220153
0.000355934
0.000267498
0.000150163
0.000232854
0.00028956
0.00225922
0.000331001
0.00220804
0.000630334
0.000561134
0.00229274
0.000417155
0.000439483
0.000535485
0.00228542
0.000344223
0.00026322
0.000369265
0.000492443
0.00212202
0.000433726
0.000399452
0.000507555
0.000340633
0.000373586
0.00207001
0.000502587
0.000539025
0.000405698
0.000407898
0.000389418
0.000308656
0.00219139
0.000799436
0.000364869
0.00048722
0.000427642
0.000615122
0.000539188
0.00032983
0.00199942
0.000461238
0.000543479
0.000505218
0.000613823
0.000693851
0.000667498
0.0008488
0.000731481
0.0020522
0.000720738
0.000480133
0.00109382
0.000556585
0.000391708
0.000707465
0.000527123
0.000426729
0.000552453
0.00220485
0.000613381
0.00042001
0.00065596
0.000356188
0.000317058
0.000402021
0.000601017
0.000461895
0.000704224
0.00056686
0.00239974
0.000481786
0.000695196
0.000785399
0.000677354
0.000473288
0.00064966
0.000797528
0.000333638
0.000444614
0.000991416
0.000486813
0.00256935
0.000168024
0.000430551
0.000804852
0.000823066
0.000698768
0.000784224
0.00122514
0.00159663
0.00118879
0.000960698
0.00136285
0.000651591
0.00246935
0.000653574
0.00056504
0.000418438
0.000870433
0.00061889
0.000969078
0.000787615
0.00116699
0.000935479
0.0011861
0.000993926
0.000735607
0.00127504
0.00212044
0.000981583
0.00117841
0.000883693
0.000141034
0.000714223
0.000536088
0.000752833
0.000657372
0.00106769
0.00047899
0.000866212
0.00130038
0.000907922
0.00134675
0.0025009
0.00107404
0.00106546
0.000598804
0.00136376
0.000799995
0.000899112
0.000954156
0.000991333
0.00134247
0.00105197
0.000836943
0.00095689
0.000754883
0.00152246
0.00137468
0.00263991
0.000506975
0.000372568
0.000623008
0.00131488
0.000508177
0.000639708
0.000417144
0.000730683
0.000359838
0.00062866
0.000510967
0.00102471
0.000455972
0.00133665
0.00146976
0.00177939
0.00283753
0.000357586
0.000399955
0.000262504
0.00044178
0.000652732
0.000863041
0.000319936
0.000523198
0.000366701
0.000449042
0.000147953
0.000272871
0.000501859
0.000454987
0.0006886
0.000697315
0.00106103
0.00100116
0.000306464
0.000201117
0.00026368
0.000166944
0.000174276
0.00019386
0.000261685
0.000181393
0.000204261
7.31046e-05
0.000167642
0.000211835
0.000174877
0.000228473
0.000349953
0.000215443
0.000166166
0.00022445
0.000286766
0.00218851
0.000448021
0.00219995
0.000406193
0.000352275
0.00220047
0.000416891
0.000518759
0.000577887
0.00225325
0.000662996
0.000421348
0.000337712
0.000511129
0.0022726
0.000355841
0.000476823
0.000283808
0.000373549
0.000230883
0.00221367
0.000413037
0.00065313
0.000301846
0.000313697
0.000305006
0.000382807
0.00206823
0.000507498
0.000570592
0.000311537
0.000532334
0.000415318
0.000480358
0.000283317
0.00201834
0.000502671
0.000444888
0.000337692
0.000682599
0.000423405
0.000667899
0.000651628
0.000269485
0.00203092
0.000486801
0.000566308
0.000402311
0.000665864
0.00046519
0.000487465
0.000693802
0.000681095
0.00102419
0.00195692
0.000570695
0.000389818
0.000514427
0.000308273
0.000300407
0.000276366
0.000597705
0.000334658
0.000498128
0.000885152
0.00213833
0.000439092
0.000551397
0.000924538
0.000505419
0.000733746
0.000420672
0.000531898
0.000692597
0.000487524
0.000471991
0.00033731
0.00248676
0.000650248
0.000616274
0.000556067
0.000739383
0.000448544
0.000972826
0.00069721
0.000896496
0.000526129
0.000574919
0.000675806
0.000460742
0.00275517
0.000347308
0.000197111
0.000839255
0.000979923
0.000721112
0.000569791
0.000675257
0.00103418
0.00121954
0.00103832
0.000789634
0.000483216
0.000356879
0.00255074
0.00116076
0.000404017
0.000586141
0.000829709
0.00114091
0.000606217
0.000962974
0.000937814
0.00201596
0.000932645
0.000770171
0.00131978
0.000665552
0.000745369
0.00203567
0.000711995
0.00135489
0.000868548
0.000803099
0.000738021
0.000825274
0.00105115
0.000906218
0.000639767
0.000732627
0.00104149
0.00102793
0.00106635
0.00109938
0.00127328
0.00254912
0.000801051
0.000896161
0.00100652
0.00114939
0.00129084
0.000655071
0.000938022
0.000695443
0.000955131
0.00117802
0.00203408
0.000674395
0.000924159
0.00111974
0.000947949
0.00188984
0.0021561
0.000435436
0.000293737
0.000395157
0.000866611
0.000662394
0.00063772
0.000443788
0.00029434
0.000226828
0.000165414
0.000970437
0.000289423
0.00071377
0.000626514
0.000965831
0.00163044
0.00144367
0.00127456
0.000293556
0.000442073
0.000384654
0.000205583
0.00045277
0.00057262
0.000525234
0.000416807
0.000512131
0.000536054
0.000322595
0.000339534
0.000486945
0.000395772
0.000390645
0.000665304
0.000595318
0.00101762
0.000824477
0.000364888
0.000475931
0.000238987
0.000344749
0.000211849
0.000169649
0.000163203
0.000269182
0.000210842
0.000164032
0.000123042
0.000160725
0.000248612
0.000183583
0.000187881
0.000326156
0.000190676
0.000214697
0.000183177
0.000289669
0.0021189
0.00046939
0.00206267
0.000373444
0.000592769
0.0022035
0.000481097
0.000613064
0.000313856
0.0022838
0.000377152
0.000327713
0.000223508
0.000446143
0.00227402
0.000578243
0.000691577
0.000411065
0.000369115
0.000528444
0.0022161
0.000520894
0.00045683
0.00036164
0.000270594
0.000280636
0.000391819
0.00216912
0.000617578
0.00031376
0.000361334
0.000335138
0.000443841
0.000302996
0.000397797
0.00217636
0.000582012
0.000743974
0.000421361
0.000406998
0.000612764
0.000484711
0.000460713
0.000371468
0.00210055
0.0003584
0.000523847
0.000445792
0.000609442
0.000384235
0.000405604
0.000541583
0.000605234
0.000286128
0.0019839
0.000531804
0.00051394
0.000586192
0.000376022
0.00035499
0.000552838
0.000628501
0.000646179
0.000598399
0.00101833
0.00193295
0.000591194
0.000455737
0.000540504
0.000194239
0.000585658
0.000365937
0.000613456
0.000662013
0.000602199
0.000658176
0.000633561
0.00212705
0.000468851
0.000497368
0.000510234
0.000548356
0.000455271
0.000218956
0.000650019
0.000813923
0.000632197
0.000205754
0.000809674
0.00101885
0.00242375
0.000614843
0.000436367
0.000715342
0.000597864
0.000606815
0.000798432
0.00107407
0.000753392
0.000578283
0.000547347
0.00088632
0.00121417
0.000733573
0.00286698
0.00047338
0.00022681
0.000251488
0.000893163
0.00105026
0.000562248
0.00074436
0.00116011
0.000971727
0.00100054
0.000285634
0.00111686
0.000777544
0.000670553
0.00263387
0.0011621
0.00086249
0.000444138
0.000372914
0.00148015
0.00084688
0.000471588
0.00074246
0.00110505
0.00202992
0.000664845
0.00119978
0.00157738
0.00112176
0.000819417
0.00224464
0.00104643
0.000681545
0.00158886
0.00123989
0.000996702
0.00133722
0.000780589
0.000878323
0.00112889
0.00140477
0.0004149
0.000948094
0.00104193
0.00140653
0.0011094
0.00138154
0.00271878
0.000924684
0.00094432
0.00101248
0.000814296
0.00104122
0.00129541
0.00121168
0.000870579
0.00122684
0.00140715
0.00168362
0.00117321
0.000812048
0.00124193
0.0011809
0.000493346
0.00106491
0.00245021
0.000261754
0.000154607
0.000317254
0.000359021
0.00108608
0.0010164
0.000559799
0.000509939
0.000477474
0.000693733
0.000262378
0.000725322
0.000560523
0.000827168
0.000605239
0.00140052
0.00121639
0.00137799
0.00164163
0.000327548
0.000339464
0.000510133
0.00040563
0.000243559
0.000450676
0.000743443
0.000443288
0.000370297
0.000524112
0.000468978
0.000336421
0.000174034
0.000399456
0.000415709
0.000510526
0.00104849
0.000584238
0.000973775
0.000765272
0.000219368
0.000298298
0.000262008
0.000138154
0.000293848
0.00024539
0.000172449
0.000177919
0.000267914
0.000254088
0.000111579
0.000135607
0.000190817
0.000211539
0.000161479
0.00022126
0.000291541
0.000187247
0.000195524
0.000221757
0.000300378
0.00204515
0.000596747
0.00205738
0.000287345
0.000343708
0.00208769
0.000314055
0.00036835
0.000547241
0.00213202
0.000207685
0.000401165
0.000428816
0.000234893
0.00217994
0.000417554
0.000720896
0.000462915
0.000296108
0.000241525
0.00225547
0.000576933
0.000514455
0.000353395
0.000441814
0.000334193
0.000496353
0.00234977
0.000381227
0.000404133
0.000342647
0.000150952
0.000336976
0.000324037
0.000313988
0.00225727
0.000468008
0.00093877
0.000590528
0.000477398
0.000592006
0.000352598
0.00034152
0.000323327
0.00211709
0.00040524
0.000465845
0.000302108
0.000285608
0.000631433
0.000284257
0.000458872
0.00036606
0.000408821
0.00205785
0.000498146
0.000395197
0.00044508
0.000648046
0.000366854
0.000324626
0.000863109
0.00077065
0.000466683
0.000559118
0.00198086
0.000622359
0.000569638
0.000505635
0.000407878
0.000341692
0.000535994
0.000556122
0.00046192
0.00046218
0.000502076
0.000822366
0.00207578
0.000528092
0.000587705
0.000512001
0.000823946
0.000416115
0.000354745
0.000326705
0.000635474
0.000397975
0.000586733
0.000605438
0.000546994
0.00230737
0.000692428
0.000353322
0.000770105
0.000631959
0.000377939
0.000530616
0.000985594
0.000605753
0.00071448
0.000764631
0.000682966
0.000588651
0.000666354
0.00222412
0.000718261
0.000444795
0.000498033
0.000531227
0.000837255
0.000732534
0.000850072
0.00057312
0.000640132
0.000473184
0.000594764
0.000605495
0.000784341
0.000694166
0.00284938
0.000563695
0.00027951
0.000391273
0.000387245
0.000798301
0.000747663
0.000513048
0.000766819
0.000900273
0.000917374
0.000864904
0.00101284
0.000999753
0.000926566
0.000641732
0.00270879
0.000719695
0.000617938
0.000490559
0.000380574
0.00100369
0.00108587
0.000994002
0.000769983
0.000925578
0.00127595
0.00102071
0.00138181
0.00105238
0.000914083
0.00137014
0.00103055
0.00248692
0.000929647
0.00104723
0.000838625
0.000863256
0.000761963
0.000630715
0.00055576
0.00069573
0.000921775
0.00185183
0.00238342
0.00144573
0.000907703
0.00115457
0.000670492
0.00131579
0.00110841
0.00281628
0.000701425
0.000892451
0.000724385
0.0011546
0.000608579
0.00151481
0.000817255
0.000718637
0.000983768
0.000989777
0.00112497
0.00139943
0.00192659
0.000977621
0.00116712
0.000908247
0.000533671
0.000366871
0.00248771
0.000429977
0.000303703
0.000333643
0.00036428
0.000445914
0.000832483
0.000645994
0.000619885
0.00044818
0.000301446
0.000570896
0.000486133
0.0002647
0.000416361
0.000869394
0.000576781
0.00117489
0.00116562
0.000906417
0.00211716
0.000343416
0.000279823
0.000347419
0.000492469
0.000415336
0.000186381
0.000483282
0.000662537
0.00036667
0.000389263
0.000438997
0.00045212
0.00029122
0.00026519
0.000328589
0.00045838
0.000612845
0.0009434
0.00050805
0.000929153
0.000827791
0.000203817
0.000175909
0.000221568
0.000216859
0.000182723
0.000333888
0.00024839
0.000222855
0.000169541
0.00024894
0.000223206
0.000178228
0.000107501
0.000189718
0.000248092
0.000175106
0.000238611
0.000258446
0.000181776
0.000192365
0.000242109
0.00032039
0.002205
0.000461626
0.0020263
0.000364958
0.000533933
0.00206959
0.000270684
0.000211558
0.000533711
0.00205361
0.000374682
0.000357579
0.000321724
0.000203176
0.00217718
0.000390031
0.00016159
0.000325824
0.000361021
0.00036899
0.00222776
0.000256095
0.000732182
0.000664598
0.000411889
0.000383804
0.000378104
0.00222292
0.000335181
0.000493728
0.000326915
0.000626845
0.000361029
0.000273241
0.000400722
0.00229488
0.000459599
0.000792165
0.000525533
0.000280925
0.000215358
0.00027137
0.000132203
0.000391933
0.00224099
0.000335914
0.000623403
0.000279909
0.000403803
0.00040261
0.00041829
0.000312048
0.000335014
0.000373085
0.00213352
0.000556181
0.000418064
0.000440828
0.000353853
0.000620578
0.000351462
0.000395597
0.000506095
0.000326395
0.000289974
0.00207981
0.000485445
0.000389216
0.000427842
0.000373696
0.000624681
0.000245858
0.000626863
0.000472268
0.000557444
0.000364179
0.000717384
0.00194035
0.000412455
0.000520738
0.00057958
0.00063693
0.000443706
0.000485499
0.000401306
0.000574674
0.000438965
0.000497801
0.000403107
0.000584763
0.00196836
0.000535777
0.000437175
0.000592001
0.000355146
0.000454434
0.000374606
0.000316169
0.000434515
0.00051186
0.000717943
0.000372495
0.000838804
0.000557736
0.00214186
0.000515066
0.000496718
0.000585209
0.000720101
0.000734476
0.000498933
0.000517924
0.000416424
0.000601515
0.000529142
0.000318889
0.000692763
0.000477315
0.000540136
0.00227701
0.000289297
0.000669751
0.000473719
0.000684396
0.000736682
0.000884535
0.000747647
0.00075924
0.000951326
0.000888817
0.000503487
0.000703131
0.000654119
0.000898936
0.000707459
0.00279968
0.00128918
0.000638227
0.000213375
0.000148192
0.000623617
0.00081363
0.000460655
0.000824594
0.000953501
0.000545234
0.00109496
0.000846572
0.00112806
0.000849217
0.000560731
0.00061049
0.00295777
0.000496948
0.000358899
0.000795755
0.000486448
0.000788337
0.00119999
0.000712933
0.000583753
0.000850309
0.000825227
0.000866431
0.00109822
0.00105232
0.00088124
0.00119928
0.00118268
0.000986674
0.00240383
0.00107102
0.000825524
0.000675557
0.000953235
0.000877056
0.00108831
0.000670998
0.000965681
0.000761485
0.0010733
0.00131678
0.00150375
0.000962534
0.000901614
0.000959392
0.000792431
0.000914036
0.00134064
0.00275643
0.000615009
0.000791357
0.000974356
0.000911798
0.00105532
0.000703254
0.00118958
0.000756276
0.00100365
0.000868723
0.00124118
0.00102106
0.000833921
0.000839533
0.00125821
0.00112502
0.000871622
0.000553257
0.000321688
0.00238892
0.000407449
0.000370362
0.000468578
0.000533853
0.000338412
0.000316793
0.00100904
0.000998461
0.000395004
0.000412707
0.000487788
0.000420778
0.000307623
0.00039108
0.000717688
0.000660684
0.000619803
0.00109706
0.0014028
0.000928822
0.00179954
0.000155296
0.000248686
0.000216259
0.000360598
0.000418435
0.000362643
0.000181478
0.000431802
0.000551182
0.000328813
0.000383009
0.000480829
0.000427885
0.000289163
0.000212869
0.000436554
0.000281612
0.00059062
0.000686095
0.000492555
0.000877214
0.000853032
0.000346985
0.000389416
0.000211159
0.000223363
0.000146764
0.00033568
0.000159505
0.000203605
0.000202496
0.000264086
0.000164889
0.000251623
0.000151921
0.0001531
0.000120967
0.000185932
0.000246763
0.000168713
0.000230505
0.000232148
0.000192921
0.000178135
0.000220089
0.000334711
0.00225838
0.000515018
0.00224041
0.000219533
0.000443312
0.00205069
0.000344201
0.000303249
0.000464772
0.00207784
0.00035907
0.000379678
0.000277199
0.00034291
0.00207468
0.000284951
0.000519245
0.000238938
0.000285149
0.000364871
0.00212058
0.000484241
0.000437811
0.000712557
0.000322892
0.000425646
0.000459818
0.00219534
0.000313029
0.000410837
0.000443556
0.000343718
0.000398339
0.00041901
0.000417776
0.00225352
0.000477653
0.000248391
0.000342679
0.000476171
0.000403851
0.000484547
0.00031165
0.000340579
0.00224962
0.000504463
0.000479261
0.000579034
0.000552278
0.000261868
0.000586934
0.000297909
0.0002119
0.000369413
0.00224725
0.000489003
0.000410837
0.000465255
0.000523881
0.000336851
0.000434726
0.000288168
0.000411267
0.000259563
0.000327488
0.0021295
0.000445059
0.000475388
0.00029277
0.00034895
0.000527233
0.000535855
0.000761188
0.00073604
0.000434934
0.000264359
0.000359185
0.00203881
0.000417353
0.000550082
0.000575313
0.000354819
0.000476523
0.00045841
0.0003638
0.000596736
0.00024789
0.000431626
0.000267088
0.000488579
0.00196566
0.000661881
0.000504496
0.000762497
0.000394619
0.000733275
0.000372901
0.00046
0.000326053
0.000478907
0.000460742
0.000422188
0.000469182
0.000604447
0.00210352
0.000630879
0.000676868
0.000318931
0.000434763
0.000527038
0.000410543
0.000598692
0.000690477
0.000357133
0.000294166
0.00059196
0.000773827
0.000721229
0.00047105
0.00213197
0.000538864
0.000698766
0.000426508
0.000625999
0.000524358
0.000611513
0.000507009
0.00046244
0.000430379
0.000883833
0.000671964
0.000819372
0.000919769
0.000791815
0.000606127
0.00224926
0.000180186
0.000435928
0.000411744
0.000551979
0.000786124
0.00101344
0.00070916
0.000840553
0.00102833
0.000887411
0.000690558
0.000558437
0.00099987
0.000637498
0.000806383
0.000634896
0.00273884
0.000762873
0.000667749
0.000475982
0.000278839
0.00044274
0.00122462
0.00111704
0.00052912
0.000793875
0.00126475
0.00110714
0.001115
0.000709267
0.000779673
0.000611318
0.00101673
0.000925724
0.00292359
0.000672729
0.000432126
0.000867059
0.000948545
0.000331557
0.000358106
0.000785986
0.000709849
0.000380543
0.00118967
0.000575746
0.00134561
0.00153232
0.00165111
0.0018509
0.00129753
0.00111735
0.00149796
0.00242845
0.00117319
0.000929326
0.000811833
0.000592422
0.000922824
0.00141442
0.000944128
0.000843626
0.000954107
0.000717158
0.000612742
0.0023544
0.002228
0.00125699
0.00156212
0.000862351
0.00101415
0.00213155
0.00154296
0.00269477
0.000409948
0.000781497
0.000629339
0.000975599
0.000937455
0.00102779
0.000874651
0.00107911
0.00116064