/*--------------------------------*- C++ -*----------------------------------*\
  =========                 |
  \\      /  F ield         | OpenFOAM: The Open Source CFD Toolbox
   \\    /   O peration     | Website:  https://openfoam.org
    \\  /    A nd           | Version:  7
     \\/     M anipulation  |
\*---------------------------------------------------------------------------*/
FoamFile
{
    version     2.0;
    format      ascii;
    class       volScalarField;
    location    "8";
    object      p;
}
// * * * * * * * * * * * * * * * * * * * * * * * * * * * * * * * * * * * * * //

dimensions      [0 2 -2 0 0 0 0];

internalField   nonuniform List<scalar> 
18750
(
-69.7287
-69.6319
-70.2506
-69.7441
-69.5465
-70.3806
-69.6366
-70.9248
-70.2452
-69.7591
-65.856
-70.4195
-69.441
-71.1663
-70.4385
-69.7046
-71.4945
-70.9351
-70.2433
-69.7799
-60.6154
-67.4363
-66.2481
-72.3998
-70.2914
-70.0754
-71.2214
-71.1438
-70.4946
-69.7284
-71.6647
-71.5221
-70.9476
-70.2689
-69.803
-56.629
-65.0649
-60.457
-69.9511
-68.081
-66.4903
-72.5888
-72.2047
-70.1803
-69.7506
-71.5352
-71.3111
-71.1423
-70.564
-69.6766
-71.9606
-71.6922
-71.543
-70.9727
-70.3042
-69.8327
-53.8101
-59.5027
-55.8496
-65.4472
-65.3644
-60.4855
-71.2503
-69.7794
-68.3727
-66.2552
-71.7502
-72.7086
-72.0547
-70.2011
-69.2903
-71.9125
-71.6707
-71.4102
-71.196
-70.637
-69.6757
-72.1643
-71.9619
-71.7176
-71.5679
-71.0045
-70.3479
-69.8772
-51.3621
-52.679
-53.875
-59.3973
-59.9746
-54.8972
-66.5127
-65.7386
-65.5709
-60.8329
-69.8487
-71.4888
-70.0523
-68.4992
-66.2623
-71.5991
-71.9058
-72.6351
-71.7887
-70.2583
-69.0529
-72.5337
-72.0677
-71.8163
-71.4827
-71.1297
-70.6936
-69.5278
-71.9759
-72.2032
-71.9664
-71.7415
-71.5795
-71.0393
-70.3876
-69.9293
-49.7776
-51.043
-51.3106
-53.8296
-52.578
-53.955
-59.4997
-58.9256
-59.293
-54.664
-66.2672
-66.3425
-65.3014
-65.5319
-60.9624
-69.5591
-70.3984
-71.2903
-69.7371
-68.6166
-66.1953
-71.08
-71.7451
-72.0349
-72.4352
-71.2474
-70.2669
-68.9226
-72.7305
-72.638
-72.2001
-71.9193
-71.5046
-71.0128
-70.7277
-69.3486
-71.4881
-71.996
-72.2289
-71.9629
-71.7658
-71.5719
-71.0619
-70.4097
-69.9855
-48.6052
-49.7632
-49.83
-50.7629
-51.0458
-50.9085
-52.9907
-53.3357
-52.634
-54.15
-58.8731
-58.5754
-57.616
-58.8725
-54.8919
-65.2551
-66.7178
-66.0158
-64.5217
-64.6597
-60.6831
-68.3121
-69.8456
-70.5167
-71.0725
-69.2598
-68.1777
-65.773
-70.6542
-71.4519
-71.8495
-72.0647
-72.0883
-70.8477
-70.2308
-68.6779
-71.8068
-72.7956
-72.735
-72.2986
-71.9904
-71.5126
-70.9189
-70.7549
-69.1194
-71.2034
-71.5133
-72.0152
-72.2441
-71.9504
-71.7904
-71.5561
-71.0491
-70.4454
-70.0317
-47.9023
-48.6628
-48.6226
-49.6092
-49.6859
-49.7246
-51.3606
-50.6744
-50.9738
-51.0433
-53.013
-53.1803
-53.2922
-52.8348
-53.901
-58.3489
-58.5444
-58.427
-57.4129
-57.9918
-55.0833
-64.1941
-65.3638
-66.8179
-65.8542
-64.2253
-63.8042
-59.4901
-67.0539
-68.735
-70.23
-70.7218
-70.6705
-68.9267
-67.6872
-65.2039
-71.0695
-70.813
-71.6239
-71.9316
-71.995
-71.5415
-70.4849
-70.2823
-68.3171
-71.8361
-71.8136
-72.8753
-72.8252
-72.3921
-72.0506
-71.5041
-70.858
-70.754
-68.978
-70.4875
-71.2368
-71.5363
-72.0347
-72.2527
-71.9336
-71.8169
-71.5282
-71.0386
-70.5062
-70.0749
-47.5288
-47.9087
-47.9577
-48.6616
-48.6312
-48.6311
-49.8339
-49.6165
-49.6996
-49.8131
-51.8442
-51.3658
-50.6787
-50.7403
-51.1029
-53.4826
-53.464
-53.4969
-53.4178
-53.066
-53.956
-58.1227
-58.7521
-58.544
-58.0813
-57.4918
-57.3678
-55.4533
-63.507
-64.287
-65.6601
-66.603
-65.4127
-64.0009
-62.881
-59.079
-66.0476
-67.3275
-69.2884
-70.526
-70.6204
-70.0666
-68.2237
-67.183
-65.1931
-70.8424
-71.0271
-71.0479
-71.791
-71.9725
-71.7753
-71.0272
-70.2367
-70.2938
-67.8254
-71.067
-71.885
-71.7954
-72.948
-72.9009
-72.4813
-72.1277
-71.442
-70.8639
-70.7106
-68.8888
-69.7469
-70.5472
-71.2704
-71.5579
-72.056
-72.2571
-71.9252
-71.8435
-71.5112
-71.0451
-70.5801
-70.135
-47.1775
-47.493
-47.5295
-48.0478
-47.9572
-47.9779
-48.9026
-48.6908
-48.6645
-48.6203
-50.1243
-49.9051
-49.6503
-49.6463
-49.8875
-52.4199
-52.0105
-51.2799
-50.5823
-50.9239
-51.0638
-54.2564
-53.5821
-53.6132
-53.5663
-53.4967
-53.3916
-54.0865
-57.537
-58.3749
-58.7988
-58.2973
-57.8313
-56.9494
-57.828
-55.6547
-62.9233
-63.6767
-64.4417
-66.0414
-66.4208
-64.8628
-63.5856
-61.8305
-58.6578
-65.7342
-66.1633
-67.4776
-69.5241
-70.7006
-70.2924
-69.168
-67.5546
-66.243
-65.5658
-70.469
-70.8708
-70.9681
-71.1808
-71.9153
-71.9691
-71.4403
-70.5718
-70.1729
-70.036
-67.3161
-70.6945
-71.0847
-71.9269
-71.8081
-73.0103
-72.9626
-72.541
-72.1772
-71.348
-70.8891
-70.6239
-68.7428
-69.4551
-69.764
-70.6086
-71.3023
-71.5796
-72.079
-72.2624
-71.9303
-71.8447
-71.5112
-71.0508
-70.6591
-70.201
-46.9928
-47.2324
-47.1613
-47.5228
-47.5094
-47.5566
-48.1474
-47.9817
-48.0234
-47.9613
-49.1463
-48.9842
-48.7913
-48.6786
-48.6881
-50.4162
-50.1745
-49.8757
-49.775
-49.6999
-49.9331
-52.3345
-52.3843
-52.0118
-51.1634
-50.5019
-51.2336
-51.2282
-54.7769
-54.3199
-53.7884
-53.6097
-53.8833
-53.2089
-53.7976
-53.6823
-57.8494
-58.0807
-58.5537
-58.5151
-57.7723
-57.4411
-56.0605
-57.8839
-55.8792
-62.6804
-62.9669
-63.6559
-64.6245
-66.2954
-65.7551
-64.4518
-63.172
-61.703
-58.2546
-64.6411
-65.7718
-66.2192
-67.7582
-69.7078
-70.8293
-69.9302
-68.8725
-66.9251
-65.8421
-65.359
-70.1132
-70.4815
-70.8973
-70.9078
-71.3182
-71.9678
-71.9789
-71.2134
-70.221
-70.0693
-69.8456
-66.5416
-69.5721
-70.723
-71.0948
-71.9601
-71.8112
-73.0735
-73.0025
-72.5796
-72.2192
-71.2321
-70.9178
-70.4144
-68.6448
-68.268
-69.4753
-69.7682
-70.6598
-71.3298
-71.608
-72.1027
-72.2659
-71.9405
-71.8132
-71.5055
-71.0613
-70.7407
-70.2602
-46.6464
-46.9445
-46.9762
-47.2104
-47.1569
-47.1919
-47.5775
-47.576
-47.5737
-47.5891
-48.3477
-48.2113
-48.0197
-47.9386
-48.0231
-49.2986
-48.9759
-49.0131
-48.7474
-48.7719
-48.7466
-50.5108
-50.4257
-50.2733
-49.9518
-49.7638
-49.9143
-50.0324
-52.3535
-52.5716
-52.3548
-51.7934
-51.1379
-50.7387
-50.7576
-51.3686
-55.1595
-55.0475
-54.526
-53.7284
-53.7454
-53.7924
-52.9978
-54.2006
-53.3854
-57.932
-58.1488
-58.4013
-58.7054
-58.4097
-57.3893
-57.2647
-56.3002
-57.8608
-56.2009
-62.0745
-62.5563
-63.0076
-63.8054
-64.7484
-66.2102
-65.4679
-64.4149
-62.899
-61.9953
-58.2218
-63.8448
-64.7785
-65.8617
-66.361
-67.9646
-69.8299
-70.9732
-69.4712
-68.365
-66.24
-65.8338
-64.7326
-69.4163
-70.0097
-70.4504
-70.8991
-70.8315
-71.5212
-72.1119
-71.89
-70.9635
-70.0204
-69.9276
-69.3282
-65.7194
-68.2219
-69.6832
-70.732
-71.1634
-72.0033
-71.8123
-73.1389
-73.0223
-72.5994
-72.2328
-71.1215
-70.883
-70.1411
-68.6774
-67.3142
-68.2992
-69.4802
-69.7964
-70.6975
-71.3554
-71.6464
-72.1259
-72.2631
-71.9437
-71.7792
-71.4874
-71.0751
-70.819
-70.3197
-46.3147
-46.5871
-46.683
-46.9477
-47.0683
-46.9384
-47.2345
-47.2116
-47.1675
-47.2451
-47.745
-47.6713
-47.5536
-47.6532
-47.664
-48.4862
-48.3261
-48.2094
-48.0884
-47.9974
-48
-49.6354
-49.3116
-49.1989
-49.018
-48.8048
-48.8612
-48.8488
-50.8211
-50.7299
-50.436
-50.3006
-49.9447
-49.8786
-49.9592
-50.1297
-52.8133
-52.155
-52.4386
-52.2433
-51.8618
-51.3087
-50.9286
-51.5447
-51.4321
-55.0544
-55.2633
-54.997
-54.6168
-53.8328
-53.8364
-53.9979
-53.5352
-54.1727
-53.5098
-58.0931
-58.0821
-58.0812
-58.2966
-58.5913
-58.3238
-57.2738
-57.4751
-56.1333
-56.8721
-56.4397
-61.4413
-62.1948
-62.5178
-63.1696
-63.9452
-64.7927
-66.1665
-65.0179
-64.3571
-62.3418
-61.2614
-58.6168
-63.8992
-63.9224
-65.0771
-65.9758
-66.5087
-68.1159
-69.8964
-70.8984
-68.9942
-67.6887
-65.1506
-65.2842
-64.196
-68.3607
-69.2481
-69.8451
-70.4285
-70.9251
-70.7787
-71.5942
-72.2443
-71.7659
-70.6863
-69.7912
-69.8335
-68.4003
-65.513
-66.6737
-68.2757
-69.7436
-70.7403
-71.1439
-72.054
-71.8697
-73.2069
-73.0457
-72.604
-72.1767
-71.043
-70.8159
-69.8956
-68.8321
-66.9107
-67.338
-68.3347
-69.4964
-69.8481
-70.7319
-71.3804
-71.6895
-72.1597
-72.2556
-71.9431
-71.7504
-71.4714
-71.0973
-70.895
-70.3877
-46.1519
-46.2829
-46.3428
-46.6041
-46.6969
-46.6937
-46.9249
-46.9416
-46.909
-46.9636
-47.351
-47.2648
-47.2242
-47.2826
-47.2615
-47.8145
-47.7623
-47.7312
-47.7043
-47.6633
-47.6991
-48.5844
-48.5214
-48.3081
-48.2314
-48.1165
-48.0936
-48.1491
-49.7987
-49.4144
-49.3962
-49.229
-48.9973
-48.8836
-48.9752
-49.0115
-51.2016
-51.1577
-50.7438
-50.452
-50.2406
-50.1494
-50.0204
-50.1899
-50.1083
-52.9267
-52.7389
-52.8727
-52.5296
-52.1973
-52.0399
-51.5366
-51.0911
-51.8522
-51.669
-55.1404
-55.2806
-55.295
-55.0497
-54.6709
-54.1735
-53.7611
-54.1232
-53.5354
-54.3559
-53.7196
-57.8681
-57.9737
-57.9505
-58.3897
-58.5516
-58.7408
-57.9731
-57.061
-57.2124
-55.6931
-56.0755
-56.55
-61.7726
-61.4624
-62.2067
-62.7017
-63.3126
-63.8828
-65.1821
-66.0533
-64.925
-64.0383
-61.6025
-60.3481
-58.9903
-64.8118
-63.8153
-64.2582
-65.3436
-66.0707
-66.659
-68.2355
-70.064
-70.7604
-68.6223
-67.0671
-64.6663
-64.7132
-63.8894
-67.112
-68.3536
-69.1239
-69.7134
-70.4055
-70.9309
-70.7704
-71.6983
-72.2873
-71.6056
-70.3598
-69.7306
-69.6879
-67.6156
-65.549
-65.6921
-66.727
-68.3265
-69.8541
-70.7319
-71.1517
-72.1021
-71.9416
-73.2491
-73.0274
-72.5785
-72.1156
-71.0168
-70.7048
-69.7597
-69.0815
-67.2693
-66.9262
-67.3579
-68.3861
-69.5038
-69.8923
-70.768
-71.398
-71.7386
-72.2016
-72.2436
-71.9442
-71.7167
-71.4634
-71.1319
-70.9501
-70.4579
-45.9188
-46.1639
-46.1339
-46.3443
-46.2071
-46.3639
-46.6837
-46.6368
-46.8066
-46.7006
-46.9384
-46.9361
-46.9964
-46.974
-47.0545
-47.423
-47.3222
-47.3488
-47.2835
-47.3246
-47.3244
-48.0827
-47.9053
-47.8322
-47.7294
-47.6999
-47.7342
-47.7174
-48.5796
-48.689
-48.3947
-48.4059
-48.2891
-48.1464
-48.2594
-48.2757
-49.61
-50.0308
-49.636
-49.42
-49.2252
-49.0783
-49.0025
-49.1005
-49.1005
-51.3302
-51.174
-51.275
-50.9259
-50.5352
-50.3325
-50.3065
-49.9487
-50.2095
-50.1972
-53.0046
-52.7137
-52.7009
-52.6559
-52.542
-52.0096
-51.7327
-51.4116
-51.6953
-52.1411
-51.7601
-55.5992
-55.3339
-55.3781
-55.3699
-55.0092
-54.8417
-53.8223
-54.6535
-53.9387
-53.7088
-54.2777
-53.9353
-57.8535
-57.8823
-57.9155
-58.1674
-58.7428
-58.9004
-58.7519
-57.7641
-57.0217
-56.4776
-55.7979
-56.849
-56.6238
-62.0101
-61.6693
-61.6286
-62.237
-62.8107
-63.2801
-64.0764
-65.3259
-66.0575
-64.6299
-63.9746
-61.8935
-60.7013
-59.6179
-65.11
-64.6348
-64.0278
-64.6326
-65.5794
-66.2066
-66.854
-68.2106
-70.102
-70.4428
-68.3315
-66.9054
-64.4009
-64.512
-63.8713
-65.5483
-67.131
-68.323
-68.9687
-69.6348
-70.3085
-70.9907
-70.7953
-71.7951
-72.2655
-71.4036
-70.1124
-69.6834
-69.5294
-67.3527
-65.8091
-65.4629
-65.7352
-66.7803
-68.3896
-69.9578
-70.7249
-71.2037
-72.1591
-72.0369
-73.2726
-72.9851
-72.5526
-72.0483
-71.0032
-70.6176
-69.8351
-69.4779
-67.643
-67.2949
-66.972
-67.3833
-68.4368
-69.51
-69.9368
-70.8056
-71.4085
-71.7665
-72.2379
-72.2299
-71.9366
-71.677
-71.4553
-71.166
-71.0182
-70.5225
-45.7223
-45.9363
-45.9683
-46.1
-46.1125
-46.1561
-46.3445
-46.3594
-46.4036
-46.4047
-46.6721
-46.7013
-46.6984
-46.6992
-46.7424
-46.9853
-46.9992
-46.9422
-47.0005
-47.0095
-47.0299
-47.5452
-47.4222
-47.361
-47.3639
-47.3549
-47.3922
-47.3467
-48.1436
-48.0463
-47.9092
-47.8467
-47.7954
-47.7359
-47.8347
-47.8208
-48.8154
-48.9399
-48.6868
-48.5311
-48.4523
-48.3096
-48.2285
-48.2146
-48.4103
-49.8673
-49.8175
-49.4253
-49.6049
-49.4643
-49.3177
-49.1967
-49.1593
-49.1843
-49.0543
-51.3944
-51.2919
-51.2356
-51.1217
-50.8738
-50.5737
-50.3986
-50.3631
-50.2042
-50.36
-50.2874
-53.3715
-53.0902
-52.6823
-52.7093
-52.8511
-52.3816
-52.0792
-51.905
-51.9036
-52.0104
-52.4202
-51.8808
-56.0634
-55.5789
-55.4489
-55.4418
-55.3974
-55.0399
-54.434
-53.9772
-54.5371
-54.3635
-54.966
-54.6365
-54.122
-58.2653
-57.8564
-57.9102
-57.9695
-58.4686
-58.9386
-58.9887
-58.7071
-57.5267
-56.9217
-56.9426
-56.5929
-57.4993
-56.6512
-62.7427
-61.3462
-61.6277
-61.8284
-62.4873
-62.8239
-63.7721
-64.3
-65.6406
-65.8789
-64.5923
-63.3435
-61.356
-60.6597
-59.6853
-64.6457
-64.9833
-64.3144
-63.892
-64.6645
-65.6649
-66.3983
-67.1189
-68.5531
-70.0995
-70.0603
-68.0756
-66.3524
-64.4408
-64.3666
-63.9968
-64.8853
-65.5809
-67.1394
-68.2673
-68.731
-69.6743
-70.2701
-71.1403
-70.8074
-71.7979
-72.3141
-71.2795
-69.9174
-69.6375
-69.423
-67.6438
-66.6484
-65.5531
-65.535
-65.7941
-66.8274
-68.4285
-70.0472
-70.7379
-71.2554
-72.2113
-72.1705
-73.2561
-72.9433
-72.559
-71.9706
-71.0027
-70.612
-70.0066
-70.1184
-67.1545
-67.6567
-67.3242
-66.9901
-67.4175
-68.4823
-69.5129
-69.9794
-70.8636
-71.4287
-71.7686
-72.2633
-72.2108
-71.9254
-71.6401
-71.4472
-71.1974
-71.1226
-70.589
-45.5884
-45.748
-45.8026
-45.915
-45.9068
-45.9574
-46.1247
-46.1146
-46.1209
-46.1835
-46.2718
-46.3259
-46.4153
-46.3844
-46.4408
-46.6945
-46.6633
-46.6993
-46.7183
-46.7911
-46.7986
-47.0512
-46.9392
-47.0238
-47.0103
-47.0729
-47.0474
-47.08
-47.6105
-47.5353
-47.5373
-47.3399
-47.4208
-47.3668
-47.4611
-47.3888
-48.1674
-48.1444
-48.0825
-47.9465
-47.8797
-47.7101
-47.7794
-47.8736
-47.933
-48.967
-48.8858
-48.8006
-48.5796
-48.6496
-48.299
-48.369
-48.3571
-48.3379
-48.4653
-50.1199
-50.0093
-49.8477
-49.9264
-49.703
-49.5003
-49.4019
-49.3105
-49.2112
-49.112
-49.1487
-51.5612
-51.3778
-51.3155
-51.2876
-51.1217
-50.7795
-50.5216
-50.4982
-50.5394
-50.4586
-50.5444
-50.3083
-53.6334
-53.2736
-53.067
-52.9319
-52.7338
-52.6721
-52.4616
-52.1161
-52.0124
-52.1156
-52.2606
-52.5246
-51.8365
-56.2411
-56.0807
-55.6692
-55.444
-55.6185
-55.4753
-55.1029
-54.5648
-54.3427
-54.7199
-54.5628
-55.1868
-54.7422
-54.2331
-58.7005
-58.2214
-57.9668
-58.0626
-58.2106
-58.7619
-59.2782
-59.1953
-58.6275
-57.4343
-56.7743
-56.0422
-56.8393
-56.9716
-56.6479
-63.0119
-62.4674
-61.5943
-61.6841
-61.9055
-62.5332
-63.0686
-63.8762
-64.2518
-66.2272
-65.3988
-64.4675
-62.571
-60.3481
-60.3277
-59.2675
-63.9788
-64.6196
-64.7805
-63.9881
-63.8807
-65.0002
-65.816
-66.6827
-67.2141
-68.1681
-71.0819
-69.7611
-67.788
-66.3328
-64.7872
-64.3933
-63.8691
-64.4179
-64.9385
-65.618
-67.132
-68.1438
-68.6046
-69.6867
-70.2631
-71.1094
-70.8985
-71.874
-72.4722
-71.0546
-69.7534
-69.5825
-69.501
-68.0772
-67.6335
-65.8832
-65.5728
-65.6062
-65.8563
-66.8622
-68.4634
-70.1066
-70.7456
-71.2924
-72.2093
-72.3182
-73.3245
-72.9032
-72.5276
-71.8806
-70.9897
-70.6834
-70.2749
-70.844
-67.0029
-67.1042
-67.6758
-67.3374
-67.0038
-67.4569
-68.5113
-69.5089
-70.0201
-70.9309
-71.4474
-71.7698
-72.2771
-72.1942
-71.9195
-71.6077
-71.4431
-71.2379
-71.2227
-70.6633
-45.4806
-45.6348
-45.6501
-45.7993
-45.7097
-45.7834
-45.9189
-45.9005
-46.0078
-45.9653
-46.0892
-46.1099
-46.175
-46.1876
-46.2032
-46.3043
-46.3004
-46.4153
-46.3769
-46.4081
-46.4831
-46.7219
-46.7197
-46.7168
-46.6907
-46.7892
-46.8354
-46.7983
-46.9941
-47.0846
-47.0952
-47.0224
-47.0754
-47.0627
-47.0949
-47.0969
-47.6029
-47.4454
-47.6484
-47.4667
-47.3927
-47.3659
-47.4253
-47.4579
-47.5025
-48.3122
-48.2215
-48.1506
-48.0615
-47.9734
-47.8744
-47.8099
-47.893
-47.9829
-47.9725
-49.122
-49.0294
-48.9972
-48.7798
-48.7665
-48.6074
-48.2268
-48.463
-48.4728
-48.3765
-48.504
-50.3256
-50.1445
-50.0266
-49.965
-49.6815
-49.8006
-49.5672
-49.4409
-49.3348
-49.3264
-49.3165
-49.165
-51.7312
-51.4932
-51.4083
-51.3443
-51.2402
-51.0591
-50.7312
-50.4679
-50.5011
-50.7508
-50.2621
-50.5218
-50.3802
-53.8097
-53.5769
-53.3163
-52.9441
-52.7196
-52.7108
-52.6978
-52.4956
-52.2491
-52.342
-51.9529
-52.1423
-52.6299
-51.8472
-56.5835
-56.2442
-56.0446
-55.5909
-55.3699
-55.815
-55.3747
-55.0131
-54.6343
-54.5489
-54.6653
-54.2712
-54.7912
-54.7392
-54.3788
-59.238
-58.5894
-58.329
-57.942
-58.1383
-58.3874
-58.9583
-59.2524
-59.6525
-58.8497
-57.2522
-56.4937
-56.3814
-56.8638
-56.8249
-56.3214
-62.4106
-62.914
-62.2834
-61.697
-61.8092
-62.1996
-62.4336
-63.0036
-63.8636
-64.6983
-66.4436
-65.5794
-64.1547
-62.2275
-60.0766
-60.2614
-59.2146
-62.9248
-64.1485
-64.5527
-64.6456
-64.0598
-64.1172
-65.0514
-66.0293
-66.568
-67.3994
-67.975
-70.8385
-69.3799
-67.6606
-66.3396
-65.5409
-64.6695
-63.6271
-64.0379
-64.4566
-64.9796
-65.7061
-67.1152
-67.9402
-68.4967
-69.5245
-70.3598
-71.0647
-71.0322
-71.9586
-72.3106
-70.7876
-69.661
-69.6899
-69.9882
-68.9333
-68.6209
-66.037
-65.8652
-65.618
-65.67
-65.9078
-66.8913
-68.4545
-70.0977
-70.7738
-71.3432
-72.2176
-72.4542
-73.351
-72.8564
-72.4737
-71.7925
-71.0325
-70.7903
-70.6743
-71.6135
-67.0376
-66.9398
-67.055
-67.7029
-67.36
-67.0769
-67.5034
-68.5204
-69.5002
-70.0592
-70.9869
-71.464
-71.7997
-72.2911
-72.1821
-71.9057
-71.5777
-71.445
-71.2954
-71.2835
-70.7469
-45.3859
-45.4614
-45.5142
-45.6751
-45.6921
-45.6531
-45.7896
-45.8058
-45.741
-45.8039
-45.9984
-45.9531
-45.9436
-45.9986
-45.9956
-46.1375
-46.0732
-46.1381
-46.202
-46.207
-46.2421
-46.4114
-46.3183
-46.4675
-46.3929
-46.4075
-46.4546
-46.4489
-46.7635
-46.7221
-46.7418
-46.7334
-46.7673
-46.7902
-46.8535
-46.8571
-47.1627
-46.878
-47.1073
-47.0917
-47.0503
-47.1087
-47.1011
-47.1344
-47.1447
-47.7742
-47.6129
-47.5618
-47.5318
-47.4457
-47.5759
-47.4582
-47.4894
-47.5128
-47.545
-48.4625
-48.349
-48.2639
-48.193
-48.1019
-47.9661
-47.9475
-47.9768
-48.0014
-47.9783
-47.9901
-49.3141
-49.1768
-49.0893
-49.0184
-48.865
-48.7517
-48.5539
-48.7718
-48.5246
-48.527
-48.4578
-48.5009
-50.5795
-50.3119
-50.1588
-49.8571
-49.971
-49.8778
-49.7951
-49.5598
-49.5484
-49.4604
-49.4022
-49.2978
-49.2208
-52.0154
-51.7493
-51.5333
-51.471
-51.3847
-51.2221
-50.8701
-50.7903
-50.6553
-50.563
-50.6783
-50.3638
-50.5134
-50.3397
-54.0815
-53.8957
-53.5188
-53.1482
-52.6984
-52.6851
-52.8037
-52.834
-52.5296
-52.33
-52.3968
-52.1132
-52.368
-52.749
-51.9679
-56.7499
-56.5281
-56.2637
-55.9945
-55.4936
-55.686
-55.7988
-55.4024
-54.9765
-54.4161
-55.0436
-54.4552
-54.3621
-54.5848
-54.7197
-54.3928
-59.2903
-59.0069
-58.5623
-58.4489
-58.1592
-58.2082
-58.6414
-59.1823
-59.429
-60.0405
-58.9811
-57.3348
-56.8346
-56.8797
-56.6927
-56.6658
-56.099
-61.4164
-62.5544
-62.5709
-62.1062
-61.7408
-61.8688
-62.3229
-62.5494
-62.9629
-64.0689
-65.9146
-66.7876
-65.5694
-63.897
-62.1908
-60.1773
-60.6228
-59.0938
-62.6472
-63.1729
-64.2964
-64.5374
-64.5996
-64.0672
-64.3728
-65.147
-66.2572
-66.7155
-67.8229
-68.3479
-70.2339
-68.9102
-67.3844
-66.5626
-66.2176
-65.1078
-63.7704
-64.3561
-64.0018
-64.4198
-65.0498
-65.7732
-67.0759
-67.7846
-68.4151
-69.4139
-70.4251
-71.104
-71.2479
-72.067
-72.1747
-70.6023
-69.6622
-69.7572
-70.2847
-69.9831
-69.5297
-66.3471
-65.9895
-65.8534
-65.6457
-65.7426
-65.9565
-66.9091
-68.5147
-70.096
-70.8221
-71.3847
-72.2201
-72.5746
-73.3566
-72.8008
-72.4339
-71.7324
-71.0983
-70.9453
-71.1663
-72.4178
-66.9853
-67.0017
-66.8756
-67.0099
-67.7289
-67.3948
-67.1452
-67.5564
-68.528
-69.4914
-70.0935
-71.0336
-71.4829
-71.849
-72.3029
-72.167
-71.8814
-71.5481
-71.4542
-71.3516
-71.3164
-70.8529
-45.2717
-45.3837
-45.4165
-45.5291
-45.4959
-45.5144
-45.7065
-45.6821
-45.5844
-45.6786
-45.8685
-45.7516
-45.7874
-45.8492
-45.8182
-46.024
-46.0013
-45.9621
-45.998
-45.9898
-45.9923
-46.2591
-46.1246
-46.1464
-46.1835
-46.1704
-46.2346
-46.2792
-46.5491
-46.4556
-46.3864
-46.4144
-46.429
-46.4761
-46.4796
-46.4993
-46.8997
-46.7151
-46.7782
-46.764
-46.7275
-46.8176
-46.8387
-46.8408
-46.8288
-47.3588
-47.1552
-47.2915
-47.1372
-47.0855
-47.0932
-47.1118
-47.1528
-47.1489
-47.205
-47.8838
-47.794
-47.6904
-47.645
-47.5895
-47.5
-47.6097
-47.5298
-47.555
-47.6204
-47.5719
-48.5871
-48.4582
-48.3919
-48.2829
-48.1579
-48.1069
-48.0004
-48.1121
-48.0205
-48.0901
-47.982
-48.0107
-49.5593
-49.3662
-49.1887
-49.0771
-49.0622
-48.8727
-48.8056
-48.5922
-48.6917
-48.6153
-48.5802
-48.5192
-48.5385
-50.7639
-50.549
-50.2045
-50.1664
-50.0039
-50.0046
-49.9903
-49.7777
-49.5756
-49.4592
-49.4355
-49.3507
-49.3901
-49.287
-52.1682
-51.9983
-51.7417
-51.5835
-51.4087
-51.3384
-51.186
-50.9844
-50.7481
-50.7527
-50.736
-50.5904
-50.4114
-50.5202
-50.3038
-54.4798
-54.1952
-53.8839
-53.504
-53.0047
-52.737
-52.7429
-52.7818
-52.4107
-52.5824
-52.3967
-52.1389
-52.0698
-52.3117
-52.7514
-51.9935
-56.9245
-56.6596
-56.5726
-56.2636
-55.7877
-55.5803
-55.9508
-55.9168
-55.5629
-55.3224
-55.0213
-54.7737
-54.7375
-54.3011
-54.6103
-54.4583
-54.4331
-59.3332
-59.1031
-58.7574
-58.5092
-58.3662
-58.4287
-58.353
-58.7627
-59.5783
-59.8145
-60.3486
-58.9513
-57.4328
-57.3809
-57.2308
-56.0932
-56.2613
-55.9194
-60.9636
-61.6763
-62.6719
-62.3879
-61.8457
-61.6804
-61.9337
-62.1012
-62.5724
-63.1646
-64.0118
-66.1108
-67.2693
-65.526
-63.9878
-62.1418
-60.2686
-60.4606
-58.9526
-62.9827
-62.6955
-63.4234
-64.3797
-64.6008
-64.3233
-64.179
-64.6711
-65.26
-66.4727
-67.1055
-68.1188
-68.6936
-70.2679
-68.0831
-67.2134
-66.5003
-66.5941
-65.8812
-63.7786
-64.904
-64.2983
-63.9707
-64.3866
-65.1328
-65.8946
-66.7921
-67.6482
-68.3256
-69.5501
-70.3798
-71.0867
-71.4557
-72.0853
-71.9487
-70.3938
-69.6669
-69.9528
-70.9667
-71.1906
-70.7412
-66.6513
-66.3002
-65.9457
-65.8468
-65.6796
-65.8174
-66.0138
-66.9155
-68.5891
-70.0805
-70.8928
-71.4364
-72.2218
-72.6728
-73.3573
-72.7476
-72.4021
-71.7091
-71.19
-71.1199
-71.7164
-73.2895
-71.1832
-67.1432
-66.9701
-66.966
-66.8103
-66.9757
-67.744
-67.4395
-67.2062
-67.6083
-68.5326
-69.4887
-70.1306
-71.0748
-71.5024
-71.8976
-72.3041
-72.1521
-71.8535
-71.5218
-71.4693
-71.4031
-71.3728
-70.9681
-45.2324
-45.2183
-45.3296
-45.5255
-45.4118
-45.4168
-45.5265
-45.5301
-45.5074
-45.5295
-45.7303
-45.6761
-45.6596
-45.6847
-45.6854
-45.8743
-45.8496
-45.8081
-45.8627
-45.8195
-45.8335
-46.0973
-45.9945
-45.9172
-45.9769
-45.9946
-46.0148
-46.0335
-46.2698
-46.241
-46.2252
-46.2203
-46.2011
-46.2356
-46.2377
-46.251
-46.5639
-46.6392
-46.4559
-46.4212
-46.4566
-46.4209
-46.4602
-46.5221
-46.5294
-46.9588
-46.8118
-46.8293
-46.8026
-46.7741
-46.7335
-46.8836
-46.8611
-46.8409
-46.8715
-47.4003
-47.3712
-47.2735
-47.2136
-47.1337
-47.1463
-47.1896
-47.144
-47.2122
-47.2038
-47.2182
-48.0553
-47.902
-47.8315
-47.7553
-47.6738
-47.6195
-47.5745
-47.3254
-47.5489
-47.6285
-47.5607
-47.5892
-48.8362
-48.6363
-48.4273
-48.4487
-48.3119
-48.1457
-48.2122
-48.2085
-48.1522
-48.0899
-48.1406
-48.0666
-48.0512
-49.683
-49.5351
-49.1167
-49.232
-49.0957
-49.0162
-48.9246
-48.8481
-48.6402
-48.69
-48.6748
-48.5385
-48.6131
-48.5731
-51.02
-50.7821
-50.5337
-50.2682
-50.179
-50.0598
-49.9792
-49.8891
-49.7167
-49.5619
-49.4134
-49.2641
-49.3656
-49.4775
-49.3293
-52.5004
-52.2001
-52.0196
-51.7676
-51.5429
-51.316
-51.3591
-51.1988
-50.8642
-50.7191
-50.6784
-50.6617
-50.7484
-50.4769
-50.5549
-50.259
-54.5699
-54.5246
-54.2987
-53.8422
-53.405
-52.9684
-52.7715
-52.6528
-52.6112
-52.8578
-52.7097
-52.3112
-52.2549
-52.1999
-52.3044
-52.6184
-51.558
-57.1634
-56.9125
-56.8314
-56.6042
-56.2228
-55.6998
-55.7121
-55.9215
-56.0922
-55.8133
-55.4048
-55.3199
-54.8018
-54.6093
-54.105
-54.5391
-54.435
-54.7267
-59.2836
-59.4873
-59.0953
-58.6166
-58.3158
-58.1663
-58.4543
-58.5398
-59.0306
-59.8283
-59.9
-59.8133
-59.0176
-57.931
-57.8371
-57.2483
-55.6474
-56.1254
-55.5751
-61.0988
-60.9216
-61.9604
-62.7349
-62.1676
-61.4328
-61.7468
-61.977
-61.9788
-62.5187
-63.3594
-63.7922
-65.2208
-67.4932
-65.4804
-64.1503
-62.3332
-60.0219
-59.7659
-58.6629
-63.9581
-62.8809
-62.7309
-63.5709
-64.5278
-64.6647
-64.0814
-64.3241
-64.9607
-65.3912
-66.5723
-67.3742
-68.6209
-69.14
-70.3698
-67.4755
-67.372
-66.9675
-67.3812
-66.9183
-64.1264
-65.2975
-64.8549
-64.2575
-63.928
-64.4413
-65.2088
-66.0666
-66.7114
-67.6262
-68.2255
-69.5219
-70.5478
-71.0496
-71.7527
-72.0774
-71.84
-70.2427
-69.7947
-70.0445
-72.0985
-72.6875
-72.0267
-75.6268
-66.8866
-66.5819
-66.2369
-65.9109
-65.8314
-65.7366
-65.9009
-66.0812
-66.9448
-68.6346
-70.0558
-70.8895
-71.5178
-72.2631
-72.7651
-73.3402
-72.7063
-72.3605
-71.7214
-71.2827
-71.2983
-72.2956
-74.1788
-71.5427
-71.0734
-67.1856
-67.1275
-66.9439
-66.9378
-66.7464
-66.9578
-67.7715
-67.4918
-67.268
-67.6742
-68.5313
-69.497
-70.174
-71.0981
-71.5201
-71.9462
-72.3111
-72.1371
-71.8177
-71.5022
-71.4883
-71.4482
-71.4477
-45.0933
-45.2231
-45.2355
-45.2632
-45.3334
-45.3324
-45.4424
-45.5173
-45.423
-45.4279
-45.5599
-45.5173
-45.5392
-45.5307
-45.5714
-45.7455
-45.7324
-45.665
-45.6776
-45.6972
-45.6797
-45.8835
-45.8452
-45.7921
-45.827
-45.8564
-45.8308
-45.8523
-46.0709
-46.0871
-45.9327
-45.9931
-46.0002
-46.0035
-46.0364
-46.0451
-46.3429
-46.3228
-46.2286
-46.2268
-46.2028
-46.248
-46.263
-46.2558
-46.2664
-46.6842
-46.6081
-46.3466
-46.4642
-46.5171
-46.443
-46.4517
-46.5149
-46.5053
-46.5224
-47.0766
-46.9637
-46.8597
-46.9195
-46.8311
-46.8086
-46.8744
-46.8594
-46.8878
-46.9036
-46.928
-47.6174
-47.4749
-47.4189
-47.2945
-47.2695
-47.1459
-47.2156
-47.1167
-47.177
-47.2346
-47.2112
-47.2103
-48.2084
-48.0274
-47.8456
-47.9002
-47.7644
-47.7144
-47.6258
-47.651
-47.6029
-47.6097
-47.6716
-47.5984
-47.6409
-48.9722
-48.845
-48.5283
-48.5002
-48.362
-48.3491
-48.2243
-48.2807
-48.1032
-48.1479
-48.0957
-48.0599
-48.0214
-48.0709
-49.8397
-49.6123
-49.5061
-49.2143
-49.2098
-49.1142
-49.0406
-48.9632
-48.8144
-48.758
-48.6998
-48.5888
-48.5735
-48.6619
-48.5714
-51.2808
-51.0778
-50.7695
-50.4154
-50.3042
-50.1809
-50.0793
-50.0322
-49.9914
-49.5722
-49.5219
-49.3598
-49.3211
-49.4144
-49.5524
-49.3149
-52.6795
-52.4306
-52.2393
-51.974
-51.6702
-51.2409
-51.3669
-51.2832
-51.1926
-50.9078
-50.7624
-50.6994
-50.2988
-50.6121
-50.2002
-50.5607
-50.1663
-54.915
-54.8898
-54.4839
-54.1583
-53.7353
-53.1683
-53.0206
-52.7773
-52.6438
-52.59
-52.7886
-52.5472
-52.2905
-52.3428
-52.2512
-52.2158
-52.4065
-51.4737
-57.4016
-57.3132
-57.0065
-56.7171
-56.5903
-56.2786
-55.9585
-55.8921
-56.1917
-56.0208
-56.012
-55.4731
-55.2769
-54.5847
-54.3971
-54.3874
-54.4103
-54.521
-54.6018
-59.5908
-59.5088
-59.5552
-59.0736
-58.5553
-58.2465
-58.2754
-58.4349
-58.7138
-59.3272
-60.1292
-60.002
-59.9037
-59.3692
-57.8825
-58.5487
-57.5033
-55.1602
-55.3896
-55.2654
-62.0395
-60.8897
-61.0153
-62.2597
-62.6153
-61.9357
-61.2814
-61.8583
-62.2064
-62.0004
-62.5859
-63.3471
-64.3543
-65.5985
-67.8865
-65.4222
-64.3964
-62.4248
-60.0472
-59.6335
-58.4347
-64.6239
-63.7537
-62.761
-62.7868
-63.7533
-64.6328
-64.6455
-63.8444
-64.4792
-64.9151
-65.35
-66.6599
-67.4447
-68.7679
-69.4233
-70.2352
-67.1274
-67.8158
-67.6141
-68.2025
-68.2741
-64.3241
-76.225
-65.8797
-65.2497
-64.7951
-64.2225
-63.8772
-64.5673
-65.3571
-65.8628
-66.827
-67.5636
-68.154
-69.4929
-70.686
-71.1393
-71.882
-72.0326
-71.7766
-70.1486
-69.8919
-70.1523
-72.8642
-74.2289
-73.4773
-73.7609
-74.9502
-67.0292
-66.8302
-66.513
-66.17
-65.8873
-65.8129
-65.7857
-65.983
-66.1549
-67.0243
-68.6734
-70.0511
-70.9229
-71.5248
-72.3332
-72.81
-73.3039
-72.6708
-72.2956
-71.7294
-71.4154
-71.5017
-72.886
-71.5471
-71.4981
-66.9491
-67.1559
-67.1138
-66.914
-66.8954
-66.6843
-66.9519
-67.7938
-67.5534
-67.3339
-67.7449
-68.5238
-69.5154
-70.2171
-71.1161
-71.5378
-71.981
-72.3111
-72.121
-71.7754
-71.4865
-71.5109
-71.486
-45.1009
-45.0798
-45.2495
-45.2215
-45.2511
-45.3057
-45.2751
-45.3402
-45.3265
-45.3632
-45.4706
-45.4734
-45.435
-45.4593
-45.5368
-45.5407
-45.5155
-45.5177
-45.5648
-45.5575
-45.7951
-45.7608
-45.6829
-45.7157
-45.711
-45.7332
-45.7187
-45.9334
-45.9703
-45.8295
-45.9673
-45.8297
-45.8263
-45.8414
-45.8683
-46.232
-46.1247
-46.0145
-46.0536
-46.0159
-46.0503
-46.0464
-46.0233
-46.0379
-46.4583
-46.3288
-46.292
-46.2996
-46.253
-46.2871
-46.1786
-46.2524
-46.2607
-46.294
-46.8186
-46.7069
-46.5733
-46.5637
-46.4962
-46.4883
-46.4731
-46.5309
-46.5463
-46.5439
-46.5345
-47.2521
-47.0954
-47.0106
-46.9562
-46.9073
-46.8613
-46.8511
-46.759
-46.8713
-46.9092
-46.8893
-47.0116
-47.7434
-47.5895
-47.4764
-47.4154
-47.3243
-47.2392
-47.1938
-47.0074
-47.1865
-47.1954
-47.2789
-47.2492
-47.2532
-48.3403
-48.2276
-48.0659
-47.951
-47.887
-47.7778
-47.7277
-47.713
-47.6729
-47.6205
-47.6227
-47.6848
-47.6375
-47.6345
-49.139
-48.9589
-48.8421
-48.5447
-48.5102
-48.4019
-48.4265
-48.3046
-48.1456
-48.1501
-48.1384
-48.0121
-48.0586
-48.0913
-48.0337
-50.0856
-49.7387
-49.696
-49.3768
-49.2969
-49.1818
-49.0686
-49.0917
-48.9723
-48.8244
-48.7874
-48.6165
-48.5907
-48.6182
-48.683
-48.598
-51.5522
-51.1929
-51.0319
-50.7617
-50.4517
-50.239
-50.2557
-50.0534
-49.9523
-49.5761
-49.6308
-49.5371
-49.2955
-49.0852
-49.3698
-49.5811
-49.2891
-52.9356
-52.6422
-52.4514
-52.191
-51.7218
-51.5631
-51.302
-51.4204
-51.4252
-51.1462
-51.1426
-50.7278
-50.6292
-50.4253
-50.5028
-50.0972
-50.4316
-50.0209
-55.356
-54.9914
-54.9044
-54.4421
-54.0684
-53.6262
-53.1667
-52.9968
-52.6554
-52.772
-52.7852
-52.6338
-52.483
-52.3164
-52.1665
-52.2647
-52.3418
-52.3418
-51.4873
-57.7836
-57.4965
-57.3517
-57.0778
-56.7421
-56.6236
-56.1229
-55.9043
-55.9451
-56.3789
-56.089
-55.9502
-55.6176
-55.309
-54.8009
-54.5533
-54.5261
-54.125
-54.4168
-54.4208
-60.1955
-59.6703
-59.6902
-59.6867
-58.9784
-58.5449
-58.3737
-58.4884
-58.425
-58.903
-59.5785
-60.3169
-60.2516
-59.9908
-59.5385
-58.164
-58.6483
-57.4798
-54.7762
-54.8998
-55.0481
-63.1076
-61.8153
-60.8467
-61.3338
-62.5976
-62.6781
-61.3381
-61.1243
-62.0451
-62.2806
-61.9497
-62.5223
-63.7266
-64.6484
-66.1945
-67.787
-64.7421
-64.1688
-62.6785
-60.3256
-59.7541
-58.1012
-65.8508
-65.1476
-64.4448
-63.5525
-62.6086
-62.7772
-63.9142
-64.6869
-64.4997
-63.7537
-64.6143
-64.7977
-65.3037
-66.5676
-67.6794
-68.6794
-69.7016
-70.006
-66.8376
-67.7653
-67.9341
-69.2039
-69.4073
-64.5728
-78.6938
-74.9156
-66.5371
-65.8575
-65.1782
-64.7459
-64.2129
-63.9056
-64.6113
-65.4472
-65.6786
-66.8207
-67.4117
-68.1469
-69.6177
-70.7279
-71.2691
-71.8787
-71.962
-71.5143
-70.0228
-70.0279
-70.5239
-73.6275
-75.8385
-71.9368
-73.3723
-66.9287
-66.8732
-66.8075
-66.4546
-66.1109
-65.8642
-65.81
-65.8402
-66.0841
-66.2356
-67.1135
-68.687
-70.0852
-71.0174
-71.5947
-72.3943
-72.8364
-73.2482
-72.6237
-72.2329
-71.7624
-71.5462
-71.6683
-71.5769
-71.5195
-66.9332
-67.0399
-67.1292
-67.0999
-66.8972
-66.842
-66.6244
-66.9557
-67.8216
-67.6217
-67.4041
-67.8182
-68.5111
-69.5399
-70.2537
-71.1289
-71.5557
-72.0042
-72.2922
-72.1056
-71.7312
-71.4747
-71.5356
-45.0325
-44.9825
-45.1226
-45.2039
-45.2463
-45.2647
-45.2452
-45.2985
-45.3574
-45.3495
-45.3352
-45.3219
-45.5012
-45.4119
-45.5162
-45.4124
-45.4585
-45.4502