/*--------------------------------*- C++ -*----------------------------------*\
  =========                 |
  \\      /  F ield         | OpenFOAM: The Open Source CFD Toolbox
   \\    /   O peration     | Website:  https://openfoam.org
    \\  /    A nd           | Version:  7
     \\/     M anipulation  |
\*---------------------------------------------------------------------------*/
FoamFile
{
    version     2.0;
    format      ascii;
    class       surfaceScalarField;
    location    "8";
    object      phi;
}
// * * * * * * * * * * * * * * * * * * * * * * * * * * * * * * * * * * * * * //

dimensions      [0 3 -1 0 0 0 0];

internalField   nonuniform List<scalar> 
54125
(
-1.50733e-05
-3.84412e-05
-0.000470692
7.77991e-05
7.07537e-05
-0.000584631
-4.91961e-06
-3.92434e-05
-0.000797334
-1.69221e-05
-3.86635e-05
-0.000415106
9.98212e-05
-0.00015764
-0.00380857
6.32792e-05
8.85342e-05
-0.000725481
3.23e-05
9.24685e-05
-0.000726322
2.24759e-05
-4.93797e-05
-0.000951048
-3.89751e-06
-3.99559e-05
-0.000792144
-1.23264e-05
-3.79543e-05
-0.000364826
-0.000591575
0.000476186
-0.00677778
0.000189947
-0.000226335
-0.00405971
-1.11242e-06
-9.37602e-05
-0.0036814
4.97077e-05
-4.47028e-06
-0.00108645
5.53091e-05
0.000128268
-0.000820488
3.49188e-05
0.000100498
-0.000874065
-2.15053e-05
-6.07878e-05
-0.000682257
1.78372e-05
-5.06391e-05
-0.000958202
-4.5815e-06
-3.95389e-05
-0.000785978
-1.01088e-05
-3.74174e-05
-0.000317299
-0.00108872
0.000617408
-0.00847271
-4.87423e-05
0.000268247
-0.00470944
-0.000738769
0.000397925
-0.00643805
7.44449e-05
-0.000220546
-0.00359346
0.000192057
-0.000181394
-0.00410882
3.49951e-05
-6.96717e-05
-0.0036118
-3.4149e-05
-9.34182e-05
-0.000181888
5.34211e-05
9.52434e-06
-0.00100329
3.31238e-05
0.000157075
-0.00091477
0.000129543
0.000101914
-0.00111563
-4.02664e-05
-6.02118e-05
0.000259849
-1.72877e-05
-6.1441e-05
-0.000654167
9.2431e-06
-5.13886e-05
-0.000955595
-4.62364e-06
-3.9373e-05
-0.000779399
1.72236e-05
-3.8078e-05
-0.000296445
-0.00146157
0.000375219
-0.00600302
-0.000232232
0.000727909
-0.0064762
-0.00142786
0.000555397
-0.00833902
0.000236756
4.38388e-05
-0.00540402
6.00206e-05
0.000171286
-0.00435077
-0.000490766
0.000345847
-0.00625813
-0.00019231
-0.000158039
-0.00218141
4.11741e-05
-0.000230681
-0.00353193
0.000115633
-0.000164598
-0.00409641
0.000158885
-0.000105282
-0.00353586
-2.80965e-05
-0.000145607
-0.000722189
-1.52809e-05
-9.63369e-05
-7.80335e-05
4.00419e-05
1.88396e-05
-0.00089585
9.89217e-06
0.000165909
-0.00099328
8.8729e-05
8.79043e-05
-0.00127504
-3.10094e-05
-6.45897e-05
0.000727378
-3.76433e-05
-6.07552e-05
0.000296806
-1.25015e-05
-6.19747e-05
-0.00063108
2.6983e-06
-5.23315e-05
-0.000945335
4.54217e-06
-3.90474e-05
-0.000782971
3.65328e-05
-3.90249e-05
-0.000293953
-0.00141179
-0.000182103
-0.00455458
-0.00059011
0.00109489
-0.007713
-0.00164573
0.00045165
-0.0062368
0.000281829
0.000587768
-0.00680407
0.000373229
0.000566348
-0.00680036
-0.00126081
0.000430639
-0.00799962
-0.000104032
6.97524e-05
-0.00463204
0.000184273
-8.53259e-05
-0.0052905
0.000446664
0.000116398
-0.00445235
-0.000520285
0.000328967
-0.00590793
-0.000226385
-7.75811e-05
-0.00248494
-0.000148589
-0.000194385
-0.0020844
6.24139e-05
-0.000256873
-0.00346202
6.92214e-05
-0.000229443
-0.00403158
4.39057e-05
-0.000105891
-0.00338515
1.55476e-05
-0.000185416
-0.00147257
-1.49001e-05
-0.000148789
-0.00069248
2.53502e-05
-9.91244e-05
2.07884e-06
0.000100356
2.12474e-05
-0.000848846
2.80525e-05
0.00016258
-0.00109147
0.000206496
8.70753e-05
-0.00153208
-3.65186e-05
-6.74685e-05
0.00110876
-3.04914e-05
-6.44668e-05
0.000761581
-3.43489e-05
-6.20444e-05
0.000331225
-7.83195e-06
-6.25248e-05
-0.000613055
-3.49254e-06
-5.23556e-05
-0.000928534
1.41288e-05
-3.87245e-05
-0.000797401
4.67594e-05
-3.9919e-05
-0.000300793
-0.00137284
0.000192676
-0.00481889
-0.00065939
5.65083e-05
-0.00766151
-0.00136496
2.17103e-05
-0.00485706
0.00023814
0.000911569
-0.00832931
6.74384e-06
0.00149803
-0.0083929
-0.00149597
0.000291034
-0.00629267
0.000168696
0.000492374
-0.00674049
0.000365238
0.000318374
-0.00673706
0.000903605
0.000476536
-0.0073032
-0.00120302
0.000401799
-0.00771868
-0.000301973
-4.08486e-05
-0.00390703
0.000218175
-0.000111214
-0.00497291
0.000316633
-0.000379047
-0.00504928
0.000435702
2.75382e-05
-0.0045174
-0.000208576
0.000248887
-0.00590434
-8.5383e-05
-7.17668e-05
-0.00251456
-0.000154542
-0.000120819
-0.00241886
9.15474e-05
-0.000239857
-0.00216761
0.000283023
-0.000320723
-0.00355341
0.000312287
-0.000329576
-0.00409212
0.000123065
-0.00010864
-0.00319307
-6.95453e-05
-0.000201157
-0.00191848
2.94686e-05
-0.000187301
-0.00149402
1.83677e-05
-0.000151219
-0.000693102
7.21026e-05
-9.83483e-05
4.17401e-05
0.000144249
2.89897e-05
-0.000862998
4.86336e-05
0.000136072
-0.00117497
0.000232763
7.96435e-05
-0.00179773
-3.7312e-05
-6.66485e-05
0.00125061
-2.956e-05
-6.82608e-05
0.00114211
-2.28662e-05
-6.52045e-05
0.000787607
-3.16502e-05
-6.27512e-05
0.000363101
-5.73812e-06
-6.28525e-05
-0.00059682
-6.46207e-06
-5.24484e-05
-0.000908348
1.89388e-05
-3.8401e-05
-0.000817857
5.1599e-05
-4.03884e-05
-0.000312004
-0.0012119
-0.000145165
-0.00452207
-0.000657893
0.000315448
-0.00529512
-0.00131023
0.000104841
-0.00497846
-0.000121817
0.000652266
-0.00779926
-0.00064474
0.000345005
-0.00733332
-0.00124459
4.86204e-05
-0.00515706
0.000123969
0.000989481
-0.00841535
0.000390637
0.00123885
-0.00809553
6.30141e-06
0.00103577
-0.00824033
-0.00124796
0.000378466
-0.00662619
-7.89946e-05
0.000501559
-0.00678291
0.000638891
0.000391225
-0.00723406
0.000622205
0.000233471
-0.00679957
0.000917725
0.000601993
-0.00798542
-0.00086717
0.000411963
-0.00747205
-0.000131861
1.0376e-05
-0.00484699
3.31508e-05
-0.00017935
-0.00402659
0.000400753
-0.000406198
-0.00525497
0.000576781
-0.000451266
-0.00486423
0.00069537
9.24374e-05
-0.00474404
-0.000127603
0.000256716
-0.00591038
-0.00012522
-0.000117122
-0.00311509
1.13961e-05
-0.000113614
-0.00250369
-7.94042e-05
-0.00017424
-0.00238671
0.000200371
-0.000297721
-0.00231888
0.00034994
-0.000360462
-0.00372822
0.000371969
-0.000381019
-0.00414308
0.000282172
-2.20744e-05
-0.00322041
-5.11535e-05
-0.000181049
-0.00206056
-5.83501e-05
-0.000198265
-0.00187873
5.3669e-05
-0.000185338
-0.00153643
0.000101122
-0.000150205
-0.000774017
0.000101875
-9.61964e-05
5.93127e-05
0.000122219
2.70138e-05
-0.00088262
6.73193e-05
9.2692e-05
-0.0012364
0.000190988
6.16868e-05
-0.0019988
-2.51486e-05
-5.47611e-05
0.000608334
-3.403e-05
-6.71244e-05
0.0012835
-2.24093e-05
-6.90075e-05
0.00116833
-1.93252e-05
-6.54989e-05
0.00080968
-2.95571e-05
-6.36774e-05
0.000393483
-3.21817e-06
-6.34151e-05
-0.000582635
-7.71529e-06
-5.23484e-05
-0.000886686
1.86228e-05
-3.8595e-05
-0.000838274
4.08893e-05
-4.0296e-05
-0.000312597
-0.00118465
8.07299e-06
-0.00394033
-0.000882238
9.73322e-05
-0.00523664
-0.00115692
-8.80153e-05
-0.00458737
-0.000440054
0.000559472
-0.00594272
-0.000671203
0.000257685
-0.0054215
-0.00126497
6.24338e-05
-0.00502051
5.24062e-06
0.000957792
-0.00741183
3.98948e-05
0.000764462
-0.00786798
-0.000461814
0.000457466
-0.00727405
-0.00105918
-3.65123e-05
-0.00530933
1.74551e-05
0.00106045
-0.00884666
0.000347667
0.00108304
-0.00796832
0.000551254
0.00094642
-0.00793522
0.000136224
0.000824875
-0.00790523
-0.00115945
0.000446989
-0.0067809
-0.000157373
0.000579467
-0.00743423
0.000263906
0.000568368
-0.00719081
0.000588362
0.000308704
-0.0074969
0.00078502
0.000760963
-0.00716678
0.00080533
0.000653867
-0.00833728
-0.000705421
0.000451282
-0.00734552
-0.000179546
9.73725e-05
-0.00576584
-1.97143e-05
-9.91145e-05
-0.00489612
0.000153665
-0.000175454
-0.0044904
0.00039036
-0.000431037
-0.00546519
0.000584473
-0.000249827
-0.0047565
0.000755973
0.000248673
-0.00512
0.000382243
0.000208906
-0.00621936
-7.0762e-05
-9.7846e-05
-0.00443381
-1.77467e-05
-0.000128035
-0.00314127
4.18167e-05
-0.000186683
-0.0024794
0.000127606
-0.000277465
-0.00243345
0.000271247
-0.000302286
-0.00254643
0.00042311
-0.00040784
-0.00400229
0.000350419
-0.000327562
-0.00412069
0.000302924
3.50025e-05
-0.00336735
6.11067e-08
-0.000108653
-0.00118221
-5.40413e-05
-0.000176822
-0.00206199
-2.62875e-05
-0.000192283
-0.0018679
0.0001005
-0.00018318
-0.00162329
0.000124738
-0.000142954
-0.000881555
0.000109051
-8.81105e-05
6.21679e-05
8.86239e-05
1.10612e-05
-0.000897329
7.21316e-05
5.03741e-05
-0.00127859
0.000148071
1.17053e-05
-0.00211769
-4.9798e-05
-4.64685e-05
0.000972117
-2.29341e-05
-5.55859e-05
0.00061973
-3.14579e-05
-6.75036e-05
0.00131346
-1.80646e-05
-6.95877e-05
0.00119048
-1.70659e-05
-6.58326e-05
0.000828901
-2.79233e-05
-6.45223e-05
0.000422514
-4.72454e-06
-6.36447e-05
-0.000566614
-1.06193e-05
-5.22049e-05
-0.000862456
1.26158e-05
-3.96041e-05
-0.000851581
2.22e-05
-4.0136e-05
-0.000294661
-0.00140463
0.000110668
-0.00311775
-0.00112437
0.000124785
-0.00441758
-0.0012
2.47876e-06
-0.00389974
-0.000626782
0.000311988
-0.00519175
-0.000881488
9.97383e-05
-0.00521411
-0.00118182
-7.61811e-05
-0.00459435
-0.000151371
0.000752358
-0.00584332
-0.000290741
0.000547494
-0.00590189
-0.000520236
0.000208014
-0.00550866
-0.00112895
4.61596e-06
-0.00495535
2.16654e-05
0.00099551
-0.00694093
0.00016081
0.00101714
-0.00747766
7.85152e-05
0.000777204
-0.00771498
-0.000382619
0.000401645
-0.00719337
-0.00114346
4.12442e-05
-0.00536656
-0.000184048
0.000968732
-0.00869904
-3.19553e-06
0.00113896
-0.00863548
0.000365945
0.000986996
-0.00778647
0.000585097
0.000905096
-0.00781552
0.00027975
0.00084062
-0.00777329
-0.00109103
0.000529141
-0.00692443
-0.000200534
0.000757374
-0.00801583
-0.00015035
0.000651323
-0.00738655
0.000408725
0.000546857
-0.00768402
0.000565915
0.000808166
-0.00771966
0.000937889
0.000848678
-0.00771501
0.000709745
0.000743586
-0.00858335
-0.000344423
0.000456022
-0.00707487
-0.000193237
0.000216384
-0.00639597
-3.62915e-05
9.24799e-05
-0.00593889
-4.84885e-05
-9.4287e-05
-0.00488698
0.000248372
-0.000186609
-0.0048556
0.000425223
-0.0003735
-0.00549549
0.00060873
-2.08586e-05
-0.00467259
0.000834791
0.000461494
-0.00585696
0.000674272
0.000152395
-0.0067431
2.06366e-05
-6.64682e-05
-0.00499836
-0.000118272
-0.000104052
-0.00439357
1.41758e-05
-0.000165608
-0.00320281
0.000114897
-0.000270708
-0.00250055
0.000232693
-0.00031755
-0.00252614
0.000312459
-0.000286116
-0.00287156
0.000397146
-0.000333283
-0.00430509
0.000358258
-0.000239668
-0.00413215
0.000238052
0.000164372
-0.0036217
-4.89083e-05
-0.000100524
-0.001114
-9.31293e-06
-0.000105782
-0.00126688
-6.10593e-05
-0.000170548
-0.00205412
-1.90104e-06
-0.00018734
-0.00187991
0.000115092
-0.000175199
-0.0017232
0.000125455
-0.000126312
-0.000996733
0.000129212
-7.82694e-05
1.75618e-05
3.79846e-05
-1.33203e-05
-0.000882238
7.09641e-05
3.28208e-06
-0.00132852
0.000124008
-3.7134e-05
-0.00218236
-4.61552e-05
-4.77893e-05
0.00127557
-4.26727e-05
-4.67697e-05
0.00100597
-1.74427e-05
-5.53116e-05
0.00062498
-2.93143e-05
-6.74993e-05
0.00134068
-1.16047e-05
-6.99672e-05
0.00120622
-1.48379e-05
-6.63135e-05
0.00084553
-2.45721e-05
-6.50426e-05
0.000448484
-5.75601e-06
-6.34599e-05
-0.000549603
-1.3446e-05
-5.27946e-05
-0.00083582
1.1133e-05
-4.04139e-05
-0.000862436
5.48271e-06
-3.96956e-05
-0.000260448
-0.00150519
6.47145e-05
-0.00264231
-0.00122648
0.000164222
-0.00372703
-0.00140494
0.000133917
-0.00304672
-0.000832039
0.00033084
-0.00463203
-0.00100806
0.000121544
-0.00441007
-0.00122148
3.14644e-05
-0.00389153
-0.000356845
0.000531002
-0.00527236
-0.000494009
0.00033059
-0.00521934
-0.000902703
0.000149512
-0.00505734
-0.00112092
-2.00778e-05
-0.00458231
-6.68044e-05
0.00078673
-0.00516351
-6.38703e-05
0.000803152
-0.0058743
-0.00020859
0.000528047
-0.00593482
-0.000572487
0.000194023
-0.0055082
-0.0011387
-3.74844e-05
-0.00492263
1.65677e-05
0.000924909
-0.00671635
0.000150289
0.00102833
-0.00710561
4.70106e-05
0.00100527
-0.00738679
0.000135864
0.000717481
-0.00758158
-0.000242908
0.000401292
-0.00703076
-0.00106058
8.03829e-06
-0.00540505
-9.85887e-05
0.000907632
-0.00867591
-0.00020381
0.00111826
-0.00862488
3.25123e-05
0.00110518
-0.00837745
0.000469327
0.000994026
-0.00777882
0.000895952
0.000894987
-0.00782795
0.000260657
0.00084256
-0.00763762
-0.00108871
0.000539164
-0.00671931
-0.000183579
0.000862345
-0.00805376
-0.000198672
0.000736618
-0.00793875
-0.000269418
0.000809368
-0.00742813
0.000455323
0.000693137
-0.00777595
0.000532524
0.000935721
-0.007914
0.000843944
0.000940539
-0.00814718
0.000871138
0.000685636
-0.00884932
-8.12645e-05
0.000493
-0.00681234
2.20583e-05
0.000245143
-0.00656692
-0.000158624
0.000272586
-0.00653573
-3.85655e-05
0.000150061
-0.0061305
1.33066e-05
-6.69605e-05
-0.00490504
0.000272815
-0.000246386
-0.00502283
0.000483723
-0.000273218
-0.0054144
0.000829062
0.000253291
-0.0048963
0.000745858
0.000554114
-0.00664628
0.000863082
0.000194865
-0.007563
-7.06802e-05
-5.75148e-05
-0.00484825
-3.70636e-05
-0.000101401
-0.00497327
-6.25992e-05
-0.000111602
-0.00444603
-2.59094e-05
-0.000175692
-0.00327382
0.000172997
-0.000298115
-0.00257789
0.0003571
-0.000312647
-0.00273125
0.000384104
-0.000153111
-0.00330663
0.000380136
-0.000252386
-0.00463452
0.000429515
7.15718e-06
-0.00433349
0.00032886
0.000196891
-0.00402344
-2.34507e-05
-0.000134684
-0.000597869
-4.26544e-05
-9.93959e-05
-0.00112041
7.32212e-06
-0.000100494
-0.00136169
-6.04248e-05
-0.0001639
-0.00204645
2.45495e-05
-0.000181758
-0.0019095
0.000123689
-0.000163346
-0.00182469
0.000126465
-0.000107033
-0.00111901
0.000138679
-6.75216e-05
-7.26716e-05
1.29688e-05
-3.23805e-05
-0.00087299
9.0334e-05
-4.24411e-05
-0.00140241
0.000143715
-5.7733e-05
-0.00226286
-4.21548e-05
-5.05361e-05
0.000541445
-4.19626e-05
-4.77987e-05
0.00131856
-4.16992e-05
-4.60958e-05
0.00103846
-1.97024e-05
-5.50661e-05
0.000632249
-2.68174e-05
-6.72153e-05
0.00136475
-6.00236e-06
-7.02714e-05
0.00121618
-1.30189e-05
-6.62102e-05
0.000859717
-1.93552e-05
-6.58326e-05
0.000470212
-8.43338e-06
-6.3382e-05
-0.000530582
-1.75036e-05
-5.31309e-05
-0.000805599
3.54028e-06
-4.2188e-05
-0.000863484
-8.89833e-06
-3.91381e-05
-0.000212412
-0.00159237
0.000145265
-0.00251242
-0.00122602
0.000157575
-0.00330014
-0.00149805
4.69227e-05
-0.00259612
-0.00103533
0.000333001
-0.00413731
-0.000988701
0.000167939
-0.00378042
-0.00138821
0.000153028
-0.00303302
-0.000516479
0.000497441
-0.00457868
-0.000733174
0.000341448
-0.00461277
-0.00105333
0.00015379
-0.00438177
-0.00117334
2.79966e-05
-0.0038671
-0.000242068
0.000719392
-0.00528682
-0.000221984
0.000486086
-0.00526974
-0.000448161
0.000364697
-0.00519495
-0.000832398
0.000177122
-0.00499462
-0.00113674
-4.29066e-05
-0.00454136
9.8611e-05
0.000755429
-0.00495891
0.000264904
0.000825098
-0.00530007
-0.000160336
0.000777662
-0.00591656
-0.000168969
0.000557307
-0.00599327
-0.000476599
0.000141713
-0.00545371
-0.00105606
-6.89724e-05
-0.00485818
3.04291e-05
0.000854525
-0.00669263
6.38618e-05
0.000756985
-0.00671267
6.24963e-05
0.0010022
-0.00713252
4.8525e-05
0.000969764
-0.00721827
0.000340318
0.000692977
-0.00731763
-0.000256771
0.000337143
-0.00684243
-0.0010769
0.000208978
-0.00562584
9.75222e-05
0.00099324
-0.00857576
-7.04922e-05
0.000930448
-0.00861628
-0.000357161
0.00114187
-0.00857384
6.57425e-05
0.00112768
-0.00812152
0.000484843
0.00105105
-0.0078872
0.00106423
0.000869665
-0.00807534
0.000721934
0.000898501
-0.00784775
-0.000951122
0.000555861
-0.00640532
6.71518e-05
0.000718463
-0.00768833
-0.000126301
0.000825519
-0.00817498
-0.000236509
0.000928404
-0.00785984
-6.79249e-05
0.000793557
-0.00744732
0.000365125
0.000834642
-0.00776718
0.000469386
0.000942738
-0.00790187
0.000862105
0.000868253
-0.00836284
0.000567178
0.000754136
-0.00893177
0.000457282
0.000514117
-0.00692065
8.2584e-05
0.000161726
-0.00612168
-2.46481e-06
0.00024117
-0.0065701
-0.000122057
0.000341083
-0.00666729
-0.000219244
0.000185555
-0.00618968
5.39107e-05
-7.02472e-05
-0.00496209
0.000449436
-0.000265838
-0.00512255
0.000509519
-0.000105919
-0.0051806
0.000830217
0.000388279
-0.00518054
0.000874177
0.000390946
-0.00728702
0.000769195
0.000243881
-0.00824721
-0.000101272
-4.54417e-05
-0.00523149
-3.39202e-05
-9.58804e-05
-0.0048625
-6.81978e-05
-0.000126818
-0.00488253
-4.01229e-05
-0.000110543
-0.00453148
3.11607e-05
-0.000181688
-0.00339686
0.000174095
-0.000297629
-0.00264331
0.000386694
-0.000247838
-0.00289675
0.000409051
-6.90054e-05
-0.00376038
0.000391056
-0.000161918
-0.00484353
0.000433011
0.000151111
-0.00463038
0.000470645
0.00019247
-0.00454284
-3.67461e-05
-9.61101e-05
-0.00102371
-2.49437e-06
-0.00013046
-0.000606272
-3.45694e-05
-9.86371e-05
-0.0011294
-1.1926e-05
-9.65086e-05
-0.00143686
-6.40252e-05
-0.000158202
-0.0020328
3.32422e-05
-0.000176227
-0.00193586
0.000123421
-0.000152595
-0.00191557
0.000126404
-8.49223e-05
-0.00124736
0.000133922
-4.36095e-05
-0.000203798
-9.2951e-06
-4.28536e-05
-0.000880786
0.000175771
-7.96602e-05
-0.00155271
0.000211785
-6.47917e-05
-0.00241875
-9.49647e-05
-4.09802e-05
-0.000109869
-4.42469e-05
-5.12501e-05
0.000589143
-3.94991e-05
-4.88451e-05
0.00136081
-3.48957e-05
-4.61464e-05
0.00106443
-2.01049e-05
-5.34438e-05
0.000638583
-2.29025e-05
-6.71022e-05
0.00138448
-8.18112e-07
-7.05076e-05
0.0012213
-8.88385e-06
-6.6877e-05
0.000869645
-5.78899e-06
-6.64295e-05
0.000479048
-1.18261e-05
-6.40021e-05
-0.000507885
-2.16416e-05
-5.39485e-05
-0.000772197
-9.71843e-06
-4.35082e-05
-0.000849396
-2.99738e-05
-3.89249e-05
-0.000143513
-0.00170165
5.59e-05
-0.00235675
-0.00127371
0.000208006
-0.00307646
-0.00159302
0.000131187
-0.00254865
-0.00123856
0.000403189
-0.00363852
-0.0010284
0.000117483
-0.003331
-0.00149559
9.67804e-05
-0.00258552
-0.000717866
0.000500087
-0.00435041
-0.000827966
0.000293984
-0.00416856
-0.00102373
0.000176647
-0.00383363
-0.00135916
0.000167851
-0.00301505
-0.000243311
0.000608464
-0.00469386
-0.000378485
0.000448824
-0.00452956
-0.000688642
0.000326846
-0.00454534
-0.000920907
0.000202378
-0.00446764
-0.00123267
3.02609e-05
-0.00380143
-8.48435e-05
0.000823864
-0.00510631
1.38318e-05
0.000610615
-0.00516028
-0.000351914
0.000508473
-0.00522194
-0.000407871
0.000351984
-0.00513091
-0.000752294
0.000170164
-0.004932
-0.0010683
-5.89354e-05
-0.00447018
-7.1761e-05
0.00082932
-0.00512434
0.000279819
0.00081833
-0.0051681
5.13982e-05
0.00084051
-0.00535182
-0.000178391
0.000757609
-0.00588995
-0.000209402
0.000586549
-0.00588839
-0.000342503
8.31255e-05
-0.00552007
-0.00104034
-0.000158622
-0.00473611
0.000381665
0.000859297
-0.00651986
0.000246516
0.000518646
-0.0067713
-8.4345e-06
0.000779302
-0.0068385
-4.05163e-05
0.000994936
-0.00705144
8.41734e-05
0.000970406
-0.00709503
0.000342459
0.000667756
-0.00692647
0.000209622
0.000456943
-0.00657809
-0.00114731
0.000239821
-0.00566947
0.000342211
0.000994081
-0.0079919
4.20292e-05
0.000730143
-0.00854379
-0.00021782
0.00104439
-0.00853749
-0.000266205
0.00118248
-0.00843035
2.8696e-05
0.00119909
-0.00793312
0.000351773
0.00102986
-0.00792979
0.000639883
0.000969947
-0.00792456
0.000291808
0.000834403
-0.00785092
-0.000691716
0.000597935
-0.00585425
0.000261107
0.000628228
-0.00727848
3.81517e-05
0.000794304
-0.00769773
-0.000222342
0.000909036
-0.00805533
-0.000351962
0.000880958
-0.00781452
1.94189e-05
0.000907465
-0.00748565
0.000335465
0.00096282
-0.00767329
0.000501296
0.000933719
-0.00795911
0.000835894
0.000917706
-0.00853209
0.000535076
0.000771503
-0.00885006
0.000386256
0.000533649
-0.00707136
-0.000140699
0.00020509
-0.00565351
0.000118077
0.000128183
-0.00616069
-8.514e-05
0.000218433
-0.00643051
-0.000122385
0.000349158
-0.00674863
-0.000200793
0.000160413
-0.00618838
-5.14246e-06
-8.08029e-05
-0.00496789
0.000444047
-0.000176112
-0.00510971
0.000444648
3.38932e-05
-0.00486181
0.000883558
0.000370614
-0.00565271
0.000947328
0.00034386
-0.00790131
0.000601183
0.00023488
-0.00861263
-5.73576e-05
-7.55296e-05
-0.00546179
-5.11884e-05
-5.74868e-05
-0.00522119
-1.99033e-05
-0.000117054
-0.00488693
-9.14579e-05
-0.00013926
-0.00477428
-0.000179011
-0.000128886
-0.0044693
0.000104067
-0.000179104
-0.00358621
0.000206786
-0.000260842
-0.00271367
0.000357976
-0.000165499
-0.00303183
0.000425226
-6.6285e-05
-0.00414732
0.000419906
-0.000139614
-0.00498201
0.000449106
0.000294805
-0.00500605
0.000624461
0.000167012
-0.00512253
-6.45034e-05
-3.3515e-05
-0.00193949
-1.23781e-05
-9.09917e-05
-0.00109505
-4.68537e-05
-0.000125751
-0.000571804
-3.99049e-05
-9.65182e-05
-0.00112438
-6.22798e-06
-9.1309e-05
-0.00151763
-6.38732e-05
-0.000149025
-0.00201903
3.48282e-05
-0.000171732
-0.00195237
0.000127436
-0.000141982
-0.00199483
0.000145576
-4.62342e-05
-0.0013961
0.000121984
-1.23568e-05
-0.000368104
8.3456e-06
-5.76601e-05
-0.000932774
0.000260033
-9.65754e-05
-0.00179068
0.000130706
-5.46871e-05
-0.00252475
-0.000101639
-2.24246e-05
-0.001235
-9.4817e-05
-4.21879e-05
-2.41145e-05
-4.11493e-05
-5.21859e-05
0.000633633
-3.72547e-05
-4.89703e-05
0.00140089
-3.76093e-05
-4.50143e-05
0.00109361
-2.55702e-05
-5.38035e-05
0.000650854
-1.89918e-05
-6.7157e-05
0.00140012
4.52465e-06
-7.08047e-05
0.0012207
-6.28969e-06
-6.73325e-05
0.000876838
1.18652e-05
-6.74506e-05
0.000470632
-1.57485e-05
-6.48339e-05
-0.000481251
-2.64237e-05
-5.52961e-05
-0.000733985
-2.38634e-05
-4.48688e-05
-0.000819589
-4.39615e-05
-3.9328e-05
-6.02239e-05
-0.00164808
-7.48287e-05
-0.00247097
-0.00142259
0.000234655
-0.00308385
-0.00173642
0.000128019
-0.00234137
-0.00126858
0.000233246
-0.00338596
-0.00107392
0.000204573
-0.00310433
-0.00161623
5.85825e-05
-0.00248659
-0.000883638
0.000529798
-0.00390086
-0.00106074
0.000374036
-0.0036623
-0.00103954
0.000128689
-0.0033471
-0.0015108
0.000145721
-0.00257961
-0.000536324
0.000685462
-0.00437965
-0.000643867
0.000500969
-0.00429201
-0.000769539
0.000305398
-0.00421641
-0.00097095
0.000216907
-0.00383265
-0.00129081
0.000146043
-0.00310296
-0.000184505
0.00076827
-0.00486389
-0.000195007
0.000591992
-0.00462819
-0.000439059
0.000417479
-0.00453304
-0.000572099
0.000320744
-0.00449948
-0.000870939
0.000144199
-0.00446293
-0.00112443
1.41237e-05
-0.00375943
-0.000155528
0.00090422
-0.00511179
-5.4911e-05
0.000772774
-0.00493374
-0.000117722
0.000628566
-0.00511125
-0.0003687
0.000492723
-0.00517237
-0.000415624
0.000336574
-0.0050911
-0.000626563
0.000204008
-0.00491088
-0.00106483
-5.00796e-05
-0.00439562
0.00028335
0.00101705
-0.00528453
0.000414877
0.0008257
-0.00530007
0.000179601
0.000801892
-0.00531752
5.29572e-05
0.000808977
-0.00549666
-0.000131308
0.00071965
-0.00580757
-0.000305227
0.00051589
-0.00567346
-0.000415952
6.72509e-05
-0.00512037
-0.00114085
-0.000147674
-0.0045949
0.000425667
0.000986225
-0.00622306
0.000251258
0.000606528
-0.00681697
4.17483e-05
0.00061645
-0.00686802
-0.000102111
0.000822035
-0.00682969
-0.000148243
0.000962978
-0.00686707
3.25421e-05
0.000796571
-0.00690462
-4.23149e-06
0.000640439
-0.00646586
-0.000152084
0.000497084
-0.00639146
-0.00108696
0.00024672
-0.00552095
0.000214784
0.0010392
-0.00732504
7.20728e-05
0.00073145
-0.00802713
-0.000213948
0.000892065
-0.00839986
-0.000310272
0.00108278
-0.00847948
-0.000185622
0.00120981
-0.00823604
-0.000172211
0.00116351
-0.00755909
0.000283853
0.00107269
-0.00781508
0.000925767
0.000969237
-0.00814927
3.0351e-05
0.00073243
-0.00748069
-0.000604087
0.000577515
-0.00544143
5.02117e-05
0.000754032
-0.00655103
0.000274651
0.000647951
-0.0072887
-3.8488e-05
0.000948641
-0.00778399
-0.000256694
0.000904754
-0.00794481
-0.000427822
0.00101224
-0.00769227
-0.000250057
0.00105856
-0.00733647
0.000331834
0.000985074
-0.00761243
0.000326332
0.0010663
-0.00798939
0.000686941
0.000986675
-0.00855064
0.000371184
0.000674479
-0.00841474
0.000128785
0.000491436
-0.0070904
-0.000113801
8.73659e-05
-0.00588066
-8.18119e-05
0.000170391
-0.00566509
5.74054e-05
0.000147496
-0.00616706
-0.000131437
0.000231017
-0.00627239
-0.000283202
0.000321106
-0.00680513
-9.65866e-05
0.000147706
-0.00621624
0.000199742
5.45071e-06
-0.00514241
0.000386388
-3.4769e-05
-0.00506946
0.000457727
0.000214642
-0.00473834
0.00107573
0.000526958
-0.00649163
0.000951663
0.000352073
-0.00852106
0.000405049
0.000279242
-0.00867246
7.39828e-05
-0.000224313
-0.00519655
-4.61833e-05
-8.17072e-05
-0.00540376
-0.000156027
-9.8035e-05
-0.00513103
-6.85625e-05
-0.00013346
-0.00486407
-0.000118402
-0.000147457
-0.00464354
-5.09033e-05
-0.00013793
-0.00452344
-1.30187e-05
-0.000168669
-0.00363053
0.000262674
-0.000229625
-0.00278478
0.00036325
-0.000107543
-0.00320825
0.00045989
-5.00018e-05
-0.00457484
0.000453371
-2.27876e-05
-0.00510944
0.000540544
0.000319745
-0.0054393
0.000490534
0.00025844
-0.0057408
-0.000135464
-3.7966e-05
-0.00139302
-1.96692e-05
-3.07095e-05
-0.00207492
-3.10323e-05
-9.23438e-05
-0.00113857
-5.48094e-05
-0.000120669
-0.000530099
-5.62267e-05
-9.36865e-05
-0.00110338
-4.34809e-05
-8.34845e-05
-0.00156526
-7.14684e-05
-0.000141484
-0.0019968
3.28487e-05
-0.000168852
-0.00195383
0.000124769
-0.00012884
-0.00204328
0.000172596
9.72155e-08
-0.00156929
0.000102782
4.42944e-06
-0.000548725
2.91977e-05
-5.67259e-05
-0.00102824
0.000245559
-9.54764e-05
-0.00201932
2.80905e-05
-2.79029e-05
-0.0025689
-0.00010838
-3.70775e-05
-0.00103407
-0.000104574
-2.34698e-05
-0.00114914
-9.12544e-05
-4.22708e-05
5.72248e-05
-3.58731e-05
-5.30935e-05
0.00067363
-3.40626e-05
-4.91549e-05
0.00143909
-3.09391e-05
-4.53155e-05
0.00111606
-2.68778e-05
-5.28789e-05
0.000663454
-1.44465e-05
-6.72053e-05
0.00141097
1.16203e-05
-7.07575e-05
0.0012125
-3.88301e-06
-6.79911e-05
0.000881261
2.27035e-05
-6.85032e-05
0.000451597
-1.88117e-05
-6.62811e-05
-0.000451454
-3.25825e-05
-5.78811e-05
-0.000688391
-3.44437e-05
-4.60566e-05
-0.000778416
-5.07504e-05
-3.98804e-05
3.04069e-05
-0.00164027
-0.000100597
-0.00227892
-0.00152555
3.50146e-05
-0.00306986
-0.00173802
-3.52808e-05
-0.00243409
-0.00131192
0.000245282
-0.00336899
-0.00107001
0.000177169
-0.00313691
-0.00170387
7.22609e-05
-0.00232599
-0.00103453
0.000355459
-0.00364264
-0.00119638
0.000301134
-0.00334689
-0.00121318
0.000186196
-0.00305829
-0.0016023
6.05064e-05
-0.0024556
-0.000686761
0.000629579
-0.00406424
-0.000819791
0.000559761
-0.00391066
-0.000947973
0.000303786
-0.00365896
-0.000998353
0.000144276
-0.00331825
-0.00143815
0.000188382
-0.00262065
-0.000486422
0.000796671
-0.00433149
-0.000452936
0.000674631
-0.00429539
-0.000542855
0.000468783
-0.0043516
-0.000674445
0.000340109
-0.00423727
-0.00101063
0.000207148
-0.00375406
-0.00120069
7.71176e-05
-0.00310381
-0.000134777
0.000882337
-0.00495303
-0.000422422
0.000740969
-0.00464536
-0.000132607
0.00055852
-0.00475435
-0.00044193
0.000435255
-0.00457433
-0.000576943
0.000233669
-0.00442763
-0.000852895
0.000157126
-0.00437961
-0.0010429
-1.36186e-05
-0.00376774
-1.14646e-05
0.000970364
-0.00509799
0.000118772
0.000939465
-0.00498237
-6.48716e-05
0.000760006
-0.00482071
-0.000144104
0.000655039
-0.00507651
-0.000271089
0.000479
-0.00517501
-0.000473459
0.000348939
-0.0050678
-0.000768895
0.000169166
-0.00477719
-0.00108493
-2.42254e-05
-0.0044273
0.000559959
0.00105926
-0.00551441
0.000105627
0.000923322
-0.00523652
9.00122e-05
0.000852631
-0.00539907
8.74419e-05
0.000695088
-0.00539318
8.77302e-06
0.000689947
-0.00562397
-0.000237995
0.000709394
-0.00573054
-0.00042155
0.000482871
-0.00567177
-0.000601349
0.000117504
-0.00493629
-0.00108576
-9.74039e-05
-0.00449869
0.000125686
0.00117601
-0.00619535
0.00022916
0.000768786
-0.00654241
-6.02318e-05
0.000625956
-0.00698019
-8.61695e-05
0.000628249
-0.00689833
-0.000217186
0.000853828
-0.00668898
-0.000282487
0.000741559
-0.00670178
-0.000212922
0.000763302
-0.0065307
0.00034874
0.000811364
-0.00620311
-0.000543438
0.00039649
-0.00596744
-0.00107722
0.000280787
-0.00532861
0.000111573
0.00110034
-0.00692907
0.000277067
0.000848289
-0.00744429
6.00838e-05
0.000853648
-0.00808728
-0.000168364
0.000873757
-0.00827917
-0.000368444
0.00108244
-0.00841148
-0.000409002
0.00118061
-0.00809419
-5.43942e-06
0.00117234
-0.00732148
0.000433693
0.00101567
-0.00796888
0.000600848
0.000842348
-0.00817309
-0.000305312
0.000867561
-0.00709424
-0.00063662
0.000513647
-0.00518967
-0.000167378
0.00077848
-0.0061081
0.00018133
0.000690251
-0.00685647
0.000128063
0.000770307
-0.00718103
-0.00017199
0.000982547
-0.00782123
-0.00027877
0.00100096
-0.00793796
-0.000465459
0.00110975
-0.00737459
0.000192153
0.00114514
-0.00748895
0.000659132
0.00110601
-0.00792488
0.000466833
0.0011669
-0.00817872
0.000817472
0.000950708
-0.00856861
0.000610032
0.000701164
-0.00828284
-0.000102723
0.000370243
-0.00695287
0.000152262
-0.000150386
-0.00587074
-0.000167581
0.00010899
-0.00569786
-7.10966e-05
0.000202497
-0.00580502
-1.33767e-05
0.000140715
-0.00613195
-0.000242305
0.000217756
-0.00604514
-0.000194653
0.000287382
-0.00680106
-0.000223173
0.000175686
-0.00617632
0.000305453
6.51861e-05
-0.00528514
0.00038947
8.56778e-05
-0.00496671
0.000593389
0.000448754
-0.00479364
0.00100808
0.000644439
-0.00733871
0.000640937
0.00039698
-0.0087392
0.000169288
0.000347937
-0.00869915
-2.9115e-05
-0.000361848
-0.0034467
0.000126642
-0.000201599
-0.00522297
-9.20199e-05
-0.000136805
-0.005304
-0.000135524
-0.000134509
-0.00504927
-0.000126761
-0.000152845
-0.00478815
-0.000130588
-0.000157177
-0.00453718
-7.75759e-05
-0.000148787
-0.00453722
1.1398e-05
-0.000176396
-0.00366231
0.000277257
-0.000206997
-0.00283782
0.00035331
-3.86807e-05
-0.00340028
0.000436513
-6.62379e-05
-0.00486512
0.00036822
4.81665e-05
-0.00517688
0.000495594
0.000317472
-0.00574837
0.000241754
0.000331152
-0.00628561
-8.32273e-05
-9.93428e-05
-0.000734868
-0.000126074
-4.41978e-05
-0.00135803
-2.56016e-05
-3.055e-05
-0.00220236
-4.01823e-05
-8.48751e-05
-0.00117005
-6.50875e-06
-0.000116125
-0.000535214
-5.43092e-05
-9.15634e-05
-0.00107193
-5.89755e-05
-8.20628e-05
-0.00159259
-0.000102211
-0.000141367
-0.00193652
3.34615e-05
-0.000164687
-0.00193982
0.000120271
-0.000118465
-0.00204887
0.000177634
2.71171e-05
-0.00174691
7.41031e-05
2.34929e-05
-0.000721858
6.35181e-05
-4.4336e-05
-0.00117549
0.000179753
-8.49955e-05
-0.00217642
-4.23984e-05
3.5106e-06
-0.00258076
-7.33466e-05
-6.64926e-05
-0.00133895
-0.000112957
-3.7906e-05