/*--------------------------------*- C++ -*----------------------------------*\
  =========                 |
  \\      /  F ield         | OpenFOAM: The Open Source CFD Toolbox
   \\    /   O peration     | Website:  https://openfoam.org
    \\  /    A nd           | Version:  7
     \\/     M anipulation  |
\*---------------------------------------------------------------------------*/
FoamFile
{
    version     2.0;
    format      ascii;
    class       surfaceScalarField;
    location    "8";
    object      phi_0;
}
// * * * * * * * * * * * * * * * * * * * * * * * * * * * * * * * * * * * * * //

dimensions      [0 3 -1 0 0 0 0];

internalField   nonuniform List<scalar> 
54125
(
-1.47659e-05
-3.86246e-05
-0.000470932
8.1885e-05
6.90605e-05
-0.000576619
-5.06431e-06
-3.92221e-05
-0.000799
-1.7014e-05
-3.88823e-05
-0.000415036
0.000107994
-0.000162938
-0.0038359
6.43847e-05
8.60401e-05
-0.000727636
3.46851e-05
9.13609e-05
-0.000719679
2.22899e-05
-4.90703e-05
-0.000949119
-4.29458e-06
-4.00258e-05
-0.000793562
-1.24607e-05
-3.82141e-05
-0.000364361
-0.000569833
0.000484206
-0.0068053
0.000189416
-0.000231216
-0.00407039
1.75508e-06
-0.000100743
-0.00370222
4.7817e-05
-5.44891e-06
-0.00109285
5.51045e-05
0.000125565
-0.000821239
3.16286e-05
0.0001001
-0.000863869
-2.19874e-05
-6.07973e-05
-0.000684079
1.81335e-05
-5.04399e-05
-0.000956838
-4.7586e-06
-3.96373e-05
-0.00078738
-1.04201e-05
-3.76044e-05
-0.000316337
-0.00103928
0.000623537
-0.00847172
-5.19272e-05
0.000280776
-0.00476035
-0.000748186
0.000404063
-0.00645942
7.97299e-05
-0.000220963
-0.00359167
0.000195055
-0.000187351
-0.00412373
2.66893e-05
-6.95313e-05
-0.00362775
-3.57797e-05
-9.33542e-05
-0.000192247
5.23079e-05
8.2132e-06
-0.00100967
3.50706e-05
0.000155611
-0.000916579
0.000130192
0.000102164
-0.00110664
-4.05698e-05
-6.03642e-05
0.000254753
-1.75087e-05
-6.14861e-05
-0.000655524
9.78387e-06
-5.12083e-05
-0.000955051
-5.02797e-06
-3.94565e-05
-0.0007805
1.51307e-05
-3.81637e-05
-0.000293304
-0.00143155
0.000358376
-0.00598638
-0.000292473
0.000741503
-0.00646423
-0.00142694
0.000561096
-0.00835406
0.000243747
6.42498e-05
-0.00541619
2.78918e-05
0.000175505
-0.00436463
-0.000507262
0.000347736
-0.0062732
-0.000194635
-0.000154829
-0.00218744
4.01922e-05
-0.000231501
-0.0035354
0.000123869
-0.000163547
-0.00411852
0.000154364
-0.000104345
-0.00354758
-2.97352e-05
-0.000145322
-0.000734191
-1.649e-05
-9.63376e-05
-8.87147e-05
3.86542e-05
1.81066e-05
-0.000901034
1.02127e-05
0.000165
-0.000994657
8.47302e-05
8.79823e-05
-0.00126423
-3.12919e-05
-6.46841e-05
0.00072215
-3.79976e-05
-6.09106e-05
0.000292175
-1.30135e-05
-6.20017e-05
-0.000631717
3.3033e-06
-5.21617e-05
-0.000945649
3.62092e-06
-3.91601e-05
-0.000783125
3.56786e-05
-3.90557e-05
-0.000289926
-0.00141218
-0.000180184
-0.00455382
-0.000660699
0.00105076
-0.0076602
-0.00163636
0.000457666
-0.00623462
0.000279866
0.000610303
-0.0068249
0.000315077
0.000577392
-0.00676771
-0.00126869
0.000436524
-0.00802915
-0.00012253
9.46449e-05
-0.0046086
0.000189079
-6.55828e-05
-0.00532399
0.000435832
0.000116853
-0.00444571
-0.000538414
0.000336285
-0.00591671
-0.000232521
-7.42979e-05
-0.00249629
-0.000161984
-0.000192995
-0.00208045
5.90704e-05
-0.000254498
-0.00346487
5.89121e-05
-0.000220837
-0.00405072
4.48478e-05
-0.00010224
-0.00340546
1.57517e-05
-0.000185612
-0.00148315
-1.54254e-05
-0.00014861
-0.000704491
2.00905e-05
-9.925e-05
-4.46196e-06
9.08155e-05
2.00231e-05
-0.000843569
2.60044e-05
0.000162688
-0.00109175
0.000197919
8.68111e-05
-0.00151328
-3.6744e-05
-6.75319e-05
0.00110069
-3.10772e-05
-6.45872e-05
0.000756904
-3.47591e-05
-6.22124e-05
0.000327145
-7.96761e-06
-6.25428e-05
-0.000613368
-3.05727e-06
-5.22882e-05
-0.000929464
1.36134e-05
-3.88452e-05
-0.000796949
4.63131e-05
-3.99823e-05
-0.000296257
-0.00137651
0.000199755
-0.00480046
-0.00066645
4.63518e-05
-0.00767612
-0.00136295
7.21984e-06
-0.00483445
0.000228505
0.000898243
-0.00837089
-9.8884e-06
0.00149511
-0.00837268
-0.00151125
0.000305647
-0.00629772
0.000144509
0.000511405
-0.00671662
0.000353834
0.000333157
-0.00674542
0.000878486
0.000475268
-0.00724911
-0.00121565
0.000397591
-0.0077495
-0.000311993
-2.53948e-05
-0.00392331
0.000195878
-8.64183e-05
-0.00494562
0.000301532
-0.000365405
-0.0050842
0.000435752
3.05396e-05
-0.00451681
-0.000229986
0.000256237
-0.00589811
-8.8353e-05
-6.99654e-05
-0.00252907
-0.000153251
-0.000117954
-0.00243351
7.45112e-05
-0.000234011
-0.00215535
0.000254333
-0.000314379
-0.00353484
0.000295987
-0.000318155
-0.00410479
0.000117272
-0.000113398
-0.00321141
-6.85643e-05
-0.000201824
-0.00192648
2.74975e-05
-0.000187545
-0.00150279
1.06285e-05
-0.000151175
-0.000697954
6.83987e-05
-9.86144e-05
3.78093e-05
0.00014291
2.75864e-05
-0.000854435
4.67998e-05
0.0001376
-0.00117572
0.000237871
8.0171e-05
-0.00178501
-3.76684e-05
-6.67233e-05
0.00124675
-2.99832e-05
-6.83373e-05
0.00113442
-2.34554e-05
-6.53328e-05
0.000783479
-3.19818e-05
-6.29066e-05
0.000359491
-5.74285e-06
-6.28973e-05
-0.000597016
-6.29082e-06
-5.24162e-05
-0.000909602
1.84541e-05
-3.85741e-05
-0.000816811
5.20566e-05
-4.04889e-05
-0.000307825
-0.00121652
-0.000144974
-0.00452088
-0.000666717
0.000320561
-0.00528847
-0.00131242
0.00010947
-0.00496046
-0.000142941
0.000640237
-0.007774
-0.000651425
0.00032618
-0.00735354
-0.00126338
5.15652e-05
-0.00513388
0.000113181
0.000981504
-0.00844588
0.000366268
0.00123104
-0.00811926
5.03977e-06
0.00107926
-0.00827284
-0.0012621
0.000368686
-0.00661996
-8.96785e-05
0.000509311
-0.00675922
0.000620251
0.000399885
-0.00720772
0.000594592
0.000215111
-0.00677832
0.000933116
0.000586894
-0.00793578
-0.000888694
0.000406854
-0.00749765
-0.000140522
1.42485e-05
-0.00485348
1.22055e-05
-0.000174031
-0.00400115
0.000398921
-0.000391482
-0.00524396
0.000546694
-0.00045555
-0.00489047
0.000680287
8.49595e-05
-0.00472983
-0.000151659
0.000253562
-0.00588275
-0.000116161
-0.000117498
-0.00313338
5.66575e-06
-0.00010748
-0.00251771
-9.64254e-05
-0.000164567
-0.0023959
0.000192943
-0.000295709
-0.00229857
0.000344885
-0.000355862
-0.00369911
0.00036977
-0.000382019
-0.00415914
0.000259079
-3.22335e-05
-0.00320039
-5.06019e-05
-0.000181306
-0.00205822
-6.10634e-05
-0.000198879
-0.00188406
4.87535e-05
-0.00018573
-0.00154045
9.69459e-05
-0.000150443
-0.000775053
0.00010012
-9.67736e-05
5.63069e-05
0.000125789
2.64624e-05
-0.000875377
6.60493e-05
9.48572e-05
-0.001238
0.000191857
6.18597e-05
-0.00198667
-2.56925e-05
-5.48317e-05
0.000605968
-3.43688e-05
-6.71963e-05
0.00127998
-2.26923e-05
-6.9076e-05
0.00116086
-1.95848e-05
-6.56007e-05
0.000805758
-2.97139e-05
-6.38283e-05
0.000390136
-3.13791e-06
-6.34748e-05
-0.00058282
-7.45616e-06
-5.23976e-05
-0.000888322
1.9424e-05
-3.86633e-05
-0.000838061
4.30776e-05
-4.0403e-05
-0.0003105
-0.0011868
6.50787e-06
-0.0039446
-0.000883646
9.81181e-05
-0.00523559
-0.00115933
-8.80404e-05
-0.00458593
-0.000449395
0.000558569
-0.00594487
-0.000676726
0.000262531
-0.00541623
-0.00127075
6.49164e-05
-0.005018
-9.42762e-06
0.000947535
-0.00739718
2.98334e-05
0.000758116
-0.0078695
-0.000463565
0.00045266
-0.00728603
-0.00106176
-3.37324e-05
-0.00530049
1.62661e-05
0.00104926
-0.00885232
0.000332662
0.00108555
-0.0080128
0.000542091
0.000964214
-0.00795172
0.000118782
0.000832575
-0.00792239
-0.00116128
0.000430991
-0.00677836
-0.000161203
0.000576682
-0.00744051
0.000234983
0.000571777
-0.00715389
0.000597371
0.000288318
-0.00747938
0.000760717
0.000719067
-0.00712452
0.000814809
0.000644265
-0.00830771
-0.000736239
0.00044605
-0.00735912
-0.000170855
9.20083e-05
-0.00576688
-2.08853e-05
-8.8558e-05
-0.0049124
0.000139316
-0.000175124
-0.00445325
0.000392541
-0.000432449
-0.00546665
0.00059202
-0.000272536
-0.00478011
0.000742045
0.000232258
-0.0050808
0.000321064
0.00022312
-0.00616785
-6.50713e-05
-9.63045e-05
-0.00444044
-3.56504e-05
-0.000124284
-0.00314199
3.42287e-05
-0.000177143
-0.00249061
0.000114672
-0.000271332
-0.002438
0.000264201
-0.000303382
-0.00251513
0.000420267
-0.000409713
-0.0039659
0.000351281
-0.000334623
-0.00414198
0.000301264
2.91217e-05
-0.00333892
-1.28557e-06
-0.000108604
-0.00117819
-5.30654e-05
-0.000177084
-0.00206132
-2.91623e-05
-0.000192968
-0.00187035
9.79361e-05
-0.000183845
-0.00162457
0.00012356
-0.000144239
-0.000880862
0.000108478
-8.91206e-05
6.02741e-05
9.34249e-05
1.14201e-05
-0.000892821
7.34516e-05
5.13324e-05
-0.0012815
0.000152873
1.77618e-05
-0.00211422
-5.00997e-05
-4.63689e-05
0.000969509
-2.32215e-05
-5.57027e-05
0.000617696
-3.17862e-05
-6.75371e-05
0.00131022
-1.85437e-05
-6.96438e-05
0.00118344
-1.74275e-05
-6.59351e-05
0.000825293
-2.80142e-05
-6.46724e-05
0.000419347
-4.54248e-06
-6.37762e-05
-0.000566898
-1.07298e-05
-5.22083e-05
-0.000864047
1.26623e-05
-3.96064e-05
-0.00085152
2.46855e-05
-4.0249e-05
-0.000294936
-0.00140392
0.000109444
-0.0031244
-0.00112666
0.000124125
-0.00442209
-0.00119768
7.92253e-07
-0.00390704
-0.000629534
0.000310369
-0.00519042
-0.000881213
9.91255e-05
-0.00521827
-0.00117968
-7.70408e-05
-0.00459996
-0.000157295
0.000748063
-0.00583737
-0.000298323
0.000546655
-0.00590083
-0.000519958
0.000209597
-0.00550452
-0.00113149
9.65229e-06
-0.00495792
2.02586e-05
0.000991636
-0.00693519
0.000161227
0.00101457
-0.00748221
7.77247e-05
0.000778114
-0.00773059
-0.000396978
0.000404756
-0.00720876
-0.00114003
3.96434e-05
-0.00536138
-0.000176718
0.000954471
-0.00871389
-2.13286e-06
0.00113836
-0.00866801
0.000355841
0.000993073
-0.00780013
0.000563274
0.000905074
-0.00782677
0.00027037
0.000832842
-0.0077798
-0.00109083
0.000524565
-0.00694833
-0.000201132
0.000755093
-0.00800586
-0.000139884
0.00064701
-0.00739674
0.000391027
0.000541896
-0.00765918
0.00056963
0.000763113
-0.00770052
0.000950565
0.000840665
-0.00767947
0.00069972
0.000742003
-0.00856134
-0.000366198
0.00044753
-0.00711939
-0.000180288
0.000211278
-0.00638966
-5.59176e-05
9.41096e-05
-0.00592928
-5.52867e-05
-9.43377e-05
-0.00490367
0.000244473
-0.000181043
-0.00483446
0.000419406
-0.000384138
-0.00551026
0.000592331
-4.90057e-05
-0.00467091
0.00083867
0.000439075
-0.00578414
0.00064783
0.000159099
-0.00667351
1.8061e-05
-6.27366e-05
-0.0049926
-0.000116805
-0.000103233
-0.00439775
1.60156e-05
-0.000163605
-0.00320071
0.000109708
-0.000265826
-0.00250789
0.000218525
-0.000315873
-0.00252047
0.000304785
-0.000292059
-0.00282909
0.000397749
-0.000342347
-0.0042625
0.000349022
-0.00025906
-0.00412937
0.000238168
0.000145448
-0.00356966
-4.82543e-05
-9.99418e-05
-0.00111606
-1.00288e-05
-0.000105737
-0.00126273
-6.28535e-05
-0.000170699
-0.00205252
-4.57759e-06
-0.000188005
-0.00188016
0.000113151
-0.000176713
-0.00172267
0.000125656
-0.00012809
-0.000995563
0.000126894
-7.96362e-05
1.9894e-05
4.32903e-05
-1.28323e-05
-0.000882676
6.99414e-05
7.13865e-06
-0.00132816
0.000123476
-3.55097e-05
-0.00217751
-4.66662e-05
-4.76031e-05
0.00127397
-4.28217e-05
-4.6695e-05
0.00100332
-1.76265e-05
-5.53751e-05
0.000623161
-2.96842e-05
-6.75015e-05
0.00133776
-1.22569e-05
-7.00265e-05
0.00119979
-1.52192e-05
-6.64203e-05
0.00084226
-2.46851e-05
-6.52517e-05
0.000445508
-5.58392e-06
-6.36389e-05
-0.000549884
-1.32902e-05
-5.27688e-05
-0.000837595
1.1681e-05
-4.03815e-05
-0.000863068
7.9731e-06
-3.98133e-05
-0.000263096
-0.00150383
6.51756e-05
-0.00264457
-0.00122882
0.000163135
-0.00373047
-0.00140332
0.000133417
-0.00305218
-0.000830956
0.000329234
-0.00463454
-0.00100818
0.000120718
-0.00441505
-0.00122018
2.9829e-05
-0.00389637
-0.000361606
0.000530914
-0.00527291
-0.000497106
0.000328725
-0.00522123
-0.000900435
0.000147691
-0.00506253
-0.00112504
-2.07151e-05
-0.0045857
-7.07307e-05
0.00078189
-0.00515625
-6.11695e-05
0.000799035
-0.00586735
-0.000211616
0.0005262
-0.0059281
-0.000576935
0.000198874
-0.00551379
-0.00114006
-3.49297e-05
-0.00492296
2.47582e-05
0.000929786
-0.00671162
0.000147139
0.00102413
-0.00709401
4.45018e-05
0.001008
-0.00740075
0.000122869
0.000722324
-0.00760775
-0.000250746
0.000402988
-0.00705099
-0.00106642
8.15205e-06
-0.00539394
-9.37676e-05
0.000912879
-0.00868305
-0.000198231
0.00110968
-0.00862686
2.26694e-05
0.00110622
-0.0084128
0.000457606
0.000988507
-0.00777154
0.000877588
0.000894294
-0.00781525
0.000262942
0.000833405
-0.00765187
-0.00110091
0.000535444
-0.00674907
-0.000171798
0.000857335
-0.00803971
-0.000192161
0.000730158
-0.00795277
-0.000275133
0.000798389
-0.00743339
0.000455254
0.000674556
-0.00778141
0.000544717
0.000932512
-0.00791767
0.000842306
0.000945217
-0.00813265
0.000879664
0.000681467
-0.00883627
-0.000124857
0.000485625
-0.00683233
2.12081e-05
0.000246855
-0.00656471
-0.000162133
0.000267721
-0.00651795
-3.0191e-05
0.000145168
-0.00612258
5.76502e-06
-6.48421e-05
-0.00491593
0.000258636
-0.000240338
-0.00501837
0.000469706
-0.000294218
-0.00542996
0.000812225
0.000232461
-0.00487877
0.000730168
0.000560387
-0.00656658
0.000861735
0.000186415
-0.0074835
-7.34845e-05
-5.5842e-05
-0.00484526
-3.27513e-05
-9.67918e-05
-0.00497632
-7.47722e-05
-0.000111845
-0.00443759
-3.13634e-05
-0.000174822
-0.00326493
0.000169849
-0.00029698
-0.00258348
0.000347981
-0.000315596
-0.00271926
0.000380242
-0.000167436
-0.00325735
0.000385351
-0.000267621
-0.004596
0.000420217
-2.82654e-05
-0.00430593
0.000309075
0.000196219
-0.00395148
-2.34622e-05
-0.000134319
-0.000595101
-4.43098e-05
-9.86632e-05
-0.00112165
6.61929e-06
-0.000100636
-0.00135703
-6.16597e-05
-0.000164363
-0.00204419
2.28548e-05
-0.000182425
-0.00190956
0.000122888
-0.000164784
-0.00182408
0.000126747
-0.000109237
-0.00111739
0.00013811
-6.84769e-05
-6.81552e-05
1.62414e-05
-3.19556e-05
-0.000873114
8.56827e-05
-4.05642e-05
-0.00139711
0.000132516
-5.7244e-05
-0.0022448
-4.25325e-05
-5.03105e-05
0.000539039
-4.24221e-05
-4.75769e-05
0.00131728
-4.19742e-05
-4.59612e-05
0.00103588
-1.97234e-05
-5.50162e-05
0.000630399
-2.72607e-05
-6.72429e-05
0.00136224
-6.85133e-06
-7.03258e-05
0.00121055
-1.33928e-05
-6.63871e-05
0.000856788
-1.94251e-05
-6.6008e-05
0.000467302
-8.17874e-06
-6.35189e-05
-0.000530955
-1.73893e-05
-5.30755e-05
-0.000807511
4.87153e-06
-4.21011e-05
-0.000865652
-6.22819e-06
-3.92165e-05
-0.000217651
-0.00159121
0.000145353
-0.00251243
-0.00122922
0.000158857
-0.00329961
-0.00149711
4.67318e-05
-0.00259751
-0.0010405
0.000334317
-0.00413826
-0.00099201
0.000167994
-0.00378121
-0.00138774
0.000151883
-0.0030365
-0.000523668
0.000497312
-0.0045809
-0.000735953
0.000340573
-0.00461555
-0.00105486
0.000151434
-0.00438223
-0.00117483
2.67804e-05
-0.00387336
-0.000242717
0.000717186
-0.00529125
-0.000219664
0.000485972
-0.00527166
-0.000448944
0.000363475
-0.00519969
-0.000837496
0.00017579
-0.00499847
-0.00113808
-4.17188e-05
-0.00454596
8.84416e-05
0.000755485
-0.00494986
0.000262611
0.00081989
-0.00529258
-0.000161278
0.000775545
-0.00591091
-0.000167822
0.000555005
-0.00599354
-0.00048474
0.000145747
-0.00546047
-0.00105775
-6.67531e-05
-0.00486488
3.75384e-05
0.000867294
-0.00668318
6.29813e-05
0.000757803
-0.0067065
7.13804e-05
0.00100019
-0.00713492
4.11098e-05
0.000972663
-0.0072346
0.000321106
0.000695323
-0.00734361
-0.000249903
0.000338385
-0.00686838
-0.00107487
0.000192266
-0.00561225
0.00010278
0.00101579
-0.00856323
-6.44331e-05
0.000924779
-0.00862588
-0.000352794
0.00113797
-0.00858096
5.85608e-05
0.00112256
-0.00815015
0.000495629
0.00105099
-0.00787915
0.00107025
0.000861764
-0.00807155
0.000696619
0.000897903
-0.00783128
-0.000964423
0.000552254
-0.00646176
8.28868e-05
0.000703498
-0.00769329
-0.000122018
0.000822161
-0.00817183
-0.000236158
0.000915534
-0.00786395
-9.28321e-05
0.000792296
-0.00745253
0.000370263
0.000822698
-0.00778322
0.000459392
0.000949714
-0.00791186
0.000846586
0.0008702
-0.00835575
0.000584453
0.00074128
-0.00894621
0.000436096
0.000509042
-0.00691573
7.95782e-05
0.000164541
-0.00610901
2.79574e-06
0.000243435
-0.00657597
-0.000136307
0.0003358
-0.00664704
-0.000216143
0.000189403
-0.00619204
5.38749e-05
-6.7642e-05
-0.00497265
0.000434065
-0.000266376
-0.0051323
0.000518064
-0.00011546
-0.00521987
0.000827798
0.000383516
-0.00514435
0.000852716
0.000412214
-0.00722488
0.000780094
0.000244975
-0.00819949
-9.70293e-05
-4.53231e-05
-0.00523918
-3.94761e-05
-8.93468e-05
-0.00485753
-6.70131e-05
-0.000123049
-0.00489148
-3.19206e-05
-0.000109206
-0.00453295
2.43252e-05
-0.000181323
-0.00338205
0.000175563
-0.000299576
-0.00265217
0.000389791
-0.000256161
-0.00289358
0.000405998
-7.40897e-05
-0.00371877
0.000385501
-0.000170645
-0.00482288
0.000439288
0.000139138
-0.00460246
0.000439136
0.000195259
-0.00445336
-3.96583e-05
-9.49815e-05
-0.00100869
-3.27115e-06
-0.000130072
-0.000602843
-3.62739e-05
-9.80021e-05
-0.00112998
-1.22201e-05
-9.67558e-05
-0.00143214
-6.5444e-05
-0.000158408
-0.00203003
3.26246e-05
-0.000176807
-0.00193701
0.000122429
-0.000153854
-0.00191529
0.000127584
-8.67963e-05
-0.00124608
0.000134161
-4.77012e-05
-0.000194749
-7.70712e-06
-4.28235e-05
-0.000880537
0.000157408
-7.80185e-05
-0.00152887
0.000212787
-6.52228e-05
-0.0023986
-9.54535e-05
-4.06397e-05
-0.000115664
-4.47785e-05
-5.10079e-05
0.000587248
-3.99104e-05
-4.86501e-05
0.00135988
-3.51795e-05
-4.59403e-05
0.00106199
-1.99872e-05
-5.34571e-05
0.0006366
-2.34408e-05
-6.71771e-05
0.00138253
-1.34873e-06
-7.05704e-05
0.00121608
-9.19013e-06
-6.70091e-05
0.000866979
-7.22247e-06
-6.65793e-05
0.000477585
-1.1456e-05
-6.40604e-05
-0.000508514
-2.14712e-05
-5.38631e-05
-0.000774278
-7.82191e-06
-4.34212e-05
-0.000853625
-2.65627e-05
-3.8897e-05
-0.000152191
-0.00170149
5.59503e-05
-0.00235559
-0.0012769
0.000208421
-0.00307425
-0.0015923
0.000131874
-0.00254911
-0.00124256
0.000404264
-0.00363828
-0.00103157
0.000117265
-0.00333058
-0.0014949
9.6217e-05
-0.00258657
-0.000723312
0.000498986
-0.00435278
-0.000830439
0.000293064
-0.00416884
-0.00102704
0.000175512
-0.00383266
-0.00135973
0.000167689
-0.00301929
-0.000244894
0.000609879
-0.00469365
-0.000380094
0.000449739
-0.00452964
-0.000693385
0.000326712
-0.00454639
-0.000926938
0.000201694
-0.00446771
-0.00123255
2.92826e-05
-0.00380818
-9.66206e-05
0.000822405
-0.00511269
1.01571e-05
0.000611837
-0.00516467
-0.000350334
0.000507587
-0.00522672
-0.000410249
0.000351981
-0.00513345
-0.000756179
0.00016864
-0.00493739
-0.00106912
-5.91583e-05
-0.00447543
-6.73615e-05
0.000830401
-0.00512494
0.000277436
0.000815627
-0.00516005
5.58289e-05
0.000838701
-0.00534018
-0.000178235
0.000755803
-0.00589237
-0.000211685
0.000585663
-0.00590066
-0.000340108
8.62004e-05
-0.00552322
-0.0010388
-0.000154429
-0.00474652
0.000386727
0.000869402
-0.00649761
0.000251078
0.00052594
-0.00676683
1.00851e-06
0.000772417
-0.00683253
-3.48857e-05
0.000993978
-0.00706279
7.95026e-05
0.000973833
-0.00709698
0.000348286
0.000668084
-0.00695134
0.000180211
0.000443193
-0.0066029
-0.00114482
0.000238833
-0.00567068
0.000362904
0.00101315
-0.00797018
5.98114e-05
0.000736753
-0.00855703
-0.000209314
0.00102951
-0.00854425
-0.000282449
0.00117852
-0.00844731
3.60609e-05
0.00119735
-0.00796231
0.000346984
0.00102794
-0.00793291
0.000630952
0.000966124
-0.00792414
0.000330365
0.00083806
-0.007863
-0.000709965
0.000592737
-0.00590843
0.000264846
0.000618805
-0.00726827
4.23714e-05
0.00077988
-0.00769058
-0.000227205
0.000904009
-0.0080694
-0.000337304
0.000879503
-0.00782999
2.48362e-05
0.000890794
-0.00749159
0.000331606
0.000954372
-0.00768542
0.00051091
0.00092613
-0.00796063
0.000842589
0.000908028
-0.00853729
0.000541287
0.000768173
-0.00889391
0.000409372
0.000527707
-0.00707271
-0.000147975
0.000206612
-0.00564937
0.00011788
0.000132472
-0.0061554
-7.95346e-05
0.000219788
-0.00644744
-0.000108452
0.000352731
-0.00673384
-0.000210772
0.000165252
-0.00618984
-9.35995e-06
-8.12175e-05
-0.00497288
0.000455434
-0.0001915
-0.0051219
0.000448782
1.5774e-05
-0.00489491
0.000867458
0.000362021
-0.00557611
0.000950326
0.000354054
-0.00784499
0.000618413
0.000231439
-0.00861021
-6.03263e-05
-7.30583e-05
-0.00546201
-5.41991e-05
-5.09645e-05
-0.00522664
-2.18936e-05
-0.000112761
-0.0048822
-9.07648e-05
-0.000137334
-0.00478481
-0.000180264
-0.000126688
-0.00447276
0.000111832
-0.000180281
-0.00358056
0.000196708
-0.000264863
-0.00271775
0.000356942
-0.000172982
-0.00302405
0.000417101
-6.41618e-05
-0.00410819
0.000417845
-0.000138097
-0.00497119
0.000430257
0.000272968
-0.00495302
0.000627762
0.000158589
-0.00502692
-6.83196e-05
-3.11738e-05
-0.00191513
-1.49345e-05
-9.04399e-05
-0.00107817
-4.42313e-05
-0.000125473
-0.000571051
-3.8329e-05
-9.59868e-05
-0.0011276
-5.89994e-06
-9.11007e-05
-0.00151354
-6.30818e-05
-0.000149844
-0.00201735
3.49326e-05
-0.000172057
-0.00195509
0.000126829
-0.000143348
-0.00199476
0.000143163
-5.14306e-05
-0.00139274
0.00012313
-1.44878e-05
-0.000357671
2.13092e-06
-5.75048e-05
-0.000924652
0.000252871
-9.64668e-05
-0.00175832
0.000145977
-5.73576e-05
-0.00251378
-0.000102203
-2.21174e-05
-0.00124083
-9.53638e-05
-4.18906e-05
-2.94176e-05
-4.10704e-05
-5.20614e-05
0.00063173
-3.77166e-05
-4.87054e-05
0.00140036
-3.79645e-05
-4.47802e-05
0.00109127
-2.51746e-05
-5.39254e-05
0.000648523
-1.95941e-05
-6.72364e-05
0.00139879
3.72772e-06
-7.08576e-05
0.0012162
-6.46149e-06
-6.74682e-05
0.000874329
1.12169e-05
-6.75582e-05
0.000469866
-1.52964e-05
-6.48638e-05
-0.000482217
-2.61201e-05
-5.51513e-05
-0.000736428
-2.2007e-05
-4.4771e-05
-0.000825744
-4.1936e-05
-3.9206e-05
-7.10495e-05
-0.00164827
-7.38817e-05
-0.00247053
-0.00142597
0.000235483
-0.00308279
-0.00173606
0.000128612
-0.00234045
-0.0012698
0.000233059
-0.00338635
-0.00107367
0.000204401
-0.00310468
-0.00161554
5.9479e-05
-0.00248795
-0.000886961
0.000528847
-0.00390191
-0.00106524
0.00037629
-0.00366251
-0.00103992
0.000128197
-0.00334968
-0.00151057
0.000145157
-0.00258088
-0.000538866
0.000683733
-0.00438233
-0.000649535
0.000500892
-0.00429117
-0.000774157
0.000303798
-0.00421635
-0.000969958
0.000216364
-0.00383832
-0.00129116
0.000146244
-0.00310692
-0.000182403
0.000765782
-0.00486943
-0.000197144
0.000591804
-0.00462841
-0.000437159
0.00041578
-0.00453188
-0.000574208
0.000321698
-0.00450243
-0.000871218
0.000144121
-0.00446751
-0.00112653
1.38578e-05
-0.00376463
-0.000151949
0.000904173
-0.00512114
-5.60366e-05
0.000773588
-0.00494097
-0.000115325
0.000627388
-0.00511331
-0.000372807
0.00049278
-0.00517294
-0.000416648
0.000335097
-0.00509495
-0.00062736
0.000205262
-0.00491456
-0.00106471
-5.06016e-05
-0.00439891
0.000285451
0.00102021
-0.00528378
0.000407848
0.000826649
-0.00529273
0.000187424
0.000802134
-0.0053099
5.60461e-05
0.000810115
-0.00548543
-0.000130306
0.00071769
-0.00581459
-0.000300556
0.000518629
-0.00568425
-0.000409383
6.59023e-05
-0.00515395
-0.00114148
-0.000149014
-0.00460084
0.000431239
0.000996197
-0.00620325
0.000264202
0.000617397
-0.00679346
5.36534e-05
0.000611594
-0.00686897
-9.59709e-05
0.000813844
-0.00683888
-0.000143424
0.000965383
-0.00687485
3.69369e-05
0.000809118
-0.00692797
-3.54808e-06
0.000634071
-0.00650772
-0.000120473
0.00049946
-0.00641268
-0.00108862
0.000244481
-0.00553651
0.000214044
0.00104705
-0.00731817
8.92864e-05
0.000739722
-0.00802006
-0.000218315
0.000872964
-0.00840938
-0.000301279
0.00107837
-0.00848013
-0.00017738
0.0012087
-0.00825644
-0.000172665
0.00116294
-0.00759304
0.00027708
0.00107199
-0.00780495
0.000923275
0.000971208
-0.00813797
5.16187e-05
0.000733095
-0.00751369
-0.000605149
0.000584059
-0.00547797
2.80075e-05
0.000754067
-0.00650802
0.000283142
0.000640118
-0.00729377
-2.86762e-05
0.000934355
-0.00777179
-0.000253929
0.000901657
-0.00794608
-0.00043005
0.000998355
-0.00771828
-0.000256124
0.0010439
-0.00733435
0.000310625
0.000977828
-0.00759231
0.000335433
0.00105032
-0.00798957
0.000696823
0.000983931
-0.00858241
0.000372263
0.000686089
-0.00847423
0.000162932
0.000501315
-0.00711855
-0.000107637
8.3191e-05
-0.00590721
-9.10572e-05
0.000173514
-0.00565355
6.13251e-05
0.000146877
-0.00616571
-0.000124596
0.000230915
-0.00629179
-0.000280357
0.000325698
-0.00679419
-8.7452e-05
0.000146924
-0.0062187
0.000167926
-3.67238e-06
-0.00513193
0.00038963
-5.16631e-05
-0.00508715
0.00044831
0.000190473
-0.00475457
0.0010422
0.00051204
-0.00635845
0.00094854
0.00035218
-0.00848402
0.000431912
0.000272479
-0.00868683
7.09317e-05
-0.000223588
-0.00519774
-4.84369e-05
-7.43209e-05
-0.00540515
-0.000153604
-8.9764e-05
-0.00514026
-6.1467e-05
-0.000129922
-0.00486648
-0.000117444
-0.000145849
-0.00465411
-6.42926e-05
-0.000136865
-0.00451497
-1.30435e-05
-0.000168387
-0.00362906
0.000257488
-0.000232778
-0.00278861
0.000364915
-0.000112689
-0.00319727
0.000455625
-4.59161e-05
-0.00453287
0.000452252
-4.39878e-05
-0.00510436
0.000530429
0.0003176
-0.00538959
0.000520568
0.000245612
-0.00564712
-0.000137337
-3.51018e-05
-0.00139133
-2.49311e-05
-2.94508e-05
-0.00204655
-3.01621e-05
-9.20507e-05
-0.0011225
-6.09202e-05
-0.000120341
-0.000523493
-5.63555e-05
-9.30251e-05
-0.00110728
-4.0813e-05
-8.38728e-05
-0.00156387
-6.95846e-05
-0.000141552
-0.00199786
3.34563e-05
-0.000169056
-0.00195911
0.000124515
-0.000130337
-0.00204683
0.000172636
-3.40994e-06
-0.00156524
0.000106137
2.37655e-06
-0.000538986
2.41552e-05
-5.73947e-05
-0.001014
0.000248686
-9.61951e-05
-0.00199017
4.38931e-05
-3.26043e-05
-0.002567
-0.000108579
-3.66504e-05
-0.00104531
-0.000105049
-2.2953e-05
-0.00115472
-9.19028e-05
-4.20703e-05
5.24941e-05
-3.61004e-05
-5.29253e-05
0.00067205
-3.45374e-05
-4.89503e-05
0.00143907
-3.11163e-05
-4.51642e-05
0.00111363
-2.66814e-05
-5.28634e-05
0.000660831
-1.49623e-05
-6.7265e-05
0.00141016
1.11632e-05
-7.08179e-05
0.00120839
-4.13458e-06
-6.81742e-05
0.00087908
2.22949e-05
-6.84914e-05
0.000451199
-1.85466e-05
-6.62112e-05
-0.000452611
-3.20059e-05
-5.77419e-05
-0.000691451
-3.30151e-05
-4.5986e-05
-0.000785949
-4.93119e-05
-3.97561e-05
1.80184e-05
-0.00163993
-0.000101198
-0.00228015
-0.00152701
3.54272e-05
-0.0030711
-0.0017381
-3.46938e-05
-0.00243379
-0.00131251
0.000246661
-0.00336905
-0.00106667
0.000178275
-0.00313945
-0.00170511
7.42204e-05
-0.0023251
-0.00103544
0.000355041
-0.00364312
-0.00119973
0.000299808
-0.00334727
-0.0012101
0.000185906
-0.00306093
-0.0016026
6.06619e-05
-0.00245658
-0.000688698
0.000628387
-0.00406581
-0.000825617
0.000561246
-0.00391079
-0.000950302
0.000303085
-0.00366125
-0.000996213
0.000143197
-0.00332146
-0.00143759
0.00018762
-0.00262207
-0.00048706
0.000795871
-0.00433296
-0.00045728
0.000675312
-0.00429661
-0.000541622
0.000468206
-0.00435112
-0.000672957
0.000339217
-0.00424046
-0.00101056
0.000208248
-0.00376098
-0.00120273
7.81048e-05
-0.00310883
-0.000133938
0.000879388
-0.00495024
-0.00042297
0.000740814
-0.00465151
-0.000127531
0.00055592
-0.00475634
-0.000445558
0.000435186
-0.00457261
-0.000578335
0.000233639
-0.00443027
-0.000851359
0.000156841
-0.00438649
-0.00104266
-1.43349e-05
-0.00377234
-8.31997e-06
0.000971653
-0.00510653
0.000109708
0.00093842
-0.00498784
-6.39733e-05
0.000759019
-0.0048212
-0.00014395
0.000653076
-0.00507361
-0.000270033
0.000478351
-0.00517647
-0.000474778
0.000350143
-0.00506561
-0.000761112
0.000170962
-0.00478439
-0.00108674
-2.55231e-05
-0.00442813
0.000556846
0.00106261
-0.00551193
0.000107412
0.000926701
-0.00522704
0.000102798
0.000856044
-0.00539578
9.08103e-05
0.000698829
-0.0053854
1.15896e-05
0.000691498
-0.00561425
-0.00023681
0.00071025
-0.00573246
-0.000424115
0.000483147
-0.00568093
-0.000594214
0.000119305
-0.00494853
-0.00108643
-9.94703e-05
-0.00450356
0.000126953
0.0011878
-0.00619083
0.000240948
0.000781427
-0.00651895
-5.55938e-05
0.000630557
-0.00697514
-7.99415e-05
0.000622803
-0.00689927
-0.000209687
0.00085196
-0.00669315
-0.000278172
0.000757172
-0.0067174
-0.000214862
0.000758794
-0.00656075
0.000339397
0.000805975
-0.00623036
-0.000520475
0.000400859
-0.00599697
-0.00107423
0.00027891
-0.00534634
9.70421e-05
0.00110286
-0.00690613
0.000280901
0.00085493
-0.00743113
6.55089e-05
0.000843479
-0.00808476
-0.000160983
0.000870944
-0.0082949
-0.00036053
0.0010798
-0.00842075
-0.000409994
0.00118047
-0.0081201
-5.35485e-05
0.00116717
-0.00732404
0.000434827
0.00101278
-0.00794592
0.000616887
0.00085709
-0.00818203
-0.000280347
0.000875849
-0.00715287
-0.000627503
0.000521422
-0.00520896
-0.000165224
0.000781003
-0.00609891
0.000172064
0.000696363
-0.00682738
0.000133149
0.00075326
-0.0071845
-0.000160518
0.000982549
-0.00781676
-0.000272002
0.000991779
-0.00794786
-0.000459329
0.00109474
-0.00739725
0.000139423
0.0011394
-0.00746742
0.000701513
0.00109021
-0.00794408
0.000467818
0.00116237
-0.00818752
0.000789856
0.000957139
-0.00860112
0.000584707
0.000698127
-0.00830721
-8.09238e-05
0.000381526
-0.00698724
0.000145341
-0.000162178
-0.00588654
-0.000164588
0.000102365
-0.00571991
-7.9729e-05
0.000203385
-0.00578394
-5.68743e-06
0.000143822
-0.0061344
-0.000238845
0.000221971
-0.00606666
-0.000215734
0.000293537
-0.00678937
-0.000224548
0.000181715
-0.00619258
0.000299895
6.05153e-05
-0.00528651
0.000393088
7.41642e-05
-0.00499901
0.000566231
0.000428858
-0.00478199
0.0010252
0.0006312
-0.00721042
0.000679855
0.00039589
-0.00875686
0.000204441
0.000337587
-0.00870829
-3.94777e-05
-0.000359804
-0.00345655
0.000121579
-0.000197642
-0.00522093
-8.98617e-05
-0.000125147
-0.00531007
-0.000150024
-0.000125757
-0.00505532
-0.000125101
-0.000149176
-0.0047944
-0.00013056
-0.000154966
-0.00454626
-7.66974e-05
-0.000146444
-0.0045298
1.10648e-05
-0.000174565
-0.00366488
0.000274976
-0.000210109
-0.00284165
0.000354897
-4.43091e-05
-0.00338114
0.000437091
-6.2176e-05
-0.00484563
0.000384796
4.08153e-05
-0.00518822
0.000501801
0.000313542
-0.00571063
0.000287256
0.000318103
-0.00620859
-8.33496e-05
-9.71097e-05
-0.000735004
-0.000127009
-4.21744e-05
-0.00135665
-2.51527e-05
-2.95822e-05
-0.00217577
-4.04042e-05
-8.45066e-05
-0.00115403
-4.81092e-06
-0.000115737
-0.000530508
-5.55568e-05
-9.07388e-05
-0.00107598
-5.66672e-05
-8.14476e-05
-0.00159399
-0.000103738
-0.000141354
-0.00193679
3.36829e-05
-0.000164796
-0.00194717
0.000120176
-0.000119943
-0.0020546
0.00017845
2.46931e-05
-0.00174371
7.7237e-05
2.23037e-05
-0.000714468
5.57574e-05
-4.533e-05
-0.00115263
0.000190219
-8.74236e-05
-0.00215859
-3.39231e-05
-9.28289e-07
-0.00258146
-7.32635e-05
-6.6003e-05