/*--------------------------------*- C++ -*----------------------------------*\
  =========                 |
  \\      /  F ield         | OpenFOAM: The Open Source CFD Toolbox
   \\    /   O peration     | Website:  https://openfoam.org
    \\  /    A nd           | Version:  7
     \\/     M anipulation  |
\*---------------------------------------------------------------------------*/
FoamFile
{
    version     2.0;
    format      ascii;
    class       volVectorField;
    location    "8";
    object      U_0;
}
// * * * * * * * * * * * * * * * * * * * * * * * * * * * * * * * * * * * * * //

dimensions      [0 1 -1 0 0 0 0];

internalField   nonuniform List<vector> 
18750
(
(0.309047 -0.22463 -0.740268)
(0.410062 0.707714 0.233537)
(0.50866 -0.352295 -0.892543)
(0.260915 -0.21839 -0.762033)
(2.325 -1.98139 -0.326487)
(0.526892 0.604161 0.70159)
(0.553126 0.69657 0.184113)
(0.623967 -0.123682 -0.761578)
(0.466572 -0.420366 -0.886767)
(0.202848 -0.199345 -0.777819)
(4.76559 0.621574 0.908128)
(2.58431 -1.70605 -1.00215)
(2.28773 -1.67463 -0.176979)
(0.728801 -0.619841 0.462385)
(0.637109 0.605735 1.05849)
(0.700134 0.44504 0.014463)
(0.503945 0.345372 -1.31487)
(0.617603 -0.161707 -0.809484)
(0.436267 -0.443941 -0.846847)
(0.182569 -0.187213 -0.788404)
(5.97508 1.24911 0.675518)
(3.35001 -0.216282 1.88334)
(4.65517 0.664828 0.817001)
(2.4599 -0.0573263 -1.02721)
(2.53749 -1.85748 -0.655944)
(2.50271 -1.64084 -0.0937177)
(0.155734 -0.12006 -0.524429)
(0.636177 -0.545701 0.671913)
(0.739806 0.555399 1.35385)
(0.751315 0.302827 -0.0885994)
(-0.107427 0.663978 -1.21416)
(0.506236 0.285523 -1.33313)
(0.627624 -0.141411 -0.841357)
(0.420176 -0.427243 -0.814054)
(0.128254 -0.173947 -0.835185)
(4.30073 2.16599 -1.12984)
(4.36692 -0.213933 1.98895)
(5.9531 1.46192 0.485483)
(3.51535 -1.19205 -0.340275)
(3.01802 -0.452 1.48567)
(4.56357 -0.0920799 0.644026)
(1.56587 0.454306 -0.759313)
(2.37741 -0.39556 -0.999595)
(2.43433 -1.82479 -0.446036)
(1.4115 -2.53745 -0.300256)
(0.487824 -0.0567658 -0.797282)
(0.0592533 -0.183732 -0.547089)
(0.536423 -0.435462 0.828603)
(0.804721 0.42909 1.48298)
(0.729201 -0.517922 -0.175999)
(-0.408905 0.693884 -1.33435)
(-0.0907121 0.653524 -1.23772)
(0.496899 0.229827 -1.34234)
(0.627163 -0.116685 -0.874956)
(0.396868 -0.41317 -0.798308)
(0.149092 -0.127702 -0.881761)
(3.27554 1.95965 0.0996505)
(5.00893 0.457373 2.3296)
(4.59626 2.89299 -1.68657)
(4.47894 -0.876973 1.51436)
(4.33337 -0.912756 1.86567)
(5.8192 0.287772 0.23296)
(3.1322 0.438848 0.724451)
(3.53491 -0.909695 -0.500115)
(2.98161 -0.289641 1.30509)
(4.17906 -0.152858 0.641088)
(1.74829 0.229115 -0.46251)
(1.48945 0.206182 -0.891571)
(2.32536 -0.555752 -1.02287)
(2.3915 -1.64202 -0.544419)
(2.14603 -1.49154 -0.0129078)
(0.955394 -0.320889 -1.22296)
(0.463629 -0.112273 -0.821229)
(-0.0278266 -0.241303 -0.562297)
(0.512756 -0.384864 0.852915)
(0.792408 0.0472945 1.36415)
(0.48363 -1.22791 0.116203)
(-0.706641 0.506503 -1.3993)
(-0.400437 0.733054 -1.33896)
(-0.0793475 0.646029 -1.2614)
(0.492915 0.160168 -1.35621)
(0.63774 -0.0775811 -0.88486)
(0.395062 -0.367966 -0.796296)
(0.183291 -0.0550183 -0.929157)
(3.33378 1.6467 0.197004)
(5.24046 0.656634 -0.633913)
(3.42467 1.51815 0.14321)
(5.70098 -1.37569 1.62519)
(5.30556 -2.06774 3.21077)
(4.92825 2.64677 -1.57324)
(4.37087 -0.604382 1.23124)
(4.40297 -1.42962 0.954913)
(4.06526 -3.73563 1.5346)
(5.55483 0.0939205 -0.0361202)
(2.74361 0.908583 -0.0747509)
(3.21902 0.187396 0.0985437)
(3.37361 -1.25423 -0.604071)
(3.03582 -0.374107 1.22912)
(3.92811 -1.06591 0.269444)
(1.71086 -0.0481994 -0.188397)
(1.67684 -0.0204657 -0.639251)
(1.41608 -0.228385 -1.07506)
(2.05631 -1.36132 -1.40548)
(2.35045 -1.60619 -0.871615)
(1.65219 -1.98137 -0.0611224)
(1.33881 0.229948 -1.4266)
(0.945919 -0.375697 -1.25736)
(0.42569 -0.182644 -0.852085)
(-0.103275 -0.282674 -0.560091)
(0.475631 -0.353928 0.962554)
(0.686746 -0.381978 1.06153)
(0.368322 -1.765 0.390667)
(-0.801375 0.481004 -1.42777)
(-0.705694 0.491044 -1.41397)
(-0.358505 0.704089 -1.37598)
(-0.0624117 0.62964 -1.28309)
(0.483789 0.127468 -1.36013)
(0.643229 -0.0727642 -0.879981)
(0.45277 -0.304417 -0.794999)
(0.235137 0.00908636 -0.963033)
(3.14431 1.31932 -0.387048)
(3.6143 0.551328 0.364969)
(3.5878 1.39487 0.0471039)
(5.1024 -0.509167 0.751837)
(5.13111 0.405508 -0.105866)
(3.64107 0.905248 -0.00786315)
(5.66659 -1.05194 1.74355)
(5.19494 -1.74219 2.56756)
(5.26862 -2.27836 2.54802)
(5.12824 1.85279 -0.578761)
(4.4409 0.0707572 1.14059)
(4.3585 -2.59495 0.463461)
(4.1471 -2.15378 0.853952)
(4.09737 -4.19691 1.66725)
(5.21428 -1.1206 -0.0493784)
(3.24546 0.179412 -0.088755)
(2.77385 0.360234 -0.580869)
(3.3012 -1.44153 -1.65664)
(2.84279 -2.04862 -1.02077)
(2.50937 -2.4624 1.14244)
(3.79651 -1.30862 -0.0567477)
(2.12785 0.100044 -0.37772)
(1.66805 -0.29486 -0.385126)
(1.58407 -0.386723 -0.795799)
(1.32384 -0.764478 -1.1995)
(1.80746 -2.14577 -1.86239)
(2.38803 -1.56892 -0.940848)
(1.30434 -1.87529 0.0654192)
(1.40354 0.325313 -1.42442)
(1.28451 0.0698006 -1.42227)
(0.90606 -0.54247 -1.27314)
(0.436165 -0.232815 -0.85243)
(-0.154662 -0.306219 -0.562729)
(0.484232 -0.377343 0.932564)
(0.546447 -0.742702 0.69306)
(0.203884 -2.15142 0.428522)
(-0.382781 0.41068 -1.33803)
(-0.799583 0.478163 -1.44925)
(-0.70628 0.470802 -1.42791)
(-0.351418 0.708237 -1.39182)
(-0.051556 0.611038 -1.30444)
(0.470951 0.0671639 -1.37622)
(0.647202 -0.0835513 -0.874919)
(0.483981 -0.255948 -0.791329)
(0.290781 0.050978 -0.97666)
(2.7455 0.862676 0.0291054)
(3.58129 0.529538 0.034023)
(3.2408 0.966408 -0.249723)
(3.9822 0.0865234 0.507775)
(3.61602 0.243625 0.265495)
(3.65243 1.13334 0.0287004)
(4.80041 -0.409125 1.31476)
(5.12005 -1.28019 1.04857)
(4.98737 -0.0849153 0.210193)
(3.81765 0.26316 -0.200917)
(5.8164 -0.82462 1.93666)
(5.20357 -1.71689 2.00248)
(4.85251 -2.64216 1.72731)
(4.83233 -2.72177 1.79319)
(5.2118 1.05644 -0.416905)
(4.94777 -0.257981 1.23372)
(4.46253 -1.6938 1.40971)
(4.40464 -2.58162 0.0467919)
(3.84372 -3.03015 1.24821)
(4.27934 -3.86363 1.7639)
(4.71442 -1.70727 0.133755)
(3.82309 0.12867 0.188739)
(3.23912 -0.554461 -0.494542)
(2.86081 0.0866435 -0.570967)
(3.16072 -1.98111 -1.81566)
(2.71156 -2.13538 -0.585541)
(2.06098 -3.35945 1.47097)
(3.21393 -2.59103 -0.599933)
(2.93604 -0.309408 -0.574217)
(2.12295 -0.0126657 -0.497062)
(1.60174 -0.515864 -0.619823)
(1.28268 -1.37608 -1.1942)
(1.31787 -1.19868 -1.12683)
(1.84247 -2.16826 -2.32022)
(2.38992 -1.56318 -0.387727)
(1.84535 -1.26751 0.270933)
(0.781905 0.0474607 -1.00596)
(1.427 0.240253 -1.39778)
(1.26164 -0.0979765 -1.38361)
(0.895425 -0.667257 -1.26992)
(0.476188 -0.265957 -0.831915)
(-0.18182 -0.296658 -0.553297)
(0.4332 -0.414145 0.71188)
(0.431569 -0.949013 0.391776)
(0.218834 -2.13923 0.243218)
(-0.591819 0.696632 -1.00566)
(-0.362073 0.391654 -1.35375)
(-0.798098 0.470497 -1.47229)
(-0.702407 0.461134 -1.44029)
(-0.325363 0.692351 -1.41417)
(-0.050041 0.583416 -1.32571)
(0.478335 0.0587072 -1.38456)
(0.631075 -0.0886047 -0.888033)
(0.581082 -0.120928 -0.783714)
(0.312632 0.0781368 -0.976544)
(2.21234 1.12533 0.0364142)
(3.05912 0.798293 -0.015154)
(2.76824 0.719174 1.78802e-05)
(3.4521 0.392002 0.214181)
(3.59803 0.383109 0.0355083)
(3.32171 0.722289 -0.205419)
(3.81561 -0.388979 0.961855)
(3.9356 -0.286883 0.477118)
(3.68682 -0.41878 0.148986)
(3.72255 0.611223 -0.0207177)
(4.52969 -0.26128 1.66213)
(4.85374 -1.15447 1.40959)
(4.95705 -1.56322 1.12783)
(4.90329 -0.653164 0.124757)
(3.84451 0.147506 -0.17008)
(5.7947 -0.226067 1.93077)
(5.73553 -1.05677 2.05693)
(4.85018 -2.30325 1.77826)
(4.67509 -3.02426 1.53382)
(4.40389 -3.19905 1.89413)
(5.37311 0.484659 -0.162904)
(5.3225 -0.154953 1.41872)
(4.86287 -0.681212 1.301)
(4.53233 -2.60702 1.25767)
(4.50762 -2.57059 1.93309)
(3.92546 -3.78535 1.39531)
(4.61191 -3.90283 1.78917)
(3.89094 -3.21571 0.250215)
(4.27041 0.0316065 0.389632)
(3.79998 -0.738288 -0.0226283)
(3.17566 -0.817279 -0.504673)
(3.09533 -0.678153 -0.656003)
(3.07265 -2.38381 -1.15105)
(2.16769 -2.91409 0.00952686)
(2.0953 -3.71989 1.84241)
(2.55359 -4.07915 -1.04187)
(3.27436 -0.443445 -0.273683)
(2.87598 -0.479304 -0.499253)
(2.08316 -0.399811 -0.85602)
(1.4141 -1.08886 -1.12935)
(1.10489 -1.76942 -1.35179)
(1.26895 -1.40713 -1.15011)
(2.06329 -2.04145 -2.43824)
(2.30103 -1.55167 -0.0592971)
(2.0683 -1.17674 0.293222)
(0.766616 0.314437 -0.572224)
(0.801219 -0.00454698 -0.985513)
(1.4466 0.181602 -1.36469)
(1.23708 -0.191594 -1.36359)
(0.911633 -0.729277 -1.20854)
(0.555835 -0.288021 -0.739442)
(-0.184167 -0.276724 -0.55608)
(0.466003 -0.415299 0.39407)
(0.310902 -1.11198 -0.0415505)
(0.404642 -1.84688 0.0261044)
(-0.80409 0.695198 -0.901717)
(-0.591955 0.639957 -1.0297)
(-0.34872 0.386426 -1.35881)
(-0.80669 0.466343 -1.49029)
(-0.70374 0.460308 -1.44739)
(-0.30808 0.678842 -1.43361)
(-0.0467448 0.546517 -1.34777)
(0.465597 0.0355232 -1.37494)
(0.621488 -0.100052 -0.937386)
(0.662284 -0.0803121 -0.788674)
(0.342527 0.105959 -0.950052)
(1.84694 1.15076 0.102048)
(2.54552 0.987899 0.170204)
(2.22448 0.970081 0.0601467)
(3.12022 0.412417 0.274204)
(3.06005 0.52637 0.00109215)
(2.78769 0.614473 -0.034503)
(3.46463 0.0621082 0.508903)
(3.49164 -0.110007 0.216772)
(3.54458 0.156658 0.0324468)
(3.3488 0.452651 -0.133812)
(3.35228 -0.561552 1.04309)
(3.82897 -0.695955 0.960054)
(3.86538 -0.709873 0.45656)
(3.66058 -0.603047 0.047557)
(3.69841 0.501238 0.0325434)
(4.39045 -0.23866 1.38351)
(4.61656 -0.646168 1.7344)
(4.83003 -1.22798 1.37362)
(4.86121 -1.85811 1.05695)
(4.67283 -1.20982 0.324259)
(3.85146 -0.207648 -0.245211)
(5.75526 -0.207949 1.6074)
(5.71509 -0.535817 2.16903)
(5.521 -1.52491 1.97259)
(4.58476 -2.85261 1.77861)
(4.2704 -3.76571 1.42408)
(4.1126 -3.42869 2.02168)
(5.3593 0.118785 -0.211732)
(5.2233 0.0137111 1.97863)
(5.3443 -0.451758 1.63558)
(4.8598 -0.767317 1.34417)
(4.52425 -2.98539 1.55495)
(4.63899 -2.90866 2.39142)
(4.39633 -3.47136 1.82658)
(4.12835 -4.68259 1.71206)
(3.29007 -3.71003 0.288566)
(4.30535 -0.464634 0.863251)
(4.33292 0.0895123 0.619733)
(3.88173 -1.10555 -0.0656422)
(3.11417 -0.98824 -0.459594)
(3.09414 -1.29201 -1.05909)
(2.85124 -2.72123 -0.365697)
(1.90651 -3.27644 0.888475)
(2.29811 -4.32534 1.91523)
(2.72235 -4.40014 -0.448539)
(3.18636 -0.18919 -0.219095)
(3.2687 -0.548744 -0.409649)
(2.87342 -0.598979 -0.465422)
(2.0003 -0.783581 -1.09793)
(1.29478 -1.38025 -1.34921)
(1.03991 -1.96445 -1.25448)
(1.33539 -1.84885 -0.482884)
(2.36941 -1.84189 -2.08992)
(2.40431 -1.55585 0.865004)
(2.00676 -1.57159 -0.163546)
(0.427105 0.269599 -0.770975)
(0.788314 0.229343 -0.555997)
(0.863951 -0.17879 -0.930501)
(1.46476 0.138524 -1.32847)
(1.21221 -0.3646 -1.32992)
(0.936861 -0.806606 -1.07615)
(0.61075 -0.355957 -0.606749)
(-0.142852 -0.246652 -0.58932)
(0.449774 -0.399206 0.175192)
(0.159153 -1.28558 -0.592582)
(0.58713 -1.59879 -0.000543707)
(-0.283571 0.564143 -1.07338)
(-0.789073 0.686647 -0.912282)
(-0.558507 0.663704 -1.01735)
(-0.336702 0.395244 -1.34326)
(-0.812227 0.466112 -1.50844)
(-0.694614 0.451662 -1.45856)
(-0.299536 0.677297 -1.44228)
(-0.0476465 0.508081 -1.36618)
(0.460571 0.0149443 -1.36505)
(0.639229 -0.109858 -0.96508)
(0.739079 -0.0305609 -0.807968)
(0.372319 0.141574 -0.920481)
(1.73745 1.05565 0.0241959)
(2.20207 0.874497 0.0144395)
(1.92519 1.05202 0.0987576)
(2.80066 0.69131 0.144371)
(2.63433 0.644456 0.193866)
(2.25599 0.823657 0.0793449)
(3.03983 0.148779 0.407476)
(3.13372 0.187763 0.261671)
(3.05403 0.40503 0.0993705)
(2.82942 0.356137 -0.0894042)
(3.50352 0.0523049 0.72847)
(3.49352 -0.36057 0.538783)
(3.4486 -0.38493 0.33405)
(3.47824 0.0535474 0.0912786)
(3.29791 0.169953 -0.181083)
(3.16565 -0.558896 1.03763)
(3.36077 -1.06457 1.15858)
(3.79733 -0.890642 0.922812)
(3.81934 -1.15161 0.525684)
(3.52487 -1.00136 -0.122904)
(3.68749 0.155148 -0.0642248)
(4.21709 -0.479982 1.4659)
(4.36294 -0.517241 1.46884)
(4.683 -0.924783 1.76528)
(4.60371 -1.56044 1.28629)
(4.31403 -2.69862 0.874404)
(4.46916 -1.40478 0.281039)
(3.99199 -0.465756 -0.116402)
(5.50488 -0.480104 1.7898)
(5.66582 -0.665558 1.95328)
(5.72596 -0.621246 2.15075)
(5.15774 -2.06924 1.97322)
(4.38511 -3.08388 1.89588)
(3.669 -4.33678 1.26636)
(3.82064 -3.87056 2.07472)
(4.87766 -0.609063 -0.0949518)
(5.04904 -0.538608 1.8969)
(5.36344 -0.831761 1.69941)
(5.05495 -0.813461 2.28716)
(4.78384 -1.43838 1.64886)
(4.47301 -2.98342 1.907)
(4.27872 -3.26178 2.49053)
(3.72631 -4.58579 1.58703)
(4.30616 -4.40772 1.87596)
(2.06876 -4.98833 0.351341)
(4.00452 -0.104693 0.5205)
(4.30791 -0.522982 0.971635)
(4.28372 -0.583477 0.984122)
(4.06743 -0.760553 0.064375)
(3.00867 -1.38567 -0.415079)
(2.70753 -2.27474 -1.33268)
(2.4122 -3.08803 0.508571)
(1.52513 -3.86603 1.58022)
(1.90879 -5.44047 1.49898)
(2.78736 -5.18675 0.41437)
(3.44669 -0.400849 -0.250469)
(3.18117 -0.395917 -0.369133)
(3.16414 -0.818124 -0.512168)
(2.86558 -0.870698 -0.325252)
(1.94751 -1.12457 -1.172)
(1.1972 -1.61685 -1.44181)
(1.00119 -2.12634 -0.887278)
(1.36492 -2.26768 -0.21215)
(2.58705 -1.92416 -1.04244)
(2.44663 -1.78765 1.72354)
(1.75113 -2.43182 -0.206309)
(0.675739 0.270013 -1.14956)
(0.43543 0.228366 -0.775543)
(0.804371 0.180547 -0.55161)
(0.919057 -0.157866 -0.886147)
(1.47195 0.0827233 -1.29886)
(1.17945 -0.509218 -1.29749)
(0.945604 -0.889236 -0.941307)
(0.64012 -0.491859 -0.418671)
(-0.0577125 -0.21565 -0.645281)
(0.45973 -0.378783 0.051619)
(0.109531 -1.34676 -0.897881)
(0.775923 -1.438 0.0208703)
(0.200796 1.00373 -1.0866)
(-0.302612 0.643673 -1.06231)
(-0.777046 0.700299 -0.90746)
(-0.57739 0.602626 -1.03494)
(-0.319139 0.396491 -1.32954)
(-0.823979 0.460814 -1.5237)
(-0.693683 0.452234 -1.46413)
(-0.296734 0.627775 -1.46625)
(-0.0530344 0.471475 -1.38306)
(0.461057 -0.00636237 -1.3625)
(0.617976 -0.114665 -1.02127)
(0.842715 0.026637 -0.820067)
(0.400877 0.186599 -0.897863)
(1.68695 1.15347 -0.0144185)
(2.06 0.824038 0.200102)
(1.83133 0.905224 0.0144485)
(2.45827 0.762528 0.251178)
(2.32024 0.437495 -0.0139927)
(1.97418 0.912782 0.143708)
(2.90871 0.322456 0.474417)
(2.8193 0.338107 0.128284)
(2.67313 0.492025 0.20489)
(2.29987 0.663489 0.08773)
(3.04129 -0.128689 0.638581)
(2.99771 -0.18199 0.43274)
(3.08126 -0.0581808 0.232483)
(3.07262 -0.0305579 0.147294)
(2.83052 0.324689 -0.0830892)
(3.41543 -0.339434 0.944844)
(3.38704 -0.769785 0.594453)
(3.47075 -0.382112 0.506702)
(3.42722 -0.52808 0.341546)
(3.43208 -0.19966 0.0919954)
(3.25514 -0.115255 -0.237126)
(3.3421 -0.348533 0.986548)
(3.23674 -0.893925 1.07587)
(3.32879 -1.12624 1.15238)
(3.76742 -1.0862 0.939293)
(3.71359 -1.33459 0.553368)
(3.45624 -1.30366 -0.124992)
(3.62703 -0.0680459 -0.221618)
(4.08706 -0.782192 1.27569)
(4.38037 -0.806091 0.854887)
(4.47838 -0.599968 1.40511)
(4.55655 -1.05082 1.75713)
(4.29818 -1.96109 1.37448)
(3.78053 -3.08082 0.762149)
(3.62922 -2.88248 0.747482)
(4.05388 -0.653516 0.0886912)
(4.97832 -0.875826 1.93113)
(5.65901 -0.552365 1.48877)
(5.60302 -0.771702 2.11311)
(5.47872 -1.35935 2.24548)
(4.73261 -2.27534 2.11277)
(4.41829 -2.90783 1.92319)
(4.08927 -3.80978 1.53655)
(3.99238 -3.70098 1.9908)
(4.10483 -1.46739 0.00204089)
(4.6281 -1.1397 1.2869)
(4.9566 -1.02711 2.0332)
(5.27163 -0.879676 1.90756)
(5.21293 -0.930035 1.99352)
(4.64922 -1.77911 1.97448)
(4.04812 -3.26406 1.92368)
(4.06287 -3.4903 2.43108)
(3.88444 -4.61288 1.68396)
(4.1961 -4.5294 1.90882)
(2.27354 -4.67451 0.342715)
(3.73173 0.265054 0.509222)
(3.9898 -0.601226 0.393235)
(4.28885 -0.503083 0.999934)
(4.30908 -1.07952 1.12178)
(3.91968 -1.21138 0.0152628)
(2.9648 -1.45693 -0.30746)
(2.46901 -2.68593 -1.16751)
(2.00611 -3.13764 0.725796)
(1.3211 -4.37157 1.1113)
(1.63552 -5.96362 1.03523)
(2.56279 -5.81911 0.619893)
(3.5895 -0.241874 -0.142579)
(3.34185 -0.856119 -0.376302)
(3.13617 -0.705067 -0.505217)
(3.07315 -0.896302 -0.619282)
(2.80225 -1.05444 -0.319941)
(1.94673 -1.3174 -1.12439)
(1.11368 -1.73822 -1.31694)
(0.967642 -2.22466 -0.396409)
(1.3977 -2.56738 -0.435714)
(2.66196 -2.00057 -0.481086)
(1.93805 -2.70905 1.75938)
(0.778632 -3.72341 -0.0675893)
(1.3118 0.7611 -0.143995)
(0.737729 0.205978 -1.093)
(0.440869 0.212781 -0.771882)
(0.816998 0.122329 -0.545131)
(0.966337 -0.18555 -0.821683)
(1.47504 -0.00432863 -1.2678)
(1.1212 -0.670416 -1.27606)
(0.93608 -0.970059 -0.806116)
(0.520961 -0.795081 -0.0747744)
(0.0666438 -0.215405 -0.673718)
(0.513651 -0.343933 -0.171498)
(0.187707 -1.36507 -1.04561)
(1.12606 -1.25283 0.110505)
(0.899014 0.906805 -0.582799)
(0.200683 1.00537 -1.14423)
(-0.284201 0.608757 -1.11327)
(-0.762915 0.711351 -0.902553)
(-0.532759 0.682063 -0.993332)
(-0.311541 0.393321 -1.32835)
(-0.831031 0.465565 -1.53977)
(-0.691201 0.439286 -1.47384)
(-0.304537 0.604222 -1.48728)
(-0.0571184 0.438716 -1.41758)
(0.45364 -0.0143694 -1.35823)
(0.61538 -0.120595 -1.0705)
(0.943006 0.0770921 -0.83745)
(0.427633 0.238428 -0.881916)
(1.74284 1.01108 -0.109611)
(2.06407 0.773738 0.0997474)
(1.73366 1.09827 0.0194152)
(2.31012 0.903204 0.1237)
(2.16255 0.597405 0.19859)
(1.91774 0.801647 -0.0435981)
(2.61085 0.489819 0.450215)
(2.49373 0.370344 0.211327)
(2.31365 0.348354 0.0165478)
(1.98559 0.758682 0.206438)
(2.92567 0.0364134 0.467738)
(2.86039 -0.0125461 0.418852)
(2.83808 0.123625 0.142217)
(2.75176 0.249616 0.242992)
(2.33952 0.5057 0.0691154)
(3.23438 -0.0737933 0.641924)
(3.00435 -0.303511 0.543952)
(2.98608 -0.274232 0.436782)
(2.9978 -0.41935 0.291498)
(3.03071 -0.326 0.141002)
(2.79252 0.0915981 -0.117131)
(3.37656 -0.158727 1.02488)
(3.19389 -0.942571 0.859053)
(3.28865 -0.572359 0.676428)
(3.37788 -0.584613 0.482304)
(3.35775 -0.654533 0.309772)
(3.30897 -0.721852 0.104183)
(3.22071 -0.337957 -0.2199)
(3.22488 -1.06691 1.29699)
(3.2866 -1.14584 1.08974)
(3.25716 -1.21617 1.13641)
(3.26643 -1.20378 1.10525)
(3.63829 -1.2686 0.998061)
(3.60784 -1.37672 0.394845)
(3.30616 -1.39702 -0.178492)
(3.5594 -0.0892327 -0.208521)
(3.86991 -1.16222 1.45713)
(4.19429 -1.2728 0.792794)
(4.42848 -0.860359 0.972608)
(4.50689 -0.697977 1.408)
(4.43005 -1.23278 1.67638)
(4.20297 -2.21198 1.35314)
(3.72736 -2.69364 0.717023)
(3.62276 -2.39928 0.658369)
(3.94321 -0.956842 0.248377)
(4.65255 -0.941333 1.83416)
(5.24461 -0.874944 1.2529)
(5.56898 -0.77288 1.72136)
(5.5787 -0.978417 2.16157)
(5.10772 -2.04512 2.36066)
(4.63157 -2.28466 2.04112)
(4.12081 -3.46724 2.0112)
(3.59894 -4.46719 1.47821)
(3.65589 -3.90476 2.06271)
(3.38384 -1.88499 0.0214748)
(4.08681 -0.212439 1.60234)
(4.59963 -1.38302 1.52534)
(4.8703 -1.18781 2.23845)
(5.14776 -1.17133 2.06436)
(5.10501 -1.03908 2.18738)
(4.4853 -1.83229 2.50734)
(3.96619 -3.44876 1.87788)
(4.26037 -3.46428 2.54631)
(3.73213 -4.79395 1.8062)
(3.68606 -4.9247 1.95485)
(2.87421 -3.97588 0.255818)
(3.88872 -0.19263 0.694689)
(3.75902 0.00136191 0.44537)
(3.96242 -0.849133 0.228917)
(4.18387 -0.719277 0.967018)
(4.64045 -0.380492 1.02213)
(3.63725 -1.98773 -0.170018)
(2.85352 -1.76268 -0.049139)
(2.3767 -2.67722 -0.623976)
(1.75685 -3.2427 1.06079)
(1.03314 -5.10682 1.19529)
(2.34052 -5.74054 0.780792)
(2.34231 -5.8973 0.73102)
(3.35275 -0.544052 -0.469459)
(3.49256 -0.756576 -0.0685337)
(3.34031 -0.595285 -0.422204)
(3.094 -0.881668 -0.555954)
(2.88068 -1.19983 -0.753023)
(2.69889 -1.2561 -0.36909)
(1.97789 -1.42063 -0.969515)
(0.987574 -1.90344 -1.10897)
(0.965039 -2.25312 -0.112464)
(1.48119 -2.83521 -0.711066)
(2.43775 -2.40065 0.669346)
(1.06656 -3.94712 1.33551)
(0.909776 -3.93314 0.651207)
(1.0133 0.95168 -0.289557)
(1.40938 0.683939 -0.148267)
(0.76557 0.158218 -1.04173)
(0.445227 0.19893 -0.757185)
(0.822017 0.0891265 -0.541054)
(1.06419 -0.0816343 -0.725263)
(1.45861 -0.104422 -1.22988)
(1.05957 -0.771782 -1.26797)
(0.931114 -1.04086 -0.640417)
(0.290251 -1.25105 0.438801)
(0.193974 -0.221308 -0.651166)
(0.589568 -0.34051 -0.298052)
(0.349535 -1.38355 -1.02183)
(1.37117 -1.15323 0.325856)
(0.818594 1.06602 -0.327512)
(0.909216 0.88895 -0.583219)
(0.227043 1.01227 -1.15195)
(-0.289429 0.564064 -1.13628)
(-0.771038 0.718681 -0.898049)
(-0.562874 0.612796 -1.01369)
(-0.300037 0.396788 -1.32917)
(-0.849178 0.466694 -1.55349)
(-0.690821 0.44219 -1.47796)
(-0.302434 0.577414 -1.51084)
(-0.0506978 0.390808 -1.46338)
(0.438593 -0.0266661 -1.37608)
(0.606613 -0.109335 -1.11734)
(1.02535 0.106945 -0.876159)
(0.455551 0.280033 -0.871283)
(1.61646 0.875951 -0.101963)
(2.0434 0.914511 0.0174769)
(1.76609 0.902436 -0.0979633)
(2.27861 0.648356 0.230304)
(2.19871 0.436717 0.154497)
(1.77376 1.00038 -0.00457609)
(2.43814 0.546217 0.245153)
(2.34061 0.692367 0.116666)
(2.17327 0.426081 0.140595)
(1.91518 0.794066 -0.0677474)
(2.71628 0.419322 0.436777)
(2.61548 0.340586 0.442001)
(2.46698 0.145293 0.215106)
(2.36037 0.154152 0.0389173)
(2.05057 0.50186 0.249184)
(2.85877 -0.157544 0.814335)
(2.80545 -0.230332 0.536149)
(2.85362 -0.177189 0.413584)
(2.89215 -0.145219 0.169528)
(2.69966 0.0767444 0.225778)
(2.33503 0.17863 -0.0365526)
(3.18556 -0.120768 0.945924)
(3.13175 0.057218 0.666896)
(3.05025 -0.625053 0.449711)
(2.98589 -0.423294 0.373891)
(2.88749 -0.669912 0.178883)
(3.00708 -0.492663 0.143109)
(2.7793 -0.0674423 -0.149274)
(3.36187 -0.266867 1.12416)
(3.18749 -1.0128 0.998709)
(3.04359 -0.784936 0.839885)
(3.21207 -0.915682 0.668805)
(3.28985 -0.931464 0.491957)
(3.29794 -0.79835 0.384117)
(3.2347 -0.758302 0.108299)
(3.17147 -0.391981 -0.144114)
(3.47797 -0.785335 1.38365)
(3.31703 -0.791922 1.21348)
(3.30115 -1.08626 1.08297)
(3.2315 -1.33098 1.09853)
(3.48703 -1.24991 0.933054)
(3.56351 -1.3898 0.97858)
(3.61523 -1.15073 0.37311)
(3.11801 -1.29794 -0.219306)
(3.50464 -0.329218 -0.0668692)
(3.90536 -0.572952 1.66143)
(4.06954 -0.930978 1.12902)
(4.4662 -0.778382 0.946059)
(4.39752 -0.996587 1.11216)
(4.40827 -0.865974 1.43175)
(4.59911 -1.09412 1.21791)
(4.17102 -1.89918 1.21319)
(3.00906 -3.19134 1.0141)
(3.91095 -1.64075 0.480059)
(3.84004 -1.05898 0.315837)
(4.32374 -0.761232 2.05508)
(4.67154 -1.40908 1.47278)
(5.12972 -1.04484 1.54347)
(5.38678 -1.01292 1.89609)
(5.524 -1.15911 2.14092)
(5.27158 -1.53508 2.26337)
(4.51278 -2.63845 2.06336)
(4.14567 -3.56047 2.01781)
(3.69818 -4.41314 1.01906)
(3.78989 -3.22086 2.07822)
(2.96518 -2.09609 -0.0247515)
(3.98542 0.038902 1.845)
(4.33261 -0.816828 1.43961)
(4.51124 -1.41393 2.03992)
(4.9674 -1.34126 2.07576)
(5.00727 -1.69627 2.42196)
(4.87599 -1.34023 2.45089)
(4.07676 -2.9228 2.64057)
(3.99378 -3.55644 2.29904)
(4.07586 -3.65687 2.7266)
(3.09059 -5.299 1.45087)
(2.37542 -5.62896 1.91252)
(3.25501 -3.49981 0.0995059)
(3.73517 -0.738704 -0.191744)
(3.7481 -0.166438 0.601142)
(3.7674 -0.0952077 0.689167)
(3.95125 -0.876316 0.343536)
(4.09884 -0.600982 0.961554)
(4.35441 -1.44429 1.0947)
(3.87544 -1.51881 0.0428067)
(2.69403 -2.31772 0.256007)
(2.06863 -2.95987 0.12693)
(1.20355 -3.47032 1.89516)
(1.05449 -5.56923 1.44739)
(2.67631 -5.64558 0.915235)
(2.46945 -5.60518 0.929407)
(2.24913 0.140777 -1.35579)
(3.19674 -1.27918 -0.544243)
(3.39594 -0.802003 -0.346468)
(3.32 -0.615468 -0.510863)
(3.06975 -0.889568 -0.519921)
(2.80384 -1.17828 -0.765843)
(2.66927 -1.35181 -0.426047)
(1.95379 -1.51489 -0.918582)
(0.899296 -2.01727 -0.880367)
(1.01229 -2.27388 0.308132)
(1.54222 -3.02757 -1.04502)
(2.10059 -2.87241 1.50464)
(0.789641 -4.26817 1.36669)
(1.52593 -3.88942 1.00279)
(0.564159 0.813477 -0.178141)
(1.05304 0.927916 -0.258139)
(1.51436 0.487618 -0.232395)
(0.801886 0.0808327 -0.985694)
(0.43826 0.196166 -0.730033)
(0.818446 0.0564996 -0.545626)
(1.14256 -0.113859 -0.669627)
(1.41074 -0.198049 -1.20985)
(0.952804 -0.924994 -1.25598)
(0.897055 -1.09073 -0.474292)
(0.138818 -1.49122 0.683623)
(0.340943 -0.264439 -0.510905)
(0.711775 -0.356507 -0.334169)
(0.45185 -1.43808 -0.858415)
(1.42792 -1.17025 0.526699)
(0.941961 0.610039 -1.20269)
(0.814018 1.06939 -0.360232)
(0.918848 0.864045 -0.592272)
(0.239627 1.01558 -1.16798)
(-0.307388 0.563442 -1.15206)
(-0.762818 0.77532 -0.899997)
(-0.517211 0.681994 -0.974835)
(-0.296111 0.401197 -1.32953)
(-0.863584 0.481337 -1.56045)
(-0.688441 0.427832 -1.48598)
(-0.307303 0.5497 -1.52419)
(-0.0445513 0.349639 -1.51449)
(0.439904 -0.0294867 -1.44789)
(0.62688 -0.0793623 -1.1385)
(1.09388 0.121221 -0.919747)
(0.474015 0.323878 -0.862913)
(1.46291 0.944587 0.147734)
(1.93623 0.747432 -0.0205946)
(1.61028 0.911457 -0.0744016)
(2.16755 0.834523 0.0272601)
(2.17745 0.403826 0.0491098)
(1.80671 0.761284 0.0330704)
(2.34679 0.605602 0.127503)
(2.28298 0.463916 0.118809)
(2.09478 0.55405 0.118944)
(1.84898 0.746407 -0.0381709)
(2.5326 0.24373 0.312452)
(2.44257 0.271691 0.347014)
(2.31045 0.424571 0.151845)
(2.16943 0.262442 0.160231)
(1.9406 0.638923 -0.0408582)
(2.728 0.507801 0.6576)
(2.69376 0.186152 0.512496)
(2.65778 -0.0685789 0.293939)
(2.50906 -0.142399 0.214643)
(2.34709 0.129136 0.0804204)
(2.06955 0.408342 0.259611)
(2.9365 -0.234836 0.674578)
(2.81791 -0.157615 0.732876)
(2.7414 -0.468985 0.4954)
(2.86254 -0.405251 0.463801)
(2.87009 -0.220388 0.159309)
(2.62088 -0.115181 0.179309)
(2.28479 -0.121837 -0.115925)
(3.27288 -0.369211 0.897078)
(3.17312 -0.281153 0.934972)
(2.98371 -0.448883 0.722077)
(3.05517 -0.622882 0.551848)
(2.93727 -0.722928 0.305885)
(2.82149 -0.771593 0.206737)
(2.97412 -0.510111 0.114643)
(2.80123 -0.320494 -0.132888)
(3.24332 -1.27276 1.1286)
(3.32574 -0.542071 1.15395)
(3.10376 -0.687396 0.962115)
(3.02126 -0.82747 0.921309)
(3.10649 -1.26756 0.628)
(3.2966 -0.979911 0.443033)
(3.26413 -1.16403 0.296445)
(3.25302 -0.699801 0.0775915)
(3.08497 -0.71443 -0.18057)
(3.69705 -0.536314 1.50207)
(3.41909 -1.051 1.20439)
(3.5139 -0.927979 1.15935)
(3.39764 -1.10888 0.828907)
(3.34579 -1.33797 0.961692)
(3.46596 -1.6093 0.915847)
(3.56622 -1.46394 0.897736)
(3.23629 -1.87355 0.584084)
(3.07361 -1.31636 -0.235441)
(3.42399 -0.600712 0.264221)
(3.87911 -0.346 2.01763)
(3.98611 -0.91449 1.36978)
(4.09138 -1.31233 1.04318)
(4.41008 -1.3642 0.839395)
(4.3835 -1.26114 1.20396)
(4.38711 -1.22603 1.22912)
(4.14446 -1.67547 1.2587)
(3.28749 -2.70372 1.46597)
(2.96011 -2.73727 0.890767)
(3.8339 -1.53812 0.510614)
(3.82274 -1.03108 0.293007)
(3.81066 -0.223595 2.08238)
(4.39428 -1.42191 1.72551)
(4.63999 -1.34049 1.60298)
(5.16146 -1.10373 1.38607)
(5.31233 -1.05058 1.99268)
(5.39938 -1.30983 2.17932)
(4.76359 -2.45489 2.44015)
(2.75677 -4.41657 1.98694)
(3.2789 -4.28853 2.0275)
(3.19991 -4.41128 1.51641)
(3.2371 -3.0477 1.97762)
(2.74954 -2.16661 -0.0328853)
(3.82574 -0.648226 1.71122)
(4.00668 -0.183858 1.81345)
(4.34879 -1.36022 1.4286)
(4.41777 -1.6492 2.43504)
(4.97543 -1.43009 2.15648)
(4.98433 -1.49552 2.59312)
(4.62359 -1.7122 2.79874)
(3.76036 -3.51347 2.81984)
(3.75521 -3.57312 2.80166)
(3.53884 -4.03461 2.94823)
(2.79865 -5.32765 1.58232)
(2.59365 -5.24052 1.58471)
(3.46913 -3.2164 -0.17729)
(3.48575 -0.541545 -0.823827)
(3.742 -0.775152 0.0107365)
(3.72716 -0.307878 0.555399)
(3.88492 -0.629303 0.540623)
(3.93051 -0.921124 0.307776)
(3.90302 -0.917201 0.718058)
(4.11949 -1.65904 1.09766)
(3.60264 -1.94329 0.135694)
(2.53241 -2.60063 0.28595)
(1.70967 -3.08112 0.772126)
(1.00231 -3.62182 2.37698)
(1.70695 -5.48169 1.62309)
(2.63581 -5.54112 1.09545)
(2.88513 -5.21741 0.895544)
(1.19159 -0.158193 -1.68471)
(2.25669 -0.172798 -1.08632)
(3.19499 -1.4196 -0.694304)
(3.31088 -0.869927 -0.556183)
(3.00777 -1.46202 -0.711774)
(2.93082 -1.08662 -0.599763)
(2.7036 -1.23469 -0.770345)
(2.80707 -1.16645 -0.53681)
(1.90441 -1.52574 -0.959839)
(0.777635 -2.07079 -0.715782)
(1.03496 -2.28113 0.501633)
(1.61803 -3.0731 -1.13913)
(1.54321 -3.3432 1.43565)
(1.04093 -4.11645 1.63149)
(2.20328 -3.8923 1.0909)
(1.07278 0.549379 -1.16631)
(0.598642 0.819556 -0.306244)
(1.09213 0.884225 -0.173073)
(1.60543 0.281285 -0.203923)
(0.821294 0.0102598 -0.94378)
(0.462613 0.182537 -0.697128)
(0.804362 0.0360762 -0.569761)
(1.18443 -0.0732384 -0.70076)
(1.36211 -0.287533 -1.19812)
(0.838165 -0.998209 -1.27243)
(0.793169 -1.16271 -0.314674)
(0.0420769 -1.67368 0.808093)
(0.423268 -0.370686 -0.293097)
(0.848507 -0.408749 -0.388983)
(0.474046 -1.49915 -0.562025)
(1.45629 -1.21385 0.648225)
(1.11475 0.134549 -1.61713)
(0.923218 0.571424 -1.20739)
(0.800417 1.1052 -0.409801)
(0.926725 0.843489 -0.601255)
(0.255935 1.02047 -1.17903)
(-0.29994 0.558515 -1.17007)
(-0.773859 0.773884 -0.901107)
(-0.520313 0.663829 -0.978344)
(-0.278236 0.403806 -1.31848)
(-0.859464 0.499145 -1.56568)
(-0.681476 0.419607 -1.49552)
(-0.283448 0.554624 -1.50957)
(-0.0447159 0.311071 -1.56852)
(0.434799 -0.0267114 -1.52247)
(0.659197 -0.0506018 -1.14243)
(1.14993 0.117291 -0.952335)
(0.481234 0.37424 -0.856669)
(1.51315 0.697778 -0.0238607)
(1.72258 0.983979 -0.125354)
(1.54263 0.814995 0.0973787)
(2.04516 0.621267 0.0109064)
(1.89928 0.708913 -0.00480151)
(1.66852 0.769476 0.0346783)
(2.25304 0.611814 0.0284818)
(2.19761 0.664341 -0.00371324)
(1.946 1.01276 -0.074993)
(1.81325 0.654477 0.00779082)
(2.36579 0.320715 0.315838)
(2.33716 0.43153 0.0905109)
(2.20527 0.377492 0.217323)
(2.07753 0.379142 0.071127)
(1.86181 0.650167 -0.0556476)
(2.5666 0.415123 0.373367)
(2.56435 0.040507 0.295616)
(2.37744 0.05481 0.441052)
(2.3355 0.0389877 0.135011)
(2.16365 0.243127 0.193506)
(1.98701 0.408389 -0.00702264)
(2.77615 -0.333401 0.778874)
(2.74211 0.0995852 0.727771)
(2.63854 -0.170691 0.558757)
(2.63764 -0.186088 0.306162)
(2.52098 -0.182191 0.269272)
(2.30647 0.0515073 0.154029)
(2.0402 0.0932947 0.318486)
(2.80778 -0.267458 0.832224)
(2.97184 -0.286869 0.67201)
(2.82566 -0.24481 0.668962)
(2.80393 -0.284984 0.427918)
(2.85001 -0.527719 0.468253)
(2.72412 -0.480523 0.0767878)
(2.62016 -0.17542 0.119578)
(2.28143 -0.239688 -0.165645)
(3.3136 -0.315458 0.882859)
(3.24987 -0.417599 0.964641)
(3.09106 -0.406653 0.868793)
(2.87733 -0.883246 0.758504)
(2.94384 -0.696826 0.601377)
(2.86898 -1.12538 0.288127)
(2.7593 -1.10851 0.205922)
(2.88686 -0.844923 0.0931325)
(2.78927 -0.400906 -0.0775027)
(3.43382 -0.668625 1.39761)
(3.21495 -0.71588 1.07634)
(2.67884 -2.01882 1.11743)
(2.99605 -1.06569 0.983296)
(3.04972 -1.10444 0.97492)
(3.03636 -1.43554 0.612188)
(3.2628 -1.39686 0.436535)
(3.18812 -1.44685 0.270808)
(3.17451 -0.920963 0.0935702)
(2.99297 -1.06668 -0.19471)
(3.72544 -0.442422 1.54158)
(3.60879 -0.837391 1.39881)