/*--------------------------------*- C++ -*----------------------------------*\
  =========                 |
  \\      /  F ield         | OpenFOAM: The Open Source CFD Toolbox
   \\    /   O peration     | Website:  https://openfoam.org
    \\  /    A nd           | Version:  7
     \\/     M anipulation  |
\*---------------------------------------------------------------------------*/
FoamFile
{
    version     2.0;
    format      ascii;
    class       volScalarField;
    location    "4";
    object      nut;
}
// * * * * * * * * * * * * * * * * * * * * * * * * * * * * * * * * * * * * * //

dimensions      [0 2 -1 0 0 0 0];

internalField   nonuniform List<scalar> 
18630
(
0.000114792
0.000339281
0.000143611
0.000472154
0.000199465
0.000307286
0.000572841
0.000278527
0.000195257
0.000341574
0.000651576
0.000217971
0.000487959
0.000287232
0.000549129
0.000326326
0.000189594
0.000265116
0.000185006
0.000130476
0.000339328
0.000585999
0.000769141
0.000553019
0.000411654
0.000374877
0.000230568
0.000469144
0.000396999
0.000238296
0.000117977
0.00034423
0.000159606
0.00010113
0.000163719
0.00042422
0.000497305
0.000516335
0.000650231
0.000320744
0.000424912
0.000427084
0.000381982
0.000505722
0.000659339
0.000310753
0.00040138
0.000355231
0.000186451
0.000183624
0.000120927
0.00029323
0.000143785
0.000206312
0.000174405
0.000111185
0.000367292
0.00029476
0.000431141
0.000312847
0.000503721
0.000282279
0.000617273
0.000515152
0.000435766
0.000485031
0.00019435
0.000460689
0.000385896
0.000534416
0.000354974
0.000407263
0.000300909
0.000405909
0.000200925
0.000166816
0.000235261
0.000132229
0.00039557
0.00015548
0.000365144
0.000153627
0.000127215
0.000127122
0.000768034
0.000324985
0.000554164
0.000445144
0.000450232
0.000592495
0.000509558
0.000478179
0.000609994
0.000702131
0.000637518
0.000574456
0.000510822
0.00070862
0.000578415
0.0004417
0.00040439
0.000315437
0.000400541
0.000441872
0.000424755
0.000506474
0.000244124
0.000456984
0.000148954
0.000199588
0.000203383
9.0367e-05
0.000399625
0.00046458
0.000349471
0.000422836
9.87189e-05
9.91786e-05
0.000249967
0.000987009
0.000705093
0.000579041
0.00059285
0.00041833
0.000340848
0.000500332
0.00045912
0.00057942
0.000766501
0.000691644
0.000755651
0.000467114
0.000817643
0.000745502
0.00035786
0.000621655
0.000758605
0.000599841
0.000676948
0.00035786
0.000769002
0.000241751
0.00057458
0.000378806
0.0002791
0.000486883
0.00024007
0.000490893
0.000531447
0.000426604
0.000391261
0.000192538
0.000146615
0.000306852
0.000294298
0.000561661
0.000205241
0.000453845
0.000347338
0.000390528
0.000152749
0.000160786
0.000340659
0.000776654
0.000575444
0.000357543
0.000525713
0.000832407
0.000634874
0.000333482
0.000362645
0.000466077
0.000407011
0.000595328
0.000809732
0.000475498
0.000590391
0.000815556
0.000548014
0.000812748
0.000461968
0.000648799
0.000946121
0.000709501
0.00054968
0.000522481
0.000388991
0.000426277
0.000655783
0.000547628
0.000532262
0.000690921
0.000717115
0.00048428
0.000551599
0.000408469
0.000476783
0.000341776
0.000251942
0.000396273
0.000444487
0.000758912
0.000449559
0.000330335
0.000479508
0.000269754
0.000461799
0.000635318
0.000622301
0.000945648
0.000285038
0.000388399
0.000213458
0.00013378
0.000228213
0.000260698
0.000363651
0.000669989
0.000783072
0.000408222
0.000244066
0.000122489
0.000601905
0.00048227
0.000759174
0.000575634
0.000301603
0.000486704
0.000405725
0.000809514
0.000593106
0.000587591
0.000613616
0.000757812
0.000760911
0.000409867
0.000723975
0.00123063
0.000594826
0.000482874
0.000699308
0.000619289
0.00059279
0.000557843
0.000499287
0.000431726
0.000418059
0.000363199
0.000544667
0.000343894
0.000543616
0.000924746
0.000331587
0.0004224
0.00037406
0.000577862
0.000306258
0.000349308
0.000511224
0.000304623
0.000413495
0.000398888
0.000369031
0.000557483
0.000556838
0.000840917
0.000435978
0.000427992
0.000799771
0.000608657
0.000440901
0.000561938
0.000775468
0.000793121
0.000191674
0.000515696
0.00071619
0.000354883
0.000180047
0.000200963
0.000339149
0.000424064
0.000486325
0.000803884
0.000163733
0.000106834
0.000518712
0.000681699
0.000684733
0.00062543
0.000316576
0.000409062
0.00048564
0.000512053
0.00035785
0.000719458
0.000656574
0.000479855
0.000511161
0.000797966
0.000934849
0.000542864
0.000491123
0.000443591
0.000777878
0.00062754
0.000701502
0.000508869
0.000527366
0.000654269
0.00076337
0.000589897
0.000617399
0.00055685
0.000461063
0.000617221
0.000887248
0.000549073
0.000502651
0.000513027
0.000252742
0.000380144
0.000486127
0.000886123
0.000338232
0.000380666
0.000717527
0.000330378
0.00051334
0.000729147
0.000429848
0.000482067
0.00063104
0.000376772
0.000390919
0.000333669
0.000372012
0.000716896
0.000694492
0.000638737
0.000332443
0.000675896
0.000467663
0.000805998
0.000761327
0.000823618
0.00039413
0.000345183
0.000685269
0.000140659
0.000280863
0.000250704
0.00068586
0.000955853
0.000503704
0.000266664
0.000218117
0.000368911
0.000465463
0.000649252
0.000727462
0.000254826
0.00019282
7.45433e-05
0.000418928
0.000537302
0.000461788
0.000597579
0.000706343
0.000570077
0.000566971
0.000347265
0.000521156
0.000740223
0.000449011
0.000363656
0.000623211
0.000623105
0.000502945
0.000902434
0.000400066
0.000531074
0.000526506
0.000870213
0.000888814
0.000704551
0.000417473
0.000332481
0.000838144
0.00064784
0.000662917
0.000792826
0.000768305
0.000561595
0.00086632
0.000938604
0.000660235
0.000566784
0.000823935
0.000576732
0.000581707
0.000851409
0.00075763
0.000615187
0.000403617
0.000723515
0.000505486
0.000545673
0.00104434
0.000968864
0.000439273
0.000690705
0.000446697
0.000529124
0.00100826
0.000460966
0.000537854
0.000725398
0.000434573
0.000850815
0.000884226
0.000795436
0.000340583
0.000615254
0.000287117
0.000389081
0.000532528
0.00076772
0.000809252
0.000376131
0.000606735
0.000823124
0.000739325
0.000729023
0.000787819
0.000459378
0.000378083
0.000498505
0.000438311
0.000407608
0.000196403
0.000461577
0.000330305
0.000827215
0.00102461
0.000546253
0.000356365
0.000363878
0.000401874
0.000462042
0.000896546
0.000657816
0.00022192
0.000172417
8.68136e-05
6.41706e-05
0.000486679
0.000456889
0.000299683
0.000530387
0.000328015
0.000278081
0.000641564
0.000902501
0.000316719
0.000664962
0.000510366
0.000345564
0.000424466
0.000572411
0.000515617
0.000454967
0.00063582
0.000533668
0.000557869
0.000510729
0.000678953
0.000802631
0.000795408
0.000752271
0.000424332
0.000581119
0.000653217
0.000652555
0.00057596
0.000647841
0.000501562
0.000450159
0.000575606
0.00106022
0.000653052
0.000641201
0.00056894
0.00089349
0.000496242
0.000779253
0.00155495
0.00101804
0.000668149
0.000739477
0.000288239
0.000616434
0.000737723
0.000766548
0.000896144
0.000925242
0.000574753
0.00071549
0.000531442
0.000527558
0.00112728
0.000997996
0.000922271
0.000177582
0.000772555
0.00117263
0.000620824
0.000916929
0.000445639
0.000868758
0.00102676
0.000502642
0.000759519
0.000755476
0.000704506
0.00047589
0.000394915
0.000697341
0.00042018
0.000498976
0.000476009
0.000564803
0.000572295
0.00047558
0.000553841
0.000434251
0.000982609
0.000480703
0.000766754
0.000416068
0.000240721
0.000452856
0.000640139
0.000324271
0.000150855
0.000237286
0.000606422
0.000312267
0.000237366
0.000934204
0.000945839
0.000515627
0.000302771
0.000452192
0.000453849
0.000455809
0.000976187
0.000489421
0.000183508
0.000110396
0.000115378
0.000102204
0.000187285
0.00042515
0.000473362
0.000554442
0.000190131
0.000500651
0.000511211
0.000523919
0.000470289
0.00100487
0.000413717
0.000386615
0.00067393
0.000383232
0.000591788
0.0002701
0.000569789
0.000400168
0.000522885
0.000534039
0.000580559
0.000621486
0.000583721
0.0007329
0.000676311
0.000586197
0.00062655
0.000512812
0.000401846
0.000908816
0.000953723
0.000745434
0.000886576
0.000557492
0.000419745
0.000500313
0.000752907
0.000353733
0.000477769
0.000424827
0.000651081
0.000403535
0.000436609
0.00125582
0.000695937
0.000768021
0.000707749
0.000481902
0.000544045
0.000343821
0.000580665
0.000764284
0.00104516
0.000759322
0.00114418
0.00133696
0.000835492
0.000574773
0.000570807
0.000814106
0.000635589
0.000835779
0.000982356
0.00153761
0.00116932
0.000830653
0.000513573
0.000719106
0.000559396
0.000769546
0.000807451
0.00105653
0.000699565
0.00107429
0.000650352
0.000788719
0.000664536
0.00133471
0.000766716
0.000665939
0.000798463
0.000682218
0.000702755
0.00024478
0.000750287
0.000969412
0.000765641
0.000457324
0.000504693
0.000572152
0.000296311
0.000397156
0.000657282
0.0005043
0.000353914
0.000726293
0.000857482
0.000285922
0.0010446
0.000181888
0.000296322
0.000498838
0.000637159
0.000298602
0.000340332
0.000472508
0.00045381
0.000295099
0.000276477
0.000225459
0.000925057
0.000803888
0.000453016
0.000140637
0.000442973
0.000459767
0.0004727
0.000986175
0.000183383
0.000142313
9.72366e-05
0.000142662
3.85036e-05
0.000212487
6.32174e-05
0.000482031
0.000542797
0.000188454
0.000614963
0.00029906
0.000630696
0.000354393
0.000800786
0.000566046
0.00048212
0.000764856
0.000436819
0.00060942
0.000623042
0.000784982
0.000689725
0.000727661
0.000225468
0.000377841
0.000641495
0.000618482
0.00105686
0.000199687
0.000540793
0.000386869
0.000692015
0.000308397
0.000732441
0.000495184
0.000447867
0.000564276
0.000502164
0.000485736
0.000929513
0.000575507
0.000535261
0.000504972
0.000884804
0.000802899
0.000805628
0.000748672
0.000876306
0.000728438
0.00060712
0.000409019
0.000503921
0.000630152
0.000540751
0.000811539
0.000855497
0.000823825
0.000403433
0.00051358
0.000765551
0.000751551
0.00109463
0.000603833
0.00092971
0.000729089
0.000741288
0.000930221
0.00064805
0.00113141
0.00106511
0.000402135
0.00131657
0.0007895
0.000915901
0.00045523
0.000708022
0.000863978
0.000492206
0.000750663
0.00142169
0.00127692
0.00100707
0.00120451
0.000509828
0.000444402
0.000482631
0.000450686
0.000590919
0.000495454
0.000447874
0.000990081
0.000918549
0.000899219
0.000727303
0.00107922
0.000721468
0.00100705
0.000359244
0.000506331
0.00064673
0.000637131
0.000642979
0.000696085
0.000206207
0.000393474
0.000534907
0.00156214
0.000558836
0.000403771
0.0005059
0.000179768
0.000690846
0.000703056
0.000399181
0.000349494
0.000541245
0.00065372
0.00076195
0.000583724
0.000440446
0.000311039
0.000344882
0.000573157
0.000550905
0.000319414
0.000504344
0.000660127
0.000270543
0.000223994
0.000262275
0.000203022
0.0001568
0.000785958
0.000732622
0.000199784
5.08893e-05
0.000315909
0.000343186
0.000558378
0.000841504
7.06786e-05
0.000127147
4.75118e-05
5.97326e-05
5.63072e-05
0.000148151
0.000167684
0.000152114
0.000710051
0.000420023
0.000457524
6.29826e-05
0.000372659
0.000272217
0.000154058
0.000797499
0.000302586
0.000151482
0.000554551
0.000416159
0.000333466
0.000176485
0.000321511
0.000799302
0.000343145
0.000651676
0.000820252
0.000967742
0.000608484
0.000675691
0.000632996
0.000758983
0.000607301
0.000628787
0.000305541
0.000797615
0.000749388
0.000120007
0.000733754
0.000258494
0.000433503
0.000741093
0.000691449
0.000847517
0.000559009
0.000547046
0.000506551
0.00110163
0.00104011
0.000555456
0.000758668
0.00109295
0.000590784
0.000326677
0.000464624
0.000498785
0.000628508
0.000735537
0.000868262
0.000725121
0.00108877
0.000422973
0.000641239
0.000461865
0.000534009
0.000639274
0.000629895
0.000884596
0.000761126
0.000795551
0.000989686
0.000530718
0.000659528
0.000603265
0.000707864
0.000862856
0.000646344
0.000774829
0.000898902
0.000537271
0.000945197
0.000609825
0.000718114
0.000754666
0.000691592
0.000940206
0.000462212
0.000216435
0.000305827
0.000616963
0.000500721
0.000793099
0.000628446
0.00066981
0.00141675
0.0010887
0.00140233
0.000659996
0.00070012
0.000608147
0.000588206
0.000651861
0.000689403
0.000923691
0.000497968
0.000586199
0.00065304
0.000353348
0.00101139
0.00115146
0.00123893
0.000956312
0.00102277
0.000604744
0.00023376
0.000603415
0.000861302
0.000566528
0.000696923
0.00117576
0.000704572
0.000481631
0.000376219
0.000749863
0.000430161
0.000572185
0.000412254
0.000448486
0.000595481
0.000529984
0.000583255
0.000329374
0.000261939
0.000430194
0.000507815
0.000329117
0.000712186
0.000369687
0.000588992
0.000208184
0.000448544
0.000559789
0.000497883
0.000201435
0.000464532
0.000579311
0.000315283
0.000172364
0.000235017
0.000213349
0.000191075
0.000415649
0.000237017
0.000599647
9.40173e-05
2.53934e-05
0.000189967
0.000229322
0.000570698
0.000567158
0.000106653
0.000166712
9.03208e-05
9.59447e-05
0.000299283
9.25899e-05
0.000115507
0.000198037
0.000358966
0.000402045
0.000474013
0.000314787
0.000435215
0.000518613
0.000227827
0.000278245
0.000338544
0.000322475
0.000246943
0.000660539
0.000513052
0.000302349
0.000274947
0.000286674
0.00110364
0.00030439
0.000309861
0.000751412
0.000275014
0.000719999
0.00063355
0.000445215
0.000636882
0.00053175
0.000527623
0.000802837
0.000582803
0.00062147
0.000473127
0.000820509
0.000154441
0.000815238
0.000398645
0.000584044
0.000615168
0.000725821
0.000885995
0.00068383
0.000425242
0.000656971
0.000758254
0.00100639
0.000406791
0.000639722
0.00134347
0.000587236
0.000451814
0.000652034
0.000725713
0.000828621
0.00112578
0.0014775
0.00109133
0.000663323
0.000668475
0.00048171
0.000604318
0.000594187
0.00072435
0.00060922
0.000911245
0.00092157
0.000739923
0.000793045
0.000483592
0.00055927
0.000613787
0.00042876
0.000748189
0.000714488
0.000760888
0.000929502
0.000588668
0.000941679
0.00112918
0.000906606
0.000759869
0.00059477
0.00102944
0.000775822
0.000858193
0.000709932
0.000702384
0.000469742
0.000946739
0.000933664
0.00102247
0.00110549
0.000845375
0.000354256
0.00103592
0.00104541
0.00107318
0.000649021
0.000599809
0.000945143
0.000980737
0.000576499
0.000861296
0.000687406
0.00132712
0.000749396
0.00058348
0.000810115
0.00074154
0.000707674
0.000683611
0.000620583
0.000490665
0.000586426
0.000714499
0.000736491
0.000235683
0.00102172
0.000319067
0.000820378
0.000847984
0.00106128
0.000745056
0.000981863
0.000627214
0.000289524
0.00044382
0.000495587
0.000588904
0.000781941
0.000775024
0.000533264
0.000501595
0.00064788
0.000603702
0.000928392
0.000430012
0.00080306
0.000233319
0.000687136
0.00086498
0.000407306
0.000384241
0.000325599
0.000212828
0.000501049
0.000437027
0.000235725
0.000608025
0.00041054
0.000257317
0.000732849
0.000243412
0.000586697
0.000406709
0.000282645
0.000588252
0.000442591
0.000381105
0.000195017
0.000163453
0.000288808
0.00017067
0.000248322
0.000309764
0.000380705
0.000638299
0.000463294
0.000150664
0.000202321
0.000148194
0.000202264
0.000373306
0.000303409
0.000198564
0.000116539
4.61253e-05
0.000294063
0.000138536
6.46768e-05
0.000177655
0.000200681
0.000165991
0.000180568
0.000421829
0.000146569
0.000293185
0.000296594
0.000371259
0.000691656
0.000895503
0.000352202
0.000545465
0.000272523
0.000573016
0.000507332
0.000729609
0.000300215
0.000661138
0.000674262
0.000770061
0.000199961
0.000527059
0.000174577
0.000438348
0.000233565
0.00054699
0.000473931
0.000339559
0.000565584
0.000379812
0.000819058
0.000380659
0.000210897
0.000502192
0.000231992
0.000310438
0.000718834
0.000463624
0.000716364
0.000906185
0.000733906
0.00109279
0.000551846
0.000688536
7.69032e-05
0.000796417
0.00029331
0.000644131
0.000483124
0.000457706
0.000692734
0.000484323
0.00045978
0.000632904
0.000774504
0.0008816
0.000648917
0.000499993
0.00110821
0.00136801
0.000617589
0.000352223
0.000478325
0.000811368
0.000892108
0.000927901
0.00134521
0.00113372
0.000450281
0.000918986
0.000601413
0.000451512
0.000799322
0.000704223
0.000791025
0.000633797
0.0009147
0.00082814
0.000803197
0.000754675
0.000990623
0.000731091
0.000596342
0.000597457
0.000498324
0.000655816
0.000818618
0.000653654
0.000253685
0.000542324
0.000751808
0.000997611
0.000597425
0.000846115
0.000650905
0.000635387
0.000705414
0.000993524
0.000718693
0.000720723
0.0004615
0.000627877
0.000821361
0.000686666
0.000786344
0.00036032
0.0010645
0.000906043
0.000850588
0.000637497
0.00110581
0.000689583
0.000682187
0.000751702
0.00101698
0.000952754
0.000733518
0.000724007
0.00148038
0.00094999
0.000967514
0.000406976
0.000521418
0.000628439
0.00157828
0.000684078
0.000589012
0.000677847
0.000371955
0.00134556
0.000642041
0.000979868
0.000474323
0.000817064
0.000602921
0.00086388
0.000857921
0.000982405
0.0010882
0.000645736
0.000523652
0.000430027
0.000483955
0.000412152
0.000566221
0.000371173
0.00061756
0.000651525
0.000400621
0.000505447
0.000760558
0.000505895
0.000991759
0.000831897
0.000606352
0.000558959
0.000418058
0.000290713
0.000318853
0.000518118
0.000295503
0.00030322
0.000283008
0.000510871
0.000337459
0.00032983
0.000604495
0.000534487
0.000401498
0.000371382
0.000407083
0.000437975
0.000367677
0.000442785
0.000344879
0.0005199
0.000341001
0.000344485
0.000319469
0.000181943
0.000330094
0.000237979
0.000251878
0.000299353
0.00026632
0.000336632
0.000927676
0.000378978
9.81683e-05
9.65592e-05
7.72775e-05
0.000138873
0.000210517
0.000173366
0.000102959
9.98495e-05
6.45178e-05
0.000164647
2.47468e-05
8.10582e-05
0.00015089
0.000137995
0.000244568
0.000207107
0.000372752
0.000523657
0.000338662
0.000700041
0.000384015
0.000659743
0.000431019
0.000443077
0.000517181
0.000588789
0.000489826
0.000205241
0.000391334
0.000386857
0.000546677
0.000765295
0.000631904
0.000760925
0.000302403
0.00023781
0.000129891
0.000288837
0.000595395
0.000752583
0.000391783
0.000516833
0.000348769
0.000682382
0.000204578
0.000516124
0.000319062
0.000382208
0.000494275
0.000542641
8.7942e-05
0.00045455
0.000481511
0.000737182
0.000466805
0.000318595
0.000541093
0.000545057
0.000280275
0.000356847
0.000872977
0.000711164
0.000612984
0.000535847
0.000510958
0.000411375
0.00140874
0.000449571
0.000848341
0.000490183
0.000932289
0.000755646
0.000508937
0.000796171
0.000997872
0.000654751
0.000480539
0.000404274
0.00058609
0.000804784
0.00030664
0.000633524
0.00129556
0.00132901
0.000686185
0.000540641
0.000496669
0.000501035
0.000852473
0.00084694
0.000741197
0.000691504
0.000918922
0.0012342
0.000753934
0.000326131
0.000757779
0.000646073
0.000648685
0.000805351
0.000823145
0.000775602
0.000590799
0.000697515
0.000656262
0.000915893
0.000640051
0.000760758
0.000997134
0.000982432
0.000710583
0.000571337
0.000889387
0.000972083
0.000942112
0.00109055
0.00098068
0.00118203
0.00129908
0.00103324
0.000687426
0.00101476
0.00117855
0.000606063
0.000602977
0.000528968
0.00108971
0.000533212
0.000763932
0.000686647
0.000758065
0.00120324
0.000848495
0.000779603
0.000444012
0.0010745
0.000860203
0.000719689
0.000603654
0.000716219
0.000966041
0.000767095
0.000561652
0.000904649
0.00132614
0.000984315
0.000534565
0.000971844
0.000410763
0.000290423
0.000551875
0.000300997
0.000328235
0.000450528
0.000967598
0.000642483
0.000455903
0.000728096
0.00061697
0.00060515
0.000589024
0.00100464
0.000947625
0.000836515
0.000464989
0.000663249
0.000504011
0.000706686
0.000770861
0.00103321
0.000999631
0.000633949
0.000666696
0.000460446
0.000466118
0.000606304
0.000652722
0.00039908
0.000578608
0.000968301
0.000416309
0.00043203
0.000913904
0.0004596
0.00080363
0.00131252
0.000565822
0.000296199
0.000273147
0.000337594
0.0006199
0.000592312
0.00053365
0.000236584
0.00026586
0.000351849
0.000427401
0.000427698
0.00023419
0.000603435
0.00055895
0.000346189
0.000620334
0.00038751
0.000355276
0.000442765
0.00045847
0.000423826
0.000475804
0.000571422
0.000403074
0.00016097
0.000364898
0.000259292
0.000315551
0.000357936
0.000250558
0.000296157
0.000309616
0.000395125
0.000269556
0.00101318
0.000294861
0.00013941
0.00010769
6.97636e-05
0.000158288
0.000225108
0.000100006
0.000111162
9.58238e-05
0.000138791
5.80724e-05
8.2108e-05
4.81052e-05
0.000172661
0.000118423
0.000152209
0.000246085
0.000164463
0.000207064
0.00106663
0.000473725
0.000488415
0.000451318
0.000554683
0.000867042
0.000375186
0.000443817
0.000570554
0.000635013
0.000542243
0.000418695
0.000335891
0.000308132
0.00035616
0.000589842
0.000431903
0.000519067
0.00056488
0.00046846
0.000471375
0.000521694
0.000435036
0.000271661
0.000651187
0.000409616
0.000252191
0.000201905
0.000418403
0.000651804
0.00103965
0.000820901
0.000427157
0.000764871
0.000743471
0.000549637
0.000416922
0.00098298
0.000664992
0.000604044
0.000541383
0.000375962
0.000619802
0.000857707
0.000617105
0.000584722
0.000203494
0.000449845
0.000489497
0.000428992
0.000545632
0.00102237
0.0013726
0.00060409
0.000385508
0.000652725
0.000455269
0.00121998
0.000635221
0.000918553
0.000500018
0.000746984
0.000296135
0.00046525
0.000729299
0.000665993
0.000382729
0.000637122
0.00151406
0.00128471
0.00109148
0.000416497
0.00045599
0.000773876
0.000754587
0.000823394
0.000680069
0.00145283
0.00133743
0.000728539
0.000920775
0.00123707
0.000454062
0.000840765
0.000800472
0.000909183
0.000596906
0.00074709
0.000647006
0.000868674
0.000913513
0.000578532
0.00166548
0.00108197
0.000581776
0.0006201
0.000830795
0.000918877
0.00100543
0.00117656
0.00119522
0.00118895
0.00117649
0.00121755
0.00119026
0.000726525
0.00122995
0.000770542
0.000494897
0.000642613
0.001038
0.00132635
0.00128976
0.000647131
0.00119386
0.00157872
0.00169814
0.00121492
0.000825464
0.00147649
0.00063499
0.000422803
0.000686057
0.000756953
0.000757927
0.000917652
0.000983693
0.000839889
0.00111099
0.00102279
0.00115147
0.000766193
0.00064489
0.00112577
0.000787131
0.0001454
0.000772676
0.00118429
0.000734706
0.000581355
0.000921252
0.000244483
0.000764871
0.00147679
0.000727691
0.000961297
0.000721455
0.00102592
0.000424213
0.000500785
0.000658294
0.00077593
0.000594856
0.000818155
0.000696545
0.000889212
0.000692198
0.000233892
0.000708414
0.000411123
0.000606583
0.00082404
0.000886568
0.00112448
0.000664442
0.000261258
0.000742392
0.000643935
0.000853481
0.000528106
0.000584043
0.000712448
0.00062609
0.000437235
0.000574329
0.000581539
0.000464426
0.000608555
0.000557294
0.000292623
0.000405205
0.00110943
0.000385851
0.000549199
0.00100055
0.000421823
0.00074942
0.000723171
0.00108247
0.00047442
0.000241133
0.000334103
0.000682436
0.00082376
0.000871136
0.000367832
0.000264272
0.000265801
0.000433433
0.000316727
0.0002713
0.000543033
0.000554829
0.000410113
0.000359035
0.000192339
0.000509819
0.000399338
0.000471587
8.33506e-05
0.00069654
0.000269762
0.000377255
0.000549992
0.000262963
0.00016976
0.000174247
0.000288475
0.000205143
0.000352151
0.000252486
0.000320103
0.000338932
0.000252958
0.000225586
0.000193669
0.000901284
0.000221556
0.000257519
0.000184231
0.000112172
0.000156753
0.000193337
9.14585e-05
0.000186842
0.000144585
0.000193805
6.92051e-05
0.000249529
6.26873e-05
5.7249e-05
0.000151853
0.000237322
7.32423e-05
0.000158566
7.47402e-05
0.000374368
0.00133737
0.00114135
0.00106328
0.000540624
0.000641287
0.000685899
0.000577277
0.000341456
0.00037389
0.000518395
0.00052056
0.00030797
0.000149401
0.000391335
0.000205425
0.00047408
0.000453876
0.000308546
0.000957416
0.000813137
0.000439989
0.000341121
0.000546205
0.000416069
0.000667866
0.000838318
0.000215871
0.000396015
0.000559287
0.000765079
0.00111314
0.00048865
0.000663641
0.000293157
0.000691925
0.000516758
0.000367785
0.000324982
0.00052138
0.000196652
0.00137429
0.00077906
0.000882359
0.000443208
0.000276307
0.000521675
0.000154802
0.000879609
0.000765511
0.00051841
0.000606033
0.000770665
0.000743921
0.00102943
0.00029685
0.000235615
0.00112032
0.000297379
0.000168821
0.00120347
0.00085283
0.000228605
0.000467866
0.000493194
0.000510731
0.000575339
0.000781554
0.000806176
0.000377231
0.000723949
0.000640912
0.000577389
0.000665005
0.000464286
0.00037072
0.000272553
0.000726821
0.000819206
0.000644138
0.0013485
0.00177865
0.00110073
0.000934319
0.00179926
0.000471761
0.000482684
0.000797078
0.00103763
0.00058887
0.000845098
0.00135898
0.00122916
0.000358698
0.000484322
0.000959138
0.00113775
0.000525412
0.00077442
0.000734341
0.000756581
0.000326507
0.000974868
0.000649706
0.00117435
0.000660771
0.000583198
0.00118405
0.00160379
0.00107202
0.000935377
0.000752325
0.00079012
0.000705957
0.000726652
0.00132523
0.00102649
0.000977879
0.00109349
0.000993289
0.00114744
0.00149028
0.00129527
0.000642854
0.000660393
0.000798346
0.000629925
0.000694521
0.000904735
0.000397503
0.000878838
0.000369866
0.000757696
0.000785816
0.000529079
0.000774865
0.00125408
0.000282846
0.000320055
0.00103304
0.000669447
0.000874492
0.00119694
0.000931885
0.0013428
0.00092883
0.000492436
0.00102366
0.00100631
0.000537124
0.000574247
0.000691775
0.000662829
0.000260064
0.000224866
0.000895982
0.00068701
0.000890371
0.000629953
0.000756352
0.000544276
0.000730333
0.00101873
0.000392614
0.000852665
0.000782968
0.000771924
0.000702128
0.000482459
0.000443466
0.000853899
0.000361021
0.000786817
0.000869513
0.000992259
0.000864872
0.000754519
0.000356694
0.000330831
0.000557398
0.000542857
0.00022981
0.00059678
0.00121625
0.000756066
0.000265379
0.000854546
0.000681519
0.000978807
0.000478213
0.000864812
0.000650986
0.000650506
0.000588661
0.000328499
0.000332316
0.000436489
0.000411214
0.000578236
0.000533174
0.000309577
0.00033438
0.000865216
0.000460253
0.000561143
0.000738843
0.000290553
0.00060951
0.000485675
0.000457211
0.000486677
0.000274306
0.000264192
0.000469228
0.00093533
0.000743177
0.00111595
0.000951072
0.000297771
0.00027249
0.000387715
0.000392136
0.000401806
0.000657018
0.000648313
0.000466761
0.00033323
0.000273756
0.000395282
0.000551349
0.000401836
0.000291549
0.000399657
0.000390661
0.00030729
0.000350258
0.000895116
0.000395596
0.000428769
0.000256602
0.000302644
0.000344024
0.000312106
0.00032244
0.000335992
0.000320123
0.000334091
0.000277149
0.000178241
0.000262319
0.000801081
0.00021633
8.00966e-05
4.16171e-05
9.20688e-05
4.46113e-05
0.000172185
0.000180296
0.000159238
0.000151931
0.000143085
0.000116156
0.000265327
0.000234629
9.10926e-05
0.000134317
0.000145115
0.000137499
0.000357853
0.000194759
7.84921e-05
9.53209e-05
0.000387219
0.00329176
0.00123885
0.00109153
0.00115128
0.00107224
0.00129556
0.000676236
0.000443477
0.000411391
0.000658429
0.000449251
0.000414865
0.000367326
0.000390362
0.00029382
0.000207363
0.000338834
0.000305677
0.00061913
0.0004281
0.000226993
0.000469299
0.000500307
0.000485126
0.000634856
0.000778544
0.00036009
0.000695303
0.000493824
0.000508075
0.000504875
0.000594226
0.000593241
0.000348498
0.000127929
0.000392077
0.000529945
0.000581913
0.000603549
0.000688019
0.000487001
0.000222302
0.000787297
0.000199677
0.000287211
0.000453369
0.000377437
0.000338489
0.00101933
0.000286756
0.000669795
0.000543609
0.000525914
0.00037707
0.000196776
0.00053935
0.00026395
0.000781022
0.000478651
0.000849689
0.000938429
0.000473865
0.000233955
0.000883861
0.000521498
0.000839275
0.00062543
0.000702793
0.000440416
0.000665723
0.000309991
0.000627019
0.00122588
0.00105312
0.000998756
0.000931125
0.000712952
0.000472504
0.000266811
0.000785858
0.000894434
0.000952515
0.00166527
0.000827594
0.000896086
0.0019603
0.000762262
0.000415719
0.00074817
0.000736742
0.000333038
0.00102521
0.00148065
0.00148447
0.00100201
0.00109747
0.00173306
0.00153022
0.000834181
0.000675984
0.00096052
0.000589901
0.00067778
0.00121426
0.00122808
0.00139884
0.00059025
0.000737098
0.00121456
0.000900777
0.00102731
0.00108104
0.00078899
0.000725752
0.00046312
0.000743583
0.000979047
0.00109163
0.00100158
0.0009169
0.000529951
0.00130152
0.00149815
0.000923845
0.000625667
0.000870958
0.000875428
0.000898665
0.000791164
0.000603083
0.0012056
0.000746853
0.000785019
0.000748893
0.000623482
0.000866262
0.00116966
0.00115592
0.000720981
0.000299971
0.000809369
0.000608996
0.000774251
0.000789266
0.00071071
0.000553553
0.000776212
0.000961343
0.00105833
0.000673455
0.00129243
0.000777691
0.000995421
0.000321044
0.000342611
0.000425383
0.00046267
0.000552894
0.000490887
0.000918208
0.00154145
0.000639902
0.00030176
0.00114303
0.00141093
0.000791961
0.000474081
0.000345485
0.000347498
0.000697593
0.000607859
0.000357173
0.000793676
0.00080969
0.00113824
0.00117446
0.00119387
0.00058767
0.000606902
0.00145728
0.00102037
0.00100004
0.000841475
0.000981708
0.00101217
0.000642732
0.000582723
0.000608404
0.000904411
0.000495703
0.000646277
0.000679833
0.00053673
0.000516899
0.000393087
0.000493914
0.000989465
0.000476111
0.000547609
0.000897223
0.000828985
0.000318127
0.00110243
0.000701803
0.000323831
0.000975676
0.000758944
0.00081744
0.000714729
0.000702224
0.000605404
0.000724639
0.000510363
0.000471733
0.000133187
0.000229783
0.000317991
0.00104743
0.000379608
0.000568554
0.000472735
0.000223471
0.000260709
0.000398892
0.000573211
0.000670415
0.000349714
0.000508897
0.000456391
0.000528381
0.000520699
0.000350201
0.000385625
0.000411091
0.000622975
0.000759176
0.000635994
0.000337518
0.00061342
0.000360024
0.000228499
0.000283805
0.000516328
0.000721205
0.000568346
0.000596812
0.000471486
0.000329739
0.000190729
0.000173749
0.000377474
0.000632508
0.000395141
0.000151097
0.000484422
0.000335182
0.000257347
0.000618667
0.000407241
0.000364687
0.000316279
0.000306122
0.000296056
0.00030664
0.00025048
0.000383168
0.000332164
0.000320711
0.000391003
0.000260046
0.000234107
0.000257814
0.000315184
0.000528075
0.000580556
0.000301925
4.0811e-05
5.46923e-05
6.10097e-05
5.9847e-05
0.00018946
0.000229492
0.000150646
0.000134867
0.000113529
0.000105455
0.000235604
0.000206699
9.42399e-05
0.000110874
0.000210558
0.000246185
0.00051462
0.000374576
0.000143428
0.000553538
6.36669e-05
0.000195016
0.0033143
0.00336789
0.00140672
0.00129272
0.0012526
0.00122466
0.000813491
0.00107392
0.000973619
0.000893379
0.000439816
0.000477534
0.00108203
0.00051264
0.000411485
0.00038812
0.000622025
0.00108429
0.000689817
0.000624781
0.000435373
0.000313483
0.000394327
0.00094551
0.000272232
0.000517538
0.000527847
0.000272468
0.000404525
0.000522326
0.000571987
0.000477284
0.000170514
0.000895284
0.000699092
0.000516702
0.000358706
0.000614901
0.00071571
0.000216609
0.000306217
0.000528179
0.000363738
0.000646871
0.00036313
0.00055127
0.000273609
0.000475807
0.000225628
0.000495302
0.000439221
0.00105655
0.000714026
0.000349881
0.000450656
0.000392263
0.000315661
0.0004411
0.00102082
0.000804319
0.000458621
0.00112351
0.000957022
0.000376903
0.000877435
0.000672277
0.000182943
0.000994585
0.000742696