/*--------------------------------*- C++ -*----------------------------------*\
  =========                 |
  \\      /  F ield         | OpenFOAM: The Open Source CFD Toolbox
   \\    /   O peration     | Website:  https://openfoam.org
    \\  /    A nd           | Version:  7
     \\/     M anipulation  |
\*---------------------------------------------------------------------------*/
FoamFile
{
    version     2.0;
    format      ascii;
    class       volScalarField;
    location    "4";
    object      p;
}
// * * * * * * * * * * * * * * * * * * * * * * * * * * * * * * * * * * * * * //

dimensions      [0 2 -2 0 0 0 0];

internalField   nonuniform List<scalar> 
18630
(
-71.1819
-69.921
-71.2079
-70.0012
-68.1241
-69.9551
-68.8666
-71.2402
-70.0621
-69.1259
-65.9694
-68.1895
-67.3692
-70.0066
-68.9508
-67.8922
-71.2838
-70.114
-69.2191
-67.9746
-64.3539
-66.0425
-65.3358
-68.2727
-67.5023
-66.5592
-70.0693
-69.0621
-67.9607
-66.8726
-71.3441
-70.1736
-69.3074
-68.0139
-67.2155
-62.7645
-64.381
-63.7583
-66.1173
-65.4886
-64.6078
-68.3579
-67.6255
-66.685
-65.5195
-70.1368
-69.2055
-68.0476
-66.9607
-66.2952
-71.3911
-70.2953
-69.3638
-68.0626
-67.282
-66.4737
-61.6015
-62.8416
-62.2973
-64.4553
-63.7853
-63.0637
-66.2537
-65.6883
-64.7209
-64.1686
-68.4918
-67.7574
-66.8217
-65.6439
-64.9451
-70.2199
-69.3649
-68.1586
-67.0628
-66.3966
-65.4857
-71.425
-70.4162
-69.4348
-68.1353
-67.3364
-66.504
-65.7544
-60.4093
-61.6329
-61.2949
-62.8983
-62.4039
-61.9888
-64.5382
-63.8436
-63.1954
-62.8316
-66.3827
-65.8549
-64.8548
-64.2809
-63.6898
-68.6038
-67.9462
-66.9618
-65.782
-65.0789
-64.3641
-70.3123
-69.5293
-68.2899
-67.1648
-66.5036
-65.6
-64.5056
-71.451
-70.5244
-69.5254
-68.2217
-67.3775
-66.5282
-65.8347
-64.9
-59.6855
-60.4825
-60.1571
-61.7723
-61.2872
-60.9015
-62.9383
-62.5127
-62.1064
-61.7689
-64.6365
-63.8807
-63.2353
-62.9781
-62.583
-66.529
-66.0442
-64.9878
-64.4233
-63.7904
-63.2568
-68.7628
-68.154
-67.1072
-65.9386
-65.2173
-64.5116
-63.7487
-70.4104
-69.6994
-68.4359
-67.2708
-66.609
-65.7273
-64.6051
-63.8981
-71.5031
-70.6423
-69.6318
-68.2995
-67.4388
-66.5958
-65.9061
-65.007
-64.2526
-59.2292
-59.8412
-59.4927
-60.5409
-60.252
-60.0862
-61.765
-61.4755
-61.0333
-60.871
-63.0553
-62.7011
-61.9196
-61.8724
-61.6631
-64.7311
-63.9464
-63.4758
-63.1232
-62.7642
-62.3563
-66.7144
-66.2415
-65.1129
-64.5555
-63.9146
-63.406
-62.9122
-68.9562
-68.3533
-67.2714
-66.1059
-65.389
-64.6194
-63.9135
-63.3454
-70.5163
-69.866
-68.5868
-67.3745
-66.7463
-65.8652
-64.7245
-64.0001
-63.6145
-71.6035
-70.7806
-69.7119
-68.3707
-67.5206
-66.693
-65.9874
-65.1332
-64.355
-63.6525
-58.5651
-59.1076
-59.0523
-59.7549
-59.6032
-59.4221
-60.6391
-60.3773
-60.3933
-59.9787
-61.8319
-61.5994
-61.1057
-60.8998
-61.111
-63.2093
-62.8061
-61.8084
-62.0137
-61.8997
-61.5746
-64.8671
-64.1761
-63.614
-63.3131
-62.9679
-62.5392
-62.1838
-66.9142
-66.4433
-65.3049
-64.6843
-64.0222
-63.5263
-63.0618
-62.6621
-69.1594
-68.6249
-67.3748
-66.2972
-65.5425
-64.7661
-64.0875
-63.5241
-63.1121
-70.6357
-70.031
-68.776
-67.5064
-66.9122
-66.008
-64.8586
-64.1121
-63.7232
-63.2805
-71.7159
-70.9271
-69.8084
-68.4516
-67.6118
-66.7849
-66.0678
-65.2558
-64.451
-63.7218
-63.0705
-58.1014
-58.4351
-58.3948
-59.1455
-59.171
-58.9617
-59.8593
-59.4751
-59.5137
-59.5729
-60.5504
-60.5315
-60.4816
-60.1606
-60.109
-61.9079
-61.5995
-61.2392
-61.0253
-61.1933
-60.9445
-63.3215
-62.8166
-62.8195
-62.2228
-62.0976
-61.7507
-61.5528
-65.0086
-64.3973
-63.6615
-63.5445
-63.1817
-62.7052
-62.3945
-62.0941
-67.2025
-66.643
-65.4527
-64.8505
-64.1555
-63.6836
-63.2528
-62.8621
-62.5294
-69.3981
-68.9099
-67.4838
-66.479
-65.6848
-64.9465
-64.2527
-63.6864
-63.2759
-63.0152
-70.7851
-70.1897
-68.9619
-67.6779
-67.0729
-66.1512
-65.0117
-64.2368
-63.8541
-63.4122
-62.9855
-71.8423
-71.0731
-69.9595
-68.5427
-67.69
-66.8768
-66.1425
-65.3499
-64.5387
-63.7966
-63.1249
-62.5635
-57.4422
-57.6647
-58.0869
-58.1223
-58.4695
-58.5565
-58.3814
-59.1795
-59.0774
-59.0997
-58.9912
-59.8343
-59.6514
-59.7363
-59.5835
-59.5234
-60.7769
-60.6668
-60.4849
-60.217
-60.3663
-60.4139
-61.9802
-61.8114
-61.2568
-61.3851
-61.3355
-61.1367
-61.0849
-63.4903
-62.8447
-62.8939
-62.474
-62.3273
-61.9546
-61.7411
-61.7549
-65.1215
-64.683
-63.8883
-63.7935
-63.4041
-62.9048
-62.6371
-62.2764
-62.1439
-67.4522
-66.8541
-65.6116
-65.0288
-64.394
-63.8683
-63.4219
-63.1023
-62.7304
-62.512
-69.6484
-69.1987
-67.6822
-66.6403
-65.8416
-65.1173
-64.4189
-63.8544
-63.4489
-63.2189
-62.6275
-70.9611
-70.3328
-69.1602
-67.8307
-67.2574
-66.3045
-65.1828
-64.3733
-64.0173
-63.542
-63.1164
-62.6443
-71.993
-71.221
-70.0998
-68.6426
-67.7717
-66.9654
-66.2128
-65.431
-64.6183
-63.8716
-63.1893
-62.6169
-62.2172
-57.2254
-57.4098
-57.5506
-57.6978
-57.9166
-57.9628
-57.9637
-57.9324
-58.5493
-58.6513
-58.5067
-58.6445
-59.2178
-59.0073
-59.1182
-59.0684
-59.1727
-59.9058
-59.816
-59.8199
-59.5955
-59.6481
-60.0569
-60.8532
-60.8109
-60.5322
-60.4899
-60.7316
-60.5989
-60.6926
-62.1047
-62.0718
-61.8667
-61.6841
-61.3465
-61.2633
-61.1562
-61.159
-63.6586
-62.9554
-62.6482
-62.7728
-62.6134
-62.1236
-62.0204
-61.9895
-61.9755
-65.3075
-64.8757
-64.1486
-64.1179
-63.6362
-63.1918
-62.837
-62.5629
-62.3823
-62.4128
-67.697
-67.0753
-65.751
-65.2622
-64.6039
-64.0448
-63.5973
-63.3632
-62.9447
-62.6952
-62.5195
-69.9177
-69.4533
-67.8667
-66.8119
-66.0006
-65.2955
-64.6549
-64.0377
-63.6336
-63.4225
-62.8333
-62.6078
-71.1267
-70.5135
-69.381
-68.0192
-67.4619
-66.4668
-65.3421
-64.5241
-64.1729
-63.6737
-63.2467
-62.7504
-62.3435
-72.156
-71.3549
-70.233
-68.7239
-67.8667
-67.0503
-66.2707
-65.4808
-64.6803
-63.9385
-63.2624
-62.6826
-62.2496
-62.0828
-57.0934
-57.1863
-57.1252
-57.4437
-57.4386
-57.5979
-57.5915
-57.5786
-57.7114
-57.8177
-58.043
-58.116
-57.992
-58.2841
-58.6473
-58.5161
-58.6064
-58.7395
-58.7732
-59.1648
-59.1694
-59.1157
-59.045
-59.2489
-59.7112
-59.9928
-59.8944
-60.0154
-59.6687
-59.7833
-60.1233
-60.3314
-61.1827
-60.9391
-60.755
-60.819
-60.791
-60.7584
-60.8129
-60.9254
-62.3005
-62.2573
-61.6768
-61.8358
-61.6497
-61.3643
-61.4897
-61.5891
-61.5862
-63.7848
-63.2245
-63.364
-63.1156
-62.8043
-62.4329
-62.1173
-62.0956
-62.1903
-62.3507
-65.6217
-65.013
-64.5327
-64.4548
-63.8891
-63.3973
-63.1237
-62.8951
-62.6716
-62.641
-62.8369
-67.9624
-67.3216
-65.9775
-65.4583
-64.9512
-64.2763
-63.8282
-63.5932
-63.1678
-62.9375
-62.7557
-62.8109
-70.1963
-69.5873
-68.0047
-66.9628
-66.2196
-65.544
-64.8855
-64.2442
-63.826
-63.6192
-63.0281
-62.7651
-62.4296
-71.3106
-70.6701
-69.5176
-68.239
-67.6851
-66.6119
-65.5306
-64.6903
-64.3274
-63.7869
-63.3797
-62.8418
-62.434
-62.3344
-72.3255
-71.4521
-70.3549
-68.7992
-67.9815
-67.133
-66.3186
-65.5418
-64.7512
-64.0063
-63.3196
-62.7593
-62.2875
-62.113
-62.0992
-56.891
-56.9883
-57.0914
-57.101
-57.2038
-57.0372
-57.3819
-57.4077
-57.3958
-57.3675
-57.5115
-57.8123
-57.6909
-57.9797
-57.7649
-58.0079
-58.1135
-58.2262
-58.1245
-58.2677
-58.5862
-58.5587
-58.7531
-58.7695
-58.7218
-58.7823
-59.2906
-59.2085
-59.1452
-59.1645
-59.1534
-59.3308
-59.7785
-60.0865
-60.1353
-60.0747
-60.0355
-59.9741
-60.0172
-60.2149
-60.4684
-60.595
-61.3138
-61.095
-60.9306
-60.7976
-60.8759
-60.8909
-60.8668
-60.9538
-61.4493
-62.4684
-62.3892
-62.0976
-61.9102
-62.0755
-61.5593
-61.7875
-61.8067
-61.7576
-62.3356
-63.9235
-63.5853
-63.2127
-63.5536
-63.0269
-62.6639
-62.3547
-62.3253
-62.3347
-62.5285
-63.0851
-65.8211
-65.3819
-64.8631
-64.7991
-64.1259
-63.6778
-63.3909
-63.1721
-62.9718
-62.7712
-63.0126
-63.2777
-68.2722
-67.5446
-66.2625
-65.7462
-65.2494
-64.5469
-64.187
-63.8323
-63.4356
-63.1897
-63.0227
-62.9299
-62.8348
-70.4491
-69.7492
-68.2434
-67.1563
-66.4187
-65.7985
-65.0702
-64.4602
-64.052
-63.8418
-63.2245
-62.9255
-62.5906
-62.6591
-71.5106
-70.8004
-69.6706
-68.4323
-67.8786
-66.7928
-65.747
-64.8702
-64.4789
-63.9234
-63.5136
-62.9273
-62.5247
-62.4092
-62.413
-72.4719
-71.5489
-70.4284
-68.8663
-68.1021
-67.2113
-66.3723
-65.6021
-64.841
-64.0663
-63.354
-62.8298
-62.3292
-62.1447
-62.112
-62.0305
-56.7961
-56.9562
-56.9743
-56.9758
-57.0268
-57.1017
-57.0669
-57.1152
-57.2423
-57.2071
-57.3851
-57.4164
-57.7078
-57.3083
-57.4446
-57.5721
-57.8404
-58.023
-57.8081
-57.5701
-57.8591
-57.9755
-58.0308
-57.9676
-58.3097
-58.0922
-58.3104
-58.6072
-58.8483
-58.5982
-58.8409
-58.8833
-58.6738
-58.8798
-59.4748
-59.7446
-59.3272
-59.3122
-59.2447
-59.2848
-59.4378
-59.7867
-60.202
-60.4065
-60.2283
-60.2395
-60.1234
-60.1897
-60.1336
-60.3323
-60.5453
-60.7023
-61.3922
-61.342
-61.4057
-61.0853
-61.047
-61.0153
-60.9717
-61.0348
-61.3742
-61.6381
-62.6699
-62.6835
-62.6099
-62.4506
-62.1705
-62.1725
-61.7625
-61.547
-61.6992
-62.0299
-62.5787
-63.2812
-64.2288
-63.9214
-63.6083
-63.8793
-63.2595
-63.0013
-62.7347
-62.5825
-62.603
-62.7702
-63.2486
-63.7134
-66.113
-65.7078
-65.2363
-65.1234
-64.2915
-63.8728
-63.5823
-63.4837
-63.2133
-62.9767
-63.1646
-63.2224
-63.6176
-68.5652
-67.7224
-66.6121
-66.0971
-65.3017
-64.9078
-64.5158
-64.0942
-63.6564
-63.4022
-63.2869
-63.0729
-62.9494
-63.3102
-70.7014
-69.9116
-68.5062
-67.4517
-66.6737
-66.0269
-65.2671
-64.6943
-64.2757
-64.078
-63.4355
-63.088
-62.761
-62.7481
-62.92
-71.6787
-70.962
-69.861
-68.6526
-68.0282
-67.0303
-65.9581
-65.0607
-64.6349
-64.0972
-63.6511
-63.0416
-62.6052
-62.4889
-62.4253
-62.1877
-72.5985
-71.6544
-70.5108
-68.9241
-68.221
-67.2879
-66.4223
-65.6679
-64.9272
-64.1279
-63.4052
-62.8758
-62.3709
-62.1771
-62.1235
-62.0225
-62.1321
-56.8324
-56.8583
-56.932
-56.9335
-56.9469
-56.9566
-57.07
-56.99
-57.0841
-57.1252
-56.8953
-57.0981
-57.2253
-57.4451
-57.1375
-57.1207
-57.4791
-57.5901
-57.7368
-57.3667
-57.623
-57.586
-57.8744
-57.8041
-58.2089
-57.5627
-57.8911
-57.8159
-58.0042
-58.4239
-58.6121
-58.3015
-58.1422
-58.4819
-58.2687
-58.4148
-59.0929
-59.343
-58.7427
-58.695
-58.6599
-58.8096
-59.022
-59.5497
-59.9184
-60.3315
-59.4559
-59.4848
-59.4035
-59.5897
-59.6536
-59.8795
-60.1507
-60.5453
-61.5169
-60.4373
-60.3759
-60.1969
-60.1595
-60.2606
-60.4959
-60.4874
-60.861
-61.5658
-63.1491
-61.5134
-61.5722
-61.3976
-61.3221
-61.0625
-61.1086
-61.1918
-61.4437
-61.8034
-62.7612
-63.6554
-62.9319
-62.8403
-62.5566
-62.5045
-62.2429
-62.2606
-61.8957
-61.9338
-62.3052
-62.7947
-63.3938
-63.8004
-64.5746
-64.3059
-64.2025
-64.2207
-63.519
-63.1633
-62.9737
-62.9542
-62.8383
-63.0409
-63.6063
-63.821
-63.8765
-66.4919
-66.1076
-65.8505
-65.2238
-64.4781
-64.0934
-63.9229
-63.7654
-63.5927
-63.2933
-63.2421
-63.2394
-63.6298
-63.7231
-68.8421
-68.0028
-67.0792
-66.4241
-65.8083
-65.2283
-64.7543
-64.3656
-63.98
-63.7338
-63.5408
-63.2428
-63.0561
-63.4149
-63.4405
-70.9475
-70.0518
-68.7546
-67.7745
-66.9921
-66.2073
-65.503
-64.975
-64.4674
-64.2869
-63.6451
-63.265
-62.908
-62.8468
-62.9797
-62.6277
-71.856
-71.0878
-70.0465
-68.8934
-68.1777
-67.2551
-66.1444
-65.2516
-64.8125
-64.2443
-63.7791
-63.1487
-62.6892
-62.5639
-62.4443
-62.1951
-62.065
-72.7285
-71.7731
-70.604
-68.9963
-68.3111
-67.3684
-66.4813
-65.7349
-65.0174
-64.1939
-63.48
-62.9125
-62.4278
-62.2086
-62.1301
-62.0112
-62.1321
-62.1217
-56.8724
-56.8633
-56.91
-56.8935
-56.8971
-56.8954
-56.7422
-56.9006
-56.9521
-57.0236
-56.9522
-56.9581
-56.9189
-57.184
-57.2206
-56.988
-56.9109
-57.2471
-57.4788
-57.4933
-57.1242
-57.1462
-57.3791
-57.5
-57.638
-57.9393
-57.2884
-57.2803
-57.5803
-57.8904
-58.0973
-58.2826
-58.5982
-57.7897
-58.1113
-57.8849
-57.9921
-58.3414
-58.4552
-59.0911
-58.0914
-58.2186
-58.6053
-58.5257
-58.5239
-59.1265
-59.6251
-60.1019
-58.7655
-58.8023
-58.7319
-58.9788
-59.2186
-59.7731
-59.9517
-60.3531
-61.4644
-59.5514
-59.5237
-59.5138
-59.5957
-59.8421
-60.0762
-60.2089
-60.4798
-61.7565
-63.278
-60.6243
-60.5047
-60.4135
-60.4137
-60.4204
-60.498
-60.6478
-61.0752
-61.8467
-63.3392
-64.0317
-61.774
-61.7387
-61.623
-61.3606
-61.3541
-61.228
-61.4328
-61.4911
-61.9647
-62.9109
-63.6945
-63.9308
-63.2406
-63.0903
-62.9249
-62.7453
-62.6021
-62.4718
-62.304
-62.2864
-62.5425
-62.9304
-63.6486
-63.9478
-64.1032
-64.9567
-64.6565
-64.4568
-64.4699
-63.6679
-63.3737
-63.4055
-63.1603
-63.0402
-63.3154
-63.7287
-63.6971
-63.7573
-63.8765
-66.8486
-66.5638
-66.2981
-65.7877
-64.7478
-64.5024
-64.2881
-64.1058
-63.9397
-63.6258
-63.4855
-63.3024
-63.758
-63.882
-63.9068
-69.1863
-68.4378
-67.4789
-66.8383
-66.2151
-65.6163
-65.0862
-64.7047
-64.3651
-64.0377
-63.8283
-63.4586
-63.208
-63.5398
-63.474
-63.2566
-71.1804
-70.2681
-69.106
-68.0848
-67.3412
-66.421
-65.8012
-65.2793
-64.622
-64.5001
-63.8641
-63.4407
-63.0432
-62.9656
-63.0081
-62.6206
-62.7679
-72.0722
-71.2347
-70.2386
-69.1204
-68.3426
-67.4449
-66.3286
-65.434
-64.965
-64.3529
-63.8846
-63.2532
-62.7761
-62.6364
-62.4652
-62.1965
-62.0713
-62.1446
-72.8727
-71.8946
-70.7017
-69.1183
-68.3907
-67.4579
-66.5379
-65.7981
-65.1261
-64.2436
-63.5253
-62.9664
-62.4742
-62.2404
-62.1336
-62.0027
-62.1284
-62.1198
-62.1705
-56.8458
-56.8528
-56.7986
-56.8002
-56.7537
-56.8244
-56.7975
-56.7948
-56.7522
-56.7757
-56.8968
-56.9327
-56.9747
-56.8486
-57.0102
-56.8694
-56.8351
-57.0198
-57.4512
-57.3609
-57.4123
-56.9825
-56.883
-57.304
-57.151
-57.4107
-57.6305
-57.1252
-57.1543
-57.4291
-57.4657
-57.5309
-58.1034
-58.5742
-57.414
-57.5325
-57.4222
-57.8216
-58.2832
-58.245
-58.699
-59.2351
-57.5465
-57.7469
-58.187
-58.0223
-58.2143
-58.7779
-59.1541
-59.4566
-58.1623
-58.2671
-58.3628
-58.3653
-58.7808
-59.2105
-59.7685
-60.1094
-61.2918
-58.8725
-58.9761
-58.9251
-59.15
-59.5381
-59.8316
-59.9928
-60.4314
-61.8256
-62.9816
-59.7481
-59.6665
-59.6386
-59.77
-59.9675
-60.1426
-60.2651
-60.4744
-61.9691
-63.5765
-63.8582
-60.6878
-60.763
-60.5559
-60.6393
-60.507
-60.5821
-60.9157
-61.1576
-62.1151
-63.4962
-64.0321
-63.735
-61.9008
-62.0011
-61.9034
-61.6548
-61.7066
-61.503
-61.7359
-61.6358
-62.1615
-63.1692
-63.8479
-63.9565
-63.3064
-63.6141
-63.3602
-63.2241
-63.1339
-62.71
-62.8025
-62.6058
-62.6822
-62.7888
-63.1445
-63.7688
-64.1011
-64.2092
-63.778
-65.3657
-65.0881
-64.8769
-64.637
-63.9066
-63.6266
-63.7509
-63.354
-63.2852
-63.5163
-63.7276
-63.7381
-63.9777
-64.2753
-64.2555
-67.3366
-67.0272
-66.6435
-66.1063
-65.183
-64.8443
-64.6794
-64.4861
-64.17
-63.9396
-63.7169
-63.3724
-63.8578
-64.0601
-63.9223
-64.0547
-69.5346
-68.8333
-68.0765
-67.2538
-66.43
-66.0005
-65.4047
-65.0095
-64.8093
-64.338
-64.1025
-63.7232
-63.3511
-63.6632
-63.5084
-63.1729
-63.8775
-71.435
-70.5341
-69.4969
-68.4648
-67.7284
-66.7477
-66.1419
-65.5753
-64.8669
-64.7615
-64.0918
-63.617
-63.1915
-63.0555
-63.0175
-62.628
-62.748
-62.7589
-72.285
-71.4135
-70.4454
-69.3788
-68.52
-67.6181
-66.5038
-65.5696
-65.1202
-64.4714
-63.9951
-63.3612
-62.8615
-62.7033
-62.4842
-62.1953
-62.0603
-62.15
-62.1102
-73.0212
-72.0271
-70.7809
-69.2538
-68.4565
-67.5245
-66.5873
-65.8756
-65.2146
-64.2925
-63.5806
-63.0459
-62.5105
-62.2767
-62.1364
-61.994
-62.0818
-62.0482
-62.1171
-62.0863
-56.6683
-56.7639
-56.6745
-56.7066
-56.6852
-56.5407
-56.8345
-56.716
-56.8578
-56.6211
-56.7585
-56.7645
-56.9007
-56.7608
-56.7624
-56.826
-56.8292
-56.9071
-57.0475
-57.0011
-57.2066
-56.8611
-56.8758
-57.1026
-56.9993
-57.2049
-57.4598
-57.6873
-56.9618
-57.0038
-57.1084
-57.1699
-57.4059
-57.5066
-58.1964
-57.0877
-57.1658
-57.2307
-57.5317
-57.6415
-58.0483
-58.4109
-58.6622
-57.3959
-57.5816
-57.6843
-57.926
-57.972
-58.4714
-58.8763
-59.3671
-59.4787
-57.5488
-57.8041
-58.0653
-58.1497
-58.4154
-58.4211
-59.3997
-59.6453
-60.589
-58.157
-58.3911
-58.4502
-58.4603
-58.8907
-59.5048
-59.723
-60.1186
-61.6575
-62.3886
-58.8193
-59.0026
-58.9958
-59.354
-59.5552
-59.9212
-59.8952
-60.2392
-61.9885
-63.2112
-63.4193
-59.868
-59.8403
-59.9456
-59.9922
-60.1159
-60.1319
-60.4717
-60.734
-62.1706
-63.5626
-63.5642
-63.2818
-60.9063
-60.9561
-60.9247
-60.8732
-60.7837
-60.8205
-61.0748
-61.2972
-62.1559
-63.5127
-64.1092
-63.7762
-63.2212
-62.1638
-62.2129
-62.0575
-62.0585
-61.6907
-61.5938
-61.9504
-62.044
-62.3869
-63.3849
-63.9272
-63.8577
-63.3225
-63.7244
-63.8285
-63.7044
-63.5799
-63.3398
-62.9215
-63.1317
-62.962
-62.7543
-63.2748
-63.4677
-63.8808
-64.2536
-64.091
-64.1438
-64.5765
-65.791
-65.5248
-65.3342
-65.0732
-64.2781
-64.1756
-63.9219
-63.6944
-63.6582
-63.8767
-63.8241
-64.0092
-64.2327
-64.3048
-64.514
-64.4573
-67.9037
-67.5074
-66.9028
-66.1775
-65.4701
-65.233
-65.1082
-64.8777
-64.4068
-64.3659
-63.9364
-63.5149
-64.01
-64.1857
-63.9359
-64.0627
-64.0072
-69.9899
-69.3115
-68.5429
-67.5095
-66.8096
-66.3034
-65.7044
-65.2454
-65.2514
-64.631
-64.3811
-63.9993
-63.5148
-63.7432
-63.528
-63.1363
-63.8513
-63.2043
-71.7209
-70.8451
-69.9018
-68.8657
-68.0527
-67.1266
-66.4797
-65.8571
-65.134
-65.0252
-64.3238
-63.7975
-63.3506
-63.1634
-63.0389
-62.6223
-62.7271
-62.7307
-62.8572
-72.4853
-71.605
-70.6688
-69.5583
-68.7082
-67.8045
-66.6676
-65.7465
-65.2797
-64.6448
-64.1205
-63.4728
-62.9358
-62.7648
-62.5127
-62.1812
-62.0529
-62.1542
-62.1155
-62.274
-73.1068
-72.168
-70.8676
-69.4068
-68.4934
-67.5748
-66.6411
-65.9581
-65.2678
-64.3446
-63.6759
-63.1064
-62.5435
-62.3105
-62.1398
-61.9821
-62.0109
-61.973
-62.0516
-62.0332
-62.1076
-56.577
-56.6192
-56.5009
-56.7556
-56.6123
-56.4654
-56.7695
-56.65
-56.596
-56.5165
-56.7432
-56.7082
-56.7468
-56.6602
-56.6818
-56.731
-56.7916
-56.8105
-56.552
-56.7661
-56.9043
-56.8334
-56.8401
-56.9741
-57.0489
-56.9083
-57.2002
-57.1818
-56.8374
-56.8663
-56.833
-57.2716
-57.1292
-57.4507
-57.513
-57.7262
-56.9935
-57.0141
-57.2528
-57.3815
-57.2463
-57.5989
-57.8693
-58.5244
-57.2194
-57.2561
-57.3423
-57.4705
-57.7098
-57.9967
-58.6289
-58.53
-59.1099
-56.9328
-57.5227
-57.7135
-57.6659
-58.0991
-58.5314
-58.9253
-59.3989
-60.2021
-60.3235
-57.837
-57.8751
-58.1437
-58.0944
-58.5104
-58.6842
-59.4149
-59.7058
-60.968
-61.6586
-58.1873
-58.6252
-58.5914
-58.8552
-58.9591
-59.4588
-59.6115
-60.1538
-61.9662
-62.6994
-62.4984
-59.1685
-59.0711
-59.1365
-59.3142
-59.7354
-59.6852
-60.0276
-60.3347
-62.2205
-63.2236
-63.484
-62.8201
-60.0023
-60.1055
-60.1707
-60.3145
-60.2309
-60.195
-60.5573
-60.7943
-62.383
-63.9183
-63.7495
-63.057
-63.0437
-61.0542
-61.1764
-61.2053
-61.1496
-61.0887
-61.1239
-61.3164
-61.5695
-62.2013
-63.4133
-64.2465
-63.7778
-63.2258
-63.56
-62.5478
-62.4912
-62.3519
-62.2945
-61.9367
-62.2282
-62.4212
-62.1666
-62.5963
-63.6365
-64.1466
-63.9599
-63.6591
-64.0914
-64.343
-64.1775
-64.0115
-63.93
-63.7019
-63.3435
-62.9109
-63.2435
-63.3176
-63.645
-63.7372
-63.9951
-64.0282
-64.3411
-64.4049
-64.8159
-64.4427
-66.0595
-65.9759
-65.7829
-65.3632
-64.6267
-64.5155
-64.3307
-64.3146
-63.9716
-64.1909
-64.1263
-64.2357
-64.49
-64.6242
-64.6799
-64.6082
-64.3041
-68.278
-67.9029
-67.2905
-66.4913
-65.7515
-65.5997
-65.5131
-65.2678
-64.7201
-64.7774
-64.2934
-63.7769
-64.1638
-64.2762
-63.9668
-64.074
-64.024
-63.6849
-70.4468
-69.7329
-68.8928
-67.9686
-67.2172
-66.6402
-66.1056
-65.5773
-65.48
-64.9711
-64.6777
-64.2625
-63.7164
-63.7937
-63.6375
-63.1684
-63.7886
-63.1974
-63.3947
-72.0766
-71.2323
-70.3211
-69.2609
-68.2654
-67.5183
-66.7936
-66.119
-65.3689
-65.2401
-64.5545
-64.0004
-63.5186
-63.2907
-63.0708
-62.6139
-62.7199
-62.7398
-62.8158
-62.784
-72.6971
-71.797
-70.887
-69.7002
-68.9288
-67.9975
-66.8437
-65.9708
-65.4367
-64.8208
-64.2392
-63.5864
-63.0022
-62.8259
-62.542
-62.163
-62.037
-62.1274
-62.0901
-62.2519
-62.4603
-73.2542
-72.2916
-70.9621
-69.5576
-68.5411
-67.6245
-66.6922
-66.0055
-65.3119
-64.4001
-63.7799
-63.1439
-62.5649
-62.3418
-62.1387
-61.9751
-61.9907
-61.9238
-61.9844
-61.9683
-62.0894
-62.1395
-73.4953
-56.2894
-56.5593
-56.4917
-56.5547
-56.4604
-56.2523
-56.6363
-56.6368
-56.5188
-56.511
-56.723
-56.6813
-56.6311
-56.501
-56.4937
-56.7755
-56.8355
-56.6044
-56.5742
-56.705
-56.6722
-56.7103
-56.7853
-56.7678
-56.8196
-56.8079
-56.8772
-56.8845
-56.7392
-56.8893
-56.8938
-56.9146
-57.0911
-57.212
-57.2741
-57.3939
-56.8946
-56.8664
-56.9748
-57.1421
-57.3418
-57.5933
-57.5666
-57.8449
-58.0015
-56.8976
-57.0676
-57.2056
-57.2498
-57.5721
-57.7294
-57.9396
-58.3618
-58.7923
-57.1493
-57.3331
-57.3923
-57.4949
-57.9059
-58.0207
-58.6295
-58.7898
-59.5961
-59.7937
-57.5787
-57.486
-57.6724
-57.6644
-58.2501
-58.2256
-59.0223
-59.5011
-60.2338
-60.7036
-61.0282
-57.4156
-57.9077
-58.1581
-58.2733
-58.4961
-58.7352
-59.3433
-59.7901
-61.3343
-62.0146
-61.7608
-58.4346
-58.5297
-58.6374
-58.9523
-59.2051
-59.359
-59.5834
-60.0987
-61.99
-63
-62.7704
-62.3208
-59.2818
-59.2186
-59.4492
-59.6538
-59.8338
-59.5422
-60.0791
-60.3851
-62.4303
-63.3788
-63.2491
-62.9543
-62.7704
-60.0311
-60.4305
-60.5355
-60.4818
-60.5029
-60.3686
-60.649
-60.9432
-62.4306
-64.0142
-63.987
-63.04
-63.0262
-63.3287
-61.3351
-61.305
-61.256
-61.5336
-61.2651
-61.3384
-61.7448
-61.8897
-62.559
-64.0805
-64.5375
-63.9253
-63.3871
-63.8074
-64.0887
-62.8761
-62.7947
-62.6724
-62.4773
-62.6979
-62.5808
-62.5872
-62.3422
-63.0064
-63.6734
-63.8345
-64.1546
-63.9473
-64.2939
-64.5587
-64.1929
-64.4063
-64.3508
-64.2928
-63.9703
-63.2219
-63.6671
-63.7802
-63.9374
-63.669
-64.1132
-64.1377
-64.2457
-64.8543
-64.6339
-64.96
-64.6632
-64.0773
-66.5829
-66.5315
-65.854
-65.642
-65.1058
-64.8572
-64.8863
-64.7969
-64.2017
-64.3166
-64.4609
-64.3444
-64.6496
-64.7658
-64.7332
-64.6867
-64.4452
-63.7465
-68.6663
-68.3416
-67.7785
-66.8871
-66.2913
-65.9244
-65.8737
-65.703
-65.1689
-65.1516
-64.7446
-64.0201
-64.3802
-64.4002
-64.0187
-64.1124
-64.0876
-63.7801
-63.7678
-70.7133
-70.1943
-69.3494
-68.4816
-67.6727
-67.0105
-66.5033
-65.9083
-65.78
-65.3344
-64.9718
-64.5223
-64.003
-63.9227
-63.7546
-63.2299
-63.6982
-63.2025
-63.4329
-63.6752
-72.4448
-71.6364
-70.7291
-69.6131
-68.5431
-67.8481
-67.1353
-66.2753
-65.6225
-65.4391
-64.7684
-64.2167
-63.6852
-63.3719
-63.0999
-62.623
-62.6897
-62.7565
-62.7566
-62.7555
-62.771
-72.9091
-71.9784
-71.1041
-69.8801
-69.1026
-68.1909
-67.0313
-66.1585
-65.5705
-64.926
-64.3559
-63.6986
-63.0758
-62.8808
-62.5642
-62.1494
-62.0125
-62.1005
-62.0814
-62.2225
-62.4056
-62.5963
-73.268
-73.3827
-72.3969
-71.0354
-69.6566
-68.5921
-67.6981
-66.7346
-66.0505
-65.384
-64.4691
-63.8751
-63.1712
-62.5876
-62.3816
-62.1363
-61.9626
-61.9445
-61.9038
-61.9453
-61.9232
-62.0596
-62.0824
-61.8773
-72.6213
-56.3134
-56.1408
-56.5108
-56.4162
-56.1807
-56.4549
-56.5239
-56.2484
-56.2227
-56.6506
-56.7117
-56.4337
-56.3191
-56.3765
-56.7778
-56.6596
-56.48
-56.3603
-56.4805
-56.4812
-56.6366
-56.7919
-56.6131
-56.6016
-56.7847
-56.5194
-56.7025
-56.6485
-56.8349
-56.8106
-56.6388
-56.9001
-56.9145
-56.8697
-57.0381
-56.6421
-56.874
-56.8601
-56.9619
-57.0845
-57.3464
-57.3167
-57.4628
-57.5845
-56.8414
-56.8683
-57.0143
-57.0313
-57.3884
-57.4739
-57.7758
-57.8601
-58.124
-58.4539
-56.9157
-57.0562
-57.2133
-57.358
-57.4613
-57.735
-57.9918
-58.2832
-58.5296
-59.1723
-57.0875
-57.2315
-57.3846
-57.3631
-57.761
-58.0525
-58.9884
-59.0923
-60.055
-60.1165
-60.1088
-57.5492
-57.5127
-57.782
-57.787
-58.2735
-58.4918
-58.7815
-59.3411
-60.5548
-61.2696
-61.2867
-61.7867
-57.575
-57.8712
-58.0634
-58.431
-58.6231
-58.5558
-59.2489
-60.0504
-61.7865
-62.5105
-62.0729
-62.1053
-58.723
-58.8255
-58.7293
-58.8035
-59.244
-59.2988
-59.5716
-59.9814
-62.3116
-63.1518
-62.8596
-62.3407
-62.2274
-59.2805
-59.5074
-59.7402
-59.9733
-59.917
-59.7236
-60.0681
-60.6065
-62.6635
-63.9892
-63.3217
-63.015
-62.7641
-62.9324
-60.3381
-60.5823
-60.7655
-60.7789
-60.4127
-60.6865
-60.9306
-61.1481
-62.4412
-63.8782
-63.9518
-63.3325
-63.1272
-63.5128
-63.5789
-61.5702
-61.713
-61.635
-61.735
-61.636
-61.4984
-62.0381
-61.9455
-62.6905
-64.2671
-64.4548
-64.1089
-63.6884
-64.0503
-64.2326
-63.8
-63.2574
-63.0201
-63.0956
-62.8142
-63.1491
-62.9359
-62.5062
-62.713
-63.3217
-63.7807
-64.1184
-64.2822
-64.2968
-64.4059
-64.7925
-64.4026
-63.8951
-64.8754
-64.7373
-64.5488
-64.5332
-63.9164
-64.2341
-64.3015
-64.3009
-64.2068
-64.6041
-64.4333
-64.4565
-65.2677
-64.9437
-65.0441
-64.8765
-64.3481
-63.9341
-67.1464
-66.6753
-66.6729
-65.8641
-65.4708
-65.534
-65.4476
-65.0493
-64.8923
-64.7864
-64.7658
-64.8318
-64.8907
-64.7882
-64.7225
-64.6948
-64.5082
-63.9558
-63.6602
-69.1099
-68.684
-68.023
-67.3209
-66.8294
-66.4748
-66.3282
-66.173
-65.6414
-65.5101
-65.2089
-64.429
-64.5931
-64.5455
-64.1449
-64.111
-64.1118
-63.8425
-63.7685
-63.6048
-71.1828
-70.6577
-69.741
-68.9324
-68.1055
-67.4244
-66.8871
-66.3021
-66.2341
-65.6786
-65.2716
-64.7952
-64.283
-64.0773
-63.8072
-63.2783
-63.6197
-63.1773
-63.4681
-63.5551
-63.9861
-72.8347
-72.0035
-71.0314
-69.9446
-68.8781
-68.2124
-67.4305
-66.5421
-65.958
-65.7057
-64.979
-64.4274
-63.8393
-63.4805
-63.1279
-62.6504
-62.6608
-62.7537
-62.6991
-62.7026
-62.6861
-63.4732
-73.4781
-73.0992
-72.157
-71.3065
-70.0024
-69.2648
-68.3978
-67.2188
-66.291
-65.692
-64.9951
-64.4659
-63.8052
-63.1583
-62.9324
-62.5877
-62.1353
-61.9916
-62.067
-62.0695
-62.1876
-62.3581
-62.5224
-62.686
-72.4671
-72.4936
-71.0985
-69.7259
-68.6516
-67.7542
-66.7714
-66.1034
-65.4638
-64.5164
-63.9177
-63.2127
-62.6293
-62.4033
-62.1334
-61.946
-61.853
-61.8832
-61.9066
-61.8896
-62.0238
-62.114
-61.876
-61.7223
-71.1867
-56.22
-56.1869
-55.9093
-56.4336
-56.4593
-56.0978
-56.2094
-56.5276
-56.4852
-56.2197
-56.2007
-56.1353
-56.6414
-56.7112
-56.3302
-56.3311
-56.4842
-56.2061
-56.5788
-56.58
-56.4819
-56.4181
-56.4002
-56.3598
-56.5359
-56.6272
-56.6997
-56.7498
-56.6073
-56.7385
-56.615
-56.6196
-56.8181
-56.5962
-56.7203
-57.2172
-56.6791
-56.7388
-56.9852
-56.9037
-57.0049
-57.1281
-56.7407
-56.7382
-56.6889
-56.7576
-57.1073
-57.1692
-57.529
-57.3955
-57.6836
-57.5071
-56.7014
-56.8829
-56.9937
-57.0554
-57.4121
-57.5958
-57.5537
-58.0307
-58.2242
-58.4757
-58.1775
-56.8507
-57.1365
-57.2289
-57.2214
-57.3875
-57.7463
-58.2815
-58.8807
-58.8941
-59.4051
-59.3082
-57.5032
-57.3247
-57.3817
-57.4489
-58.1243
-58.1131
-59.0282
-59.1935
-60.3116
-60.465
-60.311
-60.6369
-57.1421
-57.6322
-57.6327
-58.008
-58.239
-58.3969
-58.9275
-59.6921
-61.032
-61.9567
-61.9363
-62.2978
-62.2411
-57.9072
-58.1566
-58.1996
-58.2895
-58.6464
-58.9043
-59.3092
-60.0877
-62.1052
-62.8213
-62.4886
-62.3173
-62.3636
-58.4579
-58.7876
-58.9111
-59.1644
-59.3208
-59.1949
-59.4428
-60.3796
-62.5205
-63.4853
-63.014
-62.7604
-62.4745
-62.5279
-59.6588
-59.631
-59.9216
-60.215
-60.0133
-59.9852
-60.3808
-60.6345
-62.8936
-64.1141
-63.5724
-62.9338
-62.8838
-62.8507
-62.9142
-60.5858
-60.895
-61.1029
-60.9191
-60.7065
-60.9544
-61.283
-61.1188
-62.5474
-64.0386
-64.2661
-63.5565
-63.3961
-63.5614
-63.6095
-63.5475
-61.9794
-62.0611
-61.9993
-61.9168
-62.2177
-61.9004
-62.2178
-62.6185
-63.0564
-64.1078
-64.1417
-63.9363
-63.9931
-64.336
-64.4449
-64.0575
-63.8859
-63.3688
-63.3967
-63.4202
-63.0315
-62.8156
-63.4534
-63.0302
-63.1097
-63.5062
-64.1963
-64.3849
-64.7884
-64.8817
-64.6113
-65.0359
-64.5654
-64.174
-64.2458
-65.4542
-65.105
-64.7936
-64.969
-64.4472
-64.5238
-64.9235
-64.5691
-64.5589
-65.1001
-65.005
-64.5825
-65.3196
-65.2496
-65.0523
-64.9923
-64.5126
-64.1309
-64.1223
-67.5202
-67.1977
-67.3839
-66.3923
-66.0039
-66.1132
-65.9523
-65.4666
-65.4497
-65.3226
-65.1191
-65.4288
-65.2104
-65.0629
-64.8545
-64.6994
-64.5263
-64.1257
-63.7014
-63.9409
-69.6201
-69.0625
-68.4644
-67.8793
-67.3632
-66.8089
-66.6917
-66.6209
-66.0915
-65.8883
-65.6003
-65.1894
-64.8973
-64.7177
-64.36
-64.1263
-64.1769
-63.8987
-63.7618
-63.5166
-64.3018
-71.7055
-71.0788
-70.1568
-69.358
-68.5093
-67.8088
-67.323
-67.1813
-66.573
-66.0271
-65.5804
-65.0657
-64.5033
-64.2439
-63.8667
-63.3466
-63.5636
-63.1578
-63.488
-63.3926
-63.7843
-64.8016
-72.4099
-73.1907
-72.3068
-71.3038
-70.3724
-69.2547
-68.5601
-67.7289
-66.8779
-66.3602
-65.9334
-65.1814
-64.6232
-63.9906
-63.5992
-63.1641
-62.6948
-62.6458
-62.7367
-62.6569
-62.6482
-62.5945
-63.336
-63.9974
-72.747
-72.3128
-71.4921
-70.1092
-69.4687
-68.6002
-67.4071
-66.4118
-65.8464
-65.0626
-64.5714
-63.8934
-63.2398
-62.9712
-62.6126
-62.1223
-61.9642
-62.0296
-62.027
-62.1488
-62.309
-62.4446
-62.6344
-62.7157
-71.8062
-71.1444
-69.7892
-68.7733
-67.7861
-66.8006
-66.135
-65.5062
-64.5372
-63.9222
-63.267
-62.6777
-62.4022
-62.1237
-61.9403
-61.8212
-61.8536
-61.8427
-61.8502
-61.986
-62.1221
-61.8272
-61.6615
-61.8258
-69.9412
-56.1766
-56.1355
-55.9149
-55.9085
-56.4516
-56.4154
-56.0619
-56.147
-55.9777
-56.473
-56.4889
-56.0875
-56.2224
-56.095
-56.0165
-56.535
-56.4894
-56.3832
-56.261
-56.4251
-56.2087
-56.1986
-56.57
-56.5744
-56.3941
-56.341
-56.5017
-56.4087
-56.4802
-56.5877
-56.6155
-56.7383
-56.7886
-56.5899
-56.742
-56.6472
-56.6784
-56.886
-56.8104
-56.6693
-56.5914
-56.4466
-56.6579
-56.9086
-57.0003
-56.9943
-56.9933
-57.3621
-57.2347
-56.6539
-56.6777
-56.7638
-56.8608
-56.8834
-57.1497
-57.2045
-57.9542
-57.8251
-57.8601
-57.652
-56.7829
-56.8259
-57.0367
-57.0776
-57.2789
-57.6932
-57.6967
-57.9259
-58.6114
-58.6513
-58.5431
-58.6432
-57.1808
-57.1451
-56.9553
-57.4641
-57.6703
-57.8835
-58.2806
-58.7122
-59.7937
-59.6757
-59.6685
-59.9649
-56.9822
-57.099
-57.6179
-57.7236
-58.0532
-58.2654
-58.7768
-59.2385
-60.299
-60.9912
-60.9662
-61.223
-61.0562
-57.5214
-57.4956
-57.9522
-57.8828
-58.1143
-58.3254
-59.2098
-60.1622
-61.9371
-62.5353
-62.3812
-62.5102
-62.4255
-61.9084
-57.5994
-58.3759
-58.2118
-58.427
-58.6622
-58.8072
-59.0605
-59.9388
-62.3851
-63.1199
-62.7618
-62.5804
-62.323
-62.1543
-58.8707
-58.8856
-59.3351
-59.2739
-59.3461
-59.2957
-59.8615
-60.3714
-62.9568
-63.8594
-62.9447
-62.8064
-62.5914
-62.4901
-62.2974
-59.5414
-59.9108
-60.0933
-60.2898
-60.1458
-60.1988
-60.6626
-60.7924
-62.7779
-64.4045
-63.6316
-63.1323
-63.1073
-62.9759
-63.0425
-63.1436
-60.9591
-61.214
-61.3428
-61.2988
-61.1773
-61.16
-61.3873
-61.9791
-62.6928
-64.0597
-64.3592
-63.7556
-63.7262
-63.8298
-63.8715
-63.7874
-63.7749
-62.3729
-62.4156
-62.3232
-62.3024
-62.6038
-62.5731
-62.6061
-62.6494
-63.5846
-64.2658
-64.4409
-64.3173
-64.4678
-64.6919
-64.7135
-64.3451
-64.2205
-64.4022
-63.7488
-63.8517
-63.7655
-64.1806
-63.3117
-63.7123
-63.8733
-63.7395
-63.9563
-64.5898
-64.6909
-65.1729
-65.1159
-65.2251
-65.2598
-64.7471
-64.524
-64.4805
-64.1528
-65.8616
-65.6363
-65.4804
-64.9328