/*--------------------------------*- C++ -*----------------------------------*\
  =========                 |
  \\      /  F ield         | OpenFOAM: The Open Source CFD Toolbox
   \\    /   O peration     | Website:  https://openfoam.org
    \\  /    A nd           | Version:  7
     \\/     M anipulation  |
\*---------------------------------------------------------------------------*/
FoamFile
{
    version     2.0;
    format      ascii;
    class       surfaceScalarField;
    location    "4";
    object      phi;
}
// * * * * * * * * * * * * * * * * * * * * * * * * * * * * * * * * * * * * * //

dimensions      [0 3 -1 0 0 0 0];

internalField   nonuniform List<scalar> 
53739
(
9.53777e-05
0.00364568
-1.95122e-05
0.000227835
0.00365127
6.90217e-05
0.000106639
0.00355978
-2.07636e-05
0.000166006
0.0026276
-2.37759e-05
0.000295716
0.00558092
0.000119959
0.000249761
0.00354564
5.89406e-05
0.000301028
0.00377247
5.72728e-05
0.000121268
0.00345877
-2.20876e-05
0.000182202
0.00245063
-2.60002e-05
0.000174071
0.00309539
-8.48805e-06
0.000400209
0.00660271
0.000384888
0.000352766
0.0054417
9.73298e-05
0.00043732
0.00510993
0.000166689
0.000276164
0.00343625
4.98722e-05
0.000351322
0.00361525
4.70377e-05
0.000279644
0.00416023
6.99276e-05
0.000133469
0.0033451
-2.20214e-05
0.00019871
0.00225677
-2.69352e-05
0.000189751
0.00288842
-8.77805e-06
0.000226176
0.00257008
-5.06175e-06
0.000528773
0.00701724
0.000734536
0.000471741
0.00656431
0.000352275
0.000558069
0.00655189
0.000369443
0.000359865
0.00533308
0.00010317
0.000494791
0.00492492
0.000138873
0.000442106
0.00480639
0.000161717
0.000304972
0.00331345
4.3675e-05
0.000388864
0.00343691
3.80541e-05
0.00032087
0.0040048
7.13455e-05
0.000411075
0.00333849
6.19424e-05
0.000145355
0.00321887
-2.11923e-05
0.000213755
0.0020478
-2.68074e-05
0.000202763
0.0026683
-9.58477e-06
0.000233176
0.00233285
-4.72492e-06
0.000282344
0.00261691
-2.35197e-06
0.000660993
0.00695293
0.000866698
0.000627646
0.00699325
0.000719547
0.000756626
0.00662956
0.000621336
0.000493915
0.00650083
0.000362539
0.000600489
0.0064456
0.000352868
0.000510551
0.00602421
0.000396435
0.000433208
0.00520525
5.86458e-05
0.000533008
0.00477516
0.000108789
0.00048076
0.00466167
0.0001237
0.000596158
0.0040421
0.000128968
0.000311325
0.00320081
3.31823e-05
0.000425757
0.00323925
2.93351e-05
0.00035801
0.00382363
6.39847e-05
0.000432682
0.00314077
6.95532e-05
0.000491113
0.00336768
6.3511e-05
0.000155791
0.00307994
-1.99944e-05
0.000225425
0.00182749
-2.62992e-05
0.000215863
0.00243547
-9.84167e-06
0.000244246
0.00208366
-4.6362e-06
0.000289456
0.00232456
-1.8332e-06
0.000295437
0.00279577
-2.42754e-06
0.000732756
0.00689299
0.000952166
0.000846246
0.00683852
0.000849912
0.000905511
0.00633629
0.000777277
0.000717457
0.00684266
0.000708039
0.000828299
0.00653694
0.000584348
0.000735029
0.00590896
0.000547299
0.000560191
0.00640468
0.00041906
0.000648127
0.00634906
0.000343956
0.000572593
0.00591399
0.000371257
0.000799492
0.00496937
0.000354222
0.000457981
0.00504187
6.39101e-05
0.000524532
0.00463452
0.000100508
0.000507237
0.0045287
9.25363e-05
0.000618492
0.00388565
9.43372e-05
0.000685105
0.00387962
9.42044e-05
0.000343868
0.00307726
2.61831e-05
0.000451192
0.00302952
1.71469e-05
0.000383902
0.00362306
6.18655e-05
0.000455406
0.00293027
6.33261e-05
0.000508759
0.00315225
6.56853e-05
0.000540679
0.00343927
4.26895e-05
0.000165146
0.00293126
-1.93928e-05
0.000238357
0.0015946
-2.54638e-05
0.000231339
0.00218741
-9.5726e-06
0.000258887
0.00181945
-4.52103e-06
0.000296695
0.00202495
-1.72671e-06
0.000304816
0.00249145
-2.32132e-06
0.000270084
0.0025904
-1.05787e-05
0.000908856
0.00669225
0.00111751
0.000883352
0.00689893
0.000909135
0.00104269
0.00620946
0.000882855
0.000897235
0.00676061
0.000857869
0.00101242
0.00628071
0.000721374
0.00109876
0.00510504
0.000522282
0.000743535
0.00676421
0.000703562
0.000874403
0.00649105
0.000527656
0.000782872
0.00583139
0.000451643
0.0010167
0.00478189
0.000486649
0.000630295
0.00633262
0.000279066
0.000637112
0.00629574
0.000359805
0.000636432
0.00580263
0.000326123
0.000798006
0.00486749
0.000293623
0.000954052
0.00428509
0.000275181
0.000510655
0.00486353
4.98032e-05
0.000608226
0.0044442
9.71952e-05
0.000507603
0.00442949
7.60127e-05
0.000653841
0.00371901
6.0746e-05
0.00071959
0.00369096
7.21638e-05
0.000749774
0.00371642
2.5107e-05
0.000355961
0.00294384
1.18434e-05
0.000475448
0.00281075
7.85812e-06
0.000398212
0.00341597
5.73628e-05
0.000473396
0.00271782
5.98094e-05
0.000530302
0.00291806
6.38998e-05
0.000555453
0.00320927
4.50452e-05
0.000532061
0.00314068
3.15261e-05
0.000178165
0.00277187
-2.31087e-05
0.000250204
0.00135236
-2.7358e-05
0.000247547
0.00192434
-9.9449e-06
0.000274605
0.00153889
-3.62155e-06
0.000302021
0.0017206
-2.18639e-06
0.000315578
0.00217689
-2.7534e-06
0.000280114
0.00232261
-1.46386e-05
0.000253599
0.0011931
-3.24374e-05
0.00080273
0.00653923
0.00160358
0.00102594
0.00661154
0.00116926
0.00120018
0.00601076
0.00106663
0.000892996
0.00686719
0.000989258
0.00110246
0.00616595
0.00086261
0.00144218
0.00517003
0.000626582
0.000912772
0.00668766
0.000805692
0.00110379
0.00624921
0.000659977
0.00108442
0.00507584
0.000449027
0.00123602
0.00421524
0.000316209
0.000802849
0.00674007
0.000656305
0.000963097
0.00637747
0.00049116
0.00086402
0.00574822
0.000383241
0.00102268
0.0046661
0.000342761
0.00128338
0.00454021
0.000355414
0.000626984
0.00629418
0.000258422
0.000774747
0.00615679
0.000251498
0.000667453
0.00572382
0.000278764
0.000867245
0.00467542
0.000304783
0.00100179
0.00409984
0.000196677
0.00107729
0.00389454
0.000150783
0.000544081
0.00470472
5.49895e-05
0.000624996
0.00426322
8.1235e-05
0.000505467
0.00433473
8.46975e-05
0.000673966
0.00355759
3.68609e-05
0.000713385
0.00351455
5.40772e-05
0.000788022
0.00353707
1.89488e-05
0.000773274
0.0028947
2.12282e-05
0.000382364
0.00281781
-9.25575e-06
0.000492389
0.00258128
-8.70601e-07
0.000409274
0.00321031
5.17869e-05
0.000494236
0.00249284
6.2715e-05
0.000539498
0.00269005
5.03455e-05
0.00056538
0.00298618
3.71948e-05
0.000543087
0.00289736
2.5384e-05
0.000487916
0.0019993
2.39762e-05
0.000189397
0.00260303
-2.53872e-05
0.000255116
0.00110503
-3.08929e-05
0.000263525
0.001645
-1.15417e-05
0.000292224
0.00124125
-4.52689e-06
0.000311381
0.00140812
-2.52361e-06
0.000321958
0.00185616
-3.40992e-06
0.00028923
0.00204887
-1.8247e-05
0.000256523
0.000955676
-3.37397e-05
0.000308313
0.00044626
-3.23737e-05
0.000899275
0.00635798
0.00194091
0.00121596
0.00661756
0.00146224
0.0012052
0.00602415
0.00158727
0.0010732
0.00657284
0.00116096
0.00123146
0.00595087
0.00110015
0.00161042
0.00553822
0.000978644
0.000942147
0.00682925
0.0009429
0.00122272
0.00614304
0.000893235
0.00134133
0.00519034
0.000585392
0.00133853
0.00430182
0.000339463
0.000980358
0.0066477
0.000778218
0.0011894
0.00621768
0.000610917
0.0011483
0.00503218
0.000419353
0.00123026
0.00419669
0.000259992
0.00153086
0.00419577
0.0002313
0.000796565
0.00665145
0.000593082
0.000998018
0.00641017
0.000400333
0.000833936
0.00577981
0.00029309
0.00112391
0.00450053
0.000292141
0.00133962
0.00426569
0.000279451
0.00146314
0.00395778
0.000208408
0.000746122
0.00614136
0.000264317
0.00077512
0.00606695
0.000198136
0.000634088
0.00561227
0.000234432
0.000917311
0.00442975
0.00028109
0.00101362
0.00389685
0.000207542
0.00111897
0.0035955
0.000164761
0.000999601
0.00301378
6.84564e-05
0.000577557
0.00454221
1.72678e-05
0.000641881
0.00412541
4.3305e-05
0.000490097
0.00428743
4.77153e-05
0.000694655
0.00340369
3.81783e-05
0.000730921
0.00332146
3.8532e-05
0.000800386
0.00331375
4.23879e-05
0.000733355
0.00272121
2.16461e-06
0.000682903
0.00252155
-7.90925e-05
0.000404661
0.00267512
-2.33069e-05
0.000502066
0.00234288
-1.78022e-05
0.000430232
0.00300689
3.58426e-05
0.000513183
0.00226224
6.1422e-05
0.000547024
0.00247307
4.40583e-05
0.000568005
0.00277661
1.38647e-05
0.000566349
0.00265408
3.35602e-06
0.000505953
0.00178898
-1.37326e-05
0.000570987
0.00131081
-3.63231e-06
0.000198145
0.00242442
-2.57691e-05
0.000254978
0.000858011
-3.33478e-05
0.000272896
0.00135308
-1.18703e-05
0.000308565
0.000925414
-4.27173e-06
0.00032521
0.00108251
-4.13313e-06
0.000327384
0.00153028
-4.02799e-06
0.000294697
0.00177103
-2.0265e-05
0.000252584
0.000717867
-3.30224e-05
0.000301614
0.000142367
-3.14609e-05
0.000262506
-0.000238212
-1.98102e-05
0.00112022
0.00594699
0.00195611
0.00136191
0.00626789
0.00192933
0.00133927
0.00593279
0.00186736
0.00132234
0.00639952
0.0015872
0.00135778
0.0059701
0.00138996
0.00176111
0.00570007
0.00149673
0.00112491
0.00639049
0.00112361
0.00146083
0.00584011
0.00103361
0.00155562
0.00550091
0.00092318
0.00152859
0.00494551
0.000678777
0.00102784
0.00681948
0.000885604
0.00134529
0.00611868
0.000811368
0.00144551
0.00519299
0.000593379
0.00140735
0.00438934
0.000320784
0.0015598
0.00407865
0.000149337
0.000943126
0.00658012
0.000815771
0.00125751
0.00614776
0.000588654
0.00111216
0.00495147
0.000413406
0.00124706
0.00431386
0.000179039
0.00163205
0.00400813
0.000155206
0.00169121
0.00368654
0.000194406
0.000945212
0.00659508
0.000620057
0.000977587
0.00638245
0.000418334
0.00112661
0.0054579
0.00022972
0.00118512
0.00430591
0.00021991
0.0014376
0.00391542
0.000218419
0.00147517
0.0036409
0.000240141
0.00118089
0.00335216
0.000191502
0.000741416
0.00604993
0.000247016
0.00078574
0.00593452
0.000252891
0.00072677
0.00545253
0.000121201
0.00096784
0.00412398
0.000267022
0.00103356
0.00362837
0.000246926
0.00115034
0.00336722
8.58662e-05
0.000963967
0.00285873
8.92074e-05
0.000969583
0.00272397
-0.000106075
0.000621045
0.00433392
1.68862e-05
0.000669039
0.00395508
2.06302e-05
0.000500454
0.00416205
9.84683e-05
0.000724325
0.00322271
1.75539e-05
0.000737957
0.00314265
2.60501e-05
0.000799465
0.00311615
4.67519e-06
0.000746805
0.00257975
3.39207e-06
0.000705345
0.0024092
-8.48792e-05
0.000726651
0.00169027
-0.000145112
0.000422436
0.00254476
-5.56817e-05
0.000506363
0.00210495
-3.67645e-05
0.000458865
0.00278849
1.46336e-05
0.000528305
0.00204846
2.98808e-05
0.000559942
0.00226528
3.44774e-05
0.000573413
0.00257352
1.12239e-06
0.000581197
0.00240836
-2.69085e-05
0.000513534
0.00156217
-3.07854e-05
0.000592526
0.00103756
-3.13992e-05
0.000567765
0.000973067
-2.95155e-05
0.000209564
0.00222994
-2.46054e-05
0.000242692
0.000621758
-3.22091e-05
0.000276198
0.00105594
-1.24024e-05
0.000314155
0.000603486
-4.09784e-06
0.000339584
0.000743583
-4.92325e-06
0.000329425
0.00120168
-4.95743e-06
0.000295332
0.00149022
-1.85515e-05
0.000242746
0.000485539
-3.06823e-05
0.000295926
-0.000159885
-2.66961e-05
0.000266943
-0.000514415
-2.22017e-05
0.000237269
-0.000456654
-2.32638e-05
0.00101474
0.00577755
0.0023398
0.0012316
0.00606671
0.00215893
0.00122972
0.00571285
0.00198558
0.00124809
0.00629559
0.00188648
0.00155528
0.00577598
0.00188864
0.0019347
0.00559434
0.00172385
0.00141915
0.00622145
0.00142903
0.00151385
0.00590194
0.00160234
0.00179708
0.00552054
0.00132804
0.00175102
0.00542404
0.00111523
0.00122946
0.00640579
0.00113842
0.00158619
0.00576998
0.000952833
0.00167794
0.00543784
0.000864245
0.00156664
0.00504857
0.000660837
0.00178188
0.0045014
0.000208974
0.00111972
0.00674415
0.000842755
0.0015094
0.00590157
0.000850826
0.00147809
0.00499808
0.000640355
0.00139871
0.00454635
0.000284715
0.00176751
0.00414995
0.000114022
0.00179838
0.00355414
0.000134327
0.00107207
0.00655839
0.000738236
0.00132165
0.00599267
0.000626796
0.00160159
0.00474992
0.000315222
0.00137141
0.00439403
0.000146937
0.00159981
0.00389859
0.000126371
0.00167635
0.00354358
9.69799e-05
0.00137753
0.00338876
0.000253731
0.000939704
0.00650547
0.000588341
0.00106641
0.00634618
0.000375656
0.000959048
0.00542711
0.000216844
0.00128562
0.00405376
0.000164089
0.00146426
0.00353557
0.000169073
0.00146259
0.0033684
0.000178679
0.00116803
0.00316981
0.000218439
0.00127923
0.0028467
5.56021e-05
0.000835096
0.00592114
0.000113868
0.000778864
0.00584109
0.000230621
0.000712807
0.00523836
0.00025471
0.00103015
0.00382648
0.000112873
0.0010937
0.00330162
0.000238024
0.00116749
0.00314568
0.000100447
0.000966846
0.00269755
2.70025e-05
0.00101524
0.00264439
-0.0001411
0.000992195
0.00185828
-0.000252132
0.000622372
0.00420865
-3.95846e-05
0.000699105
0.00375729
2.19357e-05
0.000540942
0.00405741
4.31886e-05
0.000692138
0.00306493
9.24099e-05
0.000765543
0.00292041
3.41949e-05
0.000800315
0.00293946
-2.41649e-05
0.000764243
0.00246348
-6.20988e-05
0.000739944
0.00225847
-7.22917e-05
0.000758735
0.0015577
-0.000118518
0.000756735
0.000945151
-0.000128601
0.000433099
0.0024088
-7.59588e-05
0.000487505
0.00187154
-6.70816e-05
0.000470058
0.00257002
-1.21589e-05
0.000540475
0.00184066
-3.88176e-06
0.0005872
0.00203868
8.85741e-06
0.000588004
0.00235722
-7.79918e-06
0.000588426
0.0021591
-4.27132e-05
0.000520512
0.00129723
-3.97356e-05
0.000611217
0.000722938
-3.14533e-05
0.000591697
0.000649126
-3.22113e-05
0.000459739
0.000712081
-7.10152e-05
0.000219608
0.00201944
-2.27489e-05
0.000231044
0.000394629
-2.85204e-05
0.000275529
0.000760271
-1.20689e-05
0.000314529
0.000281387
-4.83192e-06
0.000350218
0.000395397
-6.13107e-06
0.000329159
0.00087375
-6.15188e-06
0.000290327
0.00120934
-1.44061e-05
0.000236231
0.000255876
-2.51196e-05
0.000292404
-0.000461627
-2.13442e-05
0.000274206
-0.000792582
-2.27344e-05
0.000234655
-0.000689467
-2.40434e-05
0.000188913
-0.00104915
-2.1129e-05
0.000950857
0.0047874
0.00308949
0.00101444
0.00536519
0.00255735
0.00113213
0.00589763
0.00231183
0.00123634
0.00563189
0.00219813
0.00105872
0.00624234
0.00205519
0.00152542
0.00573889
0.00216275
0.00177658
0.00557653
0.00201038
0.00144099
0.00624625
0.00186888
0.00144726
0.00585526
0.0018738
0.0017559
0.00570962
0.00181455
0.00210972
0.00505694
0.00163495
0.00148704
0.00612726
0.00142567
0.00157008
0.00593522
0.00141187
0.00179795
0.00556781
0.00143505
0.00197349
0.00518261
0.00116262
0.00213284
0.00486573
0.000784034
0.00141171
0.00617936
0.00105562
0.00166922
0.00575813
0.000990436
0.00170274
0.00534785
0.000818183
0.00164189
0.00512481
0.000544825
0.00183017
0.0047648
0.000334775
0.00193646
0.00386582
7.42507e-05
0.00121868
0.00664909
0.000866611
0.00160866
0.00572774
0.000729579
0.00168005
0.00511747
0.000652975
0.00168157
0.00459575
0.0002808
0.00159686
0.00426291
0.000174712
0.00173322
0.00358877
2.25273e-05
0.00153819
0.00334081
-8.71753e-05
0.00118324
0.00647764
0.000698821
0.00146192
0.00586314
0.000472254
0.00123625
0.0047719
0.000327614
0.00147333
0.00449411
2.74378e-05
0.00169557
0.00369748
0.00011673
0.00144985
0.00352891
0.000153785
0.00124153
0.0033305
8.17419e-05
0.0013662
0.00315927
0.000131943
0.00110123
0.00638484
0.000504493
0.00110378
0.00618931
0.000420296
0.00134329
0.00495974
0.000212548
0.0013613
0.00387633
6.31257e-05
0.00144676
0.0032359
0.000110691
0.00135342
0.00326472
8.68142e-05
0.0011467
0.00308738
8.1251e-05
0.00134951
0.00284896
-0.000118086
0.00133522
0.00222908
-0.000255517
0.000846562
0.00577758
0.000138382
0.000819992
0.00569764
0.000136427
0.0007975
0.00497395
0.000238471
0.00101729
0.00359896
0.000157079
0.00108936
0.0029425
0.000148181
0.00113609
0.00299546
5.24668e-05
0.00101119
0.0025902
-3.91583e-05
0.00106429
0.00251898
-0.000171943
0.000967058
0.00179309
-0.000284224
0.000874036
0.00150609
-0.000365783
0.00063508
0.00411725
-7.34417e-05
0.000657935
0.0035577
-1.04298e-05
0.000575985
0.00393077
4.26491e-05
0.00070295
0.002906
3.9645e-05
0.000800849
0.00276993
2.92436e-05
0.000831336
0.00277349
-4.31683e-05
0.000780099
0.002358
-0.000110353
0.000756877
0.00202033
-6.03197e-05
0.00078609
0.00139967
-8.913e-05
0.000765425
0.000782411
-0.000129506
0.000569247
0.00138411
-0.000212606
0.000441417
0.00228328
-0.000112898
0.000464948
0.00165002
-8.83433e-05
0.000467096
0.0023615
-5.01242e-05
0.000556437
0.00160696
-2.03704e-05
0.00061166
0.00178786
-1.45011e-05
0.000604918
0.00211615
-2.58314e-05
0.000585197
0.00190339
-4.69541e-05
0.000526462
0.00100323
-3.89449e-05
0.000621804
0.000379975
-2.61725e-05
0.000608314
0.000322947
-3.93823e-05
0.000445749
0.000548233
-7.94582e-05
0.000348337
0.000331772
-9.2292e-05
0.000231221
0.00179074
-2.12437e-05
0.000219967
0.00017604
-2.41269e-05
0.000265221
0.000479169
-1.26393e-05
0.000312496
-3.59787e-05
-7.19931e-06
0.000351482
4.79638e-05
-8.88037e-06
0.000326142
0.000549821
-8.34479e-06
0.000281263
0.00093169
-9.76352e-06
0.000239957
1.83578e-05
-1.68449e-05
0.000290731
-0.000760952
-1.65253e-05
0.000275414
-0.00106735
-2.19887e-05
0.000227858
-0.000914674
-2.53854e-05
0.000188793
-0.00124102
-2.09682e-05
0.00016101
-0.00141292
-1.39161e-05
0.00109488
0.00460466
0.00318031
0.000900365
0.00488264
0.00306163
0.00108745
0.00500635
0.00302701
0.00114517
0.00530975
0.00262597
0.001607
0.00526275
0.00257446
0.0011466
0.00582282
0.00223337
0.00139804
0.00576704
0.00230406
0.00170886
0.00566816
0.00218047
0.00139552
0.00627443
0.00206416
0.00124078
0.00590725
0.0020933
0.00182878
0.00569062
0.00197577
0.00224681
0.00525655
0.00192753
0.00161648
0.00609988
0.00179329
0.00151287
0.00593429
0.00184706
0.00187211
0.00582593
0.00168333
0.00237521
0.00485209
0.00161767
0.00240647
0.00470121
0.0015026
0.00154478
0.00610278
0.00140063
0.00169882
0.00590371
0.00142758
0.00170212
0.00561062
0.00136968
0.00191348
0.00513043
0.00121564
0.00218232
0.00481588
0.000860324
0.00215366
0.0038375
0.000675146
0.00151607
0.00608638
0.00104235
0.0017496
0.0056817
0.000991111
0.00172836
0.00539482
0.000895152
0.00180114
0.00524711
0.000576314
0.00172163
0.00484379
0.000341064
0.00179598
0.00380617
0.000331657
0.00172117
0.003084
7.86419e-05
0.00142341
0.00648405
0.000767167
0.0017377
0.00556235
0.000756217
0.00163512
0.00496825
0.000479933
0.00158141
0.00495465
0.000185986
0.0017755
0.00431351
0.000150272
0.00145201
0.00355724
0.000204086
0.00135009
0.00315376
0.000101017
0.00126284
0.00312854
-0.000111836
0.0013668
0.00636566
0.000603517
0.00158619
0.00573242
0.000347129
0.00170736
0.00485723
2.28508e-05
0.00148512
0.00453468
0.00016322
0.00152063
0.0036712
-2.01507e-05
0.00139148
0.00338194
0.000225641
0.00144909
0.00315786
2.40246e-05
0.00158179
0.00289995
0.000108771
0.00150201
0.00288635
-0.000187248
0.00116414
0.00616988
0.000401982
0.00117322
0.00607661
0.000263966
0.00125915
0.00476665
0.000151729
0.00139793
0.00360906
9.9177e-05
0.00131402
0.00300838
6.59843e-05
0.00129334
0.00315786
6.02992e-05
0.00122425
0.00300656
-4.54221e-05
0.00137653
0.00282499
-0.000207017
0.00124855
0.00228445
-0.000454955
0.000949229
0.00198663
-0.000554675
0.000878859
0.00555573
0.000209481
0.000800402
0.00564463
4.8927e-05
0.000871588
0.00462697
0.000187807
0.00104577
0.00335632
0.000138289
0.00105607
0.0027724
7.19558e-05
0.00113501
0.00285566
-1.5692e-05
0.00105384
0.00250401
-0.000135083
0.00105512
0.00241685
-0.000235259
0.000963988
0.00174827
-0.000305021
0.000815363
0.00155425
-0.000382324
0.000591325
0.00156547
-0.000533206
0.000664679
0.00396566
-8.77215e-05
0.000581275
0.00343086
-6.2929e-05
0.000604213
0.00364437
0.000138854
0.000715727
0.00276978
1.95863e-05
0.000900028
0.00252748
-6.2797e-06
0.000857914
0.00262026
-7.0517e-05
0.000788973
0.00224917
-0.000138122
0.000750705
0.00176638
-8.06443e-05
0.000808421
0.00120001
-4.72831e-05
0.000760308
0.000676517
-0.00013523
0.000585466
0.00133216
-0.000217277
0.000445786
0.00129276
-0.00029802
0.000462082
0.00213682
-0.000130045
0.000440134
0.00145179
-0.000134834
0.000462021
0.00213605
-5.97012e-05
0.000566057
0.00134267
-3.93931e-05
0.00062882
0.00151975
-2.95907e-05
0.000613088
0.00185809
-4.33894e-05
0.000573795
0.00164491
-5.98875e-05
0.000545176
0.000695718
-4.46568e-05
0.000610826
4.34597e-05
-2.25251e-05
0.000606153
1.8709e-05
-5.26741e-05
0.000429343
0.00040385
-9.64836e-05
0.000356028
0.000177837
-9.27592e-05
0.000301992
0.000289348
-9.61554e-05
0.000234923
0.00155255
-2.08145e-05
0.000209958
-3.52505e-05
-1.99109e-05
0.000251014
0.000217608
-1.35804e-05
0.000304105
-0.00034291
-9.81328e-06
0.000341677
-0.000287955
-1.29577e-05
0.000322352
0.000231113
-1.25241e-05
0.000276096
0.000653187
-5.93825e-06
0.00024638
-0.00022762
-1.01657e-05
0.000290386
-0.00105517
-1.30098e-05
0.000273164
-0.00133559
-2.14522e-05
0.000221239
-0.00113148
-2.64189e-05
0.000185736
-0.00143117
-2.09721e-05
0.000158478
-0.00157864
-1.37223e-05
0.000164443
-0.00174432
-1.31646e-05
0.00116075
0.00454083
0.00386693
0.000909515
0.00460452
0.00359564
0.000714842
0.00475832
0.00320644
0.00115821
0.00499463
0.00312541
0.000940199
0.00515782
0.00297756
0.00156858
0.00511926
0.00298714
0.0014904
0.00489219
0.00310079
0.00106536
0.00521541
0.00280896
0.00113536
0.00554765
0.00260376
0.00161254
0.00519458
0.00265321
0.00145712
0.00583711
0.00228679
0.00106279
0.00585445
0.00232395
0.00195976
0.00565574
0.0021855
0.00204182
0.00531473
0.00239128
0.00175645
0.00599838
0.00220991
0.0015904
0.00578601
0.00210787
0.00194027
0.00568587
0.00202989
0.0024235
0.00527372
0.00191032
0.00257705
0.00451345
0.00194201
0.00158731
0.00607392
0.00176957
0.00186264
0.00591409
0.00164967
0.00194622
0.00571897
0.00170993
0.00190647
0.00497251
0.00156991
0.0024073
0.00473956
0.00135434
0.00225474
0.00423214
0.00134088
0.00159375
0.00612496
0.00141105
0.00181102
0.005919
0.00132392
0.0018235
0.00558934
0.00135371
0.0020339
0.00521364
0.0010537
0.00211853
0.00479485
0.000839748
0.00210378
0.00382471
0.000565304
0.00191312
0.00301679
0.000471179
0.00165566
0.00607889
0.00119693
0.00182551
0.00560602
0.00103023
0.00177733
0.00534002
0.000903705
0.00171781
0.0053715
0.000634363
0.00194407
0.00475695
0.000494581
0.00172805
0.00356768
0.000303513
0.00151292
0.00295356
0.000299262
0.00122691
0.00298755
4.47539e-05
0.00161455
0.00627474
0.000791731
0.00175332
0.00545133
0.000711062
0.00162916
0.00527888
0.000523781
0.00153871
0.0050305
0.000350489
0.00151827
0.0045012
6.56575e-07
0.00143366
0.00351323
0.000152101
0.00156445
0.0032315
1.09903e-05
0.0014812
0.00319158
0.000138561
0.0016194
0.00280295
-0.000118436
0.0014301
0.00626023
0.000548006
0.00165566
0.00551525
0.000338255
0.00145898
0.00501865
-1.41242e-05
0.00156949
0.00462491
-0.000238931
0.00143336
0.00377507
-5.99922e-05
0.00124533
0.00345834
-4.85439e-05
0.00138927
0.00313861
7.98771e-05
0.0015067
0.00284268
-4.88705e-05
0.00147825
0.00289333
-0.000127905
0.00120908
0.00208782
-0.000532306
0.00121543
0.00597502
0.000259459
0.00121535
0.00579907
0.000264574
0.00126217
0.00473406
-9.40235e-05
0.00139988
0.00342588
-1.9194e-05
0.00102889
0.00310504
2.97008e-05
0.00111953
0.00323648
2.84724e-06
0.00126866
0.0029281
-7.60591e-05
0.00139662
0.00276646
-0.000328402
0.00122665
0.00229122
-0.000476447
0.000872626
0.00210487
-0.000630466
0.000570962
0.00141571
-0.000745405
0.000877325
0.005349
0.00018344
0.000791541
0.00555705
8.67971e-05
0.000975155
0.00422287
8.20853e-05
0.000981407
0.00323212
4.63291e-05
0.000992676
0.00277808
3.99619e-05
0.00108617
0.00282607
-0.000126696
0.00106207
0.00242823
-0.00021301
0.00106014
0.00229184
-0.000319509
0.000923235
0.00173238
-0.000334191
0.00076675
0.00164694
-0.000404154
0.000591129
0.00168497
-0.000507488
0.000390752
0.0010792
-0.000611992
0.000666214
0.00380336
-7.34929e-05
0.000519206
0.00332231
-5.8239e-05
0.00065004
0.00341361
-2.01892e-05
0.000750672
0.00263996
8.40567e-05
0.00092451
0.00228304
-3.16618e-05
0.000875215
0.00247025
-0.000118394
0.000800294
0.00209828
-0.000146126
0.00077892
0.00150866
-0.000114153
0.000791528
0.000985172
-4.65045e-05
0.000722901
0.000656303
-0.000143818
0.000573532
0.0012704
-0.000217655
0.000473832
0.00124634
-0.00028866
0.000185269
0.000867054
-0.000282924
0.000459332
0.00197392
-0.000148394
0.000408235
0.00127848
-0.000155013
0.000448085
0.00187916
-7.50111e-05
0.00057362
0.00105676
-4.33095e-05
0.000624978
0.00123868
-4.16339e-05
0.000619539
0.00159599
-6.46829e-05
0.000572131
0.00137818
-7.2693e-05
0.000557568
0.000380968
-5.63245e-05
0.000588435
-0.000260842
-3.84044e-05
0.00058801
-0.000254676
-6.3985e-05
0.000417016
0.000268276
-0.000112878
0.000360507
2.2808e-06
-9.56982e-05
0.000310981
0.000136612
-9.25269e-05
0.000280023
0.000160936
-9.93262e-05
0.000245789
0.00129722
-2.15365e-05
0.000201299
-0.000241268
-1.60961e-05
0.000236582
-2.41154e-05
-1.47695e-05
0.000297441
-0.000642567
-1.13642e-05
0.000328541
-0.00060945
-1.68589e-05
0.000320101
-8.54806e-05
-1.64645e-05
0.000277025
0.000367933
-4.29488e-06
0.000252757
-0.00048168
-4.63453e-06
0.000288424
-0.00134205
-1.17127e-05
0.000267255
-0.00159385
-2.20084e-05
0.000218642
-0.00134435
-2.7223e-05
0.000180989
-0.00161683
-2.17455e-05
0.000155144
-0.00174075
-1.40082e-05
0.000161375
-0.00190595
-1.3466e-05
0.000143459
-0.000851597
-1.59904e-05
0.000887893
0.00452865
0.00395995
0.000910194
0.00465278
0.00391964
0.00112615
0.00450937
0.00382596
0.000374369
0.004886
0.00356631
0.00115259
0.00449727
0.00361719
0.000698471
0.00503309
0.00327296
0.00140485
0.00503941
0.0033254
0.0015204
0.00474124
0.00328074
0.000981468
0.00518999
0.00303323
0.00119097
0.00510088
0.00294033
0.00140738
0.00499723
0.00308726
0.00169639
0.0050147
0.00313842
0.00129225
0.00542676
0.00263236
0.00161912
0.00528596
0.00251432
0.00172765
0.00542278
0.00260767
0.00190648
0.00522754
0.0026421
0.00176739
0.00577332
0.00225442
0.00151514
0.00592891
0.00228759
0.00210276
0.00560287
0.00221433
0.00230867
0.00538895
0.00222611
0.00235622
0.00504635
0.00250788
0.00124494
0.00624652
0.00216331
0.0019768
0.00566765
0.0022141
0.0019734
0.00578097
0.00198558
0.00212094
0.00507024
0.0020189
0.00240697
0.00445645
0.00196764
0.00257745
0.00446673
0.00180937
0.00148825
0.00616762
0.00186363
0.00185957
0.00586755
0.00176757
0.00213689
0.00549474
0.00156051
0.00231418
0.00485819
0.00154397
0.00238841
0.00453437
0.00150522
0.00259648
0.0038775
0.00121627
0.0022629
0.0032314
0.000892409
0.0018489
0.00614514
0.00126651
0.00181455
0.0060083
0.00133271
0.00185034
0.00562822
0.00121202
0.00197209
0.0053369
0.000976174
0.00225002
0.00474537
0.000797233
0.00201305
0.003844
0.000535463
0.00163118
0.00315339
0.000310449
0.00155201
0.00263257
0.000203959
0.00169261
0.00611318
0.000974312
0.00183142
0.00567377
0.00105107
0.00166608
0.00535875
0.000974577
0.00167074
0.00537295
0.000770224
0.00174309
0.00474362
0.000422868
0.00148548
0.00357815
0.000432285
0.00148565
0.00321375
0.000122116
0.00136763
0.00332875
7.16303e-05
0.00183636
0.00256249
-0.000189493
0.00176086
0.00602572
0.000761275
0.00178868
0.00539389
0.00071615
0.00168238
0.00528949
0.000477053
0.00166868
0.00514736
0.000307729
0.00150155
0.00457995
0.000203549
0.001223
0.00353899
-2.77944e-06
0.00131817
0.00351781
-6.3099e-05
0.00140386
0.00331004
-4.62466e-06
0.00162194
0.00294775
-0.000149928
0.0016065
0.00197254
-0.000527824
0.00151003
0.0061687
0.000403144
0.00169147
0.00535568
0.000231455
0.00151427
0.00516224
-5.74256e-05
0.00142609
0.00439876
0.000185804
0.000786306
0.00397673
-0.000198007
0.00111394
0.00359259
-0.000188657
0.001349
0.0031555
-0.000145785
0.00157103
0.00280852
-6.03764e-05
0.00148677
0.00281462
-0.000230275
0.00123672
0.00216861
-0.000572791
0.000677495
0.0019468
-0.000703317
0.00121243
0.00587668
0.000177994
0.00129936
0.00555498
-4.2729e-06
0.00134686
0.00472852
-0.000101596
0.00121329
0.00334533
-0.000245355
0.000718339
0.00334515
1.50356e-05
0.00120763
0.00316106
-1.63396e-05
0.00129879
0.00283901
-0.000144781
0.00139072
0.00267393
-0.000314106
0.00114616
0.00227259
-0.000532694
0.000892288
0.00218458
-0.000681693
0.000685276
0.00148832
-0.000797222
0.000237399
0.00144567
-0.000721716
0.000866053
0.00520019
-3.88062e-05
0.000790589
0.00544633
2.27772e-05
0.0010254
0.00392595
8.35334e-06
0.00101144
0.00308316
-2.97238e-05
0.000950826
0.0028456
-4.7508e-05
0.00108309
0.00283656
-0.000178414
0.00108415
0.00232633
-0.00030866
0.00107485
0.00212028
-0.000337376
0.000914945
0.00164101
-0.000351558
0.000746188
0.00170467
-0.000415201
0.000593496
0.00178415
-0.000523295
0.000438089
0.00120081
-0.000593353
-8.64223e-05
0.00126979
-0.00051748
0.000658778
0.00364859
-0.000105335
0.00049502
0.00320311
-4.10817e-05
0.00069651
0.00316341
-5.64624e-05
0.000826035
0.00242857
-6.12158e-05
0.000922228
0.00212347
-5.36225e-05
0.000876805
0.00231738
-0.000136063
0.000781063
0.00195854
-0.000187581
0.000820886
0.001238
-0.000138779
0.000754609
0.00078472
-7.98752e-05
0.000708196
0.000651882
-0.000162269
0.000594314
0.00116326
-0.000213984
0.000483876
0.0011826
-0.000277283
0.000284879
0.000881185
-0.00027669
0.000262051
0.000659556
-0.000233793
0.000467836
0.00178171
-0.000147373
0.000367491
0.00110402
-0.000140122
0.000456261
0.00159235
-8.78819e-05
0.000587051
0.000735198
-4.30547e-05
0.00061999
0.000967336
-6.34097e-05
0.00062311
0.00133693
-8.55841e-05
0.000577953
0.00109863
-8.60623e-05
0.000540189
9.17197e-05
-7.08776e-05
0.000563901
-0.000531209
-6.14346e-05
0.000562687
-0.000513863
-7.46495e-05
0.000416624
0.000127506
-0.000121197
0.000362367
-0.000193678
-9.8297e-05
0.000321429
-4.05804e-05
-8.47899e-05
0.00030186
2.44744e-05
-9.65498e-05
0.000310243
-0.000437828
-8.73954e-05
0.00024356
0.00103817
-2.37958e-05
0.000195772
-0.000447238
-1.13381e-05
0.000227144
-0.00025098
-1.63757e-05
0.000297728
-0.000943137
-1.19272e-05
0.000317975
-0.000918922
-1.98677e-05
0.000317623
-0.000399707
-2.02553e-05
0.00028279
7.2155e-05
-3.47644e-06
0.000261512
-0.000747417
-7.1145e-08
0.000283382
-0.00161852
-1.15479e-05
0.000259376
-0.00184286
-2.20792e-05
0.000217106
-0.00155591
-2.75591e-05
0.000175702
-0.00179788
-2.18739e-05
0.000152554
-0.00190093
-1.41248e-05
0.000157253
-0.00206295
-1.42599e-05
0.000144232
-0.000992883
-1.64112e-05
0.000150389
-0.00139504
-2.44587e-05
0.000456016
0.00427701
0.00425556
0.00076221
0.00457415
0.00383607
0.000993111
0.00449699
0.00395978
0.000504242
0.0046261
0.00384412
0.00125985
0.00455319
0.00376856
0.00142277
0.00459008
0.00381685
0.000878805
0.00474844
0.00351181
0.00105073
0.00469011
0.0037276
0.00154153
0.00466692
0.00361788
0.000947497
0.00506008
0.00321549
0.00146819
0.00472795
0.00330721
0.00134142
0.00473691
0.00339568
0.00171699
0.00509395
0.00323059
0.00132898
0.00511387
0.00311523
0.00183105
0.00496213
0.00296005
0.00137689
0.00518885
0.00309947