/*--------------------------------*- C++ -*----------------------------------*\
  =========                 |
  \\      /  F ield         | OpenFOAM: The Open Source CFD Toolbox
   \\    /   O peration     | Website:  https://openfoam.org
    \\  /    A nd           | Version:  7
     \\/     M anipulation  |
\*---------------------------------------------------------------------------*/
FoamFile
{
    version     2.0;
    format      ascii;
    class       surfaceScalarField;
    location    "4";
    object      phi_0;
}
// * * * * * * * * * * * * * * * * * * * * * * * * * * * * * * * * * * * * * //

dimensions      [0 3 -1 0 0 0 0];

internalField   nonuniform List<scalar> 
53739
(
9.71881e-05
0.00363731
-1.98115e-05
0.000229455
0.00365309
6.8376e-05
0.000108302
0.00354957
-2.06298e-05
0.000168848
0.00261118
-2.41012e-05
0.000297952
0.00558496
0.000120505
0.000252366
0.00354754
5.86985e-05
0.000307755
0.00377511
5.7544e-05
0.00012289
0.00344666
-2.15471e-05
0.000184582
0.00243189
-2.59183e-05
0.000175186
0.00307905
-8.02679e-06
0.000405522
0.0066145
0.000379277
0.000357016
0.00544433
9.81315e-05
0.000449572
0.00510589
0.000165448
0.000279198
0.00343702
4.99501e-05
0.000356677
0.00361481
4.68965e-05
0.000283506
0.00415794
7.08796e-05
0.000135094
0.00333118
-2.12571e-05
0.000200718
0.00223616
-2.6542e-05
0.000190444
0.00287118
-8.48936e-06
0.000225973
0.00256908
-4.44393e-06
0.000539074
0.0070187
0.000732389
0.000476286
0.00657468
0.000354019
0.000570768
0.00655094
0.000366025
0.000361183
0.00534146
0.000102669
0.000496666
0.00492715
0.000136891
0.000444033
0.00480256
0.000159285
0.000306744
0.00331462
4.33866e-05
0.000393134
0.0034341
3.82477e-05
0.000325444
0.00399771
7.21276e-05
0.000412673
0.00333663
6.2736e-05
0.000147005
0.00320282
-2.01253e-05
0.000215286
0.00202569
-2.60682e-05
0.000203352
0.00265052
-9.23369e-06
0.00023372
0.00233097
-4.10104e-06
0.000281362
0.00260451
-1.5905e-06
0.000670185
0.00694863
0.000862684
0.000636004
0.00699209
0.000718521
0.000761793
0.00662674
0.000619961
0.000493683
0.00650803
0.000369569
0.00059982
0.00644856
0.00035324
0.000513613
0.0060186
0.000397898
0.000437293
0.00520977
5.7935e-05
0.000531226
0.00478283
0.000108897
0.000482905
0.00466057
0.00012142
0.000597137
0.00404482
0.000126951
0.000313417
0.00320201
3.37619e-05
0.000428725
0.00323487
2.91819e-05
0.000360957
0.00381347
6.48841e-05
0.000434403
0.00313716
7.09097e-05
0.000492003
0.00336697
6.37502e-05
0.000157109
0.00306202
-1.90682e-05
0.000227466
0.00180342
-2.53247e-05
0.000217113
0.00241644
-9.09806e-06
0.000245993
0.00207978
-4.02976e-06
0.000288806
0.00231278
-1.17285e-06
0.000296198
0.00278649
-1.78348e-06
0.000733767
0.00688647
0.00095251
0.000855791
0.00683102
0.000849009
0.000909151
0.00632932
0.000779304
0.000721864
0.00683554
0.000709118
0.00083115
0.00653333
0.000580597
0.000735098
0.00589452
0.000543346
0.00056625
0.00641065
0.000417962
0.000646554
0.00635511
0.000347692
0.000576115
0.00590915
0.000369481
0.000800013
0.00496578
0.000354035
0.000461432
0.00504445
6.48518e-05
0.00052619
0.0046412
0.000102092
0.000506851
0.00453182
9.17551e-05
0.000620628
0.0038882
9.18239e-05
0.000686657
0.00387877
9.23868e-05
0.000345926
0.00307755
2.60276e-05
0.000453334
0.00302496
1.78018e-05
0.000385548
0.00361158
6.26338e-05
0.00045728
0.00292699
6.37729e-05
0.000509821
0.00315006
6.68108e-05
0.00054119
0.00343633
4.31833e-05
0.000166991
0.00291146
-1.90804e-05
0.000240484
0.00156869
-2.48202e-05
0.000233087
0.00216698
-8.95144e-06
0.000261207
0.00181322
-3.75093e-06
0.000296469
0.00201351
-1.23665e-06
0.00030556
0.00248162
-1.86596e-06
0.000270357
0.00258677
-1.0988e-05
0.000905934
0.00668446
0.00111861
0.000888024
0.00689303
0.000909151
0.0010465
0.00620811
0.00088259
0.000895752
0.00675878
0.000854963
0.00101719
0.00627323
0.000719063
0.00109816
0.00508922
0.000521647
0.00074498
0.00676589
0.000702384
0.000880234
0.0064861
0.000522667
0.000790171
0.00581726
0.000443808
0.00101819
0.00476993
0.000480404
0.000632142
0.00634368
0.000271766
0.000641664
0.00630078
0.000356815
0.000638251
0.00580208
0.000323357
0.00080133
0.00486094
0.000293618
0.000958087
0.00428238
0.000271269
0.000513374
0.00486766
5.28025e-05
0.000612398
0.00444941
9.75838e-05
0.000505768
0.00443625
7.74413e-05
0.000656052
0.00372147
5.97138e-05
0.000720301
0.00368943
7.06929e-05
0.000752395
0.00371453
2.60181e-05
0.000358089
0.0029442
1.06311e-05
0.000476711
0.00280598
8.78322e-06
0.000398307
0.0034062
5.79593e-05
0.000475097
0.00271533
6.04009e-05
0.000530733
0.00291585
6.37097e-05
0.000555191
0.00320784
4.5672e-05
0.000532282
0.00312701
3.21092e-05
0.000179843
0.00275079
-2.31905e-05
0.000251884
0.00132493
-2.71998e-05
0.000249441
0.00190227
-9.55296e-06
0.000277111
0.00153008
-2.91701e-06
0.000302135
0.00170942
-1.79154e-06
0.000315332
0.0021675
-2.44518e-06
0.000279866
0.00231962
-1.45836e-05
0.000254507
0.00117927
-3.30587e-05
0.000797858
0.00654163
0.00160181
0.00102905
0.00660311
0.00117063
0.00120003
0.00600379
0.00106887
0.00088884
0.00686548
0.000989294
0.00110825
0.0061641
0.000862102
0.00144816
0.00516654
0.000624214
0.00091605
0.00668394
0.000801322
0.00110589
0.00624628
0.000656253
0.00108997
0.00506299
0.000445494
0.00123858
0.00421111
0.000307332
0.00080346
0.00674232
0.000650712
0.000967138
0.00637851
0.000484505
0.000871688
0.00573248
0.000374007
0.00102781
0.00465333
0.000333935
0.00129073
0.00452914
0.000351567
0.000630799
0.00630052
0.000261131
0.000780792
0.0061605
0.000243659
0.000666474
0.00572289
0.000275296
0.000872633
0.00466278
0.000304931
0.00100389
0.00409571
0.0001967
0.00108267
0.00388382
0.000151711
0.000547377
0.00471111
5.34101e-05
0.000624487
0.00427436
8.00696e-05
0.000502033
0.00434483
8.52774e-05
0.000676298
0.00356018
3.75231e-05
0.000714832
0.00351114
5.39066e-05
0.000790319
0.00352919
2.09016e-05
0.000769879
0.00287715
2.33257e-05
0.000384815
0.00281825
-1.04584e-05
0.000492755
0.00257685
-1.10947e-06
0.000408838
0.00320307
5.25132e-05
0.000495717
0.00249091
6.37757e-05
0.000539379
0.00268929
4.97231e-05
0.000564626
0.00298638
3.58723e-05
0.000544099
0.00288336
2.50912e-05
0.000489184
0.00198949
2.22073e-05
0.000190787
0.00258083
-2.54436e-05
0.00025587
0.00107679
-3.09227e-05
0.00026499
0.00162136
-1.12809e-05
0.00029481
0.00122976
-4.04756e-06
0.000311784
0.0013969
-2.18171e-06
0.000321056
0.00184782
-3.16983e-06
0.000288985
0.0020463
-1.81172e-05
0.000257254
0.00094099
-3.35574e-05
0.000308182
0.000441951
-3.22468e-05
0.000903561
0.0063518
0.00194997
0.00122668
0.00662168
0.00145962
0.00120834
0.00602093
0.00158682
0.00107314
0.00656263
0.00115877
0.00123837
0.00594403
0.00110026
0.00161611
0.00554158
0.000980449
0.000946952
0.00682444
0.000942353
0.00123028
0.00613882
0.000890184
0.0013408
0.00519342
0.00058439
0.00134029
0.00431235
0.000335818
0.000980122
0.00664348
0.000778121
0.00119221
0.00621553
0.000607007
0.00115116
0.00502378
0.000415984
0.0012339
0.00419756
0.00025296
0.00153821
0.00418301
0.00022001
0.000801791
0.00665109
0.000592735
0.000997555
0.00641514
0.000397318
0.00083719
0.00575969
0.000286582
0.00113109
0.00448539
0.000283487
0.00134562
0.00424695
0.000274395
0.00146542
0.00394366
0.000207735
0.000749903
0.00614623
0.000266995
0.000771794
0.00607282
0.000201501
0.000639664
0.00559951
0.000229408
0.000921978
0.0044118
0.000280596
0.00101839
0.00388731
0.000209778
0.00112308
0.00358397
0.000163779
0.000995733
0.0030085
7.12871e-05
0.000580554
0.00454447
1.8177e-05
0.000642356
0.00413525
4.29219e-05
0.000487976
0.00429866
4.70981e-05
0.000697516
0.00340448
3.91848e-05
0.000732264
0.00331711
3.86608e-05
0.000800876
0.00330473
4.21179e-05
0.000730994
0.0027083
2.85472e-06
0.000684196
0.0025184
-7.94184e-05
0.000407025
0.00267506
-2.41909e-05
0.000501728
0.00233864
-1.81114e-05
0.000431588
0.00300046
3.49035e-05
0.000514402
0.0022628
6.1027e-05
0.000547075
0.00247378
4.39956e-05
0.000567127
0.0027776
1.24338e-05
0.000567592
0.00263921
1.41532e-06
0.000506654
0.00177996
-1.47775e-05
0.000571815
0.00130626
-5.25336e-06
0.000199678
0.00240055
-2.59593e-05
0.00025501
0.000829568
-3.32337e-05
0.000273303
0.00132869
-1.15539e-05
0.000309494
0.000912809
-3.82253e-06
0.000326163
0.00107059
-3.89838e-06
0.000326225
0.00152324
-3.82101e-06
0.000294267
0.00176912
-2.02502e-05
0.000252695
0.000703086
-3.29088e-05
0.000301635
0.000137838
-3.10792e-05
0.000262745
-0.00025172
-1.96398e-05
0.0011218
0.0059428
0.00196002
0.0013705
0.00626649
0.00192923
0.00134765
0.00592446
0.0018697
0.00132525
0.00638838
0.00159131
0.00136579
0.00596386
0.00138928
0.00176875
0.00569909
0.00149258
0.00112948
0.00638364
0.00112298
0.00147152
0.005832
0.00102957
0.00155453
0.0055057
0.00092242
0.00152924
0.00496179
0.000679598
0.00103065
0.00681599
0.000882876
0.0013557
0.00610565
0.000812029
0.00144854
0.0051912
0.000595035
0.00140901
0.00440366
0.000317962
0.00156579
0.00408533
0.000143945
0.000945653
0.00657731
0.000814059
0.00126191
0.00614011
0.000589184
0.00111967
0.00493881
0.000409496
0.00124945
0.00431979
0.000175386
0.00163291
0.004001
0.000147682
0.00168727
0.00367585
0.000187388
0.000949072
0.00659532
0.00062006
0.000980233
0.00638269
0.000416746
0.00113299
0.00543634
0.00022734
0.00119137
0.00428962
0.000212958
0.00144395
0.00389253
0.000212342
0.00147589
0.00362646
0.000238776
0.00117664
0.00334464
0.000192561
0.000746524
0.00605059
0.000241605
0.000784668
0.00594043
0.00025707
0.000727275
0.00543777
0.000123949
0.000973785
0.00410204
0.000262897
0.00103916
0.00361245
0.000248555
0.00115325
0.00335664
8.4742e-05
0.000962873
0.00285085
8.95585e-05
0.000972983
0.00271842
-0.000106307
0.000622446
0.00433884
1.59097e-05
0.000670342
0.00396291
2.19038e-05
0.000503689
0.00416769
0.000101797
0.00072488
0.00322134
1.9754e-05
0.000739897
0.00313629
2.71888e-05
0.000799278
0.00310743
3.80852e-06
0.000746728
0.00256986
1.42433e-06
0.000706814
0.00240664
-8.55434e-05
0.00072759
0.00168159
-0.000145351
0.000423662
0.00254528
-5.7781e-05
0.000504866
0.00210146
-3.68671e-05
0.000459822
0.00278249
1.33427e-05
0.000528499
0.00205147
2.72321e-05
0.000561303
0.00226592
3.37412e-05
0.00057298
0.00257431
5.27619e-07
0.000582092
0.00239239
-2.85747e-05
0.000513866
0.00155183
-3.16233e-05
0.000593147
0.00103147
-3.15024e-05
0.000568843
0.000959282
-2.92343e-05
0.00021103
0.0022043
-2.49323e-05
0.000242009
0.000593524
-3.19246e-05
0.000275657
0.00103181
-1.20122e-05
0.000314042
0.000590897
-3.68371e-06
0.000340462
0.000730963
-4.65926e-06
0.000328337
0.00119581
-4.80887e-06
0.000294551
0.00148923
-1.8484e-05
0.000242652
0.00047093
-3.07459e-05
0.000295905
-0.000164569
-2.64069e-05
0.0002677
-0.000528614
-2.18857e-05
0.000237706
-0.000466557
-2.30343e-05
0.0010134
0.00578097
0.00233909
0.00123343
0.00607039
0.00216091
0.0012363
0.00571722
0.0019888
0.00124735
0.00629446
0.0018836
0.00155143
0.00577892
0.00188913
0.00193816
0.00559776
0.00172493
0.00142325
0.00621576
0.00142692
0.00151787
0.00589806
0.00161076
0.00179549
0.00551867
0.00132873
0.00175643
0.00542444
0.00111341
0.00123464
0.00639656
0.00113659
0.00159173
0.00576691
0.000952036
0.00167768
0.005442
0.000864124
0.0015715
0.0050616
0.000660126
0.00178465
0.00452244
0.000206794
0.00112727
0.00673404
0.000841079
0.00151773
0.00588229
0.000850418
0.00148496
0.00499595
0.000641988
0.00140314
0.00455993
0.00028508
0.00176219
0.00416008
0.000113921
0.00179246
0.0035588
0.000128027
0.00108053
0.00655309
0.000733126
0.00133055
0.00598028
0.000623564
0.00160643
0.00474039
0.000314171
0.00137856
0.00439956
0.000142545
0.00160158
0.00389309
0.00012566
0.00166844
0.00353877
9.22198e-05
0.00137406
0.00338087
0.000247989
0.000948728
0.00650279
0.000585369
0.00107228
0.00633809
0.000377053
0.000966229
0.00539816
0.000215969
0.00129198
0.00404091
0.000157865
0.00146806
0.00351415
0.00016244
0.00145884
0.00335865
0.000174559
0.00116533
0.00316433
0.000216624
0.00128137
0.00284237
5.63701e-05
0.000839781
0.00592179
0.000111367
0.000778085
0.00584753
0.000226762
0.000719983
0.0052182
0.000260348
0.00103272
0.00380965
0.000108502
0.00109909
0.00327968
0.00023647
0.00116844
0.00313543
0.000100595
0.000967853
0.00269002
2.44415e-05
0.0010194
0.0026376
-0.000142208
0.000994233
0.00185316
-0.000254086
0.000621522
0.00422146
-4.27275e-05
0.000696811
0.00376335
2.35249e-05
0.000545793
0.0040613
4.23156e-05
0.000692103
0.00306376
9.57707e-05
0.000768146
0.00291309
3.6107e-05
0.00080173
0.00293101
-2.51394e-05
0.000764644
0.00245565
-6.45268e-05
0.000741615
0.00225265
-7.23301e-05
0.000758894
0.00154899
-0.000118692
0.000755766
0.000928138
-0.000129743
0.000433646
0.00240764
-7.76361e-05
0.000484282
0.00187037
-6.89667e-05
0.000469229
0.00256457
-1.25174e-05
0.000540741
0.00184363
-5.51614e-06
0.000589447
0.00203713
7.03801e-06
0.000588673
0.00235585
-8.13868e-06
0.000587939
0.00214255
-4.30239e-05
0.000520932
0.00128504
-4.00642e-05
0.000611785
0.000714808
-3.0842e-05
0.000592855
0.000634278
-3.16535e-05
0.000459688
0.000700836
-7.09957e-05
0.000221004
0.00199206
-2.32649e-05
0.000230527
0.000366239
-2.81745e-05
0.000274552
0.000737026
-1.16924e-05
0.000314559
0.00026885
-4.52428e-06
0.000350709
0.000382417
-5.84612e-06
0.000328364
0.000868848
-6.06277e-06
0.000289386
0.00120937
-1.43342e-05
0.000236431
0.000241174
-2.51589e-05
0.000292584
-0.000466735
-2.11638e-05
0.000274997
-0.000807586
-2.24322e-05
0.000234946
-0.000699604
-2.37848e-05
0.000188927
-0.00105436
-2.10811e-05
0.000949139
0.00478972
0.00308864
0.00101717
0.00536418
0.00255638
0.00113347
0.0058987
0.00231231
0.00125059
0.0056316
0.00219849
0.00105664
0.00624632
0.00205129
0.00152166
0.00574377
0.00216413
0.00178079
0.00558131
0.00201141
0.0014448
0.00624449
0.0018695
0.00144866
0.00585915
0.00187258
0.00175271
0.00571751
0.00181216
0.00211491
0.00504935
0.0016378
0.00148914
0.00612144
0.00142704
0.00156994
0.00593753
0.00140924
0.00179372
0.00557429
0.0014391
0.00198127
0.00517431
0.00116909
0.00213682
0.00486388
0.00078993
0.00142312
0.0061663
0.00105184
0.00167141
0.00575852
0.000991294
0.00170113
0.00535594
0.000821931
0.0016446
0.00513839
0.00054587
0.00182786
0.00477783
0.00033907
0.00193008
0.00386443
7.52741e-05
0.00123109
0.00663587
0.0008643
0.0016156
0.00571311
0.000725206
0.00168347
0.00511841
0.00065093
0.00168416
0.00461583
0.000280484
0.00159747
0.00427225
0.000177026
0.00172303
0.00359374
2.43827e-05
0.0015326
0.0033363
-9.0161e-05
0.00119592
0.00647142
0.000692613
0.00147241
0.00585001
0.000463272
0.00124416
0.00476825
0.000317764
0.00147129
0.00450898
2.54323e-05
0.00169515
0.00369427
0.000114279
0.00143835
0.00352942
0.000155509
0.00123817
0.00332348
7.67741e-05
0.00136625
0.00315356
0.000130096
0.00111153
0.00637765
0.000497225
0.00110878
0.00617866
0.000414096
0.00135843
0.0049301
0.000206666
0.00136247
0.00386454
6.25883e-05
0.0014435
0.00322192
0.000105693
0.00134739
0.00325683
8.53226e-05
0.00114795
0.00308525
7.35445e-05
0.00135246
0.00284447
-0.000118528
0.00133489
0.00223486
-0.000254999
0.000846923
0.00577186
0.000148244
0.000819643
0.00570607
0.000129998
0.00080508
0.00494833
0.000237336
0.00102112
0.00358135
0.00015963
0.00109074
0.00292395
0.000141641
0.00113681
0.0029857
5.11246e-05
0.00101345
0.00258448
-4.26707e-05
0.0010672
0.00251069
-0.000174233
0.000967727
0.00178794
-0.000285821
0.000871055
0.00150566
-0.000368118
0.000637071
0.0041279
-7.34074e-05
0.000649771
0.00356774
-1.26074e-05
0.000578757
0.00392718
4.81211e-05
0.000705084
0.00290347
3.82651e-05
0.000804995
0.00276485
2.84616e-05
0.000834254
0.00276548
-4.39429e-05
0.000780029
0.0023512
-0.000112781
0.000756775
0.00201405
-6.17736e-05
0.000786354
0.00139076
-8.86672e-05
0.000764272
0.000769169
-0.000131139
0.000568917
0.00137498
-0.000213643
0.000442255
0.00228281
-0.00011472
0.000462581
0.00165036
-8.96802e-05
0.000465539
0.00235526
-5.06419e-05
0.000557263
0.00160875
-2.03378e-05
0.000613396
0.00178421
-1.52798e-05
0.000605563
0.00211267
-2.69747e-05
0.000583633
0.00188742
-4.72561e-05
0.000527421
0.000989487
-3.84642e-05
0.000622627
0.000369694
-2.49927e-05
0.000608999
0.000308452
-3.90178e-05
0.000445224
0.000538469
-7.95651e-05
0.000348248
0.000328007
-9.26053e-05
0.000232482
0.00176201
-2.19573e-05
0.000219092
0.000147722
-2.38406e-05
0.000264076
0.000457084
-1.23092e-05
0.000312478
-4.83564e-05
-6.96391e-06
0.000351541
3.49676e-05
-8.61602e-06
0.000325556
0.000545834
-8.38819e-06
0.000280456
0.000932537
-9.68638e-06
0.000240287
3.46969e-06
-1.69167e-05
0.000290996
-0.000766544
-1.63466e-05
0.00027597
-0.00108293
-2.17934e-05
0.000227916
-0.000924774
-2.51781e-05
0.000188774
-0.00124592
-2.1e-05
0.000160963
-0.00141306
-1.38873e-05
0.00108769
0.00460688
0.00318121
0.000899113
0.00489166
0.00305947
0.00109593
0.00500753
0.00302707
0.00113972
0.00531028
0.00263277
0.00161797
0.005259
0.00257488
0.0011484
0.00582113
0.00223126
0.00139154
0.00576869
0.00230535
0.00171344
0.0056693
0.00218153
0.00140497
0.00627099
0.00206695
0.00124541
0.00590727
0.00209104
0.00183381
0.00569338
0.00197096
0.00225058
0.00525716
0.00192792
0.00161976
0.0060972
0.00179235
0.00151884
0.00593652
0.00184323
0.00187519
0.00582705
0.00168158
0.00237705
0.00485043
0.0016153
0.00240818
0.00469615
0.00150728
0.00154959
0.00609999
0.0014021
0.00170081
0.00590874
0.00142644
0.00170097
0.00561364
0.00137004
0.00191219
0.00512998
0.00121584
0.00218472
0.00481163
0.000864468
0.00214537
0.00383578
0.000678492
0.00152349
0.0060832
0.00104408
0.00175028
0.00568216
0.000993516
0.00172882
0.0054029
0.000898988
0.0018
0.00525948
0.000585002
0.00172451
0.00484992
0.000346749
0.0017909
0.00379913
0.000336492
0.0017136
0.0030767
8.27984e-05
0.00143654
0.00646849
0.000764507
0.00174111
0.00555245
0.000756263
0.00163156
0.00497993
0.00047629
0.00157481
0.00497314
0.000190098
0.00177274
0.00432608
0.000149072
0.00144408
0.0035586
0.000206438
0.00134727
0.003151
0.000100588
0.00125881
0.00313129
-0.000113309
0.00137641
0.00635942
0.000595959
0.00159394
0.00571454
0.000342919
0.00171325
0.00486444
1.22712e-05
0.00148697
0.00454586
0.000156382
0.00150805
0.003684
-2.88503e-05
0.00138323
0.00338111
0.00022674
0.00144976
0.00315484
2.2337e-05
0.00157948
0.0028962
0.000107108
0.00149929
0.00289039
-0.000186255
0.00117004
0.00615487
0.000391913
0.00117827
0.0060606
0.00025666
0.0012589
0.00475353
0.00013685
0.001404
0.00359626
9.20728e-05
0.00130357
0.00300946
6.2226e-05
0.00128195
0.0031603
5.70749e-05
0.00122761
0.00300315
-4.67261e-05
0.00137748
0.00281963
-0.0002119
0.00124815
0.00228924
-0.000453329
0.000947284
0.00199168
-0.000555942
0.000880192
0.00554561
0.000214592
0.000799519
0.00565381
5.07593e-05
0.000880923
0.00459472
0.00018145
0.00104763
0.00334304
0.000133096
0.00105106
0.00276597
7.15401e-05
0.00113385
0.00284647
-1.87277e-05
0.00105534
0.00249717
-0.000136883
0.00105584
0.00240966
-0.00024071
0.000964091
0.00174348
-0.00030751
0.000813299
0.00155538
-0.000384572
0.000590919
0.00156075
-0.000533705
0.000666165
0.0039705
-8.55892e-05
0.000573025
0.00344771
-6.38148e-05
0.00060781
0.00363567
0.000136634
0.00071759
0.00276991
2.1357e-05
0.000903962
0.00252026
-7.71617e-06
0.000859836
0.00261221
-7.2537e-05
0.000788959
0.00224172
-0.000139787
0.000751051
0.00176108
-8.34421e-05
0.000807
0.0011922
-4.75835e-05
0.000757228
0.000668944
-0.000136671
0.00058403
0.0013234
-0.000218367
0.000445483
0.00128462
-0.000298943
0.000463422
0.00213452
-0.000131594
0.000437126
0.0014551
-0.000137489
0.000460223
0.00212988
-6.04494e-05
0.000567009
0.00134196
-3.83903e-05
0.00062915
0.00151608
-2.98203e-05
0.000613197
0.00185451
-4.47642e-05
0.000572867
0.00162905
-6.10124e-05
0.000546885
0.000680187
-4.45538e-05
0.000611067
3.25679e-05
-2.14088e-05
0.000606299
5.52309e-06
-5.23916e-05
0.000428942
0.000395131
-9.6706e-05
0.000355858
0.00017441
-9.30517e-05
0.000301305
0.00028471
-9.67238e-05
0.000235758
0.00152276
-2.16817e-05
0.000209179
-6.37101e-05
-1.97038e-05
0.000250117
0.000196436
-1.33091e-05
0.000304296
-0.000355389
-9.57306e-06
0.000341548
-0.000300886
-1.26578e-05
0.000322207
0.000227456
-1.24441e-05
0.000275827
0.000654355
-6.03392e-06
0.000246662
-0.000242704
-1.01753e-05
0.000290549
-0.00106114
-1.2873e-05
0.000273455
-0.00135151
-2.12185e-05
0.000221096
-0.00114148
-2.6181e-05
0.000185623
-0.00143574
-2.09854e-05
0.00015845
-0.00157876
-1.37533e-05
0.000163886
-0.00174659
-1.31495e-05
0.00115568
0.00454475
0.00386859
0.000899578
0.00460701
0.00359853
0.00070475
0.00476916
0.0032089
0.00116162
0.00499723
0.00312962
0.000936697
0.00516457
0.0029752
0.00157184
0.00512727
0.00298585
0.00148687
0.00489422
0.00310355
0.00106845
0.00521403
0.00281056
0.00112573
0.00555289
0.00260469
0.00161303
0.00519735
0.00265248
0.00146376
0.00583462
0.00228485
0.00106192
0.00585883
0.00232462
0.00196778
0.0056554
0.00218528
0.00204441
0.00531651
0.0023945
0.00176593
0.00599121
0.00220955
0.00159952
0.00578515
0.00210838
0.00194682
0.00568386
0.00202893
0.00242404
0.00527312
0.001908
0.00257276
0.0045153
0.00194382
0.0015847
0.00607589
0.00177251
0.00186443
0.00591722
0.00164803
0.00195116
0.0057136
0.0017065
0.00190346
0.00497159
0.00156915
0.00240508
0.00473466
0.00135644
0.00224948
0.00423009
0.00134517
0.00159622
0.00612585
0.00141259
0.00181068
0.00592576
0.00132469
0.00182513
0.0055945
0.00134926
0.00203691
0.00521325
0.00104986
0.00211953
0.00479079
0.00084166
0.00210242
0.00382333
0.000565398
0.00190565
0.00301832
0.000466849
0.00166546
0.00607791
0.00119048
0.0018232
0.00561034
0.00103381
0.00177009
0.00534927
0.000908608
0.00171671
0.00537732
0.000639237
0.0019448
0.00476185
0.000501011
0.00172327
0.0035613
0.00030539
0.00150824
0.00295308
0.000299152
0.00122579
0.00299104
4.35306e-05
0.00162502
0.00625677
0.000792182
0.00175371
0.00544692
0.000710257
0.00162394
0.00529574
0.000529764
0.00154256
0.00503775
0.0003561
0.00150669
0.00451443
3.11427e-06
0.00142818
0.00351319
0.000149543
0.00156293
0.00323443
9.83007e-06
0.00147766
0.0031968
0.000136907
0.00161783
0.00280005
-0.000120001
0.00143721
0.00625335
0.000540696
0.00165907
0.0054942
0.000335497
0.00144852
0.0050297
-1.19617e-05
0.00156921
0.00462887
-0.000235952
0.00141595
0.00378844
-6.04448e-05
0.00123289
0.00346607
-6.47473e-05
0.00139053
0.003138
8.06505e-05
0.00150482
0.00284063
-4.94306e-05
0.00147697
0.00289642
-0.000127752
0.00121071
0.00208579
-0.000533585
0.00121658
0.00597153
0.000245358
0.00122482
0.00576677
0.000260446
0.00126756
0.00472861
-0.000105059
0.00139416
0.00341919
-3.26195e-05
0.00100627
0.00312163
2.4689e-05
0.00111445
0.00324057
1.36471e-06
0.0012686
0.00292486
-7.78909e-05
0.00139884
0.0027599
-0.00032998
0.00122606
0.00229075
-0.000475372
0.000873122
0.00210947
-0.000630945
0.0005722
0.00141339
-0.000746929
0.000877772
0.00534218
0.000174412
0.000790847
0.00556279
8.77829e-05
0.000986174
0.00419305
7.40645e-05
0.000980737
0.00321864
4.27118e-05
0.0009873
0.00277969
3.60417e-05
0.00108373
0.00282372
-0.000129605
0.00106349
0.00241964
-0.000215726
0.00106369
0.00228205
-0.000321908
0.000921227
0.00172622
-0.000337678
0.000763795
0.00164801
-0.000406708
0.000589833
0.00167906
-0.000508679
0.0003908
0.00107206
-0.000613447
0.000665064
0.00380858
-7.14614e-05
0.000514817
0.00333651
-5.20889e-05
0.000654788
0.00340127
-2.39858e-05
0.000755406
0.002638
8.01438e-05
0.00092621
0.00227665
-3.20924e-05
0.000875484
0.002463
-0.000120798
0.000799931
0.00208949
-0.000147371
0.000780427
0.00150488
-0.000117133
0.000789465
0.000978295
-4.79398e-05
0.000719914
0.000653041
-0.000145296
0.000572786
0.0012611
-0.000218217
0.000473476
0.0012381
-0.000289467
0.000184713
0.000862572
-0.000284233
0.000459106
0.00196944
-0.00014884
0.000405207
0.0012825
-0.000155019
0.000448049
0.00187117
-7.67124e-05
0.000574528
0.00105405
-4.27726e-05
0.00062531
0.00123579
-4.18563e-05
0.000620084
0.00159235
-6.55322e-05
0.000572023
0.00136207
-7.39773e-05
0.000558735
0.000363511
-5.64098e-05
0.000587857
-0.000271688
-3.76066e-05
0.00058786
-0.000266774
-6.35165e-05
0.000416738
0.000260172
-0.000113075
0.000360392
-1.09967e-06
-9.59658e-05
0.000310297
0.00013295
-9.31392e-05
0.000279039
0.000160813
-9.99406e-05
0.000246616
0.00126614
-2.24772e-05
0.00020022
-0.000269693
-1.5919e-05
0.000236157
-4.48571e-05
-1.45675e-05
0.00029784
-0.00065548
-1.10578e-05
0.000328692
-0.000622632
-1.6519e-05
0.000320064
-8.89093e-05
-1.63567e-05
0.000277174
0.00036902
-4.28273e-06
0.00025288
-0.000496978
-4.63941e-06
0.00028846
-0.00134816
-1.16137e-05
0.000267545
-0.00161017
-2.17596e-05
0.000218522
-0.00135413
-2.70958e-05
0.000180947
-0.00162123
-2.16418e-05
0.000155123
-0.00174085
-1.40241e-05
0.000160822
-0.00190773
-1.34406e-05
0.00014305
-0.00085343
-1.59697e-05
0.00088841
0.00453276
0.00395743
0.000904894
0.00465605
0.00391504
0.00112534
0.00451152
0.00382534
0.000363894
0.00488993
0.00356762
0.00115694
0.00449876
0.00361859
0.000705059
0.00503649
0.00327061
0.00141113
0.0050387
0.00332814
0.00151822
0.00474156
0.00328309
0.0009884
0.00519137
0.0030351
0.0011896
0.0050995
0.0029391
0.00140589
0.00499946
0.00308775
0.00169309
0.00501647
0.00313842
0.00129831
0.00542639
0.00263202
0.00162867
0.00528648
0.00251022
0.00173568
0.00542631
0.00260783
0.00190976
0.0052288
0.00264332
0.00177388
0.00577922
0.00225517
0.00152729
0.00592927
0.00228665
0.00211582
0.00559745
0.00221357
0.00230908
0.00539004
0.00222672
0.00235565
0.00504823
0.0025058
0.00122944
0.00625305
0.00216502
0.00197526
0.00567135
0.00221252
0.00198232
0.00577614
0.00198495
0.00212215
0.00506368
0.00201968
0.0024074
0.00445705
0.00196392
0.0025861
0.00445987
0.00180909
0.00149506
0.00617007
0.00186069
0.00186244
0.00586984
0.00176812
0.00213591
0.00549038
0.00156047
0.00231815
0.00485759
0.00153925
0.00239018
0.00452678
0.00150638
0.0026016
0.00386943
0.00121791
0.00226185
0.00322854
0.000889749
0.00185777
0.0061459
0.00126384
0.0018157
0.00601119
0.00133465
0.00184893
0.0056282
0.00121214
0.00197031
0.00533489
0.000974022
0.00225354
0.0047369
0.000794997
0.0020085
0.0038435
0.000536248
0.00162797
0.00315723
0.000306747
0.00155125
0.00263169
0.000197132
0.00169953
0.00610351
0.000978649
0.00182677
0.0056758
0.00105196
0.00166293
0.00536568
0.000978417
0.00167194
0.00537861
0.000777933
0.00174274
0.00473993
0.000425106
0.00148206
0.00357868
0.000429752
0.00148026
0.00322146
0.000119674
0.00136682
0.0033352
6.5835e-05
0.00183687
0.00255372
-0.000194039
0.00176831
0.00600863
0.000761508
0.00178283
0.00539407
0.000721271
0.00167586
0.00529977
0.000478883
0.00166158
0.00516012
0.000315032
0.00149045
0.00458558
0.000210447
0.00121991
0.00353587
-6.5948e-06
0.00131481
0.00352489
-6.52006e-05
0.00139742
0.00331907
-5.04267e-06
0.00162068
0.00294651
-0.000153254
0.0016062
0.00196772
-0.000529979
0.00151531
0.00615682
0.000403589
0.00169193
0.0053424
0.000225388
0.00151456
0.0051722
-5.3997e-05
0.00141454
0.00440597
0.000190555
0.000764574
0.00398144
-0.00018725
0.00111918
0.00358946
-0.000188569
0.00134666
0.00315187
-0.000156676
0.00156792
0.00280949
-5.72991e-05
0.0014863
0.00281474
-0.000227994
0.001238
0.00216666
-0.000573493
0.000680935
0.00194428
-0.000705055
0.00121385
0.00587239
0.000175455
0.00130495
0.00553151
-3.34881e-05
0.00135125
0.00472793
-0.000103955
0.00120488
0.00334096
-0.000250975
0.000708565
0.00335591
1.18273e-05
0.00120524
0.00316168
-1.79261e-05
0.0013011
0.00283345
-0.000144835
0.00139041
0.00266665
-0.000311362
0.00114587
0.00227066
-0.000534532
0.000894476
0.00218501
-0.000681592
0.000686734
0.00148472
-0.000799177
0.000237938
0.00144333
-0.000722571
0.000864844
0.00519962
-5.31886e-05
0.000795892
0.005442
1.41346e-05
0.00103243
0.00390224
9.46836e-07
0.001012
0.00307229
-3.61855e-05
0.00095054
0.00284885
-5.07781e-05
0.00108263
0.00283256
-0.000179949
0.00108442
0.00231719
-0.000311642
0.0010758
0.0021086
-0.00033765
0.000915284
0.00163318
-0.000354687
0.000743166
0.00170421
-0.000417126
0.000593477
0.00177586
-0.000524206
0.000438118
0.00119323
-0.000594493
-8.52981e-05
0.00126459
-0.000519321
0.000656724
0.00365296
-0.000105172
0.000496292
0.00321422
-4.02537e-05
0.000703617
0.00314928
-5.56598e-05
0.000828576
0.00242275
-6.27791e-05
0.00092371
0.00211342
-5.50271e-05
0.000876372
0.00231042
-0.0001358
0.000781327
0.0019476
-0.000188216
0.000821411
0.00123504
-0.000140199
0.0007526
0.000778919
-8.24993e-05
0.000705514
0.000650933
-0.000163485
0.000594004
0.001153
-0.000214458
0.000483698
0.00117466
-0.000278083
0.000284357
0.000876776
-0.000277731
0.000259397
0.000655874
-0.000234745
0.00046701
0.00177662
-0.000147857
0.000365436
0.0011063
-0.000137859
0.000457793
0.00158252
-8.80001e-05
0.000588619
0.000729142
-4.25791e-05
0.000621161
0.000964195
-6.36477e-05
0.000622884
0.00133395
-8.62779e-05
0.000579138
0.00108117
-8.65972e-05
0.000540871
7.27112e-05
-7.11692e-05
0.000563966
-0.000542796
-6.08075e-05
0.00056252
-0.000525199
-7.41561e-05
0.00041679
0.000119578
-0.000121191
0.000362349
-0.000197011
-9.85659e-05
0.00032065
-4.31377e-05
-8.54046e-05
0.000301075
2.47381e-05
-9.73174e-05
0.000308742
-0.000438259
-8.75507e-05
0.000243178
0.00100688
-2.50834e-05
0.000194889
-0.000475958
-1.11012e-05
0.000227287
-0.000271855
-1.62082e-05
0.000297898
-0.000956395
-1.15497e-05
0.000318274
-0.000932411
-1.95531e-05
0.000317635
-0.000402992
-2.00707e-05
0.000283066
7.30431e-05
-3.44552e-06
0.000261515
-0.00076278
4.62797e-09
0.000283301
-0.00162469
-1.14124e-05
0.000259236
-0.00185908
-2.19397e-05
0.000217242
-0.00156558
-2.75451e-05
0.000175749
-0.00180221
-2.18575e-05
0.000152386
-0.00190081
-1.40583e-05
0.000156871
-0.00206441
-1.42064e-05
0.00014369
-0.000994238
-1.6322e-05
0.000150358
-0.00140097
-2.49268e-05
0.000459477
0.00428022
0.00425609
0.000759576
0.00457381
0.00383579
0.00099097
0.00449918
0.00395909
0.000504292
0.00462245
0.00384163
0.00126231
0.00455579
0.00376539
0.00142496
0.0045928
0.00381665
0.000891031
0.00474712
0.00351131
0.00105621
0.0046924
0.0037289
0.00154173
0.00467157
0.00361786
0.000953889
0.00506361
0.00321616
0.00146658
0.00472664
0.00330569
0.0013421
0.00473936
0.00339414
0.0017178
0.00509825
0.00322969
0.00133852
0.00511391
0.0031125
0.00183785
0.00496439
0.00296104
0.00138073
0.00519141
0.00310209
0.001804
0.00512948
0.0030805
0.00185139
0.00491371
0.00324538