/*--------------------------------*- C++ -*----------------------------------*\
  =========                 |
  \\      /  F ield         | OpenFOAM: The Open Source CFD Toolbox
   \\    /   O peration     | Website:  https://openfoam.org
    \\  /    A nd           | Version:  7
     \\/     M anipulation  |
\*---------------------------------------------------------------------------*/
FoamFile
{
    version     2.0;
    format      ascii;
    class       volVectorField;
    location    "4";
    object      U;
}
// * * * * * * * * * * * * * * * * * * * * * * * * * * * * * * * * * * * * * //

dimensions      [0 1 -1 0 0 0 0];

internalField   nonuniform List<vector> 
18630
(
(-1.96873 0.252291 0.0308537)
(-2.06391 0.640035 0.821254)
(-1.9948 0.250076 0.0458515)
(-1.66752 1.14892 -0.922608)
(-2.95813 0.267911 0.493221)
(-2.07686 0.595204 0.742726)
(-2.16848 0.846197 0.201202)
(-2.00012 0.25928 -0.00475281)
(-1.70226 1.1326 -1.00087)
(-1.97634 1.38265 -0.169166)
(-3.42039 0.111409 1.23897)
(-2.95455 0.200836 0.388153)
(-2.81918 0.667547 0.564018)
(-2.07689 0.575287 0.682295)
(-2.21292 0.958633 0.122107)
(-2.28425 0.511528 0.667516)
(-1.98229 0.263105 -0.0255352)
(-1.71418 1.12663 -1.00311)
(-1.97113 1.36749 -0.189722)
(-1.75801 1.66656 -0.200751)
(-3.61738 0.070328 1.96046)
(-3.45445 0.107205 1.1275)
(-3.45753 0.544745 1.17623)
(-2.90661 0.163165 0.518181)
(-2.80518 0.685727 0.46234)
(-2.66661 0.79655 0.935841)
(-2.08166 0.532183 0.664911)
(-2.2576 1.04651 0.0408357)
(-2.30003 0.583481 0.596275)
(-2.07106 1.34442 0.394879)
(-1.99338 0.258603 -0.0333215)
(-1.67744 1.15054 -0.968494)
(-1.98552 1.33736 -0.226435)
(-1.76232 1.62754 -0.194499)
(-1.91326 2.14236 -0.0331737)
(-3.59111 0.203967 1.87204)
(-3.62075 -0.0572917 1.96221)
(-3.49236 0.378511 1.63633)
(-3.43598 -0.1988 1.18243)
(-3.51901 0.443017 1.07764)
(-3.23777 0.517748 1.24155)
(-2.92308 0.160141 0.153527)
(-2.79426 0.614171 0.381792)
(-2.67677 0.759158 0.783378)
(-2.37748 1.23918 0.552141)
(-2.08826 0.507255 0.621285)
(-2.28593 1.08359 -0.03699)
(-2.3108 0.634924 0.545292)
(-2.05652 1.28791 0.485472)
(-2.14448 1.70664 0.501866)
(-2.02103 0.254977 -0.0420602)
(-1.6887 1.16596 -0.922701)
(-1.98261 1.31468 -0.24418)
(-1.7692 1.63184 -0.191239)
(-1.92205 2.09447 -0.0268765)
(-1.98408 2.19876 -0.0724156)
(-3.51484 0.110405 1.51241)
(-3.62244 0.214647 1.81267)
(-3.42004 0.69018 1.59089)
(-3.63953 -0.0831391 1.95917)
(-3.46758 0.234449 1.544)
(-3.07436 0.272528 1.44067)
(-3.38092 -0.118627 1.32048)
(-3.50595 0.350093 1.07117)
(-3.20482 0.430115 1.22242)
(-2.77735 1.04026 1.25156)
(-2.90419 -0.0787643 0.241856)
(-2.80345 0.603202 0.348352)
(-2.68534 0.726916 0.593981)
(-2.39847 1.22588 0.352957)
(-2.3476 1.52845 0.583285)
(-2.09236 0.445411 0.556475)
(-2.296 1.07286 -0.149274)
(-2.32273 0.686413 0.491654)
(-2.05951 1.27273 0.422747)
(-2.16702 1.65608 0.521753)
(-2.21892 1.86422 0.454474)
(-2.05942 0.213849 -0.0238424)
(-1.73188 1.22128 -0.865583)
(-1.9859 1.31821 -0.261529)
(-1.79589 1.68974 -0.182158)
(-1.90148 2.06516 -0.0246891)
(-2.03391 2.20696 -0.0579322)
(-1.86684 2.0545 -0.0369121)
(-3.42575 0.215303 1.70074)
(-3.57266 0.168428 1.41351)
(-3.23168 0.43223 1.70883)
(-3.60422 0.107091 1.82651)
(-3.43052 0.667426 1.58418)
(-2.69923 0.977875 1.50094)
(-3.56957 -0.260508 1.96445)
(-3.46809 0.112608 1.48347)
(-3.15195 0.245587 1.35621)
(-2.60971 1.18405 1.25871)
(-3.49445 -0.165314 1.00448)
(-3.4162 -0.0584537 1.26908)
(-3.16902 0.269371 1.16493)
(-2.79243 0.876677 1.09868)
(-2.50241 1.31657 1.02372)
(-2.85602 0.0248844 0.239019)
(-2.8184 0.549376 0.299157)
(-2.67912 0.606595 0.555356)
(-2.41314 1.17451 0.254869)
(-2.37551 1.46525 0.471398)
(-2.28468 1.68473 0.264009)
(-2.09162 0.400551 0.426925)
(-2.2918 1.02278 -0.189506)
(-2.34222 0.750808 0.419354)
(-2.0583 1.26354 0.441149)
(-2.16975 1.61179 0.49365)
(-2.24305 1.78204 0.462063)
(-2.01594 1.65965 0.21368)
(-2.0575 0.254999 -0.0682799)
(-1.78328 1.29899 -0.862754)
(-2.02055 1.33843 -0.276255)
(-1.84152 1.76454 -0.148957)
(-1.90355 2.05279 -0.0251966)
(-2.03337 2.22039 -0.055111)
(-1.88054 2.00402 -0.0449352)
(-1.10538 1.93696 -0.443419)
(-3.308 0.228068 2.09766)
(-3.42115 0.076969 1.73208)
(-3.21245 0.703138 1.57026)
(-3.59877 -0.0422404 1.50116)
(-3.27416 0.330421 1.64833)
(-2.76178 0.984875 1.27209)
(-3.6301 -0.0713131 1.69834)
(-3.44908 0.519454 1.55682)
(-2.92441 0.695515 1.26808)
(-2.3911 1.20763 0.625923)
(-3.53504 -0.365351 1.85758)
(-3.49861 0.0820078 1.4436)
(-3.12539 0.308567 1.13572)
(-2.75923 0.978255 0.839439)
(-2.64674 1.55116 1.10749)
(-3.48815 -0.345869 0.936138)
(-3.50043 0.0960146 0.70052)
(-3.14206 0.0538855 1.06056)
(-2.78373 0.84799 0.857185)
(-2.49572 1.3184 0.787258)
(-2.36874 1.55335 0.746932)
(-2.80161 -0.097693 0.467462)
(-2.82578 0.549963 0.17348)
(-2.63978 0.376307 0.57957)
(-2.43363 1.09 0.137442)
(-2.39016 1.45185 0.269743)
(-2.34293 1.63208 0.175605)
(-1.92718 1.90548 -0.0291105)
(-2.08707 0.339131 0.290193)
(-2.25146 0.934483 -0.265443)
(-2.36798 0.784224 0.317969)
(-2.08026 1.24591 0.446674)
(-2.1668 1.52446 0.424547)
(-2.23188 1.73113 0.458482)
(-2.02999 1.68673 0.240937)
(-1.45355 1.77762 0.253237)
(-2.04991 0.270095 -0.0949552)
(-1.80883 1.33513 -0.977088)
(-2.03973 1.40467 -0.356732)
(-1.89732 1.84339 -0.146061)
(-1.9206 2.04681 -0.0196758)
(-2.0424 2.19054 -0.0763276)
(-1.85715 1.94478 -0.0644264)
(-1.10168 1.8936 -0.619487)
(-0.850013 2.43166 -1.03082)
(-3.147 -0.105981 2.23457)
(-3.41955 0.177336 2.0572)
(-3.1051 0.502441 2.06905)
(-3.41979 -0.120514 1.72102)
(-3.17962 0.547361 1.64606)
(-2.8892 1.25332 1.48153)
(-3.57972 -0.270967 1.57954)
(-3.27679 0.311018 1.77498)
(-2.90989 0.826554 1.24182)
(-2.45394 1.15754 0.82081)
(-3.56161 -0.180105 1.75934)
(-3.49001 0.411862 1.43843)
(-2.8534 0.624873 1.11665)
(-2.39684 1.07585 0.559366)
(-2.46529 1.72916 0.620625)
(-3.54846 -0.683429 1.61888)
(-3.55204 0.035778 1.31053)
(-3.10866 0.259419 0.979026)
(-2.72831 1.00357 0.704627)
(-2.71673 1.42499 0.822477)
(-2.42311 1.89983 0.668993)
(-3.48534 -0.352781 0.803769)
(-3.44321 -0.171059 0.635126)
(-3.12483 -0.0447984 0.934096)
(-2.77203 0.773339 0.654196)
(-2.48564 1.01728 1.09586)
(-2.34794 1.56875 0.47464)
(-1.89836 1.65339 0.224354)
(-2.82814 -0.134024 0.194577)
(-2.86114 0.533901 -0.0164738)
(-2.58202 0.170324 0.565389)
(-2.43219 1.05251 0.178234)
(-2.41301 1.37241 0.174658)
(-2.33519 1.55208 0.215461)
(-1.93676 1.72562 0.00384137)
(-1.63232 1.56425 0.214864)
(-2.08328 0.298412 0.164855)
(-2.17629 0.808499 -0.444783)
(-2.38268 0.767776 0.25796)
(-2.10924 1.27364 0.46559)
(-2.17114 1.51833 0.457764)
(-2.2669 1.66727 0.322056)
(-2.06057 1.73798 0.121236)
(-1.46805 1.75983 0.13441)
(-1.2165 2.26991 0.0974565)
(-2.08293 0.262807 -0.120459)
(-1.79097 1.30545 -1.04159)
(-2.05357 1.39888 -0.390835)
(-1.92447 1.89304 -0.133662)
(-1.9298 2.0618 -0.0656898)
(-2.03236 2.13682 -0.0972175)
(-1.83871 1.86308 -0.0706232)
(-1.09043 1.80991 -0.762525)
(-0.808326 2.30814 -0.906868)
(-0.38737 2.01244 -0.443014)
(-3.08219 0.310626 2.03079)
(-3.25862 0.266613 2.18527)
(-2.99573 0.38968 2.21752)
(-3.45962 0.0407698 1.87527)
(-3.25805 0.335149 1.72244)
(-3.00466 0.890488 1.93175)
(-3.36373 -0.21232 1.71209)
(-3.23121 0.478824 1.6035)
(-3.09354 0.704813 1.48795)
(-2.59407 1.03115 1.41953)
(-3.56506 -0.386181 1.53146)
(-3.42205 0.18474 1.51923)
(-2.94661 0.673242 1.24876)
(-2.52099 1.0484 0.746088)
(-2.46237 1.39646 0.316413)
(-3.58545 -0.398526 1.64188)
(-3.53516 0.103744 1.30936)
(-2.91454 0.245098 1.0576)
(-2.54065 1.00709 0.516573)
(-2.5503 1.69494 0.452903)
(-2.34124 2.01829 0.313887)
(-3.50785 -0.551341 1.64182)
(-3.58883 -0.153903 1.219)
(-3.16313 -0.176089 0.653092)
(-2.76708 0.964056 0.424508)
(-2.60327 1.54142 0.697245)
(-2.47022 1.78939 0.56919)
(-2.11177 1.60433 0.352158)
(-3.42452 -0.518482 0.854271)
(-3.33236 -0.384129 0.799928)
(-3.07504 -0.244983 0.668886)
(-2.743 0.670923 0.499877)
(-2.4246 0.965174 1.14449)
(-2.34512 1.48903 0.225555)
(-1.88223 1.42546 0.586707)
(-1.72165 1.56215 0.203041)
(-2.81091 -0.17494 0.213536)
(-2.90519 0.496119 -0.0647546)
(-2.59632 0.0870341 0.418462)
(-2.46183 0.918857 -0.146662)
(-2.40035 1.22241 0.147678)
(-2.31599 1.41729 0.171707)
(-1.93303 1.64576 0.174016)
(-1.68914 1.55465 0.013207)
(-1.31245 1.87648 -0.92332)
(-2.05076 0.213757 -0.146573)
(-2.10777 0.733721 -0.531861)
(-2.3784 0.737511 0.203116)
(-2.15992 1.35157 0.287468)
(-2.25201 1.5545 0.412003)
(-2.2914 1.62223 0.196335)
(-2.09695 1.75575 -0.102353)
(-1.46664 1.69367 -0.070359)
(-1.23835 2.24263 -0.353268)
(-1.02572 2.13363 -0.147366)
(-2.10771 0.275647 -0.200219)
(-1.69377 1.17727 -1.02772)
(-2.00128 1.37327 -0.427876)
(-1.91028 1.8581 -0.112841)
(-1.94502 2.09024 -0.0657533)
(-1.99914 2.06802 -0.123627)
(-1.8061 1.77152 -0.0762703)
(-1.04881 1.68849 -0.845106)
(-0.777634 2.22737 -0.72353)
(-0.391615 2.01248 -0.519958)
(-0.244474 1.8483 -0.456755)
(-2.88857 0.105894 2.13001)
(-3.03976 0.322015 2.20403)
(-2.94682 0.632736 1.99546)
(-3.34524 0.166951 2.03905)
(-3.0865 0.397356 2.20978)
(-2.95604 1.07475 1.98692)
(-3.3113 -0.0512171 1.86712)
(-3.03285 0.514523 2.12131)
(-3.12395 0.922161 1.75341)
(-2.83833 0.935932 1.88892)
(-3.3589 -0.325601 1.71177)
(-3.30414 0.462079 1.48999)
(-3.11112 0.777274 1.38804)
(-2.79634 0.85562 1.24805)
(-2.48104 1.32697 0.526991)
(-3.5225 -0.706805 1.39061)
(-3.43189 0.252009 1.39569)
(-2.97369 0.526659 1.24789)
(-2.58516 0.846568 0.740594)
(-2.43312 1.53399 0.301753)
(-2.21083 1.68779 0.208284)
(-3.59719 -0.454789 1.55623)
(-3.3911 -0.137575 1.58634)
(-2.87634 1.25862 0.985409)
(-2.73984 0.894254 0.521504)
(-2.64675 1.64074 0.184765)
(-2.31393 1.89831 0.183793)
(-2.06409 1.48356 0.474213)
(-3.50083 -0.855797 1.48354)
(-3.57008 -0.305526 1.31137)
(-3.09509 0.147725 0.844748)
(-2.76954 0.978001 0.441909)
(-2.62179 1.42071 0.6249)
(-2.41813 1.77266 0.396804)
(-2.02749 1.48788 0.60254)
(-1.83675 1.70143 0.593946)
(-3.42395 -0.613163 0.522726)
(-3.2876 -0.553941 0.636994)
(-2.92757 -0.385825 0.848155)
(-2.66519 0.755613 0.0486647)
(-2.36968 0.952292 1.19985)
(-2.29434 1.42042 0.398054)
(-1.93563 1.36669 0.328605)
(-1.79846 1.4967 -0.0334915)
(-1.28198 1.64876 -0.86956)
(-2.80197 -0.169303 0.160553)
(-2.87921 0.379787 -0.0843708)
(-2.63164 0.104766 0.266928)
(-2.36358 0.787627 0.437268)
(-2.34873 1.06778 0.296718)
(-2.30383 1.27811 0.0825491)
(-2.00826 1.53364 -0.128906)
(-1.77904 1.50644 -0.142892)
(-1.36906 1.96351 -0.763007)
(-0.970646 2.11358 -0.410234)
(-2.03755 0.178921 -0.301425)
(-2.02257 0.634391 -0.69058)
(-2.37624 0.690893 0.018829)
(-2.22706 1.3326 0.0246998)
(-2.34949 1.59208 0.12955)
(-2.3161 1.56928 0.101453)
(-2.10783 1.71615 -0.17819)
(-1.44939 1.59465 -0.306031)
(-1.2434 2.1917 -0.404298)
(-1.03346 2.18962 -0.11048)
(-0.810099 1.88158 -0.303322)
(-2.12798 0.288848 -0.323581)
(-1.56166 1.05148 -0.890284)
(-1.92059 1.28256 -0.385319)
(-1.86352 1.81882 -0.0973936)
(-1.96935 2.10946 -0.0776724)
(-1.95641 1.99385 -0.15788)
(-1.75608 1.67533 -0.0900847)
(-1.00144 1.58633 -0.758916)
(-0.7597 2.19625 -0.528749)
(-0.393744 2.06073 -0.483376)
(-0.245078 1.8352 -0.484669)
(0.103292 1.61368 -0.594076)
(-2.33407 0.211923 2.41786)
(-2.69264 0.132657 2.18178)
(-2.91607 -0.0951883 2.11094)
(-2.88646 -0.0614673 2.16513)
(-3.18295 -0.269936 2.01729)
(-2.97358 0.594937 2.2167)
(-2.86628 0.916814 2.05238)
(-3.31895 0.0481316 1.95473)
(-3.11486 0.281063 2.2302)
(-3.06427 0.709053 2.05622)
(-2.84033 1.13381 1.94825)
(-3.28923 -0.139101 1.89672)
(-3.35314 0.211119 1.68482)
(-3.07739 0.720949 1.92834)
(-3.00934 0.840451 1.65585)
(-2.75863 1.29284 1.00757)
(-3.41595 -0.272183 1.60945)
(-3.30871 0.366437 1.51427)
(-3.13627 0.68202 1.28643)
(-2.93045 0.652873 1.15815)
(-2.63108 1.28035 0.622514)
(-2.27565 1.6028 0.0645194)
(-3.46747 -0.72119 1.42714)
(-3.45118 0.301168 1.38074)
(-2.98121 0.786407 1.47357)
(-2.72687 0.878793 0.834035)
(-2.64809 1.1258 0.18008)
(-2.17106 1.58275 0.0966769)
(-1.94963 1.42771 0.230782)
(-3.57614 -0.659892 1.45023)
(-3.43802 -0.100192 1.35143)
(-3.20386 -0.244609 0.858086)
(-2.87619 0.889582 0.257705)
(-2.6413 1.57628 0.0608695)
(-2.36197 1.58615 0.339297)
(-2.04697 1.34512 0.209236)
(-1.91403 1.74289 0.535858)
(-3.5332 -0.790148 1.43341)
(-3.50467 -0.586861 1.30751)
(-3.08445 -0.131553 0.527311)
(-2.76971 0.87436 0.161057)
(-2.53885 1.50475 0.341434)
(-2.41674 1.6713 0.222599)
(-2.10834 1.32654 0.46907)
(-1.90193 1.74136 0.481379)
(-1.52044 1.83405 -0.319134)
(-3.24158 -0.912282 0.691373)
(-3.28324 -0.598305 0.149486)
(-2.84935 -0.494065 0.855626)
(-2.55076 0.543296 0.680414)
(-2.3718 1.05128 0.671634)
(-2.36245 1.29748 0.281612)
(-1.96028 1.34168 0.252993)
(-1.83006 1.53804 -0.164667)
(-1.36562 1.56816 -0.847552)
(-1.14068 1.6675 -0.757047)
(-2.78093 -0.317769 0.00902947)
(-2.72477 0.191032 -0.541226)
(-2.61919 -0.00406537 0.29925)
(-2.37638 0.650621 0.102061)
(-2.34596 1.0175 0.377137)
(-2.32086 1.22537 -0.000195687)
(-2.03367 1.44829 -0.288624)
(-1.75175 1.54362 -0.44003)
(-1.45989 2.04569 -0.49367)
(-1.03296 2.14641 -0.326491)
(-1.02854 1.54732 -0.713064)
(-2.04698 0.100724 -0.51789)
(-1.97437 0.596423 -0.824874)
(-2.36807 0.716815 -0.26342)
(-2.25434 1.27965 -0.180533)
(-2.39247 1.59791 -0.0962243)
(-2.32834 1.51373 0.00378121)
(-2.08358 1.61221 -0.205414)
(-1.41217 1.56131 -0.456603)
(-1.17878 2.15556 -0.30329)
(-1.0298 2.24931 -0.0612471)
(-0.825308 1.80688 -0.380671)
(-0.50456 1.3854 -0.756266)
(-2.14755 0.293789 -0.491141)
(-1.44415 0.957035 -0.679663)
(-1.8069 1.19345 -0.355609)
(-1.81349 1.77673 -0.124135)
(-1.94234 2.11017 -0.125707)
(-1.90514 1.91923 -0.198263)
(-1.69594 1.58 -0.107871)
(-0.978327 1.57508 -0.556263)
(-0.759877 2.20175 -0.360207)
(-0.404464 2.08642 -0.433576)
(-0.234821 1.82154 -0.539995)
(0.103353 1.60666 -0.599767)
(0.341164 1.39302 -0.361118)
(-2.27521 0.236565 2.31942)
(-2.39141 0.054103 2.40647)
(-2.45798 0.17284 2.41618)
(-2.73097 0.125257 2.14974)
(-2.8094 0.581671 2.11122)
(-2.96248 -0.199322 2.02294)
(-2.82106 0.166924 2.18044)
(-2.9072 0.561573 1.97738)
(-3.17144 -0.20941 2.03138)
(-3.10362 0.026974 2.1435)
(-3.01766 0.548681 2.17367)
(-2.84025 1.15851 2.03339)
(-3.34026 -0.115718 1.93989)
(-3.12447 0.196179 2.22591)
(-3.17356 0.554296 1.94932)
(-2.72043 1.2404 2.03274)
(-2.65268 1.43966 1.77604)
(-3.32896 -0.252933 1.78758)
(-3.32674 0.174818 1.68927)
(-3.12771 0.405265 1.90203)
(-2.86173 0.884897 1.75154)
(-2.73118 1.1446 1.30792)
(-2.22924 1.50498 0.939841)
(-3.40542 -0.407232 1.48211)
(-3.37316 0.126631 1.4)
(-3.17222 0.530714 1.36754)
(-2.98602 1.00862 1.05322)
(-2.90373 0.824107 0.360129)
(-2.31002 1.28309 0.339902)
(-1.89194 1.4118 0.157401)
(-3.53632 -0.679191 1.38211)
(-3.46345 0.214931 1.3752)
(-3.23896 0.474857 1.04701)
(-3.00913 0.692679 0.649057)
(-2.6793 1.19403 0.11487)
(-2.27475 0.980514 0.43444)
(-2.098 0.989514 -0.0119821)
(-1.89541 1.24619 -0.508698)
(-3.61498 -0.667461 1.27441)
(-3.47325 -0.130021 1.30632)
(-3.05218 1.26281 0.484795)
(-3.00808 0.831736 0.398986)
(-2.60351 1.20531 -0.161237)
(-2.38908 1.094 0.421408)
(-2.09061 1.17173 0.258537)
(-2.02827 1.68986 0.108723)
(-1.77206 1.86464 -0.00813805)
(-3.612 -0.835419 0.903217)
(-3.40136 -0.723532 0.968533)
(-3.01535 0.137191 0.75492)
(-2.74835 0.814975 0.465695)
(-2.47532 1.1763 0.141498)
(-2.47046 1.36127 0.212387)
(-2.13559 1.3107 0.192234)
(-2.0425 1.64864 -0.0676167)
(-1.55466 1.62012 -1.07507)
(-1.17565 1.38285 -0.93724)
(-3.12708 -0.992905 0.780852)
(-3.1388 -0.846788 0.145869)
(-2.78668 -0.435442 0.742616)
(-2.52394 0.488055 0.58488)
(-2.42101 1.05879 0.320469)
(-2.37201 1.29319 0.250543)
(-2.0245 1.29184 0.0593412)
(-1.93377 1.40717 -0.519418)
(-1.43135 1.47213 -0.897085)
(-1.19204 1.55517 -0.974135)
(-0.978901 1.13055 -1.55102)
(-2.70642 -0.440155 -0.438147)
(-2.53581 -0.0820974 -0.686121)
(-2.49865 -0.241811 0.473225)
(-2.35921 0.637956 0.0569835)
(-2.42551 0.994317 0.244728)
(-2.37897 1.19321 -0.128249)
(-2.06898 1.3407 -0.371269)
(-1.79288 1.49375 -0.709243)
(-1.56927 2.06111 -0.0841709)
(-1.10841 2.13105 -0.324982)
(-1.091 1.40829 -0.796864)
(-0.907386 1.18541 -1.23565)
(-2.06752 0.0950208 -0.755392)
(-1.90024 0.556769 -1.14748)
(-2.33696 0.559811 -0.435765)
(-2.22233 1.25251 -0.43664)
(-2.38057 1.5236 -0.14319)
(-2.32371 1.43617 -0.106382)
(-2.04023 1.45136 -0.36407)
(-1.40294 1.60988 -0.487557)
(-1.14828 2.10559 -0.141122)
(-1.01613 2.23457 -0.0816377)
(-0.832817 1.67718 -0.53739)
(-0.517519 1.41021 -0.79846)
(-0.443382 1.21092 -0.626285)
(-2.15847 0.296397 -0.692934)
(-1.36136 0.905661 -0.440952)
(-1.69412 1.11272 -0.370188)
(-1.74696 1.72225 -0.17532)
(-1.88963 2.03548 -0.203351)
(-1.85309 1.85312 -0.269957)
(-1.6388 1.49603 -0.162673)
(-1.00555 1.62872 -0.328597)
(-0.777952 2.22016 -0.189562)
(-0.422435 2.11326 -0.383176)
(-0.235642 1.81683 -0.552228)
(0.111381 1.60537 -0.603568)
(0.339655 1.38277 -0.344281)
(0.482243 1.44647 -0.27048)
(-2.25431 0.371381 2.4199)
(-2.21057 0.266417 2.40283)
(-2.28118 0.0497582 2.3365)
(-2.47498 0.348719 2.22843)
(-2.46439 -0.109838 2.40874)
(-2.50936 0.361412 2.3666)
(-2.48777 0.513068 2.35115)
(-2.64593 -0.0810134 2.25188)
(-2.72416 0.218072 2.27111)
(-2.64206 0.570848 2.29741)
(-3.00896 -0.119098 2.05095)
(-2.97406 -0.133075 2.10769)
(-2.94751 0.61737 2.04659)
(-2.84599 0.99697 2.00437)
(-3.21959 -0.225516 2.07759)
(-3.09089 -0.107911 2.17095)
(-3.10515 0.47562 2.07052)
(-2.96789 1.18984 1.84973)
(-2.61594 1.47455 1.94555)
(-3.25823 -0.305776 1.94813)
(-3.26916 -0.0305809 2.03143)
(-3.22399 0.327765 1.93019)
(-2.92295 0.739661 1.8938)
(-2.7418 1.35252 1.6342)
(-2.39587 1.41717 1.57473)
(-3.3237 -0.3478 1.77598)
(-3.32996 0.117902 1.71402)
(-3.14544 0.186688 1.86883)
(-2.98638 0.475297 1.60542)
(-2.80068 0.945458 1.29875)
(-2.31883 1.26814 0.843947)
(-1.6931 1.43025 0.812191)
(-3.28068 -0.372081 1.90394)
(-3.34847 0.171003 1.44097)
(-3.17722 0.248594 1.44558)
(-3.15662 0.331331 1.1432)
(-2.8114 0.942858 0.581196)
(-2.24675 0.956871 0.623913)
(-1.79619 1.11272 0.636271)
(-1.67825 0.934947 0.0861991)
(-3.62058 -0.657545 1.31869)
(-3.53595 0.135502 1.0971)
(-3.17221 0.239772 1.18659)
(-3.10186 0.348471 0.561819)
(-2.795 0.718717 -0.0473173)
(-2.22686 1.01799 0.40978)
(-1.83767 1.60059 0.250761)
(-1.82164 1.62196 0.329915)
(-1.73827 1.57096 0.132157)
(-3.50902 -0.901019 1.25753)
(-3.52687 -0.191711 1.06012)
(-3.37851 0.00836803 -0.00573508)
(-3.08635 0.656629 -0.40093)
(-2.55492 0.839387 0.247699)
(-2.2325 1.02129 0.0963436)
(-2.17662 1.24049 0.462379)
(-2.04289 1.67527 -0.159587)
(-1.96786 1.60189 0.338697)
(-1.28868 1.2516 -0.726448)
(-3.48682 -0.883754 0.801519)
(-3.26261 -0.886248 1.00327)
(-3.07414 -0.0193041 0.320628)
(-2.70553 0.780986 -0.0637953)
(-2.27293 0.84469 0.0153515)
(-2.41013 1.16551 0.19084)
(-2.22205 1.26532 0.0739424)
(-2.11175 1.47313 -0.410281)
(-1.70142 1.48281 -0.968481)
(-1.37715 1.056 -1.14332)
(-0.834481 0.878936 -1.82321)
(-3.11197 -0.997183 0.686469)
(-2.89007 -1.13675 0.49704)
(-2.77722 -0.24645 0.187649)
(-2.4662 0.359102 0.38866)
(-2.48245 1.33774 0.270475)
(-2.44919 1.19782 0.122237)
(-2.10006 1.20353 -0.343682)
(-1.9012 1.24461 -0.93776)
(-1.49025 1.40252 -0.925043)
(-1.29652 1.37818 -1.05102)
(-1.15926 1.19573 -1.4606)
(-0.678125 0.927595 -1.89239)
(-2.66793 -0.521025 -0.489592)
(-2.35503 -0.318825 -0.350144)
(-2.3376 -0.209048 0.188639)
(-2.44111 0.54505 0.713515)
(-2.46094 1.06341 0.119579)
(-2.42733 1.12446 -0.307672)
(-2.09516 1.24998 -0.478395)
(-1.77952 1.50592 -0.865612)
(-1.55513 1.96143 0.0124554)
(-1.2009 2.03981 -0.355333)
(-1.13406 1.31601 -0.846837)
(-0.962383 1.12889 -1.18816)
(-0.638183 1.06442 -1.39994)
(-2.0023 -0.0363529 -1.1179)
(-1.84509 0.416525 -1.15149)
(-2.18941 0.440362 -0.767646)
(-2.17984 1.12806 -0.394102)
(-2.31537 1.37875 -0.171609)
(-2.30406 1.36498 -0.271635)
(-1.9788 1.40355 -0.505745)
(-1.37542 1.61 -0.52069)
(-1.11368 2.08029 -0.193065)
(-0.991294 2.15875 -0.185078)
(-0.827695 1.54998 -0.71478)
(-0.541959 1.38113 -0.886665)
(-0.44999 1.21314 -0.584804)
(-0.381742 1.23967 -0.82172)
(-2.15201 0.286925 -0.91032)
(-1.34259 0.894456 -0.215697)
(-1.59577 1.05873 -0.423124)
(-1.70199 1.64319 -0.197128)
(-1.81536 1.93067 -0.267937)
(-1.81034 1.81389 -0.370219)
(-1.6123 1.48004 -0.273757)
(-1.07928 1.72331 -0.102506)
(-0.774549 2.23726 -0.119422)
(-0.417528 2.13651 -0.394946)
(-0.240483 1.81262 -0.576431)
(0.105855 1.60231 -0.634141)
(0.364146 1.37433 -0.334635)
(0.495522 1.45845 -0.277924)
(0.142538 1.08956 -0.341643)
(-2.09417 0.372507 2.3564)
(-2.20136 0.0269296 2.51042)
(-2.17925 0.371955 2.46474)
(-2.28606 -0.265374 2.38239)
(-2.21956 0.230372 2.46651)
(-2.42455 -0.0807399 2.38146)
(-2.5582 0.387991 2.24044)
(-2.3943 0.489735 2.37001)
(-2.58727 -0.343618 2.26364)
(-2.66919 -0.223553 2.24055)
(-2.49572 0.433565 2.33534)
(-2.55059 0.589184 2.4532)
(-2.71129 -0.111952 2.25846)
(-2.67118 -0.368976 2.38311)
(-2.77222 0.538682 2.14775)
(-2.73692 0.668445 2.17966)
(-3.1102 0.0602508 2.10208)
(-3.08904 0.0161671 2.11247)
(-3.04304 0.413396 2.13389)
(-2.90661 0.892986 2.01455)
(-2.44352 1.26598 2.45484)
(-3.20803 -0.439599 2.10658)
(-3.03832 0.254521 2.42058)
(-3.13009 0.385387 2.03279)
(-2.92332 0.500832 2.07424)
(-2.566 1.27125 2.0817)
(-2.67539 1.22665 1.96301)
(-3.18467 -0.478903 2.05894)
(-3.27078 -0.112744 1.97383)
(-3.24939 0.419111 1.69966)
(-2.80987 1.0055 1.89398)
(-2.80103 1.08689 1.59231)
(-2.49405 1.26249 1.37949)
(-1.81497 1.2811 1.50392)
(-3.46041 -0.456047 1.48984)
(-3.39453 -0.225894 1.7161)
(-3.24545 0.166528 1.60333)
(-3.02141 0.549536 1.57243)
(-2.88268 0.94474 1.00848)
(-2.29396 1.21874 0.807593)
(-1.88397 1.07266 0.600843)
(-1.50508 0.931276 0.421755)
(-3.55918 -0.644831 1.26603)
(-3.3335 -0.217299 1.46957)
(-3.15408 0.0109032 1.52271)
(-3.1366 0.147822 1.11451)
(-2.87909 0.417101 0.704919)
(-2.14957 0.727426 0.85963)
(-1.90384 0.939289 0.278845)
(-1.7907 0.966065 0.263868)
(-1.52677 1.53305 0.0525824)
(-3.61123 -0.642313 1.32675)
(-3.44265 0.0242728 1.24004)
(-3.20938 0.109314 1.27707)
(-3.10635 0.393464 0.4878)
(-2.77301 0.536406 0.550083)
(-2.22556 0.467675 0.0521276)
(-2.32568 0.827191 0.0649074)
(-2.22696 1.05373 -0.21759)
(-1.82154 1.51284 0.165055)
(-1.33043 1.53687 -0.545397)
(-3.46437 -1.01888 1.28682)
(-3.52734 -0.189896 0.840033)
(-3.28324 -0.00893988 0.273019)
(-3.11098 0.389548 -0.0510044)
(-2.35088 0.027868 -0.503566)
(-2.29156 0.294281 -0.470226)
(-2.2646 1.11686 -0.303121)
(-2.15236 1.62931 -0.14394)
(-1.95377 1.47782 -0.0318113)
(-1.40568 1.13311 -0.837476)
(-1.13929 0.554427 -1.45013)
(-3.2249 -1.17418 0.972682)
(-3.2267 -0.856679 0.424093)
(-3.15484 -0.126906 0.269547)
(-2.54823 0.425667 -0.817723)
(-2.14677 0.135922 -0.00672779)
(-2.41525 0.746905 0.132317)
(-2.30602 1.11117 -0.178027)
(-2.15936 1.45942 -0.443024)
(-1.71026 1.18864 -1.21741)
(-1.41085 0.88274 -1.33477)
(-0.929222 0.658462 -1.99209)
(-0.777755 0.317143 -1.85521)
(-2.95223 -1.16924 -0.141536)
(-2.68196 -1.40794 0.428582)
(-2.80469 -0.193524 0.0683838)
(-2.48007 0.352057 0.297842)
(-2.74596 0.888836 -0.111591)
(-2.5231 1.04628 -0.0135912)
(-2.0739 1.16538 -0.917029)
(-1.95249 1.22677 -1.02156)
(-1.54991 1.259 -1.03473)
(-1.3664 1.08881 -1.19635)
(-1.27065 1.05317 -1.52179)
(-0.883844 1.00245 -1.78837)
(-0.490593 -0.360318 -1.94577)
(-2.59448 -0.589977 -0.554463)
(-2.13089 -0.503966 -0.154589)
(-2.27181 -0.281579 -0.116986)
(-2.53005 0.563452 -0.380693)
(-2.4863 1.01393 0.0154456)
(-2.44249 1.05906 -0.411854)
(-2.10902 1.1436 -0.706804)
(-1.82533 1.53748 -0.815955)
(-1.49841 1.75584 -0.120859)
(-1.27513 1.87656 -0.446699)
(-1.17151 1.26706 -0.889605)
(-1.00646 1.10287 -1.13402)
(-0.736857 1.05578 -1.35203)
(-0.531154 0.857672 -1.15938)
(-2.05641 0.0329431 -1.24131)
(-1.67118 0.313318 -1.04321)
(-2.00161 0.332784 -1.04494)
(-2.10331 1.12241 -0.27867)
(-2.2338 1.28666 -0.270826)
(-2.2899 1.30883 -0.410562)
(-1.94585 1.35923 -0.652731)
(-1.30145 1.55216 -0.566379)
(-1.11058 2.04192 -0.329408)
(-0.962561 2.04476 -0.36466)
(-0.850464 1.50403 -0.779146)
(-0.496889 1.34428 -0.944038)
(-0.449985 1.22331 -0.53617)
(-0.393706 1.23551 -0.809623)
(-0.114665 1.31443 -0.702379)
(-2.12907 0.267163 -1.1234)
(-1.4038 0.914735 -0.0248042)
(-1.51922 1.00086 -0.480794)
(-1.67349 1.649 -0.188501)
(-1.74045 1.85574 -0.315871)
(-1.78436 1.7852 -0.473185)
(-1.64941 1.54726 -0.344107)
(-1.17344 1.83607 0.082182)
(-0.781386 2.23545 -0.100437)
(-0.434149 2.14052 -0.404641)
(-0.248193 1.79811 -0.586928)
(0.123797 1.60241 -0.640208)
(0.346487 1.36738 -0.33109)
(0.502034 1.46396 -0.299499)
(0.137006 1.11806 -0.341761)
(0.368148 1.35837 -0.375889)
(-1.95751 0.0780383 2.3469)
(-2.28092 0.160661 2.25039)
(-2.13434 0.353097 2.34698)
(-2.21742 -0.296954 2.47894)
(-2.22065 0.296644 2.43011)
(-2.16518 0.554149 2.38041)
(-2.28596 -0.483514 2.37421)
(-2.27503 0.161497 2.46281)
(-2.31147 0.453434 2.42243)
(-2.50397 -0.229267 2.31015)
(-2.50967 0.184211 2.30609)
(-2.30547 0.165671 2.59405)
(-2.57583 0.618208 2.31287)
(-2.50362 -0.339649 2.41135)
(-2.51666 0.750731 2.377)
(-2.55885 0.208004 2.34327)
(-2.56795 0.587737 2.42488)
(-2.50719 0.848291 2.51366)
(-2.84556 -0.327271 2.16513)
(-2.77447 -0.156248 2.19889)
(-2.97556 0.533477 1.93555)
(-2.72652 0.744865 2.23826)
(-2.70594 0.937 2.3219)
(-2.86576 -0.93997 2.23018)
(-3.14449 -0.0267323 2.04963)
(-3.07169 0.207593 2.09084)
(-3.00893 0.765906 1.9655)
(-2.99663 0.777733 2.05436)
(-2.64387 1.564 2.22332)
(-3.05839 -0.783508 2.29634)
(-3.27094 -0.24264 2.14215)
(-3.1905 0.1802 1.98187)
(-2.83468 0.741381 2.03668)
(-2.65834 1.10418 2.01383)
(-2.43459 1.67386 1.83532)
(-2.07031 1.60662 1.77456)
(-3.39404 -0.577404 1.82672)
(-3.22884 -0.199659 2.08542)
(-3.0523 0.093006 1.98352)
(-3.02631 0.357867 1.75955)
(-2.75161 1.04144 1.56012)
(-2.18474 1.02921 1.77919)
(-1.85996 0.908529 1.39742)
(-1.61025 1.27404 0.578533)
(-3.3423 -0.696053 1.69498)
(-3.4301 -0.258676 1.61631)
(-3.19388 -0.164454 1.63258)
(-3.15005 0.109272 1.41001)
(-2.92053 0.655076 0.86169)
(-2.37418 0.629982 0.980296)
(-1.91778 0.873598 0.568199)
(-1.55743 0.932699 0.218582)
(-1.44553 1.59821 0.115403)
(-3.50774 -0.645218 1.35445)
(-3.32771 -0.387019 1.50203)
(-3.17814 -0.134903 1.53187)
(-3.12163 0.056852 1.2219)
(-2.78416 0.336508 1.08428)
(-2.18008 0.507993 0.520022)
(-2.01046 0.703212 0.393583)
(-2.0417 0.910649 0.0585884)
(-1.73112 1.34971 -0.0596152)
(-1.23215 1.68103 -0.641073)
(-3.55793 -0.693408 1.3689)
(-3.42924 -0.328653 1.11727)
(-3.27568 -0.331933 1.10595)
(-3.17589 -0.235793 0.284908)
(-2.50844 -0.688983 0.541713)
(-2.2296 0.528463 0.161748)
(-2.29343 0.712512 -0.0568423)
(-2.16054 1.14498 -0.252232)
(-2.02126 1.36077 0.207677)
(-1.35411 1.52262 -0.697382)
(-1.21107 0.821257 -1.28357)
(-3.4814 -1.06121 1.09851)
(-3.5195 -0.328151 0.248906)
(-3.34925 -0.0982528 0.0644059)
(-2.90989 0.0607566 -0.523872)
(-2.04611 -0.484494 0.814366)
(-2.34961 0.74539 -0.267152)
(-2.31978 1.06219 -0.295193)
(-2.18174 1.38914 -0.26723)
(-1.98738 1.31319 -0.098516)
(-1.48215 1.17848 -0.869078)
(-1.17867 1.01447 -1.50558)
(-1.25137 -0.0108488 -1.41712)
(-3.13567 -1.36538 0.618114)
(-3.21394 -0.888764 -0.131964)
(-3.10357 -0.297806 -0.456956)
(-2.54252 0.292434 -0.792222)
(-2.11697 -0.0392605 -0.299185)
(-2.4176 0.61763 0.0822564)
(-2.34126 1.07575 -0.210044)
(-2.23153 1.27252 -0.528945)
(-1.80353 1.08663 -1.09501)
(-1.5298 0.89647 -1.35032)
(-1.00592 0.691203 -2.04583)
(-0.837149 0.315688 -1.89421)
(-1.21034 -0.381885 -1.74871)
(-2.76624 -1.31606 -0.121265)
(-2.57064 -1.45108 -0.0780202)
(-2.85769 -0.0823135 -0.280138)
(-2.62941 0.366902 -0.0195331)
(-2.6978 0.735648 -0.470042)
(-2.55204 0.848296 -0.163111)
(-2.15424 0.87866 -1.116)
(-1.96837 1.23696 -1.03259)
(-1.59507 1.16072 -1.0508)
(-1.44839 1.02498 -1.18325)
(-1.37304 1.04827 -1.44347)
(-0.942288 0.968165 -1.80857)
(-0.714364 0.0931626 -1.91974)
(-0.646193 0.237844 -1.42804)
(-2.43104 -0.791506 -0.554567)
(-1.91959 -0.694131 -0.34455)
(-2.38272 -0.183017 -0.166964)
(-2.54145 0.609435 -0.387601)
(-2.50923 0.938326 -0.146219)
(-2.45433 0.953228 -0.501641)
(-2.19005 1.09105 -0.742445)
(-1.78526 1.43264 -0.946998)
(-1.441 1.56829 -0.387993)
(-1.32543 1.71164 -0.61536)
(-1.20655 1.22605 -0.950525)
(-1.06383 1.10483 -1.04573)
(-0.808763 1.05521 -1.28864)
(-0.567997 1.00341 -1.15211)
(0.256213 1.22115 -0.990401)
(-1.94245 -0.0741143 -1.53057)
(-1.4514 0.169587 -0.892926)
(-1.8894 0.291795 -0.934644)
(-2.09881 1.12268 -0.187703)
(-2.18599 1.2202 -0.378059)
(-2.26326 1.24275 -0.624885)
(-1.90554 1.26789 -0.814462)
(-1.25571 1.51142 -0.60168)
(-1.08933 1.98786 -0.494418)
(-0.876904 1.95269 -0.566608)
(-0.88191 1.49874 -0.755055)
(-0.48987 1.30219 -0.993697)
(-0.44629 1.23144 -0.510021)
(-0.397773 1.22134 -0.741562)
(-0.105238 1.31903 -0.660899)
(0.980365 1.33865 -0.610385)
(-2.08381 0.253832 -1.25904)
(-1.50981 0.965182 0.0944804)
(-1.49245 0.963186 -0.464518)
(-1.70284 1.63689 -0.192446)
(-1.69872 1.8181 -0.352671)
(-1.78065 1.75406 -0.551634)
(-1.73403 1.6321 -0.402635)
(-1.27582 1.93678 0.189121)
(-0.803179 2.21887 -0.0857916)
(-0.454787 2.15514 -0.413445)
(-0.234143 1.76997 -0.576357)
(0.107347 1.58782 -0.636688)
(0.363961 1.37311 -0.328384)
(0.5068 1.4637 -0.307608)
(0.142373 1.14658 -0.350687)
(0.357187 1.35271 -0.392523)
(1.64071 1.00186 -0.748476)
(-1.84031 -0.0442663 2.29066)
(-2.06684 -0.119698 2.36974)
(-2.04008 0.144925 2.38324)
(-2.13406 -0.131918 2.32993)
(-2.19449 0.251181 2.30495)
(-2.18252 0.427163 2.32662)
(-2.2716 0.117328 2.41189)
(-2.24634 -0.0407481 2.38359)
(-2.30795 0.436378 2.30292)
(-2.18861 0.527846 2.43734)
(-2.31965 -0.317157 2.35331)
(-2.3426 0.130848 2.37681)
(-2.35943 0.322408 2.50093)
(-2.45325 0.513463 2.40963)
(-2.57078 -0.113897 2.2611)
(-2.35221 -0.138313 2.36655)
(-2.41558 0.0292308 2.44331)
(-2.60827 0.452747 2.30065)
(-2.45164 0.612979 2.43411)
(-2.61887 -0.319269 2.35367)
(-2.66983 -0.336551 2.32457)
(-2.76635 0.259235 2.27031)
(-2.66855 0.360314 2.43166)
(-2.62169 0.713584 2.4478)
(-2.53113 1.00111 2.5243)
(-2.7521 -0.516084 2.29113)
(-2.76233 0.0300021 2.46463)
(-2.92292 0.292528 2.14198)
(-2.83299 0.538093 2.29427)
(-2.50517 0.890025 2.64455)
(-2.68365 1.0456 2.46877)
(-3.17212 -0.318433 2.00706)
(-3.10914 -0.548522 2.08434)
(-3.12443 0.635778 2.08652)
(-2.99745 0.839268 1.96301)