/*--------------------------------*- C++ -*----------------------------------*\
  =========                 |
  \\      /  F ield         | OpenFOAM: The Open Source CFD Toolbox
   \\    /   O peration     | Website:  https://openfoam.org
    \\  /    A nd           | Version:  7
     \\/     M anipulation  |
\*---------------------------------------------------------------------------*/
FoamFile
{
    version     2.0;
    format      ascii;
    class       volScalarField;
    location    "8";
    object      p;
}
// * * * * * * * * * * * * * * * * * * * * * * * * * * * * * * * * * * * * * //

dimensions      [0 2 -2 0 0 0 0];

internalField   nonuniform List<scalar> 
18780
(
-66.4419
-66.2758
-66.4556
-66.5008
-65.3664
-66.325
-66.5592
-66.4647
-66.4936
-66.6239
-63.1729
-65.3091
-64.8739
-66.3796
-66.5912
-67.1919
-66.4746
-66.4853
-66.6167
-67.0406
-61.2126
-63.2602
-62.5989
-65.3671
-64.8648
-65.5169
-66.435
-66.6424
-67.1272
-68.1283
-66.4916
-66.479
-66.6108
-67.039
-68.1875
-58.9861
-61.3711
-60.8695
-63.2211
-62.6879
-62.0572
-65.44
-64.8931
-65.443
-66.2127
-66.4934
-66.7181
-67.0844
-68.0489
-67.8664
-66.5085
-66.4794
-66.6011
-67.0322
-68.2212
-67.3795
-57.5722
-59.2336
-58.7241
-61.4194
-60.9012
-60.2617
-63.3762
-62.9029
-62.0664
-62.0924
-65.5048
-64.9291
-65.2971
-66.1315
-65.4106
-66.5412
-66.7873
-67.0192
-67.9649
-68.096
-66.6677
-66.5225
-66.4856
-66.5906
-67.0189
-68.2031
-67.469
-65.0799
-56.0287
-57.5737
-57.1619
-59.5431
-58.8674
-58.3389
-61.6213
-61.0453
-60.4473
-59.6712
-63.594
-63.115
-62.0811
-62.1208
-61.7164
-65.5898
-64.9918
-65.1294
-65.9998
-65.391
-64.1942
-66.5879
-66.8545
-66.9646
-67.8927
-68.3256
-66.8405
-64.8373
-66.5369
-66.4937
-66.576
-66.9971
-68.146
-67.5508
-65.1712
-63.3495
-54.8441
-55.982
-55.7049
-57.8835
-57.3044
-56.7831
-59.5676
-59.0599
-58.5696
-58.2586
-61.7949
-61.292
-60.5242
-59.7969
-59.1122
-63.7902
-63.3523
-62.3144
-62.1889
-61.8936
-60.7076
-65.6879
-65.0691
-65.0402
-65.8498
-65.632
-64.4581
-62.9717
-66.6385
-66.9176
-66.9386
-67.8167
-68.4473
-67.1063
-65.0977
-63.1146
-66.5507
-66.5013
-66.5592
-66.9685
-68.0696
-67.6261
-65.2478
-63.4715
-61.9064
-53.0122
-53.9078
-54.9042
-54.6278
-56.1413
-55.8332
-55.5532
-57.9907
-57.4612
-56.8939
-56.4568
-59.8496
-59.2067
-58.6262
-58.3373
-57.4297
-62.0562
-61.4595
-60.6774
-59.9799
-59.1858
-58.5965
-64.0239
-63.6325
-62.5225
-62.0991
-61.6928
-60.9272
-59.871
-65.7957
-65.1955
-65.0073
-65.7494
-65.8447
-64.7266
-63.32
-62.0282
-66.6953
-66.9456
-66.9223
-67.765
-68.5495
-67.3978
-65.3984
-63.3133
-61.5029
-66.5631
-66.508
-66.542
-66.934
-67.9958
-67.6865
-65.3351
-63.5828
-61.9975
-61.0118
-52.4249
-53.1151
-52.9729
-53.996
-53.8195
-54.9665
-54.7429
-54.4635
-56.4023
-55.8555
-55.5544
-55.3021
-58.2115
-57.6877
-57.0964
-56.4732
-55.9835
-60.0618
-59.524
-58.705
-58.4779
-57.687
-56.7996
-62.2809
-61.6146
-60.9371
-60.1786
-59.317
-58.8197
-58.0706
-64.2767
-63.9363
-62.7027
-62.161
-61.9138
-60.8699
-60.1831
-59.3038
-65.9171
-65.2905
-65.0213
-65.6529
-65.8481
-65.0946
-63.6553
-62.2659
-60.6385
-66.7569
-66.9476
-66.9303
-67.7222
-68.5699
-67.688
-65.7288
-63.5538
-61.6924
-60.2933
-66.5747
-66.5147
-66.5242
-66.898
-67.9242
-67.7291
-65.4317
-63.7151
-62.0948
-61.0891
-60.1374
-51.988
-52.4594
-52.4232
-53.1696
-53.0855
-52.9193
-54.0579
-53.9223
-53.7325
-55.0724
-54.7529
-54.5309
-54.2259
-56.4325
-56.0613
-55.7679
-55.3645
-54.9639
-58.4719
-57.7825
-57.1726
-56.6231
-56.0865
-55.7045
-60.2537
-59.7784
-59.1034
-58.5791
-57.8402
-57.1535
-56.4537
-62.4922
-61.7866
-61.1266
-60.2342
-59.5041
-58.9217
-58.1326
-57.1342
-64.5129
-64.2964
-62.9191
-62.2008
-62.0585
-61.1737
-60.5487
-59.4159
-58.9324
-66.0666
-65.4111
-65.0097
-65.6637
-65.9116
-65.2322
-64.0188
-62.7153
-60.8833
-59.317
-66.819
-66.9472
-66.9459
-67.6693
-68.5964
-67.992
-66.07
-63.8009
-61.89
-60.4559
-59.3396
-66.5851
-66.5203
-66.5054
-66.8599
-67.8491
-67.7556
-65.4998
-63.8165
-62.1866
-61.1726
-60.1775
-59.4322
-51.2902
-51.6478
-51.9872
-51.9874
-52.5321
-52.4736
-52.4268
-53.2365
-53.2055
-53.0205
-52.8016
-54.0871
-54.0349
-53.76
-53.6608
-55.2041
-54.8547
-54.6569
-54.303
-54.0952
-56.6111
-56.2522
-55.904
-55.5821
-55.1069
-54.6788
-58.4686
-58.0292
-57.351
-56.8259
-56.3924
-55.7967
-55.2278
-60.5222
-59.7708
-59.3069
-58.8339
-57.8344
-57.1525
-56.7565
-55.8851
-62.7186
-62.1216
-61.3228
-60.4672
-59.6998
-58.8028
-58.2732
-57.309
-56.4855
-64.7521
-64.6847
-63.24
-62.195
-62.0654
-61.4688
-60.5632
-59.767
-59.4339
-58.2158
-66.2217
-65.6138
-65.12
-65.7831
-66.0327
-65.3965
-64.4711
-63.1822
-61.1785
-59.5212
-58.2807
-66.8709
-66.9415
-66.9535
-67.6121
-68.6249
-68.2828
-66.3721
-64.078
-62.0915
-60.6156
-59.4586
-58.6951
-66.5944
-66.5244
-66.487
-66.8246
-67.7773
-67.7659
-65.5419
-63.8736
-62.2593
-61.265
-60.243
-59.5046
-59.0224
-51.1074
-51.3217
-51.2778
-51.6485
-51.6854
-52.0706
-51.9663
-51.9307
-52.5524
-52.5556
-52.4671
-52.3227
-53.2849
-53.2358
-53.0688
-52.8587
-52.7433
-54.1795
-54.0127
-53.8207
-53.7942
-53.4769
-55.2511
-55.0821
-54.7679
-54.4086
-54.1834
-53.8033
-56.7487
-56.2985
-55.9256
-55.6852
-55.201
-54.7665
-54.4245
-58.7479
-58.2919
-57.6186
-56.9345
-56.4749
-55.8546
-55.4562
-55.2184
-60.7951
-59.8729
-59.2761
-58.9898
-58.0797
-56.9599
-56.6752
-55.9792
-55.3665
-62.9314
-62.4718
-61.7955
-60.6811
-59.9093
-58.995
-58.4087
-57.6047
-56.8282
-56.334
-65.0105
-65.052
-63.499
-62.4162
-62.2723
-61.5721
-61.0072
-60.1978
-59.5017
-58.4101
-57.1329
-66.3834
-65.7709
-65.2372
-65.6518
-65.9505
-65.5245
-64.8579
-63.5375
-61.4941
-59.6986
-58.4383
-57.7341
-66.9183
-66.9343
-66.9783
-67.5754
-68.6385
-68.5365
-66.7024
-64.4106
-62.2968
-60.7772
-59.6047
-58.7953
-58.1856
-66.6043
-66.5291
-66.4713
-66.7967
-67.7249
-67.7731
-65.6144
-63.8998
-62.3509
-61.3541
-60.3261
-59.5365
-59.05
-58.359
-50.9462
-51.1843
-51.1328
-51.3375
-51.3115
-51.2386
-51.6883
-51.6958
-51.6586
-52.065
-52.0823
-51.9378
-51.8835
-52.6354
-52.6307
-52.538
-52.3293
-52.2425
-53.3708
-53.2741
-53.0845
-52.8324
-52.7368
-52.5178
-54.3072
-54.0092
-53.8598
-53.7249
-53.5282
-53.2671
-55.39
-55.1419
-54.8034
-54.5237
-54.1156
-53.9519
-53.6739
-56.9233
-56.5369
-56.1446
-55.7434
-55.3357
-54.8325
-54.5079
-54.0526
-58.8888
-58.2441
-57.7702
-57.1518
-56.6265
-55.9712
-55.5783
-55.2085
-54.4949
-61.1628
-60.2912
-59.4796
-58.6828
-58.1157
-57.2669
-56.5818
-56.094
-55.5811
-54.9996
-63.1266
-62.7042
-62.2306
-61.0383
-60.0725
-59.0984
-58.4887
-57.8254
-57.0708
-56.4461
-55.9027
-65.2586
-65.3819
-63.809
-62.8268
-62.2597
-61.7656
-61.5241
-60.3987
-59.7723
-58.6359
-57.2335
-56.3196
-66.5651
-65.9127
-65.3594
-65.4508
-65.8823
-65.6636
-65.2742
-63.9849
-61.7972
-59.8867
-58.631
-57.8421
-57.1734
-66.9618
-66.9255
-67.0078
-67.5485
-68.639
-68.7258
-67.0496
-64.7615
-62.4942
-60.9646
-59.7512
-58.9193
-58.2499
-57.6655
-66.6125
-66.5336
-66.4631
-66.7771
-67.6898
-67.7894
-65.7194
-63.9122
-62.437
-61.441
-60.389
-59.5881
-59.1044
-58.4167
-57.7081
-50.8269
-50.986
-50.9329
-51.209
-51.1756
-51.0957
-51.3732
-51.3351
-51.3292
-51.2331
-51.7305
-51.7213
-51.7254
-51.5418
-52.1691
-52.1338
-52.0149
-51.8971
-51.792
-52.6899
-52.6434
-52.583
-52.5059
-52.2209
-52.1338
-53.3595
-53.3385
-53.0912
-52.975
-52.7785
-52.6269
-52.4462
-54.2722
-54.1173
-53.9487
-53.7795
-53.6038
-53.3253
-53.1255
-55.4573
-55.1183
-55.0124
-54.5201
-54.197
-54.0084
-53.707
-53.4581
-57.2773
-56.8125
-56.26
-55.7959
-55.5371
-55.0201
-54.4322
-54.0741
-53.8629
-59.088
-58.2204
-57.7289
-57.3399
-56.8047
-56.0344
-55.6524
-55.2721
-54.5205
-54.1587
-61.4714
-60.6967
-60.0733
-59.1289
-58.4251
-57.3761
-56.9206
-56.2537
-55.6474
-55.0919
-54.7723
-63.31
-62.865
-62.5048
-61.2716
-60.2717
-59.2372
-58.7422
-58.033
-57.0963
-56.6827
-55.813
-55.4041
-65.5061
-65.7382
-64.0863
-62.9022
-62.1968
-61.8852
-61.7196
-60.8848
-60.2189
-58.986
-57.5015
-56.3956
-56.0719
-66.7288
-66.1545
-65.4994
-65.5713
-65.9024
-65.7452
-65.6699
-64.4689
-62.1522
-60.1099
-58.8007
-57.9536
-57.3246
-56.9702
-67.0167
-66.9178
-67.0233
-67.5947
-68.6239
-68.9905
-67.4018
-65.1114
-62.6979
-61.1482
-59.9062
-59.0524
-58.3342
-57.7201
-57.0354
-66.6275
-66.5348
-66.4618
-66.7659
-67.6621
-67.8144
-65.7797
-63.9253
-62.5095
-61.5254
-60.4493
-59.665
-59.1459
-58.413
-57.7341
-57.074
-50.7548
-50.8651
-50.786
-51.0113
-50.9634
-50.9235
-51.1701
-51.191
-51.1546
-51.0536
-51.4442
-51.3982
-51.3254
-51.2634
-51.1744
-51.7572
-51.7399
-51.7412
-51.5234
-51.4897
-52.1817
-52.1718
-52.0706
-51.9541
-51.8457
-51.7493
-52.7152
-52.6374
-52.569
-52.4822
-52.3162
-52.1977
-51.9773
-53.4452
-53.3819
-53.1686
-53.0402
-52.8772
-52.6172
-52.5018
-52.3712
-54.428
-54.2154
-54.0713
-53.8727
-53.6176
-53.4155
-53.1772
-52.8726
-55.5773
-55.2584
-54.9742
-54.6678
-54.3402
-54.0963
-53.6982
-53.5159
-53.1384
-57.4202
-56.8886
-56.4518
-55.894
-55.6554
-54.9232
-54.4296
-54.0644
-53.9358
-53.3755
-59.4555
-58.4553
-57.9215
-57.3711
-56.9219
-56.1969
-55.6866
-55.2804
-54.6606
-54.3052
-53.9416
-61.7864
-60.8744
-60.3546
-59.7054
-58.8682
-57.636
-57.1549
-56.5407
-55.6567
-55.3449
-54.8248
-54.4552
-63.4904
-63.1969
-62.8263
-61.6096
-60.4715
-59.5507
-58.8954
-58.2612
-57.3937
-56.5092
-55.9358
-55.455
-55.0955
-65.752
-66.1118
-64.355
-62.9491
-62.3512
-61.9849
-62.0101
-61.6179
-60.5552
-59.2465
-57.7611
-56.5469
-56.203
-55.7192
-66.8258
-66.5046
-65.6905
-65.6394
-65.8951
-65.7621
-66.1062
-65.0187
-62.5074
-60.3616
-59.0183
-58.0502
-57.4447
-56.9596
-56.392
-67.0855
-66.9411
-67.0502
-67.5796
-68.564
-69.2549
-67.7968
-65.4612
-62.9092
-61.3234
-60.0752
-59.1949
-58.4316
-57.7847
-57.0444
-56.5445
-66.6433
-66.5388
-66.4641
-66.7564
-67.6346
-67.8477
-65.8052
-63.9507
-62.5631
-61.6037
-60.5143
-59.703
-59.1806
-58.4084
-57.7306
-57.0817
-56.5679
-50.7308
-50.7881
-50.69
-50.8999
-50.8404
-50.7761
-50.965
-51.0037
-50.9444
-50.8888
-51.2228
-51.1928
-51.1957
-51.1121
-50.9833
-51.4746
-51.451
-51.3494
-51.3052
-51.2446
-51.1155
-51.8151
-51.7749
-51.7098
-51.623
-51.533
-51.3993
-52.2941
-52.223
-52.1186
-51.9331
-51.8863
-51.7807
-51.6214
-52.7161
-52.6866
-52.5845
-52.548
-52.4973
-52.2265
-52.008
-51.9015
-53.5425
-53.4483
-53.3425
-53.1482
-52.8534
-52.7272
-52.469
-52.3784
-52.0462
-54.4414
-54.2397
-54.1449
-53.8638
-53.6215
-53.4225
-53.2385
-52.9755
-52.6502
-55.8245
-55.3674
-55.0204
-54.7548
-54.488
-54.2297
-53.7769
-53.6279
-53.2208
-52.9511
-57.5911
-56.9561
-56.5963
-56.0917
-55.627
-55.2822
-54.6588
-54.2201
-53.9671
-53.4875
-53.221
-59.7123
-58.7741
-58.2262
-57.607
-57.118
-56.2051
-55.8861
-55.3669
-54.7351
-54.3602
-54.0051
-53.7627
-62.0838
-61.112
-60.5602
-59.8073
-58.9625
-57.9424
-57.2778
-56.8304
-55.8517
-55.4308
-54.8369
-54.4926
-54.2159
-63.672
-63.4691
-63.1386
-62.0463
-60.8479
-59.9008
-59.133
-58.6919
-57.6566
-56.8907
-56.3715
-55.5672
-55.1517
-54.9345
-65.9619
-66.4565
-64.6259
-63.2468
-62.7941
-62.1503
-62.1983
-62.0484
-60.8027
-59.4836
-57.8738
-56.7145
-56.2682
-55.81
-55.6429
-66.9299
-66.6947
-65.9048
-65.6536
-65.8851
-65.7817
-66.4356
-65.5858
-62.8787
-60.6273
-59.2319
-58.1984
-57.5645
-56.989
-56.3861
-56.0148
-67.1361
-66.9724
-67.0665
-67.5367
-68.4942
-69.4176
-68.1811
-65.8235
-63.1379
-61.4939
-60.2447
-59.3358
-58.5417
-57.8539
-57.0678
-56.5305
-56.2015
-66.6524
-66.5446
-66.4698
-66.7487
-67.6038
-67.8748
-65.8079
-64.077
-62.5998
-61.6514
-60.5798
-59.7316
-59.2344
-58.4123
-57.7325
-57.0905
-56.526
-56.2564
-50.6132
-50.7679
-50.722
-50.8065
-50.7837
-50.6632
-50.9763
-50.8889
-50.7718
-50.6928
-50.9704
-50.9826
-50.9977
-50.8782
-50.7976
-51.2208
-51.2265
-51.2517
-51.1839
-50.9912
-50.9264
-51.5108
-51.4556
-51.4498
-51.3388
-51.2631
-51.1694
-51.0719
-51.844
-51.8286
-51.7554
-51.7602
-51.5856
-51.4196
-51.3507
-52.2379
-52.2386
-52.0988
-52.031
-51.9277
-51.8101
-51.6544
-51.5221
-52.8465
-52.7403
-52.6948
-52.671
-52.4718
-52.2973
-51.9797
-51.8655
-51.7494
-53.6181
-53.5152
-53.4832
-53.1094
-52.9332
-52.7794
-52.5799
-52.4771
-52.2245
-52.0992
-54.5079
-54.3401
-54.2444
-53.9263
-53.6818
-53.4817
-53.2478
-53.0553
-52.7545
-52.444
-55.9209
-55.4069
-55.1688
-54.7971
-54.5526
-54.2775
-54.0396
-53.758
-53.3394
-52.9009
-52.8021
-57.8751
-57.2864
-56.6967
-56.3529
-55.7338
-55.2484
-54.8861
-54.4499
-53.8908
-53.6373
-53.1929
-53.0428
-59.8252
-59.0404
-58.4547
-57.7433
-57.188
-56.5911
-56.0704
-55.4629
-54.8066
-54.4786
-54.1032
-53.7857
-53.5361
-62.3691
-61.5127
-60.6706
-59.8964
-59.2372
-58.1273
-57.6115
-56.9494
-56.1934
-55.4357
-55.0204
-54.4851
-54.2262
-54.076
-63.8855
-63.64
-63.43
-62.6064
-61.1954
-59.9781
-59.1719
-58.9539
-57.8724
-57.387
-56.5774
-55.7201
-55.173
-54.9105
-54.7144
-66.1464
-66.6536
-64.8539
-63.6195
-62.7007
-62.4146
-62.4606
-62.2762
-61.2226
-59.8291
-58.0975
-56.8627
-56.3046
-55.8369
-55.5842
-55.3881
-67.0299
-66.8214
-66.1064
-65.7309
-65.8508
-65.7766
-66.4439
-66.1068
-63.1961
-60.9238
-59.426
-58.3774
-57.676
-57.035
-56.4049
-56.0133
-55.849
-67.177
-67.0049
-67.0785
-67.5365
-68.4154
-69.6003
-68.5445
-66.0658
-63.3846
-61.6544
-60.3989
-59.4766
-58.6571
-57.928
-57.0915
-56.5283
-56.1566
-55.925
-66.6616
-66.5469
-66.4779
-66.7449
-67.5713
-67.8814
-65.7786
-64.2833
-62.6355
-61.7303
-60.6453
-59.7786
-59.322
-58.4074
-57.7497
-57.0966
-56.4909
-56.2474
-56.0098
-50.6477
-50.6773
-50.5823
-50.7399
-50.7128
-50.5715
-50.8404
-50.7417
-50.7044
-50.5781
-50.9184
-50.9745
-50.7835
-50.749
-50.6148
-50.9712
-51.0095
-50.995
-50.9648
-50.8205
-50.7209
-51.2419
-51.2887
-51.3025
-51.1185
-51.0365
-50.944
-50.8549
-51.4638
-51.51
-51.4916
-51.3227
-51.2913
-51.2216
-51.0847
-50.8869
-51.892
-51.8256
-51.7983
-51.7701
-51.6704
-51.5304
-51.3708
-51.2087
-52.2421
-52.2843
-52.1564
-52.0915
-51.9809
-51.8443
-51.6958
-51.5394
-51.3394
-52.9154
-52.772
-52.7447
-52.7048
-52.4648
-52.2788
-52.0894
-51.9956
-51.7546
-51.6865
-53.6544
-53.5991
-53.4694
-53.2899
-52.9896
-52.8275
-52.6423
-52.472
-52.3402
-52.1175
-51.8869
-54.6579
-54.5024
-54.3316
-54.0324
-53.7599
-53.4851
-53.3208
-53.0744
-52.8849
-52.5898
-52.3397
-56.1022
-55.6091
-55.3095
-55.0188
-54.609
-54.3169
-54.082
-53.6477
-53.3256
-53.0307
-52.8495
-52.4733
-58.1445
-57.3489
-56.8094
-56.3019
-55.9608
-55.2715
-54.8921
-54.5606
-54.0446
-53.7513
-53.2903
-53.0157
-52.9697
-60.0223
-59.4308
-58.6085
-58.2251
-57.3185
-56.9657
-56.1938
-55.5912
-55.0211
-54.5724
-54.1929
-53.8377
-53.6054
-53.5841
-62.6813
-61.6968
-60.9418
-60.2379
-59.5592
-58.2439
-57.6348
-57.0998
-56.3124
-55.6759
-55.1074
-54.4575
-54.236
-54.1254
-54.1837
-64.1535
-64.0241
-63.703
-62.8712
-61.3881
-60.0743
-59.1173
-58.9456
-58.2676
-57.5437
-56.5929
-55.8565
-55.2564
-54.9026
-54.7204
-54.68
-66.3311
-66.8627
-65.0917
-63.6894
-62.9023
-62.698
-62.6715
-62.7367
-61.5959
-60.0312
-58.4074
-57.0237
-56.4142
-55.8893
-55.5908
-55.2944
-55.4231
-67.13
-66.9764
-66.3217
-65.8555
-65.8494
-65.7406
-66.7944
-66.6066
-63.522
-61.244
-59.6615
-58.5363
-57.7957
-57.1062
-56.439
-56.0001
-55.8
-55.5608
-67.2132
-67.0297
-67.1045
-67.503
-68.3386
-69.7298
-68.8589
-66.1581
-63.6263
-61.8204
-60.5462
-59.6193
-58.7807
-58.0025
-57.1201
-56.5322
-56.1127
-55.8769
-55.9165
-66.6698
-66.5463
-66.4866
-66.7457
-67.5375
-67.8583
-65.661
-64.4562
-62.6512
-61.8002
-60.7142
-59.8238
-59.3815
-58.4129
-57.7668
-57.1013
-56.5092
-56.2203
-55.9481
-56.5547
-50.4295
-50.6722
-50.5192
-50.6417
-50.5644
-50.5012
-50.7839
-50.7451
-50.6102
-50.4591
-50.8261
-50.7719
-50.7086
-50.6501
-50.4786
-50.9198
-50.9306
-50.8525
-50.7578
-50.668
-50.5178
-50.9758
-51.0152
-50.9622
-50.9734
-50.8839
-50.7574
-50.5705
-51.1829
-51.2978
-51.2762
-51.1554
-51.0747
-50.9916
-50.8257
-50.7162
-51.5213
-51.5117
-51.5126
-51.4264
-51.3541
-51.2191
-51.1013
-50.9982
-50.786
-51.8031
-51.8662
-51.8811
-51.813
-51.7186
-51.5021
-51.4
-51.2145
-51.0733
-52.3729
-52.276
-52.2687
-52.1706
-52.0453
-51.8306
-51.7018
-51.5861
-51.4634
-51.1774
-52.9531
-52.9007
-52.7644
-52.6282
-52.4623
-52.2596
-52.1819
-52.0399
-51.7991
-51.7269
-51.5609
-53.7422
-53.6691
-53.5171
-53.3303
-53.0864
-52.8827
-52.7337
-52.5848
-52.3244
-52.2291
-51.8982
-51.7566
-54.9501
-54.5941
-54.4458
-54.1425
-53.8036
-53.4877
-53.3973
-53.1121
-52.9246
-52.608
-52.4279
-52.1519
-56.1522
-55.7171
-55.2956
-55.1742
-54.754
-54.461
-54.159
-53.7156
-53.3643
-53.1218
-52.9549
-52.535
-52.4129
-58.4799
-57.6117
-56.9836
-56.5074
-55.9903
-55.7089
-54.9496
-54.6958
-54.2352
-53.8978
-53.4184
-53.1223
-52.9528
-52.9268
-60.3311
-59.6273
-58.9056
-58.1015
-57.6991
-57.1499
-56.3476
-55.7244
-55.013
-54.7382
-54.1752
-53.8115
-53.6294
-53.4755
-53.5257
-62.9618
-61.998
-61.2146
-60.5952
-59.7891
-58.5376
-57.7373
-57.3059
-56.4779
-55.8667
-55.3254
-54.6068
-54.2845
-54.1492
-53.9997
-54.1215
-64.4006
-64.2347
-63.9827
-63.2402
-61.7822
-60.3752
-59.4257
-59.1121
-58.681
-57.785
-56.8575
-56.0207
-55.3051
-54.8834
-54.674
-54.5906
-54.6785
-66.4672
-67.1011
-65.3651
-63.9431
-63.1556
-62.9899
-62.6227
-63.153
-61.9316
-60.4597
-58.6062
-57.1992
-56.5372
-56.0093
-55.6266
-55.2408
-55.1217
-55.0917
-67.1979
-67.1032
-66.5642
-65.943
-65.9149
-65.7209
-67.34
-67.0566
-63.8667
-61.6117
-59.8412
-58.669
-57.9007
-57.1932
-56.4817
-56.0037
-55.6991
-55.4575
-55.5872
-67.2292
-67.0508
-67.1334
-67.4726
-68.2612
-69.8118
-69.1459
-66.2769
-63.8354
-61.987
-60.7024
-59.7936
-58.91
-58.0837
-57.1681
-56.5556
-56.0861
-55.7905
-55.8569
-56.3127
-66.6767
-66.5475
-66.4994
-66.7473
-67.5061
-67.808
-65.6951
-64.6203
-62.7451
-61.8635
-60.7731
-59.8709
-59.4202
-58.4615
-57.7896
-57.1062
-56.5148
-56.2018
-55.948
-56.4793
-57.0417
-50.3873
-50.5636
-50.3963
-50.6142
-50.5824
-50.4223
-50.6491
-50.6152
-50.4627
-50.3461
-50.8055
-50.737
-50.6284
-50.484
-50.3801
-50.7647
-50.7924
-50.7294
-50.5685
-50.5272
-50.3766
-50.9277
-50.9049
-50.9032
-50.7605
-50.6819
-50.5873
-50.4599
-50.9875
-51.0284
-50.9466
-51.0112
-50.8441
-50.7353
-50.6772
-50.5158
-51.1898
-51.3062
-51.2879
-51.2781
-51.0833
-51.0035
-50.8389
-50.769
-50.6192
-51.5606
-51.5959
-51.5144
-51.4575
-51.3686
-51.2597
-51.1218
-50.998
-50.8795
-50.7129
-51.8702
-51.9176
-51.9244
-51.7722
-51.7391
-51.5502
-51.4009
-51.2447
-51.1353
-50.9415
-52.3807
-52.3254
-52.3142
-52.1535
-52.1685
-51.9577
-51.8124
-51.7075
-51.5056
-51.1665
-51.1528
-53.0341
-52.9742
-52.8255
-52.7597
-52.5042
-52.3777
-52.2083
-51.9962
-51.7942
-51.586
-51.5645
-51.3972
-53.7969
-53.6326
-53.5118
-53.4552
-53.2194
-52.9845
-52.7942
-52.6379
-52.3765
-52.2676
-51.8951
-51.7598
-51.6957
-55.0703
-54.6004
-54.4188
-54.1931
-53.931
-53.6857
-53.3839
-53.093
-52.9664
-52.6236
-52.3174
-52.1887
-52.0273
-56.3745
-55.9075
-55.6138
-55.0152
-54.842
-54.6286
-54.1577
-53.8502
-53.5259
-53.2068
-52.8994
-52.5557
-52.3195
-52.435
-58.6487
-57.876
-57.1413
-56.7178
-56.1334
-55.8482
-55.3684
-54.8164
-54.2823
-54.0635
-53.5306
-53.1743
-52.8923
-52.8734
-52.9208
-60.6093
-59.6963
-59.1001
-58.4704
-58.0051
-57.6398
-56.9224
-55.8468
-55.2589
-54.7287
-54.2736
-53.9106
-53.5819
-53.4276
-53.4269
-53.5021
-63.223
-62.2854
-61.4885
-60.6516
-60.1241
-59.1398
-58.0031
-57.608
-56.7572
-56.1094
-55.5613
-54.702
-54.3445
-54.1717
-53.9209
-54.0713
-54.0597
-64.7157
-64.4617
-64.3
-63.5411
-62.1548
-60.5998
-59.5257
-59.3904
-58.8175
-58.0765
-57.203
-56.1409
-55.3546
-54.9279
-54.6515
-54.5403
-54.5861
-54.5807
-66.5868
-67.2886
-65.6529
-64.3101
-63.4153
-63.315
-62.7681
-63.3114
-62.3529
-61.0295
-58.7519
-57.4154
-56.6614
-56.1465
-55.5935
-55.1282
-55.074
-55.0224
-55.2815
-67.2466
-67.2458
-66.7539
-65.9971
-65.9382
-65.7543
-67.5817
-67.3626
-64.2263
-61.9808
-60.0531
-58.8389
-58.0412
-57.292
-56.5343
-56.0198
-55.6721
-55.3682
-55.4808
-56.2913
-67.2445
-67.0566
-67.1392
-67.4304
-68.1914
-69.875
-69.3087
-66.3833
-63.9647
-62.1461
-60.8503
-59.9842
-59.041
-58.1726
-57.2006
-56.5803
-56.0807
-55.7315
-55.7663
-56.1919
-57.1813
-66.6813
-66.5504
-66.5062
-66.7479
-67.4691
-67.75
-65.8917
-64.8538
-62.8873
-61.9261
-60.8271
-59.9267
-59.4767
-58.5195
-57.8098
-57.111
-56.5129
-56.1905
-55.9352
-56.414
-56.9687
-57.5222
-50.2911
-50.4583
-50.2999
-50.4627
-50.3826
-50.1911
-50.6263
-50.5501
-50.3951
-50.2912
-50.5931
-50.5907
-50.5146
-50.3863
-50.2679
-50.7325
-50.7537
-50.6449
-50.5523
-50.3912
-50.2898
-50.8082
-50.8067
-50.7
-50.654
-50.5606
-50.4521
-50.3288
-50.8303
-50.9349
-50.8761
-50.84
-50.6901
-50.6084
-50.4732
-50.2888
-51.0136
-51.0522
-51.0345
-50.9692
-50.9022
-50.7774
-50.6919
-50.5206
-50.3808
-51.2241
-51.3281
-51.2798
-51.3578
-51.0838
-50.9786
-50.8874
-50.7426
-50.6262
-50.5091
-51.4584
-51.6637
-51.5457
-51.4584
-51.3594
-51.3516
-51.1254
-51.0112
-50.8903
-50.7196
-50.6174
-51.9756
-51.8619
-51.9348
-51.8437
-51.75
-51.6005
-51.4225
-51.3224
-51.1708
-50.9952
-50.8598
-52.4013
-52.4116
-52.3383
-52.2719
-52.1374
-51.9371
-51.8458
-51.7307
-51.4788
-51.2743
-51.1877
-51.0717
-52.9669
-52.9129
-52.8397
-52.7281
-52.7087
-52.4758
-52.3066
-52.0806
-51.8832
-51.702
-51.4477
-51.4149
-51.3354
-53.9892
-53.7367
-53.5748
-53.4797
-53.3077
-53.0127
-52.8582
-52.7002
-52.3885
-52.1898
-51.9832
-51.7766
-51.6565
-51.6066
-54.8587
-54.8263
-54.4106
-54.2097
-53.9892
-53.7113
-53.452
-53.1704
-53.0007
-52.6487
-52.421
-52.2011
-51.9829
-51.9345
-56.8766
-56.0609
-55.5781
-55.2797
-54.8899
-54.6906
-54.2483
-54.0004
-53.6901
-53.086
-52.7071
-52.602
-52.4084
-52.3632
-52.356
-58.8995
-58.0735
-57.5587
-56.7957
-56.4365
-55.8654
-55.483
-54.9504
-54.4894
-54.1505
-53.5976
-53.1351
-52.922
-52.7981
-52.803
-52.9509
-60.8291
-60.0255
-59.2956
-58.8354
-58.2425
-58.1338
-57.3578
-56.1012
-55.4234
-54.7417
-54.4532
-53.9865
-53.5481
-53.4572
-53.3917
-53.4113
-53.365
-63.5176
-62.4705
-61.7307
-60.9522
-60.4473
-59.4064
-58.2653
-57.7901
-57.2523
-56.263
-55.6379
-54.9021
-54.4563
-54.163
-53.9609
-53.9665
-53.9452
-54.1181
-65.1111
-64.5707
-64.6189
-63.8062
-62.4335
-60.8765
-59.7341
-59.5617
-59.1497
-58.4129
-57.48
-56.2794
-55.4404
-55.0091
-54.675
-54.4709
-54.4619
-54.4321
-54.7743
-66.8941
-67.4943
-65.9073
-64.7165
-63.8094
-63.6469
-63.0255
-63.5396
-62.9467
-61.4696
-59.1353
-57.6065
-56.7994
-56.256
-55.6165
-55.0224
-54.9465
-54.893
-55.1275
-55.9831
-67.3158
-67.321
-66.8704
-66.0879
-65.9279
-65.7573
-67.655
-67.6559
-64.5997
-62.3204
-60.292
-59.0136
-58.2221
-57.4201
-56.6172
-56.0143
-55.6461
-55.307
-55.3697
-56.1011
-57.0024
-67.247
-67.0638
-67.1464
-67.3964
-68.1215
-69.8934
-69.2749
-66.4619
-64.0067
-62.3088
-60.9948
-60.16
-59.1697
-58.2719
-57.2386
-56.6121
-56.0755
-55.7277
-55.6905
-56.076
-56.9364
-57.9743
-66.6853
-66.5489
-66.5066
-66.7512
-67.4204
-67.6967
-66.0889
-65.0015
-63.0116
-61.9799
-60.8837
-59.9827
-59.5544
-58.5976
-57.8307
-57.1199
-56.5091
-56.1601
-55.9048
-56.3543
-56.9034
-57.4637
-58.2515
-50.2268
-50.2045
-50.4769
-50.448
-50.2393
-50.4698
-50.4595
-50.2981
-50.2172
-50.6273
-50.6364
-50.4919
-50.2959
-50.2093
-50.634
-50.5883
-50.564
-50.4274
-50.2638
-50.1674
-50.8001
-50.7385
-50.6477
-50.5368
-50.4793
-50.3261
-50.1703
-50.7169
-50.7614
-50.7604
-50.7213
-50.6029
-50.4847
-50.3195
-50.2089
-50.8503
-50.911
-50.9189
-50.8594
-50.7799
-50.588
-50.4674
-50.3637
-50.1885
-50.9852
-51.052
-51.0737
-50.9647
-50.9843
-50.8685
-50.7481
-50.5377
-50.4209
-50.3022
-51.2344
-51.2941
-51.2943
-51.3219
-51.1789
-51.098
-50.9085
-50.7624
-50.6625
-50.5128
-50.3627
-51.5579
-51.6276
-51.5935
-51.5935
-51.4531
-51.2374
-51.1858
-51.0854
-50.8922
-50.8151
-50.6041
-50.4913
-51.9717
-51.9362
-51.9075
-51.8996
-51.7795
-51.6281
-51.4557
-51.2841
-51.1847
-51.0078
-50.8367
-50.7855
-52.4945
-52.4379
-52.3719
-52.2673
-52.1306
-51.9465
-51.8936
-51.6929
-51.5553
-51.303
-51.186
-51.0677
-50.9966
-53.0317
-53.033
-52.9085
-52.8487
-52.671
-52.4501
-52.3745
-52.1134
-51.933
-51.7468
-51.554
-51.4214
-51.3224
-51.2819
-54.0388
-53.8448
-53.6527
-53.4016
-53.4088
-53.0714
-52.8865
-52.6995
-52.472
-52.1912
-52.0137
-51.7889
-51.6621
-51.5388
-51.5297
-55.2079
-54.935
-54.5407
-54.3683
-54.0543
-53.7758
-53.4725
-53.2682
-53.0084
-52.7372
-52.3969
-52.209
-52.0048
-51.8516
-51.8549
-57.0401
-56.2878
-55.8545
-55.4477
-55.107
-54.7283
-54.3841
-53.9728
-53.6525
-53.2657
-52.916
-52.6737
-52.4489
-52.2516
-52.2852
-52.4142
-59.334
-58.4066
-57.6981
-57.1073
-56.5512
-56.1088
-55.7647
-55.1288
-54.6531
-54.1045
-53.7184
-53.2204
-52.9954
-52.8048
-52.7331
-52.8303
-52.9737
-61.2303
-60.2314
-59.6096
-59.0522
-58.3759
-57.6966
-56.0129
-56.3154
-55.6874
-54.876
-54.4375
-54.0477
-53.5658
-53.3814
-53.3244
-53.2846
-53.256
-53.5345
-63.7893
-62.7549
-61.9808
-61.0972
-60.7313
-59.4322
-58.6191
-57.9337
-57.4747
-56.689
-55.8816
-55.0624
-54.5267
-54.1721
-53.9798
-53.838
-53.8261
-53.9488
-54.2813
-65.3424
-64.7696
-64.9006
-64.156
-62.753
-61.2139
-60.1105
-59.926
-59.6365
-58.7789
-57.7129
-56.5139
-55.5353
-55.059
-54.7072
-54.3854
-54.3717
-54.2833
-54.5915
-55.2417
-67.0078
-67.6248
-66.1897
-65.0736
-64.1311
-63.934
-63.2236
-63.6961
-63.2587
-61.9426
-59.5565
-57.8081
-56.9318
-56.3199
-55.6729
-55.002
-54.9205
-54.7761
-54.9474
-55.7423
-56.6654
-67.3526
-67.3669
-66.98
-66.168
-66.0065
-65.7601
-67.8346
-67.9268
-65.0177
-62.6756
-60.5346
-59.1822
-58.4051
-57.5686
-56.7106
-56.0616
-55.637
-55.2587
-55.2678
-55.8929
-56.7747
-57.7785
-67.2437
-67.0894
-67.1445
-67.3695
-68.0583
-69.878
-69.1682
-66.5171
-64.0298
-62.4682
-61.1414
-60.3043
-59.2748
-58.371
-57.2881
-56.6522
-56.0705
-55.6775
-55.6677
-55.9519
-56.7288
-57.7784
-58.6003
-66.6894
-66.5456
-66.5102
-66.7502
-67.3718
-67.6885
-66.2945
-65.0903
-63.087
-62.0214
-60.9286
-60.052
-59.6102
-58.6664
-57.8502
-57.1321
-56.5103
-56.1179
-55.8834
-56.2784
-56.8443
-57.3964
-58.202
-58.6053
-50.2714
-50.1586
-50.0861
-50.3541
-50.3501
-50.2071
-50.1612
-50.4405
-50.4719
-50.3964
-50.229
-50.1088
-50.5743
-50.6299
-50.5486
-50.3831
-50.2354
-50.0654
-50.6595
-50.6648
-50.5769
-50.486
-50.3534
-50.1251
-49.9602
-50.7474
-50.7344
-50.729
-50.5443
-50.5104
-50.3429
-50.178
-50.1091
-50.7084
-50.7319
-50.7473
-50.7342
-50.6514
-50.4067
-50.3144
-50.2348
-50.0231
-50.8811
-50.9266
-50.9158
-50.8676
-50.8281
-50.6864
-50.5544
-50.391
-50.2689
-50.0827
-50.9797
-51.0651
-51.0703
-50.9795
-51.0106
-50.8987
-50.7196
-50.5975
-50.4328
-50.2731
-50.1594
-51.1379
-51.3206
-51.3424
-51.3012
-51.1778
-51.0145
-50.9318
-50.8177
-50.6541
-50.5496
-50.3965
-50.2948
-51.6935
-51.6079
-51.6474
-51.5902
-51.3891
-51.3648
-51.2379
-51.0576
-50.9397
-50.7355
-50.5937
-50.5359
-50.4835
-51.9346
-52.0794
-51.9166
-52.0005
-51.7666
-51.7137
-51.5103
-51.3961
-51.2026
-50.9802
-50.8776
-50.7885
-50.7469
-52.4412
-52.4686
-52.4179
-52.2995
-52.2454
-52.0327
-51.8673
-51.711
-51.5877
-51.4115
-51.2243
-51.0649
-50.9771
-50.9453
-53.144
-53.0333
-52.9597
-52.8547
-52.6623
-52.572
-52.4689
-52.1545
-52.0345
-51.765
-51.5903
-51.4439
-51.2978
-51.2838
-51.1779
-54.0151
-53.9968
-53.7015
-53.6326
-53.4791
-53.2141
-52.9866
-52.7674
-52.425
-52.2875
-51.981
-51.8116
-51.6216
-51.5344
-51.4665
-51.7525
-55.6427
-54.9314
-54.7782
-54.3236
-54.1624
-53.8604
-53.5928
-53.4004
-53.044
-52.7876
-52.3734
-52.2496
-52.0469
-52.0157
-51.9179
-52.0424
-57.3141
-56.5993
-56.0945
-55.6196
-55.2885
-54.7637
-54.4521
-54.1625
-53.8721
-53.5315
-53.1779
-52.9069
-52.4223
-52.2127
-52.2593
-52.3405
-52.4927
-59.5616
-58.7091
-57.9741
-57.3169
-56.6103
-56.1802
-55.8721
-55.1535
-54.6122
-54.248
-53.8492
-53.3202
-52.8798
-52.8515
-52.7689
-52.7232
-52.8192
-53.0468
-61.5898
-60.6342
-59.9159
-59.2886
-58.4311
-57.6458
-56.4883
-56.3764
-55.9514
-55.1073
-54.5423
-54.1104
-53.6955
-53.3933
-53.2747
-53.1896
-53.1563
-53.3592
-53.8474
-63.7636
-63.0464
-62.1865
-61.3399
-60.9425
-59.8247
-58.9219
-58.1693
-57.6068
-57.0345
-56.1941
-55.138
-54.6172
-54.165
-53.9415
-53.7974
-53.7145
-53.7626
-54.0527
-54.6117
-65.5233
-65.2914
-65.2286
-64.5396
-63.1211
-61.4783
-60.4944
-60.1929
-60.052
-59.2397
-58.0963
-56.6342
-55.6324
-55.1498
-54.7467
-54.3511
-54.3144
-54.1794
-54.3986
-55.1268
-55.9235
-67.1336
-67.7819
-66.4583
-65.3684
-64.5324
-64.2494
-63.3588
-64.013
-63.5099
-62.4405
-59.9275
-58.0433
-57.0303
-56.4443
-55.7619
-54.9853
-54.8774
-54.7011
-54.7828
-55.4863
-56.3142
-57.5777
-67.4152
-67.4385
-67.0656
-66.3273
-66.12
-65.8149
-67.9468
-68.0785
-65.3841
-63.0162
-60.785
-59.3815
-58.6366
-57.7435
-56.7907
-56.0567
-55.6212
-55.2429
-55.1885
-55.6939
-56.5105
-57.5301
-58.6421
-67.2458
-67.1102
-67.142
-67.3498
-68.0151
-69.8452
-69.1076
-66.5334
-64.0802
-62.6272
-61.2842
-60.3934
-59.3446
-58.4664
-57.3386
-56.6955
-56.0642
-55.6437
-55.6083
-55.8302
-56.5397
-57.5945
-58.4585
-59.3253
-66.541
-66.5127
-66.7426
-67.3359
-67.6849
-66.491
-65.2035
-63.1205
-62.0567
-60.9874
-60.1251
-59.6646
-58.739
-57.8902
-57.1475
-56.5123
-56.1235
-55.8342
-56.1907
-56.8082
-57.3093
-58.1356
-58.5279
-58.7951
-50.2579
-50.2903
-50.0943
-50.0445
-50.451
-50.5036
-50.2923
-50.1857
-50.0254
-50.4668
-50.5164
-50.4566
-50.2695
-50.1629
-49.9565
-50.6039
-50.6365
-50.5816
-50.4856
-50.2974
-50.0984
-49.8794
-50.6978
-50.695
-50.5954
-50.5118
-50.3847
-50.2276
-50.0154
-49.8496
-50.6649
-50.8179
-50.7048
-50.633
-50.4748
-50.3231
-50.2359
-50.0377
-49.9174
-50.7387
-50.8189
-50.753
-50.6945
-50.717
-50.4876
-50.3758
-50.2368
-50.0847
-49.9243
-50.7791
-50.9603
-50.9348
-50.8871
-50.8085
-50.6735
-50.5586
-50.4701
-50.2754
-50.116
-49.9489
-50.9518
-51.0635
-51.0449
-51.0673
-50.9635
-50.9561
-50.7359
-50.6037
-50.4346
-50.3039
-50.1247
-50.0813
-51.1919
-51.2749
-51.3815
-51.3388
-51.2941
-51.0855
-50.9452
-50.8267
-50.7325
-50.5813
-50.4262
-50.3493
-50.2331
-51.6078
-51.6609
-51.5941
-51.6021
-51.5137
-51.2998
-51.2243
-51.0735
-50.9933
-50.7361
-50.6188
-50.5483
-50.4828
-50.4196
-52.0781
-51.9582
-52.0293
-51.8595
-51.857
-51.7297
-51.5552
-51.4032
-51.2718
-51.0445
-50.8603
-50.8182
-50.6691
-50.578
-52.4996
-52.621
-52.4311
-52.4555
-52.2464
-52.089
-52.0154
-51.8376
-51.6069
-51.4365
-51.2762
-51.0729
-50.9733
-50.8877
-50.9378
-53.1805
-53.1686
-52.99
-52.7703
-52.8291
-52.7315
-52.5307
-52.3096
-52.0956
-51.7783
-51.5785
-51.4279
-51.2542
-51.2358
-51.1382
-51.4217
-54.273
-53.9992
-53.9316