/*--------------------------------*- C++ -*----------------------------------*\
  =========                 |
  \\      /  F ield         | OpenFOAM: The Open Source CFD Toolbox
   \\    /   O peration     | Website:  https://openfoam.org
    \\  /    A nd           | Version:  7
     \\/     M anipulation  |
\*---------------------------------------------------------------------------*/
FoamFile
{
    version     2.0;
    format      ascii;
    class       surfaceScalarField;
    location    "8";
    object      phi;
}
// * * * * * * * * * * * * * * * * * * * * * * * * * * * * * * * * * * * * * //

dimensions      [0 3 -1 0 0 0 0];

internalField   nonuniform List<scalar> 
54184
(
-3.13178e-05
-0.000679045
-5.93208e-05
-2.00883e-05
-0.00222735
-0.000121632
-4.11957e-05
-0.000633519
-6.53717e-05
-4.0399e-05
-0.000650445
-6.38783e-05
-0.000223385
-0.00465344
9.96729e-06
-2.62334e-05
-0.00225322
-0.00013916
-3.19323e-06
-0.00304094
-0.000106764
-4.62436e-05
-0.00058394
-6.48564e-05
-4.78625e-05
-0.000597804
-7.01495e-05
-3.16861e-05
-0.000131595
-6.53137e-05
-0.000303838
-0.00648172
0.000314479
-0.000126895
-0.00469238
6.06374e-05
-0.000108658
-0.00567811
1.82579e-05
-2.69261e-05
-0.00228811
-0.000147459
-7.19239e-05
-0.00303848
-0.000117553
1.77273e-05
-0.00326311
-0.000108572
-4.5444e-05
-0.000536329
-6.41307e-05
-5.02492e-05
-0.000542758
-6.96536e-05
-4.36078e-05
-8.63311e-05
-7.18053e-05
-5.06133e-05
0.000416243
-5.45004e-05
-0.00036743
-0.00758554
0.000981535
-0.000242027
-0.00645616
0.000324132
-0.000249081
-0.00602106
0.000319684
-0.000212077
-0.00459572
1.47827e-05
-0.000247444
-0.00551907
7.71187e-05
-4.48535e-05
-0.00697462
-1.23365e-05
-4.98793e-05
-0.00230262
-0.000156698
-8.46766e-05
-0.00303656
-0.000114952
-1.67533e-05
-0.00328208
-0.00012544
-2.98836e-05
-0.00354532
-4.5696e-05
-4.42061e-05
-0.000490918
-6.35302e-05
-5.13171e-05
-0.000486586
-6.89858e-05
-3.29427e-05
-5.14629e-05
-7.15791e-05
-5.06312e-05
0.00045805
-6.29809e-05
-0.000159527
0.000544118
-2.52877e-05
-0.000417112
-0.00741296
0.00144
-0.000577875
-0.00723548
0.00112191
-0.000275208
-0.00752853
0.000948467
-0.000457398
-0.00629771
0.000375675
-0.000370428
-0.00596088
0.000386938
-0.00014412
-0.0066573
0.000268946
-0.000252043
-0.00447312
2.59977e-05
-0.000268024
-0.005315
-5.93347e-06
-5.60318e-05
-0.00683972
-1.8499e-05
-9.37268e-06
-0.00688861
3.28803e-05
-5.16407e-05
-0.00230754
-0.000177214
-0.000124728
-0.00300077
-0.000119081
2.63429e-05
-0.00333383
-0.000122481
-2.39187e-05
-0.00362822
-6.92583e-05
-0.000248993
-0.00404566
9.60108e-05
-4.51587e-05
-0.000445267
-6.31097e-05
-4.88137e-05
-0.000433139
-6.81628e-05
-3.63627e-05
-1.27069e-05
-7.13791e-05
-5.25107e-05
0.000505165
-6.61831e-05
-0.000163369
0.000675555
-3.10477e-05
-0.000230782
-0.000331847
-9.47544e-07
-0.000404521
-0.00742427
0.00165221
-0.000646351
-0.00730901
0.00164766
-0.000316614
-0.00769772
0.00138556
-0.000601337
-0.00705574
0.00111939
-0.000411699
-0.00744221
0.00107686
-9.35553e-05
-0.00722773
0.000896654
-0.000523435
-0.00609776
0.000384413
-0.000434484
-0.00582669
0.00040794
-0.000185296
-0.00649063
0.000349537
-0.000135649
-0.00777099
0.000227517
-0.00027255
-0.00430228
1.93196e-05
-0.000330883
-0.00508166
-1.19307e-06
-0.000102764
-0.00668449
-3.20571e-05
-4.94508e-05
-0.00690697
2.53954e-05
-0.000124912
-0.00690902
0.000193114
-7.1172e-05
-0.00229322
-0.000189325
-0.00012297
-0.00297098
-0.00013285
-7.02631e-06
-0.00336304
-0.00011921
-6.27638e-05
-0.00366003
-8.04117e-05
-0.000297795
-0.00406545
8.49629e-05
-0.000246535
-0.00409097
0.000146395
-4.53837e-05
-0.000399822
-6.31206e-05
-4.60236e-05
-0.000382723
-6.75022e-05
-4.30117e-05
3.31932e-05
-7.10512e-05
-5.14977e-05
0.000553958
-6.86744e-05
-0.000150239
0.000794075
-3.44645e-05
-0.000257811
-0.000104246
-8.36782e-07
-0.00025732
0.000268126
4.75577e-06
-0.000382582
-0.00719577
0.00185728
-0.0005018
-0.00758828
0.00182132
-0.000322127
-0.00733505
0.00164438
-0.000579876
-0.00729502
0.0016045
-0.00043715
-0.00759463
0.00157002
-9.92126e-05
-0.00791649
0.00139827
-0.000698795
-0.00687637
0.00116772
-0.000387152
-0.00745771
0.00108755
-0.000228507
-0.00711157
0.00100392
-0.000220411
-0.00690027
0.000885288
-0.000602074
-0.00583616
0.000433117
-0.000487072
-0.00571352
0.000427435
-0.000364741
-0.00619969
0.000378972
-0.000174928
-0.00761967
0.000323693
-0.000125437
-0.00822144
0.000349457
-0.000316735
-0.00409627
1.05809e-05
-0.000326109
-0.00487256
1.33631e-05
-0.000173843
-0.00645895
-5.99182e-05
-0.000110993
-0.00691067
1.98662e-05
-0.000355568
-0.0069888
0.000162942
-0.000140979
-0.00694473
0.000288703
-8.70974e-05
-0.0022549
-0.000202765
-0.00015704
-0.0029152
-0.000134089
-7.71691e-05
-0.00334486
-0.000116875
-1.54013e-06
-0.00374314
-8.60631e-05
-0.000166351
-0.0041949
6.51529e-05
-0.000420888
-0.00400271
0.000159772
-0.000406121
-0.00340512
0.000124996
-4.61087e-05
-0.000353748
-6.33801e-05
-4.12655e-05
-0.00033747
-6.71084e-05
-4.68457e-05
8.31864e-05
-7.06497e-05
-5.64605e-05
0.000609647
-7.02799e-05
-0.00013761
0.000900555
-3.75445e-05
-0.000256438
0.000118897
-1.17026e-06
-0.000282354
0.000544216
5.42681e-06
-0.000275298
-0.000380773
5.50937e-06
-0.000358427
-0.00678031
0.00218302
-0.000401759
-0.00726178
0.00198235
-0.000247255
-0.00711735
0.00187678
-0.000595587
-0.00758632
0.0018262
-0.000355183
-0.00741498
0.00181928
-0.000188813
-0.00738297
0.0016681
-0.000711098
-0.00726925
0.00163729
-0.000300509
-0.0076125
0.00153573
-0.000219551
-0.00789983
0.00154441
-4.66924e-05
-0.00744054
0.00136521
-0.000772444
-0.00676532
0.00117198
-0.000507776
-0.00740127
0.00113198
-0.00031487
-0.00711719
0.00104329
-0.000163486
-0.00689757
0.000989781
-0.000340527
-0.00700727
0.000878987
-0.000660171
-0.00556838
0.000449635
-0.000495213
-0.00562423
0.000512936
-0.000385697
-0.00597436
0.000413962
-0.000158933
-0.00750228
0.000309524
-0.000337156
-0.00837215
0.000455991
-0.000237997
-0.0078803
0.000461984
-0.000326739
-0.00391298
2.72905e-05
-0.00041051
-0.00462204
1.35261e-05
-0.000290037
-0.00621405
-1.86632e-05
1.73892e-05
-0.00697897
-1.05501e-05
-9.97467e-05
-0.00717371
0.000138179
-0.000382641
-0.00709319
0.000273162
-0.000455946
-0.00610942
0.000274105
-9.00471e-05
-0.00220605
-0.000211665
-0.000156265
-0.00285835
-0.000144608
-0.000114033
-0.00330896
-0.000102797
-4.94869e-05
-0.00377436
-9.26244e-05
-0.000221717
-0.0042402
4.33397e-05
-0.000385042
-0.00396329
0.000154342
-0.000442132
-0.00322671
0.000141139
-0.000455588
-0.00234855
0.000101079
-4.69062e-05
-0.000306625
-6.3831e-05
-3.92759e-05
-0.000294616
-6.69581e-05
-5.22577e-05
0.000138536
-7.02002e-05
-5.61433e-05
0.00066598
-7.08395e-05
-0.000126084
0.000996864
-4.05047e-05
-0.00025009
0.000333485
-2.04198e-06
-0.000281822
0.000819649
5.21954e-06
-0.00030654
-7.42074e-05
5.40132e-06
-0.000213003
-0.000771336
9.76317e-06
-0.000289061
-0.00612024
0.00269425
-0.000370286
-0.00609496
0.00253412
-0.000469549
-0.00665695
0.00236561
-0.000133137
-0.00664376
0.00218063
-0.000555172
-0.00727064
0.00199437
-0.000192089
-0.00726473
0.00196664
-0.000126439
-0.00685556
0.00186602
-0.000661327
-0.00763615
0.00182786
-0.000361045
-0.0073809
0.00185265
-0.00024486
-0.00738517
0.00184679
-7.43964e-06
-0.00768519
0.00171832
-0.000765147
-0.00723321
0.00161044
-0.000491704
-0.00752917
0.00153788
-0.000217013
-0.00797689
0.00151493
-5.53419e-05
-0.0075314
0.00152712
-0.00028257
-0.00668482
0.00119253
-0.000946449
-0.00652805
0.00119928
-0.000650315
-0.00726921
0.00119502
-0.00036861
-0.00705311
0.00105081
-0.000143314
-0.00681496
0.000945068
-0.000357988
-0.00698604
0.000989386
-0.000135713
-0.00731352
0.000761951
-0.000603225
-0.00539334
0.000415422
-0.000678492
-0.00545388
0.000547265
-0.000492758
-0.00573653
0.000477827
-0.000154642
-0.00726607
0.000349782
-0.000321836
-0.00826038
0.000419843
-0.000252661
-0.00811212
0.00055783
-0.000370478
-0.00700338
0.000439972
-0.000307228
-0.00378018
4.56229e-05
-0.000439743
-0.00437008
5.88101e-05
-0.000377786
-0.00596461
2.784e-05
-0.000146162
-0.00689596
-4.98916e-06
-0.000251776
-0.00728731
0.000133108
-0.000454255
-0.0071577
0.000271893
-0.000426154
-0.00615136
0.000299122
-0.000450206
-0.00532224
0.000241327
-0.00010137
-0.00214116
-0.000216142
-0.000166128
-0.00279005
-0.000153114
-0.000154855
-0.00325042
-0.000100557
-0.000127758
-0.00370721
-9.83333e-05
-0.000197891
-0.00428207
2.10568e-05
-0.000371166
-0.00394378
0.000144906
-0.000451383
-0.00304254
0.000139738
-0.000509572
-0.00210516
0.000100779
-0.00041598
-0.00245234
0.000100181
-4.83523e-05
-0.000257732
-6.43028e-05
-3.9089e-05
-0.000252288
-6.707e-05
-5.62486e-05
0.000197555
-6.97286e-05
-5.75927e-05
0.000723482
-7.01094e-05
-0.000109128
0.00107714
-4.19858e-05
-0.000243634
0.000540641
-4.02633e-06
-0.000279953
0.00109306
4.49701e-06
-0.000307554
0.000233666
4.90109e-06
-0.000240367
-0.000535227
9.65944e-06
-0.00017745
-0.00146264
1.48858e-05
-0.000192997
-0.00563147
0.00295935
-0.00030813
-0.00622874
0.00266287
-0.000185303
-0.00593947
0.00270493
-0.0004813
-0.00608911
0.00277845
-8.73445e-05
-0.00612474
0.00252664
-0.00038942
-0.00677156
0.00237049
-7.01095e-05
-0.00673693
0.00233681
-5.10361e-05
-0.0064731
0.00216056
-0.000544413
-0.00734731
0.00201903
-0.000470171
-0.00718691
0.00202567
-0.000326556
-0.00685263
0.0020454
4.28821e-05
-0.00672595
0.00180749
-0.000857218
-0.00757833
0.00187824
-0.000526946
-0.00736084
0.00184304
-0.000313196
-0.00729437
0.00185804
-0.000113381
-0.00766855
0.00188819
-0.000148289
-0.00695254
0.00166852
-0.000946845
-0.00721283
0.00159409
-0.000794735
-0.00732192
0.00154761
-0.000441081
-0.00789257
0.00152603
-3.4298e-05
-0.00761668
0.0014912
-0.00023034
-0.00665158
0.00136622
-5.83004e-06
-0.00717327
0.000998751
-0.000823101
-0.00638065
0.00119365
-0.000900738
-0.00706689
0.00121921
-0.00050185
-0.00697278
0.00112379
-0.000262102
-0.00661838
0.000961685
-0.000475444
-0.0068399
0.000952536
-0.000203502
-0.00728779
0.000914495
-5.19225e-05
-0.00718726
0.00066677
-0.000610753
-0.00521825
0.00036621
-0.000729259
-0.00529543
0.000546489
-0.000649352
-0.00545719
0.000539485
-0.000401454
-0.0069296
0.000396648
-0.000277995
-0.00829507
0.000410694
-0.000475964
-0.00821735
0.000546781
-0.00025741
-0.00709577
0.000481475
-0.000401421
-0.00684337
0.000368077
-0.000343709
-0.00362005
2.19273e-05
-0.000446735
-0.00414276
9.89097e-05
-0.000443711
-0.00563819
2.12465e-05
-0.000289975
-0.00674782
4.191e-05
-0.000225906
-0.00737376
0.000109476
-0.000350172
-0.00729798
0.000252401
-0.000454182
-0.00617369
0.00029703
-0.000492439
-0.00530302
0.000262776
-0.000414927
-0.00386416
0.000225433
-0.000126022
-0.00205326
-0.000215079
-0.000182932
-0.00270038
-0.000161966
-0.000203217
-0.00315663
-9.99259e-05
-0.000112696
-0.00365327
-9.93929e-05
-0.000178958
-0.00429937
-1.12061e-05
-0.000373185
-0.00392314
0.000129962
-0.000488747
-0.00282535
0.00013651
-0.000507896
-0.00186366
9.85788e-05
-0.000465562
-0.0022228
9.64352e-05
-0.0003975
-0.00311813
0.000108584
-4.77304e-05
-0.000209198
-6.47626e-05
-3.95431e-05
-0.000209812
-6.7236e-05
-5.80316e-05
0.000257808
-6.92909e-05
-5.70402e-05
0.000779787
-6.89937e-05
-0.000106756
0.00115617
-4.2389e-05
-0.000236535
0.000739715
-4.52463e-06
-0.000277906
0.00136411
2.83359e-06
-0.00030579
0.000540107
3.84661e-06
-0.000243585
-0.000295898
9.15748e-06
-0.000202952
-0.00126618
1.61503e-05
-0.000138898
-0.00225468
2.2082e-05
-0.000119239
-0.00519842
0.00324234
-0.000262704
-0.00564831
0.00293569
-0.000163466
-0.00561372
0.00293269
-0.000415141
-0.00632013
0.0029034
-5.24185e-05
-0.00604882
0.0027373
7.5757e-06
-0.00589055
0.00266153
-0.000329597
-0.00610843
0.00279036
-3.69274e-05
-0.00614602
0.00276656
-4.97358e-05
-0.00618775
0.00252235
-0.000550527
-0.00666212
0.00233882
-0.000373481
-0.00679829
0.00233516
-0.000319767
-0.00651556
0.00237247
0.000119289
-0.00635699
0.00216493
-0.000767983
-0.00745229
0.0020031
-0.000543586
-0.00714129
0.00199005
-0.000267065
-0.00691592
0.00204283
-3.20038e-05
-0.006787
0.00202507
2.12102e-05
-0.00675546
0.00173409
-0.000787009
-0.00771343
0.00189392
-0.000684844
-0.00745996
0.00186747
-0.00050103
-0.00724385
0.00185248
-0.000139641
-0.0075828
0.00187762
-0.000109227
-0.00702916
0.0018437
2.81595e-05
-0.00719119
0.00154339
-0.000934156
-0.00709626
0.00159993
-0.000818149
-0.0073768
0.00156639
-0.000486239
-0.00789765
0.00153707
-0.000151867
-0.00768677
0.00148589
-0.000306266
-0.0067636
0.00143404
-0.0001805
-0.00685965
0.0010296
0.000119438
-0.00708487
0.00109463
-0.000883587
-0.00616581
0.00115388
-0.000903661
-0.00691998
0.00122115
-0.000725123
-0.00683116
0.00115336
-0.000417031
-0.00647869
0.000999679
-0.000375493
-0.00674459
0.000963873
-0.000342582
-0.00736895
0.000900319
2.57582e-05
-0.00733545
0.000779525
-0.000259944
-0.0064801
0.000615453
-0.000629204
-0.00507632
0.000310356
-0.000667364
-0.00525881
0.000550217
-0.000710763
-0.00524294
0.000599296
-0.000367719
-0.00678125
0.000468885
-0.000307106
-0.00824941
0.000432186
-0.000354497
-0.00830804
0.000505709
-0.000284716
-0.0071915
0.000473047
-0.000427738
-0.00683458
0.000407982
-0.000228879
-0.00661457
0.000403525
-0.000354574
-0.00344874
-6.63245e-06
-0.000465219
-0.00389023
5.16849e-05
-0.000501943
-0.00527484
3.42801e-05
-0.000334498
-0.00651974
1.49683e-05
-0.000336825
-0.00726612
9.21361e-05
-0.000443647
-0.00733582
0.000217777
-0.000547835
-0.00614812
0.000285919
-0.000514592
-0.00526496
0.000265661
-0.000455106
-0.0038721
0.000260254
-0.000476925
-0.00395476
0.000202978
-0.000140179
-0.0019578
-0.000210644
-0.000192107
-0.00259886
-0.000164035
-0.000196617
-0.00307677
-0.000103244
-0.000121905
-0.00358234
-0.000105993
-0.000204405
-0.00427192
-2.91986e-05
-0.000363372
-0.00391517
0.000107665
-0.000492692
-0.00261336
0.000132754
-0.000514279
-0.00161242
9.3756e-05
-0.000463335
-0.00199794
9.34674e-05
-0.000436093
-0.00290272
0.000114168
-0.000286064
-0.00369035
0.000150084
-4.62501e-05
-0.000161895
-6.50443e-05
-3.72423e-05
-0.000170006
-6.73258e-05
-6.02245e-05
0.000319865
-6.90686e-05
-6.03022e-05
0.00083855
-6.77514e-05
-9.64891e-05
0.001226
-4.23308e-05
-0.000228296
0.000932276
-6.65438e-06
-0.000275402
0.00163287
2.11736e-06
-0.000299496
0.000840374
2.06219e-06
-0.000247241
-5.31766e-05
8.36598e-06
-0.000209864
-0.00106333
1.61659e-05
-0.000163297
-0.00209973
2.44924e-05
-0.000118187
-0.00255465
3.62315e-05
-0.000126413
-0.00492706
0.00358716
-0.000171261
-0.00502217
0.0035092
-0.000230471
-0.00517128
0.00323107
-4.76044e-05
-0.0053205
0.00317034
-0.000348539
-0.00567202
0.00324071
-5.45431e-05
-0.00560416
0.00292825
1.77019e-05
-0.00564111
0.00291023
-0.000481785
-0.00625378
0.00294506
-0.000118011
-0.00608592
0.00302159
-7.30743e-05
-0.00581285
0.00268294
7.73967e-05
-0.00618542
0.00261763
-0.000456376
-0.00614396
0.00278907
-0.000232583
-0.00621045
0.00271389
-0.000280016
-0.00623147
0.00277053
9.42531e-05
-0.00628342
0.00247491
-0.00061457
-0.00669412
0.00237253
-0.000384021
-0.00691126
0.00229222
-0.000221437
-0.00656205
0.00233602
-2.68856e-06
-0.00641143
0.0023976
8.70259e-05
-0.00624538
0.00213727
-0.000793254
-0.00743581
0.00201772
-0.000543032
-0.00725919
0.00197918
-0.000409315
-0.00704337
0.00202578
-0.000156825
-0.00677922
0.00205224
-0.00011994
-0.00668685
0.00196718
-2.71021e-05
-0.00657395
0.00182267
-0.00110071
-0.00749873
0.00190458
-0.000728979
-0.00752852
0.00187331
-0.000441754
-0.00731231
0.00189144
-0.000186056
-0.00754475
0.00184862
-0.000140516
-0.00716417
0.00184689
-0.000251885
-0.00696137
0.00168526
0.000121518
-0.00693925
0.0015966
-0.00104105
-0.00695573
0.00155918
-0.000822935
-0.0074392
0.0015816
-0.00064894
-0.00793367
0.00152623
-0.000278009
-0.00776054
0.00147183
-0.000391931
-0.00667248
0.00141121
-0.000311791
-0.00664258
0.00118618
9.71079e-05
-0.00718882
0.0010622
-9.39149e-05
-0.00574879
0.00116117
-0.000875461
-0.00600575
0.0010878
-0.00065307
-0.00697135
0.00119095
-0.000829935
-0.00666564
0.00117479
-0.000461093
-0.00629476
0.00106281
-0.00040983
-0.00657865
0.000936459
-0.000333808
-0.00732879
0.000903023
-2.29937e-05
-0.00748924
0.000792382
-0.000252722
-0.00655229
0.000676697
-0.00014181
-0.0069636
0.000606732
-0.000615954
-0.0049654
0.000262704
-0.000700031
-0.00523177
0.000518123
-0.000694804
-0.00508824
0.000588372
-0.000599926
-0.00644516
0.00052863
-0.000476438
-0.00810393
0.000463017
-0.000430753
-0.00833658
0.00044783
-0.000276931
-0.00742062
0.000463925
-0.000393104
-0.00690638
0.000423361
-0.000257482
-0.00686048
0.000456265
-0.000360718
-0.00531551
0.000468799
-0.000375911
-0.00331096
3.87025e-05
-0.000437443
-0.0036587
7.17167e-06
-0.000500895
-0.00503587
0.000116995
-0.000393915
-0.00622221
8.75905e-06
-0.000378328
-0.00715224
7.50106e-05
-0.000422421
-0.00737155
0.00018691
-0.000487537
-0.0062043
0.000268798
-0.000570789
-0.00519364
0.000271114
-0.000502215
-0.00382886
0.000261302
-0.000511306
-0.00384268
0.000223382
-0.000374633
-0.00460771
0.00021053
-0.000136769
-0.00186317
-0.000201948
-0.00019887
-0.00248444
-0.000163445
-0.000220297
-0.00296999
-0.000110743
-0.000205675
-0.00343413
-0.000106074
-0.000209975
-0.00421307
-5.13544e-05
-0.000345596
-0.00391285
8.57773e-05
-0.000498826
-0.00241418
0.000131911
-0.000524848
-0.00134564
9.13293e-05
-0.000473799
-0.00176181
8.41894e-05
-0.000450333
-0.00267618
0.0001074
-0.000338764
-0.00356406
0.000163343
-0.00020038
-0.00343594
0.000199732
-4.61494e-05
-0.000114584
-6.51446e-05
-3.97242e-05
-0.000128152
-6.71742e-05
-6.29075e-05
0.000384072
-6.86259e-05
-6.19073e-05
0.000898848
-6.7459e-05
-9.69177e-05
0.00129691
-4.17474e-05
-0.000220355
0.00111774
-7.44187e-06
-0.000273606
0.00190043
-6.10511e-07
-0.000292312
0.00113458
2.26839e-07
-0.000250315
0.00019166
7.54076e-06
-0.000214611
-0.000856216
1.5867e-05
-0.000174397
-0.00193337
2.42068e-05
-0.000136206
-0.0024338
3.98438e-05
-6.03303e-05
-0.00292927
3.69722e-05
-0.000200319
-0.00479223
0.00394339
-0.000203862
-0.00489811
0.00362207
2.95894e-05
-0.0048986
0.0035569
-0.000193753
-0.00504977
0.00348839
9.89386e-06
-0.00505712
0.00340845
-0.000272345
-0.00521708
0.00356755
-6.54365e-05
-0.00524045
0.00316192
7.9043e-05
-0.00527189
0.00314067
-0.00051095
-0.00562821
0.00326396
-0.000187927
-0.00553752
0.00324399
-9.32142e-05
-0.00558814
0.00289542
7.76902e-05
-0.00560855
0.00291767
-0.000440939
-0.00625439
0.00289356
-0.000212168
-0.00613537
0.00297409
-0.000222551
-0.00582385
0.00297512
8.56731e-05
-0.00608351
0.00258961
0.000125836
-0.00605729
0.00260165
-0.000541519
-0.00616933
0.00276727
-0.000223089
-0.00630087
0.00271856
-0.000255932
-0.00620509
0.00272201
9.05075e-06
-0.0062697
0.00274507
0.000138542
-0.0061976
0.0024702
-0.000779798
-0.00663158
0.00239952
-0.000468547
-0.00689037
0.00227717
-0.000392343
-0.0066179
0.0023311
-0.000153641
-0.00645352
0.00237492
1.46629e-05
-0.00638252
0.00240014
-9.59022e-05
-0.00599764
0.00213272
-0.00106607
-0.0074238
0.00205894
-0.00074026
-0.00724042
0.00201024
-0.000441695
-0.00709584
0.00203159
-0.000247046
-0.00674032
0.00204787
-0.000111992
-0.00669934
0.00203621
-0.000284974
-0.00661779
0.00204411
0.000169672
-0.00640049
0.00187064
-0.00108775
-0.00739091
0.00191099
-0.000659014
-0.00766673
0.00187887
-0.000581551
-0.00738704
0.00188065
-0.00034537
-0.00743829
0.00185234
-0.000266603
-0.00727545
0.00183457
-0.000340236
-0.00681227
0.00172623
3.00668e-05
-0.00684743
0.00166048
9.73415e-05
-0.00615258
0.00152985
-0.00109946
-0.00680571
0.00157898
-0.000764523
-0.0072902
0.00152164
-0.000821137
-0.00793108
0.00157022
-0.000452506
-0.00776629
0.00152339
-0.000430795
-0.00661363
0.00143394
-0.000267926
-0.00647793
0.00118068
-1.45813e-05
-0.00711256
0.0011015
-1.51895e-06
-0.00619306
0.00125527
3.93921e-05
-0.00577396
0.00108214
-0.000843285
-0.005826
0.000975454
-0.000932156
-0.00682949
0.00117807
-0.000743665
-0.00661522
0.00118939
-0.000717383
-0.00612424
0.00112173
-0.000542564
-0.00645244
0.00100272
-0.000315805
-0.00739631
0.000889027
2.63074e-05
-0.00768309
0.000793633
-0.000116637
-0.00680259
0.000766214
-6.78954e-05
-0.00711098
0.000634485
-0.000223034
-0.00660441
0.000725891
-0.000628126
-0.00485543
0.000187619
-0.000656447
-0.00523646
0.0004864
-0.000810141
-0.00488709
0.000626218
-0.000644384
-0.00610096
0.00049464
-0.000526404
-0.00786285
0.000435621
-0.000495279
-0.00824602
0.000445312
-0.000318426
-0.00757087
0.000428968
-0.000547543
-0.00689488
0.000429174
-0.000488554
-0.00691466
0.000463886
-0.000392915
-0.00548064
0.000503004
-0.000403325
-0.00511946
0.000441176
-0.000356618
-0.00314875
4.00109e-06
-0.000448833
-0.00340219
3.21607e-05
-0.000513231
-0.00467981
-5.59494e-05
-0.000517664
-0.00589108
9.78577e-05
-0.000457583
-0.00694111
4.5236e-05
-0.000383003
-0.00739862
0.000139497
-0.000524853
-0.00623352
0.000242161
-0.000650636
-0.00509171
0.000292647
-0.000490712
-0.00373919
0.000198361
-0.000438204
-0.0038129
0.000219399
-0.000439248
-0.00449766
0.000213812
-0.000234029
-0.00522442
0.000225699
-0.000128773
-0.00177942
-0.000192288
-0.00020619
-0.002353
-0.000166916
-0.000255422
-0.0028273
-0.000113622
-0.000186244
-0.00331232
-0.00010822
-0.000209208
-0.00413863
-6.82222e-05
-0.000342924
-0.00389804
5.64043e-05
-0.000527805
-0.00220015
0.000125944
-0.000515956
-0.00107804
8.79569e-05
-0.000465849
-0.00153752
8.25759e-05
-0.000496026
-0.00241143
0.000100859
-0.000368366
-0.00341865
0.000155951
-0.000220956
-0.00340129
0.000213449
-7.88267e-05
-0.00363775
0.000206937
-4.71349e-05
-6.62342e-05
-6.50235e-05
-4.2657e-05
-8.38053e-05
-6.68344e-05
-6.20299e-05
0.000446884
-6.79554e-05
-6.37707e-05
0.000961481
-6.74885e-05
-9.59892e-05
0.00136683
-4.13846e-05
-0.000213627
0.0012984
-8.77985e-06
-0.000269162
0.00216431
-2.15308e-06
-0.000286628
0.00142241
-1.81733e-06
-0.000253167
0.000438475
6.57933e-06
-0.000212922
-0.000651004
1.52505e-05
-0.000185103
-0.00175621
2.38104e-05
-0.00014646
-0.00230273
3.96024e-05
-8.43862e-05
-0.00284575
4.07075e-05
-9.79787e-06
-0.00305053
2.17338e-05
-0.000117404
-0.00466176
0.00397411
-0.000215607
-0.00481517
0.00393443
5.91885e-05
-0.00461125
0.00394112
-0.000276773
-0.0048491
0.00363963
-4.51314e-05
-0.00483859
0.00361709
3.91108e-05
-0.0046658
0.00360906
-0.00028561
-0.00503924
0.00383478
-5.21619e-05
-0.00500328
0.00342128
0.000154701
-0.00500886
0.00335878
-0.000513451
-0.00520277
0.00357538
-0.000153075
-0.00518631
0.00347855
-9.12935e-05
-0.00526999
0.00315809
6.89102e-05
-0.00524422
0.00309335
-0.000496298
-0.00557701
0.0032666
-0.000219632
-0.00548902
0.00322292
-0.000125959
-0.00563694
0.00319619
-2.81477e-05
-0.00549743
0.00289812
0.000230069
-0.00561013
0.00287821
-0.000621482
-0.00619028
0.00294874
-0.000290144
-0.00614582
0.00297106
-0.00023172
-0.00577138
0.00289741
-4.69035e-05
-0.00591308
0.00286065
0.000144646
-0.00602263
0.00254885
0.000252049
-0.00577187
0.00250397
-0.000590374
-0.00630393
0.00275951
-0.000560192
-0.00616636
0.0027244
-0.000457402
-0.00613828
0.00271682
-0.000238836
-0.00619272
0.00273022
3.79961e-05
-0.00620956
0.00273369
-4.78231e-05
-0.00592569
0.00243434
-0.000868309
-0.00673595
0.00239859
-0.000675819
-0.00685814
0.00230284
-0.000462292
-0.00663846
0.00231832
-0.000279014
-0.00646816
0.00237771
-9.90953e-05
-0.00640561
0.00238511
-0.00018943
-0.00607662
0.00238358
0.000124406
-0.00584507
0.00221247
-0.000954501
-0.00751534
0.00207629
-0.000647992
-0.00725906
0.00206656
-0.000525943
-0.00715114
0.00200993
-0.00037768
-0.00677269
0.00209626
-0.00013461
-0.00683494
0.00205148
-0.000408841
-0.00654282
0.00202984
0.000153902
-0.006511
0.00203079
0.000210169
-0.00581807
0.00176968
-0.00107788
-0.00731022
0.00193009
-0.00107798
-0.00733198
0.0018897
-0.000805082
-0.00741584
0.00189162
-0.000409544
-0.00746119
0.00186059
-0.000290128
-0.00738256
0.00181877
-0.000326708
-0.00666452
0.00174562
9.3775e-06
-0.00677148
0.00162632
0.000159198
-0.00629333
0.00164052
0.00036865
-0.00520519
0.00138657
-0.000907574
-0.00684668
0.00156173
-0.00116601
-0.00707974
0.00160237
-0.000858803
-0.00767061
0.00137631
-0.000585425
-0.00783467
0.00150664
-0.000393299
-0.00676745
0.00152794
-0.00019133
-0.00651187
0.00134341
1.83578e-05
-0.00691514
0.000991202
0.000115218
-0.00661925
0.00129584
-2.08374e-05
-0.00576927
0.00120352
5.47565e-05
-0.00602976
0.00104672
-0.000843981
-0.00566422
0.000881322
-0.000774999
-0.00681418
0.00107869
-0.00103921
-0.0064081
0.00120002
-0.000463113
-0.00630046
0.00118434
-0.000460512
-0.00642684
0.00103024
-0.000438469
-0.00736359
0.000913196
-0.000126219
-0.00781292
0.000826655
-0.000309496
-0.00699091
0.000743908
-0.000385027
-0.00714115
0.000692863
-0.000219069
-0.00689294
0.000749163
-0.000332777
-0.00552402
0.000725203
-0.000587366
-0.00474445
0.000100901
-0.000697157
-0.0052253
0.000424787
-0.000782651
-0.00475737
0.000626102
-0.000549108
-0.0059507
0.000507403
-0.000627498
-0.00761356
0.000415272
-0.000459729
-0.00811317
0.000379503
-0.000363091
-0.00767365
0.00038633
-0.00052857
-0.00703336
0.000445385
-0.000451788
-0.00700295
0.000478532
-0.000319585
-0.00563164
0.000496263
-0.000495315
-0.00503159
0.000471197
-0.000267619
-0.00546148
0.000367875
-0.000337156
-0.00295979
-4.30602e-05
-0.000442237
-0.0031261
-3.60455e-05
-0.000523172
-0.00434267
-3.72303e-05
-0.00049781
-0.00557541
-6.00543e-05
-0.000445081
-0.00662201
1.46309e-05
-0.000459013
-0.00731558
7.8284e-05
-0.000568677
-0.0062472
0.00019405
-0.000627762
-0.00502541
0.000287669
-0.000488088
-0.00366921
0.000244903
-0.000533101
-0.00371451
0.000137049
-0.000450821
-0.00439814
0.000202334
-0.000263488
-0.00520075
0.000232666
-8.6049e-05
-0.00475727
0.000308658
-0.000129824
-0.0016915
-0.000182009
-0.000216882
-0.00219999
-0.000171073
-0.000257969
-0.00267265
-0.000125625
-0.000218515
-0.0031532
-0.000117999
-0.000267426
-0.00399859
-7.68193e-05
-0.000363925
-0.00385013
3.41725e-05
-0.00052852
-0.00199752
0.000113136
-0.000520531
-0.000797584
7.9388e-05
-0.000481212
-0.00129569
7.41686e-05
-0.000461175
-0.00217818
9.7575e-05
-0.000398715
-0.00325418
0.000150006
-0.000241191
-0.00335595
0.000205337
-0.000129444
-0.00359968
0.000220435
2.35635e-05
-0.00340189
0.000157065
-4.65661e-05
-1.83617e-05
-6.48648e-05
-4.6726e-05
-3.56997e-05
-6.64032e-05
-6.06686e-05
0.000507729
-6.70113e-05
-6.41894e-05
0.00102473
-6.70139e-05
-8.73195e-05
0.00142759
-4.0933e-05
-0.00020742
0.00147378
-9.34077e-06
-0.000260447
0.00242077
-4.79703e-06
-0.000279327
0.00170345
-3.8679e-06
-0.000254536
0.000685444
5.74976e-06
-0.000215398
-0.000443609
1.45823e-05
-0.00019336
-0.00157127
2.36664e-05
-0.000153367
-0.00216478
3.92224e-05
-9.77509e-05
-0.00274927
4.0881e-05
-2.6779e-05
-0.00300713
2.40849e-05
3.83171e-05
-0.00318632
5.83898e-06
-5.26792e-05
-0.00428865
0.00406977
-0.000132517
-0.00469049
0.00397581
8.54123e-05
-0.00469844
0.00392712
-0.000246674
-0.00490206
0.00393766
3.93128e-05
-0.00470258
0.00394132
7.99647e-05
-0.00445616
0.00391346
-0.000306137
-0.00483787
0.00404931
-8.46567e-05
-0.00479326
0.00362679
0.000182583
-0.00469339
0.0036168
0.00016459
-0.00461284
0.00360182
-0.00048113
-0.00505956
0.00381247
-0.000158164
-0.00498848
0.00382507
2.26662e-05
-0.00507855
0.00337701
3.60668e-05
-0.00487827
0.00328151
-0.000410344
-0.00528249
0.00357213
-0.000174372
-0.0051732
0.00351701
-0.000117459
-0.00528766
0.00348773
-0.000123929
-0.00510123
0.00311088
0.000195032
-0.00521544
0.00307274
-0.000656029
-0.0054801
0.00325734
-0.000433166
-0.00536315
0.00328376
-0.000294623
-0.0055718
0.00322068
1.01148e-06
-0.00549769
0.00314854
0.000168593
-0.00560847
0.0028725
0.000335199
-0.00546274
0.00280429
-0.000680906
-0.00611379
0.0029423
-0.00058793
-0.00606897
0.00289963
-0.000433724
-0.00581963
0.00299563
-0.000157082
-0.0059378
0.00284038
6.43597e-05
-0.00597528
0.00278694
0.000133979
-0.00587138
0.00246655
0.000268741
-0.00620746
0.00226606
-0.000810884
-0.00636354
0.0028165
-0.000777913
-0.00601765
0.0027129
-0.000458052
-0.00613614
0.00271801
-0.000362414
-0.00612132
0.00272882
-0.000162597
-0.0061733
0.00275746
-5.93385e-05
-0.00601533
0.00269325
-6.49465e-05
-0.00600632
0.00239515
-0.000784025
-0.00685572
0.0024426
-0.000744545
-0.00671592
0.00235292
-0.00029436
-0.00683549
0.00226829
-0.000406496
-0.00648591
0.00236489
-0.000109219
-0.00644541
0.00239212
-0.000200327
-0.00625289
0.00235286
0.000230193
-0.00595664
0.00241885
0.000172726
-0.00544665
0.00214006
-0.000951146
-0.00755038
0.00207222
-0.00100147
-0.00725743
0.00199815
-0.000716713
-0.00721936
0.00204641
-0.000385693
-0.00686967
0.00208307
-0.000179478
-0.00694252
0.0020932
-0.000375132
-0.00638025
0.00193733
0.000161919
-0.00668469
0.00205098
0.000190615
-0.00583323
0.00201453
0.000463089
-0.00535102
0.00154197
-0.000915342
-0.00718734
0.00201478
-0.00109437
-0.00735413
0.0018806
-0.00103119
-0.00724433
0.00189057
-0.000510604
-0.00755484
0.00191045
-0.00024894
-0.0074611
0.00179478
-0.000188256
-0.00666532
0.00181649
-0.000142545
-0.00647737
0.00161241
0.000250771
-0.00643257
0.00163
0.00017261
-0.00539265
0.00163453
0.00031495
-0.00541808
0.0012602
-0.00112364
-0.00677584
0.0015375
-0.00101018
-0.00686153
0.0015787
-0.00108717
-0.00758982
0.00156954
-0.000296543
-0.00807183
0.00144691
-6.60863e-05
-0.00708688
0.00143165
-0.000306408
-0.00653613
0.00142014
0.000141441
-0.00700361
0.00116422
3.05074e-05
-0.00709671
0.00112866
-0.000261949
-0.00584344
0.00124693
2.31916e-05
-0.00621772
0.00114922
-4.17795e-05
-0.00566024
0.000908556
-0.000811162
-0.00548798
0.000735871
-0.000914895
-0.00672371
0.00100859
-0.00100207
-0.00632323
0.00121324
-0.000739064
-0.00611766
0.00120718
-0.000740519
-0.0062072
0.00107772
-0.000455263
-0.00724424
0.000906427
-0.000268436
-0.00780405
0.000809673
-0.000196805
-0.00731409
0.000818073
-0.000507171
-0.00707862
0.00073676
-0.00029337
-0.00693598
0.000709691
-0.00038713
-0.00572704
0.000843995
-0.000200389
-0.00556153
0.000637949
-0.000604627
-0.00460746
7.16993e-05
-0.000706811
-0.00521804
0.000358213
-0.000758741
-0.00466702
0.000570003
-0.000825432
-0.00551049
0.000513511
-0.000668304
-0.00725767
0.00037473
-0.000638723
-0.00781768
0.000299492
-0.000449488
-0.0077359
0.000322564
-0.000371363
-0.00730932
0.000405887
-0.000488088
-0.0070311
0.000473537
-0.000465213
-0.00573287