/*--------------------------------*- C++ -*----------------------------------*\
  =========                 |
  \\      /  F ield         | OpenFOAM: The Open Source CFD Toolbox
   \\    /   O peration     | Website:  https://openfoam.org
    \\  /    A nd           | Version:  7
     \\/     M anipulation  |
\*---------------------------------------------------------------------------*/
FoamFile
{
    version     2.0;
    format      ascii;
    class       surfaceScalarField;
    location    "8";
    object      phi_0;
}
// * * * * * * * * * * * * * * * * * * * * * * * * * * * * * * * * * * * * * //

dimensions      [0 3 -1 0 0 0 0];

internalField   nonuniform List<scalar> 
54184
(
-3.11165e-05
-0.000680424
-5.92357e-05
-2.00068e-05
-0.00222657
-0.000121709
-4.10913e-05
-0.000634967
-6.53051e-05
-4.04481e-05
-0.000653926
-6.38736e-05
-0.000231792
-0.00464789
2.10223e-06
-2.60694e-05
-0.00225154
-0.000139179
2.96162e-06
-0.00303702
-0.000107539
-4.63977e-05
-0.000585196
-6.4807e-05
-4.78114e-05
-0.000601275
-7.0145e-05
-3.15829e-05
-0.000139159
-6.54225e-05
-0.000310214
-0.00647288
0.000313954
-0.000124699
-0.00469192
6.35011e-05
-9.59147e-05
-0.00569025
8.5162e-06
-2.73151e-05
-0.00228537
-0.00014724
-6.98558e-05
-0.00303563
-0.000118524
2.10563e-05
-0.00324247
-0.000107864
-4.58362e-05
-0.000537135
-6.4099e-05
-5.02831e-05
-0.000546146
-6.96531e-05
-4.35429e-05
-9.3812e-05
-7.1949e-05
-5.26861e-05
0.00041155
-5.48753e-05
-0.000352889
-0.00760995
0.000976106
-0.000230245
-0.00645912
0.000320248
-0.000242649
-0.00602168
0.000316391
-0.00020982
-0.00460121
1.64777e-05
-0.000244386
-0.00553367
8.14488e-05
-3.65473e-05
-0.00698786
-1.26376e-05
-4.90478e-05
-0.00230105
-0.000155753
-8.27328e-05
-0.0030348
-0.000115615
-1.72888e-05
-0.00326124
-0.000126013
-3.66113e-05
-0.00350634
-4.25507e-05
-4.45547e-05
-0.000491338
-6.3491e-05
-5.16452e-05
-0.000489604
-6.89956e-05
-3.44468e-05
-5.72929e-05
-7.17254e-05
-5.19276e-05
0.000454959
-6.34308e-05
-0.000160847
0.000548259
-2.57151e-05
-0.000404522
-0.00742928
0.00143598
-0.000575564
-0.00725047
0.00111774
-0.000270126
-0.00752727
0.000945285
-0.000447769
-0.00630734
0.000370799
-0.000364356
-0.0059666
0.000385137
-0.000136511
-0.00667505
0.000265357
-0.000249186
-0.004483
2.56448e-05
-0.000265813
-0.00533525
1.13491e-06
-5.22806e-05
-0.00685323
-1.8185e-05
-1.20976e-05
-0.00686677
3.55041e-05
-5.11261e-05
-0.00230701
-0.000175923
-0.000124065
-0.00299945
-0.000118685
1.99105e-05
-0.00330775
-0.000123458
-2.50168e-05
-0.0035918
-6.74609e-05
-0.000252318
-0.00400576
9.92605e-05
-4.54038e-05
-0.00044542
-6.306e-05
-4.94023e-05
-0.00043553
-6.81619e-05
-3.6329e-05
-1.84615e-05
-7.14979e-05
-5.31297e-05
0.000503022
-6.66584e-05
-0.000164914
0.000681285
-3.15427e-05
-0.000231088
-0.000322919
-1.09177e-06
-0.000402001
-0.00741154
0.00165326
-0.000652042
-0.0073143
0.00164864
-0.000312185
-0.00771424
0.00138635
-0.000591774
-0.00707296
0.00111715
-0.000407399
-0.00743866
0.00107218
-8.72435e-05
-0.00723006
0.000895863
-0.000516558
-0.00611433
0.000379569
-0.000432621
-0.00583228
0.000403289
-0.00017256
-0.0065156
0.000345965
-0.000132203
-0.00779696
0.000230869
-0.000270012
-0.00431641
1.94741e-05
-0.000329575
-0.00510038
-3.71144e-06
-0.000102531
-0.0067015
-2.81584e-05
-4.95902e-05
-0.00688602
2.56402e-05
-0.000120809
-0.00686436
0.000199237
-6.9799e-05
-0.00229444
-0.000188416
-0.000121758
-0.00297014
-0.00013288
-2.04851e-06
-0.00333958
-0.000121134
-6.70853e-05
-0.00362125
-8.00586e-05
-0.000303661
-0.00402259
8.81154e-05
-0.000244643
-0.00406282
0.000146688
-4.56229e-05
-0.000399724
-6.3052e-05
-4.67813e-05
-0.000384333
-6.74759e-05
-4.2917e-05
2.74421e-05
-7.11484e-05
-5.2859e-05
0.000553483
-6.90998e-05
-0.000151185
0.000800804
-3.49933e-05
-0.000257959
-9.55062e-05
-9.96365e-07
-0.000258224
0.000266619
4.75471e-06
-0.000382718
-0.00718912
0.00186071
-0.000500837
-0.00758141
0.00182288
-0.000321281
-0.0073346
0.00164564
-0.000571265
-0.00729838
0.00160362
-0.000436005
-0.00760541
0.00156843
-9.17396e-05
-0.00792354
0.00140033
-0.000690323
-0.00688731
0.00116102
-0.000385231
-0.00745371
0.00108481
-0.000223524
-0.00710804
0.00100113
-0.00022029
-0.00690592
0.000884405
-0.000595209
-0.00585615
0.000425988
-0.000488131
-0.00571481
0.00042065
-0.000355777
-0.00623355
0.000374492
-0.00018346
-0.00763808
0.000320961
-0.000122409
-0.00820481
0.000353226
-0.000314313
-0.00411075
8.77539e-06
-0.000322833
-0.00489108
1.12496e-05
-0.000163024
-0.00648259
-6.1645e-05
-0.000120324
-0.00688517
2.42318e-05
-0.000357536
-0.00695259
0.000167743
-0.000139868
-0.00689954
0.000294001
-8.63333e-05
-0.00225754
-0.000201982
-0.000156056
-0.002915
-0.000134278
-7.1592e-05
-0.00332471
-0.000119081
-6.50067e-06
-0.00370252
-8.6223e-05
-0.000181134
-0.00414055
6.7849e-05
-0.000418187
-0.00397465
0.000160174
-0.000409393
-0.00338074
0.000124812
-4.64304e-05
-0.000353344
-6.32986e-05
-4.19269e-05
-0.000338397
-6.70612e-05
-4.67265e-05
7.74091e-05
-7.07165e-05
-5.72233e-05
0.000610286
-7.07275e-05
-0.000139492
0.000909258
-3.80609e-05
-0.000257544
0.000128325
-1.27965e-06
-0.000283345
0.000543565
5.40305e-06
-0.000275085
-0.000404976
5.55847e-06
-0.000355523
-0.00678496
0.0021846
-0.000396779
-0.00725941
0.00198262
-0.000247139
-0.00710834
0.00188096
-0.000591829
-0.00757663
0.00182794
-0.000352393
-0.00741504
0.0018197
-0.000183895
-0.00739016
0.00166981
-0.000702515
-0.00727202
0.00163668
-0.000301741
-0.00762101
0.00153572
-0.000222359
-0.00790094
0.00154467
-4.36817e-05
-0.00742222
0.00136516
-0.000759984
-0.00677983
0.00116849
-0.000502362
-0.00740242
0.00112396
-0.000308803
-0.00711114
0.00104093
-0.000175966
-0.00690293
0.000990642
-0.00034103
-0.00702117
0.000876067
-0.000661819
-0.00558237
0.000447004
-0.000486484
-0.00562864
0.000503473
-0.00038023
-0.00600301
0.000407308
-0.000160983
-0.00753001
0.000307079
-0.000336083
-0.0083615
0.000456202
-0.000242149
-0.00785441
0.000462511
-0.000327517
-0.00392352
2.43055e-05
-0.000405166
-0.00464265
9.45545e-06
-0.000278909
-0.00623562
-2.83987e-05
1.9202e-05
-0.00696411
-8.41469e-06
-0.000126257
-0.00712651
0.000143279
-0.000371127
-0.00705586
0.000277001
-0.000455587
-0.0060989
0.00027481
-8.9766e-05
-0.00220946
-0.000211303
-0.0001562
-0.00285807
-0.000144641
-0.000110209
-0.00329069
-0.000104811
-4.08913e-05
-0.00374471
-9.32208e-05
-0.000226012
-0.0041872
4.69499e-05
-0.000394264
-0.00392571
0.000155624
-0.000443898
-0.00320104
0.00014103
-0.000456918
-0.00234235
0.000101916
-4.71481e-05
-0.000306005
-6.37453e-05
-3.96658e-05
-0.000295148
-6.68816e-05
-5.21214e-05
0.000132715
-7.02452e-05
-5.70383e-05
0.000667677
-7.10697e-05
-0.00012707
0.00100653
-4.09262e-05
-0.000251033
0.000343492
-2.19582e-06
-0.000282738
0.000819779
5.2444e-06
-0.0003065
-9.85261e-05
5.4528e-06
-0.000212525
-0.000796384
9.86447e-06
-0.000284017
-0.00611533
0.00269619
-0.00036638
-0.00609806
0.00253509
-0.000466199
-0.00665944
0.00236592
-0.000132657
-0.00663779
0.00218296
-0.000550681
-0.00727028
0.00199487
-0.000187282
-0.00725901
0.00196818
-0.000118696
-0.00685055
0.00186612
-0.000651128
-0.00762865
0.00182888
-0.000360685
-0.00738107
0.00185292
-0.000247
-0.00739379
0.00184797
2.02431e-07
-0.0076824
0.00171996
-0.000757233
-0.00722903
0.00161165
-0.000476416
-0.00754759
0.00153731
-0.000209424
-0.00798005
0.00151545
-6.48506e-05
-0.00751703
0.00152836
-0.000284299
-0.00669219
0.00119096
-0.00094924
-0.00654101
0.00119609
-0.000631895
-0.00727791
0.00118939
-0.000365023
-0.0070478
0.00104541
-0.000144181
-0.0068252
0.000946396
-0.000358336
-0.00699756
0.000989284
-0.00013424
-0.00732184
0.000756242
-0.000606293
-0.0054019
0.000415535
-0.00066858
-0.00546055
0.000542324
-0.000481888
-0.00576473
0.000468179
-0.000141387
-0.00730586
0.000343742
-0.000333249
-0.00826874
0.000421308
-0.000243572
-0.00808096
0.000555189
-0.000373275
-0.00699155
0.000441415
-0.000305859
-0.00379018
4.46213e-05
-0.000438439
-0.00438769
5.15835e-05
-0.000370212
-0.00599112
2.49562e-05
-0.000126861
-0.00689462
-1.1912e-05
-0.000249585
-0.00724756
0.000136204
-0.000463228
-0.00711888
0.000275261
-0.000438613
-0.0061275
0.000300309
-0.000449842
-0.00529438
0.000242818
-9.98563e-05
-0.00214619
-0.000216056
-0.000165099
-0.00279075
-0.000153191
-0.000149965
-0.00323559
-0.000101901
-0.000127357
-0.00368003
-9.91738e-05
-0.000204264
-0.00422784
2.46193e-05
-0.000374187
-0.00390248
0.000146877
-0.000450886
-0.00301722
0.000139946
-0.000510943
-0.00209845
0.000101577
-0.000417438
-0.00246659
0.000101145
-4.86254e-05
-0.000256859
-6.42239e-05
-3.9346e-05
-0.000252568
-6.69791e-05
-5.62143e-05
0.000191818
-6.97709e-05
-5.84658e-05
0.000726121
-7.02226e-05
-0.000110327
0.00108797
-4.21911e-05
-0.000244711
0.000551316
-4.03871e-06
-0.000280857
0.00109384
4.60122e-06
-0.000307872
0.000209616
4.9747e-06
-0.000239868
-0.00056087
9.80758e-06
-0.000176746
-0.00148363
1.49297e-05
-0.000189231
-0.00562949
0.00295904
-0.000306249
-0.00622223
0.00266439
-0.000187306
-0.00593846
0.00270437
-0.000482637
-0.00608927
0.00277883
-8.58826e-05
-0.00612664
0.00252755
-0.000383694
-0.00677593
0.00237011
-6.13504e-05
-0.00673603
0.00233823
-4.22338e-05
-0.00646992
0.00216155
-0.000541765
-0.00733762
0.00201882
-0.000461326
-0.00719061
0.00202711
-0.000326774
-0.00684931
0.00204671
4.36409e-05
-0.00672615
0.00180731
-0.000855482
-0.00756547
0.00187715
-0.000517827
-0.00735546
0.00184468
-0.000306974
-0.00730325
0.00185993
-0.000112907
-0.00767671
0.00189033
-0.000151221
-0.00694295
0.00166796
-0.000945224
-0.00721076
0.00159329
-0.000782732
-0.00733072
0.00154562
-0.000429854
-0.00790259
0.00152469
-3.4509e-05
-0.00760405
0.0014928
-0.000238432
-0.00664572
0.00136199
1.40427e-06
-0.00719241
0.00100832
-0.000828148
-0.00639083
0.00119405
-0.000893612
-0.00707301
0.00121622
-0.000488445
-0.00696785
0.001116
-0.000253985
-0.00662704
0.000959851
-0.000481366
-0.00685626
0.000953208
-0.000198656
-0.00729081
0.000913336
-6.87142e-05
-0.00716326
0.000664695
-0.00060865
-0.00522571
0.000367352
-0.000730644
-0.00529606
0.000543252
-0.000640474
-0.0054813
0.000529151
-0.000393387
-0.00695848
0.000387334
-0.000282554
-0.00830308
0.000411054
-0.000472839
-0.00819927
0.00054923
-0.000282956
-0.00707179
0.000479775
-0.000400841
-0.00684256
0.000370427
-0.000341413
-0.00363152
2.28235e-05
-0.000445823
-0.00415992
9.757e-05
-0.000436433
-0.00567052
1.74496e-05
-0.000283449
-0.00675395
4.03723e-05
-0.000225648
-0.0073505
0.000112419
-0.000355883
-0.00725878
0.000257804
-0.000450424
-0.00615124
0.000298543
-0.000491105
-0.00527754
0.000263623
-0.000428581
-0.00383929
0.000226778
-0.000124424
-0.00205948
-0.000215398
-0.000182152
-0.00270164
-0.000162352
-0.000201575
-0.00314252
-0.0001009
-0.000113285
-0.00362678
-0.000100325
-0.000180295
-0.00424934
-7.7122e-06
-0.000377418
-0.00387834
0.000133184
-0.000490113
-0.00279804
0.00013696
-0.000511716
-0.00185389
9.92262e-05
-0.000466549
-0.00223593
9.75967e-05
-0.000398355
-0.00313728
0.000109271
-4.81973e-05
-0.000207864
-6.46963e-05
-3.97821e-05
-0.000209863
-6.71475e-05
-5.80629e-05
0.000252241
-6.93386e-05
-5.77861e-05
0.000783182
-6.90464e-05
-0.00010743
0.00116769
-4.25045e-05
-0.000238015
0.000751655
-4.51486e-06
-0.000278822
0.00136572
2.89966e-06
-0.000306438
0.000516648
4.00722e-06
-0.000243226
-0.000321933
9.263e-06
-0.000201797
-0.00128821
1.61839e-05
-0.000138031
-0.0022665
2.20304e-05
-0.000116499
-0.00519876
0.00324125
-0.000260225
-0.00564749
0.00293512
-0.000163571
-0.00561625
0.00293227
-0.000411166
-0.00631927
0.00290508
-5.37293e-05
-0.00604378
0.00273756
1.1532e-05
-0.00589737
0.00266024
-0.000326278
-0.00610695
0.00278905
-2.98967e-05
-0.0061474
0.00276813
-4.34381e-05
-0.00618845
0.0025229
-0.000550475
-0.00666757
0.00233891
-0.000367026
-0.00679523
0.002335
-0.000321085
-0.00651208
0.0023747
0.000122728
-0.00635495
0.0021647
-0.000761774
-0.00744655
0.00200389
-0.000543447
-0.0071372
0.00199103
-0.000263369
-0.00691056
0.00204476
-2.57501e-05
-0.00679141
0.00202481
1.86258e-05
-0.00675435
0.00173447
-0.000778862
-0.00771021
0.00189447
-0.000679329
-0.00744926
0.00186755
-0.000490165
-0.00724958
0.00185132
-0.000139849
-0.0075919
0.00188046
-0.000113285
-0.00702103
0.00184327
4.00271e-05
-0.00720348
0.00154616
-0.000932697
-0.00709864
0.00160117
-0.000819615
-0.00737727
0.00156584
-0.000481092
-0.00790113
0.00153681
-0.000146022
-0.00767377
0.00148644
-0.000306797
-0.00675634
0.00142885
-0.00017114
-0.0068843
0.00102636
0.000107762
-0.00706238
0.00110542
-0.000881429
-0.00617575
0.0011569
-0.000914449
-0.00691547
0.00122032
-0.000715256
-0.00682564
0.00114879
-0.000409952
-0.00648755
0.000993073
-0.000380056
-0.00676374
0.000964835
-0.000340365
-0.00737081
0.000900731
1.55113e-05
-0.00732579
0.000777403
-0.00026181
-0.00648227
0.000619869
-0.000629017
-0.00508138
0.000311973
-0.000669539
-0.00525352
0.000548527
-0.000705326
-0.00526474
0.000595586
-0.000355629
-0.00681483
0.000457679
-0.000297262
-0.00827168
0.000427544
-0.000362587
-0.00829147
0.000509967
-0.000284154
-0.00716314
0.000474308
-0.00042964
-0.00683016
0.000405914
-0.000247852
-0.00657491
0.000407994
-0.000352403
-0.00345935
-8.81839e-06
-0.000466624
-0.00390673
5.4115e-05
-0.000501083
-0.00530603
3.25882e-05
-0.000329339
-0.00653486
1.44152e-05
-0.000326782
-0.0072572
9.35512e-05
-0.000444969
-0.0073019
0.00022309
-0.000546575
-0.00612559
0.000288615
-0.000516689
-0.00523962
0.000265598
-0.000455834
-0.00384672
0.000260345
-0.000482206
-0.00395385
0.000204721
-0.000139999
-0.00196369
-0.000211347
-0.00019161
-0.00260029
-0.000164924
-0.000195557
-0.00306338
-0.000103994
-0.000120952
-0.0035576
-0.000106918
-0.000203619
-0.00422695
-2.65262e-05
-0.000369679
-0.00386553
0.000111141
-0.000495902
-0.00258094
0.000133158
-0.000515084
-0.00160255
9.42723e-05
-0.00046482
-0.00200968
9.45729e-05
-0.000436197
-0.00292058
0.000115295
-0.000284615
-0.00369625
0.000151054
-4.66719e-05
-0.000160133
-6.49941e-05
-3.75175e-05
-0.000169796
-6.72453e-05
-6.00264e-05
0.000314246
-6.91262e-05
-6.02703e-05
0.000841984
-6.78705e-05
-9.71152e-05
0.00123812
-4.23627e-05
-0.0002298
0.000945519
-6.56863e-06
-0.000276342
0.00163531
2.23917e-06
-0.000300249
0.000817621
2.17615e-06
-0.000246976
-7.94684e-05
8.51909e-06
-0.000208957
-0.00108621
1.62222e-05
-0.000162462
-0.00211227
2.44096e-05
-0.000118111
-0.00256503
3.62094e-05
-0.000123338
-0.00492632
0.00358634
-0.000168426
-0.00502163
0.0035081
-0.000226077
-0.00517245
0.00322992
-4.79105e-05
-0.00532134
0.00316961
-0.00034288
-0.00567339
0.0032396
-5.59139e-05
-0.00560654
0.0029276
2.16628e-05
-0.00564236
0.00291058
-0.000479592
-0.00625193
0.00294507
-0.000112726
-0.00608096
0.00302509
-6.95387e-05
-0.00581516
0.00268144
7.9716e-05
-0.00619342
0.00261745
-0.000455143
-0.00614394
0.00278892
-0.000232303
-0.00620773
0.00271467
-0.000279019
-0.00623365
0.00277127
9.73352e-05
-0.00628688
0.00247417
-0.000606874
-0.00670001
0.0023689
-0.000384844
-0.00690904
0.00229412
-0.000217634
-0.00656078
0.00233797
6.26541e-06
-0.00641045
0.00239819
8.04687e-05
-0.00624152
0.00213721
-0.000780952
-0.00743609
0.00201696
-0.000538371
-0.00725445
0.00198018
-0.000403799
-0.00703254
0.00202665
-0.000155669
-0.00678177
0.00205094
-0.000118007
-0.00669096
0.00196614
-1.78929e-05
-0.00657413
0.00182426
-0.00108994
-0.0075064
0.00190466
-0.000730434
-0.00751813
0.00187416
-0.000445377
-0.00730915
0.00189141
-0.000179597
-0.00755636
0.00184936
-0.000141581
-0.00715256
0.00184676
-0.000244026
-0.00697225
0.00168493
0.00011942
-0.00694018
0.00160081
-0.00103496
-0.006958
0.00155946
-0.000827028
-0.00744674
0.00158322
-0.000638519
-0.00793452
0.0015225
-0.000268431
-0.00775015
0.00147167
-0.000392111
-0.00666726
0.00140942
-0.000314847
-0.00665836
0.00117739
0.000101223
-0.00719123
0.0010695
-9.58882e-05
-0.00572423
0.00115966
-0.000877544
-0.00601503
0.00109432
-0.000646882
-0.00697224
0.00119101
-0.00082124
-0.00666149
0.00117209
-0.000449911
-0.00629903
0.00105456
-0.000404494
-0.00659855
0.000935118
-0.000330326
-0.00734047
0.000902233
-2.63673e-05
-0.00747373
0.000790877
-0.000264316
-0.00654172
0.00067153
-0.000146512
-0.00696065
0.000610865
-0.00061517
-0.00497015
0.000265717
-0.000703988
-0.00522248
0.000518301
-0.000694853
-0.00510449
0.000582051
-0.000586342
-0.00648618
0.000523936
-0.000466021
-0.00813626
0.000461498
-0.000430833
-0.00833175
0.000453684
-0.000272272
-0.00739083
0.000463355
-0.000392767
-0.00690182
0.000422039
-0.000247652
-0.00683289
0.000455721
-0.000365367
-0.00528956
0.000471925
-0.000375116
-0.0033215
3.67206e-05
-0.00043866
-0.00367471
6.20814e-06
-0.000500239
-0.0050616
0.000114368
-0.000390018
-0.00624191
8.7006e-06
-0.000374567
-0.00714876
7.69252e-05
-0.000434056
-0.00733593
0.000191951
-0.000501007
-0.00617054
0.000273148
-0.000565462
-0.00517153
0.000270908
-0.00050315
-0.00380469
0.000261894
-0.000516972
-0.00383696
0.000224236
-0.000374456
-0.00461406
0.000213123
-0.000137495
-0.00186801
-0.000202973
-0.000198699
-0.00248623
-0.000164222
-0.000216967
-0.00296022
-0.000111147
-0.000200288
-0.00341374
-0.000107839
-0.000213228
-0.00416934
-4.84149e-05
-0.000350863
-0.00386096
8.99633e-05
-0.000498743
-0.00237954
0.000132149
-0.000526235
-0.00133507
9.16633e-05
-0.0004749
-0.00177283
8.5347e-05
-0.000448939
-0.00269491
0.000108885
-0.00033669
-0.00357144
0.000164707
-0.000199692
-0.00343348
0.000201105
-4.65053e-05
-0.000112446
-6.51116e-05
-3.97554e-05
-0.000127922
-6.71125e-05
-6.28226e-05
0.000378498
-6.86753e-05
-6.16886e-05
0.000902279
-6.77322e-05
-9.57663e-05
0.00130777
-4.17543e-05
-0.00022166
0.00113205
-7.23741e-06
-0.000274593
0.00190376
-4.27963e-07
-0.000293021
0.00111247
4.14961e-07
-0.000250164
0.000165191
7.68107e-06
-0.00021411
-0.00087956
1.59777e-05
-0.00017357
-0.00194669
2.42122e-05
-0.000135973
-0.00244447
3.98226e-05
-5.81993e-05
-0.00293972
3.71024e-05
-0.000196743
-0.00479028
0.00394342
-0.000200687
-0.00489706
0.00362127
3.08337e-05
-0.00489805
0.00355681
-0.000189383
-0.00504875
0.00348743
1.05108e-05
-0.00505812
0.00340656
-0.0002687
-0.00521554
0.00356629
-6.3773e-05
-0.00524469
0.00316113
8.28628e-05
-0.0052717
0.00313971
-0.000508153
-0.00563007
0.00326285
-0.000184745
-0.00553863
0.0032437
-9.18777e-05
-0.00558825
0.00289582
8.10732e-05
-0.00561024
0.0029181
-0.000437312
-0.00625609
0.00289357
-0.000209773
-0.00613197
0.00297356
-0.000221496
-0.00582374
0.00297615
8.68273e-05
-0.00609086
0.00258939
0.000127189
-0.00605327
0.00260142
-0.000538251
-0.00616553
0.00276744
-0.000216778
-0.00630403
0.00271715
-0.000253493
-0.00620654
0.00272341
1.48558e-05
-0.00626994
0.00274574
0.000132912
-0.00619406
0.0024689
-0.000770768
-0.00663307
0.00239715
-0.000463743
-0.00689157
0.00227681
-0.000391812
-0.0066118
0.00233315
-0.000152155
-0.00645304
0.00237704
1.40596e-05
-0.00637546
0.00240006
-8.66605e-05
-0.00599539
0.00213309
-0.00106164
-0.00742007
0.00205769
-0.000737045
-0.00724044
0.00200956
-0.000440058
-0.00709101
0.00203334
-0.000241935
-0.00674068
0.00204789
-0.000119051
-0.00669624
0.00203369
-0.000278331
-0.00661859
0.00204491
0.000168769
-0.0063922
0.00187206
-0.00109018
-0.00739181
0.00191053
-0.000649809
-0.00767066
0.00187996
-0.000570215
-0.00738521
0.00188191
-0.000339851
-0.00744625
0.00185272
-0.000269289
-0.00726204
0.00183602
-0.000344404
-0.00681873
0.00172279
3.4152e-05
-0.00685397
0.00166579
9.60652e-05
-0.00613217
0.00152864
-0.00110555
-0.0068037
0.00158135
-0.000745634
-0.00730799
0.00151946
-0.000810701
-0.00793517
0.00157332
-0.000443781
-0.00775211
0.00151833
-0.000436092
-0.00659463
0.00143064
-0.000263471
-0.00648846
0.00117266
-1.6548e-05
-0.00712528
0.00110162
-1.67175e-05
-0.00615997
0.00125764
4.42765e-05
-0.00578216
0.00108081
-0.000843859
-0.0058353
0.000981833
-0.000937536
-0.00682656
0.0011822
-0.00074326
-0.00660828
0.00118621
-0.00070662
-0.00612248
0.00111582
-0.000540032
-0.00646765
0.000997669
-0.000316788
-0.0074071
0.000887708
3.10712e-05
-0.00766673
0.000791891
-0.000117233
-0.00679079
0.000764411
-5.85077e-05
-0.00711259
0.000634323
-0.000223939
-0.00657501
0.000728116
-0.000628684
-0.00486097
0.000192243
-0.000658265
-0.00522558
0.000488424
-0.000805939
-0.00490304
0.000622543
-0.00064973
-0.00613564
0.000491227
-0.000526084
-0.00789585
0.000435042
-0.000504232
-0.0082485
0.000448428
-0.000331567
-0.00754242
0.000435833
-0.00053951
-0.00689141
0.000426993
-0.000486049
-0.00689163
0.000463677
-0.000402552
-0.00545284
0.000504583
-0.000401464
-0.00512173
0.00044204
-0.000357975
-0.00316107
6.31577e-06
-0.000448923
-0.00342075
3.29842e-05
-0.000512178
-0.00470925
-5.09297e-05
-0.000509222
-0.00591338
9.47736e-05
-0.000458845
-0.00694443
4.99877e-05
-0.000385988
-0.00737342
0.000149547
-0.000523571
-0.00620089
0.000247121
-0.000648931
-0.0050681
0.000292412
-0.000496983
-0.00371403
0.000202333
-0.000440865
-0.00380434
0.000221193
-0.000437215
-0.00450592
0.000216615
-0.00023141
-0.00522404
0.000229803
-0.000129173
-0.00178369
-0.000193174
-0.000205448
-0.00235643
-0.000167088
-0.000253627
-0.00281981
-0.000113827
-0.000184857
-0.00329215
-0.000109565
-0.000205085
-0.00409984
-6.80196e-05
-0.000345965
-0.00384589
6.08246e-05
-0.000529962
-0.00216118
0.000126968
-0.000517024
-0.00106711
8.81868e-05
-0.000467091
-0.00154776
8.35154e-05
-0.000495585
-0.0024302
0.000102114
-0.000366018
-0.00342775
0.00015765
-0.000222035
-0.00339773
0.000215026
-7.35118e-05
-0.00364257
0.000208132
-4.7527e-05
-6.36772e-05
-6.50024e-05
-4.26468e-05
-8.35956e-05
-6.67915e-05
-6.22169e-05
0.000441604
-6.80013e-05
-6.34471e-05
0.000964798
-6.77474e-05
-9.45446e-05
0.00137601
-4.14279e-05
-0.000214527
0.00131356
-8.73729e-06
-0.000270118
0.00216849
-1.84331e-06
-0.000287429
0.00140105
-1.58226e-06
-0.000253176
0.000412073
6.70882e-06
-0.000212621
-0.000674675
1.54165e-05
-0.000184101
-0.00177047
2.3866e-05
-0.000145963
-0.0023139
3.95979e-05
-8.27663e-05
-0.00285783
4.06986e-05
-8.70599e-06
-0.00306033
2.19838e-05
-0.000114187
-0.00466272
0.00397292
-0.000214278
-0.00481291
0.00393479
5.9607e-05
-0.00460784
0.0039409
-0.000273645
-0.00484717
0.00363918
-4.36078e-05
-0.00483875
0.00361608
3.83406e-05
-0.0046647
0.0036093
-0.000282119
-0.00503778
0.00383452
-4.9458e-05
-0.00500466
0.00341965
0.000155206
-0.00500684
0.00335739
-0.000509586
-0.00520175
0.00357423
-0.000152423
-0.00518855
0.00347783
-9.1085e-05
-0.00526933
0.00315797
7.23226e-05
-0.00524666
0.00309246
-0.000492858
-0.00557904
0.00326609
-0.000215332
-0.00549218
0.00322197
-0.000124044
-0.00563787
0.00319587
-2.72825e-05
-0.00549967
0.00289936
0.000232321
-0.00560854
0.00287776
-0.000617552
-0.00619237
0.00294825
-0.000285714
-0.00614353
0.00297407
-0.000229983
-0.00576919
0.0028955
-4.03186e-05
-0.0059189
0.00285935
0.000141842
-0.00602254
0.00254973
0.000255492
-0.00577353
0.00250208
-0.000585707
-0.00629566
0.00275824
-0.000551425
-0.00617265
0.00272375
-0.000458349
-0.00613984
0.00271698
-0.000234359
-0.0061957
0.00273138
3.98483e-05
-0.00620853
0.00273442
-4.20485e-05
-0.00592434
0.00243128
-0.000870239
-0.00673066
0.00239649
-0.00066908
-0.00686278
0.00230039
-0.000465536
-0.00663045
0.00232094
-0.000275316
-0.00646597
0.00237947
-9.91559e-05
-0.00640388
0.00238556
-0.00019019
-0.00606767
0.0023842
0.0001181
-0.00584076
0.00221368
-0.00095892
-0.00751105
0.00207545
-0.000639889
-0.00725921
0.00206654
-0.000516844
-0.00714686
0.00201204
-0.000374929
-0.00676918
0.00209691
-0.000138894
-0.00682836
0.00204962
-0.000409979
-0.00655357
0.00203424
0.000154785
-0.00649902
0.00203109
0.000211247
-0.00581061
0.00176398
-0.0010838
-0.00731339
0.00192756
-0.00106746
-0.00732965
0.00189135
-0.000793252
-0.0074159
0.0018932
-0.000407057
-0.00746175
0.00186069
-0.000293894
-0.00737195
0.00182044
-0.000326101
-0.00666156
0.00174148
1.50223e-05
-0.00679049
0.00162775
0.000151562
-0.00627779
0.00164314
0.000368739
-0.0051952
0.00138161
-0.000908356
-0.00684153
0.00156319
-0.00116965
-0.00709606
0.00160153
-0.000852473
-0.00768694
0.00138045
-0.000580116
-0.00781273
0.00150743
-0.000399133
-0.00674418
0.00152698
-0.000192825
-0.00651455
0.00133277
8.85799e-06
-0.00692502
0.000994614
0.000112584
-0.00658518
0.00129702
-1.412e-05
-0.00577091
0.001202
5.12777e-05
-0.00601962
0.00104546
-0.000845827
-0.00567159
0.000888109
-0.000776656
-0.00681119
0.00108485
-0.00103304
-0.00639682
0.00119783
-0.000474387
-0.00628873
0.00117711
-0.000453146
-0.0064504
0.00102564
-0.000437739
-0.00738717
0.000911242
-0.000119901
-0.00781523
0.000824549
-0.000307179
-0.00697324
0.000742016
-0.000378204
-0.00714433
0.000688301
-0.000226793
-0.00687127
0.000754833
-0.000333817
-0.0055072
0.000722611
-0.000587794
-0.00475222
0.000104022
-0.000695324
-0.00521529
0.000428355
-0.0007857
-0.00476498
0.000623889
-0.000538536
-0.00598696
0.000503173
-0.000625844
-0.00765474
0.000417116
-0.000454917
-0.0081317
0.000387164
-0.000359456
-0.0076514
0.000393292
-0.000545614
-0.0070047
0.000445803
-0.000455254
-0.0069856
0.000479236
-0.000319173
-0.00560729
0.000496435
-0.00049178
-0.0050339
0.000471311
-0.000263599
-0.00547021
0.000364859
-0.000338555
-0.0029728
-4.05352e-05
-0.000442799
-0.00314533
-3.17507e-05
-0.000526539
-0.00436514
-3.82138e-05
-0.000496306
-0.00559795
-5.49125e-05
-0.000442706
-0.00662646
1.44268e-05
-0.000455291
-0.00730027
8.61629e-05
-0.000577417
-0.00620709
0.000203203
-0.0006325
-0.00499515
0.000289641
-0.000486078
-0.00364646
0.000243828
-0.000536328
-0.0037045
0.000143239
-0.000454102
-0.00440077
0.000204127
-0.000266392
-0.00519815
0.000235082
-8.15779e-05
-0.0047467
0.000311711
-0.000130513
-0.00169528
-0.000182565
-0.000216481
-0.0022045
-0.000171262
-0.000257654
-0.00266604
-0.000125417
-0.000214041
-0.00313814
-0.000117245
-0.000262987
-0.00396574
-7.52173e-05
-0.000363842
-0.00380118
3.65818e-05
-0.000530209
-0.0019544
0.000114137
-0.000521486
-0.000786059
7.99755e-05
-0.000481804
-0.00130608
7.51433e-05
-0.000462802
-0.00219581
9.93056e-05
-0.000396726
-0.00326445
0.000151439
-0.000239792
-0.00335336
0.000207106
-0.00012674
-0.00360533
0.000221765
2.53513e-05
-0.00341195
0.000157291
-4.69187e-05
-1.54253e-05
-6.48546e-05
-4.69493e-05
-3.52756e-05
-6.63731e-05
-6.08589e-05
0.000502718
-6.7047e-05
-6.39214e-05
0.00102774
-6.70243e-05
-8.75655e-05
0.00143677
-4.09442e-05
-0.000209224
0.00149054
-9.1772e-06
-0.000261005
0.00242543
-4.67614e-06
-0.00028025
0.00168313
-3.67917e-06
-0.00025477
0.000659385
5.87593e-06
-0.000215028
-0.000467688
1.47492e-05
-0.000192916
-0.0015859
2.37607e-05
-0.000153085
-0.00217618
3.92344e-05
-9.62544e-05
-0.00276294
4.0965e-05
-2.48689e-05
-0.00301882
2.40551e-05
3.86997e-05
-0.00319082
6.33452e-06
-4.9755e-05
-0.00428903
0.00406972
-0.000132289
-0.00469152
0.00397455
8.62341e-05
-0.00469825
0.00392642
-0.000244883
-0.00489937
0.00393839
4.09461e-05
-0.00469887
0.00394126
7.96211e-05
-0.00445423
0.00391272
-0.000304537
-0.00483534
0.00404848
-8.1404e-05
-0.00479393
0.00362631
0.000181138
-0.00469112
0.00361657
0.000168477
-0.0046149
0.00360158
-0.000479285
-0.00505652
0.00381208
-0.000156968
-0.0049893
0.00382371
2.22408e-05
-0.00507708
0.00337656
3.98567e-05
-0.00488051
0.00328017
-0.000407138
-0.0052813
0.00357139
-0.000171734
-0.00517415
0.00351623
-0.000116906
-0.0052863
0.00348766
-0.000120333
-0.00510504
0.0031094
0.000196137
-0.00521549
0.0030722
-0.000652658
-0.00548285
0.00325611
-0.000429745
-0.00536464
0.00328258
-0.000293182
-0.00557314
0.00322043
4.17525e-06
-0.00549712
0.00314883
0.000171793
-0.00561149
0.00287236
0.000337539
-0.00546199
0.00280341
-0.000676803
-0.0061155
0.00294204
-0.000578385
-0.00606862
0.0029003
-0.000434583
-0.00581502
0.00299613
-0.000155145
-0.00594212
0.00283951
6.74212e-05
-0.00597774
0.00278698
0.000137554
-0.00586918
0.00246578
0.000271859
-0.00621063
0.00226385
-0.000809333
-0.0063566
0.00281512
-0.00077376
-0.00602139
0.00271166
-0.000463259
-0.00613687
0.00271851
-0.000361102
-0.00612354
0.00273061
-0.000156382
-0.00617757
0.00275764
-6.35756e-05
-0.00600983
0.0026933
-7.08141e-05
-0.00601375
0.00239228
-0.000781743
-0.00685311
0.00244008
-0.000740169
-0.00671705
0.00235105
-0.000282796
-0.00683291
0.0022688
-0.000403675
-0.00648273
0.00236644
-0.000107648
-0.00644714
0.00239148
-0.000200802
-0.00624629
0.00235501
0.000227098
-0.00594908
0.0024202
0.00017246
-0.00545058
0.00213889
-0.000952347
-0.00755453
0.00207031
-0.000998263
-0.00725244
0.00199948
-0.000709197
-0.00721225
0.00204788
-0.000384182
-0.0068648
0.00208479
-0.000173143
-0.0069456
0.0020934
-0.000380534
-0.00638007
0.00193056
0.000177141
-0.00668424
0.00205735
0.000188668
-0.00582751
0.00201088
0.000458358
-0.00535228
0.00153673
-0.000916641
-0.00718994
0.00201061
-0.00109521
-0.00735713
0.00188059
-0.00102269
-0.00724602
0.00189168
-0.000502638
-0.00755454
0.00190851
-0.000249165
-0.00745717
0.00179593
-0.000192296
-0.00665744
0.0018158
-0.000160178
-0.00648913
0.00160915
0.000252949
-0.00642254
0.00163213
0.000186631
-0.00538365
0.00163084
0.00031083
-0.00541754
0.00125744
-0.00111957
-0.00677481
0.00154132
-0.0010148
-0.00687271
0.00157799
-0.00108609
-0.00759776
0.0015654
-0.00029362
-0.00806506
0.00145201
-5.64258e-05
-0.00706325
0.00142979
-0.00029247
-0.00654896
0.00141612
0.000156588
-0.00701836
0.00114961
3.40776e-05
-0.0070728
0.00114098
-0.000256439
-0.00583938
0.00124372
2.05554e-05
-0.00621526
0.0011503
-4.67623e-05
-0.00564727
0.000903753
-0.000812358
-0.00549539
0.000744283
-0.000913061
-0.00672065
0.00101531
-0.00100166
-0.00631185
0.00121584
-0.000713459
-0.00611745
0.00120147
-0.000729808
-0.00623868
0.00106935
-0.000450704
-0.00727167
0.000905926
-0.000261944
-0.00780655
0.000805044
-0.000220544
-0.00728789
0.000814124
-0.00050575
-0.00708627
0.000734457
-0.000288105
-0.00692261
0.00070857
-0.000386859
-0.00570048
0.000843196
-0.000194102
-0.00556301
0.000635169
-0.000605894
-0.00461367
7.21154e-05
-0.000706535
-0.00520994
0.000362401
-0.000765001
-0.00466901
0.00057085
-0.000817695
-0.00554974
0.000508062
-0.000666629
-0.00730197
0.000374325
-0.000627676
-0.00784825
0.000306056
-0.000456142
-0.00771698
0.000331469
-0.000369512
-0.00728618
0.00041179
-0.000483441
-0.00701674
0.000474301
-0.000465979
-0.0057115
0.000513091