/*--------------------------------*- C++ -*----------------------------------*\
  =========                 |
  \\      /  F ield         | OpenFOAM: The Open Source CFD Toolbox
   \\    /   O peration     | Website:  https://openfoam.org
    \\  /    A nd           | Version:  7
     \\/     M anipulation  |
\*---------------------------------------------------------------------------*/
FoamFile
{
    version     2.0;
    format      ascii;
    class       volVectorField;
    location    "8";
    object      U;
}
// * * * * * * * * * * * * * * * * * * * * * * * * * * * * * * * * * * * * * //

dimensions      [0 1 -1 0 0 0 0];

internalField   nonuniform List<vector> 
18780
(
(0.325623 0.544019 -1.34705)
(1.12065 -0.124265 -0.985673)
(0.345936 0.561053 -1.36213)
(0.325167 0.560928 -1.3853)
(2.35578 0.463234 -0.0136074)
(1.12568 -0.117251 -1.10736)
(1.5204 0.0953604 -0.857898)
(0.355438 0.55364 -1.36269)
(0.337132 0.52069 -1.37436)
(0.0631215 0.506573 -1.54606)
(3.16588 0.915945 0.969391)
(2.36877 0.258327 -0.0631876)
(2.89498 0.0467476 0.111559)
(1.1388 -0.100522 -1.24285)
(1.5334 0.102765 -0.813017)
(1.63907 -0.0086363 -0.79498)
(0.362852 0.50139 -1.35894)
(0.343402 0.4769 -1.36273)
(0.0724394 0.484674 -1.55326)
(-0.22368 0.635084 -1.43693)
(3.79884 0.606926 2.49418)
(3.33487 0.146099 0.852265)
(2.99415 0.741399 1.09688)
(2.35741 -0.002579 -0.0760373)
(2.82051 0.304613 0.59766)
(3.50907 0.0226707 0.0511296)
(1.15381 -0.12988 -1.36571)
(1.54245 0.104278 -0.799853)
(1.6369 0.112511 -0.8292)
(1.74751 0.228195 -0.921128)
(0.365729 0.443947 -1.36333)
(0.337307 0.428917 -1.34729)
(0.0841075 0.465039 -1.55782)
(-0.19804 0.64701 -1.42691)
(-0.292605 1.40475 -1.11673)
(3.75775 0.811017 2.95398)
(3.69685 0.594188 2.53682)
(3.75051 0.546926 2.45486)
(3.23225 0.524348 1.114)
(3.02762 0.734602 1.07927)
(3.35803 0.423048 0.989037)
(2.30868 -0.00819299 0.0429105)
(2.75564 0.0974628 0.219098)
(3.45317 -0.173241 0.00775945)
(3.41925 0.173189 -0.183114)
(1.15695 -0.165675 -1.4924)
(1.57621 0.0912326 -0.817248)
(1.66012 -0.194217 -0.807992)
(1.78626 0.00320818 -0.974177)
(1.9467 1.31086 0.239715)
(0.364239 0.417632 -1.36859)
(0.329331 0.381999 -1.32728)
(0.0955634 0.4533 -1.55887)
(-0.17609 0.653197 -1.4267)
(-0.268961 1.3547 -1.25393)
(0.129909 2.0643 -0.0391474)
(3.67021 0.612346 2.86415)
(3.58656 0.910392 3.10831)
(3.83858 0.565365 2.91391)
(3.6591 0.588669 2.59989)
(3.71556 0.497919 2.56881)
(3.56499 0.427385 2.24031)
(3.21934 0.377386 1.1102)
(3.02883 0.704945 1.11599)
(3.29743 0.212089 1.22217)
(3.8852 0.0644399 0.694087)
(2.24244 -0.183424 0.135696)
(2.64246 0.142591 0.195279)
(3.36441 -0.533712 -0.270293)
(3.43415 0.0141299 -0.185371)
(3.3861 0.850506 0.515148)
(1.15265 -0.196654 -1.58598)
(1.52565 0.00530882 -0.996661)
(1.67905 -0.230552 -0.84325)
(1.82093 -0.061715 -0.961337)
(2.05776 1.06417 0.0261909)
(1.96114 1.78976 1.22136)
(0.363408 0.387043 -1.38189)
(0.31658 0.342308 -1.31417)
(0.103007 0.454198 -1.55697)
(-0.152042 0.667848 -1.43034)
(-0.244339 1.30043 -1.39964)
(0.163168 2.05711 -0.0370987)
(-0.140402 2.23666 0.0088388)
(3.54893 0.547392 2.70955)
(3.72611 0.518365 2.86061)
(3.62553 0.54971 2.7844)
(3.74699 0.497094 3.01281)
(3.76701 0.461219 2.99446)
(3.93073 0.0868246 2.71922)
(3.60686 0.586987 2.69844)
(3.79749 0.319134 2.49107)
(3.59527 0.321839 2.30065)
(3.41059 0.751711 2.25735)
(3.17606 0.343033 1.18009)
(3.0273 0.638053 1.17043)
(3.19018 0.403256 1.3254)
(3.80971 -0.0545739 0.784416)
(4.139 -0.050701 0.807116)
(2.15205 -0.190044 0.0617998)
(2.58006 -0.0352364 0.0431142)
(3.24309 -0.538896 -0.209462)
(3.46276 0.0361996 -0.0201314)
(3.38279 0.958315 0.424665)
(3.48126 0.234449 1.27335)
(1.13979 -0.229551 -1.62522)
(1.52811 -0.104508 -1.09443)
(1.67835 -0.200617 -0.843007)
(1.85989 -0.210845 -0.866847)
(2.15543 0.812006 -0.157806)
(2.06712 1.75261 1.15492)
(1.65073 2.0616 1.04017)
(0.362269 0.358025 -1.39599)
(0.305942 0.312444 -1.31196)
(0.111868 0.459192 -1.55447)
(-0.132364 0.676346 -1.43153)
(-0.212957 1.2492 -1.51914)
(0.188164 2.05112 -0.0431122)
(-0.161524 2.25281 0.0149488)
(0.156532 2.26741 0.208472)
(3.3072 0.46417 2.82383)
(3.55645 0.295745 2.75731)
(3.3995 0.414372 2.73797)
(3.82803 0.268933 2.8197)
(3.66461 0.420364 2.81374)
(3.63239 0.416841 2.83316)
(3.72389 0.331106 3.10326)
(3.8507 0.0667058 2.91721)
(3.89867 0.098277 2.80023)
(3.62607 0.230371 2.89698)
(3.63347 0.510953 2.65759)
(3.7348 0.162766 2.63892)
(3.53677 0.403957 2.47756)
(3.42987 0.512835 2.26732)
(3.48028 0.813122 2.17208)
(3.07595 0.308443 1.17261)
(3.03213 0.469351 1.38441)
(3.15353 0.374788 1.40159)
(3.80266 -0.278408 0.847559)
(4.12318 0.476447 1.10804)
(3.82154 0.724907 1.49773)
(2.06171 -0.207501 0.00295121)
(2.52098 0.121822 0.0363329)
(3.16176 -0.330731 0.0714667)
(3.41614 -0.67857 -0.327277)
(3.59093 -0.239782 0.208977)
(3.49 1.18005 0.933852)
(2.9625 1.38295 1.34077)
(1.11918 -0.251893 -1.61958)
(1.46939 -0.254327 -1.27025)
(1.68459 -0.237605 -0.757371)
(1.86788 -0.22747 -0.834344)
(2.2277 0.560172 -0.347366)
(2.13154 1.64594 1.07858)
(1.69788 1.96894 1.09467)
(1.11984 2.40013 0.850348)
(0.359964 0.338542 -1.40531)
(0.301133 0.295336 -1.32013)
(0.120503 0.465366 -1.55115)
(-0.117698 0.684911 -1.42797)
(-0.18321 1.20143 -1.59533)
(0.206955 2.03236 -0.0660023)
(-0.145587 2.25882 0.00862658)
(0.166966 2.285 0.209707)
(0.340526 1.74411 0.0553563)
(2.91277 0.52177 2.7071)
(2.96995 0.399583 2.90569)
(3.30782 0.255487 2.84666)
(3.20285 0.304276 2.84002)
(3.64541 0.253046 2.64705)
(3.65119 0.0976272 2.52712)
(3.34761 0.251782 2.76667)
(3.85469 0.294788 2.84867)
(3.64541 -0.0441236 2.88583)
(3.64964 0.194642 2.84291)
(3.7844 0.100724 2.84102)
(3.74659 0.172535 3.08553)
(3.79952 0.124752 2.96379)
(3.94348 -0.214404 2.78811)
(3.68 -0.225399 2.84537)
(3.29829 0.551179 2.72302)
(3.57426 0.413465 2.722)
(3.77515 -0.0925848 2.74428)
(3.59435 0.0649434 2.54852)
(3.41902 0.189889 2.26705)
(3.44959 0.496448 2.23804)
(3.5741 0.478734 2.21724)
(2.95543 0.128374 0.98979)
(3.04116 0.455437 1.4877)
(3.08191 0.377916 1.71895)
(3.58542 -0.593608 0.999558)
(4.11627 -0.0816828 0.982364)
(4.01827 0.356661 1.63592)
(3.38025 1.22791 1.49167)
(1.96876 -0.339631 -0.0552268)
(2.45586 0.0612264 0.23848)
(3.09917 -0.30133 0.0801483)
(3.41809 -0.628522 -0.260056)
(3.66976 0.135914 0.24196)
(3.62319 0.628138 0.958048)
(3.02716 1.14217 1.34358)
(2.59767 1.39025 1.14619)
(1.08696 -0.277575 -1.58505)
(1.39991 -0.3585 -1.4262)
(1.67302 -0.232642 -0.726355)
(1.86331 -0.336125 -0.734991)
(2.24225 0.329398 -0.486411)
(2.22133 1.45723 0.969829)
(1.721 1.92432 1.10974)
(1.16305 2.37473 0.845949)
(1.18454 1.82303 0.721954)
(0.356559 0.32066 -1.41349)
(0.290418 0.265794 -1.34086)
(0.125231 0.468275 -1.54808)
(-0.0949746 0.702441 -1.41957)
(-0.166953 1.16308 -1.62995)
(0.217908 1.99024 -0.127903)
(-0.141617 2.25687 -0.0010201)
(0.17625 2.29912 0.207292)
(0.352314 1.76335 0.0262202)
(0.678069 1.37405 0.376698)
(2.68553 0.428927 2.7654)
(3.02534 0.387424 2.7176)
(2.86176 0.388238 2.81849)
(2.97501 0.342753 2.89594)
(2.98248 0.138897 2.9147)
(3.3414 0.14485 2.84359)
(3.33614 0.0223377 2.70429)
(3.17232 0.195544 2.78455)
(3.63201 -0.107495 2.79335)
(3.55052 0.121211 2.69837)
(3.37225 0.115172 2.72407)
(3.28287 0.131076 2.74349)
(3.88688 0.0997201 2.89167)
(3.71887 -0.0839037 2.86136)
(3.64176 0.0116444 2.89636)
(3.76989 0.105301 2.8677)
(3.34201 0.430995 3.05634)
(3.85154 0.35329 2.98671)
(3.87162 0.351661 2.93505)
(3.91824 -0.198184 2.79069)
(3.72852 -0.442593 2.78623)
(3.28982 0.415242 2.8586)
(3.49731 0.179552 2.09515)
(3.50166 0.0180168 2.68895)
(3.78238 0.209598 2.82306)
(3.61082 0.0661956 2.72172)
(3.43495 0.0907858 2.22887)
(3.5084 0.558018 2.0595)
(3.62856 0.358704 2.26021)
(3.54713 0.476917 1.58721)
(2.89666 -0.0952333 0.809004)
(2.99061 0.416037 1.46147)
(3.03777 0.450756 1.83991)
(3.53534 -0.279769 1.08884)
(4.09868 -0.222444 1.06952)
(4.03699 0.820648 1.54333)
(3.48402 0.647117 1.63722)
(3.33075 1.17465 1.34669)
(1.90438 -0.379513 -0.113723)
(2.36665 0.0790823 0.458139)
(3.04612 -0.265189 0.26196)
(3.46318 -0.221135 0.148261)
(3.69623 -0.215566 0.222632)
(3.67757 0.333514 0.890041)
(3.19805 0.955041 1.31107)
(2.63946 1.26805 1.10514)
(1.85001 1.70984 1.0579)
(1.0617 -0.28286 -1.56388)
(1.34308 -0.399138 -1.53611)
(1.66184 -0.243008 -0.696086)
(1.82944 -0.409566 -0.741475)
(2.23732 -0.0522231 -0.684602)
(2.28905 1.30917 0.797592)
(1.7732 1.86513 1.0971)
(1.22077 2.32277 0.824689)
(1.19556 1.82018 0.585158)
(1.49625 1.6496 0.776443)
(0.348014 0.298394 -1.42405)
(0.279341 0.237999 -1.36317)
(0.126161 0.467949 -1.54348)
(-0.0746182 0.712878 -1.41246)
(-0.147855 1.13925 -1.62347)
(0.239032 1.95527 -0.168641)
(-0.120521 2.24581 -0.0182339)
(0.168457 2.3121 0.185831)
(0.355868 1.78601 0.00844558)
(0.658813 1.39433 0.359104)
(1.08652 1.14231 0.306787)
(2.49414 0.300782 2.82088)
(2.74025 0.246981 2.74444)
(2.70052 0.40233 2.76005)
(3.07668 0.184813 2.72648)
(2.89431 0.174509 2.78464)
(2.90442 0.217288 2.76295)
(3.01322 -0.126857 2.93939)
(2.98621 -0.108198 2.88984)
(3.01494 0.0874902 2.89171)
(3.34453 0.0084448 2.84383)
(3.32179 0.0989332 2.75578)
(3.15985 0.276083 2.78691)
(3.09119 -0.0408236 2.79397)
(3.73383 0.023967 2.71075)
(3.56162 0.0181807 2.67707)
(3.38479 -0.00927194 2.74263)
(3.31163 -0.0810614 2.75801)
(3.30847 0.116738 2.56461)
(3.96053 -0.135896 3.00565)
(3.67883 -0.0329349 2.96367)
(3.61791 0.0827481 2.9303)
(3.71383 -0.217518 2.87724)
(3.41813 -0.0964462 3.02708)
(3.54328 0.0448688 2.64511)
(3.78493 -0.0801181 3.02464)
(3.90305 0.363723 2.98145)
(3.9716 -0.284181 2.85209)
(3.71585 -0.443703 2.82164)
(3.35317 0.255764 2.7907)
(3.53098 0.0135145 2.16878)
(3.37376 -0.1043 1.95791)
(3.36976 -0.0586156 2.61459)
(3.71541 0.0733668 2.84765)
(3.63231 0.209517 2.78588)
(3.32272 0.333844 2.43571)
(3.39662 0.0590094 2.19346)
(3.63472 0.246163 2.27273)
(3.56482 0.0899704 1.87301)
(3.1134 0.60758 1.76109)
(2.85487 -0.090874 0.626918)
(2.97393 0.165311 1.34013)
(3.00071 0.409974 1.87618)
(3.52348 -0.452208 1.32917)
(4.16393 -0.521347 1.24179)
(4.21318 0.0513253 1.40688)
(3.60494 0.547955 1.65012)
(3.34788 0.886512 1.19684)
(3.18294 0.679221 0.995151)
(1.88673 -0.321094 -0.0473654)
(2.29934 0.101476 0.314187)
(2.91076 -0.0837358 0.401491)
(3.30569 -0.589384 -0.0937668)
(3.68448 -0.343431 0.202631)
(3.76013 0.0898126 0.715615)
(3.22917 1.02743 1.22153)
(2.70506 1.11015 1.13038)
(1.92504 1.56383 1.09083)
(1.90356 1.7109 0.984917)
(1.03056 -0.318991 -1.54684)
(1.31084 -0.42629 -1.5561)
(1.6275 -0.279039 -0.726739)
(1.7697 -0.512868 -0.762761)
(2.2223 -0.146195 -0.703456)
(2.36539 1.1304 0.52905)
(1.79444 1.82218 1.05778)
(1.21329 2.24653 0.814326)
(1.20612 1.78353 0.578255)
(1.52829 1.5965 0.725164)
(1.78774 1.2082 0.886029)
(0.340392 0.280795 -1.43411)
(0.267781 0.221363 -1.38288)
(0.124476 0.464438 -1.53799)
(-0.0633864 0.713633 -1.40879)
(-0.122356 1.11293 -1.60077)
(0.256093 1.92128 -0.205765)
(-0.145824 2.28163 0.00486938)
(0.161097 2.3137 0.132735)
(0.37042 1.80623 -0.0133977)
(0.686396 1.40308 0.361663)
(1.08185 1.14138 0.315456)
(1.23496 0.925181 0.713608)
(2.33405 0.396712 2.64677)
(2.41961 0.299651 2.75874)
(2.50268 0.276074 2.8241)
(2.54763 0.290365 2.72354)
(2.7732 0.187902 2.76259)
(2.71705 0.072923 2.75396)
(2.71418 0.283089 2.7112)
(3.07937 0.0298949 2.71401)
(2.9984 -0.0301839 2.7347)
(2.83109 0.168613 2.85576)
(3.02865 0.211885 2.69448)
(3.01568 -0.0999122 2.95285)
(3.00964 -0.0824759 2.8908)
(3.01856 0.0708698 2.89366)
(3.04424 0.0253704 2.89903)
(3.34938 -0.155486 2.91437)
(3.37957 -0.102131 2.68167)
(3.23126 -0.152854 2.7477)
(3.10785 -0.076102 2.78925)
(3.02004 0.0248571 2.7896)
(3.7667 -0.44711 2.74429)
(3.63841 -0.153115 2.71596)
(3.42873 -0.129504 2.67043)
(3.32091 -0.148235 2.74728)
(3.3042 0.132981 2.6473)
(3.19721 0.0893087 2.57352)
(3.94512 -0.202862 3.00118)
(3.77105 -0.508369 2.96038)
(3.61498 -0.242279 2.9529)
(3.74351 -0.430389 2.84457)
(3.49051 -0.190187 2.97775)
(3.43999 0.21486 2.69967)
(3.37404 -0.0258966 2.64292)
(3.77127 -0.185056 2.93432)
(3.83252 0.0265459 3.02246)
(4.02386 -0.225817 2.89473)
(3.77217 -0.650275 2.82979)
(3.29655 0.0304645 2.78339)
(3.26537 0.104752 2.5324)
(3.59796 -0.41811 1.62506)
(2.70458 0.438674 2.50116)
(3.28477 -0.347557 2.44597)
(3.69182 -0.341147 2.73292)
(3.59344 0.1347 2.80837)
(3.34811 -0.0963871 2.528)
(3.36804 -0.0274716 2.17561)
(3.62101 0.0466112 2.23304)
(3.57531 -0.202331 1.81633)
(3.15788 0.445326 1.70747)
(3.30553 0.348852 1.32675)
(2.75482 -0.34001 0.489562)
(2.97353 -0.0103785 1.17884)
(2.94552 0.2618 2.0336)
(3.36124 -0.149978 1.68338)
(4.09559 -0.286288 1.44107)
(4.28527 0.268309 1.37236)
(3.66153 0.494551 1.55621)
(3.42204 0.754592 1.17274)
(3.39161 0.520996 1.14344)
(2.5391 1.03333 1.60952)
(1.85848 -0.312039 0.0380388)
(2.2783 -0.00371779 -0.0019052)
(2.75565 -0.330416 0.143395)
(3.29164 -0.712145 -0.140569)
(3.73582 -0.442413 0.209469)
(3.73681 -0.205329 0.589875)
(3.2933 0.79701 1.1127)
(2.81826 1.03771 1.13723)
(2.06124 1.385 1.10066)
(1.93687 1.5393 1.05602)
(2.22593 1.26006 0.880845)
(0.943746 -0.345263 -1.51066)
(1.2132 -0.488772 -1.52885)
(1.59984 -0.299652 -0.749392)
(1.72236 -0.502122 -0.775975)
(2.15641 -0.387325 -0.780713)
(2.4129 0.930259 0.292104)
(1.83306 1.79562 1.01753)
(1.2238 2.11166 0.83001)
(1.2218 1.76882 0.519504)
(1.52162 1.59301 0.693684)
(1.80006 1.19839 0.870795)
(1.64223 1.11652 1.40265)
(0.332834 0.266904 -1.44129)
(0.263607 0.211012 -1.39587)
(0.118911 0.45961 -1.53131)
(-0.0595789 0.696247 -1.41355)
(-0.101605 1.08771 -1.56953)
(0.26963 1.88747 -0.240872)
(-0.134956 2.28736 -0.0449435)
(0.16154 2.30989 0.0786489)
(0.380825 1.82365 -0.0368666)
(0.679008 1.40763 0.351558)
(1.07718 1.14359 0.316392)
(1.24057 0.92874 0.711976)
(1.40435 0.597884 0.945265)
(2.24942 0.441697 2.62585)
(2.35046 0.32433 2.65393)
(2.35429 0.343986 2.56591)
(2.41481 0.175406 2.76799)
(2.41509 0.22222 2.74686)
(2.51426 0.0726091 2.80638)
(2.54812 0.157252 2.72722)
(2.52985 0.159295 2.67986)
(2.75048 0.0666825 2.7711)
(2.69732 -0.000964761 2.77367)
(2.7043 0.110335 2.72766)
(2.68892 0.197548 2.7287)
(3.07248 -0.208842 2.77745)
(2.91137 -0.164733 2.82085)
(2.76674 0.147752 2.91599)
(2.95278 -0.0155381 2.69201)
(2.89098 0.25084 2.69852)
(3.0219 -0.263702 2.93447)
(3.08364 -0.292683 2.8984)
(3.04459 -0.0856894 2.81559)
(3.05007 -0.118599 2.88473)
(2.97873 0.00544436 2.79409)
(3.36471 -0.0996442 2.91548)
(3.40108 -0.430426 2.71649)
(3.2097 -0.192946 2.74893)
(3.12423 -0.213511 2.76445)
(3.07013 -0.135007 2.82402)
(2.90553 0.149097 2.7223)
(3.80584 -0.126904 2.80666)
(3.64943 -0.0992002 2.76225)
(3.4767 -0.396509 2.66637)
(3.29339 -0.300592 2.79616)
(3.20645 -0.157379 2.76321)
(3.19168 0.109494 2.65685)
(3.12517 -0.0510226 2.75669)
(3.91533 -0.280703 3.03898)
(3.82691 -0.570873 2.99674)
(3.69459 -0.405562 2.97218)
(3.65277 -0.387898 2.97428)
(3.52146 -0.173757 2.93667)
(3.34857 0.0175329 2.82079)
(3.36489 -0.0388466 2.53509)
(2.93709 -0.000959254 2.76142)
(3.69795 -0.278231 2.89909)
(3.81284 -0.881353 2.96536)
(3.9756 -0.30077 2.88273)
(3.88107 -0.566166 2.78134)
(3.38495 -0.21918 2.73052)
(3.19184 -0.15909 2.49314)
(3.42016 -0.426156 1.85138)
(2.90237 0.128768 2.30804)
(2.74815 0.33636 2.21683)
(3.18319 -0.466188 2.27312)
(3.62367 -0.467641 2.5977)
(3.6089 -0.172872 2.80036)
(3.35557 0.220049 2.60922)
(3.33305 -0.0522921 2.40136)
(3.68835 -0.460291 2.11788)
(3.70322 -0.668174 1.84777)
(3.32343 0.0111435 1.83155)
(3.51853 0.121717 1.34926)
(3.11634 0.53585 1.6548)
(2.682 -0.459055 0.294735)
(2.87418 -0.3302 1.02946)
(2.94425 0.248824 2.03818)
(3.32321 -0.161671 1.51307)
(4.07207 -0.534465 1.44021)
(4.23414 -0.0575062 1.36872)
(3.81644 -0.0852384 1.28797)
(3.62577 0.686877 1.21362)
(3.41563 0.598693 1.26056)
(2.60272 0.862217 1.57021)
(2.46752 0.884483 1.45784)
(1.76564 -0.38528 0.0624694)
(2.16787 0.0294632 0.297905)
(2.6833 -0.321138 0.0693704)
(3.19533 -0.238404 0.808482)
(3.60758 -0.450201 0.217532)
(3.70879 -0.553408 0.456196)
(3.407 0.541039 0.982191)
(2.81849 1.08353 1.10489)
(2.07202 1.31724 1.15564)
(2.02671 1.42125 1.07265)
(2.26202 1.20339 0.807379)
(2.53086 0.61641 1.0063)
(0.900838 -0.362316 -1.41737)
(1.18566 -0.489085 -1.44694)
(1.586 -0.29047 -0.774078)
(1.67562 -0.484395 -0.854945)
(2.13606 -0.401934 -0.767867)
(2.45392 0.743481 0.0415761)
(1.86708 1.78852 0.956892)
(1.23878 2.00711 0.870404)
(1.23156 1.7671 0.468247)
(1.48914 1.57409 0.633315)
(1.83741 1.19815 0.821968)
(1.69554 1.00389 1.38548)
(1.75222 0.406605 1.62394)
(0.329498 0.256427 -1.44236)
(0.257896 0.206164 -1.40547)
(0.107302 0.456486 -1.52059)
(-0.0702844 0.681654 -1.41301)
(-0.110487 1.02423 -1.5668)
(0.285938 1.85557 -0.262118)
(-0.103237 2.26515 -0.047558)
(0.163649 2.30007 0.0170156)
(0.379244 1.84596 -0.0648353)
(0.675767 1.40553 0.340632)
(1.0783 1.14361 0.31747)
(1.20228 0.933972 0.707881)
(1.41713 0.632438 0.949384)
(1.47538 0.0716439 0.752964)
(2.16725 0.435884 2.52457)
(2.27589 0.326711 2.65269)
(2.14765 0.30984 2.68611)
(2.32857 0.183709 2.66872)
(2.31959 0.189741 2.63281)
(2.24174 0.196459 2.59414)
(2.43989 0.0845538 2.7441)
(2.42635 0.0817592 2.7469)
(2.36575 0.191521 2.62891)
(2.52894 0.0543114 2.79298)
(2.51957 0.0670527 2.76669)
(2.5083 0.165716 2.68812)
(2.5316 0.16417 2.67244)
(2.75531 -0.144691 2.72806)
(2.7119 -0.0861564 2.78602)
(2.71736 -0.0150293 2.73429)
(2.67102 0.0656959 2.71462)
(2.69473 0.0676959 2.72179)
(3.06127 -0.293036 2.78124)
(3.02923 -0.386585 2.69688)
(2.8785 -0.117135 2.79137)
(2.8678 -0.0978176 2.70117)
(2.91294 -0.0707338 2.65624)
(2.74647 0.127936 2.67563)
(3.08457 -0.437956 2.9447)
(3.05956 -0.260956 2.89989)
(3.01801 -0.15945 2.84879)
(3.03066 -0.117738 2.87292)
(2.9866 -0.0835152 2.87715)
(2.81696 0.210795 2.85917)
(3.37453 -0.363436 2.9388)
(3.38273 -0.518805 2.79699)
(3.21567 -0.321179 2.71444)
(3.13859 -0.312853 2.77794)
(3.09542 -0.274158 2.819)
(2.88629 0.21652 2.82439)
(2.81067 -0.133375 2.79984)
(3.78107 -0.577515 2.85424)
(3.57649 -0.710201 2.8503)
(3.56047 -0.445648 2.68992)
(3.26969 -0.431557 2.8265)
(3.28876 -0.355654 2.72266)
(3.25039 0.0832472 2.7089)
(3.12067 -0.239954 2.76685)
(2.78153 -0.0802716 2.78036)
(3.86489 -0.484438 3.13237)
(3.82776 -0.380501 3.02965)
(3.76805 -0.344843 2.99877)
(3.64532 -0.554546 2.95892)
(3.64576 -0.331491 2.84213)
(3.31849 -0.216403 2.85471)
(3.29938 -0.187328 2.52611)
(3.02445 -0.321934 2.56972)
(2.42466 -0.314465 2.54191)
(3.6253 -0.607301 2.84826)
(3.83612 -0.171309 3.06129)
(4.02638 -0.822217 2.74933)
(3.69524 -0.514667 2.99672)
(3.204 -0.14682 3.02226)
(3.2405 -0.173832 2.66035)
(3.32819 -0.590295 1.88869)
(3.0479 -0.30093 2.24796)
(2.82159 -0.116919 2.31614)
(2.8509 0.343692 2.16737)
(3.06388 -0.600334 2.07336)
(3.57015 -0.705341 2.25943)
(3.59354 -0.0405359 2.89364)
(3.25197 0.0798925 2.73756)
(3.37996 -0.0502141 2.61205)
(3.65954 -0.338704 2.21087)
(3.7908 -0.439523 1.93191)
(3.4655 0.188144 1.83045)
(3.52399 0.461319 1.64121)
(3.26045 0.322017 1.49203)
(2.6276 0.905023 2.00018)
(2.57415 -0.670372 0.0466648)
(2.81793 -0.506607 0.776154)
(2.83778 0.0428854 2.02282)
(3.31055 -0.341694 1.72279)
(4.00148 -0.522396 1.39948)
(4.19791 -0.420727 1.21994)
(3.90513 -0.104231 1.25667)
(3.60698 0.683554 1.25137)
(3.44516 0.248504 1.27868)
(2.82551 0.294378 1.52674)
(2.46929 0.77751 1.4177)
(2.62923 0.774554 1.39076)
(1.64175 -0.506348 -0.0925476)
(2.04863 -0.00793561 -0.022589)
(2.5923 -0.211048 -0.00695256)
(2.9769 -0.662468 -0.558282)
(3.41719 -0.742697 0.0264386)
(3.67233 -0.785174 0.194572)
(3.45867 0.500245 0.705359)
(2.86503 0.939032 1.01871)
(2.12674 1.07604 1.38757)
(2.09753 1.6027 0.510012)
(2.28489 1.17653 0.763492)
(2.54346 0.468617 0.936724)
(2.27814 0.330771 1.08322)
(0.878906 -0.368839 -1.30883)
(1.12866 -0.449393 -1.40011)
(1.52037 -0.317081 -0.914512)
(1.66444 -0.458443 -0.875419)
(2.16629 -0.361639 -0.721131)
(2.4831 0.581624 -0.224795)
(1.90559 1.73583 0.797611)
(1.22238 1.98962 0.858218)
(1.2591 1.77796 0.386379)
(1.49099 1.44244 0.670746)
(1.84672 1.21933 0.786589)
(1.74028 0.964543 1.33277)
(1.76774 0.454615 1.55685)
(1.65113 0.201968 1.54095)
(0.319999 0.25166 -1.44244)
(0.256849 0.204716 -1.41232)
(0.0990689 0.452361 -1.50458)
(-0.0860384 0.663704 -1.40765)
(-0.148634 0.958521 -1.57327)
(0.299499 1.83106 -0.260114)
(-0.130604 2.27046 -0.082694)
(0.156495 2.28742 -0.0435986)
(0.378279 1.871 -0.0895773)
(0.678917 1.41054 0.329562)
(1.0705 1.1338 0.305947)
(1.23104 0.922759 0.695517)
(1.43147 0.627572 0.94711)
(1.47523 0.0725837 0.751888)
(1.54782 -0.261072 0.240895)
(1.995 0.304812 2.41673)
(2.2176 0.29665 2.54131)
(2.20763 0.283847 2.47565)
(2.29982 0.272978 2.65712)
(2.21878 0.276111 2.6556)
(2.09587 0.424882 2.63523)
(2.31342 0.0603821 2.68962)
(2.30498 0.115563 2.6498)
(2.24399 0.0317641 2.61614)
(2.21732 0.211958 2.62009)
(2.43323 0.0632205 2.73964)
(2.3948 -0.0471722 2.75609)
(2.44169 0.109244 2.63934)
(2.35918 0.194475 2.62376)
(2.57601 -0.0872122 2.79694)
(2.4986 -0.161066 2.78711)
(2.57077 -0.011783 2.65065)
(2.4968 0.130536 2.70597)
(2.49677 0.0788865 2.63357)
(2.71409 -0.178232 2.79336)
(2.60542 -0.130251 2.8634)
(2.71534 -0.1068 2.74097)
(2.67475 -0.00967744 2.72165)
(2.69405 0.0292033 2.71105)
(2.60976 -0.00356105 2.65592)
(2.97197 -0.466827 2.81021)
(2.9546 -0.247593 2.82453)
(2.75208 -0.0998001 2.92165)
(2.88835 -0.123417 2.67253)
(2.88758 -0.17629 2.65286)
(2.81353 0.0255617 2.62008)
(2.94719 0.0571447 2.43348)
(3.10542 -0.46352 2.95801)
(3.03946 -0.23868 2.91432)
(2.98535 -0.297929 2.87648)
(2.97326 -0.200802 2.84769)
(3.04252 -0.147948 2.86637)
(2.90601 -0.081884 2.79351)
(2.94179 0.0956735 2.73312)
(3.40987 -0.609409 2.97683)
(3.30985 -0.527072 2.82345)
(3.3431 -0.604846 2.6882)
(3.13972 -0.354704 2.77824)
(3.08213 -0.465132 2.83349)
(3.02018 0.0493849 2.80789)
(2.83548 -0.254765 2.78035)
(2.63893 -0.165614 2.88969)
(3.82143 -0.880006 2.87383)
(3.74855 -0.369573 2.83643)
(3.50661 -0.497372 2.76237)
(3.32349 -0.596844 2.77927)
(3.35135 -0.637679 2.81744)
(3.19113 -0.132152 2.81164)
(3.04204 -0.476396 2.76892)
(2.83751 -0.229883 2.71102)
(2.56763 -0.379277 2.4091)
(3.5676 -1.08737 3.38839)
(3.83836 -0.536317 3.04729)
(3.77411 -0.277273 3.00971)
(3.68444 -0.674817 2.97639)
(3.56345 -0.882961 2.88804)
(3.14732 -0.821544 2.9376)
(3.19531 -0.531154 2.57356)
(3.00467 -0.567158 2.51437)
(2.56071 -0.00790431 2.61077)
(2.64626 -0.338059 2.14161)
(3.58252 -0.818011 2.74141)
(3.63989 -0.840927 3.06565)
(3.9863 -0.3527 3.01448)
(3.80963 -1.72142 2.42742)
(3.46299 -0.997542 2.71593)
(3.25511 -0.363851 2.69351)
(3.34877 -0.849234 2.32676)
(3.38244 -0.416339 1.76643)
(2.8219 0.0895186 2.50855)
(2.94801 0.0984574 2.12614)
(2.67575 0.291546 2.04785)
(2.93491 -0.849719 1.81479)
(3.52542 -0.725226 2.03947)
(3.57199 -0.249475 2.78649)
(3.32291 -0.674896 2.73411)
(3.39437 -0.117471 2.77303)
(3.5925 -0.615646 2.16826)
(3.76091 -0.827634 1.98665)
(3.38452 -0.376549 1.92973)
(3.53426 0.223617 1.57578)
(3.50544 0.214936 1.50017)
(2.65076 0.868692 1.94079)
(2.70593 0.488127 1.65355)
(2.44776 -0.77201 -0.0495467)
(2.7896 -0.727355 0.510978)
(2.71239 -0.222974 1.90303)
(3.22032 -0.188288 1.73756)
(3.75876 -0.547632 1.31848)
(4.18162 -0.272044 1.16435)
(3.89744 -0.320019 1.01759)
(3.72327 0.246826 1.06084)
(3.59974 0.110704 1.36517)
(2.83237 0.303295 1.58631)
(2.54021 0.554842 1.4289)
(2.67555 0.625791 1.35211)
(2.75904 0.270537 0.978982)
(1.51677 -0.54636 -0.242551)
(1.99778 -0.0522404 -0.276451)
(2.45086 -0.294616 -0.280838)
(2.86731 -0.634201 -0.331572)
(3.3943 -0.671431 0.0298321)
(3.61897 -0.802401 0.112478)
(3.49724 0.264752 0.442775)
(2.95596 0.795241 0.903052)
(2.15921 1.02404 1.44718)
(2.1638 1.25827 0.674922)
(2.35266 1.12076 0.635943)
(2.56946 0.383667 0.895031)
(2.34605 0.338055 1.02168)
(1.89903 -0.313727 1.64573)
(0.822325 -0.38058 -1.23167)
(1.09936 -0.398107 -1.35739)
(1.44284 -0.347418 -1.03712)
(1.661 -0.425295 -0.927771)
(2.09676 -0.442866 -0.847519)
(2.48776 0.434799 -0.411058)
(1.91508 1.65539 0.743917)
(1.22522 1.95289 0.847245)
(1.26721 1.77763 0.288268)
(1.45593 1.41154 0.635904)
(1.86113 1.21673 0.706878)
(1.78245 0.900177 1.29742)
(1.78921 0.46946 1.50986)
(1.63815 0.245327 1.50485)
(1.87102 -0.292873 0.845844)
(0.314813 0.233738 -1.43873)
(0.247869 0.20833 -1.4179)
(0.0888989 0.452941 -1.4873)
(-0.107343 0.644281 -1.39599)
(-0.173067 0.907807 -1.56498)
(0.316004 1.81291 -0.240341)
(-0.128694 2.26754 -0.108141)
(0.153708 2.25641 -0.119185)
(0.382789 1.88925 -0.116462)
(0.686029 1.40901 0.321192)
(1.04637 1.11845 0.294208)
(1.26108 0.929562 0.700784)
(1.39855 0.644704 0.943676)
(1.4337 0.178446 0.770179)
(1.54088 -0.274385 0.24541)
(1.48101 -0.475899 0.0353341)
(1.88266 0.329967 2.36411)
(2.0454 0.213193 2.41142)
(2.01885 0.272044 2.37772)
(2.24185 0.10897 2.56883)
(2.24329 0.0790184 2.48831)
(2.17069 0.13489 2.46548)
(2.40185 0.102379 2.57257)
(2.25513 0.121472 2.67078)
(2.11394 0.172511 2.68251)
(2.05667 0.261863 2.62434)
(2.35724 -0.0224485 2.69566)
(2.27105 0.0567221 2.68074)
(2.23628 -0.00265651 2.6382)
(2.1419 0.165442 2.65215)
(2.23497 0.187256 2.59851)
(2.46224 -0.265323 2.76185)
(2.38418 -0.116661 2.75212)
(2.4227 -0.00657776 2.70725)
(2.25899 0.162682 2.70081)
(2.33752 0.118118 2.56672)
(2.56212 -0.187008 2.80175)
(2.50159 -0.162385 2.79856)
(2.5333 -0.051466 2.72194)
(2.38106 -0.163176 2.77435)
(2.52014 -0.101329 2.64498)
(2.48154 0.010028 2.58452)
(2.69535 -0.249249 2.8526)
(2.60821 -0.232894 2.82799)
(2.67369 -0.184687 2.78407)
(2.58831 -0.192685 2.7799)
(2.66675 -0.0848024 2.67366)
(2.61943 -0.050895 2.67863)
(2.60611 0.0445457 2.57505)
(2.99144 -0.488109 2.79211)
(2.99466 -0.324533 2.7891)
(2.92584 -0.38267 2.69775)
(2.8315 -0.221573 2.75275)
(2.88244 -0.210055 2.67884)
(2.82576 -0.028527 2.58756)
(2.99202 0.180471 2.43966)
(2.84953 0.152093 2.24523)
(3.08037 -0.85008 2.94891)
(2.94628 -0.437302 3.04673)
(2.90643 -0.768431 2.84745)
(2.98898 -0.335241 2.82527)
(2.92468 -0.324206 2.90243)
(2.88584 -0.290671 2.88397)
(2.82594 -0.294326 2.84131)
(2.76416 0.00599378 2.76343)
(3.36607 -0.865705 2.96292)
(3.31169 -0.737759 2.91772)
(3.27815 -0.584227 2.78334)
(3.17257 -0.628091 2.74718)
(3.08728 -0.53429 2.83802)
(3.05728 -0.203545 2.83269)
(2.82306 -0.392773 2.77058)
(2.58671 -0.2857 2.8751)
(2.76587 -0.391865 2.63975)
(3.74334 -0.952419 3.04183)
(3.70089 -0.647812 2.84069)
(3.69224 -0.533601 2.65594)
(3.30559 -0.742135 2.80908)
(3.32767 -0.621207 2.84559)
(3.06552 -0.198866 2.90844)
(3.38685 -0.26555 2.4452)
(2.69802 -0.574761 2.76185)
(2.58495 -0.512198 2.6424)
(2.45658 -0.25299 2.13958)
(3.74364 -0.780468 3.38881)
(3.78868 -0.695903 3.09632)
(3.78724 -0.664383 2.97371)
(3.66746 -0.821149 2.9714)
(3.28856 -1.3716 3.06166)
(3.18353 -0.776199 2.85186)
(2.97748 -0.983286 2.71055)
(3.09011 -0.730507 2.44821)
(2.67338 0.0039198 2.641)
(2.65105 -0.34592 2.3898)
(2.64993 -0.0184933 2.13158)
(3.50974 -0.979608 2.58718)
(3.50046 -0.662118 3.11614)
(3.93561 -0.765062 2.95751)
(3.95032 -0.529433 2.95897)
(3.53711 -0.451446 3.03365)
(3.21553 -0.408394 2.72097)
(3.44191 -0.463769 2.61541)
(3.4345 -0.571425 2.00292)
(2.85727 0.283866 2.48039)
(3.06547 -0.00426453 2.11536)
(2.77013 0.0574654 2.07921)
(2.66628 0.297862 1.67749)
(2.82547 -0.885966 1.55681)
(3.61231 -0.973446 1.60392)
(3.5152 -0.372594 2.67191)
(3.40107 0.0561933 2.90729)
(3.29118 -0.184453 2.90571)
(3.63566 -0.544049 2.25093)
(3.77329 -0.779472 2.0062)
(3.53644 -1.08538 1.79554)
(3.53646 0.0176686 1.81178)
(3.38293 0.347136 1.77479)
(2.94903 0.177385 1.76299)
(2.67374 0.368742 1.9172)
(2.70315 -0.0727946 1.49746)
(2.26784 -1.02825 -0.1769)
(2.69758 -0.916813 0.437745)
(2.48112 -0.577525 1.77178)
(2.93318 -0.233025 1.58705)
(3.7669 -0.659462 1.35185)
(4.12219 -0.349442 0.973749)
(3.86579 -0.820455 0.595109)
(3.92459 0.0465911 0.922554)
(3.65265 0.223657 1.32491)
(2.89984 0.0169605 1.4698)
(2.59805 0.357697 1.4821)
(2.62422 0.474143 1.40804)
(2.71305 0.204106 1.26538)
(2.33224 0.165197 1.43356)
(1.35318 -0.588895 -0.363812)
(1.92065 -0.180243 -0.540029)
(2.36734 -0.37937 -0.486994)
(2.84738 -0.560325 -0.236541)
(3.23432 -0.957681 -0.162388)
(3.48678 -1.02246 0.16456)
(3.60023 0.0113941 0.110608)
(2.97842 0.809792 0.776953)
(2.15466 0.926764 1.46028)
(2.15029 1.20842 0.550339)
(2.40546 1.03658 0.564355)
(2.60564 0.35933 0.892736)
(2.38667 0.174117 1.06385)
(1.89886 -0.221963 1.59143)
(1.98187 -0.407623 1.33768)
(0.800668 -0.402053 -1.23444)
(1.0654 -0.422106 -1.33287)
(1.37636 -0.346453 -1.13819)
(1.43834 -0.519596 -1.18809)
(1.92822 -0.613973 -1.0069)
(2.48832 0.298462 -0.563993)
(1.96544 1.58464 0.67109)
(1.18621 1.91225 0.814845)
(1.27296 1.74826 0.165999)
(1.4539 1.35328 0.588192)
(1.8532 1.16862 0.667305)
(1.81948 0.870544 1.23815)
(1.8122 0.516453 1.44001)
(1.64356 0.253401 1.43906)
(1.84508 -0.331418 0.909823)
(1.84685 -0.633958 0.69486)
(0.296143 0.235179 -1.45344)
(0.248626 0.205676 -1.42437)
(0.0788347 0.457182 -1.47028)
(-0.130527 0.634393 -1.37625)
(-0.183534 0.87793 -1.52857)
(0.33147 1.7958 -0.240934)
(-0.158995 2.23202 -0.173644)
(0.103976 2.27146 -0.185532)
(0.38872 1.89955 -0.157172)
(0.690489 1.40907 0.319235)
(1.05357 1.10014 0.275461)
(1.21585 0.954099 0.69317)
(1.38205 0.668891 0.949702)
(1.43405 0.115322 0.737299)
(1.4784 -0.342401 0.372699)
(1.48029 -0.451798 -0.0155959)
(1.4248 -0.986905 -0.521388)
(1.88831 0.334574 2.09864)
(1.91429 0.206145 2.32876)
(1.92189 0.157763 2.31711)
(2.05813 0.0836627 2.4631)
(2.06174 0.158567 2.38714)
(2.05539 0.187946 2.36784)
(2.26084 -0.029294 2.59543)
(2.26432 0.0218059 2.50808)
(2.23893 -0.0147316 2.42604)
(2.14044 0.103097 2.40271)
(2.34253 -0.0297198 2.614)
(2.30409 -0.0311183 2.62365)
(2.12815 0.150191 2.68839)
(2.04778 0.255955 2.63152)
(2.11625 0.127415 2.5383)
(2.38622 -0.142847 2.6832)
(2.27514 -0.128755 2.71555)
(2.18656 -0.0777381 2.64576)
(2.16725 0.153201 2.65338)
(2.21104 0.0211578 2.59859)
(2.22841 -0.00660581 2.52614)
(2.50757 -0.150619 2.7652)
(2.38393 -0.213276 2.76849)
(2.38829 -0.0855899 2.73356)
(2.28837 0.0997928 2.69407)
(2.3782 -0.0572981 2.55861)
(2.30071 -0.0656668 2.56898)
(2.53282 -0.452663 2.85202)
(2.50688 -0.203947 2.79801)
(2.54475 -0.166699 2.72244)
(2.40445 -0.12389 2.75847)
(2.49707 -0.0704417 2.66816)
(2.45014 -0.086401 2.61154)