/*--------------------------------*- C++ -*----------------------------------*\
  =========                 |
  \\      /  F ield         | OpenFOAM: The Open Source CFD Toolbox
   \\    /   O peration     | Website:  https://openfoam.org
    \\  /    A nd           | Version:  7
     \\/     M anipulation  |
\*---------------------------------------------------------------------------*/
FoamFile
{
    version     2.0;
    format      ascii;
    class       volVectorField;
    location    "8";
    object      U_0;
}
// * * * * * * * * * * * * * * * * * * * * * * * * * * * * * * * * * * * * * //

dimensions      [0 1 -1 0 0 0 0];

internalField   nonuniform List<vector> 
18780
(
(0.326636 0.542892 -1.34391)
(1.12042 -0.126733 -0.977371)
(0.346132 0.56296 -1.36022)
(0.326524 0.565357 -1.38465)
(2.35676 0.465051 -0.0119604)
(1.12485 -0.122693 -1.09753)
(1.51726 0.0884001 -0.867607)
(0.356656 0.55726 -1.36144)
(0.338664 0.524981 -1.37362)
(0.0665256 0.510777 -1.54683)
(3.15251 0.961838 0.967835)
(2.36663 0.264263 -0.0603905)
(2.90462 -0.00421854 0.0392175)
(1.13752 -0.10333 -1.23331)
(1.5319 0.0938913 -0.823057)
(1.63084 -0.0186729 -0.798403)
(0.364128 0.50789 -1.35783)
(0.345708 0.481623 -1.362)
(0.076364 0.487599 -1.55418)
(-0.221269 0.641539 -1.44095)
(3.80678 0.587437 2.48613)
(3.3381 0.124576 0.833056)
(2.99686 0.719867 1.09629)
(2.3591 0.00425625 -0.0837474)
(2.82407 0.299368 0.618806)
(3.51468 0.00674035 0.0364431)
(1.15172 -0.132129 -1.35835)
(1.53992 0.0968692 -0.806114)
(1.62658 0.106262 -0.833437)
(1.73036 0.266862 -0.907493)
(0.367368 0.449439 -1.36196)
(0.339921 0.434175 -1.34716)
(0.0875318 0.467246 -1.55892)
(-0.196579 0.65429 -1.43137)
(-0.294398 1.40157 -1.12972)
(3.77467 0.78076 2.94269)
(3.70786 0.571445 2.52684)
(3.75063 0.54342 2.43833)
(3.23389 0.504531 1.09984)
(3.02701 0.721311 1.07628)
(3.36764 0.398929 0.968272)
(2.31234 -0.0126929 0.0294112)
(2.76553 0.0903916 0.242468)
(3.45829 -0.159282 0.0219402)
(3.4067 0.190269 -0.170565)
(1.15627 -0.167461 -1.48502)
(1.57508 0.0893402 -0.81093)
(1.64879 -0.164332 -0.811898)
(1.76797 0.0201757 -0.976973)
(1.9246 1.34399 0.274088)
(0.365576 0.421275 -1.36732)
(0.331959 0.386907 -1.32717)
(0.0989941 0.454851 -1.55983)
(-0.17423 0.661638 -1.431)
(-0.272487 1.35146 -1.26849)
(0.125491 2.06558 -0.0462734)
(3.66691 0.607965 2.86603)
(3.58252 0.925668 3.1132)
(3.84744 0.551748 2.91045)
(3.66403 0.571262 2.59058)
(3.71534 0.487282 2.5606)
(3.56405 0.420808 2.23848)
(3.22188 0.3662 1.09996)
(3.03216 0.697569 1.10367)
(3.30534 0.17608 1.21368)
(3.89882 0.056307 0.688596)
(2.24818 -0.18648 0.131271)
(2.65151 0.138407 0.20649)
(3.37584 -0.51205 -0.247033)
(3.42542 0.00597622 -0.197323)
(3.3686 0.841187 0.528218)
(1.15244 -0.197477 -1.58242)
(1.52627 0.00890969 -0.985042)
(1.66789 -0.234885 -0.845608)
(1.80387 -0.0624181 -0.969232)
(2.03661 1.1005 0.0556272)
(1.94587 1.79374 1.23502)
(0.364892 0.391342 -1.38019)
(0.319213 0.346798 -1.31347)
(0.106283 0.45565 -1.55751)
(-0.150269 0.675029 -1.434)
(-0.249495 1.2974 -1.41601)
(0.159097 2.0574 -0.0435595)
(-0.138771 2.24005 0.00982052)
(3.5471 0.546629 2.70881)
(3.72053 0.519032 2.86554)
(3.62493 0.550477 2.78579)
(3.75173 0.482745 3.0082)
(3.77376 0.458924 2.99365)
(3.92977 0.0732981 2.72472)
(3.61179 0.568648 2.6909)
(3.79208 0.319838 2.49148)
(3.59549 0.310372 2.28823)
(3.41443 0.74398 2.25558)
(3.18368 0.328503 1.16545)
(3.02825 0.630945 1.15409)
(3.20381 0.373654 1.30902)
(3.8181 -0.0441602 0.769138)
(4.12694 -0.0687095 0.837042)
(2.15697 -0.202434 0.0642377)
(2.58589 -0.0511414 0.049505)
(3.24922 -0.574353 -0.242008)
(3.45413 0.0805148 -0.0102834)
(3.37126 0.968008 0.439053)
(3.46059 0.207178 1.31683)
(1.14013 -0.232928 -1.62485)
(1.52961 -0.0967965 -1.08416)
(1.66474 -0.205347 -0.857049)
(1.83852 -0.192308 -0.890893)
(2.13669 0.838149 -0.142444)
(2.05608 1.75424 1.16711)
(1.64052 2.07276 1.03292)
(0.363685 0.361639 -1.39474)
(0.307827 0.315012 -1.31078)
(0.115063 0.460861 -1.55462)
(-0.130996 0.683721 -1.43433)
(-0.218778 1.24774 -1.53337)
(0.183724 2.05195 -0.0491363)
(-0.160428 2.25574 0.0153427)
(0.16868 2.26463 0.208289)
(3.30833 0.465011 2.82257)
(3.55436 0.293253 2.75873)
(3.39207 0.412096 2.74755)
(3.82189 0.262403 2.82425)
(3.66556 0.418715 2.81428)
(3.63681 0.409477 2.83596)
(3.72509 0.323803 3.10213)
(3.85411 0.0609579 2.91775)
(3.90165 0.0963216 2.79516)
(3.61772 0.238508 2.90272)
(3.63504 0.495023 2.65621)
(3.73698 0.174726 2.61737)
(3.53453 0.399201 2.46371)
(3.43185 0.532971 2.2663)
(3.49071 0.816613 2.16934)
(3.08494 0.303557 1.1725)
(3.03108 0.465075 1.3587)
(3.16329 0.350903 1.378)
(3.81417 -0.280668 0.834762)
(4.11963 0.476613 1.10834)
(3.8078 0.741513 1.49344)
(2.06644 -0.211828 0.00441061)
(2.52626 0.102385 0.0182927)
(3.16544 -0.366517 0.0469472)
(3.40986 -0.649783 -0.308638)
(3.56805 -0.140248 0.237785)
(3.47287 1.15708 0.959737)
(2.95552 1.40071 1.34362)
(1.12054 -0.252676 -1.62263)
(1.47244 -0.246533 -1.25809)
(1.67373 -0.24157 -0.771324)
(1.85299 -0.218843 -0.851836)
(2.20383 0.607977 -0.323065)
(2.11488 1.66728 1.09857)
(1.68563 1.98038 1.08893)
(1.11836 2.4012 0.853867)
(0.36144 0.341912 -1.40429)
(0.302955 0.298567 -1.31794)
(0.124162 0.467238 -1.55094)
(-0.115413 0.69391 -1.42941)
(-0.190934 1.19478 -1.6101)
(0.20087 2.03258 -0.0736888)
(-0.145815 2.2627 0.0102318)
(0.177029 2.28253 0.209418)
(0.351398 1.73917 0.0582477)
(2.91142 0.5174 2.70812)
(2.97094 0.393836 2.90712)
(3.30895 0.247885 2.84684)
(3.19809 0.306015 2.84546)
(3.64432 0.252758 2.64722)
(3.64817 0.0942562 2.52703)
(3.34639 0.247568 2.76986)
(3.85115 0.278583 2.85078)
(3.64537 -0.0365257 2.8863)
(3.65292 0.204169 2.84321)
(3.78256 0.0843749 2.8443)
(3.73897 0.151174 3.0942)
(3.80287 0.09549 2.9631)
(3.94366 -0.22598 2.78735)
(3.67158 -0.20469 2.85261)
(3.30231 0.549989 2.71622)
(3.5842 0.418734 2.71455)
(3.77166 -0.12141 2.73123)
(3.59065 0.0692761 2.53202)
(3.42277 0.195915 2.27019)
(3.45358 0.490469 2.24232)
(3.57852 0.474891 2.20565)
(2.96076 0.132897 0.995983)
(3.0416 0.44106 1.47466)
(3.09182 0.351689 1.68816)
(3.60149 -0.63015 0.981209)
(4.11875 -0.0549001 0.980287)
(4.00328 0.322031 1.63819)
(3.3815 1.20869 1.49935)
(1.97252 -0.342876 -0.0527264)
(2.45995 0.0487662 0.211037)
(3.10056 -0.323654 0.0633839)
(3.39809 -0.701612 -0.320621)
(3.65264 0.124938 0.241248)
(3.60397 0.684848 0.971682)
(3.01674 1.14546 1.34967)
(2.58758 1.3978 1.15113)
(1.08838 -0.279287 -1.58704)
(1.40116 -0.357014 -1.41709)
(1.66229 -0.237553 -0.739292)
(1.85043 -0.326948 -0.750808)
(2.22423 0.365642 -0.475887)
(2.20569 1.47997 0.994822)
(1.70956 1.93398 1.10779)
(1.16037 2.3774 0.849361)
(1.19181 1.82088 0.73206)
(0.358188 0.324159 -1.41246)
(0.292376 0.269485 -1.33823)
(0.129219 0.470074 -1.54769)
(-0.0928995 0.711096 -1.42036)
(-0.176321 1.1622 -1.63797)
(0.21257 1.99288 -0.130665)
(-0.141671 2.26175 0.000384867)
(0.187913 2.29703 0.20795)
(0.364178 1.75837 0.0289505)
(0.686615 1.36653 0.377839)
(2.6855 0.425622 2.76497)
(3.02173 0.386223 2.7187)
(2.8623 0.391067 2.82119)
(2.97539 0.345106 2.8957)
(2.98343 0.136875 2.91575)
(3.34331 0.136062 2.84338)
(3.33501 0.0157604 2.70471)
(3.17221 0.183818 2.78546)
(3.62974 -0.112124 2.79237)
(3.55081 0.114323 2.69846)
(3.37034 0.110112 2.7275)
(3.28445 0.133179 2.74081)
(3.87941 0.103438 2.88921)
(3.71635 -0.0959676 2.86391)
(3.64524 0.00226317 2.89719)
(3.77255 0.106059 2.87051)
(3.33863 0.437944 3.05851)
(3.85113 0.355764 2.98755)
(3.87129 0.322604 2.93201)
(3.91879 -0.211879 2.78897)
(3.72259 -0.44437 2.79034)
(3.28927 0.422988 2.85674)
(3.50003 0.180755 2.09478)
(3.50858 0.0229873 2.69114)
(3.78206 0.18583 2.81646)
(3.60496 0.0495758 2.70794)
(3.43772 0.0710287 2.22104)
(3.51615 0.569189 2.06181)
(3.63125 0.358488 2.25737)
(3.53765 0.505964 1.57133)
(2.89819 -0.103493 0.813792)
(2.99249 0.415524 1.45847)
(3.04487 0.428929 1.82352)
(3.54266 -0.30365 1.0612)
(4.09942 -0.220274 1.05371)
(4.02906 0.806914 1.55505)
(3.46856 0.711413 1.62023)
(3.33392 1.16508 1.34847)
(1.90421 -0.39248 -0.11865)
(2.37228 0.064316 0.447106)
(3.05256 -0.297739 0.227113)
(3.46338 -0.22727 0.143336)
(3.68182 -0.193819 0.225613)
(3.66095 0.338197 0.917682)
(3.18583 0.944129 1.32554)
(2.63025 1.2715 1.10917)
(1.84018 1.72499 1.06574)
(1.06364 -0.284736 -1.56384)
(1.34293 -0.399607 -1.53396)
(1.65239 -0.246184 -0.705696)
(1.81873 -0.400076 -0.748842)
(2.21977 -0.0187568 -0.679239)
(2.27267 1.33234 0.836559)
(1.76144 1.87565 1.10071)
(1.21821 2.33061 0.828539)
(1.20241 1.81695 0.59334)
(1.50576 1.64773 0.779827)
(0.349824 0.302058 -1.42303)
(0.281272 0.241182 -1.36078)
(0.130148 0.469592 -1.54299)
(-0.0726132 0.720862 -1.41336)
(-0.154361 1.14096 -1.62919)
(0.23334 1.95988 -0.168743)
(-0.12025 2.25199 -0.0165268)
(0.181455 2.31127 0.19005)
(0.367247 1.78155 0.0111162)
(0.669174 1.38485 0.362249)
(1.09295 1.13648 0.307121)
(2.49473 0.298664 2.82002)
(2.7388 0.245369 2.74412)
(2.70125 0.402769 2.75986)
(3.07508 0.185005 2.7276)
(2.89238 0.173466 2.78703)
(2.90881 0.214601 2.75968)
(3.01287 -0.128623 2.93794)
(2.98735 -0.116091 2.89075)
(3.01579 0.0823457 2.89272)
(3.34601 0.00852917 2.84119)
(3.32194 0.0882443 2.75448)
(3.15744 0.280834 2.79015)
(3.08936 -0.043826 2.79516)
(3.72784 0.0221323 2.71426)
(3.55962 0.0119134 2.67655)
(3.38111 -0.0121483 2.74738)
(3.31251 -0.0831382 2.75859)
(3.30644 0.115706 2.56631)
(3.95459 -0.141078 3.0049)
(3.67599 -0.0336683 2.96277)
(3.62178 0.0658464 2.93121)
(3.71625 -0.215142 2.88079)
(3.41239 -0.0824891 3.03185)
(3.5481 0.0256822 2.64208)
(3.78622 -0.0723549 3.02891)
(3.90558 0.363874 2.97902)
(3.96898 -0.307511 2.84698)
(3.71108 -0.44745 2.82022)
(3.35252 0.263675 2.792)
(3.5408 -0.00106994 2.15416)
(3.35019 -0.0763952 1.99882)
(3.37546 -0.060846 2.622)
(3.71723 0.0824325 2.8481)
(3.62648 0.19672 2.7783)
(3.32685 0.322456 2.4127)
(3.40779 0.070358 2.19308)
(3.63645 0.244621 2.27479)
(3.55977 0.120374 1.86883)
(3.1132 0.613795 1.76559)
(2.85737 -0.0928881 0.630125)
(2.97348 0.168214 1.34441)
(3.0075 0.396533 1.8593)
(3.53321 -0.491092 1.28146)
(4.16789 -0.547522 1.21474)
(4.19849 0.0804025 1.42656)
(3.59383 0.539879 1.6551)
(3.35065 0.884184 1.20131)
(3.14655 0.740746 1.00956)
(1.88462 -0.33458 -0.0576727)
(2.3017 0.0922715 0.327466)
(2.92578 -0.0935162 0.399866)
(3.31006 -0.588285 -0.0884339)
(3.6685 -0.361238 0.195359)
(3.74619 0.10811 0.738392)
(3.22123 1.03188 1.23807)
(2.68811 1.12842 1.12993)
(1.91339 1.57575 1.09296)
(1.9045 1.7215 0.98821)
(1.03566 -0.318125 -1.54766)
(1.31107 -0.426568 -1.56133)
(1.61897 -0.280219 -0.732818)
(1.75975 -0.504194 -0.768385)
(2.20605 -0.123739 -0.707661)
(2.34861 1.16093 0.572684)
(1.78142 1.8321 1.065)
(1.21075 2.25968 0.815622)
(1.21196 1.78093 0.584096)
(1.53664 1.58997 0.732542)
(1.79001 1.20004 0.893636)
(0.342333 0.284464 -1.43333)
(0.269578 0.224131 -1.38098)
(0.128597 0.465972 -1.53736)
(-0.0624536 0.719641 -1.41026)
(-0.127557 1.11523 -1.60388)
(0.250704 1.92688 -0.204834)
(-0.14518 2.28776 0.00483424)
(0.171967 2.3138 0.134797)
(0.380264 1.80263 -0.0105172)
(0.696332 1.39552 0.363367)
(1.09294 1.1372 0.313125)
(1.23989 0.923255 0.710904)
(2.33411 0.394595 2.64633)
(2.41949 0.298396 2.75874)
(2.50323 0.274049 2.82382)
(2.54791 0.290019 2.72267)
(2.7734 0.182022 2.76157)
(2.71849 0.0760104 2.75325)
(2.71506 0.280863 2.71085)
(3.07844 0.0268807 2.71413)
(2.99495 -0.0329298 2.73749)
(2.83461 0.163884 2.85362)
(3.03136 0.210923 2.69429)
(3.01555 -0.100309 2.95308)
(3.00796 -0.0837316 2.89019)
(3.01917 0.0692279 2.89552)
(3.04531 0.0215922 2.8996)
(3.35043 -0.166295 2.91063)
(3.37688 -0.094709 2.68386)
(3.22987 -0.156826 2.74939)
(3.10763 -0.0848456 2.79084)
(3.01835 0.0315064 2.78849)
(3.762 -0.457524 2.74344)
(3.63388 -0.162994 2.71518)
(3.42519 -0.136767 2.67377)
(3.32196 -0.150585 2.74795)
(3.30506 0.127234 2.64615)
(3.19852 0.081022 2.57383)
(3.94378 -0.214213 3.00085)
(3.76287 -0.502569 2.96195)
(3.61597 -0.230798 2.95361)
(3.74866 -0.442252 2.84063)
(3.48629 -0.197753 2.98467)
(3.44537 0.20542 2.69381)
(3.37037 -0.0230822 2.65414)
(3.7715 -0.194376 2.94127)
(3.83536 0.0506693 3.02465)
(4.02074 -0.241687 2.894)
(3.75818 -0.659322 2.83383)
(3.29106 0.0338673 2.7855)
(3.28063 0.0996614 2.51125)
(3.59687 -0.420274 1.62939)
(2.70071 0.43849 2.50275)
(3.28839 -0.34797 2.45592)
(3.69517 -0.330554 2.74004)
(3.5884 0.124983 2.80434)
(3.34506 -0.108423 2.51343)
(3.37423 -0.0444735 2.16929)
(3.62445 0.0471153 2.23732)
(3.56847 -0.193119 1.81439)
(3.15666 0.453834 1.70384)
(3.29506 0.362853 1.34378)
(2.75748 -0.339752 0.493848)
(2.97534 0.00294165 1.18724)
(2.95143 0.252827 2.01899)
(3.36723 -0.184858 1.6753)
(4.10407 -0.319284 1.42299)
(4.28538 0.257597 1.37265)
(3.65609 0.488785 1.5617)
(3.41323 0.757582 1.17258)
(3.38123 0.512455 1.13065)
(2.52438 1.05204 1.62382)
(1.85964 -0.319476 0.0268424)
(2.28182 -0.0120082 -0.00944272)
(2.76464 -0.336533 0.150368)
(3.2854 -0.718828 -0.150942)
(3.72797 -0.464317 0.199838)
(3.72759 -0.17473 0.609364)
(3.27869 0.822001 1.13483)
(2.80934 1.02958 1.14422)
(2.0487 1.39992 1.09926)
(1.93307 1.54847 1.05368)
(2.22846 1.25795 0.893772)
(0.947575 -0.344707 -1.51707)
(1.21442 -0.488367 -1.53818)
(1.59031 -0.304895 -0.75469)
(1.70791 -0.505478 -0.782215)
(2.14169 -0.364778 -0.786878)
(2.39713 0.961337 0.334428)
(1.81999 1.80185 1.02247)
(1.22043 2.12379 0.828014)
(1.22676 1.76573 0.526279)
(1.53139 1.58523 0.702666)
(1.80247 1.18912 0.879448)
(1.6419 1.11877 1.41021)
(0.334675 0.270541 -1.44087)
(0.265266 0.213499 -1.39439)
(0.123675 0.461033 -1.53054)
(-0.0585272 0.700423 -1.41556)
(-0.108234 1.08685 -1.57387)
(0.264396 1.89415 -0.239176)
(-0.133957 2.29291 -0.0429471)
(0.172892 2.30947 0.0847243)
(0.392646 1.82013 -0.033811)
(0.692406 1.3998 0.355263)
(1.07776 1.13815 0.316514)
(1.2431 0.923246 0.711315)
(1.41131 0.584452 0.94777)
(2.24821 0.440057 2.6261)
(2.35025 0.322241 2.65399)
(2.35393 0.342607 2.56536)
(2.41478 0.172081 2.76755)
(2.4154 0.223046 2.74527)
(2.51412 0.0710629 2.80644)
(2.54946 0.156234 2.72565)
(2.5302 0.155882 2.6792)
(2.75187 0.0670606 2.77066)
(2.69778 -0.0051435 2.77287)
(2.70452 0.109772 2.72738)
(2.68968 0.195419 2.72944)
(3.07196 -0.21055 2.77668)
(2.91066 -0.16305 2.82123)
(2.76432 0.147389 2.91924)
(2.9574 -0.0165595 2.69081)
(2.88828 0.251285 2.6992)
(3.02026 -0.266065 2.93435)
(3.08289 -0.298373 2.89748)
(3.04526 -0.0883358 2.81693)
(3.05042 -0.121686 2.88569)
(2.9771 0.0102495 2.79171)
(3.36455 -0.112821 2.9134)
(3.40107 -0.429326 2.71201)
(3.2087 -0.195217 2.752)
(3.12301 -0.21242 2.76699)
(3.06735 -0.13256 2.8245)
(2.90484 0.139061 2.72229)
(3.80353 -0.140133 2.80449)
(3.64915 -0.0989451 2.76028)
(3.46968 -0.398141 2.66927)
(3.29466 -0.303763 2.7953)
(3.21119 -0.146715 2.75852)
(3.19097 0.101999 2.655)
(3.11992 -0.049379 2.76019)
(3.91382 -0.288018 3.03704)
(3.8223 -0.58261 2.9977)
(3.68874 -0.415125 2.97394)
(3.65626 -0.399863 2.97332)
(3.51502 -0.176155 2.94325)
(3.35473 0.0276143 2.81302)
(3.36686 -0.0461661 2.53976)
(2.92839 0.00332293 2.76679)
(3.69902 -0.273788 2.90396)
(3.81578 -0.918917 2.95956)
(3.97311 -0.313869 2.88616)
(3.87625 -0.585648 2.76721)
(3.38102 -0.217474 2.72535)
(3.19208 -0.17075 2.48374)
(3.42776 -0.42552 1.84076)
(2.88051 0.157827 2.32857)
(2.75217 0.336056 2.20893)
(3.18695 -0.471891 2.28275)
(3.62543 -0.461981 2.61941)
(3.60479 -0.163962 2.79532)
(3.35262 0.196013 2.6005)
(3.33755 -0.0690478 2.37897)
(3.69362 -0.45033 2.11701)
(3.69316 -0.680945 1.83991)
(3.3136 0.00800082 1.82823)
(3.52052 0.0933789 1.32937)
(3.10957 0.536518 1.66132)
(2.68436 -0.459493 0.303801)
(2.876 -0.318491 1.04415)
(2.94955 0.239701 2.0312)
(3.33483 -0.176161 1.48855)
(4.084 -0.52725 1.42431)
(4.23913 -0.0253757 1.37542)
(3.79728 -0.0306562 1.32302)
(3.62542 0.669311 1.20528)
(3.40781 0.590409 1.25605)
(2.59025 0.883006 1.57871)
(2.46855 0.885588 1.46406)
(1.77208 -0.386381 0.0658228)
(2.17411 0.0212044 0.291933)
(2.68761 -0.343777 0.0681135)
(3.20392 -0.276475 0.780157)
(3.61348 -0.439233 0.22701)
(3.70071 -0.528961 0.481773)
(3.39707 0.542903 1.00591)
(2.8081 1.08489 1.118)
(2.06381 1.33002 1.14681)
(2.02657 1.41918 1.07791)
(2.26615 1.19856 0.817036)
(2.53211 0.608498 1.01676)
(0.903027 -0.362427 -1.42408)
(1.1841 -0.492953 -1.45612)
(1.57761 -0.293861 -0.774421)
(1.66098 -0.489447 -0.85717)
(2.11057 -0.407917 -0.785738)
(2.43673 0.772966 0.0898082)
(1.85032 1.79879 0.973463)
(1.23642 2.01492 0.868786)
(1.2357 1.76355 0.475318)
(1.49766 1.57212 0.641741)
(1.83987 1.18712 0.834091)
(1.69351 1.00722 1.39581)
(1.75461 0.38455 1.63701)
(0.331425 0.259828 -1.44214)
(0.259577 0.208297 -1.40435)
(0.112236 0.457914 -1.52015)
(-0.0697167 0.685663 -1.41481)
(-0.121554 1.01754 -1.57596)
(0.28148 1.8634 -0.257923)
(-0.1026 2.28109 -0.0391527)
(0.174801 2.30017 0.0237004)
(0.393352 1.84215 -0.0619138)
(0.683764 1.39861 0.343234)
(1.08604 1.13646 0.317924)
(1.21317 0.927895 0.708175)
(1.42314 0.62348 0.949291)
(1.47503 0.0677658 0.755544)
(2.16819 0.433919 2.52357)
(2.27521 0.325052 2.6522)
(2.14637 0.309728 2.68608)
(2.32818 0.181714 2.6689)
(2.31972 0.188113 2.63165)
(2.24121 0.195563 2.59442)
(2.43905 0.0820958 2.74451)
(2.42706 0.0806594 2.74589)
(2.36541 0.190152 2.62798)
(2.52771 0.0500737 2.79267)
(2.52143 0.0670387 2.76497)
(2.50818 0.16449 2.68831)
(2.53267 0.161963 2.67155)
(2.75487 -0.148006 2.7286)
(2.71224 -0.090916 2.78508)
(2.7174 -0.015815 2.73429)
(2.67232 0.0654528 2.71553)
(2.69381 0.0646798 2.72204)
(3.06223 -0.295345 2.78095)
(3.02625 -0.390539 2.69813)
(2.88027 -0.118153 2.78954)
(2.8705 -0.104485 2.69978)
(2.91207 -0.0660159 2.65711)
(2.74819 0.124785 2.67387)
(3.08067 -0.440424 2.94382)
(3.06071 -0.269683 2.89934)
(3.01904 -0.15805 2.8469)
(3.03195 -0.121966 2.8749)
(2.98469 -0.085025 2.87684)
(2.81902 0.203565 2.85848)
(3.37248 -0.357671 2.93591)
(3.38421 -0.526145 2.79373)
(3.21022 -0.32113 2.71811)
(3.13782 -0.319214 2.77949)
(3.09359 -0.271677 2.82068)
(2.88319 0.211379 2.8235)
(2.80903 -0.13391 2.80184)
(3.78103 -0.562492 2.85271)
(3.57306 -0.717699 2.84923)
(3.55621 -0.458316 2.69127)
(3.26833 -0.43366 2.82871)
(3.28461 -0.344718 2.72318)
(3.25223 0.0816756 2.70689)
(3.11906 -0.241039 2.77003)
(2.77601 -0.0817177 2.78139)
(3.87128 -0.473371 3.12251)
(3.82283 -0.397696 3.03071)
(3.76306 -0.359944 3.00055)
(3.64493 -0.556537 2.96056)
(3.64108 -0.317218 2.84538)
(3.31884 -0.217662 2.85268)
(3.30427 -0.183429 2.52358)
(3.01603 -0.308511 2.58112)
(2.42286 -0.328229 2.53149)
(3.62514 -0.603208 2.8542)
(3.84464 -0.16194 3.0632)
(4.02818 -0.82734 2.74683)
(3.68435 -0.515895 3.00385)
(3.19836 -0.134895 3.01899)
(3.24131 -0.183822 2.65195)
(3.33106 -0.591411 1.86856)
(3.0415 -0.293425 2.25829)
(2.82272 -0.11674 2.30581)
(2.84793 0.344648 2.16979)
(3.06809 -0.599179 2.08572)
(3.56834 -0.707245 2.28069)
(3.58823 -0.0494864 2.89339)
(3.25398 0.111789 2.72624)
(3.3801 -0.0697302 2.59423)
(3.66995 -0.341702 2.20788)
(3.78638 -0.438714 1.9261)
(3.46287 0.176666 1.8308)
(3.52509 0.460861 1.6351)
(3.23694 0.339991 1.51172)
(2.62026 0.896269 2.00483)
(2.57883 -0.670403 0.0535156)
(2.81506 -0.501381 0.795272)
(2.8475 0.0489155 2.02116)
(3.31495 -0.357103 1.70836)
(4.02024 -0.536038 1.40412)
(4.20063 -0.429076 1.22768)
(3.90184 -0.109583 1.27056)
(3.6048 0.680953 1.25643)
(3.43302 0.27249 1.27397)
(2.81519 0.311192 1.52989)
(2.47339 0.771498 1.41798)
(2.63385 0.769884 1.38924)
(1.64744 -0.509148 -0.0840565)
(2.05453 -0.0150931 -0.00513168)
(2.60043 -0.224421 0.00584901)
(2.98384 -0.660131 -0.513712)
(3.41412 -0.754633 0.0288611)
(3.66514 -0.776825 0.226011)
(3.44268 0.523138 0.766434)
(2.85155 0.945196 1.03668)
(2.11662 1.09213 1.37305)
(2.09043 1.60269 0.550925)
(2.2873 1.17133 0.773455)
(2.5412 0.473965 0.949583)
(2.27007 0.310106 1.10954)
(0.883001 -0.369516 -1.31439)
(1.12724 -0.454222 -1.40692)
(1.51614 -0.31722 -0.907141)
(1.64992 -0.463845 -0.879714)
(2.14025 -0.366841 -0.735734)
(2.46734 0.595802 -0.203718)
(1.89171 1.75145 0.813598)
(1.21912 1.99652 0.856569)
(1.26393 1.77501 0.390484)
(1.49963 1.44146 0.676245)
(1.85127 1.20873 0.795662)
(1.73893 0.965177 1.34422)
(1.7701 0.438264 1.56817)
(1.6567 0.184609 1.54624)
(0.322201 0.255193 -1.44258)
(0.258595 0.20672 -1.41151)
(0.104049 0.453689 -1.50448)
(-0.085188 0.666646 -1.40906)
(-0.158194 0.954085 -1.58223)
(0.296729 1.8408 -0.251705)
(-0.132227 2.28619 -0.0831571)
(0.167152 2.28832 -0.0381445)
(0.391027 1.86806 -0.0866294)
(0.687598 1.40323 0.331824)
(1.08291 1.13072 0.309598)
(1.23636 0.919092 0.6972)
(1.43572 0.619149 0.947533)
(1.47917 0.0580844 0.751322)
(1.54728 -0.266313 0.248267)
(1.99523 0.303818 2.41645)
(2.21759 0.297356 2.54045)
(2.20752 0.283303 2.47501)
(2.2986 0.271359 2.65746)
(2.21672 0.275803 2.656)
(2.09492 0.426443 2.63484)
(2.31196 0.0592509 2.68922)
(2.3055 0.113602 2.64902)
(2.24289 0.0326025 2.61605)
(2.21826 0.210886 2.62013)
(2.43224 0.0631271 2.73914)
(2.39548 -0.0478147 2.75548)
(2.44036 0.110206 2.63834)
(2.36132 0.192823 2.62195)
(2.57528 -0.0880299 2.79635)
(2.49914 -0.162075 2.78613)
(2.56977 -0.0133468 2.65099)
(2.49869 0.129662 2.70516)
(2.49658 0.0788482 2.63312)
(2.71509 -0.182111 2.79053)
(2.60755 -0.131772 2.86216)
(2.71562 -0.108421 2.74024)
(2.67518 -0.0131264 2.72153)
(2.69472 0.0283485 2.71222)
(2.60969 -0.00520066 2.65491)
(2.97271 -0.469856 2.80977)
(2.9534 -0.253483 2.82409)
(2.74871 -0.099353 2.92526)
(2.89049 -0.126333 2.6708)
(2.88844 -0.177632 2.65234)
(2.81293 0.0235527 2.62136)
(2.9469 0.0560275 2.43113)
(3.10227 -0.463493 2.9589)
(3.04002 -0.244159 2.91147)
(2.98762 -0.290381 2.8768)
(2.97375 -0.20057 2.84986)
(3.04313 -0.150833 2.867)
(2.90195 -0.0747288 2.79511)
(2.94608 0.108037 2.72723)
(3.4075 -0.613955 2.97625)
(3.30875 -0.533583 2.8208)
(3.33979 -0.608435 2.68608)
(3.13887 -0.356232 2.78048)
(3.08179 -0.467516 2.83511)
(3.01541 0.0528361 2.80848)
(2.83307 -0.255712 2.78263)
(2.64185 -0.166111 2.89049)
(3.82079 -0.880992 2.86857)
(3.74586 -0.373435 2.83689)
(3.50147 -0.505112 2.76376)
(3.3199 -0.599309 2.7826)
(3.35009 -0.642127 2.81721)
(3.19773 -0.132765 2.80679)
(3.02668 -0.494309 2.78327)
(2.83701 -0.226229 2.70943)
(2.57277 -0.365791 2.39242)
(3.57118 -1.08945 3.37688)
(3.83526 -0.540854 3.04781)
(3.77108 -0.290194 3.01234)
(3.67961 -0.686339 2.97968)
(3.56157 -0.878527 2.88805)
(3.14841 -0.80733 2.93911)
(3.21048 -0.509064 2.56268)
(2.99667 -0.566946 2.52097)
(2.55454 -0.0242558 2.6082)
(2.64497 -0.329959 2.13522)
(3.58106 -0.816788 2.75189)
(3.65023 -0.838914 3.06442)
(3.98934 -0.362053 3.01104)
(3.79558 -1.70745 2.44607)
(3.44752 -0.995475 2.71479)
(3.25837 -0.368016 2.69194)
(3.34842 -0.871432 2.29605)
(3.35754 -0.407078 1.80011)
(2.82212 0.069772 2.50282)
(2.94347 0.103529 2.12993)
(2.66956 0.30355 2.04019)
(2.93877 -0.852665 1.82817)
(3.51967 -0.731527 2.05989)
(3.56646 -0.242841 2.79621)
(3.31232 -0.703926 2.7221)
(3.40617 -0.128935 2.75052)
(3.59954 -0.631582 2.16306)
(3.76214 -0.833079 1.98133)
(3.38488 -0.302693 1.9274)
(3.53828 0.213332 1.56592)
(3.50174 0.196369 1.48608)
(2.64547 0.864138 1.94507)
(2.70693 0.474947 1.63656)
(2.45384 -0.771309 -0.0479985)
(2.78837 -0.72126 0.522785)
(2.72739 -0.206242 1.90612)
(3.2378 -0.217163 1.7257)
(3.77399 -0.557844 1.30571)
(4.18411 -0.301392 1.16928)
(3.89468 -0.286437 1.0567)
(3.70537 0.279947 1.08655)
(3.5901 0.0872112 1.36448)
(2.82166 0.322434 1.59627)
(2.53613 0.577091 1.4259)
(2.6804 0.635602 1.35152)
(2.75908 0.268744 0.962928)
(1.52332 -0.549022 -0.234202)
(2.00531 -0.0565044 -0.262743)
(2.45848 -0.298465 -0.262449)
(2.86379 -0.656859 -0.353295)
(3.38949 -0.676978 0.0307211)
(3.61426 -0.80098 0.108405)
(3.48553 0.27795 0.479039)
(2.942 0.798795 0.920344)
(2.15164 1.03228 1.44596)
(2.1639 1.27237 0.679324)
(2.35306 1.11687 0.647042)
(2.56795 0.372462 0.899042)
(2.34177 0.334789 1.03072)
(1.90042 -0.307496 1.65087)
(0.823655 -0.379771 -1.23688)
(1.10099 -0.399152 -1.36032)
(1.43893 -0.348226 -1.03249)
(1.64632 -0.426774 -0.932479)
(2.09168 -0.421907 -0.829994)
(2.4726 0.467493 -0.372081)
(1.89777 1.67195 0.75795)
(1.22251 1.96027 0.847108)
(1.27221 1.77633 0.296715)
(1.46383 1.40737 0.645419)
(1.86486 1.20952 0.725337)
(1.78138 0.899913 1.30896)
(1.79042 0.453705 1.52281)
(1.64293 0.232058 1.51245)
(1.87522 -0.297602 0.843119)
(0.317041 0.237302 -1.43886)
(0.24974 0.210298 -1.41728)
(0.0943241 0.454013 -1.4873)
(-0.107018 0.647079 -1.39676)
(-0.177707 0.9101 -1.56433)
(0.315021 1.82502 -0.230678)
(-0.127198 2.27446 -0.109143)
(0.165596 2.25939 -0.112883)
(0.395764 1.88712 -0.113896)
(0.696114 1.40117 0.323636)
(1.05091 1.11571 0.298448)
(1.26468 0.924562 0.701332)
(1.40719 0.636731 0.944304)
(1.44429 0.157794 0.772734)
(1.54454 -0.274978 0.244145)
(1.48392 -0.489867 0.0520097)
(1.88311 0.328365 2.36487)
(2.04579 0.212103 2.41118)
(2.01905 0.271761 2.37767)
(2.24265 0.109067 2.56691)
(2.24339 0.0773758 2.48726)
(2.16947 0.133527 2.46534)
(2.40097 0.102088 2.57253)
(2.25382 0.119873 2.67088)
(2.11283 0.172927 2.6821)
(2.05752 0.258915 2.62367)
(2.35579 -0.0241614 2.69546)
(2.27068 0.0558015 2.68022)
(2.23572 -0.00316306 2.63815)
(2.14322 0.162715 2.65154)
(2.23573 0.186373 2.59798)
(2.46017 -0.267579 2.76151)
(2.38413 -0.118731 2.75199)
(2.42276 -0.00555458 2.70589)
(2.26009 0.159054 2.69982)
(2.33688 0.116519 2.56697)
(2.56192 -0.187503 2.80069)
(2.50151 -0.165944 2.79795)
(2.53302 -0.0516357 2.72157)
(2.38214 -0.164376 2.77388)
(2.52075 -0.105047 2.6438)
(2.48204 0.00876774 2.5837)
(2.69518 -0.252727 2.85099)
(2.60639 -0.239267 2.82847)
(2.67517 -0.183606 2.78293)
(2.58845 -0.19254 2.77982)
(2.66858 -0.0876366 2.674)
(2.61874 -0.0536192 2.67791)
(2.60707 0.0409855 2.57401)
(2.99042 -0.48999 2.79224)
(2.99372 -0.32545 2.7892)
(2.92561 -0.382853 2.69872)
(2.83308 -0.224163 2.75077)
(2.88324 -0.216143 2.67907)
(2.82576 -0.0298264 2.58798)
(2.99536 0.17711 2.43579)
(2.845 0.152649 2.2438)
(3.07515 -0.847351 2.95147)
(2.94674 -0.439301 3.04302)
(2.90232 -0.783086 2.84872)
(2.98935 -0.338858 2.82527)
(2.92815 -0.325158 2.90402)
(2.88421 -0.292783 2.88303)
(2.82899 -0.287967 2.84009)
(2.76121 0.00653204 2.76232)
(3.36696 -0.8595 2.96409)
(3.30993 -0.738055 2.91248)
(3.27784 -0.58884 2.78132)
(3.16841 -0.626939 2.74993)
(3.08676 -0.541536 2.83957)
(3.05741 -0.193522 2.83096)
(2.81675 -0.400429 2.7744)
(2.5873 -0.285833 2.87585)
(2.77425 -0.394275 2.63521)
(3.74978 -0.953681 3.02835)
(3.70191 -0.639856 2.84037)
(3.68411 -0.53722 2.65878)
(3.30326 -0.744736 2.81151)
(3.32963 -0.625432 2.84643)
(3.06321 -0.203602 2.90941)
(3.40196 -0.25434 2.43145)
(2.69282 -0.578553 2.76421)
(2.58046 -0.524076 2.63464)
(2.45499 -0.250712 2.13887)
(3.7343 -0.787186 3.39043)
(3.79227 -0.691571 3.09373)
(3.78685 -0.658706 2.9741)
(3.66499 -0.836675 2.97324)
(3.28283 -1.39256 3.05323)
(3.16834 -0.806664 2.85546)
(2.98087 -0.999645 2.70493)
(3.08717 -0.743728 2.44775)
(2.66856 0.0103129 2.64222)
(2.65281 -0.345367 2.38078)
(2.64864 -0.0169049 2.12855)
(3.51055 -0.979462 2.59711)
(3.50675 -0.66463 3.1192)
(3.93672 -0.768186 2.95717)
(3.93315 -0.577342 2.94758)
(3.51498 -0.472856 3.03633)
(3.21986 -0.412102 2.71412)
(3.44853 -0.48344 2.60268)
(3.43569 -0.574772 1.9796)
(2.85315 0.288681 2.49003)
(3.06463 -0.00111154 2.10994)
(2.76336 0.0606525 2.07998)
(2.66607 0.291213 1.66594)
(2.82842 -0.886988 1.57225)
(3.60636 -0.972686 1.63163)
(3.51369 -0.367667 2.68541)
(3.39113 0.0416244 2.90716)
(3.30485 -0.198577 2.89125)
(3.63991 -0.566565 2.23437)
(3.77339 -0.785554 2.0094)
(3.52074 -1.11834 1.7814)
(3.53549 0.0276812 1.79533)
(3.38139 0.334374 1.77311)
(2.93204 0.210829 1.77023)
(2.67559 0.358239 1.91017)
(2.69999 -0.0789472 1.50011)
(2.27555 -1.02315 -0.181043)
(2.69952 -0.908702 0.439005)
(2.48995 -0.565784 1.78618)
(2.94241 -0.238921 1.58706)
(3.76556 -0.702613 1.32984)
(4.13004 -0.370778 0.98588)
(3.86403 -0.807347 0.630314)
(3.91694 0.0280079 0.938317)
(3.64621 0.227317 1.33489)
(2.89331 0.0137099 1.47489)
(2.59625 0.366034 1.48058)
(2.63213 0.469046 1.408)
(2.70405 0.189795 1.2844)
(2.32835 0.155125 1.43918)
(1.36167 -0.589796 -0.353194)
(1.93745 -0.177493 -0.518479)
(2.36869 -0.388717 -0.483037)
(2.84673 -0.575567 -0.238579)
(3.23109 -0.969027 -0.16702)
(3.48381 -1.02006 0.157206)
(3.58258 0.0378605 0.138185)
(2.96237 0.81675 0.812215)
(2.14579 0.94027 1.46029)
(2.14914 1.21641 0.56437)
(2.40105 1.04074 0.582959)
(2.60388 0.352704 0.901718)
(2.38292 0.176363 1.06405)
(1.89537 -0.236893 1.6028)
(1.98446 -0.415862 1.34121)
(0.803796 -0.401923 -1.23158)
(1.06684 -0.423395 -1.33559)
(1.37297 -0.347486 -1.13322)
(1.44625 -0.509438 -1.1681)
(1.93266 -0.585612 -0.996687)
(2.47643 0.313674 -0.551782)
(1.94712 1.59974 0.682467)
(1.18413 1.92145 0.815722)
(1.27818 1.74849 0.171227)
(1.46108 1.34942 0.595297)
(1.85877 1.16724 0.677181)
(1.81818 0.86837 1.25163)
(1.81293 0.50273 1.45322)
(1.64739 0.24191 1.44841)
(1.85098 -0.339612 0.90135)
(1.84679 -0.638918 0.705367)
(0.298456 0.239108 -1.45289)
(0.250393 0.207557 -1.42399)
(0.0844032 0.458236 -1.47036)
(-0.130085 0.637731 -1.37625)
(-0.185389 0.883311 -1.52415)
(0.328432 1.80549 -0.240406)
(-0.15907 2.23985 -0.172086)
(0.116475 2.27471 -0.180403)
(0.402515 1.89771 -0.153775)
(0.698114 1.4025 0.321706)
(1.05965 1.09636 0.277511)
(1.22292 0.947508 0.694638)
(1.39451 0.658282 0.948681)
(1.4359 0.11889 0.743352)
(1.48379 -0.355057 0.377281)
(1.48259 -0.455969 -0.00139069)
(1.42888 -0.98882 -0.51427)
(1.88766 0.333931 2.09891)
(1.91357 0.20625 2.3298)
(1.92229 0.156919 2.31665)
(2.05904 0.0823558 2.46236)
(2.06178 0.158999 2.38688)
(2.05486 0.188063 2.36791)
(2.26247 -0.0311324 2.59381)
(2.2637 0.0195306 2.50767)
(2.23777 -0.0140463 2.42565)
(2.14015 0.103494 2.40104)
(2.34375 -0.0298305 2.61231)
(2.30155 -0.0283525 2.62556)
(2.12727 0.149796 2.68789)
(2.04729 0.254699 2.63144)
(2.11686 0.123688 2.53741)
(2.38531 -0.145489 2.68306)
(2.27396 -0.127746 2.715)
(2.18643 -0.0802301 2.64538)
(2.16737 0.150865 2.65321)
(2.21177 0.0214371 2.59842)
(2.22846 -0.00880244 2.52544)
(2.50623 -0.154609 2.76521)
(2.38362 -0.212326 2.7676)
(2.38759 -0.0880515 2.73365)
(2.28819 0.100341 2.69312)
(2.38002 -0.0588523 2.55651)
(2.3 -0.0689578 2.56946)
(2.53141 -0.451009 2.85039)
(2.50622 -0.205945 2.79743)
(2.54434 -0.168121 2.72303)
(2.40426 -0.126442 2.75756)
(2.4977 -0.0723638 2.6685)
(2.45016 -0.0881321 2.61039)