/*--------------------------------*- C++ -*----------------------------------*\
  =========                 |
  \\      /  F ield         | OpenFOAM: The Open Source CFD Toolbox
   \\    /   O peration     | Website:  https://openfoam.org
    \\  /    A nd           | Version:  7
     \\/     M anipulation  |
\*---------------------------------------------------------------------------*/
FoamFile
{
    version     2.0;
    format      ascii;
    class       volScalarField;
    location    "4.5";
    object      nut;
}
// * * * * * * * * * * * * * * * * * * * * * * * * * * * * * * * * * * * * * //

dimensions      [0 2 -1 0 0 0 0];

internalField   nonuniform List<scalar> 
150000
(
0.000523617
0.000680391
0.000599783
0.00173089
0.000463165
0.00225396
0.00061645
0.000447724
0.000956654
0.000671509
0.00153381
0.000299398
0.00196538
0.000463758
0.00221806
0.00146594
0.00341145
0.00154176
0.000605814
0.000778384
0.000345853
0.00059916
0.00112157
0.000691496
0.0015367
0.000284655
0.000140886
0.000309368
0.00188785
0.000527652
0.00464578
0.00261178
0.00170959
0.00323989
0.00104218
0.00110393
0.00133175
0.000815711
0.00173536
0.000525736
0.000950696
0.000323125
0.000349777
0.000531939
0.000914065
0.00125927
0.000671659
0.0016829
0.000320738
0.000151774
0.000312925
0.000155762
0.000210665
0.0015994
0.000553997
0.00285391
0.00438358
0.00186985
0.00412964
0.00267563
0.00155001
0.00210575
0.00184578
0.00323381
0.0013601
0.00121626
0.00147958
0.00102812
0.00172788
0.0024966
0.00272875
0.000445761
0.00100274
0.000415296
0.000379823
0.000372479
0.000265905
0.000663543
0.00104584
0.00124742
0.000630543
0.00170305
0.000385714
0.000153997
0.000332339
0.000307541
0.000308551
8.85783e-05
0.000389531
0.000970674
0.000750228
0.00329192
0.00317157
0.00217143
0.00253175
0.00385367
0.00177868
0.00160419
0.00257182
0.00233685
0.00233638
0.00163534
0.00115234
0.000980042
0.0032245
0.00154935
0.00277637
0.00133117
0.000892
0.00144089
0.000912966
0.00037625
0.00119761
0.00107274
0.000964449
0.00294371
0.000370971
0.000930575
0.000445356
0.000435367
0.000285523
0.000459934
0.000348301
0.000264661
0.000617395
0.000508968
0.00137545
0.00058732
0.00161275
0.000426948
0.000160938
0.00034012
0.000307692
0.000233555
0.00032376
0.000297773
0.0001138
0.000294085
0.000494263
0.00100373
0.00274662
0.00340015
0.00218488
0.00309052
0.00311358
0.00227663
0.00136469
0.00193139
0.00277096
0.00423076
0.00153242
0.000819919
0.00101098
0.00181544
0.00297467
0.00250071
0.00257315
0.00153326
0.000786676
0.00108295
0.00108849
0.00103801
0.00260373
0.00311135
0.00258248
0.00134822
0.000696155
0.00108765
0.000751491
0.000495461
0.000683835
0.000437396
0.00127475
0.00109826
0.00326291
0.00311093
0.000317528
0.00081801
0.000448436
0.000470729
0.000307381
0.000418323
0.000443827
0.000485584
0.000280666
0.000296962
0.000457511
0.00169605
0.00159653
0.000554611
0.0013977
0.000434682
0.000161021
0.000345369
0.000303452
0.000225624
0.00041738
0.0002278
0.000318117
0.000295244
7.9252e-05
0.000220054
0.000411026
0.00118409
0.00254007
0.00283805
0.0010153
0.00262484
0.00304627
0.00146637
0.000936724
0.00209487
0.00322393
0.00317732
0.00193508
0.00105021
0.000824634
0.00219908
0.00210781
0.00271516
0.00510758
0.00204079
0.000838122
0.00109201
0.000869732
0.00101812
0.000731159
0.00264312
0.00226542
0.00231816
0.00113055
0.00084849
0.00102534
0.000728646
0.000677739
0.00125535
0.00149831
0.0022937
0.00369723
0.00303548
0.00137055
0.000492123
0.000906591
0.000536426
0.00068382
0.000584502
0.000751324
0.000669904
0.000681603
0.00121851
0.00089094
0.00102967
0.002992
0.000325122
0.000737228
0.000435329
0.000472495
0.000406613
0.000361368
0.000460044
0.000286468
0.000447682
0.000456582
0.000273364
0.000351835
0.000483717
0.00253757
0.00167883
0.000539512
0.00106825
0.000421264
0.000127252
0.000364037
0.000296783
0.000225544
0.000442596
0.000469408
0.000445583
0.000255521
0.000311125
0.000287837
0.000190614
0.000354985
0.000541407
0.00120217
0.00266543
0.00243149
0.000923467
0.00261512
0.00281146
0.00166818
0.00105504
0.000820539
0.00300174
0.00292168
0.00166091
0.00128051
0.000907517
0.00147949
0.0019907
0.00286353
0.00327746
0.00207291
0.000829912
0.000793285
0.000512588
0.00116422
0.00212601
0.00199545
0.00268016
0.00539942
0.00224276
0.000803651
0.000663698
0.000979348
0.000911773
0.00124259
0.000832667
0.00106181
0.00228514
0.00239971
0.00225174
0.00227677
0.000861681
0.00111267
0.000716619
0.00135292
0.000893358
0.000683683
0.00144118
0.00139821
0.00187286
0.00270895
0.00330909
0.00116974
0.000440785
0.000775378
0.000305003
0.000775673
0.000343316
0.000607429
0.00104031
0.000758511
0.000686654
0.00081979
0.00139501
0.000898444
0.00194705
0.00238829
0.000295299
0.000696992
0.000363014
0.000472285
0.000440848
0.000302656
0.000483356
0.000328866
0.000412655
0.000256961
0.00042063
0.000413156
0.000314206
0.000396903
0.000822226
0.00286136
0.00156316
0.000537259
0.000696809
0.000409265
0.000103044
0.000387795
0.000288884
0.000225555
0.000443773
0.000449722
0.000336623
0.000521217
0.000427623
0.000285449
0.000306237
0.000272657
7.87834e-05
0.000353353
0.00063519
0.00102672
0.00239814
0.00268217
0.000573265
0.00274311
0.00243202
0.000792737
0.000743885
0.000711238
0.00254739
0.00303232
0.0015346
0.0011401
0.00105142
0.000784969
0.00150209
0.00276453
0.00273346
0.00155712
0.00137768
0.000852098
0.00103588
0.000991811
0.0019399
0.00149192
0.00278721
0.0039391
0.00223076
0.00100299
0.00107989
0.000368499
0.000730604
0.000257709
0.00162966
0.00193799
0.00223519
0.00249654
0.00462886
0.00340983
0.00158319
0.000729921
0.000883836
0.000973964
0.000624675
0.000727172
0.00142025
0.000667791
0.00142354
0.00134403
0.00256509
0.00278
0.00232154
0.00109286
0.000841886
0.00089686
0.00129916
0.00126564
0.00102763
0.000793551
0.000816542
0.00156845
0.00179765
0.00167399
0.00152933
0.00295079
0.000942822
0.000541637
0.000553079
0.000313075
0.000846425
0.000362423
0.000635096
0.000993032
0.000745992
0.0011201
0.00084198
0.000601834
0.000839166
0.00138455
0.000984522
0.00238048
0.0018897
0.000302384
0.000702251
0.000335128
0.000480406
0.000501908
0.000264538
0.000489547
0.000408626
0.000378069
0.000395368
0.000528245
0.000324558
0.00038769
0.000358609
0.000336422
0.000461084
0.00109037
0.00229362
0.00156967
0.000544359
0.000427667
0.000405435
0.000122397
0.000401279
0.000280751
0.000230808
0.000441726
0.000429228
0.000323213
0.000164364
0.000370288
0.000542651
0.000372032
0.000273877
0.000304329
0.000259731
6.28432e-05
0.00023577
0.000281295
0.000750327
0.00241198
0.00248729
0.000754908
0.00273541
0.00263569
0.000638459
0.000695574
0.000693926
0.00251559
0.00238103
0.000703432
0.000806931
0.000986125
0.000284901
0.000864131
0.00258922
0.00330804
0.00115489
0.000842391
0.000981126
0.000732741
0.000880396
0.000969566
0.000824381
0.00242728
0.00255612
0.00169205
0.00155042
0.00161943
0.00131668
0.00180111
0.000973754
0.0010691
0.00212885
0.00135171
0.00269554
0.0042185
0.00149138
0.00104787
0.00101864
0.000886059
0.000532833
0.000802288
0.000687374
0.000997762
0.00140328
0.00128909
0.00220302
0.00257784
0.00450335
0.00209554
0.00178109
0.00101425
0.000861934
0.000741196
0.000616112
0.000432052
0.000712838
0.000985165
0.00151555
0.00119006
0.00104395
0.00103245
0.00252232
0.00335031
0.00161886
0.0014158
0.00108505
0.00105934
0.00127924
0.00120009
0.00094392
0.00102316
0.00107299
0.000640335
0.000879931
0.00112963
0.00225445
0.00175813
0.00163308
0.00266454
0.000981421
0.000766092
0.000782015
0.000388199
0.000791376
0.000366759
0.000693541
0.000913831
0.000710017
0.000566934
0.000755782
0.00110088
0.000759566
0.00068158
0.00078679
0.00139125
0.000708095
0.00220816
0.00153473
0.000376976
0.000752962
0.000266491
0.000498685
0.000508674
0.00027585
0.000476138
0.000479397
0.000407735
0.000309886
0.000196111
0.000521093
0.000613916
0.000360401
0.000341796
0.000314272
0.000341833
0.000515634
0.00100776
0.00204201
0.00127583
0.000550777
0.000326877
0.000403201
0.000114525
0.000410077
0.000263587
0.000238616
0.000434134
0.000406308
0.000319682
0.000150862
0.000145561
0.000193657
0.000385884
0.000560832
0.000366111
0.000278701
0.000301338
0.000261244
8.93555e-05
0.000264272
0.000357917
0.000754699
0.00238727
0.00246979
0.000570912
0.00253674
0.00252984
0.000483522
0.000765657
0.000996279
0.00257061
0.00277376
0.00038968
0.000479377
0.000673436
0.000541026
0.000599175
0.00265015
0.00243533
0.000975109
0.000998673
0.000925586
0.00103075
0.000594393
0.00038204
0.000907747
0.00237142
0.00296258
0.00191323
0.00139495
0.0011001
0.00101842
0.000774415
0.00103183
0.00126684
0.00135386
0.000736213
0.00270442
0.00295814
0.00203345
0.00138152
0.00101563
0.000852824
0.000765132
0.00071947
0.000622656
0.00127005
0.00105606
0.0018476
0.00132797
0.0026164
0.0039547
0.00305312
0.00185573
0.0010613
0.000578064
0.000508928
0.000417174
0.000605917
0.000294803
0.00108746
0.000794347
0.00153219
0.00123558
0.00166068
0.00291752
0.00485629
0.00132865
0.00109127
0.00113952
0.000937233
0.000766957
0.000556033
0.000647374
0.000620303
0.000716648
0.000417709
0.000921915
0.0010045
0.000875078
0.000942604
0.00128147
0.00261964
0.00242429
0.00187862
0.00139553
0.00122637
0.00108197
0.00164434
0.00111039
0.00118105
0.000945133
0.000658395
0.000889324
0.000875535
0.000689821
0.00100879
0.00106986
0.00187908
0.000840677
0.00156702
0.00242011
0.00114346
0.000956353
0.000926094
0.000406693
0.000620104
0.000435536
0.000716526
0.000799179
0.000591079
0.000432119
0.000583484
0.000735566
0.000670773
0.000924168
0.0006228
0.000640388
0.000739756
0.00146665
0.000978368
0.00209914
0.00123938
0.000473521
0.000777949
0.000252463
0.000542672
0.000477009
0.000337993
0.000443793
0.00051156
0.000427959
0.00030109
0.000167989
0.000285751
0.000335501
0.000627297
0.000555541
0.000338287
0.000310714
0.000302313
0.000377727
0.000513111
0.000725162
0.00175808
0.00105841
0.000547771
0.000288434
0.000410204
0.000100101
0.000415369
0.000255239
0.000243381
0.000419665
0.00037796
0.000300604
0.000133775
0.000154712
0.000176307
0.000135162
0.000208743
0.000405908
0.00055534
0.000356639
0.000276544
0.000301333
0.000259911
0.000153349
0.000301862
0.000413426
0.000929596
0.00230238
0.00244296
0.000489192
0.00256177
0.00246274
0.000434216
0.00053096
0.000563932
0.00259135
0.00262238
0.000749218
0.000752093
0.000227341
0.000698919
0.000800458
0.00246368
0.00272821
0.000964707
0.000684794
0.000281829
0.000554046
0.000846237
0.000747013
0.000924087
0.00256687
0.0026544
0.00123108
0.00115053
0.00111419
0.000921509
0.000822922
0.000923264
0.000439084
0.00112848
0.000713643
0.00243627
0.00293592
0.00113486
0.00136261
0.00160954
0.00116237
0.000808864
0.000764262
0.00157814
0.00132588
0.00109941
0.000997794
0.00093618
0.00248249
0.00324711
0.00165553
0.00202575
0.00169857
0.00105854
0.000546066
0.000578876
0.000723905
0.00143808
0.000962052
0.000422328
0.00152768
0.00184184
0.00166976
0.0028345
0.00296114
0.00197844
0.00191646
0.00172205
0.000932144
0.000729465
0.000363033
0.000324497
0.000217024
0.000431504
0.00052194
0.000455544
0.00118954
0.00139023
0.00122873
0.00194759
0.00276828
0.00391707
0.000964793
0.000837025
0.000692906
0.000955986
0.000812394
0.000522014
0.000469559
0.000621051
0.000288906
0.000894489
0.000495241
0.000627906
0.00101483
0.00116259
0.000667531
0.00108286
0.00134885
0.00291033
0.00259652
0.00124473
0.00138201
0.00133282
0.00100052
0.00118312
0.00100986
0.00102277
0.00103314
0.000765985
0.000684267
0.000791263
0.000860751
0.000991228
0.00105975
0.00116997
0.00118375
0.000701292
0.00124532
0.00136657
0.00255565
0.00115578
0.000993963
0.00122734
0.000513139
0.000750578
0.000468043
0.000753083
0.000748306
0.000644844
0.000424648
0.000706958
0.000673193
0.00105219
0.00073502
0.000785394
0.000770585
0.000644344
0.000682522
0.000913498
0.00156357
0.00154532
0.00264312
0.00143109
0.000563848
0.000847144
0.000323234
0.000452505
0.000440712
0.000305698
0.000383113
0.000512512
0.000406023
0.000346888
0.000215216
0.000380304
0.0003648
0.000320144
0.000427406
0.000692351
0.000353293
0.000337194
0.000297951
0.00029692
0.000426915
0.000444405
0.000575229
0.000633674
0.00119759
0.000541887
0.000312812
0.00043168
0.000242098
0.000419492
0.000236819
0.000250053
0.000398239
0.000346239
0.000284114
0.000168517
0.000129995
0.000175662
0.000147235
0.000188226
0.000114147
0.000213824
0.000422055
0.000529153
0.000336898
0.000281559
0.000312936
0.000266364
0.000228258
0.000313792
0.000481412
0.000950966
0.0024352
0.00231682
0.000512525
0.00243503
0.00237575
0.000447124
0.000674957
0.000554651
0.00256751
0.00244007
0.000562103
0.000540334
0.000558808
0.000785612
0.00081115
0.00250303
0.00232284
0.000933157
0.000571614
0.000492862
0.000465944
0.000806203
0.000487897
0.000765367
0.00257788
0.00248182
0.0007166
0.000476745
0.000831122
0.000609017
0.000582346
0.000628378
0.000539197
0.000470952
0.000658271
0.00263583
0.00274593
0.000830227
0.000961707
0.00077715
0.000768375
0.000896908
0.000726931
0.000890114
0.00109027
0.000904305
0.00119022
0.000839235
0.00257199
0.00268641
0.000566473
0.00142778
0.0015929
0.00115814
0.00114522
0.00111166
0.000782234
0.000800958
0.0010166
0.00129178
0.000681825
0.0010724
0.00100935
0.00248058
0.00343098
0.00155595
0.0014202
0.00218482
0.00134206
0.0010562
0.000853063
0.00057772
0.000689231
0.000922141
0.00054092
0.000968726
0.000991801
0.00191056
0.00162424
0.00120757
0.00266006
0.00311291
0.000908843
0.00129071
0.000981286
0.000814826
0.000524993
0.00059503
0.000421267
0.00104182
0.000195022
0.000789451
0.000608447
0.00100528
0.000326788
0.000857998
0.000817372
0.00125016
0.00221319
0.00281019
0.00375612
0.000828525
0.00155764
0.000649051
0.00101063
0.000912397
0.000737554
0.000610129
0.000679551
0.000325886
0.000687442
0.000561895
0.000881865
0.000902346
0.00073206
0.000982844
0.000846903
0.000577394
0.000965459
0.00157668
0.0031026
0.00257043
0.000718576
0.0015985
0.00130291
0.00123181
0.000805348
0.00106031
0.000898815
0.00106072
0.00078991
0.000832126
0.000998316
0.000685591
0.000873033
0.00120667
0.000993388
0.000871725
0.00121741
0.000461312
0.00198044
0.00118741
0.00123945
0.00248896
0.00114376
0.000979916
0.00126274
0.0008715
0.00094924
0.00051824
0.000687089
0.000703627
0.000776572
0.000392427
0.000708021
0.00067389
0.000968967
0.000976987
0.00109279
0.000637648
0.000883098
0.000744809
0.000824367
0.000985713
0.000804275
0.00145895
0.00149484
0.00226372
0.00150277
0.000640518
0.000897457
0.000366021
0.000325174
0.000394121
0.000300799
0.00033833
0.000467757
0.00034954
0.000371445
0.000275307
0.000374372
0.000378516
0.000437233
0.000395674
0.000370364
0.000442492
0.000509094
0.000285827
0.000388911
0.000254565
0.000336576
0.000399554
0.000386827
0.000568824
0.000249746
0.00122349
0.000536802
0.00031114
0.000463842
0.000182179
0.000419024
0.000256255
0.000254182
0.000370814
0.000312651
0.000289984
0.000183207
0.000162629
0.000185741
0.000133624
0.000146142
0.000162915
0.000190865
0.000119546
0.000214262
0.000430873
0.000488924
0.000310005
0.000291452
0.000337889
0.000277386
0.000167364
0.000330243
0.000478276
0.00091836
0.00237007
0.00232481
0.000470487
0.00247832
0.00222748
0.000383488
0.00055707
0.000647943
0.00253978
0.00243711
0.000431283
0.000674245
0.000402368
0.000557515
0.000575454
0.00245688
0.00241652
0.000473406
0.000446022
0.000724044
0.000683466
0.000745824
0.000686967
0.000675288
0.0024366
0.00264281
0.000415011
0.000668592
0.000918581
0.00068259
0.00060038
0.000539555
0.000660237
0.000820219
0.00085907
0.00251521
0.00273426
0.000647901
0.000736938
0.000712283
0.000751609
0.000683511
0.00053387
0.000514683
0.000832209
0.00055631
0.000894146
0.000675601
0.00257236
0.00266304
0.000911631
0.000894057
0.000544118
0.000475918
0.000839716
0.00103544
0.000653634
0.00088052
0.00101198
0.000665932
0.0010221
0.000462382
0.000770758
0.00245533
0.00251112
0.00156176
0.000596632
0.00053511
0.000816327
0.000935129
0.00113845
0.000673098
0.000426431
0.000858529
0.000901808
0.00110371
0.000863927
0.00111749
0.000994964
0.000986404
0.0027644
0.00356755
0.00247941
0.00116477
0.00087841
0.000622358
0.000956765
0.000578103
0.000895299
0.000486964
0.000665041
0.000790628
0.000805913
0.000777794
0.00104466
0.00147305
0.00116362
0.00133924
0.0017119
0.00265032
0.00294542
0.0010884
0.00169366
0.00122462
0.000985872
0.000597307
0.000643342
0.000673054
0.000375489
0.000250189
0.000595269
0.000345596
0.000531459
0.000613808
0.000512182
0.000679872
0.000698539
0.00115309
0.00125922
0.00172115
0.00279534
0.00355533
0.00044124
0.000975257
0.000625899
0.00128598
0.00124097
0.000590398
0.000551043
0.000412472
0.000206803
0.00053571
0.000305906
0.000410871
0.000398894
0.000735173
0.000416726
0.000548304
0.000777267
0.000985025
0.000707558
0.000655038
0.00154274
0.00329842
0.00238764
0.000564503
0.001147
0.00124894
0.00128779
0.000717165
0.000818899
0.000883365
0.000866737
0.00079147
0.000850482
0.00114006
0.00102204
0.00102034
0.000721642
0.000838944
0.000993533
0.000738731
0.00087684
0.00154718
0.000809823
0.00293839
0.00140836
0.00117201
0.0024876
0.00129289
0.00107064
0.00106978
0.00130267
0.000935048
0.00045797
0.000614818
0.000671233
0.000960399
0.000389212
0.00061263
0.000800748
0.00101252
0.000752407
0.000956806
0.000968537
0.000814024
0.000801024
0.000955877
0.00070408
0.000837284
0.00121314
0.000878064
0.00123237
0.00104211
0.00152692
0.00127529
0.000712227
0.000917164
0.000445277
0.000389212
0.000377125
0.000324587
0.000302112
0.000398254
0.000284638
0.000382562
0.000307968
0.000293734
0.000405776
0.000466622
0.000453478
0.000435681
0.000398494
0.000412461
0.000322075
0.000349639
0.000468295
0.000428011
0.000260058
0.000433243
0.000314643
0.000394522
0.000827241
0.000410416
0.00113957
0.000538216
0.00032821
0.000508307
0.00014107
0.00041872
0.000191907
0.000253742
0.000337041
0.00027573
0.000279056
0.000161455
0.000216219
0.000193686
0.000140202
0.000127636
6.5729e-05
0.000180951
0.000164844
0.000183446
0.000140126
0.000237307
0.000413296
0.000434884
0.00027396
0.000312789
0.000372421
0.000285753
0.000283158
0.000309419
0.000594026
0.00087342
0.0022186
0.00226379
0.000487166
0.00244189
0.00226099
0.000568087
0.000443968
0.000505513
0.00245154
0.00224158
0.000419254
0.000476561
0.000196038
0.000618619
0.000425455
0.00258469
0.00245894
0.00064175
0.000470357
0.000411731
0.000404424
0.000567028
0.000671626
0.000702796
0.00244225
0.00254873
0.000674434
0.000549098
0.000488473
0.000565517
0.000762765
0.000402871
0.000643384
0.000607793
0.000856906
0.00243677
0.00274603
0.00063419
0.000793827
0.000400424
0.000393272
0.000479234
0.000384412
0.000650601
0.00088091
0.000557259
0.000805951
0.000803164
0.00242657
0.00254259
0.000998817
0.000686769
0.000577317
0.000572656
0.000701803
0.00090276
0.000567952
0.000500529
0.000756579
0.00078494
0.000491943
0.00054215
0.000673119
0.00245246
0.00246346
0.000839567
0.000810173
0.000675009
0.00109272
0.0010231
0.000969599
0.000858232
0.000654001
0.000881791
0.000796729
0.00131944
0.00104113
0.000814146
0.000677764
0.000815364
0.00276319
0.0026884
0.00110766
0.00105732
0.00116097
0.00109733
0.00101795
0.000804657
0.000759578
0.000826605
0.000662588
0.000674254
0.000720693
0.00100499
0.000703505
0.000782062
0.00121018
0.00107228
0.00107623
0.00259911
0.00319682
0.000940311
0.001191
0.00119596
0.00082398
0.00070543
0.00062043
0.000659453
0.000782196
0.000694738
0.000828409
0.000605135
0.000831707
0.00063155
0.000857603
0.00174791
0.00110604
0.00119289
0.00127257
0.00146688
0.00255112
0.00255956
0.00110061
0.000832229
0.000937175
0.000661392
0.00044688
0.000993955
0.00036095
0.000690141
0.000170137
0.000700352
0.000370411
0.000511467
0.000464487
0.00036618
0.000798651
0.000615133
0.000483922
0.000895342
0.000983198
0.00126566
0.00182151
0.00288979
0.00297449
0.000126749
0.000557873
0.000753382
0.000956116
0.000842971
0.000779285
0.000494303
0.000425543
0.000342801
0.000378652
0.000759365
0.000601187
0.000308329
0.000343303
0.000931563
0.000884178
0.000914991
0.000729774
0.000886645
0.000573837
0.000494317
0.000697632
0.00124588
0.00329585
0.00237419
0.000714889
0.00102038
0.00102302
0.00133548
0.000640973
0.000985387
0.000660895
0.000632812
0.000825021
0.00101289
0.00135658
0.000996997
0.000460331
0.00100307
0.00100435
0.000802495
0.00102478
0.000901434
0.000774764
0.000991359
0.00151786
0.000796245
0.00221063
0.00139991
0.001167
0.00270463
0.00116872
0.00109358
0.000931835
0.00110309
0.000855546
0.000500637
0.000713838
0.000644233
0.000718547
0.000522329
0.000574296
0.000886894
0.00104578
0.00073173
0.000431426
0.000696234
0.000854569
0.000751088
0.000753831
0.000883173
0.000997921
0.000763837
0.00118528
0.001422
0.00121906
0.00130514
0.000674301
0.00111489
0.00119849
0.000816898
0.000935209
0.00055898
0.000492319
0.000412591
0.000413492
0.000314519
0.000322232
0.000255256
0.00039284
0.000311046
0.000286732
0.000481455
0.000502308
0.000507932
0.000483535
0.000423995
0.000446556
0.000406521
0.000483906
0.00040269
0.000593103
0.000602197
0.000465953
0.000321032
0.000542874
0.000278334
0.000406758
0.00112193
0.000519938
0.0010216
0.000545395
0.000343936
0.000548346
0.000122409
0.0004206
0.000251869
0.000242373
0.000301444
0.000238089
0.000266144
0.000149238
0.000243031
0.000208467
0.000171295
0.000111216
5.6141e-05
7.28118e-05
9.35798e-05
0.000203211
0.00016176
0.00016873
0.000152589
0.000281445
0.000334966
0.000340929
0.000240245
0.000347034
0.00040937
0.000300039
0.000286872
0.000314637
0.000654614
0.000825531
0.00216831
0.0022731
0.000453743
0.00240051
0.00223406
0.000458393
0.000325622
0.000570473
0.00249681
0.00228899
0.000389196
0.00062478
0.000325095
0.000458914
0.000490125
0.00252237
0.00229774
0.000507266
0.000326834
0.000597263
0.000410873
0.000549597
0.000321747
0.000719227
0.00256197
0.00252334
0.000775919
0.000438985
0.000670917
0.000595803
0.000590079
0.000541001
0.000771339
0.000516359
0.000806241
0.00240447
0.0024437
0.000433574
0.00048478
0.000395118
0.00046457
0.000461843
0.000365682
0.00081714
0.000785639
0.00053727
0.000744561
0.000774439
0.00243423
0.00251356
0.000707543
0.000256575
0.000508192
0.000382138
0.000369462
0.000321373
0.000292156
0.000625076
0.000591004
0.000519889
0.00056824
0.000803563
0.000877034
0.00241993
0.00231251
0.000555389
0.000536492
0.000676031
0.000682951
0.000616258
0.000623623
0.000620178
0.000540901
0.000489534
0.000639277
0.000945469
0.000535707
0.000733677
0.000674951
0.000547113
0.00246919
0.00284038
0.000815427
0.000838953
0.000532831
0.00106121
0.000915326
0.000715777
0.000826658
0.000702853
0.000670898
0.000541796
0.00111661
0.0010427
0.00106677
0.000974428
0.000837506
0.000525965
0.000744808
0.00270124
0.00280992
0.00126047
0.00130911
0.000897065
0.000741862
0.000803622
0.000835643
0.000694786
0.000284591
0.000753229
0.000581914
0.000577462
0.000897417
0.00100505
0.00063671
0.000984069
0.00118856
0.000776971
0.000822384
0.00113047
0.00278286
0.00302673
0.00125279
0.000850325
0.000903443
0.00102826
0.000726632
0.000855791
0.000704555
0.000565483
0.000754864
0.000682405
0.000727714
0.000670484
0.000805053
0.000396513
0.000795621
0.000903218
0.000767547
0.0011594
0.0010245
0.00112976
0.00109002
0.00262327
0.00261466
0.000711072
0.00099831
0.000834148
0.000429528
0.000486824
0.000491457
0.000481602
0.000443001
0.000142762
0.000576069
0.000532003
0.000854076
0.000472217
0.000412729
0.000498032
0.000956613
0.000780491
0.00129486
0.000887499
0.000873662
0.00083083
0.00138729
0.00133371
0.00294659
0.00334953
0.000625952
0.000705754
0.000585247
0.000524004
0.00123859
0.000586927
0.000616308
0.000600152
0.000274875
0.000358838
0.000457853
0.000920317
0.000886111
0.000805664
0.000459361
0.000404776
0.000805086
0.000779164
0.000878592
0.000655571
0.000521765
0.00042044
0.000648505
0.00100227
0.00103541
0.00347335
0.00216614
0.000750754
0.000904455
0.00103729
0.00137569
0.000923301
0.000668181
0.000591469
0.00073225
0.000729479
0.00122205
0.00168136
0.00080819
0.000196105
0.000562274
0.000831678
0.00124461
0.00118899
0.000924178
0.000865653
0.000759894
0.000822458
0.00143248
0.00172888
0.00132584
0.00133813
0.000856667
0.00100946
0.00292336
0.0012841
0.000878684
0.000891503
0.000850285
0.000852925
0.000536686
0.000577352
0.000567174
0.000364452
0.000692255
0.000632316
0.00102199
0.00101694
0.000718851
0.000476691
0.000574152
0.000472674
0.000589624
0.00116557
0.000562414
0.000748809
0.000875774
0.000910445
0.000872919
0.00161702
0.00156655
0.00137959
0.00138666
0.00073733
0.000816871
0.000970501
0.000867596
0.000960981
0.000612787
0.000555168
0.000503451
0.000378952
0.000361118
0.000215066
0.000239081
0.000378132
0.000270063
0.00031475
0.000504357
0.00051394
0.00053879
0.000465726
0.000401819
0.000480833
0.000392052
0.000510179
0.00045211
0.000576147
0.000545385
0.000457451
0.000680789
0.000478818
0.000413593
0.000498349
0.000390702
0.000399787
0.00119203
0.000459264
0.000878325
0.000549755
0.000353708
0.000575327
0.000279384
0.000414471
0.000189267
0.000301565
0.000264317
0.000205721
0.000250742
0.000125222
0.000242185
0.000220169
0.000138803
0.000107778
4.37756e-05
0.000151047
0.000168197
7.5154e-05
0.000212687
0.000192152
0.000154017
0.000152677
0.000147003
0.000305802
0.000290327
0.000240659
0.000219144
0.000386686
0.000440672
0.000325907
0.000156067
0.000370573
0.000692245
0.000889184
0.00224246
0.0021746
0.000428237
0.00229417
0.0022293
0.000538272
0.000560261
0.00051473
0.00236037
0.00231646
0.000509571
0.000356769
0.000438146
0.00051777
0.000683897
0.00252014
0.00229586
0.000577802
0.00056764
0.000561485
0.000534119
0.000489357
0.000478655
0.000584828
0.00248444
0.00228704
0.000624145
0.00041607
0.000592797
0.000569292
0.000894262
0.000420765
0.000433008
0.000578395
0.00060134
0.00245445
0.00252546
0.000510652
0.00050596
0.000393874
0.000316707
0.000519732
0.000561024
0.000530856
0.000715974
0.000426095
0.00053679
0.000734646
0.00240592
0.00243554
0.00048656
0.00042083
0.000608349
0.000330863
0.000402762
0.000589779
0.000309187
0.000661919
0.000358966
0.000723291
0.000524106
0.000942523
0.00081451
0.00235761
0.00271165
0.000493701
0.000410539
0.000438452
0.00071643
0.000444452
0.000634006
0.000596115
0.000548224
0.000604135
0.000728628
0.000742975
0.000417046
0.000948167
0.000801492
0.00115701
0.00233037
0.00251179
0.000459357
0.000602237
0.00042478
0.000541279
0.000595756
0.000573982
0.000726509
0.000622014
0.000753731
0.00064779
0.000942843
0.000683098
0.000561034
0.000702037
0.000507271
0.000558145
0.000559366
0.00274949
0.00254313
0.000856093
0.00100299
0.000584651
0.000428987
0.000666601
0.000912454
0.000799909
0.000524354
0.000605084
0.000381976
0.000609269
0.000770056
0.000951033
0.000785331
0.000856465
0.000772788
0.000610901
0.000605611
0.000692843
0.00241872
0.00253761
0.00160762
0.00101362
0.000987107
0.00104516
0.00102156
0.00105472
0.000931226
0.000584039
0.000423851
0.00100273
0.000532238
0.00061857
0.000748575
0.000710772
0.000909323
0.0010906
0.00136539
0.000907065
0.000911443
0.000653543
0.000936089
0.00284038
0.00310435
0.0011615
0.000951705
0.000914452
0.000613647
0.000884739
0.000740585
0.000682172
0.000804101
0.000689819
0.000655557
0.000545867
0.000874193
0.000745169
0.000564161
0.000633096
0.00067973
0.0011118
0.00125235
0.000874661
0.000624153
0.00129854
0.00118753
0.00113852
0.00266669
0.00258666
0.000615801
0.000670146
0.000489407
0.000433193
0.000213285
0.000768824
0.000670691
0.00059294
0.000371342
0.000619921
0.000943461
0.000149889
0.000552181
0.000389074
0.000288987
0.000351709
0.00162337
0.000861143
0.0013192
0.0012393
0.00052878
0.00105799
0.000751413
0.00130258
0.000965048
0.00295878
0.00303975
0.00105059
0.000571729
0.000661797
0.000397706
0.000522698
0.000505653
0.000604833
0.000502264
0.000653823
0.000678823
0.000899953
0.000744753
0.000428428
0.000672409
0.00147318
0.000803298
0.000386201
0.000686805
0.000583062
0.000382985
0.000412851
0.00107962
0.00139538
0.000649599
0.000636839
0.00132118
0.00113076
0.00343823
0.00223996
0.000906374
0.000779438
0.000989792
0.00130864
0.000940278
0.00104106
0.000957971
0.000671474
0.00104122
0.00148516
0.00174267
0.000478287
0.000411504
0.000447264
0.000500109
0.000549613
0.000324228
0.000912543
0.00110334
0.000829146
0.000951419
0.000882864
0.000544615
0.00105899
0.00152128
0.00128762
0.00144079
0.00126918
0.000770847
0.00296047
0.00179519
0.000836138
0.00066275
0.00108077
0.000891633
0.000565749
0.0004675
0.000600466
0.000485006
0.00072295
0.000671836
0.00109294
0.000949724
0.000779139
0.000515726
0.000669372
0.000689693
0.00054055
0.000410417
0.000648992
0.00174423
0.000611435
0.000767683
0.00103763
0.00100222
0.000984163
0.00169685
0.00153714
0.00113949
0.00129654
0.00081319
0.00096667
0.000609712
0.000906677
0.000995275
0.000639719
0.000559811
0.000509129
0.000399172
0.000473691
0.000178676
0.000221975
0.000343269
0.000249814
0.000388135
0.000526753
0.000509254
0.000550468
0.000431587
0.000404686
0.000281649
0.000401279
0.000431087
0.000367766
0.00050759
0.000611435
0.000667792
0.000301911
0.000378858
0.000696172
0.00043937
0.000477252
0.0004014
0.000370851
0.000368522
0.0010269
0.000534971
0.000613552
0.000549289
0.000354999
0.00059568
0.000340031
0.000417482
0.000113342
0.000401388
0.000236909
0.000174702
0.000238412
0.000119108
0.000216372
0.000220164
0.000110384
0.000110335
8.18415e-05
0.000144999
0.000146549
5.38497e-05
0.000142585
0.000210207
0.000259434
0.000174928
0.000146708
0.000134719
0.000134412
0.000304257
0.000259166
0.000221906
0.000209109
0.000427303
0.000469309
0.000333581
0.000365592
0.000366399
0.000672135
0.000878313
0.00237
0.00222051
0.000441529
0.00235741
0.00219146
0.000416559
0.000468073
0.000609221
0.0023105
0.002239
0.000506291
0.000690899
0.000693202
0.000546088
0.00064989
0.00237488
0.00223904
0.00050071
0.000442
0.000278336
0.000316552
0.000355611
0.000585653
0.000680696
0.00267268
0.00218748
0.000659914
0.000415536
0.000268103
0.000444342
0.000375963
0.000536612
0.000396589
0.000467581
0.000694088
0.00250139
0.00234009
0.000422674
0.000374605
0.000502897
0.000470671
0.000585695
0.000844828
0.000539809
0.000385047
0.000395276
0.000506603
0.000792645
0.00247197
0.00244371
0.000593846
0.000262845
0.000552107
0.000459804
0.000379539
0.000475637
0.000381034
0.000385382