/*--------------------------------*- C++ -*----------------------------------*\
  =========                 |
  \\      /  F ield         | OpenFOAM: The Open Source CFD Toolbox
   \\    /   O peration     | Website:  https://openfoam.org
    \\  /    A nd           | Version:  7
     \\/     M anipulation  |
\*---------------------------------------------------------------------------*/
FoamFile
{
    version     2.0;
    format      ascii;
    class       volScalarField;
    location    "4.5";
    object      p;
}
// * * * * * * * * * * * * * * * * * * * * * * * * * * * * * * * * * * * * * //

dimensions      [0 2 -2 0 0 0 0];

internalField   nonuniform List<scalar> 
150000
(
-60.52
-62.4018
-60.4627
-60.4673
-60.594
-62.6288
-62.7532
-62.9311
-61.8458
-60.4061
-60.3675
-62.7343
-60.7584
-60.6127
-60.0524
-63.9503
-63.6679
-60.9187
-62.9546
-63.0582
-63.5697
-62.7317
-61.1624
-60.3579
-60.4293
-62.7383
-62.7053
-62.7343
-61.2792
-60.5796
-52.483
-60.7436
-66.9984
-58.0156
-65.0466
-64.9567
-65.3254
-62.6399
-58.9875
-63.1276
-63.1777
-63.5944
-63.6643
-63.5329
-62.4135
-60.5243
-60.3165
-60.6554
-62.7543
-62.6958
-62.4508
-62.7142
-62.7321
-61.8843
-60.589
-53.9107
-51.8917
-64.0628
-53.0239
-60.7083
-67.4018
-67.2002
-66.8577
-56.1935
-66.0424
-66.0629
-65.3863
-64.3965
-65.3544
-53.1908
-57.6415
-63.2914
-63.2917
-63.6159
-63.6258
-63.485
-63.7002
-63.4785
-62.1586
-60.0974
-60.2758
-61.0116
-62.7797
-62.6861
-62.4502
-62.5249
-62.452
-62.7248
-62.7526
-62.4411
-60.601
-48.2312
-52.945
-54.5907
-53.9625
-51.3814
-64.8534
-62.8433
-62.7851
-53.3992
-61.8575
-67.8472
-67.1887
-66.4403
-67.1054
-66.1427
-55.7252
-67.1356
-67.1047
-65.5361
-64.5037
-64.2692
-64.3385
-65.1929
-59.365
-56.7901
-63.4398
-63.4163
-63.6254
-63.5812
-63.4564
-62.954
-63.5072
-63.7302
-63.4126
-61.8976
-59.8989
-60.2287
-61.4243
-62.8099
-62.6752
-62.4541
-62.5397
-63.0965
-62.512
-62.4565
-62.7302
-62.7961
-62.8657
-60.6165
-46.4814
-48.2579
-48.697
-48.1613
-52.673
-55.3931
-55.4107
-53.7177
-53.5554
-51.483
-65.4911
-62.9901
-63.8579
-62.4508
-61.7274
-53.8348
-63.4168
-68.5961
-67.2206
-66.6269
-67.1962
-66.2639
-66.4398
-64.0853
-55.5812
-68.0065
-68.0692
-65.7804
-64.6592
-64.1591
-63.7084
-64.3716
-64.349
-65.0759
-57.6974
-56.2319
-63.5612
-63.5244
-63.6263
-63.5324
-63.4178
-62.9169
-62.9946
-63.0011
-63.5308
-63.7505
-63.362
-61.7589
-60.0027
-60.1713
-61.8055
-62.8407
-62.6626
-62.4608
-62.5569
-63.0945
-63.4008
-63.0998
-62.5022
-62.4625
-62.73
-62.8188
-63.1289
-60.6591
-45.7879
-46.4391
-46.9997
-46.5671
-48.8959
-48.7966
-50.1692
-48.8216
-48.0189
-51.9121
-56.0928
-55.8613
-56.0147
-54.8228
-53.1433
-53.221
-51.3979
-65.6639
-63.1537
-63.6346
-62.7494
-64.3041
-61.597
-60.9864
-54.1555
-64.5916
-69.5676
-67.3657
-66.924
-67.2373
-64.8524
-67.1654
-66.2775
-65.8072
-62.6992
-55.4669
-68.8371
-68.8332
-66.001
-64.8267
-64.0709
-63.4382
-63.0461
-63.9767
-64.4626
-64.5077
-65.0735
-59.8411
-56.4052
-63.6444
-63.5771
-63.6132
-63.4739
-63.3696
-62.8877
-62.9277
-63.414
-63.0742
-63.0511
-63.5534
-63.7588
-63.3032
-62.0921
-60.3819
-60.103
-62.0906
-62.8687
-62.6491
-62.4674
-62.5775
-63.0934
-63.3916
-63.4212
-63.4078
-63.096
-62.4965
-62.4701
-62.7296
-62.8262
-63.288
-60.7455
-44.5338
-45.7638
-45.5418
-45.732
-46.3328
-46.8729
-47.0572
-46.8063
-46.5853
-49.1069
-49.0093
-50.3708
-51.0896
-49.6809
-48.7418
-48.3562
-51.157
-56.4793
-56.1974
-56.2394
-56.7776
-55.746
-54.041
-52.9938
-52.9636
-52.8754
-66.544
-63.4138
-63.8135
-62.7547
-61.5523
-62.7906
-64.6978
-60.4011
-60.223
-54.883
-65.9528
-70.1308
-67.6766
-67.1418
-67.0352
-64.339
-64.1472
-65.226
-67.1119
-66.3129
-65.0576
-62.4682
-55.956
-69.645
-69.1838
-66.1832
-64.9764
-64.0018
-63.2786
-62.7787
-62.6617
-63.3913
-64.1609
-64.6074
-64.763
-64.9364
-60.4997
-57.15
-63.6682
-63.5456
-63.5752
-63.4029
-63.305
-62.8561
-62.8705
-63.3705
-63.57
-63.4712
-63.1555
-63.1016
-63.5722
-63.752
-63.2395
-62.6024
-60.9278
-60.0273
-62.2523
-62.8917
-62.6324
-62.4732
-62.6003
-63.092
-63.3804
-63.4114
-63.617
-63.433
-63.4215
-63.0892
-62.493
-62.4785
-62.7355
-62.8105
-63.4384
-60.8656
-43.5028
-44.4214
-44.3796
-44.5631
-45.7192
-45.4216
-45.6915
-45.693
-45.7633
-46.1037
-46.7688
-46.9992
-47.5968
-47.0481
-46.7705
-46.7663
-49.1865
-49.3027
-50.72
-51.1772
-51.7267
-50.9835
-49.5775
-48.9432
-48.7007
-51.7791
-56.7422
-55.9902
-56.5742
-56.8726
-56.7328
-56.5756
-55.7661
-53.8605
-52.4189
-53.079
-53.3804
-65.8669
-63.675
-63.7628
-62.4751
-61.1421
-61.3106
-61.933
-62.8573
-65.012
-60.2138
-59.4571
-55.0416
-66.765
-69.4092
-67.6528
-67.1596
-66.545
-63.8529
-63.7699
-62.9258
-64.4991
-65.5958
-66.9163
-66.1079
-64.3552
-62.2241
-56.6779
-70.0299
-69.3428
-66.3359
-65.0772
-63.9372
-63.0953
-62.5879
-62.4692
-63.1343
-62.9095
-63.7618
-64.2346
-64.7961
-65.0498
-64.6165
-60.7235
-58.3136
-63.6233
-63.4626
-63.5161
-63.3191
-63.2324
-62.8212
-62.8232
-63.3333
-63.5471
-63.7154
-63.5868
-63.5411
-63.2309
-63.1464
-63.5806
-63.7309
-63.1394
-63.2502
-61.5539
-59.9483
-62.336
-62.9098
-62.6144
-62.4792
-62.6243
-63.09
-63.3676
-63.4011
-63.6102
-63.6383
-63.6207
-63.4455
-63.44
-63.0891
-62.4903
-62.4868
-62.7403
-62.7774
-63.611
-61.0101
-42.8152
-43.4068
-43.4317
-43.4117
-44.4289
-44.407
-44.474
-44.4647
-44.6099
-45.7427
-45.5639
-45.6871
-45.7502
-45.7644
-45.5876
-45.8003
-46.0523
-46.723
-47.0528
-47.519
-48.0146
-47.8152
-46.8242
-47.0557
-46.9836
-49.8397
-49.7548
-50.7525
-51.1879
-51.5563
-52.1362
-51.9085
-50.8009
-50.0611
-49.1793
-49.0258
-52.5976
-57.327
-55.6167
-57.1548
-56.9453
-56.5377
-57.1235
-57.2728
-56.6131
-55.5387
-54.7017
-52.4622
-53.1129
-53.9958
-64.9125
-63.9681
-63.3588
-62.1825
-60.741
-60.8275
-60.5455
-62.0538
-62.0669
-62.8317
-64.6427
-60.0348
-58.7795
-55.0418
-67.2248
-68.8337
-67.0766
-66.8211
-65.739
-63.4594
-63.1363
-62.7592
-62.6668
-63.3714
-64.9214
-65.7173
-66.8994
-66.1201
-64.1223
-61.5438
-57.4152
-70.0124
-69.0466
-66.4243
-65.118
-63.8635
-62.9666
-62.4687
-62.3141
-63.1251
-63.6787
-63.1724
-63.2207
-64.0823
-64.2618
-65.0071
-65.1913
-64.3211
-60.8817
-59.6874
-63.4753
-63.3563
-63.4415
-63.2223
-63.1554
-62.7791
-62.7883
-63.3011
-63.5249
-63.6949
-63.936
-63.7276
-63.6048
-63.6145
-63.3026
-63.1849
-63.5784
-63.7007
-63.0582
-63.797
-62.186
-59.8714
-62.3858
-62.9237
-62.5963
-62.4857
-62.649
-63.0871
-63.3534
-63.3908
-63.6014
-63.638
-63.1719
-63.6384
-63.6206
-63.4556
-63.4486
-63.0913
-62.4905
-62.4936
-62.7416
-62.7564
-63.6958
-61.1332
-42.2774
-42.7539
-42.7898
-42.867
-43.3655
-43.5046
-43.4832
-43.4018
-43.5077
-44.2605
-44.4748
-44.402
-44.4345
-44.5146
-44.6231
-44.5695
-45.5098
-45.5851
-45.5239
-45.72
-45.913
-45.7847
-45.6774
-45.616
-46.0357
-46.509
-46.6965
-47.0833
-47.4637
-47.8626
-48.5194
-48.3708
-47.8481
-46.7707
-47.4268
-47.116
-50.0824
-50.1256
-50.8656
-51.213
-51.8989
-51.8413
-52.1197
-52.3332
-51.8517
-50.7719
-49.9781
-49.2991
-49.2297
-52.3647
-57.9041
-55.1076
-57.5808
-57.0595
-56.7459
-56.7528
-56.9219
-57.3022
-57.1957
-56.6611
-55.6428
-54.3894
-52.3623
-53.0145
-54.3801
-63.3052
-63.6968
-63.0299
-61.5483
-60.4262
-60.4402
-60.2104
-60.0166
-60.9673
-62.3418
-62.3394
-62.9433
-64.1059
-60.214
-58.4027
-55.1262
-66.9433
-68.3549
-66.6975
-66.2682
-64.9278
-63.0352
-62.7641
-62.4775
-62.6148
-63.0961
-62.6772
-63.8982
-65.2159
-65.7469
-66.6816
-66.1315
-63.8849
-60.6082
-58.1777
-69.5822
-68.3831
-66.4505
-65.0901
-63.7609
-62.9443
-62.4172
-62.2208
-63.1376
-63.6371
-63.6059
-63.6796
-63.2633
-63.7295
-64.3673
-64.3194
-65.089
-65.0396
-63.862
-60.8257
-61.1229
-63.2227
-63.2136
-63.3364
-63.1189
-63.0761
-62.7281
-62.761
-63.2709
-63.5042
-63.6711
-63.8746
-63.5943
-64.0013
-63.7241
-63.6349
-63.7008
-63.3686
-63.2159
-63.5656
-63.6503
-62.9756
-64.0089
-62.7317
-59.8036
-62.3535
-62.9327
-62.5797
-62.4922
-62.6729
-63.0828
-63.3375
-63.3811
-63.5994
-63.6388
-63.1577
-62.9134
-63.1846
-63.6364
-63.616
-63.469
-63.4546
-63.0947
-62.4928
-62.5003
-62.7555
-62.7242
-63.674
-61.2578
-41.8427
-42.2492
-42.2679
-42.2936
-42.8051
-42.8164
-42.8621
-42.8226
-42.7794
-43.4041
-43.4329
-43.4217
-43.5072
-43.5371
-43.4691
-43.59
-44.3029
-44.3365
-44.3704
-44.549
-44.6853
-44.5908
-44.6496
-44.5841
-44.6673
-45.4121
-45.6245
-45.5247
-45.6064
-45.9072
-46.1505
-45.9104
-45.8674
-45.6678
-45.9777
-46.1687
-46.3576
-47.0152
-47.0963
-47.2476
-47.8933
-48.7029
-48.5952
-48.1502
-47.8953
-47.6786
-46.7893
-47.373
-47.2974
-49.4452
-50.1309
-50.2123
-51.5736
-51.5992
-51.7068
-51.9775
-51.701
-51.1524
-52.173
-51.8261
-50.4041
-49.8799
-49.5426
-49.219
-51.9116
-56.5507
-55.5058
-56.3377
-57.1075
-56.6854
-56.7232
-56.5017
-56.6365
-56.8767
-57.0574
-57.2345
-56.5393
-55.1518
-53.9714
-51.9299
-52.7155
-54.5998
-61.8874
-63.0759
-62.8932
-60.9526
-59.9568
-60.1186
-59.832
-60.0039
-60.2727
-60.2125
-61.2976
-62.5715
-62.3741
-63.1808
-63.9268
-60.1496
-57.8885
-54.5471
-65.9693
-67.1955
-66.1212
-65.7738
-64.2027
-62.8329
-62.6
-62.325
-62.5686
-63.1427
-62.9473
-63.0338
-62.6948
-64.1956
-65.4146
-65.7221
-66.448
-65.8803
-63.2569
-60.0885
-58.7757
-68.5601
-67.4631
-66.3521
-65.0469
-63.6275
-62.9452
-62.404
-62.2003
-63.1542
-63.5735
-63.5127
-63.025
-63.7512
-63.6751
-63.3805
-63.9522
-64.5545
-64.3105
-65.1255
-64.5754
-63.3781
-60.8286
-62.5505
-62.8724
-63.0144
-63.2062
-63.046
-62.9971
-62.673
-62.7337
-63.2405
-63.4857
-63.6465
-63.8268
-63.4902
-62.9903
-63.6752
-64.0404
-63.721
-63.6528
-63.7941
-63.4231
-63.2448
-63.5398
-63.5902
-62.9161
-64.105
-63.1357
-59.7439
-62.2815
-62.938
-62.5647
-62.4987
-62.6972
-63.0763
-63.3201
-63.3741
-63.5985
-63.6298
-63.1427
-62.9127
-62.89
-62.9144
-63.1955
-63.6321
-63.6047
-63.4885
-63.4639
-63.0988
-62.4953
-62.5063
-62.7726
-62.7023
-63.5395
-61.4231
-41.4469
-41.823
-41.8616
-41.8564
-42.294
-42.3201
-42.1971
-42.3057
-42.3152
-42.8329
-42.8413
-42.8038
-42.9074
-42.7708
-42.6961
-42.8178
-43.6604
-43.4254
-43.4829
-43.5333
-43.6937
-43.5475
-43.4669
-43.557
-43.5369
-44.4464
-44.4942
-44.5241
-44.4629
-44.6851
-44.7637
-44.6122
-44.5722
-44.7749
-44.636
-44.7028
-45.2362
-45.7749
-45.4064
-45.7507
-45.8165
-46.0817
-46.2597
-45.8802
-45.7223
-45.9902
-45.9074
-45.9591
-46.2621
-46.3824
-47.3412
-47.0395
-46.9673
-48.0769
-48.2589
-48.5135
-48.7333
-48.3751
-48.3026
-48.0612
-47.4708
-47.0936
-47.55
-47.2573
-49.5488
-50.1155
-50.2656
-51.5557
-51.7563
-51.6356
-51.4884
-51.7045
-52.0735
-51.701
-51.5867
-51.9067
-51.4327
-49.942
-50.1363
-49.4663
-49.233
-52.0853
-55.9743
-55.9811
-56.3241
-56.7587
-56.6953
-56.5837
-56.3405
-56.547
-56.3093
-56.2761
-56.323
-56.6965
-56.6828
-56.3252
-54.8248
-53.7547
-51.5741
-52.0584
-54.5294
-60.7296
-62.2432
-62.497
-60.545
-59.5691
-59.6596
-59.6206
-59.752
-60.1912
-59.7545
-60.2459
-60.3438
-61.6311
-62.5025
-62.7058
-63.0062
-62.7515
-59.8103
-57.2381
-53.9229
-64.6561
-65.9461
-65.1871
-65.3127
-63.4689
-62.7299
-62.4351
-62.3087
-62.4768
-63.1425
-62.7368
-61.8409
-63.0525
-62.9947
-62.7902
-64.6221
-65.585
-65.8198
-66.3753
-65.3759
-62.8809
-59.7682
-59.4758
-67.2545
-66.4889
-66.082
-65.0014
-63.4706
-62.8553
-62.4477
-62.2301
-63.1859
-63.5301
-63.4236
-62.8736
-63.1528
-63.2087
-63.8592
-63.6326
-63.6875
-64.3564
-64.7025
-64.2576
-65.1318
-64.0887
-63.1966
-61.3335
-63.774
-62.432
-62.7662
-63.0726
-62.9427
-62.9129
-62.6261
-62.7021
-63.2106
-63.4691
-63.6219
-63.7899
-63.3922
-62.9673
-63.1779
-63.0243
-63.7142
-64.0418
-63.7231
-63.6628
-63.8821
-63.4683
-63.2627
-63.5038
-63.5336
-62.8945
-64.1772
-63.5352
-59.6921
-62.2234
-62.9421
-62.549
-62.5051
-62.7229
-63.067
-63.302
-63.367
-63.5884
-63.6119
-63.1269
-62.9117
-62.8938
-62.6809
-62.8848
-62.9155
-63.2048
-63.6263
-63.5867
-63.5056
-63.474
-63.1033
-62.4981
-62.5112
-62.7899
-62.7282
-63.4101
-61.5913
-41.1639
-41.5142
-41.5562
-41.5393
-41.8842
-41.8987
-41.7963
-41.876
-41.8707
-42.2992
-42.3678
-42.1918
-42.3552
-42.3487
-42.2556
-42.2866
-42.8141
-42.8975
-42.9175
-42.8653
-42.9527
-42.7382
-42.7828
-42.749
-42.8456
-43.5363
-43.5356
-43.455
-43.5082
-43.5895
-43.7727
-43.6987
-43.5049
-43.557
-43.5412
-43.5971
-44.3457
-44.5686
-44.5711
-44.5337
-44.7264
-44.8279
-44.9753
-44.7709
-44.5595
-44.6868
-44.2715
-44.6105
-44.8192
-45.2766
-45.7762
-45.436
-45.8325
-46.0802
-46.0018
-46.1729
-46.5304
-46.2772
-45.7501
-45.8517
-45.9041
-46.0174
-46.1371
-46.1819
-46.7287
-47.0256
-47.6135
-48.1813
-47.9998
-48.2018
-48.3783
-48.7277
-49.0446
-48.7382
-48.3991
-47.8244
-48.0012
-47.7612
-47.4339
-47.649
-47.3023
-49.4156
-49.6206
-50.2915
-51.4679
-51.9383
-51.6213
-51.4476
-51.5999
-51.7364
-52.0223
-51.9558
-51.937
-51.7319
-51.7074
-51.1813
-50.492
-50.1381
-49.3027
-49.1736
-52.0268
-55.5789
-55.9055
-56.5094
-56.5409
-56.451
-56.5785
-56.2929
-56.3381
-56.2317
-56.184
-56.3533
-56.4187
-56.4776
-56.6562
-56.5762
-56.0437
-54.6525
-53.3018
-51.3957
-51.1118
-53.6229
-59.6716
-61.3271
-62.0077
-60.2489
-59.4237
-59.3607
-59.3929
-59.6
-60.0614
-59.7922
-59.2374
-60.0801
-60.3832
-60.5087
-62.0668
-62.7276
-62.8217
-63.141
-61.8111
-59.5585
-56.7114
-53.3174
-63.1751
-64.6689
-64.1046
-64.7962
-62.7761
-62.5172
-62.3627
-62.3225
-62.5474
-63.1013
-62.7435
-61.8463
-62.1627
-61.7909
-63.0216
-62.933
-63.1405
-64.9812
-65.8549
-65.8742
-66.2038
-64.8968
-62.6591
-59.8855
-60.5516
-65.8111
-65.4793
-65.7058
-64.879
-63.2802
-62.7787
-62.5227
-62.3301
-63.2516
-63.5186
-63.3693
-62.8308
-63.2887
-63.9048
-63.0929
-63.3454
-63.7887
-63.5997
-63.9693
-65.0437
-64.9046
-64.2085
-64.8724
-63.7606
-63.1416
-62.1413
-64.9901
-61.9421
-62.4993
-62.9093
-62.8072
-62.8206
-62.5944
-62.6682
-63.1818
-63.4542
-63.5964
-63.756
-63.3012
-62.9504
-63.187
-63.3365
-63.1648
-63.0693
-63.7397
-64.0186
-63.664
-63.6733
-63.9723
-63.4955
-63.284
-63.4673
-63.478
-62.9166
-64.1588
-63.9635
-59.6495
-62.167
-62.9469
-62.5286
-62.5109
-62.7523
-63.0532
-63.2875
-63.3612
-63.5753
-63.5973
-63.1168
-62.9078
-62.8958
-62.6922
-62.5302
-62.668
-62.8782
-62.917
-63.2111
-63.6192
-63.5652
-63.5258
-63.4844
-63.1088
-62.5025
-62.5156
-62.81
-62.7803
-63.2662
-61.7471
-40.9226
-41.2784
-41.2242
-41.2014
-41.5681
-41.5681
-41.5901
-41.5133
-41.5487
-41.8933
-41.8901
-41.9072
-41.9176
-41.806
-41.9192
-41.8342
-42.3439
-42.366
-42.3026
-42.3948
-42.3684
-42.2335
-42.3213
-42.2046
-42.3121
-42.817
-42.911
-42.9623
-42.9029
-43.0557
-43.1123
-42.8502
-42.7152
-42.7916
-42.7382
-42.8928
-43.5064
-43.5973
-43.4545
-43.6472
-43.7204
-43.8256
-43.9627
-43.9091
-43.6584
-43.604
-43.4555
-43.6284
-43.5777
-44.3697
-44.4678
-44.7099
-44.6741
-44.7334
-44.8458
-44.9126
-45.1227
-44.8818
-44.6345
-44.5841
-44.6151
-44.4974
-44.7176
-44.8253
-45.3672
-45.7036
-45.6101
-45.9563
-45.9497
-45.9071
-46.0863
-46.4657
-46.7807
-46.3587
-46.186
-45.8827
-45.8815
-46.0821
-46.0476
-46.1815
-46.0578
-46.6428
-47.0061
-47.7312
-48.1779
-48.0494
-48.2813
-48.5158
-48.6951
-48.9494
-49.1203
-49.045
-48.6944
-48.512
-48.3784
-48.2814
-48.1375
-47.498
-47.512
-47.5025
-49.4236
-49.8847
-50.1065
-51.1435
-51.9073
-51.6411
-51.6664
-51.5924
-51.5828
-51.8316
-52.1329
-52.0444
-52.0476
-52.0208
-52.0206
-51.9484
-51.175
-50.4737
-50.1623
-49.4978
-49.0219
-51.9461
-54.8124
-55.6352
-56.3773
-56.3995
-56.3919
-56.5249
-56.2502
-56.219
-56.2717
-56.4027
-55.7785
-56.1043
-56.3358
-56.7489
-56.4231
-56.7412
-56.7205
-55.7296
-54.6404
-52.7875
-51.4671
-50.7598
-53.3586
-59.5838
-60.4583
-61.4035
-60.2248
-59.0232
-59.1243
-59.1853
-59.5148
-59.9068
-59.7044
-59.2033
-58.3734
-59.1963
-60.1414
-60.3229
-60.8793
-62.0137
-63.2003
-63.0755
-63.4111
-60.7708
-59.0409
-56.1262
-53.0068
-61.8794
-63.5507
-63.3907
-64.3548
-62.3011
-62.3141
-62.3372
-62.2645
-62.6655
-63.0603
-62.7655
-61.9114
-62.4028
-63.4531
-61.9596
-61.7951
-62.9388
-62.9342
-63.3386
-65.2585
-66.0515
-66.1105
-65.9354
-64.3178
-62.8739
-60.5886
-61.2657
-64.3731
-64.4525
-65.2338
-64.6511
-63.0585
-62.6224
-62.5055
-62.4532
-63.2758
-63.5307
-63.3637
-62.867
-63.5064
-64.0274
-64.0777
-63.7989
-63.044
-63.4396
-63.7386
-63.6843
-64.0797
-65.5017
-64.9546
-64.1405
-64.4789
-63.5259
-62.9004
-63.1298
-66.3131
-61.4161
-62.2296
-62.7077
-62.6577
-62.7278
-62.5727
-62.6357
-63.1541
-63.4403
-63.5681
-63.7162
-63.211
-62.9376
-63.1955
-63.3378
-63.2526
-63.3285
-63.1355
-63.1204
-63.7448
-63.998
-63.5726
-63.6719
-64.0528
-63.5095
-63.3292
-63.4333
-63.4258
-62.9687
-64.1543
-64.3096
-59.6189
-62.115
-62.9521
-62.5098
-62.5162
-62.779
-63.0358
-63.2758
-63.3521
-63.5619
-63.5844
-63.1122
-62.9009
-62.9002
-62.7027
-62.5395
-62.5636
-62.5199
-62.653
-62.8709
-62.9173
-63.2134
-63.6114
-63.5385
-63.5534
-63.4949
-63.1153
-62.5098
-62.5202
-62.8244
-62.8224
-63.1639
-61.8899
-40.7262
-40.9392
-40.9169
-40.8996
-41.288
-41.2715
-41.2495
-41.1828
-41.2127
-41.5458
-41.5856
-41.5886
-41.4962
-41.4331
-41.5803
-41.5365
-41.9338
-41.8771
-41.9093
-41.8968
-41.8868
-41.8407
-41.9238
-41.8405
-41.7788
-42.4084
-42.3125
-42.3629
-42.3633
-42.4201
-42.4986
-42.3614
-42.231
-42.2658
-42.1839
-42.3111
-42.8714
-42.8584
-42.9921
-43.0186
-43.0874
-43.1578
-43.2393
-42.9824
-42.8678
-42.8107
-42.7336
-42.9614
-42.9145
-43.6529
-43.5923
-43.5877
-43.7517
-43.7786
-43.8864
-43.9847
-44.2205
-44.012
-43.9291
-43.6473
-43.6474
-43.4825
-43.5592
-43.6657
-44.4496
-44.5215
-44.7612
-44.7695
-44.7418
-44.8458
-45.0709
-45.1378
-45.3065
-45.0565
-44.8188
-44.7015
-44.6582
-44.6017
-44.6817
-44.853
-44.628
-45.2986
-45.6825
-45.6629
-45.9683
-46.04
-46.1615
-46.2422
-46.4474
-46.695
-46.8909
-46.7956
-46.3584
-46.1882
-45.966
-46.0195
-45.7137
-46.108
-46.04
-46.2373
-46.7144
-46.9954
-47.3291
-47.9986
-48.3197
-48.4347
-48.5566
-48.7435
-48.8748
-49.0931
-49.484
-49.178
-48.9887
-48.8102
-48.5425
-48.6852
-48.4138
-48.2802
-47.6953
-47.6075
-47.372
-49.6562
-50.1134
-49.7186
-51.0394
-51.6894
-51.3833
-51.4341
-51.6225
-51.4502
-51.8515
-51.9989
-52.0498
-52.2458
-51.9118
-52.0892
-52.0125
-52.1201
-52.076
-51.6788
-50.5573
-50.6276
-49.7445
-48.924
-52.1591
-54.5581
-55.5396
-56.1932
-56.3439
-56.1562
-56.423
-56.2036
-56.1047
-56.1196
-56.3681
-55.9004
-55.4135
-55.8798
-56.0623
-56.3393
-56.0654
-56.6734
-56.6235
-56.5679
-55.8939
-54.3684
-52.2587
-51.5636
-50.7169
-53.4203
-59.5439
-59.4688
-60.9261
-59.9899
-58.7807
-58.9625
-59.0348
-59.3427
-59.7396
-59.521
-59.1963
-58.4035
-59.2853
-58.444
-59.09
-59.939
-60.4817
-61.2254
-62.3779
-63.0729
-63.3312
-63.321
-59.9749
-58.5834
-55.5172
-52.6772
-60.756
-62.7751
-62.5875
-63.9177
-61.9558
-62.0709
-62.3728
-62.3207
-62.8568
-63.1078
-62.7724
-62.0867
-62.6605
-63.7158
-64.3022
-63.3103
-61.9742
-61.6607
-62.9366
-62.9932
-63.5606
-65.5737
-66.2923
-66.369
-65.4183
-63.52
-63.1937
-61.3748
-61.8691
-63.0322
-63.5327
-64.6824
-64.3392
-62.8073
-62.513
-62.5171
-62.5707
-63.3326
-63.5476
-63.4084
-63.028
-63.809
-64.1652
-64.0013
-63.8196
-64.1673
-63.6658
-63.0711
-63.4302
-63.7834
-63.6922
-64.2228
-65.7295
-64.9343
-63.9288
-64.0596
-63.3583
-62.4277
-64.1551
-67.3822
-60.8979
-61.964
-62.5065
-62.5175
-62.6406
-62.5532
-62.6055
-63.1258
-63.4184
-63.5332
-63.6685
-63.1247
-62.9261
-63.2005
-63.3313
-63.2257
-62.941
-63.2742
-63.3104
-63.0974
-63.1462
-63.7349
-64.0012
-63.4922
-63.6606
-64.1063
-63.5034
-63.356
-63.4045
-63.3806
-63.0409
-64.2449
-64.5804
-59.6076
-62.0663
-62.9562
-62.4985
-62.5201
-62.7825
-63.0182
-63.265
-63.3392
-63.5491
-63.5731
-63.1061
-62.8946
-62.9065
-62.7125
-62.5481
-62.5644
-62.5064
-62.5608
-62.5077
-62.6364
-62.863
-62.9167
-63.2122
-63.601
-63.5114
-63.5638
-63.5053
-63.124
-62.5201
-62.5261
-62.8401
-62.8531
-63.1494
-62.0322
-40.6451
-40.7734
-40.6756
-40.6909
-40.9721
-40.9609
-40.9303
-40.8999
-40.919
-41.2829
-41.2606
-41.258
-41.1697
-41.1919
-41.1678
-41.1425
-41.5397
-41.522
-41.5236
-41.5142
-41.4899
-41.562
-41.5484
-41.5879
-41.5678
-41.9832
-41.8475
-41.901
-41.9434
-41.9154
-41.9391
-41.9348
-41.7936
-41.7957
-41.8388
-41.7656
-42.3999
-42.4064
-42.3313
-42.4581
-42.4445
-42.481
-42.5403
-42.3545
-42.3174
-42.263
-42.3333
-42.2561
-42.2725
-42.8825
-42.918
-43.0516
-42.9553
-43.0496
-43.2212
-43.3523
-43.4464
-43.1255
-42.9931
-42.8839
-42.8737
-42.7237
-42.8424
-43.0169
-43.6424
-43.7789
-43.6901
-43.6992
-43.7534
-43.9013
-44.0931
-44.2523
-44.3555
-44.1999
-44.0156
-43.7432
-43.6302
-43.5826
-43.6423
-43.6186
-43.6951
-44.4376
-44.6948
-44.7477
-44.7356
-44.7985
-44.8754
-44.9574
-45.1773
-45.3661
-45.491
-45.3399
-44.9524
-44.8021
-44.859
-44.6178
-44.8531
-44.8142
-44.826
-44.4789
-45.383
-45.5918
-45.4605
-46.1094
-46.1596
-46.1699
-46.2406
-46.5051
-46.7341
-46.8737
-47.2128
-47.0393
-46.6499
-46.5073
-46.2648
-46.1175
-46.133
-45.9729
-46.2094
-46.0024
-46.2783
-47.0209
-46.9819
-47.567
-47.9332
-48.2229
-48.4131
-48.4908
-48.6955
-48.9665
-49.1663
-49.4414
-49.6478
-49.4064
-49.1809
-49.1207
-48.9591
-48.6642
-48.4132
-48.5448
-48.3143
-48.0203
-47.6603
-47.2844
-49.7849
-49.9983
-49.8685
-50.9571
-51.6745
-51.2589
-51.2413
-51.5577
-51.5471
-51.7124
-52.0636
-52.4123
-52.2695
-52.1944
-52.2106
-52.0825
-51.9632
-52.3736
-51.7497
-51.7652
-51.4023
-50.6902
-50.9515
-49.8417
-48.9145
-52.2872
-54.2485
-54.9337
-55.9296
-56.1484
-56.1599
-56.5399
-56.1368
-56.1248
-56.1458
-56.3057
-55.774
-55.8209
-55.9175
-55.7039
-55.809
-56.1004
-56.4568
-56.4364
-56.851
-56.5227
-56.4588
-55.4241
-54.2259
-52.2723
-51.7576
-50.9179
-53.1763
-58.3767
-58.6328
-60.3619
-59.6383
-58.9016
-58.7061
-58.8466
-59.2834
-59.6222
-59.3543
-58.9093
-59.1892
-59.4485
-60.4391
-59.5509
-58.4998
-59.1015
-59.8944
-60.5684
-61.53
-62.7616
-63.2599
-63.2496
-62.9206
-59.5235
-57.5843
-55.2223
-51.7786
-59.8607
-61.6203
-61.7632
-63.3459
-61.6941
-61.8431
-62.3257
-62.3335
-62.957
-63.2322
-62.8422
-62.413
-62.9799
-63.84
-64.1775
-63.8681
-64.4929
-63.2285
-61.8508
-61.5685
-62.9711
-63.0715
-63.7539
-65.7173
-66.7016
-65.8074
-64.7017
-63.3079
-62.609
-62.2251
-62.7619
-61.7885
-62.7253
-64.039
-63.8959
-62.5932
-62.4006
-62.5635
-62.7041
-63.4351
-63.5866
-63.5281
-63.355
-64.1053
-64.2265
-63.9518
-63.7117
-63.5459
-63.9368
-64.2785
-63.4879
-63.0563
-63.3449
-63.9057
-63.6542
-64.343
-65.7593
-64.84
-63.6622
-63.6173
-63.038
-61.9853
-64.9802
-68.2953
-60.4518
-61.7052
-62.2982
-62.3932
-62.5593
-62.5217
-62.5756
-63.0995
-63.3843
-63.4975
-63.6075
-63.0512
-62.9164
-63.2046
-63.3196
-63.1962
-62.9124
-62.8131
-62.9732
-63.2858
-63.2766
-63.0653
-63.1158
-63.7217
-64.0325
-63.4118
-63.6403
-64.1386
-63.4846
-63.3662
-63.383
-63.3298
-63.1328
-64.2755
-64.8091
-59.6102
-62.0306
-62.9593
-62.4898
-62.522
-62.765
-63.0209
-63.2542
-63.3275
-63.537
-63.5599
-63.097
-62.8883
-62.91
-62.7218
-62.5527
-62.5661
-62.4966
-62.543
-62.514
-62.5556
-62.4951
-62.6188
-62.8544
-62.9165
-63.2091
-63.5833
-63.5139
-63.5563
-63.5153
-63.1348
-62.5336
-62.5363
-62.8485
-62.9044
-63.1296
-62.1993
-40.3971
-40.6512
-40.6959
-40.6206
-40.7674
-40.7574
-40.7147
-40.6646
-40.6811
-41.0374
-40.9888
-40.9324
-40.9466
-40.8538
-40.8454
-40.8752
-41.3507
-41.2527
-41.2701
-41.2314
-41.2278
-41.2618
-41.1836
-41.1839
-41.0868
-41.6077
-41.5443
-41.5326
-41.5771
-41.5337
-41.5228
-41.511
-41.5598
-41.5381
-41.5743
-41.5645
-42.0226
-41.9961
-41.946
-41.8907
-41.9326
-41.9399
-42.0807
-41.9313
-41.9093
-41.8124
-41.8509
-41.6767
-41.7334
-42.4244
-42.4698
-42.44
-42.3729
-42.4033
-42.5029
-42.6309
-42.7074
-42.4211
-42.4302
-42.2457
-42.2849
-42.3468
-42.4096
-42.3757
-42.8499
-42.9186
-43.0535
-43.0507
-42.9838
-43.1553
-43.3399
-43.3901
-43.5341
-43.3131
-43.1703
-42.9733
-42.9221
-42.8205
-42.7543
-42.837
-42.8811
-43.5341
-43.78
-43.5971
-43.8279
-43.7574
-43.8575
-43.9757
-44.1372
-44.3238
-44.4854
-44.3576
-44.1611
-43.9625
-43.8059
-43.7415
-43.5824
-43.7226
-43.7595
-43.7331
-44.3464
-44.6095
-44.5597
-44.7977
-44.8345
-44.947
-45.0325
-45.2213
-45.4815
-45.5624
-45.7325
-45.5484
-45.2428
-44.8704
-45.0178
-44.8534
-44.8295
-44.813
-44.8102
-44.5701
-44.5181
-45.5924
-45.5495
-45.836
-46.0296
-46.1401
-46.2098
-46.2388
-46.4628
-46.7265
-46.8215
-47.0566
-47.3659
-47.2685
-46.9898
-46.8469
-46.5541
-46.0345
-46.1967
-46.1133
-46.197
-46.3926
-46.0445
-45.9085
-47.2529
-47.0655
-47.8182
-48.0579
-48.2358
-48.3702
-48.4523
-48.7285
-48.8962
-49.2205
-49.3538
-49.5433
-49.9551
-49.5423
-49.3558
-49.1646
-49.0827
-48.7986
-49.0488
-48.3703
-47.9381
-48.3368
-48.0543
-47.611
-47.1181
-49.5937
-49.7213
-49.9526
-50.9368
-51.3671
-51.3068
-51.4233
-51.4809
-51.6736
-51.3917
-52.2287
-51.9938
-52.1917
-52.6308
-52.4557
-52.3304
-52.3228
-51.9561
-52.3308
-52.5072
-52.269
-51.7751
-50.7211
-51.0219
-51.0243
-49.6502
-48.9104
-53.1133
-53.5514
-54.418
-55.7901
-55.7678
-56.1719
-56.3204
-55.851
-56.0994
-56.1351
-55.9511
-55.6822
-55.9236
-56.2506
-56.0632
-55.7225
-55.5464
-55.7231
-56.4989
-57.1044
-56.7783
-56.7725
-56.8052
-56.2789
-55.1483
-54.4822
-52.4075
-51.8398
-50.9891
-53.6003
-57.9733
-58.0688
-59.9172
-59.4817
-58.6787
-58.4855
-58.7698
-59.2246
-59.5154
-59.0861
-58.9921
-59.603
-59.861
-60.3632
-60.347
-60.4402
-59.1195
-58.237
-58.8121
-60.4751
-60.7178
-61.4007
-62.5553
-63.4214
-62.6771
-61.8437
-59.2301
-56.7521
-54.9496
-51.3802
-59.1034
-60.7356
-61.2438
-62.896
-61.5715
-61.6988
-62.2029
-62.5343
-63.1765
-63.2383
-63.0905
-62.891
-63.3184
-63.9754
-64.0977
-63.6962
-63.2772
-64.1343
-64.5877
-62.8509
-61.3603
-61.4628
-63.1404
-63.2383
-63.9101
-65.8217
-66.5782
-64.9957
-63.8839
-63.3804
-61.2699
-62.758
-63.4643
-60.7163
-61.9775
-63.3945
-63.327
-62.39
-62.2227
-62.5954
-62.8711
-63.5438
-63.6773
-63.7105
-63.7129
-64.215
-64.2255
-63.8947
-63.5858
-63.4518
-63.0275
-63.6306
-64.0687
-64.2285
-63.346
-62.8736
-63.2594
-63.9666
-63.7079
-64.5423
-65.7227
-64.6119
-63.3908
-63.3347
-62.5205
-61.6941
-65.7308
-68.9905
-60.0647
-61.462
-62.1103
-62.2666
-62.4783
-62.4672
-62.5555
-63.0764
-63.351
-63.4657
-63.5408
-62.9935
-62.9041
-63.2047
-63.3074
-63.1645
-62.8927
-62.7643
-62.5352
-62.8659
-63.0047
-63.2815
-63.2271
-62.9852
-63.055
-63.6971
-64.0138
-63.3464
-63.6176
-64.1467
-63.4539
-63.3375
-63.3778
-63.2917
-63.2353
-64.2399
-64.7874
-59.6011
-62.0051
-62.961
-62.4872
-62.5252
-62.7466
-63.0419
-63.2445
-63.3158
-63.5256
-63.5595
-63.0869
-62.882
-62.9119
-62.7293
-62.5569
-62.5666
-62.4851
-62.5363
-62.5365
-62.5639
-62.517
-62.5486
-62.4834
-62.5999
-62.8457
-62.9162
-63.2037
-63.5637
-63.5378
-63.5504
-63.5232
-63.1473
-62.5509
-62.5493
-62.8588
-62.957
-63.1153
-62.3804
-40.2743
-40.3874
-40.4718
-40.3904
-40.6895
-40.7502
-40.5708
-40.6178
-40.565
-40.8086
-40.7733
-40.7394
-40.7524
-40.6643
-40.6563
-40.6616
-41.078
-41.0404
-40.9785
-41.0012
-40.9981
-40.9066
-40.8746
-40.7967
-40.7698
-41.3825
-41.3815
-41.3357
-41.266
-41.2812
-41.1969
-41.2009
-41.2266
-41.2296
-41.1936
-41.1511
-41.5837
-41.6326
-41.5943
-41.5242
-41.5136
-41.5729
-41.6455
-41.5502
-41.5084
-41.5439
-41.5435
-41.6438
-41.6255
-42.0191
-42.0053
-42.0022
-41.9386
-42.0027
-41.9695
-42.0444
-42.1974
-42.09
-41.9486
-41.8009
-41.7875
-41.8544
-41.7427
-41.7442
-42.404
-42.4686
-42.4087
-42.5126
-42.4644
-42.5583
-42.5986
-42.6601
-42.8179
-42.6241
-42.4467
-42.3697
-42.3103
-42.3704
-42.2183
-42.3463
-42.3267
-42.8249
-42.9571
-42.9289
-43.0817
-43.1753
-43.1618
-43.3096
-43.4312
-43.5369
-43.7132
-43.4959
-43.3411
-43.1653
-42.9917
-42.8791
-42.7305
-42.8533
-42.8616
-42.8791
-43.5264
-43.7137
-43.6956
-43.8317
-43.9039
-43.9519
-44.0765
-44.2054
-44.3828
-44.5523
-44.5921
-44.4489
-44.3339
-43.9769
-44
-43.8324
-43.7929
-43.6307
-43.7791
-43.7984
-43.6838
-44.4529
-44.6114
-44.6576
-44.676
-44.8748
-44.9384
-45.0801
-45.2578
-45.2917
-45.5895
-45.6872
-45.9003
-45.7254
-45.4975
-45.1235
-45.187
-44.934
-44.8253
-44.6939
-44.7891
-44.8795
-44.5494
-44.3672
-45.5946
-45.6427
-45.9724
-46.0039
-46.1762
-46.2676
-46.4338
-46.5077
-46.5264
-46.6031
-47.0722
-47.2524
-47.5847
-47.4435
-47.2697
-46.984
-46.7991
-46.5047
-46.5021
-46.3174
-46.307
-46.358
-46.4224
-46.0682
-45.8385
-47.2303
-47.0189
-47.7791
-48.1143
-48.1903
-48.437
-48.516
-48.6914
-49.0453
-49.0259
-49.3767
-49.5502
-49.4324
-49.7979
-49.7603
-49.5141
-49.3711
-49.172
-48.9477
-48.8592
-48.7754
-48.5019
-48.1439
-48.3867
-47.9048
-47.5767
-46.9752
-49.3776
-49.7106
-49.9245
-50.8412
-51.3378
-51.2207
-51.42
-51.5741
-51.8498
-51.4291
-51.426
-52.0919
-52.5248
-52.3734
-52.7028
-52.6734
-52.2579
-52.2881
-52.5654
-52.1904
-52.2545
-52.3696
-52.1264
-51.8416
-51.0142
-50.9077
-51.1742
-49.4651
-48.8634
-52.5008
-53.4839
-53.8394
-55.6696
-55.4947
-56.0815
-56.1092
-55.8362
-55.9187
-56.0397
-55.6967
-55.7258
-55.9306
-56.4634
-56.193
-56.2978
-55.821
-55.6702
-55.4306
-55.7572
-56.5537
-56.2857
-56.524
-56.8667
-56.3255
-56.1603
-54.6691
-54.175
-52.4933
-51.566
-50.6348
-53.7251
-58.2594
-57.4294
-59.4209
-59.3302
-58.5532
-58.4632
-58.7216
-59.206
-59.4698
-59.2834
-59.1611
-59.5393
-60.295
-60.4266
-60.2222
-60.6563
-60.5096
-60.0976
-58.6238
-58.2002
-58.8652
-60.4163
-60.5509
-61.2808
-62.5484
-62.8999
-61.924
-60.6982
-58.7497
-56.1369
-54.6073
-51.0905
-58.5205
-59.9069
-60.7336
-62.595
-61.4226
-61.5941
-62.309
-62.7992
-63.4213
-63.4201
-63.436
-63.4331
-63.5387
-64.1106
-64.0536
-63.4586
-63.0365
-62.2788
-63.5965
-64.5015
-64.275
-62.5575
-61.1668
-61.6506
-63.4704
-63.3522
-64.0171
-65.9468
-66.0881
-64.0567
-63.0328
-62.9154
-60.3904
-63.4817
-63.2714
-59.8468
-61.18
-62.7674
-62.8017
-62.1998
-62.0332
-62.6242
-63.0359
-63.6777
-63.8012
-63.8796
-63.9244
-64.0971
-64.1967
-63.8342
-63.4647
-63.3561
-62.9436
-62.407
-63.0935
-63.6984
-64.2194
-63.9282
-63.2143
-62.54
-63.1623
-64.0115
-63.8035
-64.6728
-65.5792
-64.4127
-63.1148
-63.1526
-62.086
-61.7033
-66.4785
-69.3417
-59.7483
-61.2471
-61.9481
-62.1379
-62.3983
-62.4119
-62.5392
-63.0526
-63.3234
-63.4331
-63.4771
-62.9431
-62.8886
-63.2009
-63.2995
-63.1575
-62.8814
-62.7291
-62.452
-62.4282
-62.6256
-62.9229
-63.0286
-63.2625
-63.171
-62.8906
-62.9742
-63.682
-63.9349
-63.2722
-63.5961
-64.1237
-63.4239
-63.2614
-63.3651
-63.2791
-63.3447
-64.1847
-64.5966
-59.59
-61.9859
-62.962
-62.4949
-62.5298
-62.7371
-63.0564
-63.2328
-63.304
-63.5153
-63.5472
-63.0744
-62.8761
-62.9126
-62.7367
-62.565
-62.5645
-62.4727
-62.5358
-62.5323
-62.5408
-62.5319
-62.5849
-62.5165
-62.5385