/*--------------------------------*- C++ -*----------------------------------*\
  =========                 |
  \\      /  F ield         | OpenFOAM: The Open Source CFD Toolbox
   \\    /   O peration     | Website:  https://openfoam.org
    \\  /    A nd           | Version:  7
     \\/     M anipulation  |
\*---------------------------------------------------------------------------*/
FoamFile
{
    version     2.0;
    format      ascii;
    class       volScalarField;
    location    "1";
    object      nut;
}
// * * * * * * * * * * * * * * * * * * * * * * * * * * * * * * * * * * * * * //

dimensions      [0 2 -1 0 0 0 0];

internalField   nonuniform List<scalar> 
18780
(
1.70104e-05
1.41789e-05
1.75332e-05
1.68788e-05
7.11754e-05
1.63568e-05
1.69668e-05
1.72402e-05
1.80146e-05
1.58166e-05
3.38148e-05
5.06332e-05
6.04925e-05
2.03862e-05
1.76969e-05
1.72474e-05
1.78562e-05
1.67007e-05
1.77546e-05
1.42407e-05
4.83146e-05
2.0979e-05
3.90716e-05
2.09636e-05
5.51081e-05
4.95767e-05
2.32914e-05
2.16586e-05
2.11611e-05
1.62195e-05
1.7563e-05
1.70139e-05
1.70289e-05
1.60886e-05
1.24414e-05
2.72646e-05
4.70517e-05
3.14249e-05
3.82153e-05
2.49317e-05
3.98158e-05
4.56018e-05
1.73046e-05
4.54573e-05
3.74114e-05
2.31926e-05
2.28744e-05
2.34851e-05
2.13811e-05
1.6639e-05
1.78384e-05
1.69683e-05
1.71341e-05
1.62807e-05
1.37571e-05
1.33594e-05
8.79136e-05
3.38039e-05
2.24972e-05
5.62852e-05
5.04047e-05
3.03062e-05
3.76152e-05
4.13969e-05
3.19763e-05
3.06025e-05
3.44965e-05
4.05441e-05
1.97901e-05
3.10811e-05
2.97684e-05
1.9341e-05
2.14615e-05
2.2892e-05
2.29035e-05
2.1057e-05
1.82502e-05
1.80253e-05
1.7086e-05
1.75144e-05
1.67337e-05
1.39219e-05
1.43822e-05
1.4239e-05
0.000110908
5.53813e-05
7.04248e-05
6.29704e-05
3.63731e-05
2.81361e-05
1.89294e-05
5.7837e-05
5.01681e-05
3.7289e-05
2.18077e-05
3.73201e-05
4.46059e-05
3.19526e-05
3.17985e-05
2.37637e-05
3.11643e-05
3.2925e-05
2.17278e-05
2.4998e-05
2.65036e-05
1.70945e-05
1.84896e-05
2.14751e-05
2.14463e-05
2.27114e-05
2.15969e-05
1.96201e-05
1.7541e-05
1.68817e-05
1.69843e-05
1.69768e-05
1.5857e-05
1.49305e-05
1.49522e-05
1.44825e-05
8.99043e-05
8.35683e-05
6.92266e-05
5.67299e-05
3.96387e-05
6.06804e-05
8.03895e-05
3.83481e-05
4.87707e-05
3.40689e-05
3.58522e-05
1.98115e-05
5.56082e-05
4.82753e-05
3.78451e-05
1.56722e-05
2.13453e-05
4.09272e-05
3.74603e-05
3.4352e-05
3.01631e-05
3.6393e-05
2.15772e-05
2.87208e-05
2.78268e-05
2.3231e-05
2.52601e-05
2.28313e-05
1.38874e-05
1.77648e-05
2.00557e-05
2.09253e-05
2.06293e-05
2.32515e-05
2.2246e-05
2.12888e-05
1.72162e-05
1.57225e-05
1.66744e-05
1.67542e-05
1.68918e-05
1.50694e-05
1.49835e-05
1.51801e-05
1.28667e-05
0.00131038
0.000656322
0.000115162
7.00969e-05
4.88781e-05
6.98834e-05
4.31397e-05
4.18616e-05
5.07151e-05
4.66915e-05
5.1211e-05
7.52997e-05
7.73256e-05
5.48571e-05
5.30788e-05
4.47186e-05
4.93664e-05
3.23808e-05
2.41451e-05
5.49715e-05
4.42041e-05
3.79279e-05
3.74819e-05
1.43004e-05
3.03645e-05
3.67777e-05
3.2795e-05
3.3171e-05
2.41059e-05
5.35891e-05
2.61637e-05
2.28168e-05
2.74675e-05
2.6113e-05
2.40357e-05
2.36111e-05
2.36741e-05
1.9158e-05
1.63313e-05
1.97459e-05
2.06047e-05
2.02787e-05
2.13879e-05
2.30892e-05
2.34312e-05
2.1037e-05
1.62237e-05
1.72099e-05
1.62023e-05
1.76855e-05
1.5983e-05
1.53456e-05
1.53513e-05
1.49993e-05
1.34929e-05
1.12648e-05
0.0007243
0.00124472
0.00109501
0.000649574
0.000547148
8.81586e-05
0.000102918
9.45289e-05
5.59022e-05
6.28162e-05
7.7698e-05
4.10267e-05
5.04599e-05
6.18099e-05
3.88586e-05
5.47235e-05
5.58336e-05
0.000109162
5.65459e-05
7.78306e-05
5.65417e-05
5.517e-05
4.44425e-05
8.0842e-05
2.79132e-05
3.48528e-05
3.34273e-05
4.88754e-05
3.86062e-05
3.71807e-05
5.04236e-05
2.52264e-05
2.37437e-05
3.38626e-05
3.28074e-05
2.92106e-05
2.83652e-05
2.70382e-05
3.19511e-05
4.46597e-05
2.60552e-05
2.53335e-05
2.54343e-05
2.55981e-05
2.28436e-05
2.39656e-05
2.39055e-05
1.7513e-05
1.83521e-05
1.8737e-05
1.98423e-05
2.08089e-05
2.05458e-05
2.21621e-05
2.36908e-05
2.28096e-05
1.91854e-05
1.66063e-05
1.89802e-05
1.7249e-05
1.68613e-05
1.44543e-05
1.53703e-05
1.52477e-05
1.53163e-05
1.33101e-05
1.1958e-05
1.07133e-05
0.000253342
0.00079669
0.000876218
0.00120982
0.00114942
0.00100216
0.00054534
0.000542313
0.000389836
0.000119354
7.29992e-05
7.32868e-05
8.59663e-05
7.41986e-05
6.5028e-05
7.21045e-05
7.12724e-05
6.09288e-05
0.000109653
3.69122e-05
7.28676e-05
3.86857e-05
4.90216e-05
6.21674e-05
5.94209e-05
9.01779e-05
4.02183e-05
6.33097e-05
5.10068e-05
4.6136e-05
4.01126e-05
4.40129e-05
3.9249e-05
2.99547e-05
3.46167e-05
3.4486e-05
3.98338e-05
3.6369e-05
3.45913e-05
6.28926e-05
3.66913e-05
2.45387e-05
2.85077e-05
3.27266e-05
2.95041e-05
2.44347e-05
2.92924e-05
2.83752e-05
2.65117e-05
3.5192e-05
4.24037e-05
3.12388e-05
2.60775e-05
2.38572e-05
2.41387e-05
2.33998e-05
2.42824e-05
2.3324e-05
1.56961e-05
1.92127e-05
1.88026e-05
1.82866e-05
2.01487e-05
2.11821e-05
2.09362e-05
2.30877e-05
2.27658e-05
2.08187e-05
1.86419e-05
1.93619e-05
1.63256e-05
1.96944e-05
1.56272e-05
1.4878e-05
1.50153e-05
1.50603e-05
1.52226e-05
1.35473e-05
1.18977e-05
1.13766e-05
1.02293e-05
0.000477955
0.000606508
0.000435436
0.000205695
0.000761203
0.0009749
0.00105302
0.00106634
0.00109017
0.000970322
0.000762068
0.00050275
0.000356241
0.000394397
0.000212869
0.000167229
0.000110942
0.000103199
6.69778e-05
7.94961e-05
9.3372e-05
8.13701e-05
7.48166e-05
6.12351e-05
6.52782e-05
7.6322e-05
0.000103719
9.2693e-05
4.92264e-05
6.33048e-05
4.07261e-05
4.99752e-05
5.24514e-05
7.80169e-05
8.24492e-05
7.41675e-05
3.49135e-05
5.26747e-05
4.44258e-05
3.89132e-05
4.77747e-05
0.000105097
5.39512e-05
2.59883e-05
3.72887e-05
3.66945e-05
3.64536e-05
3.7004e-05
3.79896e-05
3.41163e-05
2.6556e-05
3.01503e-05
3.04689e-05
2.97818e-05
3.13076e-05
2.93367e-05
2.55901e-05
2.68583e-05
2.85603e-05
2.78566e-05
6.73593e-05
2.33028e-05
3.82421e-05
4.32014e-05
3.21699e-05
2.29848e-05
2.33286e-05
2.41064e-05
2.38622e-05
2.40739e-05
2.23696e-05
2.3566e-05
1.82303e-05
1.98796e-05
1.8067e-05
1.88596e-05
2.14796e-05
2.07075e-05
2.23637e-05
2.21617e-05
2.07608e-05
2.02615e-05
1.75857e-05
1.62637e-05
1.67195e-05
1.79087e-05
1.68043e-05
1.56166e-05
1.48876e-05
1.48561e-05
1.4986e-05
1.36544e-05
1.20856e-05
1.13668e-05
1.07773e-05
1.00083e-05
0.000187326
0.000480249
0.000477185
0.00059441
0.00069184
0.000302394
0.000285984
0.000430524
0.000740339
0.00108411
0.00107738
0.00107332
0.00114651
0.00100598
0.000888193
0.000718765
0.000542914
0.000555701
0.000288316
0.000247691
0.000216272
0.000174768
0.000157121
0.000187741
9.9919e-05
0.000112383
7.90982e-05
6.73487e-05
0.000133759
7.4433e-05
6.33462e-05
6.62542e-05
6.23175e-05
6.0157e-05
7.31913e-05
5.96166e-05
0.000130763
6.83609e-05
4.7143e-05
5.44848e-05
4.75692e-05
5.33875e-05
5.10211e-05
7.93581e-05
8.32874e-05
8.82653e-05
5.41879e-05
4.23711e-05
4.58218e-05
4.35338e-05
4.529e-05
4.01432e-05
9.02464e-05
0.000101583
5.6512e-05
2.6544e-05
4.14779e-05
3.90087e-05
4.07203e-05
3.61209e-05
3.79248e-05
3.26812e-05
5.14123e-05
2.23389e-05
2.59403e-05
3.40504e-05
3.88497e-05
3.17126e-05
2.50223e-05
2.7278e-05
2.7587e-05
2.80895e-05
2.85773e-05
6.30746e-05
6.55517e-05
2.39374e-05
3.86303e-05
4.14441e-05
2.51376e-05
2.20905e-05
2.43264e-05
2.42167e-05
2.38312e-05
2.36541e-05
2.06029e-05
3.33665e-05
2.39503e-05
1.90845e-05
1.86127e-05
1.84448e-05
2.09541e-05
2.11314e-05
2.20436e-05
2.20247e-05
2.03358e-05
2.03859e-05
1.90408e-05
1.61827e-05
1.57573e-05
2.13018e-05
1.54795e-05
1.71696e-05
1.59098e-05
1.5056e-05
1.46191e-05
1.46549e-05
1.36595e-05
1.21864e-05
1.14419e-05
1.05739e-05
1.05463e-05
9.15278e-06
0.000281306
0.000360824
0.000388377
0.000495085
0.000723764
0.000470056
0.000716385
0.000378646
0.000565643
0.000409619
0.000275937
0.000471878
0.000792593
0.000809947
0.00103325
0.00105689
0.00109428
0.000994597
0.00122532
0.000986086
0.000796163
0.000728323
0.000491087
0.000271994
0.000688814
0.000367542
0.000226137
0.000176164
0.000165395
0.000130167
0.000113191
0.000128144
0.000170923
8.71418e-05
0.00010711
8.44241e-05
7.08955e-05
0.000101623
8.91931e-05
6.96567e-05
4.02982e-05
6.82147e-05
5.96111e-05
6.66323e-05
7.32897e-05
6.35814e-05
8.82744e-05
0.000126312
5.99193e-05
4.67935e-05
5.43098e-05
5.39632e-05
5.61506e-05
4.70995e-05
0.000111163
5.58982e-05
8.99817e-05
7.03207e-05
5.08869e-05
4.45326e-05
4.07312e-05
5.3744e-05
4.33208e-05
4.13811e-05
6.06774e-05
6.00068e-05
8.57372e-05
4.54324e-05
3.29781e-05
4.46362e-05
3.98002e-05
4.10791e-05
3.46953e-05
3.48479e-05
3.10667e-05
3.30136e-05
2.57145e-05
2.20652e-05
2.72711e-05
4.8221e-05
3.93264e-05
2.75029e-05
2.70779e-05
2.76283e-05
2.74245e-05
2.91337e-05
2.65511e-05
2.18266e-05
6.98053e-05
5.79859e-05
2.15283e-05
4.12165e-05
3.3221e-05
2.25865e-05
2.30522e-05
2.47907e-05
2.45665e-05
2.32438e-05
2.19664e-05
1.78281e-05
4.29054e-05
3.27383e-05
2.27348e-05
1.78861e-05
1.87483e-05
2.03089e-05
2.16654e-05
2.21347e-05
2.2055e-05
2.04715e-05
2.01021e-05
1.9246e-05
1.72926e-05
1.54146e-05
1.74559e-05
1.65622e-05
1.8865e-05
1.48804e-05
1.5185e-05
1.47634e-05
1.44179e-05
1.44507e-05
1.35631e-05
1.23199e-05
1.1443e-05
1.06977e-05
1.02194e-05
1.00683e-05
8.28781e-06
0.000520222
7.20037e-05
0.00035977
0.000465496
0.000358562
0.000254972
0.000469949
0.000487259
0.000685907
0.000580659
0.000593229
0.000603783
0.000472807
0.000269251
0.000399852
0.000274303
0.000573045
0.000856877
0.000942419
0.000873613
0.000962566
0.00121312
0.00120565
0.000914226
0.000817557
0.00129716
0.00108556
0.000875532
0.000667402
0.000547973
0.000264368
0.000148528
0.000584311
0.000436598
0.000278881
0.000179828
0.00018032
0.000155456
0.000113349
0.000132696
7.85534e-05
0.000118011
0.000123451
7.30025e-05
9.44457e-05
9.05245e-05
6.97581e-05
8.14469e-05
0.000131853
4.01501e-05
5.1632e-05
5.67869e-05
6.83169e-05
6.2366e-05
6.35306e-05
5.75538e-05
5.10485e-05
7.30074e-05
0.000102915
0.000114299
6.50923e-05
5.26606e-05
5.40116e-05
5.39116e-05
5.27457e-05
4.11903e-05
4.04688e-05
8.71112e-05
3.71909e-05
8.4099e-05
6.35778e-05
4.74263e-05
4.52072e-05
4.21351e-05
4.74502e-05
4.55128e-05
4.15621e-05
6.01127e-05
6.77297e-05
3.50795e-05
6.07281e-05
3.93602e-05
3.62931e-05
4.37805e-05
4.0705e-05
3.81511e-05
3.34697e-05
3.31493e-05
2.90637e-05
3.77247e-05
3.01864e-05
2.29625e-05
3.95596e-05
2.92139e-05
4.29891e-05
2.92604e-05
2.83614e-05
2.77585e-05
2.83432e-05
2.91621e-05
2.74185e-05
2.32771e-05
1.89523e-05
3.27972e-05
6.59766e-05
4.21689e-05
2.48221e-05
3.80444e-05
2.42487e-05
2.33358e-05
2.3112e-05
2.50793e-05
2.37625e-05
2.17787e-05
1.91467e-05
1.53725e-05
4.44105e-05
4.12527e-05
3.12199e-05
2.01189e-05
1.86994e-05
2.02964e-05
2.14107e-05
2.28557e-05
2.18979e-05
2.06857e-05
2.01694e-05
1.9064e-05
1.74837e-05
1.62393e-05
1.52773e-05
1.68191e-05
1.60015e-05
1.90351e-05
1.77477e-05
1.54308e-05
1.40963e-05
1.44771e-05
1.43265e-05
1.35021e-05
1.24982e-05
1.14862e-05
1.05577e-05
1.00967e-05
1.01089e-05
9.09062e-06
7.81624e-06
0.000408068
0.000261744
0.000339691
0.000270015
0.000337217
0.000291732
0.000504142
0.000278784
0.000330944
0.000330254
0.000526307
0.000595304
0.000583715
0.000671556
0.000463126
0.000664298
0.00059869
0.000578376
0.000286341
0.000381137
0.00033344
0.000247668
0.000621924
0.000892503
0.00103037
0.00112983
0.00076141
0.0011544
0.00114639
0.00116216
0.000970555
0.000760059
0.000561373
0.00128437
0.00107116
0.000888837
0.000612393
0.000484895
0.000258405
0.000162111
0.000123731
0.000563375
0.000381956
0.00029503
0.000170732
0.000156608
0.000164224
0.000110944
9.29578e-05
0.000145883
0.000108617
8.14288e-05
0.0001021
9.18293e-05
7.53924e-05
0.000115226
9.28881e-05
6.2542e-05
4.81561e-05
8.63514e-05
0.000124327
4.52103e-05
6.96287e-05
6.17502e-05
6.95689e-05
6.09641e-05
5.13012e-05
5.38584e-05
6.61023e-05
4.92656e-05
7.70739e-05
8.79542e-05
0.000103272
6.60455e-05
5.60162e-05
5.39442e-05
5.11367e-05
4.65887e-05
3.85073e-05
5.18674e-05
3.00311e-05
6.81442e-05
2.88265e-05
8.7937e-05
5.5966e-05
4.3034e-05
4.68089e-05
3.89089e-05
4.33369e-05
4.50414e-05
3.60014e-05
6.65192e-05
9.16004e-05
7.60721e-05
3.14961e-05
5.12797e-05
3.66679e-05
3.78711e-05
4.29636e-05
3.94722e-05
3.61863e-05
3.26048e-05
3.21298e-05
2.64898e-05
3.69812e-05
3.25984e-05
3.74977e-05
3.07112e-05
5.06801e-05
3.22173e-05
2.78488e-05
2.84425e-05
2.82398e-05
2.84849e-05
2.98899e-05
2.76305e-05
2.42435e-05
2.02388e-05
1.90782e-05
1.87994e-05
3.71753e-05
5.26488e-05
2.98726e-05
2.72171e-05
2.7543e-05
2.34297e-05
2.33751e-05
2.33951e-05
2.4371e-05
2.20934e-05
1.92455e-05
1.65974e-05
1.48107e-05
4.16819e-05
4.23938e-05
3.78548e-05
2.70399e-05
2.0007e-05
2.04042e-05
2.12376e-05
2.29535e-05
2.21857e-05
2.0284e-05
2.02896e-05
1.90283e-05
1.74193e-05
1.63115e-05
1.6098e-05
1.48968e-05
1.51433e-05
1.75999e-05
1.70296e-05
1.77038e-05
1.50469e-05
1.46274e-05
1.44254e-05
1.43272e-05
1.35665e-05
1.27618e-05
1.15358e-05
1.06832e-05
9.76895e-06
9.91852e-06
9.40685e-06
8.34514e-06
8.42602e-06
0.000398175
0.000340535
0.000312533
0.000255018
0.000381749
0.000406711
0.000286178
0.000376295
0.000288332
0.000331449
0.000496335
0.000331411
0.00024704
0.000310961
0.000456532
0.000543271
0.000626848
0.000666212
0.000544775
0.000456436
0.000472841
0.000717158
0.000621784
0.000588081
0.000452674
0.000430081
0.00083267
0.00031941
0.000288188
0.0004559
0.00100766
0.00114308
0.0011721
0.00118106
0.000637527
0.00109551
0.00122039
0.00128475
0.00108474
0.000829275
0.000563273
0.000294132
0.00139821
0.00103107
0.000854386
0.000725142
0.000478933
0.000213276
0.000166635
0.000147301
7.59499e-05
0.000650729
0.000315335
0.000264732
0.000178833
0.000126802
0.000111899
0.000109458
8.39605e-05
7.83513e-05
0.000111869
0.000133415
8.11412e-05
9.12196e-05
9.88062e-05
7.27157e-05
8.89417e-05
0.000127277
6.92071e-05
5.37202e-05
8.66576e-05
6.31169e-05
9.97651e-05
0.000100652
7.43524e-05
7.62766e-05
6.39215e-05
6.64829e-05
5.59028e-05
5.81163e-05
4.48588e-05
7.72959e-05
9.06773e-05
4.9983e-05
7.41552e-05
6.44963e-05
8.72399e-05
6.43144e-05
5.78703e-05
5.20369e-05
4.52684e-05
4.42901e-05
3.51786e-05
4.36774e-05
4.32592e-05
2.74269e-05
6.07571e-05
3.66244e-05
8.32098e-05
4.55352e-05
4.43284e-05
4.17833e-05
4.05962e-05
4.14175e-05
3.79654e-05
3.14159e-05
6.66384e-05
5.07966e-05
9.35592e-05
7.07147e-05
3.91902e-05
5.23753e-05
3.88636e-05
3.74035e-05
4.01243e-05
3.6973e-05
3.36958e-05
3.17948e-05
2.92869e-05
2.45817e-05
2.78753e-05
2.97444e-05
4.61159e-05
3.6103e-05
4.9736e-05
3.97013e-05
2.92253e-05
2.85332e-05
2.87426e-05
2.7789e-05
3.0106e-05
2.79179e-05
2.43925e-05
2.12135e-05
1.85338e-05
1.7035e-05
2.13649e-05
2.21996e-05
3.43935e-05
3.85885e-05
2.7953e-05
2.40965e-05
2.47025e-05
2.38816e-05
2.36443e-05
2.37923e-05
2.23603e-05
1.92548e-05
1.67238e-05
1.59267e-05
1.53223e-05
3.38486e-05
3.88945e-05
3.8131e-05
3.15234e-05
2.48145e-05
2.12603e-05
2.16775e-05
2.26283e-05
2.24196e-05
2.02558e-05
2.0112e-05
1.89563e-05
1.72885e-05
1.63588e-05
1.61758e-05
1.5848e-05
1.49776e-05
1.52316e-05
1.68611e-05
1.69889e-05
1.74339e-05
1.64549e-05
1.47998e-05
1.44616e-05
1.43556e-05
1.36348e-05
1.29283e-05
1.18495e-05
1.05293e-05
9.59073e-06
9.51883e-06
9.67143e-06
8.3671e-06
8.44515e-06
1.0437e-05
0.00045725
0.000313684
0.000416005
0.000315067
0.000327238
0.000443403
0.000364023
0.000329536
0.000385354
0.000465908
0.000471886
0.000346442
0.000374377
0.000325626
0.000324703
0.000376427
0.0003586
0.000401126
0.000306682
0.000482016
0.000509923
0.000495808
0.000721982
0.000630089
0.000672482
0.000415757
0.000298358
0.000359715
0.000687008
0.000509884
0.000638692
0.000349193
0.000383026
0.000815694
0.00121205
0.000289731
0.000201923
0.000842932
0.000844861
0.00111205
0.00126645
0.00127813
0.000923796
0.000643569
0.000931574
0.00132297
0.00114159
0.000984871
0.000833116
0.000561739
0.000265297
0.000208607
0.00135432
0.0011861
0.000787992
0.00068556
0.000465857
0.000209623
0.000153596
0.000123885
0.000122375
7.67249e-05
0.000680069
0.000393857
0.000250901
0.000177985
0.000124574
9.73385e-05
0.000129193
7.869e-05
7.61867e-05
7.37351e-05
0.000122421
0.000106641
8.77768e-05
9.39019e-05
0.000127193
8.40538e-05
7.20931e-05
9.00201e-05
9.97297e-05
4.9658e-05
5.34067e-05
0.000111234
5.31141e-05
8.8664e-05
8.60008e-05
9.38695e-05
8.42894e-05
7.57149e-05
6.28841e-05
5.98915e-05
5.58403e-05
4.94692e-05
3.83106e-05
8.4956e-05
5.9161e-05
9.8403e-05
4.33147e-05
6.67312e-05
5.60231e-05
7.21456e-05
5.69162e-05
5.51469e-05
4.83845e-05
4.10547e-05
4.00029e-05
3.08115e-05
5.37552e-05
5.97023e-05
4.57523e-05
3.27001e-05
7.13084e-05
4.49809e-05
6.6338e-05
4.67e-05
4.04243e-05
4.10728e-05
4.21108e-05
3.69417e-05
3.34137e-05
2.76336e-05
7.92074e-05
4.84735e-05
4.09315e-05
7.83086e-05
5.72611e-05
4.8275e-05
6.03577e-05
4.96573e-05
3.61156e-05
3.5502e-05
3.32357e-05
3.22982e-05
2.876e-05
2.69676e-05
2.32757e-05
2.23438e-05
2.14133e-05
3.90102e-05
3.85984e-05
3.8602e-05
5.15505e-05
3.41195e-05
3.20974e-05
2.95156e-05
2.82689e-05
2.83558e-05
2.81833e-05
2.43779e-05
2.14214e-05
1.96996e-05
1.79305e-05
1.88355e-05
2.00513e-05
2.43169e-05
2.48387e-05
2.95958e-05
3.15646e-05
2.96152e-05
2.32012e-05
2.49841e-05
2.38966e-05
2.37783e-05
2.2912e-05
1.96513e-05
1.66448e-05
1.59974e-05
1.64145e-05
1.61854e-05
2.43374e-05
3.31517e-05
3.54085e-05
3.14782e-05
2.79899e-05
2.43676e-05
2.22982e-05
2.33772e-05
2.19469e-05
2.05486e-05
2.01232e-05
1.89513e-05
1.72257e-05
1.62886e-05
1.62811e-05
1.59983e-05
1.58631e-05
1.56718e-05
1.78011e-05
1.59653e-05
1.90839e-05
1.64528e-05
1.73647e-05
1.43123e-05
1.42511e-05
1.43074e-05
1.35488e-05
1.29917e-05
1.18508e-05
1.06031e-05
9.35248e-06
9.14785e-06
9.56611e-06
8.55419e-06
7.91083e-06
1.01456e-05
1.23074e-05
0.000809118
0.000590227
0.000496737
0.000268434
0.000326465
0.000391784
0.000450907
0.000385724
0.000305702
0.00049122
0.000294649
0.000370537
0.000443675
0.00035293
0.000409595
0.000429139
0.000422948
0.000335198
0.000330406
0.0002901
0.000316969
0.000410973
0.000468271
0.000289664
0.000356565
0.000471731
0.000410845
0.000467547
0.000570086
0.000530345
0.000732337
0.000611352
0.000628132
0.00037129
0.000438638
0.000623927
0.000609934
0.000549128
0.000451933
0.000390369
0.000435071
0.000768267
0.00110411
0.00108945
0.000441735
0.000306378
0.000525092
0.000911949
0.0011629
0.00120481
0.00127215
0.000932029
0.000577584
0.00134541
0.00080268
0.00126099
0.00126136
0.00122772
0.000791002
0.000607547
0.000265161
0.000164067
0.000146591
0.00136069
0.00123064
0.000925762
0.000660283
0.000626491
0.000187746
0.000159533
0.000105453
0.000100815
8.83003e-05
6.00059e-05
0.000605249
0.000446696
0.000266291
0.000157209
0.000133582
0.00010012
0.00011521
0.000113595
6.97713e-05
7.79749e-05
5.77271e-05
9.26356e-05
0.000113934
8.95842e-05
6.4482e-05
9.73592e-05
0.000117166
7.05712e-05
6.47209e-05
7.58881e-05
7.50699e-05
4.39129e-05
4.80668e-05
6.84471e-05
9.80116e-05
4.9224e-05
8.50941e-05
7.80121e-05
8.17314e-05
7.9678e-05
7.23668e-05
5.56944e-05
6.51026e-05
4.67062e-05
4.2635e-05
3.5792e-05
4.89294e-05
7.93757e-05
6.4482e-05
8.72374e-05
4.85246e-05
6.00583e-05
5.41449e-05
5.93895e-05
5.12818e-05
4.71267e-05
4.49451e-05
3.96085e-05
3.4969e-05
2.66424e-05
4.77694e-05
7.17252e-05
6.63051e-05
3.3976e-05
4.84147e-05
7.89031e-05
5.31585e-05
5.94407e-05
4.15353e-05
4.05467e-05
4.14151e-05
3.90693e-05
3.3694e-05
2.96282e-05
2.60673e-05
0.00010567
5.46314e-05
4.78038e-05
4.01638e-05
6.8962e-05
5.39252e-05
4.35317e-05
6.7663e-05
6.14545e-05
3.59014e-05
3.20019e-05
3.1181e-05
2.89872e-05
2.64029e-05
2.55361e-05
2.28759e-05
4.0728e-05
3.58413e-05
3.02683e-05
3.16167e-05
3.26609e-05
4.23122e-05
3.50626e-05
4.40722e-05
3.69909e-05
2.84319e-05
2.83819e-05
2.65001e-05
2.43709e-05
2.14074e-05
1.92668e-05
1.90925e-05
1.89544e-05
2.26526e-05
2.36016e-05
2.18897e-05
2.54076e-05
2.52912e-05
2.5734e-05
2.88418e-05
3.03342e-05
2.44348e-05
2.31936e-05
2.3428e-05
2.25928e-05
1.97427e-05
1.67383e-05
1.57817e-05
1.63999e-05
1.73198e-05
1.79698e-05
2.01285e-05
2.45184e-05
3.18869e-05
2.97609e-05
2.74634e-05
2.6523e-05
2.38214e-05
2.40654e-05
2.24298e-05
2.01914e-05
2.05154e-05
1.9039e-05
1.72931e-05
1.62376e-05
1.62887e-05
1.62696e-05
1.61423e-05
1.65854e-05
1.66196e-05
1.67417e-05
1.61687e-05
1.72134e-05
1.70269e-05
1.6514e-05
1.46336e-05
1.3846e-05
1.41547e-05
1.34267e-05
1.28841e-05
1.20204e-05
1.06914e-05
9.47078e-06
8.75637e-06
9.28561e-06
8.85778e-06
7.8162e-06
8.09801e-06
1.31039e-05
1.36555e-05
0.00129053
0.000848903
0.000875633
0.00052901
0.000481712
0.000608073
0.000353496
0.000289601
0.000318131
0.000380675
0.000389557
0.000447505
0.0004342
0.000449801
0.000355945
0.000461929
0.000380726
0.00044678
0.000441413
0.000420357
0.000348202
0.000419454
0.000374097
0.000357147
0.000273471
0.000352585
0.000462999
0.000573205
0.000389695
0.000447591
0.000369743
0.000390939
0.000413227
0.000306262
0.000314691
0.000322769
0.000437878
0.000623039
0.000525606
0.000659352
0.000494871
0.000405354
0.000332184
0.000793581
0.00106291
0.000551096
0.000511869
0.000469422
0.00059945
0.000534509
0.000832549
0.00119313
0.00125134
0.00122364
0.000513774
0.000435621
0.000333042
0.00119826
0.00121614
0.00122191
0.00120573
0.00103254
0.000607293
0.000255273
0.000881653
0.00137636
0.00122439
0.00136214
0.00125162
0.000792029
0.000584543
0.000248283
0.000209042
0.00013119
8.42257e-05
0.00116193
0.00139297
0.000926215
0.000638106
0.000529914
0.000239183
0.000154746
0.000113185
9.54188e-05
8.24944e-05
6.32011e-05
6.24509e-05
0.000604039
0.000427019
0.000303101
0.000170968
0.000121218
0.000110497
0.000106006
0.00010985
9.43472e-05
7.68564e-05
5.6479e-05
6.23433e-05
7.93174e-05
9.73075e-05
0.000121964
6.16445e-05
6.12416e-05
8.19817e-05
8.97562e-05
7.7042e-05
6.01822e-05
6.06986e-05
5.7967e-05
3.91788e-05
4.14509e-05
6.77444e-05
7.43599e-05
9.30407e-05
7.07495e-05
7.81621e-05
6.91366e-05
6.78425e-05
6.75488e-05
6.64203e-05
5.96117e-05
5.21324e-05
4.37911e-05
3.68758e-05
3.03685e-05
5.82357e-05
5.19259e-05
6.95411e-05
6.89504e-05
7.48907e-05
6.7386e-05
5.36579e-05
4.74814e-05
5.36775e-05
5.00337e-05
4.14999e-05
4.23063e-05
3.50228e-05
2.98356e-05
2.40376e-05
5.48344e-05
5.24314e-05
6.78735e-05
4.14411e-05
3.53342e-05
6.11286e-05
7.20903e-05
5.92188e-05
4.62176e-05
4.19645e-05
4.01878e-05
3.7772e-05
3.46769e-05
3.06125e-05
2.78951e-05
2.42857e-05
3.45231e-05
7.42047e-05
3.22275e-05
4.31761e-05
4.45225e-05
7.18237e-05
5.53532e-05
3.72649e-05
5.95607e-05
6.33136e-05
3.34108e-05
3.05314e-05
2.8143e-05
2.6619e-05
2.50605e-05
2.49247e-05
2.27362e-05
2.08312e-05
4.27664e-05
3.55005e-05
2.70045e-05
2.88426e-05
3.58896e-05
3.16297e-05
3.8447e-05
4.57525e-05
4.02146e-05
2.87529e-05
2.61619e-05
2.36755e-05
2.1363e-05
1.96514e-05
1.86879e-05
2.02122e-05
2.05665e-05
2.1358e-05
2.49544e-05
2.3954e-05
2.27182e-05
2.56978e-05
2.44745e-05
2.5157e-05
2.80987e-05
2.9184e-05
2.54771e-05
2.41966e-05
2.29901e-05
1.99917e-05
1.65633e-05
1.59747e-05
1.61334e-05
1.72621e-05
1.918e-05
1.97833e-05
1.68372e-05
2.11448e-05
2.61082e-05
2.77509e-05
2.62766e-05
2.64794e-05
2.54083e-05
2.48979e-05
2.27883e-05
2.05003e-05
2.04842e-05
1.94462e-05
1.72505e-05
1.61681e-05
1.60196e-05
1.61764e-05
1.64306e-05
1.67129e-05
1.73838e-05
1.81085e-05
1.6196e-05
1.55796e-05
1.67791e-05
1.73774e-05
1.61702e-05
1.47689e-05
1.35246e-05
1.37872e-05
1.32387e-05
1.28114e-05
1.24483e-05
1.05876e-05
9.51356e-06
8.45724e-06
8.94038e-06
9.2288e-06
8.0862e-06
7.7339e-06
9.96671e-06
1.46146e-05
1.31632e-05
0.00115075
0.00126707
0.00108279
0.000723574
0.000839134
0.000946732
0.000552975
0.000518515
0.000464706
0.000608989
0.000381789
0.000389999
0.000359645
0.000478538
0.000350695
0.000380953
0.000320221
0.000421405
0.000321657
0.000443291
0.0003407
0.000447062
0.000539573
0.000382414
0.000455468
0.000366478
0.000382653
0.000365629
0.000344184
0.000339273
0.000429291
0.000307969
0.000342319
0.000369854
0.000491804
0.000396378
0.000353507
0.000417248
0.000368143
0.000356866
0.000466198
0.000561822
0.000406001
0.000399798
0.000375979
0.000516431
0.000598774
0.000513346
0.000497164
0.000561947
0.000349022
0.000479258
0.000771004
0.001032
0.00141961
0.000564055
0.00097485
0.000677761
0.000363245
0.000291519
0.000866435
0.00130294
0.00151212
0.00116553
0.00106671
0.0002461
0.00022518
0.000498004
0.000700424
0.00136313
0.00141117
0.00124924
0.00107972
0.000608382
0.000275224
0.000156074
0.000735381
0.00146892
0.0012169
0.00128591
0.00113804
0.000990947
0.000629779
0.000307852
0.000191763
0.00014876
8.67337e-05
7.05237e-05
0.00121495
0.00126992
0.001051
0.000731961
0.000437251
0.000241658
0.000134337
9.99354e-05
8.86598e-05
7.23028e-05
6.11469e-05
5.61446e-05
5.57038e-05
0.000576714
0.000351686
0.000265468
0.000189526
0.000114861
9.43156e-05
0.000102255
9.21063e-05
9.48689e-05
7.70851e-05
6.5689e-05
6.86362e-05
5.22812e-05
6.15687e-05
7.98274e-05
0.000134054
9.13924e-05
6.07247e-05
5.93691e-05
9.50905e-05
7.29761e-05
7.96776e-05
5.15975e-05
5.07987e-05
4.59757e-05
4.03379e-05
3.10509e-05
4.96652e-05
6.33508e-05
7.78919e-05
7.80046e-05
8.26354e-05
5.89539e-05
7.25279e-05
5.64549e-05
6.04136e-05
6.1128e-05
4.75736e-05
3.66862e-05
3.95499e-05
2.97994e-05
2.66522e-05
7.48832e-05
7.29191e-05
5.55454e-05
5.79198e-05
6.88603e-05
6.16912e-05
7.00872e-05
5.14174e-05
4.51441e-05
5.11817e-05
4.42892e-05
3.99044e-05
3.51887e-05
3.09913e-05
2.57805e-05
2.38959e-05
6.26771e-05
3.95112e-05
4.57787e-05
3.8288e-05
3.60643e-05
4.71077e-05
6.44534e-05
7.24963e-05
5.44948e-05
4.44971e-05
4.21936e-05
3.61315e-05
3.33554e-05
3.16612e-05
2.79824e-05
2.60964e-05
2.40961e-05
3.73477e-05
4.32154e-05
5.72278e-05
4.09503e-05
3.57741e-05
5.74905e-05
7.88026e-05
6.14606e-05
4.55641e-05
4.4709e-05
5.34666e-05
3.16823e-05
2.80908e-05
2.59826e-05
2.54275e-05
2.46118e-05
2.42079e-05
2.48517e-05
1.97879e-05
2.3577e-05
3.95291e-05
2.81176e-05
3.09773e-05
3.12666e-05
3.28445e-05
2.99677e-05
4.20559e-05
4.34172e-05
4.21408e-05
2.6146e-05
2.43444e-05
2.16897e-05
1.98714e-05
1.88176e-05
1.99569e-05
2.20152e-05
2.32987e-05
1.91275e-05
1.89528e-05
2.46839e-05
2.2284e-05
2.36109e-05
2.55843e-05
2.30323e-05
2.63829e-05
2.58755e-05
2.62708e-05
2.60541e-05
2.52556e-05
2.03326e-05
1.67518e-05
1.56516e-05
1.63734e-05
1.70248e-05
1.91421e-05
2.10617e-05
2.23601e-05
1.72079e-05
1.88782e-05
2.33595e-05
2.48064e-05
2.55462e-05
2.62617e-05
2.56138e-05
2.59237e-05
2.32571e-05
2.04392e-05
2.0766e-05
2.00298e-05
1.75064e-05
1.60032e-05
1.57804e-05
1.58206e-05
1.62356e-05
1.70144e-05
1.75282e-05
1.91348e-05
2.05971e-05
1.50442e-05
1.51602e-05
1.68674e-05
1.64946e-05
1.61644e-05
1.45401e-05
1.34016e-05
1.34622e-05
1.30084e-05
1.25999e-05
1.2305e-05
1.09677e-05
9.9282e-06
8.37632e-06
8.46674e-06
9.40619e-06
8.81183e-06
7.94953e-06
8.02024e-06
1.09648e-05
1.26248e-05
1.28949e-05
0.00256113
0.00108084
0.00108903
0.00123958
0.00109234
0.00125317
0.000752924
0.000797541
0.000926914
0.000762383
0.000633958
0.00052918
0.00049855
0.000567599
0.000474737
0.000327243
0.000359921
0.000362509
0.000429776
0.000317516
0.000431444
0.000374466
0.000356771
0.000416976
0.000495363
0.000372559
0.000281251
0.000341938
0.000493008
0.000468671
0.000431743
0.000350691
0.000535002
0.000349395
0.000400779
0.000492453
0.000255711
0.000336275
0.000305848
0.000266575
0.000271493
0.000425913
0.000494741
0.000356969
0.00046976
0.000301461
0.000548931
0.000306796
0.000610145
0.000486176
0.000389898
0.000491663
0.000260071
0.000349441
0.000858522
0.000550968
0.000394164
0.000808553
0.000335929
0.000552602
0.000332668
0.000320545
0.000796144
0.0011328
0.00113619
0.0012492
0.00059809
0.000388907
0.000641522
0.000401939
0.000555495
0.000555431
0.00115459
0.00136029
0.00126519
0.000995074
0.000596412
0.000338182
0.00031309
0.000609858
0.000661651
0.0010976
0.00139942
0.00137875
0.00106057
0.00077836
0.000374073
0.000150008
0.000148382
0.000862345
0.000944767
0.00145175
0.00129826
0.00113988
0.00107623
0.000609745
0.000326051
0.000237691
0.000114438
9.11174e-05
8.93826e-05
6.96649e-05
0.00110295
0.00112219
0.000982098
0.000777171
0.000450786
0.000273444
9.1951e-05
0.00012235
9.34003e-05
7.70066e-05
6.18567e-05
6.15733e-05
5.66834e-05
3.9277e-05
0.000622167
0.000345479
0.00016001
0.000215527
0.000137485
9.298e-05
8.88349e-05
8.45334e-05
0.000108744
7.55849e-05
5.26854e-05
5.95782e-05
6.59381e-05
3.96847e-05
8.60407e-05
7.2058e-05
8.93249e-05
0.000137383
8.42215e-05
6.66535e-05
7.90493e-05
9.68408e-05
6.78761e-05
5.78144e-05
5.19541e-05
4.81977e-05
4.00437e-05
3.48382e-05
2.56502e-05
4.55957e-05
3.94096e-05
6.54336e-05
7.12547e-05
8.41733e-05
7.30305e-05
5.62404e-05
6.8995e-05
5.19505e-05
6.17586e-05
4.94319e-05
4.24545e-05
3.24063e-05
3.36109e-05
2.7345e-05
2.54426e-05
4.20885e-05
6.41453e-05
7.12033e-05
5.61729e-05
5.30595e-05
6.36475e-05
5.48259e-05
6.1186e-05
5.07246e-05
4.20609e-05
4.26168e-05
4.40586e-05
3.5729e-05
2.84997e-05
2.68732e-05
2.48285e-05
2.44673e-05
5.2221e-05
7.19582e-05
2.93272e-05
4.23509e-05
3.93482e-05
4.46607e-05
5.21548e-05
6.54431e-05
6.29736e-05
4.98241e-05
4.20419e-05
3.87838e-05
3.3142e-05
3.07028e-05
2.88136e-05
2.55315e-05
2.63077e-05
2.40646e-05
3.06278e-05
4.28229e-05
3.79547e-05
4.80286e-05
4.63393e-05
3.93557e-05
6.63619e-05
7.77574e-05
6.604e-05
5.83032e-05
3.47846e-05
4.43829e-05
2.97057e-05
2.59167e-05
2.51489e-05
2.48861e-05
2.41855e-05
2.61391e-05
2.72139e-05
2.44757e-05
2.27982e-05
3.05339e-05
3.15425e-05
3.55465e-05
3.24687e-05
3.51958e-05
3.74413e-05
2.95856e-05
3.64566e-05
4.19125e-05
3.71532e-05
2.33166e-05
2.25244e-05
2.00794e-05
1.9314e-05
1.99895e-05
2.173e-05
2.51056e-05
2.68396e-05
1.62584e-05
1.64042e-05
1.89463e-05
2.27841e-05
2.35229e-05
2.4191e-05
2.36944e-05
2.3873e-05
2.44633e-05
2.44686e-05
2.5276e-05
2.56526e-05
2.21103e-05
1.70004e-05
1.58645e-05
1.61866e-05
1.71522e-05
1.90066e-05
2.10568e-05
2.37179e-05
2.55757e-05
1.68986e-05
1.89228e-05
2.2019e-05
2.22176e-05
2.42661e-05
2.64504e-05
2.54507e-05
2.59995e-05
2.37924e-05
2.06969e-05
2.04826e-05
2.02828e-05
1.83358e-05
1.61029e-05
1.55689e-05
1.553e-05
1.57966e-05
1.66419e-05
1.76325e-05
1.91189e-05
2.17546e-05
2.34177e-05
1.41194e-05
1.46688e-05
1.57449e-05
1.65181e-05
1.5838e-05
1.46779e-05
1.32188e-05
1.31785e-05
1.2854e-05
1.24074e-05
1.21816e-05
1.09524e-05
9.89439e-06
8.54502e-06
8.06329e-06
8.9005e-06
9.47602e-06
8.98722e-06
7.82407e-06
8.90345e-06
1.07495e-05
1.24655e-05
1.38293e-05
0.00256835
0.00261912
0.00111586