/*--------------------------------*- C++ -*----------------------------------*\
  =========                 |
  \\      /  F ield         | OpenFOAM: The Open Source CFD Toolbox
   \\    /   O peration     | Website:  https://openfoam.org
    \\  /    A nd           | Version:  7
     \\/     M anipulation  |
\*---------------------------------------------------------------------------*/
FoamFile
{
    version     2.0;
    format      ascii;
    class       volScalarField;
    location    "1";
    object      p;
}
// * * * * * * * * * * * * * * * * * * * * * * * * * * * * * * * * * * * * * //

dimensions      [0 2 -2 0 0 0 0];

internalField   nonuniform List<scalar> 
18780
(
-77.4149
-77.4239
-77.4146
-77.3187
-77.4341
-77.4225
-77.3263
-77.4142
-77.3185
-77.204
-77.4501
-77.4324
-77.3339
-77.4211
-77.3251
-77.2107
-77.4139
-77.3182
-77.2037
-77.0777
-77.4698
-77.448
-77.3496
-77.4305
-77.3328
-77.2172
-77.4197
-77.324
-77.2097
-77.0832
-77.4135
-77.3179
-77.2035
-77.0775
-76.9462
-77.5038
-77.4699
-77.3662
-77.4455
-77.348
-77.2306
-77.4289
-77.3316
-77.2162
-77.0882
-77.4182
-77.3228
-77.2087
-77.0823
-76.9503
-77.4131
-77.3176
-77.2032
-77.0773
-76.9459
-76.8063
-77.5533
-77.4999
-77.3936
-77.467
-77.3646
-77.2451
-77.4424
-77.3463
-77.2292
-77.0996
-77.4274
-77.3305
-77.2152
-77.0873
-76.9531
-77.4168
-77.3216
-77.2077
-77.0814
-76.9496
-76.8089
-77.4127
-77.3172
-77.2029
-77.0771
-76.9457
-76.8061
-76.6657
-77.6114
-77.5477
-77.4313
-77.4968
-77.3908
-77.2654
-77.465
-77.3624
-77.2436
-77.1112
-77.4395
-77.3445
-77.2275
-77.0985
-76.9619
-77.4259
-77.3293
-77.2143
-77.0864
-76.9523
-76.811
-77.4154
-77.3204
-77.2066
-77.0805
-76.9488
-76.8083
-76.6671
-77.4122
-77.3167
-77.2026
-77.0768
-76.9455
-76.8059
-76.6656
-76.525
-77.7024
-77.6011
-77.4794
-77.5418
-77.4274
-77.2956
-77.4906
-77.3881
-77.2632
-77.1288
-77.4606
-77.3609
-77.2418
-77.1098
-76.9698
-77.4369
-77.3426
-77.2259
-77.0969
-76.9608
-76.8157
-77.4244
-77.3282
-77.2133
-77.0856
-76.9517
-76.8101
-76.6676
-77.414
-77.3191
-77.2056
-77.0796
-76.948
-76.8076
-76.6666
-76.5255
-77.4118
-77.3163
-77.2022
-77.0766
-76.9452
-76.8057
-76.6654
-76.5248
-76.3836
-77.846
-77.7706
-77.688
-77.5418
-77.5899
-77.4717
-77.3304
-77.5332
-77.4223
-77.2917
-77.151
-77.4871
-77.3835
-77.2604
-77.1266
-76.9819
-77.4579
-77.3581
-77.2402
-77.1082
-76.9686
-76.8214
-77.4351
-77.3407
-77.2243
-77.0954
-76.9595
-76.8148
-76.6713
-77.4231
-77.3269
-77.2124
-77.0845
-76.9509
-76.8096
-76.6669
-76.5249
-77.4125
-77.3179
-77.2045
-77.0787
-76.9472
-76.807
-76.6661
-76.525
-76.3829
-77.4115
-77.3157
-77.2018
-77.0763
-76.945
-76.8054
-76.6652
-76.5247
-76.3834
-76.2462
-77.6632
-77.9025
-77.7575
-77.7595
-77.5997
-77.6783
-77.5378
-77.3819
-77.5698
-77.4631
-77.3271
-77.1805
-77.5252
-77.4143
-77.2877
-77.1475
-76.9988
-77.4819
-77.3791
-77.2573
-77.1244
-76.9801
-76.8281
-77.4558
-77.3555
-77.2378
-77.1066
-76.9673
-76.8205
-76.6725
-77.4338
-77.3386
-77.2228
-77.0939
-76.9583
-76.8135
-76.6705
-76.5257
-77.4217
-77.3266
-77.2113
-77.0837
-76.9501
-76.8089
-76.6665
-76.5243
-76.3817
-77.4111
-77.3167
-77.2034
-77.0778
-76.9465
-76.8063
-76.6655
-76.5245
-76.3824
-76.2445
-77.4111
-77.3152
-77.2013
-77.0761
-76.9448
-76.8052
-76.665
-76.5245
-76.3833
-76.2461
-76.111
-76.8678
-77.6835
-77.5926
-77.9683
-77.6839
-77.4822
-77.7709
-77.6095
-77.4367
-77.6409
-77.5242
-77.3808
-77.2084
-77.5477
-77.4499
-77.3217
-77.1754
-77.0203
-77.516
-77.4086
-77.2809
-77.1431
-76.9953
-76.8404
-77.4792
-77.3736
-77.254
-77.1219
-76.9783
-76.8266
-76.6782
-77.4546
-77.3531
-77.2355
-77.1048
-76.9659
-76.8191
-76.6716
-76.5246
-77.4327
-77.3368
-77.2213
-77.0926
-76.957
-76.8126
-76.6694
-76.5251
-76.3802
-77.4204
-77.3254
-77.2102
-77.0828
-76.9494
-76.8083
-76.6661
-76.5237
-76.3812
-76.2419
-77.4096
-77.3154
-77.2023
-77.0769
-76.9457
-76.8057
-76.665
-76.524
-76.382
-76.2441
-76.1085
-77.4107
-77.3146
-77.2009
-77.0758
-76.9445
-76.8049
-76.6649
-76.5244
-76.3832
-76.246
-76.1109
-75.9781
-75.8917
-76.2537
-76.7759
-77.1193
-77.6658
-77.5493
-77.4771
-77.9264
-77.6871
-77.5051
-77.275
-77.7175
-77.6047
-77.4506
-77.2566
-77.6068
-77.5047
-77.3681
-77.2063
-77.0383
-77.5298
-77.4322
-77.3106
-77.1714
-77.0149
-76.8542
-77.5094
-77.3988
-77.2754
-77.1376
-76.9917
-76.8367
-76.6826
-77.4756
-77.3699
-77.25
-77.1189
-76.9762
-76.8251
-76.6772
-76.5251
-77.4538
-77.3513
-77.2337
-77.1029
-76.9644
-76.8181
-76.6705
-76.5238
-76.3781
-77.4317
-77.3352
-77.2198
-77.0913
-76.9559
-76.8115
-76.6685
-76.5243
-76.3796
-76.2401
-77.4192
-77.3241
-77.2091
-77.0819
-76.9486
-76.8077
-76.6652
-76.5232
-76.3806
-76.2414
-76.1054
-77.4082
-77.3141
-77.2012
-77.076
-76.945
-76.805
-76.6644
-76.5236
-76.3816
-76.2437
-76.1082
-75.9749
-77.4104
-77.314
-77.2006
-77.0754
-76.9442
-76.8047
-76.6647
-76.5242
-76.383
-76.2458
-76.1108
-75.978
-75.8479
-75.7246
-75.8621
-76.1145
-76.2552
-76.3883
-76.8178
-76.9604
-77.1046
-77.573
-77.5462
-77.5278
-77.388
-77.8074
-77.7448
-77.5368
-77.2834
-77.1127
-77.6061
-77.572
-77.4452
-77.2547
-77.0973
-77.5615
-77.4743
-77.3526
-77.1929
-77.0301
-76.869
-77.5183
-77.4182
-77.2972
-77.1609
-77.008
-76.8512
-76.6912
-77.5068
-77.3926
-77.2688
-77.133
-76.9869
-76.8345
-76.6804
-76.5293
-77.475
-77.3666
-77.2469
-77.1165
-76.9742
-76.8233
-76.6754
-76.5242
-76.3767
-77.4543
-77.3502
-77.2321
-77.1013
-76.9629
-76.817
-76.6693
-76.5229
-76.3774
-76.2355
-77.4299
-77.3335
-77.2185
-77.0901
-76.9549
-76.8106
-76.6676
-76.5235
-76.379
-76.2394
-76.1019
-77.4178
-77.3228
-77.208
-77.081
-76.9479
-76.8071
-76.6647
-76.5226
-76.3802
-76.2408
-76.1049
-75.9716
-77.4068
-77.3129
-77.2
-77.075
-76.9442
-76.8044
-76.6639
-76.5231
-76.3812
-76.2434
-76.1078
-75.9745
-75.8444
-77.41
-77.3135
-77.2001
-77.0751
-76.944
-76.8045
-76.6645
-76.524
-76.3829
-76.2457
-76.1107
-75.9779
-75.8478
-75.7206
-75.5205
-75.6545
-75.7725
-75.8707
-75.8661
-76.107
-76.236
-76.3674
-76.4055
-76.7744
-76.9224
-77.0557
-77.0175
-77.5248
-77.5474
-77.488
-77.3615
-77.3204
-77.6811
-77.6898
-77.5353
-77.2895
-77.116
-76.9173
-77.5015
-77.5186
-77.4111
-77.2383
-77.0808
-76.9009
-77.5464
-77.4492
-77.329
-77.1831
-77.0169
-76.8613
-76.702
-77.5095
-77.4072
-77.2864
-77.155
-77.0008
-76.8457
-76.6871
-76.5282
-77.5065
-77.3894
-77.2644
-77.128
-76.9829
-76.8302
-76.6774
-76.527
-76.3764
-77.4738
-77.366
-77.2441
-77.1139
-76.972
-76.8217
-76.6739
-76.5226
-76.3756
-76.2334
-77.451
-77.3502
-77.231
-77.1001
-76.9617
-76.8161
-76.6682
-76.522
-76.3767
-76.2347
-76.0971
-77.4276
-77.3312
-77.2171
-77.0893
-76.954
-76.8098
-76.6667
-76.5228
-76.3785
-76.2388
-76.1013
-75.9673
-77.4163
-77.3213
-77.2068
-77.0801
-76.9471
-76.8065
-76.6642
-76.5223
-76.3796
-76.2404
-76.1045
-75.9712
-75.8406
-77.4054
-77.3118
-77.199
-77.0741
-76.9435
-76.8037
-76.6634
-76.5227
-76.3808
-76.243
-76.1075
-75.9742
-75.844
-75.7166
-77.4095
-77.3131
-77.1997
-77.0747
-76.9438
-76.8043
-76.6643
-76.5239
-76.3828
-76.2456
-76.1106
-75.9778
-75.8477
-75.7205
-75.5949
-75.2272
-75.4914
-75.4815
-75.6279
-75.7008
-75.8117
-75.8848
-75.9314
-75.9425
-76.1172
-76.1898
-76.3825
-76.3604
-76.5368
-76.7431
-77.0037
-77.0492
-77.0232
-77.0562
-77.4477
-77.5862
-77.3956
-77.3493
-77.2893
-76.992
-77.6803
-77.5887
-77.4815
-77.2848
-77.0876
-76.9203
-76.7585
-77.5033
-77.4643
-77.353
-77.2109
-77.0551
-76.8863
-76.7046
-77.5427
-77.4326
-77.3093
-77.1657
-77.0085
-76.8507
-76.6972
-76.5338
-77.5048
-77.3983
-77.2784
-77.1436
-76.9942
-76.8391
-76.6842
-76.5247
-76.3765
-77.5088
-77.3886
-77.2618
-77.1246
-76.9786
-76.8274
-76.6747
-76.5245
-76.3744
-76.2294
-77.4749
-77.3654
-77.2428
-77.1124
-76.9698
-76.8196
-76.6725
-76.5214
-76.3743
-76.2324
-76.0926
-77.449
-77.3483
-77.2304
-77.0987
-76.9608
-76.8151
-76.6676
-76.521
-76.376
-76.234
-76.0963
-75.9624
-77.4247
-77.3295
-77.2156
-77.088
-76.9532
-76.809
-76.666
-76.5222
-76.3779
-76.2382
-76.1007
-75.9667
-75.8365
-77.4146
-77.32
-77.2056
-77.0791
-76.9465
-76.806
-76.6637
-76.5215
-76.3793
-76.24
-76.1041
-75.9708
-75.8401
-75.7127
-77.4041
-77.3107
-77.1979
-77.0732
-76.9427
-76.8031
-76.6628
-76.5222
-76.3804
-76.2426
-76.1071
-75.9738
-75.8437
-75.7162
-75.5904
-77.4091
-77.3128
-77.1993
-77.0744
-76.9436
-76.8041
-76.6641
-76.5237
-76.3827
-76.2456
-76.1105
-75.9777
-75.8476
-75.7204
-75.5948
-75.4689
-75.1386
-75.3185
-75.3637
-75.4756
-75.5156
-75.5556
-75.562
-75.7343
-75.756
-75.8739
-75.8761
-75.9642
-75.9756
-76.0852
-76.1818
-76.1937
-76.3944
-76.4475
-76.5053
-76.6378
-76.7317
-76.9733
-77.0901
-77.0178
-77.045
-76.9315
-77.4624
-77.4471
-77.5087
-77.2975
-77.2113
-77.0314
-76.7902
-77.6783
-77.5653
-77.426
-77.248
-77.0524
-76.8886
-76.729
-76.56
-77.4678
-77.4128
-77.3142
-77.1994
-77.0274
-76.8734
-76.6938
-76.5354
-77.5392
-77.417
-77.2955
-77.1524
-76.9977
-76.8428
-76.6858
-76.5284
-76.3715
-77.5143
-77.3908
-77.2712
-77.1415
-76.9861
-76.8341
-76.6788
-76.5209
-76.3754
-76.2264
-77.5098
-77.3899
-77.2615
-77.1223
-76.9758
-76.8244
-76.6726
-76.5224
-76.3728
-76.2276
-76.0885
-77.4737
-77.3659
-77.2428
-77.1111
-76.9689
-76.8185
-76.6708
-76.5201
-76.3732
-76.2315
-76.0917
-75.9577
-77.4479
-77.347
-77.2288
-77.0977
-76.959
-76.8148
-76.6668
-76.5203
-76.3754
-76.2333
-76.0957
-75.9616
-75.8314
-77.4223
-77.3285
-77.2136
-77.0868
-76.9522
-76.8083
-76.6653
-76.5215
-76.3774
-76.2376
-76.1001
-75.9662
-75.836
-75.7084
-77.413
-77.3186
-77.2045
-77.0781
-76.9458
-76.8055
-76.6633
-76.5211
-76.3786
-76.2396
-76.1038
-75.9704
-75.8397
-75.7122
-75.5869
-77.4028
-77.3096
-77.1969
-77.0724
-76.942
-76.8025
-76.6623
-76.5218
-76.3801
-76.2423
-76.1068
-75.9735
-75.8434
-75.7159
-75.59
-75.4644
-77.4088
-77.3124
-77.1989
-77.074
-76.9434
-76.8039
-76.664
-76.5236
-76.3826
-76.2455
-76.1105
-75.9776
-75.8475
-75.7203
-75.5947
-75.4688
-75.3426
-75.1369
-75.2554
-75.2426
-75.2865
-75.3555
-75.3819
-75.3998
-75.5163
-75.5498
-75.6321
-75.5748
-75.7242
-75.8171
-75.8278
-75.853
-75.831
-75.9432
-75.9749
-76.0721
-76.1751
-76.1544
-76.1916
-76.3513
-76.4983
-76.4479
-76.6323
-76.7013
-76.742
-76.9063
-77.1456
-76.9575
-77.0244
-76.9155
-76.7745
-77.4133
-77.5099
-77.3399
-77.2694
-77.1401
-77.0008
-76.6833
-76.5684
-77.4894
-77.5531
-77.3584
-77.1947
-77.0115
-76.8773
-76.7103
-76.5382
-76.3872
-77.4624
-77.3637
-77.2989
-77.1684
-77.0045
-76.8576
-76.6853
-76.5254
-76.3742
-77.5552
-77.4174
-77.2822
-77.1413
-76.9847
-76.8339
-76.6804
-76.5219
-76.3665
-76.2203
-77.5237
-77.3951
-77.2678
-77.1338
-76.9829
-76.8277
-76.676
-76.5172
-76.3714
-76.2239
-76.0827
-77.5116
-77.3897
-77.2623
-77.1222
-76.9739
-76.8224
-76.6705
-76.5203
-76.3711
-76.2261
-76.0872
-75.9529
-77.4746
-77.3654
-77.2435
-77.1101
-76.9685
-76.8177
-76.6702
-76.5191
-76.3719
-76.2304
-76.0908
-75.9567
-75.8269
-77.4454
-77.3461
-77.2279
-77.0965
-76.958
-76.8133
-76.6663
-76.5195
-76.3748
-76.2326
-76.0951
-75.9612
-75.8305
-75.7039
-77.4204
-77.3279
-77.2128
-77.0856
-76.9512
-76.8074
-76.6646
-76.521
-76.3769
-76.2371
-76.0996
-75.9657
-75.8353
-75.708
-75.5829
-77.4114
-77.3172
-77.2034
-77.0772
-76.945
-76.805
-76.6629
-76.5207
-76.3785
-76.2392
-76.1034
-75.9701
-75.8392
-75.7117
-75.5863
-75.461
-77.4015
-77.3085
-77.196
-77.0715
-76.9413
-76.8019
-76.6618
-76.5214
-76.3798
-76.2421
-76.1066
-75.9733
-75.8431
-75.7156
-75.5896
-75.464
-75.3377
-77.4085
-77.3121
-77.1986
-77.0737
-76.9432
-76.8037
-76.6638
-76.5235
-76.3825
-76.2454
-76.1104
-75.9776
-75.8474
-75.7202
-75.5946
-75.4687
-75.3425
-75.2137
-75.0824
-75.1315
-75.1396
-75.164
-75.2521
-75.294
-75.3469
-75.3171
-75.3766
-75.4079
-75.3899
-75.5187
-75.6116
-75.6282
-75.6717
-75.6158
-75.7018
-75.7813
-75.8472
-75.8486
-75.9206
-75.8107
-75.916
-76.0636
-76.0386
-76.1805
-76.2406
-76.3285
-76.1419
-76.4077
-76.3837
-76.471
-76.6418
-76.7299
-76.5543
-76.6457
-76.8684
-76.9987
-77.0052
-76.9261
-76.9043
-76.7261
-76.6493
-77.3386
-77.4747
-77.3625
-77.1957
-77.0413
-76.9996
-76.6421
-76.5067
-76.3721
-77.392
-77.4202
-77.3332
-77.1753
-76.971
-76.8391
-76.6889
-76.5219
-76.3671
-76.2136
-77.5466
-77.3465
-77.2656
-77.1538
-76.9817
-76.8422
-76.6772
-76.5185
-76.3658
-76.2116
-77.5718
-77.4105
-77.2851
-77.1336
-76.9801
-76.8262
-76.6739
-76.5169
-76.3619
-76.2173
-76.0761
-77.5352
-77.4008
-77.2687
-77.1329
-76.9794
-76.8256
-76.6718
-76.5155
-76.3682
-76.2214
-76.0801
-75.947
-77.5158
-77.3923
-77.2612
-77.1225
-76.974
-76.821
-76.6664
-76.5187
-76.3696
-76.2245
-76.0861
-75.9515
-75.8215
-77.4739
-77.3657
-77.2435
-77.1099
-76.9676
-76.8176
-76.6691
-76.5184
-76.3713
-76.2296
-76.0899
-75.9558
-75.826
-75.6998
-77.446
-77.345
-77.2271
-77.0957
-76.9568
-76.813
-76.6657
-76.5191
-76.3743
-76.232
-76.0946
-75.9605
-75.8299
-75.7031
-75.579
-77.4191
-77.3266
-77.2121
-77.0847
-76.9504
-76.8065
-76.6639
-76.5202
-76.3763
-76.2365
-76.099
-75.9652
-75.8349
-75.7073
-75.5821
-75.4577
-77.4098
-77.3159
-77.2024
-77.0764
-76.9443
-76.8045
-76.6624
-76.5204
-76.3781
-76.239
-76.1032
-75.9699
-75.8389
-75.7113
-75.5858
-75.4604
-75.3347
-77.4003
-77.3075
-77.195
-77.0707
-76.9407
-76.8014
-76.6614
-76.521
-76.3794
-76.2418
-76.1063
-75.973
-75.8428
-75.7153
-75.5893
-75.4636
-75.3372
-75.2087
-77.408
-77.3118
-77.1983
-77.0735
-76.9429
-76.8035
-76.6636
-76.5233
-76.3824
-76.2453
-76.1103
-75.9775
-75.8474
-75.7202
-75.5945
-75.4686
-75.3424
-75.2136
-75.0815
-74.9961
-75.0212
-75.0861
-75.1112
-75.1506
-75.1758
-75.2011
-75.2604
-75.2838
-75.2747
-75.3237
-75.3893
-75.3779
-75.4518
-75.4337
-75.4095
-75.5083
-75.5922
-75.6506
-75.6593
-75.6846
-75.6184
-75.7573
-75.8349
-75.8129
-75.8727
-75.8801
-75.943
-75.7828
-75.9822
-75.9666
-76.1468
-76.196
-76.1982
-76.2548
-76.3214
-76.2038
-76.2787
-76.4029
-76.492
-76.6302
-76.8088
-76.576
-76.4331
-76.6465
-76.8688
-77.0168
-76.9921
-76.9002
-76.8835
-76.7639
-76.5419
-76.383
-77.1412
-77.2457
-77.4009
-77.068
-76.9695
-76.9651
-76.6388
-76.4958
-76.342
-76.1979
-77.5685
-77.4284
-77.2836
-77.1495
-76.9412
-76.8122
-76.6743
-76.5088
-76.3566
-76.2069
-76.0681
-77.5949
-77.3681
-77.2716
-77.1398
-76.9755
-76.8233
-76.6705
-76.51
-76.3586
-76.2066
-76.0662
-77.5985
-77.4286
-77.2802
-77.1357
-76.9754
-76.8229
-76.6701
-76.5134
-76.3585
-76.214
-76.0737
-75.9397
-77.547
-77.4114
-77.2721
-77.1336
-76.9796
-76.8246
-76.6703
-76.5125
-76.3663
-76.2199
-76.0787
-75.945
-75.8151
-77.5183
-77.3957
-77.2624
-77.1216
-76.974
-76.8212
-76.6688
-76.5167
-76.3686
-76.2236
-76.0851
-75.9505
-75.8203
-75.6947
-77.4766
-77.3658
-77.2429
-77.1103
-76.9676
-76.8166
-76.6684
-76.5176
-76.3707
-76.2289
-76.0893
-75.9548
-75.8252
-75.6988
-75.5755
-77.4446
-77.3446
-77.2262
-77.0949
-76.9566
-76.8116
-76.6653
-76.5186
-76.3739
-76.2317
-76.0943
-75.9603
-75.8291
-75.7023
-75.578
-75.4547
-77.4186
-77.326
-77.2109
-77.0837
-76.9496
-76.8058
-76.6631
-76.5194
-76.3758
-76.236
-76.0985
-75.9648
-75.8339
-75.7068
-75.5815
-75.4569
-75.3319
-77.4082
-77.3146
-77.2013
-77.0755
-76.9436
-76.804
-76.6623
-76.5201
-76.3778
-76.2387
-76.103
-75.9697
-75.8386
-75.711
-75.5854
-75.4598
-75.3341
-75.2062
-77.399
-77.3065
-77.194
-77.0699
-76.94
-76.8008
-76.6609
-76.5207
-76.3791
-76.2415
-76.1061
-75.9728
-75.8426
-75.715
-75.589
-75.4632
-75.3368
-75.2082
-75.0763
-77.4075
-77.3115
-77.198
-77.0732
-76.9427
-76.8033
-76.6634
-76.5232
-76.3823
-76.2452
-76.1103
-75.9775
-75.8473
-75.7201
-75.5945
-75.4686
-75.3423
-75.2135
-75.0814
-74.9448
-74.8336
-74.9544
-75.0098
-75.0747
-75.1105
-75.1211
-75.1292
-75.1694
-75.2654
-75.178
-75.1972
-75.2725
-75.2677
-75.2703
-75.2782
-75.2405
-75.3828
-75.3944
-75.4329
-75.4509
-75.4515
-75.4176
-75.5244
-75.5464
-75.6596
-75.6476
-75.6686
-75.593
-75.5716
-75.734
-75.7342
-75.889
-75.9299
-75.8792
-75.9418
-75.894
-75.9247
-75.9418
-75.9898
-76.1241
-76.2402
-76.1884
-76.2769
-76.2318
-76.2733
-76.2362
-76.3224
-76.4201
-76.3863
-76.6265
-76.6538
-76.5813
-76.3425
-76.3416
-76.6115
-76.8966
-77.0384
-76.9086
-76.8394
-76.8234
-76.694
-76.4926
-76.3134
-76.1839
-77.2362
-77.1675
-77.2469
-77.1052
-76.8922
-76.8259
-76.6791
-76.5164
-76.3247
-76.1852
-76.0494
-77.6998
-77.2714
-77.3314
-77.1206
-76.9997
-76.7939
-76.6552
-76.4982
-76.3386
-76.1991
-76.0606
-75.9269
-77.63
-77.4201
-77.2711
-77.1455
-76.9753
-76.8187
-76.6628
-76.505
-76.3516
-76.2038
-76.0631
-75.93
-77.6237
-77.4598
-77.2907
-77.1376
-76.9774
-76.8212
-76.6688
-76.5097
-76.3552
-76.2105
-76.072
-75.9379
-75.8082
-77.5546
-77.4209
-77.2786
-77.1364
-76.9806
-76.8247
-76.6679
-76.5119
-76.3643
-76.2181
-76.0771
-75.9441
-75.8139
-75.6893
-77.5195
-77.398
-77.2642
-77.1221
-76.9738
-76.8217
-76.667
-76.5174
-76.3672
-76.2225
-76.0844
-75.9494
-75.8191
-75.6936
-75.5718
-77.4724
-77.3669
-77.2431
-77.1098
-76.9679
-76.8171
-76.6676
-76.5169
-76.3703
-76.2282
-76.0884
-75.9543
-75.8244
-75.6978
-75.5743
-75.4523
-77.444
-77.3437
-77.2255
-77.0945
-76.9561
-76.8113
-76.6647
-76.5183
-76.3736
-76.2313
-76.094
-75.9597
-75.8286
-75.7017
-75.5772
-75.4535
-75.3299
-77.4177
-77.3251
-77.2098
-77.0827
-76.9489
-76.8052
-76.6624
-76.5189
-76.3754
-76.2356
-76.0982
-75.9644
-75.8338
-75.7063
-75.5808
-75.4563
-75.331
-75.2043
-77.4068
-77.3133
-77.2003
-77.0746
-76.9429
-76.8035
-76.6619
-76.5198
-76.3776
-76.2385
-76.1028
-75.9695
-75.8383
-75.7107
-75.5849
-75.4593
-75.3335
-75.2054
-75.0741
-77.3979
-77.3054
-77.1931
-77.0691
-76.9394
-76.8003
-76.6605
-76.5203
-76.3789
-76.2413
-76.1058
-75.9726
-75.8424
-75.7148
-75.5887
-75.4629
-75.3365
-75.2077
-75.0757
-74.9396
-77.4071
-77.3112
-77.1977
-77.073
-76.9425
-76.8031
-76.6633
-76.523
-76.3822
-76.2452
-76.1102
-75.9774
-75.8473
-75.7201
-75.5944
-75.4685
-75.3422
-75.2134
-75.0813
-74.9447
-74.8028
-74.7758
-74.8798
-74.9129
-75.0152
-75.0111
-75.0323
-75.08
-75.1434
-75.1646
-75.1003
-75.1256
-75.1309
-75.2107
-75.1703
-75.2023
-75.1539
-75.257
-75.3052
-75.305
-75.2811
-75.278
-75.2885
-75.256
-75.3682
-75.451
-75.479
-75.4177
-75.4097
-75.3813
-75.4981
-75.5035
-75.6603
-75.6862
-75.6689
-75.6009
-75.606
-75.6351
-75.7052
-75.774
-75.8395
-75.8654
-75.8421
-75.8943
-75.9057
-75.9595
-75.8552
-76.0204
-76.0188
-76.081
-76.1213
-76.1668
-76.1736
-76.2524
-76.1882
-76.1215
-76.1934
-76.2873
-76.3359
-76.4324
-76.5321
-76.5769
-76.6307
-76.3317
-76.2852
-76.1395
-76.6109
-76.9007
-76.9734
-76.8972
-76.8298
-76.7406
-76.6032
-76.4869
-76.3131
-76.1845
-76.0548
-77.3546
-77.3044
-77.2026
-77.1569
-76.9345
-76.7445
-76.6677
-76.4892
-76.3022
-76.1691
-76.0446
-75.9119
-77.7606
-77.4759
-77.2279
-77.1242
-76.9745
-76.802
-76.6506
-76.488
-76.3284
-76.193
-76.055
-75.9213
-75.7889
-77.6717
-77.4807
-77.2965
-77.1453
-76.9791
-76.8191
-76.6583
-76.5059
-76.3514
-76.1983
-76.0606
-75.9274
-75.8001
-77.6275
-77.4788
-77.3067
-77.1466
-76.9816
-76.8238
-76.6675
-76.5104
-76.3521
-76.208
-76.0684
-75.9352
-75.8065
-75.6832
-77.561
-77.429
-77.2853
-77.1409
-76.9815
-76.8257
-76.6677
-76.5106
-76.3647
-76.2165
-76.0757
-75.9424
-75.8125
-75.688
-75.5679
-77.5177
-77.4002
-77.2661
-77.123
-76.9742
-76.8217
-76.6675
-76.5165
-76.3676
-76.2215
-76.0836
-75.9487
-75.8178
-75.6924
-75.5705
-75.4501
-77.4755
-77.3664
-77.2432
-77.1106
-76.9678
-76.817
-76.6678
-76.5166
-76.3696
-76.2276
-76.088
-75.9535
-75.8236
-75.697
-75.5731
-75.4508
-75.3285
-77.4427
-77.3427
-77.2248
-77.0938
-76.9559
-76.8108
-76.6646
-76.5178
-76.3734
-76.231
-76.0937
-75.9594
-75.828
-75.7011
-75.5764
-75.4525
-75.3287
-75.2034
-77.4166
-77.3239
-77.2087
-77.0819
-76.9483
-76.8046
-76.662
-76.5185
-76.3749
-76.2352
-76.0977
-75.964
-75.8335
-75.7058
-75.5803
-75.4555
-75.3301
-75.2033
-75.0732
-77.4053
-77.312
-77.1992
-77.0738
-76.9422
-76.8029
-76.6615
-76.5195
-76.3774
-76.2383
-76.1027
-75.9694
-75.8381
-75.7104
-75.5846
-75.4588
-75.3329
-75.2047
-75.0732
-74.9377
-77.3967
-77.3045
-77.1922
-77.0684
-76.9388
-76.7998
-76.6601
-76.52
-76.3786
-76.2411
-76.1057
-75.9725
-75.8422
-75.7146
-75.5885
-75.4626
-75.3361
-75.2073
-75.0752
-74.939
-74.7973
-77.4069
-77.3109
-77.1974
-77.0727
-76.9423
-76.803
-76.6631
-76.5229
-76.3821
-76.2451
-76.1102
-75.9774
-75.8472
-75.72
-75.5944
-75.4685
-75.3422
-75.2133
-75.0812
-74.9446
-74.8026
-74.6549
-74.6498
-74.773
-74.8781
-74.9441
-74.9324
-74.9206
-74.963
-74.9795
-74.9832
-75.0402
-75.0732
-75.1487
-75.1624
-75.1229
-75.1072
-75.1199
-75.1566
-75.1755
-75.2127
-75.1833
-75.1606
-75.1292
-75.2108
-75.2908
-75.2968
-75.3075
-75.2854
-75.2498
-75.2786
-75.3344
-75.3399
-75.4302
-75.3925
-75.446
-75.4158
-75.4033
-75.4245
-75.5339
-75.5446
-75.6492
-75.6601
-75.6177
-75.5736
-75.6238
-75.6092
-75.6317
-75.6856
-75.7726
-75.7924
-75.859
-75.8672
-75.8741
-75.925
-75.9787
-75.9486
-75.7896
-76.0434
-75.9231
-76.0482
-76.1271
-76.1877
-76.2154
-76.2104
-76.2722
-76.2382
-76.0042
-76.2001
-76.3138
-76.2409
-76.4139
-76.4176
-76.5735
-76.6449
-76.3278
-76.2637
-76.2018
-76.0031
-76.7116
-76.7394
-76.8534
-76.88
-76.8294
-76.745
-76.6246
-76.4542
-76.2544
-76.1416
-76.0326
-75.8948
-77.4355
-77.3822
-77.1624
-77.1216
-76.9675
-76.7414
-76.6221
-76.4975
-76.2862
-76.1708
-76.0347
-75.9102
-75.7808
-77.8494
-77.5802
-77.3263
-77.1389
-76.9761
-76.8062
-76.6586
-76.4915
-76.3229
-76.1877
-76.049
-75.9172
-75.7874
-75.6704
-77.6802
-77.5239
-77.3253
-77.1659
-76.9834
-76.8237
-76.6537
-76.5057
-76.3501
-76.1986
-76.0578
-75.9238
-75.7975
-75.6766
-77.6357
-77.5003
-77.3212
-77.1554
-76.9876
-76.8275
-76.6691
-76.5102
-76.3521
-76.2059
-76.0686
-75.9329
-75.8047
-75.681
-75.5637
-77.5659
-77.4366
-77.2909
-77.1451
-76.9843
-76.8262
-76.6681
-76.5105
-76.364
-76.2158
-76.0742
-75.9411
-75.8114
-75.6864
-75.5663
-75.4477
-77.517
-77.3985
-77.2684
-77.1242
-76.975
-76.8218
-76.6675
-76.5158
-76.3671
-76.2211
-76.0831
-75.9475
-75.8168
-75.6915
-75.569
-75.4486
-75.3284
-77.4713
-77.367
-77.2428
-77.1104
-76.9682
-76.8171
-76.6673
-76.5168
-76.3696
-76.2269
-76.0872
-75.9531
-75.8229
-75.6961
-75.572
-75.4499
-75.3269
-75.2041
-77.4413
-77.3419
-77.224
-77.0933
-76.9557
-76.8108
-76.6642
-76.5176
-76.3731
-76.2308
-76.0938
-75.9592
-75.8276
-75.7006
-75.5757
-75.4516
-75.3276
-75.2021
-75.0738
-77.4153
-77.3225
-77.2078
-77.0811
-76.9477
-76.8041
-76.6616
-76.5181
-76.3747
-76.2348
-76.0974
-75.9636
-75.8331
-75.7056
-75.5798
-75.4549
-75.3294
-75.2023
-75.072
-74.9378
-77.4038
-77.3106
-77.1981
-77.073
-76.9416
-76.8024
-76.6611
-76.5192
-76.3772
-76.2382
-76.1026
-75.9694
-75.8379
-75.7102
-75.5843
-75.4585
-75.3325
-75.2041
-75.0728
-74.9368
-74.7964
-77.3956
-77.3035
-77.1914
-77.0676
-76.9382
-76.7993
-76.6597
-76.5197
-76.3784
-76.2409
-76.1055
-75.9723
-75.8421
-75.7145
-75.5884
-75.4624
-75.3358
-75.2069
-75.0748
-74.9385
-74.7966
-74.6496
-77.4066
-77.3106
-77.1971
-77.0725
-76.9421
-76.8028
-76.663
-76.5228
-76.382
-76.2451
-76.1101
-75.9773
-75.8472
-75.72
-75.5944
-75.4684
-75.3421
-75.2132
-75.0811
-74.9444
-74.8025
-74.6547
-74.5019
-74.6821
-74.6948
-74.7493
-74.872
-74.8251
-74.8941
-74.9753
-74.97
-74.9917
-74.8947
-74.9732
-74.9777
-75.0293
-75.041
-75.0873
-75.0912
-75.1117
-75.1363
-75.0801
-75.0813
-75.1196
-75.1843
-75.2052
-75.1722
-75.1966
-75.1605
-75.1143
-75.2201
-75.1948
-75.3222
-75.3017
-75.3026
-75.3004
-75.2611
-75.2077
-75.2917
-75.3448
-75.3739
-75.4046
-75.391
-75.4675
-75.3892
-75.4089
-75.3405
-75.3876
-75.5134
-75.5451
-75.6056
-75.6285
-75.629
-75.6144
-75.609
-75.6497
-75.6054
-75.6912
-75.7242
-75.7025
-75.836
-75.8064
-75.8921
-75.8904
-75.9204
-75.9768
-75.9431
-75.9007
-75.9254
-75.5362
-76.0531
-76.0237
-76.1066
-76.2271
-76.1607
-76.1724
-76.2018
-76.1512
-76.0617
-75.8296
-76.1369
-76.3319
-76.3854
-76.3428
-76.4228
-76.5098
-76.5686
-76.4533
-76.1731
-76.0748
-76.0445
-75.8688
-76.7477
-76.7642
-76.8527
-76.8871
-76.8188
-76.7338
-76.6416
-76.4392
-76.2382
-76.1486
-76.0455
-75.8877
-75.7629
-77.5228
-77.4068
-77.2732
-77.1035
-77.0206
-76.7462
-76.6129
-76.5063
-76.3054
-76.1789
-76.0256
-75.8952
-75.7781
-75.6546
-77.8162
-77.693
-77.3495
-77.1814
-76.9733
-76.8361
-76.6696
-76.5017
-76.3223
-76.1833
-76.0435
-75.9107
-75.7844
-75.6681
-75.5544
-77.7014
-77.547
-77.356
-77.198
-76.9954
-76.8325
-76.6477
-76.5029
-76.358
-76.1964
-76.0568
-75.9223
-75.7951
-75.6738
-75.5578
-77.6443
-77.5067
-77.3381
-77.1649
-76.9948
-76.8307
-76.6712
-76.5121
-76.352
-76.2051
-76.0674
-75.931
-75.8036
-75.6798
-75.5614
-75.4456
-77.5662
-77.4394
-77.2975
-77.149
-76.9871
-76.8281
-76.6684
-76.5109
-76.3641
-76.2147
-76.073
-75.9399
-75.8105
-75.6852
-75.5647
-75.4461
-75.3279
-77.5103
-77.3987
-77.2678
-77.1252
-76.976
-76.8222
-76.6677
-76.5167
-76.3658
-76.2204
-76.0827
-75.9472
-75.8158
-75.6903
-75.568
-75.447
-75.3271
-75.2057
-77.4703
-77.3656
-77.2422
-77.1101
-76.9679
-76.8172
-76.6682
-76.5164
-76.3697
-76.227
-76.0871
-75.9526
-75.8226
-75.6954
-75.5712
-75.4487
-75.3256
-75.2024
-75.0762
-77.4398
-77.3404
-77.223
-77.0927
-76.9556
-76.8106
-76.6641
-76.5174
-76.3728
-76.2306
-76.0935
-75.9591
-75.8273
-75.7002
-75.5751
-75.4508
-75.3265
-75.2008
-75.0723
-74.9394
-77.4141
-77.3211
-77.2065
-77.0803
-76.9471
-76.8037
-76.6613
-76.5178
-76.3744
-76.2347
-76.0971
-75.9633
-75.8328
-75.7053
-75.5794
-75.4544
-75.3287
-75.2014
-75.071
-74.9365
-74.7968
-77.4023
-77.3092
-77.197
-77.0721
-76.9409
-76.8019
-76.6607
-76.5191
-76.377
-76.238
-76.1025
-75.9693
-75.8378
-75.7101
-75.5841
-75.4581
-75.332
-75.2036
-75.072
-74.9359
-74.7953
-74.6488
-77.3946
-77.3026
-77.1905
-77.0669
-76.9377
-76.7989
-76.6594
-76.5194
-76.3782
-76.2407
-76.1054
-75.9722
-75.842
-75.7144
-75.5882
-75.4622
-75.3356
-75.2066
-75.0743
-74.938
-74.7959
-74.6488
-74.4961
-77.4064
-77.3103
-77.1968
-77.0722
-76.9419
-76.8026
-76.6628
-76.5227
-76.3819
-76.245
-76.1101
-75.9773
-75.8472
-75.72
-75.5944
-75.4684
-75.3421
-75.2132
-75.081
-74.9443
-74.8023
-74.6545
-74.5017
-74.3441
-74.6743
-74.7291
-74.6991
-74.8756
-74.8004
-74.8285
-74.883
-74.8974
-74.9435
-74.9644
-74.97
-74.9717
-74.9917
-74.9795
-75.0307
-75.016
-75.011
-74.9539
-75.0726
-75.1346
-75.1051
-75.1075
-75.0797
-75.0579
-74.9626
-75.1678
-75.1546
-75.2107
-75.1783
-75.1913
-75.1789
-75.0803
-75.0578
-75.1949
-75.2028
-75.2599
-75.2811
-75.2988
-75.3293
-75.2426
-75.2282
-75.1642
-75.3034
-75.3891
-75.3862
-75.4045
-75.385
-75.4409
-75.4227
-75.3595
-75.3105
-75.3847
-75.3903
-75.5184
-75.5755
-75.6167
-75.6018
-75.6807
-75.5765
-75.6053
-75.6159
-75.6094
-75.6694
-75.6971
-75.6976
-75.829
-75.8024
-75.8401
-75.8785
-75.874
-75.8878
-75.8701
-75.823
-75.9251
-75.8351
-75.8254
-75.9207
-76.0223
-76.0598
-76.1107
-76.0907
-76.1742
-76.0926
-76.0421
-76.0628
-76.0156
-75.8696
-75.7683
-76.2075
-76.3254
-76.4428
-76.3873
-76.3778
-76.45
-76.5537
-76.4107
-76.1836
-76.1114
-75.9642
-75.9254
-75.7455
-76.7285
-76.7775
-76.9045
-76.8841
-76.9043
-76.7596
-76.6544
-76.4718
-76.2256
-76.1258
-76.0033
-75.8684
-75.7612
-75.6483
-77.5618
-77.5414
-77.3324
-77.1893
-77.0309
-76.8237
-76.5732
-76.5136
-76.2951
-76.1725
-76.0267
-75.8892
-75.7695
-75.6576
-75.5462
-77.8646
-77.7633
-77.3913
-77.2166
-77.0013
-76.8401
-76.6834
-76.5041
-76.332
-76.1817
-76.0433
-75.9076
-75.7837
-75.6649
-75.552
-75.4402
-77.756
-77.5631
-77.3888
-77.2042
-77.0115
-76.8406
-76.6479
-76.5023
-76.3516
-76.1975
-76.0572
-75.9195
-75.7928
-75.6723
-75.5551
-75.4418
-77.649
-77.5009
-77.3505
-77.1706
-77.0031
-76.8343
-76.6734
-76.514
-76.3543
-76.2049
-76.0672
-75.93
-75.8017
-75.6786
-75.5594
-75.4434
-75.3283
-77.5633
-77.4382
-77.2989
-77.1524
-76.9911
-76.8305
-76.6696
-76.5109
-76.3647
-76.2148
-76.072
-75.9386
-75.8097
-75.6841
-75.5632
-75.4445
-75.3259
-75.2084
-77.5073
-77.3954
-77.2674
-77.1258
-76.9766
-76.8235
-76.6682
-76.5166
-76.3663
-76.2198
-76.082
-75.9465
-75.815
-75.6899
-75.5666
-75.4458
-75.3251
-75.2038
-75.0801
-77.4654
-77.3638
-77.2411
-77.1096
-76.9678
-76.8172
-76.6671
-76.5161
-76.3696
-76.2267
-76.0868
-75.9526
-75.8218
-75.6949
-75.5703
-75.4478
-75.3243
-75.2009
-75.0743
-74.9438
-77.4383
-77.3387
-77.2215
-77.0919
-76.955
-76.8107
-76.6637
-76.5175
-76.3726
-76.2305
-76.0934
-75.9589
-75.8271
-75.6999
-75.5746
-75.45
-75.3256
-75.1996
-75.071
-74.9377
-74.8004
-77.4125
-77.3196
-77.2053
-77.0796
-76.9465
-76.8034
-76.6609
-76.5175
-76.3743
-76.2344
-76.097
-75.9631
-75.8325
-75.705
-75.5791
-75.454
-75.3281
-75.2006
-75.07
-74.9352
-74.7953
-74.6505
-77.4007
-77.3079
-77.1958
-77.0712
-76.9402
-76.8013
-76.6603
-76.5188
-76.377
-76.2379
-76.1025
-75.9693
-75.8377
-75.71
-75.5839
-75.4579
-75.3317
-75.2031
-75.0714
-74.9351
-74.7944
-74.6476
-74.4962
-77.3935
-77.3018
-77.1897
-77.0663
-76.9371
-76.7984
-76.659
-76.5192
-76.378
-76.2406
-76.1053
-75.9722
-75.8419
-75.7143
-75.5881
-75.4621
-75.3354
-75.2064
-75.074
-74.9375
-74.7954
-74.648
-74.4953
-74.3389
-77.3101
-77.1965
-77.072
-76.9418
-76.8025
-76.6627
-76.5226
-76.3819
-76.245
-76.1101
-75.9773
-75.8472
-75.72
-75.5944
-75.4684
-75.3421
-75.2131
-75.0809
-74.9442
-74.8022
-74.6544
-74.5015
-74.3438
-74.1839
-74.6361
-74.6987
-74.659
-74.7005
-74.8018
-74.8372
-74.8081
-74.8745
-74.8488
-74.924
-74.9411
-74.9555
-74.9383
-74.9715
-74.8696
-74.9836
-74.9965
-74.998
-75.0359
-74.9946
-74.957
-74.8331
-74.9773
-75.1387
-75.1122
-75.0748
-75.0859
-75.0803
-74.9628
-74.8731
-75.1408
-75.1977
-75.1736
-75.1806
-75.1481
-75.1732
-75.123
-75.0526
-74.9713
-75.2218
-75.2919
-75.2482
-75.262
-75.3057
-75.2868
-75.2728
-75.1629
-75.149
-75.1553
-75.251
-75.3735
-75.4148
-75.4224
-75.435
-75.434
-75.3886
-75.3834
-75.3477
-75.358
-75.3624
-75.3717
-75.4923
-75.5563
-75.6564
-75.6168
-75.617
-75.5732
-75.5959
-75.5791
-75.5961
-75.6337
-75.6254
-75.6465
-75.6719
-75.784
-75.7611
-75.8955
-75.8495
-75.8538
-75.7481
-75.849
-75.8755
-75.9121
-75.8353
-75.7121
-75.9002
-75.9454
-76.011
-76.0285
-76.1617
-76.1262
-76.1761
-76.1469
-76.0334
-76.0715
-75.9244
-75.8436
-75.7285
-75.6215
-76.1462
-76.3514
-76.3702
-76.5247
-76.5321
-76.5042
-76.5066
-76.4314
-76.1851
-76.0953
-75.9212
-75.8383
-75.7151
-75.6321
-76.7977
-76.7864
-76.8661
-77.0738
-76.8477
-76.8303
-76.6692
-76.5008
-76.2863
-76.1237
-76.0192
-75.8692
-75.754
-75.6438
-75.5352
-77.6357
-77.5751
-77.3884
-77.4529
-77.0621
-76.8718
-76.5508
-76.5024
-76.3388
-76.1786
-76.025
-75.8852
-75.7688
-75.6509
-75.5424
-75.4375
-78.0019
-77.7262