/*--------------------------------*- C++ -*----------------------------------*\
  =========                 |
  \\      /  F ield         | OpenFOAM: The Open Source CFD Toolbox
   \\    /   O peration     | Website:  https://openfoam.org
    \\  /    A nd           | Version:  7
     \\/     M anipulation  |
\*---------------------------------------------------------------------------*/
FoamFile
{
    version     2.0;
    format      ascii;
    class       volScalarField;
    location    "5";
    object      nut;
}
// * * * * * * * * * * * * * * * * * * * * * * * * * * * * * * * * * * * * * //

dimensions      [0 2 -1 0 0 0 0];

internalField   nonuniform List<scalar> 
18750
(
0.000341216
0.00068828
0.000233365
0.000311414
0.00165577
0.000314176
0.00066684
0.00026258
0.000223827
0.000294208
0.0023578
0.00106269
0.0014489
0.000345825
0.000276782
0.000658045
0.000260828
0.000223834
0.00021376
0.000277853
0.00255318
0.0012687
0.00287532
0.000696811
0.000961243
0.00124344
0.000294706
0.000288976
0.000274298
0.000695312
0.000143808
0.000211802
0.000200475
0.00020858
0.000252879
0.00254776
0.00155019
0.002114
0.000900273
0.00207718
0.00247735
0.000768811
0.000626473
0.000739986
0.0012187
0.000462107
0.000277937
0.000281273
0.000287888
0.000681419
0.00021897
0.000135642
0.000170063
0.000178596
0.000198797
0.000231036
0.00300958
0.0014105
0.00226354
0.0010735
0.00162461
0.00259433
0.000352877
0.000786288
0.00213725
0.00221974
0.000740096
0.000750725
0.000764015
0.000835047
0.00117493
0.000502715
0.000369967
0.00026071
0.000210191
0.000306283
0.000645465
0.00012321
0.000107709
9.57194e-05
0.000131552
0.000160433
0.000196202
0.000217428
0.00277228
0.00125597
0.00281315
0.00147327
0.000943716
0.00226596
0.000310863
0.00126373
0.00157553
0.00278581
0.000839296
0.000665803
0.000887502
0.00204213
0.00236445
0.000755335
0.000677975
0.000767563
0.00070661
0.000794153
0.00114135
0.000654403
0.000493253
0.000357117
0.000267602
0.000157002
0.000302517
0.000713151
0.000101695
0.000178882
8.75409e-05
8.99759e-05
8.08133e-05
0.000154529
0.000198795
0.000209691
0.00297804
0.000976324
0.00248791
0.000906079
0.000686221
0.00257482
0.00128596
0.00178535
0.000725
0.00220727
0.000523909
0.000483234
0.000875457
0.00173542
0.00279496
0.000663602
0.0009487
0.00100786
0.000612917
0.00168437
0.00274824
0.000733327
0.000654875
0.000632686
0.000645628
0.000689184
0.000698412
0.00104729
0.000512274
0.000626543
0.000533899
0.000385381
0.000287864
0.000106197
0.000332593
0.000659294
0.000186753
7.66127e-05
0.000134178
0.000125459
0.00011734
4.75434e-05
0.000165354
0.000174657
0.000204709
0.00290085
0.000838891
0.00263445
0.000509714
0.000999022
0.00251645
0.000810664
0.000906915
0.000609964
0.00280216
0.00125484
0.000662924
0.0012628
0.000939013
0.00239113
0.00120745
0.000636345
0.000535772
0.00107038
0.00198512
0.00288128
0.00093143
0.000766252
0.00084805
0.000671106
0.000854856
0.000786715
0.00270614
0.00046884
0.000642932
0.000657161
0.000683243
0.000656147
0.00077842
0.000781698
0.00101368
0.000586867
0.000540467
0.000586779
0.000538647
0.000386736
0.0003167
0.000112907
0.000388685
0.000661552
0.000183564
0.000149908
6.47877e-05
7.7136e-05
0.000154033
0.000109434
7.80662e-05
0.000186266
0.000176544
0.000199367
0.00246876
0.000662626
0.00248455
0.000398644
0.000542602
0.00263441
0.0006054
0.000862947
0.000829489
0.00247723
0.000598746
0.000772325
0.000975161
0.000469468
0.00293574
0.000285674
0.00059125
0.00123759
0.00132647
0.00141994
0.00235669
0.000960099
0.00106172
0.00102399
0.00095191
0.00156378
0.00157671
0.00286046
0.00093658
0.000206772
0.000537614
0.000996555
0.000700654
0.00130978
0.000874897
0.00273807
0.000405878
0.0005465
0.000780163
0.000736059
0.000595606
0.000653883
0.000818909
0.000815903
0.00101603
0.000538056
0.000551024
0.000531792
0.000553472
0.000589254
0.000401467
0.000326327
0.00014702
0.000469502
0.00065784
0.000266768
0.000165141
0.000145519
7.05799e-05
7.00273e-05
0.000164904
0.000167105
3.85674e-05
0.000190745
0.000190817
0.00019218
0.0024407
0.000878467
0.00237071
0.000691875
0.000848364
0.00254682
0.000699721
0.000315608
0.00100356
0.00272076
0.000214077
0.000422042
0.000741623
0.000964938
0.00227904
0.00100619
0.00100339
0.00115372
0.00103914
0.00042601
0.00273803
0.00051545
0.000833012
0.00118462
0.00155791
0.00127023
0.00131249
0.00244086
0.00124999
0.000650124
0.000874515
0.00106119
0.00140979
0.00182341
0.00161607
0.0030123
0.000614124
0.000599035
0.000295431
0.00038454
0.000915776
0.00112682
0.00156457
0.000839764
0.00239681
0.000624201
0.000475494
0.000697211
0.000992246
0.000716461
0.000695046
0.000613259
0.000795213
0.000839984
0.00094899
0.000469367
0.000488435
0.000540523
0.00052369
0.000509381
0.000614286
0.000487556
0.000297309
0.000153296
0.000535773
0.000709681
0.000156657
0.000121988
0.000152016
0.000158137
7.96039e-05
6.97643e-05
0.000165067
0.000153219
4.50804e-05
0.000150482
0.000171735
0.00018997
0.00241692
0.0005119
0.00238231
0.000342381
0.000828219
0.00253271
0.000725159
0.00047437
0.000806939
0.00256561
0.000764052
0.000531848
0.000404343
0.000897828
0.00251977
0.000437974
0.000531555
0.00050815
0.000663425
0.00061015
0.00226
0.0011831
0.00102198
0.000642347
0.00124481
0.000926384
0.000530341
0.0026402
0.00105169
0.000669603
0.000782487
0.000923804
0.000949673
0.00110232
0.00102218
0.0025284
0.000634271
0.00130467
0.000535625
0.000741213
0.00145357
0.00140981
0.00119033
0.00169612
0.00365154
0.000591107
0.000402299
0.000809078
0.000242492
0.000418073
0.000778619
0.000880812
0.00084245
0.000612884
0.00322264
0.000994025
0.000794631
0.000510029
0.000707172
0.00115306
0.000732464
0.000784592
0.000670339
0.000689031
0.000834919
0.00110535
0.000207553
0.000424376
0.000512214
0.000531487
0.000476937
0.000445425
0.00056589
0.000585151
0.000243508
0.000195254
0.000542368
0.000739842
8.42711e-05
0.00019408
0.000176239
0.000136247
0.000139502
7.99214e-05
8.06234e-05
0.000182093
0.000124813
0.000147132
0.000108129
0.000149935
0.00018932
0.0023359
0.000568287
0.00232259
0.000345084
0.000414805
0.00236165
0.000439769
0.000418036
0.000687424
0.00250095
0.00058271
0.000472716
0.000491091
0.000399657
0.00255828
0.000747445
0.000933174
0.00045765
0.000666073
0.000459849
0.00260385
0.00044522
0.000499418
0.000689534
0.00107668
0.000716264
0.00050579
0.00235696
0.00131936
0.00070696
0.000689755
0.000901237
0.000915891
0.000767266
0.000890082
0.00275356
0.000484047
0.000715204
0.000814231
0.000982972
0.00103519
0.000649551
0.000939857
0.00115555
0.00269933
0.000548804
0.000614878
0.000508536
0.000479793
0.000558789
0.00142939
0.00118524
0.000967183
0.00132262
0.00345984
0.000953402
0.000558954
0.000724149
0.00068486
0.000511199
0.000449323
0.00056565
0.000863802
0.00129646
0.000736713
0.00289853
0.00119897
0.000855936
0.000823562
0.000695487
0.000375282
0.000823767
0.000861033
0.000815824
0.00073109
0.000626299
0.000908948
0.000882841
0.000222503
0.000435085
0.000475679
0.000493534
0.000533667
0.00049412
0.000432479
0.000555692
0.000674423
0.000196379
0.000238012
0.000494407
0.000804816
7.30426e-05
0.000100107
0.000168799
0.000180911
0.000129566
0.000132456
7.38143e-05
0.000119774
0.000225056
0.000152303
9.6928e-05
8.83226e-05
0.000131021
0.000188723
0.00234281
0.000633266
0.00221888
0.000408521
0.000683347
0.00238578
0.000387694
0.000411478
0.000661629
0.00240007
0.000614969
0.000366559
0.000545367
0.000767766
0.00245708
0.00056759
0.000480218
0.000320391
0.000628461
0.000777451
0.00251199
0.000613089
0.000733576
0.000650243
0.000156188
0.000737972
0.000735432
0.00257631
0.000710104
0.00057153
0.000697815
0.00101536
0.000321248
0.000740612
0.000608836
0.00224115
0.0010191
0.000731037
0.000818285
0.000768097
0.00167262
0.000874847
0.000708069
0.00132187
0.00281274
0.000777013
0.000172324
0.000469892
0.000606201
0.000533447
0.000665468
0.000983009
0.000591579
0.00159476
0.00274672
0.000345236
0.000601486
0.000406227
0.00054089
0.000561672
0.000477263
0.00125519
0.000875675
0.0010161
0.0012747
0.00376865
0.000737463
0.00027703
0.000614069
0.000708499
0.000695722
0.00063812
0.000561007
0.00067325
0.0012436
0.00111634
0.000833635
0.00271594
0.000725147
0.000840167
0.000923559
0.000959124
0.000730516
0.000331939
0.000655079
0.00102937
0.000902361
0.000859748
0.00066995
0.000912569
0.000957255
0.000253202
0.000238058
0.000225955
0.00042211
0.000470057
0.000530762
0.000517732
0.000470677
0.000595653
0.000660878
0.000211995
0.000289521
0.000454322
0.000813775
0.000149576
7.00501e-05
0.000110469
8.66903e-05
0.000122587
0.000126613
0.00014178
8.47826e-05
0.000173412
0.000254652
0.000105611
6.32099e-05
8.85957e-05
0.000141918
0.000188401
0.00229806
0.000387412
0.00221418
0.000418959
0.000458848
0.00222889
0.000210918
0.000424908
0.000509507
0.00241466
0.000546658
0.000263564
0.000375186
0.000414053
0.002408
0.000591864
0.000645566
0.000389567
0.00050829
0.000744112
0.00247381
0.000344207
0.000379992
0.000536731
0.000369057
0.000585338
0.000636165
0.0025284
0.000378304
0.000851508
0.000582777
0.000768317
0.00069513
0.000624094
0.000730514
0.00247759
0.000765193
0.000466734
0.000823722
0.000711888
0.000839581
0.000523414
0.0006361
0.00072913
0.00241695
0.000622359
0.000561094
0.000826181
0.000582621
0.000317344
0.000941513
0.00113392
0.000938234
0.00135309
0.00288342
0.000623607
0.000448684
0.000768213
0.000719458
0.000661004
0.000578491
0.00179352
0.00169716
0.000546593
0.00176206
0.00296882
0.000762474
0.000579445
0.000462785
0.00035176
0.000312848
0.000541539
0.000545558
0.000696726
0.000840596
0.00110061
0.00100697
0.00365474
0.00097301
0.000521456
0.000402988
0.000528614
0.000699862
0.000513887
0.00064093
0.000730617
0.000935672
0.00144068
0.00082361
0.000716263
0.00244468
0.00067411
0.000860837
0.00134265
0.00113266
0.00102631
0.000762237
0.000887425
0.00082219
0.000886219
0.000846749
0.000880262
0.000619303
0.00114876
0.00105877
0.000620695
0.0002441
0.000224624
0.000127154
0.00029682
0.000438923
0.000519919
0.00044527
0.000423392
0.000590915
0.000645638
0.000272042
0.000308342
0.000431102
0.000846187
0.000180955
0.000113455
6.62602e-05
9.63013e-05
0.000119861
8.92032e-05
0.000130474
0.000125332
9.67585e-05
0.000214893
0.000287648
8.22892e-05
0.000154853
0.000103891
0.000155653
0.000186894
0.00225712
0.000498924
0.00212003
0.000312853
0.000349548
0.0021582
0.000529153
0.000258295
0.000391816
0.00219132
0.000535375
0.000340653
0.0004372
0.000353789
0.00236446
0.000487567
0.00051484
0.000344135
0.000313425
0.000655715
0.00232573
0.000588942
0.000595947
0.000525664
0.000437473
0.000511897
0.000644183
0.00248486
0.000671567
0.000366325
0.000621696
0.000723146
0.000571808
0.000672457
0.000557558
0.00247109
0.000520809
0.000691896
0.000434367
0.00066937
0.000542047
0.00111084
0.000608937
0.000505192
0.00261095
0.000748447
0.000485887
0.000670639
0.000736147
0.000851385
0.000694702
0.000981941
0.000443815
0.000596784
0.00238426
0.000747865
0.000651523
0.00134428
0.00106419
0.00105649
0.000631152
0.000662857
0.000591402
0.00128027
0.00110308
0.00285181
0.000606824
0.000470102
0.000446657
0.0010502
0.000757614
0.000923097
0.00143286
0.00127171
0.000760998
0.0007551
0.00129903
0.00324964
0.000888984
0.000696714
0.00068633
0.000244499
0.000455065
0.000658971
0.000246912
0.000649556
0.000257716
0.000752335
0.00124696
0.00111955
0.0032462
0.00103777
0.00131106
0.000384669
0.000400189
0.00058632
0.000588694
0.000657181
0.000672955
0.00125241
0.0011753
0.000389187
0.000914461
0.000961599
0.00234631
0.000737645
0.000568907
0.000593938
0.000914161
0.00125486
0.000770319
0.000885697
0.000840707
0.000830409
0.00107045
0.000840457
0.000757858
0.000622723
0.00105416
0.0015272
0.000943709
0.000638086
0.000221759
0.000235988
0.000296352
0.000408187
0.000414142
0.000522959
0.000440749
0.000477357
0.000576636
0.000610497
0.000223426
0.00030233
0.000450429
0.000749887
0.000183346
0.000165508
9.1936e-05
6.55465e-05
9.33591e-05
0.000192695
7.86385e-05
0.000140008
0.000129716
9.31469e-05
0.000231599
0.000324468
0.000111456
0.000113348
0.000111516
0.000162462
0.000193243
0.00224834
0.000542907
0.00210215
0.00042108
0.000464105
0.00211021
0.000307069
0.000355596
0.000428709
0.00211286
0.000623197
0.000274532
0.000271335
0.00041605
0.00222934
0.000648113
0.000377556
0.000372488
0.000305229
0.000657677
0.00232604
0.000518398
0.000454768
0.000309418
0.000352855
0.00037
0.000348713
0.00235566
0.000738741
0.000609982
0.000528734
0.00036523
0.000431884
0.000714976
0.000590653
0.00236866
0.000593397
0.000651992
0.000609824
0.000605697
0.000627509
0.000518235
0.000751979
0.000731144
0.00233671
0.000450447
0.000536639
0.00062343
0.000798141
0.000693836
0.000481015
0.000378438
0.00071858
0.000540189
0.00251184
0.00083796
0.00069603
0.000764985
0.000777718
0.00103475
0.00107047
0.000519354
0.000491074
0.000438046
0.000929991
0.00215856
0.000990655
0.000821981
0.000809598
0.000418189
0.000771635
0.000720184
0.00126542
0.000538264
0.000658161
0.00113654
0.0012938
0.00299921
0.000897236
0.000652889
0.000583885
0.000701723
0.00026364
0.000606415
0.000601461
0.000744084
0.00067099
0.000746712
0.000903536
0.00156822
0.00323702
0.000645827
0.000302567
0.000993399
0.000352023
0.000459269
0.000315745
0.000848823
0.000427394
0.000619974
0.000651852
0.000820741
0.000857961
0.00162638
0.00317917
0.000864362
0.00108544
0.00077812
0.000815246
0.000466479
0.000809932
0.000565894
0.000547912
0.000597859
0.00107846
0.000577004
0.000652929
0.000996677
0.0010197
0.00288032
0.000778078
0.000846103
0.00113383
0.000991771
0.000746301
0.000799342
0.00082673
0.00103188
0.000547759
0.00091024
0.00122579
0.000648332
0.000496825
0.000779138
0.000934935
0.00177194
0.000814585
0.000839782
0.000584337
0.000181906
0.000268742
0.000277795
0.000425061
0.000369923
0.000532025
0.000476609
0.000502162
0.000644502
0.000503374
0.000255774
0.000377719
0.000492936
0.00073476
0.000123652
0.000177721
0.000161473
8.88265e-05
7.05771e-05
9.1128e-05
0.000191944
7.31676e-05
0.000132225
0.000133289
9.69129e-05
0.000243904
0.000332625
0.000136829
0.000104823
0.000113931
0.000165047
0.000199533
0.00219973
0.000340022
0.00207478
0.000384497
0.000420352
0.00208828
0.000462019
0.000466793
0.000462602
0.00209976
0.000526966
0.000440779
0.000428051
0.000375732
0.00213175
0.00058977
0.000462683
0.00021137
0.000155017
0.000476108
0.00239033
0.000444514
0.000524686
0.000369476
0.00028703
0.000368866
0.000525714
0.00241052
0.000653534
0.000414464
0.000332034
0.000380854
0.000392209
0.000618343
0.000525796
0.00247112
0.000706468
0.000642052
0.000434241
0.000596646
0.000467308
0.000495512
0.000548504
0.000893195
0.00243039
0.000599656
0.000572817
0.000521287
0.000472551
0.000780811
0.00052271
0.000770633
0.000639364
0.000637996
0.00246997
0.000820214
0.000766525
0.000508363
0.000519441
0.000515618
0.000557288
0.000383998
0.000438973
0.000665223
0.000777837
0.00264929
0.00109203
0.000944192
0.00115396
0.000726869
0.00103755
0.000862224
0.000824423
0.000614706
0.000393413
0.000621412
0.000872353
0.00225274
0.00109878
0.00153263
0.00102727
0.000914352
0.000369923
0.000820461
0.000765498
0.000675566
0.000935769
0.00108433
0.000736479
0.00117511
0.00290535
0.000861893
0.000654489
0.000574441
0.00110959
0.00036062
0.000967738
0.000425073
0.000630798
0.000437701
0.000387087
0.00119207
0.00130828
0.00146659
0.00317724
0.000621666
0.000739336
0.000625363
0.000490405
0.000471606
0.000343579
0.000424786
0.00034389
0.000582735
0.000672023
0.000789011
0.000333962
0.0015403
0.00133098
0.00273293
0.000940084
0.000964236
0.0010813
0.00117315
0.000616302
0.000474705
0.000715011
0.00076586
0.000549881
0.00059354
0.000917689
0.00073617
0.000503646
0.000580244
0.000847415
0.00314847
0.000399593
0.000586027
0.000727964
0.000592976
0.000625109
0.00106125
0.00104868
0.000891614
0.00120394
0.000593215
0.000768319
0.00129655
0.000671412
0.000442151
0.000885981
0.000924565
0.00170487
0.000327511
0.000717574
0.00085784
0.000399786
0.00033984
0.000341322
0.000253737
0.000400228
0.000388955
0.000489055
0.000494075
0.000545079
0.000639354
0.000440652
0.00027058
0.00049377
0.000498319
0.000585158
8.48827e-05
0.000110071
0.000169773
0.000146527
9.46511e-05
5.76549e-05
6.53611e-05
0.000113472
6.63226e-05
0.000102838
0.000108415
0.000115726
0.000149037
0.000251631
0.000156407
0.000125958
0.000131248
0.000159085
0.000209307
0.00229341
0.000513549
0.00214631
0.000392055
0.000255382
0.00207804
0.000372512
0.000340374
0.000326912
0.00203258
0.000377094
0.000494057
0.000453561
0.000373909
0.00214355
0.000336718
0.000313767
0.000415845
0.000423022
0.000463051
0.00220617
0.000415849
0.000387344
0.000427156
0.000245216
0.000318076
0.000476737
0.00242274
0.000448161
0.000411121
0.000252978
0.000291476
0.000322256
0.000535851
0.000650497
0.00245
0.000681501
0.000544583
0.000462325
0.00044127
0.000346725
0.000323847
0.00041327
0.000873067
0.00243634
0.000685085
0.000767513
0.000384344
0.000460925
0.00063795
0.000522217
0.000522276
0.000593738
0.000817368
0.00252872
0.000559983
0.00071678
0.000635662
0.00047837
0.000572233
0.000619015
0.000359065
0.000705039
0.000613584
0.000637649
0.00257361
0.000266047
0.000536548
0.000449292
0.000301399
0.000597735
0.000414653
0.000675743
0.000609711
0.000704969
0.000643892
0.000657714
0.00268981
0.000816627
0.000752179
0.000954542
0.000827635
0.0011021
0.000989723
0.0010125
0.000778206
0.00064849
0.000710913
0.00108465
0.000816654
0.00213966
0.00101899
0.000918397
0.000953257
0.000912347
0.00102431
0.00148248
0.000992789
0.00123627
0.000559881
0.000834412
0.000546429
0.000598779
0.00142124
0.00305944
0.00087775
0.000727911
0.000154337
0.000415479
0.000709961
0.000681872
0.00086114
0.000938962
0.000635911
0.000444064
0.000856205
0.000412278
0.000861635
0.00142968
0.0030563
0.00110471
0.00049287
0.000308196
0.000274878
0.000749173
0.000479987
0.000517251
0.00027595
0.000314832
0.000455068
0.000580331
0.000531094
0.000442421
0.000913524
0.00102334
0.00297114
0.000760064
0.0012016
0.00108171
0.00130833
0.00134105
0.000803024
0.000890225
0.00074828
0.000768794
0.000801242
0.000511505
0.000975168
0.00092627
0.000696962
0.000540606
0.000687697
0.00331243
0.000446799
0.000352382
0.000248516
0.00068425
0.000783545
0.000536283
0.000835243
0.00109524
0.000808752
0.000909693
0.000609694
0.000933703
0.00130779
0.000663996
0.000358678
0.000677206
0.000882707
0.00151405
0.00015841
0.000250962
0.000547611
0.00073128
0.000156741
0.00032629
0.000403618
0.000301856
0.000397045
0.000390893
0.000440874
0.000454546
0.000548031
0.000524525
0.000432239
0.000316494
0.000499758
0.000445274
0.000523377
7.93458e-05
8.16624e-05
0.000101373
0.000165422
0.000119797
0.000108229
9.87417e-05
4.12295e-05
8.35409e-05
8.84874e-05
9.37509e-05
9.34151e-05
0.000110531
0.000110417
0.0001553
0.000180041
8.78771e-05
0.000137226
0.000157374
0.000212815
0.00222855
0.000485999
0.00215838
0.000297162
0.000334472
0.00211843
0.000371105
0.000292496
0.000383671
0.00206059
0.000205732
0.000304142
0.000301497
0.00040921
0.00203063
0.000509051
0.00043809
0.000342489
0.000347709
0.000430416
0.00213043
0.000307249
0.000433785
0.000367418
0.000338915
0.000630878
0.000516198
0.00220427
0.000588311
0.000399966
0.000302783
0.000345498
0.000255841
0.000491868
0.000603804
0.00237355
0.000792639
0.000596121
0.000481561
0.000319381
0.000307076
0.00028761
0.00051688
0.00027085
0.0024365
0.000693051
0.00047071
0.000377162
0.000433908
0.000383358
0.000370428
0.000313136
0.000603168
0.000450366
0.00244603
0.000623264
0.000582381
0.000457056
0.000574158
0.000565574
0.000486244
0.000431127
0.000477539
0.000642996
0.000502286
0.0025256
0.000715894
0.000737482
0.00055565
0.000659525
0.000872831
0.000747113
0.00059948
0.000548954
0.000617339
0.000655179
0.000509265
0.00235887
0.00060658
0.000513619
0.000330719
0.000289842
0.000597231
0.000700766
0.000549945
0.000616991
0.000853646
0.000835548
0.000635185
0.000704399
0.00261842
0.000855335
0.000464098
0.000746038
0.000718994
0.000748294
0.000687712
0.000598946
0.000461699
0.000388938
0.000313836
0.000633126
0.00096393
0.00106327
0.00226874
0.00112767
0.000697579
0.000919404
0.000758915
0.000832815
0.000820791
0.000935579
0.000971208
0.00104406
0.000809423
0.00058528
0.000277273
0.00087513
0.00143528
0.00318601
0.00145922
0.000336897
0.000274492
0.000585771
0.000499863
0.000500867
0.000396259
0.000224012
0.000704871
0.00061663
0.00061106
0.000582449
0.00031844
0.00112556
0.00163311
0.00255402
0.000622377
0.00110112
0.000809334
0.000445996
0.000321712
0.000418375
0.000379529
0.000376842
0.000330214
0.000464966
0.000711284
0.000676308
0.000632818
0.000777712
0.000735047
0.00173765
0.00271367
0.000621681
0.00077587
0.000658487
0.000993336
0.00117775
0.000867799
0.00077089
0.000724958
0.00093635
0.0009139
0.000957261
0.00074672
0.00075134
0.00132729
0.00103669
0.000597638
0.000809838
0.00339903
0.000463535
0.000372328
0.000469801
0.00112224
0.000527347
0.000871048
0.000480431
0.000657321
0.000872879
0.000893801
0.000822228
0.000988968
0.00107808
0.00103294
0.000419798
0.00038922
0.000586876
0.000961966
0.00148413
0.000202704
0.000187442
0.000141264
0.000191952
0.000556433
0.000154497
0.000273967
0.000474054
0.000387499
0.000373288
0.000341018
0.000404674
0.000413016
0.000412654
0.000360221
0.000475013
0.000373844
0.000524845
0.000410058
0.000462729
0.000106143
6.59155e-05
8.1276e-05
8.98064e-05
0.000165441
0.000104073
0.000138287
0.000162951
0.000103347
9.06269e-05
0.000127463
0.000117036
7.62033e-05
0.000110281
0.000145487
0.000140171
0.000187483
8.59058e-05
0.000109824
0.000151286
0.000217659
0.00217273
0.000348476
0.00209845
0.000247929
0.000304049
0.00215386
0.000227589
0.000330134
0.000294355
0.00205628
0.000282355
0.000233617
0.000332447
0.000430864
0.00200981
0.000495069
0.000327922
0.000222959
0.000273643
0.000347302
0.00203701
0.000433413
0.000473217
0.000415358
0.000293022
0.00036624
0.000291731
0.0021153
0.000707186
0.000300014
0.000563872
0.000262341
0.000333728
0.000727398
0.000312123
0.00229608
0.000646185
0.000661072
0.000519085
0.000546089
0.000293412
0.000365322
0.000675195
0.000556976
0.00247257
0.000548072
0.000712598
0.000544478
0.000389745
0.000381608
0.000376027
0.000504205
0.000463747
0.000384434
0.00241983
0.000659315
0.000480728
0.000472816
0.000551615
0.00038605
0.000399732
0.000418192
0.000450295
0.000392481
0.000582349
0.00235331
0.000493462
0.000488462
0.000482927
0.000402921
0.000614723
0.000362728
0.000533273
0.000336628
0.000517627
0.000609779
0.000608841
0.00240683
0.000783657
0.000702062
0.000562986
0.000797873
0.000737953
0.000618624
0.00051587
0.000731536
0.000558252
0.000524159
0.000741816
0.000618017
0.00240873
0.000603024
0.000575347
0.000717423
0.000386491
0.000818765
0.000892346
0.000599648
0.000755902
0.00074315
0.000498482
0.000411831
0.000663683
0.000843425
0.00254974
0.00068966
0.000836886
0.000834082
0.000790872
0.00075847
0.000568443
0.000694565
0.000407228
0.000573151
0.000661751
0.000427234
0.000571946
0.000618724
0.000933093
0.00230514
0.000480345
0.000452735
0.000949817
0.00120554
0.00130523
0.000958377
0.000753849
0.00104534
0.000799331
0.000781774
0.000935154
0.000541514
0.000313722
0.00103704
0.00141327
0.003053
0.000626059
0.00030434
0.000279575
0.000399381
0.000374409
0.000510035
0.000230104
0.000522188
0.000378234
0.000387458
0.000614943
0.000696799
0.0004377
0.000783059
0.000838977
0.00149268
0.00249497
0.000696494
0.000889925
0.00107599
0.000590516
0.000630893
0.000668981
0.000300145
0.000568223
0.000657549
0.000306338
0.000448887
0.000689305
0.000839785
0.000582225
0.000631188
0.000457548
0.00124757
0.00313931
0.000455601
0.000503127
0.000640672
0.000714426
0.000999453
0.00225321
0.000787805
0.000928284
0.00068727
0.000666113
0.000756921
0.00048086
0.000618745
0.00127434
0.00148152
0.0010911
0.000362648
0.00055557
0.00319173
0.000320547
0.000419188
0.000541904
0.00059816
0.00106889
0.000410582
0.000511335
0.000476854
0.000624655
0.000707421
0.000925196
0.000933814
0.00153662
0.00164206
0.00105608
0.000456224
0.000587761
0.0008475
0.00104036
0.00155894
0.0002935
0.000220769
0.000168407
0.00015791
0.000283643
0.000306185
0.000331608
0.000273303
0.000473154
0.000392264
0.000409196
0.000328617
0.000405942
0.000374108
0.000295725
0.000309887
0.000563601
0.000407431
0.000536943
0.000377212
0.000424244
0.000249388
0.000113457
7.13149e-05
7.193e-05
8.93868e-05
0.000148467
0.000100286
9.06393e-05
9.69912e-05
0.000150518
0.000107856
0.000125763
9.73345e-05
7.40854e-05
0.000114938
0.000217952
0.00019133
0.000200946
0.00010216
9.16197e-05
0.000143411
0.000223368
0.00210162
0.00043303
0.00198164
0.000567473
0.000499628
0.00210846
0.000230095
0.00024835
0.00045931
0.00214524
0.000304308
0.000201359
0.000179967
0.00033249
0.00204487
0.00053841
0.000305215
0.000355548
0.000201106
0.000393461
0.00201063
0.000364545
0.000172277
0.000267521
0.000209184
0.000395505
0.000232863
0.00207105
0.000447879
0.000377699
0.000274409
0.00024493
9.41196e-05
0.00034997
0.000329928
0.00212947
0.000600852
0.0004712
0.000441342
0.000382888
0.000257836
0.000454586
0.000524244
0.000396498
0.00229827
0.000604173
0.000440292
0.000575834
0.000498398
0.000511147
0.000321071
0.000657504
0.000502028
0.00054267
0.00243609
0.000541896
0.000628128
0.000491798
0.000502545
0.000392901
0.000439368
0.000355773
0.000519155
0.000342307
0.000595895
0.00243406
0.000442291
0.000460689
0.000510839
0.000442363
0.000538983
0.00045334
0.000472594
0.000440885
0.000426046
0.000436533
0.000612979
0.00241422
0.000286462
0.000450479
0.000517954
0.000470286
0.00058461
0.000546123
0.000462211
0.000481504
0.000560805
0.000477289
0.000619723
0.000712356
0.00246291
0.000706217
0.000519472
0.000360044
0.000701428
0.000430024
0.000453536
0.000541879
0.000559986
0.000539857
0.000643515
0.000627942
0.00071898
0.000753029
0.00239667
0.000532472
0.00067512
0.000573047
0.000612788
0.00064123
0.000489886
0.000606257
0.000617877
0.000780291
0.00073695
0.000712415
0.00063119
0.000775497
0.0009249
0.00257106
0.000871617
0.000751269
0.000238548
0.000648399
0.000712997
0.00069226
0.00065778
0.000515479
0.000713664
0.000489899
0.000340172
0.00095832
0.000519976
0.000664004
0.000918782
0.00243458
0.00100833
0.000829219
0.000776629
0.000715607
0.000920371
0.00077105
0.000746078
0.000797597
0.000483699
0.000742744
0.000282828
0.000370488
0.000459197
0.000739864
0.000969446
0.00132999
0.00280902
0.000494416
0.00067087
0.000260443
0.00031222
0.000462552
0.000382647
0.00011515
0.000661581
0.000688105
0.000390351
0.000446319
0.000721836
0.000962295
0.000633798
0.0010669
0.000886217
0.00120987
0.0028204
0.000629502
0.000665477
0.000690949
0.000962752
0.000646699
0.000345393
0.000201298
0.000155465
0.000330018
0.000424341
0.000241669
0.000526149
0.000980856
0.000578477
0.000636328
0.00061874
0.00108372
0.00111983
0.0031896
0.000587339
0.000705502
0.000671323
0.000642636
0.000447643
0.00100606
0.00116809
0.00159827
0.00087368
0.000795794
0.000698375
0.000517079
0.000362042
0.000794296
0.00107427
0.00170175
0.00138727
0.000779885
0.000605779
0.00310538
0.000564383
0.000237064
0.000336306
0.000492213
0.000652873
0.000426532
0.000750254
0.0005526
0.000480041
0.000454192
0.000619827
0.00073792
0.00115336
0.00134395
0.00138196
0.000982075
0.000793529
0.000885716
0.00108893
0.00117157
0.000895186
0.000737841
0.000280578
0.000114843
0.000211139
0.000174449
0.000385202
0.000272147
0.000494322
0.000256426
0.000379632
0.000363892
0.000470628
0.000369199
0.000448996
0.0003996
0.000223256
0.000272138
0.000609587
0.000333538
0.000495335
0.000340747
0.000430723
0.000119901
0.000218782
0.000102759
5.55414e-05
6.74008e-05
8.95147e-05
0.000121316
9.84183e-05
9.91016e-05
6.89133e-05
9.58803e-05
0.000112902
0.000128517
4.98691e-05
7.73766e-05
0.000101447
0.000241117
0.000195909
0.000182132
0.000118858
0.000101013
0.000152634
0.000230604
0.00208158
0.000310164
0.00195656
0.000455503
0.000396845
0.00193005
0.000370871
0.000439295
0.000265633
0.00212496
0.000275331
0.000336102
0.00029886
0.000450034
0.00213747
0.000212218
0.000374156
0.000256015
0.000172289
0.000371559
0.00200885
0.000345287
0.000301177
0.000298422
0.000144617
0.000262998
0.000295154
0.00199283
0.000332444
0.000281904
0.00031162
0.00032314
0.000208611
0.00039691
0.000363608
0.00210269
0.000674385
0.000443023
0.000317379
0.000431225
0.000279003
0.000365174
0.000418466
0.000375599
0.00218071
0.000366636
0.000544877
0.000356071
0.000294046
0.000272222
0.000316976
0.000450263
0.000447794
0.000281067
0.00232437
0.000554052
0.000320268
0.000518911
0.000392067
0.000327703
0.000463962
0.000336295
0.000405171
0.000480842
0.000560253
0.00235209
0.000374867
0.000472736
0.000392094
0.000350943
0.00050247
0.000356766
0.000456574
0.000362835
0.000413831
0.000282948
0.000543347
0.00238239
0.00014905
0.000428285
0.000757569
0.000503273
0.000287641
0.000525504
0.000402855
0.000332049
0.000419428
0.000371802
0.000599282
0.000307142
0.00241174
0.00064228
0.000610281
0.000723635
0.00072332
0.000511942
0.000464972
0.000446598
0.00061694
0.000444299
0.000465432
0.000406406
0.000640197
0.000692656
0.00244996
0.000682114
0.000511934
0.000480495
0.000497293
0.000563718
0.000409103
0.000685919
0.000531668
0.000618508
0.000457221
0.000440458
0.000684784
0.000749894
0.000840368
0.00249194
0.000631152
0.00044269
0.000522844
0.000634543
0.000604482
0.000863325
0.000665956
0.000705084
0.00080062
0.000698197
0.000519928
0.000595623
0.000665615
0.00100328
0.000870613
0.00255196
0.000989186
0.000508965
0.000572046
0.00071396
0.000744803
0.000516215
0.000808259
0.000537635
0.000642677
0.000740883
0.000719095
0.000714094
0.000781014
0.000716758
0.000865223
0.000889482
0.00243131
0.000870403
0.000410453
0.000727577
0.000719723
0.00120401
0.000321695
0.000416034
0.000873817
0.000782686
0.000727838
0.000640238
0.000725906
0.000717684
0.000429723
0.000354635
0.00080227
0.00167864
0.00320977
0.000570042
0.000494275
0.000457136
0.000222578
0.000241674
0.000345135
0.000442255
0.000711592
0.000519452
0.000672701
0.000664174
0.000591978
0.000713999
0.000678128
0.000764692
0.000643006
0.000943928
0.00183772
0.00276181
0.000972234
0.000614574
0.000609648
0.000560805
0.000417561
0.000573648
0.000684408
0.000189796
0.000354384
0.000469373
0.000290951
0.000428038
0.000603555
0.00072946