/*--------------------------------*- C++ -*----------------------------------*\
  =========                 |
  \\      /  F ield         | OpenFOAM: The Open Source CFD Toolbox
   \\    /   O peration     | Website:  https://openfoam.org
    \\  /    A nd           | Version:  7
     \\/     M anipulation  |
\*---------------------------------------------------------------------------*/
FoamFile
{
    version     2.0;
    format      ascii;
    class       volScalarField;
    location    "5";
    object      p;
}
// * * * * * * * * * * * * * * * * * * * * * * * * * * * * * * * * * * * * * //

dimensions      [0 2 -2 0 0 0 0];

internalField   nonuniform List<scalar> 
18750
(
-76.4409
-76.1872
-77.4243
-76.5353
-76.6199
-76.8538
-76.4775
-77.9251
-77.4742
-76.625
-72.9653
-76.2554
-77.0533
-78.1654
-76.9763
-76.7871
-77.5399
-77.9637
-77.5203
-76.7079
-66.92
-74.1292
-72.8323
-79.2091
-76.3122
-77.8007
-78.4697
-78.219
-77.0841
-77.0492
-77.4029
-77.5791
-77.9979
-77.5621
-76.7845
-64.7473
-70.6812
-66.5614
-77.7728
-73.9496
-72.5702
-79.5229
-79.359
-76.5904
-78.4133
-78.3997
-78.5054
-78.2578
-77.1862
-77.3176
-77.2878
-77.4072
-77.612
-78.0275
-77.6012
-76.8546
-62.1932
-66.1076
-64.8971
-72.5703
-70.7361
-66.888
-78.2224
-77.8402
-73.9536
-72.7081
-79.9135
-79.4361
-79.5102
-77.0976
-78.8792
-77.7403
-78.3383
-78.5306
-78.297
-77.2826
-77.5858
-77.2598
-77.2829
-77.4055
-77.6397
-78.0538
-77.6384
-76.9196
-60.5303
-63.8469
-62.2636
-66.95
-66.0094
-64.9832
-73.2401
-72.3379
-70.7962
-67.1016
-76.8848
-78.3038
-77.9443
-74.4622
-72.9925
-78.6211
-79.8486
-79.3331
-79.6264
-77.7378
-79.6684
-77.376
-77.6617
-78.2546
-78.5314
-78.3315
-77.3846
-77.741
-77.1025
-77.2611
-77.2754
-77.3984
-77.6659
-78.0775
-77.6731
-76.9814
-59.1467
-61.2833
-60.5558
-63.2456
-63.8293
-62.2589
-67.0875
-67.0644
-66.1174
-64.8662
-72.7815
-73.0848
-72.5387
-71.1147
-67.1302
-75.5179
-76.831
-78.1711
-78.0829
-75.1623
-73.1672
-77.8426
-78.4496
-79.7798
-79.2419
-79.6509
-78.4744
-80.3394
-77.5298
-77.3325
-77.6069
-78.1841
-78.5117
-78.3629
-77.4813
-77.8813
-77.143
-77.1019
-77.2609
-77.2717
-77.3882
-77.6895
-78.0998
-77.7049
-77.04
-57.6822
-59.2133
-59.2646
-61.9481
-61.3152
-60.553
-64.3148
-63.0862
-63.9464
-62.0653
-66.8997
-67.1196
-66.8504
-65.919
-64.4257
-71.6384
-72.6833
-73.142
-72.7755
-70.9484
-67.3826
-75.7547
-75.3136
-76.8192
-78.0492
-78.1885
-76.0127
-73.7504
-78.4575
-77.6129
-78.3238
-79.559
-79.0982
-79.4834
-79.0912
-80.7775
-77.8956
-77.5157
-77.2854
-77.5591
-78.1307
-78.4716
-78.3924
-77.5625
-77.9768
-77.2232
-77.1513
-77.1009
-77.2542
-77.2753
-77.3776
-77.7121
-78.121
-77.7256
-77.0946
-57.055
-57.887
-57.8097
-59.6885
-59.377
-59.2984
-61.6391
-61.8827
-61.3132
-60.4828
-64.2156
-64.202
-62.9327
-63.6914
-61.8384
-67.4586
-67.2931
-66.7146
-66.729
-65.5837
-64.2756
-71.4684
-71.2003
-72.4861
-73.1136
-72.8781
-71.0647
-67.7749
-76.6943
-75.6036
-75.4325
-76.6104
-77.9243
-78.0107
-76.8124
-74.1393
-78.4117
-78.2719
-77.391
-78.079
-79.2623
-78.9258
-79.289
-79.6797
-81.4375
-77.7154
-77.8169
-77.4991
-77.2334
-77.4924
-78.0704
-78.419
-78.4161
-77.6333
-78.009
-77.1232
-77.2307
-77.1552
-77.0986
-77.2429
-77.2799
-77.3701
-77.7376
-78.1433
-77.7422
-77.1413
-56.4849
-57.0588
-57.1074
-58.1072
-57.8307
-57.7859
-59.6433
-59.5846
-59.1765
-59.1522
-61.8344
-61.7512
-61.7017
-61.0874
-60.5364
-63.7007
-64.1678
-63.8611
-62.7737
-63.1778
-61.7489
-67.4259
-67.3581
-67.8081
-66.147
-66.5133
-65.3185
-64.0301
-72.7302
-71.5999
-70.8843
-72.2316
-72.9985
-72.4886
-71.5258
-68.0115
-77.5777
-76.4971
-75.2629
-75.4762
-76.4402
-77.692
-77.5796
-77.5738
-74.5626
-77.5651
-78.1963
-78.0021
-77.1413
-77.7129
-79.0473
-78.7728
-79.2113
-80.2187
-82.0141
-77.2998
-77.6481
-77.7533
-77.4897
-77.1753
-77.3994
-77.9963
-78.3599
-78.4371
-77.6886
-77.9447
-77.1215
-77.1315
-77.2359
-77.157
-77.0953
-77.2303
-77.286
-77.3678
-77.757
-78.1601
-77.7657
-77.1765
-55.8016
-56.4141
-56.501
-57.1348
-56.9861
-57.0781
-58.1307
-58.2012
-57.7897
-57.8037
-59.7377
-59.6593
-59.6396
-59.1851
-59.2032
-61.413
-61.6215
-61.6075
-61.5984
-60.9964
-60.6855
-63.6706
-63.6964
-63.8225
-63.4521
-62.6514
-62.8264
-61.65
-67.9772
-67.4754
-67.9151
-67.0966
-66.475
-66.4246
-65.084
-63.6126
-73.5223
-72.6412
-71.404
-70.9127
-72.1118
-72.6788
-71.7867
-71.7073
-67.8491
-77.54
-77.2295
-76.2812
-75.083
-75.2436
-76.243
-77.51
-77.6308
-78.2146
-74.8881
-76.7747
-77.3825
-77.9852
-77.7461
-76.9626
-77.326
-78.8105
-78.6133
-79.1749
-80.6576
-81.9734
-77.4265
-77.2903
-77.566
-77.6783
-77.4862
-77.1244
-77.3052
-77.9144
-78.2951
-78.4491
-77.7151
-77.832
-76.8469
-77.1306
-77.1391
-77.2404
-77.1558
-77.0898
-77.216
-77.2837
-77.3531
-77.7734
-78.1765
-77.79
-77.2047
-55.5501
-55.8646
-55.8301
-56.5269
-56.4796
-56.5067
-57.1343
-57.2304
-57.113
-57.0605
-58.1272
-58.1912
-58.2735
-58.0495
-57.9107
-59.6437
-59.682
-59.6868
-59.7013
-59.4189
-59.2786
-61.4755
-61.404
-61.5833
-61.6877
-61.4166
-61.0871
-60.7033
-63.6175
-63.5227
-63.429
-63.408
-63.4281
-62.8255
-62.677
-61.4058
-68.7358
-68.1669
-67.555
-67.8832
-66.7875
-67.0061
-66.5568
-64.4202
-63.2609
-74.1227
-73.3192
-72.6948
-71.3825
-70.8091
-72.0091
-72.3609
-71.284
-71.7764
-67.5332
-77.0339
-77.0357
-76.9911
-75.856
-74.9219
-75.1449
-76.2583
-77.3259
-77.7142
-78.8798
-75.2035
-76.6968
-76.7228
-77.2081
-77.7158
-77.5974
-76.9362
-77.0286
-78.5134
-78.4879
-79.1559
-80.8374
-81.5339
-77.3656
-77.461
-77.2887
-77.5047
-77.5855
-77.4787
-77.0837
-77.2185
-77.8341
-78.2294
-78.4553
-77.7278
-77.6631
-76.7194
-76.8468
-77.1399
-77.1484
-77.2439
-77.1523
-77.0835
-77.2085
-77.2737
-77.3245
-77.7897
-78.2029
-77.8126
-77.231
-55.1237
-55.4662
-55.5414
-55.8943
-55.8643
-55.862
-56.4907
-56.5644
-56.4569
-56.5468
-57.1616
-57.2782
-57.2012
-57.1396
-57.0747
-58.1708
-58.1532
-58.2569
-58.1304
-58.0441
-57.9379
-59.6526
-59.643
-59.6156
-59.6032
-59.5672
-59.4547
-59.2795
-61.5641
-61.5177
-61.4078
-61.5946
-61.6659
-61.3796
-60.9955
-60.8454
-63.984
-63.8945
-63.6581
-63.2866
-63.1922
-63.2438
-62.7639
-62.3581
-60.996
-69.3074
-68.7203
-68.0569
-67.5327
-67.6202
-67.2098
-67.0497
-66.4417
-64.1819
-63.294
-74.6522
-73.9952
-73.1245
-72.4849
-71.4125
-70.6418
-71.6055
-71.8007
-71.2126
-71.71
-67.5834
-76.7078
-76.7355
-76.6549
-76.4701
-75.5562
-74.7829
-74.9928
-75.9607
-77.2343
-77.9665
-79.4443
-75.3282
-76.4683
-76.6646
-76.9353
-77.0567
-77.4269
-77.4611
-76.9691
-76.705
-78.1671
-78.4363
-79.2136
-80.9313
-80.8414
-76.9587
-77.3374
-77.4827
-77.2868
-77.4679
-77.5055
-77.4519
-77.0725
-77.1312
-77.7385
-78.1667
-78.4577
-77.7339
-77.4485
-76.5574
-76.7296
-76.8446
-77.146
-77.1577
-77.2454
-77.147
-77.0772
-77.2081
-77.2663
-77.2965
-77.7995
-78.2275
-77.8331
-77.2591
-54.8217
-55.1094
-55.1638
-55.525
-55.5051
-55.5503
-55.9872
-55.9199
-55.8938
-55.9183
-56.5234
-56.5351
-56.5466
-56.5261
-56.6044
-57.165
-57.2343
-57.3186
-57.1755
-57.1341
-57.1031
-58.3081
-58.184
-58.209
-58.2052
-58.0838
-57.9998
-57.9288
-59.6833
-59.694
-59.5278
-59.4879
-59.5153
-59.5395
-59.3171
-59.2041
-61.7756
-61.5533
-61.4474
-61.3991
-61.7751
-61.3665
-61.1567
-60.7459
-60.6102
-64.3643
-64.028
-63.8162
-63.5278
-63.2805
-63.0285
-62.9474
-62.8014
-62.1522
-60.6492
-69.2236
-69.197
-68.9824
-67.9831
-67.5443
-67.4691
-67.5417
-67.1208
-66.4299
-64.1327
-63.6694
-75.3296
-74.5993
-73.7781
-72.9269
-72.3122
-71.3911
-70.5074
-71.2576
-71.3475
-70.8376
-71.7479
-67.3702
-76.4045
-76.4425
-76.376
-76.3802
-76.0933
-75.3414
-74.7713
-74.8857
-75.7353
-77.3491
-78.3335
-79.9194
-75.2631
-76.1629
-76.4242
-76.649
-77.0301
-76.9992
-77.1863
-77.3345
-76.9424
-76.3771
-77.9349
-78.5598
-79.179
-80.6498
-79.9835
-76.7847
-76.9693
-77.3216
-77.5535
-77.2819
-77.4241
-77.4369
-77.4195
-77.0524
-77.0697
-77.6267
-78.1033
-78.4428
-77.7313
-77.2326
-76.5823
-76.5659
-76.7399
-76.84
-77.1457
-77.165
-77.2458
-77.1405
-77.0692
-77.2068
-77.2605
-77.2654
-77.8068
-78.253
-77.849
-77.2894
-54.6032
-54.8479
-54.8737
-55.1771
-55.2083
-55.1815
-55.5153
-55.5556
-55.5426
-55.5639
-55.9395
-55.9664
-55.9559
-55.9622
-55.9512
-56.5081
-56.5011
-56.5822
-56.6346
-56.6329
-56.6122
-57.2773
-57.1938
-57.2491
-57.2974
-57.2335
-57.1729
-57.0463
-58.4038
-58.2894
-58.1519
-58.1741
-58.1631
-58.1074
-58.0681
-57.9039
-59.8118
-59.6082
-59.4712
-59.4437
-59.5648
-59.3725
-59.5983
-59.3436
-59.0875
-61.9107
-61.692
-61.4824
-61.4745
-61.398
-61.5938
-61.3686
-61.0847
-60.7653
-60.5983
-64.7287
-64.133
-63.9038
-63.6328
-63.3883
-63.2678
-62.9611
-62.8843
-62.7649
-62.2695
-60.4884
-69.6556
-69.3021
-69.0194
-68.6377
-67.9567
-67.4308
-67.4005
-67.6467
-67.113
-66.4549
-64.4082
-63.8155
-75.3273
-75.56
-74.4562
-73.6369
-72.7411
-72.1261
-71.124
-70.5269
-71.1893
-71.398
-70.437
-71.975
-66.6163
-75.2474
-75.9482
-76.3329
-76.0763
-75.9376
-75.7872
-75.0388
-74.7577
-74.5689
-75.5756
-77.6961
-78.5553
-80.1018
-74.7908
-75.8281
-76.1097
-76.4055
-76.8437
-76.8117
-76.8985
-76.9941
-77.2661
-76.8819
-76.1767
-77.6866
-78.6971
-79.1763
-80.3737
-79.1113
-76.7205
-76.8017
-76.9814
-77.3133
-77.583
-77.2792
-77.3802
-77.3925
-77.4009
-77.0305
-77.006
-77.499
-78.0493
-78.4089
-77.7226
-77.091
-76.7261
-76.5894
-76.5749
-76.7495
-76.8332
-77.1432
-77.1705
-77.2454
-77.1328
-77.0602
-77.2046
-77.2558
-77.2303
-77.8116
-78.276
-77.8609
-77.3181
-54.3996
-54.6002
-54.6413
-54.8146
-54.8576
-54.8881
-55.0923
-55.1747
-55.1873
-55.1945
-55.4398
-55.5513
-55.5655
-55.5768
-55.5447
-55.9182
-55.9419
-55.9932
-56.012
-55.9869
-55.9588
-56.5062
-56.4827
-56.5608
-56.5943
-56.7143
-56.6221
-56.5891
-57.2863
-57.2493
-57.2261
-57.2921
-57.2975
-57.2277
-57.1654
-57.1049
-58.4618
-58.3319
-58.2986
-58.1819
-58.3365
-58.24
-58.1246
-58.0927
-58.0335
-60.0853
-59.7928
-59.674
-59.4015
-59.49
-59.6389
-59.5182
-59.5869
-59.4457
-59.1153
-62.0067
-61.8315
-61.3952
-61.4314
-61.4412
-61.3997
-61.4632
-61.3485
-61.0853
-60.7508
-60.826
-64.8654
-64.4712
-64.1018
-63.8757
-63.6167
-63.305
-63.3694
-63.3109
-63.234
-62.5881
-62.112
-60.3296
-69.9148
-69.5432
-69.3122
-69.0273
-68.9619
-67.8287
-67.4885
-67.3279
-67.5246
-67.1815
-66.6349
-64.013
-64.1602
-74.117
-74.8991
-75.1923
-74.3078
-73.2464
-72.5983
-71.9007
-71.0107
-70.7184
-70.9687
-71.4887
-70.3091
-72.6528
-66.3674
-74.244
-74.7978
-75.6732
-75.9224
-75.7693
-75.5081
-75.4183
-74.9428
-74.7555
-74.5257
-75.5507
-77.904
-78.9262
-79.7771
-74.0589
-75.5565
-75.8519
-76.1133
-76.3128
-77.024
-77.0759
-76.7959
-76.8623
-77.1749
-76.8727
-76.0146
-77.4527
-78.5993
-79.1936
-80.0839
-78.2313
-76.9145
-76.7497
-76.8421
-77.0134
-77.3022
-77.6096
-77.2854
-77.3294
-77.3449
-77.3585
-77.0223
-76.912
-77.3751
-77.9985
-78.3646
-77.7076
-76.9898
-77.0186
-76.7383
-76.5981
-76.5847
-76.7562
-76.8328
-77.1397
-77.1732
-77.2434
-77.1216
-77.0512
-77.2027
-77.234
-77.1997
-77.8139
-78.2997
-77.872
-77.3475
-54.2441
-54.3821
-54.4315
-54.6137
-54.6282
-54.6561
-54.8121
-54.8163
-54.8612
-54.897
-55.0897
-55.159
-55.1749
-55.1848
-55.2019
-55.4342
-55.5426
-55.5734
-55.6208
-55.5615
-55.5103
-55.9396
-55.9788
-56.0038
-56.0311
-56.0326
-55.9699
-55.9408
-56.5304
-56.5081
-56.5719
-56.5926
-56.6189
-56.6501
-56.5922
-56.5312
-57.4474
-57.2244
-57.2746
-57.3103
-57.344
-57.2608
-57.1565
-57.0623
-57.1792
-58.6692
-58.4832
-58.3288
-58.2364
-58.1834
-58.3331
-58.1867
-58.114
-58.092
-57.9968
-60.2595
-59.9968
-59.7301
-59.6156
-59.5202
-59.458
-59.6308
-59.6169
-59.5159
-59.3221
-59.028
-62.1421
-62.0354
-61.7732
-61.6832
-61.3716
-61.1594
-61.3202
-61.3423
-61.3411
-61.1028
-60.5404
-60.8605
-64.9104
-64.7013
-64.3239
-64.1971
-63.9849
-63.5855
-63.7379
-63.6199
-63.4476
-63.2699
-62.5747
-62.0722
-60.562
-69.8829
-69.7651
-69.251
-69.1942
-68.8097
-68.3374
-67.7657
-67.3282
-67.2318
-67.6753
-67.0334
-66.8128
-63.8035
-65.024
-72.76
-73.5473
-74.3295
-74.5105
-73.8571
-73.0022
-72.257
-71.6974
-71.0036
-70.5355
-70.6086
-71.6675
-70.3452
-72.7584
-66.6558
-73.9632
-74.0385
-74.4862
-75.5058
-75.6093
-75.7246
-75.065
-75.0796
-74.9408
-74.8093
-74.9
-75.6263
-77.7321
-79.0244
-79.5827
-73.341
-75.7791
-75.6511
-75.9408
-76.2372
-76.3349
-77.1272
-77.2446
-76.7482
-76.7577
-77.0319
-76.8356
-75.9566
-77.384
-78.3424
-79.1263
-79.5667
-77.4468
-77.1553
-76.9672
-76.7945
-76.8953
-77.0249
-77.285
-77.6679
-77.3033
-77.3016
-77.2963
-77.3271
-77.024
-76.8828
-77.2667
-77.9397
-78.3159
-77.6866
-76.9421
-77.1944
-77.0239
-76.7514
-76.6082
-76.595
-76.7611
-76.84
-77.1335
-77.1718
-77.2381
-77.108
-77.0433
-77.2042
-77.1867
-77.1683
-77.8163
-78.3248
-77.8838
-77.3761
-54.0775
-54.1469
-54.2565
-54.3779
-54.4114
-54.443
-54.598
-54.6557
-54.6681
-54.673
-54.8325
-54.8326
-54.8329
-54.9076
-54.8859
-55.1093
-55.1902
-55.1721
-55.1917
-55.1943
-55.1713
-55.4838
-55.5228
-55.5565
-55.6213
-55.5787
-55.5418
-55.528
-55.9284
-55.9935
-56.0507
-56.0537
-56.0471
-55.9704
-55.9987
-55.9883
-56.6146
-56.5242
-56.5504
-56.5728
-56.5988
-56.6383
-56.6147
-56.5982
-56.5789
-57.5989
-57.3625
-57.3292
-57.2737
-57.2939
-57.3573
-57.2697
-57.194
-57.1181
-57.0289
-58.9244
-58.6191
-58.3787
-58.2935
-58.2557
-58.2055
-58.2779
-58.1434
-58.12
-58.0953
-57.8889
-60.4704
-60.1506
-59.8762
-59.7279
-59.5948
-59.5517
-59.3876
-59.5996
-59.4908
-59.451
-59.2454
-58.9946
-62.5662
-62.1388
-61.9678
-61.6457
-61.4074
-61.4256
-61.0282
-61.1608
-61.2389
-61.0353
-61.1855
-60.6942
-60.8934
-64.8779
-64.7987
-64.6654
-64.404
-64.4245
-64.0207
-63.7005
-63.7767
-63.5947
-63.5882
-63.4128
-62.5512
-62.2047
-60.7967
-69.4701
-69.4792
-69.6061
-69.1913
-69.1064
-68.6328
-68.0144
-67.6301
-67.2517
-67.3879
-67.5771
-67.1581
-66.4815
-64.0242
-65.607
-71.7055
-72.4166
-73.1269
-73.8061
-73.9264
-73.5476
-72.5297
-72.0333
-71.4823
-70.9151
-70.5458
-70.6665
-71.9904
-70.8327
-72.9713
-67.2253
-74.0629
-73.9721
-73.9108
-74.2116
-74.7954
-75.2995
-75.5117
-74.8733
-74.8043
-74.9591
-74.9344
-75.1862
-75.5636
-77.4257
-79.11
-79.2737
-72.7788
-75.7377
-75.8434
-75.8243
-76.074
-76.3264
-76.4478
-77.3627
-77.1022
-76.7558
-76.639
-76.9238
-76.7617
-75.9505
-77.1726
-78.0514
-78.9724
-78.9525
-76.9238
-77.3824
-77.1896
-77.0323
-76.8339
-76.9543
-77.0322
-77.2612
-77.7443
-77.3282
-77.287
-77.2725
-77.2872
-77.0079
-76.8822
-77.1585
-77.8605
-78.2675
-77.6701
-76.9429
-77.1848
-77.199
-77.0303
-76.7643
-76.6177
-76.6042
-76.7596
-76.8489
-77.1243
-77.1677
-77.2267
-77.0947
-77.0369
-77.2065
-77.1413
-77.1295
-77.8208
-78.3483
-77.8941
-77.3899
-53.9477
-54.0696
-54.1043
-54.2617
-54.2338
-54.2748
-54.3997
-54.4371
-54.4364
-54.4557
-54.6342
-54.6383
-54.6841
-54.6775
-54.6613
-54.7991
-54.8422
-54.8775
-54.8826
-54.908
-54.8917
-55.1712
-55.187
-55.1849
-55.2172
-55.1838
-55.1918
-55.2338
-55.469
-55.5394
-55.5944
-55.5899
-55.6132
-55.5222
-55.5512
-55.608
-55.9849
-55.9838
-56.0444
-56.0648
-56.0795
-56.0754
-56.0463
-56.0818
-56.0674
-56.7857
-56.631
-56.5573
-56.5954
-56.5571
-56.6101
-56.6775
-56.6
-56.6636
-56.5599
-57.6622
-57.4861
-57.3846
-57.345
-57.2898
-57.3366
-57.3943
-57.3166
-57.2299
-57.1708
-56.994
-59.0267
-58.8083
-58.6488
-58.4707
-58.2887
-58.2533
-58.2185
-58.2657
-58.0482
-58.2104
-58.1865
-58.0435
-60.7475
-60.3409
-60.078
-59.8815
-59.7554
-59.6843
-59.4945
-59.5583
-59.5419
-59.4218
-59.3875
-59.2874
-59.0703
-62.83
-62.4934
-62.2284
-61.9556
-61.7185
-61.5793
-61.3627
-61.346
-61.1086
-61.1051
-61.1004
-61.2506
-60.6672
-60.9432
-65.1103
-64.9764
-64.9272
-64.7944
-64.7202
-64.4151
-64.2123
-63.8787
-63.6889
-63.6447
-63.7963
-63.6316
-62.6869
-62.2216
-60.8715
-69.1798
-69.2181
-69.2823
-69.1666
-69.0055
-68.8402
-68.485
-68.0334
-67.5627
-67.2438
-67.2534
-67.5739
-67.2834
-66.6
-64.1671
-66.0076
-71.7538
-71.7078
-72.0649
-72.741
-73.231
-73.48
-73.049
-72.1927
-71.9016
-71.3501
-70.6166
-70.838
-71.0494
-72.0853
-70.6863
-73.2443
-67.8896
-73.7333
-74.1505
-74.228
-73.9717
-74.0623
-74.7937
-75.4392
-75.2684
-74.5614
-74.6301
-74.8934
-75.107
-75.5173
-75.4554
-77.0529
-78.8341
-78.7423
-71.9664
-76.0823
-75.8069
-75.8992
-75.9902
-76.2102
-76.1923
-76.4912
-77.4974
-77.0506
-76.8227
-76.5554
-76.8558
-76.7461
-75.9373
-76.9848
-77.72
-78.6137
-78.2829
-76.4665
-77.4951
-77.3939
-77.2066
-77.0884
-76.8596
-77.015
-77.0409
-77.23
-77.8101
-77.3522
-77.2731
-77.2472
-77.2489
-76.9821
-76.8527
-77.056
-77.764
-78.2084
-77.6397
-76.9642
-77.0399
-77.1861
-77.2036
-77.0365
-76.7774
-76.6257
-76.6118
-76.7539
-76.8556
-77.1121
-77.161
-77.2121
-77.0817
-77.0242
-77.2061
-77.1056
-77.0899
-77.8269
-78.3693
-77.9038
-77.4239
-53.8081
-54.0119
-53.9509
-54.1681
-54.1703
-54.1094
-54.2594
-54.2927
-54.312
-54.2995
-54.4054
-54.4516
-54.443
-54.4534
-54.4823
-54.5725
-54.6182
-54.6633
-54.7036
-54.6597
-54.6891
-54.8722
-54.8788
-54.869
-54.9036
-54.8843
-54.9222
-54.9101
-55.2074
-55.2075
-55.1649
-55.2301
-55.2331
-55.1443
-55.2131
-55.2396
-55.5304
-55.5018
-55.5694
-55.5805
-55.6049
-55.5735
-55.4904
-55.5587
-55.5475
-56.2459
-56.0832
-56.0784
-56.0774
-56.0565
-56.0776
-56.0608
-56.0045
-56.1171
-56.0496
-56.9273
-56.777
-56.6843
-56.6509
-56.6098
-56.623
-56.6268
-56.5939
-56.702
-56.7077
-56.6515
-57.9587
-57.7492
-57.5848
-57.5456
-57.3797
-57.3574
-57.3606
-57.3787
-57.2553
-57.2797
-57.2386
-57.1676
-59.2204
-58.9731
-58.8704
-58.6329
-58.3953
-58.2842
-58.3287
-58.2427
-58.3067
-58.2731
-58.1975
-58.2017
-58.1301
-60.8951
-60.5979
-60.3172
-60.1713
-59.9594
-59.8138
-59.7151
-59.6906
-59.5968
-59.6799
-59.5361
-59.4635
-59.1743
-59.0712
-62.8629
-62.7503
-62.4684
-62.1781
-61.8688
-61.6431
-61.5454
-61.4546
-61.1766
-61.0514
-61.2643
-61.2902
-61.2726
-60.6025
-60.8846
-65.4216
-65.1877
-65.0852
-64.8415
-64.7538
-64.5458
-64.7305
-64.3307
-64.082
-63.7442
-63.6945
-63.6334
-63.638
-62.7718
-62.3328
-60.8357
-68.7013
-68.8848
-68.9016
-69.006
-68.9167
-68.8447
-68.6724
-68.4134
-68.0149
-67.7339
-67.5024
-67.4416
-67.5591
-67.2561
-66.6381
-64.0509
-65.9345
-71.2998
-71.6847
-71.7583
-71.7808
-72.3296
-72.7604
-73.1438
-72.6702
-72.189
-71.7615
-71.2867
-70.9017
-70.9956
-71.3256
-71.9992
-70.5948
-73.1828
-67.6425
-73.7581
-73.8413
-74.2723
-74.506
-74.0976
-73.8939
-75.068
-75.3987
-75.1954
-74.5165
-74.4791
-74.9099
-75.3312
-75.7708
-75.1691
-76.1355
-78.545
-78.2307
-71.3987
-76.2119
-76.1099
-75.8392
-75.9313
-76.1215
-76.3838
-76.2758
-76.5456
-77.5368
-77.1577
-76.8354
-76.5444
-76.7592
-76.6888
-75.9272
-76.8519
-77.3771
-78.1006
-77.5612
-76.0386
-77.4975
-77.4904
-77.4089
-77.2359
-77.1231
-76.8695
-77.055
-77.0418
-77.2059
-77.8684
-77.3915
-77.2811
-77.224
-77.2274
-76.9716
-76.8067
-76.9557
-77.667
-78.1438
-77.6062
-77.0643
-76.6913
-77.0407
-77.1847
-77.2074
-77.0401
-76.789
-76.6333
-76.6163
-76.7494
-76.8598
-77.0991
-77.1505
-77.1985
-77.0682
-77.006
-77.2045
-77.066
-77.0566
-77.835
-78.3935
-77.9137
-77.4569
-53.7051
-53.8065
-53.8229
-53.9641
-53.9638
-53.9706
-54.1143
-54.1422
-54.1379
-54.1431
-54.2279
-54.2856
-54.305
-54.3015
-54.3139
-54.4369
-54.4152
-54.4629
-54.4691
-54.47
-54.4999
-54.6677
-54.6352
-54.6816
-54.7014
-54.6783
-54.6791
-54.6864
-54.943
-54.935
-54.8767
-54.9188
-54.9408
-54.8482
-54.9483
-54.9227
-55.2616
-55.2315
-55.2215
-55.1991
-55.2471
-55.1883
-55.0891
-55.2101
-55.2251
-55.7762
-55.64
-55.6777
-55.6087
-55.596
-55.6151
-55.4669
-55.5328
-55.5693
-55.5423
-56.3529
-56.3994
-56.1323
-56.1422
-56.1113
-56.0677
-56.0836
-56.0297
-56.1193
-56.0434
-56.0617
-57.1551
-56.973
-56.8795
-56.7661
-56.6431
-56.6893
-56.678
-56.647
-56.6839
-56.6947
-56.6601
-56.6069
-58.1879
-58.0868
-57.8286
-57.64
-57.5309
-57.3783
-57.4685
-57.3972
-57.3625
-57.285
-57.2586
-57.2563
-57.1356
-59.3534
-59.2284
-59.03
-58.8441
-58.5805
-58.4959
-58.4135
-58.3345
-58.3319
-58.3457
-58.2419
-58.199
-58.1264
-58.0672
-60.9486
-60.702
-60.5429
-60.3466
-60.1135
-60.1095
-59.9322
-59.7941
-59.7068
-59.667
-59.6111
-59.4324
-59.5282
-59.2125
-58.9951
-63.0584
-62.8094
-62.7342
-62.5216
-62.083
-61.8276
-61.8089
-61.6922
-61.4984
-61.5246
-61.369
-61.3042
-61.2865
-61.2862
-60.6596
-60.8201
-65.3008
-65.3218
-65.1287
-65.1553
-65.028
-64.8253
-64.842
-64.8143
-64.4753
-64.0214
-63.9271
-63.4343
-63.5383
-63.6037
-63.0823
-62.3071
-61.1165
-68.5091
-68.5202
-68.5444
-68.554
-68.7805
-68.9378
-68.9448
-68.5462
-68.4625
-67.9969
-67.7551
-67.556
-67.5614
-67.5818
-66.9589
-67.0033
-64.0303
-65.5575
-71.2076
-71.235
-71.6508
-71.5647
-71.6091
-72.0509
-72.403
-72.8573
-72.4178
-72.1269
-71.636
-71.305
-71.2569
-71.4534
-71.6073
-71.9712
-70.4727
-73.2431
-67.4813
-74.1831
-73.8264
-73.9252
-74.3396
-74.6585
-74.2309
-74.3285
-74.4511
-74.8826
-74.724
-74.6476
-74.4931
-74.9697
-75.5282
-75.6925
-74.865
-75.5186
-77.8301
-77.6056
-71.151
-76.504
-76.2787
-76.1588
-75.8879
-75.9438
-76.1778
-76.5446
-76.3219
-76.6114
-77.7996
-77.2548
-76.8686
-76.5725
-76.6667
-76.6419
-75.8834
-76.6805
-77.0836
-77.5367
-76.8132
-75.7952
-76.792
-77.4296
-77.4749
-77.4268
-77.2566
-77.1612
-76.8775
-77.0601
-77.0485
-77.2021
-77.8853
-77.4416
-77.3084
-77.234
-77.2123
-76.9705
-76.7616
-76.8649
-77.578
-78.0863
-77.5711
-77.1806
-75.9321
-76.6893
-77.0396
-77.1825
-77.2087
-77.0432
-76.7959
-76.6401
-76.6152
-76.7449
-76.8642
-77.0853
-77.1393
-77.1831
-77.0548
-76.9896
-77.1999
-77.0446
-77.0299
-77.8432
-78.4197
-77.9225
-77.4908
-53.6276
-53.7066
-53.7248
-53.7948
-53.8325
-53.8464
-53.9749
-53.9744
-53.9957
-53.9874
-54.104
-54.119
-54.1453
-54.1811
-54.1641
-54.3443
-54.267
-54.2992
-54.326
-54.33
-54.3226
-54.4749
-54.4552
-54.4483
-54.5136
-54.4596
-54.5147
-54.5002
-54.7172
-54.7036
-54.6959
-54.7085
-54.7167
-54.6738
-54.6967
-54.6805
-54.937
-54.9692
-54.9531
-54.9379
-54.9412
-54.908
-54.89
-54.9416
-54.8967
-55.3897
-55.2862
-55.2876
-55.2902
-55.2304
-55.2153
-55.1812
-55.2097
-55.2799
-55.2304
-55.8145
-55.8101
-55.7191
-55.6628
-55.6656
-55.6349
-55.6228
-55.6038
-55.6093
-55.5693
-55.5868
-56.5249
-56.3646
-56.3038
-56.2179
-56.1305
-56.1356
-56.0895
-56.1019
-56.1645
-56.1083
-56.0764
-56.0504
-57.3562
-57.1391
-56.9562
-56.877
-56.8028
-56.7322
-56.687
-56.702
-56.6537
-56.7069
-56.6659
-56.7113
-56.5789
-58.3588
-58.3181
-57.9708
-57.7001
-57.6491
-57.5785
-57.521
-57.5019
-57.4911
-57.3536
-57.3298
-57.229
-57.2519
-57.1229
-59.6816
-59.3693
-59.2412
-58.9582
-58.7021
-58.6022
-58.4915
-58.3842
-58.3852
-58.3206
-58.3376
-58.1801
-58.1798
-58.1398
-57.9516
-61.1825
-61.0178
-60.701
-60.5569
-60.3367
-60.1864
-60.1323
-59.917
-59.7497
-59.7283
-59.6335
-59.519
-59.415
-59.5627
-59.2169
-58.8925
-63.029
-62.933
-62.7512
-62.662
-62.3993
-62.2364
-62.0044
-61.7997
-61.7501
-61.5335
-61.5061
-61.4586
-61.2932
-61.2152
-61.1905
-60.6456
-60.91
-65.1389
-65.1102
-65.1502
-65.0448
-64.7124
-65.1168
-64.9519
-64.8693
-64.5506
-64.2761
-64.0899
-63.8168
-63.6861
-63.7369
-63.4755
-63.114
-62.3398
-61.3496
-67.856
-68.2972
-68.3037
-68.3246
-68.3721
-68.5893
-68.8072
-68.8155
-68.412
-68.2002
-68.1242
-67.8193
-67.5001
-67.6417
-67.5807
-67.2987
-67.1935
-63.6518
-65.2232
-71.2622
-71.1256
-71.2668
-71.6404
-71.5951
-71.4718
-71.7565
-72.1558
-72.3784
-72.3144
-72.1561
-71.5802
-71.3733
-71.3899
-71.998
-71.5111
-71.939
-70.6827
-72.5167
-67.4971
-74.2452
-74.1844
-73.8966
-73.9666
-74.2943
-74.7345
-74.4422
-74.7233
-74.4274
-74.8996
-74.5777
-74.636
-74.6058
-75.1143
-75.4431
-75.5578
-74.8381
-75.1074
-76.7773
-76.3851
-71.0496
-75.6944
-76.245
-76.3156
-76.2344
-75.9589
-75.9667
-76.1706
-76.608
-76.3305
-76.7074
-77.9237
-77.2977
-76.9609
-76.6311
-76.6719
-76.5311
-75.8439
-76.4977
-76.7776
-77.034
-76.1452
-75.7603
-75.8385
-76.6619
-77.3549
-77.4492
-77.4342
-77.2627
-77.1831
-76.8902
-77.0498
-77.0626
-77.2046
-77.8826
-77.493
-77.3483
-77.3002
-77.2117
-76.9883
-76.7561
-76.7794
-77.4956
-78.058
-77.537
-77.2793
-75.349
-75.9138
-76.6808
-77.0363
-77.1786
-77.2076
-77.0473
-76.7975
-76.6458
-76.6114
-76.7393
-76.8666
-77.0667
-77.1291
-77.1684
-77.0414
-76.974
-77.1901
-77.0269
-77.0178
-77.849
-78.4434
-77.9438
-77.5265
-53.5216
-53.6368
-53.6384
-53.7247
-53.7239
-53.7402
-53.8251
-53.8584
-53.8667
-53.8639
-53.9653
-54.0136
-54.0013
-54.0094
-54.0155
-54.1331
-54.0947
-54.1595
-54.1587
-54.1432
-54.1795
-54.3665
-54.3317
-54.288
-54.3267
-54.3517
-54.3507
-54.3182
-54.5357
-54.5134
-54.4739
-54.4598
-54.5006
-54.499
-54.5143
-54.5074
-54.8325
-54.782
-54.6913
-54.7021
-54.707
-54.7138
-54.6779
-54.7126
-54.6881
-55.0131
-55.0604
-54.9874
-54.9429
-54.9436
-54.9433
-54.9545
-54.9348
-54.9834
-54.9122
-55.6022
-55.3661
-55.3684
-55.2924
-55.2504
-55.2745
-55.2311
-55.2697
-55.2027
-55.3075
-55.237
-56.0473
-55.861
-55.8788
-55.7342
-55.7051
-55.6681
-55.662
-55.6336
-55.5994
-55.5882
-55.6175
-55.5943
-56.6477
-56.4693
-56.3578
-56.3584
-56.2607
-56.221
-56.1903
-56.1516
-56.092
-56.134
-56.0473
-56.123
-56.1022
-57.3968
-57.2394
-57.1022
-56.9259
-56.8856
-56.8604
-56.801
-56.724
-56.7595
-56.7016
-56.776
-56.6607
-56.6774
-56.619
-58.6514
-58.4231
-58.1578
-57.9342
-57.7807
-57.7349
-57.5798
-57.5205
-57.4971
-57.503
-57.4514
-57.3654
-57.2547
-57.3241
-56.9825
-59.7546
-59.633
-59.4134
-59.1132
-59.0258
-58.7036
-58.6018
-58.4999
-58.4758
-58.4293
-58.315
-58.3528
-58.1234
-58.1045
-58.1488
-57.9398
-61.291
-61.1673
-60.95
-60.4804
-60.5669
-60.4995
-60.1886
-60.1071
-59.9061
-59.7469
-59.7537
-59.5312
-59.4876
-59.274
-59.4645
-59.1693
-58.9418
-62.9637
-63.0376
-62.7962
-62.6333
-62.4537
-62.4444
-62.3497
-62.049
-61.6948
-61.7761
-61.5441
-61.5221
-61.3849
-61.3933
-61.3958
-61.2441
-60.7894
-60.9021
-65.0549
-65.041
-65.0554
-65.0187
-64.953
-64.7909
-65.0938
-64.7409
-64.6895
-64.6364
-64.2601
-64.0543
-63.8362
-63.8345
-63.7087
-63.6836
-63.0687
-62.4104
-61.8177
-67.9271
-67.8997
-68.2442
-68.1877
-68.2119
-68.3011
-68.6657
-68.5194
-68.6039
-68.5399
-68.1531
-68.1981
-67.9193
-67.6351
-67.7565
-67.5486
-67.2255
-66.5641
-63.7308
-65.5701
-70.7461
-71.2115
-71.1223
-71.3437
-71.6291
-71.6522
-71.5187
-71.6936
-72.0677
-72.1341
-72.3439
-72.2373
-71.6166
-71.3666
-71.6858
-72.1308
-72.0092
-72.0181
-70.6438
-72.0585
-67.7708
-73.5192
-74.1519
-74.2109
-73.9998
-74.033
-74.1845
-74.734
-74.7319
-73.9883
-74.5551
-75.1261
-74.6213
-74.8283
-74.6745
-75.261
-75.4097
-75.5575
-74.7791
-74.5189
-75.7376
-75.785
-70.9752
-74.4957
-75.4259
-75.9963
-76.3389
-76.2766
-75.9857
-75.9633
-76.1332
-76.5743
-76.4037
-76.7591
-77.7605
-77.3676
-77.0466
-76.7945
-76.6842
-76.5428
-75.8897
-76.3536
-76.5728
-76.6229
-75.7003
-75.7202
-74.7142
-75.6767
-76.528
-77.2832
-77.4094
-77.4379
-77.2716
-77.1693
-76.8945
-77.0417
-77.0766
-77.2004
-77.8785
-77.5623
-77.4101
-77.3622
-77.2187
-76.984
-76.7512
-76.7149
-77.4489
-78.042
-77.4864
-77.3929
-74.5747
-75.3001
-75.8927
-76.6695
-77.0307
-77.1718
-77.2042
-77.0527
-76.7983
-76.6511
-76.6078
-76.7304
-76.8553
-77.0453
-77.12
-77.1549
-77.0274
-76.9594
-77.1784
-76.9941
-77.0053
-77.8513
-78.4703
-77.9811
-77.5635
-53.5124
-53.5315
-53.6239
-53.6554
-53.6855
-53.7169
-53.7599
-53.7501
-53.761
-53.87
-53.8574
-53.8659
-53.8182
-53.8939
-54.0033
-54.0148
-54.0504
-54.0137
-54.0098
-54.0371
-54.1714
-54.121
-54.1571
-54.1784
-54.1263
-54.1966
-54.1665
-54.4199
-54.3723
-54.3375
-54.3294
-54.347
-54.3065
-54.3682
-54.335
-54.6256
-54.5594
-54.5292
-54.501
-54.527
-54.5155
-54.5191
-54.531
-54.5354
-54.8323
-54.8689
-54.7743
-54.69
-54.7301
-54.7242
-54.7226
-54.6369
-54.7458
-54.7123
-55.1288
-55.1161
-55.1164
-55.0111
-54.977
-54.9963
-54.9519
-54.958
-54.8902
-54.9979
-54.929
-55.6364
-55.4536
-55.4777
-55.4139
-55.3309
-55.2942
-55.3243
-55.2728
-55.2497
-55.202
-55.2622
-55.2781
-56.2284
-55.94
-55.8911
-55.9371
-55.7516
-55.7448
-55.7041
-55.7063
-55.6289
-55.6325
-55.6242
-55.6326
-55.5792
-56.5721
-56.5693
-56.5166
-56.4615
-56.3515
-56.2852
-56.2237
-56.173
-56.1943
-56.138
-56.1207
-56.1793
-56.0497
-56.0401
-57.6022
-57.3874
-57.193
-57.2428
-57.0893
-56.9446
-56.9062
-56.8144
-56.7936
-56.7547
-56.7359
-56.7405
-56.7463
-56.6204
-56.5953
-58.7174
-58.6013
-58.2721
-58.0909
-58.0116
-57.8472
-57.7623
-57.619
-57.5624
-57.5377
-57.3845
-57.4014
-57.3322
-57.2459
-57.1856
-57.0955
-59.8897
-59.7288
-59.5645
-59.3792
-59.2258
-58.9697
-58.7664
-58.6647
-58.5449
-58.5272
-58.5046
-58.3238
-58.3247
-58.0715
-58.1363
-58.1298
-58.179
-61.3075
-61.2347
-61.0832
-60.8473
-60.9473
-60.5981
-60.3411
-60.2338
-60.0645
-59.9075
-59.8402
-59.7206
-59.3361
-59.5495
-59.374
-59.4165
-59.2093
-59.0316
-62.9711
-62.8801
-62.8535
-62.8109
-62.7042
-62.5792
-62.4224
-62.2776
-62.076
-62.0087
-61.8064
-61.7034
-61.5563
-61.408
-61.3658
-61.444
-61.289
-60.829
-60.8554
-65.1299
-64.9909
-64.8472
-65.0351
-65.0228
-64.8674
-64.8986
-64.971
-65.0628
-64.8727
-64.5986
-64.3087
-64.2048
-64.1143
-63.9945
-63.9705
-63.6109
-63.1007
-62.5936
-61.6973
-67.4193
-67.7237
-67.9353
-67.9352
-68.0053
-68.0903
-68.1483
-68.5494
-68.6786
-68.7763
-68.545
-68.3545
-68.4392
-67.8145
-67.8751
-67.6088
-67.4447
-67.2648
-66.6454
-64.8138
-65.2952
-70.1268
-70.5404
-71.2701
-71.0088
-70.9805
-71.4491
-71.6717
-71.5163
-71.7632
-71.8554
-72.0348
-72.0482
-72.2041
-71.4987
-71.5256
-71.9608
-72.3566
-72.2847
-71.7713
-70.2206
-71.8157
-67.8259
-72.3099
-73.1344
-73.9939
-74.1962
-74.0812
-74.1154
-74.1536
-74.7068
-74.7628
-73.9224
-74.2935
-74.863
-74.9185
-74.9882
-75.0585
-75.3981
-75.5099
-75.7546
-74.6365
-74.2707
-74.5163
-75.1653
-70.8984
-73.185
-74.2015
-75.1547
-75.7987
-76.3541
-76.3288
-76.0246
-75.9356
-76.0638
-76.5055
-76.4659
-76.8635
-77.7584
-77.4771
-77.1743
-76.9994
-76.7816
-76.6405
-75.9801
-76.297
-76.4511
-76.3461
-75.4412
-75.8729
-73.618
-74.5953
-75.5452
-76.3862
-77.2116
-77.3701
-77.4273
-77.2855
-77.1446
-76.8935
-77.0421
-77.0858
-77.1978
-77.8889
-77.6358
-77.4957
-77.3822
-77.2177
-76.973
-76.7491
-76.6838
-77.4387
-78.0434
-77.4269
-77.5139
-74.5551
-74.0935
-75.2508
-75.8631
-76.6573
-77.0234
-77.1644
-77.1993
-77.0572
-76.7983
-76.6561
-76.5953
-76.7202
-76.8332
-77.0231
-77.1117
-77.1412
-77.0128
-76.9449
-77.1662
-76.9705
-76.9928
-77.8505
-78.5024
-78.0211
-53.4882
-53.5309
-53.5547
-53.6329
-53.6446
-53.7029
-53.7047
-53.7687
-53.7372
-53.7638
-53.726
-53.7911
-53.8879
-53.8874
-53.8721
-53.8657
-53.8998
-53.9021
-54.0018
-54.0398
-54.0252
-54.026
-53.9866