/*--------------------------------*- C++ -*----------------------------------*\
  =========                 |
  \\      /  F ield         | OpenFOAM: The Open Source CFD Toolbox
   \\    /   O peration     | Website:  https://openfoam.org
    \\  /    A nd           | Version:  7
     \\/     M anipulation  |
\*---------------------------------------------------------------------------*/
FoamFile
{
    version     2.0;
    format      ascii;
    class       surfaceScalarField;
    location    "5";
    object      phi;
}
// * * * * * * * * * * * * * * * * * * * * * * * * * * * * * * * * * * * * * //

dimensions      [0 3 -1 0 0 0 0];

internalField   nonuniform List<scalar> 
54125
(
4.31039e-05
-5.23857e-05
-0.000376807
0.000258542
-0.000164296
-9.38163e-05
2.91739e-06
-8.77702e-05
-0.000721528
4.1761e-05
-4.68742e-05
-0.000371694
-0.000156978
2.59811e-05
0.00306498
0.000132814
-0.000237497
0.000564714
0.000253792
-0.00015359
-0.000152258
2.46247e-05
-0.000101677
-0.000195489
1.77978e-06
-7.84852e-05
-0.000691697
4.39987e-05
-4.6397e-05
-0.000369296
-0.00102525
0.000435537
0.00772207
-7.55195e-05
4.5106e-05
0.00173639
-1.53167e-05
8.90042e-06
0.00332519
9.89985e-05
-0.000267056
0.000286147
0.000117546
-0.000216694
0.000512051
0.000271265
-0.000158164
-0.000221359
2.24715e-05
-9.18835e-05
-0.000352802
1.61977e-05
-9.03448e-05
-0.000199827
7.84175e-08
-7.76311e-05
-0.000660541
4.56065e-05
-4.59744e-05
-0.000368928
-0.00111444
0.000354194
0.00709523
-0.000582576
0.000849494
0.00728648
-0.000807901
0.000457484
0.00805717
0.00011699
5.54387e-05
0.00114181
-3.43002e-05
1.74648e-05
0.00187967
2.72614e-05
-3.33288e-07
0.00356953
3.88817e-05
-0.000284445
-4.69873e-06
6.16463e-05
-0.000240878
0.000264883
0.000116227
-0.000221859
0.000459597
0.000237516
-0.000159651
-0.000253617
-6.92524e-06
-8.70967e-05
-0.000578804
1.18049e-05
-8.26809e-05
-0.000372271
9.51246e-06
-8.87783e-05
-0.000198193
-1.84093e-06
-7.69708e-05
-0.000627704
4.58529e-05
-4.56184e-05
-0.000369162
-0.00134962
0.000290954
0.00575231
-0.00137135
0.000949321
0.00911045
-0.00106712
0.000197735
0.00715672
3.58203e-05
0.000849076
0.00560163
-0.000346768
0.00075752
0.00729891
-0.000690846
0.000430308
0.00834497
-0.000128589
0.000102289
0.00184437
0.000108124
2.85132e-05
0.00108429
9.08679e-05
-1.78304e-06
0.00190648
1.26127e-05
1.34238e-05
0.00378101
-4.25819e-05
-0.000294704
-0.000243642
1.25848e-05
-0.000264276
1.79188e-05
3.76983e-05
-0.00024125
0.000256088
0.000113321
-0.000226401
0.000411186
0.000228753
-0.00015862
-0.000277897
-1.29507e-05
-8.62598e-05
-7.12656e-05
-9.9252e-06
-7.89601e-05
-0.000572599
5.24523e-06
-8.22043e-05
-0.00038409
3.92722e-06
-8.75748e-05
-0.000191516
-3.0896e-06
-7.64959e-05
-0.000593737
4.48893e-05
-4.53066e-05
-0.000368745
-0.0016236
0.000193301
0.00509244
-0.00171129
0.000349352
0.00607837
-0.00119373
7.61338e-05
0.00580279
-0.00019639
0.00143744
0.00852871
-0.00104364
0.000948629
0.00905642
-0.000963714
0.000197896
0.00723169
-8.78726e-05
0.000799619
0.00453217
0.000158281
0.000793577
0.00551542
-0.0001131
0.000754924
0.00717826
-0.000603008
0.000404336
0.00855625
-0.000287686
0.000158457
0.00282811
-0.000139149
8.86158e-05
0.001936
7.62221e-05
1.10764e-05
0.0010329
0.00015408
-1.60643e-05
0.00189521
5.36076e-05
1.64795e-05
0.00393967
-9.79567e-05
-0.000235294
4.94832e-05
-4.37327e-05
-0.000271389
-0.000202722
-5.76789e-06
-0.000269425
5.7107e-05
2.25991e-05
-0.000242389
0.000253404
0.000116197
-0.000227615
0.000360895
0.000231992
-0.000156062
-0.000308937
2.46774e-05
-7.90407e-05
-0.000211333
-1.86041e-05
-7.85406e-05
-5.3081e-05
-1.54311e-05
-7.89893e-05
-0.000560383
-2.768e-07
-8.19016e-05
-0.000389487
-1.15924e-06
-8.68601e-05
-0.000179992
-4.86301e-06
-7.61855e-05
-0.000557995
4.24952e-05
-4.50183e-05
-0.000366222
-0.00165469
4.96048e-05
0.0044295
-0.00149303
0.0003057
0.00491215
-0.00137399
0.000210937
0.00506176
-0.000715674
0.000897552
0.00730922
-0.00152415
0.000268512
0.00636651
-0.00105174
0.000102101
0.00578871
4.2001e-05
0.00140835
0.00799683
-0.000185017
0.00140498
0.00841566
-0.000884901
0.00102039
0.00900573
-0.00092349
0.000206087
0.00734608
-0.000276345
0.000592634
0.00501996
-7.99938e-05
0.000798584
0.00446801
0.000188587
0.000844984
0.00531299
3.38607e-05
0.000732103
0.00697072
-0.000483809
0.000372014
0.00872166
-0.000245263
0.000300999
0.00309709
-0.000226673
0.000144474
0.00295519
-0.000141843
8.97482e-05
0.00199341
0.000116578
-1.64588e-05
0.000939321
0.000265761
-2.4795e-05
0.00178692
4.68413e-05
3.1961e-05
0.00409286
-1.38407e-05
-0.000161291
0.000702574
-9.661e-05
-0.000222024
7.81249e-05
-5.12419e-05
-0.000277239
-0.000159097
-1.89366e-05
-0.000271631
0.000105008
1.30703e-05
-0.000241027
0.000252587
0.000122358
-0.000227028
0.000304639
0.000166568
-0.00015104
-0.000281971
1.27593e-05
-7.06293e-05
-0.000224053
1.92428e-05
-7.21391e-05
-0.000236977
-1.79235e-05
-7.92896e-05
-3.48572e-05
-1.93574e-05
-7.91275e-05
-0.0005438
-3.80895e-06
-8.16541e-05
-0.000390884
-5.9831e-06
-8.65592e-05
-0.000163636
-7.56516e-06
-7.5921e-05
-0.000519527
3.85908e-05
-4.47086e-05
-0.000360104
-0.00155546
-7.06292e-05
0.00466766
-0.00130802
-6.12154e-06
0.00573674
-0.0015345
0.000231389
0.00435862
-0.000852284
0.000360891
0.0059975
-0.00147173
0.000270262
0.00480041
-0.00119953
0.000239887
0.00496967
-0.000301349
0.000905209
0.00749618
-0.000832672
0.000872492
0.00735289
-0.00140151
0.000248702
0.00673651
-0.000941405
7.22999e-06
0.0057994
-0.000164793
0.0012851
0.00666339
0.000103001
0.00141103
0.00780778
-0.000123134
0.00149795
0.00824981
-0.000594004
0.0010451
0.00879458
-0.000905052
0.000270936
0.00749639
-0.00034173
0.000414643
0.00599146
-0.000176669
0.000616092
0.00515244
-6.49272e-05
0.000786103
0.00444998
0.000314751
0.000840922
0.005006
0.00015987
0.0006702
0.00677842
-0.000489214
0.000387094
0.00887062
-0.000167837
0.00041673
0.00317312
-0.000175398
0.00025115
0.0030692
-0.000231351
0.000165859
0.00305919
-0.000116763
8.36573e-05
0.00199112
1.04571e-05
-2.96064e-05
0.000946745
0.000295346
-2.95195e-05
0.00167541
-9.70682e-07
9.02873e-05
0.00417012
2.33285e-05
-0.000182397
0.000563075
-3.01897e-05
-0.000161338
0.00069132
-9.9546e-05
-0.000232647
0.000115155
-7.90314e-05
-0.00027917
-9.18834e-05
-3.17885e-05
-0.000267387
0.000159348
-4.88615e-07
-0.000235822
0.000255886
0.00011279
-0.000226519
0.000259763
0.000153519
-0.000143812
-0.000253087
1.30894e-05
-6.80421e-05
-0.000627234
1.01298e-05
-6.33187e-05
-0.000243003
1.30982e-05
-7.28222e-05
-0.000256543
-1.96134e-05
-8.00931e-05
-1.42781e-05
-2.39849e-05
-7.92496e-05
-0.000522219
-7.44979e-06
-8.13034e-05
-0.00038869
-9.259e-06
-8.67777e-05
-0.00014352
-1.26684e-05
-7.55612e-05
-0.000476006
3.34689e-05
-4.43743e-05
-0.000349198
-0.00165942
0.000141293
0.0042163
-0.00132631
-7.36835e-05
0.00529638
-0.0014317
-1.26119e-06
0.00456611
-0.000903317
0.000106339
0.00557574
-0.00128102
0.000191784
0.00558564
-0.00140947
0.000274779
0.00429378
-0.000435261
0.000611587
0.00630166
-0.00087086
0.000351554
0.0059544
-0.00139986
0.000273162
0.00476549
-0.001075
0.000227416
0.00487584
-0.000313928
0.00084424
0.00745311
-0.000223124
0.00119886
0.00749594
-0.000803746
0.000751531
0.00753068
-0.00110675
0.000183639
0.00707285
-0.000999462
-3.09001e-05
0.00592471
-0.00012517
0.00089097
0.0064638
-7.55042e-06
0.00116042
0.00674488
0.000214799
0.00148625
0.00753976
4.43644e-05
0.00152779
0.00803751
-0.000597386
0.00113903
0.00868375
-0.000878412
0.000336161
0.00754943
-0.00018515
0.000413768
0.00604657
-0.000343432
0.000440888
0.0063347
-0.000165529
0.000574044
0.00529868
-4.15174e-05
0.000753438
0.00446222
7.53746e-05
0.000795756
0.00481553
0.000270885
0.000609668
0.00658031
-0.000405491
0.000455645
0.00881949
-0.000110848
0.000454723
0.00283195
-0.000179382
0.00036345
0.00321001
-0.00016956
0.000261448
0.00304362
-0.000264375
0.000197855
0.00313033
-0.000147663
7.1472e-05
0.00200591
-4.18279e-05
-5.20272e-05
0.00101059
0.000274366
-8.89976e-06
0.00161302
4.40242e-05
0.0001144
0.00416521
1.51626e-05
-0.000210653
-8.36113e-05
-6.14687e-06
-0.000174059
0.000592073
-3.11394e-05
-0.000177708
0.00068062
-0.000111417
-0.000240348
0.000168136
-9.32145e-05
-0.000274181
-1.58593e-05
-4.25301e-05
-0.000258401
0.000217007
7.43717e-06
-0.000230511
0.000243182
0.000106414
-0.000224884
0.000221752
0.000109918
-0.000131931
-0.000197605
1.84826e-05
-6.525e-05
-0.000567557
7.86788e-06
-6.00356e-05
-0.000638384
8.53469e-06
-6.25797e-05
-0.00026178
1.04389e-05
-7.32795e-05
-0.000273795
-2.25139e-05
-8.05216e-05
9.50778e-06
-3.01777e-05
-7.90777e-05
-0.000494267
-1.08018e-05
-8.12799e-05
-0.000383386
-1.21865e-05
-8.67923e-05
-0.000120102
-1.65295e-05
-7.49958e-05
-0.000428855
2.75814e-05
-4.43594e-05
-0.00033242
-0.00177403
0.00010414
0.00315846
-0.00118903
8.81461e-05
0.00479862
-0.00145988
8.72308e-05
0.00415724
-0.00112523
2.76466e-05
0.00570496
-0.00113934
-6.10834e-05
0.00521453
-0.00134969
3.05248e-05
0.00447581
-0.000650672
0.000237593
0.00585328
-0.000829166
0.000193661
0.00553217
-0.00111959
0.000287423
0.00529272
-0.00140829
0.000269022
0.00435805
-0.000349121
0.000704451
0.00669444
-0.000390487
0.000613728
0.00620685
-0.000935442
0.000366576
0.00599268
-0.00140626
0.000303107
0.00498931
-0.00110048
0.000293686
0.00468318
8.03301e-05
0.000694263
0.00737809
-0.000116437
0.00107275
0.00768811
-5.51628e-05
0.000767949
0.00774948
-0.000657776
0.000596546
0.00781991
-0.00100553
0.000154793
0.0072953
-0.00100629
1.14243e-05
0.00604116
9.30875e-05
0.00042859
0.00689414
-0.00017492
0.000815185
0.00664052
0.000115734
0.00116138
0.00678849
0.000116256
0.00151323
0.00739655
-8.94584e-05
0.00151154
0.00782983
-0.000485721
0.00108801
0.0086885
-0.000826652
0.00037614
0.00759445
-4.70317e-05
0.00036248
0.00544485
-0.00020862
0.000471241
0.00604546
-0.000296496
0.000445175
0.00659051
-0.000132446
0.000511121
0.00540907
-0.000180303
0.000716011
0.0045746
-0.000141246
0.000761431
0.00476318
0.000254085
0.000551267
0.00650497
-0.000285794
0.000506189
0.00864312
-4.59236e-05
0.000484235
0.00193624
-0.000169637
0.000418893
0.00294
-0.000171079
0.000352234
0.00325917
-0.000199415
0.000294998
0.00303448
-0.000232822
0.000218998
0.00312242
-0.000131787
6.25018e-05
0.00198064
5.97424e-05
-6.25644e-05
0.00101195
0.000295169
2.05187e-05
0.00151815
9.3145e-05
0.000161482
0.0040205
7.62463e-06
-0.000190769
0.000621339
9.62555e-06
-0.000199311
-6.01163e-05
-2.50429e-06
-0.000182895
0.000608299
-2.50364e-05
-0.000192141
0.000667888
-0.000137638
-0.000242988
0.000252066
-9.94353e-05
-0.000269182
6.41799e-05
-5.19293e-05
-0.000245313
0.000272936
2.22189e-05
-0.000225535
0.000209428
9.94338e-05
-0.000220337
0.000194196
6.52781e-05
-0.000118529
-0.000116773
4.60826e-05
-5.18248e-05
-0.000263875
1.62989e-05
-5.75159e-05
-0.000586375
5.00637e-06
-5.86781e-05
-0.000647292
5.80943e-06
-6.19374e-05
-0.000278931
7.61812e-06
-7.34396e-05
-0.000288495
-2.46399e-05
-8.06931e-05
3.5763e-05
-3.54076e-05
-7.8633e-05
-0.000461507
-1.31442e-05
-8.08274e-05
-0.000376207
-1.61277e-05
-8.64517e-05
-9.25188e-05
-2.08934e-05
-7.43758e-05
-0.000377945
2.14404e-05
-4.43577e-05
-0.000309503
-0.00161281
-0.000170625
0.00346695
-0.00110793
0.000117793
0.00415548
-0.00153022
4.74623e-05
0.00318133
-0.00102443
5.1976e-07
0.00504297
-0.00103178
6.66887e-05
0.00471161
-0.00140537
-2.86927e-05
0.00424162
-0.000915143
0.000231114
0.00573754
-0.000895043
-9.85332e-05
0.00580828
-0.0010468
-3.10268e-06
0.00517537
-0.00129223
-3.21671e-05
0.00439191
-0.000450444
0.000347168
0.00577636
-0.000595742
0.000354031
0.00589817
-0.000833771
0.000272719
0.0054452
-0.00134623
0.00035971
0.005142
-0.00140226
0.000311709
0.00434812
-0.0001737
0.000838445
0.00679019
-3.24213e-05
0.000674982
0.00654917
-0.000315543
0.00063039
0.00620342
-0.000895837
0.00036008
0.00617377
-0.0012702
0.000328065
0.00521959
-0.00110089
0.000324536
0.00445324
4.21763e-05
0.000682592
0.0074786
3.34484e-05
0.000697095
0.00754537
-7.97743e-05
0.000659294
0.00799228
-0.00025375
0.00069955
0.00801648
-0.000643019
0.000509244
0.00801902
-0.000930428
0.000122546
0.00762889
-0.00100616
-3.30625e-05
0.00625373
0.000295775
0.000347363
0.0065176
9.28609e-06
0.000578482
0.00691294
-0.000115987
0.000821347
0.00680005
0.000135747
0.00115554
0.00687799
1.6313e-05
0.00139996
0.00731151
-0.000278116
0.00134453
0.00771018
-0.000442776
0.0010204
0.0087411
-0.000699209
0.000360417
0.00764744
-0.000130924
0.00048803
0.00489275
-0.000261866
0.000418505
0.00558981
-0.000175162
0.000355069
0.00613965
-0.000271627
0.000414378
0.00675946
-0.00017766
0.00050941
0.00556051
-0.000270619
0.000686137
0.00478873
-0.000135347
0.000646442
0.0048631
0.000224865
0.000540546
0.00654091
-0.000220373
0.000554732
0.00840191
-0.000116371
0.000454224
0.0016802
-6.39063e-05
0.000441226
0.00198744
-0.000153448
0.000413554
0.00302963
-0.000161627
0.00035064
0.00334012
-0.000221783
0.000309879
0.00302774
-0.000206055
0.000222542
0.003069
-8.86395e-05
6.19345e-05
0.00189285
0.000102205
-4.93478e-05
0.00100183
0.000288141
5.27206e-05
0.0014382
-7.51134e-06
0.000211602
0.00388169
1.80705e-05
-0.000171627
0.00102926
9.99458e-06
-0.000181013
0.000609345
4.41019e-06
-0.000204951
-3.74644e-05
3.37039e-06
-0.000188709
0.000607305
-1.24125e-05
-0.000204874
0.000649805
-0.000150755
-0.000245721
0.00035472
-0.000117401
-0.000262551
0.000163411
-5.92072e-05
-0.000229148
0.000322612
1.79584e-05
-0.000222757
0.000177762
9.20644e-05
-0.000212166
0.000174874
-6.48509e-06
-0.0001032
1.43523e-05
2.74607e-05
-4.2089e-05
-0.000815986
4.19553e-05
-4.60466e-05
-0.000317299
1.71948e-05
-5.65992e-05
-0.000605649
3.07218e-06
-5.75479e-05
-0.000654754
1.51458e-06
-6.1349e-05
-0.000292537
4.35236e-06
-7.3416e-05
-0.000300125
-2.72068e-05
-8.08122e-05
6.5149e-05
-4.24202e-05
-7.78143e-05
-0.000422099
-1.40482e-05
-8.0218e-05
-0.000368392
-2.01415e-05
-8.68606e-05
-5.98925e-05
-2.54216e-05
-7.38255e-05
-0.000323056
1.63571e-05
-4.44383e-05
-0.000281422
-0.00183292
0.000143709
0.00292513
-0.00129457
-2.45364e-05
0.00388423
-0.00140056
-0.00013063
0.00346793
-0.00104784
0.00014269
0.00446993
-0.00106755
0.000131795
0.00410692
-0.00153695
7.38367e-05
0.00323908
-0.00108501
8.14061e-05
0.00520645
-0.000823175
1.31342e-05
0.00502465
-0.00114554
3.61166e-05
0.00474554
-0.00130152
1.32372e-05
0.00423768
-0.000733579
0.000454486
0.00552733
-0.000842027
9.99286e-05
0.00578537
-0.000727786
-2.23903e-05
0.00572159
-0.00120549
-1.98478e-05
0.00502231
-0.00134591
4.13608e-05
0.0042942
-0.000385783
0.000538639
0.00582004
-0.000150695
0.00041121
0.00583745
-0.000484622
0.000439646
0.00590032
-0.000781603
0.000269675
0.005421
-0.00123787
0.000452428
0.00496895
-0.00135239
0.000326821
0.0042728
-0.000303281
0.000947177
0.00687324
-0.000135262
0.00076545
0.00686843
-0.000204276
0.000697607
0.00660645
-0.000509544
0.000551631
0.00626766
-0.000851582
0.000356959
0.00635344
-0.00113334
0.000330273
0.00541677
-0.00116357
0.000345987
0.00426466
-2.34902e-05
0.000817884
0.00786973
-1.06933e-06
0.000702862
0.00748319
5.27657e-05
0.000647301
0.00738861
0.000101534
0.000787329
0.00793871
-0.000235272
0.000511014
0.0082663
-0.000627297
0.000410458
0.00808029
-0.000720069
3.43435e-05
0.00783877
-0.000952656
-2.70869e-05
0.00653427
-0.000162438
0.000470617
0.00638945
-8.57722e-05
0.000500521
0.00641947
3.17097e-05
0.000649736
0.00687767
-0.000153347
0.000874697
0.00696261
-1.45153e-05
0.00105427
0.00706054
-8.43866e-05
0.00120266
0.00726714
-0.000450571
0.00115227
0.00789354
-0.000485339
0.00100151
0.00881021
-0.000761637
0.000388142
0.00780057
-0.000246946
0.00071386
0.00381123
-0.000219476
0.000506605
0.00496022
-0.000276253
0.000330042
0.00573765
-0.000185237
0.000373748
0.00620389
-0.000184765
0.000402351
0.0068295
-0.000223264
0.000487762
0.00577609
-0.000255249
0.000665013
0.00493676
-2.45199e-05
0.000593532
0.00493683
0.000191108
0.000523664
0.00666902
-0.000404715
0.000588506
0.0082106
-6.0781e-05
0.000295049
0.00203547
-0.00012884
0.000372589
0.00188767
-9.24567e-05
0.000430428
0.00206744
-0.000107963
0.000407569
0.00308403
-0.000100828
0.000322778
0.00341563
-0.000207547
0.000283498
0.00302358
-0.000210777
0.000230477
0.00299383
-8.12127e-05
7.33414e-05
0.00179217
9.63831e-05
-3.02024e-05
0.00100633
0.000220439
9.59464e-05
0.00142548
-0.000347475
0.00024056
0.00398212
5.66848e-05
-0.000154023
0.000672206
2.57653e-05
-0.000149764
0.00101421
2.17833e-05
-0.000186686
0.000586491
-3.93185e-06
-0.000205226
-1.39429e-05
1.04827e-05
-0.000193233
0.000586697
2.72799e-07
-0.00021551
0.000623673
-0.00013843
-0.000248029
0.000451422
-0.000126073
-0.000250824
0.00026874
-6.24709e-05
-0.000211084
0.000359362
2.18837e-06
-0.000221926
0.000165192
7.44833e-05
-0.000200139
0.000171909
-4.38163e-05
-9.37415e-05
0.000168267
6.06198e-06
-3.87589e-05
-0.000825369
2.14627e-05
-3.81965e-05
-0.000845298
3.96092e-05
-4.57007e-05
-0.000367807
1.68038e-05
-5.6167e-05
-0.000623834
-3.08498e-08
-5.66005e-05
-0.000659472
-2.839e-06
-6.07629e-05
-0.000302351
1.56269e-06
-7.33457e-05
-0.000309154
-3.00983e-05
-8.0784e-05
9.82169e-05
-4.83122e-05
-7.71266e-05
-0.000376879
-1.52583e-05
-8.05018e-05
-0.000359493
-2.18948e-05
-8.71002e-05
-2.47229e-05
-3.03391e-05
-7.35139e-05
-0.000263641
1.13261e-05
-4.45235e-05
-0.000248224
-0.00197907
0.000123389
0.00247523
-0.00145082
0.000216578
0.00339892
-0.00158544
4.25102e-05
0.0030675
-0.00126944
0.000199895
0.00403837
-0.00116131
-1.83729e-05
0.00386573
-0.00135983
-8.86059e-05
0.00337941
-0.00129871
0.000287284
0.00462606
-0.000791223
0.000135125
0.00443465
-0.00111573
9.37956e-05
0.00405715
-0.0015104
0.000183391
0.00326456
-0.000974316
0.000263171
0.00522853
-0.000933801
0.000103192
0.00520817
-0.000682485
2.92144e-05
0.00498625
-0.00115126
3.87227e-05
0.00466583
-0.00129008
3.80711e-05
0.00414378
-0.000599936
0.000587723
0.00547411
-0.00063659
0.000421869
0.00569129
-0.000704527
0.000100827
0.00588205
-0.000622014
3.07645e-05
0.00551139
-0.0011486
7.49966e-05
0.0048994
-0.00135173
5.01966e-05
0.00424335
-0.000566911
0.000712995
0.00584202
-0.000282424
0.000553182
0.00582523
-0.000345375
0.00049095
0.00592725
-0.000476006
0.000313435
0.00582302
-0.000702172
0.000254361
0.00546966
-0.00118492
0.000475371
0.00487198
-0.00140095
0.000280935
0.00422925
-0.000421422
0.00108317
0.00684822
-2.03338e-05
0.000844336
0.00681361
-0.000103297
0.000746087
0.00697601
3.19278e-06
0.000682972
0.00657345
-0.000712036
0.000499089
0.0066023
-0.000840452
0.000362707
0.00653416
-0.000900495
0.000393148
0.00555003
-0.00123149
0.000315327
0.00422816
-0.000318773
0.000885421
0.00793295
-0.000208957
0.000777759
0.00791801
-4.28823e-05
0.000723199
0.00748188
-2.94438e-05
0.000710578
0.00734146
-0.000167635
0.000616823
0.00798602
-3.49714e-05
0.00046706
0.00816028
-0.000490663
0.000199659
0.00795506
-0.000673752
2.81212e-05
0.00797198
-0.00100477
-2.91408e-05
0.00680654
-0.000224265
0.000433799
0.00592565
-0.00021413
0.000489287
0.00639534
-4.8056e-05
0.000587881
0.00625313
-1.50583e-06
0.0007792
0.00678944
-8.98351e-05
0.000885336
0.00703661
8.24204e-06
0.000912793
0.0071189
-0.000172809
0.00098849
0.00734848
-0.000347857
0.00103569
0.00818269
-0.000483519
0.000932456
0.00894052
-0.000888831
0.000439398
0.00784529
-1.40813e-05
0.000708908
0.002793
-0.000232311
0.00074296
0.00367834
-0.000280479
0.000591757
0.00488653
-0.000213444
0.000425405
0.00579147
-0.000132885
0.00037858
0.00625972
-7.59821e-05
0.000391038
0.00679466
-0.000284931
0.000501807
0.00601345
-0.000222271
0.000584347
0.00508701
-0.000104358
0.000491261
0.00516998
0.000122168
0.000504404
0.00685139
-0.000749937
0.000559829
0.00805324
-4.86268e-05
9.68307e-05
0.00230791
-5.50701e-05
0.000266612
0.00222228
-0.000111703
0.000406609
0.00204498
-0.000158732
0.000410806
0.002219
-2.65029e-05
0.000388348
0.00305545
-2.78158e-05
0.000288664
0.00343856
-0.000160911
0.000282497
0.00299404
-0.000192148
0.000197925
0.00293532
-5.20825e-05
0.000110366
0.00164121
0.000118471
-2.3107e-06
0.000988305
0.00016671
0.000115809
0.00145801
-0.000422234
0.000272669
0.00408787
-8.12737e-05
-0.000130742
0.000424713
-6.42014e-06
-0.000128232
0.000678556
3.77058e-05
-0.000145915
0.000975338
3.00324e-05
-0.000190079
0.000558116
-9.52936e-06
-0.000199745
2.06678e-06
-1.52084e-05
-0.000195715
0.000579272
-1.46738e-05
-0.00022433
0.00061621
-0.000175167
-0.000245662
0.000591328
-0.000150527
-0.000233445
0.000393315
-6.69164e-05
-0.000196883
0.000385977
2.85864e-06
-0.000221082
0.000161381
5.90851e-05
-0.00018917
0.000177913
-8.84305e-05
-8.81289e-05
0.000356153
2.27456e-05
-4.04837e-05
-0.000626474
-1.60832e-06
-3.48755e-05
-0.000827081
2.34726e-05
-3.82397e-05
-0.000876232
3.57409e-05
-4.61133e-05
-0.000413601
1.48113e-05
-5.58465e-05
-0.000639399
-3.92362e-06
-5.57951e-05
-0.000660516
-6.96031e-06
-6.02497e-05
-0.000308487
6.48164e-07
-7.31456e-05
-0.000317441
-3.39469e-05
-8.0515e-05
0.000135552
-5.16288e-05
-7.62074e-05
-0.000329544
-2.07142e-05
-8.07085e-05
-0.00034517
-2.25708e-05
-8.68881e-05
1.12222e-05
-3.62971e-05
-7.32224e-05
-0.000198645
8.12933e-06
-4.46608e-05
-0.000211693
-0.00196977
-5.53556e-05
0.00241342
-0.00174337
0.000417664
0.00311843
-0.00167166
3.89239e-05
0.00252253
-0.00151655
0.000280393
0.00363236
-0.00137154
0.000152716
0.00349894
-0.00147092
1.75342e-05
0.00316106
-0.0015507
0.000385175
0.00402577
-0.00101793
0.000182671
0.00406403
-0.00123062
-2.54122e-05
0.00391743
-0.0013514
-3.03377e-05
0.00325075
-0.00103961
0.00042881
0.00460218
-0.00102776
0.000243934
0.00461121
-0.000691016
0.000120182
0.00441679
-0.00120008
0.000184903
0.00410445
-0.00154387
0.000209813
0.00330854
-0.000923781
0.000428234
0.0053272
-0.000878509
0.000269252
0.00530439
-0.000750598
0.000102509
0.00518094
-0.000578919
3.95484e-05
0.00494233
-0.00105535
4.01389e-06
0.00460663
-0.00132941
7.17816e-06
0.00411428
-0.000702254
0.000708875
0.00547191
-0.000591584
0.000548171
0.00565697
-0.00062901
0.000244657
0.00583109
-0.000496336
2.49776e-05
0.00590817
-0.000582818
5.91015e-05
0.00540793
-0.00115232
0.000108089
0.00480891
-0.0013709
5.56511e-05
0.00415764
-0.000630339
0.000827528
0.00588834
-0.000226974
0.000696292
0.00590555
-0.000289149
0.000562829
0.00593921
-0.000314341
0.000442705
0.00611551
-0.000602245
0.000172091
0.0057955
-0.000739826
0.000372724
0.00547168
-0.00116024
0.000479437
0.00493323
-0.00145534
0.000257716
0.00419539
-0.000474667
0.00112504
0.00678423
-0.000254385
0.000916542
0.00682144
-0.00018966
0.000815212
0.00689127
-3.59109e-05
0.000763853
0.0069016
-0.000436563
0.000684511
0.00665696
-0.000236909
0.000489343
0.0066776
-0.000648362
0.000391215
0.00669379
-0.000901214
0.000365176
0.00572765
-0.0012544
0.000334477
0.00414332
-0.000202654
0.00092678
0.00735803
-0.000213311
0.000804002
0.00790589
-9.80726e-05
0.000862976
0.00782825
-2.84053e-05
0.000794834
0.00742452
-0.000119001
0.000694096
0.00729335
2.1428e-06
0.00060857
0.00785061
-0.000235292
0.000387541
0.00803488
-0.00048169
0.000293148
0.00782387
-0.000682023
0.000181607
0.00795973
-0.00112532
8.93279e-05
0.0069537
2.79148e-05
0.000476517
0.00591526
-0.000193898
0.00046264
0.00591388
-0.00017356
0.000577763
0.00629854
-6.3092e-05
0.000695913
0.00618606
3.48994e-05
0.000854608
0.00665238
2.75698e-05
0.000870273
0.00697558
-0.000112571
0.000825031
0.00711
-0.000187368
0.000827301
0.00752197
-0.000267524
0.000931574
0.00834674
-0.000558122
0.000898903
0.00916131
-0.000849146
0.000416183
0.00752831
-4.17157e-05
0.000666419
0.0024567
5.39415e-06
0.000769439
0.00270606
-0.000154488
0.000804384
0.0035085
-0.000349302
0.000682756
0.00481974
-0.000158525
0.000483782
0.00581829
-0.000136208
0.000390852
0.0063683
-4.89917e-05
0.000378818
0.00680573
-0.000304311
0.00048315
0.00622681
-0.000158507
0.000446389
0.0052383
-3.16085e-05
0.000414463
0.00541
4.73958e-06
0.000498754
0.00707443
-0.000920065
0.000597887
0.00795318
-0.000205441
-7.44556e-05
0.00256668
-0.00015071
0.000117964
0.00260085
-4.81721e-05
0.000254081
0.00246069
-0.000108274
0.00035033
0.00224376
-0.000152361
0.000371818
0.00237836
-2.96516e-05
0.000383634
0.00297492
-4.52811e-06
0.000284513
0.00342639
-0.000205044
0.000254329
0.00296751
-0.000184747
0.000210402
0.00286951
1.06707e-06
0.00014329
0.00142763
0.000100845
9.4091e-06
0.000996719
0.000158113
0.000141728
0.00148992
-0.000612859
0.000283865
0.00432843
-2.47413e-05
-7.66455e-05
0.00063933
-8.93689e-05
-0.000117467
0.000501708
5.79872e-05
-0.00012279
0.000620916
4.88591e-05
-0.000144076
0.000916217
3.23219e-05
-0.000187588
0.000528449
-1.8953e-05
-0.000192109
1.34895e-05
-2.25199e-05
-0.000197126
0.000567627
-2.83846e-05
-0.000228753
0.000628334
-0.000191487
-0.000241941
0.000757365
-0.000147101
-0.000219177
0.000511081
-7.33014e-05
-0.000186715
0.000404197
-4.67643e-06
-0.000219653
0.00017397
3.66973e-05
-0.000180794
0.000197584
-0.000101392
-8.85345e-05
0.000554209
3.33311e-05
-4.80602e-05
-0.000558399
1.87116e-05
-3.60672e-05
-0.000643994
-4.74125e-06
-3.46946e-05
-0.000825885
1.27646e-05
-3.83962e-05
-0.000896714
3.20333e-05
-4.62605e-05
-0.000455221
1.2488e-05
-5.56796e-05
-0.000652003
-9.07948e-06
-5.51868e-05
-0.000656499
-1.15195e-05
-5.97997e-05
-0.000310313
3.86012e-07
-7.28097e-05
-0.000325532
-3.71402e-05
-7.99861e-05
0.000176471
-5.39393e-05
-7.52599e-05
-0.000281054
-2.19779e-05
-8.05743e-05
-0.000329506
-2.52079e-05
-8.75115e-05
5.07192e-05
-4.17006e-05
-7.29902e-05
-0.000128615
4.73548e-06
-4.47299e-05
-0.000171699
-0.00190491
-4.11206e-05
0.0021173
-0.00194236
6.17161e-05
0.00281626
-0.00169478
-4.95138e-05
0.00248604
-0.00140879
0.000221977
0.00324135
-0.00156922
0.000253287
0.00310174
-0.00157888
3.1447e-05
0.00259904
-0.00167212
0.000300276
0.00367732
-0.00125106
0.000258045
0.00376017
-0.0013843
0.000102939
0.00356722
-0.00142826
3.78082e-05
0.00320011
-0.00114056
0.000535418
0.00413183
-0.00120215
0.000308682
0.00407415
-0.000946748
0.000172511
0.00412184
-0.0012744
2.93701e-05
0.00393204
-0.0014381
-3.21377e-05
0.00317712
-0.00108843
0.000592707
0.00466473
-0.00102237
0.000397082
0.00459289
-0.00082413
0.000252801
0.00455213
-0.000655566
0.000242211
0.00443613
-0.00108145
0.000234854
0.00410551
-0.00152792
0.000180196
0.00332685
-0.00086138
0.000580189
0.00525066
-0.000658688
0.000385645
0.00527791
-0.000762211
0.000272562
0.00526754
-0.000572555
0.000107007
0.0051897
-0.000531123
8.90915e-06
0.00488574
-0.0011566
9.42339e-08
0.00461799
-0.00132221
3.28062e-05
0.00403279
-0.000633657
0.000786062
0.00559384
-0.000636376
0.00063917
0.00579031
-0.000613912
0.00037741
0.00584898
-0.000584774
0.000132102
0.0059944
-0.000299628
1.83738e-05
0.00564628
-0.000539658
6.98926e-05
0.00524596
-0.00111688
0.000150546
0.00467066
-0.00147285
5.43001e-05
0.00412085
-0.000554852
0.000892811
0.00591987
-0.000342455
0.000729249
0.00594346
-0.000414707
0.000673945
0.00601948
-0.000250895
0.00054075
0.00605614
-0.000544848
0.000309168
0.00608672
-0.000363371
0.000307344
0.00598734
-0.000710825
0.000363202
0.00565038
-0.00120583
0.000493611
0.00500195
-0.00139685
0.000238195
0.00409965
-0.000268801
0.00113057
0.00699916
-0.000364986
0.000956093
0.00689635
-0.000275614
0.000890571
0.00692362
-2.03819e-05
0.000817382
0.00682971
-0.00014873
0.000745275
0.00687057
-0.00045558
0.000687058
0.00691696
-0.000620995
0.000488395
0.00696612
-0.000599702
0.000458617
0.00671836
-0.00101171
0.000385409
0.00600641
-0.00151643
0.00034608
0.00418834
-0.000104567
0.0011386
0.00709426
-0.000214349
0.000896179
0.00728631
-3.30354e-05
0.000925985
0.00770235
-0.000136906
0.000930052
0.00776685
-5.66427e-05
0.000831289
0.00737887
0.000167423
0.000746512
0.00701556
1.52375e-05
0.000665952
0.00744439
-5.00445e-05
0.000464777
0.00772593
-0.000278593
0.00044154
0.00757501
-0.000775278
0.000342189
0.00792403
-0.00116314
0.000137524
0.00713017
-1.27478e-05
0.000698159
0.0055609
9.7037e-05
0.000581909
0.00570435
-0.000106669
0.000603861
0.00583996
-0.00029165
0.000674834
0.00626196
-0.000124566
0.000754528
0.00625218
-6.1954e-05
0.000876548
0.00657185
9.5219e-06
0.000860716
0.00688138
-0.00048333
0.00077615
0.00734017
-0.000396047
0.000795244
0.00789584
-0.000253558
0.000840591
0.008627
-0.000627326
0.000747901
0.00946166
-0.00104282
0.000470497
0.00718057
-0.000295129
0.000504303
0.00244807
-5.65545e-05
0.000620053
0.00251193
-4.81364e-05
0.000758555
0.00275185
-0.000176347
0.000808886
0.00345044
-0.000332605
0.000729586
0.00475419
-9.40748e-05
0.000533378
0.00574019
-5.04797e-05
0.000438566
0.0063545
-1.76457e-06
0.000406327
0.00667927
-0.000233551
0.000437249
0.00628476
4.4743e-05
0.00037013
0.00523896
1.76007e-05
0.000364873
0.00562712
0.000155781
0.000518134
0.00715652
-0.00112923
0.000571015
0.00789854
-0.000176774
-0.00011202
0.00219612
-0.000256839
-7.56027e-05
0.00292772
-8.13909e-05
6.70219e-05
0.00292728
-5.39689e-05
0.000203275
0.00271057
-9.51369e-05
0.000256232
0.0024868
-0.000115042
0.000337597
0.00252049
-1.50066e-05
0.000368313
0.00288361
2.20629e-05
0.000273306
0.00335697
-0.00016461
0.000216929
0.00293411
-9.75484e-05
0.000239693
0.00272355
8.16189e-05
0.000150548
0.00113157
7.37126e-05
3.38593e-05
0.0010262
-5.62304e-06
0.000170181
0.00164592
-0.000657136
0.000290858
0.00459332
1.33176e-05
1.12087e-05
0.000871917
-2.73172e-05
-8.71381e-05
0.00065503
-6.95827e-05
-0.000116401
0.000560161
4.32124e-05
-0.000117127
0.000563519
5.61172e-05
-0.000146857
0.000851401
3.35412e-05
-0.00018185
0.000497137
-2.73213e-05
-0.000184245
1.885e-05
3.65596e-06
-0.000195917
0.000519616
-4.3349e-06
-0.000230033
0.000621147
-0.00018383
-0.000242343
0.000927221
-0.000156583
-0.000204824
0.000631834
-7.30863e-05
-0.000178888
0.000414541
-2.0142e-05
-0.000216617
0.000204728
3.19156e-05
-0.000179486
0.00021492
-0.000118323
-9.11994e-05
0.000768467
2.47197e-05
-5.26548e-05
-0.000137107
3.06831e-05
-4.24031e-05
-0.000582746
1.76378e-05
-3.57442e-05
-0.000660582
-7.58792e-06
-3.46274e-05
-0.000822066
7.26443e-06
-3.85753e-05
-0.000911663
2.69115e-05
-4.67435e-05
-0.000491068
1.01656e-05
-5.57253e-05
-0.00066163
-1.3107e-05
-5.46786e-05
-0.000648513
-1.40154e-05
-5.94204e-05
-0.000309687
1.42804e-06
-7.22959e-05
-0.00033465
-4.01839e-05
-7.91555e-05
0.000220551
-5.75064e-05
-7.42009e-05
-0.000229921
-2.06531e-05