/*--------------------------------*- C++ -*----------------------------------*\
  =========                 |
  \\      /  F ield         | OpenFOAM: The Open Source CFD Toolbox
   \\    /   O peration     | Website:  https://openfoam.org
    \\  /    A nd           | Version:  7
     \\/     M anipulation  |
\*---------------------------------------------------------------------------*/
FoamFile
{
    version     2.0;
    format      ascii;
    class       surfaceScalarField;
    location    "5";
    object      phi_0;
}
// * * * * * * * * * * * * * * * * * * * * * * * * * * * * * * * * * * * * * //

dimensions      [0 3 -1 0 0 0 0];

internalField   nonuniform List<scalar> 
54125
(
4.35376e-05
-5.23979e-05
-0.000386835
0.000261648
-0.000163742
-0.000111776
3.19607e-06
-8.75704e-05
-0.000728531
4.21367e-05
-4.68671e-05
-0.000382104
-0.000151683
2.38238e-05
0.00309217
0.000134564
-0.000237477
0.000557505
0.000256527
-0.000153139
-0.000173028
2.42205e-05
-0.00010149
-0.00020087
2.01591e-06
-7.83223e-05
-0.000699092
4.42932e-05
-4.63773e-05
-0.00038002
-0.00103971
0.000435666
0.00777421
-7.4206e-05
4.21254e-05
0.00174081
-4.87974e-06
7.78577e-06
0.00334579
9.76696e-05
-0.000266693
0.000282551
0.000119389
-0.000216899
0.000503893
0.000267507
-0.000157542
-0.0002387
2.23955e-05
-9.1849e-05
-0.000356876
1.58388e-05
-9.01859e-05
-0.000204845
2.58419e-07
-7.74865e-05
-0.000668241
4.57503e-05
-4.59416e-05
-0.000379829
-0.00113899
0.000343331
0.00709341
-0.000536606
0.000848336
0.00726073
-0.000789111
0.000458946
0.00809949
0.000115315
5.32021e-05
0.00113508
-1.58019e-05
1.41527e-05
0.00186964
2.57962e-05
1.68955e-06
0.00358581
3.80866e-05
-0.000284277
-1.21887e-06
6.02288e-05
-0.00024068
0.000261942
0.00011823
-0.000222127
0.000450507
0.000236882
-0.000158759
-0.000271073
-7.48037e-06
-8.70274e-05
-0.00058108
1.16891e-05
-8.26522e-05
-0.000376099
9.21422e-06
-8.86234e-05
-0.000202922
-1.58161e-06
-7.68407e-05
-0.00063576
4.58556e-05
-4.55735e-05
-0.000380111
-0.00134887
0.000268597
0.00574161
-0.00130749
0.000968314
0.00909602
-0.00106494
0.000202297
0.00716695
4.52597e-05
0.000852212
0.00558177
-0.000304131
0.000752315
0.00725569
-0.000675421
0.000423412
0.0083773
-0.000132195
0.000100813
0.00185811
0.000109287
2.56367e-05
0.00107453
0.000112982
-2.89047e-06
0.00187946
2.04437e-05
1.52458e-05
0.003787
-4.3692e-05
-0.000294725
-0.000241889
1.15914e-05
-0.000264083
2.22817e-05
3.71884e-05
-0.000241192
0.000253032
0.000114892
-0.00022664
0.000401914
0.00022739
-0.000157551
-0.000295056
-1.32737e-05
-8.62278e-05
-7.01476e-05
-1.03675e-05
-7.88949e-05
-0.000574469
5.10164e-06
-8.21687e-05
-0.000387655
3.60371e-06
-8.74141e-05
-0.000195953
-2.88758e-06
-7.63716e-05
-0.000602075
4.47431e-05
-4.52493e-05
-0.000379605
-0.00161485
0.000191781
0.00509093
-0.00171577
0.000349199
0.00613078
-0.00118999
6.30568e-05
0.0058036
-0.000175958
0.00145054
0.00850129
-0.00100825
0.00096943
0.00903301
-0.000953524
0.000202555
0.00724249
-8.5621e-05
0.000802331
0.00450479
0.000173741
0.000793722
0.00547591
-7.23617e-05
0.000749575
0.00711487
-0.000585944
0.000399211
0.00858448
-0.000290388
0.000156843
0.00283782
-0.000139572
8.79153e-05
0.00194699
7.31119e-05
8.73928e-06
0.00102698
0.000168141
-1.66227e-05
0.00185808
5.36899e-05
1.981e-05
0.00394089
-9.77668e-05
-0.000236256
4.98439e-05
-4.47561e-05
-0.000271424
-0.000200159
-6.51901e-06
-0.000269411
6.21221e-05
2.20245e-05
-0.000242479
0.000250451
0.000118155
-0.000227752
0.000351073
0.000220561
-0.000154836
-0.000316038
2.42523e-05
-7.90167e-05
-0.000207701
-1.88612e-05
-7.85117e-05
-5.16696e-05
-1.58292e-05
-7.89231e-05
-0.000561886
-3.75134e-07
-8.18604e-05
-0.000392834
-1.44925e-06
-8.66809e-05
-0.000184194
-4.78216e-06
-7.60644e-05
-0.000566477
4.21962e-05
-4.49521e-05
-0.000376849
-0.00165935
6.14481e-05
0.00441623
-0.00151093
0.000303397
0.00488635
-0.00136345
0.00020713
0.00505726
-0.000712451
0.000906373
0.00731355
-0.00150971
0.000269011
0.00642628
-0.0010419
9.51545e-05
0.00579682
5.47174e-05
0.00142703
0.00795038
-0.000167027
0.00142193
0.00838957
-0.000845548
0.00103768
0.00897107
-0.000919893
0.000215455
0.00736099
-0.00027918
0.00059003
0.00503878
-8.10298e-05
0.00079605
0.00444392
0.000193007
0.00085072
0.00525487
5.74237e-05
0.000725322
0.00689947
-0.000477015
0.000370202
0.00874498
-0.000240308
0.00029832
0.00308068
-0.000226517
0.00014501
0.00296248
-0.00014112
8.94866e-05
0.00200084
0.00011076
-1.8661e-05
0.000940282
0.000277661
-2.46643e-05
0.00174305
3.24878e-05
4.11326e-05
0.00408783
-1.6096e-05
-0.000162023
0.000704083
-9.62904e-05
-0.000222992
7.88407e-05
-5.34016e-05
-0.000277497
-0.000154501
-1.98953e-05
-0.000271026
0.000110189
1.23768e-05
-0.000241181
0.000250054
0.000123389
-0.000226999
0.000295065
0.000164754
-0.000149715
-0.000288881
1.21796e-05
-7.07854e-05
-0.000220688
1.88831e-05
-7.21465e-05
-0.000232949
-1.81397e-05
-7.92803e-05
-3.31727e-05
-1.97518e-05
-7.90691e-05
-0.000544925
-3.90937e-06
-8.15961e-05
-0.00039401
-6.00757e-06
-8.63537e-05
-0.000167897
-7.65355e-06
-7.57953e-05
-0.000527981
3.81903e-05
-4.46343e-05
-0.000370405
-0.00155718
-6.98595e-05
0.00465726
-0.00131609
7.21781e-06
0.00570212
-0.001536
0.000241152
0.00434762
-0.000848174
0.000363026
0.00600268
-0.00147463
0.000266858
0.00479155
-0.00118694
0.000234334
0.00496796
-0.000293201
0.000920562
0.00752517
-0.000832203
0.000869943
0.00737779
-0.00137041
0.000242762
0.00680353
-0.000941673
-6.18853e-06
0.00582479
-0.000151969
0.00128356
0.00665024
0.00011435
0.00142679
0.00775014
-0.000104791
0.00151038
0.00821467
-0.000567345
0.00105933
0.00875196
-0.000902717
0.000284465
0.00750223
-0.000351862
0.000414626
0.00603643
-0.000178879
0.000613393
0.0051738
-6.09964e-05
0.000783541
0.00443098
0.000306403
0.000836711
0.00494783
0.000177596
0.000658355
0.00671139
-0.000481412
0.000398108
0.00886077
-0.000177851
0.000416548
0.00317957
-0.000170683
0.000250593
0.00304949
-0.000231981
0.000169052
0.0030615
-0.000118113
8.10662e-05
0.00199933
-1.45277e-06
-3.15747e-05
0.000961022
0.000297371
-2.82345e-05
0.00163844
6.5675e-06
9.5595e-05
0.00415042
1.92859e-05
-0.000182357
0.000569821
-3.11308e-05
-0.000162382
0.000693487
-0.000100977
-0.0002335
0.00011768
-8.29758e-05
-0.00027872
-8.35835e-05
-3.27197e-05
-0.000266874
0.000164693
-4.52256e-07
-0.000236014
0.000253513
0.000112786
-0.000226495
0.000251406
0.000148386
-0.000142442
-0.000256635
1.27503e-05
-6.82922e-05
-0.000625272
9.69439e-06
-6.34847e-05
-0.000239044
1.27547e-05
-7.28585e-05
-0.000252125
-2.00009e-05
-8.00817e-05
-1.21591e-05
-2.42324e-05
-7.92052e-05
-0.000523083
-7.63556e-06
-8.12184e-05
-0.000391509
-9.20789e-06
-8.65538e-05
-0.000147931
-1.30143e-05
-7.5442e-05
-0.000484159
3.29304e-05
-4.42546e-05
-0.00035908
-0.00165774
0.000139672
0.00421891
-0.00132741
-7.46588e-05
0.00529005
-0.00143462
2.58583e-06
0.00455329
-0.000893528
0.000109818
0.00556786
-0.00128592
0.000204355
0.00555021
-0.00140574
0.000277998
0.00428843
-0.000432398
0.000618422
0.0062975
-0.000878034
0.000355563
0.00595981
-0.00139799
0.000271965
0.0047815
-0.0010696
0.000224297
0.00487159
-0.000298212
0.000853402
0.00749359
-0.000199569
0.00117408
0.00753496
-0.000793724
0.000738206
0.00757128
-0.00107595
0.000174688
0.00713125
-0.00100073
-3.38697e-05
0.00595668
-0.000142115
0.000882064
0.00649111
1.26664e-06
0.00115739
0.00673949
0.00022247
0.0014871
0.00748995
5.33009e-05
0.00153071
0.00799639
-0.000591589
0.00114661
0.008659
-0.000871139
0.000346578
0.00754538
-0.000190683
0.000419634
0.00603542
-0.000338102
0.000443444
0.0063738
-0.000161643
0.00056108
0.00532592
-5.61184e-05
0.000745054
0.00446064
2.83128e-05
0.000789111
0.00478731
0.00028014
0.000602691
0.00652404
-0.000384624
0.000464868
0.00878709
-0.000120745
0.000456871
0.00284809
-0.000181341
0.000362581
0.00321779
-0.00017661
0.000264113
0.00303007
-0.000265587
0.000200149
0.00312502
-0.000147307
6.93535e-05
0.00201299
-4.15926e-05
-5.36511e-05
0.00102758
0.000277765
-6.06541e-06
0.00157512
5.46023e-05
0.000120466
0.00412374
1.36137e-05
-0.000210673
-7.39686e-05
-8.07523e-06
-0.000174284
0.000599492
-3.12165e-05
-0.00017886
0.000682818
-0.000113545
-0.000240948
0.000173453
-9.37874e-05
-0.000273729
-7.17301e-06
-4.33222e-05
-0.000257851
0.000222216
8.54824e-06
-0.00023072
0.000239982
0.000105883
-0.000224892
0.000214958
0.000103455
-0.000130379
-0.000196781
1.81026e-05
-6.54099e-05
-0.000566841
7.48844e-06
-6.02417e-05
-0.000636003
8.19116e-06
-6.27676e-05
-0.000257326
1.02884e-05
-7.33287e-05
-0.000269167
-2.28531e-05
-8.0527e-05
1.20158e-05
-3.04671e-05
-7.9029e-05
-0.000494806
-1.09289e-05
-8.11845e-05
-0.00038595
-1.20574e-05
-8.65937e-05
-0.000124722
-1.69207e-05
-7.48432e-05
-0.000436649
2.69758e-05
-4.42901e-05
-0.000341766
-0.00177362
0.000105608
0.00315917
-0.00118909
8.61329e-05
0.00479559
-0.00145915
8.20805e-05
0.00416136
-0.00111907
2.39268e-05
0.00571048
-0.00114178
-5.93184e-05
0.00520782
-0.00134641
3.07292e-05
0.00446323
-0.00064844
0.000243622
0.00585279
-0.000832575
0.000201043
0.00552571
-0.00112479
0.00029433
0.00526068
-0.00140957
0.000272824
0.00435557
-0.000332201
0.000711425
0.00668873
-0.000379259
0.000619841
0.00621292
-0.000935775
0.000367145
0.00600668
-0.00139732
0.000304726
0.00502245
-0.00109923
0.000292625
0.00467746
7.83379e-05
0.00069223
0.00738538
-9.93196e-05
0.0010505
0.00771775
-5.69619e-05
0.000753908
0.00779869
-0.000643522
0.000574754
0.00786804
-0.000997276
0.000149207
0.00735386
-0.0010048
5.70362e-06
0.00608464
0.000101251
0.000445746
0.00690055
-0.000165629
0.000813574
0.00666245
0.000121267
0.00115361
0.00679007
9.57617e-05
0.00150647
0.00736231
-0.00012082
0.00149607
0.00779607
-0.000473098
0.00108064
0.00867818
-0.000813811
0.000381389
0.00759317
-6.8853e-05
0.000365526
0.00545035
-0.000209396
0.000457658
0.00604926
-0.000300141
0.000436751
0.00662166
-0.000134338
0.000504541
0.00543519
-0.00019744
0.00071106
0.00458883
-0.000167532
0.000749905
0.00476604
0.000259205
0.000547336
0.00646013
-0.000262614
0.000516841
0.00858747
-5.16353e-05
0.000486365
0.00194142
-0.000176503
0.000419734
0.00295936
-0.000173713
0.000352399
0.00327201
-0.000201199
0.000298283
0.00301959
-0.000226703
0.000220267
0.00310703
-0.000127227
6.14274e-05
0.00198182
7.06703e-05
-6.23983e-05
0.00102179
0.000297524
2.40295e-05
0.00147991
9.30843e-05
0.000169923
0.00396419
7.08063e-06
-0.000191085
0.000627921
8.19351e-06
-0.00019932
-4.96372e-05
-2.4655e-06
-0.000183217
0.000614507
-2.40016e-05
-0.000193242
0.000669403
-0.000141089
-0.000243386
0.000261346
-0.000100719
-0.000268781
7.40092e-05
-5.25716e-05
-0.000244612
0.000277751
2.33438e-05
-0.000225743
0.000205432
9.89965e-05
-0.000220119
0.000188782
5.48301e-05
-0.000117007
-0.000107628
4.57834e-05
-5.19324e-05
-0.000262269
1.60245e-05
-5.76575e-05
-0.00058545
4.52021e-06
-5.88732e-05
-0.000644418
5.53931e-06
-6.2123e-05
-0.000274071
7.42122e-06
-7.35133e-05
-0.000283602
-2.48885e-05
-8.07144e-05
3.85897e-05
-3.56431e-05
-7.8579e-05
-0.000461768
-1.32168e-05
-8.07495e-05
-0.000378577
-1.62962e-05
-8.62731e-05
-9.6996e-05
-2.12165e-05
-7.42675e-05
-0.000385455
2.08455e-05
-4.42776e-05
-0.000318334
-0.00161207
-0.000170651
0.00346574
-0.00110881
0.00011934
0.00415453
-0.00152989
4.81987e-05
0.00318171
-0.00102188
-8.86435e-07
0.00504209
-0.00103665
6.15707e-05
0.00471096
-0.00140166
-3.09492e-05
0.00424756
-0.000915571
0.000228825
0.00573844
-0.000886871
-9.96451e-05
0.00580511
-0.00104753
-2.45267e-06
0.00516373
-0.00129573
-3.00949e-05
0.00437949
-0.000434962
0.000350463
0.00577809
-0.000589819
0.000363332
0.00590106
-0.000832947
0.00027812
0.00543909
-0.00135204
0.000367775
0.00512045
-0.00139681
0.000313838
0.00433932
-0.000170109
0.000839979
0.00680463
-2.49951e-05
0.000681774
0.00655247
-0.000322873
0.000629126
0.00621685
-0.000892476
0.000363171
0.00619719
-0.00125929
0.000328147
0.00524894
-0.00110038
0.00032189
0.00445115
4.27733e-05
0.000689907
0.00748364
3.93002e-05
0.000696588
0.00753436
-7.06853e-05
0.000650939
0.00801267
-0.000263916
0.000681198
0.00805192
-0.000643367
0.000493312
0.00804648
-0.00091637
0.000117561
0.00768528
-0.000999441
-4.16126e-05
0.00631188
0.000262727
0.000369286
0.00649797
2.1831e-06
0.000587684
0.00691486
-0.000119554
0.000819963
0.00681551
0.000124231
0.00114218
0.00689579
-6.98266e-06
0.00136993
0.007298
-0.000306795
0.00131542
0.00770055
-0.000433962
0.00101551
0.00873722
-0.000691925
0.000361029
0.00766145
-0.000149668
0.000496046
0.00489322
-0.000276347
0.00040794
0.00559991
-0.000178531
0.000354943
0.00613588
-0.000262208
0.000411707
0.0067755
-0.000188764
0.000506991
0.00560132
-0.000277019
0.000680267
0.00480826
-0.000124974
0.000637354
0.00487166
0.000209002
0.000539897
0.00652559
-0.000230849
0.000558952
0.00835245
-0.000119015
0.000454005
0.0017026
-6.93867e-05
0.000442829
0.00199591
-0.000148479
0.000414293
0.00304348
-0.000158836
0.000349744
0.00335538
-0.00022424
0.000307933
0.00301507
-0.000205391
0.000222485
0.00305064
-8.6349e-05
6.16384e-05
0.00189156
0.000106704
-4.73688e-05
0.00100983
0.000289676
5.7992e-05
0.00140117
-5.42027e-05
0.000219712
0.00385351
1.83279e-05
-0.000171525
0.00103163
1.01528e-05
-0.000181278
0.000615751
3.27331e-06
-0.000204868
-2.67391e-05
3.69351e-06
-0.000189098
0.000612208
-1.01192e-05
-0.000205938
0.000649495
-0.000149982
-0.000246043
0.000363701
-0.000118485
-0.000261841
0.000174079
-5.9483e-05
-0.000228381
0.000326656
1.74984e-05
-0.000223288
0.000174807
9.05866e-05
-0.000211861
0.000171832
-1.39997e-05
-0.000102127
2.93443e-05
2.74163e-05
-4.20988e-05
-0.000814508
4.18761e-05
-4.61346e-05
-0.000315668
1.69772e-05
-5.67182e-05
-0.000604582
2.53536e-06
-5.77267e-05
-0.00065135
1.23243e-06
-6.15392e-05
-0.000287278
4.18795e-06
-7.35126e-05
-0.000294991
-2.76574e-05
-8.08281e-05
6.84962e-05
-4.26496e-05
-7.77508e-05
-0.000422117
-1.40796e-05
-8.01543e-05
-0.000370616
-2.03364e-05
-8.66564e-05
-6.42707e-05
-2.59853e-05
-7.36721e-05
-0.000330076
1.5853e-05
-4.43736e-05
-0.000289813
-0.00183017
0.000140453
0.00293069
-0.00129383
-2.52384e-05
0.00388466
-0.001399
-0.000129643
0.0034645
-0.00104169
0.000142395
0.00446888
-0.00106832
0.000131445
0.00410296
-0.00153801
7.65105e-05
0.00324155
-0.00108532
8.10384e-05
0.0052083
-0.000818981
1.2167e-05
0.0050236
-0.00114751
3.40533e-05
0.00474594
-0.00129781
1.16207e-05
0.00423802
-0.000732568
0.000457144
0.0055326
-0.000838051
9.87074e-05
0.00578832
-0.000719947
-1.95183e-05
0.00570917
-0.00121039
-1.67648e-05
0.00500875
-0.00134695
4.38689e-05
0.00428576
-0.000377167
0.00054134
0.00581963
-0.000144294
0.000417487
0.00584324
-0.000478077
0.000442648
0.00589174
-0.000777902
0.000269959
0.00542233
-0.00123385
0.000453426
0.00495542
-0.0013513
0.000326599
0.00426364
-0.000305959
0.000947955
0.0068889
-0.000127225
0.000768078
0.00688485
-0.000206935
0.000700676
0.00661717
-0.00051606
0.000547786
0.00628437
-0.000851381
0.000357459
0.00637589
-0.00111791
0.000330708
0.00544166
-0.00116279
0.000344016
0.00427049
-4.31948e-05
0.000825157
0.0078844
-1.08889e-05
0.000705627
0.00748768
4.33485e-05
0.000644264
0.00737813
8.35268e-05
0.00078643
0.00794814
-0.000222231
0.000491164
0.00826932
-0.000607032
0.000397177
0.0080671
-0.000698828
2.10129e-05
0.00788752
-0.000947285
-2.82189e-05
0.00659546
-0.000171875
0.000477882
0.00637496
-9.47778e-05
0.000511439
0.00639264
3.47889e-05
0.000659978
0.00686152
-0.000157087
0.000873672
0.0069789
-3.15308e-05
0.00103001
0.00707847
-9.7609e-05
0.00116909
0.00726492
-0.000458407
0.00112698
0.00792251
-0.000506134
0.000989895
0.00882349
-0.000777645
0.000396981
0.00781127
-0.000254981
0.000728201
0.0037909
-0.000234881
0.000520008
0.00494665
-0.000274524
0.000340608
0.00574029
-0.000187212
0.000376196
0.00619977
-0.000172202
0.000398344
0.00683211
-0.00022894
0.000486009
0.00581913
-0.000255277
0.000654255
0.00496028
-1.90038e-05
0.000584971
0.0049523
0.000188702
0.000520046
0.00666547
-0.000456964
0.000593621
0.00816159
-6.02175e-05
0.000295414
0.00206024
-0.00012951
0.000371123
0.00191397
-9.96019e-05
0.000430819
0.00208226
-0.000100134
0.000406919
0.00309014
-9.20217e-05
0.000318528
0.00342669
-0.000203849
0.000279508
0.00301192
-0.000213095
0.000227745
0.00297914
-7.90733e-05
7.56505e-05
0.00178813
9.82499e-05
-2.73551e-05
0.00101442
0.00020428
0.000100404
0.00140678
-0.000383773
0.000245755
0.00397753
5.55187e-05
-0.000153878
0.000671024
2.62069e-05
-0.000149741
0.00101577
2.22656e-05
-0.000186916
0.00059251
-4.81833e-06
-0.000204969
-3.51401e-06
8.71075e-06
-0.000193651
0.000592442
-3.85858e-07
-0.000216626
0.000624653
-0.000139318
-0.000248013
0.000461534
-0.000127444
-0.000249583
0.000280075
-6.25559e-05
-0.000210277
0.00036212
2.21591e-06
-0.000222539
0.000162933
7.29275e-05
-0.000199985
0.000170777
-5.05553e-05
-9.28804e-05
0.000188633
5.90436e-06
-3.87604e-05
-0.000827789
2.12041e-05
-3.81905e-05
-0.000843656
3.97284e-05
-4.57119e-05
-0.000366403
1.66339e-05
-5.6269e-05
-0.000622674
-2.69345e-07
-5.67633e-05
-0.000655856
-3.05073e-06
-6.09544e-05
-0.000296785
1.66084e-06
-7.34529e-05
-0.000304028
-3.03402e-05
-8.08073e-05
0.000101893
-4.85336e-05
-7.70539e-05
-0.000376684
-1.52192e-05
-8.04433e-05
-0.00036161
-2.22546e-05
-8.68783e-05
-2.88097e-05
-3.0984e-05
-7.3382e-05
-0.000270083
1.10338e-05
-4.44706e-05
-0.000256376
-0.00197579
0.000122441
0.00247656
-0.00145028
0.000212839
0.00340205
-0.00158261
4.06269e-05
0.00307367
-0.00126248
0.000199466
0.00403829
-0.00116019
-1.95573e-05
0.00386645
-0.00135994
-8.65453e-05
0.00337298
-0.00129317
0.000286562
0.00462569
-0.000786019
0.000133854
0.00443351
-0.00111998
9.57844e-05
0.00405615
-0.00151024
0.000185721
0.00326826
-0.000974332
0.000263866
0.00523217
-0.000928126
0.000103239
0.00520731
-0.000678103
2.85076e-05
0.00498731
-0.00114997
3.55053e-05
0.00466164
-0.00128915
3.63908e-05
0.00414383
-0.000598307
0.000589873
0.00547948
-0.000634181
0.000418246
0.00570295
-0.000693565
9.79252e-05
0.00588636
-0.000619067
3.35145e-05
0.00550006
-0.00114805
8.07279e-05
0.00488609
-0.00135304
5.25125e-05
0.00423499
-0.000567741
0.000712404
0.00584637
-0.000276296
0.000557869
0.00582832
-0.000352742
0.000494689
0.00593701
-0.000476774
0.000302797
0.00581962
-0.000702673
0.000256211
0.00547084
-0.00118152
0.000475197
0.00487044
-0.00140001
0.000280461
0.0042204
-0.000434714
0.0010807
0.00685362
-3.2822e-06
0.000842431
0.00680694
-0.000102585
0.000744799
0.00698666
-1.94083e-05
0.000681879
0.00658601
-0.000707224
0.000499231
0.0066276
-0.000826035
0.000366997
0.0065586
-0.000884619
0.000390751
0.00558072
-0.00123227
0.000310155
0.00424532
-0.000314224
0.000890301
0.00793155
-0.000204524
0.00078056
0.00791921
-4.30672e-05
0.000728573
0.00748122
-4.44754e-05
0.00071568
0.00733627
-0.00015613
0.000599784
0.00796412
-3.5732e-05
0.000463039
0.00814158
-0.000492801
0.000186551
0.00793596
-0.000674301
3.79298e-05
0.00798954
-0.00100992
-2.57047e-05
0.00685344
-0.000234966
0.00043665
0.00591713
-0.000222458
0.000497417
0.00637656
-5.34846e-05
0.000599368
0.00623221
-9.07687e-06
0.000789728
0.00676733
-7.8487e-05
0.000880093
0.0070351
2.91331e-06
0.000894603
0.00712111
-0.000186182
0.000952166
0.00737064
-0.000335116
0.00102154
0.00820698
-0.000491422
0.000926572
0.00897402
-0.000902796
0.000437456
0.00781965
-1.52833e-05
0.00071954
0.00278814
-0.000225876
0.000754857
0.00365242
-0.000289009
0.000606377
0.00487029
-0.000207348
0.000438669
0.00578503
-0.000129762
0.0003767
0.00625915
-6.83495e-05
0.000390432
0.00679219
-0.000298116
0.000496333
0.00606207
-0.000213973
0.000574069
0.00510609
-0.000106232
0.000483201
0.00519362
8.89701e-05
0.000502021
0.00687238
-0.00078841
0.000560712
0.00800552
-5.32416e-05
9.80373e-05
0.0023324
-5.48812e-05
0.000266814
0.00224563
-0.000109556
0.000404751
0.00207186
-0.000163682
0.000409383
0.00223866
-2.3684e-05
0.000387642
0.00305342
-2.36162e-05
0.000285531
0.00344389
-0.00016002
0.000278784
0.00298158
-0.000189171
0.000195011
0.00292151
-4.79238e-05
0.00011435
0.00163179
0.00012406
1.42097e-06
0.000991561
0.000162914
0.000119901
0.00144265
-0.000445341
0.000275812
0.0040965
-8.1532e-05
-0.000130921
0.000425
-9.76491e-06
-0.00012805
0.000680302
3.80839e-05
-0.000145809
0.000976305
3.04346e-05
-0.000190122
0.000563862
-1.0045e-05
-0.000199439
1.20499e-05
-1.73901e-05
-0.000196351
0.000586506
-1.35964e-05
-0.000225444
0.000617341
-0.000177433
-0.000245167
0.000604211
-0.000152539
-0.000231933
0.000405736
-6.70891e-05
-0.000196502
0.000387953
2.6604e-06
-0.000221776
0.000159809
5.74884e-05
-0.000188975
0.000178399
-9.28512e-05
-8.76917e-05
0.00038021
2.27177e-05
-4.04527e-05
-0.000630031
-1.79311e-06
-3.48577e-05
-0.000829328
2.33858e-05
-3.8217e-05
-0.000874537
3.59206e-05
-4.61509e-05
-0.000412441
1.45625e-05
-5.59292e-05
-0.00063807
-4.20441e-06
-5.5939e-05
-0.000656667
-7.182e-06
-6.04292e-05
-0.000302627
5.60685e-07
-7.32652e-05
-0.00031213
-3.40187e-05
-8.05412e-05
0.000139399
-5.16673e-05
-7.61561e-05
-0.000329304
-2.03651e-05
-8.06752e-05
-0.000347448
-2.29133e-05
-8.66482e-05
7.3699e-06
-3.68986e-05
-7.30891e-05
-0.000204566
8.18575e-06
-4.46187e-05
-0.000219943
-0.00196874
-5.38447e-05
0.00241446
-0.00174189
0.000414897
0.00311865
-0.00166955
3.9727e-05
0.00252378
-0.00151375
0.000279756
0.00363701
-0.00136931
0.000150039
0.00350176
-0.00146694
1.61503e-05
0.00316453
-0.00154476
0.000384476
0.00402769
-0.00101366
0.000181944
0.00406443
-0.00123268
-2.44982e-05
0.0039171
-0.00135305
-2.85953e-05
0.00324439
-0.00103955
0.000428949
0.00460055
-0.00102134
0.000243348
0.00460941
-0.00068921
0.000122859
0.00441754
-0.00119961
0.000186099
0.00410542
-0.00154298
0.000210087
0.003312
-0.000918945
0.000428637
0.00532999
-0.000874113
0.000270221
0.00530512
-0.000742302
0.000102673
0.00518188
-0.000574909
3.71654e-05
0.00494149
-0.00105644
2.07292e-06
0.00460434
-0.00132839
5.53843e-06
0.00411364
-0.000704364
0.000711238
0.00547895
-0.000593396
0.000543974
0.00567085
-0.000627487
0.000234402
0.00584121
-0.000485233
2.50242e-05
0.00590331
-0.000580297
6.14215e-05
0.00539699
-0.00115176
0.000114273
0.00479457
-0.00137358
5.66791e-05
0.00415188
-0.000641786
0.000824057
0.00589064
-0.000210343
0.000698778
0.00591252
-0.000291015
0.000563952
0.00594748
-0.000329593
0.000433439
0.00611655
-0.000607015
0.000172458
0.00580316
-0.000742218
0.000378345
0.00548388
-0.00115773
0.000480491
0.00494352
-0.00145582
0.000257731
0.00418621
-0.000476979
0.00111995
0.0067977
-0.000250248
0.000913129
0.00682865
-0.000202141
0.000813408
0.00689741
-3.89979e-05
0.000764922
0.00689814
-0.000434033
0.000686279
0.00667687
-0.000237628
0.000490067
0.00670642
-0.00064174
0.000394224
0.00670407
-0.000905623
0.000359725
0.00576247
-0.00126476
0.000333195
0.00416696
-0.000201451
0.00093608
0.00733537
-0.000202562
0.000812562
0.00787965
-9.87792e-05
0.000871644
0.00782143
-3.63351e-05
0.000801889
0.00742227
-0.000117094
0.000696371
0.00727829
8.77105e-06
0.000612073
0.00780923
-0.000239496
0.000385974
0.00799547
-0.000467188
0.000309226
0.00779673
-0.000691897
0.000197683
0.00796663
-0.00112794
9.30511e-05
0.00698554
2.9411e-05
0.000486073
0.00590135
-0.000190304
0.000477077
0.0059019
-0.000179357
0.000587875
0.0062784
-6.84861e-05
0.000703557
0.00617952
3.33924e-05
0.000854478
0.00662979
3.31615e-05
0.000866566
0.00696163
-0.000151289
0.000812706
0.00711374
-0.0001997
0.000820674
0.00755723
-0.000262226
0.00091772
0.00837183
-0.000573783
0.00087412
0.00920011
-0.000853565
0.000417137
0.00746766
-4.35218e-05
0.00066854
0.00246595
6.65706e-06
0.000771596
0.00270986
-0.000147157
0.000806805
0.00348959
-0.000352723
0.000695693
0.0048023
-0.000155061
0.00048802
0.00580509
-0.000137791
0.000398582
0.00636518
-4.70865e-05
0.000378396
0.00679719
-0.000290978
0.000484693
0.00625325
-0.000143646
0.000433651
0.00525136
-1.76159e-05
0.000404441
0.00543288
9.71323e-06
0.000500402
0.0070859
-0.000956249
0.000601648
0.00791477
-0.000212511
-7.52038e-05
0.00259464
-0.000161636
0.000118991
0.00263209
-4.78228e-05
0.00024648
0.00248981
-0.000106386
0.000345873
0.00227219
-0.000149544
0.000367292
0.00239851
-3.04975e-05
0.000383373
0.00296868
3.88946e-06
0.00028275
0.00342244
-0.000205543
0.000251779
0.00295292
-0.00017896
0.000209442
0.00285284
1.50026e-05
0.000145506
0.00140562
9.68433e-05
1.31216e-05
0.00100416
0.000135854
0.000145593
0.0014945
-0.000629873
0.000284764
0.00434876
-2.3539e-05
-7.75798e-05
0.000637726
-8.84718e-05
-0.000117355
0.000500983
6.54318e-05
-0.000122551
0.000614998
4.99002e-05
-0.000144185
0.000916388
3.21466e-05
-0.000187361
0.0005342
-1.92275e-05
-0.000191899
2.26208e-05
-2.16878e-05
-0.000197851
0.000573419
-2.86233e-05
-0.000229653
0.000631011
-0.000193102
-0.000241435
0.000772795
-0.000147175
-0.000217678
0.00052242
-7.29878e-05
-0.000186469
0.000405268
-5.32135e-06
-0.000220447
0.00017369
3.53169e-05
-0.000180845
0.000199337
-0.000102796
-8.84346e-05
0.000579626
3.35407e-05
-4.80326e-05
-0.00056129
1.86864e-05
-3.60354e-05
-0.000647539
-4.89755e-06
-3.46571e-05
-0.000827991
1.2639e-05
-3.83586e-05
-0.000894968
3.21179e-05
-4.62765e-05
-0.000454212
1.22578e-05
-5.57355e-05
-0.000650532
-9.34556e-06
-5.53017e-05
-0.000652449
-1.17413e-05
-5.99767e-05
-0.000304174
4.66416e-08
-7.2931e-05
-0.000319787
-3.7205e-05
-8.00116e-05
0.000180459
-5.40803e-05
-7.5234e-05
-0.000280665
-2.1726e-05
-8.05539e-05
-0.000331817
-2.55755e-05
-8.72529e-05
4.71093e-05
-4.22108e-05
-7.28403e-05
-0.000134134
4.99373e-06
-4.47094e-05
-0.000180228
-0.00190486
-4.12641e-05
0.00211713
-0.00194049
6.51625e-05
0.00281686
-0.0016931
-4.95245e-05
0.00248753
-0.00140853
0.000219951
0.00324198
-0.001567
0.000253053
0.00310302
-0.00157619
3.19518e-05
0.00260107
-0.00167094
0.000302124
0.00368012
-0.0012482
0.000257704
0.00376389
-0.00138387
9.92923e-05
0.0035698
-0.00142717
3.74859e-05
0.00320116
-0.00114185
0.000535795
0.00413014
-0.00119625
0.000309329
0.00407521
-0.000943436
0.000172066
0.00412209
-0.00127286
3.19448e-05
0.00392981
-0.00144033
-3.12647e-05
0.003173
-0.00108776
0.00059399
0.00466719
-0.00102251
0.00039833
0.00459397
-0.00081689
0.000255446
0.00455141
-0.000649979
0.000243576
0.00443513
-0.00108022
0.000234773
0.00410452
-0.00152742
0.000180145
0.00333088
-0.000861515
0.000578223
0.0052505
-0.000653029
0.000385212
0.00527464
-0.000759585
0.000273199
0.00526669
-0.000565599
0.00010679
0.00519262
-0.000529176
8.45877e-06
0.00488398
-0.00115716
-1.43581e-06
0.00461671
-0.00132458
3.25923e-05
0.00403205
-0.000632618
0.000785955
0.00559311
-0.000635306
0.000638112
0.00580978
-0.000615477
0.000371662
0.00585805
-0.000589322
0.000131667
0.0059943
-0.000301421
2.06341e-05
0.00563851
-0.000539411
7.25374e-05
0.00523592
-0.00112063
0.00015207
0.00466208
-0.00147586
5.60906e-05
0.00411583
-0.000559747
0.000891377
0.00592313
-0.000340257
0.000727612
0.00595181
-0.000426688
0.00067254
0.00602848
-0.000252602
0.000532635
0.00606189
-0.000541238
0.000308975
0.00608724
-0.000359671
0.000312584
0.00599096
-0.000707386
0.000362516
0.0056675
-0.00120453
0.000492918
0.00500724
-0.00140338
0.000237448
0.00408738
-0.000257026
0.00112482
0.00700819
-0.000354136
0.000952273
0.00691013
-0.000270859
0.000878764
0.00693537
-2.59308e-05
0.000816888
0.00683504
-0.000150181
0.000744845
0.00687266
-0.000454547
0.000687121
0.00694313
-0.000620302
0.000491722
0.00698973
-0.000594103
0.000462977
0.00672773
-0.00101325
0.000383884
0.00603313
-0.00151991
0.000341482
0.00421745
-9.40531e-05
0.00114296
0.00708557
-0.00022231
0.000909669
0.00727027
-5.87421e-05
0.00093519
0.00769549
-0.000140135
0.000934874
0.0077601
-5.61503e-05
0.000839163
0.00736902
0.000180037
0.000758909
0.00698458
-1.24225e-05
0.000663825
0.00739251
-6.25051e-05
0.000479721
0.00768778
-0.000272684
0.000455016
0.00754986
-0.000775243
0.000351193
0.00790994
-0.00116422
0.000143557
0.00715264
-1.10312e-05
0.000715902
0.00553117
0.000102798
0.000599548
0.00568274
-9.78066e-05
0.000618584
0.00582184
-0.000298114
0.000681336
0.00624601
-0.000137261
0.000756224
0.00625998
-8.48341e-05
0.000872307
0.0065711
-6.27476e-06
0.000859577
0.00687395
-0.000491649
0.000778132
0.00735695
-0.000389104
0.000786957
0.00793345
-0.000243775
0.000814207
0.0086579
-0.000611863
0.000742228
0.0094966
-0.00106983
0.000468651
0.0071126
-0.000299336
0.000500561
0.00248146
-6.207e-05
0.000619089
0.00251889
-5.10533e-05
0.000757794
0.00276211
-0.000174249
0.000808704
0.00344444
-0.000323772
0.000731871
0.00473268
-9.83945e-05
0.000545241
0.00572633
-3.83652e-05
0.000446184
0.00633964
2.57125e-06
0.000412953
0.00666082
-0.000217546
0.000434414
0.00629107
7.45754e-05
0.000363139
0.00523309
3.00285e-05
0.000362521
0.00563758
0.000133533
0.000524033
0.00716583
-0.00115867
0.000557935
0.00788564
-0.000175167
-0.000113013
0.00220954
-0.000254406
-7.56443e-05
0.00295521
-7.00577e-05
5.73264e-05
0.00295674
-5.38022e-05
0.000199876
0.00273951
-9.28943e-05
0.000249223
0.0025153
-0.000113191
0.000336018
0.00253982
-1.24909e-05
0.00036516
0.00287707
2.67354e-05
0.000271537
0.00334732
-0.00014995
0.000212
0.00290721
-8.7107e-05
0.00023939
0.00269889
8.19429e-05
0.000152585
0.00111122
7.51745e-05
3.69429e-05
0.00103231
-5.60651e-06
0.000173276
0.00164691
-0.000663283
0.000292152
0.00461709
1.58226e-05
8.38377e-06
0.000869492
-2.66093e-05
-8.79543e-05
0.000653621
-6.89957e-05
-0.000116117
0.000558647
4.1498e-05
-0.000117015
0.000558968
5.68531e-05
-0.00014714
0.000851432
3.41494e-05
-0.000181277
0.000501687
-2.69449e-05
-0.000184165
2.65339e-05
4.66405e-06
-0.000196497
0.000523858
-3.58819e-06
-0.000230848
0.000624059
-0.000182656
-0.000241759
0.000942327
-0.000159933
-0.000203345
0.000645149
-7.27934e-05
-0.000178922
0.00041481
-2.08187e-05
-0.000217376
0.000205465
3.13448e-05
-0.000179785
0.000217132
-0.000115007
-9.14184e-05
0.000791046
2.54705e-05
-5.26511e-05
-0.000139278
3.08271e-05
-4.23772e-05
-0.000585775
1.75343e-05
-3.57089e-05
-0.000664022
-7.66434e-06
-3.4565e-05
-0.00082412
7.06645e-06
-3.85004e-05
-0.000909811
2.68013e-05
-4.66952e-05
-0.000490054
9.9004e-06
-5.57597e-05
-0.000659974
-1.33381e-05
-5.47844e-05
-0.000644303
-1.40959e-05
-5.95999e-05
-0.00030341
1.02932e-06
-7.24138e-05
-0.000328414
-4.01337e-05
-7.91746e-05
0.000224534
-5.76063e-05