/*--------------------------------*- C++ -*----------------------------------*\
  =========                 |
  \\      /  F ield         | OpenFOAM: The Open Source CFD Toolbox
   \\    /   O peration     | Website:  https://openfoam.org
    \\  /    A nd           | Version:  7
     \\/     M anipulation  |
\*---------------------------------------------------------------------------*/
FoamFile
{
    version     2.0;
    format      ascii;
    class       volVectorField;
    location    "5";
    object      U_0;
}
// * * * * * * * * * * * * * * * * * * * * * * * * * * * * * * * * * * * * * //

dimensions      [0 1 -1 0 0 0 0];

internalField   nonuniform List<vector> 
18750
(
(0.238113 -0.1349 -0.742684)
(0.0989043 1.47658 -0.655448)
(0.470103 -0.472617 -1.5001)
(0.244791 -0.0816651 -0.711015)
(-1.92175 1.09033 0.0692341)
(-0.372899 0.881111 -1.60835)
(0.0475144 1.49143 -0.646696)
(0.121911 0.0732269 -2.17281)
(0.480654 -0.451676 -1.49295)
(0.241105 -0.0293592 -0.685821)
(-5.17446 -2.03934 0.250587)
(-1.12553 0.453399 0.170291)
(-2.19565 1.15608 -0.00668788)
(-0.186773 0.576353 -1.78971)
(-0.395964 0.841063 -1.6601)
(0.00405759 1.4929 -0.627874)
(0.221366 0.170543 -2.02568)
(0.126127 0.0352419 -2.11951)
(0.486007 -0.432437 -1.4873)
(0.238578 0.015981 -0.664172)
(-4.93115 -2.73986 0.216463)
(-5.01917 -0.847592 2.27135)
(-5.43082 -1.57096 0.725748)
(-0.789681 0.343097 0.103948)
(-1.24051 0.346787 0.106541)
(-2.49882 1.09363 -0.0140069)
(0.00724687 0.279578 -1.86082)
(-0.206675 0.449916 -1.76575)
(-0.404515 0.774058 -1.72159)
(-0.0552409 1.48098 -0.596079)
(0.390106 -0.105816 -1.81751)
(0.231965 0.111162 -1.9853)
(0.127416 -0.00151876 -2.07248)
(0.49303 -0.415943 -1.48132)
(0.233278 0.0521926 -0.646546)
(-3.96249 -1.85935 1.40003)
(-6.27051 -1.6133 1.19541)
(-4.65459 -3.03454 -0.757445)
(-3.76012 0.569845 2.50362)
(-4.8979 -0.689975 2.2077)
(-5.43105 -1.70592 0.747791)
(-1.21442 0.0832446 0.396802)
(-0.741638 0.086992 -0.0235612)
(-1.32073 0.283318 0.052849)
(-2.68297 0.555631 0.156757)
(0.186526 -0.0771185 -2.03716)
(-0.00639026 0.146299 -1.85706)
(-0.207774 0.305793 -1.77351)
(-0.408854 0.721684 -1.75482)
(-0.112228 1.44239 -0.556388)
(0.0565027 0.0426954 -1.8327)
(0.405147 -0.133342 -1.81177)
(0.239738 0.0688803 -1.94297)
(0.132051 -0.03999 -2.03461)
(0.499753 -0.404203 -1.47434)
(0.227291 0.0770365 -0.632705)
(-3.52076 -2.44934 -0.396665)
(-4.08676 -3.29203 -0.431273)
(-3.79688 -2.26801 0.867385)
(-5.86409 0.00829848 3.34274)
(-6.00158 -1.4442 1.62679)
(-4.67578 -2.95709 -0.833587)
(-3.08025 -0.980808 2.58997)
(-3.77827 0.608214 2.45639)
(-4.872 0.0825518 1.93677)
(-5.56391 -1.69357 0.638892)
(-1.86343 -0.437454 0.371767)
(-1.29857 -0.0984697 0.302665)
(-0.721565 -0.0681504 -0.104623)
(-1.31566 0.183493 0.0273476)
(-2.73625 0.311319 0.234474)
(-0.0511311 -0.443673 -1.9882)
(0.15169 -0.086795 -2.12119)
(-0.032126 0.0485074 -1.84395)
(-0.204084 0.194136 -1.79265)
(-0.415585 0.696356 -1.76197)
(-0.167333 1.38649 -0.507118)
(0.140592 0.382357 -1.77959)
(0.0418723 -0.00097406 -1.83328)
(0.415001 -0.159164 -1.80591)
(0.248465 0.0348778 -1.90806)
(0.138323 -0.0798198 -2.00633)
(0.506534 -0.397285 -1.46648)
(0.222972 0.0884181 -0.622557)
(-3.04504 -2.16517 0.251588)
(-3.33747 -2.53605 0.925478)
(-3.30931 -2.32988 -0.29505)
(-4.95388 -0.343195 1.65905)
(-4.09219 -3.30626 -0.628891)
(-3.73286 -2.31652 0.908229)
(-5.35226 0.950475 3.16492)
(-5.62477 0.178228 3.35319)
(-5.95945 -1.56231 1.71113)
(-4.51481 -3.12341 -0.862632)
(-3.37957 -1.29658 2.27727)
(-3.01533 -1.21746 2.77095)
(-3.66365 0.243045 2.70472)
(-4.85869 0.242252 1.8362)
(-5.69997 -1.70084 0.639532)
(-2.07273 -0.621778 1.01534)
(-1.912 -0.60005 0.425864)
(-1.31408 -0.28529 0.210677)
(-0.629464 -0.147287 -0.231178)
(-1.27564 0.137065 -0.0075371)
(-2.87465 0.0488409 0.33415)
(-0.480605 0.0313284 -1.27566)
(-0.0254637 -0.571915 -1.95918)
(0.139366 -0.162334 -2.19993)
(-0.0554396 -0.0235412 -1.82974)
(-0.199501 0.106794 -1.79008)
(-0.418131 0.664971 -1.75835)
(-0.235532 1.30297 -0.445613)
(0.148684 0.219912 -1.50887)
(0.143194 0.344662 -1.78545)
(0.0299607 0.00737383 -1.83371)
(0.421491 -0.176229 -1.79988)
(0.259451 0.00739078 -1.88637)
(0.147714 -0.121091 -1.98663)
(0.516615 -0.394413 -1.45557)
(0.221008 0.088227 -0.616084)
(-3.20065 -1.95535 0.00358829)
(-3.95276 -1.60207 -0.117039)
(-2.84242 -2.36922 0.248006)
(-4.0483 -1.74164 0.103779)
(-3.16154 -2.80038 0.917825)
(-3.19734 -2.1466 -0.137523)
(-4.81808 -0.373025 1.8171)
(-4.88896 -1.28551 1.65893)
(-4.14645 -3.07817 -0.546982)
(-3.62791 -2.44025 0.723112)
(-4.38747 0.159441 3.41699)
(-5.25418 0.65166 3.6467)
(-5.57824 0.0938963 3.54081)
(-5.90031 -1.62576 1.79254)
(-4.47098 -3.21897 -0.896963)
(-3.94997 -0.727457 1.22822)
(-3.35492 -1.16738 2.51211)
(-2.8476 -1.26855 2.8698)
(-3.51712 0.398543 2.68568)
(-4.79715 0.794537 1.58716)
(-5.60231 -2.17874 0.802695)
(-2.13974 -0.17255 1.5122)
(-2.02903 -0.687976 0.986061)
(-2.01424 -0.743081 0.525285)
(-1.29899 -0.464836 0.10782)
(-0.638486 -0.201651 -0.271184)
(-1.23131 0.137023 0.0988314)
(-2.75117 -0.711426 0.57855)
(-0.377718 -0.040831 -1.0047)
(-0.463993 -0.0211456 -1.43887)
(-0.00595362 -0.562595 -1.9602)
(0.119563 -0.211701 -2.22524)
(-0.0767716 -0.0794652 -1.79445)
(-0.191939 0.0353454 -1.76955)
(-0.41428 0.61655 -1.73653)
(-0.285887 1.19272 -0.379641)
(0.413291 0.0665834 -1.46221)
(0.147009 0.226689 -1.51484)
(0.142401 0.264699 -1.80516)
(0.0185797 -0.0169556 -1.83763)
(0.429355 -0.199496 -1.78995)
(0.266003 -0.0142251 -1.8751)
(0.16015 -0.164805 -1.97323)
(0.531263 -0.407617 -1.43963)
(0.22027 0.0802482 -0.613026)
(-2.84257 -1.30812 0.124745)
(-3.56214 -1.53089 -0.158853)
(-2.98753 -2.21031 0.0401611)
(-3.76458 -0.59831 0.125337)
(-3.64101 -2.1098 0.417405)
(-2.73389 -2.32716 0.216638)
(-4.25388 -0.421021 0.937844)
(-3.9393 -2.02222 0.0916199)
(-2.96292 -2.92425 0.841123)
(-3.10748 -2.0505 -0.130561)
(-4.85484 -0.409884 1.59698)
(-4.99162 -0.389665 2.01318)
(-4.85494 -1.541 1.48538)
(-4.43338 -2.39208 -0.758528)
(-3.44651 -2.67742 0.474608)
(-4.33292 -0.703299 2.59301)
(-4.50912 -0.0097692 3.57609)
(-5.16272 0.323952 3.908)
(-5.59133 0.0279395 3.55218)
(-5.47237 -2.03272 2.18356)
(-4.34057 -3.39548 -0.897026)
(-4.04211 -0.83038 1.22868)
(-4.06515 -0.706792 1.49139)
(-3.42775 -1.40002 2.28234)
(-2.8167 -1.1524 2.75429)
(-3.27517 -0.666626 2.58986)
(-4.82405 0.567649 1.54353)
(-5.63847 -2.10028 1.09778)
(-1.84732 0.307356 1.80252)
(-2.11336 -0.488832 1.33886)
(-1.9553 -0.861737 1.10683)
(-1.92686 -1.18224 0.55624)
(-1.25391 -0.648844 0.0388065)
(-0.618729 -0.295924 -0.397043)
(-1.15608 -0.00544841 0.325827)
(-2.68298 -0.945883 0.644312)
(0.0633281 0.178106 -1.54681)
(-0.386956 -0.1066 -1.07598)
(-0.454076 -0.0870929 -1.58931)
(-0.00164908 -0.583919 -1.93612)
(0.0895426 -0.269861 -2.18945)
(-0.092376 -0.147392 -1.71971)
(-0.184417 0.0121134 -1.7717)
(-0.393104 0.528837 -1.69276)
(-0.337736 1.04841 -0.299961)
(0.368496 0.0793725 -1.40791)
(0.421948 0.0341064 -1.41498)
(0.150041 0.22278 -1.51162)
(0.14411 0.260668 -1.82031)
(0.011831 -0.0567768 -1.83913)
(0.436098 -0.244321 -1.76991)
(0.275874 -0.0262216 -1.8847)
(0.178913 -0.213762 -1.96084)
(0.537427 -0.42252 -1.42158)
(0.219562 0.0683343 -0.613492)
(-2.13808 -2.01674 0.0529467)
(-3.26576 -1.24928 0.155207)
(-2.75161 -1.47505 0.109625)
(-3.77868 -1.35813 -0.0359796)
(-3.42379 -1.76008 -0.0346472)
(-2.87431 -2.22089 -0.0117872)
(-3.86427 -0.584384 0.203875)
(-3.6577 -1.16038 0.188035)
(-3.52192 -2.17783 0.547959)
(-2.52527 -2.40286 0.214346)
(-4.47432 -0.365393 1.03339)
(-4.11886 -0.694596 1.03571)
(-3.80128 -2.1762 0.1842)
(-2.81824 -2.98374 0.799685)
(-2.73907 -2.41069 0.153035)
(-4.91072 0.456004 1.47829)
(-4.84229 -0.253911 2.67828)
(-5.20389 -0.159909 1.62292)
(-5.00684 -1.40782 1.4221)
(-4.37865 -2.65915 -0.62381)
(-3.41923 -2.83201 0.458812)
(-4.54234 0.271951 1.30331)
(-4.34293 -1.36736 2.3744)
(-4.52012 -0.117245 3.56906)
(-4.96842 -0.22664 3.97598)
(-5.20113 -0.937134 3.58906)
(-5.53952 -1.82919 2.46041)
(-4.14708 -3.57599 -0.835727)
(-3.65878 -0.984095 1.15747)
(-3.96086 -1.05798 1.40126)
(-4.32451 -0.994296 1.34688)
(-3.40736 -1.53501 2.12083)
(-2.83251 -1.46047 2.47538)
(-3.01271 -1.06761 2.36943)
(-4.74853 0.236472 1.67542)
(-5.60623 -1.93004 1.30862)
(-1.27759 -0.0430353 2.01762)
(-1.93308 -0.0766493 1.83373)
(-2.12404 -0.56487 1.31209)
(-1.90361 -1.10907 1.35772)
(-1.84392 -1.34587 0.525928)
(-1.19069 -0.785873 -0.0415268)
(-0.640513 -0.238739 -0.38966)
(-1.10674 -0.0488119 0.454226)
(-2.36958 -1.42159 0.854486)
(-0.394577 0.308362 -1.36565)
(0.0317462 0.163791 -1.59202)
(-0.390404 -0.158444 -1.17166)
(-0.432265 -0.163184 -1.71783)
(-0.0124152 -0.614316 -1.87379)
(0.0745258 -0.34825 -2.11839)
(-0.105101 -0.213216 -1.61813)
(-0.171313 0.0173192 -1.77428)
(-0.388697 0.47586 -1.5957)
(-0.375601 0.879733 -0.232349)
(0.168864 0.52734 -1.31108)
(0.374402 0.0890349 -1.37048)
(0.427245 0.0290863 -1.37471)
(0.154571 0.203142 -1.50616)
(0.142951 0.258468 -1.8215)
(0.00766592 -0.101708 -1.83555)
(0.439561 -0.254954 -1.74528)
(0.287351 -0.0291975 -1.88826)
(0.204292 -0.260609 -1.94492)
(0.5542 -0.427984 -1.41141)
(0.217057 0.0559636 -0.615227)
(-2.32222 -1.16832 -0.0844157)
(-2.85214 -0.965856 0.156554)
(-2.06236 -2.02814 -0.0557502)
(-3.34398 -0.960844 0.0137828)
(-3.15183 -1.22206 0.0892846)
(-2.64257 -1.55882 -0.00854404)
(-3.77696 -0.798761 0.10029)
(-3.77508 -1.32668 -0.124842)
(-3.41846 -1.56641 0.10478)
(-2.56992 -2.42637 4.75403e-05)
(-3.86808 -0.332712 0.407305)
(-3.88563 -0.809961 0.422882)
(-3.51836 -1.62471 0.32916)
(-3.05742 -2.47418 0.538715)
(-2.45225 -2.42932 0.105844)
(-4.44464 0.135186 1.22055)
(-4.41534 -0.420703 1.12461)
(-4.08386 -0.960291 0.98742)
(-3.73194 -2.31173 0.336756)
(-2.91593 -2.88757 0.751103)
(-2.46036 -2.65252 0.308515)
(-4.86435 0.481684 1.15359)
(-4.90983 0.376901 1.59193)
(-5.4218 -0.186672 1.31486)
(-5.22526 -0.843196 0.997846)
(-5.0789 -1.78563 1.18024)
(-4.40439 -3.01775 -0.44082)
(-3.43902 -2.88616 0.321686)
(-4.35916 1.0034 0.612028)
(-4.56397 -0.268102 1.56351)
(-4.36724 -1.37933 2.28832)
(-4.51109 -0.322655 3.55911)
(-4.81768 -1.15758 3.69648)
(-4.90776 -2.00953 3.02991)
(-5.50342 -2.26507 2.52737)
(-4.11824 -3.71469 -0.829566)
(-3.2883 -0.217466 0.916179)
(-3.50988 -1.41964 1.47011)
(-3.95567 -1.30143 1.49897)
(-4.34617 -1.32712 1.12524)
(-3.43771 -1.41296 2.16612)
(-2.85855 -1.40317 2.37601)
(-3.18502 -0.556601 1.89057)
(-4.7317 0.0852275 1.76117)
(-5.63048 -1.53013 1.37326)
(-1.05703 -0.22936 2.0422)
(-1.28112 -0.149899 2.04145)
(-2.00192 -0.0772241 1.77543)
(-2.1334 -0.536751 1.33124)
(-1.73667 -1.50958 1.55793)
(-1.7741 -1.45057 0.536357)
(-1.08242 -0.893594 -0.147333)
(-0.692561 -0.140051 -0.232424)
(-1.0207 -0.123753 0.655616)
(-2.03766 -1.86313 1.06584)
(-0.689054 0.316117 -1.21773)
(-0.41544 0.294123 -1.44292)
(0.0167578 0.133228 -1.61085)
(-0.381681 -0.210749 -1.25511)
(-0.399423 -0.247234 -1.81386)
(-0.0468908 -0.62093 -1.84948)
(0.0680677 -0.456262 -2.00895)
(-0.111688 -0.258511 -1.51958)
(-0.136762 -0.00897227 -1.7815)
(-0.370396 0.404024 -1.473)
(-0.412342 0.683456 -0.179844)
(0.521573 0.217936 -0.881832)
(0.169031 0.540693 -1.26324)
(0.384033 0.0933287 -1.33847)
(0.431662 0.0502892 -1.33947)
(0.159913 0.176128 -1.50041)
(0.14068 0.25394 -1.81475)
(0.0131329 -0.148951 -1.82676)
(0.465596 -0.287422 -1.70883)
(0.282273 -0.0313858 -1.86887)
(0.229035 -0.309027 -1.92271)
(0.560395 -0.426309 -1.39555)
(0.209838 0.0455558 -0.61945)
(-1.95113 -1.37989 0.0831661)
(-2.56382 -0.953676 -0.193711)
(-2.27565 -1.2618 -0.0652439)
(-2.97209 -0.900759 0.0534896)
(-2.62805 -1.32749 0.167307)
(-1.94047 -2.0627 -0.0111732)
(-3.4294 -1.02987 -0.0141164)
(-3.29018 -1.11362 0.0364074)
(-2.8996 -1.65277 -0.052328)
(-2.63248 -1.5355 0.0505759)
(-3.57392 -0.505992 0.436727)
(-3.76801 -1.03596 -0.134126)
(-3.72496 -1.29749 -0.115013)
(-2.93651 -2.25263 -0.0666724)
(-2.37912 -2.61847 0.0374241)
(-3.85384 -0.398785 0.575571)
(-3.81605 0.103263 0.634137)
(-3.86018 -0.8457 0.498652)
(-3.35898 -1.77223 0.534369)
(-2.88081 -2.51825 0.76947)
(-2.33292 -2.45294 0.0580243)
(-4.43541 -0.0329568 1.36857)
(-4.54129 -0.513199 1.24285)
(-4.20005 -0.951205 1.1886)
(-3.91614 -1.60679 0.813728)
(-3.74584 -2.49959 0.445272)
(-2.95281 -2.73699 0.702751)
(-2.07692 -2.91959 0.38217)
(-5.16087 0.383933 1.34587)
(-4.94636 0.00740484 1.28182)
(-4.9843 -0.000828075 1.34819)
(-5.27825 -0.576504 1.67139)
(-5.31912 -0.991673 0.86591)
(-5.06058 -2.15881 0.88091)
(-4.53443 -3.10034 -0.496272)
(-3.54509 -2.82371 0.262435)
(-4.24588 -0.206737 1.11087)
(-4.22717 -0.298826 1.30207)
(-4.56116 -0.368942 1.69319)
(-4.40401 -1.37121 2.22483)
(-4.48058 -1.29057 3.1388)
(-4.473 -2.11248 3.31928)
(-4.48554 -2.82641 2.68319)
(-5.15527 -2.98619 2.41928)
(-3.65976 -4.46414 -0.797977)
(-2.53511 -0.56433 2.05061)
(-3.20063 -0.566512 1.09525)
(-3.7053 -1.58562 0.697889)
(-3.90475 -1.60423 1.52932)
(-4.32132 -1.45642 1.08313)
(-3.59634 -1.52308 2.04524)
(-3.04587 -1.25261 2.1313)
(-3.32136 -0.720486 1.75263)
(-4.8165 -0.315093 1.87652)
(-5.16597 -2.42401 1.37979)
(-1.23533 -0.0802055 1.74578)
(-1.18544 -0.26473 2.00653)
(-1.33123 -0.247182 2.03913)
(-2.03553 -0.0954867 1.72875)
(-2.21124 -0.423249 1.16651)
(-1.60139 -1.70278 1.56676)
(-1.5634 -1.61381 0.64291)
(-0.941585 -0.974462 -0.186514)
(-0.664288 -0.201987 -0.105423)
(-0.983404 -0.199797 0.848912)
(-1.56901 -2.50132 1.1104)
(-0.439283 0.299357 -1.22581)
(-0.690529 0.272873 -1.26109)
(-0.43707 0.327372 -1.49564)
(-0.0038751 0.0858264 -1.59509)
(-0.344637 -0.282855 -1.33977)
(-0.345021 -0.33008 -1.87608)
(-0.0570977 -0.644242 -1.84152)
(0.0808685 -0.572853 -1.85189)
(-0.122897 -0.277869 -1.46097)
(-0.115755 -0.0246484 -1.76331)
(-0.335308 0.294078 -1.31688)
(-0.45357 0.498159 -0.152218)
(0.54983 0.123282 -0.847629)
(0.525599 0.225598 -0.883629)
(0.175677 0.489254 -1.23997)
(0.393736 0.0957199 -1.31112)
(0.43495 0.0679327 -1.30725)
(0.168098 0.148094 -1.49324)
(0.138133 0.247593 -1.80928)
(0.0135574 -0.192035 -1.81587)
(0.4617 -0.319413 -1.68)
(0.290544 -0.0284675 -1.88779)
(0.244214 -0.326955 -1.90071)
(0.560455 -0.417816 -1.38678)
(0.198789 0.0359313 -0.624543)
(-1.65285 -1.44305 -0.104726)
(-2.24507 -1.05633 0.127679)
(-1.9116 -1.44077 0.0042769)
(-2.70107 -0.877674 0.144709)
(-2.53129 -1.05437 -0.177626)
(-2.11472 -1.49535 -0.0448789)
(-3.05638 -0.991058 0.21798)
(-2.91541 -0.884316 0.0857503)
(-2.58008 -1.45108 0.162608)
(-1.84322 -2.09472 0.124403)
(-3.42249 -0.939812 0.190494)
(-3.38721 -1.27011 -0.00329961)
(-3.22065 -1.10225 0.116477)
(-2.91498 -1.70529 -0.0295718)
(-2.47967 -1.74986 0.0950047)
(-3.54721 -0.309247 0.645589)
(-3.6411 -0.737102 0.399606)
(-3.75921 -1.14304 0.0715741)
(-3.55583 -1.42148 0.0150344)
(-2.92541 -2.27647 0.0640928)
(-2.25746 -2.6833 0.0149098)
(-3.7446 -0.636234 0.842279)
(-3.81005 -0.16112 0.634712)
(-3.79856 -0.4717 0.786348)
(-3.73109 -1.2872 0.258355)
(-3.28097 -1.9111 0.570085)
(-2.67892 -2.59934 0.854426)
(-2.12645 -2.57942 -0.0599643)
(-4.37482 -0.195649 1.59098)
(-4.54577 -0.329803 1.3647)
(-4.5018 -0.686879 1.22008)
(-4.39928 -0.560382 1.09907)
(-3.88802 -1.8651 0.686083)
(-3.75432 -2.56538 0.481285)
(-3.07989 -2.40436 0.705284)
(-1.79841 -3.15206 0.444773)
(-5.1898 -0.14193 1.66854)
(-5.19669 -0.376861 1.56196)
(-4.93478 -0.324728 1.31062)
(-4.80295 -0.7707 1.52013)
(-5.23536 -0.879726 1.0748)
(-5.43373 -1.01301 0.745598)
(-4.81092 -2.54697 0.576635)
(-4.39917 -3.258 -0.379665)
(-3.58502 -2.99073 0.123478)
(-3.86782 -0.418709 1.06675)
(-4.16698 -0.892639 1.299)
(-4.1183 -0.604065 1.54742)
(-4.46121 -0.623683 2.00056)
(-4.49645 -1.31656 2.08522)
(-4.49839 -1.97733 2.50333)
(-4.23665 -2.66241 2.70613)
(-4.71045 -2.75299 2.63088)
(-4.9902 -3.35276 2.52175)
(-3.12693 -5.17842 -0.694959)
(-1.79806 -0.29726 2.28065)
(-2.43672 -0.91981 2.29169)
(-3.19443 -0.987572 1.43281)
(-3.62205 -1.54933 0.828357)
(-3.87363 -1.60689 1.46121)
(-4.33033 -1.47869 1.06732)
(-3.56798 -1.74586 2.09521)
(-3.0886 -1.36925 1.91332)
(-3.3147 -0.997759 1.54301)
(-4.58689 -1.25651 2.04839)
(-3.79951 -4.10872 1.13858)
(-1.38769 0.367754 0.648809)
(-1.47674 -0.0462989 1.40132)
(-1.29562 -0.266167 1.88288)
(-1.38589 -0.385424 2.00939)
(-2.07889 -0.102993 1.61306)
(-2.28698 -0.3656 0.870424)
(-1.59476 -1.66121 1.513)
(-1.48129 -1.67605 0.800735)
(-0.788764 -1.02534 -0.144526)
(-0.566902 -0.356323 0.0935615)
(-0.938002 -0.331316 0.987167)
(-1.27338 -2.92608 1.18649)
(-0.261918 -0.102593 -0.887678)
(-0.477221 0.204285 -1.08743)
(-0.688887 0.278153 -1.29385)
(-0.433302 0.333122 -1.5004)
(-0.0136212 0.0233867 -1.55637)
(-0.314283 -0.368156 -1.41911)
(-0.297121 -0.388006 -1.90392)
(-0.0888682 -0.691527 -1.79704)
(0.0867126 -0.683735 -1.63076)
(-0.119674 -0.294704 -1.45427)
(-0.104556 -0.0302849 -1.72457)
(-0.277447 0.172508 -1.21913)
(-0.505298 0.278415 -0.142867)
(0.400934 0.228067 -0.787458)
(0.542739 0.124906 -0.840118)
(0.537626 0.266214 -0.881756)
(0.191365 0.414814 -1.23675)
(0.404913 0.0978894 -1.28935)
(0.437574 0.0791713 -1.27679)
(0.176271 0.126801 -1.48405)
(0.131275 0.245122 -1.80071)
(0.0289267 -0.249458 -1.80055)
(0.47509 -0.320836 -1.64982)
(0.324337 -0.0600047 -1.91172)
(0.244312 -0.315769 -1.88527)
(0.559963 -0.420319 -1.38003)
(0.188865 0.0216849 -0.62857)
(-1.60269 -1.29901 -0.0128674)
(-2.07664 -1.09749 0.292146)
(-1.6034 -1.44853 -0.062659)
(-2.34602 -1.05341 0.213395)
(-2.2179 -1.20488 0.0687075)
(-1.95251 -1.37274 0.0153022)
(-2.64867 -1.22442 0.20849)
(-2.6177 -0.923207 0.137661)
(-2.44514 -1.30486 -0.108375)
(-1.98517 -1.64343 -0.0258525)
(-3.07548 -0.849853 0.328929)
(-2.99521 -1.01941 0.186219)
(-2.82363 -0.946732 0.040922)
(-2.46403 -1.6614 0.2447)
(-1.78313 -2.12245 0.157457)
(-3.44972 -0.820219 0.366581)
(-3.41428 -1.06991 0.248194)
(-3.30734 -1.23174 -0.0426306)
(-3.13572 -1.08633 0.117206)
(-2.78864 -1.79498 -0.0205125)
(-2.28196 -1.98595 0.0948273)
(-3.54486 -0.529243 0.744196)
(-3.56606 -0.839491 0.678217)
(-3.73289 -1.16158 0.177901)
(-3.76974 -1.13176 0.086081)
(-3.36804 -1.47028 0.136046)
(-2.72731 -2.30582 0.111898)
(-1.93126 -2.86312 0.0364782)
(-3.74322 -0.880783 1.07553)
(-3.89836 0.0625538 0.975848)
(-3.78431 -0.419734 0.702264)
(-3.94607 -0.807174 0.625023)
(-3.38788 -2.09131 0.153933)
(-3.15948 -2.23739 0.50356)
(-2.55279 -2.58635 0.859114)
(-1.82882 -2.74652 -0.0868676)
(-4.38484 -0.523921 1.74386)
(-4.47091 -0.626139 1.49829)
(-4.42567 -0.661154 1.31435)
(-4.54705 -0.759308 1.21806)
(-4.11061 -1.69739 1.07225)
(-4.19591 -1.81724 0.683642)
(-3.90013 -2.30391 0.640713)
(-2.96609 -2.63128 0.534334)
(-1.43065 -3.5237 0.48256)
(-4.83 -0.175952 1.63482)
(-5.20375 -0.317304 1.58372)
(-5.16015 -0.431694 1.60791)
(-4.84285 -0.820982 1.41513)
(-4.72917 -1.03742 1.35059)
(-5.18286 -0.646628 1.10398)
(-5.23937 -1.44812 0.214291)
(-4.51975 -2.73322 0.492164)
(-4.31527 -3.44263 -0.225212)
(-3.51091 -3.24367 0.139682)
(-3.86622 0.432061 0.889405)
(-3.83394 -0.439109 1.17439)
(-4.05464 -1.20033 1.47799)
(-4.0325 -0.740895 1.89016)
(-4.37983 -0.826018 2.144)
(-4.50502 -1.30541 2.01047)
(-4.10595 -2.56658 2.03324)
(-4.22841 -2.85774 2.23498)
(-4.57281 -3.48675 2.21019)
(-4.98563 -3.65275 2.59726)
(-2.92498 -5.33391 -0.481957)
(-1.72274 -0.738844 1.89556)
(-1.77619 -0.539068 2.6079)
(-2.26528 -0.964734 2.49229)
(-2.96689 -1.60192 1.92922)
(-3.63958 -1.33009 0.91513)
(-3.89485 -1.57761 1.40286)
(-4.24601 -1.59051 1.07617)
(-3.65502 -1.93215 1.77946)
(-3.23649 -1.33272 1.45418)
(-3.4721 -0.960777 1.26862)
(-4.45027 -1.80524 2.09208)
(-3.54952 -4.47184 1.21444)
(-1.54916 -0.641478 0.160516)
(-1.62269 -0.407539 0.96787)
(-1.35391 -0.0664967 1.77856)
(-1.38888 -0.311357 1.69212)
(-1.45599 -0.478936 1.94851)
(-1.94996 -0.461023 1.64156)
(-2.21992 -0.631446 0.880593)
(-1.25703 -2.09016 1.05661)
(-1.20744 -1.88792 1.11001)
(-0.572797 -1.04658 -0.0921163)
(-0.549258 -0.381192 0.135954)
(-0.926167 -0.423696 1.13359)
(-0.90837 -3.34429 1.13169)
(-0.402846 0.162836 -0.898433)
(-0.304712 -0.263224 -0.836764)
(-0.419629 0.231096 -0.989788)
(-0.674644 0.282175 -1.33952)
(-0.434456 0.291501 -1.44776)
(0.0121058 -0.0773258 -1.49656)
(-0.257022 -0.448709 -1.50029)
(-0.279428 -0.418582 -1.90192)
(-0.159124 -0.757139 -1.74508)
(0.0694143 -0.762151 -1.41802)
(-0.0962795 -0.34264 -1.46792)
(-0.0924562 -0.0572548 -1.64121)
(-0.202128 0.0352526 -1.16043)
(-0.557512 0.117389 -0.157487)
(0.359001 0.308781 -0.888542)
(0.400373 0.22435 -0.77989)
(0.543936 0.121534 -0.831825)
(0.546403 0.263173 -0.891803)
(0.210022 0.35742 -1.23332)
(0.41409 0.105568 -1.27285)
(0.437564 0.0949097 -1.25117)
(0.179704 0.117046 -1.47358)
(0.118613 0.260515 -1.78732)
(0.0554807 -0.31559 -1.77974)
(0.479703 -0.329349 -1.62565)
(0.335606 -0.0817079 -1.89966)
(0.248568 -0.325849 -1.86992)
(0.566378 -0.433101 -1.37459)
(0.187579 0.00135169 -0.627331)
(-1.40463 -1.25746 0.00627752)
(-1.84841 -1.31578 -0.0540861)
(-1.5607 -1.29687 0.0258219)
(-2.10204 -1.19377 0.28599)
(-1.97456 -1.32272 0.130785)
(-1.533 -1.51088 -0.0472875)
(-2.39505 -1.20692 0.206511)
(-2.36502 -1.07608 0.1799)
(-2.17864 -1.39788 0.0134981)
(-1.8991 -1.43754 0.0654006)
(-2.74898 -0.879971 0.443981)
(-2.60583 -1.2399 0.211294)
(-2.57233 -0.983309 0.0581981)
(-2.33823 -1.57265 -0.0237474)
(-1.72284 -1.88137 -0.0276599)
(-3.04773 -0.842675 0.493653)
(-2.94498 -1.08609 0.329728)
(-2.91347 -1.01183 0.198031)
(-2.75517 -1.10688 0.14769)
(-2.43452 -1.69612 0.263871)
(-1.67837 -2.184 0.148187)
(-3.43552 -0.851229 0.50964)
(-3.47294 -0.833392 0.378269)
(-3.39027 -1.05869 0.273604)
(-3.25417 -1.14921 -0.0362644)
(-3.01721 -1.3196 0.0259786)
(-2.5168 -2.0665 -0.0828801)
(-2.18037 -2.0868 0.128315)
(-3.68931 -0.478585 0.906289)
(-3.62515 -0.89612 0.736446)
(-3.74261 -1.07173 0.427752)
(-3.77451 -1.22914 -0.01851)
(-3.71977 -1.04938 0.0334675)
(-3.17026 -1.63823 0.157367)
(-2.41173 -2.52642 0.112404)
(-1.73415 -2.99354 0.0713676)
(-3.86673 -0.658501 1.10634)
(-3.88938 -0.462052 1.0811)
(-3.79176 -0.778539 0.922514)
(-3.92962 -0.678887 0.666988)
(-3.84399 -1.51656 0.354504)
(-3.80856 -1.25204 0.587053)
(-3.08126 -2.37627 0.504912)
(-2.41595 -2.78751 0.846056)
(-1.88971 -2.74252 -0.00894067)
(-4.6011 -0.123873 1.69277)
(-4.4583 -0.654873 1.63905)
(-4.47114 -0.774108 1.4414)
(-4.43997 -0.68245 1.36298)
(-4.33787 -1.29201 1.2131)
(-4.06252 -1.92066 1.02731)
(-3.89317 -2.60374 0.69062)
(-3.80396 -2.52384 0.686283)
(-2.88009 -3.09556 0.549249)
(-0.968278 -3.92518 0.363699)
(-4.63094 -0.0131324 1.84859)
(-4.75118 -0.630159 1.73163)
(-5.07866 -0.352749 1.89821)
(-5.02522 -0.902288 1.78273)
(-4.80823 -0.984458 1.49111)
(-4.62054 -1.10356 1.39803)
(-4.95922 -1.27768 1.27178)
(-4.88652 -1.88289 0.819557)
(-4.59605 -2.30859 0.921501)
(-3.82227 -4.06645 0.257186)
(-3.45379 -3.4307 0.142166)
(-3.62582 0.711893 1.25458)
(-3.80603 0.444039 1.16125)
(-3.83365 -0.349848 1.42875)
(-3.96568 -1.32198 1.64005)
(-3.91695 -1.16905 2.06077)
(-4.12494 -1.40343 2.14873)
(-4.29739 -1.58518 2.00255)
(-3.93018 -2.87469 1.82197)
(-4.1687 -3.13306 2.13009)
(-4.43759 -3.7173 1.88992)
(-4.78109 -4.21103 2.269)
(-1.62151 -5.76376 -0.469968)
(-1.51324 -0.705199 2.04912)
(-1.49317 -0.949313 2.33917)
(-1.74327 -0.62966 2.7146)
(-2.12278 -1.09615 2.5724)
(-2.87472 -1.66221 2.14411)
(-3.5989 -1.31081 1.11828)
(-3.9934 -1.48821 1.281)
(-4.13353 -1.75997 1.29085)
(-3.78242 -1.97452 1.33318)
(-3.42817 -1.06039 1.22662)
(-3.56629 -1.53225 1.20004)
(-4.34321 -2.32698 2.2204)
(-2.43013 -5.30051 0.882345)
(-1.39886 -0.370141 -0.772933)
(-1.74919 -0.760468 0.124759)
(-1.84085 0.341626 0.405766)
(-1.80597 -0.150166 1.39805)
(-1.53333 -0.401492 1.33858)
(-1.53013 -0.582688 1.86645)
(-1.86645 -0.52345 1.6287)
(-2.04827 -0.902769 1.06749)
(-1.04906 -2.28526 0.875095)
(-1.1501 -1.83763 1.36825)
(-0.344151 -1.0091 -0.0474251)
(-0.500564 -0.490657 0.224443)
(-0.911595 -0.576247 1.23695)
(-0.847136 -3.55934 1.10443)
(-0.578916 0.311685 -0.182103)
(-0.433384 0.130825 -0.935031)
(-0.309487 -0.324116 -0.830764)
(-0.40823 -0.0281941 -0.906658)
(-0.647577 0.256842 -1.34795)
(-0.413825 0.24156 -1.38825)
(0.0507822 -0.211198 -1.42187)
(-0.165544 -0.545896 -1.54762)
(-0.241445 -0.45588 -1.89038)
(-0.194689 -0.782145 -1.74165)
(0.0700408 -0.807294 -1.23751)
(-0.0984307 -0.325545 -1.51832)
(-0.07244 -0.114346 -1.55588)
(-0.133537 -0.0664025 -1.16305)
(-0.618796 -0.0745758 -0.185463)
(0.0854369 0.19968 -1.12401)
(0.3557 0.2968 -0.860984)
(0.401559 0.221152 -0.776835)
(0.541939 0.123 -0.825516)
(0.552103 0.251312 -0.893668)
(0.229913 0.320813 -1.23134)
(0.423204 0.11417 -1.26068)
(0.433423 0.114858 -1.22995)
(0.178781 0.113674 -1.46209)
(0.0954936 0.288417 -1.76989)
(0.0915042 -0.387185 -1.74987)
(0.482733 -0.33391 -1.60847)
(0.332433 -0.0567969 -1.92306)
(0.261332 -0.347344 -1.85761)
(0.58796 -0.451102 -1.36776)
(0.187475 -0.0239098 -0.624213)
(-1.3866 -1.07947 -0.0256886)
(-1.67641 -1.17853 -0.060596)
(-1.3365 -1.31029 -0.0310275)
(-2.14701 -0.710545 0.132526)
(-1.80091 -1.30332 -0.103399)
(-1.53374 -1.2798 -0.000410414)
(-2.19534 -1.25322 0.0221993)
(-2.0856 -1.22655 0.256354)
(-1.89869 -1.37486 0.0986484)
(-1.49894 -1.57849 -0.0524069)
(-2.54772 -0.869569 0.281687)
(-2.39001 -1.10844 0.26546)
(-2.39896 -1.19253 0.149467)
(-2.15101 -1.46548 -0.0049368)
(-1.81698 -1.55356 0.0420157)
(-2.69992 -0.953734 0.479333)
(-2.60461 -1.16238 0.375462)
(-2.58318 -1.15553 0.272714)
(-2.58614 -1.06892 0.0760679)
(-2.35148 -1.61052 -0.0318248)
(-1.61746 -1.98661 -0.0220826)
(-3.14439 -0.665374 0.591793)
(-3.04046 -0.82475 0.498571)
(-2.89292 -1.21666 0.340213)
(-2.8382 -1.06491 0.337037)
(-2.74106 -1.11204 0.216362)
(-2.22261 -1.9017 0.205741)
(-1.54631 -2.29218 0.211192)
(-3.43755 -0.704925 0.720067)
(-3.38847 -0.904543 0.491634)
(-3.31849 -1.065 0.368247)
(-3.26388 -1.3448 0.27299)
(-3.25154 -1.22405 -0.00503128)
(-2.94771 -1.40079 0.0807527)
(-2.54931 -2.06485 -0.0625114)
(-1.84051 -2.39189 0.12281)
(-3.6505 -0.467814 0.948817)
(-3.63588 -0.686881 0.913509)
(-3.75955 -1.07099 0.527145)
(-3.73195 -1.17109 0.352028)
(-3.65887 -1.5396 0.0105632)
(-3.35218 -1.73079 0.0496412)
(-2.99856 -1.81396 0.247023)
(-2.17004 -2.72962 0.0642386)
(-1.56342 -3.12702 0.0483006)
(-3.83424 -0.381231 1.28815)
(-3.816 -0.787287 1.06818)
(-3.84619 -0.894416 1.05841)
(-3.98341 -0.702565 0.869661)
(-3.89393 -0.996808 0.580767)
(-3.65601 -1.81278 0.307519)
(-3.45147 -2.11922 0.531952)
(-3.09436 -2.45868 0.536207)
(-2.24511 -3.05945 0.679934)
(-1.24011 -3.08917 -0.0866908)
(-4.49527 0.0315101 1.83394)
(-4.54494 -0.381651 1.57733)
(-4.52557 -0.680993 1.55164)
(-4.41924 -0.995904 1.42603)
(-4.39771 -1.16788 1.31896)
(-4.50046 -0.664421 1.25899)
(-4.30614 -1.95143 0.951963)
(-4.20912 -2.10796 0.862001)
(-3.68681 -2.80745 0.77864)
(-2.93036 -3.2105 0.676595)
(-0.695606 -4.18614 0.18252)
(-4.79215 -0.49637 2.34476)
(-4.54418 -0.20006 1.96291)
(-4.64929 -0.819791 1.91415)
(-4.8552 -1.30777 1.95674)
(-4.9245 -1.28847 1.84996)
(-4.59005 -1.39168 1.63957)
(-4.33855 -1.44871 1.47927)
(-4.08006 -2.86848 1.04166)
(-4.19435 -2.90814 0.975648)
(-4.33221 -2.53896 1.02238)
(-3.55371 -4.25157 0.462319)
(-3.17724 -3.85845 0.275181)
(-3.1997 -0.755801 2.04515)
(-3.5705 0.441647 1.79778)
(-3.62592 -0.148102 1.57867)
(-3.73164 -0.750152 1.7178)
(-3.86275 -1.51317 1.69821)
(-3.94796 -1.34438 2.12929)
(-4.07121 -1.5045 2.13705)
(-4.24358 -1.67565 2.02256)
(-4.02118 -3.12238 1.75257)
(-4.52581 -2.92685 1.8907)
(-4.6452 -3.58926 1.57176)
(-5.22353 -3.84204 2.47616)
(-1.35086 -5.91929 -0.301535)
(-1.60987 -0.67167 0.976388)
(-1.80641 -1.21873 1.69102)
(-1.60988 -1.28501 2.13457)
(-1.69952 -0.813818 2.56336)
(-2.04774 -1.12213 2.57229)
(-2.75766 -1.52995 2.30554)
(-3.48303 -1.42572 1.54012)
(-3.96541 -1.34747 1.27453)
(-4.1725 -1.40257 1.39398)
(-3.85137 -1.65871 1.12636)
(-3.63577 -0.816225 1.03098)
(-3.4213 -1.814 1.23287)
(-3.61788 -3.37986 2.27835)
(-2.00021 -5.72822 0.270031)
(-1.57532 -0.1124 -0.15203)
(-1.44598 -0.529397 -0.807272)
(-2.02438 -0.608733 0.116388)
(-2.07439 0.163282 0.353891)
(-1.99233 -0.216135 0.918052)
(-1.64295 -0.478269 1.13603)
(-1.60826 -0.638156 1.7005)
(-1.96691 -0.201566 1.36268)
(-2.15496 -0.711222 0.893374)
(-0.948022 -2.23578 0.868901)
(-0.811446 -1.9063 1.40955)
(-0.133867 -0.961351 0.0581476)
(-0.368214 -0.624129 0.356552)
(-0.980879 -0.604409 1.29827)
(-0.67828 -3.76374 1.10975)
(-0.707248 0.304535 0.301434)
(-0.549394 0.342455 -0.412882)
(-0.436109 0.119907 -0.926161)
(-0.332747 -0.383741 -0.816124)
(-0.344244 -0.116109 -0.930481)
(-0.622147 0.176033 -1.30809)
(-0.406801 0.19011 -1.33869)
(0.111092 -0.304703 -1.33992)
(-0.0867722 -0.581145 -1.55659)
(-0.21457 -0.478507 -1.88014)
(-0.284041 -0.831282 -1.70843)
(0.0811125 -0.90404 -1.05378)
(-0.0953973 -0.309718 -1.55165)
(-0.0431402 -0.170056 -1.51514)
(-0.0620498 -0.151233 -1.18468)
(-0.66737 -0.240849 -0.220272)
(0.0256116 0.0381872 -1.07755)
(0.0867444 0.198795 -1.09209)
(0.354412 0.283352 -0.840992)
(0.404274 0.21716 -0.776818)
(0.526869 0.122167 -0.823235)
(0.558426 0.258529 -0.908812)
(0.248215 0.303289 -1.23432)
(0.431595 0.125631 -1.25058)
(0.41974 0.127936 -1.2124)
(0.177831 0.112924 -1.44686)
(0.0614599 0.324048 -1.74866)
(0.143565 -0.451335 -1.71108)
(0.477701 -0.333913 -1.60832)
(0.337763 -0.052909 -1.95866)
(0.275964 -0.372524 -1.8477)
(0.608441 -0.479792 -1.35898)
(0.185718 -0.0446867 -0.620901)
(-1.26941 -1.06974 -0.011092)
(-1.68338 -1.00916 0.0102369)
(-1.32853 -1.12479 -0.0392852)
(-1.90807 -1.03012 -0.0745428)
(-1.64568 -1.1842 -0.0116429)
(-1.28851 -1.31959 -0.0352916)
(-2.21683 -0.741365 -0.00367991)
(-2.07044 -0.777146 0.153423)
(-1.69957 -1.36427 -0.122129)
(-1.50237 -1.32058 -0.0295707)
(-2.43281 -0.726843 0.0868576)
(-2.13858 -1.35045 -0.0392724)
(-2.0532 -1.23883 0.175255)
(-1.83891 -1.40329 0.123237)
(-1.44197 -1.64807 -0.103377)
(-2.65062 -0.596962 0.262901)
(-2.42925 -1.07893 0.293066)
(-2.33702 -1.27332 0.248453)
(-2.3779 -1.25949 0.0881498)
(-2.13089 -1.46432 -0.0329118)
(-1.67419 -1.75089 0.0172976)
(-2.85569 -0.783073 0.445073)
(-2.59647 -1.12465 0.482928)
(-2.54824 -1.25663 0.380744)
(-2.57287 -1.10019 0.241293)
(-2.6231 -1.05657 0.18758)
(-1.98016 -1.88883 -0.0314949)
(-1.49703 -2.09214 -0.0412905)
(-3.03359 -0.780378 0.73699)