/*--------------------------------*- C++ -*----------------------------------*\
  =========                 |
  \\      /  F ield         | OpenFOAM: The Open Source CFD Toolbox
   \\    /   O peration     | Website:  https://openfoam.org
    \\  /    A nd           | Version:  7
     \\/     M anipulation  |
\*---------------------------------------------------------------------------*/
FoamFile
{
    version     2.0;
    format      ascii;
    class       volScalarField;
    location    "1";
    object      nut;
}
// * * * * * * * * * * * * * * * * * * * * * * * * * * * * * * * * * * * * * //

dimensions      [0 2 -1 0 0 0 0];

internalField   nonuniform List<scalar> 
150000
(
0.000926302
0.00180541
0.000965962
0.000628063
0.000929408
0.00170136
0.0015555
0.0014299
0.00193417
0.000917528
0.000589935
0.00130888
0.00085073
0.000812804
0.00169789
0.00137919
0.00436207
0.0021784
0.00116474
0.0019458
0.00115788
0.00140733
0.00124109
0.000805782
0.000847561
0.00134545
0.000413737
0.00124748
0.00117098
0.00048349
0.00166642
0.00151543
0.000731093
0.0019853
0.00126159
0.000380357
0.00156881
0.00124039
0.0013002
0.000773797
0.00184304
0.00129089
0.000310382
0.00122606
0.00170241
0.00115259
0.000647208
0.00102349
0.00127519
0.000528163
0.000244642
0.000303471
0.000810372
0.00131141
0.000398866
0.00157781
0.00150695
0.000648364
0.00188288
0.00135022
0.000738515
0.00172692
0.00164408
0.00225093
0.00109289
0.000567395
0.00136417
0.000531062
0.00187955
0.0025136
0.00259861
0.000537376
0.00154105
0.00132353
0.000222472
0.000459216
0.000348758
0.000812705
0.00111038
0.00141215
0.000508247
0.00103223
0.00112588
0.000590903
0.000306557
0.00071433
0.000265966
0.000229186
0.000775361
0.00132155
0.000701986
0.00195559
0.00138273
0.000949931
0.00184467
0.00127135
0.000823342
0.000372939
0.00080192
0.00188299
0.00113594
0.00121564
0.00194751
0.000821429
0.00104447
0.000561341
0.00203506
0.000891454
0.00174512
0.000989347
0.00035227
0.000291446
0.000848546
0.00102807
0.00113754
0.00167923
0.000453412
0.00111113
0.00125822
0.00043304
0.000475729
0.000160227
0.000460542
0.000597971
0.000890504
0.00152739
0.001772
0.000400645
0.000899964
0.000907629
0.000631371
0.000387596
0.000649653
0.000272632
0.000778688
0.000375768
0.000402302
0.0012781
0.00117959
0.000900231
0.00186802
0.00176171
0.000949446
0.00217017
0.00113008
0.000812247
0.000818696
0.000694797
0.00192045
0.000991609
0.00126625
0.000729076
0.000255276
0.000858526
0.00153776
0.0016938
0.000896392
0.00148547
0.00138856
0.000691488
0.000277398
0.000674516
0.00157419
0.00211016
0.00199833
0.000658916
0.00149228
0.00072856
0.000365652
0.000299108
0.000267673
0.000356166
0.000934917
0.00270294
0.00421056
0.00184248
0.000203285
0.000798737
0.00109485
0.000185562
0.00045195
0.000216426
0.000194894
0.000145031
0.000377248
0.000811744
0.00134104
0.00192367
0.00180648
0.000325008
0.000666704
0.000622162
0.000578926
0.000474191
0.00054433
0.000206392
0.000221492
0.000351952
0.000748203
0.000433509
0.000548997
0.0014057
0.000908485
0.000983999
0.00175991
0.00171634
0.00181639
0.0016488
0.00136106
0.00104658
0.00115636
0.00185263
0.00185846
0.000888908
0.00103143
0.000779056
0.000729589
0.000848361
0.00167649
0.00193824
0.000753248
0.001429
0.00119673
0.000507393
0.000272138
0.000652122
0.00124083
0.00206687
0.0019353
0.000640409
0.00143343
0.00111214
0.000517198
0.000376901
0.000188185
0.000283022
0.000614214
0.00200097
0.00106224
0.00210871
0.000545336
0.00150441
0.000546331
0.000422979
0.000315667
0.000291376
0.000204785
0.000242064
0.000409291
0.000810686
0.00211264
0.000258297
0.00192591
0.00018531
0.000535159
0.000901309
0.000105507
0.000449996
0.000284936
0.000235723
0.00021535
0.000187675
0.000163847
0.000296148
0.000830779
0.00116856
0.00187862
0.00154323
0.000327766
0.000459583
0.000338316
0.00052302
0.000514032
0.000496914
0.00022103
0.000239025
0.000332088
0.000175469
0.000388326
0.00070383
0.000411211
0.000583478
0.00138872
0.000556066
0.000945755
0.00142851
0.00174537
0.00176443
0.00156412
0.00140383
0.00134855
0.000945168
0.0027307
0.00112288
0.000904664
0.0015322
0.00097839
0.000662378
0.00155562
0.00276863
0.00147559
0.000632506
0.00144974
0.000733575
0.000881352
0.000747072
0.000808573
0.0014982
0.00218513
0.00220026
0.000470919
0.00150996
0.00124599
0.000730482
0.000277755
0.000524022
0.000629902
0.00117761
0.00114711
0.00162128
0.00207169
0.000458669
0.00122133
0.000767797
0.000441564
0.000354514
0.00027084
0.000184081
0.000309469
0.000318866
0.000776522
0.00202506
0.00102109
0.00192527
0.000559552
0.00109278
0.000445202
0.000469303
0.000359932
0.000411584
0.000210774
0.000225048
0.000205138
0.000290708
0.000527201
0.000547263
0.00182414
0.000297392
0.00151327
0.000352063
0.000421146
0.000656569
0.000263777
0.000432091
0.000387528
0.000334949
0.000191553
0.000185241
0.00024605
0.000173058
0.000312408
0.000238952
0.000246629
0.00101321
0.00175537
0.00120419
0.000311908
0.000393868
0.000228795
0.000428707
0.000519355
0.000563252
0.000291954
0.000224895
0.000324492
0.000305347
0.000295809
0.000232675
0.000398278
0.000571025
0.000344306
0.000556714
0.00125411
0.000280742
0.000810024
0.00124514
0.00152821
0.00160205
0.00146599
0.00156142
0.00142283
0.00113596
0.00194933
0.00127346
0.00105644
0.00131668
0.00087503
0.000443571
0.000914069
0.00248123
0.00107624
0.000704604
0.00115502
0.000779009
0.000736418
0.000525104
0.00100305
0.0017004
0.00257848
0.00227923
0.000434709
0.000953216
0.000738847
0.000778976
0.000746145
0.000666129
0.000782715
0.00106992
0.00188743
0.00214262
0.00253248
0.000338676
0.00101543
0.00061603
0.000843815
0.000520579
0.000262426
0.00045426
0.000509628
0.000768519
0.00125843
0.000607974
0.00191661
0.00216665
0.000358624
0.000762008
0.000485349
0.000392287
0.000129491
0.000292712
0.000235448
0.000344623
0.000292738
0.000337412
0.000183126
0.000788564
0.00159398
0.00140162
0.0017934
0.000355378
0.000805855
0.000406867
0.000311692
0.000297248
0.000551196
0.000204388
0.000197716
0.000197763
0.000320764
0.000263382
0.000297655
0.000440702
0.000359461
0.00162051
0.00163904
0.00123744
0.000323952
0.000444325
0.000443931
0.000149246
0.000380078
0.000532073
0.000350788
0.000177761
0.000206132
9.25983e-05
0.000203267
0.000168158
0.000176775
0.000508784
0.000587385
0.000559023
0.00100507
0.00125786
0.000801162
0.000280868
0.000377227
0.000232086
0.000339836
0.000488263
0.000643541
0.000357082
0.000192986
0.000276698
0.000234759
0.000117928
0.000308694
0.000220151
0.00030993
0.000379793
0.000573458
0.000282866
0.00051663
0.00103378
0.000295715
0.000625261
0.00144217
0.00145874
0.00158699
0.00140013
0.00169924
0.00127929
0.00067039
0.00191068
0.00147415
0.00114016
0.00148564
0.00119282
0.000728319
0.00068915
0.00221704
0.00139791
0.000691409
0.00137019
0.00115013
0.000734869
0.000408499
0.000583805
0.00076959
0.00219632
0.00173636
0.000505638
0.000713969
0.000624172
0.00127714
0.000523696
0.000455681
0.000652299
0.00125377
0.00131291
0.00222249
0.00203523
0.000323764
0.000499567
0.000600632
0.000337073
0.000793992
0.00107052
0.00106915
0.00109249
0.00109078
0.00129849
0.00177802
0.00213721
0.00319897
0.00034197
0.000530003
0.000347305
0.000795306
0.000577759
0.000338409
0.000423192
0.000546824
0.000676748
0.000657599
0.00104554
0.0013991
0.000578988
0.00201188
0.00272377
0.000465804
0.000443592
0.000407102
0.000245053
0.000173334
0.00022459
0.000289535
0.000336559
0.000231631
0.000344322
0.000249232
0.000281361
0.000409413
0.000819702
0.00117092
0.00141028
0.00155583
0.000267282
0.000453618
0.000236251
0.000231495
0.000191678
0.000320299
0.000193903
0.000169257
0.000167057
0.000239742
0.000223068
0.000324843
0.000280896
0.000202692
0.000214624
0.000533278
0.00135602
0.000694375
0.000868857
0.000276805
0.000400659
0.000358131
0.000236928
0.000340864
0.000411807
0.000255924
0.000158878
0.000264526
0.000109947
0.000192832
0.000152908
0.000310236
0.000162596
0.000170081
0.000572559
0.000654054
0.000650359
0.000940348
0.000678951
0.000518796
0.000273449
0.000358757
0.000261439
0.000291885
0.000433547
0.000696403
0.000367349
0.000151136
0.000238492
7.35229e-05
0.000102252
0.000191022
0.000165873
0.000327367
0.000235353
0.000344584
0.000359017
0.000530879
0.000245174
0.000466126
0.000765496
0.00042602
0.000469173
0.00135963
0.00137227
0.00153678
0.00150763
0.00164189
0.00162029
0.000903075
0.0017976
0.0013439
0.00163698
0.000926834
0.000886422
0.000583071
0.000483478
0.00189668
0.00122825
0.000973014
0.00139472
0.00116866
0.000533106
0.000407258
0.00095882
0.00089717
0.00194919
0.00178483
0.000641347
0.00100492
0.000870768
0.000801017
0.000545457
0.000311629
0.000833034
0.000549369
0.000502858
0.00222589
0.00156237
0.000355824
0.000588989
0.000387648
0.00120453
0.000753342
0.000551123
0.000685259
0.00082502
0.000988356
0.00120806
0.00125817
0.00239852
0.00177197
0.000212555
0.000415101
0.000265679
0.000761575
0.000608429
0.000980323
0.000746884
0.0006962
0.00119205
0.00141007
0.001355
0.00145254
0.00106535
0.00196932
0.00307111
0.000299035
0.000471307
0.000270232
0.000417608
0.000428694
0.000388804
0.000545401
0.000436309
0.000688157
0.00068838
0.000586225
0.000681418
0.00113464
0.00132692
0.000384957
0.00199433
0.00249979
0.000523793
0.000402434
0.000370528
0.000271007
0.000185799
0.00012225
0.00018947
0.000194209
0.000194238
0.000323442
0.000353788
0.000273098
0.000221569
0.000287132
0.000549129
0.000954847
0.00094827
0.00159392
0.00160788
0.000114589
0.000464444
0.000149705
0.000163871
0.000159209
0.000334378
0.000168817
0.000155931
0.000201497
0.000191804
0.000396947
0.000352103
0.000165369
0.000304449
0.000288819
0.000224022
0.000257839
0.000567879
0.000976466
0.00101016
0.000743418
0.000191551
0.000423651
0.000350873
0.000327514
0.000314677
0.000411819
0.000211854
0.000143422
0.000260091
0.000125375
0.000166467
9.34494e-05
0.000246311
0.000205892
0.000275275
0.000151299
0.000200037
0.000487369
0.000596771
0.000464264
0.000820305
0.000296553
0.000381199
0.000276936
0.00040083
0.000265882
0.000270602
0.00036337
0.000699183
0.000348866
0.000144385
0.000201424
0.000189334
0.000110432
0.000168153
0.000178257
0.000214818
0.000209251
0.00028929
0.000333887
0.000312416
0.000303459
0.000326566
0.00022869
0.000397898
0.000504113
0.000305414
0.000372745
0.00142183
0.00130195
0.0016077
0.00134518
0.00130186
0.00139138
0.000539118
0.00154761
0.00117455
0.00153338
0.00146842
0.000745769
0.000827712
0.000995092
0.00190853
0.00125154
0.00128066
0.00106098
0.000911209
0.000653909
0.000631685
0.000560004
0.000533176
0.0018015
0.00184506
0.000834522
0.000860056
0.00070546
0.000545287
0.000821684
0.000506721
0.000527119
0.000946386
0.00115687
0.00140368
0.00239664
0.000672243
0.000446272
0.000518332
0.00104138
0.000426723
0.000417748
0.000783037
0.000724273
0.000532813
0.000487278
0.000540637
0.00104206
0.00155103
0.000443971
0.000442187
0.000577691
0.000778234
0.00137833
0.00092745
0.000676316
0.00132561
0.000819537
0.000601253
0.000860425
0.000867969
0.00128205
0.00151146
0.00161948
0.000192225
0.000475684
0.000329697
0.000945237
0.000472292
0.000823725
0.000973994
0.000453393
0.00110129
0.00132481
0.00102501
0.00103964
0.00108748
0.00128956
0.000864303
0.00185608
0.0017946
0.000193826
0.000416327
0.000384964
0.00035714
0.000271207
0.000379067
0.000502011
0.000429452
0.00058763
0.000380944
0.000587631
0.000457929
0.000552054
0.000848377
0.00121827
0.00130263
0.000775195
0.00201091
0.00206459
0.000346135
0.000344914
0.000365309
0.000291876
0.000171081
0.00025167
0.000181886
0.000172741
0.000151577
0.000263418
0.000124666
0.000380364
0.000419637
0.000410583
0.00024449
0.000273644
0.000631707
0.00112674
0.000446529
0.00179101
0.00150158
0.000170289
0.000343285
0.000144528
8.40308e-05
0.000141686
0.000241214
0.000149189
0.000115616
0.000243674
0.000172746
0.000163192
0.000337202
0.000453239
0.000358622
0.000228821
0.000310364
0.000249454
0.000312875
0.000395126
0.000493307
0.000702014
0.00105661
0.000622117
0.000179183
0.000382033
0.000290606
0.000256336
0.000422993
0.000307833
0.000204774
0.000146701
0.000278945
0.000217068
0.000155632
0.000105549
0.00022278
0.000102145
0.000299352
0.00021975
0.000149783
0.00014323
0.000298494
0.000408889
0.0006041
0.000353511
0.000677616
0.00013701
0.000320312
0.000297789
0.000436444
0.000298561
0.000261293
0.000324922
0.000656315
0.0003248
0.000126389
0.000189604
0.000266064
0.000115801
0.000138309
0.000189444
0.0001326
0.000177003
0.000232854
0.000188293
0.000230898
0.000364841
0.000327297
0.000352498
0.000217828
0.00023195
0.000326629
0.000333059
0.000189042
0.000340748
0.00113453
0.00130913
0.00138018
0.00168077
0.00127187
0.00151115
0.000561112
0.00197898
0.00138403
0.0013336
0.00166292
0.000741151
0.000317115
0.000517243
0.00156101
0.00146029
0.00136049
0.00152789
0.000769894
0.000473042
0.000690562
0.000818021
0.000583795
0.0015443
0.00218019
0.00121458
0.0010328
0.00102983
0.000802586
0.000385235
0.000556029
0.000589337
0.000532747
0.000788182
0.00108905
0.00265821
0.000912819
0.000513587
0.000557529
0.000573635
0.000716681
0.000455186
0.000424703
0.000400858
0.000752102
0.000641517
0.0007027
0.000785381
0.00232783
0.000696306
0.000479001
0.000504438
0.000688694
0.00104723
0.000578952
0.000593026
0.00133648
0.000694051
0.000640493
0.000721498
0.000392739
0.000955861
0.00072047
0.00152013
0.000527919
0.000418433
0.000580361
0.000466457
0.00123206
0.00114133
0.00102827
0.000165812
0.00109874
0.000928923
0.000585754
0.00113264
0.00105036
0.000554752
0.000984375
0.00139774
0.00269238
0.000283312
0.000571369
0.000448001
0.000686251
0.000734364
0.00068489
0.000786401
0.00104854
0.000741734
0.000407444
0.000579521
0.000824241
0.000921277
0.00124073
0.000923038
0.00131543
0.000907528
0.00178606
0.00227758
0.000202343
0.000279061
0.000392014
0.000398588
0.000123639
0.000335967
0.000473011
0.000456625
0.0004246
0.000427164
0.000225539
0.000607461
0.000507207
0.000494513
0.000609857
0.000804296
0.00119273
0.00132583
0.000844601
0.00174146
0.00141414
0.00026306
7.53385e-05
0.000297907
0.000200078
0.000195541
0.000156676
0.000153763
0.000188241
0.000124741
0.00032153
0.00017039
0.000392754
0.000311777
0.000275887
0.000405825
0.000368155
0.000246246
0.000310377
0.000695724
0.00112435
0.000270623
0.00146479
0.00107108
0.000275846
0.000132878
0.000184184
0.000148248
0.000118911
0.000193674
0.000144172
0.000122464
0.000359389
0.000198148
0.000130388
0.000219081
0.000459976
0.000404743
0.000263789
0.00028557
0.000316992
0.000179584
0.000264913
0.0004473
0.000319028
0.000462809
0.000583528
0.000912369
0.00061874
0.000285398
0.00037297
0.000178008
0.000141355
0.000381248
0.000230135
0.000169847
0.000158542
0.000157496
0.000185605
0.000143717
0.000111072
0.000221182
0.000148485
0.000368415
7.68866e-05
0.000294773
0.000216215
9.35767e-05
0.000252786
0.000304487
0.000370183
0.00048639
0.000318975
0.000576972
0.000152885
0.000338628
0.000331392
0.000409236
0.000258307
0.000253189
0.000258975
0.000574371
0.000264923
0.000107136
0.00016151
0.000311948
0.000113242
0.000115325
0.000226934
0.000154935
0.000111478
8.94445e-05
0.000180935
0.000205924
0.000137725
0.000199189
0.000389001
0.000316357
0.000328748
0.000141108
0.000228292
0.000280027
0.000269879
0.000290959
0.000349616
0.00109019
0.00115495
0.00136055
0.00124971
0.00125657
0.00138468
0.000904879
0.00176172
0.00126181
0.00127612
0.00131616
0.000651929
0.000586375
0.000564746
0.00186132
0.00107066
0.00134083
0.00136512
0.000743405
0.000357951
0.000425061
0.000568416
0.000422909
0.00155736
0.0023014
0.00130863
0.00121894
0.000520742
0.000473604
0.000390136
0.000447209
0.000927426
0.000475754
0.000439728
0.00131295
0.00288056
0.00102086
0.000850313
0.000713243
0.00048653
0.000321569
0.000618042
0.000317448
0.000795279
0.000672325
0.000503442
0.000522644
0.000952717
0.00261396
0.000704406
0.000455503
0.000783016
0.000511992
0.000378684
0.000255456
0.000233206
0.000234451
0.000277539
0.000364171
0.0003242
0.000668097
0.00116013
0.000710126
0.00215218
0.000668376
0.000466773
0.000628517
0.000826218
0.000838996
0.000993514
0.000816224
0.000277582
0.000690316
0.000439588
0.000684107
0.0010465
0.000812734
0.000844996
0.00107639
0.000943332
0.00208393
0.000623445
0.000356503
0.000470473
0.000853333
0.000855626
0.00124022
0.00109451
0.000841675
0.00112591
0.000349845
0.000888065
0.000699681
0.000498093
0.00060736
0.000849771
0.000688061
0.000627638
0.00123458
0.00189729
0.000344717
0.00063514
0.000365983
0.000466601
0.000667167
0.000736566
0.000696219
0.000997915
0.000562697
0.000787477
0.000446642
0.000853281
0.00048207
0.000779171
0.000912705
0.000719298
0.000970772
0.000996747
0.000830521
0.00187579
0.00217311
0.000268671
0.000275897
0.000516517
0.000372899
0.000274559
0.000310967
0.000419447
0.000446445
0.000469032
0.000429416
0.000359171
0.000459917
0.000379406
0.000503582
0.000562756
0.000544192
0.000689816
0.000893346
0.00119505
0.00130675
0.000873175
0.00139107
0.00137278
0.000269847
0.000108861
0.000144591
0.000155353
0.000213754
0.000176671
0.000234857
0.000124171
0.000117418
0.00034776
0.000141205
0.000447811
6.79259e-05
0.00027071
0.000543313
0.000184355
0.000225259
0.000389966
0.000205735
0.000350194
0.000837687
0.00102184
0.000313641
0.00110659
0.000920766
0.000243287
0.000167563
4.89319e-05
0.000211217
0.000117921
0.000156926
0.000152326
0.000125417
0.000303948
0.00018625
0.000142061
0.000142298
0.000347652
0.000180014
0.000488192
0.000310306
0.000323439
0.000295303
0.00020118
0.000411397
0.000357847
0.000495393
0.000399209
0.000518006
0.000432967
0.000890205
0.000462973
0.000202605
0.000351959
0.000138922
0.000125752
0.000198039
0.000303032
0.000163223
0.000134941
0.000137551
0.000137731
0.000143662
0.000116245
0.000241647
0.000160955
7.876e-05
0.000184426
0.000377184
0.000135542
0.000211703
0.000197637
0.000204188
0.000321971
0.000293127
0.00025436
0.000402452
0.000183949
0.000511472
0.000255
0.00033282
0.00031469
0.000379024
0.000226149
0.00022857
0.000282431
0.000472879
0.000193156
0.000101176
0.000120824
0.000309252
0.000104905
0.000106631
0.000192614
0.000176386
0.000107688
0.000108418
0.000101672
8.12077e-05
0.000174244
0.000108078
0.000126321
0.000154145
0.000384505
0.000228116
0.000188612
9.80218e-05
0.000226277
0.000275938
0.000261287
0.000202628
0.000360655
0.00119235
0.00112647
0.0016164
0.00120258
0.00121793
0.00167364
0.000655183
0.00146088
0.00127733
0.00126362
0.00130562
0.000925396
0.000578082
0.000669978
0.00177628
0.00110579
0.00127493
0.00120316
0.000685359
0.000524269
0.000652933
0.000393932
0.000583453
0.0018104
0.00145238
0.00123476
0.00130921
0.000474213
0.000353368
0.000544626
0.000463709
0.000634566
0.000397138
0.000487039
0.00123018
0.00227312
0.00116527
0.000875047
0.000605513
0.000570672
0.000505142
0.00049825
0.000609173
0.000562105
0.00030201
0.000447163
0.000410283
0.000804192
0.00230856
0.00098133
0.000557661
0.000670101
0.00103528
0.00045441
0.000599417
0.000427192
0.000601628
0.000416321
0.000679409
0.000472258
0.000486761
0.000888385
0.00113708
0.002208
0.000839149
0.000455159
0.000541205
0.000643132
0.000848034
0.000452507
0.000509687
0.000820546
0.000447046
0.000590517
0.000251878
0.000204461
0.000451652
0.000604351
0.00107593
0.000899896
0.00203534
0.000768192
0.000394885
0.000619526
0.000647814
0.000856977
0.000603962
0.000223945
0.00114917
0.00163372
0.000652129
0.000510424
0.00046784
0.000243105
0.000218456
0.000379681
0.000498512
0.000375523
0.00148646
0.00215368
0.000691229
0.000436237
0.000705462
0.00108096
0.000542056
0.00127619
0.000741447
0.000420147
0.000332811
0.00113815
0.000560074
0.00076929
0.000733293
0.000601292
0.000589735
0.000403697
0.000903676
0.000892698
0.000804708
0.000657889
0.00188146
0.000358833
0.000604348
0.000402333
0.000419474
0.000458722
0.000635679
0.000621971
0.00077898
0.000811385
0.000660618
0.000429814
0.000614135
0.000925186
0.000495747
0.000987783
0.000918474
0.00109618
0.000773288
0.00126655
0.00105619
0.000869096
0.00161243
0.0018239
0.000265397
0.000410664
0.000521894
0.000275738
0.000261503
0.000278293
0.000258052
0.000173587
0.000444771
0.00032242
0.000385852
0.000291962
0.000349937
0.000491086
0.00025187
0.000557537
0.00052706
0.000572683
0.000750971
0.000821843
0.00108512
0.00134749
0.000837922
0.00117426
0.00142278
0.000332374
0.000158658
0.000157513
9.95621e-05
0.000254854
0.000131835
0.000221217
0.000122784
0.000211267
0.000329478
0.000234916
0.000212593
0.000147753
0.000362511
0.000198494
0.000757269
0.000460281
0.000459285
0.000246417
0.000885555
0.000286333
0.000365512
0.00078757
0.000869376
0.000320555
0.000868981
0.000774218
0.000186076
0.00019211
6.42495e-05
0.000192473
0.000114869
0.000120897
0.000158615
0.000130284
0.000185928
0.000308913
6.00312e-05
8.84971e-05
0.000321357
0.000169414
0.000140056
0.000198224
0.000185808
0.000238823
0.000304087
0.000464786
0.000102338
0.000624826
0.000287001
0.000499356
0.000569366
0.000619228
0.00042278
0.000723589
0.000284547
0.000159986
0.000349611
0.000166022
0.000133591
0.000175299
0.000322963
0.00015527
0.000122944
0.000195833
0.000147938
0.000141936
0.000116029
0.000200243
0.000201088
6.85893e-05
0.000117922
9.36598e-05
0.000184108
0.000230737
0.000179049
0.000109768
0.000255129
0.000264246
0.000329234
0.000231125
0.000211809
0.000361535
0.000175545
0.000447532
0.000317404
0.000317943
0.000289479
0.000365658
0.000296588
0.000184754
0.000291865
0.000365993
0.000136084
7.88403e-05
9.31454e-05
0.000293271
9.31287e-05
9.35479e-05
6.67718e-05
0.000218023
9.03917e-05
0.000109586
0.000139831
0.000109715
9.45481e-05
0.000182639
0.000164827
8.25224e-05
0.000105276
0.000129155
0.000321828
0.000174002
0.000144462
9.33089e-05
0.000206991
0.000266033
0.000294058
0.000206133
0.000361362
0.00110459
0.00107153
0.00162726
0.00111402
0.0012229
0.00151836
0.000536742
0.00180014
0.00130349
0.00131941
0.00149745
0.000672999
0.000272988
0.000675425
0.00147412
0.00158709
0.00123369
0.00117665
0.000716831
0.000373194
0.000420354
0.000405366
0.000225976
0.00150701
0.00211227
0.00132215
0.0011021
0.000509435
0.000498846
0.000477746
0.000371167
0.000593399
0.000311305
0.000429368
0.0010391
0.00191777
0.00125757
0.00103649
0.000359687
0.000482198
0.000415209
0.000375304
0.000465462
0.000599164
0.000596393
0.000539029
0.000420487
0.000613133
0.00221226
0.0012027
0.000764175
0.000533431
0.000402317
0.000559556
0.000431152
0.000488236
0.000456776
0.00040419
0.000540235
0.000565907
0.000438662
0.00039121
0.000744857
0.00200924
0.00112924
0.000482613
0.000574197
0.000640613
0.000788682
0.00064648
0.00039344
0.000426905
0.000541166
0.000581751
0.000704849
0.000704682
0.000250315
0.000719121
0.000685003
0.00106403
0.0019159
0.000940077
0.000540015
0.000657738
0.000774108
0.000594343
0.000660841
0.000470639
0.000272374
0.000774946
0.000346783
0.000413375
0.000473387
0.000103328
0.000383404
0.000466327
0.000609606
0.00134401
0.000696602
0.00192805
0.000842772
0.000406221
0.000493367
0.000795875
0.000710273
0.000719051
0.000698902
0.00093823
0.0004485
0.00102332
0.000971191
0.000677688
0.000702741
0.000608083
0.00133074
0.00126153
0.000893998
0.000429241
0.000710098
0.00145115
0.00178631
0.000672277
0.000718423
0.000608843
0.000792227
0.000848604
0.000832528
0.000735636
0.000992006
0.000431513
0.000799811
0.000630158
0.00127594
0.000936802
0.000375429
0.000964074
0.000658377
0.00128893
0.00105672
0.000439731
0.000998342
0.00100121
0.00101893
0.00223789
0.000374984
0.000432886
0.000595691
0.00045567
0.000456706
0.000424575
0.000720866
0.00047229
0.000868869
0.000501448
0.000664466
0.000293742
0.000478462
0.000717025
0.000337142
0.000788632
0.000724264
0.000661222
0.000816458
0.000802957
0.000765567
0.00120037
0.000919119
0.00123337
0.00219231
0.000231194
0.000409589
0.000478849
0.000270191
0.000238182
0.000315588
0.000252687
0.000219052
0.000302141
0.000366448
0.000345095
0.000330132
0.000298335
0.000146285
0.000264474
0.000300695
0.000338175
0.000436805
0.000495405
0.000497595
0.000719735
0.000684825
0.000763789
0.00115072
0.000703061
0.000915735
0.00116921
0.00027899
0.000162668
0.000208422
0.000121995
0.00027154
0.000108563
0.000105289
0.000122184
0.000218529
0.000359423
0.000187868
0.000159288
0.00022467
0.000315135
0.000482449
0.000371377
0.000421452
0.000829876
0.000481168
0.000401602
0.000175147
0.000618264
0.000256413
0.000299415
0.000542811
0.000625193
0.000337678
0.000486954
0.000667359
0.000277341
0.000119424
0.000208783
0.000210607
0.000129742
0.000107534
0.000213863
0.000137755
0.000151408
0.000294233
0.000299651
0.000132049
0.000363516
0.000166462
0.000130412
0.000296722
0.000158994
0.00022458
0.000308155
0.000362315
0.000242809
0.000507335
0.000218836
0.000502407
0.000292715
0.000384366
0.000571953
0.000464323
0.000458276
0.000342569
0.000275927
0.000258536
0.000301564
0.000133831
0.00012734
0.000167098
0.000215014
0.00014391
0.000109688
0.000167038
0.000123661
0.000169512
0.000125808
0.000169977
0.000166747
5.78861e-05
0.000143298
0.000266486
0.000121691
0.000107071
0.0001951
0.000200852
0.000306409
0.00018587
0.000415282
0.000322328
0.00032633
0.000315152
0.000198353
0.000409935
0.000191213
0.000384641
0.000276131
0.000302494
0.000196989
0.000373573
0.000384827
0.000154039
0.000240422
0.000267052
8.69429e-05
7.81128e-05
9.32067e-05
0.000267626
7.78476e-05
6.99312e-05
0.000119094
0.000150782
0.000113019
0.000100181
0.000120273
7.48364e-05
0.000156471
0.000110322
6.34534e-05
0.000182117
0.000113974
0.000200766
7.40652e-05
0.000100396
0.000262023
0.000129383
0.00010902
0.00010292
0.000143314
0.000168749
0.000252747
0.000211738
0.00033759
0.00131265
0.00112862
0.00148317
0.00108538
0.00109037
0.00161408
0.000525672
0.00168343
0.00129981
0.0011268
0.00153314
0.000469796
0.000423104
0.000581815
0.00191448
0.00194
0.00118137
0.00129917
0.000310822
0.000205564
0.000499764
0.000288159
0.000249315
0.00153002
0.00236303
0.0012869
0.00102415
0.000403917
0.000312892
0.000353411
0.000352385
0.000535573
0.000732108
0.000480008
0.00100755
0.00249965
0.00118671
0.000957944
0.000427001
0.000588473
0.000331044
0.000393297
0.00040635
0.000230565
0.000519066
0.000364507
0.000417563
0.000836077
0.00202677
0.00131451
0.000734604
0.000506241
0.000470823
0.000395178
0.00064656
0.000514604
0.000456342
0.000542002
0.000602198
0.000495533
0.000521412
0.000544976
0.000631877
0.00197347
0.0012784
0.000878079
0.000315735
0.000727039
0.000459469
0.000577804
0.000561208
0.000540252
0.000787247
0.000664492
0.000447011
0.000460648
0.00063569
0.000534732
0.000718339
0.0005883
0.00207649
0.00117206
0.000808643
0.000806868
0.000780725
0.000541066
0.00067203
0.000429572
0.000557671
0.000533772
0.000411201
0.000582128
0.000488745
0.000545317
0.000649079
0.000523948
0.000745144
0.000634607
0.00118183
0.00246693
0.00102597
0.000635355
0.000829381
0.000878023
0.000608225
0.000317535
0.000594198
0.000910437
0.000358055
0.000508125
0.00059363
0.000200901
0.00049424
0.000342813
0.000324243
0.000409383
0.000310904
0.000451098
0.000983615
0.00126491
0.00204426
0.00104561
0.000501501
0.000419554
0.000785893
0.00132405
0.000445536
0.000785222
0.000519325
0.00104325
0.00143694
0.000257015
0.000823482
0.000251704
0.000819321
0.000397091
0.000706116
0.000478684
0.000408386
0.000947773
0.000773245
0.000738374
0.00202559
0.00248414
0.000916388
0.000587919
0.000421735
0.000580693
0.000648051
0.000751065
0.000933455
0.000855617
0.000290599
0.000229285
0.000504698
0.000242339
0.00069607
0.000503764
0.000402212
0.00112179
0.00056678
0.000274411
0.000397485
0.00133791
0.000409622
0.000516398
0.000665543
0.000840705
0.00215026
0.000593685
0.00029632
0.000652052
0.000405044
0.000442753
0.000456501
0.000963141
0.00038777
0.000560591
0.000609707
0.00034484
0.000432767
0.000428159
0.000457963
0.000592479
0.000434005
0.000718955
0.000706016
0.00068631
0.000719063
0.000672248
0.00109173
0.000613789
0.00060033
0.000925499
0.000385135
0.00137146
0.00037852
0.000295708
0.000465033
0.000256693
0.000367882
0.000259871
0.000323939
0.000465824
0.000360878
0.000316039
0.000572847
0.000354268
0.000256798
0.000198431
0.000183576
0.000213766
0.000411026
0.00023187
0.000391623
0.000450168
0.000289866
0.000390678
0.000624377
0.000551679
0.000511064
0.000831066
0.000773685
0.00112236
0.00106437
0.000271348
0.000183984
0.000198282
0.000183516
0.000156443
0.000140475
0.000222783
0.000124825
0.000155051
0.000417485
0.000220568
8.82947e-05
0.000191684
0.000363113
0.000266861
0.000104329
0.000269544
0.000262564
0.00026748
0.000298021
0.000594271
0.000328896
0.00036224
0.000590299
0.000228599
0.000346499
0.000338296
0.000486751
0.000425409
0.000423499
0.000583797
0.000227217
0.000155603
0.000188937
0.00024199
0.000119574
0.000105514
0.000172652
0.000160677
0.000123378
0.0002378
0.000205845
0.000176396
0.000348942
0.000198319
0.00017675
0.000368221
0.000230352
0.000228359
0.000143629
0.00019212
0.000413658
0.000250279
0.00014499
0.000216893
0.000480373
0.000405694
0.00031845
0.000265266
0.000498384
0.000236466
0.000447091
0.000361597
0.000525237
0.00021797
0.000275603
0.000132423
0.000126072
0.000169961
0.000183988
0.000137439
0.000118953
0.000164972
0.000152429
0.000165096
0.000123833
0.00018741
0.000122819
7.55117e-05
0.000173931
0.000261457
0.000139799
0.000220721
0.000144023
0.000124105
0.00010554
0.000357971
0.000338009
0.000231761
0.000396758
0.000383957
0.000261674
0.000359927
0.000189854
0.000382216
0.000255732
0.000308153
0.000225924
0.000288596
0.000175259
0.000455737
0.000258068
0.000149167
0.000355885
0.000196713
8.57571e-05
8.03777e-05
8.19276e-05
0.000210238
6.00615e-05
5.71874e-05
5.95898e-05
0.000136356
5.13317e-05
8.54356e-05
9.68134e-05
9.91724e-05
3.69934e-05
7.13345e-05
0.000146112
0.000119012
5.52867e-05
0.00014247
0.000105075
0.000221108
5.00409e-05
7.99948e-05
0.000189306
9.7096e-05
9.17901e-05
8.11124e-05
0.000182035
0.000111946
0.000252477
0.000229531
0.000326348
0.00276025
0.00102676
0.00157675
0.00161539
0.00106522
0.00162028
0.000481672
0.00163969
0.00244827
0.00118941
0.00143892
0.00056654
0.000648203
0.000633765
0.00132403
0.00277459
0.00107983
0.00127207
0.00051272
0.000324962
0.000381752
0.000228437
0.000494629
0.00163352
0.00316025
0.00087757
0.00130177
0.000551651
0.000324233
0.000248122
0.000152419
0.000347812
0.000257878
0.000425632
0.00126289
0.00210443