/*--------------------------------*- C++ -*----------------------------------*\
  =========                 |
  \\      /  F ield         | OpenFOAM: The Open Source CFD Toolbox
   \\    /   O peration     | Website:  https://openfoam.org
    \\  /    A nd           | Version:  7
     \\/     M anipulation  |
\*---------------------------------------------------------------------------*/
FoamFile
{
    version     2.0;
    format      ascii;
    class       volScalarField;
    location    "1";
    object      p;
}
// * * * * * * * * * * * * * * * * * * * * * * * * * * * * * * * * * * * * * //

dimensions      [0 2 -2 0 0 0 0];

internalField   nonuniform List<scalar> 
150000
(
-73.4599
-73.1379
-73.6364
-73.2008
-73.3135
-71.9827
-73.3576
-71.8921
-72.9271
-73.8261
-73.3122
-73.2212
-73.1609
-73.2287
-72.8661
-72.5481
-66.3735
-71.6215
-73.5823
-72.17
-73.9847
-71.6866
-72.8052
-74.0018
-73.5084
-73.4933
-74.656
-73.0292
-73.2362
-73.2091
-73.6007
-73.3178
-74.4103
-72.4446
-73.0356
-69.9774
-73.6738
-64.7839
-71.4969
-73.7766
-72.7061
-74.0762
-75.3611
-73.9354
-71.4792
-72.8342
-74.1391
-73.8126
-73.8027
-74.6632
-74.9821
-74.659
-72.9655
-73.4697
-73.2495
-74.0141
-74.0872
-74.6185
-73.0194
-73.7134
-74.8728
-74.9454
-73.8825
-72.1247
-73.4656
-71.6818
-74.0974
-75.0176
-73.0838
-54.6099
-71.4507
-73.9303
-73.2382
-74.1906
-75.3674
-75.4351
-75.3425
-73.9237
-71.9547
-72.9391
-74.228
-74.1813
-74.1048
-74.6819
-74.9809
-75.3869
-74.9949
-74.6686
-72.9959
-73.8115
-73.3472
-73.9391
-74.5201
-74.29
-73.5293
-74.5099
-74.9807
-75.7859
-74.0379
-72.5179
-74.1051
-74.7715
-75.099
-75.2254
-74.7433
-74.4266
-71.8664
-73.8461
-72.3718
-74.3915
-75.1016
-75.6222
-74.8941
-72.6179
-64.7363
-71.7644
-74.0522
-73.6619
-74.3218
-75.3701
-75.4096
-75.7747
-75.4626
-75.3025
-73.9497
-72.3034
-73.1381
-74.2772
-74.5351
-74.3629
-74.7101
-74.9822
-75.3526
-75.6241
-75.4184
-75.0199
-74.6805
-73.123
-74.1936
-73.5404
-73.746
-74.2829
-74.7193
-73.4008
-74.9189
-74.9762
-75.456
-73.8205
-72.939
-74.8776
-75.0092
-75.812
-74.9295
-75.6274
-73.2067
-72.082
-74.4432
-74.8615
-75.1633
-75.3563
-75.689
-75.0071
-74.4766
-73.9914
-71.6905
-74.1514
-73.3731
-74.4686
-75.1384
-75.6175
-75.805
-75.6256
-74.8463
-72.6819
-66.4144
-72.2176
-74.1392
-73.9709
-74.4684
-75.4029
-75.3957
-75.767
-75.884
-75.7791
-75.4922
-75.2658
-73.9977
-72.6055
-73.4132
-74.3119
-74.8031
-74.5492
-74.7499
-74.9856
-75.3218
-75.6144
-75.7285
-75.6395
-75.4481
-75.0478
-74.7077
-73.3769
-74.5334
-73.8057
-73.3442
-73.9611
-73.0498
-73.5759
-74.5517
-75.3217
-75.0053
-73.4131
-72.9695
-75.1392
-75.7767
-75.6155
-74.9596
-75.1175
-73.1733
-72.2218
-75.1289
-75.2026
-75.8074
-75.1839
-75.8413
-74.5496
-75.3298
-72.9123
-71.6584
-74.6988
-75.074
-75.2069
-75.4702
-75.7622
-75.8511
-75.6179
-74.739
-74.151
-74.3461
-71.6586
-74.3636
-74.0562
-74.5597
-75.1596
-75.6158
-75.7973
-75.9559
-75.8097
-75.6376
-74.8906
-72.8176
-70.5612
-72.496
-74.1859
-74.1717
-74.6086
-75.4331
-75.3901
-75.7546
-75.8804
-76.0018
-75.8849
-75.7765
-75.5217
-75.2371
-74.0637
-73.2869
-73.6979
-74.3101
-74.9418
-74.6498
-74.7855
-74.9981
-75.3067
-75.6109
-75.732
-75.9915
-75.7281
-75.6568
-75.4735
-75.0787
-74.7533
-73.7065
-74.7678
-74.1004
-73.0076
-73.4894
-72.8595
-73.1745
-74.1796
-73.8735
-74.7014
-72.098
-73.5086
-74.8054
-75.474
-75.215
-74.9963
-74.5728
-72.4565
-72.6714
-75.3195
-75.6133
-75.7153
-75.169
-75.8059
-74.7177
-74.8342
-72.8741
-71.5615
-75.2901
-75.345
-75.8118
-75.3856
-75.9969
-75.722
-75.619
-74.0305
-75.0965
-73.1869
-71.3569
-74.888
-75.2125
-75.2148
-75.5588
-75.8261
-75.8953
-76.0867
-75.8053
-75.5701
-74.5462
-74.0069
-74.778
-71.7717
-74.5088
-74.4656
-74.6445
-75.1686
-75.6275
-75.7967
-75.9675
-76.0918
-75.9506
-75.8273
-75.6532
-74.9143
-73.1416
-72.343
-73.0808
-74.2011
-74.2875
-74.7331
-75.4431
-75.389
-75.7308
-75.8759
-75.9983
-76.1678
-76.0052
-75.8824
-75.7707
-75.5521
-75.2381
-74.1583
-73.8836
-73.97
-74.2486
-74.9675
-74.6572
-74.8174
-75.0191
-75.2925
-75.6114
-75.7365
-75.9832
-76.1089
-75.9997
-75.7323
-75.6726
-75.4958
-75.1071
-74.8104
-74.035
-74.8304
-74.375
-72.5123
-73.1691
-72.9913
-72.8037
-73.6623
-73.1709
-73.3509
-72.6105
-73.0364
-74.3626
-74.5168
-74.8508
-74.3985
-74.3266
-71.7925
-73.6135
-75.0062
-75.679
-75.2888
-75.0841
-75.4863
-74.8051
-74.0696
-71.8468
-72.333
-75.4645
-75.785
-75.8799
-75.3678
-75.9574
-75.8581
-75.6031
-74.4967
-74.6046
-72.592
-71.0152
-75.3962
-75.427
-75.8656
-75.5768
-76.11
-75.8421
-75.9229
-75.6338
-75.3389
-73.6171
-74.9014
-73.4145
-71.2486
-75.031
-75.3128
-75.2474
-75.5954
-75.8525
-75.9142
-76.1073
-76.2916
-76.0674
-75.7895
-75.5383
-74.3795
-74.167
-74.351
-71.9829
-74.6501
-74.6609
-74.7284
-75.2117
-75.6438
-75.8304
-75.9689
-76.0959
-76.3685
-76.0803
-75.9525
-75.8659
-75.6548
-74.9173
-73.5101
-72.8589
-73.5043
-74.2382
-74.3648
-74.8364
-75.4588
-75.3973
-75.7022
-75.8698
-75.9959
-76.1538
-76.3161
-76.1761
-76.0082
-75.8803
-75.7814
-75.5872
-75.2716
-74.2679
-74.3681
-74.2126
-74.2352
-74.935
-74.588
-74.8438
-75.046
-75.2892
-75.6134
-75.7415
-75.9744
-76.1025
-76.3339
-76.1166
-76.0088
-75.74
-75.6883
-75.5123
-75.1311
-74.869
-74.3127
-74.7456
-74.5941
-71.9502
-72.5416
-72.3386
-72.3987
-73.237
-73.1854
-73.2982
-73.0029
-72.7527
-73.9004
-73.6457
-73.5958
-73.792
-73.2136
-72.7347
-73.1199
-74.5761
-74.863
-74.8153
-74.5346
-74.831
-74.3773
-73.7364
-71.8094
-73.2854
-75.1252
-75.6659
-75.4515
-75.1542
-75.5543
-75.9422
-75.3877
-74.5904
-73.8586
-71.4009
-72.1778
-75.5677
-75.7365
-76.0553
-75.5532
-76.1293
-75.8538
-76.0645
-75.6741
-75.1949
-74.2534
-74.4947
-72.4925
-70.5341
-75.4726
-75.4131
-75.9352
-75.7479
-76.2213
-75.9042
-76.0367
-76.6079
-75.8331
-75.5095
-75.0565
-73.3205
-74.7256
-73.4258
-71.1638
-75.1173
-75.3766
-75.295
-75.5959
-75.8385
-75.9171
-76.1216
-76.3389
-76.4777
-76.2281
-76.057
-75.802
-75.5016
-74.2881
-74.36
-74.2535
-72.3216
-74.7788
-74.7981
-74.8416
-75.2416
-75.6363
-75.7931
-75.9652
-76.104
-76.3736
-76.4393
-76.3682
-76.0684
-75.9587
-75.9008
-75.72
-74.8966
-73.8282
-73.8471
-73.8142
-74.3269
-74.4367
-74.941
-75.4774
-75.4075
-75.6858
-75.8647
-75.9912
-76.1451
-76.3287
-76.4895
-76.2993
-76.1854
-76.007
-75.8786
-75.8112
-75.644
-75.3327
-74.3831
-74.7304
-74.387
-74.3183
-74.8996
-74.5404
-74.8645
-75.0764
-75.299
-75.6195
-75.7476
-75.9664
-76.0976
-76.3317
-76.3851
-76.3367
-76.1257
-76.0179
-75.7505
-75.7029
-75.5242
-75.1546
-74.9209
-74.5132
-74.7145
-74.7494
-71.8523
-72.0395
-72.2074
-72.0902
-72.643
-72.3352
-72.4787
-72.4531
-72.4293
-73.2894
-73.5098
-73.5073
-73.482
-73.0176
-73.068
-72.8433
-74.132
-74.2144
-73.8502
-73.9207
-74.1336
-73.7222
-72.8904
-73.2053
-73.0361
-74.7356
-74.964
-74.8594
-74.6399
-74.9199
-75.0508
-74.7722
-74.2572
-73.536
-72.3845
-73.1045
-75.2701
-75.6466
-75.6061
-75.2814
-75.6295
-75.8238
-76.2395
-75.9109
-75.4287
-74.5622
-73.7803
-71.3851
-71.9399
-75.687
-75.7374
-76.1966
-75.7805
-76.2697
-75.8635
-76.2135
-76.6878
-75.9504
-75.528
-74.9534
-74.1955
-74.8268
-72.819
-70.7498
-75.5441
-75.4162
-75.9977
-75.8372
-76.3048
-76.0095
-76.1361
-76.6255
-76.653
-76.3262
-75.8351
-75.4638
-74.8873
-73.1681
-74.6524
-73.6533
-71.7809
-75.1736
-75.4226
-75.3395
-75.608
-75.8311
-75.9419
-76.1325
-76.3635
-76.5047
-76.7062
-76.4606
-76.2016
-76.0563
-75.8234
-75.4546
-74.2385
-74.3963
-74.405
-72.7639
-74.8362
-74.8628
-74.9464
-75.2668
-75.6261
-75.7495
-75.9581
-76.1174
-76.3875
-76.4378
-76.7428
-76.4363
-76.3676
-76.06
-75.9714
-75.9184
-75.775
-74.9161
-74.0759
-74.4007
-74.0086
-74.4574
-74.502
-75.047
-75.5168
-75.4221
-75.6734
-75.854
-75.9842
-76.1472
-76.3272
-76.4882
-76.5426
-76.4929
-76.278
-76.1956
-76.0037
-75.8779
-75.8327
-75.708
-75.4197
-74.4927
-74.9378
-74.513
-74.3192
-74.8839
-74.5363
-74.8823
-75.1084
-75.3202
-75.6272
-75.7536
-75.9593
-76.0948
-76.3298
-76.3844
-76.4431
-76.3859
-76.3387
-76.1401
-76.0267
-75.7641
-75.7177
-75.5354
-75.1792
-74.9615
-74.6295
-74.803
-74.8566
-71.7853
-71.8664
-71.8984
-71.8586
-72.2126
-72.0854
-72.1133
-72.5472
-72.1181
-72.7095
-72.4814
-72.6927
-72.7628
-72.27
-72.8074
-72.5496
-73.5365
-73.8775
-73.5295
-73.4719
-73.5127
-73.4026
-72.7826
-73.213
-72.8164
-74.3377
-74.5154
-74.1121
-74.0111
-74.1837
-74.3692
-73.9272
-73.6388
-72.9682
-73.6978
-72.8493
-74.8486
-75.1199
-74.872
-74.692
-74.941
-75.1499
-75.2643
-74.9649
-74.6972
-74.1403
-73.4022
-73.1614
-73.0436
-75.3912
-75.6433
-75.6007
-75.523
-75.6219
-75.8525
-76.1512
-76.3977
-76.2331
-75.748
-75.1368
-74.7127
-73.8059
-71.6995
-71.4605
-75.8278
-75.7272
-76.1839
-75.9332
-76.3804
-75.8785
-76.3315
-77.0311
-76.8617
-76.3342
-75.8613
-75.4609
-74.9041
-74.4077
-75.159
-73.1474
-71.6267
-75.6242
-75.4308
-75.8806
-75.8388
-76.3375
-76.0669
-76.2829
-76.6469
-76.7371
-77.1037
-76.6523
-76.4626
-75.852
-75.494
-74.8063
-73.1627
-74.6902
-74.1149
-72.7267
-75.2305
-75.4283
-75.3886
-75.6278
-75.8341
-75.9621
-76.1444
-76.3851
-76.5366
-76.7248
-76.9868
-76.6716
-76.4494
-76.1767
-76.0597
-75.8544
-75.4871
-74.2528
-74.5208
-74.5856
-73.15
-74.8218
-74.8844
-75.0143
-75.2895
-75.6184
-75.7636
-75.954
-76.1274
-76.3923
-76.4349
-76.7657
-76.6243
-76.7083
-76.4236
-76.3719
-76.0526
-75.9906
-75.9326
-75.8058
-74.9521
-74.2852
-74.7806
-74.2116
-74.535
-74.5692
-75.1243
-75.552
-75.444
-75.6656
-75.8392
-75.9793
-76.1518
-76.3164
-76.4845
-76.5368
-76.5431
-76.5463
-76.4997
-76.2551
-76.2035
-75.9998
-75.8771
-75.844
-75.7435
-75.4887
-74.5872
-75.036
-74.6075
-74.1523
-74.8355
-74.5358
-74.8998
-75.1402
-75.3488
-75.6336
-75.76
-75.9518
-76.0936
-76.3281
-76.3839
-76.438
-76.641
-76.4498
-76.3868
-76.3362
-76.1517
-76.0351
-75.7767
-75.7314
-75.5463
-75.2044
-74.989
-74.6756
-74.8875
-74.9362
-71.7911
-71.8137
-71.697
-71.6405
-71.9801
-71.9051
-71.7756
-71.953
-71.7812
-72.3891
-72.0617
-72.2392
-72.3237
-71.9968
-72.6542
-72.2329
-72.9427
-72.75
-72.8532
-72.8401
-72.7818
-72.8265
-72.2457
-73.2375
-72.4666
-73.7724
-74.2011
-73.5656
-73.4069
-73.5397
-73.616
-73.4961
-73.3662
-72.6757
-73.2793
-72.5159
-74.3975
-74.8224
-74.429
-74.3203
-74.2932
-74.4112
-74.5472
-74.2168
-73.6228
-73.6687
-73.1262
-73.6248
-72.7092
-74.9696
-75.1621
-75.0546
-75.0287
-75.0853
-75.2061
-75.3121
-76.2806
-75.4286
-74.9206
-74.6196
-74.0856
-73.3998
-73.1026
-72.7892
-75.481
-75.6048
-75.5571
-75.7694
-75.7905
-75.9655
-76.2113
-76.9172
-76.8432
-76.4983
-76.3502
-75.9085
-75.2722
-74.8701
-73.8873
-72.1109
-71.7656
-75.932
-75.7117
-76.1186
-75.9716
-76.3641
-76.017
-76.3566
-76.7802
-77.0478
-77.5857
-76.9738
-76.2867
-75.7976
-75.4089
-74.949
-74.8039
-75.3547
-73.7667
-71.9959
-75.6932
-75.4752
-75.8228
-75.7411
-76.2807
-76.1223
-76.384
-76.6846
-76.8511
-77.1362
-77.323
-76.9788
-76.6552
-76.2234
-75.8477
-75.5762
-74.8104
-73.2779
-74.7679
-74.6583
-74.0181
-75.3008
-75.4355
-75.4454
-75.651
-75.8337
-75.9793
-76.1568
-76.4079
-76.5626
-76.737
-77.0075
-76.9147
-76.9713
-76.6458
-76.4449
-76.1488
-76.0783
-75.8945
-75.5672
-74.3214
-74.5669
-74.8178
-73.5529
-74.8147
-74.9145
-75.0574
-75.3077
-75.6062
-75.7694
-75.9533
-76.1332
-76.3925
-76.4328
-76.7893
-76.6144
-76.789
-76.6385
-76.6711
-76.4099
-76.3823
-76.0444
-76.0181
-75.9446
-75.8653
-75.0483
-74.4551
-75.1255
-74.3782
-74.5745
-74.6341
-75.1813
-75.5653
-75.4624
-75.6598
-75.829
-75.9781
-76.1466
-76.3072
-76.4743
-76.531
-76.5464
-76.8006
-76.5393
-76.5468
-76.5087
-76.2324
-76.2123
-75.9935
-75.8765
-75.8509
-75.7761
-75.5321
-74.6663
-75.0757
-74.6935
-74.092
-74.7629
-74.5347
-74.9212
-75.1731
-75.3792
-75.6402
-75.7651
-75.9459
-76.0931
-76.3263
-76.3833
-76.4338
-76.6458
-76.7317
-76.6367
-76.458
-76.3875
-76.3349
-76.157
-76.0423
-75.7852
-75.7392
-75.5573
-75.2315
-75.0027
-74.6737
-75.0148
-74.9887
-71.653
-71.7531
-71.8964
-71.7797
-71.7229
-71.6379
-71.512
-71.7994
-71.9167
-72.1307
-71.8831
-71.889
-72.0303
-71.7033
-72.0128
-72.2502
-72.4654
-72.2502
-72.3342
-72.4226
-72.2414
-72.3856
-71.9277
-72.2874
-72.1972
-73.2823
-73.1804
-73.1596
-73.0251
-72.8991
-72.9662
-72.6694
-72.958
-72.3014
-72.8095
-72.0682
-74.0437
-74.3373
-73.8551
-73.7673
-73.7264
-73.69
-73.9075
-73.5387
-73.4759
-73.327
-72.7281
-72.7822
-72.1911
-74.5341
-75.0108
-74.6984
-74.7596
-74.4936
-74.483
-74.5556
-74.8077
-74.566
-74.1337
-73.8833
-73.7289
-73.1511
-73.2598
-72.5494
-75.067
-75.1847
-75.1938
-75.3305
-75.4492
-75.3288
-75.385
-75.727
-76.8869
-76.2899
-75.6982
-74.9203
-74.501
-74.1194
-73.61
-72.9928
-72.5547
-75.598
-75.5734
-75.6644
-75.8058
-75.9952
-76.1909
-76.3497
-76.4115
-76.5668
-77.2176
-77.1502
-76.6879
-76.4997
-76.4412
-75.6466
-75.0609
-74.1584
-72.6305
-73.1999
-76.0293
-75.7282
-76.0999
-75.9505
-76.2705
-76.2061
-76.5558
-76.8922
-77.2205
-77.5984
-77.848
-77.2654
-76.91
-76.3038
-75.8002
-75.7808
-75.1593
-75.302
-75.5756
-74.1039
-72.8534
-75.7676
-75.5437
-75.6978
-75.7506
-76.2045
-76.1797
-76.464
-76.7627
-76.8685
-77.186
-77.3477
-77.4187
-77.24
-76.9507
-76.5594
-76.2868
-75.8759
-75.6008
-74.866
-73.5494
-74.9397
-75.4166
-74.9034
-75.3542
-75.4408
-75.5069
-75.6768
-75.8319
-75.9964
-76.1623
-76.4276
-76.5805
-76.7347
-77.0121
-76.9356
-77.1524
-76.88
-76.9394
-76.6269
-76.429
-76.1354
-76.1122
-75.9531
-75.7248
-74.5282
-74.6867
-75.0529
-74.0499
-74.844
-74.913
-75.1124
-75.3194
-75.5892
-75.7735
-75.9471
-76.1363
-76.3902
-76.4312
-76.8102
-76.61
-76.8173
-76.9873
-76.7575
-76.6597
-76.6451
-76.3978
-76.3918
-76.0424
-76.0365
-75.956
-75.9318
-75.2111
-74.5618
-75.3528
-74.5622
-74.6312
-74.6966
-75.2164
-75.5605
-75.4761
-75.6559
-75.8209
-75.9733
-76.137
-76.2974
-76.46
-76.5275
-76.5529
-76.8041
-76.8616
-76.796
-76.5381
-76.5444
-76.5092
-76.2076
-76.2232
-75.9876
-75.8766
-75.8589
-75.8027
-75.5728
-74.7321
-75.1294
-74.7802
-74.2691
-74.7065
-74.5009
-74.9478
-75.1991
-75.4054
-75.6463
-75.7705
-75.9446
-76.0933
-76.3243
-76.3828
-76.437
-76.6502
-76.732
-76.804
-76.7316
-76.6313
-76.4663
-76.3891
-76.3389
-76.1608
-76.0468
-75.7918
-75.7431
-75.5679
-75.2642
-75.0053
-74.6364
-75.2117
-75.0119
-71.29
-71.6057
-71.5255
-71.5956
-71.714
-71.6377
-71.4507
-72.0045
-72.0174
-71.9247
-71.7287
-71.597
-71.8594
-71.453
-72.3209
-71.9326
-72.2721
-71.962
-71.9829
-72.0509
-71.8641
-72.0329
-71.6593
-71.9964
-71.9726
-72.8273
-72.52
-72.5308
-72.5318
-72.2761
-72.4454
-72.2175
-72.385
-71.9543
-72.0532
-71.9663
-73.5387
-73.56
-73.2966
-73.0946
-72.9795
-72.9788
-73.1395
-72.874
-72.6591
-72.8832
-72.3572
-72.2058
-72.0437
-74.1416
-74.584
-74.1128
-73.8049
-73.7811
-73.7168
-73.8564
-73.9944
-73.8585
-73.5199
-73.4418
-73.2814
-72.6817
-72.6209
-71.9979
-74.567
-74.9976
-74.9958
-75.0263
-74.6436
-74.586
-74.6156
-74.4198
-75.1476
-74.9816
-74.5605
-74.2279
-73.994
-73.7328
-73.2157
-73.0891
-72.5767
-75.147
-75.1989
-75.3146
-75.5941
-75.768
-75.6062
-75.3866
-75.7897
-76.4872
-76.7453
-76.8016
-76.3072
-75.7891
-75.3869
-74.5351
-74.2375
-74.0772
-72.7967
-72.9405
-75.7474
-75.5745
-75.6974
-75.8606
-76.1549
-76.3086
-76.7305
-76.4482
-76.7523
-77.1896
-77.4464
-77.2372
-76.9977
-76.778
-76.4835
-76.7885
-76.1133
-75.366
-74.5376
-73.4001
-73.5995
-76.1751
-75.7811
-76.0309
-75.9343
-76.2227
-76.3332
-76.7078
-77.1965
-77.3073
-77.5734
-77.9559
-77.6359
-77.6498
-77.2911
-76.6416
-76.3219
-75.8931
-75.8908
-75.5515
-75.8644
-75.6554
-74.5924
-74.1013
-75.8592
-75.6111
-75.6482
-75.7721
-76.1406
-76.2151
-76.4874
-76.904
-76.9152
-77.275
-77.3594
-77.5416
-77.4446
-77.3398
-77.2193
-76.8718
-76.5088
-76.246
-75.9548
-75.7125
-75.0712
-73.9269
-75.1548
-75.8665
-75.5298
-75.3794
-75.4497
-75.5509
-75.7076
-75.8312
-76.0127
-76.1548
-76.4237
-76.5957
-76.7145
-76.9967
-76.9522
-77.187
-77.0125
-77.1168
-76.8688
-76.8876
-76.6472
-76.4158
-76.1337
-76.1531
-76.0242
-75.9118
-74.7924
-74.8429
-75.2714
-74.4334
-74.8893
-74.9275
-75.1428
-75.3273
-75.5752
-75.7753
-75.9399
-76.1346
-76.3799
-76.4255
-76.8255
-76.6072
-76.8525
-76.9714
-77.0169
-77.0018
-76.7523
-76.6609
-76.6277
-76.3932
-76.3976
-76.0427
-76.0433
-75.9668
-75.9839
-75.3455
-74.6377
-75.4501
-74.7739
-74.6701
-74.7624
-75.2257
-75.547
-75.4845
-75.649
-75.813
-75.9649
-76.131
-76.2861
-76.4453
-76.5235
-76.5599
-76.8035
-76.8557
-76.9218
-76.8679
-76.7902
-76.5316
-76.5432
-76.5059
-76.1853
-76.2357
-75.9826
-75.8797
-75.8662
-75.826
-75.6066
-74.7986
-75.2456
-74.8402
-74.355
-74.6686
-74.4784
-74.9787
-75.2242
-75.4255
-75.6508
-75.7763
-75.9465
-76.0905
-76.322
-76.3822
-76.4449
-76.6474
-76.7318
-76.8032
-76.9365
-76.8049
-76.7316
-76.6266
-76.4671
-76.3916
-76.3437
-76.1625
-76.0497
-75.7975
-75.7448
-75.5764
-75.3002
-75.0035
-74.6108
-75.287
-75.011
-71.2774
-71.2947
-71.1749
-71.4465
-71.5218
-71.5489
-71.1972
-71.517
-71.4652
-71.7323
-71.6194
-71.4814
-71.625
-71.3069
-72.1984
-71.5618
-72.0182
-71.8319
-71.7354
-71.8171
-71.569
-71.8474
-71.5424
-72.7125
-71.4749
-72.3637
-72.1105
-72.151
-72.0868
-71.9639
-72.0586
-71.8156
-72.0294
-71.6309
-72.2629
-71.8175
-73.0399
-72.7641
-72.6869
-72.6123
-72.3969
-72.4642
-72.5284
-72.3716
-72.175
-72.3264
-71.9728
-71.8709
-71.7129
-73.6602
-73.8006
-73.5099
-73.1755
-73.0196
-73.0508
-73.1227
-73.2398
-73.1878
-72.8319
-72.613
-72.7428
-72.2878
-72.0982
-72
-74.1132
-74.5326
-74.2935
-74.0135
-73.8214
-73.7704
-73.8807
-73.9716
-74.2712
-73.9988
-73.786
-73.5253
-73.4422
-73.1593
-72.6441
-72.4924
-71.9337
-74.5977
-74.8738
-75.1133
-75.1021
-74.9045
-74.7145
-74.7807
-75.2784
-75.1733
-75.6091
-75.2325
-75.013
-74.7115
-74.3343
-74.133
-73.8005
-73.3052
-73.1074
-72.745
-75.2335
-75.1918
-75.4055
-75.8146
-75.9547
-75.9629
-75.6101
-75.8131
-76.2859
-76.9159
-76.5985
-76.8834
-76.8335
-76.4151
-75.8974
-75.3456
-74.4436
-74.2161
-73.9451
-72.9534
-73.2029
-75.9082
-75.614
-75.6711
-75.9202
-76.2
-76.5981
-76.9373
-76.5801
-76.6329
-76.8493
-77.6232
-77.3996
-77.2871
-77.0931
-76.883
-76.8268
-76.883
-76.9589
-76.7192
-76.0463
-75.2192
-74.2751
-73.7015
-76.3741
-75.9313
-75.9483
-75.9425
-76.1654
-76.4178
-76.7031
-77.461
-77.4813
-77.632
-77.9251
-77.8651
-77.7712
-77.564
-77.5056
-77.0049
-76.6622
-76.3756
-76.1861
-76.0786
-76.2792
-76.4472
-76.1514
-75.6736
-75.3108
-75.9765
-75.7423
-75.6693
-75.7892
-76.069
-76.2198
-76.4453
-76.892
-77.0484
-77.2124
-77.3807
-77.5793
-77.5149
-77.5227
-77.3811
-77.2764
-77.1465
-76.8331
-76.4382
-76.2296
-76.0386
-75.8509
-75.4009
-74.4887
-75.4785
-75.9498
-75.8306
-75.3944
-75.4579
-75.588
-75.7358
-75.8277
-76.0234
-76.1466
-76.4118
-76.597
-76.6838
-76.9597
-76.9785
-77.2088
-77.0163
-77.1427
-77.0111
-77.0808
-76.862
-76.8141
-76.696
-76.4799
-76.1598
-76.197
-76.1027
-76.0542
-75.0312
-74.9742
-75.4344
-74.6606
-74.9229
-74.9745
-75.1582
-75.3365
-75.5647
-75.774
-75.9306
-76.1317
-76.3737
-76.4154
-76.8362
-76.6005
-76.8785
-76.9599
-77.0256
-77.1128
-77.0103
-76.9859
-76.7724
-76.631
-76.6171
-76.3761
-76.41
-76.0692
-76.0461
-75.971
-76.0484
-75.4455
-74.7377
-75.5725
-74.8861
-74.6927
-74.8241
-75.2436
-75.539
-75.4918
-75.6375
-75.8053
-75.9565
-76.1208
-76.2724
-76.4322
-76.519
-76.568
-76.797
-76.8535
-76.9181
-76.9997
-76.9238
-76.8723
-76.7891
-76.5208
-76.5429
-76.4999
-76.1663
-76.2431
-75.9749
-75.8817
-75.8728
-75.8466
-75.6531
-74.8694
-75.3048
-74.9065
-74.3228
-74.5931
-74.4992
-75.0279
-75.2644
-75.4397
-75.6538
-75.7808
-75.9485
-76.0848
-76.3194
-76.3813
-76.4493
-76.6358
-76.7321
-76.8025
-76.9368
-77.026
-76.9362
-76.8056
-76.7313
-76.6283
-76.463
-76.3946
-76.348
-76.1616
-76.0512
-75.802
-75.7446
-75.5846
-75.3287
-74.9999
-74.622
-75.2695
-74.9761
-71.1084
-71.0981
-71.5357
-71.2858
-71.3931
-71.2707
-70.9229
-71.2814
-70.9391
-71.5748
-71.4344
-71.2221
-71.3446
-71.0906
-71.748
-71.1695
-71.7611
-71.6523
-71.5838
-71.5891
-71.3293
-71.6764
-71.4732
-72.0608
-70.6256
-72.0123
-71.8847
-71.8998
-71.8864
-71.6529
-71.723
-71.4737
-71.8587
-71.4833
-72.3231
-71.1193
-72.4487
-72.2881
-72.3358
-72.1019
-72.0661
-72.0833
-72.0639
-72.0231
-71.7597
-72.089
-71.6594
-71.7816
-71.5142
-73.0377
-72.9063
-72.8207
-72.7074
-72.5555
-72.4094
-72.5426
-72.6709
-72.4697
-72.3148
-72.1951
-72.2303
-71.8622
-71.7945
-71.7077
-73.6098
-73.7531
-73.7636
-73.1564
-73.1164
-73.1251
-73.1739
-73.2664
-73.2499
-73.0729
-73.1281
-72.7516
-72.6167
-72.587
-72.2719
-72.1286
-71.8759
-74.0673
-74.3514
-74.3337
-74.2478
-73.9767
-73.8481
-73.9613
-74.0015
-74.2339
-74.5776
-74.2291
-74.0691
-73.8424
-73.49
-73.2617
-73.0916
-72.5388
-72.4841
-71.8574
-74.6258
-74.8044
-75.1264
-75.2048
-75.1635
-74.991
-74.7833
-74.8916
-75.1545
-75.4207
-75.7877
-75.7135
-75.4296
-75.1949
-74.9615
-74.4482
-74.341
-73.9062
-73.6702
-73.0106
-72.744
-75.3499
-75.2147
-75.4653
-75.9366
-76.0408
-76.4377
-75.7189
-76.0845
-76.3242
-76.5936
-76.9687
-76.7384
-76.7886
-76.7057
-76.8606
-77.001
-76.5137
-75.3046
-74.7491
-74.4774
-74.0749
-73.1296
-72.8876
-76.0905
-75.7681
-75.6975
-75.8896
-76.3188
-76.8858
-77.047
-76.6243
-76.5963
-77.0314
-77.4801
-77.6197
-77.5896
-77.4063
-77.1255
-76.8013
-76.7914
-76.8726
-77.2848
-76.9797
-77.0866
-76.7742
-75.826
-75.1177
-73.8496
-76.5344
-76.1769
-75.9761
-75.9716
-76.131
-76.3523
-76.6823
-77.6159
-77.6469
-77.7037
-77.9607
-77.8374
-77.9145
-77.7982
-77.6577
-77.5594
-77.1751
-76.8676
-76.5372
-76.3501
-76.1948
-75.9515
-76.6748
-77.0711
-76.8786
-77.2267
-76.5302
-76.0782
-75.8888
-75.7516
-75.8053
-76.0055
-76.1938
-76.3676
-76.7746
-77.0614
-77.1816
-77.326
-77.5531
-77.5646
-77.5709
-77.4382
-77.4925
-77.2539
-77.2351
-77.064
-76.7948
-76.4151
-76.2442
-76.1422
-75.9682
-75.6324
-75.0662
-75.5763
-76.1341
-75.9071
-75.3806
-75.4656
-75.6135
-75.7612
-75.8266
-76.0211
-76.1343
-76.393
-76.5846
-76.6383
-76.9461
-76.9961
-77.2171
-77.0078
-77.165
-77.3131
-77.1189
-77.0238
-77.0498
-76.8064
-76.7801
-76.6243
-76.4595
-76.2039
-76.2261
-76.1612
-76.1736
-75.2331
-75.096
-75.4794
-74.8532
-74.9437
-75.0081
-75.1795
-75.3486
-75.556
-75.7675
-75.9239
-76.1293
-76.3686
-76.4076
-76.8474
-76.5935
-76.9137
-76.9367
-77.0244
-77.117
-77.1482
-77.1052
-76.9947
-76.9493
-76.7745
-76.6268
-76.6229
-76.3572
-76.4052
-76.0753
-76.0472
-75.9812
-76.0775
-75.507
-74.8197
-75.5949
-74.9165
-74.7255
-74.8545
-75.2632
-75.5344
-75.4983
-75.6245
-75.7965
-75.9487
-76.1118
-76.2581
-76.4218
-76.5143
-76.577
-76.7909
-76.8519
-76.9133
-77.0007
-77.1317
-76.9999
-76.9242
-76.8741
-76.7933
-76.5111
-76.5427
-76.4885
-76.156
-76.2428
-75.9636
-75.8822
-75.876
-75.8587
-75.7042
-74.9255
-75.325
-74.9818
-74.2362
-74.4679
-74.5182
-75.0819
-75.315
-75.4494
-75.6562
-75.7846
-75.9501
-76.0801
-76.3164
-76.3802
-76.4513
-76.6281
-76.735
-76.802
-76.937
-77.0264
-77.201
-77.0257
-76.9358
-76.8064
-76.7321
-76.6338
-76.4626
-76.3985
-76.3532
-76.1588
-76.0524
-75.8059
-75.7432
-75.5921
-75.3373
-74.9913
-74.6041
-75.2423
-74.9658
-69.9439
-71.2254
-71.6395
-70.8529
-71.0774
-71.2127
-70.6468
-71.6775
-70.2108
-71.3939
-71.3264
-71.0178
-71.0776
-70.8567
-71.7601
-70.1614
-71.6123
-71.4659
-71.3758
-71.3834
-71.1249
-71.4893
-70.9087
-71.5691
-70.0778
-71.805
-71.602
-71.7459
-71.6172
-71.3236
-71.5253
-71.3633
-71.5913
-71.2555
-71.4899
-70.865
-72.1134
-71.8617
-72.0617
-71.868
-71.6818
-71.7626
-71.7246
-71.6499
-71.4735
-71.7887
-71.3042
-71.3815
-71.052
-72.4309
-72.4008
-72.4871
-72.1358
-71.9624
-72.1171
-72.1017
-72.0561
-72.0823
-71.9258
-71.7746
-71.9356
-71.6132
-71.5332
-71.3174
-72.9466
-72.7962
-72.8804
-72.7665
-72.66
-72.5307
-72.5941
-72.6218
-72.7724
-72.626
-72.5061
-72.2981
-72.1224
-72.0717
-71.8797
-71.7447
-71.6919
-73.5215
-73.7149
-73.5673
-73.3223
-73.2534
-73.2258
-73.2996
-73.2296
-73.2124
-73.5641
-73.3776
-73.1248
-72.9633
-72.7179
-72.6492
-72.4594
-72.239
-72.0782
-71.8524
-74.0306
-74.354
-74.4634
-74.3152
-74.2224
-73.9538
-74.0186
-73.9621
-74.1648
-74.493
-74.7974
-74.5219
-74.2244
-74.2059
-73.9555
-73.4709
-73.3248
-73.1227
-72.5672
-72.7232
-72.0135
-74.6683
-74.7872
-75.1364
-75.4703
-75.3042
-75.1443
-74.8143
-74.9616
-75.367
-75.4304
-75.7641
-76.0225
-76.0403
-75.6869
-75.4374
-75.2327
-74.9285
-74.5514
-74.3421
-73.9336
-73.7434
-72.9576
-72.8684
-75.4793
-75.2361
-75.4608
-75.8652
-76.3175
-76.884
-75.8143
-75.9947
-76.2223
-76.7774
-76.6687
-76.9067
-77.0729
-76.9178
-76.7652
-76.6747
-77.0219
-76.9049
-76.5944
-75.4494
-75.1096
-74.942
-74.2227
-73.7047
-73.0893
-76.2568
-75.9958
-75.7731
-75.917
-76.2805
-77.0466
-77.29
-76.8196
-76.7348
-76.8364
-77.2944
-77.7813
-77.6981
-77.6381
-77.5019
-77.4062
-77.0143
-76.7883
-76.6146
-76.8396
-77.102
-77.4049
-77.6892
-77.5251
-76.136
-75.5574
-73.9182
-76.5904
-76.4863
-76.0998
-76.0445
-76.1085
-76.2805
-76.6656
-77.5136
-77.7098
-77.7458
-78.0178
-77.7354
-77.9208
-77.853
-77.8724
-77.7792
-77.5505
-77.3849
-77.149
-76.7565
-76.4501
-76.2902
-76.4286
-76.3596
-76.5358
-77.4174
-77.6624
-77.9591
-77.1833
-76.0532
-76.0062
-75.8897
-75.8478
-76.0138
-76.1726
-76.3289
-76.7032
-76.9875
-77.0783
-77.3446
-77.561
-77.6467
-77.6092
-77.4776
-77.4361
-77.3685
-77.4303
-77.1286
-77.2037
-77.0012
-76.7298
-76.3712
-76.2088
-76.2364
-76.0621
-75.7726
-75.4397
-75.8891
-76.365
-75.8567
-75.3414
-75.4601
-75.634
-75.7794
-75.8264
-76.0203
-76.1204
-76.3708
-76.5639
-76.5799
-76.9234
-76.9547
-77.2074
-76.9949
-77.179
-77.3295
-77.3079
-77.2904
-77.0994
-77.0343
-77.034
-76.7146
-76.7588
-76.5923
-76.4177
-76.2485
-76.2472
-76.2072
-76.2842
-75.4119
-75.2304
-75.4783
-75.0369
-74.9454
-75.0319
-75.206
-75.3594
-75.5482
-75.7614
-75.9159
-76.1282
-76.3594
-76.4019
-76.8422
-76.5783
-76.9442
-76.8897
-77.0258
-77.1205
-77.1504
-77.2265
-77.1433
-77.1033
-76.9816
-76.9246
-76.7673
-76.6295
-76.62
-76.3411
-76.3913
-76.067
-76.0522
-75.9785
-76.0881
-75.5447
-74.8779
-75.5534
-74.9959
-74.7387
-74.8864
-75.2811
-75.5323
-75.5033
-75.6091
-75.7867
-75.9428
-76.1027
-76.2448
-76.4104
-76.5089
-76.5856
-76.7832
-76.8473
-76.9088
-77.0023
-77.1333
-77.2785
-77.1299
-77.0012
-76.924
-76.8709
-76.7988
-76.5086
-76.5435
-76.4757
-76.1487
-76.2435
-75.9528
-75.8845
-75.8741
-75.8604
-75.7399
-74.9758
-75.3421
-75.059
-74.204
-74.4257
-74.4835
-75.1167
-75.3517
-75.4561
-75.6572
-75.7878
-75.9515
-76.0765
-76.3133
-76.3788
-76.4527
-76.6272
-76.7346
-76.802
-76.9372
-77.0268
-77.2003
-77.2929
-77.2014
-77.0255
-76.9353
-76.8073
-76.7334
-76.6367
-76.4632
-76.4022
-76.3592
-76.1555
-76.0531
-75.8094
-75.7413
-75.5975
-75.3436
-74.9882
-74.5733
-75.1924
-74.9514
-69.0325
-70.8916
-71.129
-69.7172
-71.3484
-71.4948
-70.421
-71.703
-69.3663
-71.03
-71.1866
-70.7467
-70.6981
-70.6949
-71.3587
-69.687
-71.489
-71.385
-71.2349
-71.1769
-70.8181
-71.2181
-70.6298
-71.0836
-70.363
-71.6385
-71.44
-71.6641
-71.2444
-71.1169
-71.2755
-71.1237
-71.2144
-70.8977
-70.83
-70.4751
-71.8688
-71.8958
-71.8376
-71.5118
-71.3046
-71.5438
-71.5456
-71.4308
-71.3045
-71.3365
-70.9949
-70.9845
-70.8094
-72.1053
-72.4712
-72.1153
-71.9106
-71.7757
-71.8464
-71.7634
-71.7565
-71.7095
-71.6083
-71.4662
-71.6323
-71.2064
-71.12
-71.0615
-72.4845
-72.2407
-72.4691
-72.2888
-72.0137
-72.1916
-72.1767
-72.0655
-72.3757
-72.0535
-71.9995
-71.9181
-71.7467
-71.6592
-71.4596
-71.4142
-71.3031
-72.9896
-72.8145
-73.0188
-72.7291
-72.7833
-72.6105
-72.6382
-72.6671
-72.8619
-72.8911
-72.7785
-72.6277
-72.4421
-72.2643
-72.1473
-72.0088
-71.8967
-71.7697
-71.6249
-73.4899
-73.6712
-73.6403
-73.4973
-73.4193
-73.2288
-73.323
-73.2677
-73.3899
-73.5498
-73.8207
-73.601
-73.3057
-73.1601
-73.0685
-72.7165
-72.6337
-72.4335
-72.2486
-72.0749
-71.9454
-74.0466
-74.3036
-74.4438
-74.393
-74.323
-74.1145
-74.0313
-73.971
-74.2245
-74.5545
-74.7422
-74.9935
-74.7657
-74.5466
-74.3321
-74.1028
-73.9897
-73.5814
-73.3399
-73.089
-72.8517
-72.905
-72.462
-74.7309
-74.7364
-75.0678
-75.5129
-75.7243
-75.4179
-74.8741
-75.1276
-75.227
-75.415
-75.7806
-76.1623
-76.2903
-76.1557
-75.8976
-75.9141
-75.479
-75.1719
-74.9687
-74.6841
-74.3949
-74.1891
-73.6932
-73.1292
-72.8532
-75.5993
-75.441
-75.4432
-75.8443
-76.4022
-76.9328
-76.1525
-75.9969
-76.3393
-76.4269
-77.1675
-77.0364
-77.1211
-77.4253
-77.1427
-76.8539
-76.904
-76.8907
-76.6726
-76.5341
-76.5887
-76.0686
-75.4378
-74.9617
-74.3888
-74.1101
-73.2114
-76.3281
-76.3364
-75.9255
-75.9319
-76.181
-76.8454
-77.5298
-76.915
-76.8687
-76.6636
-77.1592
-77.7648
-77.7784
-77.7295
-77.6501
-77.5433
-77.4829
-77.2471
-76.9738
-76.7474
-76.6538
-76.8271
-77.3169
-77.9888
-78.1543
-78.0901
-76.4898
-75.9107
-74.1014
-76.5469
-76.6597
-76.3759
-76.1407
-76.0995
-76.2553
-76.8752
-77.4134
-77.6268
-77.6998
-77.7712
-77.7884
-78.0642
-77.9289
-77.9437
-77.8583
-77.7484
-77.6401
-77.4154
-77.2804
-76.9953
-76.7328
-76.4054
-76.3321
-76.6075
-76.6616
-76.8158
-77.6453
-78.1206
-78.0184
-77.5029
-75.9284
-76.0626
-76.0362
-75.9068
-75.9332
-76.1631
-76.2835
-76.6488
-76.9966
-76.887
-77.2938
-77.5318
-77.6563
-77.5994
-77.5207
-77.4703
-77.4828
-77.3945
-77.2989
-77.3574
-77.0677
-77.1735
-76.907
-76.6665
-76.3552
-76.2255
-76.2678
-76.0742
-75.8765
-75.5967
-76.2063
-76.2108
-75.8
-75.2769
-75.4143
-75.642
-75.792
-75.8257
-76.0191
-76.1015
-76.3407
-76.5287
-76.5237
-76.8657
-76.9073
-77.1725
-76.981
-77.1813
-77.3384
-77.3188
-77.3267
-77.2941
-77.2596
-77.0807
-77.0375
-77.0407
-76.7052
-76.6804
-76.5652
-76.3478
-76.264
-76.2588
-76.1997
-76.335
-75.5065
-75.3122
-75.6049
-75.1469
-74.9205
-75.0238
-75.2243
-75.3661
-75.5429
-75.7564
-75.9083
-76.1221
-76.3335
-76.396
-76.8262
-76.569
-76.9316
-76.8127
-77.0291
-77.1261
-77.155
-77.235
-77.3657
-77.2166
-77.1373
-77.1089
-76.9731
-76.9164
-76.7611
-76.6282
-76.6138
-76.3241
-76.3863
-76.0544
-76.0498
-75.9637
-76.0927
-75.5765
-74.9167
-75.5294
-75.003
-74.7212
-74.9431
-75.3166
-75.5326
-75.5074
-75.5953
-75.7775
-75.9395
-76.093
-76.2374
-76.3959
-76.5029
-76.5901
-76.7689
-76.8404
-76.9041
-77.0043
-77.1332
-77.2796
-77.3746
-77.2776
-77.1277
-77.0016
-76.9231
-76.8648
-76.7973
-76.5119
-76.5443
-76.4642
-76.1411
-76.2416
-75.943
-75.8856
-75.8702
-75.8547
-75.7621
-75.0371
-75.3392
-75.1231
-74.318
-74.6882
-74.4706
-75.1662
-75.3789
-75.4606
-75.6572
-75.7907
-75.9535
-76.0739
-76.3105
-76.3769
-76.4538
-76.6261
-76.7292
-76.8025
-76.9373
-77.0272
-77.1993
-77.2919
-77.3414
-77.2938
-77.2015
-77.0252
-76.9353
-76.8087
-76.7344
-76.638