/*--------------------------------*- C++ -*----------------------------------*\
  =========                 |
  \\      /  F ield         | OpenFOAM: The Open Source CFD Toolbox
   \\    /   O peration     | Website:  https://openfoam.org
    \\  /    A nd           | Version:  7
     \\/     M anipulation  |
\*---------------------------------------------------------------------------*/
FoamFile
{
    version     2.0;
    format      ascii;
    class       volScalarField;
    location    "0.5";
    object      nut;
}
// * * * * * * * * * * * * * * * * * * * * * * * * * * * * * * * * * * * * * //

dimensions      [0 2 -1 0 0 0 0];

internalField   nonuniform List<scalar> 
18780
(
2.40261e-06
5.52233e-06
5.45996e-06
2.79758e-06
5.95982e-06
5.69006e-06
5.55527e-06
8.30423e-06
5.23117e-06
2.86526e-06
6.67008e-06
6.00797e-06
7.25815e-06
5.53366e-06
5.9121e-06
6.12695e-06
7.02621e-06
6.00012e-06
5.30855e-06
4.21257e-06
5.33304e-06
7.14192e-06
9.95387e-06
6.28005e-06
7.34404e-06
8.39817e-06
5.28473e-06
5.75572e-06
6.71277e-06
7.78459e-06
3.53431e-06
4.117e-06
6.48253e-06
6.05898e-06
5.18667e-06
1.25892e-05
6.96313e-06
1.29478e-05
6.88892e-06
1.06081e-05
1.19497e-05
6.11001e-06
7.28248e-06
8.95649e-06
1.05078e-05
5.39753e-06
5.76435e-06
6.54635e-06
8.50902e-06
9.02502e-06
3.04114e-06
3.73534e-06
3.72401e-06
7.90702e-06
6.34085e-06
5.51006e-06
2.77786e-05
1.17569e-05
1.0849e-05
7.48482e-06
1.50275e-05
1.74048e-05
6.6558e-06
9.52743e-06
1.26577e-05
1.43331e-05
6.20498e-06
7.19348e-06
8.88835e-06
1.13398e-05
1.20373e-05
5.20077e-06
5.9761e-06
6.56887e-06
8.34514e-06
9.83731e-06
9.69198e-06
2.36702e-06
3.71868e-06
2.64639e-06
6.43671e-06
8.40124e-06
6.73005e-06
5.93624e-06
2.11569e-05
2.84746e-05
2.00603e-05
1.61818e-05
1.17059e-05
2.0008e-05
9.20567e-06
1.42117e-05
1.90062e-05
1.90513e-05
6.95432e-06
9.32852e-06
1.19259e-05
1.51791e-05
1.61708e-05
6.19701e-06
7.21431e-06
8.42435e-06
1.14246e-05
1.28729e-05
1.30278e-05
4.97023e-06
5.744e-06
6.88816e-06
8.36822e-06
9.60283e-06
1.05712e-05
1.05267e-05
2.63322e-06
2.96808e-06
2.69318e-06
4.59441e-06
8.29057e-06
8.50431e-06
7.36714e-06
6.22198e-06
3.34442e-05
3.05846e-05
3.08249e-05
2.80164e-05
2.19163e-05
2.28742e-05
1.67834e-05
1.37015e-05
2.12536e-05
2.33887e-05
1.10759e-05
1.48569e-05
1.778e-05
2.02748e-05
2.09422e-05
7.00179e-06
9.51457e-06
1.18522e-05
1.48712e-05
1.71186e-05
1.68961e-05
6.01012e-06
7.23703e-06
8.35144e-06
1.12015e-05
1.31452e-05
1.38015e-05
1.44817e-05
5.03882e-06
5.32603e-06
6.81833e-06
8.49711e-06
9.68139e-06
1.02101e-05
1.14729e-05
1.12055e-05
2.79261e-06
3.26682e-06
2.64685e-06
3.34837e-06
6.50602e-06
8.96474e-06
8.93858e-06
7.65665e-06
6.12352e-06
4.92787e-05
4.11669e-05
4.73171e-05
3.35998e-05
3.03458e-05
3.50449e-05
3.24745e-05
2.66081e-05
1.96841e-05
2.45393e-05
2.66617e-05
1.57051e-05
1.34343e-05
2.13102e-05
2.49348e-05
2.60497e-05
1.19425e-05
1.32604e-05
1.75814e-05
1.93044e-05
2.21262e-05
2.14195e-05
7.25193e-06
9.5961e-06
1.19722e-05
1.46768e-05
1.70518e-05
1.79528e-05
1.81108e-05
6.33522e-06
6.91683e-06
8.58897e-06
1.09243e-05
1.31423e-05
1.38907e-05
1.55311e-05
1.56324e-05
5.05737e-06
5.50954e-06
6.22497e-06
8.58781e-06
9.69649e-06
1.02663e-05
1.10949e-05
1.21587e-05
1.12475e-05
2.7171e-06
2.63047e-06
2.51136e-06
3.65951e-06
4.24734e-06
7.39589e-06
9.40747e-06
9.34055e-06
7.48249e-06
6.04385e-06
7.42466e-05
4.56615e-05
5.26936e-05
4.49664e-05
4.55546e-05
4.27273e-05
4.4771e-05
3.76774e-05
2.59495e-05
3.43293e-05
3.47785e-05
3.38016e-05
2.89985e-05
1.94335e-05
2.37595e-05
2.84524e-05
2.80578e-05
1.55462e-05
1.32902e-05
2.35213e-05
2.51181e-05
2.77861e-05
2.74334e-05
1.16099e-05
1.30733e-05
1.60244e-05
1.89882e-05
2.1534e-05
2.27208e-05
2.21679e-05
7.4366e-06
9.45092e-06
1.19687e-05
1.46315e-05
1.6909e-05
1.78459e-05
1.93138e-05
1.9343e-05
6.31028e-06
7.02225e-06
8.24299e-06
1.0797e-05
1.2892e-05
1.38809e-05
1.53537e-05
1.68713e-05
1.56324e-05
5.05411e-06
5.50962e-06
6.38309e-06
8.23877e-06
9.78606e-06
1.03741e-05
1.11173e-05
1.17609e-05
1.21566e-05
1.11643e-05
2.7199e-06
2.67273e-06
2.46774e-06
3.22906e-06
4.42257e-06
4.97709e-06
7.8797e-06
9.72525e-06
9.2549e-06
6.99736e-06
5.9041e-06
8.56035e-05
7.09423e-05
6.54463e-05
4.98146e-05
5.24066e-05
5.96317e-05
4.36812e-05
4.79183e-05
4.75128e-05
4.10086e-05
4.14536e-05
4.47247e-05
4.00118e-05
2.50643e-05
3.26097e-05
3.40697e-05
3.50896e-05
3.41186e-05
3.20427e-05
2.10512e-05
2.4286e-05
2.84863e-05
2.99592e-05
3.019e-05
1.73481e-05
1.32129e-05
2.19228e-05
2.56787e-05
2.73207e-05
2.92483e-05
2.73719e-05
1.2252e-05
1.28831e-05
1.58116e-05
1.84476e-05
2.12989e-05
2.24771e-05
2.35602e-05
2.29085e-05
8.25969e-06
9.43893e-06
1.18768e-05
1.4599e-05
1.683e-05
1.77157e-05
1.92181e-05
2.05772e-05
1.96892e-05
6.2636e-06
6.96106e-06
8.146e-06
1.08686e-05
1.27758e-05
1.37809e-05
1.52103e-05
1.66611e-05
1.68331e-05
1.53763e-05
5.04986e-06
5.49626e-06
6.2905e-06
8.39942e-06
9.53304e-06
1.0391e-05
1.12432e-05
1.18037e-05
1.17434e-05
1.21033e-05
1.12762e-05
2.79273e-06
2.73923e-06
2.88886e-06
3.50711e-06
4.26177e-06
5.11284e-06
5.67642e-06
7.87653e-06
9.7539e-06
9.87343e-06
7.01911e-06
6.34047e-06
0.000155341
0.000122886
7.9006e-05
8.32594e-05
8.0323e-05
6.54929e-05
6.13808e-05
5.04695e-05
5.73699e-05
6.19974e-05
5.53963e-05
4.61946e-05
5.00851e-05
4.96822e-05
4.97471e-05
2.73125e-05
3.78202e-05
4.39102e-05
4.26525e-05
4.18699e-05
2.89158e-05
3.32041e-05
3.32927e-05
3.48418e-05
3.60391e-05
3.41034e-05
3.17587e-05
2.07981e-05
2.54523e-05
2.87871e-05
3.02128e-05
3.23736e-05
3.07275e-05
1.30614e-05
1.35159e-05
2.08006e-05
2.27541e-05
2.68087e-05
2.86292e-05
2.91259e-05
2.72686e-05
1.20522e-05
1.26828e-05
1.54801e-05
1.84065e-05
2.12015e-05
2.23969e-05
2.34537e-05
2.43989e-05
2.31073e-05
9.24594e-06
9.75483e-06
1.18931e-05
1.46429e-05
1.67224e-05
1.77144e-05
1.9079e-05
2.05786e-05
2.0906e-05
1.95787e-05
6.1492e-06
6.86528e-06
8.01141e-06
1.09304e-05
1.27146e-05
1.37644e-05
1.5396e-05
1.65129e-05
1.66916e-05
1.64952e-05
1.53164e-05
5.08739e-06
5.3926e-06
6.31379e-06
8.24091e-06
9.62478e-06
1.00562e-05
1.12595e-05
1.18305e-05
1.18205e-05
1.16433e-05
1.22217e-05
1.15704e-05
2.75839e-06
2.75353e-06
2.82357e-06
3.79046e-06
4.38371e-06
5.01603e-06
5.89173e-06
5.95066e-06
8.00988e-06
9.15915e-06
9.53252e-06
7.1854e-06
5.9103e-06
0.000239578
0.000152701
0.0001159
0.000121026
0.000110901
9.56869e-05
7.96437e-05
8.47059e-05
7.92434e-05
7.52801e-05
6.21732e-05
5.9848e-05
4.67345e-05
5.98448e-05
6.83991e-05
5.6388e-05
5.33425e-05
4.66469e-05
5.16687e-05
5.12679e-05
5.20757e-05
5.08507e-05
4.48818e-05
3.69085e-05
4.1426e-05
4.28592e-05
4.2874e-05
4.36312e-05
3.26611e-05
3.16325e-05
3.40088e-05
3.46045e-05
3.56445e-05
3.63049e-05
3.50106e-05
3.49865e-05
2.55135e-05
2.89684e-05
2.94797e-05
3.01878e-05
3.21652e-05
3.28105e-05
3.03374e-05
1.46454e-05
1.37604e-05
2.13155e-05
2.23956e-05
2.4558e-05
2.79906e-05
2.86382e-05
2.90121e-05
2.68106e-05
9.50607e-06
1.21268e-05
1.50296e-05
1.8261e-05
2.11572e-05
2.23784e-05
2.34321e-05
2.43466e-05
2.47139e-05
2.27905e-05
9.04133e-06
9.84657e-06
1.18896e-05
1.45671e-05
1.66961e-05
1.75775e-05
1.91627e-05
2.05457e-05
2.09889e-05
2.07875e-05
1.93277e-05
6.19571e-06
6.61889e-06
8.00968e-06
1.0745e-05
1.29218e-05
1.36417e-05
1.52847e-05
1.67322e-05
1.65353e-05
1.63877e-05
1.64018e-05
1.56435e-05
5.16444e-06
5.58156e-06
6.24129e-06
8.23037e-06
9.47343e-06
1.00076e-05
1.09524e-05
1.19136e-05
1.16951e-05
1.17447e-05
1.17139e-05
1.25962e-05
1.2e-05
2.77062e-06
2.88312e-06
2.38918e-06
4.60886e-06
4.1531e-06
5.06295e-06
5.79511e-06
6.0186e-06
5.89392e-06
6.29313e-06
7.60244e-06
9.15939e-06
7.9231e-06
5.72039e-06
0.000600466
0.000269825
0.000185261
0.000145566
0.000138981
0.000128377
0.000116806
0.000105974
9.9609e-05
9.95913e-05
8.42947e-05
8.53081e-05
7.78231e-05
8.11298e-05
7.52766e-05
7.61284e-05
6.26382e-05
6.21608e-05
4.29894e-05
5.97658e-05
7.07788e-05
6.12125e-05
5.33875e-05
5.34028e-05
4.05227e-05
4.73639e-05
5.23213e-05
5.19853e-05
5.33424e-05
4.71559e-05
4.00582e-05
3.99389e-05
4.4741e-05
4.12577e-05
4.31551e-05
4.53164e-05
4.1908e-05
4.12849e-05
3.21962e-05
3.27721e-05
3.47437e-05
3.57729e-05
3.65561e-05
3.72839e-05
3.56512e-05
3.49576e-05
2.09977e-05
2.83303e-05
3.17228e-05
3.05268e-05
3.20456e-05
3.26348e-05
3.22894e-05
3.08291e-05
9.06962e-06
1.39868e-05
2.11137e-05
2.38233e-05
2.48051e-05
2.6866e-05
2.82901e-05
2.87552e-05
2.86201e-05
2.59853e-05
9.64032e-06
1.16713e-05
1.50877e-05
1.82854e-05
2.12264e-05
2.22922e-05
2.33798e-05
2.41857e-05
2.46349e-05
2.44349e-05
2.25904e-05
9.0992e-06
9.85273e-06
1.1965e-05
1.44849e-05
1.67013e-05
1.75471e-05
1.90178e-05
2.04821e-05
2.10143e-05
2.09282e-05
2.06563e-05
1.98138e-05
6.19121e-06
6.64768e-06
7.97694e-06
1.07913e-05
1.28496e-05
1.37522e-05
1.52175e-05
1.6587e-05
1.67482e-05
1.62628e-05
1.63489e-05
1.67535e-05
1.60957e-05
5.16269e-06
5.62415e-06
6.30058e-06
8.08789e-06
9.47791e-06
9.90816e-06
1.07994e-05
1.17144e-05
1.18208e-05
1.15054e-05
1.18469e-05
1.20459e-05
1.29912e-05
1.22224e-05
2.97357e-06
2.87955e-06
2.51967e-06
3.29015e-06
4.48771e-06
5.22412e-06
6.22761e-06
5.87504e-06
5.87624e-06
5.78096e-06
5.89368e-06
5.87631e-06
9.74672e-06
8.2415e-06
6.34588e-06
0.00101591
0.000595564
0.000330457
0.000268327
0.00020832
0.000161232
0.000190066
0.000130466
0.000122594
0.000110031
0.000123292
0.000123894
9.63167e-05
9.59066e-05
9.58017e-05
9.52799e-05
9.03976e-05
7.61588e-05
8.04751e-05
9.34119e-05
7.37178e-05
7.20655e-05
6.9332e-05
6.29229e-05
6.47342e-05
4.10118e-05
5.86591e-05
7.0628e-05
6.18272e-05
5.64915e-05
5.35819e-05
4.99715e-05
6.09295e-05
4.96008e-05
5.0488e-05
5.22976e-05
5.29597e-05
5.04775e-05
4.51179e-05
4.03769e-05
4.48197e-05
4.46131e-05
4.31009e-05
4.30271e-05
4.51828e-05
4.39666e-05
3.99212e-05
4.20449e-05
3.68221e-05
3.20634e-05
3.46562e-05
3.61302e-05
3.6529e-05
3.73567e-05
3.7964e-05
3.52946e-05
3.54198e-05
2.01419e-05
2.59301e-05
2.86031e-05
3.10318e-05
3.23675e-05
3.24219e-05
3.20868e-05
3.26364e-05
3.03357e-05
7.60498e-06
1.31623e-05
2.09791e-05
2.27592e-05
2.54388e-05
2.69097e-05
2.77591e-05
2.8558e-05
2.85168e-05
2.7707e-05
2.58539e-05
9.99178e-06
1.17648e-05
1.50906e-05
1.83039e-05
2.12332e-05
2.22591e-05
2.33374e-05
2.415e-05
2.43547e-05
2.4219e-05
2.40469e-05
2.32614e-05
8.98133e-06
9.75633e-06
1.1906e-05
1.45349e-05
1.66573e-05
1.76722e-05
1.8964e-05
2.04105e-05
2.08515e-05
2.08389e-05
2.08014e-05
2.1147e-05
2.0375e-05
6.2261e-06
6.65823e-06
7.98044e-06
1.09206e-05
1.28956e-05
1.36594e-05
1.52313e-05
1.64878e-05
1.65836e-05
1.6333e-05
1.62313e-05
1.67496e-05
1.72159e-05
1.64697e-05
5.16751e-06
5.62627e-06
6.15005e-06
8.00815e-06
9.33743e-06
1.00667e-05
1.07008e-05
1.14787e-05
1.18564e-05
1.16364e-05
1.15835e-05
1.21536e-05
1.24592e-05
1.32131e-05
1.2595e-05
3.29775e-06
3.05964e-06
2.57575e-06
3.2545e-06
4.28392e-06
5.18546e-06
5.68961e-06
5.83818e-06
5.74809e-06
5.63825e-06
5.76605e-06
6.15293e-06
6.01073e-06
8.86378e-06
8.62321e-06
7.47225e-06
0.000761885
0.00097189
0.000776175
0.00059938
0.000322582
0.00018832
0.00021526
0.000197398
0.000155691
0.000118179
0.000150976
0.000150352
0.000137995
0.000113355
0.000112505
0.00013288
0.000118684
0.000115779
9.63067e-05
9.34892e-05
8.95048e-05
8.57018e-05
0.000103923
8.75064e-05
7.95176e-05
7.51941e-05
7.55721e-05
7.29551e-05
7.41395e-05
6.60277e-05
6.76903e-05
6.61518e-05
6.33794e-05
4.71458e-05
5.85985e-05
7.01841e-05
6.101e-05
5.6015e-05
5.56643e-05
4.90922e-05
5.10914e-05
3.4995e-05
5.21275e-05
5.44386e-05
5.18944e-05
5.24616e-05
4.94355e-05
4.79539e-05
4.32002e-05
2.92991e-05
4.78871e-05
4.39319e-05
4.15202e-05
4.22634e-05
4.52932e-05
4.39186e-05
4.21487e-05
3.92479e-05
4.27223e-05
4.14318e-05
3.58069e-05
3.53605e-05
3.55283e-05
3.75146e-05
3.73329e-05
3.78867e-05
3.76961e-05
3.38823e-05
3.57736e-05
2.07383e-05
2.46862e-05
2.86693e-05
3.04157e-05
3.2781e-05
3.25054e-05
3.20202e-05
3.24516e-05
3.21993e-05
2.97982e-05
9.38887e-06
1.3838e-05
2.18174e-05
2.26103e-05
2.49724e-05
2.67357e-05
2.75516e-05
2.82832e-05
2.831e-05
2.7545e-05
2.74753e-05
2.64682e-05
1.00014e-05
1.18143e-05
1.49971e-05
1.83734e-05
2.10884e-05
2.23892e-05
2.32395e-05
2.40494e-05
2.43413e-05
2.40879e-05
2.40899e-05
2.46338e-05
2.40032e-05
8.76891e-06
9.6513e-06
1.18022e-05
1.45099e-05
1.65404e-05
1.76492e-05
1.90026e-05
2.02634e-05
2.07913e-05
2.06598e-05
2.05881e-05
2.12584e-05
2.16502e-05
2.07009e-05
6.22527e-06
6.58958e-06
7.95037e-06
1.09589e-05
1.28329e-05
1.37031e-05
1.51199e-05
1.63496e-05
1.64872e-05
1.61935e-05
1.6162e-05
1.66273e-05
1.71875e-05
1.75607e-05
1.71387e-05
5.18954e-06
5.5707e-06
6.25027e-06
7.94492e-06
9.35035e-06
9.9399e-06
1.09242e-05
1.13834e-05
1.15706e-05
1.18474e-05
1.1627e-05
1.19356e-05
1.25234e-05
1.27157e-05
1.35737e-05
1.34003e-05
3.8764e-06
3.20105e-06
2.73173e-06
3.43218e-06
4.26142e-06
4.99881e-06
5.55285e-06
5.67644e-06
5.77535e-06
5.74611e-06
5.76169e-06
5.88021e-06
5.99994e-06
6.05983e-06
8.81142e-06
8.85294e-06
8.21985e-06
0.000364003
0.000821904
0.000934182
0.00109268
0.000755703
0.000471552
0.000597573
0.000363566
0.000210765
0.000204673
0.000219253
0.000178641
0.00017001
0.000129051
0.000135143
0.000138987
0.000130626
0.000124857
0.000130921
0.000116982
9.80848e-05
0.000138567
0.00013349
0.000113065
0.000110039
9.36527e-05
7.8527e-05
9.70249e-05
8.7697e-05
0.00010375
9.38169e-05
8.87094e-05
7.32259e-05
6.15217e-05
6.51954e-05
6.63947e-05
7.22139e-05
6.6092e-05
6.89775e-05
7.00616e-05
6.32749e-05
5.83705e-05
5.45333e-05
6.21478e-05
7.24354e-05
6.02891e-05
5.56109e-05
5.47528e-05
5.16494e-05
5.15008e-05
4.88273e-05
5.12185e-05
5.04269e-05
4.88021e-05
5.3298e-05
5.26207e-05
4.89548e-05
4.68486e-05
4.59205e-05
4.24127e-05
3.2619e-05
4.48731e-05
4.71478e-05
3.92116e-05
4.1825e-05
4.40404e-05
4.37414e-05
4.19832e-05
4.16356e-05
3.64364e-05
3.55302e-05
3.79651e-05
3.94496e-05
3.71676e-05
3.74789e-05
3.66714e-05
3.81022e-05
3.78734e-05
3.75271e-05
3.60244e-05
3.26592e-05
3.19921e-05
2.12763e-05
2.52655e-05
2.69839e-05
2.99761e-05
3.33667e-05
3.28173e-05
3.20507e-05
3.24809e-05
3.20255e-05
3.1704e-05
3.04252e-05
9.54014e-06
1.34157e-05
2.20597e-05
2.30574e-05
2.52193e-05
2.67574e-05
2.72743e-05
2.81299e-05
2.82352e-05
2.7339e-05
2.73012e-05
2.81397e-05
2.70143e-05
1.00431e-05
1.18934e-05
1.47073e-05
1.85385e-05
2.10595e-05
2.23875e-05
2.32658e-05
2.41094e-05
2.42237e-05
2.40466e-05
2.38975e-05
2.47127e-05
2.53614e-05
2.42708e-05
8.83551e-06
9.59446e-06
1.17474e-05
1.44967e-05
1.64693e-05
1.74881e-05
1.89293e-05
2.01703e-05
2.07046e-05
2.06038e-05
2.04986e-05
2.11376e-05
2.17036e-05
2.20295e-05
2.15508e-05
6.27134e-06
6.48372e-06
7.92035e-06
1.0934e-05
1.28792e-05
1.37834e-05
1.51161e-05
1.62887e-05
1.62302e-05
1.62218e-05
1.60804e-05
1.65338e-05
1.71271e-05
1.75003e-05
1.82682e-05
1.84157e-05
5.24877e-06
5.60549e-06
6.18593e-06
8.06506e-06
9.1732e-06
9.74191e-06
1.08953e-05
1.15774e-05
1.14558e-05
1.16605e-05
1.1814e-05
1.19672e-05
1.23444e-05
1.27989e-05
1.32889e-05
1.44164e-05
1.4592e-05
4.10267e-06
3.45952e-06
2.66443e-06
3.59918e-06
4.32373e-06
4.9858e-06
5.51802e-06
5.70674e-06
5.69707e-06
5.74391e-06
5.75585e-06
5.80902e-06
5.76479e-06
6.11045e-06
6.56342e-06
7.14202e-06
9.5836e-06
9.16237e-06
0.000459618
0.000347265
0.000579608
0.000859346
0.000885686
0.000864325
0.00110289
0.00079917
0.000470269
0.000239131
0.000641069
0.000377695
0.000196422
0.000173769
0.00015824
0.000258351
0.000200026
0.000142892
0.000131302
0.000131785
0.000113885
0.000166249
0.000117136
0.000116346
0.000111903
0.000131813
0.00010477
9.12287e-05
0.000107051
0.000138533
0.000117671
0.000105357
9.76902e-05
8.53406e-05
7.21767e-05
6.92693e-05
9.0099e-05
9.73863e-05
9.5109e-05
8.7273e-05
7.79322e-05
6.14361e-05
5.90673e-05
8.21724e-05
6.34639e-05
7.08885e-05
6.44892e-05
6.93119e-05
7.12815e-05
6.6341e-05
5.6546e-05
5.81678e-05
6.79809e-05
6.03685e-05
6.89873e-05
6.07e-05
5.51021e-05
5.46117e-05
5.05228e-05
5.39774e-05
4.8689e-05
4.49556e-05
4.9896e-05
4.5905e-05
5.22422e-05
4.94734e-05
5.1194e-05
4.96853e-05
4.64408e-05
4.56968e-05
4.51541e-05
4.05588e-05
4.01641e-05
4.68739e-05
4.56086e-05
4.33417e-05
4.01939e-05
4.44262e-05
4.39001e-05
4.18576e-05
4.14742e-05
3.88059e-05
3.45849e-05
3.17121e-05
3.72404e-05
3.6986e-05
3.86373e-05
3.62054e-05
3.67274e-05
3.75734e-05
3.84567e-05
3.75147e-05
3.59075e-05
3.47111e-05
3.19085e-05
3.01647e-05
2.27951e-05
2.59105e-05
2.69264e-05
2.95409e-05
3.26026e-05
3.35619e-05
3.1957e-05
3.23244e-05
3.19797e-05
3.15061e-05
3.23212e-05
3.02385e-05
9.27001e-06
1.22073e-05
2.08492e-05
2.3116e-05
2.53913e-05
2.68795e-05
2.72205e-05
2.79174e-05
2.81216e-05
2.72182e-05
2.71235e-05
2.80928e-05
2.86817e-05
2.73522e-05
9.75386e-06
1.19411e-05
1.4717e-05
1.84531e-05
2.12815e-05
2.2373e-05
2.33006e-05
2.39364e-05
2.42344e-05
2.39455e-05
2.38456e-05
2.46038e-05
2.54003e-05
2.56586e-05
2.49986e-05
8.6466e-06
9.72418e-06
1.17303e-05
1.44794e-05
1.64251e-05
1.74243e-05
1.88411e-05
2.01572e-05
2.04732e-05
2.05562e-05
2.04399e-05
2.10733e-05
2.16285e-05
2.19964e-05
2.29508e-05
2.31254e-05
6.30513e-06
6.49885e-06
7.73142e-06
1.10061e-05
1.29716e-05
1.3738e-05
1.51703e-05
1.62214e-05
1.62182e-05
1.61184e-05
1.61215e-05
1.64777e-05
1.7045e-05
1.75005e-05
1.81778e-05
1.96047e-05
2.02988e-05
5.30281e-06
5.66897e-06
6.18928e-06
8.07576e-06
9.09692e-06
9.63474e-06
1.07283e-05
1.15632e-05
1.16296e-05
1.15116e-05
1.17886e-05
1.20197e-05
1.23612e-05
1.2589e-05
1.29561e-05
1.44708e-05
1.56116e-05
1.64044e-05
3.99435e-06
3.55945e-06
2.76175e-06
3.47247e-06
4.33878e-06
4.95439e-06
5.53718e-06
5.71671e-06
5.67379e-06
5.62738e-06
5.70889e-06
5.9331e-06
5.88604e-06
5.89728e-06
6.48595e-06
7.18896e-06
7.76469e-06
1.07381e-05
1.0397e-05
0.000750447
0.000426116
0.000447519
0.000343981
0.000630545
0.000818381
0.00082355
0.00098632
0.000872379
0.000572087
0.00117129
0.000782319
0.000492488
0.000206373
0.000190649
0.000675741
0.00030229
0.000207706
0.000176559
0.000169664
0.000142902
0.000241922
0.000229348
0.000133766
0.000126337
0.000129762
0.000110072
9.85843e-05
0.000146132
0.000131929
0.00011025
0.000110393
0.000121326
0.000101761
8.02495e-05
8.10048e-05
9.99285e-05
0.000106087
0.000124012
0.000108979
9.72813e-05
8.17163e-05
6.57995e-05
7.03589e-05
9.7178e-05
7.74229e-05
8.98238e-05
9.04545e-05
8.78882e-05
7.61097e-05
6.30201e-05
6.17281e-05
5.65132e-05
0.000102255
7.54624e-05
6.40528e-05
6.67094e-05
6.75158e-05
7.08402e-05
6.51274e-05
5.85186e-05
5.71655e-05
4.60147e-05
6.46737e-05
5.98328e-05
6.5668e-05
5.82818e-05
5.43707e-05
5.40685e-05
5.07209e-05
5.34232e-05
5.23844e-05
4.46258e-05
4.12216e-05
5.88863e-05
5.14875e-05
5.00577e-05
5.02273e-05
5.21362e-05
4.73765e-05
4.62448e-05
4.56167e-05
4.4682e-05
4.33037e-05
3.62004e-05
4.34764e-05
4.32723e-05
4.44631e-05
4.1924e-05
4.21089e-05
4.27619e-05
4.33952e-05
4.24464e-05
4.13363e-05
3.86575e-05
3.66493e-05
3.4638e-05
2.98312e-05
3.55609e-05
3.74635e-05
3.79289e-05
3.61116e-05
3.50705e-05
3.63456e-05
3.8223e-05
3.76905e-05
3.56653e-05
3.45845e-05
3.40025e-05
3.26526e-05
3.01152e-05
2.36609e-05
2.85029e-05
2.77224e-05
2.93994e-05
3.27283e-05
3.30482e-05
3.27349e-05
3.21856e-05
3.19118e-05
3.13717e-05
3.21042e-05
3.2176e-05
2.9291e-05
9.25404e-06
1.21187e-05
2.0085e-05
2.22883e-05
2.52585e-05
2.6875e-05
2.70864e-05
2.77025e-05
2.78224e-05
2.71135e-05
2.69854e-05
2.79623e-05
2.8628e-05
2.90081e-05
2.78618e-05
1.0043e-05
1.19447e-05
1.45173e-05
1.8193e-05
2.13262e-05
2.23873e-05
2.33602e-05
2.39319e-05
2.41903e-05
2.39201e-05
2.37596e-05
2.45756e-05
2.54425e-05
2.56398e-05
2.65473e-05
2.70484e-05
8.43337e-06
9.72745e-06
1.16509e-05
1.44987e-05
1.6421e-05
1.73524e-05
1.88305e-05
2.01405e-05
2.04342e-05
2.02959e-05
2.03402e-05
2.11064e-05
2.1581e-05
2.18436e-05
2.29191e-05
2.45407e-05
2.56059e-05
6.32419e-06
6.51499e-06
7.68986e-06
1.09488e-05
1.29339e-05
1.3645e-05
1.51257e-05
1.61541e-05
1.62825e-05
1.60362e-05
1.61503e-05
1.6417e-05
1.70063e-05
1.74159e-05
1.81902e-05
1.95141e-05
2.1661e-05
2.26572e-05
5.34401e-06
5.70667e-06
6.18965e-06
8.01187e-06
9.04197e-06
9.5672e-06
1.06928e-05
1.15508e-05
1.15768e-05
1.15415e-05
1.16601e-05
1.20548e-05
1.23252e-05
1.26443e-05
1.28648e-05
1.40973e-05
1.60369e-05
1.72678e-05
1.84383e-05
2.99927e-06
3.35319e-06
2.72505e-06
3.537e-06
4.32569e-06
4.95017e-06
5.51067e-06
5.71644e-06
5.69112e-06
5.62514e-06
5.52544e-06
6.93771e-06
5.83019e-06
5.8994e-06
6.24782e-06
6.90061e-06
7.77376e-06
8.58745e-06
1.17959e-05
1.14943e-05
0.00111225
0.000576535
0.000714586
0.000345088
0.000444264
0.000605614
0.000371973
0.000628873
0.000806135
0.000781192
0.000853067
0.0009917
0.000910755
0.000479539
0.000260145
0.00110215
0.000795613
0.000534445
0.000196659
0.000214621
0.000174045
0.000646296
0.000311441
0.000216072
0.000177929
0.000152764
0.000141605
0.00010782
0.00024929
0.00022425
0.00015817
0.000120339
0.000134422
9.80904e-05
0.000104467
0.000108442
0.000127223
0.000130504
0.000116315
9.94271e-05
0.000122203
0.000113146
0.000100095
8.14613e-05
8.48357e-05
0.000111072
9.87516e-05
0.000108366
0.000110187
0.000100449
7.91549e-05
7.10852e-05
6.92499e-05
7.62417e-05
0.000107089
9.17685e-05
8.96937e-05
7.85444e-05
8.69914e-05
7.6692e-05
6.11817e-05
5.94361e-05
5.47799e-05
5.47491e-05
7.01109e-05
8.71339e-05
7.30937e-05
5.83639e-05
6.76718e-05
6.90187e-05
6.57764e-05
5.75904e-05
5.99786e-05
4.57931e-05
3.95834e-05
6.89399e-05
6.01818e-05
6.4096e-05
5.40674e-05
5.54421e-05
5.36525e-05
5.08094e-05
5.2986e-05
5.27104e-05
4.79275e-05
4.15773e-05
3.72842e-05
4.24093e-05
4.9017e-05
5.4171e-05
4.71674e-05
5.10442e-05
5.05101e-05
4.50359e-05
4.49943e-05
4.46835e-05
4.27401e-05
3.85939e-05
3.56641e-05
3.31765e-05
4.65342e-05
4.23108e-05
4.15218e-05
4.11015e-05
4.17902e-05
4.10729e-05
4.22415e-05
4.16575e-05
3.85089e-05
3.64724e-05
3.66589e-05
3.35696e-05
2.76875e-05
3.18403e-05
3.88798e-05
3.74342e-05
3.55767e-05
3.42975e-05
3.52021e-05
3.72626e-05
3.75734e-05
3.55666e-05
3.43672e-05
3.40019e-05
3.46408e-05
3.28259e-05
2.85573e-05
2.42816e-05
2.75269e-05
2.79296e-05
3.03888e-05
3.27565e-05
3.31719e-05
3.25653e-05
3.26759e-05
3.17608e-05
3.12962e-05
3.18585e-05
3.19799e-05
3.12369e-05
3.00163e-05
9.67316e-06
1.1602e-05
2.0124e-05
2.19784e-05
2.48344e-05
2.68222e-05
2.7072e-05
2.74434e-05
2.76952e-05
2.68691e-05
2.68672e-05
2.78687e-05
2.85318e-05
2.88766e-05
2.96401e-05
2.97387e-05
9.93066e-06
1.20146e-05
1.45365e-05
1.81345e-05
2.11938e-05
2.24293e-05
2.31671e-05
2.38951e-05
2.42571e-05
2.39818e-05
2.36954e-05
2.43821e-05
2.533e-05
2.56986e-05
2.64218e-05
2.88292e-05
3.00066e-05
8.40396e-06
9.64631e-06
1.16194e-05
1.44212e-05
1.63312e-05
1.73446e-05
1.87315e-05
2.01337e-05
2.05162e-05
2.02288e-05
2.02299e-05
2.08134e-05
2.15978e-05
2.18161e-05
2.26507e-05
2.45696e-05
2.69425e-05
2.85316e-05
6.33791e-06
6.52512e-06
7.74596e-06
1.09315e-05
1.29624e-05
1.35968e-05
1.48527e-05
1.61054e-05
1.60449e-05
1.59891e-05
1.60955e-05
1.64923e-05
1.69481e-05
1.73602e-05
1.80787e-05
1.95223e-05
2.15591e-05
2.42044e-05
2.53199e-05
5.39171e-06
5.73372e-06
6.17999e-06
7.98605e-06
8.95684e-06
9.47801e-06
1.05877e-05
1.16386e-05
1.16349e-05
1.15565e-05
1.15095e-05
1.20244e-05
1.23001e-05
1.26722e-05
1.32078e-05
1.39478e-05
1.574e-05
1.77426e-05
1.93392e-05
2.08904e-05
2.89422e-06
2.91965e-06
2.68238e-06
3.44761e-06
4.33548e-06
5.01394e-06
5.55505e-06
5.76227e-06
5.70588e-06
5.54975e-06
5.61987e-06
6.78166e-06
5.97571e-06
6.1034e-06
6.31222e-06
6.81199e-06
7.9513e-06
8.75196e-06
9.82236e-06
1.3079e-05
1.37167e-05
0.00134493
0.0010696
0.000918387
0.000641429
0.000620022
0.000624305
0.000457934
0.000409859
0.000569859
0.000675751
0.000380395
0.000645013
0.000866719
0.000821697
0.000627523
0.000824431
0.00104153
0.00092969
0.000552151
0.000301663
0.000169819
0.00111299
0.000829625
0.000456825
0.000218425
0.000207263
0.000165084
0.000127191
0.000676458
0.000325077
0.000207518
0.000171784
0.000173755
0.000152696
9.46726e-05
9.11429e-05
0.000228073
0.000178064
0.000170894
0.000120744
0.000128485
0.000119225
0.000100373
9.92066e-05
0.000109364
0.000130663
0.000120154
0.000115743
0.00011262
0.000118858
0.000118089
9.4981e-05
7.7119e-05
7.93157e-05
8.39824e-05
0.000110978
9.19962e-05
0.000105127
0.000106359
9.889e-05
7.96411e-05
6.50253e-05
6.65661e-05
6.4528e-05
5.13696e-05
9.79416e-05
8.73156e-05
8.88361e-05
7.91054e-05
8.36638e-05
7.72507e-05
5.97454e-05
5.94471e-05
5.79359e-05
5.77487e-05
4.22833e-05
5.73643e-05
5.98747e-05
7.40056e-05
6.39748e-05
6.5036e-05
6.89542e-05
6.33498e-05
5.77389e-05
5.76403e-05
4.88441e-05
3.94412e-05
4.14846e-05
6.39864e-05
6.17592e-05
6.72716e-05
5.54255e-05
5.17127e-05
5.66965e-05
5.0462e-05
5.24474e-05
5.22597e-05
4.78005e-05
4.38712e-05
3.65704e-05
3.61988e-05
4.2923e-05
4.45902e-05
5.07601e-05
4.88319e-05
4.92733e-05
4.98443e-05
4.71963e-05
4.50727e-05
4.3779e-05
4.22621e-05
3.86843e-05
3.78924e-05
3.75304e-05
3.50105e-05
4.31553e-05
4.28511e-05
3.94705e-05
4.15481e-05
4.15534e-05
4.00442e-05
4.13931e-05
4.16586e-05
3.85244e-05
3.61021e-05
3.63265e-05
3.58754e-05
3.32184e-05
2.67135e-05
2.96888e-05
3.7747e-05
3.88152e-05
3.53741e-05
3.36405e-05
3.45378e-05
3.67182e-05
3.66758e-05
3.52791e-05
3.41853e-05
3.381e-05
3.44404e-05
3.48719e-05
3.16192e-05
2.94227e-05
2.39985e-05
2.73829e-05
2.58149e-05
2.81596e-05
3.30889e-05
3.31012e-05
3.25003e-05
3.25151e-05
3.17388e-05
3.11103e-05
3.15987e-05
3.17742e-05
3.10972e-05
3.18917e-05
3.26461e-05
7.44491e-06
1.24063e-05
1.98175e-05
2.19761e-05
2.47312e-05
2.67012e-05
2.69827e-05
2.7426e-05
2.7445e-05
2.69044e-05
2.66725e-05
2.77522e-05
2.83803e-05
2.87668e-05
2.95205e-05
3.16904e-05
3.32053e-05
9.9527e-06
1.18191e-05
1.43828e-05
1.81722e-05
2.11056e-05
2.23838e-05
2.31964e-05
2.37245e-05
2.39198e-05
2.41584e-05
2.37797e-05
2.42672e-05
2.52668e-05
2.56026e-05
2.6345e-05
2.86532e-05
3.20483e-05
3.33732e-05
8.3352e-06
9.64572e-06
1.15361e-05
1.44462e-05
1.62094e-05
1.7251e-05
1.87613e-05
2.00401e-05
2.04979e-05
2.03299e-05
2.02257e-05
2.07735e-05
2.14652e-05
2.18345e-05
2.2638e-05
2.43698e-05
2.68961e-05
3.01066e-05
3.18451e-05
6.34536e-06
6.47745e-06
7.73985e-06
1.10325e-05
1.29355e-05
1.35644e-05
1.48219e-05
1.59853e-05
1.60549e-05
1.5814e-05
1.5932e-05
1.6498e-05
1.69783e-05
1.73765e-05
1.80384e-05
1.93926e-05
2.15573e-05
2.40445e-05
2.70033e-05
2.84544e-05
5.36039e-06
5.77248e-06
6.21742e-06
7.98943e-06
8.86745e-06
9.44618e-06
1.05146e-05
1.14752e-05
1.15825e-05
1.15066e-05
1.16831e-05
1.1794e-05
1.23772e-05
1.25111e-05
1.32805e-05
1.4219e-05
1.55298e-05
1.75155e-05
1.95238e-05
2.18676e-05
2.36296e-05
2.9469e-06
2.90484e-06
2.58101e-06
3.49673e-06
4.32458e-06
4.97957e-06
5.52355e-06
5.78578e-06
5.70885e-06
5.49304e-06
5.81718e-06
5.65193e-06
6.50222e-06
6.09443e-06
6.23296e-06
6.89425e-06
7.56977e-06
9.14511e-06
9.40862e-06
1.0914e-05
1.46244e-05
1.50248e-05
0.00241476
0.00159455
0.00137073
0.000982618
0.00107472
0.000814693
0.000615207
0.00067656
0.000626895
0.000628438
0.000444862
0.000518263
0.000609254
0.000722694
0.000688109
0.000371697
0.000629663
0.000865507
0.000789026
0.00059144
0.000325809
0.00085723
0.000981426
0.000930991
0.00057901
0.000286901
0.000163227
0.000120985
0.00103901
0.000868955
0.000480765
0.000235398
0.000218359
0.000171202
0.000121406
0.000122798
0.000550375
0.000404282
0.000210129
0.000196919
0.000163048
0.000160273
0.000169614
0.000112765
0.000172907
0.000211949
0.000167992
0.000151118
0.000127988
0.000120713
0.000126626
0.000119347
9.04224e-05
0.000129843
5.8992e-05
0.000148252
0.000136357
0.000133456
0.000113303
0.000126364
0.000111724
9.14576e-05
7.62218e-05
8.85105e-05
6.95135e-05
4.98659e-05
0.000121747
8.60459e-05
8.64571e-05
0.000108131
9.94856e-05
7.82715e-05
6.98101e-05
6.80721e-05
7.87697e-05
5.43958e-05
5.60622e-05
8.84495e-05
9.8472e-05
8.46145e-05
7.48045e-05
8.19445e-05
7.83526e-05
6.10431e-05
5.87465e-05
5.96227e-05
5.77388e-05
4.16264e-05
4.01572e-05
7.0155e-05
6.52211e-05
6.08408e-05
6.27437e-05
6.52397e-05
6.82911e-05
6.43711e-05
5.79084e-05
5.99101e-05
4.90475e-05
4.30998e-05
4.04309e-05
3.96311e-05
5.11572e-05
6.76794e-05
6.68046e-05
5.77228e-05
5.28834e-05
5.35175e-05
5.36136e-05
5.20326e-05
5.21606e-05
4.75402e-05
4.38339e-05
3.92136e-05
3.59732e-05
3.62527e-05
4.43054e-05
4.36915e-05
4.83581e-05
4.83495e-05
4.93289e-05
4.89766e-05
4.70196e-05
4.55784e-05
4.4513e-05
4.18382e-05
3.88795e-05
3.74216e-05
3.95751e-05
3.39681e-05
3.48271e-05
4.13111e-05
4.20353e-05
3.95351e-05
3.96062e-05
4.1448e-05
4.03261e-05
4.05616e-05
4.23307e-05
3.87393e-05
3.5825e-05
3.60748e-05
3.57431e-05
3.52505e-05
3.49393e-05
2.78584e-05
2.82156e-05
3.7489e-05
3.90381e-05
3.58638e-05
3.37126e-05
3.39841e-05
3.63957e-05
3.6493e-05
3.43749e-05
3.39195e-05
3.36475e-05
3.4132e-05
3.46158e-05
3.37837e-05
3.42948e-05
3.18669e-05
2.41631e-05
2.6742e-05
2.55014e-05
2.68544e-05
3.04479e-05
3.30071e-05
3.23208e-05
3.2319e-05
3.16774e-05
3.09427e-05
3.14612e-05
3.15588e-05
3.09862e-05
3.16528e-05
3.4719e-05
3.59733e-05
8.90454e-06
1.28049e-05
2.03411e-05
2.18976e-05
2.46569e-05
2.67082e-05
2.69576e-05
2.74123e-05
2.7312e-05
2.68858e-05
2.66883e-05
2.76739e-05
2.82555e-05
2.85782e-05
2.94574e-05
3.15809e-05
3.53817e-05
3.73405e-05
1.00897e-05
1.20552e-05
1.43828e-05
1.82039e-05
2.10105e-05
2.2313e-05
2.31022e-05
2.37795e-05
2.38085e-05
2.35989e-05
2.39495e-05
2.42065e-05
2.50658e-05
2.55838e-05
2.63206e-05
2.84628e-05
3.19121e-05
3.56261e-05
3.72335e-05
8.39619e-06
9.61056e-06
1.14245e-05
1.44112e-05
1.62004e-05
1.72072e-05
1.87124e-05
2.00095e-05
2.04137e-05
2.02751e-05
2.01569e-05
2.08385e-05
2.11835e-05
2.17107e-05
2.2697e-05
2.43525e-05
2.70023e-05
3.00003e-05
3.37332e-05
3.58075e-05
6.37052e-06
6.45165e-06
7.6685e-06
1.10443e-05
1.29885e-05
1.35031e-05
1.47941e-05
1.58667e-05
1.59757e-05
1.57992e-05
1.58718e-05
1.63699e-05
1.69414e-05
1.73342e-05
1.80834e-05
1.9352e-05
2.14442e-05
2.40333e-05
2.67756e-05
3.0319e-05
3.21457e-05
5.31425e-06
5.75867e-06
6.25458e-06
8.0099e-06
8.86294e-06
9.30424e-06
1.0636e-05
1.1431e-05
1.1667e-05
1.13689e-05
1.16173e-05
1.19952e-05
1.2199e-05
1.26342e-05
1.29499e-05
1.42561e-05
1.56353e-05
1.73353e-05
1.95201e-05
2.14512e-05
2.48588e-05
2.66942e-05
3.11718e-06
3.02866e-06
2.69924e-06
3.47558e-06
4.35532e-06
5.00634e-06
5.56285e-06
5.7698e-06
5.71812e-06
5.56252e-06
5.55773e-06
5.70905e-06
5.93324e-06
5.89299e-06
6.02667e-06
7.20089e-06
7.52812e-06