/*--------------------------------*- C++ -*----------------------------------*\
  =========                 |
  \\      /  F ield         | OpenFOAM: The Open Source CFD Toolbox
   \\    /   O peration     | Website:  https://openfoam.org
    \\  /    A nd           | Version:  7
     \\/     M anipulation  |
\*---------------------------------------------------------------------------*/
FoamFile
{
    version     2.0;
    format      ascii;
    class       volScalarField;
    location    "0.5";
    object      p;
}
// * * * * * * * * * * * * * * * * * * * * * * * * * * * * * * * * * * * * * //

dimensions      [0 2 -2 0 0 0 0];

internalField   nonuniform List<scalar> 
18780
(
-100.838
-100.837
-100.837
-100.863
-100.843
-100.837
-100.864
-100.837
-100.863
-100.879
-100.851
-100.843
-100.87
-100.837
-100.864
-100.878
-100.837
-100.863
-100.879
-100.881
-100.871
-100.851
-100.879
-100.843
-100.87
-100.882
-100.837
-100.864
-100.878
-100.88
-100.837
-100.863
-100.878
-100.881
-100.874
-100.887
-100.871
-100.895
-100.851
-100.879
-100.889
-100.843
-100.869
-100.882
-100.882
-100.837
-100.864
-100.878
-100.88
-100.871
-100.837
-100.863
-100.878
-100.881
-100.873
-100.859
-100.913
-100.887
-100.911
-100.87
-100.894
-100.899
-100.851
-100.878
-100.888
-100.886
-100.843
-100.869
-100.881
-100.881
-100.872
-100.837
-100.864
-100.878
-100.879
-100.871
-100.856
-100.837
-100.863
-100.878
-100.881
-100.873
-100.859
-100.839
-100.947
-100.913
-100.929
-100.886
-100.91
-100.912
-100.87
-100.894
-100.898
-100.893
-100.851
-100.878
-100.888
-100.886
-100.875
-100.843
-100.869
-100.881
-100.881
-100.872
-100.855
-100.837
-100.863
-100.878
-100.879
-100.871
-100.856
-100.835
-100.837
-100.863
-100.878
-100.881
-100.873
-100.859
-100.839
-100.814
-100.981
-100.946
-100.955
-100.911
-100.928
-100.929
-100.886
-100.91
-100.912
-100.903
-100.869
-100.893
-100.898
-100.893
-100.88
-100.851
-100.878
-100.888
-100.886
-100.874
-100.856
-100.843
-100.868
-100.881
-100.881
-100.871
-100.855
-100.834
-100.837
-100.863
-100.878
-100.879
-100.871
-100.855
-100.835
-100.809
-100.837
-100.863
-100.878
-100.881
-100.873
-100.859
-100.839
-100.814
-100.785
-101.072
-101.024
-100.98
-100.986
-100.945
-100.954
-100.947
-100.911
-100.927
-100.928
-100.916
-100.886
-100.909
-100.911
-100.902
-100.887
-100.868
-100.892
-100.897
-100.892
-100.879
-100.859
-100.851
-100.878
-100.887
-100.885
-100.874
-100.856
-100.833
-100.843
-100.868
-100.881
-100.881
-100.871
-100.855
-100.833
-100.807
-100.837
-100.863
-100.878
-100.879
-100.871
-100.855
-100.835
-100.809
-100.78
-100.837
-100.863
-100.878
-100.881
-100.873
-100.859
-100.839
-100.814
-100.785
-100.754
-101.125
-101.071
-101.061
-101.023
-101.02
-100.979
-100.985
-100.972
-100.944
-100.954
-100.946
-100.931
-100.91
-100.927
-100.927
-100.915
-100.896
-100.886
-100.909
-100.911
-100.902
-100.886
-100.864
-100.867
-100.892
-100.897
-100.892
-100.879
-100.859
-100.834
-100.852
-100.877
-100.887
-100.885
-100.874
-100.856
-100.833
-100.805
-100.842
-100.868
-100.881
-100.881
-100.871
-100.855
-100.833
-100.806
-100.776
-100.837
-100.863
-100.878
-100.879
-100.87
-100.855
-100.835
-100.809
-100.779
-100.747
-100.837
-100.863
-100.878
-100.881
-100.873
-100.859
-100.839
-100.814
-100.785
-100.754
-100.719
-101.19
-101.124
-101.104
-101.069
-101.061
-101.029
-101.022
-101.019
-100.998
-100.978
-100.985
-100.971
-100.948
-100.944
-100.953
-100.946
-100.93
-100.907
-100.911
-100.927
-100.927
-100.915
-100.895
-100.87
-100.884
-100.909
-100.91
-100.901
-100.886
-100.863
-100.836
-100.867
-100.891
-100.897
-100.892
-100.879
-100.858
-100.833
-100.804
-100.852
-100.877
-100.887
-100.885
-100.874
-100.856
-100.832
-100.805
-100.774
-100.842
-100.868
-100.881
-100.881
-100.871
-100.855
-100.833
-100.806
-100.776
-100.743
-100.837
-100.863
-100.878
-100.879
-100.87
-100.855
-100.835
-100.809
-100.779
-100.747
-100.712
-100.837
-100.863
-100.878
-100.881
-100.873
-100.859
-100.839
-100.814
-100.785
-100.753
-100.719
-100.682
-101.348
-101.264
-101.191
-101.153
-101.121
-101.103
-101.062
-101.068
-101.06
-101.028
-100.991
-101.022
-101.019
-100.997
-100.969
-100.978
-100.984
-100.97
-100.947
-100.92
-100.944
-100.952
-100.945
-100.929
-100.906
-100.877
-100.91
-100.927
-100.926
-100.914
-100.895
-100.869
-100.839
-100.884
-100.908
-100.91
-100.901
-100.885
-100.863
-100.835
-100.805
-100.866
-100.89
-100.896
-100.892
-100.878
-100.858
-100.833
-100.804
-100.772
-100.852
-100.877
-100.887
-100.885
-100.874
-100.855
-100.832
-100.804
-100.773
-100.74
-100.842
-100.868
-100.881
-100.881
-100.871
-100.854
-100.833
-100.806
-100.776
-100.743
-100.707
-100.837
-100.863
-100.878
-100.879
-100.87
-100.855
-100.835
-100.809
-100.779
-100.747
-100.712
-100.674
-100.837
-100.863
-100.878
-100.881
-100.873
-100.859
-100.839
-100.814
-100.785
-100.753
-100.719
-100.682
-100.641
-101.458
-101.344
-101.271
-101.265
-101.207
-101.187
-101.153
-101.1
-101.123
-101.102
-101.062
-101.017
-101.067
-101.059
-101.027
-100.99
-100.951
-101.023
-101.018
-100.996
-100.967
-100.934
-100.978
-100.984
-100.97
-100.947
-100.919
-100.886
-100.945
-100.952
-100.945
-100.929
-100.905
-100.876
-100.844
-100.909
-100.927
-100.926
-100.914
-100.894
-100.869
-100.838
-100.806
-100.88
-100.908
-100.91
-100.901
-100.885
-100.862
-100.835
-100.804
-100.771
-100.865
-100.89
-100.896
-100.892
-100.878
-100.858
-100.833
-100.804
-100.772
-100.737
-100.852
-100.877
-100.887
-100.885
-100.873
-100.855
-100.832
-100.804
-100.773
-100.739
-100.703
-100.842
-100.868
-100.881
-100.881
-100.871
-100.854
-100.833
-100.806
-100.776
-100.743
-100.707
-100.669
-100.837
-100.863
-100.878
-100.879
-100.87
-100.855
-100.835
-100.809
-100.779
-100.747
-100.711
-100.674
-100.632
-100.837
-100.863
-100.878
-100.881
-100.873
-100.859
-100.839
-100.814
-100.785
-100.753
-100.719
-100.682
-100.641
-100.596
-101.561
-101.458
-101.348
-101.344
-101.267
-101.19
-101.26
-101.207
-101.14
-101.189
-101.15
-101.099
-101.043
-101.118
-101.101
-101.06
-101.015
-100.968
-101.067
-101.059
-101.026
-100.989
-100.95
-100.906
-101.022
-101.019
-100.995
-100.967
-100.933
-100.894
-100.977
-100.984
-100.969
-100.946
-100.918
-100.885
-100.848
-100.941
-100.951
-100.945
-100.928
-100.905
-100.875
-100.843
-100.808
-100.908
-100.927
-100.926
-100.913
-100.894
-100.868
-100.838
-100.805
-100.771
-100.88
-100.908
-100.909
-100.901
-100.885
-100.862
-100.834
-100.804
-100.771
-100.735
-100.864
-100.889
-100.896
-100.891
-100.878
-100.858
-100.832
-100.803
-100.771
-100.737
-100.7
-100.852
-100.877
-100.887
-100.885
-100.874
-100.855
-100.832
-100.804
-100.773
-100.739
-100.703
-100.664
-100.842
-100.868
-100.881
-100.881
-100.871
-100.854
-100.833
-100.806
-100.775
-100.742
-100.707
-100.668
-100.627
-100.837
-100.863
-100.878
-100.879
-100.871
-100.855
-100.835
-100.809
-100.779
-100.747
-100.711
-100.673
-100.632
-100.586
-100.837
-100.863
-100.878
-100.881
-100.873
-100.859
-100.839
-100.814
-100.785
-100.753
-100.719
-100.682
-100.641
-100.596
-100.546
-101.666
-101.559
-101.413
-101.454
-101.343
-101.238
-101.342
-101.268
-101.187
-101.105
-101.262
-101.206
-101.138
-101.072
-101.187
-101.151
-101.097
-101.043
-100.985
-101.117
-101.101
-101.06
-101.014
-100.966
-100.916
-101.066
-101.059
-101.025
-100.988
-100.949
-100.904
-100.861
-101.022
-101.018
-100.995
-100.966
-100.932
-100.893
-100.854
-100.979
-100.985
-100.968
-100.945
-100.918
-100.884
-100.847
-100.811
-100.943
-100.95
-100.945
-100.928
-100.904
-100.875
-100.842
-100.808
-100.772
-100.909
-100.927
-100.926
-100.913
-100.894
-100.868
-100.837
-100.805
-100.771
-100.734
-100.881
-100.908
-100.909
-100.901
-100.885
-100.862
-100.834
-100.803
-100.77
-100.735
-100.698
-100.864
-100.889
-100.896
-100.891
-100.878
-100.858
-100.832
-100.803
-100.771
-100.736
-100.7
-100.661
-100.853
-100.877
-100.887
-100.885
-100.874
-100.855
-100.832
-100.804
-100.773
-100.739
-100.702
-100.664
-100.622
-100.842
-100.868
-100.881
-100.881
-100.871
-100.855
-100.833
-100.806
-100.775
-100.742
-100.706
-100.668
-100.626
-100.581
-100.837
-100.863
-100.878
-100.879
-100.871
-100.855
-100.835
-100.809
-100.779
-100.747
-100.711
-100.673
-100.632
-100.586
-100.536
-100.837
-100.863
-100.878
-100.881
-100.873
-100.859
-100.839
-100.814
-100.785
-100.753
-100.719
-100.682
-100.641
-100.596
-100.546
-100.491
-101.716
-101.651
-101.487
-101.562
-101.414
-101.292
-101.467
-101.345
-101.233
-101.138
-101.34
-101.27
-101.185
-101.1
-101.02
-101.264
-101.206
-101.138
-101.07
-101
-101.188
-101.149
-101.097
-101.041
-100.983
-100.925
-101.115
-101.101
-101.059
-101.013
-100.965
-100.915
-100.866
-101.067
-101.058
-101.025
-100.987
-100.948
-100.903
-100.859
-100.818
-101.026
-101.018
-100.994
-100.965
-100.931
-100.893
-100.853
-100.814
-100.983
-100.984
-100.968
-100.945
-100.917
-100.883
-100.847
-100.81
-100.773
-100.941
-100.95
-100.945
-100.928
-100.904
-100.875
-100.841
-100.807
-100.771
-100.734
-100.91
-100.928
-100.926
-100.913
-100.894
-100.868
-100.837
-100.805
-100.77
-100.733
-100.696
-100.881
-100.909
-100.91
-100.901
-100.885
-100.862
-100.834
-100.803
-100.77
-100.734
-100.697
-100.658
-100.864
-100.889
-100.896
-100.892
-100.878
-100.858
-100.832
-100.803
-100.771
-100.736
-100.699
-100.66
-100.618
-100.853
-100.877
-100.888
-100.885
-100.874
-100.855
-100.832
-100.804
-100.773
-100.739
-100.702
-100.663
-100.621
-100.575
-100.843
-100.868
-100.881
-100.881
-100.871
-100.855
-100.833
-100.806
-100.775
-100.742
-100.706
-100.668
-100.626
-100.58
-100.53
-100.837
-100.863
-100.878
-100.879
-100.871
-100.856
-100.835
-100.809
-100.779
-100.747
-100.711
-100.673
-100.631
-100.586
-100.535
-100.479
-100.837
-100.863
-100.878
-100.881
-100.873
-100.859
-100.839
-100.814
-100.785
-100.753
-100.719
-100.682
-100.641
-100.596
-100.546
-100.49
-100.428
-101.654
-101.658
-101.521
-101.614
-101.487
-101.32
-101.544
-101.42
-101.284
-101.161
-101.456
-101.352
-101.231
-101.134
-101.033
-101.341
-101.269
-101.183
-101.1
-101.02
-100.943
-101.264
-101.206
-101.138
-101.069
-101
-100.934
-101.187
-101.149
-101.096
-101.039
-100.982
-100.923
-100.869
-101.119
-101.1
-101.059
-101.012
-100.964
-100.914
-100.864
-100.821
-101.065
-101.058
-101.024
-100.986
-100.947
-100.902
-100.858
-100.816
-100.776
-101.019
-101.019
-100.994
-100.965
-100.931
-100.892
-100.852
-100.813
-100.774
-100.986
-100.986
-100.968
-100.945
-100.917
-100.883
-100.846
-100.809
-100.772
-100.733
-100.94
-100.95
-100.945
-100.928
-100.904
-100.874
-100.841
-100.806
-100.77
-100.733
-100.695
-100.911
-100.928
-100.926
-100.913
-100.894
-100.868
-100.837
-100.804
-100.77
-100.733
-100.695
-100.657
-100.88
-100.909
-100.91
-100.901
-100.885
-100.862
-100.834
-100.803
-100.77
-100.734
-100.697
-100.658
-100.616
-100.864
-100.889
-100.897
-100.892
-100.879
-100.858
-100.832
-100.803
-100.771
-100.736
-100.699
-100.66
-100.618
-100.572
-100.853
-100.878
-100.888
-100.885
-100.874
-100.856
-100.832
-100.804
-100.773
-100.739
-100.702
-100.663
-100.621
-100.575
-100.524
-100.843
-100.868
-100.881
-100.881
-100.871
-100.855
-100.833
-100.806
-100.776
-100.742
-100.706
-100.668
-100.626
-100.58
-100.529
-100.473
-100.837
-100.864
-100.878
-100.88
-100.871
-100.856
-100.835
-100.809
-100.779
-100.747
-100.711
-100.673
-100.631
-100.586
-100.535
-100.479
-100.416
-100.837
-100.863
-100.878
-100.881
-100.873
-100.859
-100.839
-100.814
-100.785
-100.753
-100.719
-100.682
-100.641
-100.596
-100.546
-100.49
-100.428
-100.357
-101.585
-101.627
-101.507
-101.667
-101.509
-101.337
-101.625
-101.484
-101.306
-101.186
-101.513
-101.423
-101.275
-101.16
-101.038
-101.442
-101.347
-101.233
-101.128
-101.035
-100.95
-101.348
-101.269
-101.185
-101.1
-101.016
-100.941
-100.871
-101.264
-101.206
-101.137
-101.067
-100.998
-100.932
-100.871
-101.189
-101.149
-101.096
-101.039
-100.981
-100.922
-100.868
-100.821
-101.112
-101.101
-101.058
-101.012
-100.963
-100.913
-100.862
-100.819
-100.776
-101.064
-101.058
-101.024
-100.986
-100.947
-100.902
-100.857
-100.815
-100.774
-100.735
-101.019
-101.019
-100.994
-100.965
-100.931
-100.892
-100.851
-100.812
-100.773
-100.734
-100.985
-100.986
-100.968
-100.945
-100.917
-100.883
-100.846
-100.809
-100.771
-100.733
-100.695
-100.94
-100.951
-100.945
-100.928
-100.904
-100.874
-100.841
-100.806
-100.77
-100.732
-100.694
-100.656
-100.912
-100.929
-100.926
-100.913
-100.894
-100.868
-100.837
-100.804
-100.769
-100.732
-100.695
-100.656
-100.614
-100.88
-100.909
-100.91
-100.901
-100.886
-100.862
-100.834
-100.803
-100.77
-100.734
-100.696
-100.657
-100.615
-100.57
-100.865
-100.889
-100.897
-100.892
-100.879
-100.858
-100.833
-100.803
-100.771
-100.736
-100.699
-100.659
-100.617
-100.571
-100.521
-100.853
-100.878
-100.888
-100.886
-100.874
-100.856
-100.832
-100.804
-100.773
-100.739
-100.702
-100.663
-100.62
-100.574
-100.524
-100.468
-100.843
-100.868
-100.882
-100.881
-100.872
-100.855
-100.833
-100.806
-100.776
-100.742
-100.706
-100.668
-100.626
-100.58
-100.529
-100.473
-100.409
-100.838
-100.864
-100.878
-100.88
-100.871
-100.856
-100.835
-100.809
-100.779
-100.747
-100.711
-100.673
-100.631
-100.585
-100.535
-100.479
-100.415
-100.344
-100.837
-100.863
-100.878
-100.881
-100.873
-100.859
-100.839
-100.814
-100.785
-100.753
-100.719
-100.682
-100.641
-100.596
-100.546
-100.49
-100.428
-100.357
-100.277
-101.556
-101.622
-101.437
-101.642
-101.476
-101.324
-101.657
-101.511
-101.328
-101.181
-101.634
-101.499
-101.304
-101.184
-101.05
-101.538
-101.413
-101.276
-101.154
-101.038
-100.951
-101.451
-101.338
-101.232
-101.129
-101.028
-100.948
-100.871
-101.35
-101.267
-101.183
-101.1
-101.017
-100.94
-100.87
-100.82
-101.261
-101.206
-101.137
-101.067
-100.997
-100.931
-100.871
-100.821
-101.187
-101.152
-101.096
-101.038
-100.98
-100.921
-100.867
-100.818
-100.777
-101.118
-101.099
-101.058
-101.011
-100.963
-100.912
-100.861
-100.818
-100.775
-100.733
-101.063
-101.057
-101.024
-100.986
-100.947
-100.902
-100.857
-100.814
-100.773
-100.734
-100.695
-101.019
-101.019
-100.994
-100.965
-100.931
-100.892
-100.851
-100.811
-100.772
-100.733
-100.694
-100.984
-100.987
-100.968
-100.945
-100.917
-100.883
-100.846
-100.809
-100.771
-100.732
-100.694
-100.656
-100.94
-100.951
-100.945
-100.928
-100.904
-100.874
-100.841
-100.806
-100.77
-100.732
-100.694
-100.655
-100.615
-100.913
-100.93
-100.926
-100.914
-100.894
-100.868
-100.837
-100.804
-100.769
-100.732
-100.694
-100.655
-100.613
-100.569
-100.88
-100.91
-100.91
-100.902
-100.886
-100.863
-100.835
-100.804
-100.77
-100.734
-100.696
-100.657
-100.615
-100.569
-100.52
-100.865
-100.889
-100.897
-100.892
-100.879
-100.859
-100.833
-100.804
-100.771
-100.736
-100.699
-100.659
-100.617
-100.571
-100.52
-100.465
-100.854
-100.878
-100.889
-100.886
-100.874
-100.856
-100.833
-100.805
-100.773
-100.739
-100.702
-100.663
-100.62
-100.574
-100.523
-100.467
-100.404
-100.843
-100.869
-100.882
-100.882
-100.872
-100.855
-100.833
-100.806
-100.776
-100.743
-100.707
-100.668
-100.626
-100.579
-100.529
-100.472
-100.409
-100.337
-100.838
-100.864
-100.879
-100.88
-100.871
-100.856
-100.835
-100.809
-100.78
-100.747
-100.712
-100.673
-100.631
-100.586
-100.535
-100.478
-100.415
-100.343
-100.263
-100.837
-100.863
-100.878
-100.881
-100.873
-100.859
-100.839
-100.814
-100.785
-100.753
-100.719
-100.682
-100.641
-100.596
-100.546
-100.49
-100.428
-100.357
-100.277
-100.187
-101.52
-101.628
-101.313
-101.593
-101.427
-101.242
-101.611
-101.474
-101.315
-101.154
-101.672
-101.529
-101.317
-101.18
-101.031
-101.647
-101.472
-101.312
-101.176
-101.047
-100.939
-101.554
-101.402
-101.281
-101.155
-101.033
-100.941
-100.855
-101.465
-101.337
-101.23
-101.128
-101.029
-100.946
-100.868
-100.812
-101.355
-101.271
-101.183
-101.098
-101.016
-100.939
-100.868
-100.814
-100.776
-101.262
-101.207
-101.137
-101.066
-100.995
-100.929
-100.868
-100.819
-100.77
-101.184
-101.151
-101.096
-101.039
-100.98
-100.92
-100.866
-100.818
-100.776
-100.733
-101.115
-101.1
-101.057
-101.012
-100.963
-100.911
-100.861
-100.817
-100.773
-100.732
-100.695
-101.065
-101.057
-101.025
-100.987
-100.947
-100.902
-100.856
-100.814
-100.772
-100.733
-100.694
-100.658
-101.021
-101.019
-100.994
-100.965
-100.931
-100.892
-100.851
-100.811
-100.772
-100.732
-100.693
-100.656
-100.983
-100.986
-100.968
-100.946
-100.917
-100.883
-100.846
-100.809
-100.77
-100.731
-100.693
-100.655
-100.615
-100.94
-100.952
-100.945
-100.929
-100.904
-100.875
-100.842
-100.807
-100.77
-100.732
-100.693
-100.654
-100.613
-100.569
-100.915
-100.93
-100.927
-100.914
-100.895
-100.868
-100.838
-100.805
-100.77
-100.732
-100.694
-100.655
-100.613
-100.568
-100.52
-100.881
-100.91
-100.911
-100.902
-100.886
-100.863
-100.835
-100.804
-100.77
-100.734
-100.696
-100.657
-100.614
-100.568
-100.519
-100.464
-100.865
-100.89
-100.898
-100.893
-100.88
-100.859
-100.833
-100.804
-100.771
-100.736
-100.699
-100.659
-100.617
-100.57
-100.52
-100.464
-100.401
-100.854
-100.878
-100.889
-100.886
-100.875
-100.857
-100.833
-100.805
-100.773
-100.739
-100.702
-100.663
-100.62
-100.574
-100.523
-100.466
-100.403
-100.331
-100.843
-100.869
-100.882
-100.882
-100.872
-100.856
-100.834
-100.807
-100.776
-100.743
-100.707
-100.668
-100.626
-100.579
-100.528
-100.472
-100.408
-100.336
-100.255
-100.838
-100.864
-100.879
-100.88
-100.871
-100.856
-100.836
-100.81
-100.78
-100.747
-100.712
-100.674
-100.632
-100.586
-100.535
-100.478
-100.415
-100.343
-100.262
-100.172
-100.837
-100.863
-100.879
-100.881
-100.873
-100.859
-100.839
-100.814
-100.785
-100.753
-100.719
-100.682
-100.641
-100.596
-100.546
-100.49
-100.428
-100.357
-100.277
-100.187
-100.087
-101.38
-101.518
-101.257
-101.572
-101.343
-101.155
-101.576
-101.41
-101.244
-101.078
-101.61
-101.477
-101.31
-101.141
-100.995
-101.661
-101.514
-101.353
-101.161
-101.031
-100.924
-101.642
-101.455
-101.312
-101.169
-101.05
-100.934
-100.849
-101.569
-101.407
-101.285
-101.147
-101.035
-100.946
-100.856
-100.812
-101.466
-101.344
-101.224
-101.127
-101.026
-100.944
-100.87
-100.816
-100.77
-101.352
-101.276
-101.185
-101.098
-101.015
-100.937
-100.866
-100.814
-100.771
-100.724
-101.254
-101.205
-101.137
-101.065
-100.996
-100.929
-100.869
-100.819
-100.771
-100.731
-101.184
-101.15
-101.096
-101.039
-100.98
-100.92
-100.865
-100.816
-100.774
-100.731
-100.693
-101.121
-101.099
-101.058
-101.011
-100.963
-100.911
-100.861
-100.816
-100.773
-100.731
-100.693
-100.659
-101.064
-101.056
-101.025
-100.987
-100.947
-100.902
-100.856
-100.813
-100.772
-100.732
-100.693
-100.656
-100.62
-101.023
-101.019
-100.995
-100.966
-100.932
-100.892
-100.851
-100.811
-100.771
-100.731
-100.692
-100.655
-100.616
-100.982
-100.987
-100.969
-100.946
-100.918
-100.883
-100.846
-100.809
-100.77
-100.731
-100.692
-100.654
-100.614
-100.571
-100.941
-100.953
-100.946
-100.929
-100.905
-100.875
-100.842
-100.807
-100.77
-100.732
-100.693
-100.654
-100.613
-100.568
-100.521
-100.915
-100.931
-100.927
-100.914
-100.895
-100.869
-100.838
-100.805
-100.77
-100.733
-100.694
-100.654
-100.612
-100.567
-100.519
-100.465
-100.882
-100.911
-100.911
-100.903
-100.887
-100.863
-100.835
-100.804
-100.77
-100.734
-100.696
-100.657
-100.614
-100.568
-100.518
-100.462
-100.4
-100.866
-100.89
-100.898
-100.893
-100.88
-100.86
-100.834
-100.804
-100.772
-100.737
-100.699
-100.66
-100.617
-100.57
-100.519
-100.463
-100.4
-100.329
-100.854
-100.879
-100.889
-100.887
-100.875
-100.857
-100.834
-100.805
-100.774
-100.739
-100.703
-100.663
-100.621
-100.574
-100.523
-100.466
-100.402
-100.33
-100.25
-100.844
-100.869
-100.883
-100.882
-100.872
-100.856
-100.834
-100.807
-100.777
-100.743
-100.707
-100.668
-100.626
-100.579
-100.528
-100.472
-100.408
-100.336
-100.255
-100.164
-100.838
-100.864
-100.879
-100.88
-100.872
-100.857
-100.836
-100.81
-100.78
-100.748
-100.712
-100.674
-100.632
-100.586
-100.535
-100.478
-100.415
-100.343
-100.262
-100.171
-100.071
-100.837
-100.863
-100.879
-100.881
-100.873
-100.859
-100.839
-100.814
-100.785
-100.753
-100.719
-100.682
-100.641
-100.596
-100.546
-100.49
-100.427
-100.357
-100.277
-100.187
-100.087
-99.9764
-101.207
-101.273
-101.111
-101.463
-101.181
-101.037
-101.544
-101.305
-101.125
-100.999
-101.571
-101.375
-101.259
-101.087
-100.97
-101.649
-101.486
-101.329
-101.135
-101
-100.889
-101.657
-101.513
-101.356
-101.166
-101.027
-100.922
-100.841
-101.634
-101.454
-101.323
-101.174
-101.048
-100.936
-100.851
-100.8
-101.566
-101.41
-101.283
-101.15
-101.031
-100.942
-100.851
-100.8
-100.745
-101.453
-101.346
-101.229
-101.12
-101.031
-100.942
-100.865
-100.811
-100.752
-100.716
-101.338
-101.273
-101.184
-101.099
-101.013
-100.936
-100.865
-100.812
-100.772
-100.722
-100.69
-101.256
-101.204
-101.137
-101.066
-100.995
-100.928
-100.865
-100.817
-100.768
-100.729
-100.69
-101.184
-101.15
-101.096
-101.039
-100.98
-100.92
-100.864
-100.816
-100.773
-100.73
-100.69
-100.658
-101.119
-101.099
-101.058
-101.012
-100.964
-100.911
-100.861
-100.815
-100.771
-100.73
-100.692
-100.657
-100.621
-101.066
-101.057
-101.025
-100.987
-100.947
-100.902
-100.857
-100.813
-100.772
-100.731
-100.692
-100.655
-100.618
-100.579
-101.027
-101.02
-100.995
-100.966
-100.932
-100.892
-100.851
-100.811
-100.771
-100.731
-100.692
-100.654
-100.615
-100.573
-100.982
-100.987
-100.97
-100.947
-100.918
-100.884
-100.847
-100.809
-100.771
-100.731
-100.692
-100.653
-100.613
-100.57
-100.524
-100.941
-100.953
-100.946
-100.93
-100.906
-100.876
-100.843
-100.808
-100.77
-100.732
-100.693
-100.653
-100.612
-100.567
-100.52
-100.468
-100.916
-100.931
-100.928
-100.915
-100.896
-100.87
-100.839
-100.806
-100.771
-100.733
-100.695
-100.655
-100.612
-100.567
-100.518
-100.463
-100.402
-100.883
-100.912
-100.912
-100.903
-100.887
-100.864
-100.836
-100.805
-100.771
-100.735
-100.697
-100.657
-100.614
-100.568
-100.517
-100.462
-100.399
-100.329
-100.866
-100.89
-100.899
-100.894
-100.881
-100.86
-100.835
-100.805
-100.772
-100.737
-100.7
-100.66
-100.617
-100.57
-100.519
-100.463
-100.399
-100.328
-100.247
-100.855
-100.879
-100.89
-100.887
-100.876
-100.858
-100.834
-100.806
-100.774
-100.74
-100.703
-100.664
-100.621
-100.574
-100.523
-100.466
-100.402
-100.33
-100.249
-100.158
-100.844
-100.869
-100.883
-100.883
-100.873
-100.856
-100.835
-100.808
-100.777
-100.744
-100.707
-100.669
-100.626
-100.58
-100.528
-100.471
-100.407
-100.335
-100.254
-100.163
-100.062
-100.838
-100.864
-100.879
-100.881
-100.872
-100.857
-100.836
-100.81
-100.78
-100.748
-100.712
-100.674
-100.632
-100.586
-100.535
-100.479
-100.415
-100.343
-100.262
-100.171
-100.07
-99.9586
-100.837
-100.863
-100.879
-100.881
-100.874
-100.859
-100.839
-100.814
-100.785
-100.754
-100.719
-100.682
-100.641
-100.596
-100.546
-100.49
-100.427
-100.357
-100.276
-100.187
-100.087
-99.9761
-99.8567
-101.194
-100.964
-101.312
-101.023
-100.878
-101.492
-101.174
-100.971
-100.864
-101.578
-101.289
-101.13
-100.98
-100.866
-101.58
-101.399
-101.242
-101.077
-100.95
-100.864
-101.619
-101.473
-101.336
-101.148
-101.023
-100.882
-100.809
-101.648
-101.515
-101.334
-101.163
-101.024
-100.935
-100.832
-100.766
-101.635
-101.482
-101.308
-101.171
-101.041
-100.939
-100.845
-100.793
-100.732
-101.518
-101.422
-101.278
-101.152
-101.03
-100.94
-100.852
-100.808
-100.758
-100.713
-101.443
-101.345
-101.234
-101.125
-101.024
-100.943
-100.865
-100.812
-100.765
-100.732
-100.688
-101.336
-101.264
-101.18
-101.097
-101.013
-100.935
-100.865
-100.81
-100.765
-100.72
-100.686
-100.66
-101.256
-101.203
-101.137
-101.067
-100.996
-100.929
-100.867
-100.816
-100.769
-100.728
-100.688
-100.658
-101.184
-101.149
-101.096
-101.039
-100.981
-100.92
-100.864
-100.815
-100.772
-100.729
-100.689
-100.657
-100.623
-101.119
-101.099
-101.058
-101.013
-100.964
-100.912
-100.861
-100.816
-100.772
-100.729
-100.691
-100.656
-100.619
-100.582
-101.065
-101.058
-101.026
-100.988
-100.948
-100.903
-100.857
-100.814
-100.772
-100.731
-100.691
-100.654
-100.617
-100.577
-100.536
-101.03
-101.021
-100.996
-100.967
-100.933
-100.893
-100.852
-100.812
-100.772
-100.731
-100.692
-100.653
-100.614
-100.572
-100.53
-100.982
-100.988
-100.971
-100.948
-100.919
-100.885
-100.848
-100.81
-100.771
-100.732
-100.692
-100.653
-100.612
-100.569
-100.523
-100.472
-100.942
-100.954
-100.947
-100.93
-100.906
-100.877
-100.844
-100.808
-100.771
-100.733
-100.694
-100.654
-100.612
-100.567
-100.519
-100.466
-100.407
-100.917
-100.932
-100.929
-100.916
-100.897
-100.87
-100.84
-100.807
-100.771
-100.734
-100.695
-100.655
-100.612
-100.567
-100.517
-100.462
-100.401
-100.332
-100.884
-100.912
-100.913
-100.904
-100.888
-100.865
-100.837
-100.806
-100.772
-100.735
-100.697
-100.657
-100.614
-100.568
-100.517
-100.461
-100.398
-100.328
-100.248
-100.867
-100.891
-100.899
-100.894
-100.881
-100.861
-100.835
-100.806
-100.773
-100.738
-100.7
-100.66
-100.617
-100.57
-100.519
-100.462
-100.399
-100.327
-100.246
-100.156
-100.855
-100.879
-100.89
-100.888
-100.876
-100.858
-100.835
-100.807
-100.775
-100.741
-100.704
-100.664
-100.621
-100.574
-100.523
-100.466
-100.402
-100.329
-100.248
-100.157
-100.055
-100.844
-100.87
-100.883
-100.883
-100.873
-100.857
-100.835
-100.808
-100.777
-100.744
-100.708
-100.669
-100.626
-100.58
-100.529
-100.472
-100.407
-100.335
-100.254
-100.163
-100.061
-99.9492
-100.838
-100.865
-100.88
-100.881
-100.872
-100.857
-100.837
-100.81
-100.781
-100.748
-100.713
-100.674
-100.632
-100.586
-100.535
-100.479
-100.415
-100.343
-100.262
-100.171
-100.07
-99.9581
-99.8374
-100.837
-100.863
-100.879
-100.881
-100.874
-100.859
-100.839
-100.814
-100.785
-100.754
-100.719
-100.682
-100.641
-100.596
-100.546
-100.49
-100.427
-100.357
-100.276
-100.187
-100.087
-99.9759
-99.8564
-99.7286
-101.158
-100.953
-100.764
-101.332
-101.047
-100.845
-100.726
-101.481
-101.205
-100.973
-100.82
-100.767
-101.56
-101.308
-101.121
-100.98
-100.852
-100.78
-101.579
-101.37
-101.243
-101.073
-100.985
-100.838
-100.79
-101.616
-101.481
-101.321
-101.145
-101.015
-100.884
-100.812
-100.746
-101.671
-101.519
-101.324
-101.16
-101.021
-100.939
-100.821
-100.777
-100.722
-101.65
-101.488
-101.302
-101.173
-101.04
-100.934
-100.842
-100.786
-100.726
-100.702
-101.505
-101.412
-101.273
-101.147
-101.028
-100.938
-100.851
-100.799
-100.746
-100.703
-100.684
-101.434
-101.342
-101.233
-101.125
-101.029
-100.941
-100.862
-100.809
-100.753
-100.711
-100.679
-100.661
-101.335
-101.264
-101.18
-101.096
-101.012
-100.934
-100.864
-100.805
-100.768
-100.722
-100.685
-100.657
-100.629
-101.255
-101.201
-101.136
-101.067
-100.996
-100.929
-100.867
-100.816
-100.764
-100.726
-100.687
-100.657
-100.624
-101.183
-101.15
-101.096
-101.04
-100.981
-100.92
-100.864
-100.815
-100.771
-100.728
-100.688
-100.655
-100.621
-100.587
-101.114
-101.1
-101.059
-101.014
-100.965
-100.913
-100.862
-100.816
-100.771
-100.729
-100.69
-100.654
-100.618
-100.581
-100.545
-101.066
-101.059
-101.027
-100.989
-100.948
-100.903
-100.858
-100.814
-100.772
-100.731
-100.691
-100.653
-100.616
-100.576
-100.534
-100.489
-101.025
-101.022
-100.996
-100.968
-100.934
-100.894
-100.853
-100.813
-100.772
-100.732
-100.692
-100.653
-100.614
-100.571
-100.528
-100.479
-100.982
-100.988
-100.971
-100.949
-100.92
-100.885
-100.848
-100.811
-100.772
-100.732
-100.693
-100.654
-100.612
-100.569
-100.522
-100.471
-100.414
-100.941
-100.955
-100.948
-100.931
-100.907
-100.878
-100.845
-100.809
-100.772
-100.733
-100.694
-100.654
-100.612
-100.567
-100.518
-100.465
-100.405
-100.338
-100.917
-100.933
-100.929
-100.917
-100.898
-100.871
-100.841
-100.808
-100.772
-100.735
-100.696
-100.656
-100.613
-100.567
-100.517
-100.462
-100.4
-100.331
-100.253
-100.885
-100.913
-100.913
-100.905
-100.889
-100.866
-100.838
-100.807
-100.773
-100.736
-100.698
-100.658
-100.615
-100.568
-100.517
-100.461
-100.398
-100.327
-100.247
-100.157
-100.867
-100.891
-100.9
-100.895
-100.882
-100.862
-100.836
-100.807
-100.774
-100.739
-100.701
-100.661
-100.618
-100.571
-100.519
-100.462
-100.398
-100.326
-100.245
-100.154
-100.053
-100.855
-100.88
-100.891
-100.888
-100.877
-100.859
-100.835
-100.807
-100.776
-100.741
-100.704
-100.665
-100.622
-100.575
-100.523
-100.466
-100.402
-100.329
-100.248
-100.156
-100.054
-99.9418
-100.844
-100.87
-100.884
-100.883
-100.874
-100.857
-100.835
-100.809
-100.778
-100.745
-100.708
-100.669
-100.627
-100.58
-100.529
-100.472
-100.408
-100.335
-100.253
-100.162
-100.06
-99.9482
-99.8268
-100.839
-100.865
-100.88
-100.881
-100.873
-100.858
-100.837
-100.811
-100.781
-100.749
-100.713
-100.675
-100.633
-100.587
-100.536
-100.479
-100.415
-100.343
-100.262
-100.171
-100.069
-99.9576
-99.8368
-99.708
-100.863
-100.879
-100.881
-100.874
-100.859
-100.84
-100.814
-100.785
-100.754
-100.719
-100.682
-100.641
-100.596
-100.546
-100.49
-100.428
-100.357
-100.276
-100.187
-100.087
-99.9757
-99.8562
-99.7283
-99.5948
-101.224
-100.909
-100.774
-100.641
-101.327
-101.072
-100.849
-100.721
-100.659
-101.496
-101.19
-101.012
-100.844
-100.741
-100.724
-101.553
-101.328
-101.104
-100.981
-100.864
-100.779
-100.759
-101.586
-101.404
-101.241
-101.082
-101.008
-100.826
-100.799
-100.704
-101.646
-101.492
-101.319
-101.147
-101.01
-100.883
-100.803
-100.732
-100.695
-101.682
-101.53
-101.33
-101.172
-101.01
-100.92
-100.813
-100.768
-100.723
-100.703
-101.63
-101.481
-101.312
-101.189
-101.041
-100.932
-100.842
-100.781
-100.727
-100.701
-100.675
-101.536
-101.4
-101.268
-101.147
-101.025
-100.936
-100.854
-100.802
-100.75
-100.706
-100.674
-100.66
-101.433
-101.329
-101.229
-101.123
-101.027
-100.94
-100.864
-100.815
-100.759
-100.724
-100.685
-100.659
-100.627
-101.336
-101.261
-101.179
-101.096
-101.013
-100.933
-100.867
-100.809
-100.764
-100.718
-100.683
-100.655
-100.626
-100.598
-101.256
-101.205
-101.136
-101.067
-100.996
-100.93
-100.868
-100.817
-100.768
-100.728
-100.686
-100.656
-100.622
-100.592
-101.182
-101.151
-101.097
-101.04
-100.982
-100.921
-100.865
-100.816
-100.772
-100.728
-100.688
-100.654
-100.62
-100.585
-100.551
-101.114
-101.1
-101.059
-101.015
-100.966
-100.913
-100.863
-100.817
-100.772
-100.73
-100.69
-100.654
-100.617
-100.579
-100.542