/*--------------------------------*- C++ -*----------------------------------*\
  =========                 |
  \\      /  F ield         | OpenFOAM: The Open Source CFD Toolbox
   \\    /   O peration     | Website:  https://openfoam.org
    \\  /    A nd           | Version:  7
     \\/     M anipulation  |
\*---------------------------------------------------------------------------*/
FoamFile
{
    version     2.0;
    format      ascii;
    class       surfaceScalarField;
    location    "0.5";
    object      phi;
}
// * * * * * * * * * * * * * * * * * * * * * * * * * * * * * * * * * * * * * //

dimensions      [0 3 -1 0 0 0 0];

internalField   nonuniform List<scalar> 
54184
(
-3.04992e-07
1.56509e-05
9.24756e-05
-1.14729e-07
2.19671e-05
0.000282179
-2.4512e-07
1.59964e-05
0.000101738
-9.95003e-08
1.44005e-05
9.22316e-05
8.41978e-07
2.25933e-05
0.000475304
-7.82969e-09
2.23531e-05
0.000310412
5.77557e-07
2.29976e-05
0.000280733
-1.60208e-07
1.62602e-05
0.000101405
-2.26498e-08
1.46939e-05
0.000101467
1.958e-07
1.52002e-05
9.16627e-05
1.96083e-06
2.25932e-05
0.000671856
1.00114e-06
2.30881e-05
0.000522714
2.77499e-06
2.00677e-05
0.000472365
1.39539e-07
2.26654e-05
0.000309288
7.65994e-07
2.37796e-05
0.000308841
1.38377e-06
2.37842e-05
0.000278668
-4.07941e-08
1.64193e-05
0.000101074
4.03062e-08
1.49109e-05
0.000101148
2.82144e-07
1.55522e-05
0.000100833
3.04376e-07
1.70219e-05
9.08778e-05
3.23277e-06
2.55426e-05
0.000871042
2.38644e-06
2.39433e-05
0.000738899
5.82327e-06
2.1922e-05
0.000667875
1.35101e-06
2.32798e-05
0.000520936
3.18865e-06
2.08361e-05
0.000519523
4.33429e-06
2.12773e-05
0.000468556
2.92737e-07
2.29931e-05
0.000307986
8.88564e-07
2.4493e-05
0.000307726
1.68338e-06
2.4638e-05
0.000306586
2.2174e-06
2.41841e-05
0.000276022
3.17118e-08
1.65076e-05
0.000100709
1.18087e-07
1.5064e-05
0.000100803
3.40763e-07
1.58422e-05
0.000100517
3.98461e-07
1.74936e-05
9.99629e-05
3.78689e-07
1.63132e-05
8.98685e-05
7.35006e-06
2.49769e-05
0.00107692
3.44085e-06
2.86368e-05
0.000958466
8.36953e-06
2.22434e-05
0.000867059
2.32691e-06
2.5595e-05
0.000735904
6.67249e-06
2.27925e-05
0.000734544
9.60906e-06
2.23056e-05
0.000661828
1.67372e-06
2.32766e-05
0.000518912
3.47849e-06
2.13515e-05
0.000517831
4.998e-06
2.21233e-05
0.000515362
6.06866e-06
2.27052e-05
0.000464055
4.87056e-07
2.31967e-05
0.000306789
1.10699e-06
2.50938e-05
0.000306396
1.82138e-06
2.54148e-05
0.000305469
2.61217e-06
2.48546e-05
0.000303702
2.95408e-06
2.29807e-05
0.000272874
4.56873e-08
1.65542e-05
0.000100325
1.76391e-07
1.51734e-05
0.000100423
4.14806e-07
1.60593e-05
0.000100171
4.56126e-07
1.78946e-05
9.96602e-05
4.80283e-07
1.69438e-05
9.8852e-05
4.31099e-07
1.6476e-05
8.86356e-05
1.74491e-05
4.54127e-06
0.00128641
7.89369e-06
2.62268e-05
0.00118434
1.34267e-05
2.45713e-05
0.00107099
6.1699e-06
2.87074e-05
0.000953111
9.4687e-06
2.41816e-05
0.000953731
1.6366e-05
2.18034e-05
0.000859136
2.71826e-06
2.71162e-05
0.000732926
6.68217e-06
2.38543e-05
0.000731639
1.08858e-05
2.30329e-05
0.000727929
1.28524e-05
2.12778e-05
0.000654657
1.9963e-06
2.31431e-05
0.000516713
3.84139e-06
2.1664e-05
0.000515865
5.20142e-06
2.28131e-05
0.000513761
6.93338e-06
2.33086e-05
0.000510437
7.46559e-06
2.20745e-05
0.000458927
6.29854e-07
2.31627e-05
0.000305708
1.23142e-06
2.56309e-05
0.000305196
2.11593e-06
2.59805e-05
0.000304129
2.74495e-06
2.54448e-05
0.00030259
3.41936e-06
2.34797e-05
0.000300264
3.37298e-06
2.2991e-05
0.000269272
8.87343e-08
1.65575e-05
9.99413e-05
2.08195e-07
1.52398e-05
0.00010005
4.85692e-07
1.61947e-05
9.98018e-05
5.28276e-07
1.8208e-05
9.93291e-05
5.40674e-07
1.75097e-05
9.85535e-05
5.43476e-07
1.72864e-05
9.74981e-05
4.97158e-07
1.81741e-05
8.72426e-05
2.68345e-05
-1.91526e-06
0.00150275
1.91738e-05
1.19251e-06
0.00141474
2.68224e-05
1.28901e-05
0.00127424
1.51159e-05
2.24875e-05
0.00117976
1.50512e-05
2.53336e-05
0.00117799
2.44329e-05
2.17454e-05
0.00106224
6.9204e-06
2.80331e-05
0.000949732
1.18331e-05
2.35758e-05
0.000948565
1.83148e-05
2.32195e-05
0.000944886
2.24509e-05
2.08674e-05
0.000848924
2.88406e-06
2.87535e-05
0.000729901
7.19198e-06
2.47207e-05
0.000728709
1.1017e-05
2.37164e-05
0.000725139
1.44558e-05
2.15838e-05
0.000720101
1.45779e-05
2.11072e-05
0.000646854
2.06589e-06
2.30757e-05
0.00051463
4.03413e-06
2.19738e-05
0.000513601
5.64929e-06
2.33368e-05
0.000511808
7.03163e-06
2.39551e-05
0.000508828
8.469e-06
2.26536e-05
0.000504809
8.58058e-06
2.20276e-05
0.000452928
7.72325e-07
2.30172e-05
0.000304521
1.44061e-06
2.5915e-05
0.000304192
2.19152e-06
2.65473e-05
0.000302924
2.97629e-06
2.58804e-05
0.000301245
3.55184e-06
2.38971e-05
0.000299161
3.88317e-06
2.35992e-05
0.000296316
3.6284e-06
2.43949e-05
0.000265341
1.70792e-07
1.65008e-05
9.95236e-05
2.49054e-07
1.52652e-05
9.96668e-05
5.37106e-07
1.62831e-05
9.94245e-05
6.07673e-07
1.83957e-05
9.90065e-05
6.11614e-07
1.79969e-05
9.82303e-05
6.12601e-07
1.80275e-05
9.71998e-05
6.25498e-07
1.90781e-05
9.59686e-05
4.75924e-07
2.02208e-05
8.58193e-05
3.55149e-05
1.33137e-05
0.00172506
1.69198e-05
6.35885e-06
0.0016539
4.15016e-05
1.1136e-05
0.00149005
2.21351e-05
2.47326e-06
0.00140886
3.00423e-05
1.09776e-05
0.00140166
3.70636e-05
1.83848e-05
0.00126184
1.64149e-05
1.76151e-05
0.00117503
2.01399e-05
2.37277e-05
0.00117306
2.73312e-05
2.22559e-05
0.00116847
3.53992e-05
1.94361e-05
0.00104887
9.37942e-06
2.49658e-05
0.000946358
1.3626e-05
2.19715e-05
0.000944902
1.89921e-05
2.33376e-05
0.000940472
2.51631e-05
2.13514e-05
0.000933695
2.51175e-05
2.06296e-05
0.000837871
3.31917e-06
2.98182e-05
0.000726896
7.66153e-06
2.52699e-05
0.000725724
1.14798e-05
2.42914e-05
0.000722304
1.45315e-05
2.18606e-05
0.000717363
1.63384e-05
2.18012e-05
0.000711537
1.6166e-05
2.2409e-05
0.000638185
2.20669e-06
2.29304e-05
0.000512542
4.32142e-06
2.21247e-05
0.000511598
5.7113e-06
2.38344e-05
0.000509583
7.36297e-06
2.45224e-05
0.000506854
8.64387e-06
2.32901e-05
0.0005031
9.68232e-06
2.28193e-05
0.000498218
9.36445e-06
2.33555e-05
0.000446239
9.36244e-07
2.2833e-05
0.000303254
1.60801e-06
2.6042e-05
0.000303035
2.52858e-06
2.68131e-05
0.000301934
3.06965e-06
2.6293e-05
0.000300049
3.69615e-06
2.42415e-05
0.000297816
4.02677e-06
2.41198e-05
0.000295226
4.18032e-06
2.51499e-05
0.000292006
3.60182e-06
2.59734e-05
0.00026129
2.26474e-07
1.63731e-05
9.91209e-05
3.20672e-07
1.52293e-05
9.92389e-05
5.89286e-07
1.63321e-05
9.90285e-05
6.76981e-07
1.85124e-05
9.86309e-05
6.91224e-07
1.83736e-05
9.79386e-05
6.88557e-07
1.86885e-05
9.68807e-05
7.06277e-07
1.98965e-05
9.56751e-05
6.0786e-07
2.11796e-05
9.4402e-05
3.81701e-07
2.2397e-05
8.44236e-05
7.08268e-05
3.3726e-06
0.00220363
5.04694e-05
1.08022e-05
0.0019607
2.82011e-05
1.68765e-05
0.00190195
5.56447e-05
2.10757e-05
0.00170961
2.0348e-05
1.49978e-05
0.00164714
4.1466e-05
1.4306e-05
0.00163931
5.67918e-05
1.89652e-05
0.00147042
2.52841e-05
1.94088e-06
0.0014033
3.23929e-05
1.14436e-05
0.00139614
4.14527e-05
1.78066e-05
0.00138812
5.00952e-05
2.01817e-05
0.00124668
2.04615e-05
1.41567e-05
0.00116734
2.19638e-05
2.26578e-05
0.00116776
2.83199e-05
2.29183e-05
0.00116307
3.95703e-05
1.96939e-05
0.0011538
3.99893e-05
1.96963e-05
0.00103329
9.31562e-06
2.24029e-05
0.000943305
1.47349e-05
1.99711e-05
0.000941285
1.99789e-05
2.29448e-05
0.000936796
2.48029e-05
2.17354e-05
0.000929817
2.81353e-05
2.09443e-05
0.000921583
2.73299e-05
2.2049e-05
0.000826001
3.13493e-06
3.0959e-05
0.000723953
8.18924e-06
2.55147e-05
0.000722784
1.19817e-05
2.43588e-05
0.000719386
1.48118e-05
2.21026e-05
0.000714613
1.66136e-05
2.22859e-05
0.000708908
1.80981e-05
2.35254e-05
0.000702005
1.74115e-05
2.38847e-05
0.000628921
2.40544e-06
2.27102e-05
0.000510488
4.54761e-06
2.20714e-05
0.000509656
6.31893e-06
2.4075e-05
0.000507567
7.4417e-06
2.49748e-05
0.000504759
8.8498e-06
2.38967e-05
0.000501094
9.99908e-06
2.34866e-05
0.00049646
1.05454e-05
2.43424e-05
0.000490866
9.60189e-06
2.50372e-05
0.000439203
1.13902e-06
2.25016e-05
0.000302039
1.79722e-06
2.60663e-05
0.000301753
2.77523e-06
2.68777e-05
0.000300785
3.35672e-06
2.64623e-05
0.000299085
3.86736e-06
2.44753e-05
0.000296639
4.14915e-06
2.45737e-05
0.000293902
4.34872e-06
2.58023e-05
0.000290931
4.16809e-06
2.68499e-05
0.000287569
3.47152e-06
2.79233e-05
0.000257125
2.72739e-07
1.61931e-05
9.87267e-05
3.76335e-07
1.51292e-05
9.88446e-05
6.59787e-07
1.6289e-05
9.86221e-05
7.45828e-07
1.8583e-05
9.82121e-05
7.71779e-07
1.8661e-05
9.75718e-05
7.71539e-07
1.92581e-05
9.65974e-05
7.90241e-07
2.06234e-05
9.53636e-05
6.99804e-07
2.2038e-05
9.41168e-05
5.08455e-07
2.34278e-05
9.28628e-05
2.57309e-07
2.47091e-05
8.3071e-05
0.000112764
1.18474e-05
0.0024448
6.68762e-05
6.11418e-06
0.00219603
0.000111441
1.73687e-05
0.00217075
5.88975e-05
4.62929e-06
0.0021564
8.00711e-05
1.08778e-05
0.00193402
2.86118e-05
2.22431e-05
0.00189317
5.99336e-05
2.38096e-05
0.00188075
7.6673e-05
2.24642e-05
0.00168861
3.12443e-05
1.53123e-05
0.00164014
4.24464e-05
1.87437e-05
0.00163265
6.08515e-05
2.13044e-05
0.00161757
6.95963e-05
1.94315e-05
0.00145041
2.28724e-05
6.87569e-06
0.00139748
3.43637e-05
1.17489e-05
0.00139059
4.15823e-05
1.82154e-05
0.00138247
5.56074e-05
2.08292e-05
0.00137143
5.70354e-05
2.14292e-05
0.00122849
1.76229e-05
1.34291e-05
0.00116193
2.33055e-05
2.25074e-05
0.00115892
2.91513e-05
2.39795e-05
0.00115753
3.80364e-05
2.12448e-05
0.00114828
4.46957e-05
2.03323e-05
0.00113661
4.26007e-05
2.19863e-05
0.00101722
7.92066e-06
2.0753e-05
0.0009397
1.5313e-05
1.84128e-05
0.00093774
2.00339e-05
2.2924e-05
0.000933253
2.49981e-05
2.21471e-05
0.000926198
2.78405e-05
2.16014e-05
0.000917933
3.05795e-05
2.2569e-05
0.000908582
2.8741e-05
2.30813e-05
0.000813789
3.33707e-06
3.17323e-05
0.000721115
8.36483e-06
2.57524e-05
0.000719898
1.25181e-05
2.44072e-05
0.000716536
1.51053e-05
2.20375e-05
0.000711788
1.69447e-05
2.25789e-05
0.000706225
1.8584e-05
2.44225e-05
0.000699426
1.95372e-05
2.50781e-05
0.00069182
1.81679e-05
2.53902e-05
0.000619109
2.66147e-06
2.2413e-05
0.000508384
4.78469e-06
2.19132e-05
0.000507659
6.76771e-06
2.41146e-05
0.000505623
7.95191e-06
2.51979e-05
0.000502749
9.11845e-06
2.42418e-05
0.000499163
1.01789e-05
2.40877e-05
0.000494463
1.09046e-05
2.507e-05
0.000489176
1.08473e-05
2.60877e-05
0.000483136
9.56691e-06
2.69816e-05
0.000431941
1.30817e-06
2.19944e-05
0.00030086
1.97743e-06
2.59523e-05
0.000300552
3.01069e-06
2.68071e-05
0.000299473
3.57664e-06
2.64666e-05
0.000297949
4.01809e-06
2.46173e-05
0.000295697
4.38112e-06
2.48589e-05
0.000292745
4.48409e-06
2.63833e-05
0.000289627
4.36519e-06
2.76063e-05
0.00028651
4.03774e-06
2.89681e-05
0.000282995
3.16611e-06
3.03303e-05
0.000252971
3.3201e-07
1.59504e-05
9.8328e-05
4.19125e-07
1.49747e-05
9.84621e-05
7.21627e-07
1.61875e-05
9.82245e-05
8.19104e-07
1.85664e-05
9.78196e-05
8.49426e-07
1.88653e-05
9.71584e-05
8.60255e-07
1.97323e-05
9.62373e-05
8.79767e-07
2.12572e-05
9.50838e-05
7.92463e-07
2.27945e-05
9.38146e-05
6.09906e-07
2.43539e-05
9.25808e-05
3.79552e-07
2.58207e-05
9.13717e-05
1.49437e-07
2.72075e-05
8.17221e-05
0.000164784
-1.55561e-05
0.00271264
0.000106931
1.01178e-05
0.00243962
0.000149831
2.092e-05
0.00240515
7.27043e-05
1.47346e-05
0.00241336
0.000109047
2.12183e-05
0.00216321
0.000137545
2.53338e-05
0.00213441
5.04611e-05
6.74796e-06
0.00215004
8.95454e-05
1.13001e-05
0.00212637
0.000104363
1.68413e-05
0.00190533
3.73951e-05
3.00571e-05
0.00188499
5.8995e-05
2.76028e-05
0.00187283
8.48402e-05
2.41386e-05
0.00185509
9.3323e-05
1.99091e-05
0.00166376
3.2424e-05
1.25589e-05
0.00163328
4.84422e-05
1.88067e-05
0.001626
6.06105e-05
2.34843e-05
0.00161145
7.58037e-05
2.12338e-05
0.00159557
7.8403e-05
1.89639e-05
0.00142867
2.13748e-05
9.37229e-06
0.00139142
3.12088e-05
1.62053e-05
0.00138512
4.24587e-05
1.86259e-05
0.00137687
5.45957e-05
2.1111e-05
0.00136563
6.33248e-05
2.28359e-05
0.0013514
6.00866e-05
2.27007e-05
0.00120955
9.81841e-06
1.95372e-05
0.00115634
2.14314e-05
2.43311e-05
0.00115399
2.86386e-05
2.49434e-05
0.00114935
3.81266e-05
2.28116e-05
0.00114283
4.32365e-05
2.18164e-05
0.0011314
4.75258e-05
2.27429e-05
0.0011189
4.4027e-05
2.33025e-05
0.00100101
7.205e-06
1.92832e-05
0.000936201
1.48423e-05
1.76459e-05
0.00093399
2.03535e-05
2.31224e-05
0.000929706
2.49734e-05
2.28356e-05
0.000922697
2.80238e-05
2.23615e-05
0.000914359
3.06217e-05
2.33932e-05
0.000905071
3.2191e-05
2.38292e-05
0.00089518
2.99647e-05
2.47224e-05
0.000801009
4.70361e-06
3.09431e-05
0.000718352
9.08385e-06
2.55465e-05
0.000717022
1.30638e-05
2.42677e-05
0.000713742
1.55215e-05
2.20342e-05
0.00070897
1.72011e-05
2.27947e-05
0.000703489
1.89945e-05
2.50532e-05
0.000696779
1.99594e-05
2.6133e-05
0.000689317
2.04725e-05
2.65412e-05
0.000681044
1.85343e-05
2.7317e-05
0.00060889
2.78154e-06
2.21166e-05
0.000506352
4.98447e-06
2.17272e-05
0.000505563
7.10852e-06
2.40094e-05
0.000503666
8.3661e-06
2.52684e-05
0.000500763
9.31316e-06
2.45307e-05
0.000497165
1.05763e-05
2.44517e-05
0.000492603
1.10964e-05
2.56784e-05
0.000487242
1.11804e-05
2.69296e-05
0.000481519
1.08503e-05
2.81459e-05
0.000475159
8.99204e-06
2.91423e-05
0.000424797
1.45161e-06
2.13878e-05
0.000299679
2.11548e-06
2.56651e-05
0.000299451
3.23344e-06
2.65787e-05
0.000298268
3.77573e-06
2.6377e-05
0.000296606
4.17549e-06
2.467e-05
0.000294571
4.47774e-06
2.51347e-05
0.000291804
4.72554e-06
2.67909e-05
0.000288491
4.53166e-06
2.82836e-05
0.000285211
4.25892e-06
2.98755e-05
0.000281953
3.71294e-06
3.15589e-05
0.000278433
2.91886e-06
3.30242e-05
0.000248782
3.84967e-07
1.56509e-05
9.79251e-05
4.6176e-07
1.47511e-05
9.80898e-05
7.74908e-07
1.60426e-05
9.78322e-05
8.89922e-07
1.84859e-05
9.7415e-05
9.25337e-07
1.89885e-05
9.6771e-05
9.43244e-07
2.01186e-05
9.58289e-05
9.74709e-07
2.17925e-05
9.47274e-05
8.8909e-07
2.34449e-05
9.35444e-05
7.13979e-07
2.51556e-05
9.2299e-05
4.88057e-07
2.68179e-05
9.10955e-05
2.69541e-07
2.84263e-05
8.98833e-05
7.32268e-08
3.00829e-05
8.03298e-05
0.00033797
-7.01018e-05
0.00327925
0.000225433
-1.61804e-05
0.00297637
0.000131732
6.84666e-06
0.00269964
0.000198612
-4.47914e-06
0.00265792
0.000110274
1.35562e-05
0.00268941
0.000149336
2.08467e-05
0.00239941
0.000171582
3.05625e-05
0.00236662
6.83364e-05
2.0351e-05
0.00240338
0.000122422
2.43682e-05
0.00237733
0.000136946
2.94351e-05
0.00212652
0.000162894
2.25944e-05
0.00209536
5.01055e-05
1.63333e-05
0.00214116
8.64881e-05
1.43816e-05
0.00211947
0.000114296
1.90304e-05
0.00209472
0.000127715
1.7904e-05
0.00187143
4.97973e-05
2.60996e-05
0.00187781
6.32099e-05
3.28124e-05
0.00186501
8.4846e-05
2.49962e-05
0.00184774
0.000102421
2.07458e-05
0.00182763
0.000106323
1.98028e-05
0.00163448
3.15646e-05
9.59398e-06
0.00162813
4.25987e-05
2.16676e-05
0.00161903
6.26759e-05
2.39997e-05
0.00160527
7.53934e-05
2.21339e-05
0.00158975
8.55243e-05
2.06199e-05
0.00157172
8.21812e-05
2.18546e-05
0.00140614
8.53449e-06
1.59186e-05
0.00138651
2.91446e-05
2.00605e-05
0.00137985
4.06192e-05
2.0349e-05
0.00137142
5.4843e-05
2.11632e-05
0.0013601
6.20934e-05
2.39352e-05
0.00134567
6.66929e-05
2.4374e-05
0.00133056
6.16453e-05
2.31641e-05
0.00119065
1.53458e-05
1.87926e-05
0.0011518
2.08915e-05
2.52379e-05
0.00114938
2.86424e-05
2.61343e-05
0.00114451
3.7276e-05
2.37204e-05
0.00113613
4.32488e-05
2.30662e-05
0.00112636
4.67668e-05
2.38218e-05
0.00111418
4.90073e-05
2.43238e-05
0.00110107
4.50563e-05
2.51406e-05
0.000984641
8.03881e-06
1.93292e-05
0.000933277
1.53279e-05
1.72143e-05
0.000930388
2.05638e-05
2.34009e-05
0.000926211
2.51454e-05
2.37414e-05
0.000919176
2.81528e-05
2.32774e-05
0.000910829
3.1006e-05
2.41887e-05
0.000901552
3.23102e-05
2.48092e-05
0.00089174
3.36957e-05
2.55619e-05
0.000881117
3.04766e-05
2.67829e-05
0.000787949
5.40744e-06
2.91906e-05
0.00071558
9.68712e-06
2.50446e-05
0.000714151
1.34875e-05
2.39355e-05
0.000710975
1.59209e-05
2.19988e-05
0.000706222
1.75596e-05
2.28308e-05
0.000700687
1.93042e-05
2.57428e-05
0.000694072
2.03071e-05
2.69846e-05
0.000686716
2.07782e-05
2.76964e-05
0.000678564
2.0901e-05
2.8459e-05
0.000669851
1.76155e-05
2.91747e-05
0.000598826
2.89941e-06
2.17777e-05
0.000504323
5.11266e-06
2.15047e-05
0.000503577
7.44284e-06
2.37654e-05
0.000501597
8.63905e-06
2.52566e-05
0.000498815
9.58466e-06
2.46988e-05
0.000495186
1.06296e-05
2.48409e-05
0.000490624
1.14941e-05
2.61509e-05
0.000485362
1.14197e-05
2.76441e-05
0.00047964
1.11973e-05
2.91635e-05
0.000473563
1.02253e-05
3.04717e-05
0.000467317
8.53587e-06
3.16254e-05
0.000417698
1.59106e-06
2.07357e-05
0.000298441
2.23692e-06
2.52731e-05
0.000298296
3.39127e-06
2.62215e-05
0.000297191
3.97917e-06
2.61385e-05
0.000295418
4.32487e-06
2.46487e-05
0.000293228
4.60615e-06
2.53553e-05
0.000290687
4.8432e-06
2.7184e-05
0.000287542
4.76812e-06
2.88043e-05
0.000284091
4.46239e-06
3.06677e-05
0.00028067
3.94858e-06
3.26424e-05
0.000277409
3.45377e-06
3.44445e-05
0.000273829
2.79651e-06
3.61315e-05
0.000244461
4.38954e-07
1.52965e-05
9.75194e-05
5.21184e-07
1.44571e-05
9.76979e-05
8.24475e-07
1.5825e-05
9.7483e-05
9.58647e-07
1.8339e-05
9.70204e-05
9.9993e-07
1.90417e-05
9.63619e-05
1.02621e-06
2.04188e-05
9.54446e-05
1.06482e-06
2.22337e-05
9.43229e-05
9.87575e-07
2.39925e-05
9.31922e-05
8.19603e-07
2.58616e-05
9.20188e-05
6.03886e-07
2.76839e-05
9.0829e-05
3.86183e-07
2.95147e-05
8.96208e-05
1.909e-07
3.14251e-05
8.83502e-05
-1.40482e-08
3.31467e-05
7.89054e-05
0.000427731
-0.000205217
0.0035703
0.000281998
-6.44131e-05
0.00327518
0.000371657
-2.27479e-05
0.00319606
0.000177558
2.25168e-07
0.00295205
0.000265357
1.51545e-05
0.00291018
0.000136345
2.63096e-05
0.00296912
0.000181858
1.85535e-05
0.00264409
0.000222022
1.42933e-05
0.00260093
9.80833e-05
2.16315e-05
0.00268056
0.000171137
1.86951e-05
0.00264285
0.000178308
2.92877e-05
0.00235932
0.000204288
2.64834e-05
0.00232359
6.55018e-05
2.80072e-05
0.00239525
0.000125299
2.19078e-05
0.00236703
0.000156152
2.76695e-05
0.00233724
0.000163571
2.60256e-05
0.00208723
0.000178813
1.81185e-05
0.00205502
6.08314e-05
2.60887e-05
0.00213111
8.52149e-05
2.27945e-05
0.00211074
0.000114819
2.16812e-05
0.00208684
0.000138313
1.8687e-05
0.00205805
0.000141241
2.10392e-05
0.00183587
5.46266e-05
1.852e-05
0.00186939
6.57508e-05
2.93222e-05
0.00185814
8.58405e-05
2.64197e-05
0.00184043
0.000103044
2.02355e-05
0.0018206
0.000116225
2.03031e-05
0.00179643
0.000111249
2.11022e-05
0.00160469
9.85306e-06
1.05622e-05
0.00162159
4.51485e-05
2.13841e-05
0.00161241
5.684e-05
2.77107e-05
0.0015991
7.57574e-05
2.26948e-05
0.00158379
8.61053e-05
2.02879e-05
0.00156607
9.05725e-05
2.2721e-05
0.00154697
8.39197e-05
2.28991e-05
0.00138324
1.64904e-05
1.95624e-05
0.00138043
2.81832e-05
2.295e-05
0.00137633
4.03362e-05
2.19995e-05
0.0013665
5.44614e-05
2.07627e-05
0.00135464
6.27556e-05
2.41854e-05
0.00134035
6.63647e-05
2.53453e-05
0.00132511
6.8453e-05
2.45993e-05
0.00130968
6.33515e-05
2.44599e-05
0.00117112
1.48909e-05
1.91764e-05
0.00114703
2.25366e-05
2.50572e-05
0.00114477
3.25247e-05
2.37383e-05
0.00113982
3.85709e-05
2.34129e-05
0.00113139
4.26773e-05
2.37197e-05
0.00112096
4.71043e-05
2.45201e-05
0.00110956
4.8918e-05
2.52301e-05
0.00109666
5.02056e-05
2.66368e-05
0.00108306
4.52321e-05
2.72927e-05
0.000968497
8.06301e-06
2.01041e-05
0.000929869
1.54736e-05
1.78077e-05
0.000926897
2.12217e-05
2.32869e-05
0.000922768
2.54538e-05
2.46832e-05
0.000915736
2.84901e-05
2.4186e-05
0.000907337
3.12205e-05
2.50487e-05
0.000898053
3.26626e-05
2.57513e-05
0.000888254
3.37837e-05
2.65726e-05
0.000877724
3.42153e-05
2.78751e-05
0.000866711
2.9155e-05
2.89948e-05
0.00077512
5.26043e-06
2.74708e-05
0.000712793
1.01104e-05
2.43307e-05
0.000711296
1.37846e-05
2.35386e-05
0.000708206
1.60301e-05
2.20559e-05
0.000703527
1.78292e-05
2.28779e-05
0.000697931
1.9655e-05
2.60525e-05
0.000691352
2.06726e-05
2.78548e-05
0.000684023
2.11045e-05
2.87602e-05
0.000675968
2.12199e-05
2.96586e-05
0.000667342
1.98507e-05
3.06057e-05
0.000658795
1.6979e-05
3.15267e-05
0.000588793
3.09497e-06
2.13322e-05
0.000502312
5.2803e-06
2.11394e-05
0.000501645
7.69151e-06
2.34058e-05
0.000499637
8.9447e-06
2.50832e-05
0.000496805
9.86042e-06
2.47736e-05
0.000493204
1.07564e-05
2.52073e-05
0.000488669
1.15902e-05
2.65977e-05
0.00048343
1.17839e-05
2.82995e-05
0.000477691
1.14918e-05
3.00532e-05
0.000471721
1.0629e-05
3.16248e-05
0.00046573
9.74751e-06
3.31177e-05
0.000459531
8.35066e-06
3.4393e-05
0.000410498
1.71837e-06
2.00113e-05
0.000297235
2.41569e-06
2.4794e-05
0.000297025
3.54379e-06
2.57608e-05
0.000296038
4.14029e-06
2.57671e-05
0.000294381
4.48515e-06
2.45205e-05
0.00029206
4.75075e-06
2.54563e-05
0.000289402
4.98747e-06
2.75125e-05
0.000286436
4.92798e-06
2.92893e-05
0.000283117
4.70291e-06
3.1311e-05
0.000279565
4.18752e-06
3.35874e-05
0.000276141
3.70479e-06
3.57087e-05
0.000272826
3.34493e-06
3.77095e-05
0.000269097
2.65785e-06
3.93629e-05
0.00024002
4.94071e-07
1.48857e-05
9.71272e-05
5.79096e-07
1.41077e-05
9.72897e-05
8.86322e-07
1.55358e-05
9.71008e-05
1.02301e-06
1.81216e-05
9.66775e-05
1.08052e-06
1.90046e-05
9.59771e-05
1.10862e-06
2.06358e-05
9.50362e-05
1.15463e-06
2.25797e-05
9.39439e-05
1.08636e-06
2.44311e-05
9.27979e-05
9.22799e-07
2.64724e-05
9.16586e-05
7.17602e-07
2.84704e-05
9.05147e-05
5.10418e-07
3.04906e-05
8.93428e-05
3.21454e-07
3.26135e-05
8.8111e-05
9.84934e-08
3.46018e-05
8.67966e-05
-1.4039e-07
3.64664e-05
7.74376e-05
0.00046836
-0.000740333
0.00379125
0.000375277
-0.000240501
0.00355097
0.000462271
-0.000135445
0.00345305
0.000238101
-6.91484e-05
0.00326108
0.000358197
-2.83288e-05
0.00318792
0.000408413
-1.48864e-05
0.00310399
0.000182376
6.63273e-06
0.00326629
0.000221939
3.59062e-05
0.00289122
0.000278627
2.43968e-05
0.00283874
0.000163825
2.33059e-06
0.00295485
0.000214089
3.27189e-05
0.002912
0.000214575
3.40018e-05
0.00258811
0.000259964
1.53084e-05
0.00253757
0.000103135
2.46347e-05
0.00266852
0.000170309
1.97293e-05
0.00263452
0.000205376
2.52277e-05
0.00259769
0.00021136
2.23956e-05
0.00231562
0.000224284
2.36816e-05
0.00227714
7.9129e-05
3.43033e-05
0.00238707
0.000119475
2.41393e-05
0.00235876
0.000162467
2.01602e-05
0.00232689
0.000183723
2.35251e-05
0.00229433
0.000179943
1.97191e-05
0.00204693
0.000180177
1.6106e-05
0.00201769
6.67282e-05
3.56789e-05
0.0021244
9.17226e-05
2.43123e-05
0.00210362
0.000114374
2.60689e-05
0.00207782
0.000138304
2.11178e-05
0.00204915
0.000155143
2.08809e-05
0.00201929
0.000144111
2.31739e-05
0.00180175
2.39373e-05
1.59191e-05
0.00186004
6.96251e-05
2.3998e-05
0.00185024
8.42109e-05
2.39897e-05
0.0018332
0.000102962
1.98859e-05
0.00181357
0.000117304
2.00866e-05
0.00178962
0.000122076
2.15139e-05
0.00176452
0.000111235
2.11422e-05
0.00157615
2.0816e-05
1.13897e-05
0.00161835
4.30528e-05
2.23102e-05
0.00160579
5.86367e-05
2.89692e-05
0.00159285
7.56063e-05
2.21954e-05
0.00157845
8.641e-05
2.04003e-05
0.00156003
9.14447e-05
2.22448e-05
0.00154146
9.27773e-05
2.37897e-05
0.00152176
8.59254e-05
2.54824e-05
0.00135962
1.65181e-05
2.25974e-05
0.00137485
3.04112e-05
2.55325e-05
0.00136997
4.5487e-05
2.16416e-05
0.00136373
5.59689e-05
2.01046e-05
0.00134976
6.3116e-05
2.33694e-05
0.00133501
6.69158e-05
2.58398e-05
0.00132004
6.87144e-05
2.55017e-05
0.00130441
7.03623e-05
2.57307e-05
0.00128825
6.34669e-05
2.65186e-05
0.00115158
1.36064e-05
1.91624e-05
0.00114168
2.21016e-05
2.50406e-05
0.00114042
3.07801e-05
2.34007e-05
0.00113555
4.22525e-05
1.99173e-05
0.00112651
4.43953e-05
2.28726e-05
0.00111633
4.69486e-05
2.48491e-05
0.0011049
4.92336e-05
2.59316e-05
0.00109229
5.05195e-05
2.774e-05
0.00107882
5.04139e-05
2.8845e-05
0.00106531
4.35606e-05
2.89403e-05
0.000952719
7.93717e-06
2.06702e-05
0.00092617
1.57014e-05
1.86735e-05
0.000923412
2.15382e-05
2.30998e-05
0.000919331
2.60366e-05
2.515e-05
0.000912295
2.87111e-05
2.51262e-05
0.000903914
3.17055e-05
2.57445e-05
0.000894591
3.30191e-05
2.66419e-05
0.000884816
3.40315e-05
2.75697e-05
0.00087433
3.4426e-05
2.89672e-05
0.000863426
3.26902e-05
3.03141e-05
0.000852552
2.82574e-05
3.1466e-05
0.000762313
5.47965e-06
2.55723e-05
0.000709993
1.03757e-05
2.35641e-05
0.000708464
1.42641e-05
2.28987e-05
0.000705364
1.61838e-05
2.22048e-05
0.000700818
1.79476e-05
2.30499e-05
0.000695268
1.99103e-05
2.61901e-05
0.000688639
2.09701e-05
2.8455e-05
0.000681372
2.16177e-05
2.96355e-05
0.000673314
2.15748e-05
3.07969e-05
0.000664746
2.0331e-05
3.20112e-05
0.000656234
1.90817e-05
3.3252e-05
0.000647735
1.6761e-05
3.43948e-05
0.00057871
3.27527e-06
2.08071e-05
0.000500286
5.48384e-06
2.07185e-05
0.000499665
7.96508e-06
2.29248e-05
0.000497705
9.19184e-06
2.48234e-05
0.000494845
1.01066e-05
2.47332e-05
0.000491224
1.10229e-05
2.54534e-05
0.000486686
1.17054e-05
2.70427e-05
0.000481507
1.19792e-05
2.88685e-05
0.00047581
1.18529e-05
3.08519e-05
0.000469743
1.09643e-05
3.26558e-05
0.000463913
1.01873e-05
3.44319e-05
0.000457933
9.59109e-06
3.60459e-05
0.000451632
8.23707e-06
3.73789e-05
0.000403096
1.84633e-06
1.91649e-05
0.00029609
2.57797e-06
2.41794e-05
0.000295851
3.73297e-06
2.51693e-05
0.00029477
4.29677e-06
2.52938e-05
0.000293237
4.65423e-06
2.42802e-05
0.000291048
4.90334e-06
2.54633e-05
0.000288259
5.15133e-06
2.76855e-05
0.000285233
5.11587e-06
2.9674e-05
0.000282022
4.91008e-06
3.1908e-05
0.000278533
4.44929e-06
3.43682e-05
0.000275052
3.97682e-06
3.68113e-05
0.000271572
3.62316e-06
3.91208e-05
0.000268113
3.22246e-06
4.11094e-05
0.000264226
2.53505e-06
4.28444e-05
0.000235439
5.49461e-07
1.44266e-05
9.67259e-05
6.32114e-07
1.37016e-05
9.69012e-05
9.47121e-07
1.51811e-05
9.66973e-05
1.08615e-06
1.78356e-05
9.63006e-05
1.15539e-06
1.89309e-05
9.55957e-05
1.1963e-06
2.07701e-05
9.46465e-05
1.24411e-06
2.28254e-05
9.35464e-05
1.18302e-06
2.47649e-05
9.24272e-05
1.03056e-06
2.69537e-05
9.12861e-05
8.35476e-07
2.91486e-05
9.01449e-05
6.36073e-07
3.13897e-05
8.89796e-05
4.54558e-07
3.36778e-05
8.78239e-05
2.40144e-07
3.59004e-05
8.65722e-05
1.0138e-08
3.80529e-05
8.52e-05
-2.40183e-07
4.02291e-05
7.58738e-05
0.00044727
-0.00194832
0.00394369
0.000446713
-0.000759696
0.00377245
0.000552726
-0.000452255
0.00371012
0.000317401
-0.000271964
0.00353688
0.000468507
-0.000141806
0.00344702
0.000537528
-2.25252e-05
0.00335194
0.000279481
-9.38052e-05
0.00358682
0.000318386
-4.82475e-05
0.00318455
0.000372939
-1.77636e-05
0.00309648
0.000425662
4.75918e-06
0.00301095
0.000223168
2.89133e-06
0.00324722
0.000292645
2.98502e-05
0.00319379
0.000253856
4.95556e-05
0.00282678
0.000330865
2.74038e-05
0.00276258
0.000135087
1.14674e-05
0.00294834
0.000248114
1.00815e-05
0.00289968
0.000260728
4.07072e-05
0.00284995
0.000258949
3.01081e-05
0.00252573
0.000281596
1.48294e-05
0.00247631
0.000133695
1.95422e-05
0.00265433
0.000163198
2.18517e-05
0.00262268
0.000209127
2.41357e-05
0.00258895
0.000238129
1.96645e-05
0.00254601
0.000229387
2.27083e-05
0.00226715
0.00022969
2.06563e-05
0.00222708
7.96779e-05
4.30945e-05
0.00237641
0.000130185
2.33761e-05
0.00234937
0.000158149
1.66709e-05
0.00231847
0.000186088
1.8165e-05
0.00228447
0.000198217
1.99169e-05
0.00225106
0.000179598
1.73794e-05
0.00201017
0.00017761
1.63103e-05
0.00197914
6.20364e-05
2.06036e-05
0.00210952
8.84366e-05
3.53697e-05
0.00209454
0.000117324
2.53983e-05
0.00207118
0.000137182
2.42278e-05
0.00204049
0.000154132
2.28776e-05
0.00201033
0.000158662
2.37667e-05
0.00198211
0.000141851
2.22039e-05
0.00177013
2.67425e-05
2.27918e-05
0.00186223
6.0253e-05
2.42511e-05
0.00184259
8.68329e-05
1.9698e-05
0.00182634
0.000103369
1.86774e-05
0.00180665
0.000116866
2.05092e-05
0.00178269
0.000122238
2.25525e-05
0.00175778
0.000122486
2.23685e-05
0.00173358
0.000112677
2.35607e-05
0.00154793
2.42985e-05
5.97335e-06
0.00161236
4.73881e-05
2.31635e-05
0.00160052
6.40272e-05
3.02368e-05
0.00158599
7.66733e-05
2.16879e-05
0.00157265
8.99644e-05
1.67497e-05
0.00155525
9.17561e-05
2.19185e-05
0.00153551
9.34613e-05
2.43125e-05
0.00151619
9.51153e-05
2.67604e-05
0.00149572
8.54882e-05
2.77059e-05
0.00133608
1.85973e-05
2.32006e-05
0.00136953
3.15439e-05
2.60998e-05
0.00136484
4.3145e-05
2.17138e-05
0.00135753
6.00357e-05
1.89369e-05
0.00134711
6.52766e-05
2.20805e-05
0.00133017
6.73701e-05
2.5551e-05
0.00131488
6.90834e-05
2.62157e-05
0.00129948
7.09063e-05
2.66148e-05
0.00128314
7.05438e-05
2.77963e-05
0.00126684
6.13052e-05
2.88328e-05
0.00113226
1.29771e-05
1.98978e-05
0.00113731
2.26464e-05
2.36778e-05
0.00113609
3.02991e-05
2.34894e-05
0.00113157
3.9678e-05
1.94603e-05
0.00112237
4.58251e-05
2.07595e-05
0.00111151
4.82e-05
2.42673e-05
0.00110042
4.93082e-05
2.65765e-05
0.00108797
5.0943e-05
2.85372e-05
0.00107458
5.07245e-05
3.01643e-05
0.00106121
4.85247e-05
3.04588e-05
0.00104796
4.226e-05
3.18141e-05
0.000937066
7.78798e-06
2.14593e-05
0.000922472
1.57535e-05
1.9639e-05
0.000919827
2.19157e-05
2.30093e-05
0.000915851
2.65549e-05
2.52517e-05
0.000908858
2.91139e-05
2.57748e-05
0.00090048
3.20281e-05
2.63374e-05
0.000891204
3.33728e-05
2.74131e-05
0.000881417
3.46022e-05
2.8457e-05
0.000870944
3.47467e-05
2.99643e-05
0.000860161
3.3141e-05
3.15669e-05
0.000849363
3.16359e-05
3.29746e-05
0.000838489
2.79751e-05
3.40958e-05
0.00074933
5.42694e-06
2.38059e-05
0.000707217
1.05963e-05
2.27819e-05
0.000705663
1.46342e-05
2.21216e-05
0.000702572
1.69043e-05
2.17852e-05
0.000698071
1.81782e-05
2.32165e-05
0.00069258
2.02528e-05
2.62839e-05
0.000685944
2.11841e-05
2.89126e-05
0.000678703
2.18389e-05
3.04335e-05
0.000670714
2.21209e-05
3.166e-05
0.000662183
2.08224e-05
3.32017e-05
0.000653698
1.97152e-05
3.4821e-05
0.000645137
1.8867e-05
3.62125e-05
0.000636641
1.67627e-05
3.73293e-05
0.000568352
3.48343e-06
2.01674e-05
0.000498286
5.66822e-06
2.02679e-05
0.000497646
8.22049e-06
2.23572e-05
0.000495745
9.44208e-06
2.45068e-05
0.000492876
1.03541e-05
2.46078e-05
0.000489271
1.12773e-05
2.55842e-05
0.000484719
1.19493e-05
2.737e-05
0.000479561
1.21782e-05
2.93617e-05
0.000473951
1.213e-05
3.15262e-05
0.000467915
1.13558e-05
3.3523e-05
0.000461969
1.057e-05
3.55957e-05
0.000456156
1.00411e-05
3.75397e-05
0.000450021
9.5281e-06
3.91966e-05
0.000443509
8.20711e-06
4.07294e-05
0.0003954
1.96458e-06
1.82431e-05
0.000294919
2.72185e-06
2.34111e-05
0.000294769
3.90874e-06
2.44647e-05
0.000293594
4.44019e-06
2.47105e-05
0.000291999
4.81525e-06
2.39425e-05
0.000289915
5.08118e-06
2.54299e-05