/*--------------------------------*- C++ -*----------------------------------*\
  =========                 |
  \\      /  F ield         | OpenFOAM: The Open Source CFD Toolbox
   \\    /   O peration     | Website:  https://openfoam.org
    \\  /    A nd           | Version:  7
     \\/     M anipulation  |
\*---------------------------------------------------------------------------*/
FoamFile
{
    version     2.0;
    format      ascii;
    class       volVectorField;
    location    "0.5";
    object      U_0;
}
// * * * * * * * * * * * * * * * * * * * * * * * * * * * * * * * * * * * * * //

dimensions      [0 1 -1 0 0 0 0];

internalField   nonuniform List<vector> 
18780
(
(-0.00788781 0.00263808 2.13101)
(-0.0110522 0.00117487 2.155)
(-0.00795503 0.00249556 2.1316)
(-0.00720794 0.00111541 2.12379)
(-0.0112369 -0.000840896 2.16571)
(-0.0113069 0.00116707 2.15527)
(-0.0114367 -0.000631713 2.14636)
(-0.00794098 0.00233385 2.13318)
(-0.00735289 0.000981413 2.12437)
(-0.00759733 -0.000876539 2.11587)
(-0.0109043 -0.00520832 2.17332)
(-0.0114699 -0.000407782 2.16537)
(-0.00978649 -0.00526421 2.15546)
(-0.0113273 0.00143274 2.15598)
(-0.0119788 -0.000549635 2.14679)
(-0.0116797 -0.00413639 2.13509)
(-0.00814408 0.00185374 2.13531)
(-0.00745707 0.000933838 2.12585)
(-0.00785948 -0.000797316 2.11633)
(-0.00844148 -0.000811139 2.10126)
(-0.0117489 -0.00268493 2.17873)
(-0.0118733 -0.0046177 2.1732)
(-0.0104988 -0.0115893 2.16458)
(-0.0119567 -0.000161757 2.16635)
(-0.0104448 -0.0049973 2.15525)
(-0.0102877 -0.00853031 2.14173)
(-0.0115668 0.00170301 2.15572)
(-0.0123349 -0.000187349 2.1475)
(-0.0124376 -0.00412038 2.13572)
(-0.0117987 -0.00688928 2.11741)
(-0.00820853 0.00187028 2.13629)
(-0.00763217 0.000760695 2.12684)
(-0.00810883 -0.000677602 2.11812)
(-0.00874628 -0.000620358 2.10155)
(-0.0080151 -0.000711656 2.07932)
(-0.0117595 -0.0099308 2.18833)
(-0.0142123 -0.00268648 2.18007)
(-0.0101552 -0.0129676 2.17461)
(-0.0131066 -0.00513725 2.17288)
(-0.0115041 -0.0111857 2.16442)
(-0.0104613 -0.0170882 2.14877)
(-0.0117628 -4.3127e-05 2.16651)
(-0.0113346 -0.00481314 2.15646)
(-0.0111664 -0.00833671 2.14178)
(-0.0108921 -0.0127468 2.12342)
(-0.0116297 0.00190565 2.15592)
(-0.0128216 0.000124607 2.14677)
(-0.013105 -0.0038383 2.13643)
(-0.0126163 -0.00688711 2.11822)
(-0.0111662 -0.00878365 2.09366)
(-0.0080254 0.00256524 2.13622)
(-0.00771436 0.0008753 2.12723)
(-0.00839579 -0.000663641 2.11926)
(-0.00906344 -0.000405083 2.10366)
(-0.00838846 -0.000580377 2.07951)
(-0.00803883 -0.00102391 2.05308)
(-0.00363308 -0.0107667 2.20071)
(-0.0130199 -0.00793612 2.18815)
(-0.0113987 -0.0155477 2.1855)
(-0.014516 1.56948e-05 2.17572)
(-0.0121282 -0.013177 2.17516)
(-0.00980932 -0.0244399 2.1574)
(-0.014264 -0.00529126 2.17266)
(-0.0128796 -0.011277 2.16429)
(-0.0119071 -0.0170965 2.1488)
(-0.00979034 -0.0224806 2.12834)
(-0.0122753 -0.000132168 2.16602)
(-0.011762 -0.00533326 2.15669)
(-0.0122705 -0.00808507 2.14368)
(-0.0119077 -0.0125723 2.12358)
(-0.0104388 -0.0170966 2.10027)
(-0.011751 0.00209699 2.15644)
(-0.0131332 0.000415983 2.14683)
(-0.013836 -0.00358969 2.13537)
(-0.0133891 -0.00663009 2.11888)
(-0.0120034 -0.00876484 2.0946)
(-0.0111123 -0.00953403 2.06746)
(-0.00795929 0.00282766 2.13624)
(-0.00775995 0.00125299 2.12807)
(-0.00863224 -0.000578344 2.11949)
(-0.00935293 -0.000295806 2.105)
(-0.00879911 -0.000438414 2.08155)
(-0.00851435 -0.000976453 2.05331)
(-0.00883901 -0.0016011 2.02273)
(0.00271691 -0.0299776 2.2222)
(-0.000359229 -0.0114789 2.20097)
(-0.00668239 -0.0237377 2.18782)
(-0.0147294 -0.01766 2.18839)
(-0.0129719 -0.0145432 2.1855)
(-0.00967992 -0.0310413 2.17032)
(-0.0146994 0.000588724 2.17649)
(-0.0134849 -0.0115674 2.17118)
(-0.0119566 -0.0242391 2.15733)
(-0.00926549 -0.0321576 2.13479)
(-0.0155823 -0.00487572 2.17232)
(-0.0141681 -0.0108063 2.16413)
(-0.0133643 -0.0168228 2.14908)
(-0.0114869 -0.0225596 2.1285)
(-0.00952113 -0.0257304 2.10306)
(-0.0120271 4.43641e-06 2.1659)
(-0.012619 -0.00483827 2.15586)
(-0.0131876 -0.00898646 2.14409)
(-0.0131521 -0.0122007 2.12561)
(-0.0116915 -0.017009 2.10046)
(-0.0102382 -0.019883 2.07467)
(-0.0117014 0.00231985 2.15655)
(-0.0135017 0.000900421 2.14807)
(-0.0143987 -0.00333929 2.1354)
(-0.0141997 -0.00638425 2.11779)
(-0.0128127 -0.00851965 2.09519)
(-0.0120392 -0.00948227 2.06857)
(-0.0117238 -0.0101677 2.03904)
(-0.0081368 0.00263414 2.13606)
(-0.0077922 0.0015141 2.12845)
(-0.00881656 -0.000343602 2.11988)
(-0.00963287 -0.000254444 2.10631)
(-0.00918104 -0.000351987 2.08299)
(-0.0090476 -0.000913088 2.0552)
(-0.00938943 -0.00158179 2.02302)
(-0.00983073 -0.00158119 1.98953)
(-0.00566862 -0.0267352 2.23594)
(-0.0014805 -0.0292522 2.22467)
(-0.00391516 -0.0414817 2.20565)
(-0.003278 -0.0195475 2.2013)
(-0.00616436 -0.0243923 2.18812)
(-0.00833597 -0.0370122 2.17012)
(-0.0123757 -0.019187 2.18838)
(-0.0146855 -0.0218016 2.18576)
(-0.0118047 -0.0307662 2.17052)
(-0.00831116 -0.0441642 2.14592)
(-0.0134746 0.00121598 2.1773)
(-0.013581 -0.0126643 2.1716)
(-0.0142396 -0.0233724 2.15515)
(-0.0114843 -0.0320058 2.13466)
(-0.00908109 -0.0358966 2.10754)
(-0.0163297 -0.00340271 2.17192)
(-0.015324 -0.0102818 2.16387)
(-0.014947 -0.0163978 2.14913)
(-0.0129961 -0.0218442 2.1289)
(-0.0115644 -0.0257145 2.10331)
(-0.00999331 -0.0290493 2.0759)
(-0.0124924 0.000217014 2.16542)
(-0.0131319 -0.00535515 2.15583)
(-0.0141702 -0.00788101 2.14301)
(-0.0143636 -0.0124681 2.1259)
(-0.0132556 -0.0167394 2.10192)
(-0.0117927 -0.0198543 2.07493)
(-0.0107943 -0.0214037 2.04606)
(-0.0117171 0.00257222 2.15641)
(-0.0136302 0.00135542 2.14826)
(-0.0150463 -0.00283473 2.13722)
(-0.0148893 -0.00610494 2.11778)
(-0.013684 -0.00826225 2.09403)
(-0.0129571 -0.00925166 2.06914)
(-0.0127709 -0.0101279 2.04024)
(-0.0125018 -0.00976344 2.00789)
(-0.00807503 0.00276057 2.13585)
(-0.00788938 0.00153661 2.12756)
(-0.00898195 -8.24201e-05 2.11998)
(-0.00987945 -9.16787e-05 2.10663)
(-0.00954755 -0.000322958 2.08496)
(-0.00956936 -0.000839267 2.05662)
(-0.0100171 -0.00154273 2.02491)
(-0.0104058 -0.00155285 1.98984)
(-0.0108891 -0.000911272 1.95674)
(0.00159982 -0.0436585 2.27978)
(-0.00505217 -0.03994 2.26363)
(-0.00784673 -0.00329575 2.24406)
(-0.00900167 -0.0437737 2.2211)
(-0.0090574 -0.0264628 2.22382)
(-0.0076873 -0.0412476 2.20695)
(-0.00738691 -0.0538802 2.18015)
(-0.00427467 -0.0208757 2.20169)
(-0.00849673 -0.028676 2.1885)
(-0.0100582 -0.0373041 2.17034)
(-0.00809326 -0.0545506 2.14498)
(-0.0150908 -0.0263682 2.18504)
(-0.0152132 -0.0247022 2.18525)
(-0.0143822 -0.0320666 2.16946)
(-0.0109051 -0.0444387 2.14628)
(-0.00821698 -0.048302 2.11607)
(-0.0123381 -0.000824751 2.17922)
(-0.0139015 -0.0135504 2.17192)
(-0.0154675 -0.0238325 2.15535)
(-0.0139382 -0.0316608 2.1338)
(-0.0114195 -0.0357468 2.10759)
(-0.00963189 -0.0389225 2.07827)
(-0.017069 -0.00197086 2.17165)
(-0.0160691 -0.00927196 2.16367)
(-0.0162312 -0.015931 2.14885)
(-0.0146971 -0.0214446 2.12908)
(-0.0135738 -0.0252906 2.10382)
(-0.0123604 -0.0288807 2.07621)
(-0.010623 -0.0317192 2.04708)
(-0.0125305 6.11111e-05 2.16523)
(-0.014068 -0.00531998 2.15589)
(-0.015288 -0.00921523 2.14311)
(-0.0154797 -0.0115029 2.12528)
(-0.0146382 -0.0163855 2.10194)
(-0.0136643 -0.0196322 2.07581)
(-0.0125704 -0.0214023 2.04634)
(-0.0115976 -0.0217071 2.0138)
(-0.0116503 0.00273474 2.15639)
(-0.013845 0.0016124 2.1477)
(-0.015428 -0.00240555 2.13752)
(-0.0156716 -0.00570568 2.11959)
(-0.0144272 -0.00800161 2.094)
(-0.013942 -0.00899745 2.06794)
(-0.0138124 -0.00993841 2.04082)
(-0.0135264 -0.00970331 2.00917)
(-0.0134225 -0.00878934 1.97596)
(-0.0079991 0.0029855 2.13549)
(-0.00792805 0.00169612 2.12758)
(-0.0091704 0.000106107 2.11957)
(-0.0100713 0.000101417 2.1058)
(-0.00994498 -0.000204432 2.08542)
(-0.0100332 -0.000781319 2.05876)
(-0.0106239 -0.00144691 2.02633)
(-0.0110708 -0.00150198 1.99172)
(-0.0114501 -0.000873157 1.95697)
(-0.0120068 5.40842e-05 1.92518)
(-0.00143469 -0.0660661 2.3005)
(0.00024288 -0.0430517 2.28092)
(-0.00108145 -0.0748008 2.256)
(-0.00534746 -0.0452973 2.26474)
(-0.00338852 -0.0614474 2.24021)
(-0.00980377 -0.0113836 2.24171)
(-0.0120758 -0.0352502 2.22408)
(-0.00902833 -0.0633474 2.19659)
(-0.0137066 -0.0312284 2.22277)
(-0.0117991 -0.0408816 2.20687)
(-0.0117148 -0.0537882 2.18045)
(-0.00740476 -0.0650337 2.15165)
(-0.00680916 -0.0231863 2.20119)
(-0.0107646 -0.0290923 2.18863)
(-0.012563 -0.0369795 2.17014)
(-0.0120396 -0.0547369 2.14535)
(-0.00820535 -0.0627697 2.1158)
(-0.0129818 -0.0238642 2.18392)
(-0.0176635 -0.0252399 2.17786)
(-0.0171734 -0.0327277 2.16778)
(-0.01428 -0.0421213 2.14436)
(-0.01131 -0.0487238 2.11643)
(-0.00909579 -0.0526041 2.08312)
(-0.0114752 0.000298912 2.17892)
(-0.0145672 -0.0152082 2.17234)
(-0.0173708 -0.024282 2.1558)
(-0.0161607 -0.0314815 2.1339)
(-0.0141105 -0.0358187 2.10749)
(-0.0122436 -0.0388982 2.07845)
(-0.00997589 -0.0413473 2.04802)
(-0.0176593 -0.000570243 2.17149)
(-0.0168278 -0.00829933 2.16345)
(-0.0173853 -0.015654 2.14888)
(-0.0162179 -0.0209288 2.129)
(-0.0154532 -0.0248893 2.10416)
(-0.0148919 -0.0291016 2.07681)
(-0.013159 -0.0314341 2.04737)
(-0.0112873 -0.032516 2.01556)
(-0.0130976 -0.000165722 2.16496)
(-0.01451 -0.00533622 2.15583)
(-0.0166507 -0.00953376 2.14369)
(-0.0167634 -0.0121271 2.12525)
(-0.0162024 -0.0161185 2.10191)
(-0.0151176 -0.0190647 2.07564)
(-0.014518 -0.0212162 2.04734)
(-0.013413 -0.0217701 2.01407)
(-0.0124787 -0.0215809 1.98054)
(-0.0115803 0.00293854 2.15611)
(-0.0139773 0.00194545 2.14761)
(-0.0158966 -0.00215073 2.13667)
(-0.0162535 -0.00535176 2.11991)
(-0.0152717 -0.00775849 2.09571)
(-0.0147793 -0.00875981 2.06796)
(-0.0149041 -0.00970214 2.03967)
(-0.0146407 -0.00958924 2.0097)
(-0.0144521 -0.00867031 1.97727)
(-0.0145812 -0.00765024 1.94417)
(-0.00799011 0.00302006 2.13522)
(-0.00792709 0.00194141 2.12776)
(-0.00929461 0.000332738 2.11962)
(-0.0103135 0.000290257 2.10577)
(-0.0102039 -8.0756e-05 2.08468)
(-0.0106055 -0.000651382 2.05928)
(-0.0111568 -0.00135481 2.02849)
(-0.0116838 -0.00138453 1.99325)
(-0.0121132 -0.000807867 1.95886)
(-0.0125545 9.64768e-05 1.92531)
(-0.0132352 0.000926746 1.89432)
(0.0162758 -0.0872765 2.34255)
(-0.00209146 -0.060664 2.3055)
(-0.001457 -0.0945495 2.26902)
(-0.00732717 -0.0421952 2.2793)
(-0.00701462 -0.0709313 2.25772)
(-0.00235837 -0.096874 2.21666)
(-0.00443845 -0.0366435 2.26748)
(-0.0073034 -0.0672762 2.23956)
(-0.00547743 -0.0790433 2.20759)
(-0.0172871 -0.0247856 2.24077)
(-0.0159071 -0.0359994 2.22345)
(-0.0132044 -0.0592237 2.19475)
(-0.00724194 -0.0794471 2.16645)
(-0.0122384 -0.0222644 2.2221)
(-0.018458 -0.0431268 2.20618)
(-0.0161337 -0.0527163 2.18074)
(-0.0117908 -0.0645845 2.15194)
(-0.00710664 -0.0729419 2.12007)
(-0.0104536 -0.0167317 2.19995)
(-0.0132823 -0.0299997 2.18891)
(-0.0155417 -0.036625 2.16987)
(-0.015483 -0.0517175 2.1449)
(-0.0130501 -0.0628895 2.11628)
(-0.00871188 -0.065388 2.08379)
(-0.0156815 -0.0181875 2.18236)
(-0.019059 -0.0234686 2.17709)
(-0.0193433 -0.0301266 2.15971)
(-0.0179556 -0.0408839 2.14237)
(-0.0150494 -0.0462245 2.11478)
(-0.0126713 -0.0527865 2.08334)
(-0.00957915 -0.0543837 2.04968)
(-0.0108582 -0.000654823 2.17859)
(-0.0153294 -0.015296 2.17201)
(-0.0193596 -0.0244305 2.15617)
(-0.0187353 -0.0311549 2.13435)
(-0.0169196 -0.035709 2.10767)
(-0.0152471 -0.038925 2.07861)
(-0.0128885 -0.0416537 2.04824)
(-0.0106532 -0.0434539 2.01625)
(-0.0177301 0.000716106 2.17145)
(-0.0175078 -0.00747065 2.16328)
(-0.0187792 -0.0152978 2.14913)
(-0.0176914 -0.0207813 2.12899)
(-0.0173579 -0.0244874 2.10425)
(-0.0172108 -0.0287022 2.07715)
(-0.0158751 -0.0317338 2.0481)
(-0.0139077 -0.032267 2.01584)
(-0.0121927 -0.0324281 1.9826)
(-0.0133286 -0.000298531 2.16476)
(-0.0152954 -0.00519936 2.15558)
(-0.0175371 -0.00957888 2.14379)
(-0.0181031 -0.0120353 2.12529)
(-0.0173554 -0.0155258 2.10185)
(-0.0170218 -0.0191858 2.07612)
(-0.0161917 -0.0205867 2.04729)
(-0.0153576 -0.0216009 2.01529)
(-0.0143802 -0.0216868 1.98085)
(-0.0134605 -0.0200604 1.94775)
(-0.0113704 0.00307197 2.15614)
(-0.0140059 0.00237982 2.14798)
(-0.0162755 -0.00180644 2.1366)
(-0.0168622 -0.00497675 2.11875)
(-0.0160496 -0.00744323 2.09601)
(-0.0156957 -0.00855466 2.06965)
(-0.0158707 -0.00945092 2.03974)
(-0.0157463 -0.00939477 2.00855)
(-0.0156151 -0.00858337 1.9778)
(-0.0155962 -0.00752988 1.94554)
(-0.0158638 -0.00674858 1.91246)
(-0.00796028 0.00312486 2.1349)
(-0.0078962 0.00208897 2.12753)
(-0.00939183 0.000582612 2.11963)
(-0.0104806 0.00050641 2.10551)
(-0.0106091 8.7162e-05 2.08465)
(-0.0109669 -0.000515723 2.05864)
(-0.0118188 -0.00117079 2.02898)
(-0.0122511 -0.00126908 1.99536)
(-0.0127312 -0.000678624 1.96038)
(-0.0132101 0.000180288 1.92703)
(-0.0137404 0.0009689 1.89443)
(-0.0145653 0.00157013 1.86312)
(0.057481 -0.167231 2.40766)
(0.0219615 -0.118837 2.37193)
(0.0099903 -0.086071 2.33978)
(0.015863 -0.108988 2.29926)
(-0.00909333 -0.0600001 2.30841)
(-0.00723328 -0.0952846 2.27308)
(-0.00400738 -0.109577 2.22921)
(-0.0123087 -0.0382295 2.27891)
(-0.0146169 -0.0662514 2.25639)
(-0.0108373 -0.095586 2.21748)
(0.000826207 -0.117643 2.17618)
(-0.012182 -0.0353029 2.26671)
(-0.0122429 -0.0634119 2.24204)
(-0.0112837 -0.0829605 2.20646)
(-0.00599898 -0.0929459 2.17069)
(-0.0246282 -0.034432 2.24102)
(-0.0218573 -0.0419931 2.22276)
(-0.0181277 -0.0584855 2.19446)
(-0.0123239 -0.0772457 2.16301)
(-0.00680802 -0.0885773 2.13083)
(-0.0134197 -0.0240803 2.22338)
(-0.0157711 -0.0342324 2.20526)
(-0.0213003 -0.0527685 2.18075)
(-0.0175194 -0.0639162 2.15232)
(-0.0116874 -0.0728197 2.1206)
(-0.00840644 -0.0764537 2.08732)
(-0.00617696 -0.00072504 2.19993)
(-0.0176139 -0.023905 2.18921)
(-0.0178494 -0.0360506 2.1698)
(-0.0192528 -0.0512688 2.14457)
(-0.0175758 -0.0603277 2.11563)
(-0.0137453 -0.0655799 2.08412)
(-0.00892272 -0.0674204 2.05028)
(-0.0179931 -0.0128649 2.18169)
(-0.0207917 -0.019568 2.17675)
(-0.0222851 -0.0283698 2.15898)
(-0.0206904 -0.0386871 2.1369)
(-0.0187488 -0.0449246 2.11338)
(-0.0166339 -0.0512486 2.08248)
(-0.0134336 -0.0543417 2.04983)
(-0.0102841 -0.0560924 2.01621)
(-0.0135996 -0.00504303 2.18037)
(-0.0171037 -0.0170657 2.17215)
(-0.0216055 -0.0245046 2.15655)
(-0.0212911 -0.0306186 2.13466)
(-0.019782 -0.0349384 2.10797)
(-0.0183662 -0.0389296 2.07878)
(-0.0161088 -0.0412514 2.04845)
(-0.0137937 -0.0440151 2.01654)
(-0.0115225 -0.0447686 1.9835)
(-0.0165491 0.00179775 2.17149)
(-0.0178108 -0.00653409 2.1632)
(-0.0198184 -0.0147794 2.14922)
(-0.0195132 -0.0206027 2.1291)
(-0.0191178 -0.0238921 2.10418)
(-0.0195774 -0.028346 2.07735)
(-0.0185274 -0.0313099 2.04849)
(-0.0166044 -0.032316 2.01657)
(-0.0148277 -0.0322014 1.98299)
(-0.0130598 -0.0309126 1.94954)
(-0.0137417 -0.000111287 2.1645)
(-0.015811 -0.00491781 2.15547)
(-0.0186973 -0.00946142 2.14338)
(-0.0191096 -0.0117678 2.12558)
(-0.0188179 -0.0148421 2.1018)
(-0.0182197 -0.0180565 2.07597)
(-0.0181547 -0.0206495 2.04759)
(-0.0172722 -0.0210147 2.01538)
(-0.0163366 -0.0215161 1.98205)
(-0.0154219 -0.0200918 1.94813)
(-0.014614 -0.0188811 1.9155)
(-0.0112561 0.00325082 2.15613)
(-0.0138675 0.00284454 2.1481)
(-0.0165344 -0.00135643 2.13736)
(-0.0174178 -0.00459679 2.11868)
(-0.0167854 -0.00698284 2.09462)
(-0.0166646 -0.00817419 2.06992)
(-0.016894 -0.00922806 2.04132)
(-0.0167591 -0.00913388 2.00862)
(-0.0167179 -0.00844663 1.97664)
(-0.0168093 -0.00740709 1.94607)
(-0.0168799 -0.00662861 1.91389)
(-0.0173417 -0.00615715 1.88009)
(-0.00790066 0.00319135 2.13459)
(-0.00787697 0.00227102 2.12738)
(-0.00949886 0.000830783 2.12031)
(-0.010629 0.000720721 2.10515)
(-0.0108279 0.000266294 2.08414)
(-0.0115206 -0.000298224 2.0586)
(-0.0122386 -0.000996001 2.02816)
(-0.0129087 -0.00103195 1.99573)
(-0.0132544 -0.000556535 1.96256)
(-0.0137508 0.000297193 1.92914)
(-0.014418 0.00106608 1.89623)
(-0.0151465 0.00164229 1.86305)
(-0.0160423 0.0024066 1.8304)
(0.124442 -0.169855 2.4494)
(0.0476693 -0.145896 2.41938)
(0.0373769 -0.163391 2.35047)
(0.00549794 -0.0819206 2.36037)
(0.00845792 -0.142878 2.31705)
(-0.018897 -0.0778289 2.3358)
(0.00139641 -0.108997 2.29664)
(0.00883635 -0.12644 2.24576)
(-0.0109351 -0.0568724 2.30978)
(-0.0140012 -0.10223 2.27806)
(-0.0119057 -0.109873 2.23233)
(-0.00171689 -0.126085 2.19188)
(-0.0176801 -0.0360743 2.28075)
(-0.0176008 -0.0647317 2.25615)
(-0.0181521 -0.0887734 2.2156)
(-0.00859147 -0.118777 2.17633)
(0.00282306 -0.12127 2.13644)
(-0.0187125 -0.0417321 2.26489)
(-0.0192994 -0.0618602 2.24173)
(-0.0180656 -0.0820221 2.20734)
(-0.0118926 -0.0937525 2.16984)
(-0.00678046 -0.107974 2.12926)
(-0.0198603 -0.0301033 2.23965)
(-0.0268056 -0.0377736 2.22398)
(-0.0218904 -0.0599366 2.19421)
(-0.0180833 -0.0757045 2.16326)
(-0.012531 -0.0860551 2.12894)
(-0.00731209 -0.0930402 2.09156)
(-0.00976385 -0.0132812 2.21968)
(-0.024086 -0.0317586 2.2048)
(-0.0228416 -0.0471108 2.18042)
(-0.0210343 -0.0629641 2.15284)
(-0.0178423 -0.0710246 2.1214)
(-0.0131343 -0.0761158 2.0879)
(-0.00874092 -0.0773466 2.05329)
(-0.0172149 -0.0153815 2.19883)
(-0.0199013 -0.0241639 2.19189)
(-0.0219345 -0.0348746 2.17038)
(-0.0221025 -0.0492265 2.14431)
(-0.0219929 -0.059581 2.11558)
(-0.0186224 -0.0636988 2.08365)
(-0.0139222 -0.0674572 2.05052)
(-0.00955121 -0.0677753 2.01734)
(-0.0157309 -0.00939704 2.18064)
(-0.0217863 -0.0168353 2.17641)
(-0.0232231 -0.0263805 2.1587)
(-0.0240008 -0.0368871 2.13638)
(-0.0220151 -0.0436932 2.11085)
(-0.0203966 -0.050277 2.08186)
(-0.0175731 -0.0533942 2.04959)
(-0.0144908 -0.0561367 2.01641)
(-0.0113028 -0.056071 1.98273)
(-0.0161793 -0.00748802 2.18083)
(-0.0194992 -0.018144 2.1727)
(-0.0237094 -0.0240902 2.15709)
(-0.0239929 -0.0296022 2.13517)
(-0.0226787 -0.0344531 2.10823)
(-0.0213657 -0.0380595 2.07897)
(-0.0194131 -0.0408865 2.04858)
(-0.0171494 -0.0433094 2.01676)
(-0.0149073 -0.0452641 1.98372)
(-0.0126842 -0.0422207 1.95088)
(-0.0155925 0.00260361 2.17153)
(-0.0179021 -0.00553904 2.16312)
(-0.0208898 -0.0141355 2.14934)
(-0.0209059 -0.0199059 2.12931)
(-0.0209732 -0.0234874 2.10429)
(-0.0218086 -0.0273671 2.07739)
(-0.021143 -0.0308258 2.04857)
(-0.0194552 -0.0319326 2.0169)
(-0.0175039 -0.0322125 1.98354)
(-0.015691 -0.0306893 1.9501)
(-0.0141495 -0.029593 1.91725)
(-0.0139921 -2.60251e-05 2.16438)
(-0.0164383 -0.00453581 2.15551)
(-0.0194757 -0.00904591 2.14351)
(-0.0203707 -0.0113638 2.12556)
(-0.0199151 -0.0142508 2.10177)
(-0.019833 -0.0170639 2.07593)
(-0.0195265 -0.0195327 2.04749)
(-0.0191328 -0.0209192 2.01535)
(-0.0184116 -0.020983 1.98221)
(-0.017303 -0.0198933 1.94927)
(-0.0166076 -0.0188361 1.91595)
(-0.0159202 -0.0184554 1.88292)
(-0.0110749 0.00332921 2.15598)
(-0.0139997 0.00299178 2.14753)
(-0.0167128 -0.000830351 2.13755)
(-0.0179228 -0.00416989 2.11957)
(-0.0174792 -0.00657426 2.09457)
(-0.0174992 -0.00771529 2.06871)
(-0.0180082 -0.00880652 2.04155)
(-0.0178378 -0.00887479 2.00993)
(-0.017734 -0.00819273 1.97668)
(-0.0179066 -0.00729846 1.94492)
(-0.0181629 -0.00647277 1.91443)
(-0.0183727 -0.00601206 1.88149)
(-0.0188585 -0.00547145 1.84612)
(-0.00786629 0.00326971 2.13433)
(-0.0077985 0.00240417 2.12707)
(-0.00953163 0.00112242 2.12038)
(-0.0107982 0.00096755 2.10642)
(-0.0111579 0.000494057 2.08396)
(-0.0118672 -9.60616e-05 2.05811)
(-0.0128728 -0.000710757 2.02805)
(-0.0133334 -0.000829586 1.99506)
(-0.0139557 -0.000247686 1.96301)
(-0.0143809 0.000501441 1.93049)
(-0.0149711 0.00121816 1.89808)
(-0.0158029 0.00171312 1.86514)
(-0.0166142 0.00247267 1.83041)
(-0.017598 0.00327039 1.79731)
(0.382029 -0.20213 2.40984)
(0.106765 -0.145713 2.44445)
(0.102654 -0.220885 2.36508)
(0.0294412 -0.131341 2.41461)
(0.0229429 -0.165115 2.35227)
(0.0424293 -0.185029 2.28383)
(-0.00756009 -0.0788994 2.37268)
(-0.00770636 -0.125097 2.30793)
(0.00721957 -0.154138 2.25957)
(-0.0148166 -0.0658609 2.33243)
(-0.0218242 -0.110499 2.29863)
(-0.00699923 -0.13699 2.24345)
(0.0116947 -0.152404 2.19569)
(-0.0255685 -0.051807 2.30742)
(-0.0177844 -0.106702 2.28019)
(-0.0171629 -0.1236 2.23565)
(-0.00837634 -0.126537 2.19323)
(0.00109954 -0.145654 2.15013)
(-0.0255307 -0.0430605 2.28303)
(-0.0209889 -0.0618296 2.25781)
(-0.0202248 -0.0893103 2.21451)
(-0.0166543 -0.112847 2.1748)
(-0.00568261 -0.123079 2.13658)
(0.00316644 -0.123864 2.09469)
(-0.0338432 -0.052402 2.26647)
(-0.0280622 -0.0656831 2.24261)
(-0.0251387 -0.0801057 2.20661)
(-0.0185218 -0.094746 2.16952)
(-0.0138873 -0.108107 2.12948)
(-0.00766267 -0.110237 2.08838)
(-0.0092338 -5.98396e-05 2.23539)
(-0.0243917 -0.0421566 2.22291)
(-0.0269783 -0.052365 2.19428)
(-0.0215646 -0.0754904 2.16359)
(-0.0188593 -0.08777 2.12914)
(-0.0133334 -0.0923391 2.09078)
(-0.00713993 -0.0954031 2.05262)
(-0.0126665 -0.011242 2.22546)
(-0.0200156 -0.0296768 2.20366)
(-0.0293408 -0.0433795 2.1805)
(-0.0265014 -0.0615724 2.15359)
(-0.0209889 -0.0713185 2.12177)
(-0.0190779 -0.075688 2.08874)
(-0.0137303 -0.0772583 2.05375)
(-0.0096868 -0.0813427 2.01837)
(-0.0201188 -0.015018 2.19888)
(-0.0257237 -0.0269599 2.19068)
(-0.0279812 -0.0446179 2.17432)
(-0.0260873 -0.0516101 2.14504)
(-0.0254783 -0.0569315 2.11556)
(-0.0232115 -0.0634429 2.0838)
(-0.0189658 -0.0665828 2.05036)
(-0.0145034 -0.0678265 2.01754)
(-0.0104987 -0.068043 1.98356)
(-0.0134179 -0.00460408 2.17776)
(-0.021077 -0.0138046 2.17658)
(-0.0242194 -0.0264691 2.15889)
(-0.0249123 -0.0362515 2.13574)
(-0.0253163 -0.0424003 2.11049)
(-0.0240273 -0.0492677 2.081)
(-0.021391 -0.0526136 2.04943)
(-0.0189616 -0.0552755 2.01649)
(-0.0155093 -0.05595 1.98293)
(-0.0121255 -0.0539445 1.95023)
(-0.0167203 -0.00644079 2.18057)
(-0.0220762 -0.0184393 2.17305)
(-0.0254768 -0.0233328 2.15761)
(-0.0262317 -0.0278764 2.13564)
(-0.0254743 -0.0330249 2.10872)
(-0.0245067 -0.0376178 2.07919)
(-0.0226085 -0.0402169 2.04877)
(-0.0205328 -0.0426529 2.01685)
(-0.0183954 -0.0444989 1.98394)
(-0.0158331 -0.0424192 1.95094)
(-0.0137392 -0.0407912 1.91904)
(-0.0148231 0.00286908 2.17156)
(-0.0180783 -0.00477428 2.16293)
(-0.0218925 -0.0134116 2.14933)
(-0.0226368 -0.0190901 2.12953)
(-0.0228404 -0.0229358 2.10457)
(-0.0237107 -0.0263275 2.07749)
(-0.023629 -0.0298719 2.04872)
(-0.0220994 -0.0313189 2.01692)
(-0.0204207 -0.031896 1.98371)
(-0.0185007 -0.0308672 1.95038)
(-0.0168698 -0.0294353 1.91772)
(-0.0154858 -0.0291279 1.88477)
(-0.0142758 0.000253281 2.1642)
(-0.0169562 -0.00422739 2.15549)
(-0.0203835 -0.00858608 2.14403)
(-0.0212609 -0.0107527 2.12555)
(-0.0212212 -0.0134944 2.10174)
(-0.0211551 -0.0162684 2.07567)
(-0.0212976 -0.0184892 2.04746)
(-0.0208593 -0.0199522 2.01533)
(-0.0203104 -0.0207418 1.98179)
(-0.0193893 -0.0194256 1.9494)
(-0.018479 -0.0185969 1.91696)
(-0.0179226 -0.0184383 1.88346)
(-0.0173518 -0.0179982 1.8492)
(-0.0109551 0.00340589 2.156)
(-0.0140616 0.00311714 2.14745)
(-0.0170769 -0.000612773 2.13657)
(-0.0183742 -0.0036641 2.11974)
(-0.0182224 -0.00618403 2.09568)
(-0.0183117 -0.00725277 2.06874)
(-0.0189224 -0.00833477 2.04079)
(-0.0189874 -0.00848278 2.01011)
(-0.0188532 -0.00790612 1.97748)
(-0.0189278 -0.00705922 1.94493)
(-0.0192633 -0.00636062 1.91326)
(-0.0196895 -0.00585586 1.88206)
(-0.0198907 -0.00530746 1.84768)
(-0.020478 -0.00476081 1.81154)
(-0.00779594 0.00333075 2.13404)
(-0.00774544 0.00254232 2.12681)
(-0.00953652 0.00134497 2.11997)
(-0.0108962 0.00124312 2.10669)
(-0.0113796 0.000717744 2.08441)
(-0.012336 0.00019509 2.058)
(-0.0132739 -0.000436058 2.02736)
(-0.0139749 -0.000489164 1.995)
(-0.0143083 -4.33355e-05 1.96241)
(-0.0148441 0.000707993 1.93028)
(-0.0155603 0.00141424 1.89858)
(-0.0164301 0.00191717 1.8665)
(-0.0172552 0.0025102 1.83287)
(-0.018228 0.00333399 1.79773)
(-0.0193292 0.00399579 1.76281)
(0.954087 -0.0367028 2.36736)
(0.368636 -0.200071 2.41889)
(0.239317 -0.1988 2.36417)
(0.132403 -0.123061 2.43828)
(0.0765004 -0.215081 2.36772)
(0.051266 -0.248459 2.29205)
(0.036888 -0.124734 2.41915)
(0.0221368 -0.133853 2.35717)
(0.014205 -0.168175 2.28712)
(0.0336333 -0.21404 2.21641)
(-0.0122353 -0.12539 2.36665)
(-0.0277586 -0.137799 2.32294)
(-0.0139059 -0.136756 2.25697)
(0.00249076 -0.173828 2.20419)
(-0.00697936 -0.076624 2.33475)
(-0.0231907 -0.104133 2.29915)
(-0.0267521 -0.132164 2.248)
(-0.00718075 -0.163316 2.1938)
(0.00923203 -0.159682 2.14237)
(-0.0215353 -0.0627616 2.30386)
(-0.0288395 -0.0987825 2.27948)
(-0.0236083 -0.129992 2.23716)
(-0.0137585 -0.136934 2.1934)
(-0.00615435 -0.145673 2.15)
(0.00281274 -0.141895 2.10312)
(-0.0298381 -0.0327086 2.28155)
(-0.0275326 -0.0647556 2.25874)
(-0.0232544 -0.08818 2.21514)
(-0.0208594 -0.110877 2.17363)
(-0.013566 -0.121412 2.13586)
(-0.00391341 -0.126363 2.09492)
(0.00368353 -0.121478 2.05549)
(-0.0297106 -0.0296291 2.25905)
(-0.0328081 -0.0667661 2.24389)
(-0.032369 -0.080779 2.20821)
(-0.0272935 -0.0927927 2.16859)
(-0.0205174 -0.106455 2.12828)
(-0.0150817 -0.109197 2.08872)
(-0.0072338 -0.107329 2.05041)
(-0.0168828 -0.0199469 2.24991)
(-0.0274738 -0.0395441 2.22244)
(-0.0263028 -0.0572006 2.19449)
(-0.0280919 -0.0737829 2.16354)
(-0.0238799 -0.0863055 2.1294)
(-0.0198908 -0.0929558 2.0911)
(-0.0135698 -0.0950479 2.05246)
(-0.00823774 -0.0943657 2.0161)
(-0.0102261 -0.0113734 2.22669)
(-0.0263297 -0.0255176 2.20608)
(-0.029697 -0.041662 2.18081)
(-0.0282566 -0.0600707 2.15407)
(-0.027875 -0.0719501 2.12353)
(-0.0227074 -0.0750132 2.08893)
(-0.0196033 -0.0770513 2.05442)
(-0.0152593 -0.0811762 2.01885)
(-0.010561 -0.0805974 1.98296)
(-0.0226255 -0.0152285 2.19951)
(-0.0283886 -0.0261715 2.19135)
(-0.028738 -0.0372573 2.17255)
(-0.0323635 -0.0590132 2.14952)
(-0.0295286 -0.0597033 2.11638)
(-0.0275213 -0.0613867 2.08383)
(-0.0235918 -0.0659367 2.05068)
(-0.0195003 -0.0677136 2.01744)
(-0.015415 -0.068096 1.98392)
(-0.0116053 -0.0655614 1.9499)
(-0.0140604 -0.00256916 2.17819)
(-0.0212774 -0.0110066 2.17708)
(-0.0264287 -0.024927 2.1599)
(-0.026762 -0.0370999 2.13634)
(-0.0269923 -0.041842 2.10961)
(-0.0274248 -0.0482593 2.08071)
(-0.0253229 -0.0516792 2.04928)
(-0.022883 -0.0543479 2.01648)
(-0.0200181 -0.0554507 1.98311)
(-0.0162264 -0.0537906 1.95039)
(-0.0134505 -0.0522665 1.91854)
(-0.0180665 -0.00568286 2.18026)
(-0.0242064 -0.017693 2.17307)
(-0.0276795 -0.0231198 2.15809)
(-0.0281012 -0.0262184 2.13604)
(-0.0277925 -0.0309286 2.1091)
(-0.0274744 -0.0366108 2.07951)
(-0.0258537 -0.0393332 2.04897)
(-0.0240692 -0.042559 2.01704)
(-0.021825 -0.0437065 1.98425)
(-0.0193449 -0.0419148 1.95136)
(-0.0170641 -0.0404872 1.91907)
(-0.0149151 -0.0401815 1.88681)
(-0.0140714 0.00291986 2.17152)
(-0.0182706 -0.00421585 2.16286)
(-0.0227528 -0.012798 2.14934)
(-0.0242042 -0.0182315 2.12953)
(-0.0247511 -0.0220364 2.1048)
(-0.0258819 -0.0256195 2.07763)
(-0.0258859 -0.028538 2.04878)
(-0.0247168 -0.0304811 2.01712)
(-0.0230351 -0.0312497 1.98382)
(-0.0212896 -0.0305247 1.95046)
(-0.0196618 -0.0296361 1.91774)
(-0.0182466 -0.0290168 1.88517)
(-0.0168279 -0.0290111 1.8511)
(-0.0144631 0.000454009 2.16411)
(-0.0174917 -0.003751 2.15531)
(-0.0211091 -0.00804253 2.14412)
(-0.0222814 -0.010046 2.12548)
(-0.0223101 -0.0127592 2.10165)
(-0.0225705 -0.0153506 2.07559)
(-0.0227484 -0.0176585 2.04724)
(-0.0226129 -0.0190884 2.01528)
(-0.0221498 -0.0199822 1.98185)
(-0.0212188 -0.0191562 1.94888)
(-0.0205682 -0.0181989 1.91709)
(-0.0199028 -0.0181885 1.88424)
(-0.0193232 -0.0180317 1.84976)
(-0.0188936 -0.0177749 1.81464)
(-0.0108132 0.0033596 2.15602)
(-0.0140594 0.00333057 2.14791)
(-0.017347 -0.000350913 2.13654)
(-0.0187754 -0.00322814 2.1193)
(-0.01892 -0.00569326 2.09581)
(-0.0192013 -0.00679211 2.06957)
(-0.0198623 -0.00783536 2.04087)
(-0.0199267 -0.00804724 2.00989)
(-0.019992 -0.00752888 1.97761)
(-0.0201028 -0.00675434 1.94515)
(-0.0203163 -0.00612209 1.91328)
(-0.0208452 -0.0057138 1.88087)
(-0.0213448 -0.00510191 1.84827)
(-0.0215804 -0.00459487 1.81303)
(-0.0223296 -0.0042058 1.77621)
(-0.00771415 0.00341637 2.13364)
(-0.00766407 0.00264909 2.12653)
(-0.0095503 0.00159664 2.1198)
(-0.0109723 0.00145398 2.10639)
(-0.0116434 0.00100498 2.0845)
(-0.0126728 0.000477702 2.05731)
(-0.0137556 -8.14551e-05 2.02671)
(-0.0143423 -0.000211447 1.99468)
(-0.0149901 0.000346835 1.96239)
(-0.0154519 0.00100548 1.93031)
(-0.0161092 0.00163778 1.89844)
(-0.0169409 0.00215304 1.86551)
(-0.0179475 0.00272963 1.83414)
(-0.0188466 0.00338973 1.79993)
(-0.0201077 0.00412348 1.76353)
(-0.0210846 0.00443504 1.72556)
(1.72008 0.0371662 2.23888)
(0.90483 -0.103863 2.38777)
(0.573433 -0.206024 2.28885)
(0.372832 -0.182192 2.42605)
(0.241382 -0.237428 2.36327)
(0.163468 -0.262518 2.30249)
(0.129491 -0.15307 2.43874)
(0.0819566 -0.20873 2.37184)
(0.0274211 -0.234303 2.29728)
(0.0468043 -0.234221 2.22703)
(0.036486 -0.124555 2.40349)
(0.0247383 -0.176916 2.35111)
(0.0221348 -0.158168 2.29725)
(0.0117577 -0.211924 2.22274)
(0.0129449 -0.202452 2.15184)
(-0.0176706 -0.0775906 2.3774)
(-0.0228843 -0.184601 2.31859)
(-0.0332464 -0.166678 2.26282)
(-0.00880286 -0.162997 2.20585)
(0.00336131 -0.193808 2.14391)
(-0.0384808 -0.0982593 2.34448)
(-0.0147688 -0.102631 2.30094)
(-0.0300827 -0.129566 2.24707)
(-0.0222449 -0.157744 2.19483)
(-0.00407592 -0.169177 2.14121)
(0.00827182 -0.171457 2.08685)
(-0.0338011 -0.067862 2.30763)
(-0.0334164 -0.106873 2.27461)
(-0.033871 -0.123529 2.23666)
(-0.0231532 -0.139888 2.19391)
(-0.0162717 -0.146512 2.14895)
(-0.00568662 -0.139274 2.10199)
(0.00185516 -0.142059 2.05611)
(-0.0403499 -0.0459343 2.28729)
(-0.0280144 -0.0547719 2.25879)
(-0.0282212 -0.0894769 2.21453)
(-0.0260481 -0.108593 2.17416)
(-0.0216402 -0.120381 2.13512)
(-0.0130232 -0.126205 2.09488)
(-0.00458751 -0.123708 2.05586)
(0.00170891 -0.122357 2.01625)
(-0.011691 -0.0182513 2.25106)
(-0.0415473 -0.0476437 2.23541)
(-0.0366129 -0.0787911 2.20647)
(-0.0331738 -0.0919584 2.17)
(-0.0299821 -0.104688 2.1279)
(-0.0220771 -0.107166 2.08778)
(-0.0145214 -0.106435 2.0508)
(-0.00825524 -0.110211 2.01363)
(-0.0275192 -0.0214244 2.25952)
(-0.0345373 -0.0460812 2.2328)
(-0.0356504 -0.0662593 2.19355)
(-0.0306293 -0.0756016 2.1642)
(-0.0314425 -0.0892771 2.13011)
(-0.0266337 -0.0920549 2.0913)
(-0.0206377 -0.0949462 2.05267)
(-0.0147759 -0.0941483 2.01633)
(-0.00947099 -0.0941904 1.98002)
(-0.0123122 -0.014282 2.22674)
(-0.0254745 -0.0271118 2.20802)
(-0.0353668 -0.0389872 2.18137)
(-0.0337252 -0.0568937 2.15299)